# vtk DataFile Version 2.0
FlowField
ASCII
DATASET STRUCTURED_GRID
DIMENSIONS 800 1 200
POINTS 160000 float
0 0 0
0.04 0 0
0.08 0 0
0.12 0 0
0.16 0 0
0.2 0 0
0.24 0 0
0.28 0 0
0.32 0 0
0.36 0 0
0.4 0 0
0.44 0 0
0.48 0 0
0.52 0 0
0.56 0 0
0.6 0 0
0.64 0 0
0.68 0 0
0.72 0 0
0.76 0 0
0.8 0 0
0.84 0 0
0.88 0 0
0.92 0 0
0.96 0 0
1 0 0
1.04 0 0
1.08 0 0
1.12 0 0
1.16 0 0
1.2 0 0
1.24 0 0
1.28 0 0
1.32 0 0
1.36 0 0
1.4 0 0
1.44 0 0
1.48 0 0
1.52 0 0
1.56 0 0
1.6 0 0
1.64 0 0
1.68 0 0
1.72 0 0
1.76 0 0
1.8 0 0
1.84 0 0
1.88 0 0
1.92 0 0
1.96 0 0
2 0 0
2.04 0 0
2.08 0 0
2.12 0 0
2.16 0 0
2.2 0 0
2.24 0 0
2.28 0 0
2.32 0 0
2.36 0 0
2.4 0 0
2.44 0 0
2.48 0 0
2.52 0 0
2.56 0 0
2.6 0 0
2.64 0 0
2.68 0 0
2.72 0 0
2.76 0 0
2.8 0 0
2.84 0 0
2.88 0 0
2.92 0 0
2.96 0 0
3 0 0
3.04 0 0
3.08 0 0
3.12 0 0
3.16 0 0
3.2 0 0
3.24 0 0
3.28 0 0
3.32 0 0
3.36 0 0
3.4 0 0
3.44 0 0
3.48 0 0
3.52 0 0
3.56 0 0
3.6 0 0
3.64 0 0
3.68 0 0
3.72 0 0
3.76 0 0
3.8 0 0
3.84 0 0
3.88 0 0
3.92 0 0
3.96 0 0
4 0 0
4.04 0 0
4.08 0 0
4.12 0 0
4.16 0 0
4.2 0 0
4.24 0 0
4.28 0 0
4.32 0 0
4.36 0 0
4.4 0 0
4.44 0 0
4.48 0 0
4.52 0 0
4.56 0 0
4.6 0 0
4.64 0 0
4.68 0 0
4.72 0 0
4.76 0 0
4.8 0 0
4.84 0 0
4.88 0 0
4.92 0 0
4.96 0 0
5 0 0
5.04 0 0
5.08 0 0
5.12 0 0
5.16 0 0
5.2 0 0
5.24 0 0
5.28 0 0
5.32 0 0
5.36 0 0
5.4 0 0
5.44 0 0
5.48 0 0
5.52 0 0
5.56 0 0
5.6 0 0
5.64 0 0
5.68 0 0
5.72 0 0
5.76 0 0
5.8 0 0
5.84 0 0
5.88 0 0
5.92 0 0
5.96 0 0
6 0 0
6.04 0 0
6.08 0 0
6.12 0 0
6.16 0 0
6.2 0 0
6.24 0 0
6.28 0 0
6.32 0 0
6.36 0 0
6.4 0 0
6.44 0 0
6.48 0 0
6.52 0 0
6.56 0 0
6.6 0 0
6.64 0 0
6.68 0 0
6.72 0 0
6.76 0 0
6.8 0 0
6.84 0 0
6.88 0 0
6.92 0 0
6.96 0 0
7 0 0
7.04 0 0
7.08 0 0
7.12 0 0
7.16 0 0
7.2 0 0
7.24 0 0
7.28 0 0
7.32 0 0
7.36 0 0
7.4 0 0
7.44 0 0
7.48 0 0
7.52 0 0
7.56 0 0
7.6 0 0
7.64 0 0
7.68 0 0
7.72 0 0
7.76 0 0
7.8 0 0
7.84 0 0
7.88 0 0
7.92 0 0
7.96 0 0
8 0 0
8.04 0 0
8.08 0 0
8.12 0 0
8.16 0 0
8.2 0 0
8.24 0 0
8.28 0 0
8.32 0 0
8.36 0 0
8.4 0 0
8.44 0 0
8.48 0 0
8.52 0 0
8.56 0 0
8.6 0 0
8.64 0 0
8.68 0 0
8.72 0 0
8.76 0 0
8.8 0 0
8.84 0 0
8.88 0 0
8.92 0 0
8.96 0 0
9 0 0
9.04 0 0
9.08 0 0
9.12 0 0
9.16 0 0
9.2 0 0
9.24 0 0
9.28 0 0
9.32 0 0
9.36 0 0
9.4 0 0
9.44 0 0
9.48 0 0
9.52 0 0
9.56 0 0
9.6 0 0
9.64 0 0
9.68 0 0
9.72 0 0
9.76 0 0
9.8 0 0
9.84 0 0
9.88 0 0
9.92 0 0
9.96 0 0
10 0 0
10.04 0 0
10.08 0 0
10.12 0 0
10.16 0 0
10.2 0 0
10.24 0 0
10.28 0 0
10.32 0 0
10.36 0 0
10.4 0 0
10.44 0 0
10.48 0 0
10.52 0 0
10.56 0 0
10.6 0 0
10.64 0 0
10.68 0 0
10.72 0 0
10.76 0 0
10.8 0 0
10.84 0 0
10.88 0 0
10.92 0 0
10.96 0 0
11 0 0
11.04 0 0
11.08 0 0
11.12 0 0
11.16 0 0
11.2 0 0
11.24 0 0
11.28 0 0
11.32 0 0
11.36 0 0
11.4 0 0
11.44 0 0
11.48 0 0
11.52 0 0
11.56 0 0
11.6 0 0
11.64 0 0
11.68 0 0
11.72 0 0
11.76 0 0
11.8 0 0
11.84 0 0
11.88 0 0
11.92 0 0
11.96 0 0
12 0 0
12.04 0 0
12.08 0 0
12.12 0 0
12.16 0 0
12.2 0 0
12.24 0 0
12.28 0 0
12.32 0 0
12.36 0 0
12.4 0 0
12.44 0 0
12.48 0 0
12.52 0 0
12.56 0 0
12.6 0 0
12.64 0 0
12.68 0 0
12.72 0 0
12.76 0 0
12.8 0 0
12.84 0 0
12.88 0 0
12.92 0 0
12.96 0 0
13 0 0
13.04 0 0
13.08 0 0
13.12 0 0
13.16 0 0
13.2 0 0
13.24 0 0
13.28 0 0
13.32 0 0
13.36 0 0
13.4 0 0
13.44 0 0
13.48 0 0
13.52 0 0
13.56 0 0
13.6 0 0
13.64 0 0
13.68 0 0
13.72 0 0
13.76 0 0
13.8 0 0
13.84 0 0
13.88 0 0
13.92 0 0
13.96 0 0
14 0 0
14.04 0 0
14.08 0 0
14.12 0 0
14.16 0 0
14.2 0 0
14.24 0 0
14.28 0 0
14.32 0 0
14.36 0 0
14.4 0 0
14.44 0 0
14.48 0 0
14.52 0 0
14.56 0 0
14.6 0 0
14.64 0 0
14.68 0 0
14.72 0 0
14.76 0 0
14.8 0 0
14.84 0 0
14.88 0 0
14.92 0 0
14.96 0 0
15 0 0
15.04 0 0
15.08 0 0
15.12 0 0
15.16 0 0
15.2 0 0
15.24 0 0
15.28 0 0
15.32 0 0
15.36 0 0
15.4 0 0
15.44 0 0
15.48 0 0
15.52 0 0
15.56 0 0
15.6 0 0
15.64 0 0
15.68 0 0
15.72 0 0
15.76 0 0
15.8 0 0
15.84 0 0
15.88 0 0
15.92 0 0
15.96 0 0
16 0 0
16.04 0 0
16.08 0 0
16.12 0 0
16.16 0 0
16.2 0 0
16.24 0 0
16.28 0 0
16.32 0 0
16.36 0 0
16.4 0 0
16.44 0 0
16.48 0 0
16.52 0 0
16.56 0 0
16.6 0 0
16.64 0 0
16.68 0 0
16.72 0 0
16.76 0 0
16.8 0 0
16.84 0 0
16.88 0 0
16.92 0 0
16.96 0 0
17 0 0
17.04 0 0
17.08 0 0
17.12 0 0
17.16 0 0
17.2 0 0
17.24 0 0
17.28 0 0
17.32 0 0
17.36 0 0
17.4 0 0
17.44 0 0
17.48 0 0
17.52 0 0
17.56 0 0
17.6 0 0
17.64 0 0
17.68 0 0
17.72 0 0
17.76 0 0
17.8 0 0
17.84 0 0
17.88 0 0
17.92 0 0
17.96 0 0
18 0 0
18.04 0 0
18.08 0 0
18.12 0 0
18.16 0 0
18.2 0 0
18.24 0 0
18.28 0 0
18.32 0 0
18.36 0 0
18.4 0 0
18.44 0 0
18.48 0 0
18.52 0 0
18.56 0 0
18.6 0 0
18.64 0 0
18.68 0 0
18.72 0 0
18.76 0 0
18.8 0 0
18.84 0 0
18.88 0 0
18.92 0 0
18.96 0 0
19 0 0
19.04 0 0
19.08 0 0
19.12 0 0
19.16 0 0
19.2 0 0
19.24 0 0
19.28 0 0
19.32 0 0
19.36 0 0
19.4 0 0
19.44 0 0
19.48 0 0
19.52 0 0
19.56 0 0
19.6 0 0
19.64 0 0
19.68 0 0
19.72 0 0
19.76 0 0
19.8 0 0
19.84 0 0
19.88 0 0
19.92 0 0
19.96 0 0
20 0 0
20.04 0 0
20.08 0 0
20.12 0 0
20.16 0 0
20.2 0 0
20.24 0 0
20.28 0 0
20.32 0 0
20.36 0 0
20.4 0 0
20.44 0 0
20.48 0 0
20.52 0 0
20.56 0 0
20.6 0 0
20.64 0 0
20.68 0 0
20.72 0 0
20.76 0 0
20.8 0 0
20.84 0 0
20.88 0 0
20.92 0 0
20.96 0 0
21 0 0
21.04 0 0
21.08 0 0
21.12 0 0
21.16 0 0
21.2 0 0
21.24 0 0
21.28 0 0
21.32 0 0
21.36 0 0
21.4 0 0
21.44 0 0
21.48 0 0
21.52 0 0
21.56 0 0
21.6 0 0
21.64 0 0
21.68 0 0
21.72 0 0
21.76 0 0
21.8 0 0
21.84 0 0
21.88 0 0
21.92 0 0
21.96 0 0
22 0 0
22.04 0 0
22.08 0 0
22.12 0 0
22.16 0 0
22.2 0 0
22.24 0 0
22.28 0 0
22.32 0 0
22.36 0 0
22.4 0 0
22.44 0 0
22.48 0 0
22.52 0 0
22.56 0 0
22.6 0 0
22.64 0 0
22.68 0 0
22.72 0 0
22.76 0 0
22.8 0 0
22.84 0 0
22.88 0 0
22.92 0 0
22.96 0 0
23 0 0
23.04 0 0
23.08 0 0
23.12 0 0
23.16 0 0
23.2 0 0
23.24 0 0
23.28 0 0
23.32 0 0
23.36 0 0
23.4 0 0
23.44 0 0
23.48 0 0
23.52 0 0
23.56 0 0
23.6 0 0
23.64 0 0
23.68 0 0
23.72 0 0
23.76 0 0
23.8 0 0
23.84 0 0
23.88 0 0
23.92 0 0
23.96 0 0
24 0 0
24.04 0 0
24.08 0 0
24.12 0 0
24.16 0 0
24.2 0 0
24.24 0 0
24.28 0 0
24.32 0 0
24.36 0 0
24.4 0 0
24.44 0 0
24.48 0 0
24.52 0 0
24.56 0 0
24.6 0 0
24.64 0 0
24.68 0 0
24.72 0 0
24.76 0 0
24.8 0 0
24.84 0 0
24.88 0 0
24.92 0 0
24.96 0 0
25 0 0
25.04 0 0
25.08 0 0
25.12 0 0
25.16 0 0
25.2 0 0
25.24 0 0
25.28 0 0
25.32 0 0
25.36 0 0
25.4 0 0
25.44 0 0
25.48 0 0
25.52 0 0
25.56 0 0
25.6 0 0
25.64 0 0
25.68 0 0
25.72 0 0
25.76 0 0
25.8 0 0
25.84 0 0
25.88 0 0
25.92 0 0
25.96 0 0
26 0 0
26.04 0 0
26.08 0 0
26.12 0 0
26.16 0 0
26.2 0 0
26.24 0 0
26.28 0 0
26.32 0 0
26.36 0 0
26.4 0 0
26.44 0 0
26.48 0 0
26.52 0 0
26.56 0 0
26.6 0 0
26.64 0 0
26.68 0 0
26.72 0 0
26.76 0 0
26.8 0 0
26.84 0 0
26.88 0 0
26.92 0 0
26.96 0 0
27 0 0
27.04 0 0
27.08 0 0
27.12 0 0
27.16 0 0
27.2 0 0
27.24 0 0
27.28 0 0
27.32 0 0
27.36 0 0
27.4 0 0
27.44 0 0
27.48 0 0
27.52 0 0
27.56 0 0
27.6 0 0
27.64 0 0
27.68 0 0
27.72 0 0
27.76 0 0
27.8 0 0
27.84 0 0
27.88 0 0
27.92 0 0
27.96 0 0
28 0 0
28.04 0 0
28.08 0 0
28.12 0 0
28.16 0 0
28.2 0 0
28.24 0 0
28.28 0 0
28.32 0 0
28.36 0 0
28.4 0 0
28.44 0 0
28.48 0 0
28.52 0 0
28.56 0 0
28.6 0 0
28.64 0 0
28.68 0 0
28.72 0 0
28.76 0 0
28.8 0 0
28.84 0 0
28.88 0 0
28.92 0 0
28.96 0 0
29 0 0
29.04 0 0
29.08 0 0
29.12 0 0
29.16 0 0
29.2 0 0
29.24 0 0
29.28 0 0
29.32 0 0
29.36 0 0
29.4 0 0
29.44 0 0
29.48 0 0
29.52 0 0
29.56 0 0
29.6 0 0
29.64 0 0
29.68 0 0
29.72 0 0
29.76 0 0
29.8 0 0
29.84 0 0
29.88 0 0
29.92 0 0
29.96 0 0
30 0 0
30.04 0 0
30.08 0 0
30.12 0 0
30.16 0 0
30.2 0 0
30.24 0 0
30.28 0 0
30.32 0 0
30.36 0 0
30.4 0 0
30.44 0 0
30.48 0 0
30.52 0 0
30.56 0 0
30.6 0 0
30.64 0 0
30.68 0 0
30.72 0 0
30.76 0 0
30.8 0 0
30.84 0 0
30.88 0 0
30.92 0 0
30.96 0 0
31 0 0
31.04 0 0
31.08 0 0
31.12 0 0
31.16 0 0
31.2 0 0
31.24 0 0
31.28 0 0
31.32 0 0
31.36 0 0
31.4 0 0
31.44 0 0
31.48 0 0
31.52 0 0
31.56 0 0
31.6 0 0
31.64 0 0
31.68 0 0
31.72 0 0
31.76 0 0
31.8 0 0
31.84 0 0
31.88 0 0
31.92 0 0
31.96 0 0
0 0.005 0
0.04 0.005 0
0.08 0.005 0
0.12 0.005 0
0.16 0.005 0
0.2 0.005 0
0.24 0.005 0
0.28 0.005 0
0.32 0.005 0
0.36 0.005 0
0.4 0.005 0
0.44 0.005 0
0.48 0.005 0
0.52 0.005 0
0.56 0.005 0
0.6 0.005 0
0.64 0.005 0
0.68 0.005 0
0.72 0.005 0
0.76 0.005 0
0.8 0.005 0
0.84 0.005 0
0.88 0.005 0
0.92 0.005 0
0.96 0.005 0
1 0.005 0
1.04 0.005 0
1.08 0.005 0
1.12 0.005 0
1.16 0.005 0
1.2 0.005 0
1.24 0.005 0
1.28 0.005 0
1.32 0.005 0
1.36 0.005 0
1.4 0.005 0
1.44 0.005 0
1.48 0.005 0
1.52 0.005 0
1.56 0.005 0
1.6 0.005 0
1.64 0.005 0
1.68 0.005 0
1.72 0.005 0
1.76 0.005 0
1.8 0.005 0
1.84 0.005 0
1.88 0.005 0
1.92 0.005 0
1.96 0.005 0
2 0.005 0
2.04 0.005 0
2.08 0.005 0
2.12 0.005 0
2.16 0.005 0
2.2 0.005 0
2.24 0.005 0
2.28 0.005 0
2.32 0.005 0
2.36 0.005 0
2.4 0.005 0
2.44 0.005 0
2.48 0.005 0
2.52 0.005 0
2.56 0.005 0
2.6 0.005 0
2.64 0.005 0
2.68 0.005 0
2.72 0.005 0
2.76 0.005 0
2.8 0.005 0
2.84 0.005 0
2.88 0.005 0
2.92 0.005 0
2.96 0.005 0
3 0.005 0
3.04 0.005 0
3.08 0.005 0
3.12 0.005 0
3.16 0.005 0
3.2 0.005 0
3.24 0.005 0
3.28 0.005 0
3.32 0.005 0
3.36 0.005 0
3.4 0.005 0
3.44 0.005 0
3.48 0.005 0
3.52 0.005 0
3.56 0.005 0
3.6 0.005 0
3.64 0.005 0
3.68 0.005 0
3.72 0.005 0
3.76 0.005 0
3.8 0.005 0
3.84 0.005 0
3.88 0.005 0
3.92 0.005 0
3.96 0.005 0
4 0.005 0
4.04 0.005 0
4.08 0.005 0
4.12 0.005 0
4.16 0.005 0
4.2 0.005 0
4.24 0.005 0
4.28 0.005 0
4.32 0.005 0
4.36 0.005 0
4.4 0.005 0
4.44 0.005 0
4.48 0.005 0
4.52 0.005 0
4.56 0.005 0
4.6 0.005 0
4.64 0.005 0
4.68 0.005 0
4.72 0.005 0
4.76 0.005 0
4.8 0.005 0
4.84 0.005 0
4.88 0.005 0
4.92 0.005 0
4.96 0.005 0
5 0.005 0
5.04 0.005 0
5.08 0.005 0
5.12 0.005 0
5.16 0.005 0
5.2 0.005 0
5.24 0.005 0
5.28 0.005 0
5.32 0.005 0
5.36 0.005 0
5.4 0.005 0
5.44 0.005 0
5.48 0.005 0
5.52 0.005 0
5.56 0.005 0
5.6 0.005 0
5.64 0.005 0
5.68 0.005 0
5.72 0.005 0
5.76 0.005 0
5.8 0.005 0
5.84 0.005 0
5.88 0.005 0
5.92 0.005 0
5.96 0.005 0
6 0.005 0
6.04 0.005 0
6.08 0.005 0
6.12 0.005 0
6.16 0.005 0
6.2 0.005 0
6.24 0.005 0
6.28 0.005 0
6.32 0.005 0
6.36 0.005 0
6.4 0.005 0
6.44 0.005 0
6.48 0.005 0
6.52 0.005 0
6.56 0.005 0
6.6 0.005 0
6.64 0.005 0
6.68 0.005 0
6.72 0.005 0
6.76 0.005 0
6.8 0.005 0
6.84 0.005 0
6.88 0.005 0
6.92 0.005 0
6.96 0.005 0
7 0.005 0
7.04 0.005 0
7.08 0.005 0
7.12 0.005 0
7.16 0.005 0
7.2 0.005 0
7.24 0.005 0
7.28 0.005 0
7.32 0.005 0
7.36 0.005 0
7.4 0.005 0
[...]
POINT_DATA 160000

SCALARS v float 1
LOOKUP_TABLE default
0
0
0
0
0
0
0
0
0
0
0
0
0
0
0
0
0
0
0
0
0
0
0
0
0
0
0
0
0
0
0
0
0
0
0
0
0
0
0
0
0
0
0
0
0
0
0
0
0
0
0
0
0
0
0
0
0
0
0
0
0
0
0
0
0
0
0
0
0
0
0
0
0
0
0
0
0
0
0
0
0
0
0
0
0
0
0
0
0
0
0
0
0
0
0
0
0
0
0
0
0
0
0
0
0
0
0
0
0
0
0
0
0
0
0
0
0
0
0
0
0
0
0
0
0
0
0
0
0
0
0
0
0
0
0
0
0
0
0
0
0
0
0
0
0
0
0
0
0
0
0
0
0
0
0
0
0
0
0
0
0
0
0
0
0
0
0
0
0
0
0
0
0
0
0
0
0
0
0
0
0
0
0
0
0
0
0
0
0
0
0
0
0
0
0
0
0
0
0
0
0
0
0
0
0
0
0
0
0
0
0
0
0
0
0
0
0
0
0
0
0
0
0
0
0
0
0
0
0
0
0
0
0
0
0
0
0
0
0
0
0
0
0
0
0
0
0
0
0
0
0
0
0
0
0
0
0
0
0
0
0
0
0
0
0
0
0
0
0
0
0
0
0
0
0
0
0
0
0
0
0
0
0
0
0
0
0
0
0
0
0
0
0
0
0
0
0
0
0
0
0
0
0
0
0
0
0
0
0
0
0
0
0
0
0
0
0
0
0
0
0
0
0
0
0
0
0
0
0
0
0
0
0
0
0
0
0
0
0
0
0
0
0
0
0
0
0
0
0
0
0
0
0
0
0
0
0
0
0
0
0
0
0
0
0
0
0
0
0
0
0
0
0
0
0
0
0
0
0
0
0
0
0
0
0
0
0
0
0
0
0
0
0
0
0
0
0
0
0
0
0
0
0
0
0
0
0
0
0
0
0
0
0
0
0
0
0
0
0
0
0
0
0
0
0
0
0
0
0
0
0
0
0
0
0
0
0
0
0
0
0
0
0
0
0
0
0
0
0
0
0
0
0
0
0
0
0
0
0
0
0
0
0
0
0
0
0
0
0
0
0
0
0
0
0
0
0
0
0
0
0
0
0
0
0
0
0
0
0
0
0
0
0
0
0
0
0
0
0
0
0
0
0
0
0
0
0
0
0
0
0
0
0
0
0
0
0
0
0
0
0
0
0
0
0
0
0
0
0
0
0
0
0
0
0
0
0
0
0
0
0
0
0
0
0
0
0
0
0
0
0
0
0
0
0
0
0
0
0
0
0
0
0
0
0
0
0
0
0
0
0
0
0
0
0
0
0
0
0
0
0
0
0
0
0
0
0
0
0
0
0
0
0
0
0
0
0
0
0
0
0
0
0
0
0
0
0
0
0
0
0
0
0
0
0
0
0
0
0
0
0
0
0
0
0
0
0
0
0
0
0
0
0
0
0
0
0
0
0
0
0
0
0
0
0
0
0
0
0
0
0
0
0
0
0
0
0
0
0
0
0
0
0
0
0
0
0
0
0
0
0
0
0
0
0
0
0
0
0
0
0
0
0
0
0
0
0
0
0
0
0
0
0
0
0
0
0
0
0
0
0
0
0
0
0
0
0
0
0
0
0
0
0
0
0
0
0
0
0
0
0
0
0
0
0
0
0
0
0
0
0
0
0
0
0
0
0
0
0
0
0
0
0
0
0
0
0
0
0
0
0
0
0
0
0
0
0
0
0
0
0
0
0
0
0
0
0
0
0
0
0
0
0
0
0
0
0
0
0
0
0
0
0
0
0
0
0
0
0
0
0
0
0
0
0
0
0
0
0
0
0
0
0.0374158
0.00938113
0.00346796
0.00176635
0.00108087
0.000737107
0.00053833
0.000411785
0.000325586
0.000263898
0.000218077
0.000183046
0.000155645
0.000133809
0.000116136
0.000101645
8.96261e-05
7.95582e-05
7.10484e-05
6.37965e-05
5.75698e-05
5.21856e-05
4.74992e-05
4.33946e-05
3.97783e-05
3.65742e-05
3.37204e-05
3.11655e-05
2.88674e-05
2.67909e-05
2.49065e-05
2.31896e-05
2.16194e-05
2.01783e-05
1.88513e-05
1.76255e-05
1.649e-05
1.54353e-05
1.44532e-05
1.35365e-05
1.2679e-05
1.18754e-05
1.11207e-05
1.04108e-05
9.74181e-06
9.11052e-06
8.51388e-06
7.94925e-06
7.41421e-06
6.9066e-06
6.42447e-06
5.96604e-06
5.52969e-06
5.11396e-06
4.7175e-06
4.33909e-06
3.97759e-06
3.63195e-06
3.30124e-06
2.98458e-06
2.68114e-06
2.39016e-06
2.11094e-06
1.84285e-06
1.58527e-06
1.33764e-06
1.09943e-06
8.70153e-07
6.49354e-07
4.366e-07
2.315e-07
3.36781e-08
-1.57224e-07
-3.4154e-07
-5.19579e-07
-6.91627e-07
-8.57966e-07
-1.01886e-06
-1.17456e-06
-1.32527e-06
-1.47121e-06
-1.61261e-06
-1.74966e-06
-1.88252e-06
-2.01138e-06
-2.13642e-06
-2.25778e-06
-2.37562e-06
-2.49007e-06
-2.60127e-06
-2.70933e-06
-2.81439e-06
-2.91656e-06
-3.01597e-06
-3.1127e-06
-3.20684e-06
-3.29851e-06
-3.38779e-06
-3.47475e-06
-3.55951e-06
-3.64213e-06
-3.72268e-06
-3.80122e-06
-3.87784e-06
-3.95261e-06
-4.02558e-06
-4.09681e-06
-4.16634e-06
-4.23426e-06
-4.30062e-06
-4.36546e-06
-4.42883e-06
-4.49077e-06
-4.55134e-06
-4.61056e-06
-4.66848e-06
-4.72516e-06
-4.78061e-06
-4.83489e-06
-4.88803e-06
-4.94006e-06
-4.991e-06
-5.04091e-06
-5.0898e-06
-5.13771e-06
-5.18465e-06
-5.23067e-06
-5.27578e-06
-5.32002e-06
-5.3634e-06
-5.40595e-06
-5.44769e-06
-5.48865e-06
-5.52884e-06
-5.56829e-06
-5.60702e-06
-5.64504e-06
-5.68237e-06
-5.71904e-06
-5.75505e-06
-5.79043e-06
-5.82519e-06
-5.85935e-06
-5.89292e-06
-5.92591e-06
-5.95834e-06
-5.99024e-06
-6.02161e-06
-6.05245e-06
-6.08278e-06
-6.11261e-06
-6.14197e-06
-6.17085e-06
-6.19928e-06
-6.22725e-06
-6.25478e-06
-6.28189e-06
-6.30857e-06
-6.33484e-06
-6.3607e-06
-6.38619e-06
-6.41128e-06
-6.436e-06
-6.46034e-06
-6.48432e-06
-6.50796e-06
-6.53125e-06
-6.55421e-06
-6.57683e-06
-6.59913e-06
-6.62112e-06
-6.6428e-06
-6.66416e-06
-6.68523e-06
-6.70601e-06
-6.7265e-06
-6.74672e-06
-6.76664e-06
-6.78631e-06
-6.80571e-06
-6.82484e-06
-6.84373e-06
-6.86236e-06
-6.88076e-06
-6.89891e-06
-6.9168e-06
-6.93447e-06
-6.95192e-06
-6.96915e-06
-6.98615e-06
-7.00295e-06
-7.01953e-06
-7.03589e-06
-7.05204e-06
-7.068e-06
-7.08376e-06
-7.09932e-06
-7.11469e-06
-7.12989e-06
-7.14489e-06
-7.15972e-06
-7.17435e-06
-7.18881e-06
-7.20309e-06
-7.21721e-06
-7.23116e-06
-7.24494e-06
-7.25856e-06
-7.27203e-06
-7.28533e-06
-7.29847e-06
-7.31146e-06
-7.3243e-06
-7.33699e-06
-7.34954e-06
-7.36194e-06
-7.37419e-06
-7.38631e-06
-7.3983e-06
-7.41015e-06
-7.42185e-06
-7.43343e-06
-7.44488e-06
-7.4562e-06
-7.46739e-06
-7.47845e-06
-7.4894e-06
-7.50023e-06
-7.51093e-06
-7.52152e-06
-7.53198e-06
-7.54234e-06
-7.55258e-06
-7.5627e-06
-7.57271e-06
-7.58261e-06
-7.5924e-06
-7.60208e-06
-7.61167e-06
-7.62116e-06
-7.63055e-06
-7.63983e-06
-7.64901e-06
-7.65808e-06
-7.66707e-06
-7.67596e-06
-7.68476e-06
-7.69346e-06
-7.70206e-06
-7.71057e-06
-7.71899e-06
-7.72733e-06
-7.73557e-06
-7.74373e-06
-7.75181e-06
-7.75978e-06
-7.76768e-06
-7.77551e-06
-7.78326e-06
-7.79092e-06
-7.7985e-06
-7.80599e-06
-7.8134e-06
-7.82074e-06
-7.82801e-06
-7.83521e-06
-7.84232e-06
-7.84936e-06
-7.85633e-06
-7.86323e-06
-7.87006e-06
-7.87681e-06
-7.88349e-06
-7.8901e-06
-7.89665e-06
-7.90313e-06
-7.90954e-06
-7.91589e-06
-7.92217e-06
-7.92838e-06
-7.93453e-06
-7.94063e-06
-7.94666e-06
-7.95263e-06
-7.95853e-06
-7.96437e-06
-7.97015e-06
-7.97587e-06
-7.98154e-06
-7.98716e-06
-7.99271e-06
-7.9982e-06
-8.00364e-06
-8.00902e-06
-8.01434e-06
-8.01962e-06
-8.02484e-06
-8.03001e-06
-8.03513e-06
-8.04019e-06
-8.04519e-06
-8.05015e-06
-8.05506e-06
-8.05992e-06
-8.06472e-06
-8.06948e-06
-8.0742e-06
-8.07887e-06
-8.08348e-06
-8.08804e-06
-8.09258e-06
-8.09707e-06
-8.1015e-06
-8.10589e-06
-8.11023e-06
-8.11452e-06
-8.11878e-06
-8.123e-06
-8.12717e-06
-8.1313e-06
-8.13538e-06
-8.13943e-06
-8.14343e-06
-8.1474e-06
-8.15132e-06
-8.1552e-06
-8.15905e-06
-8.16286e-06
-8.16663e-06
-8.17036e-06
-8.17405e-06
-8.1777e-06
-8.18132e-06
-8.1849e-06
-8.18845e-06
-8.19197e-06
-8.19544e-06
-8.19887e-06
-8.20227e-06
-8.20565e-06
-8.20899e-06
-8.21229e-06
-8.21555e-06
-8.21878e-06
-8.222e-06
-8.22518e-06
-8.22831e-06
-8.23141e-06
-8.23449e-06
-8.23754e-06
-8.24055e-06
-8.24353e-06
-8.24648e-06
-8.24941e-06
-8.25231e-06
-8.25518e-06
-8.258e-06
-8.26081e-06
-8.2636e-06
-8.26636e-06
-8.26908e-06
-8.27177e-06
-8.27443e-06
-8.27708e-06
-8.2797e-06
-8.28229e-06
-8.28484e-06
-8.28738e-06
-8.2899e-06
-8.29239e-06
-8.29485e-06
-8.29728e-06
-8.29969e-06
-8.30209e-06
-8.30445e-06
-8.30679e-06
-8.3091e-06
-8.31139e-06
-8.31367e-06
-8.31592e-06
-8.31814e-06
-8.32034e-06
-8.32252e-06
-8.32468e-06
-8.32681e-06
-8.32893e-06
-8.33102e-06
-8.33309e-06
-8.33514e-06
-8.33717e-06
-8.33918e-06
-8.34117e-06
-8.34314e-06
-8.34509e-06
-8.34702e-06
-8.34893e-06
-8.35081e-06
-8.3527e-06
-8.35456e-06
-8.35638e-06
-8.35819e-06
-8.35999e-06
-8.36178e-06
-8.36354e-06
-8.36528e-06
-8.367e-06
-8.36871e-06
-8.3704e-06
-8.37207e-06
-8.37373e-06
-8.37538e-06
-8.37701e-06
-8.37862e-06
-8.3802e-06
-8.38177e-06
-8.38333e-06
-8.38487e-06
-8.38641e-06
-8.38793e-06
-8.38943e-06
-8.3909e-06
-8.39236e-06
-8.39381e-06
-8.39525e-06
-8.39668e-06
-8.39808e-06
-8.39947e-06
-8.40086e-06
-8.40223e-06
-8.40358e-06
-8.40491e-06
-8.40624e-06
-8.40755e-06
-8.40885e-06
-8.41014e-06
-8.41142e-06
-8.41268e-06
-8.41391e-06
-8.41514e-06
-8.41637e-06
-8.41759e-06
-8.41878e-06
-8.41996e-06
-8.42114e-06
-8.42229e-06
-8.42345e-06
-8.42459e-06
-8.42573e-06
-8.42683e-06
-8.42793e-06
-8.42901e-06
-8.43009e-06
-8.43116e-06
-8.43222e-06
-8.43327e-06
-8.43431e-06
-8.43534e-06
-8.43636e-06
-8.43737e-06
-8.43837e-06
-8.43936e-06
-8.44033e-06
-8.44129e-06
-8.44225e-06
-8.4432e-06
-8.44414e-06
-8.44506e-06
-8.44598e-06
-8.44689e-06
-8.44779e-06
-8.44868e-06
-8.44956e-06
-8.45043e-06
-8.45129e-06
-8.45215e-06
-8.453e-06
-8.45384e-06
-8.45467e-06
-8.4555e-06
-8.45631e-06
-8.4571e-06
-8.4579e-06
-8.45869e-06
-8.45947e-06
-8.46024e-06
-8.461e-06
-8.46176e-06
-8.46252e-06
-8.46326e-06
-8.46399e-06
-8.46472e-06
-8.46543e-06
-8.46614e-06
-8.46686e-06
-8.46756e-06
-8.46825e-06
-8.46892e-06
-8.46959e-06
-8.47027e-06
-8.47094e-06
-8.47159e-06
-8.47223e-06
-8.47287e-06
-8.47352e-06
-8.47415e-06
-8.47476e-06
-8.47538e-06
-8.47599e-06
-8.4766e-06
-8.4772e-06
-8.47779e-06
-8.47837e-06
-8.47895e-06
-8.47953e-06
-8.48011e-06
-8.48067e-06
-8.48122e-06
-8.48177e-06
-8.48232e-06
-8.48286e-06
-8.48339e-06
-8.48392e-06
-8.48444e-06
-8.48496e-06
-8.48547e-06
-8.48598e-06
-8.48649e-06
-8.48699e-06
-8.48748e-06
-8.48797e-06
-8.48845e-06
-8.48892e-06
-8.48939e-06
-8.48987e-06
-8.49033e-06
-8.49079e-06
-8.49125e-06
-8.49169e-06
-8.49213e-06
-8.49257e-06
-8.49301e-06
-8.49344e-06
-8.49387e-06
-8.49428e-06
-8.4947e-06
-8.49513e-06
-8.49554e-06
-8.49594e-06
-8.49634e-06
-8.49674e-06
-8.49714e-06
-8.49753e-06
-8.49791e-06
-8.49829e-06
-8.49866e-06
-8.49904e-06
-8.49942e-06
-8.49979e-06
-8.50014e-06
-8.50049e-06
-8.50084e-06
-8.50119e-06
-8.50154e-06
-8.50189e-06
-8.50224e-06
-8.50258e-06
-8.50291e-06
-8.50324e-06
-8.50357e-06
-8.5039e-06
-8.50421e-06
-8.50452e-06
-8.50483e-06
-8.50515e-06
-8.50546e-06
-8.50577e-06
-8.50607e-06
-8.50637e-06
-8.50666e-06
-8.50695e-06
-8.50724e-06
-8.50752e-06
-8.50781e-06
-8.50809e-06
-8.50836e-06
-8.50863e-06
-8.50891e-06
-8.50919e-06
-8.50945e-06
-8.50971e-06
-8.50996e-06
-8.51023e-06
-8.51049e-06
-8.51074e-06
-8.511e-06
-8.51125e-06
-8.51149e-06
-8.51172e-06
-8.51196e-06
-8.5122e-06
-8.51244e-06
-8.51268e-06
-8.51291e-06
-8.51313e-06
-8.51336e-06
-8.51359e-06
-8.5138e-06
-8.51402e-06
-8.51424e-06
-8.51445e-06
-8.51467e-06
-8.51488e-06
-8.51509e-06
-8.5153e-06
-8.51549e-06
-8.51569e-06
-8.5159e-06
-8.5161e-06
-8.5163e-06
-8.51649e-06
-8.51668e-06
-8.51687e-06
-8.51706e-06
-8.51725e-06
-8.51743e-06
-8.5176e-06
-8.51778e-06
-8.51796e-06
-8.51814e-06
-8.51833e-06
-8.5185e-06
-8.51866e-06
-8.51883e-06
-8.519e-06
-8.51917e-06
-8.51934e-06
-8.5195e-06
-8.51965e-06
-8.51981e-06
-8.51998e-06
-8.52014e-06
-8.52029e-06
-8.52044e-06
-8.52059e-06
-8.52074e-06
-8.52088e-06
-8.52103e-06
-8.52118e-06
-8.52133e-06
-8.52148e-06
-8.52161e-06
-8.52174e-06
-8.52188e-06
-8.52203e-06
-8.52216e-06
-8.52228e-06
-8.52241e-06
-8.52255e-06
-8.52268e-06
-8.52281e-06
-8.52293e-06
-8.52306e-06
-8.52318e-06
-8.52331e-06
-8.52343e-06
-8.52355e-06
-8.52366e-06
-8.52378e-06
-8.5239e-06
-8.52402e-06
-8.52415e-06
-8.52427e-06
-8.52437e-06
-8.52448e-06
-8.52459e-06
-8.5247e-06
-8.5248e-06
-8.52491e-06
-8.52502e-06
-8.52512e-06
-8.52522e-06
-8.52533e-06
-8.52543e-06
-8.52553e-06
-8.52563e-06
-8.52573e-06
-8.52582e-06
-8.52591e-06
-8.52601e-06
-8.52611e-06
-8.52621e-06
-8.52629e-06
-8.52638e-06
-8.52647e-06
-8.52657e-06
-8.52666e-06
-8.52675e-06
-8.52682e-06
-8.52691e-06
-8.527e-06
-8.52709e-06
-8.52717e-06
-8.52725e-06
-8.52733e-06
-8.52742e-06
-8.5275e-06
-8.52758e-06
-8.52765e-06
-8.52772e-06
-8.52781e-06
-8.52789e-06
-8.52796e-06
-8.52803e-06
-8.52811e-06
-8.52819e-06
-8.52826e-06
-8.52833e-06
-8.5284e-06
-8.52846e-06
-8.52853e-06
-8.5286e-06
-8.52868e-06
-8.52876e-06
-8.52881e-06
-8.52886e-06
-8.52893e-06
-8.529e-06
-8.52907e-06
-8.52912e-06
-8.52917e-06
-8.52925e-06
-8.52932e-06
-8.52938e-06
-8.52944e-06
-8.5295e-06
-8.52955e-06
-8.52961e-06
-8.52967e-06
-8.52973e-06
-8.52979e-06
-8.52984e-06
-8.52989e-06
-8.52994e-06
-8.53e-06
-8.53006e-06
-8.53011e-06
-8.53016e-06
-8.53021e-06
-8.53027e-06
-8.53031e-06
-8.53036e-06
-8.53041e-06
-8.53047e-06
-8.53052e-06
-8.53056e-06
-8.5306e-06
-8.53066e-06
-8.5307e-06
-8.53075e-06
-8.5308e-06
-8.53084e-06
-8.53087e-06
-8.5309e-06
-8.53095e-06
-8.53098e-06
-8.53101e-06
-8.53104e-06
-8.53107e-06
-8.53108e-06
-8.53109e-06
-8.5311e-06
-8.5311e-06
-8.53108e-06
-8.53106e-06
-8.531e-06
-8.53092e-06
-8.53082e-06
-8.53067e-06
-8.53046e-06
-8.53019e-06
-8.52983e-06
-8.5294e-06
-8.52879e-06
-8.52806e-06
-8.52702e-06
-8.52585e-06
-8.52408e-06
-8.5222e-06
-8.51902e-06
-8.51617e-06
-8.51007e-06
-8.5063e-06
-8.4926e-06
-8.49181e-06
-8.44998e-06
-8.52198e-06
-6.02498e-06
-6.02498e-06
0
0
0.0966101
0.0320527
0.0130062
0.00682637
0.00423607
0.00291413
0.0021425
0.00164842
0.00131055
0.00106807
0.000887567
0.000749319
0.000641015
0.000554593
0.000484568
0.000427089
0.000379374
0.000339372
0.000305535
0.000276683
0.000251896
0.000230454
0.000211784
0.000195427
0.000181014
0.000168242
0.000156866
0.000146682
0.000137522
0.000129245
0.000121736
0.000114896
0.000108641
0.000102902
9.76184e-05
9.27392e-05
8.82205e-05
8.40243e-05
8.01179e-05
7.64727e-05
7.30639e-05
6.98696e-05
6.68707e-05
6.40502e-05
6.13931e-05
5.8886e-05
5.6517e-05
5.42754e-05
5.21517e-05
5.01372e-05
4.8224e-05
4.64052e-05
4.46741e-05
4.30251e-05
4.14526e-05
3.99519e-05
3.85184e-05
3.7148e-05
3.58368e-05
3.45814e-05
3.33786e-05
3.22252e-05
3.11185e-05
3.0056e-05
2.90351e-05
2.80538e-05
2.71099e-05
2.62014e-05
2.53265e-05
2.44836e-05
2.3671e-05
2.28873e-05
2.2131e-05
2.14009e-05
2.06956e-05
2.00141e-05
1.93552e-05
1.87179e-05
1.81013e-05
1.75044e-05
1.69264e-05
1.63664e-05
1.58236e-05
1.52975e-05
1.47871e-05
1.4292e-05
1.38114e-05
1.33448e-05
1.28916e-05
1.24513e-05
1.20234e-05
1.16074e-05
1.12029e-05
1.08093e-05
1.04264e-05
1.00536e-05
9.6907e-06
9.33725e-06
8.99293e-06
8.6574e-06
8.33034e-06
8.01149e-06
7.70055e-06
7.39723e-06
7.10127e-06
6.81244e-06
6.5305e-06
6.25521e-06
5.98634e-06
5.72368e-06
5.46706e-06
5.21626e-06
4.97109e-06
4.73139e-06
4.49699e-06
4.26772e-06
4.04341e-06
3.82392e-06
3.6091e-06
3.39881e-06
3.19291e-06
2.99128e-06
2.79378e-06
2.6003e-06
2.41073e-06
2.22495e-06
2.04286e-06
1.86434e-06
1.68929e-06
1.51762e-06
1.34925e-06
1.18407e-06
1.02201e-06
8.6297e-07
7.06874e-07
5.53643e-07
4.0321e-07
2.55495e-07
1.10427e-07
-3.20586e-08
-1.72032e-07
-3.09563e-07
-4.44706e-07
-5.77509e-07
-7.08043e-07
-8.36376e-07
-9.62552e-07
-1.08662e-06
-1.20862e-06
-1.3286e-06
-1.44664e-06
-1.56277e-06
-1.67702e-06
-1.78945e-06
-1.9001e-06
-2.00901e-06
-2.11622e-06
-2.22176e-06
-2.32567e-06
-2.42799e-06
-2.52877e-06
-2.62802e-06
-2.72577e-06
-2.82206e-06
-2.91694e-06
-3.01042e-06
-3.10255e-06
-3.19333e-06
-3.2828e-06
-3.37099e-06
-3.45793e-06
-3.54365e-06
-3.62814e-06
-3.71146e-06
-3.79363e-06
-3.87466e-06
-3.95458e-06
-4.03339e-06
-4.11115e-06
-4.18786e-06
-4.26353e-06
-4.3382e-06
-4.41188e-06
-4.48459e-06
-4.55633e-06
-4.62713e-06
-4.69701e-06
-4.766e-06
-4.8341e-06
-4.90133e-06
-4.96771e-06
-5.03324e-06
-5.09793e-06
-5.16181e-06
-5.2249e-06
-5.28721e-06
-5.34874e-06
-5.40952e-06
-5.46955e-06
-5.52885e-06
-5.58742e-06
-5.64528e-06
-5.70243e-06
-5.7589e-06
-5.81471e-06
-5.86984e-06
-5.92432e-06
-5.97815e-06
-6.03136e-06
-6.08392e-06
-6.13587e-06
-6.18721e-06
-6.23796e-06
-6.28812e-06
-6.3377e-06
-6.38671e-06
-6.43515e-06
-6.48304e-06
-6.5304e-06
-6.5772e-06
-6.62347e-06
-6.66922e-06
-6.71447e-06
-6.75919e-06
-6.80341e-06
-6.84714e-06
-6.89039e-06
-6.93315e-06
-6.97544e-06
-7.01726e-06
-7.05861e-06
-7.09951e-06
-7.13996e-06
-7.17997e-06
-7.21953e-06
-7.25865e-06
-7.29736e-06
-7.33564e-06
-7.37351e-06
-7.41099e-06
-7.44805e-06
-7.48471e-06
-7.52096e-06
-7.55684e-06
-7.59232e-06
-7.62744e-06
-7.66217e-06
-7.69653e-06
-7.73052e-06
-7.76415e-06
-7.79743e-06
-7.83035e-06
-7.86292e-06
-7.89515e-06
-7.92703e-06
-7.95857e-06
-7.98979e-06
-8.02069e-06
-8.05126e-06
-8.08151e-06
-8.11143e-06
-8.14104e-06
-8.17034e-06
-8.19934e-06
-8.22804e-06
-8.25644e-06
-8.28454e-06
-8.31234e-06
-8.33986e-06
-8.3671e-06
-8.39406e-06
-8.42073e-06
-8.44712e-06
-8.47324e-06
-8.4991e-06
-8.52468e-06
-8.55001e-06
-8.57507e-06
-8.59987e-06
-8.62441e-06
-8.64871e-06
-8.67276e-06
-8.69656e-06
-8.72011e-06
-8.74342e-06
-8.76649e-06
-8.78932e-06
-8.81193e-06
-8.83431e-06
-8.85645e-06
-8.87837e-06
-8.90006e-06
-8.92153e-06
-8.94278e-06
-8.96381e-06
-8.98463e-06
-9.00524e-06
-9.02565e-06
-9.04584e-06
-9.06582e-06
-9.08559e-06
-9.10517e-06
-9.12456e-06
-9.14374e-06
-9.16272e-06
-9.18152e-06
-9.20013e-06
-9.21855e-06
-9.23677e-06
-9.25481e-06
-9.27269e-06
-9.29038e-06
-9.30788e-06
-9.32521e-06
-9.34234e-06
-9.35931e-06
-9.37612e-06
-9.39276e-06
-9.40922e-06
-9.42552e-06
-9.44165e-06
-9.45762e-06
-9.47342e-06
-9.48907e-06
-9.50456e-06
-9.51989e-06
-9.53508e-06
-9.5501e-06
-9.56498e-06
-9.5797e-06
-9.59426e-06
-9.60869e-06
-9.62297e-06
-9.63711e-06
-9.65112e-06
-9.66497e-06
-9.67868e-06
-9.69225e-06
-9.70568e-06
-9.71899e-06
-9.73216e-06
-9.74519e-06
-9.75808e-06
-9.77086e-06
-9.78352e-06
-9.79603e-06
-9.80841e-06
-9.82067e-06
-9.83282e-06
-9.84484e-06
-9.85673e-06
-9.86851e-06
-9.88017e-06
-9.89172e-06
-9.90314e-06
-9.91445e-06
-9.92563e-06
-9.93672e-06
-9.9477e-06
-9.95857e-06
-9.96931e-06
-9.97994e-06
-9.99048e-06
-1.00009e-05
-1.00112e-05
-1.00214e-05
-1.00316e-05
-1.00416e-05
-1.00515e-05
-1.00613e-05
-1.0071e-05
-1.00806e-05
-1.00902e-05
-1.00996e-05
-1.01089e-05
-1.01181e-05
-1.01273e-05
-1.01363e-05
-1.01453e-05
-1.01542e-05
-1.01629e-05
-1.01716e-05
-1.01802e-05
-1.01887e-05
-1.01972e-05
-1.02055e-05
-1.02138e-05
-1.02219e-05
-1.023e-05
-1.0238e-05
-1.0246e-05
-1.02538e-05
-1.02616e-05
-1.02693e-05
-1.02769e-05
-1.02844e-05
-1.02919e-05
-1.02993e-05
-1.03066e-05
-1.03138e-05
-1.0321e-05
-1.03281e-05
-1.03351e-05
-1.03421e-05
-1.03489e-05
-1.03557e-05
-1.03625e-05
-1.03692e-05
-1.03758e-05
-1.03823e-05
-1.03888e-05
-1.03952e-05
-1.04015e-05
-1.04078e-05
-1.0414e-05
-1.04202e-05
-1.04263e-05
-1.04323e-05
-1.04383e-05
-1.04442e-05
-1.045e-05
-1.04558e-05
-1.04615e-05
-1.04672e-05
-1.04728e-05
-1.04784e-05
-1.04839e-05
-1.04893e-05
-1.04947e-05
-1.05e-05
-1.05053e-05
-1.05106e-05
-1.05157e-05
-1.05209e-05
-1.05259e-05
-1.0531e-05
-1.05359e-05
-1.05408e-05
-1.05457e-05
-1.05505e-05
-1.05553e-05
-1.056e-05
-1.05647e-05
-1.05693e-05
-1.05739e-05
-1.05784e-05
-1.05829e-05
-1.05874e-05
-1.05918e-05
-1.05961e-05
-1.06004e-05
-1.06047e-05
-1.06089e-05
-1.06131e-05
-1.06172e-05
-1.06213e-05
-1.06254e-05
-1.06294e-05
-1.06334e-05
-1.06373e-05
-1.06412e-05
-1.0645e-05
-1.06488e-05
-1.06526e-05
-1.06564e-05
-1.06601e-05
-1.06637e-05
-1.06673e-05
-1.06709e-05
-1.06745e-05
-1.0678e-05
-1.06815e-05
-1.06849e-05
-1.06883e-05
-1.06917e-05
-1.0695e-05
-1.06984e-05
-1.07016e-05
-1.07049e-05
-1.07081e-05
-1.07112e-05
-1.07144e-05
-1.07175e-05
-1.07206e-05
-1.07236e-05
-1.07266e-05
-1.07296e-05
-1.07326e-05
-1.07355e-05
-1.07384e-05
-1.07413e-05
-1.07441e-05
-1.07469e-05
-1.07497e-05
-1.07524e-05
-1.07552e-05
-1.07578e-05
-1.07605e-05
-1.07632e-05
-1.07658e-05
-1.07684e-05
-1.07709e-05
-1.07735e-05
-1.0776e-05
-1.07785e-05
-1.07809e-05
-1.07833e-05
-1.07858e-05
-1.07881e-05
-1.07905e-05
-1.07928e-05
-1.07951e-05
-1.07974e-05
-1.07997e-05
-1.0802e-05
-1.08042e-05
-1.08064e-05
-1.08085e-05
-1.08107e-05
-1.08128e-05
-1.08149e-05
-1.0817e-05
-1.08191e-05
-1.08211e-05
-1.08231e-05
-1.08252e-05
-1.08271e-05
-1.08291e-05
-1.08311e-05
-1.0833e-05
-1.08349e-05
-1.08367e-05
-1.08386e-05
-1.08405e-05
-1.08423e-05
-1.08441e-05
-1.08459e-05
-1.08477e-05
-1.08494e-05
-1.08512e-05
-1.08529e-05
-1.08546e-05
-1.08563e-05
-1.08579e-05
-1.08596e-05
-1.08612e-05
-1.08628e-05
-1.08644e-05
-1.0866e-05
-1.08676e-05
-1.08691e-05
-1.08707e-05
-1.08722e-05
-1.08737e-05
-1.08752e-05
-1.08767e-05
-1.08781e-05
-1.08796e-05
-1.0881e-05
-1.08824e-05
-1.08838e-05
-1.08852e-05
-1.08866e-05
-1.08879e-05
-1.08893e-05
-1.08906e-05
-1.08919e-05
-1.08932e-05
-1.08945e-05
-1.08958e-05
-1.0897e-05
-1.08983e-05
-1.08995e-05
-1.09008e-05
-1.0902e-05
-1.09032e-05
-1.09044e-05
-1.09055e-05
-1.09067e-05
-1.09079e-05
-1.0909e-05
-1.09101e-05
-1.09113e-05
-1.09124e-05
-1.09134e-05
-1.09145e-05
-1.09156e-05
-1.09167e-05
-1.09177e-05
-1.09187e-05
-1.09198e-05
-1.09208e-05
-1.09218e-05
-1.09228e-05
-1.09238e-05
-1.09248e-05
-1.09257e-05
-1.09267e-05
-1.09276e-05
-1.09286e-05
-1.09295e-05
-1.09304e-05
-1.09314e-05
-1.09323e-05
-1.09332e-05
-1.0934e-05
-1.09349e-05
-1.09358e-05
-1.09366e-05
-1.09375e-05
-1.09383e-05
-1.09391e-05
-1.094e-05
-1.09408e-05
-1.09416e-05
-1.09424e-05
-1.09432e-05
-1.09439e-05
-1.09447e-05
-1.09455e-05
-1.09462e-05
-1.0947e-05
-1.09477e-05
-1.09485e-05
-1.09492e-05
-1.09499e-05
-1.09506e-05
-1.09513e-05
-1.0952e-05
-1.09527e-05
-1.09534e-05
-1.09541e-05
-1.09547e-05
-1.09554e-05
-1.09561e-05
-1.09567e-05
-1.09573e-05
-1.0958e-05
-1.09586e-05
-1.09592e-05
-1.09598e-05
-1.09605e-05
-1.09611e-05