# vtk DataFile Version 2.0
FlowField
ASCII
DATASET STRUCTURED_GRID
DIMENSIONS 800 1 200
POINTS 160000 float
0 0 0
0.04 0 0
0.08 0 0
0.12 0 0
0.16 0 0
0.2 0 0
0.24 0 0
0.28 0 0
0.32 0 0
0.36 0 0
0.4 0 0
0.44 0 0
0.48 0 0
0.52 0 0
0.56 0 0
0.6 0 0
0.64 0 0
0.68 0 0
0.72 0 0
0.76 0 0
0.8 0 0
0.84 0 0
0.88 0 0
0.92 0 0
0.96 0 0
1 0 0
1.04 0 0
1.08 0 0
1.12 0 0
1.16 0 0
1.2 0 0
1.24 0 0
1.28 0 0
1.32 0 0
1.36 0 0
1.4 0 0
1.44 0 0
1.48 0 0
1.52 0 0
1.56 0 0
1.6 0 0
1.64 0 0
1.68 0 0
1.72 0 0
1.76 0 0
1.8 0 0
1.84 0 0
1.88 0 0
1.92 0 0
1.96 0 0
2 0 0
2.04 0 0
2.08 0 0
2.12 0 0
2.16 0 0
2.2 0 0
2.24 0 0
2.28 0 0
2.32 0 0
2.36 0 0
2.4 0 0
2.44 0 0
2.48 0 0
2.52 0 0
2.56 0 0
2.6 0 0
2.64 0 0
2.68 0 0
2.72 0 0
2.76 0 0
2.8 0 0
2.84 0 0
2.88 0 0
2.92 0 0
2.96 0 0
3 0 0
3.04 0 0
3.08 0 0
3.12 0 0
3.16 0 0
3.2 0 0
3.24 0 0
3.28 0 0
3.32 0 0
3.36 0 0
3.4 0 0
3.44 0 0
3.48 0 0
3.52 0 0
3.56 0 0
3.6 0 0
3.64 0 0
3.68 0 0
3.72 0 0
3.76 0 0
3.8 0 0
3.84 0 0
3.88 0 0
3.92 0 0
3.96 0 0
4 0 0
4.04 0 0
4.08 0 0
4.12 0 0
4.16 0 0
4.2 0 0
4.24 0 0
4.28 0 0
4.32 0 0
4.36 0 0
4.4 0 0
4.44 0 0
4.48 0 0
4.52 0 0
4.56 0 0
4.6 0 0
4.64 0 0
4.68 0 0
4.72 0 0
4.76 0 0
4.8 0 0
4.84 0 0
4.88 0 0
4.92 0 0
4.96 0 0
5 0 0
5.04 0 0
5.08 0 0
5.12 0 0
5.16 0 0
5.2 0 0
5.24 0 0
5.28 0 0
5.32 0 0
5.36 0 0
5.4 0 0
5.44 0 0
5.48 0 0
5.52 0 0
5.56 0 0
5.6 0 0
5.64 0 0
5.68 0 0
5.72 0 0
5.76 0 0
5.8 0 0
5.84 0 0
5.88 0 0
5.92 0 0
5.96 0 0
6 0 0
6.04 0 0
6.08 0 0
6.12 0 0
6.16 0 0
6.2 0 0
6.24 0 0
6.28 0 0
6.32 0 0
6.36 0 0
6.4 0 0
6.44 0 0
6.48 0 0
6.52 0 0
6.56 0 0
6.6 0 0
6.64 0 0
6.68 0 0
6.72 0 0
6.76 0 0
6.8 0 0
6.84 0 0
6.88 0 0
6.92 0 0
6.96 0 0
7 0 0
7.04 0 0
7.08 0 0
7.12 0 0
7.16 0 0
7.2 0 0
7.24 0 0
7.28 0 0
7.32 0 0
7.36 0 0
7.4 0 0
7.44 0 0
7.48 0 0
7.52 0 0
7.56 0 0
7.6 0 0
7.64 0 0
7.68 0 0
7.72 0 0
7.76 0 0
7.8 0 0
7.84 0 0
7.88 0 0
7.92 0 0
7.96 0 0
8 0 0
8.04 0 0
8.08 0 0
8.12 0 0
8.16 0 0
8.2 0 0
8.24 0 0
8.28 0 0
8.32 0 0
8.36 0 0
8.4 0 0
8.44 0 0
8.48 0 0
8.52 0 0
8.56 0 0
8.6 0 0
8.64 0 0
8.68 0 0
8.72 0 0
8.76 0 0
8.8 0 0
8.84 0 0
8.88 0 0
8.92 0 0
8.96 0 0
9 0 0
9.04 0 0
9.08 0 0
9.12 0 0
9.16 0 0
9.2 0 0
9.24 0 0
9.28 0 0
9.32 0 0
9.36 0 0
9.4 0 0
9.44 0 0
9.48 0 0
9.52 0 0
9.56 0 0
9.6 0 0
9.64 0 0
9.68 0 0
9.72 0 0
9.76 0 0
9.8 0 0
9.84 0 0
9.88 0 0
9.92 0 0
9.96 0 0
10 0 0
10.04 0 0
10.08 0 0
10.12 0 0
10.16 0 0
10.2 0 0
10.24 0 0
10.28 0 0
10.32 0 0
10.36 0 0
10.4 0 0
10.44 0 0
10.48 0 0
10.52 0 0
10.56 0 0
10.6 0 0
10.64 0 0
10.68 0 0
10.72 0 0
10.76 0 0
10.8 0 0
10.84 0 0
10.88 0 0
10.92 0 0
10.96 0 0
11 0 0
11.04 0 0
11.08 0 0
11.12 0 0
11.16 0 0
11.2 0 0
11.24 0 0
11.28 0 0
11.32 0 0
11.36 0 0
11.4 0 0
11.44 0 0
11.48 0 0
11.52 0 0
11.56 0 0
11.6 0 0
11.64 0 0
11.68 0 0
11.72 0 0
11.76 0 0
11.8 0 0
11.84 0 0
11.88 0 0
11.92 0 0
11.96 0 0
12 0 0
12.04 0 0
12.08 0 0
12.12 0 0
12.16 0 0
12.2 0 0
12.24 0 0
12.28 0 0
12.32 0 0
12.36 0 0
12.4 0 0
12.44 0 0
12.48 0 0
12.52 0 0
12.56 0 0
12.6 0 0
12.64 0 0
12.68 0 0
12.72 0 0
12.76 0 0
12.8 0 0
12.84 0 0
12.88 0 0
12.92 0 0
12.96 0 0
13 0 0
13.04 0 0
13.08 0 0
13.12 0 0
13.16 0 0
13.2 0 0
13.24 0 0
13.28 0 0
13.32 0 0
13.36 0 0
13.4 0 0
13.44 0 0
13.48 0 0
13.52 0 0
13.56 0 0
13.6 0 0
13.64 0 0
13.68 0 0
13.72 0 0
13.76 0 0
13.8 0 0
13.84 0 0
13.88 0 0
13.92 0 0
13.96 0 0
14 0 0
14.04 0 0
14.08 0 0
14.12 0 0
14.16 0 0
14.2 0 0
14.24 0 0
14.28 0 0
14.32 0 0
14.36 0 0
14.4 0 0
14.44 0 0
14.48 0 0
14.52 0 0
14.56 0 0
14.6 0 0
14.64 0 0
14.68 0 0
14.72 0 0
14.76 0 0
14.8 0 0
14.84 0 0
14.88 0 0
14.92 0 0
14.96 0 0
15 0 0
15.04 0 0
15.08 0 0
15.12 0 0
15.16 0 0
15.2 0 0
15.24 0 0
15.28 0 0
15.32 0 0
15.36 0 0
15.4 0 0
15.44 0 0
15.48 0 0
15.52 0 0
15.56 0 0
15.6 0 0
15.64 0 0
15.68 0 0
15.72 0 0
15.76 0 0
15.8 0 0
15.84 0 0
15.88 0 0
15.92 0 0
15.96 0 0
16 0 0
16.04 0 0
16.08 0 0
16.12 0 0
16.16 0 0
16.2 0 0
16.24 0 0
16.28 0 0
16.32 0 0
16.36 0 0
16.4 0 0
16.44 0 0
16.48 0 0
16.52 0 0
16.56 0 0
16.6 0 0
16.64 0 0
16.68 0 0
16.72 0 0
16.76 0 0
16.8 0 0
16.84 0 0
16.88 0 0
16.92 0 0
16.96 0 0
17 0 0
17.04 0 0
17.08 0 0
17.12 0 0
17.16 0 0
17.2 0 0
17.24 0 0
17.28 0 0
17.32 0 0
17.36 0 0
17.4 0 0
17.44 0 0
17.48 0 0
17.52 0 0
17.56 0 0
17.6 0 0
17.64 0 0
17.68 0 0
17.72 0 0
17.76 0 0
17.8 0 0
17.84 0 0
17.88 0 0
17.92 0 0
17.96 0 0
18 0 0
18.04 0 0
18.08 0 0
18.12 0 0
18.16 0 0
18.2 0 0
18.24 0 0
18.28 0 0
18.32 0 0
18.36 0 0
18.4 0 0
18.44 0 0
18.48 0 0
18.52 0 0
18.56 0 0
18.6 0 0
18.64 0 0
18.68 0 0
18.72 0 0
18.76 0 0
18.8 0 0
18.84 0 0
18.88 0 0
18.92 0 0
18.96 0 0
19 0 0
19.04 0 0
19.08 0 0
19.12 0 0
19.16 0 0
19.2 0 0
19.24 0 0
19.28 0 0
19.32 0 0
19.36 0 0
19.4 0 0
19.44 0 0
19.48 0 0
19.52 0 0
19.56 0 0
19.6 0 0
19.64 0 0
19.68 0 0
19.72 0 0
19.76 0 0
19.8 0 0
19.84 0 0
19.88 0 0
19.92 0 0
19.96 0 0
20 0 0
20.04 0 0
20.08 0 0
20.12 0 0
20.16 0 0
20.2 0 0
20.24 0 0
20.28 0 0
20.32 0 0
20.36 0 0
20.4 0 0
20.44 0 0
20.48 0 0
20.52 0 0
20.56 0 0
20.6 0 0
20.64 0 0
20.68 0 0
20.72 0 0
20.76 0 0
20.8 0 0
20.84 0 0
20.88 0 0
20.92 0 0
20.96 0 0
21 0 0
21.04 0 0
21.08 0 0
21.12 0 0
21.16 0 0
21.2 0 0
21.24 0 0
21.28 0 0
21.32 0 0
21.36 0 0
21.4 0 0
21.44 0 0
21.48 0 0
21.52 0 0
21.56 0 0
21.6 0 0
21.64 0 0
21.68 0 0
21.72 0 0
21.76 0 0
21.8 0 0
21.84 0 0
21.88 0 0
21.92 0 0
21.96 0 0
22 0 0
22.04 0 0
22.08 0 0
22.12 0 0
22.16 0 0
22.2 0 0
22.24 0 0
22.28 0 0
22.32 0 0
22.36 0 0
22.4 0 0
22.44 0 0
22.48 0 0
22.52 0 0
22.56 0 0
22.6 0 0
22.64 0 0
22.68 0 0
22.72 0 0
22.76 0 0
22.8 0 0
22.84 0 0
22.88 0 0
22.92 0 0
22.96 0 0
23 0 0
23.04 0 0
23.08 0 0
23.12 0 0
23.16 0 0
23.2 0 0
23.24 0 0
23.28 0 0
23.32 0 0
23.36 0 0
23.4 0 0
23.44 0 0
23.48 0 0
23.52 0 0
23.56 0 0
23.6 0 0
23.64 0 0
23.68 0 0
23.72 0 0
23.76 0 0
23.8 0 0
23.84 0 0
23.88 0 0
23.92 0 0
23.96 0 0
24 0 0
24.04 0 0
24.08 0 0
24.12 0 0
24.16 0 0
24.2 0 0
24.24 0 0
24.28 0 0
24.32 0 0
24.36 0 0
24.4 0 0
24.44 0 0
24.48 0 0
24.52 0 0
24.56 0 0
24.6 0 0
24.64 0 0
24.68 0 0
24.72 0 0
24.76 0 0
24.8 0 0
24.84 0 0
24.88 0 0
24.92 0 0
24.96 0 0
25 0 0
25.04 0 0
25.08 0 0
25.12 0 0
25.16 0 0
25.2 0 0
25.24 0 0
25.28 0 0
25.32 0 0
25.36 0 0
25.4 0 0
25.44 0 0
25.48 0 0
25.52 0 0
25.56 0 0
25.6 0 0
25.64 0 0
25.68 0 0
25.72 0 0
25.76 0 0
25.8 0 0
25.84 0 0
25.88 0 0
25.92 0 0
25.96 0 0
26 0 0
26.04 0 0
26.08 0 0
26.12 0 0
26.16 0 0
26.2 0 0
26.24 0 0
26.28 0 0
26.32 0 0
26.36 0 0
26.4 0 0
26.44 0 0
26.48 0 0
26.52 0 0
26.56 0 0
26.6 0 0
26.64 0 0
26.68 0 0
26.72 0 0
26.76 0 0
26.8 0 0
26.84 0 0
26.88 0 0
26.92 0 0
26.96 0 0
27 0 0
27.04 0 0
27.08 0 0
27.12 0 0
27.16 0 0
27.2 0 0
27.24 0 0
27.28 0 0
27.32 0 0
27.36 0 0
27.4 0 0
27.44 0 0
27.48 0 0
27.52 0 0
27.56 0 0
27.6 0 0
27.64 0 0
27.68 0 0
27.72 0 0
27.76 0 0
27.8 0 0
27.84 0 0
27.88 0 0
27.92 0 0
27.96 0 0
28 0 0
28.04 0 0
28.08 0 0
28.12 0 0
28.16 0 0
28.2 0 0
28.24 0 0
28.28 0 0
28.32 0 0
28.36 0 0
28.4 0 0
28.44 0 0
28.48 0 0
28.52 0 0
28.56 0 0
28.6 0 0
28.64 0 0
28.68 0 0
28.72 0 0
28.76 0 0
28.8 0 0
28.84 0 0
28.88 0 0
28.92 0 0
28.96 0 0
29 0 0
29.04 0 0
29.08 0 0
29.12 0 0
29.16 0 0
29.2 0 0
29.24 0 0
29.28 0 0
29.32 0 0
29.36 0 0
29.4 0 0
29.44 0 0
29.48 0 0
29.52 0 0
29.56 0 0
29.6 0 0
29.64 0 0
29.68 0 0
29.72 0 0
29.76 0 0
29.8 0 0
29.84 0 0
29.88 0 0
29.92 0 0
29.96 0 0
30 0 0
30.04 0 0
30.08 0 0
30.12 0 0
30.16 0 0
30.2 0 0
30.24 0 0
30.28 0 0
30.32 0 0
30.36 0 0
30.4 0 0
30.44 0 0
30.48 0 0
30.52 0 0
30.56 0 0
30.6 0 0
30.64 0 0
30.68 0 0
30.72 0 0
30.76 0 0
30.8 0 0
30.84 0 0
30.88 0 0
30.92 0 0
30.96 0 0
31 0 0
31.04 0 0
31.08 0 0
31.12 0 0
31.16 0 0
31.2 0 0
31.24 0 0
31.28 0 0
31.32 0 0
31.36 0 0
31.4 0 0
31.44 0 0
31.48 0 0
31.52 0 0
31.56 0 0
31.6 0 0
31.64 0 0
31.68 0 0
31.72 0 0
31.76 0 0
31.8 0 0
31.84 0 0
31.88 0 0
31.92 0 0
31.96 0 0
0 0.005 0
0.04 0.005 0
0.08 0.005 0
0.12 0.005 0
0.16 0.005 0
0.2 0.005 0
0.24 0.005 0
0.28 0.005 0
0.32 0.005 0
0.36 0.005 0
0.4 0.005 0
0.44 0.005 0
0.48 0.005 0
0.52 0.005 0
0.56 0.005 0
0.6 0.005 0
0.64 0.005 0
0.68 0.005 0
0.72 0.005 0
0.76 0.005 0
0.8 0.005 0
0.84 0.005 0
0.88 0.005 0
0.92 0.005 0
0.96 0.005 0
1 0.005 0
1.04 0.005 0
1.08 0.005 0
1.12 0.005 0
1.16 0.005 0
1.2 0.005 0
1.24 0.005 0
1.28 0.005 0
1.32 0.005 0
1.36 0.005 0
1.4 0.005 0
1.44 0.005 0
1.48 0.005 0
1.52 0.005 0
1.56 0.005 0
1.6 0.005 0
1.64 0.005 0
1.68 0.005 0
1.72 0.005 0
1.76 0.005 0
1.8 0.005 0
1.84 0.005 0
1.88 0.005 0
1.92 0.005 0
1.96 0.005 0
2 0.005 0
2.04 0.005 0
2.08 0.005 0
2.12 0.005 0
2.16 0.005 0
2.2 0.005 0
2.24 0.005 0
2.28 0.005 0
2.32 0.005 0
2.36 0.005 0
2.4 0.005 0
2.44 0.005 0
2.48 0.005 0
2.52 0.005 0
2.56 0.005 0
2.6 0.005 0
2.64 0.005 0
2.68 0.005 0
2.72 0.005 0
2.76 0.005 0
2.8 0.005 0
2.84 0.005 0
2.88 0.005 0
2.92 0.005 0
2.96 0.005 0
3 0.005 0
3.04 0.005 0
3.08 0.005 0
3.12 0.005 0
3.16 0.005 0
3.2 0.005 0
3.24 0.005 0
3.28 0.005 0
3.32 0.005 0
3.36 0.005 0
3.4 0.005 0
3.44 0.005 0
3.48 0.005 0
3.52 0.005 0
3.56 0.005 0
3.6 0.005 0
3.64 0.005 0
3.68 0.005 0
3.72 0.005 0
3.76 0.005 0
3.8 0.005 0
3.84 0.005 0
3.88 0.005 0
3.92 0.005 0
3.96 0.005 0
4 0.005 0
4.04 0.005 0
4.08 0.005 0
4.12 0.005 0
4.16 0.005 0
4.2 0.005 0
4.24 0.005 0
4.28 0.005 0
4.32 0.005 0
4.36 0.005 0
4.4 0.005 0
4.44 0.005 0
4.48 0.005 0
4.52 0.005 0
4.56 0.005 0
4.6 0.005 0
4.64 0.005 0
4.68 0.005 0
4.72 0.005 0
4.76 0.005 0
4.8 0.005 0
4.84 0.005 0
4.88 0.005 0
4.92 0.005 0
4.96 0.005 0
5 0.005 0
5.04 0.005 0
5.08 0.005 0
5.12 0.005 0
5.16 0.005 0
5.2 0.005 0
5.24 0.005 0
5.28 0.005 0
5.32 0.005 0
5.36 0.005 0
5.4 0.005 0
5.44 0.005 0
5.48 0.005 0
5.52 0.005 0
5.56 0.005 0
5.6 0.005 0
5.64 0.005 0
5.68 0.005 0
5.72 0.005 0
5.76 0.005 0
5.8 0.005 0
5.84 0.005 0
5.88 0.005 0
5.92 0.005 0
5.96 0.005 0
6 0.005 0
6.04 0.005 0
6.08 0.005 0
6.12 0.005 0
6.16 0.005 0
6.2 0.005 0
6.24 0.005 0
6.28 0.005 0
6.32 0.005 0
6.36 0.005 0
6.4 0.005 0
6.44 0.005 0
6.48 0.005 0
6.52 0.005 0
6.56 0.005 0
6.6 0.005 0
6.64 0.005 0
6.68 0.005 0
6.72 0.005 0
6.76 0.005 0
6.8 0.005 0
6.84 0.005 0
6.88 0.005 0
6.92 0.005 0
6.96 0.005 0
7 0.005 0
7.04 0.005 0
7.08 0.005 0
7.12 0.005 0
7.16 0.005 0
7.2 0.005 0
7.24 0.005 0
7.28 0.005 0
7.32 0.005 0
7.36 0.005 0
7.4 0.005 0
[...]
POINT_DATA 160000

SCALARS p float 1
LOOKUP_TABLE default
1
73.1927
70.9772
70.7224
70.6622
70.6358
70.6198
70.6082
70.5989
70.5911
70.5841
70.5778
70.5719
70.5663
70.561
70.5559
70.551
70.5461
70.5414
70.5368
70.5323
70.5278
70.5234
70.5191
70.5148
70.5106
70.5064
70.5023
70.4982
70.4942
70.4903
70.4863
70.4825
70.4786
70.4748
70.4711
70.4674
70.4637
70.4601
70.4565
70.4529
70.4494
70.4459
70.4424
70.439
70.4356
70.4323
70.4289
70.4256
70.4223
70.4191
70.4159
70.4127
70.4095
70.4063
70.4032
70.4001
70.397
70.394
70.3909
70.3879
70.3849
70.382
70.379
70.3761
70.3732
70.3703
70.3674
70.3645
70.3617
70.3589
70.3561
70.3533
70.3505
70.3478
70.345
70.3423
70.3396
70.3369
70.3342
70.3315
70.3289
70.3262
70.3236
70.321
70.3184
70.3158
70.3132
70.3106
70.3081
70.3055
70.303
70.3005
70.298
70.2955
70.293
70.2905
70.2881
70.2856
70.2832
70.2807
70.2783
70.2759
70.2735
70.2711
70.2687
70.2663
70.2639
70.2616
70.2592
70.2569
70.2545
70.2522
70.2499
70.2476
70.2453
70.243
70.2407
70.2384
70.2362
70.2339
70.2316
70.2294
70.2271
70.2249
70.2227
70.2205
70.2182
70.216
70.2138
70.2116
70.2095
70.2073
70.2051
70.2029
70.2008
70.1986
70.1965
70.1943
70.1922
70.19
70.1879
70.1858
70.1837
70.1816
70.1795
70.1774
70.1753
70.1732
70.1711
70.169
70.167
70.1649
70.1628
70.1608
70.1587
70.1567
70.1546
70.1526
70.1506
70.1485
70.1465
70.1445
70.1425
70.1405
70.1385
70.1365
70.1345
70.1325
70.1305
70.1285
70.1265
70.1245
70.1226
70.1206
70.1186
70.1167
70.1147
70.1128
70.1108
70.1089
70.1069
70.105
70.1031
70.1012
70.0992
70.0973
70.0954
70.0935
70.0916
70.0896
70.0877
70.0858
70.0839
70.0821
70.0802
70.0783
70.0764
70.0745
70.0726
70.0708
70.0689
70.067
70.0651
70.0633
70.0614
70.0596
70.0577
70.0559
70.054
70.0522
70.0503
70.0485
70.0466
70.0448
70.043
70.0411
70.0393
70.0375
70.0357
70.0338
70.032
70.0302
70.0284
70.0266
70.0248
70.023
70.0212
70.0194
70.0176
70.0158
70.014
70.0122
70.0104
70.0086
70.0069
70.0051
70.0033
70.0015
69.9997
69.998
69.9962
69.9944
69.9927
69.9909
69.9891
69.9874
69.9856
69.9839
69.9821
69.9803
69.9786
69.9768
69.9751
69.9734
69.9716
69.9699
69.9681
69.9664
69.9647
69.9629
69.9612
69.9595
69.9577
69.956
69.9543
69.9525
69.9508
69.9491
69.9474
69.9457
69.944
69.9422
69.9405
69.9388
69.9371
69.9354
69.9337
69.932
69.9303
69.9286
69.9269
69.9252
69.9235
69.9218
69.9201
69.9184
69.9167
69.915
69.9133
69.9116
69.9099
69.9082
69.9066
69.9049
69.9032
69.9015
69.8998
69.8981
69.8965
69.8948
69.8931
69.8914
69.8898
69.8881
69.8864
69.8848
69.8831
69.8814
69.8798
69.8781
69.8764
69.8748
69.8731
69.8714
69.8698
69.8681
69.8665
69.8648
69.8631
69.8615
69.8598
69.8582
69.8565
69.8549
69.8532
69.8516
69.8499
69.8483
69.8466
69.845
69.8433
69.8417
69.8401
69.8384
69.8368
69.8351
69.8335
69.8318
69.8302
69.8286
69.8269
69.8253
69.8237
69.822
69.8204
69.8188
69.8171
69.8155
69.8139
69.8122
69.8106
69.809
69.8074
69.8057
69.8041
69.8025
69.8008
69.7992
69.7976
69.796
69.7944
69.7927
69.7911
69.7895
69.7879
69.7863
69.7846
69.783
69.7814
69.7798
69.7782
69.7766
69.7749
69.7733
69.7717
69.7701
69.7685
69.7669
69.7653
69.7636
69.762
69.7604
69.7588
69.7572
69.7556
69.754
69.7524
69.7508
69.7492
69.7476
69.746
69.7444
69.7428
69.7412
69.7396
69.7379
69.7363
69.7347
69.7331
69.7315
69.7299
69.7283
69.7267
69.7251
69.7235
69.7219
69.7204
69.7188
69.7172
69.7156
69.714
69.7124
69.7108
69.7092
69.7076
69.706
69.7044
69.7028
69.7012
69.6996
69.698
69.6964
69.6948
69.6933
69.6917
69.6901
69.6885
69.6869
69.6853
69.6837
69.6821
69.6805
69.679
69.6774
69.6758
69.6742
69.6726
69.671
69.6694
69.6678
69.6663
69.6647
69.6631
69.6615
69.6599
69.6583
69.6568
69.6552
69.6536
69.652
69.6504
69.6488
69.6473
69.6457
69.6441
69.6425
69.6409
69.6394
69.6378
69.6362
69.6346
69.633
69.6315
69.6299
69.6283
69.6267
69.6252
69.6236
69.622
69.6204
69.6188
69.6173
69.6157
69.6141
69.6125
69.611
69.6094
69.6078
69.6062
69.6047
69.6031
69.6015
69.5999
69.5984
69.5968
69.5952
69.5936
69.5921
69.5905
69.5889
69.5874
69.5858
69.5842
69.5826
69.5811
69.5795
69.5779
69.5764
69.5748
69.5732
69.5716
69.5701
69.5685
69.5669
69.5654
69.5638
69.5622
69.5607
69.5591
69.5575
69.5559
69.5544
69.5528
69.5512
69.5497
69.5481
69.5465
69.545
69.5434
69.5418
69.5403
69.5387
69.5371
69.5356
69.534
69.5324
69.5309
69.5293
69.5277
69.5262
69.5246
69.523
69.5215
69.5199
69.5183
69.5168
69.5152
69.5136
69.5121
69.5105
69.509
69.5074
69.5058
69.5043
69.5027
69.5011
69.4996
69.498
69.4964
69.4949
69.4933
69.4918
69.4902
69.4886
69.4871
69.4855
69.4839
69.4824
69.4808
69.4793
69.4777
69.4761
69.4746
69.473
69.4715
69.4699
69.4683
69.4668
69.4652
69.4636
69.4621
69.4605
69.459
69.4574
69.4558
69.4543
69.4527
69.4512
69.4496
69.448
69.4465
69.4449
69.4434
69.4418
69.4402
69.4387
69.4371
69.4356
69.434
69.4325
69.4309
69.4293
69.4278
69.4262
69.4247
69.4231
69.4215
69.42
69.4184
69.4169
69.4153
69.4138
69.4122
69.4106
69.4091
69.4075
69.406
69.4044
69.4029
69.4013
69.3997
69.3982
69.3966
69.3951
69.3935
69.392
69.3904
69.3888
69.3873
69.3857
69.3842
69.3826
69.3811
69.3795
69.378
69.3764
69.3748
69.3733
69.3717
69.3702
69.3686
69.3671
69.3655
69.364
69.3624
69.3608
69.3593
69.3577
69.3562
69.3546
69.3531
69.3515
69.35
69.3484
69.3469
69.3453
69.3437
69.3422
69.3406
69.3391
69.3375
69.336
69.3344
69.3329
69.3313
69.3298
69.3282
69.3267
69.3251
69.3235
69.322
69.3204
69.3189
69.3173
69.3158
69.3142
69.3127
69.3111
69.3096
69.308
69.3065
69.3049
69.3034
69.3018
69.3003
69.2987
69.2971
69.2956
69.294
69.2925
69.2909
69.2894
69.2878
69.2863
69.2847
69.2832
69.2816
69.2801
69.2785
69.277
69.2754
69.2739
69.2723
69.2708
69.2692
69.2677
69.2661
69.2646
69.263
69.2615
69.2599
69.2584
69.2568
69.2553
69.2537
69.2522
69.2506
69.2491
69.2475
69.2459
69.2444
69.2428
69.2413
69.2397
69.2382
69.2366
69.2351
69.2335
69.232
69.2304
69.2289
69.2273
69.2258
69.2242
69.2227
69.2211
69.2196
69.218
69.2165
69.2149
69.2134
69.2118
69.2103
69.2087
69.2072
69.2057
69.2041
69.2026
69.201
69.1995
69.1979
69.1964
69.1948
69.1933
69.1917
69.1902
69.1886
69.1871
69.1855
69.184
69.1824
69.1809
69.1793
69.1778
69.1762
69.1747
69.1731
69.1716
69.17
69.1685
69.1669
69.1654
69.1638
69.1623
69.1607
69.1592
69.1576
69.1561
69.1545
69.153
69.1515
69.1499
69.1484
69.1468
69.1453
69.1437
69.1422
69.1406
69.1391
69.1375
69.136
69.1344
69.1329
69.1313
69.1298
69.1282
69.1267
69.1251
69.1236
69.1221
69.1205
69.119
69.1174
69.1159
69.1143
69.1128
69.1112
69.1097
1
73.1927
73.1927
70.9772
70.7224
70.6622
70.6358
70.6198
70.6082
70.5989
70.5911
70.5841
70.5778
70.5719
70.5663
70.561
70.5559
70.551
70.5461
70.5414
70.5368
70.5323
70.5278
70.5234
70.5191
70.5148
70.5106
70.5064
70.5023
70.4982
70.4942
70.4903
70.4863
70.4825
70.4786
70.4748
70.4711
70.4674
70.4637
70.4601
70.4565
70.4529
70.4494
70.4459
70.4424
70.439
70.4356
70.4323
70.4289
70.4256
70.4223
70.4191
70.4159
70.4127
70.4095
70.4063
70.4032
70.4001
70.397
70.394
70.3909
70.3879
70.3849
70.382
70.379
70.3761
70.3732
70.3703
70.3674
70.3645
70.3617
70.3589
70.3561
70.3533
70.3505
70.3478
70.345
70.3423
70.3396
70.3369
70.3342
70.3315
70.3289
70.3262
70.3236
70.321
70.3184
70.3158
70.3132
70.3106
70.3081
70.3055
70.303
70.3005
70.298
70.2955
70.293
70.2905
70.2881
70.2856
70.2832
70.2807
70.2783
70.2759
70.2735
70.2711
70.2687
70.2663
70.2639
70.2616
70.2592
70.2569
70.2545
70.2522
70.2499
70.2476
70.2453
70.243
70.2407
70.2384
70.2362
70.2339
70.2316
70.2294
70.2271
70.2249
70.2227
70.2205
70.2182
70.216
70.2138
70.2116
70.2095
70.2073
70.2051
70.2029
70.2008
70.1986
70.1965
70.1943
70.1922
70.19
70.1879
70.1858
70.1837
70.1816
70.1795
70.1774
70.1753
70.1732
70.1711
70.169
70.167
70.1649
70.1628
70.1608
70.1587
70.1567
70.1546
70.1526
70.1506
70.1485
70.1465
70.1445
70.1425
70.1405
70.1385
70.1365
70.1345
70.1325
70.1305
70.1285
70.1265
70.1245
70.1226
70.1206
70.1186
70.1167
70.1147
70.1128
70.1108
70.1089
70.1069
70.105
70.1031
70.1012
70.0992
70.0973
70.0954
70.0935
70.0916
70.0896
70.0877
70.0858
70.0839
70.0821
70.0802
70.0783
70.0764
70.0745
70.0726
70.0708
70.0689
70.067
70.0651
70.0633
70.0614
70.0596
70.0577
70.0559
70.054
70.0522
70.0503
70.0485
70.0466
70.0448
70.043
70.0411
70.0393
70.0375
70.0357
70.0338
70.032
70.0302
70.0284
70.0266
70.0248
70.023
70.0212
70.0194
70.0176
70.0158
70.014
70.0122
70.0104
70.0086
70.0069
70.0051
70.0033
70.0015
69.9997
69.998
69.9962
69.9944
69.9927
69.9909
69.9891
69.9874
69.9856
69.9839
69.9821
69.9803
69.9786
69.9768
69.9751
69.9734
69.9716
69.9699
69.9681
69.9664
69.9647
69.9629
69.9612
69.9595
69.9577
69.956
69.9543
69.9525
69.9508
69.9491
69.9474
69.9457
69.944
69.9422
69.9405
69.9388
69.9371
69.9354
69.9337
69.932
69.9303
69.9286
69.9269
69.9252
69.9235
69.9218
69.9201
69.9184
69.9167
69.915
69.9133
69.9116
69.9099
69.9082
69.9066
69.9049
69.9032
69.9015
69.8998
69.8981
69.8965
69.8948
69.8931
69.8914
69.8898
69.8881
69.8864
69.8848
69.8831
69.8814
69.8798
69.8781
69.8764
69.8748
69.8731
69.8714
69.8698
69.8681
69.8665
69.8648
69.8631
69.8615
69.8598
69.8582
69.8565
69.8549
69.8532
69.8516
69.8499
69.8483
69.8466
69.845
69.8433
69.8417
69.8401
69.8384
69.8368
69.8351
69.8335
69.8318
69.8302
69.8286
69.8269
69.8253
69.8237
69.822
69.8204
69.8188
69.8171
69.8155
69.8139
69.8122
69.8106
69.809
69.8074
69.8057
69.8041
69.8025
69.8008
69.7992
69.7976
69.796
69.7944
69.7927
69.7911
69.7895
69.7879
69.7863
69.7846
69.783
69.7814
69.7798
69.7782
69.7766
69.7749
69.7733
69.7717
69.7701
69.7685
69.7669
69.7653
69.7636
69.762
69.7604
69.7588
69.7572
69.7556
69.754
69.7524
69.7508
69.7492
69.7476
69.746
69.7444
69.7428
69.7412
69.7396
69.7379
69.7363
69.7347
69.7331
69.7315
69.7299
69.7283
69.7267
69.7251
69.7235
69.7219
69.7204
69.7188
69.7172
69.7156
69.714
69.7124
69.7108
69.7092
69.7076
69.706
69.7044
69.7028
69.7012
69.6996
69.698
69.6964
69.6948
69.6933
69.6917
69.6901
69.6885
69.6869
69.6853
69.6837
69.6821
69.6805
69.679
69.6774
69.6758
69.6742
69.6726
69.671
69.6694
69.6678
69.6663
69.6647
69.6631
69.6615
69.6599
69.6583
69.6568
69.6552
69.6536
69.652
69.6504
69.6488
69.6473
69.6457
69.6441
69.6425
69.6409
69.6394
69.6378
69.6362
69.6346
69.633
69.6315
69.6299
69.6283
69.6267
69.6252
69.6236
69.622
69.6204
69.6188
69.6173
69.6157
69.6141
69.6125
69.611
69.6094
69.6078
69.6062
69.6047
69.6031
69.6015
69.5999
69.5984
69.5968
69.5952
69.5936
69.5921
69.5905
69.5889
69.5874
69.5858
69.5842
69.5826
69.5811
69.5795
69.5779
69.5764
69.5748
69.5732
69.5716
69.5701
69.5685
69.5669
69.5654
69.5638
69.5622
69.5607
69.5591
69.5575
69.5559
69.5544
69.5528
69.5512
69.5497
69.5481
69.5465
69.545
69.5434
69.5418
69.5403
69.5387
69.5371
69.5356
69.534
69.5324
69.5309
69.5293
69.5277
69.5262
69.5246
69.523
69.5215
69.5199
69.5183
69.5168
69.5152
69.5136
69.5121
69.5105
69.509
69.5074
69.5058
69.5043
69.5027
69.5011
69.4996
69.498
69.4964
69.4949
69.4933
69.4918
69.4902
69.4886
69.4871
69.4855
69.4839
69.4824
69.4808
69.4793
69.4777
69.4761
69.4746
69.473
69.4715
69.4699
69.4683
69.4668
69.4652
69.4636
69.4621
69.4605
69.459
69.4574
69.4558
69.4543
69.4527
69.4512
69.4496
69.448
69.4465
69.4449
69.4434
69.4418
69.4402
69.4387
69.4371
69.4356
69.434
69.4325
69.4309
69.4293
69.4278
69.4262
69.4247
69.4231
69.4215
69.42
69.4184
69.4169
69.4153
69.4138
69.4122
69.4106
69.4091
69.4075
69.406
69.4044
69.4029
69.4013
69.3997
69.3982
69.3966
69.3951
69.3935
69.392
69.3904
69.3888
69.3873
69.3857
69.3842
69.3826
69.3811
69.3795
69.378
69.3764
69.3748
69.3733
69.3717
69.3702
69.3686
69.3671
69.3655
69.364
69.3624
69.3608
69.3593
69.3577
69.3562
69.3546
69.3531
69.3515
69.35
69.3484
69.3469
69.3453
69.3437
69.3422
69.3406
69.3391
69.3375
69.336
69.3344
69.3329
69.3313
69.3298
69.3282
69.3267
69.3251
69.3235
69.322
69.3204
69.3189
69.3173
69.3158
69.3142
69.3127
69.3111
69.3096
69.308
69.3065
69.3049
69.3034
69.3018
69.3003
69.2987
69.2971
69.2956
69.294
69.2925
69.2909
69.2894
69.2878
69.2863
69.2847
69.2832
69.2816
69.2801
69.2785
69.277
69.2754
69.2739
69.2723
69.2708
69.2692
69.2677
69.2661
69.2646
69.263
69.2615
69.2599
69.2584
69.2568
69.2553
69.2537
69.2522
69.2506
69.2491
69.2475
69.2459
69.2444
69.2428
69.2413
69.2397
69.2382
69.2366
69.2351
69.2335
69.232
69.2304
69.2289
69.2273
69.2258
69.2242
69.2227
69.2211
69.2196
69.218
69.2165
69.2149
69.2134
69.2118
69.2103
69.2087
69.2072
69.2057
69.2041
69.2026
69.201
69.1995
69.1979
69.1964
69.1948
69.1933
69.1917
69.1902
69.1886
69.1871
69.1855
69.184
69.1824
69.1809
69.1793
69.1778
69.1762
69.1747
69.1731
69.1716
69.17
69.1685
69.1669
69.1654
69.1638
69.1623
69.1607
69.1592
69.1576
69.1561
69.1545
69.153
69.1515
69.1499
69.1484
69.1468
69.1453
69.1437
69.1422
69.1406
69.1391
69.1375
69.136
69.1344
69.1329
69.1313
69.1298
69.1282
69.1267
69.1251
69.1236
69.1221
69.1205
69.119
69.1174
69.1159
69.1143
69.1128
69.1112
69.1097
69.1097
72.5457
72.5457
70.9876
70.7319
70.6664
70.638
70.6212
70.6091
70.5996
70.5916
70.5846
70.5782
70.5722
70.5666
70.5613
70.5561
70.5511
70.5463
70.5416
70.5369
70.5324
70.5279
70.5235
70.5191
70.5149
70.5106
70.5065
70.5024
70.4983
70.4943
70.4903
70.4864
70.4825
70.4787
70.4749
70.4711
70.4674
70.4638
70.4601
70.4565
70.453
70.4494
70.4459
70.4425
70.439
70.4356
70.4323
70.4289
70.4256
70.4224
70.4191
70.4159
70.4127
70.4095
70.4064
70.4032
70.4001
70.3971
70.394
70.391
70.3879
70.385
70.382
70.379
70.3761
70.3732
70.3703
70.3674
70.3646
70.3617
70.3589
70.3561
70.3533
70.3505
70.3478
70.345
70.3423
70.3396
70.3369
70.3342
70.3315
70.3289
70.3262
70.3236
70.321
70.3184
70.3158
70.3132
70.3106
70.3081
70.3055
70.303
70.3005
70.298
70.2955
70.293
70.2905
70.2881
70.2856
70.2832
70.2807
70.2783
70.2759
70.2735
70.2711
70.2687
70.2663
70.2639
70.2616
70.2592
70.2569
70.2546
70.2522
70.2499
70.2476
70.2453
70.243
70.2407
70.2384
70.2362
70.2339
70.2316
70.2294
70.2271
70.2249
70.2227
70.2205
70.2183
70.216
70.2138
70.2116
70.2095
70.2073
70.2051
70.2029
70.2008
70.1986
70.1965
70.1943
70.1922
70.1901
70.1879
70.1858
70.1837
70.1816
70.1795
70.1774
70.1753
70.1732
70.1711
70.169
70.167
70.1649
70.1628
70.1608
70.1587
70.1567
70.1546
70.1526
70.1506
70.1485
70.1465
70.1445
70.1425
70.1405
70.1385
70.1365
70.1345
70.1325
70.1305
70.1285
70.1265
70.1246
70.1226
70.1206
70.1187
70.1167
70.1147
70.1128
70.1108
70.1089
70.107
70.105
70.1031
70.1012
70.0992
70.0973
70.0954
70.0935
70.0916
70.0897
70.0878
70.0858
70.084
70.0821
70.0802
70.0783
70.0764
70.0745
70.0726
70.0708
70.0689
70.067
70.0651
70.0633
70.0614
70.0596
70.0577
70.0559
70.054
70.0522
70.0503
70.0485
70.0466
70.0448
70.043
70.0411
70.0393
70.0375
70.0357
70.0339
70.032
70.0302
70.0284
70.0266
70.0248
70.023
70.0212
70.0194
70.0176
70.0158
70.014
70.0122
70.0104
70.0086
70.0069
70.0051
70.0033
70.0015
69.9997
69.998
69.9962
69.9944
69.9927
69.9909
69.9891
69.9874
69.9856
69.9839
69.9821
69.9804
69.9786
69.9769
69.9751
69.9734
69.9716
69.9699
69.9681
69.9664
69.9647
69.9629
69.9612
69.9595
69.9577
69.956
69.9543
69.9526
69.9508
69.9491
69.9474
69.9457
69.944
69.9422
69.9405
69.9388
69.9371
69.9354
69.9337
69.932
69.9303
69.9286
69.9269
69.9252
69.9235
69.9218
69.9201
69.9184
69.9167
69.915
69.9133
69.9116
69.9099
69.9082
69.9066
69.9049
69.9032
69.9015
69.8998
69.8982
69.8965
69.8948
69.8931
69.8914
69.8898
69.8881
69.8864
69.8848
69.8831
69.8814
69.8798
69.8781
69.8764
69.8748
69.8731
69.8714
69.8698
69.8681
69.8665
69.8648
69.8631
69.8615
69.8598
69.8582
69.8565
69.8549
69.8532
69.8516
69.8499
69.8483
69.8466
69.845
69.8433
69.8417
69.8401
69.8384
69.8368
69.8351
69.8335
69.8319
69.8302
69.8286
69.8269
69.8253
69.8237
69.822
69.8204
69.8188
69.8171
69.8155
69.8139
69.8122
69.8106
69.809
69.8074
69.8057
69.8041
69.8025
69.8009
69.7992
69.7976
69.796
69.7944
69.7927
69.7911
69.7895
69.7879
69.7863
69.7846
69.783
69.7814
69.7798
69.7782
69.7766
69.7749
69.7733
69.7717
69.7701
69.7685
69.7669
69.7653
69.7637
69.762
69.7604
69.7588
69.7572
69.7556
69.754
69.7524
69.7508
69.7492
69.7476
69.746
69.7444
69.7428
69.7412
69.7396
69.738
69.7364
69.7347
69.7331
69.7315
69.7299
69.7283
69.7267
69.7251
69.7236
69.722
69.7204
69.7188
69.7172
69.7156
69.714
69.7124
69.7108
69.7092
69.7076
69.706
69.7044
69.7028
69.7012
69.6996
69.698
69.6964
69.6948
69.6933
69.6917
69.6901
69.6885
69.6869
69.6853
69.6837
69.6821
69.6805
69.679
69.6774
69.6758
69.6742
69.6726
69.671
69.6694
69.6679
69.6663
69.6647
69.6631
69.6615
69.6599
69.6583
69.6568
69.6552
69.6536
69.652
69.6504
69.6489
69.6473
69.6457
69.6441
69.6425
69.6409
69.6394
69.6378
69.6362
69.6346
69.633
69.6315
69.6299
69.6283
69.6267
69.6252
69.6236
69.622
69.6204
69.6188
69.6173
69.6157
69.6141
69.6125
69.611
69.6094
69.6078
69.6062
69.6047
69.6031
69.6015
69.5999
69.5984
69.5968
69.5952
69.5936
69.5921
69.5905
69.5889
69.5874
69.5858
69.5842
69.5826
69.5811
69.5795
69.5779
69.5764
69.5748
69.5732
69.5716
69.5701
69.5685
69.5669
69.5654
69.5638
69.5622
69.5607
69.5591
69.5575
69.5559
69.5544
69.5528
69.5512
69.5497
69.5481
69.5465
69.545
69.5434
69.5418
69.5403
69.5387
69.5371
69.5356
69.534
69.5324
69.5309
69.5293
69.5277
69.5262
69.5246
69.523
69.5215
69.5199
69.5183
69.5168
69.5152
69.5137
69.5121
69.5105
69.509
69.5074
69.5058
69.5043
69.5027
69.5011
69.4996
69.498
69.4964
69.4949
69.4933
69.4918
69.4902
69.4886
69.4871
69.4855
69.4839
69.4824
69.4808
69.4793
69.4777
69.4761
69.4746
69.473
69.4715
69.4699
69.4683
69.4668
69.4652
69.4636
69.4621
69.4605
69.459
69.4574
69.4558
69.4543
69.4527
69.4512
69.4496
69.448
69.4465
69.4449
69.4434
69.4418
69.4403
69.4387
69.4371
69.4356
69.434
69.4325
69.4309
69.4293
69.4278
69.4262
69.4247
69.4231
69.4215
69.42
69.4184
69.4169
69.4153
69.4138
69.4122
69.4106
69.4091
69.4075
69.406
69.4044
69.4029
69.4013
69.3997
69.3982
69.3966
69.3951
69.3935
69.392
69.3904
69.3888
69.3873
69.3857
69.3842
69.3826
69.3811
69.3795
69.378
69.3764
69.3748
69.3733
69.3717
69.3702
69.3686
69.3671
69.3655
69.364
69.3624
69.3608
69.3593
69.3577
69.3562
69.3546
69.3531
69.3515
69.35
69.3484
69.3469
69.3453
69.3437
69.3422
69.3406
69.3391
69.3375
69.336
69.3344
69.3329
69.3313
69.3298
69.3282
69.3267
69.3251
69.3235
69.322
69.3204
69.3189
69.3173
69.3158
69.3142
69.3127
69.3111
69.3096
69.308
69.3065
69.3049
69.3034
69.3018
69.3003
69.2987
69.2972
69.2956
69.294
69.2925
69.2909
69.2894
69.2878
69.2863
69.2847
69.2832
69.2816
69.2801
69.2785
69.277
69.2754
69.2739
69.2723
69.2708
69.2692
69.2677
69.2661
69.2646
69.263
69.2615
69.2599
69.2584
69.2568
69.2553
69.2537
69.2522
69.2506
69.2491
69.2475
69.246
69.2444
69.2429
69.2413
69.2398
69.2382
69.2367
69.2351
69.2335
69.232
69.2304
69.2289
69.2273
69.2258
69.2242
69.2227
69.2212
69.2196
69.2181
69.2165
69.215
69.2134
69.2119
69.2103
69.2088
69.2072
69.2057
69.2041
69.2026
69.201
69.1995
69.1979
69.1964
69.1948
69.1933
69.1917
69.1902
69.1886
69.1871
69.1855
69.184
69.1824
69.1809
69.1793
69.1778
69.1762
69.1747
69.1731
69.1716
69.17
69.1685
69.1669
69.1654
69.1638
69.1623
69.1607
69.1592
69.1576
69.1561
69.1546
69.153
69.1515
69.1499
69.1484
69.1468
69.1453
69.1437
69.1422
69.1406
69.1391
69.1375
69.136
69.1344
69.1329
69.1313
69.1298
69.1282
69.1267
69.1252
69.1236
69.1221
69.1205
69.119
69.1174
69.1159
69.1143
69.1128
69.1112
69.1097
69.1097
71.8562
71.8562
70.9718
70.7386
70.67
70.6401
70.6225
70.6101
70.6003
70.5922
70.585
70.5785
70.5725
70.5668
70.5615
70.5563
70.5513
70.5464
70.5417
70.537
70.5325
70.528
70.5236
70.5192
70.5149
70.5107
70.5065
70.5024
70.4984
70.4943
70.4904
70.4864
70.4826
70.4787
70.4749
70.4712
70.4675
70.4638
70.4602
70.4566
70.453
70.4495
70.446
70.4425
70.4391
70.4357
70.4323
70.429
70.4257
70.4224
70.4191
70.4159
70.4127
70.4095
70.4064
70.4032
70.4001
70.3971
70.394
70.391
70.388
70.385
70.382
70.379
70.3761
70.3732
70.3703
70.3674
70.3646
70.3617
70.3589
70.3561
70.3533
70.3505
70.3478
70.345
70.3423
70.3396
70.3369
70.3342
70.3315
70.3289
70.3262
70.3236
70.321
70.3184
70.3158
70.3132
70.3107
70.3081
70.3056
70.303
70.3005
70.298
70.2955
70.293
70.2905
70.2881
70.2856
70.2832
70.2807
70.2783
70.2759
70.2735
70.2711
70.2687
70.2663
70.2639
70.2616
70.2592
70.2569
70.2546
70.2522
70.2499
70.2476
70.2453
70.243
70.2407
70.2384
70.2362
70.2339
70.2316
70.2294
70.2272
70.2249
70.2227