# vtk DataFile Version 2.0
FlowField
ASCII
DATASET STRUCTURED_GRID
DIMENSIONS 800 1 200
POINTS 160000 float
0 0 0
0.04 0 0
0.08 0 0
0.12 0 0
0.16 0 0
0.2 0 0
0.24 0 0
0.28 0 0
0.32 0 0
0.36 0 0
0.4 0 0
0.44 0 0
0.48 0 0
0.52 0 0
0.56 0 0
0.6 0 0
0.64 0 0
0.68 0 0
0.72 0 0
0.76 0 0
0.8 0 0
0.84 0 0
0.88 0 0
0.92 0 0
0.96 0 0
1 0 0
1.04 0 0
1.08 0 0
1.12 0 0
1.16 0 0
1.2 0 0
1.24 0 0
1.28 0 0
1.32 0 0
1.36 0 0
1.4 0 0
1.44 0 0
1.48 0 0
1.52 0 0
1.56 0 0
1.6 0 0
1.64 0 0
1.68 0 0
1.72 0 0
1.76 0 0
1.8 0 0
1.84 0 0
1.88 0 0
1.92 0 0
1.96 0 0
2 0 0
2.04 0 0
2.08 0 0
2.12 0 0
2.16 0 0
2.2 0 0
2.24 0 0
2.28 0 0
2.32 0 0
2.36 0 0
2.4 0 0
2.44 0 0
2.48 0 0
2.52 0 0
2.56 0 0
2.6 0 0
2.64 0 0
2.68 0 0
2.72 0 0
2.76 0 0
2.8 0 0
2.84 0 0
2.88 0 0
2.92 0 0
2.96 0 0
3 0 0
3.04 0 0
3.08 0 0
3.12 0 0
3.16 0 0
3.2 0 0
3.24 0 0
3.28 0 0
3.32 0 0
3.36 0 0
3.4 0 0
3.44 0 0
3.48 0 0
3.52 0 0
3.56 0 0
3.6 0 0
3.64 0 0
3.68 0 0
3.72 0 0
3.76 0 0
3.8 0 0
3.84 0 0
3.88 0 0
3.92 0 0
3.96 0 0
4 0 0
4.04 0 0
4.08 0 0
4.12 0 0
4.16 0 0
4.2 0 0
4.24 0 0
4.28 0 0
4.32 0 0
4.36 0 0
4.4 0 0
4.44 0 0
4.48 0 0
4.52 0 0
4.56 0 0
4.6 0 0
4.64 0 0
4.68 0 0
4.72 0 0
4.76 0 0
4.8 0 0
4.84 0 0
4.88 0 0
4.92 0 0
4.96 0 0
5 0 0
5.04 0 0
5.08 0 0
5.12 0 0
5.16 0 0
5.2 0 0
5.24 0 0
5.28 0 0
5.32 0 0
5.36 0 0
5.4 0 0
5.44 0 0
5.48 0 0
5.52 0 0
5.56 0 0
5.6 0 0
5.64 0 0
5.68 0 0
5.72 0 0
5.76 0 0
5.8 0 0
5.84 0 0
5.88 0 0
5.92 0 0
5.96 0 0
6 0 0
6.04 0 0
6.08 0 0
6.12 0 0
6.16 0 0
6.2 0 0
6.24 0 0
6.28 0 0
6.32 0 0
6.36 0 0
6.4 0 0
6.44 0 0
6.48 0 0
6.52 0 0
6.56 0 0
6.6 0 0
6.64 0 0
6.68 0 0
6.72 0 0
6.76 0 0
6.8 0 0
6.84 0 0
6.88 0 0
6.92 0 0
6.96 0 0
7 0 0
7.04 0 0
7.08 0 0
7.12 0 0
7.16 0 0
7.2 0 0
7.24 0 0
7.28 0 0
7.32 0 0
7.36 0 0
7.4 0 0
7.44 0 0
7.48 0 0
7.52 0 0
7.56 0 0
7.6 0 0
7.64 0 0
7.68 0 0
7.72 0 0
7.76 0 0
7.8 0 0
7.84 0 0
7.88 0 0
7.92 0 0
7.96 0 0
8 0 0
8.04 0 0
8.08 0 0
8.12 0 0
8.16 0 0
8.2 0 0
8.24 0 0
8.28 0 0
8.32 0 0
8.36 0 0
8.4 0 0
8.44 0 0
8.48 0 0
8.52 0 0
8.56 0 0
8.6 0 0
8.64 0 0
8.68 0 0
8.72 0 0
8.76 0 0
8.8 0 0
8.84 0 0
8.88 0 0
8.92 0 0
8.96 0 0
9 0 0
9.04 0 0
9.08 0 0
9.12 0 0
9.16 0 0
9.2 0 0
9.24 0 0
9.28 0 0
9.32 0 0
9.36 0 0
9.4 0 0
9.44 0 0
9.48 0 0
9.52 0 0
9.56 0 0
9.6 0 0
9.64 0 0
9.68 0 0
9.72 0 0
9.76 0 0
9.8 0 0
9.84 0 0
9.88 0 0
9.92 0 0
9.96 0 0
10 0 0
10.04 0 0
10.08 0 0
10.12 0 0
10.16 0 0
10.2 0 0
10.24 0 0
10.28 0 0
10.32 0 0
10.36 0 0
10.4 0 0
10.44 0 0
10.48 0 0
10.52 0 0
10.56 0 0
10.6 0 0
10.64 0 0
10.68 0 0
10.72 0 0
10.76 0 0
10.8 0 0
10.84 0 0
10.88 0 0
10.92 0 0
10.96 0 0
11 0 0
11.04 0 0
11.08 0 0
11.12 0 0
11.16 0 0
11.2 0 0
11.24 0 0
11.28 0 0
11.32 0 0
11.36 0 0
11.4 0 0
11.44 0 0
11.48 0 0
11.52 0 0
11.56 0 0
11.6 0 0
11.64 0 0
11.68 0 0
11.72 0 0
11.76 0 0
11.8 0 0
11.84 0 0
11.88 0 0
11.92 0 0
11.96 0 0
12 0 0
12.04 0 0
12.08 0 0
12.12 0 0
12.16 0 0
12.2 0 0
12.24 0 0
12.28 0 0
12.32 0 0
12.36 0 0
12.4 0 0
12.44 0 0
12.48 0 0
12.52 0 0
12.56 0 0
12.6 0 0
12.64 0 0
12.68 0 0
12.72 0 0
12.76 0 0
12.8 0 0
12.84 0 0
12.88 0 0
12.92 0 0
12.96 0 0
13 0 0
13.04 0 0
13.08 0 0
13.12 0 0
13.16 0 0
13.2 0 0
13.24 0 0
13.28 0 0
13.32 0 0
13.36 0 0
13.4 0 0
13.44 0 0
13.48 0 0
13.52 0 0
13.56 0 0
13.6 0 0
13.64 0 0
13.68 0 0
13.72 0 0
13.76 0 0
13.8 0 0
13.84 0 0
13.88 0 0
13.92 0 0
13.96 0 0
14 0 0
14.04 0 0
14.08 0 0
14.12 0 0
14.16 0 0
14.2 0 0
14.24 0 0
14.28 0 0
14.32 0 0
14.36 0 0
14.4 0 0
14.44 0 0
14.48 0 0
14.52 0 0
14.56 0 0
14.6 0 0
14.64 0 0
14.68 0 0
14.72 0 0
14.76 0 0
14.8 0 0
14.84 0 0
14.88 0 0
14.92 0 0
14.96 0 0
15 0 0
15.04 0 0
15.08 0 0
15.12 0 0
15.16 0 0
15.2 0 0
15.24 0 0
15.28 0 0
15.32 0 0
15.36 0 0
15.4 0 0
15.44 0 0
15.48 0 0
15.52 0 0
15.56 0 0
15.6 0 0
15.64 0 0
15.68 0 0
15.72 0 0
15.76 0 0
15.8 0 0
15.84 0 0
15.88 0 0
15.92 0 0
15.96 0 0
16 0 0
16.04 0 0
16.08 0 0
16.12 0 0
16.16 0 0
16.2 0 0
16.24 0 0
16.28 0 0
16.32 0 0
16.36 0 0
16.4 0 0
16.44 0 0
16.48 0 0
16.52 0 0
16.56 0 0
16.6 0 0
16.64 0 0
16.68 0 0
16.72 0 0
16.76 0 0
16.8 0 0
16.84 0 0
16.88 0 0
16.92 0 0
16.96 0 0
17 0 0
17.04 0 0
17.08 0 0
17.12 0 0
17.16 0 0
17.2 0 0
17.24 0 0
17.28 0 0
17.32 0 0
17.36 0 0
17.4 0 0
17.44 0 0
17.48 0 0
17.52 0 0
17.56 0 0
17.6 0 0
17.64 0 0
17.68 0 0
17.72 0 0
17.76 0 0
17.8 0 0
17.84 0 0
17.88 0 0
17.92 0 0
17.96 0 0
18 0 0
18.04 0 0
18.08 0 0
18.12 0 0
18.16 0 0
18.2 0 0
18.24 0 0
18.28 0 0
18.32 0 0
18.36 0 0
18.4 0 0
18.44 0 0
18.48 0 0
18.52 0 0
18.56 0 0
18.6 0 0
18.64 0 0
18.68 0 0
18.72 0 0
18.76 0 0
18.8 0 0
18.84 0 0
18.88 0 0
18.92 0 0
18.96 0 0
19 0 0
19.04 0 0
19.08 0 0
19.12 0 0
19.16 0 0
19.2 0 0
19.24 0 0
19.28 0 0
19.32 0 0
19.36 0 0
19.4 0 0
19.44 0 0
19.48 0 0
19.52 0 0
19.56 0 0
19.6 0 0
19.64 0 0
19.68 0 0
19.72 0 0
19.76 0 0
19.8 0 0
19.84 0 0
19.88 0 0
19.92 0 0
19.96 0 0
20 0 0
20.04 0 0
20.08 0 0
20.12 0 0
20.16 0 0
20.2 0 0
20.24 0 0
20.28 0 0
20.32 0 0
20.36 0 0
20.4 0 0
20.44 0 0
20.48 0 0
20.52 0 0
20.56 0 0
20.6 0 0
20.64 0 0
20.68 0 0
20.72 0 0
20.76 0 0
20.8 0 0
20.84 0 0
20.88 0 0
20.92 0 0
20.96 0 0
21 0 0
21.04 0 0
21.08 0 0
21.12 0 0
21.16 0 0
21.2 0 0
21.24 0 0
21.28 0 0
21.32 0 0
21.36 0 0
21.4 0 0
21.44 0 0
21.48 0 0
21.52 0 0
21.56 0 0
21.6 0 0
21.64 0 0
21.68 0 0
21.72 0 0
21.76 0 0
21.8 0 0
21.84 0 0
21.88 0 0
21.92 0 0
21.96 0 0
22 0 0
22.04 0 0
22.08 0 0
22.12 0 0
22.16 0 0
22.2 0 0
22.24 0 0
22.28 0 0
22.32 0 0
22.36 0 0
22.4 0 0
22.44 0 0
22.48 0 0
22.52 0 0
22.56 0 0
22.6 0 0
22.64 0 0
22.68 0 0
22.72 0 0
22.76 0 0
22.8 0 0
22.84 0 0
22.88 0 0
22.92 0 0
22.96 0 0
23 0 0
23.04 0 0
23.08 0 0
23.12 0 0
23.16 0 0
23.2 0 0
23.24 0 0
23.28 0 0
23.32 0 0
23.36 0 0
23.4 0 0
23.44 0 0
23.48 0 0
23.52 0 0
23.56 0 0
23.6 0 0
23.64 0 0
23.68 0 0
23.72 0 0
23.76 0 0
23.8 0 0
23.84 0 0
23.88 0 0
23.92 0 0
23.96 0 0
24 0 0
24.04 0 0
24.08 0 0
24.12 0 0
24.16 0 0
24.2 0 0
24.24 0 0
24.28 0 0
24.32 0 0
24.36 0 0
24.4 0 0
24.44 0 0
24.48 0 0
24.52 0 0
24.56 0 0
24.6 0 0
24.64 0 0
24.68 0 0
24.72 0 0
24.76 0 0
24.8 0 0
24.84 0 0
24.88 0 0
24.92 0 0
24.96 0 0
25 0 0
25.04 0 0
25.08 0 0
25.12 0 0
25.16 0 0
25.2 0 0
25.24 0 0
25.28 0 0
25.32 0 0
25.36 0 0
25.4 0 0
25.44 0 0
25.48 0 0
25.52 0 0
25.56 0 0
25.6 0 0
25.64 0 0
25.68 0 0
25.72 0 0
25.76 0 0
25.8 0 0
25.84 0 0
25.88 0 0
25.92 0 0
25.96 0 0
26 0 0
26.04 0 0
26.08 0 0
26.12 0 0
26.16 0 0
26.2 0 0
26.24 0 0
26.28 0 0
26.32 0 0
26.36 0 0
26.4 0 0
26.44 0 0
26.48 0 0
26.52 0 0
26.56 0 0
26.6 0 0
26.64 0 0
26.68 0 0
26.72 0 0
26.76 0 0
26.8 0 0
26.84 0 0
26.88 0 0
26.92 0 0
26.96 0 0
27 0 0
27.04 0 0
27.08 0 0
27.12 0 0
27.16 0 0
27.2 0 0
27.24 0 0
27.28 0 0
27.32 0 0
27.36 0 0
27.4 0 0
27.44 0 0
27.48 0 0
27.52 0 0
27.56 0 0
27.6 0 0
27.64 0 0
27.68 0 0
27.72 0 0
27.76 0 0
27.8 0 0
27.84 0 0
27.88 0 0
27.92 0 0
27.96 0 0
28 0 0
28.04 0 0
28.08 0 0
28.12 0 0
28.16 0 0
28.2 0 0
28.24 0 0
28.28 0 0
28.32 0 0
28.36 0 0
28.4 0 0
28.44 0 0
28.48 0 0
28.52 0 0
28.56 0 0
28.6 0 0
28.64 0 0
28.68 0 0
28.72 0 0
28.76 0 0
28.8 0 0
28.84 0 0
28.88 0 0
28.92 0 0
28.96 0 0
29 0 0
29.04 0 0
29.08 0 0
29.12 0 0
29.16 0 0
29.2 0 0
29.24 0 0
29.28 0 0
29.32 0 0
29.36 0 0
29.4 0 0
29.44 0 0
29.48 0 0
29.52 0 0
29.56 0 0
29.6 0 0
29.64 0 0
29.68 0 0
29.72 0 0
29.76 0 0
29.8 0 0
29.84 0 0
29.88 0 0
29.92 0 0
29.96 0 0
30 0 0
30.04 0 0
30.08 0 0
30.12 0 0
30.16 0 0
30.2 0 0
30.24 0 0
30.28 0 0
30.32 0 0
30.36 0 0
30.4 0 0
30.44 0 0
30.48 0 0
30.52 0 0
30.56 0 0
30.6 0 0
30.64 0 0
30.68 0 0
30.72 0 0
30.76 0 0
30.8 0 0
30.84 0 0
30.88 0 0
30.92 0 0
30.96 0 0
31 0 0
31.04 0 0
31.08 0 0
31.12 0 0
31.16 0 0
31.2 0 0
31.24 0 0
31.28 0 0
31.32 0 0
31.36 0 0
31.4 0 0
31.44 0 0
31.48 0 0
31.52 0 0
31.56 0 0
31.6 0 0
31.64 0 0
31.68 0 0
31.72 0 0
31.76 0 0
31.8 0 0
31.84 0 0
31.88 0 0
31.92 0 0
31.96 0 0
0 0.005 0
0.04 0.005 0
0.08 0.005 0
0.12 0.005 0
0.16 0.005 0
0.2 0.005 0
0.24 0.005 0
0.28 0.005 0
0.32 0.005 0
0.36 0.005 0
0.4 0.005 0
0.44 0.005 0
0.48 0.005 0
0.52 0.005 0
0.56 0.005 0
0.6 0.005 0
0.64 0.005 0
0.68 0.005 0
0.72 0.005 0
0.76 0.005 0
0.8 0.005 0
0.84 0.005 0
0.88 0.005 0
0.92 0.005 0
0.96 0.005 0
1 0.005 0
1.04 0.005 0
1.08 0.005 0
1.12 0.005 0
1.16 0.005 0
1.2 0.005 0
1.24 0.005 0
1.28 0.005 0
1.32 0.005 0
1.36 0.005 0
1.4 0.005 0
1.44 0.005 0
1.48 0.005 0
1.52 0.005 0
1.56 0.005 0
1.6 0.005 0
1.64 0.005 0
1.68 0.005 0
1.72 0.005 0
1.76 0.005 0
1.8 0.005 0
1.84 0.005 0
1.88 0.005 0
1.92 0.005 0
1.96 0.005 0
2 0.005 0
2.04 0.005 0
2.08 0.005 0
2.12 0.005 0
2.16 0.005 0
2.2 0.005 0
2.24 0.005 0
2.28 0.005 0
2.32 0.005 0
2.36 0.005 0
2.4 0.005 0
2.44 0.005 0
2.48 0.005 0
2.52 0.005 0
2.56 0.005 0
2.6 0.005 0
2.64 0.005 0
2.68 0.005 0
2.72 0.005 0
2.76 0.005 0
2.8 0.005 0
2.84 0.005 0
2.88 0.005 0
2.92 0.005 0
2.96 0.005 0
3 0.005 0
3.04 0.005 0
3.08 0.005 0
3.12 0.005 0
3.16 0.005 0
3.2 0.005 0
3.24 0.005 0
3.28 0.005 0
3.32 0.005 0
3.36 0.005 0
3.4 0.005 0
3.44 0.005 0
3.48 0.005 0
3.52 0.005 0
3.56 0.005 0
3.6 0.005 0
3.64 0.005 0
3.68 0.005 0
3.72 0.005 0
3.76 0.005 0
3.8 0.005 0
3.84 0.005 0
3.88 0.005 0
3.92 0.005 0
3.96 0.005 0
4 0.005 0
4.04 0.005 0
4.08 0.005 0
4.12 0.005 0
4.16 0.005 0
4.2 0.005 0
4.24 0.005 0
4.28 0.005 0
4.32 0.005 0
4.36 0.005 0
4.4 0.005 0
4.44 0.005 0
4.48 0.005 0
4.52 0.005 0
4.56 0.005 0
4.6 0.005 0
4.64 0.005 0
4.68 0.005 0
4.72 0.005 0
4.76 0.005 0
4.8 0.005 0
4.84 0.005 0
4.88 0.005 0
4.92 0.005 0
4.96 0.005 0
5 0.005 0
5.04 0.005 0
5.08 0.005 0
5.12 0.005 0
5.16 0.005 0
5.2 0.005 0
5.24 0.005 0
5.28 0.005 0
5.32 0.005 0
5.36 0.005 0
5.4 0.005 0
5.44 0.005 0
5.48 0.005 0
5.52 0.005 0
5.56 0.005 0
5.6 0.005 0
5.64 0.005 0
5.68 0.005 0
5.72 0.005 0
5.76 0.005 0
5.8 0.005 0
5.84 0.005 0
5.88 0.005 0
5.92 0.005 0
5.96 0.005 0
6 0.005 0
6.04 0.005 0
6.08 0.005 0
6.12 0.005 0
6.16 0.005 0
6.2 0.005 0
6.24 0.005 0
6.28 0.005 0
6.32 0.005 0
6.36 0.005 0
6.4 0.005 0
6.44 0.005 0
6.48 0.005 0
6.52 0.005 0
6.56 0.005 0
6.6 0.005 0
6.64 0.005 0
6.68 0.005 0
6.72 0.005 0
6.76 0.005 0
6.8 0.005 0
6.84 0.005 0
6.88 0.005 0
6.92 0.005 0
6.96 0.005 0
7 0.005 0
7.04 0.005 0
7.08 0.005 0
7.12 0.005 0
7.16 0.005 0
7.2 0.005 0
7.24 0.005 0
7.28 0.005 0
7.32 0.005 0
7.36 0.005 0
7.4 0.005 0
[...]
POINT_DATA 160000

SCALARS p float 1
LOOKUP_TABLE default
1
75.3689
73.1535
72.8986
72.8384
72.812
72.796
72.7844
72.7751
72.7673
72.7603
72.754
72.7481
72.7426
72.7372
72.7321
72.7272
72.7224
72.7176
72.713
72.7085
72.704
72.6996
72.6953
72.691
72.6868
72.6826
72.6785
72.6745
72.6704
72.6665
72.6626
72.6587
72.6549
72.6511
72.6473
72.6436
72.6399
72.6363
72.6327
72.6291
72.6256
72.6221
72.6187
72.6152
72.6118
72.6085
72.6051
72.6018
72.5985
72.5953
72.5921
72.5889
72.5857
72.5825
72.5794
72.5763
72.5732
72.5702
72.5672
72.5641
72.5612
72.5582
72.5552
72.5523
72.5494
72.5465
72.5436
72.5408
72.5379
72.5351
72.5323
72.5295
72.5267
72.524
72.5212
72.5185
72.5158
72.5131
72.5104
72.5077
72.5051
72.5024
72.4998
72.4972
72.4946
72.492
72.4894
72.4868
72.4843
72.4818
72.4792
72.4767
72.4742
72.4717
72.4692
72.4667
72.4643
72.4618
72.4594
72.4569
72.4545
72.4521
72.4497
72.4473
72.4449
72.4425
72.4401
72.4378
72.4354
72.4331
72.4308
72.4284
72.4261
72.4238
72.4215
72.4192
72.4169
72.4146
72.4124
72.4101
72.4078
72.4056
72.4034
72.4011
72.3989
72.3967
72.3945
72.3922
72.39
72.3879
72.3857
72.3835
72.3813
72.3791
72.377
72.3748
72.3727
72.3705
72.3684
72.3663
72.3641
72.362
72.3599
72.3578
72.3557
72.3536
72.3515
72.3494
72.3473
72.3452
72.3432
72.3411
72.339
72.337
72.3349
72.3329
72.3308
72.3288
72.3268
72.3248
72.3227
72.3207
72.3187
72.3167
72.3147
72.3127
72.3107
72.3087
72.3067
72.3047
72.3027
72.3008
72.2988
72.2968
72.2949
72.2929
72.2909
72.289
72.287
72.2851
72.2832
72.2812
72.2793
72.2774
72.2754
72.2735
72.2716
72.2697
72.2678
72.2659
72.264
72.2621
72.2602
72.2583
72.2564
72.2545
72.2526
72.2507
72.2488
72.247
72.2451
72.2432
72.2414
72.2395
72.2376
72.2358
72.2339
72.2321
72.2302
72.2284
72.2265
72.2247
72.2229
72.221
72.2192
72.2174
72.2155
72.2137
72.2119
72.2101
72.2082
72.2064
72.2046
72.2028
72.201
72.1992
72.1974
72.1956
72.1938
72.192
72.1902
72.1884
72.1866
72.1848
72.1831
72.1813
72.1795
72.1777
72.176
72.1742
72.1724
72.1706
72.1689
72.1671
72.1653
72.1636
72.1618
72.1601
72.1583
72.1566
72.1548
72.1531
72.1513
72.1496
72.1478
72.1461
72.1443
72.1426
72.1409
72.1391
72.1374
72.1357
72.1339
72.1322
72.1305
72.1288
72.127
72.1253
72.1236
72.1219
72.1202
72.1185
72.1167
72.115
72.1133
72.1116
72.1099
72.1082
72.1065
72.1048
72.1031
72.1014
72.0997
72.098
72.0963
72.0946
72.0929
72.0912
72.0895
72.0878
72.0861
72.0845
72.0828
72.0811
72.0794
72.0777
72.076
72.0744
72.0727
72.071
72.0693
72.0677
72.066
72.0643
72.0626
72.061
72.0593
72.0576
72.056
72.0543
72.0526
72.051
72.0493
72.0476
72.046
72.0443
72.0427
72.041
72.0394
72.0377
72.036
72.0344
72.0327
72.0311
72.0294
72.0278
72.0261
72.0245
72.0228
72.0212
72.0196
72.0179
72.0163
72.0146
72.013
72.0113
72.0097
72.0081
72.0064
72.0048
72.0031
72.0015
71.9999
71.9982
71.9966
71.995
71.9933
71.9917
71.9901
71.9885
71.9868
71.9852
71.9836
71.9819
71.9803
71.9787
71.9771
71.9754
71.9738
71.9722
71.9706
71.9689
71.9673
71.9657
71.9641
71.9625
71.9608
71.9592
71.9576
71.956
71.9544
71.9528
71.9512
71.9495
71.9479
71.9463
71.9447
71.9431
71.9415
71.9399
71.9383
71.9366
71.935
71.9334
71.9318
71.9302
71.9286
71.927
71.9254
71.9238
71.9222
71.9206
71.919
71.9174
71.9158
71.9142
71.9126
71.911
71.9094
71.9078
71.9062
71.9046
71.903
71.9014
71.8998
71.8982
71.8966
71.895
71.8934
71.8918
71.8902
71.8886
71.887
71.8854
71.8838
71.8822
71.8806
71.879
71.8774
71.8758
71.8742
71.8726
71.8711
71.8695
71.8679
71.8663
71.8647
71.8631
71.8615
71.8599
71.8583
71.8568
71.8552
71.8536
71.852
71.8504
71.8488
71.8472
71.8456
71.8441
71.8425
71.8409
71.8393
71.8377
71.8361
71.8346
71.833
71.8314
71.8298
71.8282
71.8266
71.8251
71.8235
71.8219
71.8203
71.8187
71.8172
71.8156
71.814
71.8124
71.8108
71.8093
71.8077
71.8061
71.8045
71.8029
71.8014
71.7998
71.7982
71.7966
71.7951
71.7935
71.7919
71.7903
71.7888
71.7872
71.7856
71.784
71.7825
71.7809
71.7793
71.7777
71.7762
71.7746
71.773
71.7714
71.7699
71.7683
71.7667
71.7651
71.7636
71.762
71.7604
71.7589
71.7573
71.7557
71.7541
71.7526
71.751
71.7494
71.7479
71.7463
71.7447
71.7431
71.7416
71.74
71.7384
71.7369
71.7353
71.7337
71.7322
71.7306
71.729
71.7275
71.7259
71.7243
71.7227
71.7212
71.7196
71.718
71.7165
71.7149
71.7133
71.7118
71.7102
71.7086
71.7071
71.7055
71.7039
71.7024
71.7008
71.6993
71.6977
71.6961
71.6946
71.693
71.6914
71.6899
71.6883
71.6867
71.6852
71.6836
71.682
71.6805
71.6789
71.6773
71.6758
71.6742
71.6727
71.6711
71.6695
71.668
71.6664
71.6648
71.6633
71.6617
71.6602
71.6586
71.657
71.6555
71.6539
71.6523
71.6508
71.6492
71.6477
71.6461
71.6445
71.643
71.6414
71.6399
71.6383
71.6367
71.6352
71.6336
71.6321
71.6305
71.6289
71.6274
71.6258
71.6243
71.6227
71.6211
71.6196
71.618
71.6165
71.6149
71.6133
71.6118
71.6102
71.6087
71.6071
71.6055
71.604
71.6024
71.6009
71.5993
71.5978
71.5962
71.5946
71.5931
71.5915
71.59
71.5884
71.5869
71.5853
71.5837
71.5822
71.5806
71.5791
71.5775
71.576
71.5744
71.5728
71.5713
71.5697
71.5682
71.5666
71.5651
71.5635
71.5619
71.5604
71.5588
71.5573
71.5557
71.5542
71.5526
71.5511
71.5495
71.5479
71.5464
71.5448
71.5433
71.5417
71.5402
71.5386
71.5371
71.5355
71.5339
71.5324
71.5308
71.5293
71.5277
71.5262
71.5246
71.5231
71.5215
71.52
71.5184
71.5168
71.5153
71.5137
71.5122
71.5106
71.5091
71.5075
71.506
71.5044
71.5029
71.5013
71.4998
71.4982
71.4967
71.4951
71.4935
71.492
71.4904
71.4889
71.4873
71.4858
71.4842
71.4827
71.4811
71.4796
71.478
71.4765
71.4749
71.4734
71.4718
71.4703
71.4687
71.4672
71.4656
71.464
71.4625
71.4609
71.4594
71.4578
71.4563
71.4547
71.4532
71.4516
71.4501
71.4485
71.447
71.4454
71.4439
71.4423
71.4408
71.4392
71.4377
71.4361
71.4346
71.433
71.4315
71.4299
71.4284
71.4268
71.4253
71.4237
71.4222
71.4206
71.4191
71.4175
71.416
71.4144
71.4129
71.4113
71.4098
71.4082
71.4067
71.4051
71.4036
71.402
71.4005
71.3989
71.3974
71.3958
71.3943
71.3927
71.3912
71.3896
71.3881
71.3865
71.385
71.3834
71.3819
71.3803
71.3788
71.3772
71.3757
71.3741
71.3726
71.371
71.3695
71.3679
71.3664
71.3648
71.3633
71.3617
71.3602
71.3586
71.3571
71.3555
71.354
71.3524
71.3509
71.3493
71.3478
71.3462
71.3447
71.3431
71.3416
71.34
71.3385
71.337
71.3354
71.3339
71.3323
71.3308
71.3292
71.3277
71.3261
71.3246
71.323
71.3215
71.3199
71.3184
71.3168
71.3153
71.3137
71.3122
71.3106
71.3091
71.3075
71.306
71.3045
71.3029
71.3014
71.2998
71.2983
71.2967
71.2952
71.2936
71.2921
71.2905
71.289
71.2874
71.2859
1
75.3689
75.3689
73.1535
72.8986
72.8384
72.812
72.796
72.7844
72.7751
72.7673
72.7603
72.754
72.7481
72.7426
72.7372
72.7321
72.7272
72.7224
72.7176
72.713
72.7085
72.704
72.6996
72.6953
72.691
72.6868
72.6826
72.6785
72.6745
72.6704
72.6665
72.6626
72.6587
72.6549
72.6511
72.6473
72.6436
72.6399
72.6363
72.6327
72.6291
72.6256
72.6221
72.6187
72.6152
72.6118
72.6085
72.6051
72.6018
72.5985
72.5953
72.5921
72.5889
72.5857
72.5825
72.5794
72.5763
72.5732
72.5702
72.5672
72.5641
72.5612
72.5582
72.5552
72.5523
72.5494
72.5465
72.5436
72.5408
72.5379
72.5351
72.5323
72.5295
72.5267
72.524
72.5212
72.5185
72.5158
72.5131
72.5104
72.5077
72.5051
72.5024
72.4998
72.4972
72.4946
72.492
72.4894
72.4868
72.4843
72.4818
72.4792
72.4767
72.4742
72.4717
72.4692
72.4667
72.4643
72.4618
72.4594
72.4569
72.4545
72.4521
72.4497
72.4473
72.4449
72.4425
72.4401
72.4378
72.4354
72.4331
72.4308
72.4284
72.4261
72.4238
72.4215
72.4192
72.4169
72.4146
72.4124
72.4101
72.4078
72.4056
72.4034
72.4011
72.3989
72.3967
72.3945
72.3922
72.39
72.3879
72.3857
72.3835
72.3813
72.3791
72.377
72.3748
72.3727
72.3705
72.3684
72.3663
72.3641
72.362
72.3599
72.3578
72.3557
72.3536
72.3515
72.3494
72.3473
72.3452
72.3432
72.3411
72.339
72.337
72.3349
72.3329
72.3308
72.3288
72.3268
72.3248
72.3227
72.3207
72.3187
72.3167
72.3147
72.3127
72.3107
72.3087
72.3067
72.3047
72.3027
72.3008
72.2988
72.2968
72.2949
72.2929
72.2909
72.289
72.287
72.2851
72.2832
72.2812
72.2793
72.2774
72.2754
72.2735
72.2716
72.2697
72.2678
72.2659
72.264
72.2621
72.2602
72.2583
72.2564
72.2545
72.2526
72.2507
72.2488
72.247
72.2451
72.2432
72.2414
72.2395
72.2376
72.2358
72.2339
72.2321
72.2302
72.2284
72.2265
72.2247
72.2229
72.221
72.2192
72.2174
72.2155
72.2137
72.2119
72.2101
72.2082
72.2064
72.2046
72.2028
72.201
72.1992
72.1974
72.1956
72.1938
72.192
72.1902
72.1884
72.1866
72.1848
72.1831
72.1813
72.1795
72.1777
72.176
72.1742
72.1724
72.1706
72.1689
72.1671
72.1653
72.1636
72.1618
72.1601
72.1583
72.1566
72.1548
72.1531
72.1513
72.1496
72.1478
72.1461
72.1443
72.1426
72.1409
72.1391
72.1374
72.1357
72.1339
72.1322
72.1305
72.1288
72.127
72.1253
72.1236
72.1219
72.1202
72.1185
72.1167
72.115
72.1133
72.1116
72.1099
72.1082
72.1065
72.1048
72.1031
72.1014
72.0997
72.098
72.0963
72.0946
72.0929
72.0912
72.0895
72.0878
72.0861
72.0845
72.0828
72.0811
72.0794
72.0777
72.076
72.0744
72.0727
72.071
72.0693
72.0677
72.066
72.0643
72.0626
72.061
72.0593
72.0576
72.056
72.0543
72.0526
72.051
72.0493
72.0476
72.046
72.0443
72.0427
72.041
72.0394
72.0377
72.036
72.0344
72.0327
72.0311
72.0294
72.0278
72.0261
72.0245
72.0228
72.0212
72.0196
72.0179
72.0163
72.0146
72.013
72.0113
72.0097
72.0081
72.0064
72.0048
72.0031
72.0015
71.9999
71.9982
71.9966
71.995
71.9933
71.9917
71.9901
71.9885
71.9868
71.9852
71.9836
71.9819
71.9803
71.9787
71.9771
71.9754
71.9738
71.9722
71.9706
71.9689
71.9673
71.9657
71.9641
71.9625
71.9608
71.9592
71.9576
71.956
71.9544
71.9528
71.9512
71.9495
71.9479
71.9463
71.9447
71.9431
71.9415
71.9399
71.9383
71.9366
71.935
71.9334
71.9318
71.9302
71.9286
71.927
71.9254
71.9238
71.9222
71.9206
71.919
71.9174
71.9158
71.9142
71.9126
71.911
71.9094
71.9078
71.9062
71.9046
71.903
71.9014
71.8998
71.8982
71.8966
71.895
71.8934
71.8918
71.8902
71.8886
71.887
71.8854
71.8838
71.8822
71.8806
71.879
71.8774
71.8758
71.8742
71.8726
71.8711
71.8695
71.8679
71.8663
71.8647
71.8631
71.8615
71.8599
71.8583
71.8568
71.8552
71.8536
71.852
71.8504
71.8488
71.8472
71.8456
71.8441
71.8425
71.8409
71.8393
71.8377
71.8361
71.8346
71.833
71.8314
71.8298
71.8282
71.8266
71.8251
71.8235
71.8219
71.8203
71.8187
71.8172
71.8156
71.814
71.8124
71.8108
71.8093
71.8077
71.8061
71.8045
71.8029
71.8014
71.7998
71.7982
71.7966
71.7951
71.7935
71.7919
71.7903
71.7888
71.7872
71.7856
71.784
71.7825
71.7809
71.7793
71.7777
71.7762
71.7746
71.773
71.7714
71.7699
71.7683
71.7667
71.7651
71.7636
71.762
71.7604
71.7589
71.7573
71.7557
71.7541
71.7526
71.751
71.7494
71.7479
71.7463
71.7447
71.7431
71.7416
71.74
71.7384
71.7369
71.7353
71.7337
71.7322
71.7306
71.729
71.7275
71.7259
71.7243
71.7227
71.7212
71.7196
71.718
71.7165
71.7149
71.7133
71.7118
71.7102
71.7086
71.7071
71.7055
71.7039
71.7024
71.7008
71.6993
71.6977
71.6961
71.6946
71.693
71.6914
71.6899
71.6883
71.6867
71.6852
71.6836
71.682
71.6805
71.6789
71.6773
71.6758
71.6742
71.6727
71.6711
71.6695
71.668
71.6664
71.6648
71.6633
71.6617
71.6602
71.6586
71.657
71.6555
71.6539
71.6523
71.6508
71.6492
71.6477
71.6461
71.6445
71.643
71.6414
71.6399
71.6383
71.6367
71.6352
71.6336
71.6321
71.6305
71.6289
71.6274
71.6258
71.6243
71.6227
71.6211
71.6196
71.618
71.6165
71.6149
71.6133
71.6118
71.6102
71.6087
71.6071
71.6055
71.604
71.6024
71.6009
71.5993
71.5978
71.5962
71.5946
71.5931
71.5915
71.59
71.5884
71.5869
71.5853
71.5837
71.5822
71.5806
71.5791
71.5775
71.576
71.5744
71.5728
71.5713
71.5697
71.5682
71.5666
71.5651
71.5635
71.5619
71.5604
71.5588
71.5573
71.5557
71.5542
71.5526
71.5511
71.5495
71.5479
71.5464
71.5448
71.5433
71.5417
71.5402
71.5386
71.5371
71.5355
71.5339
71.5324
71.5308
71.5293
71.5277
71.5262
71.5246
71.5231
71.5215
71.52
71.5184
71.5168
71.5153
71.5137
71.5122
71.5106
71.5091
71.5075
71.506
71.5044
71.5029
71.5013
71.4998
71.4982
71.4967
71.4951
71.4935
71.492
71.4904
71.4889
71.4873
71.4858
71.4842
71.4827
71.4811
71.4796
71.478
71.4765
71.4749
71.4734
71.4718
71.4703
71.4687
71.4672
71.4656
71.464
71.4625
71.4609
71.4594
71.4578
71.4563
71.4547
71.4532
71.4516
71.4501
71.4485
71.447
71.4454
71.4439
71.4423
71.4408
71.4392
71.4377
71.4361
71.4346
71.433
71.4315
71.4299
71.4284
71.4268
71.4253
71.4237
71.4222
71.4206
71.4191
71.4175
71.416
71.4144
71.4129
71.4113
71.4098
71.4082
71.4067
71.4051
71.4036
71.402
71.4005
71.3989
71.3974
71.3958
71.3943
71.3927
71.3912
71.3896
71.3881
71.3865
71.385
71.3834
71.3819
71.3803
71.3788
71.3772
71.3757
71.3741
71.3726
71.371
71.3695
71.3679
71.3664
71.3648
71.3633
71.3617
71.3602
71.3586
71.3571
71.3555
71.354
71.3524
71.3509
71.3493
71.3478
71.3462
71.3447
71.3431
71.3416
71.34
71.3385
71.337
71.3354
71.3339
71.3323
71.3308
71.3292
71.3277
71.3261
71.3246
71.323
71.3215
71.3199
71.3184
71.3168
71.3153
71.3137
71.3122
71.3106
71.3091
71.3075
71.306
71.3045
71.3029
71.3014
71.2998
71.2983
71.2967
71.2952
71.2936
71.2921
71.2905
71.289
71.2874
71.2859
71.2859
74.7219
74.7219
73.1638
72.9081
72.8426
72.8142
72.7974
72.7853
72.7758
72.7678
72.7608
72.7544
72.7484
72.7428
72.7375
72.7323
72.7273
72.7225
72.7178
72.7131
72.7086
72.7041
72.6997
72.6954
72.6911
72.6869
72.6827
72.6786
72.6745
72.6705
72.6665
72.6626
72.6587
72.6549
72.6511
72.6474
72.6436
72.64
72.6363
72.6327
72.6292
72.6256
72.6222
72.6187
72.6153
72.6119
72.6085
72.6052
72.6019
72.5986
72.5953
72.5921
72.5889
72.5857
72.5826
72.5794
72.5763
72.5733
72.5702
72.5672
72.5642
72.5612
72.5582
72.5552
72.5523
72.5494
72.5465
72.5436
72.5408
72.5379
72.5351
72.5323
72.5295
72.5267
72.524
72.5212
72.5185
72.5158
72.5131
72.5104
72.5077
72.5051
72.5024
72.4998
72.4972
72.4946
72.492
72.4894
72.4869
72.4843
72.4818
72.4792
72.4767
72.4742
72.4717
72.4692
72.4667
72.4643
72.4618
72.4594
72.4569
72.4545
72.4521
72.4497
72.4473
72.4449
72.4425
72.4402
72.4378
72.4354
72.4331
72.4308
72.4284
72.4261
72.4238
72.4215
72.4192
72.4169
72.4146
72.4124
72.4101
72.4079
72.4056
72.4034
72.4011
72.3989
72.3967
72.3945
72.3923
72.3901
72.3879
72.3857
72.3835
72.3813
72.3792
72.377
72.3748
72.3727
72.3705
72.3684
72.3663
72.3641
72.362
72.3599
72.3578
72.3557
72.3536
72.3515
72.3494
72.3473
72.3453
72.3432
72.3411
72.3391
72.337
72.3349
72.3329
72.3309
72.3288
72.3268
72.3248
72.3227
72.3207
72.3187
72.3167
72.3147
72.3127
72.3107
72.3087
72.3067
72.3047
72.3027
72.3008
72.2988
72.2968
72.2949
72.2929
72.291
72.289
72.2871
72.2851
72.2832
72.2812
72.2793
72.2774
72.2754
72.2735
72.2716
72.2697
72.2678
72.2659
72.264
72.2621
72.2602
72.2583
72.2564
72.2545
72.2526
72.2507
72.2488
72.247
72.2451
72.2432
72.2414
72.2395
72.2376
72.2358
72.2339
72.2321
72.2302
72.2284
72.2265
72.2247
72.2229
72.221
72.2192
72.2174
72.2155
72.2137
72.2119
72.2101
72.2083
72.2064
72.2046
72.2028
72.201
72.1992
72.1974
72.1956
72.1938
72.192
72.1902
72.1884
72.1866
72.1849
72.1831
72.1813
72.1795
72.1777
72.176
72.1742
72.1724
72.1706
72.1689
72.1671
72.1654
72.1636
72.1618
72.1601
72.1583
72.1566
72.1548
72.1531
72.1513
72.1496
72.1478
72.1461
72.1443
72.1426
72.1409
72.1391
72.1374
72.1357
72.1339
72.1322
72.1305
72.1288
72.127
72.1253
72.1236
72.1219
72.1202
72.1185
72.1167
72.115
72.1133
72.1116
72.1099
72.1082
72.1065
72.1048
72.1031
72.1014
72.0997
72.098
72.0963
72.0946
72.0929
72.0912
72.0895
72.0878
72.0861
72.0845
72.0828
72.0811
72.0794
72.0777
72.076
72.0744
72.0727
72.071
72.0693
72.0677
72.066
72.0643
72.0626
72.061
72.0593
72.0576
72.056
72.0543
72.0526
72.051
72.0493
72.0477
72.046
72.0443
72.0427
72.041
72.0394
72.0377
72.036
72.0344
72.0327
72.0311
72.0294
72.0278
72.0261
72.0245
72.0228
72.0212
72.0196
72.0179
72.0163
72.0146
72.013
72.0113
72.0097
72.0081
72.0064
72.0048
72.0032
72.0015
71.9999
71.9982
71.9966
71.995
71.9933
71.9917
71.9901
71.9885
71.9868
71.9852
71.9836
71.9819
71.9803
71.9787
71.9771
71.9754
71.9738
71.9722
71.9706
71.969
71.9673
71.9657
71.9641
71.9625
71.9609
71.9592
71.9576
71.956
71.9544
71.9528
71.9512
71.9495
71.9479
71.9463
71.9447
71.9431
71.9415
71.9399
71.9383
71.9366
71.935
71.9334
71.9318
71.9302
71.9286
71.927
71.9254
71.9238
71.9222
71.9206
71.919
71.9174
71.9158
71.9142
71.9126
71.911
71.9094
71.9078
71.9062
71.9046
71.903
71.9014
71.8998
71.8982
71.8966
71.895
71.8934
71.8918
71.8902
71.8886
71.887
71.8854
71.8838
71.8822
71.8806
71.879
71.8774
71.8758
71.8742
71.8727
71.8711
71.8695
71.8679
71.8663
71.8647
71.8631
71.8615
71.8599
71.8583
71.8568
71.8552
71.8536
71.852
71.8504
71.8488
71.8472
71.8457
71.8441
71.8425
71.8409
71.8393
71.8377
71.8361
71.8346
71.833
71.8314
71.8298
71.8282
71.8266
71.8251
71.8235
71.8219
71.8203
71.8187
71.8172
71.8156
71.814
71.8124
71.8108
71.8093
71.8077
71.8061
71.8045
71.8029
71.8014
71.7998
71.7982
71.7966
71.7951
71.7935
71.7919
71.7903
71.7888
71.7872
71.7856
71.784
71.7825
71.7809
71.7793
71.7777
71.7762
71.7746
71.773
71.7714
71.7699
71.7683
71.7667
71.7651
71.7636
71.762
71.7604
71.7589
71.7573
71.7557
71.7541
71.7526
71.751
71.7494
71.7479
71.7463
71.7447
71.7431
71.7416
71.74
71.7384
71.7369
71.7353
71.7337
71.7322
71.7306
71.729
71.7275
71.7259
71.7243
71.7228
71.7212
71.7196
71.7181
71.7165
71.7149
71.7133
71.7118
71.7102
71.7087
71.7071
71.7055
71.704
71.7024
71.7008
71.6993
71.6977
71.6961
71.6946
71.693
71.6914
71.6899
71.6883
71.6867
71.6852
71.6836
71.682
71.6805
71.6789
71.6774
71.6758
71.6742
71.6727
71.6711
71.6695
71.668
71.6664
71.6648
71.6633
71.6617
71.6602
71.6586
71.657
71.6555
71.6539
71.6524
71.6508
71.6492
71.6477
71.6461
71.6445
71.643
71.6414
71.6399
71.6383
71.6367
71.6352
71.6336
71.6321
71.6305
71.6289
71.6274
71.6258
71.6243
71.6227
71.6211
71.6196
71.618
71.6165
71.6149
71.6133
71.6118
71.6102
71.6087
71.6071
71.6056
71.604
71.6024
71.6009
71.5993
71.5978
71.5962
71.5946
71.5931
71.5915
71.59
71.5884
71.5869
71.5853
71.5837
71.5822
71.5806
71.5791
71.5775
71.576
71.5744
71.5728
71.5713
71.5697
71.5682
71.5666
71.5651
71.5635
71.5619
71.5604
71.5588
71.5573
71.5557
71.5542
71.5526
71.5511
71.5495
71.5479
71.5464
71.5448
71.5433
71.5417
71.5402
71.5386
71.5371
71.5355
71.534
71.5324
71.5308
71.5293
71.5277
71.5262
71.5246
71.5231
71.5215
71.52
71.5184
71.5169
71.5153
71.5137
71.5122
71.5106
71.5091
71.5075
71.506
71.5044
71.5029
71.5013
71.4998
71.4982
71.4967
71.4951
71.4935
71.492
71.4904
71.4889
71.4873
71.4858
71.4842
71.4827
71.4811
71.4796
71.478
71.4765
71.4749
71.4734
71.4718
71.4703
71.4687
71.4672
71.4656
71.4641
71.4625
71.4609
71.4594
71.4578
71.4563
71.4547
71.4532
71.4516
71.4501
71.4485
71.447
71.4454
71.4439
71.4423
71.4408
71.4392
71.4377
71.4361
71.4346
71.433
71.4315
71.4299
71.4284
71.4268
71.4253
71.4237
71.4222
71.4206
71.4191
71.4175
71.416
71.4144
71.4129
71.4113
71.4098
71.4082
71.4067
71.4051
71.4036
71.402
71.4005
71.3989
71.3974
71.3958
71.3943
71.3927
71.3912
71.3896
71.3881
71.3865
71.385
71.3834
71.3819
71.3803
71.3788
71.3772
71.3757
71.3741
71.3726
71.371
71.3695
71.3679
71.3664
71.3648
71.3633
71.3617
71.3602
71.3586
71.3571
71.3555
71.354
71.3524
71.3509
71.3493
71.3478
71.3462
71.3447
71.3431
71.3416
71.3401
71.3385
71.337
71.3354
71.3339
71.3323
71.3308
71.3292
71.3277
71.3261
71.3246
71.323
71.3215
71.3199
71.3184
71.3168
71.3153
71.3137
71.3122
71.3106
71.3091
71.3076
71.306
71.3045
71.3029
71.3014
71.2998
71.2983
71.2967
71.2952
71.2936
71.2921
71.2905
71.289
71.2874
71.2859
71.2859
74.0324
74.0324
73.148
72.9148
72.8462
72.8163
72.7987
72.7863
72.7765
72.7684
72.7612
72.7547
72.7487
72.7431
72.7377
72.7325
72.7275
72.7226
72.7179
72.7132
72.7087
72.7042
72.6998
72.6954
72.6912
72.6869
72.6828
72.6786
72.6746
72.6706
72.6666
72.6627
72.6588
72.6549
72.6511
72.6474
72.6437
72.64
72.6364
72.6328
72.6292
72.6257
72.6222
72.6187
72.6153
72.6119
72.6085
72.6052
72.6019
72.5986
72.5953
72.5921
72.5889
72.5857
72.5826
72.5795
72.5764
72.5733
72.5702
72.5672
72.5642
72.5612
72.5582
72.5553
72.5523
72.5494
72.5465
72.5436
72.5408
72.5379
72.5351
72.5323
72.5295
72.5268
72.524
72.5212
72.5185
72.5158
72.5131
72.5104
72.5078
72.5051
72.5025
72.4998
72.4972
72.4946
72.492
72.4894
72.4869
72.4843
72.4818
72.4792
72.4767
72.4742
72.4717
72.4692
72.4667
72.4643
72.4618
72.4594
72.4569
72.4545
72.4521
72.4497
72.4473
72.4449
72.4425
72.4402
72.4378
72.4354
72.4331
72.4308
72.4284
72.4261
72.4238
72.4215
72.4192
72.4169
72.4147
72.4124
72.4101
72.4079
72.4056
72.4034
72.4011