# vtk DataFile Version 2.0
FlowField
ASCII
DATASET STRUCTURED_GRID
DIMENSIONS 800 1 200
POINTS 160000 float
0 0 0
0.04 0 0
0.08 0 0
0.12 0 0
0.16 0 0
0.2 0 0
0.24 0 0
0.28 0 0
0.32 0 0
0.36 0 0
0.4 0 0
0.44 0 0
0.48 0 0
0.52 0 0
0.56 0 0
0.6 0 0
0.64 0 0
0.68 0 0
0.72 0 0
0.76 0 0
0.8 0 0
0.84 0 0
0.88 0 0
0.92 0 0
0.96 0 0
1 0 0
1.04 0 0
1.08 0 0
1.12 0 0
1.16 0 0
1.2 0 0
1.24 0 0
1.28 0 0
1.32 0 0
1.36 0 0
1.4 0 0
1.44 0 0
1.48 0 0
1.52 0 0
1.56 0 0
1.6 0 0
1.64 0 0
1.68 0 0
1.72 0 0
1.76 0 0
1.8 0 0
1.84 0 0
1.88 0 0
1.92 0 0
1.96 0 0
2 0 0
2.04 0 0
2.08 0 0
2.12 0 0
2.16 0 0
2.2 0 0
2.24 0 0
2.28 0 0
2.32 0 0
2.36 0 0
2.4 0 0
2.44 0 0
2.48 0 0
2.52 0 0
2.56 0 0
2.6 0 0
2.64 0 0
2.68 0 0
2.72 0 0
2.76 0 0
2.8 0 0
2.84 0 0
2.88 0 0
2.92 0 0
2.96 0 0
3 0 0
3.04 0 0
3.08 0 0
3.12 0 0
3.16 0 0
3.2 0 0
3.24 0 0
3.28 0 0
3.32 0 0
3.36 0 0
3.4 0 0
3.44 0 0
3.48 0 0
3.52 0 0
3.56 0 0
3.6 0 0
3.64 0 0
3.68 0 0
3.72 0 0
3.76 0 0
3.8 0 0
3.84 0 0
3.88 0 0
3.92 0 0
3.96 0 0
4 0 0
4.04 0 0
4.08 0 0
4.12 0 0
4.16 0 0
4.2 0 0
4.24 0 0
4.28 0 0
4.32 0 0
4.36 0 0
4.4 0 0
4.44 0 0
4.48 0 0
4.52 0 0
4.56 0 0
4.6 0 0
4.64 0 0
4.68 0 0
4.72 0 0
4.76 0 0
4.8 0 0
4.84 0 0
4.88 0 0
4.92 0 0
4.96 0 0
5 0 0
5.04 0 0
5.08 0 0
5.12 0 0
5.16 0 0
5.2 0 0
5.24 0 0
5.28 0 0
5.32 0 0
5.36 0 0
5.4 0 0
5.44 0 0
5.48 0 0
5.52 0 0
5.56 0 0
5.6 0 0
5.64 0 0
5.68 0 0
5.72 0 0
5.76 0 0
5.8 0 0
5.84 0 0
5.88 0 0
5.92 0 0
5.96 0 0
6 0 0
6.04 0 0
6.08 0 0
6.12 0 0
6.16 0 0
6.2 0 0
6.24 0 0
6.28 0 0
6.32 0 0
6.36 0 0
6.4 0 0
6.44 0 0
6.48 0 0
6.52 0 0
6.56 0 0
6.6 0 0
6.64 0 0
6.68 0 0
6.72 0 0
6.76 0 0
6.8 0 0
6.84 0 0
6.88 0 0
6.92 0 0
6.96 0 0
7 0 0
7.04 0 0
7.08 0 0
7.12 0 0
7.16 0 0
7.2 0 0
7.24 0 0
7.28 0 0
7.32 0 0
7.36 0 0
7.4 0 0
7.44 0 0
7.48 0 0
7.52 0 0
7.56 0 0
7.6 0 0
7.64 0 0
7.68 0 0
7.72 0 0
7.76 0 0
7.8 0 0
7.84 0 0
7.88 0 0
7.92 0 0
7.96 0 0
8 0 0
8.04 0 0
8.08 0 0
8.12 0 0
8.16 0 0
8.2 0 0
8.24 0 0
8.28 0 0
8.32 0 0
8.36 0 0
8.4 0 0
8.44 0 0
8.48 0 0
8.52 0 0
8.56 0 0
8.6 0 0
8.64 0 0
8.68 0 0
8.72 0 0
8.76 0 0
8.8 0 0
8.84 0 0
8.88 0 0
8.92 0 0
8.96 0 0
9 0 0
9.04 0 0
9.08 0 0
9.12 0 0
9.16 0 0
9.2 0 0
9.24 0 0
9.28 0 0
9.32 0 0
9.36 0 0
9.4 0 0
9.44 0 0
9.48 0 0
9.52 0 0
9.56 0 0
9.6 0 0
9.64 0 0
9.68 0 0
9.72 0 0
9.76 0 0
9.8 0 0
9.84 0 0
9.88 0 0
9.92 0 0
9.96 0 0
10 0 0
10.04 0 0
10.08 0 0
10.12 0 0
10.16 0 0
10.2 0 0
10.24 0 0
10.28 0 0
10.32 0 0
10.36 0 0
10.4 0 0
10.44 0 0
10.48 0 0
10.52 0 0
10.56 0 0
10.6 0 0
10.64 0 0
10.68 0 0
10.72 0 0
10.76 0 0
10.8 0 0
10.84 0 0
10.88 0 0
10.92 0 0
10.96 0 0
11 0 0
11.04 0 0
11.08 0 0
11.12 0 0
11.16 0 0
11.2 0 0
11.24 0 0
11.28 0 0
11.32 0 0
11.36 0 0
11.4 0 0
11.44 0 0
11.48 0 0
11.52 0 0
11.56 0 0
11.6 0 0
11.64 0 0
11.68 0 0
11.72 0 0
11.76 0 0
11.8 0 0
11.84 0 0
11.88 0 0
11.92 0 0
11.96 0 0
12 0 0
12.04 0 0
12.08 0 0
12.12 0 0
12.16 0 0
12.2 0 0
12.24 0 0
12.28 0 0
12.32 0 0
12.36 0 0
12.4 0 0
12.44 0 0
12.48 0 0
12.52 0 0
12.56 0 0
12.6 0 0
12.64 0 0
12.68 0 0
12.72 0 0
12.76 0 0
12.8 0 0
12.84 0 0
12.88 0 0
12.92 0 0
12.96 0 0
13 0 0
13.04 0 0
13.08 0 0
13.12 0 0
13.16 0 0
13.2 0 0
13.24 0 0
13.28 0 0
13.32 0 0
13.36 0 0
13.4 0 0
13.44 0 0
13.48 0 0
13.52 0 0
13.56 0 0
13.6 0 0
13.64 0 0
13.68 0 0
13.72 0 0
13.76 0 0
13.8 0 0
13.84 0 0
13.88 0 0
13.92 0 0
13.96 0 0
14 0 0
14.04 0 0
14.08 0 0
14.12 0 0
14.16 0 0
14.2 0 0
14.24 0 0
14.28 0 0
14.32 0 0
14.36 0 0
14.4 0 0
14.44 0 0
14.48 0 0
14.52 0 0
14.56 0 0
14.6 0 0
14.64 0 0
14.68 0 0
14.72 0 0
14.76 0 0
14.8 0 0
14.84 0 0
14.88 0 0
14.92 0 0
14.96 0 0
15 0 0
15.04 0 0
15.08 0 0
15.12 0 0
15.16 0 0
15.2 0 0
15.24 0 0
15.28 0 0
15.32 0 0
15.36 0 0
15.4 0 0
15.44 0 0
15.48 0 0
15.52 0 0
15.56 0 0
15.6 0 0
15.64 0 0
15.68 0 0
15.72 0 0
15.76 0 0
15.8 0 0
15.84 0 0
15.88 0 0
15.92 0 0
15.96 0 0
16 0 0
16.04 0 0
16.08 0 0
16.12 0 0
16.16 0 0
16.2 0 0
16.24 0 0
16.28 0 0
16.32 0 0
16.36 0 0
16.4 0 0
16.44 0 0
16.48 0 0
16.52 0 0
16.56 0 0
16.6 0 0
16.64 0 0
16.68 0 0
16.72 0 0
16.76 0 0
16.8 0 0
16.84 0 0
16.88 0 0
16.92 0 0
16.96 0 0
17 0 0
17.04 0 0
17.08 0 0
17.12 0 0
17.16 0 0
17.2 0 0
17.24 0 0
17.28 0 0
17.32 0 0
17.36 0 0
17.4 0 0
17.44 0 0
17.48 0 0
17.52 0 0
17.56 0 0
17.6 0 0
17.64 0 0
17.68 0 0
17.72 0 0
17.76 0 0
17.8 0 0
17.84 0 0
17.88 0 0
17.92 0 0
17.96 0 0
18 0 0
18.04 0 0
18.08 0 0
18.12 0 0
18.16 0 0
18.2 0 0
18.24 0 0
18.28 0 0
18.32 0 0
18.36 0 0
18.4 0 0
18.44 0 0
18.48 0 0
18.52 0 0
18.56 0 0
18.6 0 0
18.64 0 0
18.68 0 0
18.72 0 0
18.76 0 0
18.8 0 0
18.84 0 0
18.88 0 0
18.92 0 0
18.96 0 0
19 0 0
19.04 0 0
19.08 0 0
19.12 0 0
19.16 0 0
19.2 0 0
19.24 0 0
19.28 0 0
19.32 0 0
19.36 0 0
19.4 0 0
19.44 0 0
19.48 0 0
19.52 0 0
19.56 0 0
19.6 0 0
19.64 0 0
19.68 0 0
19.72 0 0
19.76 0 0
19.8 0 0
19.84 0 0
19.88 0 0
19.92 0 0
19.96 0 0
20 0 0
20.04 0 0
20.08 0 0
20.12 0 0
20.16 0 0
20.2 0 0
20.24 0 0
20.28 0 0
20.32 0 0
20.36 0 0
20.4 0 0
20.44 0 0
20.48 0 0
20.52 0 0
20.56 0 0
20.6 0 0
20.64 0 0
20.68 0 0
20.72 0 0
20.76 0 0
20.8 0 0
20.84 0 0
20.88 0 0
20.92 0 0
20.96 0 0
21 0 0
21.04 0 0
21.08 0 0
21.12 0 0
21.16 0 0
21.2 0 0
21.24 0 0
21.28 0 0
21.32 0 0
21.36 0 0
21.4 0 0
21.44 0 0
21.48 0 0
21.52 0 0
21.56 0 0
21.6 0 0
21.64 0 0
21.68 0 0
21.72 0 0
21.76 0 0
21.8 0 0
21.84 0 0
21.88 0 0
21.92 0 0
21.96 0 0
22 0 0
22.04 0 0
22.08 0 0
22.12 0 0
22.16 0 0
22.2 0 0
22.24 0 0
22.28 0 0
22.32 0 0
22.36 0 0
22.4 0 0
22.44 0 0
22.48 0 0
22.52 0 0
22.56 0 0
22.6 0 0
22.64 0 0
22.68 0 0
22.72 0 0
22.76 0 0
22.8 0 0
22.84 0 0
22.88 0 0
22.92 0 0
22.96 0 0
23 0 0
23.04 0 0
23.08 0 0
23.12 0 0
23.16 0 0
23.2 0 0
23.24 0 0
23.28 0 0
23.32 0 0
23.36 0 0
23.4 0 0
23.44 0 0
23.48 0 0
23.52 0 0
23.56 0 0
23.6 0 0
23.64 0 0
23.68 0 0
23.72 0 0
23.76 0 0
23.8 0 0
23.84 0 0
23.88 0 0
23.92 0 0
23.96 0 0
24 0 0
24.04 0 0
24.08 0 0
24.12 0 0
24.16 0 0
24.2 0 0
24.24 0 0
24.28 0 0
24.32 0 0
24.36 0 0
24.4 0 0
24.44 0 0
24.48 0 0
24.52 0 0
24.56 0 0
24.6 0 0
24.64 0 0
24.68 0 0
24.72 0 0
24.76 0 0
24.8 0 0
24.84 0 0
24.88 0 0
24.92 0 0
24.96 0 0
25 0 0
25.04 0 0
25.08 0 0
25.12 0 0
25.16 0 0
25.2 0 0
25.24 0 0
25.28 0 0
25.32 0 0
25.36 0 0
25.4 0 0
25.44 0 0
25.48 0 0
25.52 0 0
25.56 0 0
25.6 0 0
25.64 0 0
25.68 0 0
25.72 0 0
25.76 0 0
25.8 0 0
25.84 0 0
25.88 0 0
25.92 0 0
25.96 0 0
26 0 0
26.04 0 0
26.08 0 0
26.12 0 0
26.16 0 0
26.2 0 0
26.24 0 0
26.28 0 0
26.32 0 0
26.36 0 0
26.4 0 0
26.44 0 0
26.48 0 0
26.52 0 0
26.56 0 0
26.6 0 0
26.64 0 0
26.68 0 0
26.72 0 0
26.76 0 0
26.8 0 0
26.84 0 0
26.88 0 0
26.92 0 0
26.96 0 0
27 0 0
27.04 0 0
27.08 0 0
27.12 0 0
27.16 0 0
27.2 0 0
27.24 0 0
27.28 0 0
27.32 0 0
27.36 0 0
27.4 0 0
27.44 0 0
27.48 0 0
27.52 0 0
27.56 0 0
27.6 0 0
27.64 0 0
27.68 0 0
27.72 0 0
27.76 0 0
27.8 0 0
27.84 0 0
27.88 0 0
27.92 0 0
27.96 0 0
28 0 0
28.04 0 0
28.08 0 0
28.12 0 0
28.16 0 0
28.2 0 0
28.24 0 0
28.28 0 0
28.32 0 0
28.36 0 0
28.4 0 0
28.44 0 0
28.48 0 0
28.52 0 0
28.56 0 0
28.6 0 0
28.64 0 0
28.68 0 0
28.72 0 0
28.76 0 0
28.8 0 0
28.84 0 0
28.88 0 0
28.92 0 0
28.96 0 0
29 0 0
29.04 0 0
29.08 0 0
29.12 0 0
29.16 0 0
29.2 0 0
29.24 0 0
29.28 0 0
29.32 0 0
29.36 0 0
29.4 0 0
29.44 0 0
29.48 0 0
29.52 0 0
29.56 0 0
29.6 0 0
29.64 0 0
29.68 0 0
29.72 0 0
29.76 0 0
29.8 0 0
29.84 0 0
29.88 0 0
29.92 0 0
29.96 0 0
30 0 0
30.04 0 0
30.08 0 0
30.12 0 0
30.16 0 0
30.2 0 0
30.24 0 0
30.28 0 0
30.32 0 0
30.36 0 0
30.4 0 0
30.44 0 0
30.48 0 0
30.52 0 0
30.56 0 0
30.6 0 0
30.64 0 0
30.68 0 0
30.72 0 0
30.76 0 0
30.8 0 0
30.84 0 0
30.88 0 0
30.92 0 0
30.96 0 0
31 0 0
31.04 0 0
31.08 0 0
31.12 0 0
31.16 0 0
31.2 0 0
31.24 0 0
31.28 0 0
31.32 0 0
31.36 0 0
31.4 0 0
31.44 0 0
31.48 0 0
31.52 0 0
31.56 0 0
31.6 0 0
31.64 0 0
31.68 0 0
31.72 0 0
31.76 0 0
31.8 0 0
31.84 0 0
31.88 0 0
31.92 0 0
31.96 0 0
0 0.005 0
0.04 0.005 0
0.08 0.005 0
0.12 0.005 0
0.16 0.005 0
0.2 0.005 0
0.24 0.005 0
0.28 0.005 0
0.32 0.005 0
0.36 0.005 0
0.4 0.005 0
0.44 0.005 0
0.48 0.005 0
0.52 0.005 0
0.56 0.005 0
0.6 0.005 0
0.64 0.005 0
0.68 0.005 0
0.72 0.005 0
0.76 0.005 0
0.8 0.005 0
0.84 0.005 0
0.88 0.005 0
0.92 0.005 0
0.96 0.005 0
1 0.005 0
1.04 0.005 0
1.08 0.005 0
1.12 0.005 0
1.16 0.005 0
1.2 0.005 0
1.24 0.005 0
1.28 0.005 0
1.32 0.005 0
1.36 0.005 0
1.4 0.005 0
1.44 0.005 0
1.48 0.005 0
1.52 0.005 0
1.56 0.005 0
1.6 0.005 0
1.64 0.005 0
1.68 0.005 0
1.72 0.005 0
1.76 0.005 0
1.8 0.005 0
1.84 0.005 0
1.88 0.005 0
1.92 0.005 0
1.96 0.005 0
2 0.005 0
2.04 0.005 0
2.08 0.005 0
2.12 0.005 0
2.16 0.005 0
2.2 0.005 0
2.24 0.005 0
2.28 0.005 0
2.32 0.005 0
2.36 0.005 0
2.4 0.005 0
2.44 0.005 0
2.48 0.005 0
2.52 0.005 0
2.56 0.005 0
2.6 0.005 0
2.64 0.005 0
2.68 0.005 0
2.72 0.005 0
2.76 0.005 0
2.8 0.005 0
2.84 0.005 0
2.88 0.005 0
2.92 0.005 0
2.96 0.005 0
3 0.005 0
3.04 0.005 0
3.08 0.005 0
3.12 0.005 0
3.16 0.005 0
3.2 0.005 0
3.24 0.005 0
3.28 0.005 0
3.32 0.005 0
3.36 0.005 0
3.4 0.005 0
3.44 0.005 0
3.48 0.005 0
3.52 0.005 0
3.56 0.005 0
3.6 0.005 0
3.64 0.005 0
3.68 0.005 0
3.72 0.005 0
3.76 0.005 0
3.8 0.005 0
3.84 0.005 0
3.88 0.005 0
3.92 0.005 0
3.96 0.005 0
4 0.005 0
4.04 0.005 0
4.08 0.005 0
4.12 0.005 0
4.16 0.005 0
4.2 0.005 0
4.24 0.005 0
4.28 0.005 0
4.32 0.005 0
4.36 0.005 0
4.4 0.005 0
4.44 0.005 0
4.48 0.005 0
4.52 0.005 0
4.56 0.005 0
4.6 0.005 0
4.64 0.005 0
4.68 0.005 0
4.72 0.005 0
4.76 0.005 0
4.8 0.005 0
4.84 0.005 0
4.88 0.005 0
4.92 0.005 0
4.96 0.005 0
5 0.005 0
5.04 0.005 0
5.08 0.005 0
5.12 0.005 0
5.16 0.005 0
5.2 0.005 0
5.24 0.005 0
5.28 0.005 0
5.32 0.005 0
5.36 0.005 0
5.4 0.005 0
5.44 0.005 0
5.48 0.005 0
5.52 0.005 0
5.56 0.005 0
5.6 0.005 0
5.64 0.005 0
5.68 0.005 0
5.72 0.005 0
5.76 0.005 0
5.8 0.005 0
5.84 0.005 0
5.88 0.005 0
5.92 0.005 0
5.96 0.005 0
6 0.005 0
6.04 0.005 0
6.08 0.005 0
6.12 0.005 0
6.16 0.005 0
6.2 0.005 0
6.24 0.005 0
6.28 0.005 0
6.32 0.005 0
6.36 0.005 0
6.4 0.005 0
6.44 0.005 0
6.48 0.005 0
6.52 0.005 0
6.56 0.005 0
6.6 0.005 0
6.64 0.005 0
6.68 0.005 0
6.72 0.005 0
6.76 0.005 0
6.8 0.005 0
6.84 0.005 0
6.88 0.005 0
6.92 0.005 0
6.96 0.005 0
7 0.005 0
7.04 0.005 0
7.08 0.005 0
7.12 0.005 0
7.16 0.005 0
7.2 0.005 0
7.24 0.005 0
7.28 0.005 0
7.32 0.005 0
7.36 0.005 0
7.4 0.005 0
[...]
POINT_DATA 160000

SCALARS p float 1
LOOKUP_TABLE default
1
83.3484
81.1329
80.878
80.8179
80.7915
80.7754
80.7638
80.7546
80.7467
80.7398
80.7335
80.7276
80.722
80.7167
80.7116
80.7066
80.7018
80.6971
80.6925
80.6879
80.6835
80.6791
80.6747
80.6705
80.6662
80.6621
80.658
80.6539
80.6499
80.6459
80.642
80.6381
80.6343
80.6305
80.6268
80.6231
80.6194
80.6157
80.6121
80.6086
80.6051
80.6016
80.5981
80.5947
80.5913
80.5879
80.5846
80.5813
80.578
80.5747
80.5715
80.5683
80.5651
80.562
80.5589
80.5558
80.5527
80.5496
80.5466
80.5436
80.5406
80.5376
80.5347
80.5317
80.5288
80.5259
80.5231
80.5202
80.5174
80.5145
80.5117
80.5089
80.5062
80.5034
80.5007
80.4979
80.4952
80.4925
80.4899
80.4872
80.4845
80.4819
80.4793
80.4766
80.474
80.4714
80.4689
80.4663
80.4637
80.4612
80.4587
80.4562
80.4536
80.4511
80.4487
80.4462
80.4437
80.4413
80.4388
80.4364
80.434
80.4315
80.4291
80.4267
80.4243
80.422
80.4196
80.4172
80.4149
80.4125
80.4102
80.4079
80.4056
80.4032
80.4009
80.3987
80.3964
80.3941
80.3918
80.3896
80.3873
80.385
80.3828
80.3806
80.3783
80.3761
80.3739
80.3717
80.3695
80.3673
80.3651
80.3629
80.3608
80.3586
80.3564
80.3543
80.3521
80.35
80.3478
80.3457
80.3436
80.3415
80.3394
80.3372
80.3351
80.333
80.3309
80.3289
80.3268
80.3247
80.3226
80.3206
80.3185
80.3164
80.3144
80.3123
80.3103
80.3083
80.3062
80.3042
80.3022
80.3002
80.2981
80.2961
80.2941
80.2921
80.2901
80.2881
80.2862
80.2842
80.2822
80.2802
80.2782
80.2763
80.2743
80.2724
80.2704
80.2684
80.2665
80.2646
80.2626
80.2607
80.2587
80.2568
80.2549
80.253
80.251
80.2491
80.2472
80.2453
80.2434
80.2415
80.2396
80.2377
80.2358
80.2339
80.2321
80.2302
80.2283
80.2264
80.2245
80.2227
80.2208
80.2189
80.2171
80.2152
80.2134
80.2115
80.2097
80.2078
80.206
80.2041
80.2023
80.2005
80.1986
80.1968
80.195
80.1932
80.1913
80.1895
80.1877
80.1859
80.1841
80.1823
80.1805
80.1787
80.1768
80.175
80.1733
80.1715
80.1697
80.1679
80.1661
80.1643
80.1625
80.1607
80.159
80.1572
80.1554
80.1536
80.1519
80.1501
80.1483
80.1466
80.1448
80.143
80.1413
80.1395
80.1378
80.136
80.1343
80.1325
80.1308
80.129
80.1273
80.1255
80.1238
80.1221
80.1203
80.1186
80.1169
80.1151
80.1134
80.1117
80.1099
80.1082
80.1065
80.1048
80.1031
80.1013
80.0996
80.0979
80.0962
80.0945
80.0928
80.0911
80.0893
80.0876
80.0859
80.0842
80.0825
80.0808
80.0791
80.0774
80.0757
80.074
80.0724
80.0707
80.069
80.0673
80.0656
80.0639
80.0622
80.0605
80.0589
80.0572
80.0555
80.0538
80.0521
80.0505
80.0488
80.0471
80.0454
80.0438
80.0421
80.0404
80.0387
80.0371
80.0354
80.0337
80.0321
80.0304
80.0288
80.0271
80.0254
80.0238
80.0221
80.0205
80.0188
80.0171
80.0155
80.0138
80.0122
80.0105
80.0089
80.0072
80.0056
80.0039
80.0023
80.0006
79.999
79.9974
79.9957
79.9941
79.9924
79.9908
79.9891
79.9875
79.9859
79.9842
79.9826
79.981
79.9793
79.9777
79.9761
79.9744
79.9728
79.9712
79.9695
79.9679
79.9663
79.9646
79.963
79.9614
79.9598
79.9581
79.9565
79.9549
79.9533
79.9516
79.95
79.9484
79.9468
79.9452
79.9435
79.9419
79.9403
79.9387
79.9371
79.9354
79.9338
79.9322
79.9306
79.929
79.9274
79.9258
79.9241
79.9225
79.9209
79.9193
79.9177
79.9161
79.9145
79.9129
79.9113
79.9097
79.9081
79.9064
79.9048
79.9032
79.9016
79.9
79.8984
79.8968
79.8952
79.8936
79.892
79.8904
79.8888
79.8872
79.8856
79.884
79.8824
79.8808
79.8792
79.8776
79.876
79.8744
79.8728
79.8712
79.8696
79.868
79.8664
79.8648
79.8632
79.8617
79.8601
79.8585
79.8569
79.8553
79.8537
79.8521
79.8505
79.8489
79.8473
79.8457
79.8441
79.8426
79.841
79.8394
79.8378
79.8362
79.8346
79.833
79.8314
79.8299
79.8283
79.8267
79.8251
79.8235
79.8219
79.8203
79.8188
79.8172
79.8156
79.814
79.8124
79.8108
79.8093
79.8077
79.8061
79.8045
79.8029
79.8013
79.7998
79.7982
79.7966
79.795
79.7934
79.7919
79.7903
79.7887
79.7871
79.7856
79.784
79.7824
79.7808
79.7792
79.7777
79.7761
79.7745
79.7729
79.7714
79.7698
79.7682
79.7666
79.7651
79.7635
79.7619
79.7603
79.7588
79.7572
79.7556
79.754
79.7525
79.7509
79.7493
79.7477
79.7462
79.7446
79.743
79.7414
79.7399
79.7383
79.7367
79.7352
79.7336
79.732
79.7304
79.7289
79.7273
79.7257
79.7242
79.7226
79.721
79.7195
79.7179
79.7163
79.7147
79.7132
79.7116
79.71
79.7085
79.7069
79.7053
79.7038
79.7022
79.7006
79.6991
79.6975
79.6959
79.6944
79.6928
79.6912
79.6897
79.6881
79.6865
79.685
79.6834
79.6818
79.6803
79.6787
79.6771
79.6756
79.674
79.6724
79.6709
79.6693
79.6677
79.6662
79.6646
79.6631
79.6615
79.6599
79.6584
79.6568
79.6552
79.6537
79.6521
79.6505
79.649
79.6474
79.6459
79.6443
79.6427
79.6412
79.6396
79.638
79.6365
79.6349
79.6334
79.6318
79.6302
79.6287
79.6271
79.6256
79.624
79.6224
79.6209
79.6193
79.6177
79.6162
79.6146
79.6131
79.6115
79.6099
79.6084
79.6068
79.6053
79.6037
79.6021
79.6006
79.599
79.5975
79.5959
79.5944
79.5928
79.5912
79.5897
79.5881
79.5866
79.585
79.5834
79.5819
79.5803
79.5788
79.5772
79.5757
79.5741
79.5725
79.571
79.5694
79.5679
79.5663
79.5647
79.5632
79.5616
79.5601
79.5585
79.557
79.5554
79.5538
79.5523
79.5507
79.5492
79.5476
79.5461
79.5445
79.543
79.5414
79.5398
79.5383
79.5367
79.5352
79.5336
79.5321
79.5305
79.5289
79.5274
79.5258
79.5243
79.5227
79.5212
79.5196
79.5181
79.5165
79.515
79.5134
79.5118
79.5103
79.5087
79.5072
79.5056
79.5041
79.5025
79.501
79.4994
79.4979
79.4963
79.4947
79.4932
79.4916
79.4901
79.4885
79.487
79.4854
79.4839
79.4823
79.4808
79.4792
79.4777
79.4761
79.4745
79.473
79.4714
79.4699
79.4683
79.4668
79.4652
79.4637
79.4621
79.4606
79.459
79.4575
79.4559
79.4544
79.4528
79.4513
79.4497
79.4482
79.4466
79.445
79.4435
79.4419
79.4404
79.4388
79.4373
79.4357
79.4342
79.4326
79.4311
79.4295
79.428
79.4264
79.4249
79.4233
79.4218
79.4202
79.4187
79.4171
79.4156
79.414
79.4125
79.4109
79.4094
79.4078
79.4063
79.4047
79.4032
79.4016
79.4001
79.3985
79.397
79.3954
79.3939
79.3923
79.3908
79.3892
79.3877
79.3861
79.3846
79.383
79.3815
79.3799
79.3784
79.3768
79.3753
79.3737
79.3722
79.3706
79.3691
79.3675
79.366
79.3644
79.3629
79.3613
79.3598
79.3582
79.3567
79.3551
79.3536
79.352
79.3505
79.3489
79.3474
79.3458
79.3443
79.3427
79.3412
79.3396
79.3381
79.3365
79.335
79.3334
79.3319
79.3303
79.3288
79.3272
79.3257
79.3241
79.3226
79.321
79.3195
79.318
79.3164
79.3149
79.3133
79.3118
79.3102
79.3087
79.3071
79.3056
79.304
79.3025
79.3009
79.2994
79.2978
79.2963
79.2947
79.2932
79.2916
79.2901
79.2885
79.287
79.2855
79.2839
79.2824
79.2808
79.2793
79.2777
79.2762
79.2746
79.2731
79.2715
79.27
79.2684
79.2669
79.2654
1
83.3484
83.3484
81.1329
80.878
80.8179
80.7915
80.7754
80.7638
80.7546
80.7467
80.7398
80.7335
80.7276
80.722
80.7167
80.7116
80.7066
80.7018
80.6971
80.6925
80.6879
80.6835
80.6791
80.6747
80.6705
80.6662
80.6621
80.658
80.6539
80.6499
80.6459
80.642
80.6381
80.6343
80.6305
80.6268
80.6231
80.6194
80.6157
80.6121
80.6086
80.6051
80.6016
80.5981
80.5947
80.5913
80.5879
80.5846
80.5813
80.578
80.5747
80.5715
80.5683
80.5651
80.562
80.5589
80.5558
80.5527
80.5496
80.5466
80.5436
80.5406
80.5376
80.5347
80.5317
80.5288
80.5259
80.5231
80.5202
80.5174
80.5145
80.5117
80.5089
80.5062
80.5034
80.5007
80.4979
80.4952
80.4925
80.4899
80.4872
80.4845
80.4819
80.4793
80.4766
80.474
80.4714
80.4689
80.4663
80.4637
80.4612
80.4587
80.4562
80.4536
80.4511
80.4487
80.4462
80.4437
80.4413
80.4388
80.4364
80.434
80.4315
80.4291
80.4267
80.4243
80.422
80.4196
80.4172
80.4149
80.4125
80.4102
80.4079
80.4056
80.4032
80.4009
80.3987
80.3964
80.3941
80.3918
80.3896
80.3873
80.385
80.3828
80.3806
80.3783
80.3761
80.3739
80.3717
80.3695
80.3673
80.3651
80.3629
80.3608
80.3586
80.3564
80.3543
80.3521
80.35
80.3478
80.3457
80.3436
80.3415
80.3394
80.3372
80.3351
80.333
80.3309
80.3289
80.3268
80.3247
80.3226
80.3206
80.3185
80.3164
80.3144
80.3123
80.3103
80.3083
80.3062
80.3042
80.3022
80.3002
80.2981
80.2961
80.2941
80.2921
80.2901
80.2881
80.2862
80.2842
80.2822
80.2802
80.2782
80.2763
80.2743
80.2724
80.2704
80.2684
80.2665
80.2646
80.2626
80.2607
80.2587
80.2568
80.2549
80.253
80.251
80.2491
80.2472
80.2453
80.2434
80.2415
80.2396
80.2377
80.2358
80.2339
80.2321
80.2302
80.2283
80.2264
80.2245
80.2227
80.2208
80.2189
80.2171
80.2152
80.2134
80.2115
80.2097
80.2078
80.206
80.2041
80.2023
80.2005
80.1986
80.1968
80.195
80.1932
80.1913
80.1895
80.1877
80.1859
80.1841
80.1823
80.1805
80.1787
80.1768
80.175
80.1733
80.1715
80.1697
80.1679
80.1661
80.1643
80.1625
80.1607
80.159
80.1572
80.1554
80.1536
80.1519
80.1501
80.1483
80.1466
80.1448
80.143
80.1413
80.1395
80.1378
80.136
80.1343
80.1325
80.1308
80.129
80.1273
80.1255
80.1238
80.1221
80.1203
80.1186
80.1169
80.1151
80.1134
80.1117
80.1099
80.1082
80.1065
80.1048
80.1031
80.1013
80.0996
80.0979
80.0962
80.0945
80.0928
80.0911
80.0893
80.0876
80.0859
80.0842
80.0825
80.0808
80.0791
80.0774
80.0757
80.074
80.0724
80.0707
80.069
80.0673
80.0656
80.0639
80.0622
80.0605
80.0589
80.0572
80.0555
80.0538
80.0521
80.0505
80.0488
80.0471
80.0454
80.0438
80.0421
80.0404
80.0387
80.0371
80.0354
80.0337
80.0321
80.0304
80.0288
80.0271
80.0254
80.0238
80.0221
80.0205
80.0188
80.0171
80.0155
80.0138
80.0122
80.0105
80.0089
80.0072
80.0056
80.0039
80.0023
80.0006
79.999
79.9974
79.9957
79.9941
79.9924
79.9908
79.9891
79.9875
79.9859
79.9842
79.9826
79.981
79.9793
79.9777
79.9761
79.9744
79.9728
79.9712
79.9695
79.9679
79.9663
79.9646
79.963
79.9614
79.9598
79.9581
79.9565
79.9549
79.9533
79.9516
79.95
79.9484
79.9468
79.9452
79.9435
79.9419
79.9403
79.9387
79.9371
79.9354
79.9338
79.9322
79.9306
79.929
79.9274
79.9258
79.9241
79.9225
79.9209
79.9193
79.9177
79.9161
79.9145
79.9129
79.9113
79.9097
79.9081
79.9064
79.9048
79.9032
79.9016
79.9
79.8984
79.8968
79.8952
79.8936
79.892
79.8904
79.8888
79.8872
79.8856
79.884
79.8824
79.8808
79.8792
79.8776
79.876
79.8744
79.8728
79.8712
79.8696
79.868
79.8664
79.8648
79.8632
79.8617
79.8601
79.8585
79.8569
79.8553
79.8537
79.8521
79.8505
79.8489
79.8473
79.8457
79.8441
79.8426
79.841
79.8394
79.8378
79.8362
79.8346
79.833
79.8314
79.8299
79.8283
79.8267
79.8251
79.8235
79.8219
79.8203
79.8188
79.8172
79.8156
79.814
79.8124
79.8108
79.8093
79.8077
79.8061
79.8045
79.8029
79.8013
79.7998
79.7982
79.7966
79.795
79.7934
79.7919
79.7903
79.7887
79.7871
79.7856
79.784
79.7824
79.7808
79.7792
79.7777
79.7761
79.7745
79.7729
79.7714
79.7698
79.7682
79.7666
79.7651
79.7635
79.7619
79.7603
79.7588
79.7572
79.7556
79.754
79.7525
79.7509
79.7493
79.7477
79.7462
79.7446
79.743
79.7414
79.7399
79.7383
79.7367
79.7352
79.7336
79.732
79.7304
79.7289
79.7273
79.7257
79.7242
79.7226
79.721
79.7195
79.7179
79.7163
79.7147
79.7132
79.7116
79.71
79.7085
79.7069
79.7053
79.7038
79.7022
79.7006
79.6991
79.6975
79.6959
79.6944
79.6928
79.6912
79.6897
79.6881
79.6865
79.685
79.6834
79.6818
79.6803
79.6787
79.6771
79.6756
79.674
79.6724
79.6709
79.6693
79.6677
79.6662
79.6646
79.6631
79.6615
79.6599
79.6584
79.6568
79.6552
79.6537
79.6521
79.6505
79.649
79.6474
79.6459
79.6443
79.6427
79.6412
79.6396
79.638
79.6365
79.6349
79.6334
79.6318
79.6302
79.6287
79.6271
79.6256
79.624
79.6224
79.6209
79.6193
79.6177
79.6162
79.6146
79.6131
79.6115
79.6099
79.6084
79.6068
79.6053
79.6037
79.6021
79.6006
79.599
79.5975
79.5959
79.5944
79.5928
79.5912
79.5897
79.5881
79.5866
79.585
79.5834
79.5819
79.5803
79.5788
79.5772
79.5757
79.5741
79.5725
79.571
79.5694
79.5679
79.5663
79.5647
79.5632
79.5616
79.5601
79.5585
79.557
79.5554
79.5538
79.5523
79.5507
79.5492
79.5476
79.5461
79.5445
79.543
79.5414
79.5398
79.5383
79.5367
79.5352
79.5336
79.5321
79.5305
79.5289
79.5274
79.5258
79.5243
79.5227
79.5212
79.5196
79.5181
79.5165
79.515
79.5134
79.5118
79.5103
79.5087
79.5072
79.5056
79.5041
79.5025
79.501
79.4994
79.4979
79.4963
79.4947
79.4932
79.4916
79.4901
79.4885
79.487
79.4854
79.4839
79.4823
79.4808
79.4792
79.4777
79.4761
79.4745
79.473
79.4714
79.4699
79.4683
79.4668
79.4652
79.4637
79.4621
79.4606
79.459
79.4575
79.4559
79.4544
79.4528
79.4513
79.4497
79.4482
79.4466
79.445
79.4435
79.4419
79.4404
79.4388
79.4373
79.4357
79.4342
79.4326
79.4311
79.4295
79.428
79.4264
79.4249
79.4233
79.4218
79.4202
79.4187
79.4171
79.4156
79.414
79.4125
79.4109
79.4094
79.4078
79.4063
79.4047
79.4032
79.4016
79.4001
79.3985
79.397
79.3954
79.3939
79.3923
79.3908
79.3892
79.3877
79.3861
79.3846
79.383
79.3815
79.3799
79.3784
79.3768
79.3753
79.3737
79.3722
79.3706
79.3691
79.3675
79.366
79.3644
79.3629
79.3613
79.3598
79.3582
79.3567
79.3551
79.3536
79.352
79.3505
79.3489
79.3474
79.3458
79.3443
79.3427
79.3412
79.3396
79.3381
79.3365
79.335
79.3334
79.3319
79.3303
79.3288
79.3272
79.3257
79.3241
79.3226
79.321
79.3195
79.318
79.3164
79.3149
79.3133
79.3118
79.3102
79.3087
79.3071
79.3056
79.304
79.3025
79.3009
79.2994
79.2978
79.2963
79.2947
79.2932
79.2916
79.2901
79.2885
79.287
79.2855
79.2839
79.2824
79.2808
79.2793
79.2777
79.2762
79.2746
79.2731
79.2715
79.27
79.2684
79.2669
79.2654
79.2654
82.7013
82.7013
81.1433
80.8875
80.822
80.7937
80.7768
80.7648
80.7553
80.7473
80.7402
80.7338
80.7279
80.7223
80.7169
80.7118
80.7068
80.7019
80.6972
80.6926
80.688
80.6836
80.6792
80.6748
80.6705
80.6663
80.6621
80.658
80.654
80.65
80.646
80.6421
80.6382
80.6343
80.6306
80.6268
80.6231
80.6194
80.6158
80.6122
80.6086
80.6051
80.6016
80.5981
80.5947
80.5913
80.5879
80.5846
80.5813
80.578
80.5748
80.5715
80.5683
80.5652
80.562
80.5589
80.5558
80.5527
80.5497
80.5466
80.5436
80.5406
80.5376
80.5347
80.5318
80.5289
80.526
80.5231
80.5202
80.5174
80.5146
80.5118
80.509
80.5062
80.5034
80.5007
80.498
80.4952
80.4926
80.4899
80.4872
80.4845
80.4819
80.4793
80.4767
80.474
80.4715
80.4689
80.4663
80.4638
80.4612
80.4587
80.4562
80.4537
80.4512
80.4487
80.4462
80.4437
80.4413
80.4388
80.4364
80.434
80.4315
80.4291
80.4267
80.4244
80.422
80.4196
80.4172
80.4149
80.4126
80.4102
80.4079
80.4056
80.4033
80.401
80.3987
80.3964
80.3941
80.3918
80.3896
80.3873
80.3851
80.3828
80.3806
80.3784
80.3761
80.3739
80.3717
80.3695
80.3673
80.3651
80.3629
80.3608
80.3586
80.3564
80.3543
80.3521
80.35
80.3479
80.3457
80.3436
80.3415
80.3394
80.3372
80.3351
80.333
80.331
80.3289
80.3268
80.3247
80.3226
80.3206
80.3185
80.3164
80.3144
80.3123
80.3103
80.3083
80.3062
80.3042
80.3022
80.3002
80.2982
80.2961
80.2941
80.2921
80.2901
80.2881
80.2862
80.2842
80.2822
80.2802
80.2782
80.2763
80.2743
80.2724
80.2704
80.2685
80.2665
80.2646
80.2626
80.2607
80.2587
80.2568
80.2549
80.253
80.2511
80.2491
80.2472
80.2453
80.2434
80.2415
80.2396
80.2377
80.2358
80.2339
80.2321
80.2302
80.2283
80.2264
80.2245
80.2227
80.2208
80.2189
80.2171
80.2152
80.2134
80.2115
80.2097
80.2078
80.206
80.2041
80.2023
80.2005
80.1986
80.1968
80.195
80.1932
80.1913
80.1895
80.1877
80.1859
80.1841
80.1823
80.1805
80.1787
80.1769
80.1751
80.1733
80.1715
80.1697
80.1679
80.1661
80.1643
80.1625
80.1607
80.159
80.1572
80.1554
80.1536
80.1519
80.1501
80.1483
80.1466
80.1448
80.143
80.1413
80.1395
80.1378
80.136
80.1343
80.1325
80.1308
80.129
80.1273
80.1255
80.1238
80.1221
80.1203
80.1186
80.1169
80.1151
80.1134
80.1117
80.1099
80.1082
80.1065
80.1048
80.1031
80.1013
80.0996
80.0979
80.0962
80.0945
80.0928
80.0911
80.0894
80.0876
80.0859
80.0842
80.0825
80.0808
80.0791
80.0774
80.0757
80.0741
80.0724
80.0707
80.069
80.0673
80.0656
80.0639
80.0622
80.0605
80.0589
80.0572
80.0555
80.0538
80.0521
80.0505
80.0488
80.0471
80.0454
80.0438
80.0421
80.0404
80.0388
80.0371
80.0354
80.0338
80.0321
80.0304
80.0288
80.0271
80.0254
80.0238
80.0221
80.0205
80.0188
80.0172
80.0155
80.0138
80.0122
80.0105
80.0089
80.0072
80.0056
80.0039
80.0023
80.0007
79.999
79.9974
79.9957
79.9941
79.9924
79.9908
79.9892
79.9875
79.9859
79.9842
79.9826
79.981
79.9793
79.9777
79.9761
79.9744
79.9728
79.9712
79.9695
79.9679
79.9663
79.9646
79.963
79.9614
79.9598
79.9581
79.9565
79.9549
79.9533
79.9516
79.95
79.9484
79.9468
79.9452
79.9435
79.9419
79.9403
79.9387
79.9371
79.9355
79.9338
79.9322
79.9306
79.929
79.9274
79.9258
79.9242
79.9225
79.9209
79.9193
79.9177
79.9161
79.9145
79.9129
79.9113
79.9097
79.9081
79.9065
79.9048
79.9032
79.9016
79.9
79.8984
79.8968
79.8952
79.8936
79.892
79.8904
79.8888
79.8872
79.8856
79.884
79.8824
79.8808
79.8792
79.8776
79.876
79.8744
79.8728
79.8712
79.8696
79.868
79.8664
79.8648
79.8633
79.8617
79.8601
79.8585
79.8569
79.8553
79.8537
79.8521
79.8505
79.8489
79.8473
79.8457
79.8442
79.8426
79.841
79.8394
79.8378
79.8362
79.8346
79.833
79.8314
79.8299
79.8283
79.8267
79.8251
79.8235
79.8219
79.8203
79.8188
79.8172
79.8156
79.814
79.8124
79.8108
79.8093
79.8077
79.8061
79.8045
79.8029
79.8014
79.7998
79.7982
79.7966
79.795
79.7934
79.7919
79.7903
79.7887
79.7871
79.7856
79.784
79.7824
79.7808
79.7792
79.7777
79.7761
79.7745
79.7729
79.7714
79.7698
79.7682
79.7666
79.7651
79.7635
79.7619
79.7603
79.7588
79.7572
79.7556
79.754
79.7525
79.7509
79.7493
79.7477
79.7462
79.7446
79.743
79.7414
79.7399
79.7383
79.7367
79.7352
79.7336
79.732
79.7304
79.7289
79.7273
79.7257
79.7242
79.7226
79.721
79.7195
79.7179
79.7163
79.7147
79.7132
79.7116
79.71
79.7085
79.7069
79.7053
79.7038
79.7022
79.7006
79.6991
79.6975
79.6959
79.6944
79.6928
79.6912
79.6897
79.6881
79.6865
79.685
79.6834
79.6818
79.6803
79.6787
79.6771
79.6756
79.674
79.6724
79.6709
79.6693
79.6678
79.6662
79.6646
79.6631
79.6615
79.6599
79.6584
79.6568
79.6552
79.6537
79.6521
79.6506
79.649
79.6474
79.6459
79.6443
79.6427
79.6412
79.6396
79.6381
79.6365
79.6349
79.6334
79.6318
79.6302
79.6287
79.6271
79.6256
79.624
79.6224
79.6209
79.6193
79.6178
79.6162
79.6146
79.6131
79.6115
79.61
79.6084
79.6068
79.6053
79.6037
79.6022
79.6006
79.599
79.5975
79.5959
79.5944
79.5928
79.5912
79.5897
79.5881
79.5866
79.585
79.5834
79.5819
79.5803
79.5788
79.5772
79.5757
79.5741
79.5725
79.571
79.5694
79.5679
79.5663
79.5648
79.5632
79.5616
79.5601
79.5585
79.557
79.5554
79.5539
79.5523
79.5507
79.5492
79.5476
79.5461
79.5445
79.543
79.5414
79.5398
79.5383
79.5367
79.5352
79.5336
79.5321
79.5305
79.529
79.5274
79.5258
79.5243
79.5227
79.5212
79.5196
79.5181
79.5165
79.515
79.5134
79.5118
79.5103
79.5087
79.5072
79.5056
79.5041
79.5025
79.501
79.4994
79.4979
79.4963
79.4947
79.4932
79.4916
79.4901
79.4885
79.487
79.4854
79.4839
79.4823
79.4808
79.4792
79.4777
79.4761
79.4746
79.473
79.4714
79.4699
79.4683
79.4668
79.4652
79.4637
79.4621
79.4606
79.459
79.4575
79.4559
79.4544
79.4528
79.4513
79.4497
79.4482
79.4466
79.4451
79.4435
79.4419
79.4404
79.4388
79.4373
79.4357
79.4342
79.4326
79.4311
79.4295
79.428
79.4264
79.4249
79.4233
79.4218
79.4202
79.4187
79.4171
79.4156
79.414
79.4125
79.4109
79.4094
79.4078
79.4063
79.4047
79.4032
79.4016
79.4001
79.3985
79.397
79.3954
79.3939
79.3923
79.3908
79.3892
79.3877
79.3861
79.3846
79.383
79.3815
79.3799
79.3784
79.3768
79.3753
79.3737
79.3722
79.3706
79.3691
79.3675
79.366
79.3644
79.3629
79.3613
79.3598
79.3582
79.3567
79.3551
79.3536
79.352
79.3505
79.3489
79.3474
79.3458
79.3443
79.3427
79.3412
79.3396
79.3381
79.3365
79.335
79.3334
79.3319
79.3303
79.3288
79.3272
79.3257
79.3241
79.3226
79.3211
79.3195
79.318
79.3164
79.3149
79.3133
79.3118
79.3102
79.3087
79.3071
79.3056
79.304
79.3025
79.3009
79.2994
79.2978
79.2963
79.2947
79.2932
79.2916
79.2901
79.2886
79.287
79.2855
79.2839
79.2824
79.2808
79.2793
79.2777
79.2762
79.2746
79.2731
79.2715
79.27
79.2684
79.2669
79.2654
79.2654
82.0118
82.0118
81.1275
80.8942
80.8257
80.7958
80.7781
80.7657
80.756
80.7478
80.7407
80.7342
80.7282
80.7225
80.7171
80.712
80.707
80.7021
80.6973
80.6927
80.6881
80.6837
80.6792
80.6749
80.6706
80.6664
80.6622
80.6581
80.654
80.65
80.646
80.6421
80.6382
80.6344
80.6306
80.6268
80.6231
80.6195
80.6158
80.6122
80.6087
80.6051
80.6016
80.5982
80.5947
80.5913
80.588
80.5846
80.5813
80.578
80.5748
80.5716
80.5684
80.5652
80.562
80.5589
80.5558
80.5527
80.5497
80.5466
80.5436
80.5406
80.5377
80.5347
80.5318
80.5289
80.526
80.5231
80.5202
80.5174
80.5146
80.5118
80.509
80.5062
80.5034
80.5007
80.498
80.4953
80.4926
80.4899
80.4872
80.4845
80.4819
80.4793
80.4767
80.4741
80.4715
80.4689
80.4663
80.4638
80.4612
80.4587
80.4562
80.4537
80.4512
80.4487
80.4462
80.4437
80.4413
80.4388
80.4364
80.434
80.4316
80.4291
80.4267
80.4244
80.422
80.4196
80.4173
80.4149
80.4126
80.4102
80.4079
80.4056
80.4033
80.401
80.3987
80.3964
80.3941
80.3918
80.3896
80.3873
80.3851
80.3828
80.3806