# vtk DataFile Version 2.0
FlowField
ASCII
DATASET STRUCTURED_GRID
DIMENSIONS 800 1 200
POINTS 160000 float
0 0 0
0.04 0 0
0.08 0 0
0.12 0 0
0.16 0 0
0.2 0 0
0.24 0 0
0.28 0 0
0.32 0 0
0.36 0 0
0.4 0 0
0.44 0 0
0.48 0 0
0.52 0 0
0.56 0 0
0.6 0 0
0.64 0 0
0.68 0 0
0.72 0 0
0.76 0 0
0.8 0 0
0.84 0 0
0.88 0 0
0.92 0 0
0.96 0 0
1 0 0
1.04 0 0
1.08 0 0
1.12 0 0
1.16 0 0
1.2 0 0
1.24 0 0
1.28 0 0
1.32 0 0
1.36 0 0
1.4 0 0
1.44 0 0
1.48 0 0
1.52 0 0
1.56 0 0
1.6 0 0
1.64 0 0
1.68 0 0
1.72 0 0
1.76 0 0
1.8 0 0
1.84 0 0
1.88 0 0
1.92 0 0
1.96 0 0
2 0 0
2.04 0 0
2.08 0 0
2.12 0 0
2.16 0 0
2.2 0 0
2.24 0 0
2.28 0 0
2.32 0 0
2.36 0 0
2.4 0 0
2.44 0 0
2.48 0 0
2.52 0 0
2.56 0 0
2.6 0 0
2.64 0 0
2.68 0 0
2.72 0 0
2.76 0 0
2.8 0 0
2.84 0 0
2.88 0 0
2.92 0 0
2.96 0 0
3 0 0
3.04 0 0
3.08 0 0
3.12 0 0
3.16 0 0
3.2 0 0
3.24 0 0
3.28 0 0
3.32 0 0
3.36 0 0
3.4 0 0
3.44 0 0
3.48 0 0
3.52 0 0
3.56 0 0
3.6 0 0
3.64 0 0
3.68 0 0
3.72 0 0
3.76 0 0
3.8 0 0
3.84 0 0
3.88 0 0
3.92 0 0
3.96 0 0
4 0 0
4.04 0 0
4.08 0 0
4.12 0 0
4.16 0 0
4.2 0 0
4.24 0 0
4.28 0 0
4.32 0 0
4.36 0 0
4.4 0 0
4.44 0 0
4.48 0 0
4.52 0 0
4.56 0 0
4.6 0 0
4.64 0 0
4.68 0 0
4.72 0 0
4.76 0 0
4.8 0 0
4.84 0 0
4.88 0 0
4.92 0 0
4.96 0 0
5 0 0
5.04 0 0
5.08 0 0
5.12 0 0
5.16 0 0
5.2 0 0
5.24 0 0
5.28 0 0
5.32 0 0
5.36 0 0
5.4 0 0
5.44 0 0
5.48 0 0
5.52 0 0
5.56 0 0
5.6 0 0
5.64 0 0
5.68 0 0
5.72 0 0
5.76 0 0
5.8 0 0
5.84 0 0
5.88 0 0
5.92 0 0
5.96 0 0
6 0 0
6.04 0 0
6.08 0 0
6.12 0 0
6.16 0 0
6.2 0 0
6.24 0 0
6.28 0 0
6.32 0 0
6.36 0 0
6.4 0 0
6.44 0 0
6.48 0 0
6.52 0 0
6.56 0 0
6.6 0 0
6.64 0 0
6.68 0 0
6.72 0 0
6.76 0 0
6.8 0 0
6.84 0 0
6.88 0 0
6.92 0 0
6.96 0 0
7 0 0
7.04 0 0
7.08 0 0
7.12 0 0
7.16 0 0
7.2 0 0
7.24 0 0
7.28 0 0
7.32 0 0
7.36 0 0
7.4 0 0
7.44 0 0
7.48 0 0
7.52 0 0
7.56 0 0
7.6 0 0
7.64 0 0
7.68 0 0
7.72 0 0
7.76 0 0
7.8 0 0
7.84 0 0
7.88 0 0
7.92 0 0
7.96 0 0
8 0 0
8.04 0 0
8.08 0 0
8.12 0 0
8.16 0 0
8.2 0 0
8.24 0 0
8.28 0 0
8.32 0 0
8.36 0 0
8.4 0 0
8.44 0 0
8.48 0 0
8.52 0 0
8.56 0 0
8.6 0 0
8.64 0 0
8.68 0 0
8.72 0 0
8.76 0 0
8.8 0 0
8.84 0 0
8.88 0 0
8.92 0 0
8.96 0 0
9 0 0
9.04 0 0
9.08 0 0
9.12 0 0
9.16 0 0
9.2 0 0
9.24 0 0
9.28 0 0
9.32 0 0
9.36 0 0
9.4 0 0
9.44 0 0
9.48 0 0
9.52 0 0
9.56 0 0
9.6 0 0
9.64 0 0
9.68 0 0
9.72 0 0
9.76 0 0
9.8 0 0
9.84 0 0
9.88 0 0
9.92 0 0
9.96 0 0
10 0 0
10.04 0 0
10.08 0 0
10.12 0 0
10.16 0 0
10.2 0 0
10.24 0 0
10.28 0 0
10.32 0 0
10.36 0 0
10.4 0 0
10.44 0 0
10.48 0 0
10.52 0 0
10.56 0 0
10.6 0 0
10.64 0 0
10.68 0 0
10.72 0 0
10.76 0 0
10.8 0 0
10.84 0 0
10.88 0 0
10.92 0 0
10.96 0 0
11 0 0
11.04 0 0
11.08 0 0
11.12 0 0
11.16 0 0
11.2 0 0
11.24 0 0
11.28 0 0
11.32 0 0
11.36 0 0
11.4 0 0
11.44 0 0
11.48 0 0
11.52 0 0
11.56 0 0
11.6 0 0
11.64 0 0
11.68 0 0
11.72 0 0
11.76 0 0
11.8 0 0
11.84 0 0
11.88 0 0
11.92 0 0
11.96 0 0
12 0 0
12.04 0 0
12.08 0 0
12.12 0 0
12.16 0 0
12.2 0 0
12.24 0 0
12.28 0 0
12.32 0 0
12.36 0 0
12.4 0 0
12.44 0 0
12.48 0 0
12.52 0 0
12.56 0 0
12.6 0 0
12.64 0 0
12.68 0 0
12.72 0 0
12.76 0 0
12.8 0 0
12.84 0 0
12.88 0 0
12.92 0 0
12.96 0 0
13 0 0
13.04 0 0
13.08 0 0
13.12 0 0
13.16 0 0
13.2 0 0
13.24 0 0
13.28 0 0
13.32 0 0
13.36 0 0
13.4 0 0
13.44 0 0
13.48 0 0
13.52 0 0
13.56 0 0
13.6 0 0
13.64 0 0
13.68 0 0
13.72 0 0
13.76 0 0
13.8 0 0
13.84 0 0
13.88 0 0
13.92 0 0
13.96 0 0
14 0 0
14.04 0 0
14.08 0 0
14.12 0 0
14.16 0 0
14.2 0 0
14.24 0 0
14.28 0 0
14.32 0 0
14.36 0 0
14.4 0 0
14.44 0 0
14.48 0 0
14.52 0 0
14.56 0 0
14.6 0 0
14.64 0 0
14.68 0 0
14.72 0 0
14.76 0 0
14.8 0 0
14.84 0 0
14.88 0 0
14.92 0 0
14.96 0 0
15 0 0
15.04 0 0
15.08 0 0
15.12 0 0
15.16 0 0
15.2 0 0
15.24 0 0
15.28 0 0
15.32 0 0
15.36 0 0
15.4 0 0
15.44 0 0
15.48 0 0
15.52 0 0
15.56 0 0
15.6 0 0
15.64 0 0
15.68 0 0
15.72 0 0
15.76 0 0
15.8 0 0
15.84 0 0
15.88 0 0
15.92 0 0
15.96 0 0
16 0 0
16.04 0 0
16.08 0 0
16.12 0 0
16.16 0 0
16.2 0 0
16.24 0 0
16.28 0 0
16.32 0 0
16.36 0 0
16.4 0 0
16.44 0 0
16.48 0 0
16.52 0 0
16.56 0 0
16.6 0 0
16.64 0 0
16.68 0 0
16.72 0 0
16.76 0 0
16.8 0 0
16.84 0 0
16.88 0 0
16.92 0 0
16.96 0 0
17 0 0
17.04 0 0
17.08 0 0
17.12 0 0
17.16 0 0
17.2 0 0
17.24 0 0
17.28 0 0
17.32 0 0
17.36 0 0
17.4 0 0
17.44 0 0
17.48 0 0
17.52 0 0
17.56 0 0
17.6 0 0
17.64 0 0
17.68 0 0
17.72 0 0
17.76 0 0
17.8 0 0
17.84 0 0
17.88 0 0
17.92 0 0
17.96 0 0
18 0 0
18.04 0 0
18.08 0 0
18.12 0 0
18.16 0 0
18.2 0 0
18.24 0 0
18.28 0 0
18.32 0 0
18.36 0 0
18.4 0 0
18.44 0 0
18.48 0 0
18.52 0 0
18.56 0 0
18.6 0 0
18.64 0 0
18.68 0 0
18.72 0 0
18.76 0 0
18.8 0 0
18.84 0 0
18.88 0 0
18.92 0 0
18.96 0 0
19 0 0
19.04 0 0
19.08 0 0
19.12 0 0
19.16 0 0
19.2 0 0
19.24 0 0
19.28 0 0
19.32 0 0
19.36 0 0
19.4 0 0
19.44 0 0
19.48 0 0
19.52 0 0
19.56 0 0
19.6 0 0
19.64 0 0
19.68 0 0
19.72 0 0
19.76 0 0
19.8 0 0
19.84 0 0
19.88 0 0
19.92 0 0
19.96 0 0
20 0 0
20.04 0 0
20.08 0 0
20.12 0 0
20.16 0 0
20.2 0 0
20.24 0 0
20.28 0 0
20.32 0 0
20.36 0 0
20.4 0 0
20.44 0 0
20.48 0 0
20.52 0 0
20.56 0 0
20.6 0 0
20.64 0 0
20.68 0 0
20.72 0 0
20.76 0 0
20.8 0 0
20.84 0 0
20.88 0 0
20.92 0 0
20.96 0 0
21 0 0
21.04 0 0
21.08 0 0
21.12 0 0
21.16 0 0
21.2 0 0
21.24 0 0
21.28 0 0
21.32 0 0
21.36 0 0
21.4 0 0
21.44 0 0
21.48 0 0
21.52 0 0
21.56 0 0
21.6 0 0
21.64 0 0
21.68 0 0
21.72 0 0
21.76 0 0
21.8 0 0
21.84 0 0
21.88 0 0
21.92 0 0
21.96 0 0
22 0 0
22.04 0 0
22.08 0 0
22.12 0 0
22.16 0 0
22.2 0 0
22.24 0 0
22.28 0 0
22.32 0 0
22.36 0 0
22.4 0 0
22.44 0 0
22.48 0 0
22.52 0 0
22.56 0 0
22.6 0 0
22.64 0 0
22.68 0 0
22.72 0 0
22.76 0 0
22.8 0 0
22.84 0 0
22.88 0 0
22.92 0 0
22.96 0 0
23 0 0
23.04 0 0
23.08 0 0
23.12 0 0
23.16 0 0
23.2 0 0
23.24 0 0
23.28 0 0
23.32 0 0
23.36 0 0
23.4 0 0
23.44 0 0
23.48 0 0
23.52 0 0
23.56 0 0
23.6 0 0
23.64 0 0
23.68 0 0
23.72 0 0
23.76 0 0
23.8 0 0
23.84 0 0
23.88 0 0
23.92 0 0
23.96 0 0
24 0 0
24.04 0 0
24.08 0 0
24.12 0 0
24.16 0 0
24.2 0 0
24.24 0 0
24.28 0 0
24.32 0 0
24.36 0 0
24.4 0 0
24.44 0 0
24.48 0 0
24.52 0 0
24.56 0 0
24.6 0 0
24.64 0 0
24.68 0 0
24.72 0 0
24.76 0 0
24.8 0 0
24.84 0 0
24.88 0 0
24.92 0 0
24.96 0 0
25 0 0
25.04 0 0
25.08 0 0
25.12 0 0
25.16 0 0
25.2 0 0
25.24 0 0
25.28 0 0
25.32 0 0
25.36 0 0
25.4 0 0
25.44 0 0
25.48 0 0
25.52 0 0
25.56 0 0
25.6 0 0
25.64 0 0
25.68 0 0
25.72 0 0
25.76 0 0
25.8 0 0
25.84 0 0
25.88 0 0
25.92 0 0
25.96 0 0
26 0 0
26.04 0 0
26.08 0 0
26.12 0 0
26.16 0 0
26.2 0 0
26.24 0 0
26.28 0 0
26.32 0 0
26.36 0 0
26.4 0 0
26.44 0 0
26.48 0 0
26.52 0 0
26.56 0 0
26.6 0 0
26.64 0 0
26.68 0 0
26.72 0 0
26.76 0 0
26.8 0 0
26.84 0 0
26.88 0 0
26.92 0 0
26.96 0 0
27 0 0
27.04 0 0
27.08 0 0
27.12 0 0
27.16 0 0
27.2 0 0
27.24 0 0
27.28 0 0
27.32 0 0
27.36 0 0
27.4 0 0
27.44 0 0
27.48 0 0
27.52 0 0
27.56 0 0
27.6 0 0
27.64 0 0
27.68 0 0
27.72 0 0
27.76 0 0
27.8 0 0
27.84 0 0
27.88 0 0
27.92 0 0
27.96 0 0
28 0 0
28.04 0 0
28.08 0 0
28.12 0 0
28.16 0 0
28.2 0 0
28.24 0 0
28.28 0 0
28.32 0 0
28.36 0 0
28.4 0 0
28.44 0 0
28.48 0 0
28.52 0 0
28.56 0 0
28.6 0 0
28.64 0 0
28.68 0 0
28.72 0 0
28.76 0 0
28.8 0 0
28.84 0 0
28.88 0 0
28.92 0 0
28.96 0 0
29 0 0
29.04 0 0
29.08 0 0
29.12 0 0
29.16 0 0
29.2 0 0
29.24 0 0
29.28 0 0
29.32 0 0
29.36 0 0
29.4 0 0
29.44 0 0
29.48 0 0
29.52 0 0
29.56 0 0
29.6 0 0
29.64 0 0
29.68 0 0
29.72 0 0
29.76 0 0
29.8 0 0
29.84 0 0
29.88 0 0
29.92 0 0
29.96 0 0
30 0 0
30.04 0 0
30.08 0 0
30.12 0 0
30.16 0 0
30.2 0 0
30.24 0 0
30.28 0 0
30.32 0 0
30.36 0 0
30.4 0 0
30.44 0 0
30.48 0 0
30.52 0 0
30.56 0 0
30.6 0 0
30.64 0 0
30.68 0 0
30.72 0 0
30.76 0 0
30.8 0 0
30.84 0 0
30.88 0 0
30.92 0 0
30.96 0 0
31 0 0
31.04 0 0
31.08 0 0
31.12 0 0
31.16 0 0
31.2 0 0
31.24 0 0
31.28 0 0
31.32 0 0
31.36 0 0
31.4 0 0
31.44 0 0
31.48 0 0
31.52 0 0
31.56 0 0
31.6 0 0
31.64 0 0
31.68 0 0
31.72 0 0
31.76 0 0
31.8 0 0
31.84 0 0
31.88 0 0
31.92 0 0
31.96 0 0
0 0.005 0
0.04 0.005 0
0.08 0.005 0
0.12 0.005 0
0.16 0.005 0
0.2 0.005 0
0.24 0.005 0
0.28 0.005 0
0.32 0.005 0
0.36 0.005 0
0.4 0.005 0
0.44 0.005 0
0.48 0.005 0
0.52 0.005 0
0.56 0.005 0
0.6 0.005 0
0.64 0.005 0
0.68 0.005 0
0.72 0.005 0
0.76 0.005 0
0.8 0.005 0
0.84 0.005 0
0.88 0.005 0
0.92 0.005 0
0.96 0.005 0
1 0.005 0
1.04 0.005 0
1.08 0.005 0
1.12 0.005 0
1.16 0.005 0
1.2 0.005 0
1.24 0.005 0
1.28 0.005 0
1.32 0.005 0
1.36 0.005 0
1.4 0.005 0
1.44 0.005 0
1.48 0.005 0
1.52 0.005 0
1.56 0.005 0
1.6 0.005 0
1.64 0.005 0
1.68 0.005 0
1.72 0.005 0
1.76 0.005 0
1.8 0.005 0
1.84 0.005 0
1.88 0.005 0
1.92 0.005 0
1.96 0.005 0
2 0.005 0
2.04 0.005 0
2.08 0.005 0
2.12 0.005 0
2.16 0.005 0
2.2 0.005 0
2.24 0.005 0
2.28 0.005 0
2.32 0.005 0
2.36 0.005 0
2.4 0.005 0
2.44 0.005 0
2.48 0.005 0
2.52 0.005 0
2.56 0.005 0
2.6 0.005 0
2.64 0.005 0
2.68 0.005 0
2.72 0.005 0
2.76 0.005 0
2.8 0.005 0
2.84 0.005 0
2.88 0.005 0
2.92 0.005 0
2.96 0.005 0
3 0.005 0
3.04 0.005 0
3.08 0.005 0
3.12 0.005 0
3.16 0.005 0
3.2 0.005 0
3.24 0.005 0
3.28 0.005 0
3.32 0.005 0
3.36 0.005 0
3.4 0.005 0
3.44 0.005 0
3.48 0.005 0
3.52 0.005 0
3.56 0.005 0
3.6 0.005 0
3.64 0.005 0
3.68 0.005 0
3.72 0.005 0
3.76 0.005 0
3.8 0.005 0
3.84 0.005 0
3.88 0.005 0
3.92 0.005 0
3.96 0.005 0
4 0.005 0
4.04 0.005 0
4.08 0.005 0
4.12 0.005 0
4.16 0.005 0
4.2 0.005 0
4.24 0.005 0
4.28 0.005 0
4.32 0.005 0
4.36 0.005 0
4.4 0.005 0
4.44 0.005 0
4.48 0.005 0
4.52 0.005 0
4.56 0.005 0
4.6 0.005 0
4.64 0.005 0
4.68 0.005 0
4.72 0.005 0
4.76 0.005 0
4.8 0.005 0
4.84 0.005 0
4.88 0.005 0
4.92 0.005 0
4.96 0.005 0
5 0.005 0
5.04 0.005 0
5.08 0.005 0
5.12 0.005 0
5.16 0.005 0
5.2 0.005 0
5.24 0.005 0
5.28 0.005 0
5.32 0.005 0
5.36 0.005 0
5.4 0.005 0
5.44 0.005 0
5.48 0.005 0
5.52 0.005 0
5.56 0.005 0
5.6 0.005 0
5.64 0.005 0
5.68 0.005 0
5.72 0.005 0
5.76 0.005 0
5.8 0.005 0
5.84 0.005 0
5.88 0.005 0
5.92 0.005 0
5.96 0.005 0
6 0.005 0
6.04 0.005 0
6.08 0.005 0
6.12 0.005 0
6.16 0.005 0
6.2 0.005 0
6.24 0.005 0
6.28 0.005 0
6.32 0.005 0
6.36 0.005 0
6.4 0.005 0
6.44 0.005 0
6.48 0.005 0
6.52 0.005 0
6.56 0.005 0
6.6 0.005 0
6.64 0.005 0
6.68 0.005 0
6.72 0.005 0
6.76 0.005 0
6.8 0.005 0
6.84 0.005 0
6.88 0.005 0
6.92 0.005 0
6.96 0.005 0
7 0.005 0
7.04 0.005 0
7.08 0.005 0
7.12 0.005 0
7.16 0.005 0
7.2 0.005 0
7.24 0.005 0
7.28 0.005 0
7.32 0.005 0
7.36 0.005 0
7.4 0.005 0
[...]
POINT_DATA 160000

SCALARS p float 1
LOOKUP_TABLE default
1
78.9959
76.7805
76.5256
76.4654
76.439
76.423
76.4114
76.4022
76.3943
76.3874
76.381
76.3751
76.3696
76.3643
76.3592
76.3542
76.3494
76.3447
76.34
76.3355
76.331
76.3266
76.3223
76.318
76.3138
76.3097
76.3055
76.3015
76.2975
76.2935
76.2896
76.2857
76.2819
76.2781
76.2743
76.2706
76.267
76.2633
76.2597
76.2562
76.2526
76.2491
76.2457
76.2423
76.2389
76.2355
76.2322
76.2288
76.2256
76.2223
76.2191
76.2159
76.2127
76.2096
76.2064
76.2033
76.2003
76.1972
76.1942
76.1912
76.1882
76.1852
76.1823
76.1793
76.1764
76.1735
76.1706
76.1678
76.1649
76.1621
76.1593
76.1565
76.1537
76.151
76.1482
76.1455
76.1428
76.1401
76.1374
76.1348
76.1321
76.1295
76.1268
76.1242
76.1216
76.119
76.1164
76.1139
76.1113
76.1088
76.1062
76.1037
76.1012
76.0987
76.0962
76.0938
76.0913
76.0888
76.0864
76.084
76.0815
76.0791
76.0767
76.0743
76.0719
76.0695
76.0672
76.0648
76.0625
76.0601
76.0578
76.0555
76.0531
76.0508
76.0485
76.0462
76.0439
76.0417
76.0394
76.0371
76.0349
76.0326
76.0304
76.0281
76.0259
76.0237
76.0215
76.0193
76.0171
76.0149
76.0127
76.0105
76.0083
76.0062
76.004
76.0018
75.9997
75.9976
75.9954
75.9933
75.9912
75.989
75.9869
75.9848
75.9827
75.9806
75.9785
75.9764
75.9743
75.9723
75.9702
75.9681
75.9661
75.964
75.962
75.9599
75.9579
75.9558
75.9538
75.9518
75.9498
75.9477
75.9457
75.9437
75.9417
75.9397
75.9377
75.9357
75.9337
75.9317
75.9298
75.9278
75.9258
75.9238
75.9219
75.9199
75.918
75.916
75.9141
75.9121
75.9102
75.9082
75.9063
75.9044
75.9025
75.9005
75.8986
75.8967
75.8948
75.8929
75.891
75.8891
75.8872
75.8853
75.8834
75.8815
75.8796
75.8777
75.8759
75.874
75.8721
75.8702
75.8684
75.8665
75.8647
75.8628
75.8609
75.8591
75.8572
75.8554
75.8536
75.8517
75.8499
75.848
75.8462
75.8444
75.8426
75.8407
75.8389
75.8371
75.8353
75.8335
75.8316
75.8298
75.828
75.8262
75.8244
75.8226
75.8208
75.819
75.8172
75.8154
75.8137
75.8119
75.8101
75.8083
75.8065
75.8048
75.803
75.8012
75.7994
75.7977
75.7959
75.7941
75.7924
75.7906
75.7888
75.7871
75.7853
75.7836
75.7818
75.7801
75.7783
75.7766
75.7748
75.7731
75.7714
75.7696
75.7679
75.7662
75.7644
75.7627
75.761
75.7592
75.7575
75.7558
75.7541
75.7523
75.7506
75.7489
75.7472
75.7455
75.7438
75.742
75.7403
75.7386
75.7369
75.7352
75.7335
75.7318
75.7301
75.7284
75.7267
75.725
75.7233
75.7216
75.7199
75.7182
75.7165
75.7149
75.7132
75.7115
75.7098
75.7081
75.7064
75.7047
75.7031
75.7014
75.6997
75.698
75.6964
75.6947
75.693
75.6913
75.6897
75.688
75.6863
75.6847
75.683
75.6813
75.6797
75.678
75.6763
75.6747
75.673
75.6713
75.6697
75.668
75.6664
75.6647
75.6631
75.6614
75.6598
75.6581
75.6565
75.6548
75.6532
75.6515
75.6499
75.6482
75.6466
75.6449
75.6433
75.6416
75.64
75.6384
75.6367
75.6351
75.6334
75.6318
75.6302
75.6285
75.6269
75.6253
75.6236
75.622
75.6204
75.6187
75.6171
75.6155
75.6138
75.6122
75.6106
75.609
75.6073
75.6057
75.6041
75.6025
75.6008
75.5992
75.5976
75.596
75.5943
75.5927
75.5911
75.5895
75.5879
75.5863
75.5846
75.583
75.5814
75.5798
75.5782
75.5766
75.5749
75.5733
75.5717
75.5701
75.5685
75.5669
75.5653
75.5637
75.5621
75.5604
75.5588
75.5572
75.5556
75.554
75.5524
75.5508
75.5492
75.5476
75.546
75.5444
75.5428
75.5412
75.5396
75.538
75.5364
75.5348
75.5332
75.5316
75.53
75.5284
75.5268
75.5252
75.5236
75.522
75.5204
75.5188
75.5172
75.5156
75.514
75.5124
75.5108
75.5092
75.5076
75.506
75.5044
75.5029
75.5013
75.4997
75.4981
75.4965
75.4949
75.4933
75.4917
75.4901
75.4885
75.487
75.4854
75.4838
75.4822
75.4806
75.479
75.4774
75.4758
75.4743
75.4727
75.4711
75.4695
75.4679
75.4663
75.4647
75.4632
75.4616
75.46
75.4584
75.4568
75.4552
75.4537
75.4521
75.4505
75.4489
75.4473
75.4458
75.4442
75.4426
75.441
75.4394
75.4379
75.4363
75.4347
75.4331
75.4315
75.43
75.4284
75.4268
75.4252
75.4237
75.4221
75.4205
75.4189
75.4174
75.4158
75.4142
75.4126
75.411
75.4095
75.4079
75.4063
75.4047
75.4032
75.4016
75.4
75.3985
75.3969
75.3953
75.3937
75.3922
75.3906
75.389
75.3874
75.3859
75.3843
75.3827
75.3812
75.3796
75.378
75.3764
75.3749
75.3733
75.3717
75.3702
75.3686
75.367
75.3655
75.3639
75.3623
75.3607
75.3592
75.3576
75.356
75.3545
75.3529
75.3513
75.3498
75.3482
75.3466
75.3451
75.3435
75.3419
75.3404
75.3388
75.3372
75.3357
75.3341
75.3325
75.331
75.3294
75.3278
75.3263
75.3247
75.3231
75.3216
75.32
75.3184
75.3169
75.3153
75.3138
75.3122
75.3106
75.3091
75.3075
75.3059
75.3044
75.3028
75.3012
75.2997
75.2981
75.2966
75.295
75.2934
75.2919
75.2903
75.2887
75.2872
75.2856
75.2841
75.2825
75.2809
75.2794
75.2778
75.2762
75.2747
75.2731
75.2716
75.27
75.2684
75.2669
75.2653
75.2638
75.2622
75.2606
75.2591
75.2575
75.256
75.2544
75.2528
75.2513
75.2497
75.2482
75.2466
75.245
75.2435
75.2419
75.2404
75.2388
75.2372
75.2357
75.2341
75.2326
75.231
75.2295
75.2279
75.2263
75.2248
75.2232
75.2217
75.2201
75.2185
75.217
75.2154
75.2139
75.2123
75.2108
75.2092
75.2076
75.2061
75.2045
75.203
75.2014
75.1999
75.1983
75.1968
75.1952
75.1936
75.1921
75.1905
75.189
75.1874
75.1859
75.1843
75.1827
75.1812
75.1796
75.1781
75.1765
75.175
75.1734
75.1719
75.1703
75.1687
75.1672
75.1656
75.1641
75.1625
75.161
75.1594
75.1579
75.1563
75.1548
75.1532
75.1516
75.1501
75.1485
75.147
75.1454
75.1439
75.1423
75.1408
75.1392
75.1377
75.1361
75.1345
75.133
75.1314
75.1299
75.1283
75.1268
75.1252
75.1237
75.1221
75.1206
75.119
75.1175
75.1159
75.1144
75.1128
75.1113
75.1097
75.1081
75.1066
75.105
75.1035
75.1019
75.1004
75.0988
75.0973
75.0957
75.0942
75.0926
75.0911
75.0895
75.088
75.0864
75.0849
75.0833
75.0818
75.0802
75.0787
75.0771
75.0756
75.074
75.0724
75.0709
75.0693
75.0678
75.0662
75.0647
75.0631
75.0616
75.06
75.0585
75.0569
75.0554
75.0538
75.0523
75.0507
75.0492
75.0476
75.0461
75.0445
75.043
75.0414
75.0399
75.0383
75.0368
75.0352
75.0337
75.0321
75.0306
75.029
75.0275
75.0259
75.0244
75.0228
75.0213
75.0197
75.0182
75.0166
75.0151
75.0135
75.012
75.0104
75.0089
75.0073
75.0058
75.0042
75.0027
75.0011
74.9996
74.998
74.9965
74.9949
74.9934
74.9918
74.9903
74.9888
74.9872
74.9857
74.9841
74.9826
74.981
74.9795
74.9779
74.9764
74.9748
74.9733
74.9717
74.9702
74.9686
74.9671
74.9655
74.964
74.9624
74.9609
74.9593
74.9578
74.9562
74.9547
74.9531
74.9516
74.95
74.9485
74.947
74.9454
74.9439
74.9423
74.9408
74.9392
74.9377
74.9361
74.9346
74.933
74.9315
74.9299
74.9284
74.9268
74.9253
74.9237
74.9222
74.9207
74.9191
74.9176
74.916
74.9145
74.9129
1
78.9959
78.9959
76.7805
76.5256
76.4654
76.439
76.423
76.4114
76.4022
76.3943
76.3874
76.381
76.3751
76.3696
76.3643
76.3592
76.3542
76.3494
76.3447
76.34
76.3355
76.331
76.3266
76.3223
76.318
76.3138
76.3097
76.3055
76.3015
76.2975
76.2935
76.2896
76.2857
76.2819
76.2781
76.2743
76.2706
76.267
76.2633
76.2597
76.2562
76.2526
76.2491
76.2457
76.2423
76.2389
76.2355
76.2322
76.2288
76.2256
76.2223
76.2191
76.2159
76.2127
76.2096
76.2064
76.2033
76.2003
76.1972
76.1942
76.1912
76.1882
76.1852
76.1823
76.1793
76.1764
76.1735
76.1706
76.1678
76.1649
76.1621
76.1593
76.1565
76.1537
76.151
76.1482
76.1455
76.1428
76.1401
76.1374
76.1348
76.1321
76.1295
76.1268
76.1242
76.1216
76.119
76.1164
76.1139
76.1113
76.1088
76.1062
76.1037
76.1012
76.0987
76.0962
76.0938
76.0913
76.0888
76.0864
76.084
76.0815
76.0791
76.0767
76.0743
76.0719
76.0695
76.0672
76.0648
76.0625
76.0601
76.0578
76.0555
76.0531
76.0508
76.0485
76.0462
76.0439
76.0417
76.0394
76.0371
76.0349
76.0326
76.0304
76.0281
76.0259
76.0237
76.0215
76.0193
76.0171
76.0149
76.0127
76.0105
76.0083
76.0062
76.004
76.0018
75.9997
75.9976
75.9954
75.9933
75.9912
75.989
75.9869
75.9848
75.9827
75.9806
75.9785
75.9764
75.9743
75.9723
75.9702
75.9681
75.9661
75.964
75.962
75.9599
75.9579
75.9558
75.9538
75.9518
75.9498
75.9477
75.9457
75.9437
75.9417
75.9397
75.9377
75.9357
75.9337
75.9317
75.9298
75.9278
75.9258
75.9238
75.9219
75.9199
75.918
75.916
75.9141
75.9121
75.9102
75.9082
75.9063
75.9044
75.9025
75.9005
75.8986
75.8967
75.8948
75.8929
75.891
75.8891
75.8872
75.8853
75.8834
75.8815
75.8796
75.8777
75.8759
75.874
75.8721
75.8702
75.8684
75.8665
75.8647
75.8628
75.8609
75.8591
75.8572
75.8554
75.8536
75.8517
75.8499
75.848
75.8462
75.8444
75.8426
75.8407
75.8389
75.8371
75.8353
75.8335
75.8316
75.8298
75.828
75.8262
75.8244
75.8226
75.8208
75.819
75.8172
75.8154
75.8137
75.8119
75.8101
75.8083
75.8065
75.8048
75.803
75.8012
75.7994
75.7977
75.7959
75.7941
75.7924
75.7906
75.7888
75.7871
75.7853
75.7836
75.7818
75.7801
75.7783
75.7766
75.7748
75.7731
75.7714
75.7696
75.7679
75.7662
75.7644
75.7627
75.761
75.7592
75.7575
75.7558
75.7541
75.7523
75.7506
75.7489
75.7472
75.7455
75.7438
75.742
75.7403
75.7386
75.7369
75.7352
75.7335
75.7318
75.7301
75.7284
75.7267
75.725
75.7233
75.7216
75.7199
75.7182
75.7165
75.7149
75.7132
75.7115
75.7098
75.7081
75.7064
75.7047
75.7031
75.7014
75.6997
75.698
75.6964
75.6947
75.693
75.6913
75.6897
75.688
75.6863
75.6847
75.683
75.6813
75.6797
75.678
75.6763
75.6747
75.673
75.6713
75.6697
75.668
75.6664
75.6647
75.6631
75.6614
75.6598
75.6581
75.6565
75.6548
75.6532
75.6515
75.6499
75.6482
75.6466
75.6449
75.6433
75.6416
75.64
75.6384
75.6367
75.6351
75.6334
75.6318
75.6302
75.6285
75.6269
75.6253
75.6236
75.622
75.6204
75.6187
75.6171
75.6155
75.6138
75.6122
75.6106
75.609
75.6073
75.6057
75.6041
75.6025
75.6008
75.5992
75.5976
75.596
75.5943
75.5927
75.5911
75.5895
75.5879
75.5863
75.5846
75.583
75.5814
75.5798
75.5782
75.5766
75.5749
75.5733
75.5717
75.5701
75.5685
75.5669
75.5653
75.5637
75.5621
75.5604
75.5588
75.5572
75.5556
75.554
75.5524
75.5508
75.5492
75.5476
75.546
75.5444
75.5428
75.5412
75.5396
75.538
75.5364
75.5348
75.5332
75.5316
75.53
75.5284
75.5268
75.5252
75.5236
75.522
75.5204
75.5188
75.5172
75.5156
75.514
75.5124
75.5108
75.5092
75.5076
75.506
75.5044
75.5029
75.5013
75.4997
75.4981
75.4965
75.4949
75.4933
75.4917
75.4901
75.4885
75.487
75.4854
75.4838
75.4822
75.4806
75.479
75.4774
75.4758
75.4743
75.4727
75.4711
75.4695
75.4679
75.4663
75.4647
75.4632
75.4616
75.46
75.4584
75.4568
75.4552
75.4537
75.4521
75.4505
75.4489
75.4473
75.4458
75.4442
75.4426
75.441
75.4394
75.4379
75.4363
75.4347
75.4331
75.4315
75.43
75.4284
75.4268
75.4252
75.4237
75.4221
75.4205
75.4189
75.4174
75.4158
75.4142
75.4126
75.411
75.4095
75.4079
75.4063
75.4047
75.4032
75.4016
75.4
75.3985
75.3969
75.3953
75.3937
75.3922
75.3906
75.389
75.3874
75.3859
75.3843
75.3827
75.3812
75.3796
75.378
75.3764
75.3749
75.3733
75.3717
75.3702
75.3686
75.367
75.3655
75.3639
75.3623
75.3607
75.3592
75.3576
75.356
75.3545
75.3529
75.3513
75.3498
75.3482
75.3466
75.3451
75.3435
75.3419
75.3404
75.3388
75.3372
75.3357
75.3341
75.3325
75.331
75.3294
75.3278
75.3263
75.3247
75.3231
75.3216
75.32
75.3184
75.3169
75.3153
75.3138
75.3122
75.3106
75.3091
75.3075
75.3059
75.3044
75.3028
75.3012
75.2997
75.2981
75.2966
75.295
75.2934
75.2919
75.2903
75.2887
75.2872
75.2856
75.2841
75.2825
75.2809
75.2794
75.2778
75.2762
75.2747
75.2731
75.2716
75.27
75.2684
75.2669
75.2653
75.2638
75.2622
75.2606
75.2591
75.2575
75.256
75.2544
75.2528
75.2513
75.2497
75.2482
75.2466
75.245
75.2435
75.2419
75.2404
75.2388
75.2372
75.2357
75.2341
75.2326
75.231
75.2295
75.2279
75.2263
75.2248
75.2232
75.2217
75.2201
75.2185
75.217
75.2154
75.2139
75.2123
75.2108
75.2092
75.2076
75.2061
75.2045
75.203
75.2014
75.1999
75.1983
75.1968
75.1952
75.1936
75.1921
75.1905
75.189
75.1874
75.1859
75.1843
75.1827
75.1812
75.1796
75.1781
75.1765
75.175
75.1734
75.1719
75.1703
75.1687
75.1672
75.1656
75.1641
75.1625
75.161
75.1594
75.1579
75.1563
75.1548
75.1532
75.1516
75.1501
75.1485
75.147
75.1454
75.1439
75.1423
75.1408
75.1392
75.1377
75.1361
75.1345
75.133
75.1314
75.1299
75.1283
75.1268
75.1252
75.1237
75.1221
75.1206
75.119
75.1175
75.1159
75.1144
75.1128
75.1113
75.1097
75.1081
75.1066
75.105
75.1035
75.1019
75.1004
75.0988
75.0973
75.0957
75.0942
75.0926
75.0911
75.0895
75.088
75.0864
75.0849
75.0833
75.0818
75.0802
75.0787
75.0771
75.0756
75.074
75.0724
75.0709
75.0693
75.0678
75.0662
75.0647
75.0631
75.0616
75.06
75.0585
75.0569
75.0554
75.0538
75.0523
75.0507
75.0492
75.0476
75.0461
75.0445
75.043
75.0414
75.0399
75.0383
75.0368
75.0352
75.0337
75.0321
75.0306
75.029
75.0275
75.0259
75.0244
75.0228
75.0213
75.0197
75.0182
75.0166
75.0151
75.0135
75.012
75.0104
75.0089
75.0073
75.0058
75.0042
75.0027
75.0011
74.9996
74.998
74.9965
74.9949
74.9934
74.9918
74.9903
74.9888
74.9872
74.9857
74.9841
74.9826
74.981
74.9795
74.9779
74.9764
74.9748
74.9733
74.9717
74.9702
74.9686
74.9671
74.9655
74.964
74.9624
74.9609
74.9593
74.9578
74.9562
74.9547
74.9531
74.9516
74.95
74.9485
74.947
74.9454
74.9439
74.9423
74.9408
74.9392
74.9377
74.9361
74.9346
74.933
74.9315
74.9299
74.9284
74.9268
74.9253
74.9237
74.9222
74.9207
74.9191
74.9176
74.916
74.9145
74.9129
74.9129
78.3489
78.3489
76.7909
76.5351
76.4696
76.4413
76.4244
76.4124
76.4029
76.3949
76.3878
76.3814
76.3754
76.3698
76.3645
76.3593
76.3544
76.3495
76.3448
76.3402
76.3356
76.3311
76.3267
76.3224
76.3181
76.3139
76.3097
76.3056
76.3015
76.2975
76.2936
76.2896
76.2858
76.2819
76.2781
76.2744
76.2707
76.267
76.2634
76.2598
76.2562
76.2527
76.2492
76.2457
76.2423
76.2389
76.2355
76.2322
76.2289
76.2256
76.2223
76.2191
76.2159
76.2127
76.2096
76.2065
76.2034
76.2003
76.1972
76.1942
76.1912
76.1882
76.1852
76.1823
76.1793
76.1764
76.1735
76.1707
76.1678
76.165
76.1621
76.1593
76.1565
76.1538
76.151
76.1483
76.1455
76.1428
76.1401
76.1374
76.1348
76.1321
76.1295
76.1268
76.1242
76.1216
76.119
76.1165
76.1139
76.1113
76.1088
76.1063
76.1037
76.1012
76.0987
76.0962
76.0938
76.0913
76.0888
76.0864
76.084
76.0815
76.0791
76.0767
76.0743
76.0719
76.0695
76.0672
76.0648
76.0625
76.0601
76.0578
76.0555
76.0531
76.0508
76.0485
76.0462
76.0439
76.0417
76.0394
76.0371
76.0349
76.0326
76.0304
76.0282
76.0259
76.0237
76.0215
76.0193
76.0171
76.0149
76.0127
76.0105
76.0083
76.0062
76.004
76.0019
75.9997
75.9976
75.9954
75.9933
75.9912
75.989
75.9869
75.9848
75.9827
75.9806
75.9785
75.9764
75.9744
75.9723
75.9702
75.9681
75.9661
75.964
75.962
75.9599
75.9579
75.9558
75.9538
75.9518
75.9498
75.9477
75.9457
75.9437
75.9417
75.9397
75.9377
75.9357
75.9337
75.9317
75.9298
75.9278
75.9258
75.9239
75.9219
75.9199
75.918
75.916
75.9141
75.9121
75.9102
75.9083
75.9063
75.9044
75.9025
75.9005
75.8986
75.8967
75.8948
75.8929
75.891
75.8891
75.8872
75.8853
75.8834
75.8815
75.8796
75.8777
75.8759
75.874
75.8721
75.8703
75.8684
75.8665
75.8647
75.8628
75.8609
75.8591
75.8572
75.8554
75.8536
75.8517
75.8499
75.848
75.8462
75.8444
75.8426
75.8407
75.8389
75.8371
75.8353
75.8335
75.8316
75.8298
75.828
75.8262
75.8244
75.8226
75.8208
75.819
75.8172
75.8155
75.8137
75.8119
75.8101
75.8083
75.8065
75.8048
75.803
75.8012
75.7994
75.7977
75.7959
75.7941
75.7924
75.7906
75.7889
75.7871
75.7853
75.7836
75.7818
75.7801
75.7783
75.7766
75.7749
75.7731
75.7714
75.7696
75.7679
75.7662
75.7644
75.7627
75.761
75.7592
75.7575
75.7558
75.7541
75.7523
75.7506
75.7489
75.7472
75.7455
75.7438
75.7421
75.7403
75.7386
75.7369
75.7352
75.7335
75.7318
75.7301
75.7284
75.7267
75.725
75.7233
75.7216
75.7199
75.7182
75.7165
75.7149
75.7132
75.7115
75.7098
75.7081
75.7064
75.7047
75.7031
75.7014
75.6997
75.698
75.6964
75.6947
75.693
75.6913
75.6897
75.688
75.6863
75.6847
75.683
75.6813
75.6797
75.678
75.6763
75.6747
75.673
75.6714
75.6697
75.668
75.6664
75.6647
75.6631
75.6614
75.6598
75.6581
75.6565
75.6548
75.6532
75.6515
75.6499
75.6482
75.6466
75.6449
75.6433
75.6416
75.64
75.6384
75.6367
75.6351
75.6334
75.6318
75.6302
75.6285
75.6269
75.6253
75.6236
75.622
75.6204
75.6187
75.6171
75.6155
75.6138
75.6122
75.6106
75.609
75.6073
75.6057
75.6041
75.6025
75.6008
75.5992
75.5976
75.596
75.5944
75.5927
75.5911
75.5895
75.5879
75.5863
75.5846
75.583
75.5814
75.5798
75.5782
75.5766
75.5749
75.5733
75.5717
75.5701
75.5685
75.5669
75.5653
75.5637
75.5621
75.5605
75.5588
75.5572
75.5556
75.554
75.5524
75.5508
75.5492
75.5476
75.546
75.5444
75.5428
75.5412
75.5396
75.538
75.5364
75.5348
75.5332
75.5316
75.53
75.5284
75.5268
75.5252
75.5236
75.522
75.5204
75.5188
75.5172
75.5156
75.514
75.5124
75.5108
75.5092
75.5076
75.506
75.5045
75.5029
75.5013
75.4997
75.4981
75.4965
75.4949
75.4933
75.4917
75.4901
75.4885
75.487
75.4854
75.4838
75.4822
75.4806
75.479
75.4774
75.4758
75.4743
75.4727
75.4711
75.4695
75.4679
75.4663
75.4647
75.4632
75.4616
75.46
75.4584
75.4568
75.4553
75.4537
75.4521
75.4505
75.4489
75.4473
75.4458
75.4442
75.4426
75.441
75.4394
75.4379
75.4363
75.4347
75.4331
75.4315
75.43
75.4284
75.4268
75.4252
75.4237
75.4221
75.4205
75.4189
75.4174
75.4158
75.4142
75.4126
75.4111
75.4095
75.4079
75.4063
75.4048
75.4032
75.4016
75.4
75.3985
75.3969
75.3953
75.3937
75.3922
75.3906
75.389
75.3874
75.3859
75.3843
75.3827
75.3812
75.3796
75.378
75.3765
75.3749
75.3733
75.3717
75.3702
75.3686
75.367
75.3655
75.3639
75.3623
75.3608
75.3592
75.3576
75.356
75.3545
75.3529
75.3513
75.3498
75.3482
75.3466
75.3451
75.3435
75.3419
75.3404
75.3388
75.3372
75.3357
75.3341
75.3325
75.331
75.3294
75.3278
75.3263
75.3247
75.3231
75.3216
75.32
75.3185
75.3169
75.3153
75.3138
75.3122
75.3106
75.3091
75.3075
75.3059
75.3044
75.3028
75.3012
75.2997
75.2981
75.2966
75.295
75.2934
75.2919
75.2903
75.2887
75.2872
75.2856
75.2841
75.2825
75.2809
75.2794
75.2778
75.2763
75.2747
75.2731
75.2716
75.27
75.2684
75.2669
75.2653
75.2638
75.2622
75.2606
75.2591
75.2575
75.256
75.2544
75.2528
75.2513
75.2497
75.2482
75.2466
75.245
75.2435
75.2419
75.2404
75.2388
75.2373
75.2357
75.2341
75.2326
75.231
75.2295
75.2279
75.2263
75.2248
75.2232
75.2217
75.2201
75.2186
75.217
75.2154
75.2139
75.2123
75.2108
75.2092
75.2077
75.2061
75.2045
75.203
75.2014
75.1999
75.1983
75.1968
75.1952
75.1936
75.1921
75.1905
75.189
75.1874
75.1859
75.1843
75.1827
75.1812
75.1796
75.1781
75.1765
75.175
75.1734
75.1719
75.1703
75.1687
75.1672
75.1656
75.1641
75.1625
75.161
75.1594
75.1579
75.1563
75.1548
75.1532
75.1516
75.1501
75.1485
75.147
75.1454
75.1439
75.1423
75.1408
75.1392
75.1377
75.1361
75.1346
75.133
75.1314
75.1299
75.1283
75.1268
75.1252
75.1237
75.1221
75.1206
75.119
75.1175
75.1159
75.1144
75.1128
75.1113
75.1097
75.1081
75.1066
75.105
75.1035
75.1019
75.1004
75.0988
75.0973
75.0957
75.0942
75.0926
75.0911
75.0895
75.088
75.0864
75.0849
75.0833
75.0818
75.0802
75.0787
75.0771
75.0756
75.074
75.0725
75.0709
75.0694
75.0678
75.0662
75.0647
75.0631
75.0616
75.06
75.0585
75.0569
75.0554
75.0538
75.0523
75.0507
75.0492
75.0476
75.0461
75.0445
75.043
75.0414
75.0399
75.0383
75.0368
75.0352
75.0337
75.0321
75.0306
75.029
75.0275
75.0259
75.0244
75.0228
75.0213
75.0197
75.0182
75.0166
75.0151
75.0135
75.012
75.0104
75.0089
75.0073
75.0058
75.0042
75.0027
75.0011
74.9996
74.998
74.9965
74.9949
74.9934
74.9919
74.9903
74.9888
74.9872
74.9857
74.9841
74.9826
74.981
74.9795
74.9779
74.9764
74.9748
74.9733
74.9717
74.9702
74.9686
74.9671
74.9655
74.964
74.9624
74.9609
74.9593
74.9578
74.9562
74.9547
74.9531
74.9516
74.95
74.9485
74.947
74.9454
74.9439
74.9423
74.9408
74.9392
74.9377
74.9361
74.9346
74.933
74.9315
74.9299
74.9284
74.9268
74.9253
74.9237
74.9222
74.9207
74.9191
74.9176
74.916
74.9145
74.9129
74.9129
77.6594
77.6594
76.775
76.5418
76.4732
76.4433
76.4257
76.4133
76.4036
76.3954
76.3882
76.3817
76.3757
76.3701
76.3647
76.3595
76.3545
76.3497
76.3449
76.3403
76.3357
76.3312
76.3268
76.3225
76.3182
76.314
76.3098
76.3057
76.3016
76.2976
76.2936
76.2897
76.2858
76.282
76.2782
76.2744
76.2707
76.267
76.2634
76.2598
76.2562
76.2527
76.2492
76.2457
76.2423
76.2389
76.2355
76.2322
76.2289
76.2256
76.2224
76.2191
76.2159
76.2128
76.2096
76.2065
76.2034
76.2003
76.1972
76.1942
76.1912
76.1882
76.1852
76.1823
76.1794
76.1764
76.1735
76.1707
76.1678
76.165
76.1621
76.1593
76.1565
76.1538
76.151
76.1483
76.1455
76.1428
76.1401
76.1374
76.1348
76.1321
76.1295
76.1268
76.1242
76.1216
76.119
76.1165
76.1139
76.1113
76.1088
76.1063
76.1037
76.1012
76.0987
76.0962
76.0938
76.0913
76.0889
76.0864
76.084
76.0815
76.0791
76.0767
76.0743
76.0719
76.0696
76.0672
76.0648
76.0625
76.0601
76.0578
76.0555
76.0531
76.0508
76.0485
76.0462
76.044
76.0417
76.0394
76.0371
76.0349
76.0326
76.0304
76.0282
76.0259
76.0237
76.0215
76.0193
76.0171