# vtk DataFile Version 2.0
FlowField
ASCII
DATASET STRUCTURED_GRID
DIMENSIONS 800 1 200
POINTS 160000 float
0 0 0
0.04 0 0
0.08 0 0
0.12 0 0
0.16 0 0
0.2 0 0
0.24 0 0
0.28 0 0
0.32 0 0
0.36 0 0
0.4 0 0
0.44 0 0
0.48 0 0
0.52 0 0
0.56 0 0
0.6 0 0
0.64 0 0
0.68 0 0
0.72 0 0
0.76 0 0
0.8 0 0
0.84 0 0
0.88 0 0
0.92 0 0
0.96 0 0
1 0 0
1.04 0 0
1.08 0 0
1.12 0 0
1.16 0 0
1.2 0 0
1.24 0 0
1.28 0 0
1.32 0 0
1.36 0 0
1.4 0 0
1.44 0 0
1.48 0 0
1.52 0 0
1.56 0 0
1.6 0 0
1.64 0 0
1.68 0 0
1.72 0 0
1.76 0 0
1.8 0 0
1.84 0 0
1.88 0 0
1.92 0 0
1.96 0 0
2 0 0
2.04 0 0
2.08 0 0
2.12 0 0
2.16 0 0
2.2 0 0
2.24 0 0
2.28 0 0
2.32 0 0
2.36 0 0
2.4 0 0
2.44 0 0
2.48 0 0
2.52 0 0
2.56 0 0
2.6 0 0
2.64 0 0
2.68 0 0
2.72 0 0
2.76 0 0
2.8 0 0
2.84 0 0
2.88 0 0
2.92 0 0
2.96 0 0
3 0 0
3.04 0 0
3.08 0 0
3.12 0 0
3.16 0 0
3.2 0 0
3.24 0 0
3.28 0 0
3.32 0 0
3.36 0 0
3.4 0 0
3.44 0 0
3.48 0 0
3.52 0 0
3.56 0 0
3.6 0 0
3.64 0 0
3.68 0 0
3.72 0 0
3.76 0 0
3.8 0 0
3.84 0 0
3.88 0 0
3.92 0 0
3.96 0 0
4 0 0
4.04 0 0
4.08 0 0
4.12 0 0
4.16 0 0
4.2 0 0
4.24 0 0
4.28 0 0
4.32 0 0
4.36 0 0
4.4 0 0
4.44 0 0
4.48 0 0
4.52 0 0
4.56 0 0
4.6 0 0
4.64 0 0
4.68 0 0
4.72 0 0
4.76 0 0
4.8 0 0
4.84 0 0
4.88 0 0
4.92 0 0
4.96 0 0
5 0 0
5.04 0 0
5.08 0 0
5.12 0 0
5.16 0 0
5.2 0 0
5.24 0 0
5.28 0 0
5.32 0 0
5.36 0 0
5.4 0 0
5.44 0 0
5.48 0 0
5.52 0 0
5.56 0 0
5.6 0 0
5.64 0 0
5.68 0 0
5.72 0 0
5.76 0 0
5.8 0 0
5.84 0 0
5.88 0 0
5.92 0 0
5.96 0 0
6 0 0
6.04 0 0
6.08 0 0
6.12 0 0
6.16 0 0
6.2 0 0
6.24 0 0
6.28 0 0
6.32 0 0
6.36 0 0
6.4 0 0
6.44 0 0
6.48 0 0
6.52 0 0
6.56 0 0
6.6 0 0
6.64 0 0
6.68 0 0
6.72 0 0
6.76 0 0
6.8 0 0
6.84 0 0
6.88 0 0
6.92 0 0
6.96 0 0
7 0 0
7.04 0 0
7.08 0 0
7.12 0 0
7.16 0 0
7.2 0 0
7.24 0 0
7.28 0 0
7.32 0 0
7.36 0 0
7.4 0 0
7.44 0 0
7.48 0 0
7.52 0 0
7.56 0 0
7.6 0 0
7.64 0 0
7.68 0 0
7.72 0 0
7.76 0 0
7.8 0 0
7.84 0 0
7.88 0 0
7.92 0 0
7.96 0 0
8 0 0
8.04 0 0
8.08 0 0
8.12 0 0
8.16 0 0
8.2 0 0
8.24 0 0
8.28 0 0
8.32 0 0
8.36 0 0
8.4 0 0
8.44 0 0
8.48 0 0
8.52 0 0
8.56 0 0
8.6 0 0
8.64 0 0
8.68 0 0
8.72 0 0
8.76 0 0
8.8 0 0
8.84 0 0
8.88 0 0
8.92 0 0
8.96 0 0
9 0 0
9.04 0 0
9.08 0 0
9.12 0 0
9.16 0 0
9.2 0 0
9.24 0 0
9.28 0 0
9.32 0 0
9.36 0 0
9.4 0 0
9.44 0 0
9.48 0 0
9.52 0 0
9.56 0 0
9.6 0 0
9.64 0 0
9.68 0 0
9.72 0 0
9.76 0 0
9.8 0 0
9.84 0 0
9.88 0 0
9.92 0 0
9.96 0 0
10 0 0
10.04 0 0
10.08 0 0
10.12 0 0
10.16 0 0
10.2 0 0
10.24 0 0
10.28 0 0
10.32 0 0
10.36 0 0
10.4 0 0
10.44 0 0
10.48 0 0
10.52 0 0
10.56 0 0
10.6 0 0
10.64 0 0
10.68 0 0
10.72 0 0
10.76 0 0
10.8 0 0
10.84 0 0
10.88 0 0
10.92 0 0
10.96 0 0
11 0 0
11.04 0 0
11.08 0 0
11.12 0 0
11.16 0 0
11.2 0 0
11.24 0 0
11.28 0 0
11.32 0 0
11.36 0 0
11.4 0 0
11.44 0 0
11.48 0 0
11.52 0 0
11.56 0 0
11.6 0 0
11.64 0 0
11.68 0 0
11.72 0 0
11.76 0 0
11.8 0 0
11.84 0 0
11.88 0 0
11.92 0 0
11.96 0 0
12 0 0
12.04 0 0
12.08 0 0
12.12 0 0
12.16 0 0
12.2 0 0
12.24 0 0
12.28 0 0
12.32 0 0
12.36 0 0
12.4 0 0
12.44 0 0
12.48 0 0
12.52 0 0
12.56 0 0
12.6 0 0
12.64 0 0
12.68 0 0
12.72 0 0
12.76 0 0
12.8 0 0
12.84 0 0
12.88 0 0
12.92 0 0
12.96 0 0
13 0 0
13.04 0 0
13.08 0 0
13.12 0 0
13.16 0 0
13.2 0 0
13.24 0 0
13.28 0 0
13.32 0 0
13.36 0 0
13.4 0 0
13.44 0 0
13.48 0 0
13.52 0 0
13.56 0 0
13.6 0 0
13.64 0 0
13.68 0 0
13.72 0 0
13.76 0 0
13.8 0 0
13.84 0 0
13.88 0 0
13.92 0 0
13.96 0 0
14 0 0
14.04 0 0
14.08 0 0
14.12 0 0
14.16 0 0
14.2 0 0
14.24 0 0
14.28 0 0
14.32 0 0
14.36 0 0
14.4 0 0
14.44 0 0
14.48 0 0
14.52 0 0
14.56 0 0
14.6 0 0
14.64 0 0
14.68 0 0
14.72 0 0
14.76 0 0
14.8 0 0
14.84 0 0
14.88 0 0
14.92 0 0
14.96 0 0
15 0 0
15.04 0 0
15.08 0 0
15.12 0 0
15.16 0 0
15.2 0 0
15.24 0 0
15.28 0 0
15.32 0 0
15.36 0 0
15.4 0 0
15.44 0 0
15.48 0 0
15.52 0 0
15.56 0 0
15.6 0 0
15.64 0 0
15.68 0 0
15.72 0 0
15.76 0 0
15.8 0 0
15.84 0 0
15.88 0 0
15.92 0 0
15.96 0 0
16 0 0
16.04 0 0
16.08 0 0
16.12 0 0
16.16 0 0
16.2 0 0
16.24 0 0
16.28 0 0
16.32 0 0
16.36 0 0
16.4 0 0
16.44 0 0
16.48 0 0
16.52 0 0
16.56 0 0
16.6 0 0
16.64 0 0
16.68 0 0
16.72 0 0
16.76 0 0
16.8 0 0
16.84 0 0
16.88 0 0
16.92 0 0
16.96 0 0
17 0 0
17.04 0 0
17.08 0 0
17.12 0 0
17.16 0 0
17.2 0 0
17.24 0 0
17.28 0 0
17.32 0 0
17.36 0 0
17.4 0 0
17.44 0 0
17.48 0 0
17.52 0 0
17.56 0 0
17.6 0 0
17.64 0 0
17.68 0 0
17.72 0 0
17.76 0 0
17.8 0 0
17.84 0 0
17.88 0 0
17.92 0 0
17.96 0 0
18 0 0
18.04 0 0
18.08 0 0
18.12 0 0
18.16 0 0
18.2 0 0
18.24 0 0
18.28 0 0
18.32 0 0
18.36 0 0
18.4 0 0
18.44 0 0
18.48 0 0
18.52 0 0
18.56 0 0
18.6 0 0
18.64 0 0
18.68 0 0
18.72 0 0
18.76 0 0
18.8 0 0
18.84 0 0
18.88 0 0
18.92 0 0
18.96 0 0
19 0 0
19.04 0 0
19.08 0 0
19.12 0 0
19.16 0 0
19.2 0 0
19.24 0 0
19.28 0 0
19.32 0 0
19.36 0 0
19.4 0 0
19.44 0 0
19.48 0 0
19.52 0 0
19.56 0 0
19.6 0 0
19.64 0 0
19.68 0 0
19.72 0 0
19.76 0 0
19.8 0 0
19.84 0 0
19.88 0 0
19.92 0 0
19.96 0 0
20 0 0
20.04 0 0
20.08 0 0
20.12 0 0
20.16 0 0
20.2 0 0
20.24 0 0
20.28 0 0
20.32 0 0
20.36 0 0
20.4 0 0
20.44 0 0
20.48 0 0
20.52 0 0
20.56 0 0
20.6 0 0
20.64 0 0
20.68 0 0
20.72 0 0
20.76 0 0
20.8 0 0
20.84 0 0
20.88 0 0
20.92 0 0
20.96 0 0
21 0 0
21.04 0 0
21.08 0 0
21.12 0 0
21.16 0 0
21.2 0 0
21.24 0 0
21.28 0 0
21.32 0 0
21.36 0 0
21.4 0 0
21.44 0 0
21.48 0 0
21.52 0 0
21.56 0 0
21.6 0 0
21.64 0 0
21.68 0 0
21.72 0 0
21.76 0 0
21.8 0 0
21.84 0 0
21.88 0 0
21.92 0 0
21.96 0 0
22 0 0
22.04 0 0
22.08 0 0
22.12 0 0
22.16 0 0
22.2 0 0
22.24 0 0
22.28 0 0
22.32 0 0
22.36 0 0
22.4 0 0
22.44 0 0
22.48 0 0
22.52 0 0
22.56 0 0
22.6 0 0
22.64 0 0
22.68 0 0
22.72 0 0
22.76 0 0
22.8 0 0
22.84 0 0
22.88 0 0
22.92 0 0
22.96 0 0
23 0 0
23.04 0 0
23.08 0 0
23.12 0 0
23.16 0 0
23.2 0 0
23.24 0 0
23.28 0 0
23.32 0 0
23.36 0 0
23.4 0 0
23.44 0 0
23.48 0 0
23.52 0 0
23.56 0 0
23.6 0 0
23.64 0 0
23.68 0 0
23.72 0 0
23.76 0 0
23.8 0 0
23.84 0 0
23.88 0 0
23.92 0 0
23.96 0 0
24 0 0
24.04 0 0
24.08 0 0
24.12 0 0
24.16 0 0
24.2 0 0
24.24 0 0
24.28 0 0
24.32 0 0
24.36 0 0
24.4 0 0
24.44 0 0
24.48 0 0
24.52 0 0
24.56 0 0
24.6 0 0
24.64 0 0
24.68 0 0
24.72 0 0
24.76 0 0
24.8 0 0
24.84 0 0
24.88 0 0
24.92 0 0
24.96 0 0
25 0 0
25.04 0 0
25.08 0 0
25.12 0 0
25.16 0 0
25.2 0 0
25.24 0 0
25.28 0 0
25.32 0 0
25.36 0 0
25.4 0 0
25.44 0 0
25.48 0 0
25.52 0 0
25.56 0 0
25.6 0 0
25.64 0 0
25.68 0 0
25.72 0 0
25.76 0 0
25.8 0 0
25.84 0 0
25.88 0 0
25.92 0 0
25.96 0 0
26 0 0
26.04 0 0
26.08 0 0
26.12 0 0
26.16 0 0
26.2 0 0
26.24 0 0
26.28 0 0
26.32 0 0
26.36 0 0
26.4 0 0
26.44 0 0
26.48 0 0
26.52 0 0
26.56 0 0
26.6 0 0
26.64 0 0
26.68 0 0
26.72 0 0
26.76 0 0
26.8 0 0
26.84 0 0
26.88 0 0
26.92 0 0
26.96 0 0
27 0 0
27.04 0 0
27.08 0 0
27.12 0 0
27.16 0 0
27.2 0 0
27.24 0 0
27.28 0 0
27.32 0 0
27.36 0 0
27.4 0 0
27.44 0 0
27.48 0 0
27.52 0 0
27.56 0 0
27.6 0 0
27.64 0 0
27.68 0 0
27.72 0 0
27.76 0 0
27.8 0 0
27.84 0 0
27.88 0 0
27.92 0 0
27.96 0 0
28 0 0
28.04 0 0
28.08 0 0
28.12 0 0
28.16 0 0
28.2 0 0
28.24 0 0
28.28 0 0
28.32 0 0
28.36 0 0
28.4 0 0
28.44 0 0
28.48 0 0
28.52 0 0
28.56 0 0
28.6 0 0
28.64 0 0
28.68 0 0
28.72 0 0
28.76 0 0
28.8 0 0
28.84 0 0
28.88 0 0
28.92 0 0
28.96 0 0
29 0 0
29.04 0 0
29.08 0 0
29.12 0 0
29.16 0 0
29.2 0 0
29.24 0 0
29.28 0 0
29.32 0 0
29.36 0 0
29.4 0 0
29.44 0 0
29.48 0 0
29.52 0 0
29.56 0 0
29.6 0 0
29.64 0 0
29.68 0 0
29.72 0 0
29.76 0 0
29.8 0 0
29.84 0 0
29.88 0 0
29.92 0 0
29.96 0 0
30 0 0
30.04 0 0
30.08 0 0
30.12 0 0
30.16 0 0
30.2 0 0
30.24 0 0
30.28 0 0
30.32 0 0
30.36 0 0
30.4 0 0
30.44 0 0
30.48 0 0
30.52 0 0
30.56 0 0
30.6 0 0
30.64 0 0
30.68 0 0
30.72 0 0
30.76 0 0
30.8 0 0
30.84 0 0
30.88 0 0
30.92 0 0
30.96 0 0
31 0 0
31.04 0 0
31.08 0 0
31.12 0 0
31.16 0 0
31.2 0 0
31.24 0 0
31.28 0 0
31.32 0 0
31.36 0 0
31.4 0 0
31.44 0 0
31.48 0 0
31.52 0 0
31.56 0 0
31.6 0 0
31.64 0 0
31.68 0 0
31.72 0 0
31.76 0 0
31.8 0 0
31.84 0 0
31.88 0 0
31.92 0 0
31.96 0 0
0 0.005 0
0.04 0.005 0
0.08 0.005 0
0.12 0.005 0
0.16 0.005 0
0.2 0.005 0
0.24 0.005 0
0.28 0.005 0
0.32 0.005 0
0.36 0.005 0
0.4 0.005 0
0.44 0.005 0
0.48 0.005 0
0.52 0.005 0
0.56 0.005 0
0.6 0.005 0
0.64 0.005 0
0.68 0.005 0
0.72 0.005 0
0.76 0.005 0
0.8 0.005 0
0.84 0.005 0
0.88 0.005 0
0.92 0.005 0
0.96 0.005 0
1 0.005 0
1.04 0.005 0
1.08 0.005 0
1.12 0.005 0
1.16 0.005 0
1.2 0.005 0
1.24 0.005 0
1.28 0.005 0
1.32 0.005 0
1.36 0.005 0
1.4 0.005 0
1.44 0.005 0
1.48 0.005 0
1.52 0.005 0
1.56 0.005 0
1.6 0.005 0
1.64 0.005 0
1.68 0.005 0
1.72 0.005 0
1.76 0.005 0
1.8 0.005 0
1.84 0.005 0
1.88 0.005 0
1.92 0.005 0
1.96 0.005 0
2 0.005 0
2.04 0.005 0
2.08 0.005 0
2.12 0.005 0
2.16 0.005 0
2.2 0.005 0
2.24 0.005 0
2.28 0.005 0
2.32 0.005 0
2.36 0.005 0
2.4 0.005 0
2.44 0.005 0
2.48 0.005 0
2.52 0.005 0
2.56 0.005 0
2.6 0.005 0
2.64 0.005 0
2.68 0.005 0
2.72 0.005 0
2.76 0.005 0
2.8 0.005 0
2.84 0.005 0
2.88 0.005 0
2.92 0.005 0
2.96 0.005 0
3 0.005 0
3.04 0.005 0
3.08 0.005 0
3.12 0.005 0
3.16 0.005 0
3.2 0.005 0
3.24 0.005 0
3.28 0.005 0
3.32 0.005 0
3.36 0.005 0
3.4 0.005 0
3.44 0.005 0
3.48 0.005 0
3.52 0.005 0
3.56 0.005 0
3.6 0.005 0
3.64 0.005 0
3.68 0.005 0
3.72 0.005 0
3.76 0.005 0
3.8 0.005 0
3.84 0.005 0
3.88 0.005 0
3.92 0.005 0
3.96 0.005 0
4 0.005 0
4.04 0.005 0
4.08 0.005 0
4.12 0.005 0
4.16 0.005 0
4.2 0.005 0
4.24 0.005 0
4.28 0.005 0
4.32 0.005 0
4.36 0.005 0
4.4 0.005 0
4.44 0.005 0
4.48 0.005 0
4.52 0.005 0
4.56 0.005 0
4.6 0.005 0
4.64 0.005 0
4.68 0.005 0
4.72 0.005 0
4.76 0.005 0
4.8 0.005 0
4.84 0.005 0
4.88 0.005 0
4.92 0.005 0
4.96 0.005 0
5 0.005 0
5.04 0.005 0
5.08 0.005 0
5.12 0.005 0
5.16 0.005 0
5.2 0.005 0
5.24 0.005 0
5.28 0.005 0
5.32 0.005 0
5.36 0.005 0
5.4 0.005 0
5.44 0.005 0
5.48 0.005 0
5.52 0.005 0
5.56 0.005 0
5.6 0.005 0
5.64 0.005 0
5.68 0.005 0
5.72 0.005 0
5.76 0.005 0
5.8 0.005 0
5.84 0.005 0
5.88 0.005 0
5.92 0.005 0
5.96 0.005 0
6 0.005 0
6.04 0.005 0
6.08 0.005 0
6.12 0.005 0
6.16 0.005 0
6.2 0.005 0
6.24 0.005 0
6.28 0.005 0
6.32 0.005 0
6.36 0.005 0
6.4 0.005 0
6.44 0.005 0
6.48 0.005 0
6.52 0.005 0
6.56 0.005 0
6.6 0.005 0
6.64 0.005 0
6.68 0.005 0
6.72 0.005 0
6.76 0.005 0
6.8 0.005 0
6.84 0.005 0
6.88 0.005 0
6.92 0.005 0
6.96 0.005 0
7 0.005 0
7.04 0.005 0
7.08 0.005 0
7.12 0.005 0
7.16 0.005 0
7.2 0.005 0
7.24 0.005 0
7.28 0.005 0
7.32 0.005 0
7.36 0.005 0
7.4 0.005 0
[...]
POINT_DATA 160000

SCALARS v float 1
LOOKUP_TABLE default
0
0
0
0
0
0
0
0
0
0
0
0
0
0
0
0
0
0
0
0
0
0
0
0
0
0
0
0
0
0
0
0
0
0
0
0
0
0
0
0
0
0
0
0
0
0
0
0
0
0
0
0
0
0
0
0
0
0
0
0
0
0
0
0
0
0
0
0
0
0
0
0
0
0
0
0
0
0
0
0
0
0
0
0
0
0
0
0
0
0
0
0
0
0
0
0
0
0
0
0
0
0
0
0
0
0
0
0
0
0
0
0
0
0
0
0
0
0
0
0
0
0
0
0
0
0
0
0
0
0
0
0
0
0
0
0
0
0
0
0
0
0
0
0
0
0
0
0
0
0
0
0
0
0
0
0
0
0
0
0
0
0
0
0
0
0
0
0
0
0
0
0
0
0
0
0
0
0
0
0
0
0
0
0
0
0
0
0
0
0
0
0
0
0
0
0
0
0
0
0
0
0
0
0
0
0
0
0
0
0
0
0
0
0
0
0
0
0
0
0
0
0
0
0
0
0
0
0
0
0
0
0
0
0
0
0
0
0
0
0
0
0
0
0
0
0
0
0
0
0
0
0
0
0
0
0
0
0
0
0
0
0
0
0
0
0
0
0
0
0
0
0
0
0
0
0
0
0
0
0
0
0
0
0
0
0
0
0
0
0
0
0
0
0
0
0
0
0
0
0
0
0
0
0
0
0
0
0
0
0
0
0
0
0
0
0
0
0
0
0
0
0
0
0
0
0
0
0
0
0
0
0
0
0
0
0
0
0
0
0
0
0
0
0
0
0
0
0
0
0
0
0
0
0
0
0
0
0
0
0
0
0
0
0
0
0
0
0
0
0
0
0
0
0
0
0
0
0
0
0
0
0
0
0
0
0
0
0
0
0
0
0
0
0
0
0
0
0
0
0
0
0
0
0
0
0
0
0
0
0
0
0
0
0
0
0
0
0
0
0
0
0
0
0
0
0
0
0
0
0
0
0
0
0
0
0
0
0
0
0
0
0
0
0
0
0
0
0
0
0
0
0
0
0
0
0
0
0
0
0
0
0
0
0
0
0
0
0
0
0
0
0
0
0
0
0
0
0
0
0
0
0
0
0
0
0
0
0
0
0
0
0
0
0
0
0
0
0
0
0
0
0
0
0
0
0
0
0
0
0
0
0
0
0
0
0
0
0
0
0
0
0
0
0
0
0
0
0
0
0
0
0
0
0
0
0
0
0
0
0
0
0
0
0
0
0
0
0
0
0
0
0
0
0
0
0
0
0
0
0
0
0
0
0
0
0
0
0
0
0
0
0
0
0
0
0
0
0
0
0
0
0
0
0
0
0
0
0
0
0
0
0
0
0
0
0
0
0
0
0
0
0
0
0
0
0
0
0
0
0
0
0
0
0
0
0
0
0
0
0
0
0
0
0
0
0
0
0
0
0
0
0
0
0
0
0
0
0
0
0
0
0
0
0
0
0
0
0
0
0
0
0
0
0
0
0
0
0
0
0
0
0
0
0
0
0
0
0
0
0
0
0
0
0
0
0
0
0
0
0
0
0
0
0
0
0
0
0
0
0
0
0
0
0
0
0
0
0
0
0
0
0
0
0
0
0
0
0
0
0
0
0
0
0
0
0
0
0
0
0
0
0
0
0
0
0
0
0
0
0
0
0
0
0
0
0
0
0
0
0
0
0
0
0
0
0
0
0
0
0
0
0
0
0
0
0
0
0
0
0
0
0
0
0
0
0
0
0
0
0
0
0
0
0
0
0
0
0
0
0
0
0
0
0
0
0
0
0
0
0
0
0
0
0
0
0
0
0
0
0
0
0
0.0374158
0.00938112
0.00346795
0.00176634
0.00108086
0.000737097
0.00053832
0.000411775
0.000325576
0.000263888
0.000218067
0.000183036
0.000155635
0.000133798
0.000116126
0.000101634
8.96158e-05
7.9548e-05
7.10382e-05
6.37862e-05
5.75595e-05
5.21754e-05
4.74889e-05
4.33843e-05
3.9768e-05
3.6564e-05
3.37101e-05
3.11553e-05
2.88571e-05
2.67806e-05
2.48962e-05
2.31793e-05
2.16091e-05
2.0168e-05
1.8841e-05
1.76152e-05
1.64797e-05
1.5425e-05
1.44429e-05
1.35262e-05
1.26687e-05
1.18651e-05
1.11104e-05
1.04005e-05
9.7315e-06
9.1002e-06
8.50357e-06
7.93894e-06
7.4039e-06
6.8963e-06
6.41416e-06
5.95572e-06
5.51938e-06
5.10365e-06
4.70718e-06
4.32876e-06
3.96727e-06
3.62164e-06
3.29093e-06
2.97426e-06
2.67082e-06
2.37983e-06
2.10062e-06
1.83252e-06
1.57494e-06
1.32732e-06
1.0891e-06
8.59827e-07
6.39026e-07
4.26274e-07
2.21174e-07
2.33487e-08
-1.67556e-07
-3.51873e-07
-5.29912e-07
-7.01964e-07
-8.68308e-07
-1.0292e-06
-1.18489e-06
-1.3356e-06
-1.48155e-06
-1.62295e-06
-1.75999e-06
-1.89286e-06
-2.02173e-06
-2.14676e-06
-2.26812e-06
-2.38596e-06
-2.50041e-06
-2.6116e-06
-2.71967e-06
-2.82474e-06
-2.92692e-06
-3.02631e-06
-3.12304e-06
-3.21719e-06
-3.30885e-06
-3.39813e-06
-3.48511e-06
-3.56986e-06
-3.65247e-06
-3.73302e-06
-3.81157e-06
-3.88819e-06
-3.96295e-06
-4.03591e-06
-4.10715e-06
-4.1767e-06
-4.24463e-06
-4.31098e-06
-4.37581e-06
-4.43918e-06
-4.50112e-06
-4.56167e-06
-4.62089e-06
-4.67882e-06
-4.73551e-06
-4.79097e-06
-4.84525e-06
-4.89838e-06
-4.95041e-06
-5.00136e-06
-5.05127e-06
-5.10016e-06
-5.14807e-06
-5.19501e-06
-5.24103e-06
-5.28613e-06
-5.33037e-06
-5.37375e-06
-5.41631e-06
-5.45805e-06
-5.49901e-06
-5.5392e-06
-5.57866e-06
-5.61738e-06
-5.6554e-06
-5.69273e-06
-5.7294e-06
-5.76541e-06
-5.8008e-06
-5.83556e-06
-5.86972e-06
-5.90329e-06
-5.93628e-06
-5.96871e-06
-6.00061e-06
-6.03197e-06
-6.06281e-06
-6.09314e-06
-6.12298e-06
-6.15234e-06
-6.18123e-06
-6.20965e-06
-6.23762e-06
-6.26515e-06
-6.29226e-06
-6.31894e-06
-6.34521e-06
-6.37108e-06
-6.39655e-06
-6.42165e-06
-6.44637e-06
-6.47072e-06
-6.49471e-06
-6.51834e-06
-6.54163e-06
-6.56459e-06
-6.58722e-06
-6.60952e-06
-6.6315e-06
-6.65317e-06
-6.67453e-06
-6.6956e-06
-6.71638e-06
-6.73688e-06
-6.75709e-06
-6.77702e-06
-6.79668e-06
-6.81608e-06
-6.83522e-06
-6.85411e-06
-6.87274e-06
-6.89113e-06
-6.90928e-06
-6.92718e-06
-6.94486e-06
-6.96231e-06
-6.97954e-06
-6.99655e-06
-7.01333e-06
-7.02991e-06
-7.04627e-06
-7.06243e-06
-7.07839e-06
-7.09415e-06
-7.10972e-06
-7.1251e-06
-7.14029e-06
-7.15529e-06
-7.17011e-06
-7.18474e-06
-7.1992e-06
-7.21349e-06
-7.22761e-06
-7.24155e-06
-7.25534e-06
-7.26896e-06
-7.28242e-06
-7.29571e-06
-7.30886e-06
-7.32185e-06
-7.33469e-06
-7.34739e-06
-7.35993e-06
-7.37234e-06
-7.3846e-06
-7.39672e-06
-7.4087e-06
-7.42054e-06
-7.43226e-06
-7.44384e-06
-7.45528e-06
-7.4666e-06
-7.4778e-06
-7.48887e-06
-7.49981e-06
-7.51063e-06
-7.52132e-06
-7.53191e-06
-7.54238e-06
-7.55273e-06
-7.56297e-06
-7.5731e-06
-7.58311e-06
-7.59302e-06
-7.60282e-06
-7.61251e-06
-7.62209e-06
-7.63157e-06
-7.64095e-06
-7.65023e-06
-7.65941e-06
-7.6685e-06
-7.67748e-06
-7.68637e-06
-7.69516e-06
-7.70386e-06
-7.71246e-06
-7.72098e-06
-7.7294e-06
-7.73774e-06
-7.74598e-06
-7.75414e-06
-7.76222e-06
-7.77021e-06
-7.77811e-06
-7.78593e-06
-7.79366e-06
-7.80132e-06
-7.8089e-06
-7.8164e-06
-7.82382e-06
-7.83116e-06
-7.83843e-06
-7.84562e-06
-7.85274e-06
-7.85978e-06
-7.86675e-06
-7.87364e-06
-7.88047e-06
-7.88722e-06
-7.8939e-06
-7.90051e-06
-7.90706e-06
-7.91354e-06
-7.91996e-06
-7.92631e-06
-7.93259e-06
-7.9388e-06
-7.94496e-06
-7.95105e-06
-7.95707e-06
-7.96304e-06
-7.96894e-06
-7.97479e-06
-7.98057e-06
-7.98629e-06
-7.99196e-06
-7.99757e-06
-8.00312e-06
-8.00861e-06
-8.01405e-06
-8.01943e-06
-8.02476e-06
-8.03003e-06
-8.03525e-06
-8.04042e-06
-8.04553e-06
-8.05059e-06
-8.0556e-06
-8.06056e-06
-8.06547e-06
-8.07033e-06
-8.07514e-06
-8.07991e-06
-8.08462e-06
-8.08928e-06
-8.0939e-06
-8.09847e-06
-8.103e-06
-8.10747e-06
-8.11191e-06
-8.1163e-06
-8.12064e-06
-8.12494e-06
-8.1292e-06
-8.13341e-06
-8.13758e-06
-8.1417e-06
-8.14579e-06
-8.14984e-06
-8.15385e-06
-8.15781e-06
-8.16173e-06
-8.16562e-06
-8.16946e-06
-8.17326e-06
-8.17703e-06
-8.18076e-06
-8.18446e-06
-8.18811e-06
-8.19173e-06
-8.19531e-06
-8.19885e-06
-8.20236e-06
-8.20584e-06
-8.20928e-06
-8.21267e-06
-8.21604e-06
-8.21938e-06
-8.22269e-06
-8.22595e-06
-8.22919e-06
-8.2324e-06
-8.23556e-06
-8.2387e-06
-8.24181e-06
-8.24489e-06
-8.24794e-06
-8.25095e-06
-8.25393e-06
-8.25688e-06
-8.2598e-06
-8.2627e-06
-8.26557e-06
-8.2684e-06
-8.27121e-06
-8.27399e-06
-8.27674e-06
-8.27946e-06
-8.28216e-06
-8.28483e-06
-8.28747e-06
-8.29009e-06
-8.29268e-06
-8.29524e-06
-8.29778e-06
-8.30029e-06
-8.30278e-06
-8.30524e-06
-8.30767e-06
-8.31008e-06
-8.31248e-06
-8.31484e-06
-8.31718e-06
-8.31949e-06
-8.32178e-06
-8.32405e-06
-8.3263e-06
-8.32852e-06
-8.33072e-06
-8.3329e-06
-8.33506e-06
-8.33719e-06
-8.33931e-06
-8.3414e-06
-8.34347e-06
-8.34553e-06
-8.34755e-06
-8.34956e-06
-8.35155e-06
-8.35352e-06
-8.35547e-06
-8.3574e-06
-8.35931e-06
-8.3612e-06
-8.36308e-06
-8.36493e-06
-8.36676e-06
-8.36857e-06
-8.37037e-06
-8.37215e-06
-8.37391e-06
-8.37566e-06
-8.37739e-06
-8.37909e-06
-8.38078e-06
-8.38246e-06
-8.38411e-06
-8.38575e-06
-8.38737e-06
-8.38898e-06
-8.39057e-06
-8.39214e-06
-8.39371e-06
-8.39526e-06
-8.39678e-06
-8.39829e-06
-8.39979e-06
-8.40127e-06
-8.40274e-06
-8.40419e-06
-8.40563e-06
-8.40705e-06
-8.40846e-06
-8.40986e-06
-8.41124e-06
-8.41261e-06
-8.41395e-06
-8.41529e-06
-8.41662e-06
-8.41793e-06
-8.41923e-06
-8.42051e-06
-8.42178e-06
-8.42304e-06
-8.42429e-06
-8.42553e-06
-8.42674e-06
-8.42795e-06
-8.42915e-06
-8.43033e-06
-8.43151e-06
-8.43267e-06
-8.43382e-06
-8.43496e-06
-8.43608e-06
-8.43719e-06
-8.4383e-06
-8.43939e-06
-8.44047e-06
-8.44154e-06
-8.44259e-06
-8.44364e-06
-8.44468e-06
-8.44571e-06
-8.44673e-06
-8.44773e-06
-8.44873e-06
-8.44971e-06
-8.45068e-06
-8.45165e-06
-8.45261e-06
-8.45356e-06
-8.45449e-06
-8.45542e-06
-8.45633e-06
-8.45724e-06
-8.45814e-06
-8.45903e-06
-8.45992e-06
-8.46079e-06
-8.46165e-06
-8.46251e-06
-8.46336e-06
-8.4642e-06
-8.46503e-06
-8.46586e-06
-8.46667e-06
-8.46748e-06
-8.46827e-06
-8.46907e-06
-8.46985e-06
-8.47063e-06
-8.4714e-06
-8.47217e-06
-8.47293e-06
-8.47368e-06
-8.47442e-06
-8.47516e-06
-8.47588e-06
-8.47661e-06
-8.47733e-06
-8.47804e-06
-8.47875e-06
-8.47945e-06
-8.48014e-06
-8.48084e-06
-8.48152e-06
-8.4822e-06
-8.48288e-06
-8.48354e-06
-8.4842e-06
-8.48487e-06
-8.48553e-06
-8.48618e-06
-8.48683e-06
-8.48746e-06
-8.4881e-06
-8.48873e-06
-8.48937e-06
-8.48999e-06
-8.49061e-06
-8.49123e-06
-8.49185e-06
-8.49246e-06
-8.49307e-06
-8.49367e-06
-8.49427e-06
-8.49487e-06
-8.49547e-06
-8.49606e-06
-8.49665e-06
-8.49724e-06
-8.49783e-06
-8.4984e-06
-8.49898e-06
-8.49956e-06
-8.50013e-06
-8.50071e-06
-8.50128e-06
-8.50184e-06
-8.5024e-06
-8.50297e-06
-8.50353e-06
-8.50408e-06
-8.50464e-06
-8.50519e-06
-8.50573e-06
-8.50628e-06
-8.50683e-06
-8.50737e-06
-8.50791e-06
-8.50845e-06
-8.50899e-06
-8.50953e-06
-8.51005e-06
-8.51058e-06
-8.5111e-06
-8.51163e-06
-8.51215e-06
-8.51267e-06
-8.51319e-06
-8.5137e-06
-8.51421e-06
-8.51472e-06
-8.51522e-06
-8.51572e-06
-8.51623e-06
-8.51673e-06
-8.51722e-06
-8.5177e-06
-8.51819e-06
-8.51868e-06
-8.51916e-06
-8.51964e-06
-8.52012e-06
-8.52058e-06
-8.52105e-06
-8.52152e-06
-8.52198e-06
-8.52244e-06
-8.52289e-06
-8.52334e-06
-8.52378e-06
-8.52422e-06
-8.52467e-06
-8.5251e-06
-8.52553e-06
-8.52595e-06
-8.52637e-06
-8.52679e-06
-8.52721e-06
-8.52762e-06
-8.52802e-06
-8.52842e-06
-8.52881e-06
-8.52919e-06
-8.52958e-06
-8.52996e-06
-8.53034e-06
-8.5307e-06
-8.53107e-06
-8.53143e-06
-8.53178e-06
-8.53214e-06
-8.53249e-06
-8.53282e-06
-8.53315e-06
-8.53348e-06
-8.5338e-06
-8.53413e-06
-8.53444e-06
-8.53475e-06
-8.53506e-06
-8.53535e-06
-8.53564e-06
-8.53593e-06
-8.53621e-06
-8.53649e-06
-8.53676e-06
-8.53703e-06
-8.53729e-06
-8.53754e-06
-8.53779e-06
-8.53804e-06
-8.53829e-06
-8.53852e-06
-8.53875e-06
-8.53898e-06
-8.5392e-06
-8.53941e-06
-8.53962e-06
-8.53983e-06
-8.54003e-06
-8.54022e-06
-8.54041e-06
-8.5406e-06
-8.54078e-06
-8.54095e-06
-8.54112e-06
-8.54128e-06
-8.54145e-06
-8.54161e-06
-8.54177e-06
-8.54192e-06
-8.54206e-06
-8.5422e-06
-8.54234e-06
-8.54247e-06
-8.5426e-06
-8.54272e-06
-8.54284e-06
-8.54295e-06
-8.54307e-06
-8.54318e-06
-8.54329e-06
-8.54339e-06
-8.54348e-06
-8.54357e-06
-8.54366e-06
-8.54375e-06
-8.54384e-06
-8.54393e-06
-8.54401e-06
-8.54408e-06
-8.54416e-06
-8.54423e-06
-8.54429e-06
-8.54435e-06
-8.54442e-06
-8.54448e-06
-8.54453e-06
-8.54459e-06
-8.54464e-06
-8.54469e-06
-8.54474e-06
-8.54479e-06
-8.54484e-06
-8.54488e-06
-8.54492e-06
-8.54495e-06
-8.54499e-06
-8.54503e-06
-8.54506e-06
-8.54509e-06
-8.54512e-06
-8.54515e-06
-8.54518e-06
-8.54521e-06
-8.54523e-06
-8.54526e-06
-8.54527e-06
-8.5453e-06
-8.54532e-06
-8.54534e-06
-8.54535e-06
-8.54537e-06
-8.54539e-06
-8.54541e-06
-8.54542e-06
-8.54543e-06
-8.54545e-06
-8.54546e-06
-8.54547e-06
-8.54548e-06
-8.54549e-06
-8.54551e-06
-8.54552e-06
-8.54553e-06
-8.54554e-06
-8.54555e-06
-8.54555e-06
-8.54556e-06
-8.54557e-06
-8.54557e-06
-8.54558e-06
-8.54559e-06
-8.5456e-06
-8.5456e-06
-8.54561e-06
-8.54562e-06
-8.54562e-06
-8.54562e-06
-8.54563e-06
-8.54563e-06
-8.54563e-06
-8.54564e-06
-8.54565e-06
-8.54565e-06
-8.54566e-06
-8.54566e-06
-8.54567e-06
-8.54567e-06
-8.54568e-06
-8.54568e-06
-8.54569e-06
-8.54569e-06
-8.54569e-06
-8.54569e-06
-8.5457e-06
-8.5457e-06
-8.54571e-06
-8.54571e-06
-8.54571e-06
-8.54572e-06
-8.54572e-06
-8.54573e-06
-8.54573e-06
-8.54573e-06
-8.54573e-06
-8.54574e-06
-8.54574e-06
-8.54575e-06
-8.54575e-06
-8.54575e-06
-8.54576e-06
-8.54576e-06
-8.54576e-06
-8.54577e-06
-8.54577e-06
-8.54577e-06
-8.54578e-06
-8.54578e-06
-8.54578e-06
-8.54578e-06
-8.54579e-06
-8.54579e-06
-8.54579e-06
-8.54579e-06
-8.54578e-06
-8.54578e-06
-8.54578e-06
-8.54578e-06
-8.54577e-06
-8.54575e-06
-8.54574e-06
-8.54572e-06
-8.54569e-06
-8.54566e-06
-8.54561e-06
-8.54555e-06
-8.54548e-06
-8.54538e-06
-8.54526e-06
-8.5451e-06
-8.5449e-06
-8.54464e-06
-8.54432e-06
-8.54389e-06
-8.54338e-06
-8.54268e-06
-8.54186e-06
-8.5407e-06
-8.53939e-06
-8.53743e-06
-8.53536e-06
-8.53194e-06
-8.52881e-06
-8.52234e-06
-8.51819e-06
-8.50397e-06
-8.50275e-06
-8.46028e-06
-8.53224e-06
-6.03316e-06
-6.03316e-06
0
0
0.0966101
0.0320527
0.0130061
0.00682636
0.00423606
0.00291412
0.00214248
0.00164841
0.00131054
0.00106806
0.000887554
0.000749306
0.000641002
0.00055458
0.000484556
0.000427076
0.000379362
0.000339359
0.000305522
0.00027667
0.000251883
0.000230441
0.000211771
0.000195414
0.000181001
0.000168229
0.000156853
0.000146669
0.000137509
0.000129232
0.000121723
0.000114883
0.000108628
0.000102889
9.76053e-05
9.27261e-05
8.82073e-05
8.40112e-05
8.01048e-05
7.64596e-05
7.30508e-05
6.98565e-05
6.68575e-05
6.4037e-05
6.13799e-05
5.88728e-05
5.65038e-05
5.42622e-05
5.21385e-05
5.0124e-05
4.82108e-05
4.63919e-05
4.46609e-05
4.30118e-05
4.14394e-05
3.99387e-05
3.85052e-05
3.71348e-05
3.58236e-05
3.45682e-05
3.33653e-05
3.22119e-05
3.11052e-05
3.00427e-05
2.90219e-05
2.80405e-05
2.70966e-05
2.61881e-05
2.53133e-05
2.44703e-05
2.36578e-05
2.2874e-05
2.21177e-05
2.13876e-05
2.06823e-05
2.00008e-05
1.93419e-05
1.87046e-05
1.8088e-05
1.74911e-05
1.6913e-05
1.6353e-05
1.58103e-05
1.52841e-05
1.47738e-05
1.42786e-05
1.37981e-05
1.33315e-05
1.28783e-05
1.2438e-05
1.20101e-05
1.15941e-05
1.11895e-05
1.0796e-05
1.0413e-05
1.00403e-05
9.67735e-06
9.3239e-06
8.97957e-06
8.64404e-06
8.317e-06
7.99814e-06
7.68719e-06
7.38387e-06
7.08792e-06
6.79908e-06
6.51712e-06
6.24182e-06
5.97295e-06
5.71031e-06
5.45368e-06
5.20288e-06
4.95772e-06
4.71803e-06
4.48362e-06
4.25434e-06
4.03002e-06
3.81052e-06
3.5957e-06
3.38541e-06
3.17951e-06
2.97787e-06
2.78037e-06
2.5869e-06
2.39732e-06
2.21154e-06
2.02944e-06
1.85092e-06
1.67588e-06
1.50421e-06
1.33583e-06
1.17065e-06
1.00859e-06
8.49542e-07
6.93443e-07
5.40216e-07
3.89781e-07
2.42067e-07
9.69975e-08
-4.5499e-08
-1.85481e-07
-3.23009e-07
-4.58147e-07
-5.90958e-07
-7.21497e-07
-8.49824e-07
-9.75994e-07
-1.10006e-06
-1.22206e-06
-1.34206e-06
-1.4601e-06
-1.57623e-06
-1.69049e-06
-1.80292e-06
-1.91356e-06
-2.02248e-06
-2.12969e-06
-2.23523e-06
-2.33914e-06
-2.44146e-06
-2.54223e-06
-2.64148e-06
-2.73925e-06
-2.83555e-06
-2.93043e-06
-3.02392e-06
-3.11604e-06
-3.20682e-06
-3.2963e-06
-3.38449e-06
-3.47143e-06
-3.55713e-06
-3.64163e-06
-3.72496e-06
-3.80713e-06
-3.88816e-06
-3.96808e-06
-4.0469e-06
-4.12466e-06
-4.20136e-06
-4.27704e-06
-4.35171e-06
-4.42539e-06
-4.49809e-06
-4.56984e-06
-4.64065e-06
-4.71054e-06
-4.77953e-06
-4.84764e-06
-4.91486e-06
-4.98123e-06
-5.04676e-06
-5.11147e-06
-5.17536e-06
-5.23845e-06
-5.30075e-06
-5.36229e-06
-5.42307e-06
-5.4831e-06
-5.5424e-06
-5.60097e-06
-5.65883e-06
-5.71599e-06
-5.77246e-06
-5.82826e-06
-5.8834e-06
-5.93787e-06
-5.99171e-06
-6.0449e-06
-6.09747e-06
-6.14943e-06
-6.20078e-06
-6.25153e-06
-6.30169e-06
-6.35127e-06
-6.40029e-06
-6.44874e-06
-6.49663e-06
-6.54397e-06
-6.59078e-06
-6.63706e-06
-6.68282e-06
-6.72805e-06
-6.77278e-06
-6.81701e-06
-6.86074e-06
-6.90398e-06
-6.94674e-06
-6.98903e-06
-7.03085e-06
-7.07221e-06
-7.11311e-06
-7.15356e-06
-7.19357e-06
-7.23314e-06
-7.27227e-06
-7.31098e-06
-7.34927e-06
-7.38714e-06
-7.4246e-06
-7.46166e-06
-7.49832e-06
-7.53458e-06
-7.57046e-06
-7.60595e-06
-7.64106e-06
-7.67578e-06
-7.71014e-06
-7.74414e-06
-7.77777e-06
-7.81105e-06
-7.84397e-06
-7.87655e-06
-7.90878e-06
-7.94066e-06
-7.97222e-06
-8.00344e-06
-8.03432e-06
-8.06489e-06
-8.09513e-06
-8.12507e-06
-8.15468e-06
-8.18399e-06
-8.21298e-06
-8.24168e-06
-8.27008e-06
-8.29818e-06
-8.32599e-06
-8.35351e-06
-8.38075e-06
-8.4077e-06
-8.43437e-06
-8.46076e-06
-8.48688e-06
-8.51274e-06
-8.53833e-06
-8.56366e-06
-8.58872e-06
-8.61352e-06
-8.63807e-06
-8.66236e-06
-8.68641e-06
-8.71021e-06
-8.73376e-06
-8.75707e-06
-8.78015e-06
-8.80298e-06
-8.82558e-06
-8.84795e-06
-8.8701e-06
-8.89202e-06
-8.91371e-06
-8.93517e-06
-8.95643e-06
-8.97746e-06
-8.99828e-06
-9.01889e-06
-9.03929e-06
-9.05948e-06
-9.07946e-06
-9.09924e-06
-9.11882e-06
-9.1382e-06
-9.15738e-06
-9.17638e-06
-9.19517e-06
-9.21378e-06
-9.23219e-06
-9.25042e-06
-9.26847e-06
-9.28633e-06
-9.30401e-06
-9.32151e-06
-9.33883e-06
-9.35598e-06
-9.37295e-06
-9.38975e-06
-9.40639e-06
-9.42285e-06
-9.43914e-06
-9.45527e-06
-9.47124e-06
-9.48705e-06
-9.5027e-06
-9.51819e-06
-9.53351e-06
-9.54869e-06
-9.56371e-06
-9.57858e-06
-9.59331e-06
-9.60788e-06
-9.62231e-06
-9.63659e-06
-9.65072e-06
-9.66471e-06
-9.67857e-06
-9.69228e-06
-9.70584e-06
-9.71927e-06
-9.73258e-06
-9.74575e-06
-9.75878e-06
-9.77168e-06
-9.78445e-06
-9.79709e-06
-9.80961e-06
-9.822e-06
-9.83426e-06
-9.8464e-06
-9.85842e-06
-9.87031e-06
-9.88209e-06
-9.89374e-06
-9.90528e-06
-9.91671e-06
-9.92802e-06
-9.93921e-06
-9.95028e-06
-9.96125e-06
-9.97211e-06
-9.98286e-06
-9.9935e-06
-1.0004e-05
-1.00145e-05
-1.00248e-05
-1.0035e-05
-1.00451e-05
-1.00551e-05
-1.0065e-05
-1.00749e-05
-1.00846e-05
-1.00942e-05
-1.01037e-05
-1.01131e-05
-1.01224e-05
-1.01317e-05
-1.01408e-05
-1.01499e-05
-1.01588e-05
-1.01677e-05
-1.01764e-05
-1.01851e-05
-1.01937e-05
-1.02023e-05
-1.02107e-05
-1.0219e-05
-1.02273e-05
-1.02355e-05
-1.02435e-05
-1.02516e-05
-1.02595e-05
-1.02673e-05
-1.02751e-05
-1.02828e-05
-1.02904e-05
-1.02979e-05
-1.03054e-05
-1.03128e-05
-1.03201e-05
-1.03273e-05
-1.03345e-05
-1.03416e-05
-1.03486e-05
-1.03556e-05
-1.03624e-05
-1.03693e-05
-1.0376e-05
-1.03827e-05
-1.03893e-05
-1.03958e-05
-1.04023e-05
-1.04087e-05
-1.0415e-05
-1.04213e-05
-1.04275e-05
-1.04337e-05
-1.04398e-05
-1.04458e-05
-1.04517e-05
-1.04577e-05
-1.04635e-05
-1.04693e-05
-1.0475e-05
-1.04807e-05
-1.04863e-05
-1.04919e-05
-1.04974e-05
-1.05028e-05
-1.05082e-05
-1.05135e-05
-1.05188e-05
-1.0524e-05
-1.05292e-05
-1.05343e-05
-1.05394e-05
-1.05444e-05
-1.05494e-05
-1.05543e-05
-1.05592e-05
-1.0564e-05
-1.05688e-05
-1.05735e-05
-1.05782e-05
-1.05828e-05
-1.05874e-05
-1.05919e-05
-1.05964e-05
-1.06008e-05
-1.06052e-05
-1.06096e-05
-1.06139e-05
-1.06181e-05
-1.06224e-05
-1.06265e-05
-1.06307e-05
-1.06348e-05
-1.06388e-05
-1.06428e-05
-1.06468e-05
-1.06507e-05
-1.06546e-05
-1.06584e-05
-1.06623e-05
-1.0666e-05
-1.06698e-05
-1.06735e-05
-1.06771e-05
-1.06807e-05
-1.06843e-05
-1.06879e-05
-1.06914e-05
-1.06949e-05
-1.06983e-05
-1.07017e-05
-1.07051e-05
-1.07085e-05
-1.07118e-05
-1.07151e-05
-1.07183e-05
-1.07215e-05
-1.07247e-05
-1.07279e-05
-1.0731e-05
-1.07341e-05
-1.07372e-05
-1.07403e-05
-1.07433e-05
-1.07463e-05
-1.07492e-05
-1.07522e-05
-1.07551e-05
-1.0758e-05
-1.07608e-05
-1.07637e-05
-1.07665e-05
-1.07693e-05
-1.07721e-05
-1.07748e-05
-1.07776e-05
-1.07803e-05
-1.0783e-05
-1.07856e-05
-1.07883e-05
-1.07909e-05
-1.07935e-05
-1.07961e-05
-1.07987e-05
-1.08013e-05
-1.08038e-05
-1.08063e-05
-1.08088e-05
-1.08113e-05
-1.08138e-05
-1.08163e-05
-1.08188e-05
-1.08212e-05
-1.08236e-05
-1.0826e-05
-1.08284e-05
-1.08308e-05
-1.08332e-05
-1.08356e-05
-1.08379e-05
-1.08403e-05
-1.08426e-05
-1.08449e-05
-1.08472e-05
-1.08495e-05
-1.08518e-05
-1.08541e-05
-1.08564e-05
-1.08586e-05
-1.08609e-05
-1.08631e-05
-1.08654e-05
-1.08676e-05
-1.08698e-05
-1.0872e-05
-1.08742e-05
-1.08764e-05
-1.08786e-05
-1.08807e-05
-1.08829e-05
-1.0885e-05
-1.08872e-05
-1.08893e-05
-1.08915e-05
-1.08936e-05
-1.08957e-05
-1.08978e-05
-1.08998e-05
-1.09019e-05
-1.0904e-05
-1.0906e-05
-1.09081e-05
-1.09101e-05
-1.09121e-05
-1.09141e-05
-1.09161e-05
-1.09181e-05
-1.09201e-05
-1.09221e-05
-1.0924e-05
-1.09259e-05
-1.09279e-05
-1.09298e-05
-1.09317e-05
-1.09336e-05
-1.09354e-05
-1.09373e-05
-1.09391e-05
-1.0941e-05
-1.09428e-05
-1.09446e-05
-1.09464e-05
-1.09481e-05
-1.09499e-05
-1.09516e-05
-1.09534e-05
-1.09551e-05
-1.09567e-05
-1.09584e-05
-1.09601e-05
-1.09617e-05
-1.09633e-05
-1.09649e-05
-1.09665e-05
-1.0968e-05
-1.09696e-05
-1.09711e-05
-1.09726e-05
-1.09741e-05
-1.09755e-05
-1.0977e-05
-1.09784e-05
-1.09798e-05
-1.09812e-05
-1.09826e-05
-1.09839e-05
-1.09852e-05
-1.09865e-05
-1.09878e-05
-1.0989e-05
-1.09903e-05
-1.09915e-05
-1.09927e-05
-1.09939e-05
-1.0995e-05
-1.09962e-05
-1.09973e-05
-1.09984e-05
-1.09994e-05
-1.10005e-05
-1.10015e-05
-1.10025e-05
-1.10035e-05
-1.10044e-05
-1.10054e-05
-1.10063e-05
-1.10072e-05
-1.10081e-05
-1.1009e-05
-1.10098e-05
-1.10106e-05
-1.10114e-05
-1.10122e-05
-1.1013e-05
-1.10137e-05
-1.10144e-05
-1.10151e-05
-1.10158e-05
-1.10165e-05
-1.10171e-05
-1.10177e-05
-1.10184e-05
-1.1019e-05
-1.10195e-05
-1.10201e-05
-1.10206e-05
-1.10212e-05