# vtk DataFile Version 2.0
FlowField
ASCII
DATASET STRUCTURED_GRID
DIMENSIONS 800 1 200
POINTS 160000 float
0 0 0
0.04 0 0
0.08 0 0
0.12 0 0
0.16 0 0
0.2 0 0
0.24 0 0
0.28 0 0
0.32 0 0
0.36 0 0
0.4 0 0
0.44 0 0
0.48 0 0
0.52 0 0
0.56 0 0
0.6 0 0
0.64 0 0
0.68 0 0
0.72 0 0
0.76 0 0
0.8 0 0
0.84 0 0
0.88 0 0
0.92 0 0
0.96 0 0
1 0 0
1.04 0 0
1.08 0 0
1.12 0 0
1.16 0 0
1.2 0 0
1.24 0 0
1.28 0 0
1.32 0 0
1.36 0 0
1.4 0 0
1.44 0 0
1.48 0 0
1.52 0 0
1.56 0 0
1.6 0 0
1.64 0 0
1.68 0 0
1.72 0 0
1.76 0 0
1.8 0 0
1.84 0 0
1.88 0 0
1.92 0 0
1.96 0 0
2 0 0
2.04 0 0
2.08 0 0
2.12 0 0
2.16 0 0
2.2 0 0
2.24 0 0
2.28 0 0
2.32 0 0
2.36 0 0
2.4 0 0
2.44 0 0
2.48 0 0
2.52 0 0
2.56 0 0
2.6 0 0
2.64 0 0
2.68 0 0
2.72 0 0
2.76 0 0
2.8 0 0
2.84 0 0
2.88 0 0
2.92 0 0
2.96 0 0
3 0 0
3.04 0 0
3.08 0 0
3.12 0 0
3.16 0 0
3.2 0 0
3.24 0 0
3.28 0 0
3.32 0 0
3.36 0 0
3.4 0 0
3.44 0 0
3.48 0 0
3.52 0 0
3.56 0 0
3.6 0 0
3.64 0 0
3.68 0 0
3.72 0 0
3.76 0 0
3.8 0 0
3.84 0 0
3.88 0 0
3.92 0 0
3.96 0 0
4 0 0
4.04 0 0
4.08 0 0
4.12 0 0
4.16 0 0
4.2 0 0
4.24 0 0
4.28 0 0
4.32 0 0
4.36 0 0
4.4 0 0
4.44 0 0
4.48 0 0
4.52 0 0
4.56 0 0
4.6 0 0
4.64 0 0
4.68 0 0
4.72 0 0
4.76 0 0
4.8 0 0
4.84 0 0
4.88 0 0
4.92 0 0
4.96 0 0
5 0 0
5.04 0 0
5.08 0 0
5.12 0 0
5.16 0 0
5.2 0 0
5.24 0 0
5.28 0 0
5.32 0 0
5.36 0 0
5.4 0 0
5.44 0 0
5.48 0 0
5.52 0 0
5.56 0 0
5.6 0 0
5.64 0 0
5.68 0 0
5.72 0 0
5.76 0 0
5.8 0 0
5.84 0 0
5.88 0 0
5.92 0 0
5.96 0 0
6 0 0
6.04 0 0
6.08 0 0
6.12 0 0
6.16 0 0
6.2 0 0
6.24 0 0
6.28 0 0
6.32 0 0
6.36 0 0
6.4 0 0
6.44 0 0
6.48 0 0
6.52 0 0
6.56 0 0
6.6 0 0
6.64 0 0
6.68 0 0
6.72 0 0
6.76 0 0
6.8 0 0
6.84 0 0
6.88 0 0
6.92 0 0
6.96 0 0
7 0 0
7.04 0 0
7.08 0 0
7.12 0 0
7.16 0 0
7.2 0 0
7.24 0 0
7.28 0 0
7.32 0 0
7.36 0 0
7.4 0 0
7.44 0 0
7.48 0 0
7.52 0 0
7.56 0 0
7.6 0 0
7.64 0 0
7.68 0 0
7.72 0 0
7.76 0 0
7.8 0 0
7.84 0 0
7.88 0 0
7.92 0 0
7.96 0 0
8 0 0
8.04 0 0
8.08 0 0
8.12 0 0
8.16 0 0
8.2 0 0
8.24 0 0
8.28 0 0
8.32 0 0
8.36 0 0
8.4 0 0
8.44 0 0
8.48 0 0
8.52 0 0
8.56 0 0
8.6 0 0
8.64 0 0
8.68 0 0
8.72 0 0
8.76 0 0
8.8 0 0
8.84 0 0
8.88 0 0
8.92 0 0
8.96 0 0
9 0 0
9.04 0 0
9.08 0 0
9.12 0 0
9.16 0 0
9.2 0 0
9.24 0 0
9.28 0 0
9.32 0 0
9.36 0 0
9.4 0 0
9.44 0 0
9.48 0 0
9.52 0 0
9.56 0 0
9.6 0 0
9.64 0 0
9.68 0 0
9.72 0 0
9.76 0 0
9.8 0 0
9.84 0 0
9.88 0 0
9.92 0 0
9.96 0 0
10 0 0
10.04 0 0
10.08 0 0
10.12 0 0
10.16 0 0
10.2 0 0
10.24 0 0
10.28 0 0
10.32 0 0
10.36 0 0
10.4 0 0
10.44 0 0
10.48 0 0
10.52 0 0
10.56 0 0
10.6 0 0
10.64 0 0
10.68 0 0
10.72 0 0
10.76 0 0
10.8 0 0
10.84 0 0
10.88 0 0
10.92 0 0
10.96 0 0
11 0 0
11.04 0 0
11.08 0 0
11.12 0 0
11.16 0 0
11.2 0 0
11.24 0 0
11.28 0 0
11.32 0 0
11.36 0 0
11.4 0 0
11.44 0 0
11.48 0 0
11.52 0 0
11.56 0 0
11.6 0 0
11.64 0 0
11.68 0 0
11.72 0 0
11.76 0 0
11.8 0 0
11.84 0 0
11.88 0 0
11.92 0 0
11.96 0 0
12 0 0
12.04 0 0
12.08 0 0
12.12 0 0
12.16 0 0
12.2 0 0
12.24 0 0
12.28 0 0
12.32 0 0
12.36 0 0
12.4 0 0
12.44 0 0
12.48 0 0
12.52 0 0
12.56 0 0
12.6 0 0
12.64 0 0
12.68 0 0
12.72 0 0
12.76 0 0
12.8 0 0
12.84 0 0
12.88 0 0
12.92 0 0
12.96 0 0
13 0 0
13.04 0 0
13.08 0 0
13.12 0 0
13.16 0 0
13.2 0 0
13.24 0 0
13.28 0 0
13.32 0 0
13.36 0 0
13.4 0 0
13.44 0 0
13.48 0 0
13.52 0 0
13.56 0 0
13.6 0 0
13.64 0 0
13.68 0 0
13.72 0 0
13.76 0 0
13.8 0 0
13.84 0 0
13.88 0 0
13.92 0 0
13.96 0 0
14 0 0
14.04 0 0
14.08 0 0
14.12 0 0
14.16 0 0
14.2 0 0
14.24 0 0
14.28 0 0
14.32 0 0
14.36 0 0
14.4 0 0
14.44 0 0
14.48 0 0
14.52 0 0
14.56 0 0
14.6 0 0
14.64 0 0
14.68 0 0
14.72 0 0
14.76 0 0
14.8 0 0
14.84 0 0
14.88 0 0
14.92 0 0
14.96 0 0
15 0 0
15.04 0 0
15.08 0 0
15.12 0 0
15.16 0 0
15.2 0 0
15.24 0 0
15.28 0 0
15.32 0 0
15.36 0 0
15.4 0 0
15.44 0 0
15.48 0 0
15.52 0 0
15.56 0 0
15.6 0 0
15.64 0 0
15.68 0 0
15.72 0 0
15.76 0 0
15.8 0 0
15.84 0 0
15.88 0 0
15.92 0 0
15.96 0 0
16 0 0
16.04 0 0
16.08 0 0
16.12 0 0
16.16 0 0
16.2 0 0
16.24 0 0
16.28 0 0
16.32 0 0
16.36 0 0
16.4 0 0
16.44 0 0
16.48 0 0
16.52 0 0
16.56 0 0
16.6 0 0
16.64 0 0
16.68 0 0
16.72 0 0
16.76 0 0
16.8 0 0
16.84 0 0
16.88 0 0
16.92 0 0
16.96 0 0
17 0 0
17.04 0 0
17.08 0 0
17.12 0 0
17.16 0 0
17.2 0 0
17.24 0 0
17.28 0 0
17.32 0 0
17.36 0 0
17.4 0 0
17.44 0 0
17.48 0 0
17.52 0 0
17.56 0 0
17.6 0 0
17.64 0 0
17.68 0 0
17.72 0 0
17.76 0 0
17.8 0 0
17.84 0 0
17.88 0 0
17.92 0 0
17.96 0 0
18 0 0
18.04 0 0
18.08 0 0
18.12 0 0
18.16 0 0
18.2 0 0
18.24 0 0
18.28 0 0
18.32 0 0
18.36 0 0
18.4 0 0
18.44 0 0
18.48 0 0
18.52 0 0
18.56 0 0
18.6 0 0
18.64 0 0
18.68 0 0
18.72 0 0
18.76 0 0
18.8 0 0
18.84 0 0
18.88 0 0
18.92 0 0
18.96 0 0
19 0 0
19.04 0 0
19.08 0 0
19.12 0 0
19.16 0 0
19.2 0 0
19.24 0 0
19.28 0 0
19.32 0 0
19.36 0 0
19.4 0 0
19.44 0 0
19.48 0 0
19.52 0 0
19.56 0 0
19.6 0 0
19.64 0 0
19.68 0 0
19.72 0 0
19.76 0 0
19.8 0 0
19.84 0 0
19.88 0 0
19.92 0 0
19.96 0 0
20 0 0
20.04 0 0
20.08 0 0
20.12 0 0
20.16 0 0
20.2 0 0
20.24 0 0
20.28 0 0
20.32 0 0
20.36 0 0
20.4 0 0
20.44 0 0
20.48 0 0
20.52 0 0
20.56 0 0
20.6 0 0
20.64 0 0
20.68 0 0
20.72 0 0
20.76 0 0
20.8 0 0
20.84 0 0
20.88 0 0
20.92 0 0
20.96 0 0
21 0 0
21.04 0 0
21.08 0 0
21.12 0 0
21.16 0 0
21.2 0 0
21.24 0 0
21.28 0 0
21.32 0 0
21.36 0 0
21.4 0 0
21.44 0 0
21.48 0 0
21.52 0 0
21.56 0 0
21.6 0 0
21.64 0 0
21.68 0 0
21.72 0 0
21.76 0 0
21.8 0 0
21.84 0 0
21.88 0 0
21.92 0 0
21.96 0 0
22 0 0
22.04 0 0
22.08 0 0
22.12 0 0
22.16 0 0
22.2 0 0
22.24 0 0
22.28 0 0
22.32 0 0
22.36 0 0
22.4 0 0
22.44 0 0
22.48 0 0
22.52 0 0
22.56 0 0
22.6 0 0
22.64 0 0
22.68 0 0
22.72 0 0
22.76 0 0
22.8 0 0
22.84 0 0
22.88 0 0
22.92 0 0
22.96 0 0
23 0 0
23.04 0 0
23.08 0 0
23.12 0 0
23.16 0 0
23.2 0 0
23.24 0 0
23.28 0 0
23.32 0 0
23.36 0 0
23.4 0 0
23.44 0 0
23.48 0 0
23.52 0 0
23.56 0 0
23.6 0 0
23.64 0 0
23.68 0 0
23.72 0 0
23.76 0 0
23.8 0 0
23.84 0 0
23.88 0 0
23.92 0 0
23.96 0 0
24 0 0
24.04 0 0
24.08 0 0
24.12 0 0
24.16 0 0
24.2 0 0
24.24 0 0
24.28 0 0
24.32 0 0
24.36 0 0
24.4 0 0
24.44 0 0
24.48 0 0
24.52 0 0
24.56 0 0
24.6 0 0
24.64 0 0
24.68 0 0
24.72 0 0
24.76 0 0
24.8 0 0
24.84 0 0
24.88 0 0
24.92 0 0
24.96 0 0
25 0 0
25.04 0 0
25.08 0 0
25.12 0 0
25.16 0 0
25.2 0 0
25.24 0 0
25.28 0 0
25.32 0 0
25.36 0 0
25.4 0 0
25.44 0 0
25.48 0 0
25.52 0 0
25.56 0 0
25.6 0 0
25.64 0 0
25.68 0 0
25.72 0 0
25.76 0 0
25.8 0 0
25.84 0 0
25.88 0 0
25.92 0 0
25.96 0 0
26 0 0
26.04 0 0
26.08 0 0
26.12 0 0
26.16 0 0
26.2 0 0
26.24 0 0
26.28 0 0
26.32 0 0
26.36 0 0
26.4 0 0
26.44 0 0
26.48 0 0
26.52 0 0
26.56 0 0
26.6 0 0
26.64 0 0
26.68 0 0
26.72 0 0
26.76 0 0
26.8 0 0
26.84 0 0
26.88 0 0
26.92 0 0
26.96 0 0
27 0 0
27.04 0 0
27.08 0 0
27.12 0 0
27.16 0 0
27.2 0 0
27.24 0 0
27.28 0 0
27.32 0 0
27.36 0 0
27.4 0 0
27.44 0 0
27.48 0 0
27.52 0 0
27.56 0 0
27.6 0 0
27.64 0 0
27.68 0 0
27.72 0 0
27.76 0 0
27.8 0 0
27.84 0 0
27.88 0 0
27.92 0 0
27.96 0 0
28 0 0
28.04 0 0
28.08 0 0
28.12 0 0
28.16 0 0
28.2 0 0
28.24 0 0
28.28 0 0
28.32 0 0
28.36 0 0
28.4 0 0
28.44 0 0
28.48 0 0
28.52 0 0
28.56 0 0
28.6 0 0
28.64 0 0
28.68 0 0
28.72 0 0
28.76 0 0
28.8 0 0
28.84 0 0
28.88 0 0
28.92 0 0
28.96 0 0
29 0 0
29.04 0 0
29.08 0 0
29.12 0 0
29.16 0 0
29.2 0 0
29.24 0 0
29.28 0 0
29.32 0 0
29.36 0 0
29.4 0 0
29.44 0 0
29.48 0 0
29.52 0 0
29.56 0 0
29.6 0 0
29.64 0 0
29.68 0 0
29.72 0 0
29.76 0 0
29.8 0 0
29.84 0 0
29.88 0 0
29.92 0 0
29.96 0 0
30 0 0
30.04 0 0
30.08 0 0
30.12 0 0
30.16 0 0
30.2 0 0
30.24 0 0
30.28 0 0
30.32 0 0
30.36 0 0
30.4 0 0
30.44 0 0
30.48 0 0
30.52 0 0
30.56 0 0
30.6 0 0
30.64 0 0
30.68 0 0
30.72 0 0
30.76 0 0
30.8 0 0
30.84 0 0
30.88 0 0
30.92 0 0
30.96 0 0
31 0 0
31.04 0 0
31.08 0 0
31.12 0 0
31.16 0 0
31.2 0 0
31.24 0 0
31.28 0 0
31.32 0 0
31.36 0 0
31.4 0 0
31.44 0 0
31.48 0 0
31.52 0 0
31.56 0 0
31.6 0 0
31.64 0 0
31.68 0 0
31.72 0 0
31.76 0 0
31.8 0 0
31.84 0 0
31.88 0 0
31.92 0 0
31.96 0 0
0 0.005 0
0.04 0.005 0
0.08 0.005 0
0.12 0.005 0
0.16 0.005 0
0.2 0.005 0
0.24 0.005 0
0.28 0.005 0
0.32 0.005 0
0.36 0.005 0
0.4 0.005 0
0.44 0.005 0
0.48 0.005 0
0.52 0.005 0
0.56 0.005 0
0.6 0.005 0
0.64 0.005 0
0.68 0.005 0
0.72 0.005 0
0.76 0.005 0
0.8 0.005 0
0.84 0.005 0
0.88 0.005 0
0.92 0.005 0
0.96 0.005 0
1 0.005 0
1.04 0.005 0
1.08 0.005 0
1.12 0.005 0
1.16 0.005 0
1.2 0.005 0
1.24 0.005 0
1.28 0.005 0
1.32 0.005 0
1.36 0.005 0
1.4 0.005 0
1.44 0.005 0
1.48 0.005 0
1.52 0.005 0
1.56 0.005 0
1.6 0.005 0
1.64 0.005 0
1.68 0.005 0
1.72 0.005 0
1.76 0.005 0
1.8 0.005 0
1.84 0.005 0
1.88 0.005 0
1.92 0.005 0
1.96 0.005 0
2 0.005 0
2.04 0.005 0
2.08 0.005 0
2.12 0.005 0
2.16 0.005 0
2.2 0.005 0
2.24 0.005 0
2.28 0.005 0
2.32 0.005 0
2.36 0.005 0
2.4 0.005 0
2.44 0.005 0
2.48 0.005 0
2.52 0.005 0
2.56 0.005 0
2.6 0.005 0
2.64 0.005 0
2.68 0.005 0
2.72 0.005 0
2.76 0.005 0
2.8 0.005 0
2.84 0.005 0
2.88 0.005 0
2.92 0.005 0
2.96 0.005 0
3 0.005 0
3.04 0.005 0
3.08 0.005 0
3.12 0.005 0
3.16 0.005 0
3.2 0.005 0
3.24 0.005 0
3.28 0.005 0
3.32 0.005 0
3.36 0.005 0
3.4 0.005 0
3.44 0.005 0
3.48 0.005 0
3.52 0.005 0
3.56 0.005 0
3.6 0.005 0
3.64 0.005 0
3.68 0.005 0
3.72 0.005 0
3.76 0.005 0
3.8 0.005 0
3.84 0.005 0
3.88 0.005 0
3.92 0.005 0
3.96 0.005 0
4 0.005 0
4.04 0.005 0
4.08 0.005 0
4.12 0.005 0
4.16 0.005 0
4.2 0.005 0
4.24 0.005 0
4.28 0.005 0
4.32 0.005 0
4.36 0.005 0
4.4 0.005 0
4.44 0.005 0
4.48 0.005 0
4.52 0.005 0
4.56 0.005 0
4.6 0.005 0
4.64 0.005 0
4.68 0.005 0
4.72 0.005 0
4.76 0.005 0
4.8 0.005 0
4.84 0.005 0
4.88 0.005 0
4.92 0.005 0
4.96 0.005 0
5 0.005 0
5.04 0.005 0
5.08 0.005 0
5.12 0.005 0
5.16 0.005 0
5.2 0.005 0
5.24 0.005 0
5.28 0.005 0
5.32 0.005 0
5.36 0.005 0
5.4 0.005 0
5.44 0.005 0
5.48 0.005 0
5.52 0.005 0
5.56 0.005 0
5.6 0.005 0
5.64 0.005 0
5.68 0.005 0
5.72 0.005 0
5.76 0.005 0
5.8 0.005 0
5.84 0.005 0
5.88 0.005 0
5.92 0.005 0
5.96 0.005 0
6 0.005 0
6.04 0.005 0
6.08 0.005 0
6.12 0.005 0
6.16 0.005 0
6.2 0.005 0
6.24 0.005 0
6.28 0.005 0
6.32 0.005 0
6.36 0.005 0
6.4 0.005 0
6.44 0.005 0
6.48 0.005 0
6.52 0.005 0
6.56 0.005 0
6.6 0.005 0
6.64 0.005 0
6.68 0.005 0
6.72 0.005 0
6.76 0.005 0
6.8 0.005 0
6.84 0.005 0
6.88 0.005 0
6.92 0.005 0
6.96 0.005 0
7 0.005 0
7.04 0.005 0
7.08 0.005 0
7.12 0.005 0
7.16 0.005 0
7.2 0.005 0
7.24 0.005 0
7.28 0.005 0
7.32 0.005 0
7.36 0.005 0
7.4 0.005 0
[...]
POINT_DATA 160000

SCALARS p float 1
LOOKUP_TABLE default
1
19.5428
17.3273
17.0725
17.0123
16.9859
16.9699
16.9583
16.9491
16.9412
16.9343
16.928
16.9221
16.9165
16.9112
16.9061
16.9012
16.8963
16.8916
16.887
16.8825
16.878
16.8736
16.8693
16.865
16.8608
16.8567
16.8526
16.8485
16.8445
16.8405
16.8366
16.8327
16.8289
16.8251
16.8214
16.8177
16.814
16.8104
16.8068
16.8032
16.7997
16.7962
16.7928
16.7894
16.786
16.7826
16.7793
16.776
16.7727
16.7694
16.7662
16.763
16.7599
16.7567
16.7536
16.7505
16.7474
16.7444
16.7413
16.7383
16.7354
16.7324
16.7294
16.7265
16.7236
16.7207
16.7178
16.715
16.7122
16.7093
16.7065
16.7038
16.701
16.6982
16.6955
16.6928
16.6901
16.6874
16.6847
16.682
16.6794
16.6767
16.6741
16.6715
16.6689
16.6663
16.6638
16.6612
16.6587
16.6561
16.6536
16.6511
16.6486
16.6461
16.6436
16.6412
16.6387
16.6363
16.6339
16.6315
16.6291
16.6267
16.6243
16.6219
16.6196
16.6172
16.6149
16.6126
16.6102
16.608
16.6057
16.6034
16.6011
16.5989
16.5967
16.5944
16.5922
16.59
16.5878
16.5857
16.5835
16.5813
16.5792
16.5771
16.575
16.5729
16.5708
16.5687
16.5666
16.5645
16.5625
16.5604
16.5584
16.5564
16.5544
16.5524
16.5503
16.5484
16.5464
16.5444
16.5424
16.5404
16.5385
16.5365
16.5346
16.5326
16.5307
16.5288
16.5268
16.5249
16.523
16.5211
16.5192
16.5173
16.5154
16.5135
16.5116
16.5097
16.5079
16.506
16.5041
16.5023
16.5004
16.4985
16.4967
16.4948
16.493
16.4911
16.4893
16.4875
16.4856
16.4838
16.482
16.4801
16.4783
16.4765
16.4747
16.4729
16.4711
16.4693
16.4675
16.4657
16.4639
16.4621
16.4603
16.4585
16.4567
16.4549
16.4531
16.4513
16.4495
16.4477
16.446
16.4442
16.4424
16.4406
16.4388
16.437
16.4352
16.4335
16.4317
16.4299
16.4281
16.4263
16.4245
16.4227
16.421
16.4192
16.4174
16.4156
16.4138
16.412
16.4102
16.4085
16.4067
16.4049
16.4031
16.4013
16.3995
16.3977
16.3959
16.3942
16.3924
16.3906
16.3888
16.387
16.3852
16.3835
16.3817
16.3799
16.3781
16.3763
16.3745
16.3727
16.371
16.3692
16.3674
16.3656
16.3638
16.362
16.3602
16.3585
16.3567
16.3549
16.3531
16.3513
16.3495
16.3477
16.346
16.3442
16.3424
16.3406
16.3388
16.337
16.3352
16.3335
16.3317
16.3299
16.3281
16.3263
16.3245
16.3227
16.321
16.3192
16.3174
16.3156
16.3138
16.312
16.3102
16.3085
16.3067
16.3049
16.3031
16.3013
16.2995
16.2977
16.296
16.2942
16.2924
16.2906
16.2888
16.287
16.2852
16.2835
16.2817
16.2799
16.2781
16.2763
16.2745
16.2727
16.271
16.2692
16.2674
16.2656
16.2638
16.262
16.2602
16.2585
16.2567
16.2549
16.2531
16.2513
16.2495
16.2478
16.246
16.2442
16.2424
16.2406
16.2388
16.237
16.2353
16.2335
16.2317
16.2299
16.2281
16.2263
16.2245
16.2228
16.221
16.2192
16.2174
16.2156
16.2138
16.212
16.2103
16.2085
16.2067
16.2049
16.2031
16.2013
16.1995
16.1978
16.196
16.1942
16.1924
16.1906
16.1888
16.187
16.1853
16.1835
16.1817
16.1799
16.1781
16.1763
16.1746
16.1728
16.171
16.1692
16.1674
16.1656
16.1638
16.1621
16.1603
16.1585
16.1567
16.1549
16.1531
16.1513
16.1496
16.1478
16.146
16.1442
16.1424
16.1406
16.1388
16.1371
16.1353
16.1335
16.1317
16.1299
16.1281
16.1264
16.1246
16.1228
16.121
16.1192
16.1174
16.1156
16.1139
16.1121
16.1103
16.1085
16.1067
16.1049
16.1031
16.1014
16.0996
16.0978
16.096
16.0942
16.0924
16.0906
16.0889
16.0871
16.0853
16.0835
16.0817
16.0799
16.0782
16.0764
16.0746
16.0728
16.071
16.0692
16.0674
16.0657
16.0639
16.0621
16.0603
16.0585
16.0567
16.0549
16.0532
16.0514
16.0496
16.0478
16.046
16.0442
16.0424
16.0407
16.0389
16.0371
16.0353
16.0335
16.0317
16.03
16.0282
16.0264
16.0246
16.0228
16.021
16.0192
16.0175
16.0157
16.0139
16.0121
16.0103
16.0085
16.0067
16.005
16.0032
16.0014
15.9996
15.9978
15.996
15.9943
15.9925
15.9907
15.9889
15.9871
15.9853
15.9835
15.9818
15.98
15.9782
15.9764
15.9746
15.9728
15.971
15.9693
15.9675
15.9657
15.9639
15.9621
15.9603
15.9586
15.9568
15.955
15.9532
15.9514
15.9496
15.9478
15.9461
15.9443
15.9425
15.9407
15.9389
15.9371
15.9353
15.9336
15.9318
15.93
15.9282
15.9264
15.9246
15.9228
15.9211
15.9193
15.9175
15.9157
15.9139
15.9121
15.9104
15.9086
15.9068
15.905
15.9032
15.9014
15.8996
15.8979
15.8961
15.8943
15.8925
15.8907
15.8889
15.8871
15.8854
15.8836
15.8818
15.88
15.8782
15.8764
15.8747
15.8729
15.8711
15.8693
15.8675
15.8657
15.8639
15.8622
15.8604
15.8586
15.8568
15.855
15.8532
15.8514
15.8497
15.8479
15.8461
15.8443
15.8425
15.8407
15.839
15.8372
15.8354
15.8336
15.8318
15.83
15.8282
15.8265
15.8247
15.8229
15.8211
15.8193
15.8175
15.8157
15.814
15.8122
15.8104
15.8086
15.8068
15.805
15.8033
15.8015
15.7997
15.7979
15.7961
15.7943
15.7925
15.7908
15.789
15.7872
15.7854
15.7836
15.7818
15.78
15.7783
15.7765
15.7747
15.7729
15.7711
15.7693
15.7676
15.7658
15.764
15.7622
15.7604
15.7586
15.7568
15.7551
15.7533
15.7515
15.7497
15.7479
15.7461
15.7443
15.7426
15.7408
15.739
15.7372
15.7354
15.7336
15.7318
15.7301
15.7283
15.7265
15.7247
15.7229
15.7211
15.7194
15.7176
15.7158
15.714
15.7122
15.7104
15.7086
15.7069
15.7051
15.7033
15.7015
15.6997
15.6979
15.6961
15.6944
15.6926
15.6908
15.689
15.6872
15.6854
15.6837
15.6819
15.6801
15.6783
15.6765
15.6747
15.6729
15.6712
15.6694
15.6676
15.6658
15.664
15.6622
15.6604
15.6587
15.6569
15.6551
15.6533
15.6515
15.6497
15.6479
15.6462
15.6444
15.6426
15.6408
15.639
15.6372
15.6355
15.6337
15.6319
15.6301
15.6283
15.6265
15.6247
15.623
15.6212
15.6194
15.6176
15.6158
15.614
15.6122
15.6105
15.6087
15.6069
15.6051
15.6033
15.6015
15.5997
15.598
15.5962
15.5944
15.5926
15.5908
15.589
15.5873
15.5855
15.5837
15.5819
15.5801
15.5783
15.5765
15.5748
15.573
15.5712
15.5694
15.5676
15.5658
15.564
15.5623
15.5605
15.5587
15.5569
15.5551
15.5533
15.5515
15.5498
15.548
15.5462
15.5444
15.5426
15.5408
15.539
15.5373
15.5355
15.5337
15.5319
15.5301
15.5283
15.5266
15.5248
15.523
15.5212
15.5194
15.5176
15.5158
15.5141
15.5123
15.5105
15.5087
15.5069
15.5051
15.5033
15.5016
15.4998
15.498
15.4962
15.4944
15.4926
15.4908
15.4891
15.4873
15.4855
15.4837
15.4819
15.4801
15.4783
15.4766
15.4748
15.473
15.4712
15.4694
15.4676
15.4658
15.4641
15.4623
15.4605
15.4587
15.4569
15.4551
15.4534
15.4516
15.4498
15.448
15.4462
15.4444
15.4426
15.4409
15.4391
15.4373
15.4355
15.4337
15.4319
15.4301
15.4284
15.4266
15.4248
15.423
15.4212
15.4194
15.4176
15.4159
15.4141
15.4123
15.4105
15.4087
15.4069
15.4051
15.4034
15.4016
15.3998
15.398
15.3962
15.3944
15.3926
15.3909
15.3891
15.3873
15.3855
15.3837
15.3819
15.3801
15.3784
15.3766
15.3748
15.373
15.3712
15.3694
15.3677
15.3659
1
19.5428
19.5428
17.3273
17.0725
17.0123
16.9859
16.9699
16.9583
16.9491
16.9412
16.9343
16.928
16.9221
16.9165
16.9112
16.9061
16.9012
16.8963
16.8916
16.887
16.8825
16.878
16.8736
16.8693
16.865
16.8608
16.8567
16.8526
16.8485
16.8445
16.8405
16.8366
16.8327
16.8289
16.8251
16.8214
16.8177
16.814
16.8104
16.8068
16.8032
16.7997
16.7962
16.7928
16.7894
16.786
16.7826
16.7793
16.776
16.7727
16.7694
16.7662
16.763
16.7599
16.7567
16.7536
16.7505
16.7474
16.7444
16.7413
16.7383
16.7354
16.7324
16.7294
16.7265
16.7236
16.7207
16.7178
16.715
16.7122
16.7093
16.7065
16.7038
16.701
16.6982
16.6955
16.6928
16.6901
16.6874
16.6847
16.682
16.6794
16.6767
16.6741
16.6715
16.6689
16.6663
16.6638
16.6612
16.6587
16.6561
16.6536
16.6511
16.6486
16.6461
16.6436
16.6412
16.6387
16.6363
16.6339
16.6315
16.6291
16.6267
16.6243
16.6219
16.6196
16.6172
16.6149
16.6126
16.6102
16.608
16.6057
16.6034
16.6011
16.5989
16.5967
16.5944
16.5922
16.59
16.5878
16.5857
16.5835
16.5813
16.5792
16.5771
16.575
16.5729
16.5708
16.5687
16.5666
16.5645
16.5625
16.5604
16.5584
16.5564
16.5544
16.5524
16.5503
16.5484
16.5464
16.5444
16.5424
16.5404
16.5385
16.5365
16.5346
16.5326
16.5307
16.5288
16.5268
16.5249
16.523
16.5211
16.5192
16.5173
16.5154
16.5135
16.5116
16.5097
16.5079
16.506
16.5041
16.5023
16.5004
16.4985
16.4967
16.4948
16.493
16.4911
16.4893
16.4875
16.4856
16.4838
16.482
16.4801
16.4783
16.4765
16.4747
16.4729
16.4711
16.4693
16.4675
16.4657
16.4639
16.4621
16.4603
16.4585
16.4567
16.4549
16.4531
16.4513
16.4495
16.4477
16.446
16.4442
16.4424
16.4406
16.4388
16.437
16.4352
16.4335
16.4317
16.4299
16.4281
16.4263
16.4245
16.4227
16.421
16.4192
16.4174
16.4156
16.4138
16.412
16.4102
16.4085
16.4067
16.4049
16.4031
16.4013
16.3995
16.3977
16.3959
16.3942
16.3924
16.3906
16.3888
16.387
16.3852
16.3835
16.3817
16.3799
16.3781
16.3763
16.3745
16.3727
16.371
16.3692
16.3674
16.3656
16.3638
16.362
16.3602
16.3585
16.3567
16.3549
16.3531
16.3513
16.3495
16.3477
16.346
16.3442
16.3424
16.3406
16.3388
16.337
16.3352
16.3335
16.3317
16.3299
16.3281
16.3263
16.3245
16.3227
16.321
16.3192
16.3174
16.3156
16.3138
16.312
16.3102
16.3085
16.3067
16.3049
16.3031
16.3013
16.2995
16.2977
16.296
16.2942
16.2924
16.2906
16.2888
16.287
16.2852
16.2835
16.2817
16.2799
16.2781
16.2763
16.2745
16.2727
16.271
16.2692
16.2674
16.2656
16.2638
16.262
16.2602
16.2585
16.2567
16.2549
16.2531
16.2513
16.2495
16.2478
16.246
16.2442
16.2424
16.2406
16.2388
16.237
16.2353
16.2335
16.2317
16.2299
16.2281
16.2263
16.2245
16.2228
16.221
16.2192
16.2174
16.2156
16.2138
16.212
16.2103
16.2085
16.2067
16.2049
16.2031
16.2013
16.1995
16.1978
16.196
16.1942
16.1924
16.1906
16.1888
16.187
16.1853
16.1835
16.1817
16.1799
16.1781
16.1763
16.1746
16.1728
16.171
16.1692
16.1674
16.1656
16.1638
16.1621
16.1603
16.1585
16.1567
16.1549
16.1531
16.1513
16.1496
16.1478
16.146
16.1442
16.1424
16.1406
16.1388
16.1371
16.1353
16.1335
16.1317
16.1299
16.1281
16.1264
16.1246
16.1228
16.121
16.1192
16.1174
16.1156
16.1139
16.1121
16.1103
16.1085
16.1067
16.1049
16.1031
16.1014
16.0996
16.0978
16.096
16.0942
16.0924
16.0906
16.0889
16.0871
16.0853
16.0835
16.0817
16.0799
16.0782
16.0764
16.0746
16.0728
16.071
16.0692
16.0674
16.0657
16.0639
16.0621
16.0603
16.0585
16.0567
16.0549
16.0532
16.0514
16.0496
16.0478
16.046
16.0442
16.0424
16.0407
16.0389
16.0371
16.0353
16.0335
16.0317
16.03
16.0282
16.0264
16.0246
16.0228
16.021
16.0192
16.0175
16.0157
16.0139
16.0121
16.0103
16.0085
16.0067
16.005
16.0032
16.0014
15.9996
15.9978
15.996
15.9943
15.9925
15.9907
15.9889
15.9871
15.9853
15.9835
15.9818
15.98
15.9782
15.9764
15.9746
15.9728
15.971
15.9693
15.9675
15.9657
15.9639
15.9621
15.9603
15.9586
15.9568
15.955
15.9532
15.9514
15.9496
15.9478
15.9461
15.9443
15.9425
15.9407
15.9389
15.9371
15.9353
15.9336
15.9318
15.93
15.9282
15.9264
15.9246
15.9228
15.9211
15.9193
15.9175
15.9157
15.9139
15.9121
15.9104
15.9086
15.9068
15.905
15.9032
15.9014
15.8996
15.8979
15.8961
15.8943
15.8925
15.8907
15.8889
15.8871
15.8854
15.8836
15.8818
15.88
15.8782
15.8764
15.8747
15.8729
15.8711
15.8693
15.8675
15.8657
15.8639
15.8622
15.8604
15.8586
15.8568
15.855
15.8532
15.8514
15.8497
15.8479
15.8461
15.8443
15.8425
15.8407
15.839
15.8372
15.8354
15.8336
15.8318
15.83
15.8282
15.8265
15.8247
15.8229
15.8211
15.8193
15.8175
15.8157
15.814
15.8122
15.8104
15.8086
15.8068
15.805
15.8033
15.8015
15.7997
15.7979
15.7961
15.7943
15.7925
15.7908
15.789
15.7872
15.7854
15.7836
15.7818
15.78
15.7783
15.7765
15.7747
15.7729
15.7711
15.7693
15.7676
15.7658
15.764
15.7622
15.7604
15.7586
15.7568
15.7551
15.7533
15.7515
15.7497
15.7479
15.7461
15.7443
15.7426
15.7408
15.739
15.7372
15.7354
15.7336
15.7318
15.7301
15.7283
15.7265
15.7247
15.7229
15.7211
15.7194
15.7176
15.7158
15.714
15.7122
15.7104
15.7086
15.7069
15.7051
15.7033
15.7015
15.6997
15.6979
15.6961
15.6944
15.6926
15.6908
15.689
15.6872
15.6854
15.6837
15.6819
15.6801
15.6783
15.6765
15.6747
15.6729
15.6712
15.6694
15.6676
15.6658
15.664
15.6622
15.6604
15.6587
15.6569
15.6551
15.6533
15.6515
15.6497
15.6479
15.6462
15.6444
15.6426
15.6408
15.639
15.6372
15.6355
15.6337
15.6319
15.6301
15.6283
15.6265
15.6247
15.623
15.6212
15.6194
15.6176
15.6158
15.614
15.6122
15.6105
15.6087
15.6069
15.6051
15.6033
15.6015
15.5997
15.598
15.5962
15.5944
15.5926
15.5908
15.589
15.5873
15.5855
15.5837
15.5819
15.5801
15.5783
15.5765
15.5748
15.573
15.5712
15.5694
15.5676
15.5658
15.564
15.5623
15.5605
15.5587
15.5569
15.5551
15.5533
15.5515
15.5498
15.548
15.5462
15.5444
15.5426
15.5408
15.539
15.5373
15.5355
15.5337
15.5319
15.5301
15.5283
15.5266
15.5248
15.523
15.5212
15.5194
15.5176
15.5158
15.5141
15.5123
15.5105
15.5087
15.5069
15.5051
15.5033
15.5016
15.4998
15.498
15.4962
15.4944
15.4926
15.4908
15.4891
15.4873
15.4855
15.4837
15.4819
15.4801
15.4783
15.4766
15.4748
15.473
15.4712
15.4694
15.4676
15.4658
15.4641
15.4623
15.4605
15.4587
15.4569
15.4551
15.4534
15.4516
15.4498
15.448
15.4462
15.4444
15.4426
15.4409
15.4391
15.4373
15.4355
15.4337
15.4319
15.4301
15.4284
15.4266
15.4248
15.423
15.4212
15.4194
15.4176
15.4159
15.4141
15.4123
15.4105
15.4087
15.4069
15.4051
15.4034
15.4016
15.3998
15.398
15.3962
15.3944
15.3926
15.3909
15.3891
15.3873
15.3855
15.3837
15.3819
15.3801
15.3784
15.3766
15.3748
15.373
15.3712
15.3694
15.3677
15.3659
15.3659
18.8958
18.8958
17.3377
17.082
17.0165
16.9882
16.9713
16.9593
16.9498
16.9418
16.9347
16.9283
16.9224
16.9168
16.9114
16.9063
16.9013
16.8965
16.8918
16.8871
16.8826
16.8781
16.8737
16.8694
16.8651
16.8609
16.8567
16.8526
16.8486
16.8445
16.8406
16.8367
16.8328
16.829
16.8252
16.8214
16.8177
16.8141
16.8104
16.8068
16.8033
16.7998
16.7963
16.7928
16.7894
16.786
16.7826
16.7793
16.776
16.7727
16.7695
16.7662
16.7631
16.7599
16.7567
16.7536
16.7505
16.7474
16.7444
16.7414
16.7384
16.7354
16.7324
16.7295
16.7265
16.7236
16.7207
16.7179
16.715
16.7122
16.7094
16.7066
16.7038
16.701
16.6982
16.6955
16.6928
16.6901
16.6874
16.6847
16.682
16.6794
16.6768
16.6741
16.6715
16.6689
16.6663
16.6638
16.6612
16.6587
16.6561
16.6536
16.6511
16.6486
16.6461
16.6437
16.6412
16.6387
16.6363
16.6339
16.6315
16.6291
16.6267
16.6243
16.6219
16.6196
16.6172
16.6149
16.6126
16.6103
16.608
16.6057
16.6034
16.6011
16.5989
16.5967
16.5944
16.5922
16.59
16.5878
16.5857
16.5835
16.5814
16.5792
16.5771
16.575
16.5729
16.5708
16.5687
16.5666
16.5646
16.5625
16.5605
16.5584
16.5564
16.5544
16.5524
16.5504
16.5484
16.5464
16.5444
16.5424
16.5404
16.5385
16.5365
16.5346
16.5326
16.5307
16.5288
16.5269
16.5249
16.523
16.5211
16.5192
16.5173
16.5154
16.5135
16.5116
16.5098
16.5079
16.506
16.5041
16.5023
16.5004
16.4985
16.4967
16.4948
16.493
16.4911
16.4893
16.4875
16.4856
16.4838
16.482
16.4801
16.4783
16.4765
16.4747
16.4729
16.4711
16.4693
16.4675
16.4657
16.4639
16.4621
16.4603
16.4585
16.4567
16.4549
16.4531
16.4513
16.4495
16.4477
16.446
16.4442
16.4424
16.4406
16.4388
16.437
16.4352
16.4335
16.4317
16.4299
16.4281
16.4263
16.4245
16.4227
16.421
16.4192
16.4174
16.4156
16.4138
16.412
16.4102
16.4085
16.4067
16.4049
16.4031
16.4013
16.3995
16.3977
16.396
16.3942
16.3924
16.3906
16.3888
16.387
16.3852
16.3835
16.3817
16.3799
16.3781
16.3763
16.3745
16.3727
16.371
16.3692
16.3674
16.3656
16.3638
16.362
16.3602
16.3585
16.3567
16.3549
16.3531
16.3513
16.3495
16.3477
16.346
16.3442
16.3424
16.3406
16.3388
16.337
16.3352
16.3335
16.3317
16.3299
16.3281
16.3263
16.3245
16.3227
16.321
16.3192
16.3174
16.3156
16.3138
16.312
16.3102
16.3085
16.3067
16.3049
16.3031
16.3013
16.2995
16.2977
16.296
16.2942
16.2924
16.2906
16.2888
16.287
16.2852
16.2835
16.2817
16.2799
16.2781
16.2763
16.2745
16.2728
16.271
16.2692
16.2674
16.2656
16.2638
16.262
16.2603
16.2585
16.2567
16.2549
16.2531
16.2513
16.2495
16.2478
16.246
16.2442
16.2424
16.2406
16.2388
16.237
16.2353
16.2335
16.2317
16.2299
16.2281
16.2263
16.2245
16.2228
16.221
16.2192
16.2174
16.2156
16.2138
16.212
16.2103
16.2085
16.2067
16.2049
16.2031
16.2013
16.1996
16.1978
16.196
16.1942
16.1924
16.1906
16.1888
16.1871
16.1853
16.1835
16.1817
16.1799
16.1781
16.1763
16.1746
16.1728
16.171
16.1692
16.1674
16.1656
16.1638
16.1621
16.1603
16.1585
16.1567
16.1549
16.1531
16.1513
16.1496
16.1478
16.146
16.1442
16.1424
16.1406
16.1389
16.1371
16.1353
16.1335
16.1317
16.1299
16.1281
16.1264
16.1246
16.1228
16.121
16.1192
16.1174
16.1156
16.1139
16.1121
16.1103
16.1085
16.1067
16.1049
16.1031
16.1014
16.0996
16.0978
16.096
16.0942
16.0924
16.0907
16.0889
16.0871
16.0853
16.0835
16.0817
16.0799
16.0782
16.0764
16.0746
16.0728
16.071
16.0692
16.0674
16.0657
16.0639
16.0621
16.0603
16.0585
16.0567
16.0549
16.0532
16.0514
16.0496
16.0478
16.046
16.0442
16.0425
16.0407
16.0389
16.0371
16.0353
16.0335
16.0317
16.03
16.0282
16.0264
16.0246
16.0228
16.021
16.0192
16.0175
16.0157
16.0139
16.0121
16.0103
16.0085
16.0068
16.005
16.0032
16.0014
15.9996
15.9978
15.996
15.9943
15.9925
15.9907
15.9889
15.9871
15.9853
15.9835
15.9818
15.98
15.9782
15.9764
15.9746
15.9728
15.9711
15.9693
15.9675
15.9657
15.9639
15.9621
15.9603
15.9586
15.9568
15.955
15.9532
15.9514
15.9496
15.9478
15.9461
15.9443
15.9425
15.9407
15.9389
15.9371
15.9353
15.9336
15.9318
15.93
15.9282
15.9264
15.9246
15.9229
15.9211
15.9193
15.9175
15.9157
15.9139
15.9121
15.9104
15.9086
15.9068
15.905
15.9032
15.9014
15.8996
15.8979
15.8961
15.8943
15.8925
15.8907
15.8889
15.8872
15.8854
15.8836
15.8818
15.88
15.8782
15.8764
15.8747
15.8729
15.8711
15.8693
15.8675
15.8657
15.8639
15.8622
15.8604
15.8586
15.8568
15.855
15.8532
15.8515
15.8497
15.8479
15.8461
15.8443
15.8425
15.8407
15.839
15.8372
15.8354
15.8336
15.8318
15.83
15.8282
15.8265
15.8247
15.8229
15.8211
15.8193
15.8175
15.8158
15.814
15.8122
15.8104
15.8086
15.8068
15.805
15.8033
15.8015
15.7997
15.7979
15.7961
15.7943
15.7925
15.7908
15.789
15.7872
15.7854
15.7836
15.7818
15.7801
15.7783
15.7765
15.7747
15.7729
15.7711
15.7693
15.7676
15.7658
15.764
15.7622
15.7604
15.7586
15.7568
15.7551
15.7533
15.7515
15.7497
15.7479
15.7461
15.7443
15.7426
15.7408
15.739
15.7372
15.7354
15.7336
15.7319
15.7301
15.7283
15.7265
15.7247
15.7229
15.7211
15.7194
15.7176
15.7158
15.714
15.7122
15.7104
15.7086
15.7069
15.7051
15.7033
15.7015
15.6997
15.6979
15.6962
15.6944
15.6926
15.6908
15.689
15.6872
15.6854
15.6837
15.6819
15.6801
15.6783
15.6765
15.6747
15.6729
15.6712
15.6694
15.6676
15.6658
15.664
15.6622
15.6604
15.6587
15.6569
15.6551
15.6533
15.6515
15.6497
15.648
15.6462
15.6444
15.6426
15.6408
15.639
15.6372
15.6355
15.6337
15.6319
15.6301
15.6283
15.6265
15.6247
15.623
15.6212
15.6194
15.6176
15.6158
15.614
15.6122
15.6105
15.6087
15.6069
15.6051
15.6033
15.6015
15.5998
15.598
15.5962
15.5944
15.5926
15.5908
15.589
15.5873
15.5855
15.5837
15.5819
15.5801
15.5783
15.5765
15.5748
15.573
15.5712
15.5694
15.5676
15.5658
15.564
15.5623
15.5605
15.5587
15.5569
15.5551
15.5533
15.5516
15.5498
15.548
15.5462
15.5444
15.5426
15.5408
15.5391
15.5373
15.5355
15.5337
15.5319
15.5301
15.5283
15.5266
15.5248
15.523
15.5212
15.5194
15.5176
15.5158
15.5141
15.5123
15.5105
15.5087
15.5069
15.5051
15.5033
15.5016
15.4998
15.498
15.4962
15.4944
15.4926
15.4908
15.4891
15.4873
15.4855
15.4837
15.4819
15.4801
15.4784
15.4766
15.4748
15.473
15.4712
15.4694
15.4676
15.4659
15.4641
15.4623
15.4605
15.4587
15.4569
15.4551
15.4534
15.4516
15.4498
15.448
15.4462
15.4444
15.4426
15.4409
15.4391
15.4373
15.4355
15.4337
15.4319
15.4301
15.4284
15.4266
15.4248
15.423
15.4212
15.4194
15.4176
15.4159
15.4141
15.4123
15.4105
15.4087
15.4069
15.4051
15.4034
15.4016
15.3998
15.398
15.3962
15.3944
15.3926
15.3909
15.3891
15.3873
15.3855
15.3837
15.3819
15.3802
15.3784
15.3766
15.3748
15.373
15.3712
15.3694
15.3677
15.3659
15.3659
18.2063
18.2063
17.3219
17.0887
17.0201
16.9902
16.9726
16.9602
16.9505
16.9423
16.9351
16.9287
16.9227
16.917
16.9116
16.9065
16.9015
16.8966
16.8919
16.8872
16.8827
16.8782
16.8738
16.8695
16.8652
16.861
16.8568
16.8527
16.8486
16.8446
16.8406
16.8367
16.8328
16.829
16.8252
16.8215
16.8178
16.8141
16.8105
16.8069
16.8033
16.7998
16.7963
16.7928
16.7894
16.786
16.7827
16.7793
16.776
16.7727
16.7695
16.7663
16.7631
16.7599
16.7568
16.7536
16.7505
16.7475
16.7444
16.7414
16.7384
16.7354
16.7324
16.7295
16.7265
16.7236
16.7207
16.7179
16.715
16.7122
16.7094
16.7066
16.7038
16.701
16.6983
16.6955
16.6928
16.6901
16.6874
16.6847
16.6821
16.6794
16.6768
16.6741
16.6715
16.6689
16.6664
16.6638
16.6612
16.6587
16.6561
16.6536
16.6511
16.6486
16.6461
16.6437
16.6412
16.6388
16.6363
16.6339
16.6315
16.6291
16.6267
16.6243
16.6219
16.6196
16.6172
16.6149
16.6126
16.6103
16.608
16.6057
16.6034
16.6011
16.5989
16.5967
16.5944
16.5922
16.59
16.5878
16.5857
16.5835
16.5814
16.5792
16.5771
16.575
16.5729
16.5708