# vtk DataFile Version 2.0
FlowField
ASCII
DATASET STRUCTURED_GRID
DIMENSIONS 800 1 200
POINTS 160000 float
0 0 0
0.04 0 0
0.08 0 0
0.12 0 0
0.16 0 0
0.2 0 0
0.24 0 0
0.28 0 0
0.32 0 0
0.36 0 0
0.4 0 0
0.44 0 0
0.48 0 0
0.52 0 0
0.56 0 0
0.6 0 0
0.64 0 0
0.68 0 0
0.72 0 0
0.76 0 0
0.8 0 0
0.84 0 0
0.88 0 0
0.92 0 0
0.96 0 0
1 0 0
1.04 0 0
1.08 0 0
1.12 0 0
1.16 0 0
1.2 0 0
1.24 0 0
1.28 0 0
1.32 0 0
1.36 0 0
1.4 0 0
1.44 0 0
1.48 0 0
1.52 0 0
1.56 0 0
1.6 0 0
1.64 0 0
1.68 0 0
1.72 0 0
1.76 0 0
1.8 0 0
1.84 0 0
1.88 0 0
1.92 0 0
1.96 0 0
2 0 0
2.04 0 0
2.08 0 0
2.12 0 0
2.16 0 0
2.2 0 0
2.24 0 0
2.28 0 0
2.32 0 0
2.36 0 0
2.4 0 0
2.44 0 0
2.48 0 0
2.52 0 0
2.56 0 0
2.6 0 0
2.64 0 0
2.68 0 0
2.72 0 0
2.76 0 0
2.8 0 0
2.84 0 0
2.88 0 0
2.92 0 0
2.96 0 0
3 0 0
3.04 0 0
3.08 0 0
3.12 0 0
3.16 0 0
3.2 0 0
3.24 0 0
3.28 0 0
3.32 0 0
3.36 0 0
3.4 0 0
3.44 0 0
3.48 0 0
3.52 0 0
3.56 0 0
3.6 0 0
3.64 0 0
3.68 0 0
3.72 0 0
3.76 0 0
3.8 0 0
3.84 0 0
3.88 0 0
3.92 0 0
3.96 0 0
4 0 0
4.04 0 0
4.08 0 0
4.12 0 0
4.16 0 0
4.2 0 0
4.24 0 0
4.28 0 0
4.32 0 0
4.36 0 0
4.4 0 0
4.44 0 0
4.48 0 0
4.52 0 0
4.56 0 0
4.6 0 0
4.64 0 0
4.68 0 0
4.72 0 0
4.76 0 0
4.8 0 0
4.84 0 0
4.88 0 0
4.92 0 0
4.96 0 0
5 0 0
5.04 0 0
5.08 0 0
5.12 0 0
5.16 0 0
5.2 0 0
5.24 0 0
5.28 0 0
5.32 0 0
5.36 0 0
5.4 0 0
5.44 0 0
5.48 0 0
5.52 0 0
5.56 0 0
5.6 0 0
5.64 0 0
5.68 0 0
5.72 0 0
5.76 0 0
5.8 0 0
5.84 0 0
5.88 0 0
5.92 0 0
5.96 0 0
6 0 0
6.04 0 0
6.08 0 0
6.12 0 0
6.16 0 0
6.2 0 0
6.24 0 0
6.28 0 0
6.32 0 0
6.36 0 0
6.4 0 0
6.44 0 0
6.48 0 0
6.52 0 0
6.56 0 0
6.6 0 0
6.64 0 0
6.68 0 0
6.72 0 0
6.76 0 0
6.8 0 0
6.84 0 0
6.88 0 0
6.92 0 0
6.96 0 0
7 0 0
7.04 0 0
7.08 0 0
7.12 0 0
7.16 0 0
7.2 0 0
7.24 0 0
7.28 0 0
7.32 0 0
7.36 0 0
7.4 0 0
7.44 0 0
7.48 0 0
7.52 0 0
7.56 0 0
7.6 0 0
7.64 0 0
7.68 0 0
7.72 0 0
7.76 0 0
7.8 0 0
7.84 0 0
7.88 0 0
7.92 0 0
7.96 0 0
8 0 0
8.04 0 0
8.08 0 0
8.12 0 0
8.16 0 0
8.2 0 0
8.24 0 0
8.28 0 0
8.32 0 0
8.36 0 0
8.4 0 0
8.44 0 0
8.48 0 0
8.52 0 0
8.56 0 0
8.6 0 0
8.64 0 0
8.68 0 0
8.72 0 0
8.76 0 0
8.8 0 0
8.84 0 0
8.88 0 0
8.92 0 0
8.96 0 0
9 0 0
9.04 0 0
9.08 0 0
9.12 0 0
9.16 0 0
9.2 0 0
9.24 0 0
9.28 0 0
9.32 0 0
9.36 0 0
9.4 0 0
9.44 0 0
9.48 0 0
9.52 0 0
9.56 0 0
9.6 0 0
9.64 0 0
9.68 0 0
9.72 0 0
9.76 0 0
9.8 0 0
9.84 0 0
9.88 0 0
9.92 0 0
9.96 0 0
10 0 0
10.04 0 0
10.08 0 0
10.12 0 0
10.16 0 0
10.2 0 0
10.24 0 0
10.28 0 0
10.32 0 0
10.36 0 0
10.4 0 0
10.44 0 0
10.48 0 0
10.52 0 0
10.56 0 0
10.6 0 0
10.64 0 0
10.68 0 0
10.72 0 0
10.76 0 0
10.8 0 0
10.84 0 0
10.88 0 0
10.92 0 0
10.96 0 0
11 0 0
11.04 0 0
11.08 0 0
11.12 0 0
11.16 0 0
11.2 0 0
11.24 0 0
11.28 0 0
11.32 0 0
11.36 0 0
11.4 0 0
11.44 0 0
11.48 0 0
11.52 0 0
11.56 0 0
11.6 0 0
11.64 0 0
11.68 0 0
11.72 0 0
11.76 0 0
11.8 0 0
11.84 0 0
11.88 0 0
11.92 0 0
11.96 0 0
12 0 0
12.04 0 0
12.08 0 0
12.12 0 0
12.16 0 0
12.2 0 0
12.24 0 0
12.28 0 0
12.32 0 0
12.36 0 0
12.4 0 0
12.44 0 0
12.48 0 0
12.52 0 0
12.56 0 0
12.6 0 0
12.64 0 0
12.68 0 0
12.72 0 0
12.76 0 0
12.8 0 0
12.84 0 0
12.88 0 0
12.92 0 0
12.96 0 0
13 0 0
13.04 0 0
13.08 0 0
13.12 0 0
13.16 0 0
13.2 0 0
13.24 0 0
13.28 0 0
13.32 0 0
13.36 0 0
13.4 0 0
13.44 0 0
13.48 0 0
13.52 0 0
13.56 0 0
13.6 0 0
13.64 0 0
13.68 0 0
13.72 0 0
13.76 0 0
13.8 0 0
13.84 0 0
13.88 0 0
13.92 0 0
13.96 0 0
14 0 0
14.04 0 0
14.08 0 0
14.12 0 0
14.16 0 0
14.2 0 0
14.24 0 0
14.28 0 0
14.32 0 0
14.36 0 0
14.4 0 0
14.44 0 0
14.48 0 0
14.52 0 0
14.56 0 0
14.6 0 0
14.64 0 0
14.68 0 0
14.72 0 0
14.76 0 0
14.8 0 0
14.84 0 0
14.88 0 0
14.92 0 0
14.96 0 0
15 0 0
15.04 0 0
15.08 0 0
15.12 0 0
15.16 0 0
15.2 0 0
15.24 0 0
15.28 0 0
15.32 0 0
15.36 0 0
15.4 0 0
15.44 0 0
15.48 0 0
15.52 0 0
15.56 0 0
15.6 0 0
15.64 0 0
15.68 0 0
15.72 0 0
15.76 0 0
15.8 0 0
15.84 0 0
15.88 0 0
15.92 0 0
15.96 0 0
16 0 0
16.04 0 0
16.08 0 0
16.12 0 0
16.16 0 0
16.2 0 0
16.24 0 0
16.28 0 0
16.32 0 0
16.36 0 0
16.4 0 0
16.44 0 0
16.48 0 0
16.52 0 0
16.56 0 0
16.6 0 0
16.64 0 0
16.68 0 0
16.72 0 0
16.76 0 0
16.8 0 0
16.84 0 0
16.88 0 0
16.92 0 0
16.96 0 0
17 0 0
17.04 0 0
17.08 0 0
17.12 0 0
17.16 0 0
17.2 0 0
17.24 0 0
17.28 0 0
17.32 0 0
17.36 0 0
17.4 0 0
17.44 0 0
17.48 0 0
17.52 0 0
17.56 0 0
17.6 0 0
17.64 0 0
17.68 0 0
17.72 0 0
17.76 0 0
17.8 0 0
17.84 0 0
17.88 0 0
17.92 0 0
17.96 0 0
18 0 0
18.04 0 0
18.08 0 0
18.12 0 0
18.16 0 0
18.2 0 0
18.24 0 0
18.28 0 0
18.32 0 0
18.36 0 0
18.4 0 0
18.44 0 0
18.48 0 0
18.52 0 0
18.56 0 0
18.6 0 0
18.64 0 0
18.68 0 0
18.72 0 0
18.76 0 0
18.8 0 0
18.84 0 0
18.88 0 0
18.92 0 0
18.96 0 0
19 0 0
19.04 0 0
19.08 0 0
19.12 0 0
19.16 0 0
19.2 0 0
19.24 0 0
19.28 0 0
19.32 0 0
19.36 0 0
19.4 0 0
19.44 0 0
19.48 0 0
19.52 0 0
19.56 0 0
19.6 0 0
19.64 0 0
19.68 0 0
19.72 0 0
19.76 0 0
19.8 0 0
19.84 0 0
19.88 0 0
19.92 0 0
19.96 0 0
20 0 0
20.04 0 0
20.08 0 0
20.12 0 0
20.16 0 0
20.2 0 0
20.24 0 0
20.28 0 0
20.32 0 0
20.36 0 0
20.4 0 0
20.44 0 0
20.48 0 0
20.52 0 0
20.56 0 0
20.6 0 0
20.64 0 0
20.68 0 0
20.72 0 0
20.76 0 0
20.8 0 0
20.84 0 0
20.88 0 0
20.92 0 0
20.96 0 0
21 0 0
21.04 0 0
21.08 0 0
21.12 0 0
21.16 0 0
21.2 0 0
21.24 0 0
21.28 0 0
21.32 0 0
21.36 0 0
21.4 0 0
21.44 0 0
21.48 0 0
21.52 0 0
21.56 0 0
21.6 0 0
21.64 0 0
21.68 0 0
21.72 0 0
21.76 0 0
21.8 0 0
21.84 0 0
21.88 0 0
21.92 0 0
21.96 0 0
22 0 0
22.04 0 0
22.08 0 0
22.12 0 0
22.16 0 0
22.2 0 0
22.24 0 0
22.28 0 0
22.32 0 0
22.36 0 0
22.4 0 0
22.44 0 0
22.48 0 0
22.52 0 0
22.56 0 0
22.6 0 0
22.64 0 0
22.68 0 0
22.72 0 0
22.76 0 0
22.8 0 0
22.84 0 0
22.88 0 0
22.92 0 0
22.96 0 0
23 0 0
23.04 0 0
23.08 0 0
23.12 0 0
23.16 0 0
23.2 0 0
23.24 0 0
23.28 0 0
23.32 0 0
23.36 0 0
23.4 0 0
23.44 0 0
23.48 0 0
23.52 0 0
23.56 0 0
23.6 0 0
23.64 0 0
23.68 0 0
23.72 0 0
23.76 0 0
23.8 0 0
23.84 0 0
23.88 0 0
23.92 0 0
23.96 0 0
24 0 0
24.04 0 0
24.08 0 0
24.12 0 0
24.16 0 0
24.2 0 0
24.24 0 0
24.28 0 0
24.32 0 0
24.36 0 0
24.4 0 0
24.44 0 0
24.48 0 0
24.52 0 0
24.56 0 0
24.6 0 0
24.64 0 0
24.68 0 0
24.72 0 0
24.76 0 0
24.8 0 0
24.84 0 0
24.88 0 0
24.92 0 0
24.96 0 0
25 0 0
25.04 0 0
25.08 0 0
25.12 0 0
25.16 0 0
25.2 0 0
25.24 0 0
25.28 0 0
25.32 0 0
25.36 0 0
25.4 0 0
25.44 0 0
25.48 0 0
25.52 0 0
25.56 0 0
25.6 0 0
25.64 0 0
25.68 0 0
25.72 0 0
25.76 0 0
25.8 0 0
25.84 0 0
25.88 0 0
25.92 0 0
25.96 0 0
26 0 0
26.04 0 0
26.08 0 0
26.12 0 0
26.16 0 0
26.2 0 0
26.24 0 0
26.28 0 0
26.32 0 0
26.36 0 0
26.4 0 0
26.44 0 0
26.48 0 0
26.52 0 0
26.56 0 0
26.6 0 0
26.64 0 0
26.68 0 0
26.72 0 0
26.76 0 0
26.8 0 0
26.84 0 0
26.88 0 0
26.92 0 0
26.96 0 0
27 0 0
27.04 0 0
27.08 0 0
27.12 0 0
27.16 0 0
27.2 0 0
27.24 0 0
27.28 0 0
27.32 0 0
27.36 0 0
27.4 0 0
27.44 0 0
27.48 0 0
27.52 0 0
27.56 0 0
27.6 0 0
27.64 0 0
27.68 0 0
27.72 0 0
27.76 0 0
27.8 0 0
27.84 0 0
27.88 0 0
27.92 0 0
27.96 0 0
28 0 0
28.04 0 0
28.08 0 0
28.12 0 0
28.16 0 0
28.2 0 0
28.24 0 0
28.28 0 0
28.32 0 0
28.36 0 0
28.4 0 0
28.44 0 0
28.48 0 0
28.52 0 0
28.56 0 0
28.6 0 0
28.64 0 0
28.68 0 0
28.72 0 0
28.76 0 0
28.8 0 0
28.84 0 0
28.88 0 0
28.92 0 0
28.96 0 0
29 0 0
29.04 0 0
29.08 0 0
29.12 0 0
29.16 0 0
29.2 0 0
29.24 0 0
29.28 0 0
29.32 0 0
29.36 0 0
29.4 0 0
29.44 0 0
29.48 0 0
29.52 0 0
29.56 0 0
29.6 0 0
29.64 0 0
29.68 0 0
29.72 0 0
29.76 0 0
29.8 0 0
29.84 0 0
29.88 0 0
29.92 0 0
29.96 0 0
30 0 0
30.04 0 0
30.08 0 0
30.12 0 0
30.16 0 0
30.2 0 0
30.24 0 0
30.28 0 0
30.32 0 0
30.36 0 0
30.4 0 0
30.44 0 0
30.48 0 0
30.52 0 0
30.56 0 0
30.6 0 0
30.64 0 0
30.68 0 0
30.72 0 0
30.76 0 0
30.8 0 0
30.84 0 0
30.88 0 0
30.92 0 0
30.96 0 0
31 0 0
31.04 0 0
31.08 0 0
31.12 0 0
31.16 0 0
31.2 0 0
31.24 0 0
31.28 0 0
31.32 0 0
31.36 0 0
31.4 0 0
31.44 0 0
31.48 0 0
31.52 0 0
31.56 0 0
31.6 0 0
31.64 0 0
31.68 0 0
31.72 0 0
31.76 0 0
31.8 0 0
31.84 0 0
31.88 0 0
31.92 0 0
31.96 0 0
0 0.005 0
0.04 0.005 0
0.08 0.005 0
0.12 0.005 0
0.16 0.005 0
0.2 0.005 0
0.24 0.005 0
0.28 0.005 0
0.32 0.005 0
0.36 0.005 0
0.4 0.005 0
0.44 0.005 0
0.48 0.005 0
0.52 0.005 0
0.56 0.005 0
0.6 0.005 0
0.64 0.005 0
0.68 0.005 0
0.72 0.005 0
0.76 0.005 0
0.8 0.005 0
0.84 0.005 0
0.88 0.005 0
0.92 0.005 0
0.96 0.005 0
1 0.005 0
1.04 0.005 0
1.08 0.005 0
1.12 0.005 0
1.16 0.005 0
1.2 0.005 0
1.24 0.005 0
1.28 0.005 0
1.32 0.005 0
1.36 0.005 0
1.4 0.005 0
1.44 0.005 0
1.48 0.005 0
1.52 0.005 0
1.56 0.005 0
1.6 0.005 0
1.64 0.005 0
1.68 0.005 0
1.72 0.005 0
1.76 0.005 0
1.8 0.005 0
1.84 0.005 0
1.88 0.005 0
1.92 0.005 0
1.96 0.005 0
2 0.005 0
2.04 0.005 0
2.08 0.005 0
2.12 0.005 0
2.16 0.005 0
2.2 0.005 0
2.24 0.005 0
2.28 0.005 0
2.32 0.005 0
2.36 0.005 0
2.4 0.005 0
2.44 0.005 0
2.48 0.005 0
2.52 0.005 0
2.56 0.005 0
2.6 0.005 0
2.64 0.005 0
2.68 0.005 0
2.72 0.005 0
2.76 0.005 0
2.8 0.005 0
2.84 0.005 0
2.88 0.005 0
2.92 0.005 0
2.96 0.005 0
3 0.005 0
3.04 0.005 0
3.08 0.005 0
3.12 0.005 0
3.16 0.005 0
3.2 0.005 0
3.24 0.005 0
3.28 0.005 0
3.32 0.005 0
3.36 0.005 0
3.4 0.005 0
3.44 0.005 0
3.48 0.005 0
3.52 0.005 0
3.56 0.005 0
3.6 0.005 0
3.64 0.005 0
3.68 0.005 0
3.72 0.005 0
3.76 0.005 0
3.8 0.005 0
3.84 0.005 0
3.88 0.005 0
3.92 0.005 0
3.96 0.005 0
4 0.005 0
4.04 0.005 0
4.08 0.005 0
4.12 0.005 0
4.16 0.005 0
4.2 0.005 0
4.24 0.005 0
4.28 0.005 0
4.32 0.005 0
4.36 0.005 0
4.4 0.005 0
4.44 0.005 0
4.48 0.005 0
4.52 0.005 0
4.56 0.005 0
4.6 0.005 0
4.64 0.005 0
4.68 0.005 0
4.72 0.005 0
4.76 0.005 0
4.8 0.005 0
4.84 0.005 0
4.88 0.005 0
4.92 0.005 0
4.96 0.005 0
5 0.005 0
5.04 0.005 0
5.08 0.005 0
5.12 0.005 0
5.16 0.005 0
5.2 0.005 0
5.24 0.005 0
5.28 0.005 0
5.32 0.005 0
5.36 0.005 0
5.4 0.005 0
5.44 0.005 0
5.48 0.005 0
5.52 0.005 0
5.56 0.005 0
5.6 0.005 0
5.64 0.005 0
5.68 0.005 0
5.72 0.005 0
5.76 0.005 0
5.8 0.005 0
5.84 0.005 0
5.88 0.005 0
5.92 0.005 0
5.96 0.005 0
6 0.005 0
6.04 0.005 0
6.08 0.005 0
6.12 0.005 0
6.16 0.005 0
6.2 0.005 0
6.24 0.005 0
6.28 0.005 0
6.32 0.005 0
6.36 0.005 0
6.4 0.005 0
6.44 0.005 0
6.48 0.005 0
6.52 0.005 0
6.56 0.005 0
6.6 0.005 0
6.64 0.005 0
6.68 0.005 0
6.72 0.005 0
6.76 0.005 0
6.8 0.005 0
6.84 0.005 0
6.88 0.005 0
6.92 0.005 0
6.96 0.005 0
7 0.005 0
7.04 0.005 0
7.08 0.005 0
7.12 0.005 0
7.16 0.005 0
7.2 0.005 0
7.24 0.005 0
7.28 0.005 0
7.32 0.005 0
7.36 0.005 0
7.4 0.005 0
[...]
POINT_DATA 160000

SCALARS v float 1
LOOKUP_TABLE default
0
0
0
0
0
0
0
0
0
0
0
0
0
0
0
0
0
0
0
0
0
0
0
0
0
0
0
0
0
0
0
0
0
0
0
0
0
0
0
0
0
0
0
0
0
0
0
0
0
0
0
0
0
0
0
0
0
0
0
0
0
0
0
0
0
0
0
0
0
0
0
0
0
0
0
0
0
0
0
0
0
0
0
0
0
0
0
0
0
0
0
0
0
0
0
0
0
0
0
0
0
0
0
0
0
0
0
0
0
0
0
0
0
0
0
0
0
0
0
0
0
0
0
0
0
0
0
0
0
0
0
0
0
0
0
0
0
0
0
0
0
0
0
0
0
0
0
0
0
0
0
0
0
0
0
0
0
0
0
0
0
0
0
0
0
0
0
0
0
0
0
0
0
0
0
0
0
0
0
0
0
0
0
0
0
0
0
0
0
0
0
0
0
0
0
0
0
0
0
0
0
0
0
0
0
0
0
0
0
0
0
0
0
0
0
0
0
0
0
0
0
0
0
0
0
0
0
0
0
0
0
0
0
0
0
0
0
0
0
0
0
0
0
0
0
0
0
0
0
0
0
0
0
0
0
0
0
0
0
0
0
0
0
0
0
0
0
0
0
0
0
0
0
0
0
0
0
0
0
0
0
0
0
0
0
0
0
0
0
0
0
0
0
0
0
0
0
0
0
0
0
0
0
0
0
0
0
0
0
0
0
0
0
0
0
0
0
0
0
0
0
0
0
0
0
0
0
0
0
0
0
0
0
0
0
0
0
0
0
0
0
0
0
0
0
0
0
0
0
0
0
0
0
0
0
0
0
0
0
0
0
0
0
0
0
0
0
0
0
0
0
0
0
0
0
0
0
0
0
0
0
0
0
0
0
0
0
0
0
0
0
0
0
0
0
0
0
0
0
0
0
0
0
0
0
0
0
0
0
0
0
0
0
0
0
0
0
0
0
0
0
0
0
0
0
0
0
0
0
0
0
0
0
0
0
0
0
0
0
0
0
0
0
0
0
0
0
0
0
0
0
0
0
0
0
0
0
0
0
0
0
0
0
0
0
0
0
0
0
0
0
0
0
0
0
0
0
0
0
0
0
0
0
0
0
0
0
0
0
0
0
0
0
0
0
0
0
0
0
0
0
0
0
0
0
0
0
0
0
0
0
0
0
0
0
0
0
0
0
0
0
0
0
0
0
0
0
0
0
0
0
0
0
0
0
0
0
0
0
0
0
0
0
0
0
0
0
0
0
0
0
0
0
0
0
0
0
0
0
0
0
0
0
0
0
0
0
0
0
0
0
0
0
0
0
0
0
0
0
0
0
0
0
0
0
0
0
0
0
0
0
0
0
0
0
0
0
0
0
0
0
0
0
0
0
0
0
0
0
0
0
0
0
0
0
0
0
0
0
0
0
0
0
0
0
0
0
0
0
0
0
0
0
0
0
0
0
0
0
0
0
0
0
0
0
0
0
0
0
0
0
0
0
0
0
0
0
0
0
0
0
0
0
0
0
0
0
0
0
0
0
0
0
0
0
0
0
0
0
0
0
0
0
0
0
0
0
0
0
0
0
0
0
0
0
0
0
0
0
0
0
0
0
0
0
0
0
0
0
0
0
0
0
0
0
0
0
0
0
0
0
0
0
0
0
0
0
0
0
0
0
0
0
0
0
0
0
0
0
0
0
0
0
0
0
0
0
0
0
0
0
0
0
0
0
0
0
0
0
0
0
0
0
0
0
0
0
0
0
0
0
0
0
0
0
0
0
0
0
0
0
0
0
0
0
0
0
0
0
0
0
0
0
0
0
0
0
0
0
0
0
0
0.0374158
0.00938111
0.00346795
0.00176633
0.00108085
0.000737091
0.000538314
0.000411769
0.00032557
0.000263882
0.000218061
0.00018303
0.000155629
0.000133793
0.00011612
0.000101629
8.961e-05
7.95421e-05
7.10323e-05
6.37804e-05
5.75536e-05
5.21695e-05
4.7483e-05
4.33784e-05
3.97621e-05
3.65581e-05
3.37042e-05
3.11493e-05
2.88512e-05
2.67747e-05
2.48903e-05
2.31734e-05
2.16032e-05
2.01621e-05
1.8835e-05
1.76093e-05
1.64738e-05
1.54191e-05
1.44369e-05
1.35203e-05
1.26628e-05
1.18592e-05
1.11045e-05
1.03945e-05
9.72558e-06
9.09428e-06
8.49766e-06
7.93302e-06
7.39798e-06
6.89037e-06
6.40823e-06
5.9498e-06
5.51345e-06
5.09772e-06
4.70126e-06
4.32284e-06
3.96134e-06
3.61571e-06
3.285e-06
2.96833e-06
2.66488e-06
2.3739e-06
2.0947e-06
1.8266e-06
1.56902e-06
1.32138e-06
1.08316e-06
8.53891e-07
6.33098e-07
4.20346e-07
2.15245e-07
1.74161e-08
-1.73493e-07
-3.5781e-07
-5.35847e-07
-7.07902e-07
-8.74247e-07
-1.03514e-06
-1.19082e-06
-1.34153e-06
-1.48749e-06
-1.62888e-06
-1.76592e-06
-1.89879e-06
-2.02767e-06
-2.15271e-06
-2.27407e-06
-2.3919e-06
-2.50635e-06
-2.61755e-06
-2.72562e-06
-2.83068e-06
-2.93286e-06
-3.03225e-06
-3.12898e-06
-3.22313e-06
-3.3148e-06
-3.40408e-06
-3.49105e-06
-3.57581e-06
-3.65841e-06
-3.73896e-06
-3.81751e-06
-3.89414e-06
-3.9689e-06
-4.04186e-06
-4.11309e-06
-4.18265e-06
-4.25057e-06
-4.31692e-06
-4.38176e-06
-4.44512e-06
-4.50706e-06
-4.56762e-06
-4.62685e-06
-4.68478e-06
-4.74146e-06
-4.79692e-06
-4.8512e-06
-4.90434e-06
-4.95636e-06
-5.00731e-06
-5.05721e-06
-5.10611e-06
-5.15401e-06
-5.20096e-06
-5.24698e-06
-5.29209e-06
-5.33633e-06
-5.37971e-06
-5.42226e-06
-5.464e-06
-5.50496e-06
-5.54515e-06
-5.5846e-06
-5.62333e-06
-5.66135e-06
-5.69869e-06
-5.73536e-06
-5.77137e-06
-5.80675e-06
-5.8415e-06
-5.87566e-06
-5.90924e-06
-5.94223e-06
-5.97467e-06
-6.00657e-06
-6.03793e-06
-6.06877e-06
-6.0991e-06
-6.12894e-06
-6.1583e-06
-6.18718e-06
-6.21561e-06
-6.24358e-06
-6.27111e-06
-6.29821e-06
-6.32489e-06
-6.35117e-06
-6.37704e-06
-6.40252e-06
-6.42761e-06
-6.45233e-06
-6.47668e-06
-6.50066e-06
-6.5243e-06
-6.5476e-06
-6.57055e-06
-6.59317e-06
-6.61547e-06
-6.63746e-06
-6.65913e-06
-6.6805e-06
-6.70157e-06
-6.72235e-06
-6.74284e-06
-6.76305e-06
-6.78299e-06
-6.80265e-06
-6.82205e-06
-6.84119e-06
-6.86007e-06
-6.87871e-06
-6.89709e-06
-6.91524e-06
-6.93315e-06
-6.95083e-06
-6.96828e-06
-6.9855e-06
-7.00251e-06
-7.0193e-06
-7.03587e-06
-7.05223e-06
-7.06839e-06
-7.08436e-06
-7.10012e-06
-7.11568e-06
-7.13106e-06
-7.14625e-06
-7.16125e-06
-7.17606e-06
-7.1907e-06
-7.20517e-06
-7.21946e-06
-7.23358e-06
-7.24752e-06
-7.2613e-06
-7.27492e-06
-7.28839e-06
-7.30169e-06
-7.31483e-06
-7.32782e-06
-7.34067e-06
-7.35336e-06
-7.3659e-06
-7.3783e-06
-7.39057e-06
-7.40269e-06
-7.41467e-06
-7.42651e-06
-7.43822e-06
-7.4498e-06
-7.46125e-06
-7.47257e-06
-7.48376e-06
-7.49483e-06
-7.50577e-06
-7.51659e-06
-7.5273e-06
-7.53788e-06
-7.54834e-06
-7.5587e-06
-7.56894e-06
-7.57906e-06
-7.58908e-06
-7.59899e-06
-7.60878e-06
-7.61848e-06
-7.62806e-06
-7.63755e-06
-7.64692e-06
-7.6562e-06
-7.66538e-06
-7.67447e-06
-7.68345e-06
-7.69234e-06
-7.70113e-06
-7.70983e-06
-7.71843e-06
-7.72694e-06
-7.73536e-06
-7.7437e-06
-7.75195e-06
-7.76011e-06
-7.76819e-06
-7.77617e-06
-7.78408e-06
-7.7919e-06
-7.79964e-06
-7.80729e-06
-7.81487e-06
-7.82237e-06
-7.82979e-06
-7.83713e-06
-7.8444e-06
-7.85159e-06
-7.85871e-06
-7.86574e-06
-7.87271e-06
-7.87961e-06
-7.88644e-06
-7.89319e-06
-7.89987e-06
-7.90649e-06
-7.91303e-06
-7.91951e-06
-7.92593e-06
-7.93227e-06
-7.93855e-06
-7.94477e-06
-7.95092e-06
-7.95701e-06
-7.96304e-06
-7.969e-06
-7.97491e-06
-7.98075e-06
-7.98653e-06
-7.99226e-06
-7.99792e-06
-8.00353e-06
-8.00908e-06
-8.01457e-06
-8.02e-06
-8.0254e-06
-8.03073e-06
-8.036e-06
-8.04121e-06
-8.04638e-06
-8.0515e-06
-8.05656e-06
-8.06157e-06
-8.06653e-06
-8.07143e-06
-8.0763e-06
-8.08111e-06
-8.08586e-06
-8.09058e-06
-8.09524e-06
-8.09986e-06
-8.10443e-06
-8.10895e-06
-8.11343e-06
-8.11786e-06
-8.12225e-06
-8.1266e-06
-8.1309e-06
-8.13515e-06
-8.13937e-06
-8.14354e-06
-8.14766e-06
-8.15175e-06
-8.1558e-06
-8.1598e-06
-8.16376e-06
-8.16769e-06
-8.17157e-06
-8.17542e-06
-8.17922e-06
-8.18299e-06
-8.18672e-06
-8.19041e-06
-8.19406e-06
-8.19768e-06
-8.20126e-06
-8.20481e-06
-8.20832e-06
-8.21179e-06
-8.21523e-06
-8.21863e-06
-8.22201e-06
-8.22534e-06
-8.22864e-06
-8.23191e-06
-8.23515e-06
-8.23835e-06
-8.24152e-06
-8.24466e-06
-8.24777e-06
-8.25085e-06
-8.25389e-06
-8.2569e-06
-8.25989e-06
-8.26284e-06
-8.26577e-06
-8.26866e-06
-8.27152e-06
-8.27436e-06
-8.27717e-06
-8.27995e-06
-8.2827e-06
-8.28542e-06
-8.28812e-06
-8.29078e-06
-8.29343e-06
-8.29605e-06
-8.29864e-06
-8.3012e-06
-8.30373e-06
-8.30624e-06
-8.30874e-06
-8.31119e-06
-8.31363e-06
-8.31604e-06
-8.31843e-06
-8.3208e-06
-8.32313e-06
-8.32545e-06
-8.32774e-06
-8.33001e-06
-8.33225e-06
-8.33448e-06
-8.33668e-06
-8.33886e-06
-8.34102e-06
-8.34316e-06
-8.34527e-06
-8.34736e-06
-8.34943e-06
-8.35149e-06
-8.35352e-06
-8.35553e-06
-8.35751e-06
-8.35948e-06
-8.36143e-06
-8.36336e-06
-8.36528e-06
-8.36716e-06
-8.36904e-06
-8.37089e-06
-8.37272e-06
-8.37453e-06
-8.37633e-06
-8.37811e-06
-8.37987e-06
-8.38161e-06
-8.38334e-06
-8.38505e-06
-8.38674e-06
-8.38841e-06
-8.39007e-06
-8.39171e-06
-8.39333e-06
-8.39494e-06
-8.39653e-06
-8.3981e-06
-8.39966e-06
-8.4012e-06
-8.40272e-06
-8.40423e-06
-8.40573e-06
-8.40722e-06
-8.40868e-06
-8.41013e-06
-8.41156e-06
-8.41299e-06
-8.41439e-06
-8.41578e-06
-8.41717e-06
-8.41853e-06
-8.41988e-06
-8.42122e-06
-8.42254e-06
-8.42385e-06
-8.42516e-06
-8.42644e-06
-8.42771e-06
-8.42897e-06
-8.43022e-06
-8.43146e-06
-8.43268e-06
-8.43389e-06
-8.43509e-06
-8.43628e-06
-8.43746e-06
-8.43862e-06
-8.43977e-06
-8.44092e-06
-8.44205e-06
-8.44318e-06
-8.44429e-06
-8.4454e-06
-8.4465e-06
-8.44758e-06
-8.44866e-06
-8.44973e-06
-8.45078e-06
-8.45183e-06
-8.45287e-06
-8.45391e-06
-8.45493e-06
-8.45595e-06
-8.45695e-06
-8.45795e-06
-8.45895e-06
-8.45994e-06
-8.46092e-06
-8.46189e-06
-8.46285e-06
-8.46381e-06
-8.46477e-06
-8.46572e-06
-8.46666e-06
-8.4676e-06
-8.46852e-06
-8.46945e-06
-8.47037e-06
-8.47129e-06
-8.4722e-06
-8.4731e-06
-8.47401e-06
-8.47491e-06
-8.4758e-06
-8.47667e-06
-8.47756e-06
-8.47844e-06
-8.47932e-06
-8.48019e-06
-8.48106e-06
-8.48192e-06
-8.48278e-06
-8.48364e-06
-8.48449e-06
-8.48534e-06
-8.48618e-06
-8.48703e-06
-8.48787e-06
-8.4887e-06
-8.48954e-06
-8.49037e-06
-8.49119e-06
-8.49202e-06
-8.49285e-06
-8.49366e-06
-8.49447e-06
-8.49528e-06
-8.49609e-06
-8.4969e-06
-8.4977e-06
-8.49849e-06
-8.49929e-06
-8.50008e-06
-8.50087e-06
-8.50166e-06
-8.50243e-06
-8.50321e-06
-8.50398e-06
-8.50476e-06
-8.50552e-06
-8.50628e-06
-8.50703e-06
-8.50778e-06
-8.50853e-06
-8.50928e-06
-8.51003e-06
-8.51076e-06
-8.51149e-06
-8.51221e-06
-8.51293e-06
-8.51366e-06
-8.51437e-06
-8.51508e-06
-8.51578e-06
-8.51647e-06
-8.51716e-06
-8.51784e-06
-8.51851e-06
-8.51919e-06
-8.51986e-06
-8.52052e-06
-8.52117e-06
-8.52182e-06
-8.52246e-06
-8.5231e-06
-8.52373e-06
-8.52435e-06
-8.52496e-06
-8.52557e-06
-8.52617e-06
-8.52676e-06
-8.52735e-06
-8.52793e-06
-8.5285e-06
-8.52907e-06
-8.52963e-06
-8.53018e-06
-8.53071e-06
-8.53125e-06
-8.53177e-06
-8.53229e-06
-8.5328e-06
-8.5333e-06
-8.5338e-06
-8.53429e-06
-8.53476e-06
-8.53523e-06
-8.5357e-06
-8.53615e-06
-8.5366e-06
-8.53704e-06
-8.53747e-06
-8.53789e-06
-8.5383e-06
-8.53871e-06
-8.53911e-06
-8.5395e-06
-8.53988e-06
-8.54026e-06
-8.54062e-06
-8.54098e-06
-8.54133e-06
-8.54168e-06
-8.54201e-06
-8.54233e-06
-8.54265e-06
-8.54296e-06
-8.54327e-06
-8.54357e-06
-8.54385e-06
-8.54413e-06
-8.5444e-06
-8.54467e-06
-8.54493e-06
-8.54518e-06
-8.54543e-06
-8.54566e-06
-8.5459e-06
-8.54612e-06
-8.54634e-06
-8.54656e-06
-8.54676e-06
-8.54696e-06
-8.54715e-06
-8.54733e-06
-8.54752e-06
-8.54769e-06
-8.54786e-06
-8.54802e-06
-8.54818e-06
-8.54833e-06
-8.54848e-06
-8.54862e-06
-8.54875e-06
-8.54888e-06
-8.54901e-06
-8.54913e-06
-8.54925e-06
-8.54937e-06
-8.54947e-06
-8.54957e-06
-8.54967e-06
-8.54977e-06
-8.54986e-06
-8.54995e-06
-8.55003e-06
-8.55011e-06
-8.55019e-06
-8.55026e-06
-8.55034e-06
-8.5504e-06
-8.55046e-06
-8.55052e-06
-8.55058e-06
-8.55064e-06
-8.55069e-06
-8.55074e-06
-8.55079e-06
-8.55084e-06
-8.55088e-06
-8.55092e-06
-8.55096e-06
-8.551e-06
-8.55103e-06
-8.55107e-06
-8.5511e-06
-8.55113e-06
-8.55115e-06
-8.55118e-06
-8.5512e-06
-8.55123e-06
-8.55125e-06
-8.55128e-06
-8.5513e-06
-8.55132e-06
-8.55133e-06
-8.55135e-06
-8.55137e-06
-8.55138e-06
-8.5514e-06
-8.55141e-06
-8.55143e-06
-8.55144e-06
-8.55145e-06
-8.55146e-06
-8.55147e-06
-8.55149e-06
-8.5515e-06
-8.5515e-06
-8.55151e-06
-8.55152e-06
-8.55153e-06
-8.55154e-06
-8.55155e-06
-8.55156e-06
-8.55156e-06
-8.55157e-06
-8.55157e-06
-8.55158e-06
-8.55159e-06
-8.5516e-06
-8.55161e-06
-8.55161e-06
-8.55161e-06
-8.55162e-06
-8.55163e-06
-8.55164e-06
-8.55164e-06
-8.55164e-06
-8.55164e-06
-8.55165e-06
-8.55166e-06
-8.55167e-06
-8.55168e-06
-8.55168e-06
-8.55168e-06
-8.55168e-06
-8.55169e-06
-8.5517e-06
-8.55171e-06
-8.55171e-06
-8.55171e-06
-8.55172e-06
-8.55173e-06
-8.55173e-06
-8.55174e-06
-8.55174e-06
-8.55175e-06
-8.55175e-06
-8.55176e-06
-8.55176e-06
-8.55177e-06
-8.55178e-06
-8.55179e-06
-8.55179e-06
-8.55179e-06
-8.5518e-06
-8.5518e-06
-8.5518e-06
-8.55181e-06
-8.55182e-06
-8.55182e-06
-8.55182e-06
-8.55183e-06
-8.55184e-06
-8.55184e-06
-8.55185e-06
-8.55186e-06
-8.55186e-06
-8.55187e-06
-8.55187e-06
-8.55187e-06
-8.55188e-06
-8.55188e-06
-8.55189e-06
-8.5519e-06
-8.55191e-06
-8.55191e-06
-8.55191e-06
-8.55192e-06
-8.55193e-06
-8.55193e-06
-8.55193e-06
-8.55194e-06
-8.55194e-06
-8.55194e-06
-8.55195e-06
-8.55196e-06
-8.55197e-06
-8.55197e-06
-8.55198e-06
-8.55198e-06
-8.55199e-06
-8.55199e-06
-8.552e-06
-8.55201e-06
-8.55201e-06
-8.55201e-06
-8.55202e-06
-8.55201e-06
-8.55202e-06
-8.55203e-06
-8.55203e-06
-8.55203e-06
-8.55203e-06
-8.55202e-06
-8.55201e-06
-8.55201e-06
-8.552e-06
-8.55199e-06
-8.55197e-06
-8.55195e-06
-8.55191e-06
-8.55187e-06
-8.55182e-06
-8.55174e-06
-8.55165e-06
-8.55152e-06
-8.55136e-06
-8.55117e-06
-8.55091e-06
-8.55059e-06
-8.55017e-06
-8.54966e-06
-8.54895e-06
-8.54812e-06
-8.54696e-06
-8.54565e-06
-8.54369e-06
-8.54162e-06
-8.53818e-06
-8.53505e-06
-8.52857e-06
-8.52441e-06
-8.51016e-06
-8.50895e-06
-8.46639e-06
-8.53853e-06
-6.03756e-06
-6.03756e-06
0
0
0.09661
0.0320527
0.0130061
0.00682635
0.00423605
0.00291411
0.00214248
0.0016484
0.00131053
0.00106805
0.000887547
0.000749299
0.000640995
0.000554573
0.000484548
0.000427069
0.000379354
0.000339351
0.000305515
0.000276662
0.000251876
0.000230433
0.000211763
0.000195407
0.000180993
0.000168222
0.000156846
0.000146661
0.000137501
0.000129225
0.000121716
0.000114875
0.000108621
0.000102881
9.75977e-05
9.27185e-05
8.81998e-05
8.40036e-05
8.00972e-05
7.6452e-05
7.30432e-05
6.98489e-05
6.685e-05
6.40295e-05
6.13723e-05
5.88652e-05
5.64962e-05
5.42547e-05
5.21309e-05
5.01164e-05
4.82032e-05
4.63844e-05
4.46533e-05
4.30043e-05
4.14318e-05
3.99311e-05
3.84976e-05
3.71272e-05
3.5816e-05
3.45606e-05
3.33577e-05
3.22043e-05
3.10976e-05
3.00351e-05
2.90143e-05
2.80329e-05
2.7089e-05
2.61805e-05
2.53056e-05
2.44627e-05
2.36501e-05
2.28664e-05
2.21101e-05
2.13799e-05
2.06747e-05
1.99931e-05
1.93343e-05
1.8697e-05
1.80804e-05
1.74835e-05
1.69054e-05
1.63454e-05
1.58027e-05
1.52765e-05
1.47661e-05
1.4271e-05
1.37904e-05
1.33238e-05
1.28706e-05
1.24303e-05
1.20024e-05
1.15864e-05
1.11819e-05
1.07883e-05
1.04054e-05
1.00326e-05
9.66969e-06
9.31623e-06
8.9719e-06
8.63637e-06
8.30933e-06
7.99048e-06
7.67952e-06
7.37619e-06
7.08024e-06
6.79141e-06
6.50945e-06
6.23414e-06
5.96528e-06
5.70263e-06
5.446e-06
5.1952e-06
4.95004e-06
4.71034e-06
4.47593e-06
4.24665e-06
4.02233e-06
3.80284e-06
3.58801e-06
3.37772e-06
3.17182e-06
2.97019e-06
2.77269e-06
2.57921e-06
2.38963e-06
2.20384e-06
2.02174e-06
1.84322e-06
1.66817e-06
1.49651e-06
1.32813e-06
1.16295e-06
1.00088e-06
8.41844e-07
6.85748e-07
5.32517e-07
3.82078e-07
2.34355e-07
8.9283e-08
-5.32052e-08
-1.93178e-07
-3.30706e-07
-4.65852e-07
-5.98664e-07
-7.29205e-07
-8.57539e-07
-9.83713e-07
-1.10777e-06
-1.22978e-06
-1.34978e-06
-1.46782e-06
-1.58395e-06
-1.69821e-06
-1.81064e-06
-1.92129e-06
-2.0302e-06
-2.13741e-06
-2.24295e-06
-2.34687e-06
-2.4492e-06
-2.54997e-06
-2.64922e-06
-2.74698e-06
-2.84328e-06
-2.93816e-06
-3.03165e-06
-3.12377e-06
-3.21455e-06
-3.30402e-06
-3.39222e-06
-3.47916e-06
-3.56487e-06
-3.64938e-06
-3.7327e-06
-3.81487e-06
-3.8959e-06
-3.97582e-06
-4.05464e-06
-4.1324e-06
-4.20911e-06
-4.28479e-06
-4.35946e-06
-4.43313e-06
-4.50583e-06
-4.57758e-06
-4.6484e-06
-4.7183e-06
-4.78728e-06
-4.85539e-06
-4.92262e-06
-4.98898e-06
-5.05451e-06
-5.11921e-06
-5.1831e-06
-5.2462e-06
-5.30851e-06
-5.37004e-06
-5.43082e-06
-5.49086e-06
-5.55015e-06
-5.60872e-06
-5.66658e-06
-5.72375e-06
-5.78023e-06
-5.83603e-06
-5.89116e-06
-5.94564e-06
-5.99947e-06
-6.05267e-06
-6.10524e-06
-6.15719e-06
-6.20855e-06
-6.2593e-06
-6.30946e-06
-6.35904e-06
-6.40805e-06
-6.45651e-06
-6.50441e-06
-6.55175e-06
-6.59855e-06
-6.64483e-06
-6.69058e-06
-6.73582e-06
-6.78055e-06
-6.82478e-06
-6.86851e-06
-6.91175e-06
-6.95451e-06
-6.9968e-06
-7.03862e-06
-7.07997e-06
-7.12088e-06
-7.16133e-06
-7.20134e-06
-7.24091e-06
-7.28004e-06
-7.31875e-06
-7.35704e-06
-7.39492e-06
-7.43238e-06
-7.46943e-06
-7.50609e-06
-7.54236e-06
-7.57824e-06
-7.61372e-06
-7.64883e-06
-7.68356e-06
-7.71792e-06
-7.75191e-06
-7.78554e-06
-7.81882e-06
-7.85175e-06
-7.88432e-06
-7.91655e-06
-7.94844e-06
-7.97999e-06
-8.01121e-06
-8.0421e-06
-8.07266e-06
-8.10291e-06
-8.13284e-06
-8.16245e-06
-8.19176e-06
-8.22076e-06
-8.24946e-06
-8.27785e-06
-8.30595e-06
-8.33376e-06
-8.36128e-06
-8.38851e-06
-8.41546e-06
-8.44213e-06
-8.46853e-06
-8.49466e-06
-8.52051e-06
-8.54609e-06
-8.57142e-06
-8.59647e-06
-8.62127e-06
-8.64583e-06
-8.67013e-06
-8.69417e-06
-8.71796e-06
-8.74152e-06
-8.76483e-06
-8.7879e-06
-8.81073e-06
-8.83334e-06
-8.85571e-06
-8.87785e-06
-8.89977e-06
-8.92145e-06
-8.94292e-06
-8.96418e-06
-8.98522e-06
-9.00603e-06
-9.02664e-06
-9.04704e-06
-9.06723e-06
-9.08721e-06
-9.10699e-06
-9.12657e-06
-9.14595e-06
-9.16513e-06
-9.18412e-06
-9.20291e-06
-9.22151e-06
-9.23993e-06
-9.25816e-06
-9.2762e-06
-9.29406e-06
-9.31174e-06
-9.32924e-06
-9.34656e-06
-9.36371e-06
-9.38068e-06
-9.39748e-06
-9.41411e-06
-9.43057e-06
-9.44687e-06
-9.463e-06
-9.47897e-06
-9.49477e-06
-9.51042e-06
-9.52591e-06
-9.54124e-06
-9.55642e-06
-9.57144e-06
-9.58631e-06
-9.60103e-06
-9.6156e-06
-9.63002e-06
-9.6443e-06
-9.65844e-06
-9.67244e-06
-9.68628e-06
-9.69999e-06
-9.71356e-06
-9.727e-06
-9.7403e-06
-9.75347e-06
-9.7665e-06
-9.7794e-06
-9.79217e-06
-9.80481e-06
-9.81732e-06
-9.82971e-06
-9.84198e-06
-9.85412e-06
-9.86613e-06
-9.87803e-06
-9.88981e-06
-9.90147e-06
-9.913e-06
-9.92442e-06
-9.93573e-06
-9.94692e-06
-9.95801e-06
-9.96898e-06
-9.97984e-06
-9.99058e-06
-1.00012e-05
-1.00118e-05
-1.00222e-05
-1.00325e-05
-1.00427e-05
-1.00528e-05
-1.00628e-05
-1.00728e-05
-1.00826e-05
-1.00923e-05
-1.01019e-05
-1.01114e-05
-1.01208e-05
-1.01302e-05
-1.01394e-05
-1.01485e-05
-1.01576e-05
-1.01665e-05
-1.01754e-05
-1.01842e-05
-1.01929e-05
-1.02015e-05
-1.021e-05
-1.02184e-05
-1.02268e-05
-1.0235e-05
-1.02432e-05
-1.02513e-05
-1.02593e-05
-1.02672e-05
-1.02751e-05
-1.02828e-05
-1.02905e-05
-1.02981e-05
-1.03057e-05
-1.03131e-05
-1.03205e-05
-1.03278e-05
-1.03351e-05
-1.03422e-05
-1.03493e-05
-1.03563e-05
-1.03633e-05
-1.03702e-05
-1.0377e-05
-1.03837e-05
-1.03904e-05
-1.0397e-05
-1.04035e-05
-1.041e-05
-1.04164e-05
-1.04227e-05
-1.0429e-05
-1.04352e-05
-1.04414e-05
-1.04474e-05
-1.04535e-05
-1.04594e-05
-1.04653e-05
-1.04712e-05
-1.0477e-05
-1.04827e-05
-1.04883e-05
-1.04939e-05
-1.04995e-05
-1.0505e-05
-1.05104e-05
-1.05158e-05
-1.05212e-05
-1.05264e-05
-1.05317e-05
-1.05368e-05
-1.0542e-05
-1.0547e-05
-1.05521e-05
-1.0557e-05
-1.0562e-05
-1.05668e-05
-1.05717e-05
-1.05765e-05
-1.05812e-05
-1.05859e-05
-1.05905e-05
-1.05951e-05
-1.05997e-05
-1.06042e-05
-1.06087e-05
-1.06132e-05
-1.06176e-05
-1.06219e-05
-1.06263e-05
-1.06306e-05
-1.06348e-05
-1.0639e-05
-1.06432e-05
-1.06474e-05
-1.06515e-05
-1.06556e-05
-1.06596e-05
-1.06637e-05
-1.06677e-05
-1.06716e-05
-1.06756e-05
-1.06795e-05
-1.06833e-05
-1.06872e-05
-1.0691e-05
-1.06948e-05
-1.06986e-05
-1.07024e-05
-1.07061e-05
-1.07098e-05
-1.07135e-05
-1.07172e-05
-1.07209e-05
-1.07245e-05
-1.07281e-05
-1.07317e-05
-1.07353e-05
-1.07388e-05
-1.07424e-05
-1.07459e-05
-1.07494e-05
-1.07529e-05
-1.07564e-05
-1.07598e-05
-1.07633e-05
-1.07667e-05
-1.07701e-05
-1.07736e-05
-1.07769e-05
-1.07803e-05
-1.07837e-05
-1.0787e-05
-1.07904e-05
-1.07937e-05
-1.0797e-05
-1.08003e-05
-1.08036e-05
-1.08069e-05
-1.08102e-05
-1.08134e-05
-1.08167e-05
-1.08199e-05
-1.08231e-05
-1.08263e-05
-1.08295e-05
-1.08327e-05
-1.08358e-05
-1.0839e-05
-1.08421e-05
-1.08452e-05
-1.08483e-05
-1.08514e-05
-1.08545e-05
-1.08576e-05
-1.08606e-05
-1.08636e-05
-1.08667e-05
-1.08696e-05
-1.08726e-05
-1.08756e-05
-1.08785e-05
-1.08815e-05
-1.08844e-05
-1.08873e-05
-1.08901e-05
-1.0893e-05
-1.08958e-05
-1.08986e-05
-1.09014e-05
-1.09041e-05
-1.09069e-05
-1.09096e-05
-1.09123e-05
-1.09149e-05
-1.09176e-05
-1.09202e-05
-1.09228e-05
-1.09254e-05
-1.09279e-05
-1.09304e-05
-1.09329e-05
-1.09354e-05
-1.09378e-05
-1.09402e-05
-1.09426e-05
-1.0945e-05
-1.09473e-05
-1.09496e-05
-1.09518e-05
-1.09541e-05
-1.09563e-05
-1.09584e-05
-1.09606e-05
-1.09627e-05
-1.09648e-05
-1.09668e-05
-1.09688e-05
-1.09708e-05
-1.09728e-05
-1.09747e-05
-1.09765e-05
-1.09784e-05
-1.09802e-05
-1.0982e-05
-1.09838e-05
-1.09855e-05
-1.09872e-05
-1.09889e-05
-1.09905e-05
-1.09921e-05
-1.09936e-05
-1.09952e-05
-1.09967e-05
-1.09981e-05
-1.09996e-05
-1.1001e-05
-1.10023e-05
-1.10037e-05
-1.1005e-05
-1.10063e-05
-1.10075e-05
-1.10087e-05
-1.10099e-05
-1.10111e-05
-1.10122e-05
-1.10133e-05
-1.10143e-05
-1.10154e-05
-1.10164e-05
-1.10174e-05
-1.10183e-05
-1.10192e-05
-1.10201e-05
-1.1021e-05
-1.10219e-05
-1.10227e-05
-1.10235e-05
-1.10242e-05
-1.1025e-05
-1.10257e-05
-1.10264e-05
-1.10271e-05
-1.10277e-05
-1.10283e-05
-1.10289e-05
-1.10295e-05
-1.10301e-05
-1.10306e-05
-1.10311e-05
-1.10316e-05
-1.10321e-05
-1.10326e-05
-1.1033e-05
-1.10334e-05
-1.10338e-05
-1.10342e-05
-1.10346e-05
-1.1035e-05
-1.10353e-05
-1.10356e-05
-1.1036e-05
-1.10363e-05
-1.10365e-05
-1.10368e-05
-1.10371e-05
-1.10373e-05
-1.10375e-05
-1.10378e-05
-1.1038e-05
-1.10382e-05
-1.10384e-05
-1.10386e-05
-1.10387e-05
-1.10389e-05
-1.10391e-05
-1.10392e-05
-1.10393e-05
-1.10395e-05
-1.10396e-05
-1.10397e-05