# vtk DataFile Version 2.0
FlowField
ASCII
DATASET STRUCTURED_GRID
DIMENSIONS 800 1 200
POINTS 160000 float
0 0 0
0.04 0 0
0.08 0 0
0.12 0 0
0.16 0 0
0.2 0 0
0.24 0 0
0.28 0 0
0.32 0 0
0.36 0 0
0.4 0 0
0.44 0 0
0.48 0 0
0.52 0 0
0.56 0 0
0.6 0 0
0.64 0 0
0.68 0 0
0.72 0 0
0.76 0 0
0.8 0 0
0.84 0 0
0.88 0 0
0.92 0 0
0.96 0 0
1 0 0
1.04 0 0
1.08 0 0
1.12 0 0
1.16 0 0
1.2 0 0
1.24 0 0
1.28 0 0
1.32 0 0
1.36 0 0
1.4 0 0
1.44 0 0
1.48 0 0
1.52 0 0
1.56 0 0
1.6 0 0
1.64 0 0
1.68 0 0
1.72 0 0
1.76 0 0
1.8 0 0
1.84 0 0
1.88 0 0
1.92 0 0
1.96 0 0
2 0 0
2.04 0 0
2.08 0 0
2.12 0 0
2.16 0 0
2.2 0 0
2.24 0 0
2.28 0 0
2.32 0 0
2.36 0 0
2.4 0 0
2.44 0 0
2.48 0 0
2.52 0 0
2.56 0 0
2.6 0 0
2.64 0 0
2.68 0 0
2.72 0 0
2.76 0 0
2.8 0 0
2.84 0 0
2.88 0 0
2.92 0 0
2.96 0 0
3 0 0
3.04 0 0
3.08 0 0
3.12 0 0
3.16 0 0
3.2 0 0
3.24 0 0
3.28 0 0
3.32 0 0
3.36 0 0
3.4 0 0
3.44 0 0
3.48 0 0
3.52 0 0
3.56 0 0
3.6 0 0
3.64 0 0
3.68 0 0
3.72 0 0
3.76 0 0
3.8 0 0
3.84 0 0
3.88 0 0
3.92 0 0
3.96 0 0
4 0 0
4.04 0 0
4.08 0 0
4.12 0 0
4.16 0 0
4.2 0 0
4.24 0 0
4.28 0 0
4.32 0 0
4.36 0 0
4.4 0 0
4.44 0 0
4.48 0 0
4.52 0 0
4.56 0 0
4.6 0 0
4.64 0 0
4.68 0 0
4.72 0 0
4.76 0 0
4.8 0 0
4.84 0 0
4.88 0 0
4.92 0 0
4.96 0 0
5 0 0
5.04 0 0
5.08 0 0
5.12 0 0
5.16 0 0
5.2 0 0
5.24 0 0
5.28 0 0
5.32 0 0
5.36 0 0
5.4 0 0
5.44 0 0
5.48 0 0
5.52 0 0
5.56 0 0
5.6 0 0
5.64 0 0
5.68 0 0
5.72 0 0
5.76 0 0
5.8 0 0
5.84 0 0
5.88 0 0
5.92 0 0
5.96 0 0
6 0 0
6.04 0 0
6.08 0 0
6.12 0 0
6.16 0 0
6.2 0 0
6.24 0 0
6.28 0 0
6.32 0 0
6.36 0 0
6.4 0 0
6.44 0 0
6.48 0 0
6.52 0 0
6.56 0 0
6.6 0 0
6.64 0 0
6.68 0 0
6.72 0 0
6.76 0 0
6.8 0 0
6.84 0 0
6.88 0 0
6.92 0 0
6.96 0 0
7 0 0
7.04 0 0
7.08 0 0
7.12 0 0
7.16 0 0
7.2 0 0
7.24 0 0
7.28 0 0
7.32 0 0
7.36 0 0
7.4 0 0
7.44 0 0
7.48 0 0
7.52 0 0
7.56 0 0
7.6 0 0
7.64 0 0
7.68 0 0
7.72 0 0
7.76 0 0
7.8 0 0
7.84 0 0
7.88 0 0
7.92 0 0
7.96 0 0
8 0 0
8.04 0 0
8.08 0 0
8.12 0 0
8.16 0 0
8.2 0 0
8.24 0 0
8.28 0 0
8.32 0 0
8.36 0 0
8.4 0 0
8.44 0 0
8.48 0 0
8.52 0 0
8.56 0 0
8.6 0 0
8.64 0 0
8.68 0 0
8.72 0 0
8.76 0 0
8.8 0 0
8.84 0 0
8.88 0 0
8.92 0 0
8.96 0 0
9 0 0
9.04 0 0
9.08 0 0
9.12 0 0
9.16 0 0
9.2 0 0
9.24 0 0
9.28 0 0
9.32 0 0
9.36 0 0
9.4 0 0
9.44 0 0
9.48 0 0
9.52 0 0
9.56 0 0
9.6 0 0
9.64 0 0
9.68 0 0
9.72 0 0
9.76 0 0
9.8 0 0
9.84 0 0
9.88 0 0
9.92 0 0
9.96 0 0
10 0 0
10.04 0 0
10.08 0 0
10.12 0 0
10.16 0 0
10.2 0 0
10.24 0 0
10.28 0 0
10.32 0 0
10.36 0 0
10.4 0 0
10.44 0 0
10.48 0 0
10.52 0 0
10.56 0 0
10.6 0 0
10.64 0 0
10.68 0 0
10.72 0 0
10.76 0 0
10.8 0 0
10.84 0 0
10.88 0 0
10.92 0 0
10.96 0 0
11 0 0
11.04 0 0
11.08 0 0
11.12 0 0
11.16 0 0
11.2 0 0
11.24 0 0
11.28 0 0
11.32 0 0
11.36 0 0
11.4 0 0
11.44 0 0
11.48 0 0
11.52 0 0
11.56 0 0
11.6 0 0
11.64 0 0
11.68 0 0
11.72 0 0
11.76 0 0
11.8 0 0
11.84 0 0
11.88 0 0
11.92 0 0
11.96 0 0
12 0 0
12.04 0 0
12.08 0 0
12.12 0 0
12.16 0 0
12.2 0 0
12.24 0 0
12.28 0 0
12.32 0 0
12.36 0 0
12.4 0 0
12.44 0 0
12.48 0 0
12.52 0 0
12.56 0 0
12.6 0 0
12.64 0 0
12.68 0 0
12.72 0 0
12.76 0 0
12.8 0 0
12.84 0 0
12.88 0 0
12.92 0 0
12.96 0 0
13 0 0
13.04 0 0
13.08 0 0
13.12 0 0
13.16 0 0
13.2 0 0
13.24 0 0
13.28 0 0
13.32 0 0
13.36 0 0
13.4 0 0
13.44 0 0
13.48 0 0
13.52 0 0
13.56 0 0
13.6 0 0
13.64 0 0
13.68 0 0
13.72 0 0
13.76 0 0
13.8 0 0
13.84 0 0
13.88 0 0
13.92 0 0
13.96 0 0
14 0 0
14.04 0 0
14.08 0 0
14.12 0 0
14.16 0 0
14.2 0 0
14.24 0 0
14.28 0 0
14.32 0 0
14.36 0 0
14.4 0 0
14.44 0 0
14.48 0 0
14.52 0 0
14.56 0 0
14.6 0 0
14.64 0 0
14.68 0 0
14.72 0 0
14.76 0 0
14.8 0 0
14.84 0 0
14.88 0 0
14.92 0 0
14.96 0 0
15 0 0
15.04 0 0
15.08 0 0
15.12 0 0
15.16 0 0
15.2 0 0
15.24 0 0
15.28 0 0
15.32 0 0
15.36 0 0
15.4 0 0
15.44 0 0
15.48 0 0
15.52 0 0
15.56 0 0
15.6 0 0
15.64 0 0
15.68 0 0
15.72 0 0
15.76 0 0
15.8 0 0
15.84 0 0
15.88 0 0
15.92 0 0
15.96 0 0
16 0 0
16.04 0 0
16.08 0 0
16.12 0 0
16.16 0 0
16.2 0 0
16.24 0 0
16.28 0 0
16.32 0 0
16.36 0 0
16.4 0 0
16.44 0 0
16.48 0 0
16.52 0 0
16.56 0 0
16.6 0 0
16.64 0 0
16.68 0 0
16.72 0 0
16.76 0 0
16.8 0 0
16.84 0 0
16.88 0 0
16.92 0 0
16.96 0 0
17 0 0
17.04 0 0
17.08 0 0
17.12 0 0
17.16 0 0
17.2 0 0
17.24 0 0
17.28 0 0
17.32 0 0
17.36 0 0
17.4 0 0
17.44 0 0
17.48 0 0
17.52 0 0
17.56 0 0
17.6 0 0
17.64 0 0
17.68 0 0
17.72 0 0
17.76 0 0
17.8 0 0
17.84 0 0
17.88 0 0
17.92 0 0
17.96 0 0
18 0 0
18.04 0 0
18.08 0 0
18.12 0 0
18.16 0 0
18.2 0 0
18.24 0 0
18.28 0 0
18.32 0 0
18.36 0 0
18.4 0 0
18.44 0 0
18.48 0 0
18.52 0 0
18.56 0 0
18.6 0 0
18.64 0 0
18.68 0 0
18.72 0 0
18.76 0 0
18.8 0 0
18.84 0 0
18.88 0 0
18.92 0 0
18.96 0 0
19 0 0
19.04 0 0
19.08 0 0
19.12 0 0
19.16 0 0
19.2 0 0
19.24 0 0
19.28 0 0
19.32 0 0
19.36 0 0
19.4 0 0
19.44 0 0
19.48 0 0
19.52 0 0
19.56 0 0
19.6 0 0
19.64 0 0
19.68 0 0
19.72 0 0
19.76 0 0
19.8 0 0
19.84 0 0
19.88 0 0
19.92 0 0
19.96 0 0
20 0 0
20.04 0 0
20.08 0 0
20.12 0 0
20.16 0 0
20.2 0 0
20.24 0 0
20.28 0 0
20.32 0 0
20.36 0 0
20.4 0 0
20.44 0 0
20.48 0 0
20.52 0 0
20.56 0 0
20.6 0 0
20.64 0 0
20.68 0 0
20.72 0 0
20.76 0 0
20.8 0 0
20.84 0 0
20.88 0 0
20.92 0 0
20.96 0 0
21 0 0
21.04 0 0
21.08 0 0
21.12 0 0
21.16 0 0
21.2 0 0
21.24 0 0
21.28 0 0
21.32 0 0
21.36 0 0
21.4 0 0
21.44 0 0
21.48 0 0
21.52 0 0
21.56 0 0
21.6 0 0
21.64 0 0
21.68 0 0
21.72 0 0
21.76 0 0
21.8 0 0
21.84 0 0
21.88 0 0
21.92 0 0
21.96 0 0
22 0 0
22.04 0 0
22.08 0 0
22.12 0 0
22.16 0 0
22.2 0 0
22.24 0 0
22.28 0 0
22.32 0 0
22.36 0 0
22.4 0 0
22.44 0 0
22.48 0 0
22.52 0 0
22.56 0 0
22.6 0 0
22.64 0 0
22.68 0 0
22.72 0 0
22.76 0 0
22.8 0 0
22.84 0 0
22.88 0 0
22.92 0 0
22.96 0 0
23 0 0
23.04 0 0
23.08 0 0
23.12 0 0
23.16 0 0
23.2 0 0
23.24 0 0
23.28 0 0
23.32 0 0
23.36 0 0
23.4 0 0
23.44 0 0
23.48 0 0
23.52 0 0
23.56 0 0
23.6 0 0
23.64 0 0
23.68 0 0
23.72 0 0
23.76 0 0
23.8 0 0
23.84 0 0
23.88 0 0
23.92 0 0
23.96 0 0
24 0 0
24.04 0 0
24.08 0 0
24.12 0 0
24.16 0 0
24.2 0 0
24.24 0 0
24.28 0 0
24.32 0 0
24.36 0 0
24.4 0 0
24.44 0 0
24.48 0 0
24.52 0 0
24.56 0 0
24.6 0 0
24.64 0 0
24.68 0 0
24.72 0 0
24.76 0 0
24.8 0 0
24.84 0 0
24.88 0 0
24.92 0 0
24.96 0 0
25 0 0
25.04 0 0
25.08 0 0
25.12 0 0
25.16 0 0
25.2 0 0
25.24 0 0
25.28 0 0
25.32 0 0
25.36 0 0
25.4 0 0
25.44 0 0
25.48 0 0
25.52 0 0
25.56 0 0
25.6 0 0
25.64 0 0
25.68 0 0
25.72 0 0
25.76 0 0
25.8 0 0
25.84 0 0
25.88 0 0
25.92 0 0
25.96 0 0
26 0 0
26.04 0 0
26.08 0 0
26.12 0 0
26.16 0 0
26.2 0 0
26.24 0 0
26.28 0 0
26.32 0 0
26.36 0 0
26.4 0 0
26.44 0 0
26.48 0 0
26.52 0 0
26.56 0 0
26.6 0 0
26.64 0 0
26.68 0 0
26.72 0 0
26.76 0 0
26.8 0 0
26.84 0 0
26.88 0 0
26.92 0 0
26.96 0 0
27 0 0
27.04 0 0
27.08 0 0
27.12 0 0
27.16 0 0
27.2 0 0
27.24 0 0
27.28 0 0
27.32 0 0
27.36 0 0
27.4 0 0
27.44 0 0
27.48 0 0
27.52 0 0
27.56 0 0
27.6 0 0
27.64 0 0
27.68 0 0
27.72 0 0
27.76 0 0
27.8 0 0
27.84 0 0
27.88 0 0
27.92 0 0
27.96 0 0
28 0 0
28.04 0 0
28.08 0 0
28.12 0 0
28.16 0 0
28.2 0 0
28.24 0 0
28.28 0 0
28.32 0 0
28.36 0 0
28.4 0 0
28.44 0 0
28.48 0 0
28.52 0 0
28.56 0 0
28.6 0 0
28.64 0 0
28.68 0 0
28.72 0 0
28.76 0 0
28.8 0 0
28.84 0 0
28.88 0 0
28.92 0 0
28.96 0 0
29 0 0
29.04 0 0
29.08 0 0
29.12 0 0
29.16 0 0
29.2 0 0
29.24 0 0
29.28 0 0
29.32 0 0
29.36 0 0
29.4 0 0
29.44 0 0
29.48 0 0
29.52 0 0
29.56 0 0
29.6 0 0
29.64 0 0
29.68 0 0
29.72 0 0
29.76 0 0
29.8 0 0
29.84 0 0
29.88 0 0
29.92 0 0
29.96 0 0
30 0 0
30.04 0 0
30.08 0 0
30.12 0 0
30.16 0 0
30.2 0 0
30.24 0 0
30.28 0 0
30.32 0 0
30.36 0 0
30.4 0 0
30.44 0 0
30.48 0 0
30.52 0 0
30.56 0 0
30.6 0 0
30.64 0 0
30.68 0 0
30.72 0 0
30.76 0 0
30.8 0 0
30.84 0 0
30.88 0 0
30.92 0 0
30.96 0 0
31 0 0
31.04 0 0
31.08 0 0
31.12 0 0
31.16 0 0
31.2 0 0
31.24 0 0
31.28 0 0
31.32 0 0
31.36 0 0
31.4 0 0
31.44 0 0
31.48 0 0
31.52 0 0
31.56 0 0
31.6 0 0
31.64 0 0
31.68 0 0
31.72 0 0
31.76 0 0
31.8 0 0
31.84 0 0
31.88 0 0
31.92 0 0
31.96 0 0
0 0.005 0
0.04 0.005 0
0.08 0.005 0
0.12 0.005 0
0.16 0.005 0
0.2 0.005 0
0.24 0.005 0
0.28 0.005 0
0.32 0.005 0
0.36 0.005 0
0.4 0.005 0
0.44 0.005 0
0.48 0.005 0
0.52 0.005 0
0.56 0.005 0
0.6 0.005 0
0.64 0.005 0
0.68 0.005 0
0.72 0.005 0
0.76 0.005 0
0.8 0.005 0
0.84 0.005 0
0.88 0.005 0
0.92 0.005 0
0.96 0.005 0
1 0.005 0
1.04 0.005 0
1.08 0.005 0
1.12 0.005 0
1.16 0.005 0
1.2 0.005 0
1.24 0.005 0
1.28 0.005 0
1.32 0.005 0
1.36 0.005 0
1.4 0.005 0
1.44 0.005 0
1.48 0.005 0
1.52 0.005 0
1.56 0.005 0
1.6 0.005 0
1.64 0.005 0
1.68 0.005 0
1.72 0.005 0
1.76 0.005 0
1.8 0.005 0
1.84 0.005 0
1.88 0.005 0
1.92 0.005 0
1.96 0.005 0
2 0.005 0
2.04 0.005 0
2.08 0.005 0
2.12 0.005 0
2.16 0.005 0
2.2 0.005 0
2.24 0.005 0
2.28 0.005 0
2.32 0.005 0
2.36 0.005 0
2.4 0.005 0
2.44 0.005 0
2.48 0.005 0
2.52 0.005 0
2.56 0.005 0
2.6 0.005 0
2.64 0.005 0
2.68 0.005 0
2.72 0.005 0
2.76 0.005 0
2.8 0.005 0
2.84 0.005 0
2.88 0.005 0
2.92 0.005 0
2.96 0.005 0
3 0.005 0
3.04 0.005 0
3.08 0.005 0
3.12 0.005 0
3.16 0.005 0
3.2 0.005 0
3.24 0.005 0
3.28 0.005 0
3.32 0.005 0
3.36 0.005 0
3.4 0.005 0
3.44 0.005 0
3.48 0.005 0
3.52 0.005 0
3.56 0.005 0
3.6 0.005 0
3.64 0.005 0
3.68 0.005 0
3.72 0.005 0
3.76 0.005 0
3.8 0.005 0
3.84 0.005 0
3.88 0.005 0
3.92 0.005 0
3.96 0.005 0
4 0.005 0
4.04 0.005 0
4.08 0.005 0
4.12 0.005 0
4.16 0.005 0
4.2 0.005 0
4.24 0.005 0
4.28 0.005 0
4.32 0.005 0
4.36 0.005 0
4.4 0.005 0
4.44 0.005 0
4.48 0.005 0
4.52 0.005 0
4.56 0.005 0
4.6 0.005 0
4.64 0.005 0
4.68 0.005 0
4.72 0.005 0
4.76 0.005 0
4.8 0.005 0
4.84 0.005 0
4.88 0.005 0
4.92 0.005 0
4.96 0.005 0
5 0.005 0
5.04 0.005 0
5.08 0.005 0
5.12 0.005 0
5.16 0.005 0
5.2 0.005 0
5.24 0.005 0
5.28 0.005 0
5.32 0.005 0
5.36 0.005 0
5.4 0.005 0
5.44 0.005 0
5.48 0.005 0
5.52 0.005 0
5.56 0.005 0
5.6 0.005 0
5.64 0.005 0
5.68 0.005 0
5.72 0.005 0
5.76 0.005 0
5.8 0.005 0
5.84 0.005 0
5.88 0.005 0
5.92 0.005 0
5.96 0.005 0
6 0.005 0
6.04 0.005 0
6.08 0.005 0
6.12 0.005 0
6.16 0.005 0
6.2 0.005 0
6.24 0.005 0
6.28 0.005 0
6.32 0.005 0
6.36 0.005 0
6.4 0.005 0
6.44 0.005 0
6.48 0.005 0
6.52 0.005 0
6.56 0.005 0
6.6 0.005 0
6.64 0.005 0
6.68 0.005 0
6.72 0.005 0
6.76 0.005 0
6.8 0.005 0
6.84 0.005 0
6.88 0.005 0
6.92 0.005 0
6.96 0.005 0
7 0.005 0
7.04 0.005 0
7.08 0.005 0
7.12 0.005 0
7.16 0.005 0
7.2 0.005 0
7.24 0.005 0
7.28 0.005 0
7.32 0.005 0
7.36 0.005 0
7.4 0.005 0
[...]
POINT_DATA 160000

SCALARS p float 1
LOOKUP_TABLE default
1
30.2898
28.0744
27.8195
27.7593
27.7329
27.7169
27.7053
27.6961
27.6882
27.6813
27.6749
27.669
27.6635
27.6582
27.6531
27.6481
27.6433
27.6386
27.6339
27.6294
27.6249
27.6205
27.6162
27.6119
27.6077
27.6036
27.5995
27.5954
27.5914
27.5874
27.5835
27.5796
27.5758
27.572
27.5683
27.5645
27.5609
27.5572
27.5536
27.5501
27.5466
27.5431
27.5396
27.5362
27.5328
27.5294
27.5261
27.5228
27.5195
27.5162
27.513
27.5098
27.5067
27.5035
27.5004
27.4973
27.4942
27.4911
27.4881
27.4851
27.4821
27.4791
27.4762
27.4733
27.4703
27.4675
27.4646
27.4617
27.4589
27.4561
27.4533
27.4505
27.4477
27.4449
27.4422
27.4395
27.4368
27.4341
27.4314
27.4287
27.4261
27.4234
27.4208
27.4182
27.4156
27.413
27.4104
27.4078
27.4053
27.4027
27.4002
27.3977
27.3952
27.3927
27.3902
27.3877
27.3853
27.3828
27.3804
27.3779
27.3755
27.3731
27.3707
27.3683
27.3659
27.3635
27.3611
27.3588
27.3564
27.3541
27.3518
27.3494
27.3471
27.3448
27.3425
27.3402
27.3379
27.3356
27.3334
27.3311
27.3288
27.3266
27.3244
27.3221
27.3199
27.3177
27.3155
27.3133
27.3111
27.3089
27.3067
27.3045
27.3023
27.3002
27.298
27.2958
27.2937
27.2915
27.2894
27.2873
27.2851
27.283
27.2809
27.2788
27.2767
27.2746
27.2725
27.2704
27.2683
27.2663
27.2642
27.2621
27.2601
27.258
27.256
27.2539
27.2519
27.2498
27.2478
27.2458
27.2438
27.2417
27.2397
27.2377
27.2357
27.2337
27.2317
27.2297
27.2277
27.2257
27.2238
27.2218
27.2198
27.2179
27.2159
27.2139
27.212
27.21
27.2081
27.2061
27.2042
27.2023
27.2003
27.1984
27.1965
27.1945
27.1926
27.1907
27.1888
27.1869
27.185
27.1831
27.1812
27.1793
27.1774
27.1755
27.1736
27.1718
27.1699
27.168
27.1661
27.1643
27.1624
27.1605
27.1587
27.1568
27.155
27.1531
27.1513
27.1494
27.1476
27.1457
27.1439
27.1421
27.1402
27.1384
27.1366
27.1347
27.1329
27.1311
27.1293
27.1275
27.1257
27.1239
27.1221
27.1202
27.1184
27.1166
27.1148
27.1131
27.1113
27.1095
27.1077
27.1059
27.1041
27.1023
27.1006
27.0988
27.097
27.0952
27.0935
27.0917
27.0899
27.0882
27.0864
27.0846
27.0829
27.0811
27.0794
27.0776
27.0759
27.0741
27.0724
27.0706
27.0689
27.0672
27.0654
27.0637
27.0619
27.0602
27.0585
27.0568
27.055
27.0533
27.0516
27.0499
27.0481
27.0464
27.0447
27.043
27.0413
27.0396
27.0379
27.0362
27.0345
27.0327
27.031
27.0293
27.0276
27.026
27.0243
27.0226
27.0209
27.0192
27.0175
27.0158
27.0141
27.0124
27.0108
27.0091
27.0074
27.0057
27.0041
27.0024
27.0007
26.999
26.9974
26.9957
26.994
26.9924
26.9907
26.9891
26.9874
26.9857
26.9841
26.9824
26.9808
26.9791
26.9775
26.9758
26.9742
26.9725
26.9709
26.9693
26.9676
26.966
26.9643
26.9627
26.9611
26.9594
26.9578
26.9562
26.9545
26.9529
26.9513
26.9496
26.948
26.9464
26.9448
26.9431
26.9415
26.9399
26.9383
26.9366
26.935
26.9334
26.9318
26.9302
26.9286
26.9269
26.9253
26.9237
26.9221
26.9205
26.9189
26.9173
26.9157
26.9141
26.9124
26.9108
26.9092
26.9076
26.906
26.9044
26.9028
26.9012
26.8996
26.898
26.8964
26.8948
26.8932
26.8916
26.89
26.8884
26.8868
26.8852
26.8836
26.882
26.8804
26.8788
26.8772
26.8756
26.874
26.8724
26.8708
26.8692
26.8676
26.866
26.8644
26.8629
26.8613
26.8597
26.8581
26.8565
26.8549
26.8533
26.8517
26.8501
26.8485
26.8469
26.8453
26.8437
26.8421
26.8406
26.839
26.8374
26.8358
26.8342
26.8326
26.831
26.8294
26.8278
26.8262
26.8246
26.823
26.8215
26.8199
26.8183
26.8167
26.8151
26.8135
26.8119
26.8103
26.8087
26.8071
26.8055
26.804
26.8024
26.8008
26.7992
26.7976
26.796
26.7944
26.7928
26.7912
26.7896
26.7881
26.7865
26.7849
26.7833
26.7817
26.7801
26.7785
26.7769
26.7753
26.7737
26.7722
26.7706
26.769
26.7674
26.7658
26.7642
26.7626
26.761
26.7594
26.7578
26.7563
26.7547
26.7531
26.7515
26.7499
26.7483
26.7467
26.7451
26.7435
26.742
26.7404
26.7388
26.7372
26.7356
26.734
26.7324
26.7308
26.7292
26.7277
26.7261
26.7245
26.7229
26.7213
26.7197
26.7181
26.7165
26.7149
26.7134
26.7118
26.7102
26.7086
26.707
26.7054
26.7038
26.7022
26.7006
26.6991
26.6975
26.6959
26.6943
26.6927
26.6911
26.6895
26.6879
26.6863
26.6848
26.6832
26.6816
26.68
26.6784
26.6768
26.6752
26.6736
26.6721
26.6705
26.6689
26.6673
26.6657
26.6641
26.6625
26.6609
26.6594
26.6578
26.6562
26.6546
26.653
26.6514
26.6498
26.6482
26.6466
26.6451
26.6435
26.6419
26.6403
26.6387
26.6371
26.6355
26.6339
26.6324
26.6308
26.6292
26.6276
26.626
26.6244
26.6228
26.6213
26.6197
26.6181
26.6165
26.6149
26.6133
26.6117
26.6101
26.6086
26.607
26.6054
26.6038
26.6022
26.6006
26.599
26.5974
26.5959
26.5943
26.5927
26.5911
26.5895
26.5879
26.5863
26.5848
26.5832
26.5816
26.58
26.5784
26.5768
26.5752
26.5736
26.5721
26.5705
26.5689
26.5673
26.5657
26.5641
26.5625
26.561
26.5594
26.5578
26.5562
26.5546
26.553
26.5514
26.5499
26.5483
26.5467
26.5451
26.5435
26.5419
26.5403
26.5388
26.5372
26.5356
26.534
26.5324
26.5308
26.5292
26.5277
26.5261
26.5245
26.5229
26.5213
26.5197
26.5181
26.5166
26.515
26.5134
26.5118
26.5102
26.5086
26.507
26.5055
26.5039
26.5023
26.5007
26.4991
26.4975
26.4959
26.4944
26.4928
26.4912
26.4896
26.488
26.4864
26.4849
26.4833
26.4817
26.4801
26.4785
26.4769
26.4753
26.4738
26.4722
26.4706
26.469
26.4674
26.4658
26.4643
26.4627
26.4611
26.4595
26.4579
26.4563
26.4547
26.4532
26.4516
26.45
26.4484
26.4468
26.4452
26.4437
26.4421
26.4405
26.4389
26.4373
26.4357
26.4342
26.4326
26.431
26.4294
26.4278
26.4262
26.4246
26.4231
26.4215
26.4199
26.4183
26.4167
26.4151
26.4136
26.412
26.4104
26.4088
26.4072
26.4056
26.4041
26.4025
26.4009
26.3993
26.3977
26.3961
26.3946
26.393
26.3914
26.3898
26.3882
26.3866
26.3851
26.3835
26.3819
26.3803
26.3787
26.3771
26.3756
26.374
26.3724
26.3708
26.3692
26.3677
26.3661
26.3645
26.3629
26.3613
26.3597
26.3582
26.3566
26.355
26.3534
26.3518
26.3502
26.3487
26.3471
26.3455
26.3439
26.3423
26.3407
26.3392
26.3376
26.336
26.3344
26.3328
26.3313
26.3297
26.3281
26.3265
26.3249
26.3233
26.3218
26.3202
26.3186
26.317
26.3154
26.3139
26.3123
26.3107
26.3091
26.3075
26.3059
26.3044
26.3028
26.3012
26.2996
26.298
26.2965
26.2949
26.2933
26.2917
26.2901
26.2885
26.287
26.2854
26.2838
26.2822
26.2806
26.2791
26.2775
26.2759
26.2743
26.2727
26.2711
26.2696
26.268
26.2664
26.2648
26.2632
26.2617
26.2601
26.2585
26.2569
26.2553
26.2538
26.2522
26.2506
26.249
26.2474
26.2459
26.2443
26.2427
26.2411
26.2395
26.238
26.2364
26.2348
26.2332
26.2316
26.23
26.2285
26.2269
26.2253
26.2237
26.2221
26.2206
26.219
26.2174
26.2158
26.2142
26.2127
26.2111
26.2095
26.2079
26.2063
26.2048
26.2032
26.2016
26.2
1
30.2898
30.2898
28.0744
27.8195
27.7593
27.7329
27.7169
27.7053
27.6961
27.6882
27.6813
27.6749
27.669
27.6635
27.6582
27.6531
27.6481
27.6433
27.6386
27.6339
27.6294
27.6249
27.6205
27.6162
27.6119
27.6077
27.6036
27.5995
27.5954
27.5914
27.5874
27.5835
27.5796
27.5758
27.572
27.5683
27.5645
27.5609
27.5572
27.5536
27.5501
27.5466
27.5431
27.5396
27.5362
27.5328
27.5294
27.5261
27.5228
27.5195
27.5162
27.513
27.5098
27.5067
27.5035
27.5004
27.4973
27.4942
27.4911
27.4881
27.4851
27.4821
27.4791
27.4762
27.4733
27.4703
27.4675
27.4646
27.4617
27.4589
27.4561
27.4533
27.4505
27.4477
27.4449
27.4422
27.4395
27.4368
27.4341
27.4314
27.4287
27.4261
27.4234
27.4208
27.4182
27.4156
27.413
27.4104
27.4078
27.4053
27.4027
27.4002
27.3977
27.3952
27.3927
27.3902
27.3877
27.3853
27.3828
27.3804
27.3779
27.3755
27.3731
27.3707
27.3683
27.3659
27.3635
27.3611
27.3588
27.3564
27.3541
27.3518
27.3494
27.3471
27.3448
27.3425
27.3402
27.3379
27.3356
27.3334
27.3311
27.3288
27.3266
27.3244
27.3221
27.3199
27.3177
27.3155
27.3133
27.3111
27.3089
27.3067
27.3045
27.3023
27.3002
27.298
27.2958
27.2937
27.2915
27.2894
27.2873
27.2851
27.283
27.2809
27.2788
27.2767
27.2746
27.2725
27.2704
27.2683
27.2663
27.2642
27.2621
27.2601
27.258
27.256
27.2539
27.2519
27.2498
27.2478
27.2458
27.2438
27.2417
27.2397
27.2377
27.2357
27.2337
27.2317
27.2297
27.2277
27.2257
27.2238
27.2218
27.2198
27.2179
27.2159
27.2139
27.212
27.21
27.2081
27.2061
27.2042
27.2023
27.2003
27.1984
27.1965
27.1945
27.1926
27.1907
27.1888
27.1869
27.185
27.1831
27.1812
27.1793
27.1774
27.1755
27.1736
27.1718
27.1699
27.168
27.1661
27.1643
27.1624
27.1605
27.1587
27.1568
27.155
27.1531
27.1513
27.1494
27.1476
27.1457
27.1439
27.1421
27.1402
27.1384
27.1366
27.1347
27.1329
27.1311
27.1293
27.1275
27.1257
27.1239
27.1221
27.1202
27.1184
27.1166
27.1148
27.1131
27.1113
27.1095
27.1077
27.1059
27.1041
27.1023
27.1006
27.0988
27.097
27.0952
27.0935
27.0917
27.0899
27.0882
27.0864
27.0846
27.0829
27.0811
27.0794
27.0776
27.0759
27.0741
27.0724
27.0706
27.0689
27.0672
27.0654
27.0637
27.0619
27.0602
27.0585
27.0568
27.055
27.0533
27.0516
27.0499
27.0481
27.0464
27.0447
27.043
27.0413
27.0396
27.0379
27.0362
27.0345
27.0327
27.031
27.0293
27.0276
27.026
27.0243
27.0226
27.0209
27.0192
27.0175
27.0158
27.0141
27.0124
27.0108
27.0091
27.0074
27.0057
27.0041
27.0024
27.0007
26.999
26.9974
26.9957
26.994
26.9924
26.9907
26.9891
26.9874
26.9857
26.9841
26.9824
26.9808
26.9791
26.9775
26.9758
26.9742
26.9725
26.9709
26.9693
26.9676
26.966
26.9643
26.9627
26.9611
26.9594
26.9578
26.9562
26.9545
26.9529
26.9513
26.9496
26.948
26.9464
26.9448
26.9431
26.9415
26.9399
26.9383
26.9366
26.935
26.9334
26.9318
26.9302
26.9286
26.9269
26.9253
26.9237
26.9221
26.9205
26.9189
26.9173
26.9157
26.9141
26.9124
26.9108
26.9092
26.9076
26.906
26.9044
26.9028
26.9012
26.8996
26.898
26.8964
26.8948
26.8932
26.8916
26.89
26.8884
26.8868
26.8852
26.8836
26.882
26.8804
26.8788
26.8772
26.8756
26.874
26.8724
26.8708
26.8692
26.8676
26.866
26.8644
26.8629
26.8613
26.8597
26.8581
26.8565
26.8549
26.8533
26.8517
26.8501
26.8485
26.8469
26.8453
26.8437
26.8421
26.8406
26.839
26.8374
26.8358
26.8342
26.8326
26.831
26.8294
26.8278
26.8262
26.8246
26.823
26.8215
26.8199
26.8183
26.8167
26.8151
26.8135
26.8119
26.8103
26.8087
26.8071
26.8055
26.804
26.8024
26.8008
26.7992
26.7976
26.796
26.7944
26.7928
26.7912
26.7896
26.7881
26.7865
26.7849
26.7833
26.7817
26.7801
26.7785
26.7769
26.7753
26.7737
26.7722
26.7706
26.769
26.7674
26.7658
26.7642
26.7626
26.761
26.7594
26.7578
26.7563
26.7547
26.7531
26.7515
26.7499
26.7483
26.7467
26.7451
26.7435
26.742
26.7404
26.7388
26.7372
26.7356
26.734
26.7324
26.7308
26.7292
26.7277
26.7261
26.7245
26.7229
26.7213
26.7197
26.7181
26.7165
26.7149
26.7134
26.7118
26.7102
26.7086
26.707
26.7054
26.7038
26.7022
26.7006
26.6991
26.6975
26.6959
26.6943
26.6927
26.6911
26.6895
26.6879
26.6863
26.6848
26.6832
26.6816
26.68
26.6784
26.6768
26.6752
26.6736
26.6721
26.6705
26.6689
26.6673
26.6657
26.6641
26.6625
26.6609
26.6594
26.6578
26.6562
26.6546
26.653
26.6514
26.6498
26.6482
26.6466
26.6451
26.6435
26.6419
26.6403
26.6387
26.6371
26.6355
26.6339
26.6324
26.6308
26.6292
26.6276
26.626
26.6244
26.6228
26.6213
26.6197
26.6181
26.6165
26.6149
26.6133
26.6117
26.6101
26.6086
26.607
26.6054
26.6038
26.6022
26.6006
26.599
26.5974
26.5959
26.5943
26.5927
26.5911
26.5895
26.5879
26.5863
26.5848
26.5832
26.5816
26.58
26.5784
26.5768
26.5752
26.5736
26.5721
26.5705
26.5689
26.5673
26.5657
26.5641
26.5625
26.561
26.5594
26.5578
26.5562
26.5546
26.553
26.5514
26.5499
26.5483
26.5467
26.5451
26.5435
26.5419
26.5403
26.5388
26.5372
26.5356
26.534
26.5324
26.5308
26.5292
26.5277
26.5261
26.5245
26.5229
26.5213
26.5197
26.5181
26.5166
26.515
26.5134
26.5118
26.5102
26.5086
26.507
26.5055
26.5039
26.5023
26.5007
26.4991
26.4975
26.4959
26.4944
26.4928
26.4912
26.4896
26.488
26.4864
26.4849
26.4833
26.4817
26.4801
26.4785
26.4769
26.4753
26.4738
26.4722
26.4706
26.469
26.4674
26.4658
26.4643
26.4627
26.4611
26.4595
26.4579
26.4563
26.4547
26.4532
26.4516
26.45
26.4484
26.4468
26.4452
26.4437
26.4421
26.4405
26.4389
26.4373
26.4357
26.4342
26.4326
26.431
26.4294
26.4278
26.4262
26.4246
26.4231
26.4215
26.4199
26.4183
26.4167
26.4151
26.4136
26.412
26.4104
26.4088
26.4072
26.4056
26.4041
26.4025
26.4009
26.3993
26.3977
26.3961
26.3946
26.393
26.3914
26.3898
26.3882
26.3866
26.3851
26.3835
26.3819
26.3803
26.3787
26.3771
26.3756
26.374
26.3724
26.3708
26.3692
26.3677
26.3661
26.3645
26.3629
26.3613
26.3597
26.3582
26.3566
26.355
26.3534
26.3518
26.3502
26.3487
26.3471
26.3455
26.3439
26.3423
26.3407
26.3392
26.3376
26.336
26.3344
26.3328
26.3313
26.3297
26.3281
26.3265
26.3249
26.3233
26.3218
26.3202
26.3186
26.317
26.3154
26.3139
26.3123
26.3107
26.3091
26.3075
26.3059
26.3044
26.3028
26.3012
26.2996
26.298
26.2965
26.2949
26.2933
26.2917
26.2901
26.2885
26.287
26.2854
26.2838
26.2822
26.2806
26.2791
26.2775
26.2759
26.2743
26.2727
26.2711
26.2696
26.268
26.2664
26.2648
26.2632
26.2617
26.2601
26.2585
26.2569
26.2553
26.2538
26.2522
26.2506
26.249
26.2474
26.2459
26.2443
26.2427
26.2411
26.2395
26.238
26.2364
26.2348
26.2332
26.2316
26.23
26.2285
26.2269
26.2253
26.2237
26.2221
26.2206
26.219
26.2174
26.2158
26.2142
26.2127
26.2111
26.2095
26.2079
26.2063
26.2048
26.2032
26.2016
26.2
26.2
29.6428
29.6428
28.0848
27.829
27.7635
27.7352
27.7183
27.7063
27.6968
27.6888
27.6817
27.6753
27.6693
27.6637
27.6584
27.6532
27.6483
27.6434
27.6387
27.6341
27.6295
27.625
27.6206
27.6163
27.612
27.6078
27.6036
27.5995
27.5955
27.5914
27.5875
27.5835
27.5797
27.5758
27.572
27.5683
27.5646
27.5609
27.5573
27.5537
27.5501
27.5466
27.5431
27.5396
27.5362
27.5328
27.5294
27.5261
27.5228
27.5195
27.5163
27.513
27.5098
27.5067
27.5035
27.5004
27.4973
27.4942
27.4912
27.4881
27.4851
27.4821
27.4792
27.4762
27.4733
27.4704
27.4675
27.4646
27.4617
27.4589
27.4561
27.4533
27.4505
27.4477
27.445
27.4422
27.4395
27.4368
27.4341
27.4314
27.4287
27.4261
27.4234
27.4208
27.4182
27.4156
27.413
27.4104
27.4078
27.4053
27.4027
27.4002
27.3977
27.3952
27.3927
27.3902
27.3877
27.3853
27.3828
27.3804
27.3779
27.3755
27.3731
27.3707
27.3683
27.3659
27.3635
27.3611
27.3588
27.3564
27.3541
27.3518
27.3494
27.3471
27.3448
27.3425
27.3402
27.3379
27.3356
27.3334
27.3311
27.3289
27.3266
27.3244
27.3221
27.3199
27.3177
27.3155
27.3133
27.3111
27.3089
27.3067
27.3045
27.3023
27.3002
27.298
27.2958
27.2937
27.2916
27.2894
27.2873
27.2852
27.283
27.2809
27.2788
27.2767
27.2746
27.2725
27.2704
27.2683
27.2663
27.2642
27.2621
27.2601
27.258
27.256
27.2539
27.2519
27.2498
27.2478
27.2458
27.2438
27.2417
27.2397
27.2377
27.2357
27.2337
27.2317
27.2297
27.2277
27.2258
27.2238
27.2218
27.2198
27.2179
27.2159
27.2139
27.212
27.21
27.2081
27.2061
27.2042
27.2023
27.2003
27.1984
27.1965
27.1946
27.1926
27.1907
27.1888
27.1869
27.185
27.1831
27.1812
27.1793
27.1774
27.1755
27.1736
27.1718
27.1699
27.168
27.1661
27.1643
27.1624
27.1605
27.1587
27.1568
27.155
27.1531
27.1513
27.1494
27.1476
27.1457
27.1439
27.1421
27.1402
27.1384
27.1366
27.1348
27.1329
27.1311
27.1293
27.1275
27.1257
27.1239
27.1221
27.1203
27.1185
27.1167
27.1149
27.1131
27.1113
27.1095
27.1077
27.1059
27.1041
27.1023
27.1006
27.0988
27.097
27.0952
27.0935
27.0917
27.0899
27.0882
27.0864
27.0846
27.0829
27.0811
27.0794
27.0776
27.0759
27.0741
27.0724
27.0706
27.0689
27.0672
27.0654
27.0637
27.062
27.0602
27.0585
27.0568
27.055
27.0533
27.0516
27.0499
27.0481
27.0464
27.0447
27.043
27.0413
27.0396
27.0379
27.0362
27.0345
27.0328
27.0311
27.0294
27.0277
27.026
27.0243
27.0226
27.0209
27.0192
27.0175
27.0158
27.0141
27.0125
27.0108
27.0091
27.0074
27.0057
27.0041
27.0024
27.0007
26.9991
26.9974
26.9957
26.9941
26.9924
26.9907
26.9891
26.9874
26.9858
26.9841
26.9824
26.9808
26.9791
26.9775
26.9758
26.9742
26.9725
26.9709
26.9693
26.9676
26.966
26.9643
26.9627
26.9611
26.9594
26.9578
26.9562
26.9545
26.9529
26.9513
26.9496
26.948
26.9464
26.9448
26.9431
26.9415
26.9399
26.9383
26.9367
26.935
26.9334
26.9318
26.9302
26.9286
26.927
26.9253
26.9237
26.9221
26.9205
26.9189
26.9173
26.9157
26.9141
26.9125
26.9108
26.9092
26.9076
26.906
26.9044
26.9028
26.9012
26.8996
26.898
26.8964
26.8948
26.8932
26.8916
26.89
26.8884
26.8868
26.8852
26.8836
26.882
26.8804
26.8788
26.8772
26.8756
26.874
26.8724
26.8708
26.8692
26.8676
26.866
26.8644
26.8629
26.8613
26.8597
26.8581
26.8565
26.8549
26.8533
26.8517
26.8501
26.8485
26.8469
26.8453
26.8437
26.8421
26.8406
26.839
26.8374
26.8358
26.8342
26.8326
26.831
26.8294
26.8278
26.8262
26.8246
26.823
26.8215
26.8199
26.8183
26.8167
26.8151
26.8135
26.8119
26.8103
26.8087
26.8071
26.8056
26.804
26.8024
26.8008
26.7992
26.7976
26.796
26.7944
26.7928
26.7912
26.7897
26.7881
26.7865
26.7849
26.7833
26.7817
26.7801
26.7785
26.7769
26.7753
26.7738
26.7722
26.7706
26.769
26.7674
26.7658
26.7642
26.7626
26.761
26.7594
26.7579
26.7563
26.7547
26.7531
26.7515
26.7499
26.7483
26.7467
26.7451
26.7435
26.742
26.7404
26.7388
26.7372
26.7356
26.734
26.7324
26.7308
26.7292
26.7277
26.7261
26.7245
26.7229
26.7213
26.7197
26.7181
26.7165
26.7149
26.7134
26.7118
26.7102
26.7086
26.707
26.7054
26.7038
26.7022
26.7006
26.6991
26.6975
26.6959
26.6943
26.6927
26.6911
26.6895
26.6879
26.6864
26.6848
26.6832
26.6816
26.68
26.6784
26.6768
26.6752
26.6736
26.6721
26.6705
26.6689
26.6673
26.6657
26.6641
26.6625
26.6609
26.6594
26.6578
26.6562
26.6546
26.653
26.6514
26.6498
26.6482
26.6467
26.6451
26.6435
26.6419
26.6403
26.6387
26.6371
26.6355
26.634
26.6324
26.6308
26.6292
26.6276
26.626
26.6244
26.6228
26.6213
26.6197
26.6181
26.6165
26.6149
26.6133
26.6117
26.6101
26.6086
26.607
26.6054
26.6038
26.6022
26.6006
26.599
26.5974
26.5959
26.5943
26.5927
26.5911
26.5895
26.5879
26.5863
26.5848
26.5832
26.5816
26.58
26.5784
26.5768
26.5752
26.5737
26.5721
26.5705
26.5689
26.5673
26.5657
26.5641
26.5625
26.561
26.5594
26.5578
26.5562
26.5546
26.553
26.5514
26.5499
26.5483
26.5467
26.5451
26.5435
26.5419
26.5403
26.5388
26.5372
26.5356
26.534
26.5324
26.5308
26.5292
26.5277
26.5261
26.5245
26.5229
26.5213
26.5197
26.5181
26.5166
26.515
26.5134
26.5118
26.5102
26.5086
26.507
26.5055
26.5039
26.5023
26.5007
26.4991
26.4975
26.496
26.4944
26.4928
26.4912
26.4896
26.488
26.4864
26.4849
26.4833
26.4817
26.4801
26.4785
26.4769
26.4753
26.4738
26.4722
26.4706
26.469
26.4674
26.4658
26.4643
26.4627
26.4611
26.4595
26.4579
26.4563
26.4548
26.4532
26.4516
26.45
26.4484
26.4468
26.4452
26.4437
26.4421
26.4405
26.4389
26.4373
26.4357
26.4342
26.4326
26.431
26.4294
26.4278
26.4262
26.4247
26.4231
26.4215
26.4199
26.4183
26.4167
26.4152
26.4136
26.412
26.4104
26.4088
26.4072
26.4057
26.4041
26.4025
26.4009
26.3993
26.3977
26.3962
26.3946
26.393
26.3914
26.3898
26.3882
26.3867
26.3851
26.3835
26.3819
26.3803
26.3787
26.3772
26.3756
26.374
26.3724
26.3708
26.3692
26.3677
26.3661
26.3645
26.3629
26.3613
26.3597
26.3582
26.3566
26.355
26.3534
26.3518
26.3502
26.3487
26.3471
26.3455
26.3439
26.3423
26.3408
26.3392
26.3376
26.336
26.3344
26.3328
26.3313
26.3297
26.3281
26.3265
26.3249
26.3233
26.3218
26.3202
26.3186
26.317
26.3154
26.3139
26.3123
26.3107
26.3091
26.3075
26.3059
26.3044
26.3028
26.3012
26.2996
26.298
26.2965
26.2949
26.2933
26.2917
26.2901
26.2885
26.287
26.2854
26.2838
26.2822
26.2806
26.2791
26.2775
26.2759
26.2743
26.2727
26.2712
26.2696
26.268
26.2664
26.2648
26.2632
26.2617
26.2601
26.2585
26.2569
26.2553
26.2538
26.2522
26.2506
26.249
26.2474
26.2459
26.2443
26.2427
26.2411
26.2395
26.238
26.2364
26.2348
26.2332
26.2316
26.2301
26.2285
26.2269
26.2253
26.2237
26.2222
26.2206
26.219
26.2174
26.2158
26.2143
26.2127
26.2111
26.2095
26.2079
26.2064
26.2048
26.2032
26.2016
26.2
26.2
28.9533
28.9533
28.0689
27.8357
27.7671
27.7372
27.7196
27.7072
27.6975
27.6893
27.6821
27.6756
27.6696
27.664
27.6586
27.6534
27.6484
27.6436
27.6388
27.6342
27.6296
27.6251
27.6207
27.6164
27.6121
27.6079
27.6037
27.5996
27.5955
27.5915
27.5875
27.5836
27.5797
27.5759
27.5721
27.5683
27.5646
27.5609
27.5573
27.5537
27.5501
27.5466
27.5431
27.5397
27.5362
27.5328
27.5295
27.5261
27.5228
27.5195
27.5163
27.5131
27.5099
27.5067
27.5035
27.5004
27.4973
27.4942
27.4912
27.4881
27.4851
27.4821
27.4792
27.4762
27.4733
27.4704
27.4675
27.4646
27.4618
27.4589
27.4561
27.4533
27.4505
27.4477
27.445
27.4422
27.4395
27.4368
27.4341
27.4314
27.4287
27.4261
27.4234
27.4208
27.4182
27.4156
27.413
27.4104
27.4078
27.4053
27.4028
27.4002
27.3977
27.3952
27.3927
27.3902
27.3877
27.3853
27.3828
27.3804
27.3779
27.3755
27.3731
27.3707
27.3683
27.3659
27.3635
27.3612
27.3588
27.3564
27.3541
27.3518
27.3494
27.3471
27.3448
27.3425
27.3402
27.3379
27.3357
27.3334
27.3311
27.3289
27.3266
27.3244