# vtk DataFile Version 2.0
FlowField
ASCII
DATASET STRUCTURED_GRID
DIMENSIONS 800 1 200
POINTS 160000 float
0 0 0
0.04 0 0
0.08 0 0
0.12 0 0
0.16 0 0
0.2 0 0
0.24 0 0
0.28 0 0
0.32 0 0
0.36 0 0
0.4 0 0
0.44 0 0
0.48 0 0
0.52 0 0
0.56 0 0
0.6 0 0
0.64 0 0
0.68 0 0
0.72 0 0
0.76 0 0
0.8 0 0
0.84 0 0
0.88 0 0
0.92 0 0
0.96 0 0
1 0 0
1.04 0 0
1.08 0 0
1.12 0 0
1.16 0 0
1.2 0 0
1.24 0 0
1.28 0 0
1.32 0 0
1.36 0 0
1.4 0 0
1.44 0 0
1.48 0 0
1.52 0 0
1.56 0 0
1.6 0 0
1.64 0 0
1.68 0 0
1.72 0 0
1.76 0 0
1.8 0 0
1.84 0 0
1.88 0 0
1.92 0 0
1.96 0 0
2 0 0
2.04 0 0
2.08 0 0
2.12 0 0
2.16 0 0
2.2 0 0
2.24 0 0
2.28 0 0
2.32 0 0
2.36 0 0
2.4 0 0
2.44 0 0
2.48 0 0
2.52 0 0
2.56 0 0
2.6 0 0
2.64 0 0
2.68 0 0
2.72 0 0
2.76 0 0
2.8 0 0
2.84 0 0
2.88 0 0
2.92 0 0
2.96 0 0
3 0 0
3.04 0 0
3.08 0 0
3.12 0 0
3.16 0 0
3.2 0 0
3.24 0 0
3.28 0 0
3.32 0 0
3.36 0 0
3.4 0 0
3.44 0 0
3.48 0 0
3.52 0 0
3.56 0 0
3.6 0 0
3.64 0 0
3.68 0 0
3.72 0 0
3.76 0 0
3.8 0 0
3.84 0 0
3.88 0 0
3.92 0 0
3.96 0 0
4 0 0
4.04 0 0
4.08 0 0
4.12 0 0
4.16 0 0
4.2 0 0
4.24 0 0
4.28 0 0
4.32 0 0
4.36 0 0
4.4 0 0
4.44 0 0
4.48 0 0
4.52 0 0
4.56 0 0
4.6 0 0
4.64 0 0
4.68 0 0
4.72 0 0
4.76 0 0
4.8 0 0
4.84 0 0
4.88 0 0
4.92 0 0
4.96 0 0
5 0 0
5.04 0 0
5.08 0 0
5.12 0 0
5.16 0 0
5.2 0 0
5.24 0 0
5.28 0 0
5.32 0 0
5.36 0 0
5.4 0 0
5.44 0 0
5.48 0 0
5.52 0 0
5.56 0 0
5.6 0 0
5.64 0 0
5.68 0 0
5.72 0 0
5.76 0 0
5.8 0 0
5.84 0 0
5.88 0 0
5.92 0 0
5.96 0 0
6 0 0
6.04 0 0
6.08 0 0
6.12 0 0
6.16 0 0
6.2 0 0
6.24 0 0
6.28 0 0
6.32 0 0
6.36 0 0
6.4 0 0
6.44 0 0
6.48 0 0
6.52 0 0
6.56 0 0
6.6 0 0
6.64 0 0
6.68 0 0
6.72 0 0
6.76 0 0
6.8 0 0
6.84 0 0
6.88 0 0
6.92 0 0
6.96 0 0
7 0 0
7.04 0 0
7.08 0 0
7.12 0 0
7.16 0 0
7.2 0 0
7.24 0 0
7.28 0 0
7.32 0 0
7.36 0 0
7.4 0 0
7.44 0 0
7.48 0 0
7.52 0 0
7.56 0 0
7.6 0 0
7.64 0 0
7.68 0 0
7.72 0 0
7.76 0 0
7.8 0 0
7.84 0 0
7.88 0 0
7.92 0 0
7.96 0 0
8 0 0
8.04 0 0
8.08 0 0
8.12 0 0
8.16 0 0
8.2 0 0
8.24 0 0
8.28 0 0
8.32 0 0
8.36 0 0
8.4 0 0
8.44 0 0
8.48 0 0
8.52 0 0
8.56 0 0
8.6 0 0
8.64 0 0
8.68 0 0
8.72 0 0
8.76 0 0
8.8 0 0
8.84 0 0
8.88 0 0
8.92 0 0
8.96 0 0
9 0 0
9.04 0 0
9.08 0 0
9.12 0 0
9.16 0 0
9.2 0 0
9.24 0 0
9.28 0 0
9.32 0 0
9.36 0 0
9.4 0 0
9.44 0 0
9.48 0 0
9.52 0 0
9.56 0 0
9.6 0 0
9.64 0 0
9.68 0 0
9.72 0 0
9.76 0 0
9.8 0 0
9.84 0 0
9.88 0 0
9.92 0 0
9.96 0 0
10 0 0
10.04 0 0
10.08 0 0
10.12 0 0
10.16 0 0
10.2 0 0
10.24 0 0
10.28 0 0
10.32 0 0
10.36 0 0
10.4 0 0
10.44 0 0
10.48 0 0
10.52 0 0
10.56 0 0
10.6 0 0
10.64 0 0
10.68 0 0
10.72 0 0
10.76 0 0
10.8 0 0
10.84 0 0
10.88 0 0
10.92 0 0
10.96 0 0
11 0 0
11.04 0 0
11.08 0 0
11.12 0 0
11.16 0 0
11.2 0 0
11.24 0 0
11.28 0 0
11.32 0 0
11.36 0 0
11.4 0 0
11.44 0 0
11.48 0 0
11.52 0 0
11.56 0 0
11.6 0 0
11.64 0 0
11.68 0 0
11.72 0 0
11.76 0 0
11.8 0 0
11.84 0 0
11.88 0 0
11.92 0 0
11.96 0 0
12 0 0
12.04 0 0
12.08 0 0
12.12 0 0
12.16 0 0
12.2 0 0
12.24 0 0
12.28 0 0
12.32 0 0
12.36 0 0
12.4 0 0
12.44 0 0
12.48 0 0
12.52 0 0
12.56 0 0
12.6 0 0
12.64 0 0
12.68 0 0
12.72 0 0
12.76 0 0
12.8 0 0
12.84 0 0
12.88 0 0
12.92 0 0
12.96 0 0
13 0 0
13.04 0 0
13.08 0 0
13.12 0 0
13.16 0 0
13.2 0 0
13.24 0 0
13.28 0 0
13.32 0 0
13.36 0 0
13.4 0 0
13.44 0 0
13.48 0 0
13.52 0 0
13.56 0 0
13.6 0 0
13.64 0 0
13.68 0 0
13.72 0 0
13.76 0 0
13.8 0 0
13.84 0 0
13.88 0 0
13.92 0 0
13.96 0 0
14 0 0
14.04 0 0
14.08 0 0
14.12 0 0
14.16 0 0
14.2 0 0
14.24 0 0
14.28 0 0
14.32 0 0
14.36 0 0
14.4 0 0
14.44 0 0
14.48 0 0
14.52 0 0
14.56 0 0
14.6 0 0
14.64 0 0
14.68 0 0
14.72 0 0
14.76 0 0
14.8 0 0
14.84 0 0
14.88 0 0
14.92 0 0
14.96 0 0
15 0 0
15.04 0 0
15.08 0 0
15.12 0 0
15.16 0 0
15.2 0 0
15.24 0 0
15.28 0 0
15.32 0 0
15.36 0 0
15.4 0 0
15.44 0 0
15.48 0 0
15.52 0 0
15.56 0 0
15.6 0 0
15.64 0 0
15.68 0 0
15.72 0 0
15.76 0 0
15.8 0 0
15.84 0 0
15.88 0 0
15.92 0 0
15.96 0 0
16 0 0
16.04 0 0
16.08 0 0
16.12 0 0
16.16 0 0
16.2 0 0
16.24 0 0
16.28 0 0
16.32 0 0
16.36 0 0
16.4 0 0
16.44 0 0
16.48 0 0
16.52 0 0
16.56 0 0
16.6 0 0
16.64 0 0
16.68 0 0
16.72 0 0
16.76 0 0
16.8 0 0
16.84 0 0
16.88 0 0
16.92 0 0
16.96 0 0
17 0 0
17.04 0 0
17.08 0 0
17.12 0 0
17.16 0 0
17.2 0 0
17.24 0 0
17.28 0 0
17.32 0 0
17.36 0 0
17.4 0 0
17.44 0 0
17.48 0 0
17.52 0 0
17.56 0 0
17.6 0 0
17.64 0 0
17.68 0 0
17.72 0 0
17.76 0 0
17.8 0 0
17.84 0 0
17.88 0 0
17.92 0 0
17.96 0 0
18 0 0
18.04 0 0
18.08 0 0
18.12 0 0
18.16 0 0
18.2 0 0
18.24 0 0
18.28 0 0
18.32 0 0
18.36 0 0
18.4 0 0
18.44 0 0
18.48 0 0
18.52 0 0
18.56 0 0
18.6 0 0
18.64 0 0
18.68 0 0
18.72 0 0
18.76 0 0
18.8 0 0
18.84 0 0
18.88 0 0
18.92 0 0
18.96 0 0
19 0 0
19.04 0 0
19.08 0 0
19.12 0 0
19.16 0 0
19.2 0 0
19.24 0 0
19.28 0 0
19.32 0 0
19.36 0 0
19.4 0 0
19.44 0 0
19.48 0 0
19.52 0 0
19.56 0 0
19.6 0 0
19.64 0 0
19.68 0 0
19.72 0 0
19.76 0 0
19.8 0 0
19.84 0 0
19.88 0 0
19.92 0 0
19.96 0 0
20 0 0
20.04 0 0
20.08 0 0
20.12 0 0
20.16 0 0
20.2 0 0
20.24 0 0
20.28 0 0
20.32 0 0
20.36 0 0
20.4 0 0
20.44 0 0
20.48 0 0
20.52 0 0
20.56 0 0
20.6 0 0
20.64 0 0
20.68 0 0
20.72 0 0
20.76 0 0
20.8 0 0
20.84 0 0
20.88 0 0
20.92 0 0
20.96 0 0
21 0 0
21.04 0 0
21.08 0 0
21.12 0 0
21.16 0 0
21.2 0 0
21.24 0 0
21.28 0 0
21.32 0 0
21.36 0 0
21.4 0 0
21.44 0 0
21.48 0 0
21.52 0 0
21.56 0 0
21.6 0 0
21.64 0 0
21.68 0 0
21.72 0 0
21.76 0 0
21.8 0 0
21.84 0 0
21.88 0 0
21.92 0 0
21.96 0 0
22 0 0
22.04 0 0
22.08 0 0
22.12 0 0
22.16 0 0
22.2 0 0
22.24 0 0
22.28 0 0
22.32 0 0
22.36 0 0
22.4 0 0
22.44 0 0
22.48 0 0
22.52 0 0
22.56 0 0
22.6 0 0
22.64 0 0
22.68 0 0
22.72 0 0
22.76 0 0
22.8 0 0
22.84 0 0
22.88 0 0
22.92 0 0
22.96 0 0
23 0 0
23.04 0 0
23.08 0 0
23.12 0 0
23.16 0 0
23.2 0 0
23.24 0 0
23.28 0 0
23.32 0 0
23.36 0 0
23.4 0 0
23.44 0 0
23.48 0 0
23.52 0 0
23.56 0 0
23.6 0 0
23.64 0 0
23.68 0 0
23.72 0 0
23.76 0 0
23.8 0 0
23.84 0 0
23.88 0 0
23.92 0 0
23.96 0 0
24 0 0
24.04 0 0
24.08 0 0
24.12 0 0
24.16 0 0
24.2 0 0
24.24 0 0
24.28 0 0
24.32 0 0
24.36 0 0
24.4 0 0
24.44 0 0
24.48 0 0
24.52 0 0
24.56 0 0
24.6 0 0
24.64 0 0
24.68 0 0
24.72 0 0
24.76 0 0
24.8 0 0
24.84 0 0
24.88 0 0
24.92 0 0
24.96 0 0
25 0 0
25.04 0 0
25.08 0 0
25.12 0 0
25.16 0 0
25.2 0 0
25.24 0 0
25.28 0 0
25.32 0 0
25.36 0 0
25.4 0 0
25.44 0 0
25.48 0 0
25.52 0 0
25.56 0 0
25.6 0 0
25.64 0 0
25.68 0 0
25.72 0 0
25.76 0 0
25.8 0 0
25.84 0 0
25.88 0 0
25.92 0 0
25.96 0 0
26 0 0
26.04 0 0
26.08 0 0
26.12 0 0
26.16 0 0
26.2 0 0
26.24 0 0
26.28 0 0
26.32 0 0
26.36 0 0
26.4 0 0
26.44 0 0
26.48 0 0
26.52 0 0
26.56 0 0
26.6 0 0
26.64 0 0
26.68 0 0
26.72 0 0
26.76 0 0
26.8 0 0
26.84 0 0
26.88 0 0
26.92 0 0
26.96 0 0
27 0 0
27.04 0 0
27.08 0 0
27.12 0 0
27.16 0 0
27.2 0 0
27.24 0 0
27.28 0 0
27.32 0 0
27.36 0 0
27.4 0 0
27.44 0 0
27.48 0 0
27.52 0 0
27.56 0 0
27.6 0 0
27.64 0 0
27.68 0 0
27.72 0 0
27.76 0 0
27.8 0 0
27.84 0 0
27.88 0 0
27.92 0 0
27.96 0 0
28 0 0
28.04 0 0
28.08 0 0
28.12 0 0
28.16 0 0
28.2 0 0
28.24 0 0
28.28 0 0
28.32 0 0
28.36 0 0
28.4 0 0
28.44 0 0
28.48 0 0
28.52 0 0
28.56 0 0
28.6 0 0
28.64 0 0
28.68 0 0
28.72 0 0
28.76 0 0
28.8 0 0
28.84 0 0
28.88 0 0
28.92 0 0
28.96 0 0
29 0 0
29.04 0 0
29.08 0 0
29.12 0 0
29.16 0 0
29.2 0 0
29.24 0 0
29.28 0 0
29.32 0 0
29.36 0 0
29.4 0 0
29.44 0 0
29.48 0 0
29.52 0 0
29.56 0 0
29.6 0 0
29.64 0 0
29.68 0 0
29.72 0 0
29.76 0 0
29.8 0 0
29.84 0 0
29.88 0 0
29.92 0 0
29.96 0 0
30 0 0
30.04 0 0
30.08 0 0
30.12 0 0
30.16 0 0
30.2 0 0
30.24 0 0
30.28 0 0
30.32 0 0
30.36 0 0
30.4 0 0
30.44 0 0
30.48 0 0
30.52 0 0
30.56 0 0
30.6 0 0
30.64 0 0
30.68 0 0
30.72 0 0
30.76 0 0
30.8 0 0
30.84 0 0
30.88 0 0
30.92 0 0
30.96 0 0
31 0 0
31.04 0 0
31.08 0 0
31.12 0 0
31.16 0 0
31.2 0 0
31.24 0 0
31.28 0 0
31.32 0 0
31.36 0 0
31.4 0 0
31.44 0 0
31.48 0 0
31.52 0 0
31.56 0 0
31.6 0 0
31.64 0 0
31.68 0 0
31.72 0 0
31.76 0 0
31.8 0 0
31.84 0 0
31.88 0 0
31.92 0 0
31.96 0 0
0 0.005 0
0.04 0.005 0
0.08 0.005 0
0.12 0.005 0
0.16 0.005 0
0.2 0.005 0
0.24 0.005 0
0.28 0.005 0
0.32 0.005 0
0.36 0.005 0
0.4 0.005 0
0.44 0.005 0
0.48 0.005 0
0.52 0.005 0
0.56 0.005 0
0.6 0.005 0
0.64 0.005 0
0.68 0.005 0
0.72 0.005 0
0.76 0.005 0
0.8 0.005 0
0.84 0.005 0
0.88 0.005 0
0.92 0.005 0
0.96 0.005 0
1 0.005 0
1.04 0.005 0
1.08 0.005 0
1.12 0.005 0
1.16 0.005 0
1.2 0.005 0
1.24 0.005 0
1.28 0.005 0
1.32 0.005 0
1.36 0.005 0
1.4 0.005 0
1.44 0.005 0
1.48 0.005 0
1.52 0.005 0
1.56 0.005 0
1.6 0.005 0
1.64 0.005 0
1.68 0.005 0
1.72 0.005 0
1.76 0.005 0
1.8 0.005 0
1.84 0.005 0
1.88 0.005 0
1.92 0.005 0
1.96 0.005 0
2 0.005 0
2.04 0.005 0
2.08 0.005 0
2.12 0.005 0
2.16 0.005 0
2.2 0.005 0
2.24 0.005 0
2.28 0.005 0
2.32 0.005 0
2.36 0.005 0
2.4 0.005 0
2.44 0.005 0
2.48 0.005 0
2.52 0.005 0
2.56 0.005 0
2.6 0.005 0
2.64 0.005 0
2.68 0.005 0
2.72 0.005 0
2.76 0.005 0
2.8 0.005 0
2.84 0.005 0
2.88 0.005 0
2.92 0.005 0
2.96 0.005 0
3 0.005 0
3.04 0.005 0
3.08 0.005 0
3.12 0.005 0
3.16 0.005 0
3.2 0.005 0
3.24 0.005 0
3.28 0.005 0
3.32 0.005 0
3.36 0.005 0
3.4 0.005 0
3.44 0.005 0
3.48 0.005 0
3.52 0.005 0
3.56 0.005 0
3.6 0.005 0
3.64 0.005 0
3.68 0.005 0
3.72 0.005 0
3.76 0.005 0
3.8 0.005 0
3.84 0.005 0
3.88 0.005 0
3.92 0.005 0
3.96 0.005 0
4 0.005 0
4.04 0.005 0
4.08 0.005 0
4.12 0.005 0
4.16 0.005 0
4.2 0.005 0
4.24 0.005 0
4.28 0.005 0
4.32 0.005 0
4.36 0.005 0
4.4 0.005 0
4.44 0.005 0
4.48 0.005 0
4.52 0.005 0
4.56 0.005 0
4.6 0.005 0
4.64 0.005 0
4.68 0.005 0
4.72 0.005 0
4.76 0.005 0
4.8 0.005 0
4.84 0.005 0
4.88 0.005 0
4.92 0.005 0
4.96 0.005 0
5 0.005 0
5.04 0.005 0
5.08 0.005 0
5.12 0.005 0
5.16 0.005 0
5.2 0.005 0
5.24 0.005 0
5.28 0.005 0
5.32 0.005 0
5.36 0.005 0
5.4 0.005 0
5.44 0.005 0
5.48 0.005 0
5.52 0.005 0
5.56 0.005 0
5.6 0.005 0
5.64 0.005 0
5.68 0.005 0
5.72 0.005 0
5.76 0.005 0
5.8 0.005 0
5.84 0.005 0
5.88 0.005 0
5.92 0.005 0
5.96 0.005 0
6 0.005 0
6.04 0.005 0
6.08 0.005 0
6.12 0.005 0
6.16 0.005 0
6.2 0.005 0
6.24 0.005 0
6.28 0.005 0
6.32 0.005 0
6.36 0.005 0
6.4 0.005 0
6.44 0.005 0
6.48 0.005 0
6.52 0.005 0
6.56 0.005 0
6.6 0.005 0
6.64 0.005 0
6.68 0.005 0
6.72 0.005 0
6.76 0.005 0
6.8 0.005 0
6.84 0.005 0
6.88 0.005 0
6.92 0.005 0
6.96 0.005 0
7 0.005 0
7.04 0.005 0
7.08 0.005 0
7.12 0.005 0
7.16 0.005 0
7.2 0.005 0
7.24 0.005 0
7.28 0.005 0
7.32 0.005 0
7.36 0.005 0
7.4 0.005 0
[...]
POINT_DATA 160000

SCALARS p float 1
LOOKUP_TABLE default
1
82.623
80.4075
80.1526
80.0925
80.0661
80.05
80.0384
80.0292
80.0213
80.0144
80.0081
80.0022
79.9966
79.9913
79.9862
79.9812
79.9764
79.9717
79.9671
79.9625
79.9581
79.9537
79.9493
79.9451
79.9408
79.9367
79.9326
79.9285
79.9245
79.9205
79.9166
79.9127
79.9089
79.9051
79.9014
79.8976
79.894
79.8903
79.8867
79.8832
79.8797
79.8762
79.8727
79.8693
79.8659
79.8625
79.8592
79.8559
79.8526
79.8493
79.8461
79.8429
79.8397
79.8366
79.8335
79.8304
79.8273
79.8242
79.8212
79.8182
79.8152
79.8122
79.8093
79.8063
79.8034
79.8005
79.7977
79.7948
79.792
79.7891
79.7863
79.7835
79.7808
79.778
79.7753
79.7725
79.7698
79.7671
79.7644
79.7618
79.7591
79.7565
79.7539
79.7512
79.7486
79.746
79.7435
79.7409
79.7383
79.7358
79.7333
79.7307
79.7282
79.7257
79.7233
79.7208
79.7183
79.7159
79.7134
79.711
79.7085
79.7061
79.7037
79.7013
79.6989
79.6966
79.6942
79.6918
79.6895
79.6871
79.6848
79.6825
79.6802
79.6778
79.6755
79.6732
79.671
79.6687
79.6664
79.6641
79.6619
79.6596
79.6574
79.6552
79.6529
79.6507
79.6485
79.6463
79.6441
79.6419
79.6397
79.6375
79.6354
79.6332
79.631
79.6289
79.6267
79.6246
79.6224
79.6203
79.6182
79.6161
79.6139
79.6118
79.6097
79.6076
79.6055
79.6035
79.6014
79.5993
79.5972
79.5952
79.5931
79.591
79.589
79.5869
79.5849
79.5829
79.5808
79.5788
79.5768
79.5748
79.5727
79.5707
79.5687
79.5667
79.5647
79.5627
79.5607
79.5588
79.5568
79.5548
79.5528
79.5509
79.5489
79.5469
79.545
79.543
79.5411
79.5391
79.5372
79.5353
79.5333
79.5314
79.5295
79.5276
79.5256
79.5237
79.5218
79.5199
79.518
79.5161
79.5142
79.5123
79.5104
79.5085
79.5066
79.5048
79.5029
79.501
79.4991
79.4973
79.4954
79.4935
79.4917
79.4898
79.488
79.4861
79.4843
79.4824
79.4806
79.4787
79.4769
79.4751
79.4732
79.4714
79.4696
79.4678
79.4659
79.4641
79.4623
79.4605
79.4587
79.4569
79.4551
79.4532
79.4514
79.4496
79.4478
79.4461
79.4443
79.4425
79.4407
79.4389
79.4371
79.4353
79.4336
79.4318
79.43
79.4282
79.4265
79.4247
79.4229
79.4212
79.4194
79.4176
79.4159
79.4141
79.4124
79.4106
79.4089
79.4071
79.4054
79.4036
79.4019
79.4001
79.3984
79.3967
79.3949
79.3932
79.3914
79.3897
79.388
79.3863
79.3845
79.3828
79.3811
79.3794
79.3776
79.3759
79.3742
79.3725
79.3708
79.3691
79.3674
79.3657
79.3639
79.3622
79.3605
79.3588
79.3571
79.3554
79.3537
79.352
79.3503
79.3486
79.3469
79.3453
79.3436
79.3419
79.3402
79.3385
79.3368
79.3351
79.3334
79.3318
79.3301
79.3284
79.3267
79.3251
79.3234
79.3217
79.32
79.3184
79.3167
79.315
79.3133
79.3117
79.31
79.3083
79.3067
79.305
79.3034
79.3017
79.3
79.2984
79.2967
79.2951
79.2934
79.2917
79.2901
79.2884
79.2868
79.2851
79.2835
79.2818
79.2802
79.2785
79.2769
79.2752
79.2736
79.272
79.2703
79.2687
79.267
79.2654
79.2637
79.2621
79.2605
79.2588
79.2572
79.2556
79.2539
79.2523
79.2507
79.249
79.2474
79.2458
79.2441
79.2425
79.2409
79.2392
79.2376
79.236
79.2344
79.2327
79.2311
79.2295
79.2279
79.2262
79.2246
79.223
79.2214
79.2198
79.2181
79.2165
79.2149
79.2133
79.2117
79.21
79.2084
79.2068
79.2052
79.2036
79.202
79.2004
79.1987
79.1971
79.1955
79.1939
79.1923
79.1907
79.1891
79.1875
79.1859
79.1843
79.1826
79.181
79.1794
79.1778
79.1762
79.1746
79.173
79.1714
79.1698
79.1682
79.1666
79.165
79.1634
79.1618
79.1602
79.1586
79.157
79.1554
79.1538
79.1522
79.1506
79.149
79.1474
79.1458
79.1442
79.1426
79.141
79.1394
79.1378
79.1363
79.1347
79.1331
79.1315
79.1299
79.1283
79.1267
79.1251
79.1235
79.1219
79.1203
79.1187
79.1172
79.1156
79.114
79.1124
79.1108
79.1092
79.1076
79.106
79.1045
79.1029
79.1013
79.0997
79.0981
79.0965
79.0949
79.0934
79.0918
79.0902
79.0886
79.087
79.0854
79.0839
79.0823
79.0807
79.0791
79.0775
79.0759
79.0744
79.0728
79.0712
79.0696
79.068
79.0665
79.0649
79.0633
79.0617
79.0601
79.0586
79.057
79.0554
79.0538
79.0523
79.0507
79.0491
79.0475
79.0459
79.0444
79.0428
79.0412
79.0396
79.0381
79.0365
79.0349
79.0333
79.0318
79.0302
79.0286
79.0271
79.0255
79.0239
79.0223
79.0208
79.0192
79.0176
79.016
79.0145
79.0129
79.0113
79.0098
79.0082
79.0066
79.005
79.0035
79.0019
79.0003
78.9988
78.9972
78.9956
78.994
78.9925
78.9909
78.9893
78.9878
78.9862
78.9846
78.9831
78.9815
78.9799
78.9784
78.9768
78.9752
78.9737
78.9721
78.9705
78.969
78.9674
78.9658
78.9643
78.9627
78.9611
78.9596
78.958
78.9564
78.9549
78.9533
78.9517
78.9502
78.9486
78.947
78.9455
78.9439
78.9423
78.9408
78.9392
78.9376
78.9361
78.9345
78.933
78.9314
78.9298
78.9283
78.9267
78.9251
78.9236
78.922
78.9205
78.9189
78.9173
78.9158
78.9142
78.9126
78.9111
78.9095
78.908
78.9064
78.9048
78.9033
78.9017
78.9001
78.8986
78.897
78.8955
78.8939
78.8923
78.8908
78.8892
78.8877
78.8861
78.8845
78.883
78.8814
78.8799
78.8783
78.8767
78.8752
78.8736
78.8721
78.8705
78.8689
78.8674
78.8658
78.8643
78.8627
78.8612
78.8596
78.858
78.8565
78.8549
78.8534
78.8518
78.8502
78.8487
78.8471
78.8456
78.844
78.8425
78.8409
78.8393
78.8378
78.8362
78.8347
78.8331
78.8316
78.83
78.8284
78.8269
78.8253
78.8238
78.8222
78.8207
78.8191
78.8175
78.816
78.8144
78.8129
78.8113
78.8098
78.8082
78.8067
78.8051
78.8035
78.802
78.8004
78.7989
78.7973
78.7958
78.7942
78.7927
78.7911
78.7895
78.788
78.7864
78.7849
78.7833
78.7818
78.7802
78.7787
78.7771
78.7756
78.774
78.7724
78.7709
78.7693
78.7678
78.7662
78.7647
78.7631
78.7616
78.76
78.7585
78.7569
78.7554
78.7538
78.7523
78.7507
78.7491
78.7476
78.746
78.7445
78.7429
78.7414
78.7398
78.7383
78.7367
78.7352
78.7336
78.7321
78.7305
78.729
78.7274
78.7259
78.7243
78.7227
78.7212
78.7196
78.7181
78.7165
78.715
78.7134
78.7119
78.7103
78.7088
78.7072
78.7057
78.7041
78.7026
78.701
78.6995
78.6979
78.6964
78.6948
78.6933
78.6917
78.6902
78.6886
78.6871
78.6855
78.684
78.6824
78.6809
78.6793
78.6778
78.6762
78.6747
78.6731
78.6716
78.67
78.6685
78.6669
78.6654
78.6638
78.6623
78.6607
78.6592
78.6576
78.6561
78.6545
78.653
78.6514
78.6499
78.6483
78.6468
78.6452
78.6437
78.6421
78.6406
78.639
78.6375
78.6359
78.6344
78.6328
78.6313
78.6297
78.6282
78.6266
78.6251
78.6235
78.622
78.6204
78.6189
78.6173
78.6158
78.6142
78.6127
78.6111
78.6096
78.608
78.6065
78.6049
78.6034
78.6018
78.6003
78.5987
78.5972
78.5956
78.5941
78.5925
78.591
78.5895
78.5879
78.5864
78.5848
78.5833
78.5817
78.5802
78.5786
78.5771
78.5755
78.574
78.5724
78.5709
78.5693
78.5678
78.5662
78.5647
78.5631
78.5616
78.56
78.5585
78.557
78.5554
78.5539
78.5523
78.5508
78.5492
78.5477
78.5461
78.5446
78.543
78.5415
78.5399
1
82.623
82.623
80.4075
80.1526
80.0925
80.0661
80.05
80.0384
80.0292
80.0213
80.0144
80.0081
80.0022
79.9966
79.9913
79.9862
79.9812
79.9764
79.9717
79.9671
79.9625
79.9581
79.9537
79.9493
79.9451
79.9408
79.9367
79.9326
79.9285
79.9245
79.9205
79.9166
79.9127
79.9089
79.9051
79.9014
79.8976
79.894
79.8903
79.8867
79.8832
79.8797
79.8762
79.8727
79.8693
79.8659
79.8625
79.8592
79.8559
79.8526
79.8493
79.8461
79.8429
79.8397
79.8366
79.8335
79.8304
79.8273
79.8242
79.8212
79.8182
79.8152
79.8122
79.8093
79.8063
79.8034
79.8005
79.7977
79.7948
79.792
79.7891
79.7863
79.7835
79.7808
79.778
79.7753
79.7725
79.7698
79.7671
79.7644
79.7618
79.7591
79.7565
79.7539
79.7512
79.7486
79.746
79.7435
79.7409
79.7383
79.7358
79.7333
79.7307
79.7282
79.7257
79.7233
79.7208
79.7183
79.7159
79.7134
79.711
79.7085
79.7061
79.7037
79.7013
79.6989
79.6966
79.6942
79.6918
79.6895
79.6871
79.6848
79.6825
79.6802
79.6778
79.6755
79.6732
79.671
79.6687
79.6664
79.6641
79.6619
79.6596
79.6574
79.6552
79.6529
79.6507
79.6485
79.6463
79.6441
79.6419
79.6397
79.6375
79.6354
79.6332
79.631
79.6289
79.6267
79.6246
79.6224
79.6203
79.6182
79.6161
79.6139
79.6118
79.6097
79.6076
79.6055
79.6035
79.6014
79.5993
79.5972
79.5952
79.5931
79.591
79.589
79.5869
79.5849
79.5829
79.5808
79.5788
79.5768
79.5748
79.5727
79.5707
79.5687
79.5667
79.5647
79.5627
79.5607
79.5588
79.5568
79.5548
79.5528
79.5509
79.5489
79.5469
79.545
79.543
79.5411
79.5391
79.5372
79.5353
79.5333
79.5314
79.5295
79.5276
79.5256
79.5237
79.5218
79.5199
79.518
79.5161
79.5142
79.5123
79.5104
79.5085
79.5066
79.5048
79.5029
79.501
79.4991
79.4973
79.4954
79.4935
79.4917
79.4898
79.488
79.4861
79.4843
79.4824
79.4806
79.4787
79.4769
79.4751
79.4732
79.4714
79.4696
79.4678
79.4659
79.4641
79.4623
79.4605
79.4587
79.4569
79.4551
79.4532
79.4514
79.4496
79.4478
79.4461
79.4443
79.4425
79.4407
79.4389
79.4371
79.4353
79.4336
79.4318
79.43
79.4282
79.4265
79.4247
79.4229
79.4212
79.4194
79.4176
79.4159
79.4141
79.4124
79.4106
79.4089
79.4071
79.4054
79.4036
79.4019
79.4001
79.3984
79.3967
79.3949
79.3932
79.3914
79.3897
79.388
79.3863
79.3845
79.3828
79.3811
79.3794
79.3776
79.3759
79.3742
79.3725
79.3708
79.3691
79.3674
79.3657
79.3639
79.3622
79.3605
79.3588
79.3571
79.3554
79.3537
79.352
79.3503
79.3486
79.3469
79.3453
79.3436
79.3419
79.3402
79.3385
79.3368
79.3351
79.3334
79.3318
79.3301
79.3284
79.3267
79.3251
79.3234
79.3217
79.32
79.3184
79.3167
79.315
79.3133
79.3117
79.31
79.3083
79.3067
79.305
79.3034
79.3017
79.3
79.2984
79.2967
79.2951
79.2934
79.2917
79.2901
79.2884
79.2868
79.2851
79.2835
79.2818
79.2802
79.2785
79.2769
79.2752
79.2736
79.272
79.2703
79.2687
79.267
79.2654
79.2637
79.2621
79.2605
79.2588
79.2572
79.2556
79.2539
79.2523
79.2507
79.249
79.2474
79.2458
79.2441
79.2425
79.2409
79.2392
79.2376
79.236
79.2344
79.2327
79.2311
79.2295
79.2279
79.2262
79.2246
79.223
79.2214
79.2198
79.2181
79.2165
79.2149
79.2133
79.2117
79.21
79.2084
79.2068
79.2052
79.2036
79.202
79.2004
79.1987
79.1971
79.1955
79.1939
79.1923
79.1907
79.1891
79.1875
79.1859
79.1843
79.1826
79.181
79.1794
79.1778
79.1762
79.1746
79.173
79.1714
79.1698
79.1682
79.1666
79.165
79.1634
79.1618
79.1602
79.1586
79.157
79.1554
79.1538
79.1522
79.1506
79.149
79.1474
79.1458
79.1442
79.1426
79.141
79.1394
79.1378
79.1363
79.1347
79.1331
79.1315
79.1299
79.1283
79.1267
79.1251
79.1235
79.1219
79.1203
79.1187
79.1172
79.1156
79.114
79.1124
79.1108
79.1092
79.1076
79.106
79.1045
79.1029
79.1013
79.0997
79.0981
79.0965
79.0949
79.0934
79.0918
79.0902
79.0886
79.087
79.0854
79.0839
79.0823
79.0807
79.0791
79.0775
79.0759
79.0744
79.0728
79.0712
79.0696
79.068
79.0665
79.0649
79.0633
79.0617
79.0601
79.0586
79.057
79.0554
79.0538
79.0523
79.0507
79.0491
79.0475
79.0459
79.0444
79.0428
79.0412
79.0396
79.0381
79.0365
79.0349
79.0333
79.0318
79.0302
79.0286
79.0271
79.0255
79.0239
79.0223
79.0208
79.0192
79.0176
79.016
79.0145
79.0129
79.0113
79.0098
79.0082
79.0066
79.005
79.0035
79.0019
79.0003
78.9988
78.9972
78.9956
78.994
78.9925
78.9909
78.9893
78.9878
78.9862
78.9846
78.9831
78.9815
78.9799
78.9784
78.9768
78.9752
78.9737
78.9721
78.9705
78.969
78.9674
78.9658
78.9643
78.9627
78.9611
78.9596
78.958
78.9564
78.9549
78.9533
78.9517
78.9502
78.9486
78.947
78.9455
78.9439
78.9423
78.9408
78.9392
78.9376
78.9361
78.9345
78.933
78.9314
78.9298
78.9283
78.9267
78.9251
78.9236
78.922
78.9205
78.9189
78.9173
78.9158
78.9142
78.9126
78.9111
78.9095
78.908
78.9064
78.9048
78.9033
78.9017
78.9001
78.8986
78.897
78.8955
78.8939
78.8923
78.8908
78.8892
78.8877
78.8861
78.8845
78.883
78.8814
78.8799
78.8783
78.8767
78.8752
78.8736
78.8721
78.8705
78.8689
78.8674
78.8658
78.8643
78.8627
78.8612
78.8596
78.858
78.8565
78.8549
78.8534
78.8518
78.8502
78.8487
78.8471
78.8456
78.844
78.8425
78.8409
78.8393
78.8378
78.8362
78.8347
78.8331
78.8316
78.83
78.8284
78.8269
78.8253
78.8238
78.8222
78.8207
78.8191
78.8175
78.816
78.8144
78.8129
78.8113
78.8098
78.8082
78.8067
78.8051
78.8035
78.802
78.8004
78.7989
78.7973
78.7958
78.7942
78.7927
78.7911
78.7895
78.788
78.7864
78.7849
78.7833
78.7818
78.7802
78.7787
78.7771
78.7756
78.774
78.7724
78.7709
78.7693
78.7678
78.7662
78.7647
78.7631
78.7616
78.76
78.7585
78.7569
78.7554
78.7538
78.7523
78.7507
78.7491
78.7476
78.746
78.7445
78.7429
78.7414
78.7398
78.7383
78.7367
78.7352
78.7336
78.7321
78.7305
78.729
78.7274
78.7259
78.7243
78.7227
78.7212
78.7196
78.7181
78.7165
78.715
78.7134
78.7119
78.7103
78.7088
78.7072
78.7057
78.7041
78.7026
78.701
78.6995
78.6979
78.6964
78.6948
78.6933
78.6917
78.6902
78.6886
78.6871
78.6855
78.684
78.6824
78.6809
78.6793
78.6778
78.6762
78.6747
78.6731
78.6716
78.67
78.6685
78.6669
78.6654
78.6638
78.6623
78.6607
78.6592
78.6576
78.6561
78.6545
78.653
78.6514
78.6499
78.6483
78.6468
78.6452
78.6437
78.6421
78.6406
78.639
78.6375
78.6359
78.6344
78.6328
78.6313
78.6297
78.6282
78.6266
78.6251
78.6235
78.622
78.6204
78.6189
78.6173
78.6158
78.6142
78.6127
78.6111
78.6096
78.608
78.6065
78.6049
78.6034
78.6018
78.6003
78.5987
78.5972
78.5956
78.5941
78.5925
78.591
78.5895
78.5879
78.5864
78.5848
78.5833
78.5817
78.5802
78.5786
78.5771
78.5755
78.574
78.5724
78.5709
78.5693
78.5678
78.5662
78.5647
78.5631
78.5616
78.56
78.5585
78.557
78.5554
78.5539
78.5523
78.5508
78.5492
78.5477
78.5461
78.5446
78.543
78.5415
78.5399
78.5399
81.9759
81.9759
80.4179
80.1621
80.0966
80.0683
80.0514
80.0394
80.0299
80.0219
80.0148
80.0084
80.0025
79.9969
79.9915
79.9864
79.9814
79.9765
79.9718
79.9672
79.9626
79.9582
79.9537
79.9494
79.9451
79.9409
79.9367
79.9326
79.9286
79.9245
79.9206
79.9167
79.9128
79.9089
79.9052
79.9014
79.8977
79.894
79.8904
79.8868
79.8832
79.8797
79.8762
79.8727
79.8693
79.8659
79.8625
79.8592
79.8559
79.8526
79.8494
79.8461
79.8429
79.8398
79.8366
79.8335
79.8304
79.8273
79.8243
79.8212
79.8182
79.8152
79.8122
79.8093
79.8064
79.8034
79.8006
79.7977
79.7948
79.792
79.7892
79.7864
79.7836
79.7808
79.778
79.7753
79.7726
79.7698
79.7671
79.7645
79.7618
79.7591
79.7565
79.7539
79.7512
79.7486
79.7461
79.7435
79.7409
79.7384
79.7358
79.7333
79.7308
79.7282
79.7258
79.7233
79.7208
79.7183
79.7159
79.7134
79.711
79.7086
79.7061
79.7037
79.7013
79.699
79.6966
79.6942
79.6918
79.6895
79.6871
79.6848
79.6825
79.6802
79.6779
79.6756
79.6733
79.671
79.6687
79.6664
79.6642
79.6619
79.6597
79.6574
79.6552
79.6529
79.6507
79.6485
79.6463
79.6441
79.6419
79.6397
79.6375
79.6354
79.6332
79.631
79.6289
79.6267
79.6246
79.6224
79.6203
79.6182
79.6161
79.614
79.6118
79.6097
79.6076
79.6055
79.6035
79.6014
79.5993
79.5972
79.5952
79.5931
79.591
79.589
79.5869
79.5849
79.5829
79.5808
79.5788
79.5768
79.5748
79.5727
79.5707
79.5687
79.5667
79.5647
79.5627
79.5608
79.5588
79.5568
79.5548
79.5528
79.5509
79.5489
79.547
79.545
79.543
79.5411
79.5392
79.5372
79.5353
79.5333
79.5314
79.5295
79.5276
79.5257
79.5237
79.5218
79.5199
79.518
79.5161
79.5142
79.5123
79.5104
79.5085
79.5067
79.5048
79.5029
79.501
79.4991
79.4973
79.4954
79.4935
79.4917
79.4898
79.488
79.4861
79.4843
79.4824
79.4806
79.4787
79.4769
79.4751
79.4732
79.4714
79.4696
79.4678
79.4659
79.4641
79.4623
79.4605
79.4587
79.4569
79.4551
79.4533
79.4514
79.4496
79.4479
79.4461
79.4443
79.4425
79.4407
79.4389
79.4371
79.4353
79.4336
79.4318
79.43
79.4282
79.4265
79.4247
79.4229
79.4212
79.4194
79.4176
79.4159
79.4141
79.4124
79.4106
79.4089
79.4071
79.4054
79.4036
79.4019
79.4001
79.3984
79.3967
79.3949
79.3932
79.3915
79.3897
79.388
79.3863
79.3845
79.3828
79.3811
79.3794
79.3777
79.3759
79.3742
79.3725
79.3708
79.3691
79.3674
79.3657
79.3639
79.3622
79.3605
79.3588
79.3571
79.3554
79.3537
79.352
79.3503
79.3486
79.347
79.3453
79.3436
79.3419
79.3402
79.3385
79.3368
79.3351
79.3335
79.3318
79.3301
79.3284
79.3267
79.3251
79.3234
79.3217
79.32
79.3184
79.3167
79.315
79.3133
79.3117
79.31
79.3083
79.3067
79.305
79.3034
79.3017
79.3
79.2984
79.2967
79.2951
79.2934
79.2917
79.2901
79.2884
79.2868
79.2851
79.2835
79.2818
79.2802
79.2785
79.2769
79.2752
79.2736
79.272
79.2703
79.2687
79.267
79.2654
79.2637
79.2621
79.2605
79.2588
79.2572
79.2556
79.2539
79.2523
79.2507
79.249
79.2474
79.2458
79.2441
79.2425
79.2409
79.2392
79.2376
79.236
79.2344
79.2327
79.2311
79.2295
79.2279
79.2262
79.2246
79.223
79.2214
79.2198
79.2181
79.2165
79.2149
79.2133
79.2117
79.21
79.2084
79.2068
79.2052
79.2036
79.202
79.2004
79.1987
79.1971
79.1955
79.1939
79.1923
79.1907
79.1891
79.1875
79.1859
79.1843
79.1827
79.181
79.1794
79.1778
79.1762
79.1746
79.173
79.1714
79.1698
79.1682
79.1666
79.165
79.1634
79.1618
79.1602
79.1586
79.157
79.1554
79.1538
79.1522
79.1506
79.149
79.1474
79.1458
79.1442
79.1426
79.141
79.1394
79.1378
79.1363
79.1347
79.1331
79.1315
79.1299
79.1283
79.1267
79.1251
79.1235
79.1219
79.1203
79.1187
79.1172
79.1156
79.114
79.1124
79.1108
79.1092
79.1076
79.106
79.1045
79.1029
79.1013
79.0997
79.0981
79.0965
79.0949
79.0934
79.0918
79.0902
79.0886
79.087
79.0854
79.0839
79.0823
79.0807
79.0791
79.0775
79.0759
79.0744
79.0728
79.0712
79.0696
79.068
79.0665
79.0649
79.0633
79.0617
79.0601
79.0586
79.057
79.0554
79.0538
79.0523
79.0507
79.0491
79.0475
79.046
79.0444
79.0428
79.0412
79.0397
79.0381
79.0365
79.0349
79.0334
79.0318
79.0302
79.0286
79.0271
79.0255
79.0239
79.0223
79.0208
79.0192
79.0176
79.016
79.0145
79.0129
79.0113
79.0098
79.0082
79.0066
79.005
79.0035
79.0019
79.0003
78.9988
78.9972
78.9956
78.9941
78.9925
78.9909
78.9893
78.9878
78.9862
78.9846
78.9831
78.9815
78.9799
78.9784
78.9768
78.9752
78.9737
78.9721
78.9705
78.969
78.9674
78.9658
78.9643
78.9627
78.9611
78.9596
78.958
78.9564
78.9549
78.9533
78.9517
78.9502
78.9486
78.947
78.9455
78.9439
78.9423
78.9408
78.9392
78.9377
78.9361
78.9345
78.933
78.9314
78.9298
78.9283
78.9267
78.9251
78.9236
78.922
78.9205
78.9189
78.9173
78.9158
78.9142
78.9126
78.9111
78.9095
78.908
78.9064
78.9048
78.9033
78.9017
78.9002
78.8986
78.897
78.8955
78.8939
78.8923
78.8908
78.8892
78.8877
78.8861
78.8845
78.883
78.8814
78.8799
78.8783
78.8767
78.8752
78.8736
78.8721
78.8705
78.869
78.8674
78.8658
78.8643
78.8627
78.8612
78.8596
78.858
78.8565
78.8549
78.8534
78.8518
78.8503
78.8487
78.8471
78.8456
78.844
78.8425
78.8409
78.8393
78.8378
78.8362
78.8347
78.8331
78.8316
78.83
78.8284
78.8269
78.8253
78.8238
78.8222
78.8207
78.8191
78.8176
78.816
78.8144
78.8129
78.8113
78.8098
78.8082
78.8067
78.8051
78.8035
78.802
78.8004
78.7989
78.7973
78.7958
78.7942
78.7927
78.7911
78.7896
78.788
78.7864
78.7849
78.7833
78.7818
78.7802
78.7787
78.7771
78.7756
78.774
78.7725
78.7709
78.7693
78.7678
78.7662
78.7647
78.7631
78.7616
78.76
78.7585
78.7569
78.7554
78.7538
78.7523
78.7507
78.7491
78.7476
78.746
78.7445
78.7429
78.7414
78.7398
78.7383
78.7367
78.7352
78.7336
78.7321
78.7305
78.729
78.7274
78.7259
78.7243
78.7228
78.7212
78.7196
78.7181
78.7165
78.715
78.7134
78.7119
78.7103
78.7088
78.7072
78.7057
78.7041
78.7026
78.701
78.6995
78.6979
78.6964
78.6948
78.6933
78.6917
78.6902
78.6886
78.6871
78.6855
78.684
78.6824
78.6809
78.6793
78.6778
78.6762
78.6747
78.6731
78.6716
78.67
78.6685
78.6669
78.6654
78.6638
78.6623
78.6607
78.6592
78.6576
78.6561
78.6545
78.653
78.6514
78.6499
78.6483
78.6468
78.6452
78.6437
78.6421
78.6406
78.639
78.6375
78.6359
78.6344
78.6328
78.6313
78.6297
78.6282
78.6266
78.6251
78.6235
78.622
78.6204
78.6189
78.6173
78.6158
78.6142
78.6127
78.6111
78.6096
78.608
78.6065
78.6049
78.6034
78.6018
78.6003
78.5987
78.5972
78.5956
78.5941
78.5926
78.591
78.5895
78.5879
78.5864
78.5848
78.5833
78.5817
78.5802
78.5786
78.5771
78.5755
78.574
78.5724
78.5709
78.5693
78.5678
78.5662
78.5647
78.5631
78.5616
78.5601
78.5585
78.557
78.5554
78.5539
78.5523
78.5508
78.5492
78.5477
78.5461
78.5446
78.543
78.5415
78.5399
78.5399
81.2864
81.2864
80.4021
80.1688
80.1003
80.0704
80.0527
80.0403
80.0306
80.0224
80.0153
80.0088
80.0028
79.9971
79.9917
79.9866
79.9816
79.9767
79.9719
79.9673
79.9627
79.9582
79.9538
79.9495
79.9452
79.941
79.9368
79.9327
79.9286
79.9246
79.9206
79.9167
79.9128
79.909
79.9052
79.9014
79.8977
79.894
79.8904
79.8868
79.8832
79.8797
79.8762
79.8728
79.8693
79.8659
79.8626
79.8592
79.8559
79.8526
79.8494
79.8462
79.843
79.8398
79.8366
79.8335
79.8304
79.8273
79.8243
79.8212
79.8182
79.8152
79.8123
79.8093
79.8064
79.8035
79.8006
79.7977
79.7948
79.792
79.7892
79.7864
79.7836
79.7808
79.778
79.7753
79.7726
79.7699
79.7672
79.7645
79.7618
79.7591
79.7565
79.7539
79.7513
79.7487
79.7461
79.7435
79.7409
79.7384
79.7358
79.7333
79.7308
79.7283
79.7258
79.7233
79.7208
79.7183
79.7159
79.7134
79.711
79.7086
79.7061
79.7037
79.7013
79.699
79.6966
79.6942
79.6918
79.6895
79.6872
79.6848
79.6825
79.6802
79.6779
79.6756
79.6733
79.671
79.6687
79.6664
79.6642
79.6619
79.6597
79.6574
79.6552
79.653
79.6507
79.6485