# vtk DataFile Version 2.0
FlowField
ASCII
DATASET STRUCTURED_GRID
DIMENSIONS 800 1 200
POINTS 160000 float
0 0 0
0.04 0 0
0.08 0 0
0.12 0 0
0.16 0 0
0.2 0 0
0.24 0 0
0.28 0 0
0.32 0 0
0.36 0 0
0.4 0 0
0.44 0 0
0.48 0 0
0.52 0 0
0.56 0 0
0.6 0 0
0.64 0 0
0.68 0 0
0.72 0 0
0.76 0 0
0.8 0 0
0.84 0 0
0.88 0 0
0.92 0 0
0.96 0 0
1 0 0
1.04 0 0
1.08 0 0
1.12 0 0
1.16 0 0
1.2 0 0
1.24 0 0
1.28 0 0
1.32 0 0
1.36 0 0
1.4 0 0
1.44 0 0
1.48 0 0
1.52 0 0
1.56 0 0
1.6 0 0
1.64 0 0
1.68 0 0
1.72 0 0
1.76 0 0
1.8 0 0
1.84 0 0
1.88 0 0
1.92 0 0
1.96 0 0
2 0 0
2.04 0 0
2.08 0 0
2.12 0 0
2.16 0 0
2.2 0 0
2.24 0 0
2.28 0 0
2.32 0 0
2.36 0 0
2.4 0 0
2.44 0 0
2.48 0 0
2.52 0 0
2.56 0 0
2.6 0 0
2.64 0 0
2.68 0 0
2.72 0 0
2.76 0 0
2.8 0 0
2.84 0 0
2.88 0 0
2.92 0 0
2.96 0 0
3 0 0
3.04 0 0
3.08 0 0
3.12 0 0
3.16 0 0
3.2 0 0
3.24 0 0
3.28 0 0
3.32 0 0
3.36 0 0
3.4 0 0
3.44 0 0
3.48 0 0
3.52 0 0
3.56 0 0
3.6 0 0
3.64 0 0
3.68 0 0
3.72 0 0
3.76 0 0
3.8 0 0
3.84 0 0
3.88 0 0
3.92 0 0
3.96 0 0
4 0 0
4.04 0 0
4.08 0 0
4.12 0 0
4.16 0 0
4.2 0 0
4.24 0 0
4.28 0 0
4.32 0 0
4.36 0 0
4.4 0 0
4.44 0 0
4.48 0 0
4.52 0 0
4.56 0 0
4.6 0 0
4.64 0 0
4.68 0 0
4.72 0 0
4.76 0 0
4.8 0 0
4.84 0 0
4.88 0 0
4.92 0 0
4.96 0 0
5 0 0
5.04 0 0
5.08 0 0
5.12 0 0
5.16 0 0
5.2 0 0
5.24 0 0
5.28 0 0
5.32 0 0
5.36 0 0
5.4 0 0
5.44 0 0
5.48 0 0
5.52 0 0
5.56 0 0
5.6 0 0
5.64 0 0
5.68 0 0
5.72 0 0
5.76 0 0
5.8 0 0
5.84 0 0
5.88 0 0
5.92 0 0
5.96 0 0
6 0 0
6.04 0 0
6.08 0 0
6.12 0 0
6.16 0 0
6.2 0 0
6.24 0 0
6.28 0 0
6.32 0 0
6.36 0 0
6.4 0 0
6.44 0 0
6.48 0 0
6.52 0 0
6.56 0 0
6.6 0 0
6.64 0 0
6.68 0 0
6.72 0 0
6.76 0 0
6.8 0 0
6.84 0 0
6.88 0 0
6.92 0 0
6.96 0 0
7 0 0
7.04 0 0
7.08 0 0
7.12 0 0
7.16 0 0
7.2 0 0
7.24 0 0
7.28 0 0
7.32 0 0
7.36 0 0
7.4 0 0
7.44 0 0
7.48 0 0
7.52 0 0
7.56 0 0
7.6 0 0
7.64 0 0
7.68 0 0
7.72 0 0
7.76 0 0
7.8 0 0
7.84 0 0
7.88 0 0
7.92 0 0
7.96 0 0
8 0 0
8.04 0 0
8.08 0 0
8.12 0 0
8.16 0 0
8.2 0 0
8.24 0 0
8.28 0 0
8.32 0 0
8.36 0 0
8.4 0 0
8.44 0 0
8.48 0 0
8.52 0 0
8.56 0 0
8.6 0 0
8.64 0 0
8.68 0 0
8.72 0 0
8.76 0 0
8.8 0 0
8.84 0 0
8.88 0 0
8.92 0 0
8.96 0 0
9 0 0
9.04 0 0
9.08 0 0
9.12 0 0
9.16 0 0
9.2 0 0
9.24 0 0
9.28 0 0
9.32 0 0
9.36 0 0
9.4 0 0
9.44 0 0
9.48 0 0
9.52 0 0
9.56 0 0
9.6 0 0
9.64 0 0
9.68 0 0
9.72 0 0
9.76 0 0
9.8 0 0
9.84 0 0
9.88 0 0
9.92 0 0
9.96 0 0
10 0 0
10.04 0 0
10.08 0 0
10.12 0 0
10.16 0 0
10.2 0 0
10.24 0 0
10.28 0 0
10.32 0 0
10.36 0 0
10.4 0 0
10.44 0 0
10.48 0 0
10.52 0 0
10.56 0 0
10.6 0 0
10.64 0 0
10.68 0 0
10.72 0 0
10.76 0 0
10.8 0 0
10.84 0 0
10.88 0 0
10.92 0 0
10.96 0 0
11 0 0
11.04 0 0
11.08 0 0
11.12 0 0
11.16 0 0
11.2 0 0
11.24 0 0
11.28 0 0
11.32 0 0
11.36 0 0
11.4 0 0
11.44 0 0
11.48 0 0
11.52 0 0
11.56 0 0
11.6 0 0
11.64 0 0
11.68 0 0
11.72 0 0
11.76 0 0
11.8 0 0
11.84 0 0
11.88 0 0
11.92 0 0
11.96 0 0
12 0 0
12.04 0 0
12.08 0 0
12.12 0 0
12.16 0 0
12.2 0 0
12.24 0 0
12.28 0 0
12.32 0 0
12.36 0 0
12.4 0 0
12.44 0 0
12.48 0 0
12.52 0 0
12.56 0 0
12.6 0 0
12.64 0 0
12.68 0 0
12.72 0 0
12.76 0 0
12.8 0 0
12.84 0 0
12.88 0 0
12.92 0 0
12.96 0 0
13 0 0
13.04 0 0
13.08 0 0
13.12 0 0
13.16 0 0
13.2 0 0
13.24 0 0
13.28 0 0
13.32 0 0
13.36 0 0
13.4 0 0
13.44 0 0
13.48 0 0
13.52 0 0
13.56 0 0
13.6 0 0
13.64 0 0
13.68 0 0
13.72 0 0
13.76 0 0
13.8 0 0
13.84 0 0
13.88 0 0
13.92 0 0
13.96 0 0
14 0 0
14.04 0 0
14.08 0 0
14.12 0 0
14.16 0 0
14.2 0 0
14.24 0 0
14.28 0 0
14.32 0 0
14.36 0 0
14.4 0 0
14.44 0 0
14.48 0 0
14.52 0 0
14.56 0 0
14.6 0 0
14.64 0 0
14.68 0 0
14.72 0 0
14.76 0 0
14.8 0 0
14.84 0 0
14.88 0 0
14.92 0 0
14.96 0 0
15 0 0
15.04 0 0
15.08 0 0
15.12 0 0
15.16 0 0
15.2 0 0
15.24 0 0
15.28 0 0
15.32 0 0
15.36 0 0
15.4 0 0
15.44 0 0
15.48 0 0
15.52 0 0
15.56 0 0
15.6 0 0
15.64 0 0
15.68 0 0
15.72 0 0
15.76 0 0
15.8 0 0
15.84 0 0
15.88 0 0
15.92 0 0
15.96 0 0
16 0 0
16.04 0 0
16.08 0 0
16.12 0 0
16.16 0 0
16.2 0 0
16.24 0 0
16.28 0 0
16.32 0 0
16.36 0 0
16.4 0 0
16.44 0 0
16.48 0 0
16.52 0 0
16.56 0 0
16.6 0 0
16.64 0 0
16.68 0 0
16.72 0 0
16.76 0 0
16.8 0 0
16.84 0 0
16.88 0 0
16.92 0 0
16.96 0 0
17 0 0
17.04 0 0
17.08 0 0
17.12 0 0
17.16 0 0
17.2 0 0
17.24 0 0
17.28 0 0
17.32 0 0
17.36 0 0
17.4 0 0
17.44 0 0
17.48 0 0
17.52 0 0
17.56 0 0
17.6 0 0
17.64 0 0
17.68 0 0
17.72 0 0
17.76 0 0
17.8 0 0
17.84 0 0
17.88 0 0
17.92 0 0
17.96 0 0
18 0 0
18.04 0 0
18.08 0 0
18.12 0 0
18.16 0 0
18.2 0 0
18.24 0 0
18.28 0 0
18.32 0 0
18.36 0 0
18.4 0 0
18.44 0 0
18.48 0 0
18.52 0 0
18.56 0 0
18.6 0 0
18.64 0 0
18.68 0 0
18.72 0 0
18.76 0 0
18.8 0 0
18.84 0 0
18.88 0 0
18.92 0 0
18.96 0 0
19 0 0
19.04 0 0
19.08 0 0
19.12 0 0
19.16 0 0
19.2 0 0
19.24 0 0
19.28 0 0
19.32 0 0
19.36 0 0
19.4 0 0
19.44 0 0
19.48 0 0
19.52 0 0
19.56 0 0
19.6 0 0
19.64 0 0
19.68 0 0
19.72 0 0
19.76 0 0
19.8 0 0
19.84 0 0
19.88 0 0
19.92 0 0
19.96 0 0
20 0 0
20.04 0 0
20.08 0 0
20.12 0 0
20.16 0 0
20.2 0 0
20.24 0 0
20.28 0 0
20.32 0 0
20.36 0 0
20.4 0 0
20.44 0 0
20.48 0 0
20.52 0 0
20.56 0 0
20.6 0 0
20.64 0 0
20.68 0 0
20.72 0 0
20.76 0 0
20.8 0 0
20.84 0 0
20.88 0 0
20.92 0 0
20.96 0 0
21 0 0
21.04 0 0
21.08 0 0
21.12 0 0
21.16 0 0
21.2 0 0
21.24 0 0
21.28 0 0
21.32 0 0
21.36 0 0
21.4 0 0
21.44 0 0
21.48 0 0
21.52 0 0
21.56 0 0
21.6 0 0
21.64 0 0
21.68 0 0
21.72 0 0
21.76 0 0
21.8 0 0
21.84 0 0
21.88 0 0
21.92 0 0
21.96 0 0
22 0 0
22.04 0 0
22.08 0 0
22.12 0 0
22.16 0 0
22.2 0 0
22.24 0 0
22.28 0 0
22.32 0 0
22.36 0 0
22.4 0 0
22.44 0 0
22.48 0 0
22.52 0 0
22.56 0 0
22.6 0 0
22.64 0 0
22.68 0 0
22.72 0 0
22.76 0 0
22.8 0 0
22.84 0 0
22.88 0 0
22.92 0 0
22.96 0 0
23 0 0
23.04 0 0
23.08 0 0
23.12 0 0
23.16 0 0
23.2 0 0
23.24 0 0
23.28 0 0
23.32 0 0
23.36 0 0
23.4 0 0
23.44 0 0
23.48 0 0
23.52 0 0
23.56 0 0
23.6 0 0
23.64 0 0
23.68 0 0
23.72 0 0
23.76 0 0
23.8 0 0
23.84 0 0
23.88 0 0
23.92 0 0
23.96 0 0
24 0 0
24.04 0 0
24.08 0 0
24.12 0 0
24.16 0 0
24.2 0 0
24.24 0 0
24.28 0 0
24.32 0 0
24.36 0 0
24.4 0 0
24.44 0 0
24.48 0 0
24.52 0 0
24.56 0 0
24.6 0 0
24.64 0 0
24.68 0 0
24.72 0 0
24.76 0 0
24.8 0 0
24.84 0 0
24.88 0 0
24.92 0 0
24.96 0 0
25 0 0
25.04 0 0
25.08 0 0
25.12 0 0
25.16 0 0
25.2 0 0
25.24 0 0
25.28 0 0
25.32 0 0
25.36 0 0
25.4 0 0
25.44 0 0
25.48 0 0
25.52 0 0
25.56 0 0
25.6 0 0
25.64 0 0
25.68 0 0
25.72 0 0
25.76 0 0
25.8 0 0
25.84 0 0
25.88 0 0
25.92 0 0
25.96 0 0
26 0 0
26.04 0 0
26.08 0 0
26.12 0 0
26.16 0 0
26.2 0 0
26.24 0 0
26.28 0 0
26.32 0 0
26.36 0 0
26.4 0 0
26.44 0 0
26.48 0 0
26.52 0 0
26.56 0 0
26.6 0 0
26.64 0 0
26.68 0 0
26.72 0 0
26.76 0 0
26.8 0 0
26.84 0 0
26.88 0 0
26.92 0 0
26.96 0 0
27 0 0
27.04 0 0
27.08 0 0
27.12 0 0
27.16 0 0
27.2 0 0
27.24 0 0
27.28 0 0
27.32 0 0
27.36 0 0
27.4 0 0
27.44 0 0
27.48 0 0
27.52 0 0
27.56 0 0
27.6 0 0
27.64 0 0
27.68 0 0
27.72 0 0
27.76 0 0
27.8 0 0
27.84 0 0
27.88 0 0
27.92 0 0
27.96 0 0
28 0 0
28.04 0 0
28.08 0 0
28.12 0 0
28.16 0 0
28.2 0 0
28.24 0 0
28.28 0 0
28.32 0 0
28.36 0 0
28.4 0 0
28.44 0 0
28.48 0 0
28.52 0 0
28.56 0 0
28.6 0 0
28.64 0 0
28.68 0 0
28.72 0 0
28.76 0 0
28.8 0 0
28.84 0 0
28.88 0 0
28.92 0 0
28.96 0 0
29 0 0
29.04 0 0
29.08 0 0
29.12 0 0
29.16 0 0
29.2 0 0
29.24 0 0
29.28 0 0
29.32 0 0
29.36 0 0
29.4 0 0
29.44 0 0
29.48 0 0
29.52 0 0
29.56 0 0
29.6 0 0
29.64 0 0
29.68 0 0
29.72 0 0
29.76 0 0
29.8 0 0
29.84 0 0
29.88 0 0
29.92 0 0
29.96 0 0
30 0 0
30.04 0 0
30.08 0 0
30.12 0 0
30.16 0 0
30.2 0 0
30.24 0 0
30.28 0 0
30.32 0 0
30.36 0 0
30.4 0 0
30.44 0 0
30.48 0 0
30.52 0 0
30.56 0 0
30.6 0 0
30.64 0 0
30.68 0 0
30.72 0 0
30.76 0 0
30.8 0 0
30.84 0 0
30.88 0 0
30.92 0 0
30.96 0 0
31 0 0
31.04 0 0
31.08 0 0
31.12 0 0
31.16 0 0
31.2 0 0
31.24 0 0
31.28 0 0
31.32 0 0
31.36 0 0
31.4 0 0
31.44 0 0
31.48 0 0
31.52 0 0
31.56 0 0
31.6 0 0
31.64 0 0
31.68 0 0
31.72 0 0
31.76 0 0
31.8 0 0
31.84 0 0
31.88 0 0
31.92 0 0
31.96 0 0
0 0.005 0
0.04 0.005 0
0.08 0.005 0
0.12 0.005 0
0.16 0.005 0
0.2 0.005 0
0.24 0.005 0
0.28 0.005 0
0.32 0.005 0
0.36 0.005 0
0.4 0.005 0
0.44 0.005 0
0.48 0.005 0
0.52 0.005 0
0.56 0.005 0
0.6 0.005 0
0.64 0.005 0
0.68 0.005 0
0.72 0.005 0
0.76 0.005 0
0.8 0.005 0
0.84 0.005 0
0.88 0.005 0
0.92 0.005 0
0.96 0.005 0
1 0.005 0
1.04 0.005 0
1.08 0.005 0
1.12 0.005 0
1.16 0.005 0
1.2 0.005 0
1.24 0.005 0
1.28 0.005 0
1.32 0.005 0
1.36 0.005 0
1.4 0.005 0
1.44 0.005 0
1.48 0.005 0
1.52 0.005 0
1.56 0.005 0
1.6 0.005 0
1.64 0.005 0
1.68 0.005 0
1.72 0.005 0
1.76 0.005 0
1.8 0.005 0
1.84 0.005 0
1.88 0.005 0
1.92 0.005 0
1.96 0.005 0
2 0.005 0
2.04 0.005 0
2.08 0.005 0
2.12 0.005 0
2.16 0.005 0
2.2 0.005 0
2.24 0.005 0
2.28 0.005 0
2.32 0.005 0
2.36 0.005 0
2.4 0.005 0
2.44 0.005 0
2.48 0.005 0
2.52 0.005 0
2.56 0.005 0
2.6 0.005 0
2.64 0.005 0
2.68 0.005 0
2.72 0.005 0
2.76 0.005 0
2.8 0.005 0
2.84 0.005 0
2.88 0.005 0
2.92 0.005 0
2.96 0.005 0
3 0.005 0
3.04 0.005 0
3.08 0.005 0
3.12 0.005 0
3.16 0.005 0
3.2 0.005 0
3.24 0.005 0
3.28 0.005 0
3.32 0.005 0
3.36 0.005 0
3.4 0.005 0
3.44 0.005 0
3.48 0.005 0
3.52 0.005 0
3.56 0.005 0
3.6 0.005 0
3.64 0.005 0
3.68 0.005 0
3.72 0.005 0
3.76 0.005 0
3.8 0.005 0
3.84 0.005 0
3.88 0.005 0
3.92 0.005 0
3.96 0.005 0
4 0.005 0
4.04 0.005 0
4.08 0.005 0
4.12 0.005 0
4.16 0.005 0
4.2 0.005 0
4.24 0.005 0
4.28 0.005 0
4.32 0.005 0
4.36 0.005 0
4.4 0.005 0
4.44 0.005 0
4.48 0.005 0
4.52 0.005 0
4.56 0.005 0
4.6 0.005 0
4.64 0.005 0
4.68 0.005 0
4.72 0.005 0
4.76 0.005 0
4.8 0.005 0
4.84 0.005 0
4.88 0.005 0
4.92 0.005 0
4.96 0.005 0
5 0.005 0
5.04 0.005 0
5.08 0.005 0
5.12 0.005 0
5.16 0.005 0
5.2 0.005 0
5.24 0.005 0
5.28 0.005 0
5.32 0.005 0
5.36 0.005 0
5.4 0.005 0
5.44 0.005 0
5.48 0.005 0
5.52 0.005 0
5.56 0.005 0
5.6 0.005 0
5.64 0.005 0
5.68 0.005 0
5.72 0.005 0
5.76 0.005 0
5.8 0.005 0
5.84 0.005 0
5.88 0.005 0
5.92 0.005 0
5.96 0.005 0
6 0.005 0
6.04 0.005 0
6.08 0.005 0
6.12 0.005 0
6.16 0.005 0
6.2 0.005 0
6.24 0.005 0
6.28 0.005 0
6.32 0.005 0
6.36 0.005 0
6.4 0.005 0
6.44 0.005 0
6.48 0.005 0
6.52 0.005 0
6.56 0.005 0
6.6 0.005 0
6.64 0.005 0
6.68 0.005 0
6.72 0.005 0
6.76 0.005 0
6.8 0.005 0
6.84 0.005 0
6.88 0.005 0
6.92 0.005 0
6.96 0.005 0
7 0.005 0
7.04 0.005 0
7.08 0.005 0
7.12 0.005 0
7.16 0.005 0
7.2 0.005 0
7.24 0.005 0
7.28 0.005 0
7.32 0.005 0
7.36 0.005 0
7.4 0.005 0
[...]
POINT_DATA 160000

SCALARS u float 1
LOOKUP_TABLE default
-1
-0.483358
-0.183963
-0.108845
-0.0810329
-0.0668335
-0.058118
-0.0521525
-0.0477772
-0.0444143
-0.041741
-0.0395612
-0.037748
-0.036215
-0.0349013
-0.0337622
-0.0327645
-0.0318827
-0.0310971
-0.030392
-0.029755
-0.029176
-0.0286469
-0.0281608
-0.0277122
-0.0272964
-0.0269096
-0.0265484
-0.02621
-0.0258921
-0.0255926
-0.0253096
-0.0250418
-0.0247877
-0.0245461
-0.0243161
-0.0240967
-0.023887
-0.0236865
-0.0234944
-0.0233102
-0.0231333
-0.0229633
-0.0227997
-0.0226421
-0.0224902
-0.0223437
-0.0222022
-0.0220655
-0.0219333
-0.0218054
-0.0216815
-0.0215615
-0.0214452
-0.0213324
-0.0212228
-0.0211165
-0.0210132
-0.0209128
-0.0208151
-0.0207201
-0.0206276
-0.0205376
-0.0204499
-0.0203644
-0.020281
-0.0201997
-0.0201204
-0.020043
-0.0199675
-0.0198937
-0.0198216
-0.0197511
-0.0196823
-0.0196149
-0.0195491
-0.0194846
-0.0194216
-0.0193598
-0.0192994
-0.0192402
-0.0191822
-0.0191253
-0.0190697
-0.0190151
-0.0189615
-0.018909
-0.0188575
-0.018807
-0.0187574
-0.0187087
-0.0186609
-0.018614
-0.0185679
-0.0185226
-0.0184782
-0.0184345
-0.0183915
-0.0183493
-0.0183078
-0.018267
-0.0182269
-0.0181874
-0.0181486
-0.0181104
-0.0180729
-0.0180359
-0.0179995
-0.0179637
-0.0179284
-0.0178937
-0.0178595
-0.0178258
-0.0177926
-0.01776
-0.0177278
-0.0176961
-0.0176648
-0.017634
-0.0176037
-0.0175737
-0.0175443
-0.0175152
-0.0174865
-0.0174582
-0.0174304
-0.0174029
-0.0173757
-0.017349
-0.0173226
-0.0172966
-0.0172709
-0.0172455
-0.0172205
-0.0171958
-0.0171715
-0.0171474
-0.0171237
-0.0171002
-0.0170771
-0.0170543
-0.0170317
-0.0170094
-0.0169874
-0.0169657
-0.0169443
-0.0169231
-0.0169021
-0.0168815
-0.016861
-0.0168409
-0.0168209
-0.0168012
-0.0167818
-0.0167625
-0.0167435
-0.0167248
-0.0167062
-0.0166879
-0.0166697
-0.0166518
-0.0166341
-0.0166166
-0.0165993
-0.0165822
-0.0165653
-0.0165486
-0.016532
-0.0165157
-0.0164995
-0.0164835
-0.0164677
-0.0164521
-0.0164367
-0.0164214
-0.0164063
-0.0163913
-0.0163765
-0.0163619
-0.0163474
-0.0163331
-0.016319
-0.016305
-0.0162911
-0.0162774
-0.0162639
-0.0162505
-0.0162372
-0.0162241
-0.0162111
-0.0161983
-0.0161856
-0.016173
-0.0161606
-0.0161483
-0.0161361
-0.016124
-0.0161121
-0.0161003
-0.0160886
-0.0160771
-0.0160656
-0.0160543
-0.0160431
-0.016032
-0.0160211
-0.0160102
-0.0159995
-0.0159888
-0.0159783
-0.0159679
-0.0159576
-0.0159474
-0.0159373
-0.0159273
-0.0159174
-0.0159076
-0.0158979
-0.0158883
-0.0158787
-0.0158693
-0.01586
-0.0158508
-0.0158417
-0.0158326
-0.0158237
-0.0158148
-0.0158061
-0.0157974
-0.0157888
-0.0157803
-0.0157719
-0.0157635
-0.0157553
-0.0157471
-0.015739
-0.015731
-0.015723
-0.0157152
-0.0157074
-0.0156997
-0.0156921
-0.0156845
-0.0156771
-0.0156697
-0.0156623
-0.0156551
-0.0156479
-0.0156408
-0.0156337
-0.0156267
-0.0156198
-0.015613
-0.0156062
-0.0155995
-0.0155928
-0.0155863
-0.0155797
-0.0155733
-0.0155669
-0.0155606
-0.0155543
-0.0155481
-0.0155419
-0.0155358
-0.0155298
-0.0155238
-0.0155179
-0.0155121
-0.0155063
-0.0155005
-0.0154948
-0.0154892
-0.0154836
-0.0154781
-0.0154726
-0.0154672
-0.0154618
-0.0154565
-0.0154512
-0.015446
-0.0154408
-0.0154357
-0.0154307
-0.0154256
-0.0154207
-0.0154158
-0.0154109
-0.0154061
-0.0154013
-0.0153965
-0.0153919
-0.0153872
-0.0153826
-0.0153781
-0.0153736
-0.0153692
-0.0153648
-0.0153604
-0.0153561
-0.0153518
-0.0153476
-0.0153434
-0.0153393
-0.0153352
-0.0153312
-0.0153272
-0.0153232
-0.0153193
-0.0153154
-0.0153116
-0.0153078
-0.0153041
-0.0153004
-0.0152968
-0.0152932
-0.0152896
-0.0152861
-0.0152827
-0.0152792
-0.0152759
-0.0152725
-0.0152692
-0.015266
-0.0152628
-0.0152596
-0.0152565
-0.0152534
-0.0152504
-0.0152474
-0.0152445
-0.0152416
-0.0152387
-0.0152359
-0.0152332
-0.0152304
-0.0152277
-0.0152251
-0.0152225
-0.0152199
-0.0152174
-0.0152149
-0.0152125
-0.0152101
-0.0152078
-0.0152054
-0.0152032
-0.0152009
-0.0151987
-0.0151966
-0.0151945
-0.0151924
-0.0151904
-0.0151884
-0.0151864
-0.0151845
-0.0151826
-0.0151807
-0.0151789
-0.0151771
-0.0151754
-0.0151737
-0.015172
-0.0151704
-0.0151688
-0.0151672
-0.0151657
-0.0151641
-0.0151627
-0.0151612
-0.0151598
-0.0151584
-0.0151571
-0.0151558
-0.0151545
-0.0151532
-0.015152
-0.0151508
-0.0151496
-0.0151485
-0.0151473
-0.0151462
-0.0151452
-0.0151441
-0.0151431
-0.0151421
-0.0151411
-0.0151402
-0.0151393
-0.0151384
-0.0151375
-0.0151366
-0.0151358
-0.0151349
-0.0151341
-0.0151334
-0.0151326
-0.0151319
-0.0151311
-0.0151304
-0.0151297
-0.015129
-0.0151284
-0.0151277
-0.0151271
-0.0151265
-0.0151259
-0.0151253
-0.0151247
-0.0151242
-0.0151236
-0.0151231
-0.0151226
-0.015122
-0.0151215
-0.0151211
-0.0151206
-0.0151201
-0.0151196
-0.0151192
-0.0151187
-0.0151183
-0.0151179
-0.0151174
-0.015117
-0.0151166
-0.0151162
-0.0151158
-0.0151154
-0.015115
-0.0151147
-0.0151143
-0.0151139
-0.0151136
-0.0151132
-0.0151129
-0.0151125
-0.0151122
-0.0151118
-0.0151115
-0.0151111
-0.0151108
-0.0151105
-0.0151101
-0.0151098
-0.0151095
-0.0151092
-0.0151088
-0.0151085
-0.0151082
-0.0151079
-0.0151076
-0.0151073
-0.0151069
-0.0151066
-0.0151063
-0.015106
-0.0151057
-0.0151054
-0.0151051
-0.0151048
-0.0151045
-0.0151042
-0.0151038
-0.0151035
-0.0151032
-0.0151029
-0.0151026
-0.0151023
-0.015102
-0.0151017
-0.0151014
-0.0151011
-0.0151008
-0.0151005
-0.0151002
-0.0150999
-0.0150996
-0.0150993
-0.015099
-0.0150986
-0.0150983
-0.015098
-0.0150977
-0.0150974
-0.0150971
-0.0150968
-0.0150965
-0.0150962
-0.0150959
-0.0150956
-0.0150953
-0.015095
-0.0150947
-0.0150944
-0.0150941
-0.0150938
-0.0150935
-0.0150931
-0.0150928
-0.0150925
-0.0150922
-0.0150919
-0.0150916
-0.0150913
-0.015091
-0.0150907
-0.0150904
-0.0150901
-0.0150898
-0.0150895
-0.0150892
-0.0150889
-0.0150886
-0.0150883
-0.015088
-0.0150876
-0.0150873
-0.015087
-0.0150867
-0.0150864
-0.0150861
-0.0150858
-0.0150855
-0.0150852
-0.0150849
-0.0150846
-0.0150843
-0.015084
-0.0150837
-0.0150834
-0.0150831
-0.0150828
-0.0150825
-0.0150821
-0.0150818
-0.0150815
-0.0150812
-0.0150809
-0.0150806
-0.0150803
-0.01508
-0.0150797
-0.0150794
-0.0150791
-0.0150788
-0.0150785
-0.0150782
-0.0150779
-0.0150776
-0.0150773
-0.015077
-0.0150766
-0.0150763
-0.015076
-0.0150757
-0.0150754
-0.0150751
-0.0150748
-0.0150745
-0.0150742
-0.0150739
-0.0150736
-0.0150733
-0.015073
-0.0150727
-0.0150724
-0.0150721
-0.0150718
-0.0150715
-0.0150712
-0.0150708
-0.0150705
-0.0150702
-0.0150699
-0.0150696
-0.0150693
-0.015069
-0.0150687
-0.0150684
-0.0150681
-0.0150678
-0.0150675
-0.0150672
-0.0150669
-0.0150666
-0.0150663
-0.015066
-0.0150657
-0.0150653
-0.015065
-0.0150647
-0.0150644
-0.0150641
-0.0150638
-0.0150635
-0.0150632
-0.0150629
-0.0150626
-0.0150623
-0.015062
-0.0150617
-0.0150614
-0.0150611
-0.0150608
-0.0150605
-0.0150602
-0.0150598
-0.0150595
-0.0150592
-0.0150589
-0.0150586
-0.0150583
-0.015058
-0.0150577
-0.0150574
-0.0150571
-0.0150568
-0.0150565
-0.0150562
-0.0150559
-0.0150556
-0.0150553
-0.015055
-0.0150547
-0.0150544
-0.015054
-0.0150537
-0.0150534
-0.0150531
-0.0150528
-0.0150525
-0.0150522
-0.0150519
-0.0150516
-0.0150513
-0.015051
-0.0150507
-0.0150504
-0.0150501
-0.0150498
-0.0150495
-0.0150492
-0.0150489
-0.0150485
-0.0150482
-0.0150479
-0.0150476
-0.0150473
-0.015047
-0.0150467
-0.0150464
-0.0150461
-0.0150458
-0.0150455
-0.0150452
-0.0150449
-0.0150446
-0.0150443
-0.015044
-0.0150437
-0.0150434
-0.0150431
-0.0150427
-0.0150424
-0.0150421
-0.0150418
-0.0150415
-0.0150412
-0.0150409
-0.0150406
-0.0150403
-0.01504
-0.0150397
-0.0150394
-0.0150391
-0.0150388
-0.0150385
-0.0150382
-0.0150379
-0.0150376
-0.0150373
-0.0150369
-0.0150366
-0.0150363
-0.015036
-0.0150357
-0.0150354
-0.0150351
-0.0150348
-0.0150345
-0.0150342
-0.0150339
-0.0150336
-0.0150333
-0.015033
-0.0150327
-0.0150324
-0.0150321
-0.0150318
-0.0150314
-0.0150311
-0.0150308
-0.0150305
-0.0150302
-0.0150299
-0.0150296
-0.0150293
-0.015029
-0.0150287
-0.0150284
-0.0150281
-0.0150278
-0.0150275
-0.0150272
-0.0150269
-0.0150266
-0.0150263
-0.015026
-0.0150256
-0.0150253
-0.015025
-0.0150247
-0.0150244
-0.0150241
-0.0150238
-0.0150235
-0.0150232
-0.0150229
-0.0150226
-0.0150223
-0.015022
-0.0150217
-0.0150214
-0.0150211
-0.0150208
-0.0150205
-0.0150202
-0.0150198
-0.0150195
-0.0150192
-0.0150189
-0.0150186
-0.0150183
-0.015018
-0.0150177
-0.0150174
-0.0150171
-0.0150168
-0.0150165
-0.0150162
-0.0150159
-0.0150156
-0.0150153
-0.015015
-0.0150147
-0.0150144
-0.015014
-0.0150137
-0.0150134
-0.0150131
-0.0150128
-0.0150125
-0.0150122
-0.0150119
-0.0150116
-0.0150113
-0.015011
-0.0150107
-0.0150104
-0.0150101
-0.0150098
-0.0150095
-0.0150092
-0.0150088
-0.0150085
-0.0150082
-0.0150079
-0.0150076
-0.0150073
-0.015007
-0.0150067
-0.0150063
-0.015006
-0.0150057
-0.0150053
-0.015005
-0.0150046
-0.0150043
-0.0150039
-0.0150034
-0.015003
-0.0150025
-0.0150019
-0.0150013
-0.0150006
-0.0149996
-0.0149992
-0.0149992
-0.0149992
1
0.483358
0.183963
0.108845
0.0810329
0.0668335
0.058118
0.0521525
0.0477772
0.0444143
0.041741
0.0395612
0.037748
0.036215
0.0349013
0.0337622
0.0327645
0.0318827
0.0310971
0.030392
0.029755
0.029176
0.0286469
0.0281608
0.0277122
0.0272964
0.0269096
0.0265484
0.02621
0.0258921
0.0255926
0.0253096
0.0250418
0.0247877
0.0245461
0.0243161
0.0240967
0.023887
0.0236865
0.0234944
0.0233102
0.0231333
0.0229633
0.0227997
0.0226421
0.0224902
0.0223437
0.0222022
0.0220655
0.0219333
0.0218054
0.0216815
0.0215615
0.0214452
0.0213324
0.0212228
0.0211165
0.0210132
0.0209128
0.0208151
0.0207201
0.0206276
0.0205376
0.0204499
0.0203644
0.020281
0.0201997
0.0201204
0.020043
0.0199675
0.0198937
0.0198216
0.0197511
0.0196823
0.0196149
0.0195491
0.0194846
0.0194216
0.0193598
0.0192994
0.0192402
0.0191822
0.0191253
0.0190697
0.0190151
0.0189615
0.018909
0.0188575
0.018807
0.0187574
0.0187087
0.0186609
0.018614
0.0185679
0.0185226
0.0184782
0.0184345
0.0183915
0.0183493
0.0183078
0.018267
0.0182269
0.0181874
0.0181486
0.0181104
0.0180729
0.0180359
0.0179995
0.0179637
0.0179284
0.0178937
0.0178595
0.0178258
0.0177926
0.01776
0.0177278
0.0176961
0.0176648
0.017634
0.0176037
0.0175737
0.0175443
0.0175152
0.0174865
0.0174582
0.0174304
0.0174029
0.0173757
0.017349
0.0173226
0.0172966
0.0172709
0.0172455
0.0172205
0.0171958
0.0171715
0.0171474
0.0171237
0.0171002
0.0170771
0.0170543
0.0170317
0.0170094
0.0169874
0.0169657
0.0169443
0.0169231
0.0169021
0.0168815
0.016861
0.0168409
0.0168209
0.0168012
0.0167818
0.0167625
0.0167435
0.0167248
0.0167062
0.0166879
0.0166697
0.0166518
0.0166341
0.0166166
0.0165993
0.0165822
0.0165653
0.0165486
0.016532
0.0165157
0.0164995
0.0164835
0.0164677
0.0164521
0.0164367
0.0164214
0.0164063
0.0163913
0.0163765
0.0163619
0.0163474
0.0163331
0.016319
0.016305
0.0162911
0.0162774
0.0162639
0.0162505
0.0162372
0.0162241
0.0162111
0.0161983
0.0161856
0.016173
0.0161606
0.0161483
0.0161361
0.016124
0.0161121
0.0161003
0.0160886
0.0160771
0.0160656
0.0160543
0.0160431
0.016032
0.0160211
0.0160102
0.0159995
0.0159888
0.0159783
0.0159679
0.0159576
0.0159474
0.0159373
0.0159273
0.0159174
0.0159076
0.0158979
0.0158883
0.0158787
0.0158693
0.01586
0.0158508
0.0158417
0.0158326
0.0158237
0.0158148
0.0158061
0.0157974
0.0157888
0.0157803
0.0157719
0.0157635
0.0157553
0.0157471
0.015739
0.015731
0.015723
0.0157152
0.0157074
0.0156997
0.0156921
0.0156845
0.0156771
0.0156697
0.0156623
0.0156551
0.0156479
0.0156408
0.0156337
0.0156267
0.0156198
0.015613
0.0156062
0.0155995
0.0155928
0.0155863
0.0155797
0.0155733
0.0155669
0.0155606
0.0155543
0.0155481
0.0155419
0.0155358
0.0155298
0.0155238
0.0155179
0.0155121
0.0155063
0.0155005
0.0154948
0.0154892
0.0154836
0.0154781
0.0154726
0.0154672
0.0154618
0.0154565
0.0154512
0.015446
0.0154408
0.0154357
0.0154307
0.0154256
0.0154207
0.0154158
0.0154109
0.0154061
0.0154013
0.0153965
0.0153919
0.0153872
0.0153826
0.0153781
0.0153736
0.0153692
0.0153648
0.0153604
0.0153561
0.0153518
0.0153476
0.0153434
0.0153393
0.0153352
0.0153312
0.0153272
0.0153232
0.0153193
0.0153154
0.0153116
0.0153078
0.0153041
0.0153004
0.0152968
0.0152932
0.0152896
0.0152861
0.0152827
0.0152792
0.0152759
0.0152725
0.0152692
0.015266
0.0152628
0.0152596
0.0152565
0.0152534
0.0152504
0.0152474
0.0152445
0.0152416
0.0152387
0.0152359
0.0152332
0.0152304
0.0152277
0.0152251
0.0152225
0.0152199
0.0152174
0.0152149
0.0152125
0.0152101
0.0152078
0.0152054
0.0152032
0.0152009
0.0151987
0.0151966
0.0151945
0.0151924
0.0151904
0.0151884
0.0151864
0.0151845
0.0151826
0.0151807
0.0151789
0.0151771
0.0151754
0.0151737
0.015172
0.0151704
0.0151688
0.0151672
0.0151657
0.0151641
0.0151627
0.0151612
0.0151598
0.0151584
0.0151571
0.0151558
0.0151545
0.0151532
0.015152
0.0151508
0.0151496
0.0151485
0.0151473
0.0151462
0.0151452
0.0151441
0.0151431
0.0151421
0.0151411
0.0151402
0.0151393
0.0151384
0.0151375
0.0151366
0.0151358
0.0151349
0.0151341
0.0151334
0.0151326
0.0151319
0.0151311
0.0151304
0.0151297
0.015129
0.0151284
0.0151277
0.0151271
0.0151265
0.0151259
0.0151253
0.0151247
0.0151242
0.0151236
0.0151231
0.0151226
0.015122
0.0151215
0.0151211
0.0151206
0.0151201
0.0151196
0.0151192
0.0151187
0.0151183
0.0151179
0.0151174
0.015117
0.0151166
0.0151162
0.0151158
0.0151154
0.015115
0.0151147
0.0151143
0.0151139
0.0151136
0.0151132
0.0151129
0.0151125
0.0151122
0.0151118
0.0151115
0.0151111
0.0151108
0.0151105
0.0151101
0.0151098
0.0151095
0.0151092
0.0151088
0.0151085
0.0151082
0.0151079
0.0151076
0.0151073
0.0151069
0.0151066
0.0151063
0.015106
0.0151057
0.0151054
0.0151051
0.0151048
0.0151045
0.0151042
0.0151038
0.0151035
0.0151032
0.0151029
0.0151026
0.0151023
0.015102
0.0151017
0.0151014
0.0151011
0.0151008
0.0151005
0.0151002
0.0150999
0.0150996
0.0150993
0.015099
0.0150986
0.0150983
0.015098
0.0150977
0.0150974
0.0150971
0.0150968
0.0150965
0.0150962
0.0150959
0.0150956
0.0150953
0.015095
0.0150947
0.0150944
0.0150941
0.0150938
0.0150935
0.0150931
0.0150928
0.0150925
0.0150922
0.0150919
0.0150916
0.0150913
0.015091
0.0150907
0.0150904
0.0150901
0.0150898
0.0150895
0.0150892
0.0150889
0.0150886
0.0150883
0.015088
0.0150876
0.0150873
0.015087
0.0150867
0.0150864
0.0150861
0.0150858
0.0150855
0.0150852
0.0150849
0.0150846
0.0150843
0.015084
0.0150837
0.0150834
0.0150831
0.0150828
0.0150825
0.0150821
0.0150818
0.0150815
0.0150812
0.0150809
0.0150806
0.0150803
0.01508
0.0150797
0.0150794
0.0150791
0.0150788
0.0150785
0.0150782
0.0150779
0.0150776
0.0150773
0.015077
0.0150766
0.0150763
0.015076
0.0150757
0.0150754
0.0150751
0.0150748
0.0150745
0.0150742
0.0150739
0.0150736
0.0150733
0.015073
0.0150727
0.0150724
0.0150721
0.0150718
0.0150715
0.0150712
0.0150708
0.0150705
0.0150702
0.0150699
0.0150696
0.0150693
0.015069
0.0150687
0.0150684
0.0150681
0.0150678
0.0150675
0.0150672
0.0150669
0.0150666
0.0150663
0.015066
0.0150657
0.0150653
0.015065
0.0150647
0.0150644
0.0150641
0.0150638
0.0150635
0.0150632
0.0150629
0.0150626
0.0150623
0.015062
0.0150617
0.0150614
0.0150611
0.0150608
0.0150605
0.0150602
0.0150598
0.0150595
0.0150592
0.0150589
0.0150586
0.0150583
0.015058
0.0150577
0.0150574
0.0150571
0.0150568
0.0150565
0.0150562
0.0150559
0.0150556
0.0150553
0.015055
0.0150547
0.0150544
0.015054
0.0150537
0.0150534
0.0150531
0.0150528
0.0150525
0.0150522
0.0150519
0.0150516
0.0150513
0.015051
0.0150507
0.0150504
0.0150501
0.0150498
0.0150495
0.0150492
0.0150489
0.0150485
0.0150482
0.0150479
0.0150476
0.0150473
0.015047
0.0150467
0.0150464
0.0150461
0.0150458
0.0150455
0.0150452
0.0150449
0.0150446
0.0150443
0.015044
0.0150437
0.0150434
0.0150431
0.0150427
0.0150424
0.0150421
0.0150418
0.0150415
0.0150412
0.0150409
0.0150406
0.0150403
0.01504
0.0150397
0.0150394
0.0150391
0.0150388
0.0150385
0.0150382
0.0150379
0.0150376
0.0150373
0.0150369
0.0150366
0.0150363
0.015036
0.0150357
0.0150354
0.0150351
0.0150348
0.0150345
0.0150342
0.0150339
0.0150336
0.0150333
0.015033
0.0150327
0.0150324
0.0150321
0.0150318
0.0150314
0.0150311
0.0150308
0.0150305
0.0150302
0.0150299
0.0150296
0.0150293
0.015029
0.0150287
0.0150284
0.0150281
0.0150278
0.0150275
0.0150272
0.0150269
0.0150266
0.0150263
0.015026
0.0150256
0.0150253
0.015025
0.0150247
0.0150244
0.0150241
0.0150238
0.0150235
0.0150232
0.0150229
0.0150226
0.0150223
0.015022
0.0150217
0.0150214
0.0150211
0.0150208
0.0150205
0.0150202
0.0150198
0.0150195
0.0150192
0.0150189
0.0150186
0.0150183
0.015018
0.0150177
0.0150174
0.0150171
0.0150168
0.0150165
0.0150162
0.0150159
0.0150156
0.0150153
0.015015
0.0150147
0.0150144
0.015014
0.0150137
0.0150134
0.0150131
0.0150128
0.0150125
0.0150122
0.0150119
0.0150116
0.0150113
0.015011
0.0150107
0.0150104
0.0150101
0.0150098
0.0150095
0.0150092
0.0150088
0.0150085
0.0150082
0.0150079
0.0150076
0.0150073
0.015007
0.0150067
0.0150063
0.015006
0.0150057
0.0150053
0.015005
0.0150046
0.0150043
0.0150039
0.0150034
0.015003
0.0150025
0.0150019
0.0150013
0.0150006
0.0149996
0.0149992
0.0149992
0.0149992
1
0.969191
0.495616
0.314223
0.237896
0.197395
0.172133
0.154696
0.141842
0.131928
0.124027
0.117573
0.112196
0.107645
0.103741
0.100354
0.0973857
0.0947613
0.0924225
0.0903232
0.0884264
0.0867025
0.085127
0.08368
0.0823449
0.0811078
0.0799571
0.0788829
0.0778769
0.076932
0.0760419
0.0752014
0.0744059
0.0736515
0.0729345
0.0722518
0.0716009
0.0709791
0.0703845
0.0698149
0.0692688
0.0687444
0.0682405
0.0677558
0.0672889
0.066839
0.0664049
0.0659859
0.0655811
0.0651896
0.0648109
0.0644442
0.064089
0.0637447
0.0634107
0.0630866
0.0627719
0.0624661
0.062169
0.06188
0.0615989
0.0613253
0.0610589
0.0607994
0.0605465
0.0603
0.0600596
0.059825
0.0595961
0.0593727
0.0591544
0.0589412
0.0587329
0.0585293
0.0583301
0.0581354
0.0579448
0.0577584
0.0575758
0.0573971
0.0572221
0.0570506
0.0568826
0.056718
0.0565566
0.0563983
0.0562431
0.0560909
0.0559415
0.0557949
0.0556511
0.0555098
0.0553711
0.0552349
0.0551012
0.0549698
0.0548406
0.0547137
0.054589
0.0544664
0.0543458
0.0542273
0.0541107
0.053996
0.0538832
0.0537721
0.0536629
0.0535554
0.0534495
0.0533454
0.0532428
0.0531418
0.0530423
0.0529443
0.0528478
0.0527527
0.0526591
0.0525668
0.0524758
0.0523861
0.0522978
0.0522107
0.0521248
0.0520401
0.0519566
0.0518743
0.0517931
0.051713
0.051634
0.0515561
0.0514792
0.0514033
0.0513285
0.0512546
0.0511817
0.0511098
0.0510388
0.0509687
0.0508995
0.0508311
0.0507637
0.0506971
0.0506313
0.0505664
0.0505023
0.0504389
0.0503764
0.0503146
0.0502536
0.0501933
0.0501337
0.0500749
0.0500167
0.0499593
0.0499025
0.0498464
0.049791
0.0497362
0.0496821
0.0496286
0.0495757
0.0495234
0.0494718
0.0494207
0.0493702
0.0493203
0.0492709
0.0492222
0.0491739
0.0491262
0.0490791
0.0490324
0.0489863
0.0489407
0.0488956
0.048851
0.0488069
0.0487633
0.0487201
0.0486775
0.0486352
0.0485935
0.0485522
0.0485113
0.0484709
0.048431
0.0483914
0.0483523
0.0483136
0.0482753
0.0482374
0.0481999
0.0481628
0.0481261
0.0480898
0.0480539
0.0480183
0.0479831
0.0479483
0.0479139
0.0478798
0.047846
0.0478127
0.0477796
0.0477469
0.0477145
0.0476825
0.0476508
0.0476194
0.0475884
0.0475577
0.0475272
0.0474971
0.0474673
0.0474378
0.0474086
0.0473797
0.0473511
0.0473228
0.0472948
0.047267
0.0472395
0.0472123
0.0471854
0.0471588
0.0471324
0.0471063
0.0470804
0.0470548
0.0470295
0.0470044
0.0469795
0.0469549
0.0469306
0.0469065
0.0468826
0.046859
0.0468356
0.0468124
0.0467894
0.0467667
0.0467442
0.046722
0.0466999
0.0466781
0.0466565
0.0466351
0.0466139
0.0465929
0.0465721
0.0465515
0.0465311
0.0465109
0.046491
0.0464712
0.0464516
0.0464322
0.0464129
0.0463939
0.0463751
0.0463564
0.0463379
0.0463196
0.0463015
0.0462835
0.0462657
0.0462481
0.0462307
0.0462134
0.0461963
0.0461793
0.0461626
0.0461459
0.0461295
0.0461132
0.0460971
0.0460811
0.0460652
0.0460496
0.046034
0.0460186
0.0460034
0.0459883
0.0459734
0.0459586
0.045944
0.0459295
0.0459151
0.0459009
0.0458868
0.0458729
0.0458591
0.0458455
0.0458319
0.0458186
0.0458053
0.0457922
0.0457793
0.0457664
0.0457537
0.0457412
0.0457287
0.0457165
0.0457043
0.0456923
0.0456804
0.0456686
0.045657
0.0456455
0.0456341
0.0456229
0.0456118
0.0456009
0.04559
0.0455793
0.0455688
0.0455583
0.045548
0.0455378
0.0455278
0.0455179
0.0455081
0.0454985
0.0454889
0.0454795
0.0454703
0.0454611
0.0454521
0.0454433
0.0454345
0.0454259
0.0454174
0.045409
0.0454008
0.0453927
0.0453847
0.0453768
0.0453691