# vtk DataFile Version 2.0
FlowField
ASCII
DATASET STRUCTURED_GRID
DIMENSIONS 800 1 200
POINTS 160000 float
0 0 0
0.04 0 0
0.08 0 0
0.12 0 0
0.16 0 0
0.2 0 0
0.24 0 0
0.28 0 0
0.32 0 0
0.36 0 0
0.4 0 0
0.44 0 0
0.48 0 0
0.52 0 0
0.56 0 0
0.6 0 0
0.64 0 0
0.68 0 0
0.72 0 0
0.76 0 0
0.8 0 0
0.84 0 0
0.88 0 0
0.92 0 0
0.96 0 0
1 0 0
1.04 0 0
1.08 0 0
1.12 0 0
1.16 0 0
1.2 0 0
1.24 0 0
1.28 0 0
1.32 0 0
1.36 0 0
1.4 0 0
1.44 0 0
1.48 0 0
1.52 0 0
1.56 0 0
1.6 0 0
1.64 0 0
1.68 0 0
1.72 0 0
1.76 0 0
1.8 0 0
1.84 0 0
1.88 0 0
1.92 0 0
1.96 0 0
2 0 0
2.04 0 0
2.08 0 0
2.12 0 0
2.16 0 0
2.2 0 0
2.24 0 0
2.28 0 0
2.32 0 0
2.36 0 0
2.4 0 0
2.44 0 0
2.48 0 0
2.52 0 0
2.56 0 0
2.6 0 0
2.64 0 0
2.68 0 0
2.72 0 0
2.76 0 0
2.8 0 0
2.84 0 0
2.88 0 0
2.92 0 0
2.96 0 0
3 0 0
3.04 0 0
3.08 0 0
3.12 0 0
3.16 0 0
3.2 0 0
3.24 0 0
3.28 0 0
3.32 0 0
3.36 0 0
3.4 0 0
3.44 0 0
3.48 0 0
3.52 0 0
3.56 0 0
3.6 0 0
3.64 0 0
3.68 0 0
3.72 0 0
3.76 0 0
3.8 0 0
3.84 0 0
3.88 0 0
3.92 0 0
3.96 0 0
4 0 0
4.04 0 0
4.08 0 0
4.12 0 0
4.16 0 0
4.2 0 0
4.24 0 0
4.28 0 0
4.32 0 0
4.36 0 0
4.4 0 0
4.44 0 0
4.48 0 0
4.52 0 0
4.56 0 0
4.6 0 0
4.64 0 0
4.68 0 0
4.72 0 0
4.76 0 0
4.8 0 0
4.84 0 0
4.88 0 0
4.92 0 0
4.96 0 0
5 0 0
5.04 0 0
5.08 0 0
5.12 0 0
5.16 0 0
5.2 0 0
5.24 0 0
5.28 0 0
5.32 0 0
5.36 0 0
5.4 0 0
5.44 0 0
5.48 0 0
5.52 0 0
5.56 0 0
5.6 0 0
5.64 0 0
5.68 0 0
5.72 0 0
5.76 0 0
5.8 0 0
5.84 0 0
5.88 0 0
5.92 0 0
5.96 0 0
6 0 0
6.04 0 0
6.08 0 0
6.12 0 0
6.16 0 0
6.2 0 0
6.24 0 0
6.28 0 0
6.32 0 0
6.36 0 0
6.4 0 0
6.44 0 0
6.48 0 0
6.52 0 0
6.56 0 0
6.6 0 0
6.64 0 0
6.68 0 0
6.72 0 0
6.76 0 0
6.8 0 0
6.84 0 0
6.88 0 0
6.92 0 0
6.96 0 0
7 0 0
7.04 0 0
7.08 0 0
7.12 0 0
7.16 0 0
7.2 0 0
7.24 0 0
7.28 0 0
7.32 0 0
7.36 0 0
7.4 0 0
7.44 0 0
7.48 0 0
7.52 0 0
7.56 0 0
7.6 0 0
7.64 0 0
7.68 0 0
7.72 0 0
7.76 0 0
7.8 0 0
7.84 0 0
7.88 0 0
7.92 0 0
7.96 0 0
8 0 0
8.04 0 0
8.08 0 0
8.12 0 0
8.16 0 0
8.2 0 0
8.24 0 0
8.28 0 0
8.32 0 0
8.36 0 0
8.4 0 0
8.44 0 0
8.48 0 0
8.52 0 0
8.56 0 0
8.6 0 0
8.64 0 0
8.68 0 0
8.72 0 0
8.76 0 0
8.8 0 0
8.84 0 0
8.88 0 0
8.92 0 0
8.96 0 0
9 0 0
9.04 0 0
9.08 0 0
9.12 0 0
9.16 0 0
9.2 0 0
9.24 0 0
9.28 0 0
9.32 0 0
9.36 0 0
9.4 0 0
9.44 0 0
9.48 0 0
9.52 0 0
9.56 0 0
9.6 0 0
9.64 0 0
9.68 0 0
9.72 0 0
9.76 0 0
9.8 0 0
9.84 0 0
9.88 0 0
9.92 0 0
9.96 0 0
10 0 0
10.04 0 0
10.08 0 0
10.12 0 0
10.16 0 0
10.2 0 0
10.24 0 0
10.28 0 0
10.32 0 0
10.36 0 0
10.4 0 0
10.44 0 0
10.48 0 0
10.52 0 0
10.56 0 0
10.6 0 0
10.64 0 0
10.68 0 0
10.72 0 0
10.76 0 0
10.8 0 0
10.84 0 0
10.88 0 0
10.92 0 0
10.96 0 0
11 0 0
11.04 0 0
11.08 0 0
11.12 0 0
11.16 0 0
11.2 0 0
11.24 0 0
11.28 0 0
11.32 0 0
11.36 0 0
11.4 0 0
11.44 0 0
11.48 0 0
11.52 0 0
11.56 0 0
11.6 0 0
11.64 0 0
11.68 0 0
11.72 0 0
11.76 0 0
11.8 0 0
11.84 0 0
11.88 0 0
11.92 0 0
11.96 0 0
12 0 0
12.04 0 0
12.08 0 0
12.12 0 0
12.16 0 0
12.2 0 0
12.24 0 0
12.28 0 0
12.32 0 0
12.36 0 0
12.4 0 0
12.44 0 0
12.48 0 0
12.52 0 0
12.56 0 0
12.6 0 0
12.64 0 0
12.68 0 0
12.72 0 0
12.76 0 0
12.8 0 0
12.84 0 0
12.88 0 0
12.92 0 0
12.96 0 0
13 0 0
13.04 0 0
13.08 0 0
13.12 0 0
13.16 0 0
13.2 0 0
13.24 0 0
13.28 0 0
13.32 0 0
13.36 0 0
13.4 0 0
13.44 0 0
13.48 0 0
13.52 0 0
13.56 0 0
13.6 0 0
13.64 0 0
13.68 0 0
13.72 0 0
13.76 0 0
13.8 0 0
13.84 0 0
13.88 0 0
13.92 0 0
13.96 0 0
14 0 0
14.04 0 0
14.08 0 0
14.12 0 0
14.16 0 0
14.2 0 0
14.24 0 0
14.28 0 0
14.32 0 0
14.36 0 0
14.4 0 0
14.44 0 0
14.48 0 0
14.52 0 0
14.56 0 0
14.6 0 0
14.64 0 0
14.68 0 0
14.72 0 0
14.76 0 0
14.8 0 0
14.84 0 0
14.88 0 0
14.92 0 0
14.96 0 0
15 0 0
15.04 0 0
15.08 0 0
15.12 0 0
15.16 0 0
15.2 0 0
15.24 0 0
15.28 0 0
15.32 0 0
15.36 0 0
15.4 0 0
15.44 0 0
15.48 0 0
15.52 0 0
15.56 0 0
15.6 0 0
15.64 0 0
15.68 0 0
15.72 0 0
15.76 0 0
15.8 0 0
15.84 0 0
15.88 0 0
15.92 0 0
15.96 0 0
16 0 0
16.04 0 0
16.08 0 0
16.12 0 0
16.16 0 0
16.2 0 0
16.24 0 0
16.28 0 0
16.32 0 0
16.36 0 0
16.4 0 0
16.44 0 0
16.48 0 0
16.52 0 0
16.56 0 0
16.6 0 0
16.64 0 0
16.68 0 0
16.72 0 0
16.76 0 0
16.8 0 0
16.84 0 0
16.88 0 0
16.92 0 0
16.96 0 0
17 0 0
17.04 0 0
17.08 0 0
17.12 0 0
17.16 0 0
17.2 0 0
17.24 0 0
17.28 0 0
17.32 0 0
17.36 0 0
17.4 0 0
17.44 0 0
17.48 0 0
17.52 0 0
17.56 0 0
17.6 0 0
17.64 0 0
17.68 0 0
17.72 0 0
17.76 0 0
17.8 0 0
17.84 0 0
17.88 0 0
17.92 0 0
17.96 0 0
18 0 0
18.04 0 0
18.08 0 0
18.12 0 0
18.16 0 0
18.2 0 0
18.24 0 0
18.28 0 0
18.32 0 0
18.36 0 0
18.4 0 0
18.44 0 0
18.48 0 0
18.52 0 0
18.56 0 0
18.6 0 0
18.64 0 0
18.68 0 0
18.72 0 0
18.76 0 0
18.8 0 0
18.84 0 0
18.88 0 0
18.92 0 0
18.96 0 0
19 0 0
19.04 0 0
19.08 0 0
19.12 0 0
19.16 0 0
19.2 0 0
19.24 0 0
19.28 0 0
19.32 0 0
19.36 0 0
19.4 0 0
19.44 0 0
19.48 0 0
19.52 0 0
19.56 0 0
19.6 0 0
19.64 0 0
19.68 0 0
19.72 0 0
19.76 0 0
19.8 0 0
19.84 0 0
19.88 0 0
19.92 0 0
19.96 0 0
20 0 0
20.04 0 0
20.08 0 0
20.12 0 0
20.16 0 0
20.2 0 0
20.24 0 0
20.28 0 0
20.32 0 0
20.36 0 0
20.4 0 0
20.44 0 0
20.48 0 0
20.52 0 0
20.56 0 0
20.6 0 0
20.64 0 0
20.68 0 0
20.72 0 0
20.76 0 0
20.8 0 0
20.84 0 0
20.88 0 0
20.92 0 0
20.96 0 0
21 0 0
21.04 0 0
21.08 0 0
21.12 0 0
21.16 0 0
21.2 0 0
21.24 0 0
21.28 0 0
21.32 0 0
21.36 0 0
21.4 0 0
21.44 0 0
21.48 0 0
21.52 0 0
21.56 0 0
21.6 0 0
21.64 0 0
21.68 0 0
21.72 0 0
21.76 0 0
21.8 0 0
21.84 0 0
21.88 0 0
21.92 0 0
21.96 0 0
22 0 0
22.04 0 0
22.08 0 0
22.12 0 0
22.16 0 0
22.2 0 0
22.24 0 0
22.28 0 0
22.32 0 0
22.36 0 0
22.4 0 0
22.44 0 0
22.48 0 0
22.52 0 0
22.56 0 0
22.6 0 0
22.64 0 0
22.68 0 0
22.72 0 0
22.76 0 0
22.8 0 0
22.84 0 0
22.88 0 0
22.92 0 0
22.96 0 0
23 0 0
23.04 0 0
23.08 0 0
23.12 0 0
23.16 0 0
23.2 0 0
23.24 0 0
23.28 0 0
23.32 0 0
23.36 0 0
23.4 0 0
23.44 0 0
23.48 0 0
23.52 0 0
23.56 0 0
23.6 0 0
23.64 0 0
23.68 0 0
23.72 0 0
23.76 0 0
23.8 0 0
23.84 0 0
23.88 0 0
23.92 0 0
23.96 0 0
24 0 0
24.04 0 0
24.08 0 0
24.12 0 0
24.16 0 0
24.2 0 0
24.24 0 0
24.28 0 0
24.32 0 0
24.36 0 0
24.4 0 0
24.44 0 0
24.48 0 0
24.52 0 0
24.56 0 0
24.6 0 0
24.64 0 0
24.68 0 0
24.72 0 0
24.76 0 0
24.8 0 0
24.84 0 0
24.88 0 0
24.92 0 0
24.96 0 0
25 0 0
25.04 0 0
25.08 0 0
25.12 0 0
25.16 0 0
25.2 0 0
25.24 0 0
25.28 0 0
25.32 0 0
25.36 0 0
25.4 0 0
25.44 0 0
25.48 0 0
25.52 0 0
25.56 0 0
25.6 0 0
25.64 0 0
25.68 0 0
25.72 0 0
25.76 0 0
25.8 0 0
25.84 0 0
25.88 0 0
25.92 0 0
25.96 0 0
26 0 0
26.04 0 0
26.08 0 0
26.12 0 0
26.16 0 0
26.2 0 0
26.24 0 0
26.28 0 0
26.32 0 0
26.36 0 0
26.4 0 0
26.44 0 0
26.48 0 0
26.52 0 0
26.56 0 0
26.6 0 0
26.64 0 0
26.68 0 0
26.72 0 0
26.76 0 0
26.8 0 0
26.84 0 0
26.88 0 0
26.92 0 0
26.96 0 0
27 0 0
27.04 0 0
27.08 0 0
27.12 0 0
27.16 0 0
27.2 0 0
27.24 0 0
27.28 0 0
27.32 0 0
27.36 0 0
27.4 0 0
27.44 0 0
27.48 0 0
27.52 0 0
27.56 0 0
27.6 0 0
27.64 0 0
27.68 0 0
27.72 0 0
27.76 0 0
27.8 0 0
27.84 0 0
27.88 0 0
27.92 0 0
27.96 0 0
28 0 0
28.04 0 0
28.08 0 0
28.12 0 0
28.16 0 0
28.2 0 0
28.24 0 0
28.28 0 0
28.32 0 0
28.36 0 0
28.4 0 0
28.44 0 0
28.48 0 0
28.52 0 0
28.56 0 0
28.6 0 0
28.64 0 0
28.68 0 0
28.72 0 0
28.76 0 0
28.8 0 0
28.84 0 0
28.88 0 0
28.92 0 0
28.96 0 0
29 0 0
29.04 0 0
29.08 0 0
29.12 0 0
29.16 0 0
29.2 0 0
29.24 0 0
29.28 0 0
29.32 0 0
29.36 0 0
29.4 0 0
29.44 0 0
29.48 0 0
29.52 0 0
29.56 0 0
29.6 0 0
29.64 0 0
29.68 0 0
29.72 0 0
29.76 0 0
29.8 0 0
29.84 0 0
29.88 0 0
29.92 0 0
29.96 0 0
30 0 0
30.04 0 0
30.08 0 0
30.12 0 0
30.16 0 0
30.2 0 0
30.24 0 0
30.28 0 0
30.32 0 0
30.36 0 0
30.4 0 0
30.44 0 0
30.48 0 0
30.52 0 0
30.56 0 0
30.6 0 0
30.64 0 0
30.68 0 0
30.72 0 0
30.76 0 0
30.8 0 0
30.84 0 0
30.88 0 0
30.92 0 0
30.96 0 0
31 0 0
31.04 0 0
31.08 0 0
31.12 0 0
31.16 0 0
31.2 0 0
31.24 0 0
31.28 0 0
31.32 0 0
31.36 0 0
31.4 0 0
31.44 0 0
31.48 0 0
31.52 0 0
31.56 0 0
31.6 0 0
31.64 0 0
31.68 0 0
31.72 0 0
31.76 0 0
31.8 0 0
31.84 0 0
31.88 0 0
31.92 0 0
31.96 0 0
0 0.005 0
0.04 0.005 0
0.08 0.005 0
0.12 0.005 0
0.16 0.005 0
0.2 0.005 0
0.24 0.005 0
0.28 0.005 0
0.32 0.005 0
0.36 0.005 0
0.4 0.005 0
0.44 0.005 0
0.48 0.005 0
0.52 0.005 0
0.56 0.005 0
0.6 0.005 0
0.64 0.005 0
0.68 0.005 0
0.72 0.005 0
0.76 0.005 0
0.8 0.005 0
0.84 0.005 0
0.88 0.005 0
0.92 0.005 0
0.96 0.005 0
1 0.005 0
1.04 0.005 0
1.08 0.005 0
1.12 0.005 0
1.16 0.005 0
1.2 0.005 0
1.24 0.005 0
1.28 0.005 0
1.32 0.005 0
1.36 0.005 0
1.4 0.005 0
1.44 0.005 0
1.48 0.005 0
1.52 0.005 0
1.56 0.005 0
1.6 0.005 0
1.64 0.005 0
1.68 0.005 0
1.72 0.005 0
1.76 0.005 0
1.8 0.005 0
1.84 0.005 0
1.88 0.005 0
1.92 0.005 0
1.96 0.005 0
2 0.005 0
2.04 0.005 0
2.08 0.005 0
2.12 0.005 0
2.16 0.005 0
2.2 0.005 0
2.24 0.005 0
2.28 0.005 0
2.32 0.005 0
2.36 0.005 0
2.4 0.005 0
2.44 0.005 0
2.48 0.005 0
2.52 0.005 0
2.56 0.005 0
2.6 0.005 0
2.64 0.005 0
2.68 0.005 0
2.72 0.005 0
2.76 0.005 0
2.8 0.005 0
2.84 0.005 0
2.88 0.005 0
2.92 0.005 0
2.96 0.005 0
3 0.005 0
3.04 0.005 0
3.08 0.005 0
3.12 0.005 0
3.16 0.005 0
3.2 0.005 0
3.24 0.005 0
3.28 0.005 0
3.32 0.005 0
3.36 0.005 0
3.4 0.005 0
3.44 0.005 0
3.48 0.005 0
3.52 0.005 0
3.56 0.005 0
3.6 0.005 0
3.64 0.005 0
3.68 0.005 0
3.72 0.005 0
3.76 0.005 0
3.8 0.005 0
3.84 0.005 0
3.88 0.005 0
3.92 0.005 0
3.96 0.005 0
4 0.005 0
4.04 0.005 0
4.08 0.005 0
4.12 0.005 0
4.16 0.005 0
4.2 0.005 0
4.24 0.005 0
4.28 0.005 0
4.32 0.005 0
4.36 0.005 0
4.4 0.005 0
4.44 0.005 0
4.48 0.005 0
4.52 0.005 0
4.56 0.005 0
4.6 0.005 0
4.64 0.005 0
4.68 0.005 0
4.72 0.005 0
4.76 0.005 0
4.8 0.005 0
4.84 0.005 0
4.88 0.005 0
4.92 0.005 0
4.96 0.005 0
5 0.005 0
5.04 0.005 0
5.08 0.005 0
5.12 0.005 0
5.16 0.005 0
5.2 0.005 0
5.24 0.005 0
5.28 0.005 0
5.32 0.005 0
5.36 0.005 0
5.4 0.005 0
5.44 0.005 0
5.48 0.005 0
5.52 0.005 0
5.56 0.005 0
5.6 0.005 0
5.64 0.005 0
5.68 0.005 0
5.72 0.005 0
5.76 0.005 0
5.8 0.005 0
5.84 0.005 0
5.88 0.005 0
5.92 0.005 0
5.96 0.005 0
6 0.005 0
6.04 0.005 0
6.08 0.005 0
6.12 0.005 0
6.16 0.005 0
6.2 0.005 0
6.24 0.005 0
6.28 0.005 0
6.32 0.005 0
6.36 0.005 0
6.4 0.005 0
6.44 0.005 0
6.48 0.005 0
6.52 0.005 0
6.56 0.005 0
6.6 0.005 0
6.64 0.005 0
6.68 0.005 0
6.72 0.005 0
6.76 0.005 0
6.8 0.005 0
6.84 0.005 0
6.88 0.005 0
6.92 0.005 0
6.96 0.005 0
7 0.005 0
7.04 0.005 0
7.08 0.005 0
7.12 0.005 0
7.16 0.005 0
7.2 0.005 0
7.24 0.005 0
7.28 0.005 0
7.32 0.005 0
7.36 0.005 0
7.4 0.005 0
[...]
POINT_DATA 160000

SCALARS u float 1
LOOKUP_TABLE default
-1
-0.483358
-0.183963
-0.108845
-0.0810331
-0.0668337
-0.0581181
-0.0521527
-0.0477774
-0.0444146
-0.0417413
-0.0395615
-0.0377483
-0.0362153
-0.0349015
-0.0337625
-0.0327648
-0.031883
-0.0310974
-0.0303924
-0.0297554
-0.0291764
-0.0286472
-0.0281612
-0.0277126
-0.0272968
-0.02691
-0.0265488
-0.0262104
-0.0258925
-0.025593
-0.0253101
-0.0250422
-0.0247881
-0.0245465
-0.0243165
-0.0240971
-0.0238875
-0.023687
-0.0234949
-0.0233107
-0.0231338
-0.0229638
-0.0228002
-0.0226426
-0.0224907
-0.0223442
-0.0222027
-0.022066
-0.0219338
-0.0218059
-0.0216821
-0.0215621
-0.0214458
-0.0213329
-0.0212234
-0.0211171
-0.0210138
-0.0209134
-0.0208157
-0.0207207
-0.0206282
-0.0205382
-0.0204505
-0.020365
-0.0202816
-0.0202004
-0.0201211
-0.0200437
-0.0199681
-0.0198943
-0.0198222
-0.0197518
-0.0196829
-0.0196156
-0.0195497
-0.0194853
-0.0194222
-0.0193605
-0.0193001
-0.0192409
-0.0191829
-0.019126
-0.0190703
-0.0190157
-0.0189622
-0.0189097
-0.0188582
-0.0188077
-0.0187581
-0.0187094
-0.0186616
-0.0186147
-0.0185686
-0.0185234
-0.0184789
-0.0184352
-0.0183923
-0.01835
-0.0183086
-0.0182678
-0.0182276
-0.0181882
-0.0181494
-0.0181112
-0.0180736
-0.0180366
-0.0180002
-0.0179644
-0.0179292
-0.0178944
-0.0178603
-0.0178266
-0.0177934
-0.0177607
-0.0177286
-0.0176969
-0.0176656
-0.0176348
-0.0176045
-0.0175745
-0.0175451
-0.017516
-0.0174873
-0.0174591
-0.0174312
-0.0174037
-0.0173766
-0.0173498
-0.0173234
-0.0172974
-0.0172717
-0.0172464
-0.0172213
-0.0171967
-0.0171723
-0.0171482
-0.0171245
-0.0171011
-0.0170779
-0.0170551
-0.0170325
-0.0170103
-0.0169883
-0.0169666
-0.0169451
-0.0169239
-0.016903
-0.0168823
-0.0168619
-0.0168417
-0.0168218
-0.0168021
-0.0167826
-0.0167634
-0.0167444
-0.0167256
-0.0167071
-0.0166887
-0.0166706
-0.0166527
-0.016635
-0.0166175
-0.0166002
-0.0165831
-0.0165662
-0.0165495
-0.0165329
-0.0165166
-0.0165004
-0.0164844
-0.0164686
-0.016453
-0.0164376
-0.0164223
-0.0164072
-0.0163922
-0.0163774
-0.0163628
-0.0163484
-0.0163341
-0.0163199
-0.0163059
-0.0162921
-0.0162784
-0.0162648
-0.0162514
-0.0162382
-0.016225
-0.0162121
-0.0161992
-0.0161865
-0.016174
-0.0161615
-0.0161492
-0.016137
-0.016125
-0.0161131
-0.0161013
-0.0160896
-0.016078
-0.0160666
-0.0160553
-0.0160441
-0.016033
-0.016022
-0.0160112
-0.0160004
-0.0159898
-0.0159793
-0.0159689
-0.0159585
-0.0159483
-0.0159382
-0.0159282
-0.0159183
-0.0159085
-0.0158988
-0.0158892
-0.0158797
-0.0158703
-0.015861
-0.0158518
-0.0158427
-0.0158336
-0.0158247
-0.0158158
-0.0158071
-0.0157984
-0.0157898
-0.0157813
-0.0157729
-0.0157645
-0.0157563
-0.0157481
-0.01574
-0.015732
-0.0157241
-0.0157162
-0.0157084
-0.0157007
-0.0156931
-0.0156856
-0.0156781
-0.0156707
-0.0156634
-0.0156561
-0.0156489
-0.0156418
-0.0156348
-0.0156278
-0.0156209
-0.015614
-0.0156073
-0.0156005
-0.0155939
-0.0155873
-0.0155808
-0.0155744
-0.015568
-0.0155616
-0.0155554
-0.0155492
-0.015543
-0.0155369
-0.0155309
-0.0155249
-0.015519
-0.0155132
-0.0155074
-0.0155016
-0.0154959
-0.0154903
-0.0154847
-0.0154792
-0.0154737
-0.0154683
-0.0154629
-0.0154576
-0.0154524
-0.0154471
-0.015442
-0.0154369
-0.0154318
-0.0154268
-0.0154218
-0.0154169
-0.015412
-0.0154072
-0.0154024
-0.0153976
-0.0153929
-0.0153883
-0.0153837
-0.0153791
-0.0153746
-0.0153701
-0.0153657
-0.0153613
-0.0153569
-0.0153526
-0.0153483
-0.0153441
-0.0153399
-0.0153358
-0.0153317
-0.0153276
-0.0153235
-0.0153195
-0.0153156
-0.0153117
-0.0153078
-0.0153039
-0.0153001
-0.0152963
-0.0152926
-0.0152889
-0.0152852
-0.0152815
-0.0152779
-0.0152743
-0.0152708
-0.0152673
-0.0152638
-0.0152604
-0.015257
-0.0152536
-0.0152502
-0.0152469
-0.0152436
-0.0152403
-0.0152371
-0.0152339
-0.0152307
-0.0152276
-0.0152245
-0.0152214
-0.0152183
-0.0152153
-0.0152123
-0.0152093
-0.0152064
-0.0152035
-0.0152006
-0.0151977
-0.0151948
-0.015192
-0.0151892
-0.0151865
-0.0151837
-0.015181
-0.0151783
-0.0151756
-0.015173
-0.0151704
-0.0151678
-0.0151652
-0.0151626
-0.0151601
-0.0151576
-0.0151551
-0.0151527
-0.0151502
-0.0151478
-0.0151454
-0.015143
-0.0151407
-0.0151383
-0.015136
-0.0151337
-0.0151314
-0.0151292
-0.0151269
-0.0151247
-0.0151225
-0.0151204
-0.0151182
-0.0151161
-0.0151139
-0.0151118
-0.0151098
-0.0151077
-0.0151056
-0.0151036
-0.0151016
-0.0150996
-0.0150976
-0.0150957
-0.0150937
-0.0150918
-0.0150899
-0.015088
-0.0150861
-0.0150843
-0.0150824
-0.0150806
-0.0150788
-0.015077
-0.0150753
-0.0150735
-0.0150718
-0.01507
-0.0150683
-0.0150666
-0.015065
-0.0150633
-0.0150617
-0.01506
-0.0150584
-0.0150568
-0.0150552
-0.0150537
-0.0150521
-0.0150506
-0.015049
-0.0150475
-0.0150461
-0.0150446
-0.0150431
-0.0150417
-0.0150402
-0.0150388
-0.0150374
-0.015036
-0.0150347
-0.0150333
-0.015032
-0.0150306
-0.0150293
-0.015028
-0.0150268
-0.0150255
-0.0150242
-0.015023
-0.0150218
-0.0150206
-0.0150194
-0.0150182
-0.015017
-0.0150159
-0.0150147
-0.0150136
-0.0150125
-0.0150114
-0.0150103
-0.0150093
-0.0150082
-0.0150072
-0.0150061
-0.0150051
-0.0150041
-0.0150031
-0.0150021
-0.0150012
-0.0150002
-0.0149993
-0.0149984
-0.0149975
-0.0149966
-0.0149957
-0.0149948
-0.014994
-0.0149931
-0.0149923
-0.0149914
-0.0149906
-0.0149898
-0.014989
-0.0149883
-0.0149875
-0.0149867
-0.014986
-0.0149853
-0.0149845
-0.0149838
-0.0149831
-0.0149824
-0.0149817
-0.0149811
-0.0149804
-0.0149798
-0.0149791
-0.0149785
-0.0149779
-0.0149772
-0.0149766
-0.014976
-0.0149755
-0.0149749
-0.0149743
-0.0149737
-0.0149732
-0.0149726
-0.0149721
-0.0149716
-0.014971
-0.0149705
-0.01497
-0.0149695
-0.014969
-0.0149685
-0.014968
-0.0149676
-0.0149671
-0.0149666
-0.0149662
-0.0149657
-0.0149653
-0.0149648
-0.0149644
-0.014964
-0.0149635
-0.0149631
-0.0149627
-0.0149623
-0.0149619
-0.0149615
-0.0149611
-0.0149607
-0.0149603
-0.0149599
-0.0149595
-0.0149591
-0.0149587
-0.0149584
-0.014958
-0.0149576
-0.0149573
-0.0149569
-0.0149565
-0.0149562
-0.0149558
-0.0149555
-0.0149551
-0.0149548
-0.0149544
-0.0149541
-0.0149538
-0.0149534
-0.0149531
-0.0149527
-0.0149524
-0.0149521
-0.0149518
-0.0149514
-0.0149511
-0.0149508
-0.0149504
-0.0149501
-0.0149498
-0.0149495
-0.0149492
-0.0149488
-0.0149485
-0.0149482
-0.0149479
-0.0149476
-0.0149472
-0.0149469
-0.0149466
-0.0149463
-0.014946
-0.0149457
-0.0149454
-0.014945
-0.0149447
-0.0149444
-0.0149441
-0.0149438
-0.0149435
-0.0149432
-0.0149429
-0.0149426
-0.0149422
-0.0149419
-0.0149416
-0.0149413
-0.014941
-0.0149407
-0.0149404
-0.0149401
-0.0149398
-0.0149395
-0.0149391
-0.0149388
-0.0149385
-0.0149382
-0.0149379
-0.0149376
-0.0149373
-0.014937
-0.0149367
-0.0149364
-0.0149361
-0.0149358
-0.0149354
-0.0149351
-0.0149348
-0.0149345
-0.0149342
-0.0149339
-0.0149336
-0.0149333
-0.014933
-0.0149327
-0.0149324
-0.014932
-0.0149317
-0.0149314
-0.0149311
-0.0149308
-0.0149305
-0.0149302
-0.0149299
-0.0149296
-0.0149293
-0.014929
-0.0149287
-0.0149283
-0.014928
-0.0149277
-0.0149274
-0.0149271
-0.0149268
-0.0149265
-0.0149262
-0.0149259
-0.0149256
-0.0149253
-0.014925
-0.0149246
-0.0149243
-0.014924
-0.0149237
-0.0149234
-0.0149231
-0.0149228
-0.0149225
-0.0149222
-0.0149219
-0.0149216
-0.0149212
-0.0149209
-0.0149206
-0.0149203
-0.01492
-0.0149197
-0.0149194
-0.0149191
-0.0149188
-0.0149185
-0.0149182
-0.0149179
-0.0149175
-0.0149172
-0.0149169
-0.0149166
-0.0149163
-0.014916
-0.0149157
-0.0149154
-0.0149151
-0.0149148
-0.0149145
-0.0149142
-0.0149138
-0.0149135
-0.0149132
-0.0149129
-0.0149126
-0.0149123
-0.014912
-0.0149117
-0.0149114
-0.0149111
-0.0149108
-0.0149104
-0.0149101
-0.0149098
-0.0149095
-0.0149092
-0.0149089
-0.0149086
-0.0149083
-0.014908
-0.0149077
-0.0149074
-0.0149071
-0.0149067
-0.0149064
-0.0149061
-0.0149058
-0.0149055
-0.0149052
-0.0149049
-0.0149046
-0.0149043
-0.014904
-0.0149037
-0.0149034
-0.014903
-0.0149027
-0.0149024
-0.0149021
-0.0149018
-0.0149015
-0.0149012
-0.0149009
-0.0149006
-0.0149003
-0.0149
-0.0148997
-0.0148993
-0.014899
-0.0148987
-0.0148984
-0.0148981
-0.0148978
-0.0148975
-0.0148972
-0.0148969
-0.0148966
-0.0148963
-0.0148959
-0.0148956
-0.0148953
-0.014895
-0.0148947
-0.0148944
-0.0148941
-0.0148938
-0.0148935
-0.0148932
-0.0148929
-0.0148926
-0.0148922
-0.0148919
-0.0148916
-0.0148913
-0.014891
-0.0148907
-0.0148904
-0.0148901
-0.0148898
-0.0148895
-0.0148892
-0.0148889
-0.0148885
-0.0148882
-0.0148879
-0.0148876
-0.0148873
-0.014887
-0.0148867
-0.0148864
-0.0148861
-0.0148858
-0.0148855
-0.0148852
-0.0148848
-0.0148845
-0.0148842
-0.0148839
-0.0148836
-0.0148833
-0.014883
-0.0148827
-0.0148824
-0.0148821
-0.0148818
-0.0148814
-0.0148811
-0.0148808
-0.0148805
-0.0148802
-0.0148799
-0.0148796
-0.0148793
-0.014879
-0.0148786
-0.0148783
-0.014878
-0.0148777
-0.0148773
-0.014877
-0.0148767
-0.0148763
-0.014876
-0.0148756
-0.0148752
-0.0148748
-0.0148743
-0.0148738
-0.0148733
-0.0148726
-0.014872
-0.014871
-0.0148706
-0.0148706
-0.0148706
1
0.483358
0.183963
0.108845
0.0810331
0.0668337
0.0581181
0.0521527
0.0477774
0.0444146
0.0417413
0.0395615
0.0377483
0.0362153
0.0349015
0.0337625
0.0327648
0.031883
0.0310974
0.0303924
0.0297554
0.0291764
0.0286472
0.0281612
0.0277126
0.0272968
0.02691
0.0265488
0.0262104
0.0258925
0.025593
0.0253101
0.0250422
0.0247881
0.0245465
0.0243165
0.0240971
0.0238875
0.023687
0.0234949
0.0233107
0.0231338
0.0229638
0.0228002
0.0226426
0.0224907
0.0223442
0.0222027
0.022066
0.0219338
0.0218059
0.0216821
0.0215621
0.0214458
0.0213329
0.0212234
0.0211171
0.0210138
0.0209134
0.0208157
0.0207207
0.0206282
0.0205382
0.0204505
0.020365
0.0202816
0.0202004
0.0201211
0.0200437
0.0199681
0.0198943
0.0198222
0.0197518
0.0196829
0.0196156
0.0195497
0.0194853
0.0194222
0.0193605
0.0193001
0.0192409
0.0191829
0.019126
0.0190703
0.0190157
0.0189622
0.0189097
0.0188582
0.0188077
0.0187581
0.0187094
0.0186616
0.0186147
0.0185686
0.0185234
0.0184789
0.0184352
0.0183923
0.01835
0.0183086
0.0182678
0.0182276
0.0181882
0.0181494
0.0181112
0.0180736
0.0180366
0.0180002
0.0179644
0.0179292
0.0178944
0.0178603
0.0178266
0.0177934
0.0177607
0.0177286
0.0176969
0.0176656
0.0176348
0.0176045
0.0175745
0.0175451
0.017516
0.0174873
0.0174591
0.0174312
0.0174037
0.0173766
0.0173498
0.0173234
0.0172974
0.0172717
0.0172464
0.0172213
0.0171967
0.0171723
0.0171482
0.0171245
0.0171011
0.0170779
0.0170551
0.0170325
0.0170103
0.0169883
0.0169666
0.0169451
0.0169239
0.016903
0.0168823
0.0168619
0.0168417
0.0168218
0.0168021
0.0167826
0.0167634
0.0167444
0.0167256
0.0167071
0.0166887
0.0166706
0.0166527
0.016635
0.0166175
0.0166002
0.0165831
0.0165662
0.0165495
0.0165329
0.0165166
0.0165004
0.0164844
0.0164686
0.016453
0.0164376
0.0164223
0.0164072
0.0163922
0.0163774
0.0163628
0.0163484
0.0163341
0.0163199
0.0163059
0.0162921
0.0162784
0.0162648
0.0162514
0.0162382
0.016225
0.0162121
0.0161992
0.0161865
0.016174
0.0161615
0.0161492
0.016137
0.016125
0.0161131
0.0161013
0.0160896
0.016078
0.0160666
0.0160553
0.0160441
0.016033
0.016022
0.0160112
0.0160004
0.0159898
0.0159793
0.0159689
0.0159585
0.0159483
0.0159382
0.0159282
0.0159183
0.0159085
0.0158988
0.0158892
0.0158797
0.0158703
0.015861
0.0158518
0.0158427
0.0158336
0.0158247
0.0158158
0.0158071
0.0157984
0.0157898
0.0157813
0.0157729
0.0157645
0.0157563
0.0157481
0.01574
0.015732
0.0157241
0.0157162
0.0157084
0.0157007
0.0156931
0.0156856
0.0156781
0.0156707
0.0156634
0.0156561
0.0156489
0.0156418
0.0156348
0.0156278
0.0156209
0.015614
0.0156073
0.0156005
0.0155939
0.0155873
0.0155808
0.0155744
0.015568
0.0155616
0.0155554
0.0155492
0.015543
0.0155369
0.0155309
0.0155249
0.015519
0.0155132
0.0155074
0.0155016
0.0154959
0.0154903
0.0154847
0.0154792
0.0154737
0.0154683
0.0154629
0.0154576
0.0154524
0.0154471
0.015442
0.0154369
0.0154318
0.0154268
0.0154218
0.0154169
0.015412
0.0154072
0.0154024
0.0153976
0.0153929
0.0153883
0.0153837
0.0153791
0.0153746
0.0153701
0.0153657
0.0153613
0.0153569
0.0153526
0.0153483
0.0153441
0.0153399
0.0153358
0.0153317
0.0153276
0.0153235
0.0153195
0.0153156
0.0153117
0.0153078
0.0153039
0.0153001
0.0152963
0.0152926
0.0152889
0.0152852
0.0152815
0.0152779
0.0152743
0.0152708
0.0152673
0.0152638
0.0152604
0.015257
0.0152536
0.0152502
0.0152469
0.0152436
0.0152403
0.0152371
0.0152339
0.0152307
0.0152276
0.0152245
0.0152214
0.0152183
0.0152153
0.0152123
0.0152093
0.0152064
0.0152035
0.0152006
0.0151977
0.0151948
0.015192
0.0151892
0.0151865
0.0151837
0.015181
0.0151783
0.0151756
0.015173
0.0151704
0.0151678
0.0151652
0.0151626
0.0151601
0.0151576
0.0151551
0.0151527
0.0151502
0.0151478
0.0151454
0.015143
0.0151407
0.0151383
0.015136
0.0151337
0.0151314
0.0151292
0.0151269
0.0151247
0.0151225
0.0151204
0.0151182
0.0151161
0.0151139
0.0151118
0.0151098
0.0151077
0.0151056
0.0151036
0.0151016
0.0150996
0.0150976
0.0150957
0.0150937
0.0150918
0.0150899
0.015088
0.0150861
0.0150843
0.0150824
0.0150806
0.0150788
0.015077
0.0150753
0.0150735
0.0150718
0.01507
0.0150683
0.0150666
0.015065
0.0150633
0.0150617
0.01506
0.0150584
0.0150568
0.0150552
0.0150537
0.0150521
0.0150506
0.015049
0.0150475
0.0150461
0.0150446
0.0150431
0.0150417
0.0150402
0.0150388
0.0150374
0.015036
0.0150347
0.0150333
0.015032
0.0150306
0.0150293
0.015028
0.0150268
0.0150255
0.0150242
0.015023
0.0150218
0.0150206
0.0150194
0.0150182
0.015017
0.0150159
0.0150147
0.0150136
0.0150125
0.0150114
0.0150103
0.0150093
0.0150082
0.0150072
0.0150061
0.0150051
0.0150041
0.0150031
0.0150021
0.0150012
0.0150002
0.0149993
0.0149984
0.0149975
0.0149966
0.0149957
0.0149948
0.014994
0.0149931
0.0149923
0.0149914
0.0149906
0.0149898
0.014989
0.0149883
0.0149875
0.0149867
0.014986
0.0149853
0.0149845
0.0149838
0.0149831
0.0149824
0.0149817
0.0149811
0.0149804
0.0149798
0.0149791
0.0149785
0.0149779
0.0149772
0.0149766
0.014976
0.0149755
0.0149749
0.0149743
0.0149737
0.0149732
0.0149726
0.0149721
0.0149716
0.014971
0.0149705
0.01497
0.0149695
0.014969
0.0149685
0.014968
0.0149676
0.0149671
0.0149666
0.0149662
0.0149657
0.0149653
0.0149648
0.0149644
0.014964
0.0149635
0.0149631
0.0149627
0.0149623
0.0149619
0.0149615
0.0149611
0.0149607
0.0149603
0.0149599
0.0149595
0.0149591
0.0149587
0.0149584
0.014958
0.0149576
0.0149573
0.0149569
0.0149565
0.0149562
0.0149558
0.0149555
0.0149551
0.0149548
0.0149544
0.0149541
0.0149538
0.0149534
0.0149531
0.0149527
0.0149524
0.0149521
0.0149518
0.0149514
0.0149511
0.0149508
0.0149504
0.0149501
0.0149498
0.0149495
0.0149492
0.0149488
0.0149485
0.0149482
0.0149479
0.0149476
0.0149472
0.0149469
0.0149466
0.0149463
0.014946
0.0149457
0.0149454
0.014945
0.0149447
0.0149444
0.0149441
0.0149438
0.0149435
0.0149432
0.0149429
0.0149426
0.0149422
0.0149419
0.0149416
0.0149413
0.014941
0.0149407
0.0149404
0.0149401
0.0149398
0.0149395
0.0149391
0.0149388
0.0149385
0.0149382
0.0149379
0.0149376
0.0149373
0.014937
0.0149367
0.0149364
0.0149361
0.0149358
0.0149354
0.0149351
0.0149348
0.0149345
0.0149342
0.0149339
0.0149336
0.0149333
0.014933
0.0149327
0.0149324
0.014932
0.0149317
0.0149314
0.0149311
0.0149308
0.0149305
0.0149302
0.0149299
0.0149296
0.0149293
0.014929
0.0149287
0.0149283
0.014928
0.0149277
0.0149274
0.0149271
0.0149268
0.0149265
0.0149262
0.0149259
0.0149256
0.0149253
0.014925
0.0149246
0.0149243
0.014924
0.0149237
0.0149234
0.0149231
0.0149228
0.0149225
0.0149222
0.0149219
0.0149216
0.0149212
0.0149209
0.0149206
0.0149203
0.01492
0.0149197
0.0149194
0.0149191
0.0149188
0.0149185
0.0149182
0.0149179
0.0149175
0.0149172
0.0149169
0.0149166
0.0149163
0.014916
0.0149157
0.0149154
0.0149151
0.0149148
0.0149145
0.0149142
0.0149138
0.0149135
0.0149132
0.0149129
0.0149126
0.0149123
0.014912
0.0149117
0.0149114
0.0149111
0.0149108
0.0149104
0.0149101
0.0149098
0.0149095
0.0149092
0.0149089
0.0149086
0.0149083
0.014908
0.0149077
0.0149074
0.0149071
0.0149067
0.0149064
0.0149061
0.0149058
0.0149055
0.0149052
0.0149049
0.0149046
0.0149043
0.014904
0.0149037
0.0149034
0.014903
0.0149027
0.0149024
0.0149021
0.0149018
0.0149015
0.0149012
0.0149009
0.0149006
0.0149003
0.0149
0.0148997
0.0148993
0.014899
0.0148987
0.0148984
0.0148981
0.0148978
0.0148975
0.0148972
0.0148969
0.0148966
0.0148963
0.0148959
0.0148956
0.0148953
0.014895
0.0148947
0.0148944
0.0148941
0.0148938
0.0148935
0.0148932
0.0148929
0.0148926
0.0148922
0.0148919
0.0148916
0.0148913
0.014891
0.0148907
0.0148904
0.0148901
0.0148898
0.0148895
0.0148892
0.0148889
0.0148885
0.0148882
0.0148879
0.0148876
0.0148873
0.014887
0.0148867
0.0148864
0.0148861
0.0148858
0.0148855
0.0148852
0.0148848
0.0148845
0.0148842
0.0148839
0.0148836
0.0148833
0.014883
0.0148827
0.0148824
0.0148821
0.0148818
0.0148814
0.0148811
0.0148808
0.0148805
0.0148802
0.0148799
0.0148796
0.0148793
0.014879
0.0148786
0.0148783
0.014878
0.0148777
0.0148773
0.014877
0.0148767
0.0148763
0.014876
0.0148756
0.0148752
0.0148748
0.0148743
0.0148738
0.0148733
0.0148726
0.014872
0.014871
0.0148706
0.0148706
0.0148706
1
0.969192
0.495616
0.314223
0.237897
0.197396
0.172133
0.154696
0.141842
0.131928
0.124028
0.117573
0.112197
0.107646
0.103742
0.100355
0.0973866
0.0947622
0.0924234
0.0903241
0.0884274
0.0867035
0.0851281
0.0836811
0.082346
0.0811089
0.0799582
0.0788841
0.0778781
0.0769331
0.0760431
0.0752026
0.0744072
0.0736527
0.0729358
0.0722531
0.0716022
0.0709805
0.0703858
0.0698163
0.0692702
0.0687459
0.068242
0.0677572
0.0672904
0.0668405
0.0664065
0.0659874
0.0655826
0.0651912
0.0648125
0.0644458
0.0640906
0.0637463
0.0634123
0.0630882
0.0627735
0.0624678
0.0621707
0.0618818
0.0616007
0.0613271
0.0610607
0.0608012
0.0605483
0.0603018
0.0600614
0.0598269
0.059598
0.0593745
0.0591563
0.0589431
0.0587348
0.0585311
0.058332
0.0581373
0.0579468
0.0577603
0.0575778
0.0573991
0.0572241
0.0570526
0.0568846
0.05672
0.0565586
0.0564004
0.0562452
0.0560929
0.0559436
0.055797
0.0556531
0.0555119
0.0553732
0.0552371
0.0551033
0.0549719
0.0548428
0.0547159
0.0545912
0.0544686
0.054348
0.0542295
0.0541129
0.0539982
0.0538854
0.0537744
0.0536651
0.0535576
0.0534518
0.0533476
0.053245
0.053144
0.0530446
0.0529466
0.0528501
0.052755
0.0526614
0.0525691
0.0524781
0.0523885
0.0523001
0.052213
0.0521272
0.0520425
0.051959
0.0518767
0.0517955
0.0517154
0.0516364
0.0515585
0.0514816
0.0514058
0.0513309
0.0512571
0.0511842
0.0511122
0.0510412
0.0509711
0.0509019
0.0508336
0.0507662
0.0506996
0.0506338
0.0505689
0.0505048
0.0504415
0.0503789
0.0503171
0.0502561
0.0501958
0.0501363
0.0500774
0.0500193
0.0499619
0.0499051
0.049849
0.0497936
0.0497388
0.0496847
0.0496312
0.0495783
0.0495261
0.0494744
0.0494233
0.0493728
0.0493229
0.0492736
0.0492248
0.0491766
0.0491289
0.0490817
0.0490351
0.048989
0.0489434
0.0488983
0.0488537
0.0488096
0.048766
0.0487228
0.0486802
0.048638
0.0485962
0.0485549
0.0485141
0.0484737
0.0484337
0.0483942
0.048355
0.0483163
0.048278
0.0482402
0.0482027
0.0481656
0.0481289
0.0480926
0.0480567
0.0480211
0.0479859
0.0479511
0.0479167
0.0478826
0.0478489
0.0478155
0.0477825
0.0477498
0.0477174
0.0476854
0.0476537
0.0476223
0.0475913
0.0475605
0.0475301
0.0475
0.0474702
0.0474407
0.0474115
0.0473827
0.047354
0.0473257
0.0472977
0.04727
0.0472425
0.0472153
0.0471884
0.0471617
0.0471354
0.0471092
0.0470834
0.0470578
0.0470325
0.0470074
0.0469825
0.0469579
0.0469336
0.0469095
0.0468856
0.046862
0.0468386
0.0468154
0.0467925
0.0467698
0.0467473
0.0467251
0.046703
0.0466812
0.0466596
0.0466382
0.046617
0.046596
0.0465752
0.0465547
0.0465343
0.0465141
0.0464941
0.0464743
0.0464547
0.0464353
0.0464161
0.0463971
0.0463783
0.0463596
0.0463411
0.0463228
0.0463047
0.0462868
0.046269
0.0462514
0.046234
0.0462167
0.0461996
0.0461827
0.0461659
0.0461493
0.0461328
0.0461165
0.0461004
0.0460844
0.0460686
0.0460529
0.0460374
0.046022
0.0460068
0.0459917
0.0459767
0.0459619
0.0459473
0.0459327
0.0459183
0.0459041
0.04589
0.045876
0.0458621
0.0458484
0.0458348
0.0458214
0.0458081
0.0457948
0.0457818
0.0457688
0.045756
0.0457432
0.0457306
0.0457182
0.0457058
0.0456936
0.0456814
0.0456694
0.0456575
0.0456457
0.045634
0.0456224
0.045611
0.0455996
0.0455884
0.0455772
0.0455662
0.0455552
0.0455444
0.0455336
0.045523
0.0455124
0.045502
0.0454916
0.0454814
0.0454712
0.0454611
0.0454512
0.0454413
0.0454315
0.0454218
0.0454121
0.0454026
0.0453932
0.0453838
0.0453746
0.0453654
0.0453563
0.0453472
0.0453383
0.0453295
0.0453207