# vtk DataFile Version 2.0
FlowField
ASCII
DATASET STRUCTURED_GRID
DIMENSIONS 800 1 200
POINTS 160000 float
0 0 0
0.04 0 0
0.08 0 0
0.12 0 0
0.16 0 0
0.2 0 0
0.24 0 0
0.28 0 0
0.32 0 0
0.36 0 0
0.4 0 0
0.44 0 0
0.48 0 0
0.52 0 0
0.56 0 0
0.6 0 0
0.64 0 0
0.68 0 0
0.72 0 0
0.76 0 0
0.8 0 0
0.84 0 0
0.88 0 0
0.92 0 0
0.96 0 0
1 0 0
1.04 0 0
1.08 0 0
1.12 0 0
1.16 0 0
1.2 0 0
1.24 0 0
1.28 0 0
1.32 0 0
1.36 0 0
1.4 0 0
1.44 0 0
1.48 0 0
1.52 0 0
1.56 0 0
1.6 0 0
1.64 0 0
1.68 0 0
1.72 0 0
1.76 0 0
1.8 0 0
1.84 0 0
1.88 0 0
1.92 0 0
1.96 0 0
2 0 0
2.04 0 0
2.08 0 0
2.12 0 0
2.16 0 0
2.2 0 0
2.24 0 0
2.28 0 0
2.32 0 0
2.36 0 0
2.4 0 0
2.44 0 0
2.48 0 0
2.52 0 0
2.56 0 0
2.6 0 0
2.64 0 0
2.68 0 0
2.72 0 0
2.76 0 0
2.8 0 0
2.84 0 0
2.88 0 0
2.92 0 0
2.96 0 0
3 0 0
3.04 0 0
3.08 0 0
3.12 0 0
3.16 0 0
3.2 0 0
3.24 0 0
3.28 0 0
3.32 0 0
3.36 0 0
3.4 0 0
3.44 0 0
3.48 0 0
3.52 0 0
3.56 0 0
3.6 0 0
3.64 0 0
3.68 0 0
3.72 0 0
3.76 0 0
3.8 0 0
3.84 0 0
3.88 0 0
3.92 0 0
3.96 0 0
4 0 0
4.04 0 0
4.08 0 0
4.12 0 0
4.16 0 0
4.2 0 0
4.24 0 0
4.28 0 0
4.32 0 0
4.36 0 0
4.4 0 0
4.44 0 0
4.48 0 0
4.52 0 0
4.56 0 0
4.6 0 0
4.64 0 0
4.68 0 0
4.72 0 0
4.76 0 0
4.8 0 0
4.84 0 0
4.88 0 0
4.92 0 0
4.96 0 0
5 0 0
5.04 0 0
5.08 0 0
5.12 0 0
5.16 0 0
5.2 0 0
5.24 0 0
5.28 0 0
5.32 0 0
5.36 0 0
5.4 0 0
5.44 0 0
5.48 0 0
5.52 0 0
5.56 0 0
5.6 0 0
5.64 0 0
5.68 0 0
5.72 0 0
5.76 0 0
5.8 0 0
5.84 0 0
5.88 0 0
5.92 0 0
5.96 0 0
6 0 0
6.04 0 0
6.08 0 0
6.12 0 0
6.16 0 0
6.2 0 0
6.24 0 0
6.28 0 0
6.32 0 0
6.36 0 0
6.4 0 0
6.44 0 0
6.48 0 0
6.52 0 0
6.56 0 0
6.6 0 0
6.64 0 0
6.68 0 0
6.72 0 0
6.76 0 0
6.8 0 0
6.84 0 0
6.88 0 0
6.92 0 0
6.96 0 0
7 0 0
7.04 0 0
7.08 0 0
7.12 0 0
7.16 0 0
7.2 0 0
7.24 0 0
7.28 0 0
7.32 0 0
7.36 0 0
7.4 0 0
7.44 0 0
7.48 0 0
7.52 0 0
7.56 0 0
7.6 0 0
7.64 0 0
7.68 0 0
7.72 0 0
7.76 0 0
7.8 0 0
7.84 0 0
7.88 0 0
7.92 0 0
7.96 0 0
8 0 0
8.04 0 0
8.08 0 0
8.12 0 0
8.16 0 0
8.2 0 0
8.24 0 0
8.28 0 0
8.32 0 0
8.36 0 0
8.4 0 0
8.44 0 0
8.48 0 0
8.52 0 0
8.56 0 0
8.6 0 0
8.64 0 0
8.68 0 0
8.72 0 0
8.76 0 0
8.8 0 0
8.84 0 0
8.88 0 0
8.92 0 0
8.96 0 0
9 0 0
9.04 0 0
9.08 0 0
9.12 0 0
9.16 0 0
9.2 0 0
9.24 0 0
9.28 0 0
9.32 0 0
9.36 0 0
9.4 0 0
9.44 0 0
9.48 0 0
9.52 0 0
9.56 0 0
9.6 0 0
9.64 0 0
9.68 0 0
9.72 0 0
9.76 0 0
9.8 0 0
9.84 0 0
9.88 0 0
9.92 0 0
9.96 0 0
10 0 0
10.04 0 0
10.08 0 0
10.12 0 0
10.16 0 0
10.2 0 0
10.24 0 0
10.28 0 0
10.32 0 0
10.36 0 0
10.4 0 0
10.44 0 0
10.48 0 0
10.52 0 0
10.56 0 0
10.6 0 0
10.64 0 0
10.68 0 0
10.72 0 0
10.76 0 0
10.8 0 0
10.84 0 0
10.88 0 0
10.92 0 0
10.96 0 0
11 0 0
11.04 0 0
11.08 0 0
11.12 0 0
11.16 0 0
11.2 0 0
11.24 0 0
11.28 0 0
11.32 0 0
11.36 0 0
11.4 0 0
11.44 0 0
11.48 0 0
11.52 0 0
11.56 0 0
11.6 0 0
11.64 0 0
11.68 0 0
11.72 0 0
11.76 0 0
11.8 0 0
11.84 0 0
11.88 0 0
11.92 0 0
11.96 0 0
12 0 0
12.04 0 0
12.08 0 0
12.12 0 0
12.16 0 0
12.2 0 0
12.24 0 0
12.28 0 0
12.32 0 0
12.36 0 0
12.4 0 0
12.44 0 0
12.48 0 0
12.52 0 0
12.56 0 0
12.6 0 0
12.64 0 0
12.68 0 0
12.72 0 0
12.76 0 0
12.8 0 0
12.84 0 0
12.88 0 0
12.92 0 0
12.96 0 0
13 0 0
13.04 0 0
13.08 0 0
13.12 0 0
13.16 0 0
13.2 0 0
13.24 0 0
13.28 0 0
13.32 0 0
13.36 0 0
13.4 0 0
13.44 0 0
13.48 0 0
13.52 0 0
13.56 0 0
13.6 0 0
13.64 0 0
13.68 0 0
13.72 0 0
13.76 0 0
13.8 0 0
13.84 0 0
13.88 0 0
13.92 0 0
13.96 0 0
14 0 0
14.04 0 0
14.08 0 0
14.12 0 0
14.16 0 0
14.2 0 0
14.24 0 0
14.28 0 0
14.32 0 0
14.36 0 0
14.4 0 0
14.44 0 0
14.48 0 0
14.52 0 0
14.56 0 0
14.6 0 0
14.64 0 0
14.68 0 0
14.72 0 0
14.76 0 0
14.8 0 0
14.84 0 0
14.88 0 0
14.92 0 0
14.96 0 0
15 0 0
15.04 0 0
15.08 0 0
15.12 0 0
15.16 0 0
15.2 0 0
15.24 0 0
15.28 0 0
15.32 0 0
15.36 0 0
15.4 0 0
15.44 0 0
15.48 0 0
15.52 0 0
15.56 0 0
15.6 0 0
15.64 0 0
15.68 0 0
15.72 0 0
15.76 0 0
15.8 0 0
15.84 0 0
15.88 0 0
15.92 0 0
15.96 0 0
16 0 0
16.04 0 0
16.08 0 0
16.12 0 0
16.16 0 0
16.2 0 0
16.24 0 0
16.28 0 0
16.32 0 0
16.36 0 0
16.4 0 0
16.44 0 0
16.48 0 0
16.52 0 0
16.56 0 0
16.6 0 0
16.64 0 0
16.68 0 0
16.72 0 0
16.76 0 0
16.8 0 0
16.84 0 0
16.88 0 0
16.92 0 0
16.96 0 0
17 0 0
17.04 0 0
17.08 0 0
17.12 0 0
17.16 0 0
17.2 0 0
17.24 0 0
17.28 0 0
17.32 0 0
17.36 0 0
17.4 0 0
17.44 0 0
17.48 0 0
17.52 0 0
17.56 0 0
17.6 0 0
17.64 0 0
17.68 0 0
17.72 0 0
17.76 0 0
17.8 0 0
17.84 0 0
17.88 0 0
17.92 0 0
17.96 0 0
18 0 0
18.04 0 0
18.08 0 0
18.12 0 0
18.16 0 0
18.2 0 0
18.24 0 0
18.28 0 0
18.32 0 0
18.36 0 0
18.4 0 0
18.44 0 0
18.48 0 0
18.52 0 0
18.56 0 0
18.6 0 0
18.64 0 0
18.68 0 0
18.72 0 0
18.76 0 0
18.8 0 0
18.84 0 0
18.88 0 0
18.92 0 0
18.96 0 0
19 0 0
19.04 0 0
19.08 0 0
19.12 0 0
19.16 0 0
19.2 0 0
19.24 0 0
19.28 0 0
19.32 0 0
19.36 0 0
19.4 0 0
19.44 0 0
19.48 0 0
19.52 0 0
19.56 0 0
19.6 0 0
19.64 0 0
19.68 0 0
19.72 0 0
19.76 0 0
19.8 0 0
19.84 0 0
19.88 0 0
19.92 0 0
19.96 0 0
20 0 0
20.04 0 0
20.08 0 0
20.12 0 0
20.16 0 0
20.2 0 0
20.24 0 0
20.28 0 0
20.32 0 0
20.36 0 0
20.4 0 0
20.44 0 0
20.48 0 0
20.52 0 0
20.56 0 0
20.6 0 0
20.64 0 0
20.68 0 0
20.72 0 0
20.76 0 0
20.8 0 0
20.84 0 0
20.88 0 0
20.92 0 0
20.96 0 0
21 0 0
21.04 0 0
21.08 0 0
21.12 0 0
21.16 0 0
21.2 0 0
21.24 0 0
21.28 0 0
21.32 0 0
21.36 0 0
21.4 0 0
21.44 0 0
21.48 0 0
21.52 0 0
21.56 0 0
21.6 0 0
21.64 0 0
21.68 0 0
21.72 0 0
21.76 0 0
21.8 0 0
21.84 0 0
21.88 0 0
21.92 0 0
21.96 0 0
22 0 0
22.04 0 0
22.08 0 0
22.12 0 0
22.16 0 0
22.2 0 0
22.24 0 0
22.28 0 0
22.32 0 0
22.36 0 0
22.4 0 0
22.44 0 0
22.48 0 0
22.52 0 0
22.56 0 0
22.6 0 0
22.64 0 0
22.68 0 0
22.72 0 0
22.76 0 0
22.8 0 0
22.84 0 0
22.88 0 0
22.92 0 0
22.96 0 0
23 0 0
23.04 0 0
23.08 0 0
23.12 0 0
23.16 0 0
23.2 0 0
23.24 0 0
23.28 0 0
23.32 0 0
23.36 0 0
23.4 0 0
23.44 0 0
23.48 0 0
23.52 0 0
23.56 0 0
23.6 0 0
23.64 0 0
23.68 0 0
23.72 0 0
23.76 0 0
23.8 0 0
23.84 0 0
23.88 0 0
23.92 0 0
23.96 0 0
24 0 0
24.04 0 0
24.08 0 0
24.12 0 0
24.16 0 0
24.2 0 0
24.24 0 0
24.28 0 0
24.32 0 0
24.36 0 0
24.4 0 0
24.44 0 0
24.48 0 0
24.52 0 0
24.56 0 0
24.6 0 0
24.64 0 0
24.68 0 0
24.72 0 0
24.76 0 0
24.8 0 0
24.84 0 0
24.88 0 0
24.92 0 0
24.96 0 0
25 0 0
25.04 0 0
25.08 0 0
25.12 0 0
25.16 0 0
25.2 0 0
25.24 0 0
25.28 0 0
25.32 0 0
25.36 0 0
25.4 0 0
25.44 0 0
25.48 0 0
25.52 0 0
25.56 0 0
25.6 0 0
25.64 0 0
25.68 0 0
25.72 0 0
25.76 0 0
25.8 0 0
25.84 0 0
25.88 0 0
25.92 0 0
25.96 0 0
26 0 0
26.04 0 0
26.08 0 0
26.12 0 0
26.16 0 0
26.2 0 0
26.24 0 0
26.28 0 0
26.32 0 0
26.36 0 0
26.4 0 0
26.44 0 0
26.48 0 0
26.52 0 0
26.56 0 0
26.6 0 0
26.64 0 0
26.68 0 0
26.72 0 0
26.76 0 0
26.8 0 0
26.84 0 0
26.88 0 0
26.92 0 0
26.96 0 0
27 0 0
27.04 0 0
27.08 0 0
27.12 0 0
27.16 0 0
27.2 0 0
27.24 0 0
27.28 0 0
27.32 0 0
27.36 0 0
27.4 0 0
27.44 0 0
27.48 0 0
27.52 0 0
27.56 0 0
27.6 0 0
27.64 0 0
27.68 0 0
27.72 0 0
27.76 0 0
27.8 0 0
27.84 0 0
27.88 0 0
27.92 0 0
27.96 0 0
28 0 0
28.04 0 0
28.08 0 0
28.12 0 0
28.16 0 0
28.2 0 0
28.24 0 0
28.28 0 0
28.32 0 0
28.36 0 0
28.4 0 0
28.44 0 0
28.48 0 0
28.52 0 0
28.56 0 0
28.6 0 0
28.64 0 0
28.68 0 0
28.72 0 0
28.76 0 0
28.8 0 0
28.84 0 0
28.88 0 0
28.92 0 0
28.96 0 0
29 0 0
29.04 0 0
29.08 0 0
29.12 0 0
29.16 0 0
29.2 0 0
29.24 0 0
29.28 0 0
29.32 0 0
29.36 0 0
29.4 0 0
29.44 0 0
29.48 0 0
29.52 0 0
29.56 0 0
29.6 0 0
29.64 0 0
29.68 0 0
29.72 0 0
29.76 0 0
29.8 0 0
29.84 0 0
29.88 0 0
29.92 0 0
29.96 0 0
30 0 0
30.04 0 0
30.08 0 0
30.12 0 0
30.16 0 0
30.2 0 0
30.24 0 0
30.28 0 0
30.32 0 0
30.36 0 0
30.4 0 0
30.44 0 0
30.48 0 0
30.52 0 0
30.56 0 0
30.6 0 0
30.64 0 0
30.68 0 0
30.72 0 0
30.76 0 0
30.8 0 0
30.84 0 0
30.88 0 0
30.92 0 0
30.96 0 0
31 0 0
31.04 0 0
31.08 0 0
31.12 0 0
31.16 0 0
31.2 0 0
31.24 0 0
31.28 0 0
31.32 0 0
31.36 0 0
31.4 0 0
31.44 0 0
31.48 0 0
31.52 0 0
31.56 0 0
31.6 0 0
31.64 0 0
31.68 0 0
31.72 0 0
31.76 0 0
31.8 0 0
31.84 0 0
31.88 0 0
31.92 0 0
31.96 0 0
0 0.005 0
0.04 0.005 0
0.08 0.005 0
0.12 0.005 0
0.16 0.005 0
0.2 0.005 0
0.24 0.005 0
0.28 0.005 0
0.32 0.005 0
0.36 0.005 0
0.4 0.005 0
0.44 0.005 0
0.48 0.005 0
0.52 0.005 0
0.56 0.005 0
0.6 0.005 0
0.64 0.005 0
0.68 0.005 0
0.72 0.005 0
0.76 0.005 0
0.8 0.005 0
0.84 0.005 0
0.88 0.005 0
0.92 0.005 0
0.96 0.005 0
1 0.005 0
1.04 0.005 0
1.08 0.005 0
1.12 0.005 0
1.16 0.005 0
1.2 0.005 0
1.24 0.005 0
1.28 0.005 0
1.32 0.005 0
1.36 0.005 0
1.4 0.005 0
1.44 0.005 0
1.48 0.005 0
1.52 0.005 0
1.56 0.005 0
1.6 0.005 0
1.64 0.005 0
1.68 0.005 0
1.72 0.005 0
1.76 0.005 0
1.8 0.005 0
1.84 0.005 0
1.88 0.005 0
1.92 0.005 0
1.96 0.005 0
2 0.005 0
2.04 0.005 0
2.08 0.005 0
2.12 0.005 0
2.16 0.005 0
2.2 0.005 0
2.24 0.005 0
2.28 0.005 0
2.32 0.005 0
2.36 0.005 0
2.4 0.005 0
2.44 0.005 0
2.48 0.005 0
2.52 0.005 0
2.56 0.005 0
2.6 0.005 0
2.64 0.005 0
2.68 0.005 0
2.72 0.005 0
2.76 0.005 0
2.8 0.005 0
2.84 0.005 0
2.88 0.005 0
2.92 0.005 0
2.96 0.005 0
3 0.005 0
3.04 0.005 0
3.08 0.005 0
3.12 0.005 0
3.16 0.005 0
3.2 0.005 0
3.24 0.005 0
3.28 0.005 0
3.32 0.005 0
3.36 0.005 0
3.4 0.005 0
3.44 0.005 0
3.48 0.005 0
3.52 0.005 0
3.56 0.005 0
3.6 0.005 0
3.64 0.005 0
3.68 0.005 0
3.72 0.005 0
3.76 0.005 0
3.8 0.005 0
3.84 0.005 0
3.88 0.005 0
3.92 0.005 0
3.96 0.005 0
4 0.005 0
4.04 0.005 0
4.08 0.005 0
4.12 0.005 0
4.16 0.005 0
4.2 0.005 0
4.24 0.005 0
4.28 0.005 0
4.32 0.005 0
4.36 0.005 0
4.4 0.005 0
4.44 0.005 0
4.48 0.005 0
4.52 0.005 0
4.56 0.005 0
4.6 0.005 0
4.64 0.005 0
4.68 0.005 0
4.72 0.005 0
4.76 0.005 0
4.8 0.005 0
4.84 0.005 0
4.88 0.005 0
4.92 0.005 0
4.96 0.005 0
5 0.005 0
5.04 0.005 0
5.08 0.005 0
5.12 0.005 0
5.16 0.005 0
5.2 0.005 0
5.24 0.005 0
5.28 0.005 0
5.32 0.005 0
5.36 0.005 0
5.4 0.005 0
5.44 0.005 0
5.48 0.005 0
5.52 0.005 0
5.56 0.005 0
5.6 0.005 0
5.64 0.005 0
5.68 0.005 0
5.72 0.005 0
5.76 0.005 0
5.8 0.005 0
5.84 0.005 0
5.88 0.005 0
5.92 0.005 0
5.96 0.005 0
6 0.005 0
6.04 0.005 0
6.08 0.005 0
6.12 0.005 0
6.16 0.005 0
6.2 0.005 0
6.24 0.005 0
6.28 0.005 0
6.32 0.005 0
6.36 0.005 0
6.4 0.005 0
6.44 0.005 0
6.48 0.005 0
6.52 0.005 0
6.56 0.005 0
6.6 0.005 0
6.64 0.005 0
6.68 0.005 0
6.72 0.005 0
6.76 0.005 0
6.8 0.005 0
6.84 0.005 0
6.88 0.005 0
6.92 0.005 0
6.96 0.005 0
7 0.005 0
7.04 0.005 0
7.08 0.005 0
7.12 0.005 0
7.16 0.005 0
7.2 0.005 0
7.24 0.005 0
7.28 0.005 0
7.32 0.005 0
7.36 0.005 0
7.4 0.005 0
[...]
POINT_DATA 160000

SCALARS p float 1
LOOKUP_TABLE default
1
51.4301
49.2146
48.9598
48.8996
48.8732
48.8572
48.8456
48.8363
48.8285
48.8215
48.8152
48.8093
48.8037
48.7984
48.7933
48.7884
48.7835
48.7788
48.7742
48.7697
48.7652
48.7608
48.7565
48.7522
48.748
48.7438
48.7397
48.7356
48.7316
48.7277
48.7238
48.7199
48.716
48.7123
48.7085
48.7048
48.7011
48.6975
48.6939
48.6903
48.6868
48.6833
48.6799
48.6764
48.673
48.6697
48.6663
48.663
48.6597
48.6565
48.6533
48.6501
48.6469
48.6437
48.6406
48.6375
48.6344
48.6314
48.6283
48.6253
48.6223
48.6194
48.6164
48.6135
48.6106
48.6077
48.6048
48.6019
48.5991
48.5963
48.5935
48.5907
48.5879
48.5852
48.5824
48.5797
48.577
48.5743
48.5716
48.5689
48.5663
48.5636
48.561
48.5584
48.5558
48.5532
48.5506
48.548
48.5455
48.5429
48.5404
48.5379
48.5354
48.5329
48.5304
48.5279
48.5255
48.523
48.5206
48.5181
48.5157
48.5133
48.5109
48.5085
48.5061
48.5037
48.5013
48.499
48.4966
48.4943
48.4919
48.4896
48.4873
48.485
48.4827
48.4804
48.4781
48.4758
48.4736
48.4713
48.469
48.4668
48.4645
48.4623
48.4601
48.4579
48.4556
48.4534
48.4512
48.449
48.4469
48.4447
48.4425
48.4403
48.4382
48.436
48.4339
48.4317
48.4296
48.4275
48.4253
48.4232
48.4211
48.419
48.4169
48.4148
48.4127
48.4106
48.4085
48.4064
48.4044
48.4023
48.4002
48.3982
48.3961
48.3941
48.392
48.39
48.388
48.3859
48.3839
48.3819
48.3799
48.3779
48.3759
48.3739
48.3719
48.3699
48.3679
48.3659
48.3639
48.362
48.36
48.358
48.3561
48.3541
48.3521
48.3502
48.3482
48.3463
48.3444
48.3424
48.3405
48.3386
48.3366
48.3347
48.3328
48.3309
48.329
48.3271
48.3252
48.3232
48.3214
48.3195
48.3176
48.3157
48.3138
48.3119
48.31
48.3082
48.3063
48.3044
48.3025
48.3007
48.2988
48.297
48.2951
48.2933
48.2914
48.2896
48.2877
48.2859
48.284
48.2822
48.2804
48.2785
48.2767
48.2749
48.2731
48.2713
48.2694
48.2676
48.2658
48.264
48.2622
48.2604
48.2586
48.2568
48.255
48.2532
48.2514
48.2496
48.2478
48.246
48.2443
48.2425
48.2407
48.2389
48.2371
48.2354
48.2336
48.2318
48.2301
48.2283
48.2265
48.2248
48.223
48.2213
48.2195
48.2178
48.216
48.2143
48.2125
48.2108
48.209
48.2073
48.2055
48.2038
48.2021
48.2003
48.1986
48.1969
48.1951
48.1934
48.1917
48.19
48.1882
48.1865
48.1848
48.1831
48.1814
48.1796
48.1779
48.1762
48.1745
48.1728
48.1711
48.1694
48.1677
48.166
48.1643
48.1626
48.1609
48.1592
48.1575
48.1558
48.1541
48.1524
48.1507
48.149
48.1473
48.1456
48.144
48.1423
48.1406
48.1389
48.1372
48.1356
48.1339
48.1322
48.1305
48.1288
48.1272
48.1255
48.1238
48.1222
48.1205
48.1188
48.1172
48.1155
48.1138
48.1122
48.1105
48.1088
48.1072
48.1055
48.1039
48.1022
48.1005
48.0989
48.0972
48.0956
48.0939
48.0923
48.0906
48.089
48.0873
48.0857
48.084
48.0824
48.0807
48.0791
48.0775
48.0758
48.0742
48.0725
48.0709
48.0692
48.0676
48.066
48.0643
48.0627
48.0611
48.0594
48.0578
48.0562
48.0545
48.0529
48.0513
48.0496
48.048
48.0464
48.0448
48.0431
48.0415
48.0399
48.0383
48.0366
48.035
48.0334
48.0318
48.0301
48.0285
48.0269
48.0253
48.0237
48.022
48.0204
48.0188
48.0172
48.0156
48.014
48.0123
48.0107
48.0091
48.0075
48.0059
48.0043
48.0027
48.0011
47.9994
47.9978
47.9962
47.9946
47.993
47.9914
47.9898
47.9882
47.9866
47.985
47.9834
47.9818
47.9802
47.9786
47.977
47.9754
47.9737
47.9721
47.9705
47.9689
47.9673
47.9657
47.9641
47.9625
47.9609
47.9594
47.9578
47.9562
47.9546
47.953
47.9514
47.9498
47.9482
47.9466
47.945
47.9434
47.9418
47.9402
47.9386
47.937
47.9354
47.9338
47.9322
47.9307
47.9291
47.9275
47.9259
47.9243
47.9227
47.9211
47.9195
47.9179
47.9164
47.9148
47.9132
47.9116
47.91
47.9084
47.9068
47.9052
47.9037
47.9021
47.9005
47.8989
47.8973
47.8957
47.8942
47.8926
47.891
47.8894
47.8878
47.8862
47.8847
47.8831
47.8815
47.8799
47.8783
47.8768
47.8752
47.8736
47.872
47.8704
47.8689
47.8673
47.8657
47.8641
47.8626
47.861
47.8594
47.8578
47.8562
47.8547
47.8531
47.8515
47.8499
47.8484
47.8468
47.8452
47.8436
47.8421
47.8405
47.8389
47.8373
47.8358
47.8342
47.8326
47.831
47.8295
47.8279
47.8263
47.8248
47.8232
47.8216
47.82
47.8185
47.8169
47.8153
47.8138
47.8122
47.8106
47.809
47.8075
47.8059
47.8043
47.8028
47.8012
47.7996
47.7981
47.7965
47.7949
47.7933
47.7918
47.7902
47.7886
47.7871
47.7855
47.7839
47.7824
47.7808
47.7792
47.7777
47.7761
47.7745
47.773
47.7714
47.7698
47.7683
47.7667
47.7651
47.7636
47.762
47.7604
47.7589
47.7573
47.7557
47.7542
47.7526
47.751
47.7495
47.7479
47.7464
47.7448
47.7432
47.7417
47.7401
47.7385
47.737
47.7354
47.7338
47.7323
47.7307
47.7292
47.7276
47.726
47.7245
47.7229
47.7213
47.7198
47.7182
47.7167
47.7151
47.7135
47.712
47.7104
47.7088
47.7073
47.7057
47.7042
47.7026
47.701
47.6995
47.6979
47.6964
47.6948
47.6932
47.6917
47.6901
47.6886
47.687
47.6854
47.6839
47.6823
47.6808
47.6792
47.6776
47.6761
47.6745
47.673
47.6714
47.6698
47.6683
47.6667
47.6652
47.6636
47.6621
47.6605
47.6589
47.6574
47.6558
47.6543
47.6527
47.6512
47.6496
47.648
47.6465
47.6449
47.6434
47.6418
47.6402
47.6387
47.6371
47.6356
47.634
47.6325
47.6309
47.6294
47.6278
47.6262
47.6247
47.6231
47.6216
47.62
47.6185
47.6169
47.6153
47.6138
47.6122
47.6107
47.6091
47.6076
47.606
47.6045
47.6029
47.6013
47.5998
47.5982
47.5967
47.5951
47.5936
47.592
47.5905
47.5889
47.5874
47.5858
47.5842
47.5827
47.5811
47.5796
47.578
47.5765
47.5749
47.5734
47.5718
47.5703
47.5687
47.5672
47.5656
47.564
47.5625
47.5609
47.5594
47.5578
47.5563
47.5547
47.5532
47.5516
47.5501
47.5485
47.547
47.5454
47.5439
47.5423
47.5408
47.5392
47.5377
47.5361
47.5345
47.533
47.5314
47.5299
47.5283
47.5268
47.5252
47.5237
47.5221
47.5206
47.519
47.5175
47.5159
47.5144
47.5128
47.5113
47.5097
47.5082
47.5066
47.5051
47.5035
47.502
47.5004
47.4989
47.4973
47.4958
47.4942
47.4927
47.4911
47.4896
47.488
47.4865
47.4849
47.4834
47.4818
47.4803
47.4787
47.4772
47.4756
47.4741
47.4725
47.471
47.4694
47.4679
47.4663
47.4648
47.4632
47.4617
47.4601
47.4586
47.457
47.4555
47.4539
47.4524
47.4508
47.4493
47.4477
47.4462
47.4446
47.4431
47.4415
47.44
47.4384
47.4369
47.4353
47.4338
47.4322
47.4307
47.4291
47.4276
47.426
47.4245
47.4229
47.4214
47.4198
47.4183
47.4167
47.4152
47.4136
47.4121
47.4105
47.409
47.4075
47.4059
47.4044
47.4028
47.4013
47.3997
47.3982
47.3966
47.3951
47.3935
47.392
47.3904
47.3889
47.3873
47.3858
47.3842
47.3827
47.3811
47.3796
47.378
47.3765
47.375
47.3734
47.3719
47.3703
47.3688
47.3672
47.3657
47.3641
47.3626
47.361
47.3595
47.3579
47.3564
47.3548
47.3533
47.3517
47.3502
47.3487
47.3471
1
51.4301
51.4301
49.2146
48.9598
48.8996
48.8732
48.8572
48.8456
48.8363
48.8285
48.8215
48.8152
48.8093
48.8037
48.7984
48.7933
48.7884
48.7835
48.7788
48.7742
48.7697
48.7652
48.7608
48.7565
48.7522
48.748
48.7438
48.7397
48.7356
48.7316
48.7277
48.7238
48.7199
48.716
48.7123
48.7085
48.7048
48.7011
48.6975
48.6939
48.6903
48.6868
48.6833
48.6799
48.6764
48.673
48.6697
48.6663
48.663
48.6597
48.6565
48.6533
48.6501
48.6469
48.6437
48.6406
48.6375
48.6344
48.6314
48.6283
48.6253
48.6223
48.6194
48.6164
48.6135
48.6106
48.6077
48.6048
48.6019
48.5991
48.5963
48.5935
48.5907
48.5879
48.5852
48.5824
48.5797
48.577
48.5743
48.5716
48.5689
48.5663
48.5636
48.561
48.5584
48.5558
48.5532
48.5506
48.548
48.5455
48.5429
48.5404
48.5379
48.5354
48.5329
48.5304
48.5279
48.5255
48.523
48.5206
48.5181
48.5157
48.5133
48.5109
48.5085
48.5061
48.5037
48.5013
48.499
48.4966
48.4943
48.4919
48.4896
48.4873
48.485
48.4827
48.4804
48.4781
48.4758
48.4736
48.4713
48.469
48.4668
48.4645
48.4623
48.4601
48.4579
48.4556
48.4534
48.4512
48.449
48.4469
48.4447
48.4425
48.4403
48.4382
48.436
48.4339
48.4317
48.4296
48.4275
48.4253
48.4232
48.4211
48.419
48.4169
48.4148
48.4127
48.4106
48.4085
48.4064
48.4044
48.4023
48.4002
48.3982
48.3961
48.3941
48.392
48.39
48.388
48.3859
48.3839
48.3819
48.3799
48.3779
48.3759
48.3739
48.3719
48.3699
48.3679
48.3659
48.3639
48.362
48.36
48.358
48.3561
48.3541
48.3521
48.3502
48.3482
48.3463
48.3444
48.3424
48.3405
48.3386
48.3366
48.3347
48.3328
48.3309
48.329
48.3271
48.3252
48.3232
48.3214
48.3195
48.3176
48.3157
48.3138
48.3119
48.31
48.3082
48.3063
48.3044
48.3025
48.3007
48.2988
48.297
48.2951
48.2933
48.2914
48.2896
48.2877
48.2859
48.284
48.2822
48.2804
48.2785
48.2767
48.2749
48.2731
48.2713
48.2694
48.2676
48.2658
48.264
48.2622
48.2604
48.2586
48.2568
48.255
48.2532
48.2514
48.2496
48.2478
48.246
48.2443
48.2425
48.2407
48.2389
48.2371
48.2354
48.2336
48.2318
48.2301
48.2283
48.2265
48.2248
48.223
48.2213
48.2195
48.2178
48.216
48.2143
48.2125
48.2108
48.209
48.2073
48.2055
48.2038
48.2021
48.2003
48.1986
48.1969
48.1951
48.1934
48.1917
48.19
48.1882
48.1865
48.1848
48.1831
48.1814
48.1796
48.1779
48.1762
48.1745
48.1728
48.1711
48.1694
48.1677
48.166
48.1643
48.1626
48.1609
48.1592
48.1575
48.1558
48.1541
48.1524
48.1507
48.149
48.1473
48.1456
48.144
48.1423
48.1406
48.1389
48.1372
48.1356
48.1339
48.1322
48.1305
48.1288
48.1272
48.1255
48.1238
48.1222
48.1205
48.1188
48.1172
48.1155
48.1138
48.1122
48.1105
48.1088
48.1072
48.1055
48.1039
48.1022
48.1005
48.0989
48.0972
48.0956
48.0939
48.0923
48.0906
48.089
48.0873
48.0857
48.084
48.0824
48.0807
48.0791
48.0775
48.0758
48.0742
48.0725
48.0709
48.0692
48.0676
48.066
48.0643
48.0627
48.0611
48.0594
48.0578
48.0562
48.0545
48.0529
48.0513
48.0496
48.048
48.0464
48.0448
48.0431
48.0415
48.0399
48.0383
48.0366
48.035
48.0334
48.0318
48.0301
48.0285
48.0269
48.0253
48.0237
48.022
48.0204
48.0188
48.0172
48.0156
48.014
48.0123
48.0107
48.0091
48.0075
48.0059
48.0043
48.0027
48.0011
47.9994
47.9978
47.9962
47.9946
47.993
47.9914
47.9898
47.9882
47.9866
47.985
47.9834
47.9818
47.9802
47.9786
47.977
47.9754
47.9737
47.9721
47.9705
47.9689
47.9673
47.9657
47.9641
47.9625
47.9609
47.9594
47.9578
47.9562
47.9546
47.953
47.9514
47.9498
47.9482
47.9466
47.945
47.9434
47.9418
47.9402
47.9386
47.937
47.9354
47.9338
47.9322
47.9307
47.9291
47.9275
47.9259
47.9243
47.9227
47.9211
47.9195
47.9179
47.9164
47.9148
47.9132
47.9116
47.91
47.9084
47.9068
47.9052
47.9037
47.9021
47.9005
47.8989
47.8973
47.8957
47.8942
47.8926
47.891
47.8894
47.8878
47.8862
47.8847
47.8831
47.8815
47.8799
47.8783
47.8768
47.8752
47.8736
47.872
47.8704
47.8689
47.8673
47.8657
47.8641
47.8626
47.861
47.8594
47.8578
47.8562
47.8547
47.8531
47.8515
47.8499
47.8484
47.8468
47.8452
47.8436
47.8421
47.8405
47.8389
47.8373
47.8358
47.8342
47.8326
47.831
47.8295
47.8279
47.8263
47.8248
47.8232
47.8216
47.82
47.8185
47.8169
47.8153
47.8138
47.8122
47.8106
47.809
47.8075
47.8059
47.8043
47.8028
47.8012
47.7996
47.7981
47.7965
47.7949
47.7933
47.7918
47.7902
47.7886
47.7871
47.7855
47.7839
47.7824
47.7808
47.7792
47.7777
47.7761
47.7745
47.773
47.7714
47.7698
47.7683
47.7667
47.7651
47.7636
47.762
47.7604
47.7589
47.7573
47.7557
47.7542
47.7526
47.751
47.7495
47.7479
47.7464
47.7448
47.7432
47.7417
47.7401
47.7385
47.737
47.7354
47.7338
47.7323
47.7307
47.7292
47.7276
47.726
47.7245
47.7229
47.7213
47.7198
47.7182
47.7167
47.7151
47.7135
47.712
47.7104
47.7088
47.7073
47.7057
47.7042
47.7026
47.701
47.6995
47.6979
47.6964
47.6948
47.6932
47.6917
47.6901
47.6886
47.687
47.6854
47.6839
47.6823
47.6808
47.6792
47.6776
47.6761
47.6745
47.673
47.6714
47.6698
47.6683
47.6667
47.6652
47.6636
47.6621
47.6605
47.6589
47.6574
47.6558
47.6543
47.6527
47.6512
47.6496
47.648
47.6465
47.6449
47.6434
47.6418
47.6402
47.6387
47.6371
47.6356
47.634
47.6325
47.6309
47.6294
47.6278
47.6262
47.6247
47.6231
47.6216
47.62
47.6185
47.6169
47.6153
47.6138
47.6122
47.6107
47.6091
47.6076
47.606
47.6045
47.6029
47.6013
47.5998
47.5982
47.5967
47.5951
47.5936
47.592
47.5905
47.5889
47.5874
47.5858
47.5842
47.5827
47.5811
47.5796
47.578
47.5765
47.5749
47.5734
47.5718
47.5703
47.5687
47.5672
47.5656
47.564
47.5625
47.5609
47.5594
47.5578
47.5563
47.5547
47.5532
47.5516
47.5501
47.5485
47.547
47.5454
47.5439
47.5423
47.5408
47.5392
47.5377
47.5361
47.5345
47.533
47.5314
47.5299
47.5283
47.5268
47.5252
47.5237
47.5221
47.5206
47.519
47.5175
47.5159
47.5144
47.5128
47.5113
47.5097
47.5082
47.5066
47.5051
47.5035
47.502
47.5004
47.4989
47.4973
47.4958
47.4942
47.4927
47.4911
47.4896
47.488
47.4865
47.4849
47.4834
47.4818
47.4803
47.4787
47.4772
47.4756
47.4741
47.4725
47.471
47.4694
47.4679
47.4663
47.4648
47.4632
47.4617
47.4601
47.4586
47.457
47.4555
47.4539
47.4524
47.4508
47.4493
47.4477
47.4462
47.4446
47.4431
47.4415
47.44
47.4384
47.4369
47.4353
47.4338
47.4322
47.4307
47.4291
47.4276
47.426
47.4245
47.4229
47.4214
47.4198
47.4183
47.4167
47.4152
47.4136
47.4121
47.4105
47.409
47.4075
47.4059
47.4044
47.4028
47.4013
47.3997
47.3982
47.3966
47.3951
47.3935
47.392
47.3904
47.3889
47.3873
47.3858
47.3842
47.3827
47.3811
47.3796
47.378
47.3765
47.375
47.3734
47.3719
47.3703
47.3688
47.3672
47.3657
47.3641
47.3626
47.361
47.3595
47.3579
47.3564
47.3548
47.3533
47.3517
47.3502
47.3487
47.3471
47.3471
50.7831
50.7831
49.225
48.9693
48.9038
48.8754
48.8586
48.8465
48.837
48.829
48.822
48.8156
48.8096
48.804
48.7987
48.7935
48.7885
48.7837
48.779
48.7743
48.7698
48.7653
48.7609
48.7566
48.7523
48.7481
48.7439
48.7398
48.7357
48.7317
48.7277
48.7238
48.7199
48.7161
48.7123
48.7085
48.7048
48.7012
48.6975
48.6939
48.6904
48.6868
48.6833
48.6799
48.6765
48.6731
48.6697
48.6664
48.663
48.6598
48.6565
48.6533
48.6501
48.6469
48.6438
48.6406
48.6375
48.6345
48.6314
48.6284
48.6254
48.6224
48.6194
48.6164
48.6135
48.6106
48.6077
48.6048
48.602
48.5991
48.5963
48.5935
48.5907
48.5879
48.5852
48.5824
48.5797
48.577
48.5743
48.5716
48.5689
48.5663
48.5636
48.561
48.5584
48.5558
48.5532
48.5506
48.5481
48.5455
48.543
48.5404
48.5379
48.5354
48.5329
48.5304
48.5279
48.5255
48.523
48.5206
48.5181
48.5157
48.5133
48.5109
48.5085
48.5061
48.5037
48.5013
48.499
48.4966
48.4943
48.492
48.4896
48.4873
48.485
48.4827
48.4804
48.4781
48.4758
48.4736
48.4713
48.469
48.4668
48.4646
48.4623
48.4601
48.4579
48.4557
48.4534
48.4512
48.4491
48.4469
48.4447
48.4425
48.4403
48.4382
48.436
48.4339
48.4317
48.4296
48.4275
48.4253
48.4232
48.4211
48.419
48.4169
48.4148
48.4127
48.4106
48.4085
48.4064
48.4044
48.4023
48.4002
48.3982
48.3961
48.3941
48.392
48.39
48.388
48.386
48.3839
48.3819
48.3799
48.3779
48.3759
48.3739
48.3719
48.3699
48.3679
48.3659
48.3639
48.362
48.36
48.358
48.3561
48.3541
48.3521
48.3502
48.3482
48.3463
48.3444
48.3424
48.3405
48.3386
48.3366
48.3347
48.3328
48.3309
48.329
48.3271
48.3252
48.3233
48.3214
48.3195
48.3176
48.3157
48.3138
48.3119
48.31
48.3082
48.3063
48.3044
48.3026
48.3007
48.2988
48.297
48.2951
48.2933
48.2914
48.2896
48.2877
48.2859
48.284
48.2822
48.2804
48.2786
48.2767
48.2749
48.2731
48.2713
48.2694
48.2676
48.2658
48.264
48.2622
48.2604
48.2586
48.2568
48.255
48.2532
48.2514
48.2496
48.2478
48.246
48.2443
48.2425
48.2407
48.2389
48.2371
48.2354
48.2336
48.2318
48.2301
48.2283
48.2265
48.2248
48.223
48.2213
48.2195
48.2178
48.216
48.2143
48.2125
48.2108
48.209
48.2073
48.2055
48.2038
48.2021
48.2003
48.1986
48.1969
48.1951
48.1934
48.1917
48.19
48.1882
48.1865
48.1848
48.1831
48.1814
48.1796
48.1779
48.1762
48.1745
48.1728
48.1711
48.1694
48.1677
48.166
48.1643
48.1626
48.1609
48.1592
48.1575
48.1558
48.1541
48.1524
48.1507
48.149
48.1473
48.1457
48.144
48.1423
48.1406
48.1389
48.1372
48.1356
48.1339
48.1322
48.1305
48.1289
48.1272
48.1255
48.1238
48.1222
48.1205
48.1188
48.1172
48.1155
48.1138
48.1122
48.1105
48.1088
48.1072
48.1055
48.1039
48.1022
48.1005
48.0989
48.0972
48.0956
48.0939
48.0923
48.0906
48.089
48.0873
48.0857
48.084
48.0824
48.0807
48.0791
48.0775
48.0758
48.0742
48.0725
48.0709
48.0693
48.0676
48.066
48.0643
48.0627
48.0611
48.0594
48.0578
48.0562
48.0545
48.0529
48.0513
48.0496
48.048
48.0464
48.0448
48.0431
48.0415
48.0399
48.0383
48.0366
48.035
48.0334
48.0318
48.0301
48.0285
48.0269
48.0253
48.0237
48.022
48.0204
48.0188
48.0172
48.0156
48.014
48.0123
48.0107
48.0091
48.0075
48.0059
48.0043
48.0027
48.0011
47.9994
47.9978
47.9962
47.9946
47.993
47.9914
47.9898
47.9882
47.9866
47.985
47.9834
47.9818
47.9802
47.9786
47.977
47.9754
47.9738
47.9722
47.9706
47.9689
47.9673
47.9657
47.9642
47.9626
47.961
47.9594
47.9578
47.9562
47.9546
47.953
47.9514
47.9498
47.9482
47.9466
47.945
47.9434
47.9418
47.9402
47.9386
47.937
47.9354
47.9338
47.9323
47.9307
47.9291
47.9275
47.9259
47.9243
47.9227
47.9211
47.9195
47.9179
47.9164
47.9148
47.9132
47.9116
47.91
47.9084
47.9068
47.9053
47.9037
47.9021
47.9005
47.8989
47.8973
47.8957
47.8942
47.8926
47.891
47.8894
47.8878
47.8863
47.8847
47.8831
47.8815
47.8799
47.8783
47.8768
47.8752
47.8736
47.872
47.8704
47.8689
47.8673
47.8657
47.8641
47.8626
47.861
47.8594
47.8578
47.8562
47.8547
47.8531
47.8515
47.8499
47.8484
47.8468
47.8452
47.8436
47.8421
47.8405
47.8389
47.8373
47.8358
47.8342
47.8326
47.831
47.8295
47.8279
47.8263
47.8248
47.8232
47.8216
47.82
47.8185
47.8169
47.8153
47.8138
47.8122
47.8106
47.809
47.8075
47.8059
47.8043
47.8028
47.8012
47.7996
47.7981
47.7965
47.7949
47.7933
47.7918
47.7902
47.7886
47.7871
47.7855
47.7839
47.7824
47.7808
47.7792
47.7777
47.7761
47.7745
47.773
47.7714
47.7698
47.7683
47.7667
47.7651
47.7636
47.762
47.7604
47.7589
47.7573
47.7557
47.7542
47.7526
47.751
47.7495
47.7479
47.7464
47.7448
47.7432
47.7417
47.7401
47.7385
47.737
47.7354
47.7338
47.7323
47.7307
47.7292
47.7276
47.726
47.7245
47.7229
47.7213
47.7198
47.7182
47.7167
47.7151
47.7135
47.712
47.7104
47.7089
47.7073
47.7057
47.7042
47.7026
47.701
47.6995
47.6979
47.6964
47.6948
47.6932
47.6917
47.6901
47.6886
47.687
47.6854
47.6839
47.6823
47.6808
47.6792
47.6776
47.6761
47.6745
47.673
47.6714
47.6699
47.6683
47.6667
47.6652
47.6636
47.6621
47.6605
47.6589
47.6574
47.6558
47.6543
47.6527
47.6512
47.6496
47.648
47.6465
47.6449
47.6434
47.6418
47.6403
47.6387
47.6371
47.6356
47.634
47.6325
47.6309
47.6294
47.6278
47.6262
47.6247
47.6231
47.6216
47.62
47.6185
47.6169
47.6154
47.6138
47.6122
47.6107
47.6091
47.6076
47.606
47.6045
47.6029
47.6014
47.5998
47.5982
47.5967
47.5951
47.5936
47.592
47.5905
47.5889
47.5874
47.5858
47.5843
47.5827
47.5811
47.5796
47.578
47.5765
47.5749
47.5734
47.5718
47.5703
47.5687
47.5672
47.5656
47.5641
47.5625
47.5609
47.5594
47.5578
47.5563
47.5547
47.5532
47.5516
47.5501
47.5485
47.547
47.5454
47.5439
47.5423
47.5408
47.5392
47.5377
47.5361
47.5346
47.533
47.5314
47.5299
47.5283
47.5268
47.5252
47.5237
47.5221
47.5206
47.519
47.5175
47.5159
47.5144
47.5128
47.5113
47.5097
47.5082
47.5066
47.5051
47.5035
47.502
47.5004
47.4989
47.4973
47.4958
47.4942
47.4927
47.4911
47.4896
47.488
47.4865
47.4849
47.4834
47.4818
47.4803
47.4787
47.4772
47.4756
47.4741
47.4725
47.471
47.4694
47.4679
47.4663
47.4648
47.4632
47.4617
47.4601
47.4586
47.457
47.4555
47.4539
47.4524
47.4508
47.4493
47.4477
47.4462
47.4446
47.4431
47.4415
47.44
47.4384
47.4369
47.4353
47.4338
47.4322
47.4307
47.4291
47.4276
47.426
47.4245
47.4229
47.4214
47.4198
47.4183
47.4167
47.4152
47.4136
47.4121
47.4106
47.409
47.4075
47.4059
47.4044
47.4028
47.4013
47.3997
47.3982
47.3966
47.3951
47.3935
47.392
47.3904
47.3889
47.3873
47.3858
47.3842
47.3827
47.3811
47.3796
47.378
47.3765
47.375
47.3734
47.3719
47.3703
47.3688
47.3672
47.3657
47.3641
47.3626
47.361
47.3595
47.3579
47.3564
47.3548
47.3533
47.3518
47.3502
47.3487
47.3471
47.3471
50.0936
50.0936
49.2092
48.976
48.9074
48.8775
48.8599
48.8475
48.8377
48.8296
48.8224
48.8159
48.8099
48.8043
48.7989
48.7937
48.7887
48.7838
48.7791
48.7744
48.7699
48.7654
48.761
48.7566
48.7523
48.7481
48.744
48.7398
48.7358
48.7317
48.7278
48.7238
48.72
48.7161
48.7123
48.7086
48.7049
48.7012
48.6976
48.694
48.6904
48.6869
48.6834
48.6799
48.6765
48.6731
48.6697
48.6664
48.6631
48.6598
48.6565
48.6533
48.6501
48.6469
48.6438
48.6407
48.6376
48.6345
48.6314
48.6284
48.6254
48.6224
48.6194
48.6165
48.6135
48.6106
48.6077
48.6048
48.602
48.5991
48.5963
48.5935
48.5907
48.5879
48.5852
48.5824
48.5797
48.577
48.5743
48.5716
48.5689
48.5663
48.5636
48.561
48.5584
48.5558
48.5532
48.5506
48.5481
48.5455
48.543
48.5404
48.5379
48.5354
48.5329
48.5304
48.5279
48.5255
48.523
48.5206
48.5181
48.5157
48.5133
48.5109
48.5085
48.5061
48.5037
48.5014
48.499
48.4966
48.4943
48.492
48.4896
48.4873
48.485
48.4827
48.4804
48.4781
48.4758
48.4736
48.4713
48.4691
48.4668
48.4646
48.4623
48.4601
48.4579
48.4557
48.4535
48.4513
48.4491