# vtk DataFile Version 2.0
FlowField
ASCII
DATASET STRUCTURED_GRID
DIMENSIONS 800 1 200
POINTS 160000 float
0 0 0
0.04 0 0
0.08 0 0
0.12 0 0
0.16 0 0
0.2 0 0
0.24 0 0
0.28 0 0
0.32 0 0
0.36 0 0
0.4 0 0
0.44 0 0
0.48 0 0
0.52 0 0
0.56 0 0
0.6 0 0
0.64 0 0
0.68 0 0
0.72 0 0
0.76 0 0
0.8 0 0
0.84 0 0
0.88 0 0
0.92 0 0
0.96 0 0
1 0 0
1.04 0 0
1.08 0 0
1.12 0 0
1.16 0 0
1.2 0 0
1.24 0 0
1.28 0 0
1.32 0 0
1.36 0 0
1.4 0 0
1.44 0 0
1.48 0 0
1.52 0 0
1.56 0 0
1.6 0 0
1.64 0 0
1.68 0 0
1.72 0 0
1.76 0 0
1.8 0 0
1.84 0 0
1.88 0 0
1.92 0 0
1.96 0 0
2 0 0
2.04 0 0
2.08 0 0
2.12 0 0
2.16 0 0
2.2 0 0
2.24 0 0
2.28 0 0
2.32 0 0
2.36 0 0
2.4 0 0
2.44 0 0
2.48 0 0
2.52 0 0
2.56 0 0
2.6 0 0
2.64 0 0
2.68 0 0
2.72 0 0
2.76 0 0
2.8 0 0
2.84 0 0
2.88 0 0
2.92 0 0
2.96 0 0
3 0 0
3.04 0 0
3.08 0 0
3.12 0 0
3.16 0 0
3.2 0 0
3.24 0 0
3.28 0 0
3.32 0 0
3.36 0 0
3.4 0 0
3.44 0 0
3.48 0 0
3.52 0 0
3.56 0 0
3.6 0 0
3.64 0 0
3.68 0 0
3.72 0 0
3.76 0 0
3.8 0 0
3.84 0 0
3.88 0 0
3.92 0 0
3.96 0 0
4 0 0
4.04 0 0
4.08 0 0
4.12 0 0
4.16 0 0
4.2 0 0
4.24 0 0
4.28 0 0
4.32 0 0
4.36 0 0
4.4 0 0
4.44 0 0
4.48 0 0
4.52 0 0
4.56 0 0
4.6 0 0
4.64 0 0
4.68 0 0
4.72 0 0
4.76 0 0
4.8 0 0
4.84 0 0
4.88 0 0
4.92 0 0
4.96 0 0
5 0 0
5.04 0 0
5.08 0 0
5.12 0 0
5.16 0 0
5.2 0 0
5.24 0 0
5.28 0 0
5.32 0 0
5.36 0 0
5.4 0 0
5.44 0 0
5.48 0 0
5.52 0 0
5.56 0 0
5.6 0 0
5.64 0 0
5.68 0 0
5.72 0 0
5.76 0 0
5.8 0 0
5.84 0 0
5.88 0 0
5.92 0 0
5.96 0 0
6 0 0
6.04 0 0
6.08 0 0
6.12 0 0
6.16 0 0
6.2 0 0
6.24 0 0
6.28 0 0
6.32 0 0
6.36 0 0
6.4 0 0
6.44 0 0
6.48 0 0
6.52 0 0
6.56 0 0
6.6 0 0
6.64 0 0
6.68 0 0
6.72 0 0
6.76 0 0
6.8 0 0
6.84 0 0
6.88 0 0
6.92 0 0
6.96 0 0
7 0 0
7.04 0 0
7.08 0 0
7.12 0 0
7.16 0 0
7.2 0 0
7.24 0 0
7.28 0 0
7.32 0 0
7.36 0 0
7.4 0 0
7.44 0 0
7.48 0 0
7.52 0 0
7.56 0 0
7.6 0 0
7.64 0 0
7.68 0 0
7.72 0 0
7.76 0 0
7.8 0 0
7.84 0 0
7.88 0 0
7.92 0 0
7.96 0 0
8 0 0
8.04 0 0
8.08 0 0
8.12 0 0
8.16 0 0
8.2 0 0
8.24 0 0
8.28 0 0
8.32 0 0
8.36 0 0
8.4 0 0
8.44 0 0
8.48 0 0
8.52 0 0
8.56 0 0
8.6 0 0
8.64 0 0
8.68 0 0
8.72 0 0
8.76 0 0
8.8 0 0
8.84 0 0
8.88 0 0
8.92 0 0
8.96 0 0
9 0 0
9.04 0 0
9.08 0 0
9.12 0 0
9.16 0 0
9.2 0 0
9.24 0 0
9.28 0 0
9.32 0 0
9.36 0 0
9.4 0 0
9.44 0 0
9.48 0 0
9.52 0 0
9.56 0 0
9.6 0 0
9.64 0 0
9.68 0 0
9.72 0 0
9.76 0 0
9.8 0 0
9.84 0 0
9.88 0 0
9.92 0 0
9.96 0 0
10 0 0
10.04 0 0
10.08 0 0
10.12 0 0
10.16 0 0
10.2 0 0
10.24 0 0
10.28 0 0
10.32 0 0
10.36 0 0
10.4 0 0
10.44 0 0
10.48 0 0
10.52 0 0
10.56 0 0
10.6 0 0
10.64 0 0
10.68 0 0
10.72 0 0
10.76 0 0
10.8 0 0
10.84 0 0
10.88 0 0
10.92 0 0
10.96 0 0
11 0 0
11.04 0 0
11.08 0 0
11.12 0 0
11.16 0 0
11.2 0 0
11.24 0 0
11.28 0 0
11.32 0 0
11.36 0 0
11.4 0 0
11.44 0 0
11.48 0 0
11.52 0 0
11.56 0 0
11.6 0 0
11.64 0 0
11.68 0 0
11.72 0 0
11.76 0 0
11.8 0 0
11.84 0 0
11.88 0 0
11.92 0 0
11.96 0 0
12 0 0
12.04 0 0
12.08 0 0
12.12 0 0
12.16 0 0
12.2 0 0
12.24 0 0
12.28 0 0
12.32 0 0
12.36 0 0
12.4 0 0
12.44 0 0
12.48 0 0
12.52 0 0
12.56 0 0
12.6 0 0
12.64 0 0
12.68 0 0
12.72 0 0
12.76 0 0
12.8 0 0
12.84 0 0
12.88 0 0
12.92 0 0
12.96 0 0
13 0 0
13.04 0 0
13.08 0 0
13.12 0 0
13.16 0 0
13.2 0 0
13.24 0 0
13.28 0 0
13.32 0 0
13.36 0 0
13.4 0 0
13.44 0 0
13.48 0 0
13.52 0 0
13.56 0 0
13.6 0 0
13.64 0 0
13.68 0 0
13.72 0 0
13.76 0 0
13.8 0 0
13.84 0 0
13.88 0 0
13.92 0 0
13.96 0 0
14 0 0
14.04 0 0
14.08 0 0
14.12 0 0
14.16 0 0
14.2 0 0
14.24 0 0
14.28 0 0
14.32 0 0
14.36 0 0
14.4 0 0
14.44 0 0
14.48 0 0
14.52 0 0
14.56 0 0
14.6 0 0
14.64 0 0
14.68 0 0
14.72 0 0
14.76 0 0
14.8 0 0
14.84 0 0
14.88 0 0
14.92 0 0
14.96 0 0
15 0 0
15.04 0 0
15.08 0 0
15.12 0 0
15.16 0 0
15.2 0 0
15.24 0 0
15.28 0 0
15.32 0 0
15.36 0 0
15.4 0 0
15.44 0 0
15.48 0 0
15.52 0 0
15.56 0 0
15.6 0 0
15.64 0 0
15.68 0 0
15.72 0 0
15.76 0 0
15.8 0 0
15.84 0 0
15.88 0 0
15.92 0 0
15.96 0 0
16 0 0
16.04 0 0
16.08 0 0
16.12 0 0
16.16 0 0
16.2 0 0
16.24 0 0
16.28 0 0
16.32 0 0
16.36 0 0
16.4 0 0
16.44 0 0
16.48 0 0
16.52 0 0
16.56 0 0
16.6 0 0
16.64 0 0
16.68 0 0
16.72 0 0
16.76 0 0
16.8 0 0
16.84 0 0
16.88 0 0
16.92 0 0
16.96 0 0
17 0 0
17.04 0 0
17.08 0 0
17.12 0 0
17.16 0 0
17.2 0 0
17.24 0 0
17.28 0 0
17.32 0 0
17.36 0 0
17.4 0 0
17.44 0 0
17.48 0 0
17.52 0 0
17.56 0 0
17.6 0 0
17.64 0 0
17.68 0 0
17.72 0 0
17.76 0 0
17.8 0 0
17.84 0 0
17.88 0 0
17.92 0 0
17.96 0 0
18 0 0
18.04 0 0
18.08 0 0
18.12 0 0
18.16 0 0
18.2 0 0
18.24 0 0
18.28 0 0
18.32 0 0
18.36 0 0
18.4 0 0
18.44 0 0
18.48 0 0
18.52 0 0
18.56 0 0
18.6 0 0
18.64 0 0
18.68 0 0
18.72 0 0
18.76 0 0
18.8 0 0
18.84 0 0
18.88 0 0
18.92 0 0
18.96 0 0
19 0 0
19.04 0 0
19.08 0 0
19.12 0 0
19.16 0 0
19.2 0 0
19.24 0 0
19.28 0 0
19.32 0 0
19.36 0 0
19.4 0 0
19.44 0 0
19.48 0 0
19.52 0 0
19.56 0 0
19.6 0 0
19.64 0 0
19.68 0 0
19.72 0 0
19.76 0 0
19.8 0 0
19.84 0 0
19.88 0 0
19.92 0 0
19.96 0 0
20 0 0
20.04 0 0
20.08 0 0
20.12 0 0
20.16 0 0
20.2 0 0
20.24 0 0
20.28 0 0
20.32 0 0
20.36 0 0
20.4 0 0
20.44 0 0
20.48 0 0
20.52 0 0
20.56 0 0
20.6 0 0
20.64 0 0
20.68 0 0
20.72 0 0
20.76 0 0
20.8 0 0
20.84 0 0
20.88 0 0
20.92 0 0
20.96 0 0
21 0 0
21.04 0 0
21.08 0 0
21.12 0 0
21.16 0 0
21.2 0 0
21.24 0 0
21.28 0 0
21.32 0 0
21.36 0 0
21.4 0 0
21.44 0 0
21.48 0 0
21.52 0 0
21.56 0 0
21.6 0 0
21.64 0 0
21.68 0 0
21.72 0 0
21.76 0 0
21.8 0 0
21.84 0 0
21.88 0 0
21.92 0 0
21.96 0 0
22 0 0
22.04 0 0
22.08 0 0
22.12 0 0
22.16 0 0
22.2 0 0
22.24 0 0
22.28 0 0
22.32 0 0
22.36 0 0
22.4 0 0
22.44 0 0
22.48 0 0
22.52 0 0
22.56 0 0
22.6 0 0
22.64 0 0
22.68 0 0
22.72 0 0
22.76 0 0
22.8 0 0
22.84 0 0
22.88 0 0
22.92 0 0
22.96 0 0
23 0 0
23.04 0 0
23.08 0 0
23.12 0 0
23.16 0 0
23.2 0 0
23.24 0 0
23.28 0 0
23.32 0 0
23.36 0 0
23.4 0 0
23.44 0 0
23.48 0 0
23.52 0 0
23.56 0 0
23.6 0 0
23.64 0 0
23.68 0 0
23.72 0 0
23.76 0 0
23.8 0 0
23.84 0 0
23.88 0 0
23.92 0 0
23.96 0 0
24 0 0
24.04 0 0
24.08 0 0
24.12 0 0
24.16 0 0
24.2 0 0
24.24 0 0
24.28 0 0
24.32 0 0
24.36 0 0
24.4 0 0
24.44 0 0
24.48 0 0
24.52 0 0
24.56 0 0
24.6 0 0
24.64 0 0
24.68 0 0
24.72 0 0
24.76 0 0
24.8 0 0
24.84 0 0
24.88 0 0
24.92 0 0
24.96 0 0
25 0 0
25.04 0 0
25.08 0 0
25.12 0 0
25.16 0 0
25.2 0 0
25.24 0 0
25.28 0 0
25.32 0 0
25.36 0 0
25.4 0 0
25.44 0 0
25.48 0 0
25.52 0 0
25.56 0 0
25.6 0 0
25.64 0 0
25.68 0 0
25.72 0 0
25.76 0 0
25.8 0 0
25.84 0 0
25.88 0 0
25.92 0 0
25.96 0 0
26 0 0
26.04 0 0
26.08 0 0
26.12 0 0
26.16 0 0
26.2 0 0
26.24 0 0
26.28 0 0
26.32 0 0
26.36 0 0
26.4 0 0
26.44 0 0
26.48 0 0
26.52 0 0
26.56 0 0
26.6 0 0
26.64 0 0
26.68 0 0
26.72 0 0
26.76 0 0
26.8 0 0
26.84 0 0
26.88 0 0
26.92 0 0
26.96 0 0
27 0 0
27.04 0 0
27.08 0 0
27.12 0 0
27.16 0 0
27.2 0 0
27.24 0 0
27.28 0 0
27.32 0 0
27.36 0 0
27.4 0 0
27.44 0 0
27.48 0 0
27.52 0 0
27.56 0 0
27.6 0 0
27.64 0 0
27.68 0 0
27.72 0 0
27.76 0 0
27.8 0 0
27.84 0 0
27.88 0 0
27.92 0 0
27.96 0 0
28 0 0
28.04 0 0
28.08 0 0
28.12 0 0
28.16 0 0
28.2 0 0
28.24 0 0
28.28 0 0
28.32 0 0
28.36 0 0
28.4 0 0
28.44 0 0
28.48 0 0
28.52 0 0
28.56 0 0
28.6 0 0
28.64 0 0
28.68 0 0
28.72 0 0
28.76 0 0
28.8 0 0
28.84 0 0
28.88 0 0
28.92 0 0
28.96 0 0
29 0 0
29.04 0 0
29.08 0 0
29.12 0 0
29.16 0 0
29.2 0 0
29.24 0 0
29.28 0 0
29.32 0 0
29.36 0 0
29.4 0 0
29.44 0 0
29.48 0 0
29.52 0 0
29.56 0 0
29.6 0 0
29.64 0 0
29.68 0 0
29.72 0 0
29.76 0 0
29.8 0 0
29.84 0 0
29.88 0 0
29.92 0 0
29.96 0 0
30 0 0
30.04 0 0
30.08 0 0
30.12 0 0
30.16 0 0
30.2 0 0
30.24 0 0
30.28 0 0
30.32 0 0
30.36 0 0
30.4 0 0
30.44 0 0
30.48 0 0
30.52 0 0
30.56 0 0
30.6 0 0
30.64 0 0
30.68 0 0
30.72 0 0
30.76 0 0
30.8 0 0
30.84 0 0
30.88 0 0
30.92 0 0
30.96 0 0
31 0 0
31.04 0 0
31.08 0 0
31.12 0 0
31.16 0 0
31.2 0 0
31.24 0 0
31.28 0 0
31.32 0 0
31.36 0 0
31.4 0 0
31.44 0 0
31.48 0 0
31.52 0 0
31.56 0 0
31.6 0 0
31.64 0 0
31.68 0 0
31.72 0 0
31.76 0 0
31.8 0 0
31.84 0 0
31.88 0 0
31.92 0 0
31.96 0 0
0 0.005 0
0.04 0.005 0
0.08 0.005 0
0.12 0.005 0
0.16 0.005 0
0.2 0.005 0
0.24 0.005 0
0.28 0.005 0
0.32 0.005 0
0.36 0.005 0
0.4 0.005 0
0.44 0.005 0
0.48 0.005 0
0.52 0.005 0
0.56 0.005 0
0.6 0.005 0
0.64 0.005 0
0.68 0.005 0
0.72 0.005 0
0.76 0.005 0
0.8 0.005 0
0.84 0.005 0
0.88 0.005 0
0.92 0.005 0
0.96 0.005 0
1 0.005 0
1.04 0.005 0
1.08 0.005 0
1.12 0.005 0
1.16 0.005 0
1.2 0.005 0
1.24 0.005 0
1.28 0.005 0
1.32 0.005 0
1.36 0.005 0
1.4 0.005 0
1.44 0.005 0
1.48 0.005 0
1.52 0.005 0
1.56 0.005 0
1.6 0.005 0
1.64 0.005 0
1.68 0.005 0
1.72 0.005 0
1.76 0.005 0
1.8 0.005 0
1.84 0.005 0
1.88 0.005 0
1.92 0.005 0
1.96 0.005 0
2 0.005 0
2.04 0.005 0
2.08 0.005 0
2.12 0.005 0
2.16 0.005 0
2.2 0.005 0
2.24 0.005 0
2.28 0.005 0
2.32 0.005 0
2.36 0.005 0
2.4 0.005 0
2.44 0.005 0
2.48 0.005 0
2.52 0.005 0
2.56 0.005 0
2.6 0.005 0
2.64 0.005 0
2.68 0.005 0
2.72 0.005 0
2.76 0.005 0
2.8 0.005 0
2.84 0.005 0
2.88 0.005 0
2.92 0.005 0
2.96 0.005 0
3 0.005 0
3.04 0.005 0
3.08 0.005 0
3.12 0.005 0
3.16 0.005 0
3.2 0.005 0
3.24 0.005 0
3.28 0.005 0
3.32 0.005 0
3.36 0.005 0
3.4 0.005 0
3.44 0.005 0
3.48 0.005 0
3.52 0.005 0
3.56 0.005 0
3.6 0.005 0
3.64 0.005 0
3.68 0.005 0
3.72 0.005 0
3.76 0.005 0
3.8 0.005 0
3.84 0.005 0
3.88 0.005 0
3.92 0.005 0
3.96 0.005 0
4 0.005 0
4.04 0.005 0
4.08 0.005 0
4.12 0.005 0
4.16 0.005 0
4.2 0.005 0
4.24 0.005 0
4.28 0.005 0
4.32 0.005 0
4.36 0.005 0
4.4 0.005 0
4.44 0.005 0
4.48 0.005 0
4.52 0.005 0
4.56 0.005 0
4.6 0.005 0
4.64 0.005 0
4.68 0.005 0
4.72 0.005 0
4.76 0.005 0
4.8 0.005 0
4.84 0.005 0
4.88 0.005 0
4.92 0.005 0
4.96 0.005 0
5 0.005 0
5.04 0.005 0
5.08 0.005 0
5.12 0.005 0
5.16 0.005 0
5.2 0.005 0
5.24 0.005 0
5.28 0.005 0
5.32 0.005 0
5.36 0.005 0
5.4 0.005 0
5.44 0.005 0
5.48 0.005 0
5.52 0.005 0
5.56 0.005 0
5.6 0.005 0
5.64 0.005 0
5.68 0.005 0
5.72 0.005 0
5.76 0.005 0
5.8 0.005 0
5.84 0.005 0
5.88 0.005 0
5.92 0.005 0
5.96 0.005 0
6 0.005 0
6.04 0.005 0
6.08 0.005 0
6.12 0.005 0
6.16 0.005 0
6.2 0.005 0
6.24 0.005 0
6.28 0.005 0
6.32 0.005 0
6.36 0.005 0
6.4 0.005 0
6.44 0.005 0
6.48 0.005 0
6.52 0.005 0
6.56 0.005 0
6.6 0.005 0
6.64 0.005 0
6.68 0.005 0
6.72 0.005 0
6.76 0.005 0
6.8 0.005 0
6.84 0.005 0
6.88 0.005 0
6.92 0.005 0
6.96 0.005 0
7 0.005 0
7.04 0.005 0
7.08 0.005 0
7.12 0.005 0
7.16 0.005 0
7.2 0.005 0
7.24 0.005 0
7.28 0.005 0
7.32 0.005 0
7.36 0.005 0
7.4 0.005 0
[...]
POINT_DATA 160000

SCALARS u float 1
LOOKUP_TABLE default
-1
-0.483356
-0.183962
-0.108844
-0.0810319
-0.0668324
-0.0581167
-0.0521511
-0.0477758
-0.0444128
-0.0417394
-0.0395595
-0.0377462
-0.0362131
-0.0348993
-0.0337601
-0.0327623
-0.0318805
-0.0310948
-0.0303897
-0.0297526
-0.0291736
-0.0286443
-0.0281582
-0.0277095
-0.0272937
-0.0269068
-0.0265456
-0.0262072
-0.0258892
-0.0255896
-0.0253066
-0.0250387
-0.0247845
-0.0245429
-0.0243128
-0.0240934
-0.0238837
-0.0236832
-0.023491
-0.0233068
-0.0231298
-0.0229598
-0.0227961
-0.0226385
-0.0224866
-0.02234
-0.0221985
-0.0220617
-0.0219295
-0.0218015
-0.0216777
-0.0215576
-0.0214413
-0.0213284
-0.0212188
-0.0211125
-0.0210091
-0.0209087
-0.020811
-0.0207159
-0.0206234
-0.0205333
-0.0204456
-0.0203601
-0.0202767
-0.0201954
-0.020116
-0.0200386
-0.019963
-0.0198892
-0.0198171
-0.0197466
-0.0196777
-0.0196103
-0.0195444
-0.01948
-0.0194169
-0.0193551
-0.0192946
-0.0192354
-0.0191774
-0.0191205
-0.0190648
-0.0190102
-0.0189566
-0.0189041
-0.0188526
-0.018802
-0.0187524
-0.0187037
-0.0186559
-0.0186089
-0.0185628
-0.0185175
-0.018473
-0.0184293
-0.0183864
-0.0183441
-0.0183026
-0.0182618
-0.0182216
-0.0181822
-0.0181433
-0.0181051
-0.0180675
-0.0180305
-0.0179941
-0.0179583
-0.017923
-0.0178883
-0.0178541
-0.0178204
-0.0177872
-0.0177546
-0.0177224
-0.0176907
-0.0176594
-0.0176286
-0.0175983
-0.0175684
-0.0175389
-0.0175098
-0.0174812
-0.0174529
-0.0174251
-0.0173976
-0.0173706
-0.0173438
-0.0173175
-0.0172915
-0.0172659
-0.0172407
-0.0172157
-0.0171911
-0.0171669
-0.017143
-0.0171194
-0.0170961
-0.0170732
-0.0170505
-0.0170282
-0.0170062
-0.0169845
-0.0169631
-0.016942
-0.0169213
-0.0169008
-0.0168806
-0.0168608
-0.0168412
-0.016822
-0.0168031
-0.0167845
-0.0167662
-0.0167483
-0.0167307
-0.0167133
-0.0166964
-0.0166797
-0.0166634
-0.0166474
-0.0166317
-0.0166163
-0.0166013
-0.0165866
-0.0165722
-0.0165582
-0.0165445
-0.016531
-0.016518
-0.0165052
-0.0164927
-0.0164805
-0.0164687
-0.0164571
-0.0164458
-0.0164348
-0.0164241
-0.0164136
-0.0164035
-0.0163936
-0.0163839
-0.0163746
-0.0163654
-0.0163565
-0.0163479
-0.0163395
-0.0163313
-0.0163234
-0.0163157
-0.0163082
-0.0163009
-0.0162939
-0.016287
-0.0162804
-0.0162739
-0.0162677
-0.0162616
-0.0162557
-0.01625
-0.0162445
-0.0162392
-0.016234
-0.0162291
-0.0162242
-0.0162196
-0.0162151
-0.0162107
-0.0162065
-0.0162025
-0.0161986
-0.0161948
-0.0161912
-0.0161877
-0.0161843
-0.0161811
-0.016178
-0.016175
-0.0161721
-0.0161694
-0.0161667
-0.0161642
-0.0161617
-0.0161594
-0.0161572
-0.016155
-0.016153
-0.016151
-0.0161492
-0.0161474
-0.0161457
-0.016144
-0.0161425
-0.016141
-0.0161396
-0.0161383
-0.016137
-0.0161358
-0.0161347
-0.0161337
-0.0161327
-0.0161318
-0.0161309
-0.0161301
-0.0161294
-0.0161287
-0.0161281
-0.0161275
-0.016127
-0.0161265
-0.016126
-0.0161256
-0.0161252
-0.0161248
-0.0161244
-0.0161241
-0.0161238
-0.0161234
-0.0161231
-0.0161228
-0.0161225
-0.0161222
-0.0161219
-0.0161216
-0.0161213
-0.016121
-0.0161207
-0.0161204
-0.0161201
-0.0161198
-0.0161195
-0.0161192
-0.0161189
-0.0161186
-0.0161183
-0.016118
-0.0161177
-0.0161174
-0.0161171
-0.0161168
-0.0161165
-0.0161162
-0.0161158
-0.0161155
-0.0161152
-0.0161149
-0.0161146
-0.0161143
-0.016114
-0.0161137
-0.0161134
-0.0161131
-0.0161128
-0.0161125
-0.0161122
-0.0161119
-0.0161116
-0.0161113
-0.016111
-0.0161107
-0.0161104
-0.0161101
-0.0161098
-0.0161095
-0.0161092
-0.0161089
-0.0161086
-0.0161083
-0.016108
-0.0161077
-0.0161074
-0.0161071
-0.0161068
-0.0161065
-0.0161062
-0.0161059
-0.0161056
-0.0161053
-0.016105
-0.0161047
-0.0161044
-0.0161041
-0.0161038
-0.0161035
-0.0161032
-0.0161029
-0.0161026
-0.0161023
-0.016102
-0.0161017
-0.0161014
-0.0161011
-0.0161008
-0.0161005
-0.0161002
-0.0160999
-0.0160995
-0.0160992
-0.0160989
-0.0160986
-0.0160983
-0.016098
-0.0160977
-0.0160974
-0.0160971
-0.0160968
-0.0160965
-0.0160962
-0.0160959
-0.0160956
-0.0160953
-0.016095
-0.0160947
-0.0160944
-0.0160941
-0.0160938
-0.0160935
-0.0160932
-0.0160929
-0.0160926
-0.0160923
-0.016092
-0.0160917
-0.0160914
-0.0160911
-0.0160908
-0.0160905
-0.0160902
-0.0160899
-0.0160896
-0.0160893
-0.016089
-0.0160887
-0.0160884
-0.0160881
-0.0160878
-0.0160875
-0.0160872
-0.0160869
-0.0160866
-0.0160863
-0.016086
-0.0160857
-0.0160854
-0.0160851
-0.0160848
-0.0160845
-0.0160842
-0.0160839
-0.0160835
-0.0160832
-0.0160829
-0.0160826
-0.0160823
-0.016082
-0.0160817
-0.0160814
-0.0160811
-0.0160808
-0.0160805
-0.0160802
-0.0160799
-0.0160796
-0.0160793
-0.016079
-0.0160787
-0.0160784
-0.0160781
-0.0160778
-0.0160775
-0.0160772
-0.0160769
-0.0160766
-0.0160763
-0.016076
-0.0160757
-0.0160754
-0.0160751
-0.0160748
-0.0160745
-0.0160742
-0.0160739
-0.0160736
-0.0160733
-0.016073
-0.0160727
-0.0160724
-0.0160721
-0.0160718
-0.0160715
-0.0160712
-0.0160709
-0.0160706
-0.0160703
-0.01607
-0.0160697
-0.0160694
-0.0160691
-0.0160688
-0.0160684
-0.0160681
-0.0160678
-0.0160675
-0.0160672
-0.0160669
-0.0160666
-0.0160663
-0.016066
-0.0160657
-0.0160654
-0.0160651
-0.0160648
-0.0160645
-0.0160642
-0.0160639
-0.0160636
-0.0160633
-0.016063
-0.0160627
-0.0160624
-0.0160621
-0.0160618
-0.0160615
-0.0160612
-0.0160609
-0.0160606
-0.0160603
-0.01606
-0.0160597
-0.0160594
-0.0160591
-0.0160588
-0.0160585
-0.0160582
-0.0160579
-0.0160576
-0.0160573
-0.016057
-0.0160567
-0.0160564
-0.0160561
-0.0160558
-0.0160555
-0.0160552
-0.0160549
-0.0160546
-0.0160543
-0.0160539
-0.0160536
-0.0160533
-0.016053
-0.0160527
-0.0160524
-0.0160521
-0.0160518
-0.0160515
-0.0160512
-0.0160509
-0.0160506
-0.0160503
-0.01605
-0.0160497
-0.0160494
-0.0160491
-0.0160488
-0.0160485
-0.0160482
-0.0160479
-0.0160476
-0.0160473
-0.016047
-0.0160467
-0.0160464
-0.0160461
-0.0160458
-0.0160455
-0.0160452
-0.0160449
-0.0160446
-0.0160443
-0.016044
-0.0160437
-0.0160434
-0.0160431
-0.0160428
-0.0160425
-0.0160422
-0.0160419
-0.0160416
-0.0160413
-0.016041
-0.0160407
-0.0160404
-0.0160401
-0.0160397
-0.0160394
-0.0160391
-0.0160388
-0.0160385
-0.0160382
-0.0160379
-0.0160376
-0.0160373
-0.016037
-0.0160367
-0.0160364
-0.0160361
-0.0160358
-0.0160355
-0.0160352
-0.0160349
-0.0160346
-0.0160343
-0.016034
-0.0160337
-0.0160334
-0.0160331
-0.0160328
-0.0160325
-0.0160322
-0.0160319
-0.0160316
-0.0160313
-0.016031
-0.0160307
-0.0160304
-0.0160301
-0.0160298
-0.0160295
-0.0160292
-0.0160289
-0.0160286
-0.0160283
-0.016028
-0.0160277
-0.0160274
-0.0160271
-0.0160268
-0.0160265
-0.0160262
-0.0160258
-0.0160255
-0.0160252
-0.0160249
-0.0160246
-0.0160243
-0.016024
-0.0160237
-0.0160234
-0.0160231
-0.0160228
-0.0160225
-0.0160222
-0.0160219
-0.0160216
-0.0160213
-0.016021
-0.0160207
-0.0160204
-0.0160201
-0.0160198
-0.0160195
-0.0160192
-0.0160189
-0.0160186
-0.0160183
-0.016018
-0.0160177
-0.0160174
-0.0160171
-0.0160168
-0.0160165
-0.0160162
-0.0160159
-0.0160156
-0.0160153
-0.016015
-0.0160147
-0.0160144
-0.0160141
-0.0160138
-0.0160135
-0.0160132
-0.0160129
-0.0160125
-0.0160122
-0.0160119
-0.0160116
-0.0160113
-0.016011
-0.0160107
-0.0160104
-0.0160101
-0.0160098
-0.0160095
-0.0160092
-0.0160089
-0.0160086
-0.0160083
-0.016008
-0.0160077
-0.0160074
-0.0160071
-0.0160068
-0.0160065
-0.0160062
-0.0160059
-0.0160056
-0.0160053
-0.016005
-0.0160047
-0.0160044
-0.0160041
-0.0160038
-0.0160035
-0.0160032
-0.0160029
-0.0160026
-0.0160023
-0.016002
-0.0160017
-0.0160014
-0.0160011
-0.0160008
-0.0160005
-0.0160002
-0.0159999
-0.0159995
-0.0159992
-0.0159989
-0.0159986
-0.0159983
-0.015998
-0.0159977
-0.0159974
-0.0159971
-0.0159968
-0.0159965
-0.0159962
-0.0159959
-0.0159956
-0.0159953
-0.015995
-0.0159947
-0.0159944
-0.0159941
-0.0159938
-0.0159935
-0.0159932
-0.0159929
-0.0159926
-0.0159923
-0.015992
-0.0159917
-0.0159914
-0.0159911
-0.0159908
-0.0159905
-0.0159902
-0.0159899
-0.0159896
-0.0159893
-0.015989
-0.0159887
-0.0159884
-0.0159881
-0.0159878
-0.0159875
-0.0159872
-0.0159868
-0.0159865
-0.0159862
-0.0159859
-0.0159856
-0.0159853
-0.015985
-0.0159847
-0.0159844
-0.0159841
-0.0159838
-0.0159835
-0.0159832
-0.0159829
-0.0159826
-0.0159823
-0.015982
-0.0159817
-0.0159814
-0.0159811
-0.0159808
-0.0159805
-0.0159802
-0.0159799
-0.0159796
-0.0159793
-0.015979
-0.0159787
-0.0159784
-0.0159781
-0.0159778
-0.0159775
-0.0159772
-0.0159769
-0.0159766
-0.0159763
-0.015976
-0.0159757
-0.0159754
-0.0159751
-0.0159747
-0.0159744
-0.0159741
-0.0159738
-0.0159735
-0.0159732
-0.0159729
-0.0159726
-0.0159723
-0.015972
-0.0159717
-0.0159714
-0.0159711
-0.0159708
-0.0159705
-0.0159702
-0.0159699
-0.0159696
-0.0159693
-0.015969
-0.0159687
-0.0159684
-0.0159681
-0.0159678
-0.0159675
-0.0159672
-0.0159669
-0.0159665
-0.0159662
-0.0159659
-0.0159656
-0.0159653
-0.015965
-0.0159646
-0.0159643
-0.015964
-0.0159636
-0.0159632
-0.0159628
-0.0159624
-0.015962
-0.0159615
-0.015961
-0.0159604
-0.0159597
-0.015959
-0.0159579
-0.0159575
-0.0159575
-0.0159575
1
0.483356
0.183962
0.108844
0.0810319
0.0668324
0.0581167
0.0521511
0.0477758
0.0444128
0.0417394
0.0395595
0.0377462
0.0362131
0.0348993
0.0337601
0.0327623
0.0318805
0.0310948
0.0303897
0.0297526
0.0291736
0.0286443
0.0281582
0.0277095
0.0272937
0.0269068
0.0265456
0.0262072
0.0258892
0.0255896
0.0253066
0.0250387
0.0247845
0.0245429
0.0243128
0.0240934
0.0238837
0.0236832
0.023491
0.0233068
0.0231298
0.0229598
0.0227961
0.0226385
0.0224866
0.02234
0.0221985
0.0220617
0.0219295
0.0218015
0.0216777
0.0215576
0.0214413
0.0213284
0.0212188
0.0211125
0.0210091
0.0209087
0.020811
0.0207159
0.0206234
0.0205333
0.0204456
0.0203601
0.0202767
0.0201954
0.020116
0.0200386
0.019963
0.0198892
0.0198171
0.0197466
0.0196777
0.0196103
0.0195444
0.01948
0.0194169
0.0193551
0.0192946
0.0192354
0.0191774
0.0191205
0.0190648
0.0190102
0.0189566
0.0189041
0.0188526
0.018802
0.0187524
0.0187037
0.0186559
0.0186089
0.0185628
0.0185175
0.018473
0.0184293
0.0183864
0.0183441
0.0183026
0.0182618
0.0182216
0.0181822
0.0181433
0.0181051
0.0180675
0.0180305
0.0179941
0.0179583
0.017923
0.0178883
0.0178541
0.0178204
0.0177872
0.0177546
0.0177224
0.0176907
0.0176594
0.0176286
0.0175983
0.0175684
0.0175389
0.0175098
0.0174812
0.0174529
0.0174251
0.0173976
0.0173706
0.0173438
0.0173175
0.0172915
0.0172659
0.0172407
0.0172157
0.0171911
0.0171669
0.017143
0.0171194
0.0170961
0.0170732
0.0170505
0.0170282
0.0170062
0.0169845
0.0169631
0.016942
0.0169213
0.0169008
0.0168806
0.0168608
0.0168412
0.016822
0.0168031
0.0167845
0.0167662
0.0167483
0.0167307
0.0167133
0.0166964
0.0166797
0.0166634
0.0166474
0.0166317
0.0166163
0.0166013
0.0165866
0.0165722
0.0165582
0.0165445
0.016531
0.016518
0.0165052
0.0164927
0.0164805
0.0164687
0.0164571
0.0164458
0.0164348
0.0164241
0.0164136
0.0164035
0.0163936
0.0163839
0.0163746
0.0163654
0.0163565
0.0163479
0.0163395
0.0163313
0.0163234
0.0163157
0.0163082
0.0163009
0.0162939
0.016287
0.0162804
0.0162739
0.0162677
0.0162616
0.0162557
0.01625
0.0162445
0.0162392
0.016234
0.0162291
0.0162242
0.0162196
0.0162151
0.0162107
0.0162065
0.0162025
0.0161986
0.0161948
0.0161912
0.0161877
0.0161843
0.0161811
0.016178
0.016175
0.0161721
0.0161694
0.0161667
0.0161642
0.0161617
0.0161594
0.0161572
0.016155
0.016153
0.016151
0.0161492
0.0161474
0.0161457
0.016144
0.0161425
0.016141
0.0161396
0.0161383
0.016137
0.0161358
0.0161347
0.0161337
0.0161327
0.0161318
0.0161309
0.0161301
0.0161294
0.0161287
0.0161281
0.0161275
0.016127
0.0161265
0.016126
0.0161256
0.0161252
0.0161248
0.0161244
0.0161241
0.0161238
0.0161234
0.0161231
0.0161228
0.0161225
0.0161222
0.0161219
0.0161216
0.0161213
0.016121
0.0161207
0.0161204
0.0161201
0.0161198
0.0161195
0.0161192
0.0161189
0.0161186
0.0161183
0.016118
0.0161177
0.0161174
0.0161171
0.0161168
0.0161165
0.0161162
0.0161158
0.0161155
0.0161152
0.0161149
0.0161146
0.0161143
0.016114
0.0161137
0.0161134
0.0161131
0.0161128
0.0161125
0.0161122
0.0161119
0.0161116
0.0161113
0.016111
0.0161107
0.0161104
0.0161101
0.0161098
0.0161095
0.0161092
0.0161089
0.0161086
0.0161083
0.016108
0.0161077
0.0161074
0.0161071
0.0161068
0.0161065
0.0161062
0.0161059
0.0161056
0.0161053
0.016105
0.0161047
0.0161044
0.0161041
0.0161038
0.0161035
0.0161032
0.0161029
0.0161026
0.0161023
0.016102
0.0161017
0.0161014
0.0161011
0.0161008
0.0161005
0.0161002
0.0160999
0.0160995
0.0160992
0.0160989
0.0160986
0.0160983
0.016098
0.0160977
0.0160974
0.0160971
0.0160968
0.0160965
0.0160962
0.0160959
0.0160956
0.0160953
0.016095
0.0160947
0.0160944
0.0160941
0.0160938
0.0160935
0.0160932
0.0160929
0.0160926
0.0160923
0.016092
0.0160917
0.0160914
0.0160911
0.0160908
0.0160905
0.0160902
0.0160899
0.0160896
0.0160893
0.016089
0.0160887
0.0160884
0.0160881
0.0160878
0.0160875
0.0160872
0.0160869
0.0160866
0.0160863
0.016086
0.0160857
0.0160854
0.0160851
0.0160848
0.0160845
0.0160842
0.0160839
0.0160835
0.0160832
0.0160829
0.0160826
0.0160823
0.016082
0.0160817
0.0160814
0.0160811
0.0160808
0.0160805
0.0160802
0.0160799
0.0160796
0.0160793
0.016079
0.0160787
0.0160784
0.0160781
0.0160778
0.0160775
0.0160772
0.0160769
0.0160766
0.0160763
0.016076
0.0160757
0.0160754
0.0160751
0.0160748
0.0160745
0.0160742
0.0160739
0.0160736
0.0160733
0.016073
0.0160727
0.0160724
0.0160721
0.0160718
0.0160715
0.0160712
0.0160709
0.0160706
0.0160703
0.01607
0.0160697
0.0160694
0.0160691
0.0160688
0.0160684
0.0160681
0.0160678
0.0160675
0.0160672
0.0160669
0.0160666
0.0160663
0.016066
0.0160657
0.0160654
0.0160651
0.0160648
0.0160645
0.0160642
0.0160639
0.0160636
0.0160633
0.016063
0.0160627
0.0160624
0.0160621
0.0160618
0.0160615
0.0160612
0.0160609
0.0160606
0.0160603
0.01606
0.0160597
0.0160594
0.0160591
0.0160588
0.0160585
0.0160582
0.0160579
0.0160576
0.0160573
0.016057
0.0160567
0.0160564
0.0160561
0.0160558
0.0160555
0.0160552
0.0160549
0.0160546
0.0160543
0.0160539
0.0160536
0.0160533
0.016053
0.0160527
0.0160524
0.0160521
0.0160518
0.0160515
0.0160512
0.0160509
0.0160506
0.0160503
0.01605
0.0160497
0.0160494
0.0160491
0.0160488
0.0160485
0.0160482
0.0160479
0.0160476
0.0160473
0.016047
0.0160467
0.0160464
0.0160461
0.0160458
0.0160455
0.0160452
0.0160449
0.0160446
0.0160443
0.016044
0.0160437
0.0160434
0.0160431
0.0160428
0.0160425
0.0160422
0.0160419
0.0160416
0.0160413
0.016041
0.0160407
0.0160404
0.0160401
0.0160397
0.0160394
0.0160391
0.0160388
0.0160385
0.0160382
0.0160379
0.0160376
0.0160373
0.016037
0.0160367
0.0160364
0.0160361
0.0160358
0.0160355
0.0160352
0.0160349
0.0160346
0.0160343
0.016034
0.0160337
0.0160334
0.0160331
0.0160328
0.0160325
0.0160322
0.0160319
0.0160316
0.0160313
0.016031
0.0160307
0.0160304
0.0160301
0.0160298
0.0160295
0.0160292
0.0160289
0.0160286
0.0160283
0.016028
0.0160277
0.0160274
0.0160271
0.0160268
0.0160265
0.0160262
0.0160258
0.0160255
0.0160252
0.0160249
0.0160246
0.0160243
0.016024
0.0160237
0.0160234
0.0160231
0.0160228
0.0160225
0.0160222
0.0160219
0.0160216
0.0160213
0.016021
0.0160207
0.0160204
0.0160201
0.0160198
0.0160195
0.0160192
0.0160189
0.0160186
0.0160183
0.016018
0.0160177
0.0160174
0.0160171
0.0160168
0.0160165
0.0160162
0.0160159
0.0160156
0.0160153
0.016015
0.0160147
0.0160144
0.0160141
0.0160138
0.0160135
0.0160132
0.0160129
0.0160125
0.0160122
0.0160119
0.0160116
0.0160113
0.016011
0.0160107
0.0160104
0.0160101
0.0160098
0.0160095
0.0160092
0.0160089
0.0160086
0.0160083
0.016008
0.0160077
0.0160074
0.0160071
0.0160068
0.0160065
0.0160062
0.0160059
0.0160056
0.0160053
0.016005
0.0160047
0.0160044
0.0160041
0.0160038
0.0160035
0.0160032
0.0160029
0.0160026
0.0160023
0.016002
0.0160017
0.0160014
0.0160011
0.0160008
0.0160005
0.0160002
0.0159999
0.0159995
0.0159992
0.0159989
0.0159986
0.0159983
0.015998
0.0159977
0.0159974
0.0159971
0.0159968
0.0159965
0.0159962
0.0159959
0.0159956
0.0159953
0.015995
0.0159947
0.0159944
0.0159941
0.0159938
0.0159935
0.0159932
0.0159929
0.0159926
0.0159923
0.015992
0.0159917
0.0159914
0.0159911
0.0159908
0.0159905
0.0159902
0.0159899
0.0159896
0.0159893
0.015989
0.0159887
0.0159884
0.0159881
0.0159878
0.0159875
0.0159872
0.0159868
0.0159865
0.0159862
0.0159859
0.0159856
0.0159853
0.015985
0.0159847
0.0159844
0.0159841
0.0159838
0.0159835
0.0159832
0.0159829
0.0159826
0.0159823
0.015982
0.0159817
0.0159814
0.0159811
0.0159808
0.0159805
0.0159802
0.0159799
0.0159796
0.0159793
0.015979
0.0159787
0.0159784
0.0159781
0.0159778
0.0159775
0.0159772
0.0159769
0.0159766
0.0159763
0.015976
0.0159757
0.0159754
0.0159751
0.0159747
0.0159744
0.0159741
0.0159738
0.0159735
0.0159732
0.0159729
0.0159726
0.0159723
0.015972
0.0159717
0.0159714
0.0159711
0.0159708
0.0159705
0.0159702
0.0159699
0.0159696
0.0159693
0.015969
0.0159687
0.0159684
0.0159681
0.0159678
0.0159675
0.0159672
0.0159669
0.0159665
0.0159662
0.0159659
0.0159656
0.0159653
0.015965
0.0159646
0.0159643
0.015964
0.0159636
0.0159632
0.0159628
0.0159624
0.015962
0.0159615
0.015961
0.0159604
0.0159597
0.015959
0.0159579
0.0159575
0.0159575
0.0159575
1
0.969189
0.495614
0.314221
0.237894
0.197392
0.17213
0.154692
0.141838
0.131923
0.124023
0.117568
0.112191
0.10764
0.103736
0.100348
0.0973798
0.0947551
0.0924161
0.0903166
0.0884196
0.0866955
0.0851199
0.0836727
0.0823374
0.0811001
0.0799493
0.0788749
0.0778688
0.0769236
0.0760334
0.0751928
0.0743972
0.0736425
0.0729254
0.0722426
0.0715915
0.0709696
0.0703748
0.0698052
0.0692589
0.0687344
0.0682304
0.0677455
0.0672786
0.0668285
0.0663943
0.0659752
0.0655702
0.0651787
0.0647998
0.0644331
0.0640777
0.0637333
0.0633992
0.063075
0.0627602
0.0624543
0.0621571
0.061868
0.0615868
0.0613131
0.0610466
0.060787
0.060534
0.0602874
0.0600469
0.0598123
0.0595833
0.0593597
0.0591414
0.0589281
0.0587197
0.0585159
0.0583167
0.0581219
0.0579313
0.0577447
0.0575621
0.0573833
0.0572082
0.0570367
0.0568686
0.0567039
0.0565424
0.056384
0.0562288
0.0560764
0.055927
0.0557803
0.0556364
0.0554951
0.0553563
0.0552201
0.0550862
0.0549548
0.0548256
0.0546986
0.0545738
0.0544511
0.0543305
0.0542119
0.0540953
0.0539805
0.0538677
0.0537566
0.0536473
0.0535398
0.0534339
0.0533297
0.0532271
0.053126
0.0530265
0.0529286
0.052832
0.052737
0.0526433
0.052551
0.0524601
0.0523705
0.0522822
0.0521951
0.0521093
0.0520247
0.0519413
0.0518591
0.0517781
0.0516981
0.0516193
0.0515416
0.0514649
0.0513893
0.0513148
0.0512413
0.0511687
0.0510972
0.0510267
0.0509571
0.0508885
0.0508209
0.0507542
0.0506884
0.0506236
0.0505597
0.0504967
0.0504347
0.0503736
0.0503134
0.0502541
0.0501958
0.0501384
0.0500819
0.0500264
0.0499719
0.0499182
0.0498656
0.0498139
0.0497632
0.0497134
0.0496646
0.0496168
0.04957
0.0495242
0.0494793
0.0494354
0.0493925
0.0493505
0.0493095
0.0492695
0.0492304
0.0491922
0.0491549
0.0491186
0.0490831
0.0490486
0.0490149
0.048982
0.04895
0.0489189
0.0488885
0.0488589
0.0488302
0.0488022
0.0487749
0.0487484
0.0487226
0.0486975
0.0486732
0.0486495
0.0486264
0.0486041
0.0485824
0.0485613
0.0485408
0.048521
0.0485017
0.0484831
0.048465
0.0484475
0.0484305
0.048414
0.0483981
0.0483827
0.0483679
0.0483535
0.0483395
0.0483261
0.0483131
0.0483006
0.0482885
0.0482769
0.0482656
0.0482548
0.0482444
0.0482343
0.0482247
0.0482154
0.0482064
0.0481978
0.0481896
0.0481817
0.0481741
0.0481668
0.0481599
0.0481532
0.0481468
0.0481407
0.0481348
0.0481293
0.0481239
0.0481188
0.048114
0.0481094
0.048105
0.0481008
0.0480968
0.0480931
0.0480895
0.0480861
0.048083
0.04808
0.0480773
0.0480747
0.0480723
0.0480701
0.048068
0.0480661
0.0480643
0.0480627
0.0480612
0.0480598
0.0480585
0.0480572
0.0480561
0.048055
0.0480539
0.0480529
0.0480519
0.0480509
0.04805
0.048049
0.0480481
0.0480472
0.0480463
0.0480454
0.0480445
0.0480436
0.0480427
0.0480418
0.0480409
0.04804
0.0480391
0.0480382
0.0480373
0.0480364
0.0480355
0.0480346
0.0480337
0.0480328
0.0480319
0.048031
0.0480301
0.0480291
0.0480282
0.0480273
0.0480264
0.0480255
0.0480246
0.0480237
0.0480228
0.0480219
0.048021
0.0480201
0.0480192
0.0480183
0.0480174
0.0480165
0.0480156
0.0480147
0.0480138
0.0480129
0.048012
0.0480111
0.0480102
0.0480093
0.0480084
0.0480075
0.0480066
0.0480057
0.0480048
0.0480039
0.048003
0.0480021
0.0480012
0.0480003
0.0479994
0.0479985
0.0479976
0.0479967
0.0479958
0.0479949
0.0479939
0.047993
0.0479921
0.0479912
0.0479903
0.0479894
0.0479885
0.0479876
0.0479867
0.0479858
0.0479849
0.047984
0.0479831
0.0479822
0.0479813
0.0479804
0.0479795
0.0479786