# vtk DataFile Version 2.0
FlowField
ASCII
DATASET STRUCTURED_GRID
DIMENSIONS 800 1 200
POINTS 160000 float
0 0 0
0.04 0 0
0.08 0 0
0.12 0 0
0.16 0 0
0.2 0 0
0.24 0 0
0.28 0 0
0.32 0 0
0.36 0 0
0.4 0 0
0.44 0 0
0.48 0 0
0.52 0 0
0.56 0 0
0.6 0 0
0.64 0 0
0.68 0 0
0.72 0 0
0.76 0 0
0.8 0 0
0.84 0 0
0.88 0 0
0.92 0 0
0.96 0 0
1 0 0
1.04 0 0
1.08 0 0
1.12 0 0
1.16 0 0
1.2 0 0
1.24 0 0
1.28 0 0
1.32 0 0
1.36 0 0
1.4 0 0
1.44 0 0
1.48 0 0
1.52 0 0
1.56 0 0
1.6 0 0
1.64 0 0
1.68 0 0
1.72 0 0
1.76 0 0
1.8 0 0
1.84 0 0
1.88 0 0
1.92 0 0
1.96 0 0
2 0 0
2.04 0 0
2.08 0 0
2.12 0 0
2.16 0 0
2.2 0 0
2.24 0 0
2.28 0 0
2.32 0 0
2.36 0 0
2.4 0 0
2.44 0 0
2.48 0 0
2.52 0 0
2.56 0 0
2.6 0 0
2.64 0 0
2.68 0 0
2.72 0 0
2.76 0 0
2.8 0 0
2.84 0 0
2.88 0 0
2.92 0 0
2.96 0 0
3 0 0
3.04 0 0
3.08 0 0
3.12 0 0
3.16 0 0
3.2 0 0
3.24 0 0
3.28 0 0
3.32 0 0
3.36 0 0
3.4 0 0
3.44 0 0
3.48 0 0
3.52 0 0
3.56 0 0
3.6 0 0
3.64 0 0
3.68 0 0
3.72 0 0
3.76 0 0
3.8 0 0
3.84 0 0
3.88 0 0
3.92 0 0
3.96 0 0
4 0 0
4.04 0 0
4.08 0 0
4.12 0 0
4.16 0 0
4.2 0 0
4.24 0 0
4.28 0 0
4.32 0 0
4.36 0 0
4.4 0 0
4.44 0 0
4.48 0 0
4.52 0 0
4.56 0 0
4.6 0 0
4.64 0 0
4.68 0 0
4.72 0 0
4.76 0 0
4.8 0 0
4.84 0 0
4.88 0 0
4.92 0 0
4.96 0 0
5 0 0
5.04 0 0
5.08 0 0
5.12 0 0
5.16 0 0
5.2 0 0
5.24 0 0
5.28 0 0
5.32 0 0
5.36 0 0
5.4 0 0
5.44 0 0
5.48 0 0
5.52 0 0
5.56 0 0
5.6 0 0
5.64 0 0
5.68 0 0
5.72 0 0
5.76 0 0
5.8 0 0
5.84 0 0
5.88 0 0
5.92 0 0
5.96 0 0
6 0 0
6.04 0 0
6.08 0 0
6.12 0 0
6.16 0 0
6.2 0 0
6.24 0 0
6.28 0 0
6.32 0 0
6.36 0 0
6.4 0 0
6.44 0 0
6.48 0 0
6.52 0 0
6.56 0 0
6.6 0 0
6.64 0 0
6.68 0 0
6.72 0 0
6.76 0 0
6.8 0 0
6.84 0 0
6.88 0 0
6.92 0 0
6.96 0 0
7 0 0
7.04 0 0
7.08 0 0
7.12 0 0
7.16 0 0
7.2 0 0
7.24 0 0
7.28 0 0
7.32 0 0
7.36 0 0
7.4 0 0
7.44 0 0
7.48 0 0
7.52 0 0
7.56 0 0
7.6 0 0
7.64 0 0
7.68 0 0
7.72 0 0
7.76 0 0
7.8 0 0
7.84 0 0
7.88 0 0
7.92 0 0
7.96 0 0
8 0 0
8.04 0 0
8.08 0 0
8.12 0 0
8.16 0 0
8.2 0 0
8.24 0 0
8.28 0 0
8.32 0 0
8.36 0 0
8.4 0 0
8.44 0 0
8.48 0 0
8.52 0 0
8.56 0 0
8.6 0 0
8.64 0 0
8.68 0 0
8.72 0 0
8.76 0 0
8.8 0 0
8.84 0 0
8.88 0 0
8.92 0 0
8.96 0 0
9 0 0
9.04 0 0
9.08 0 0
9.12 0 0
9.16 0 0
9.2 0 0
9.24 0 0
9.28 0 0
9.32 0 0
9.36 0 0
9.4 0 0
9.44 0 0
9.48 0 0
9.52 0 0
9.56 0 0
9.6 0 0
9.64 0 0
9.68 0 0
9.72 0 0
9.76 0 0
9.8 0 0
9.84 0 0
9.88 0 0
9.92 0 0
9.96 0 0
10 0 0
10.04 0 0
10.08 0 0
10.12 0 0
10.16 0 0
10.2 0 0
10.24 0 0
10.28 0 0
10.32 0 0
10.36 0 0
10.4 0 0
10.44 0 0
10.48 0 0
10.52 0 0
10.56 0 0
10.6 0 0
10.64 0 0
10.68 0 0
10.72 0 0
10.76 0 0
10.8 0 0
10.84 0 0
10.88 0 0
10.92 0 0
10.96 0 0
11 0 0
11.04 0 0
11.08 0 0
11.12 0 0
11.16 0 0
11.2 0 0
11.24 0 0
11.28 0 0
11.32 0 0
11.36 0 0
11.4 0 0
11.44 0 0
11.48 0 0
11.52 0 0
11.56 0 0
11.6 0 0
11.64 0 0
11.68 0 0
11.72 0 0
11.76 0 0
11.8 0 0
11.84 0 0
11.88 0 0
11.92 0 0
11.96 0 0
12 0 0
12.04 0 0
12.08 0 0
12.12 0 0
12.16 0 0
12.2 0 0
12.24 0 0
12.28 0 0
12.32 0 0
12.36 0 0
12.4 0 0
12.44 0 0
12.48 0 0
12.52 0 0
12.56 0 0
12.6 0 0
12.64 0 0
12.68 0 0
12.72 0 0
12.76 0 0
12.8 0 0
12.84 0 0
12.88 0 0
12.92 0 0
12.96 0 0
13 0 0
13.04 0 0
13.08 0 0
13.12 0 0
13.16 0 0
13.2 0 0
13.24 0 0
13.28 0 0
13.32 0 0
13.36 0 0
13.4 0 0
13.44 0 0
13.48 0 0
13.52 0 0
13.56 0 0
13.6 0 0
13.64 0 0
13.68 0 0
13.72 0 0
13.76 0 0
13.8 0 0
13.84 0 0
13.88 0 0
13.92 0 0
13.96 0 0
14 0 0
14.04 0 0
14.08 0 0
14.12 0 0
14.16 0 0
14.2 0 0
14.24 0 0
14.28 0 0
14.32 0 0
14.36 0 0
14.4 0 0
14.44 0 0
14.48 0 0
14.52 0 0
14.56 0 0
14.6 0 0
14.64 0 0
14.68 0 0
14.72 0 0
14.76 0 0
14.8 0 0
14.84 0 0
14.88 0 0
14.92 0 0
14.96 0 0
15 0 0
15.04 0 0
15.08 0 0
15.12 0 0
15.16 0 0
15.2 0 0
15.24 0 0
15.28 0 0
15.32 0 0
15.36 0 0
15.4 0 0
15.44 0 0
15.48 0 0
15.52 0 0
15.56 0 0
15.6 0 0
15.64 0 0
15.68 0 0
15.72 0 0
15.76 0 0
15.8 0 0
15.84 0 0
15.88 0 0
15.92 0 0
15.96 0 0
16 0 0
16.04 0 0
16.08 0 0
16.12 0 0
16.16 0 0
16.2 0 0
16.24 0 0
16.28 0 0
16.32 0 0
16.36 0 0
16.4 0 0
16.44 0 0
16.48 0 0
16.52 0 0
16.56 0 0
16.6 0 0
16.64 0 0
16.68 0 0
16.72 0 0
16.76 0 0
16.8 0 0
16.84 0 0
16.88 0 0
16.92 0 0
16.96 0 0
17 0 0
17.04 0 0
17.08 0 0
17.12 0 0
17.16 0 0
17.2 0 0
17.24 0 0
17.28 0 0
17.32 0 0
17.36 0 0
17.4 0 0
17.44 0 0
17.48 0 0
17.52 0 0
17.56 0 0
17.6 0 0
17.64 0 0
17.68 0 0
17.72 0 0
17.76 0 0
17.8 0 0
17.84 0 0
17.88 0 0
17.92 0 0
17.96 0 0
18 0 0
18.04 0 0
18.08 0 0
18.12 0 0
18.16 0 0
18.2 0 0
18.24 0 0
18.28 0 0
18.32 0 0
18.36 0 0
18.4 0 0
18.44 0 0
18.48 0 0
18.52 0 0
18.56 0 0
18.6 0 0
18.64 0 0
18.68 0 0
18.72 0 0
18.76 0 0
18.8 0 0
18.84 0 0
18.88 0 0
18.92 0 0
18.96 0 0
19 0 0
19.04 0 0
19.08 0 0
19.12 0 0
19.16 0 0
19.2 0 0
19.24 0 0
19.28 0 0
19.32 0 0
19.36 0 0
19.4 0 0
19.44 0 0
19.48 0 0
19.52 0 0
19.56 0 0
19.6 0 0
19.64 0 0
19.68 0 0
19.72 0 0
19.76 0 0
19.8 0 0
19.84 0 0
19.88 0 0
19.92 0 0
19.96 0 0
20 0 0
20.04 0 0
20.08 0 0
20.12 0 0
20.16 0 0
20.2 0 0
20.24 0 0
20.28 0 0
20.32 0 0
20.36 0 0
20.4 0 0
20.44 0 0
20.48 0 0
20.52 0 0
20.56 0 0
20.6 0 0
20.64 0 0
20.68 0 0
20.72 0 0
20.76 0 0
20.8 0 0
20.84 0 0
20.88 0 0
20.92 0 0
20.96 0 0
21 0 0
21.04 0 0
21.08 0 0
21.12 0 0
21.16 0 0
21.2 0 0
21.24 0 0
21.28 0 0
21.32 0 0
21.36 0 0
21.4 0 0
21.44 0 0
21.48 0 0
21.52 0 0
21.56 0 0
21.6 0 0
21.64 0 0
21.68 0 0
21.72 0 0
21.76 0 0
21.8 0 0
21.84 0 0
21.88 0 0
21.92 0 0
21.96 0 0
22 0 0
22.04 0 0
22.08 0 0
22.12 0 0
22.16 0 0
22.2 0 0
22.24 0 0
22.28 0 0
22.32 0 0
22.36 0 0
22.4 0 0
22.44 0 0
22.48 0 0
22.52 0 0
22.56 0 0
22.6 0 0
22.64 0 0
22.68 0 0
22.72 0 0
22.76 0 0
22.8 0 0
22.84 0 0
22.88 0 0
22.92 0 0
22.96 0 0
23 0 0
23.04 0 0
23.08 0 0
23.12 0 0
23.16 0 0
23.2 0 0
23.24 0 0
23.28 0 0
23.32 0 0
23.36 0 0
23.4 0 0
23.44 0 0
23.48 0 0
23.52 0 0
23.56 0 0
23.6 0 0
23.64 0 0
23.68 0 0
23.72 0 0
23.76 0 0
23.8 0 0
23.84 0 0
23.88 0 0
23.92 0 0
23.96 0 0
24 0 0
24.04 0 0
24.08 0 0
24.12 0 0
24.16 0 0
24.2 0 0
24.24 0 0
24.28 0 0
24.32 0 0
24.36 0 0
24.4 0 0
24.44 0 0
24.48 0 0
24.52 0 0
24.56 0 0
24.6 0 0
24.64 0 0
24.68 0 0
24.72 0 0
24.76 0 0
24.8 0 0
24.84 0 0
24.88 0 0
24.92 0 0
24.96 0 0
25 0 0
25.04 0 0
25.08 0 0
25.12 0 0
25.16 0 0
25.2 0 0
25.24 0 0
25.28 0 0
25.32 0 0
25.36 0 0
25.4 0 0
25.44 0 0
25.48 0 0
25.52 0 0
25.56 0 0
25.6 0 0
25.64 0 0
25.68 0 0
25.72 0 0
25.76 0 0
25.8 0 0
25.84 0 0
25.88 0 0
25.92 0 0
25.96 0 0
26 0 0
26.04 0 0
26.08 0 0
26.12 0 0
26.16 0 0
26.2 0 0
26.24 0 0
26.28 0 0
26.32 0 0
26.36 0 0
26.4 0 0
26.44 0 0
26.48 0 0
26.52 0 0
26.56 0 0
26.6 0 0
26.64 0 0
26.68 0 0
26.72 0 0
26.76 0 0
26.8 0 0
26.84 0 0
26.88 0 0
26.92 0 0
26.96 0 0
27 0 0
27.04 0 0
27.08 0 0
27.12 0 0
27.16 0 0
27.2 0 0
27.24 0 0
27.28 0 0
27.32 0 0
27.36 0 0
27.4 0 0
27.44 0 0
27.48 0 0
27.52 0 0
27.56 0 0
27.6 0 0
27.64 0 0
27.68 0 0
27.72 0 0
27.76 0 0
27.8 0 0
27.84 0 0
27.88 0 0
27.92 0 0
27.96 0 0
28 0 0
28.04 0 0
28.08 0 0
28.12 0 0
28.16 0 0
28.2 0 0
28.24 0 0
28.28 0 0
28.32 0 0
28.36 0 0
28.4 0 0
28.44 0 0
28.48 0 0
28.52 0 0
28.56 0 0
28.6 0 0
28.64 0 0
28.68 0 0
28.72 0 0
28.76 0 0
28.8 0 0
28.84 0 0
28.88 0 0
28.92 0 0
28.96 0 0
29 0 0
29.04 0 0
29.08 0 0
29.12 0 0
29.16 0 0
29.2 0 0
29.24 0 0
29.28 0 0
29.32 0 0
29.36 0 0
29.4 0 0
29.44 0 0
29.48 0 0
29.52 0 0
29.56 0 0
29.6 0 0
29.64 0 0
29.68 0 0
29.72 0 0
29.76 0 0
29.8 0 0
29.84 0 0
29.88 0 0
29.92 0 0
29.96 0 0
30 0 0
30.04 0 0
30.08 0 0
30.12 0 0
30.16 0 0
30.2 0 0
30.24 0 0
30.28 0 0
30.32 0 0
30.36 0 0
30.4 0 0
30.44 0 0
30.48 0 0
30.52 0 0
30.56 0 0
30.6 0 0
30.64 0 0
30.68 0 0
30.72 0 0
30.76 0 0
30.8 0 0
30.84 0 0
30.88 0 0
30.92 0 0
30.96 0 0
31 0 0
31.04 0 0
31.08 0 0
31.12 0 0
31.16 0 0
31.2 0 0
31.24 0 0
31.28 0 0
31.32 0 0
31.36 0 0
31.4 0 0
31.44 0 0
31.48 0 0
31.52 0 0
31.56 0 0
31.6 0 0
31.64 0 0
31.68 0 0
31.72 0 0
31.76 0 0
31.8 0 0
31.84 0 0
31.88 0 0
31.92 0 0
31.96 0 0
0 0.005 0
0.04 0.005 0
0.08 0.005 0
0.12 0.005 0
0.16 0.005 0
0.2 0.005 0
0.24 0.005 0
0.28 0.005 0
0.32 0.005 0
0.36 0.005 0
0.4 0.005 0
0.44 0.005 0
0.48 0.005 0
0.52 0.005 0
0.56 0.005 0
0.6 0.005 0
0.64 0.005 0
0.68 0.005 0
0.72 0.005 0
0.76 0.005 0
0.8 0.005 0
0.84 0.005 0
0.88 0.005 0
0.92 0.005 0
0.96 0.005 0
1 0.005 0
1.04 0.005 0
1.08 0.005 0
1.12 0.005 0
1.16 0.005 0
1.2 0.005 0
1.24 0.005 0
1.28 0.005 0
1.32 0.005 0
1.36 0.005 0
1.4 0.005 0
1.44 0.005 0
1.48 0.005 0
1.52 0.005 0
1.56 0.005 0
1.6 0.005 0
1.64 0.005 0
1.68 0.005 0
1.72 0.005 0
1.76 0.005 0
1.8 0.005 0
1.84 0.005 0
1.88 0.005 0
1.92 0.005 0
1.96 0.005 0
2 0.005 0
2.04 0.005 0
2.08 0.005 0
2.12 0.005 0
2.16 0.005 0
2.2 0.005 0
2.24 0.005 0
2.28 0.005 0
2.32 0.005 0
2.36 0.005 0
2.4 0.005 0
2.44 0.005 0
2.48 0.005 0
2.52 0.005 0
2.56 0.005 0
2.6 0.005 0
2.64 0.005 0
2.68 0.005 0
2.72 0.005 0
2.76 0.005 0
2.8 0.005 0
2.84 0.005 0
2.88 0.005 0
2.92 0.005 0
2.96 0.005 0
3 0.005 0
3.04 0.005 0
3.08 0.005 0
3.12 0.005 0
3.16 0.005 0
3.2 0.005 0
3.24 0.005 0
3.28 0.005 0
3.32 0.005 0
3.36 0.005 0
3.4 0.005 0
3.44 0.005 0
3.48 0.005 0
3.52 0.005 0
3.56 0.005 0
3.6 0.005 0
3.64 0.005 0
3.68 0.005 0
3.72 0.005 0
3.76 0.005 0
3.8 0.005 0
3.84 0.005 0
3.88 0.005 0
3.92 0.005 0
3.96 0.005 0
4 0.005 0
4.04 0.005 0
4.08 0.005 0
4.12 0.005 0
4.16 0.005 0
4.2 0.005 0
4.24 0.005 0
4.28 0.005 0
4.32 0.005 0
4.36 0.005 0
4.4 0.005 0
4.44 0.005 0
4.48 0.005 0
4.52 0.005 0
4.56 0.005 0
4.6 0.005 0
4.64 0.005 0
4.68 0.005 0
4.72 0.005 0
4.76 0.005 0
4.8 0.005 0
4.84 0.005 0
4.88 0.005 0
4.92 0.005 0
4.96 0.005 0
5 0.005 0
5.04 0.005 0
5.08 0.005 0
5.12 0.005 0
5.16 0.005 0
5.2 0.005 0
5.24 0.005 0
5.28 0.005 0
5.32 0.005 0
5.36 0.005 0
5.4 0.005 0
5.44 0.005 0
5.48 0.005 0
5.52 0.005 0
5.56 0.005 0
5.6 0.005 0
5.64 0.005 0
5.68 0.005 0
5.72 0.005 0
5.76 0.005 0
5.8 0.005 0
5.84 0.005 0
5.88 0.005 0
5.92 0.005 0
5.96 0.005 0
6 0.005 0
6.04 0.005 0
6.08 0.005 0
6.12 0.005 0
6.16 0.005 0
6.2 0.005 0
6.24 0.005 0
6.28 0.005 0
6.32 0.005 0
6.36 0.005 0
6.4 0.005 0
6.44 0.005 0
6.48 0.005 0
6.52 0.005 0
6.56 0.005 0
6.6 0.005 0
6.64 0.005 0
6.68 0.005 0
6.72 0.005 0
6.76 0.005 0
6.8 0.005 0
6.84 0.005 0
6.88 0.005 0
6.92 0.005 0
6.96 0.005 0
7 0.005 0
7.04 0.005 0
7.08 0.005 0
7.12 0.005 0
7.16 0.005 0
7.2 0.005 0
7.24 0.005 0
7.28 0.005 0
7.32 0.005 0
7.36 0.005 0
7.4 0.005 0
[...]
POINT_DATA 160000

SCALARS p float 1
LOOKUP_TABLE default
1
60.8608
58.6454
58.3905
58.3303
58.3039
58.2879
58.2763
58.267
58.2592
58.2522
58.2459
58.24
58.2345
58.2292
58.224
58.2191
58.2143
58.2095
58.2049
58.2004
58.1959
58.1915
58.1872
58.1829
58.1787
58.1745
58.1704
58.1664
58.1624
58.1584
58.1545
58.1506
58.1468
58.143
58.1392
58.1355
58.1318
58.1282
58.1246
58.121
58.1175
58.114
58.1106
58.1071
58.1037
58.1004
58.097
58.0937
58.0905
58.0872
58.084
58.0808
58.0776
58.0745
58.0713
58.0682
58.0651
58.0621
58.0591
58.056
58.0531
58.0501
58.0471
58.0442
58.0413
58.0384
58.0355
58.0327
58.0298
58.027
58.0242
58.0214
58.0186
58.0159
58.0131
58.0104
58.0077
58.005
58.0023
57.9996
57.997
57.9943
57.9917
57.9891
57.9865
57.9839
57.9813
57.9788
57.9762
57.9737
57.9711
57.9686
57.9661
57.9636
57.9611
57.9586
57.9562
57.9537
57.9513
57.9488
57.9464
57.944
57.9416
57.9392
57.9368
57.9344
57.9321
57.9297
57.9273
57.925
57.9227
57.9203
57.918
57.9157
57.9134
57.9111
57.9088
57.9065
57.9043
57.902
57.8998
57.8975
57.8953
57.893
57.8908
57.8886
57.8864
57.8842
57.882
57.8798
57.8776
57.8754
57.8732
57.871
57.8689
57.8667
57.8646
57.8624
57.8603
57.8582
57.856
57.8539
57.8518
57.8497
57.8476
57.8455
57.8434
57.8413
57.8392
57.8372
57.8351
57.833
57.831
57.8289
57.8268
57.8248
57.8228
57.8207
57.8187
57.8167
57.8146
57.8126
57.8106
57.8086
57.8066
57.8046
57.8026
57.8006
57.7986
57.7966
57.7946
57.7927
57.7907
57.7887
57.7868
57.7848
57.7829
57.7809
57.779
57.777
57.7751
57.7731
57.7712
57.7693
57.7673
57.7654
57.7635
57.7616
57.7597
57.7578
57.7559
57.754
57.7521
57.7502
57.7483
57.7464
57.7445
57.7426
57.7407
57.7389
57.737
57.7351
57.7333
57.7314
57.7295
57.7277
57.7258
57.724
57.7221
57.7203
57.7184
57.7166
57.7148
57.7129
57.7111
57.7093
57.7074
57.7056
57.7038
57.702
57.7002
57.6983
57.6965
57.6947
57.6929
57.6911
57.6893
57.6875
57.6857
57.6839
57.6821
57.6803
57.6785
57.6768
57.675
57.6732
57.6714
57.6696
57.6679
57.6661
57.6643
57.6625
57.6608
57.659
57.6573
57.6555
57.6537
57.652
57.6502
57.6485
57.6467
57.645
57.6432
57.6415
57.6397
57.638
57.6363
57.6345
57.6328
57.631
57.6293
57.6276
57.6258
57.6241
57.6224
57.6207
57.6189
57.6172
57.6155
57.6138
57.6121
57.6104
57.6086
57.6069
57.6052
57.6035
57.6018
57.6001
57.5984
57.5967
57.595
57.5933
57.5916
57.5899
57.5882
57.5865
57.5848
57.5831
57.5814
57.5797
57.578
57.5764
57.5747
57.573
57.5713
57.5696
57.5679
57.5663
57.5646
57.5629
57.5612
57.5596
57.5579
57.5562
57.5545
57.5529
57.5512
57.5495
57.5479
57.5462
57.5445
57.5429
57.5412
57.5396
57.5379
57.5362
57.5346
57.5329
57.5313
57.5296
57.528
57.5263
57.5246
57.523
57.5213
57.5197
57.518
57.5164
57.5147
57.5131
57.5115
57.5098
57.5082
57.5065
57.5049
57.5032
57.5016
57.5
57.4983
57.4967
57.4951
57.4934
57.4918
57.4901
57.4885
57.4869
57.4852
57.4836
57.482
57.4804
57.4787
57.4771
57.4755
57.4738
57.4722
57.4706
57.469
57.4673
57.4657
57.4641
57.4625
57.4609
57.4592
57.4576
57.456
57.4544
57.4528
57.4511
57.4495
57.4479
57.4463
57.4447
57.4431
57.4414
57.4398
57.4382
57.4366
57.435
57.4334
57.4318
57.4302
57.4285
57.4269
57.4253
57.4237
57.4221
57.4205
57.4189
57.4173
57.4157
57.4141
57.4125
57.4109
57.4093
57.4077
57.4061
57.4045
57.4029
57.4013
57.3997
57.3981
57.3965
57.3949
57.3933
57.3917
57.3901
57.3885
57.3869
57.3853
57.3837
57.3821
57.3805
57.3789
57.3773
57.3757
57.3741
57.3725
57.3709
57.3693
57.3677
57.3661
57.3646
57.363
57.3614
57.3598
57.3582
57.3566
57.355
57.3534
57.3518
57.3502
57.3487
57.3471
57.3455
57.3439
57.3423
57.3407
57.3391
57.3376
57.336
57.3344
57.3328
57.3312
57.3296
57.328
57.3265
57.3249
57.3233
57.3217
57.3201
57.3185
57.317
57.3154
57.3138
57.3122
57.3106
57.3091
57.3075
57.3059
57.3043
57.3027
57.3012
57.2996
57.298
57.2964
57.2948
57.2933
57.2917
57.2901
57.2885
57.287
57.2854
57.2838
57.2822
57.2807
57.2791
57.2775
57.2759
57.2744
57.2728
57.2712
57.2696
57.2681
57.2665
57.2649
57.2633
57.2618
57.2602
57.2586
57.257
57.2555
57.2539
57.2523
57.2508
57.2492
57.2476
57.246
57.2445
57.2429
57.2413
57.2398
57.2382
57.2366
57.235
57.2335
57.2319
57.2303
57.2288
57.2272
57.2256
57.2241
57.2225
57.2209
57.2194
57.2178
57.2162
57.2147
57.2131
57.2115
57.21
57.2084
57.2068
57.2053
57.2037
57.2021
57.2006
57.199
57.1974
57.1959
57.1943
57.1927
57.1912
57.1896
57.188
57.1865
57.1849
57.1833
57.1818
57.1802
57.1786
57.1771
57.1755
57.1739
57.1724
57.1708
57.1693
57.1677
57.1661
57.1646
57.163
57.1614
57.1599
57.1583
57.1568
57.1552
57.1536
57.1521
57.1505
57.1489
57.1474
57.1458
57.1443
57.1427
57.1411
57.1396
57.138
57.1364
57.1349
57.1333
57.1318
57.1302
57.1286
57.1271
57.1255
57.124
57.1224
57.1208
57.1193
57.1177
57.1162
57.1146
57.113
57.1115
57.1099
57.1084
57.1068
57.1052
57.1037
57.1021
57.1006
57.099
57.0975
57.0959
57.0943
57.0928
57.0912
57.0897
57.0881
57.0865
57.085
57.0834
57.0819
57.0803
57.0788
57.0772
57.0756
57.0741
57.0725
57.071
57.0694
57.0679
57.0663
57.0647
57.0632
57.0616
57.0601
57.0585
57.057
57.0554
57.0539
57.0523
57.0507
57.0492
57.0476
57.0461
57.0445
57.043
57.0414
57.0398
57.0383
57.0367
57.0352
57.0336
57.0321
57.0305
57.029
57.0274
57.0259
57.0243
57.0227
57.0212
57.0196
57.0181
57.0165
57.015
57.0134
57.0119
57.0103
57.0088
57.0072
57.0056
57.0041
57.0025
57.001
56.9994
56.9979
56.9963
56.9948
56.9932
56.9917
56.9901
56.9886
56.987
56.9855
56.9839
56.9823
56.9808
56.9792
56.9777
56.9761
56.9746
56.973
56.9715
56.9699
56.9684
56.9668
56.9653
56.9637
56.9622
56.9606
56.9591
56.9575
56.956
56.9544
56.9528
56.9513
56.9497
56.9482
56.9466
56.9451
56.9435
56.942
56.9404
56.9389
56.9373
56.9358
56.9342
56.9327
56.9311
56.9296
56.928
56.9265
56.9249
56.9234
56.9218
56.9203
56.9187
56.9172
56.9156
56.9141
56.9125
56.911
56.9094
56.9079
56.9063
56.9048
56.9032
56.9017
56.9001
56.8986
56.897
56.8955
56.8939
56.8924
56.8908
56.8893
56.8877
56.8862
56.8846
56.8831
56.8815
56.88
56.8784
56.8769
56.8753
56.8738
56.8722
56.8707
56.8691
56.8676
56.866
56.8645
56.8629
56.8614
56.8598
56.8583
56.8567
56.8552
56.8536
56.8521
56.8505
56.849
56.8474
56.8459
56.8443
56.8428
56.8412
56.8397
56.8381
56.8366
56.8351
56.8335
56.832
56.8304
56.8289
56.8273
56.8258
56.8242
56.8227
56.8211
56.8196
56.818
56.8165
56.8149
56.8134
56.8118
56.8103
56.8087
56.8072
56.8056
56.8041
56.8025
56.801
56.7995
56.7979
56.7964
56.7948
56.7933
56.7917
56.7902
56.7886
56.7871
56.7855
56.784
56.7824
56.7809
56.7794
56.7778
1
60.8608
60.8608
58.6454
58.3905
58.3303
58.3039
58.2879
58.2763
58.267
58.2592
58.2522
58.2459
58.24
58.2345
58.2292
58.224
58.2191
58.2143
58.2095
58.2049
58.2004
58.1959
58.1915
58.1872
58.1829
58.1787
58.1745
58.1704
58.1664
58.1624
58.1584
58.1545
58.1506
58.1468
58.143
58.1392
58.1355
58.1318
58.1282
58.1246
58.121
58.1175
58.114
58.1106
58.1071
58.1037
58.1004
58.097
58.0937
58.0905
58.0872
58.084
58.0808
58.0776
58.0745
58.0713
58.0682
58.0651
58.0621
58.0591
58.056
58.0531
58.0501
58.0471
58.0442
58.0413
58.0384
58.0355
58.0327
58.0298
58.027
58.0242
58.0214
58.0186
58.0159
58.0131
58.0104
58.0077
58.005
58.0023
57.9996
57.997
57.9943
57.9917
57.9891
57.9865
57.9839
57.9813
57.9788
57.9762
57.9737
57.9711
57.9686
57.9661
57.9636
57.9611
57.9586
57.9562
57.9537
57.9513
57.9488
57.9464
57.944
57.9416
57.9392
57.9368
57.9344
57.9321
57.9297
57.9273
57.925
57.9227
57.9203
57.918
57.9157
57.9134
57.9111
57.9088
57.9065
57.9043
57.902
57.8998
57.8975
57.8953
57.893
57.8908
57.8886
57.8864
57.8842
57.882
57.8798
57.8776
57.8754
57.8732
57.871
57.8689
57.8667
57.8646
57.8624
57.8603
57.8582
57.856
57.8539
57.8518
57.8497
57.8476
57.8455
57.8434
57.8413
57.8392
57.8372
57.8351
57.833
57.831
57.8289
57.8268
57.8248
57.8228
57.8207
57.8187
57.8167
57.8146
57.8126
57.8106
57.8086
57.8066
57.8046
57.8026
57.8006
57.7986
57.7966
57.7946
57.7927
57.7907
57.7887
57.7868
57.7848
57.7829
57.7809
57.779
57.777
57.7751
57.7731
57.7712
57.7693
57.7673
57.7654
57.7635
57.7616
57.7597
57.7578
57.7559
57.754
57.7521
57.7502
57.7483
57.7464
57.7445
57.7426
57.7407
57.7389
57.737
57.7351
57.7333
57.7314
57.7295
57.7277
57.7258
57.724
57.7221
57.7203
57.7184
57.7166
57.7148
57.7129
57.7111
57.7093
57.7074
57.7056
57.7038
57.702
57.7002
57.6983
57.6965
57.6947
57.6929
57.6911
57.6893
57.6875
57.6857
57.6839
57.6821
57.6803
57.6785
57.6768
57.675
57.6732
57.6714
57.6696
57.6679
57.6661
57.6643
57.6625
57.6608
57.659
57.6573
57.6555
57.6537
57.652
57.6502
57.6485
57.6467
57.645
57.6432
57.6415
57.6397
57.638
57.6363
57.6345
57.6328
57.631
57.6293
57.6276
57.6258
57.6241
57.6224
57.6207
57.6189
57.6172
57.6155
57.6138
57.6121
57.6104
57.6086
57.6069
57.6052
57.6035
57.6018
57.6001
57.5984
57.5967
57.595
57.5933
57.5916
57.5899
57.5882
57.5865
57.5848
57.5831
57.5814
57.5797
57.578
57.5764
57.5747
57.573
57.5713
57.5696
57.5679
57.5663
57.5646
57.5629
57.5612
57.5596
57.5579
57.5562
57.5545
57.5529
57.5512
57.5495
57.5479
57.5462
57.5445
57.5429
57.5412
57.5396
57.5379
57.5362
57.5346
57.5329
57.5313
57.5296
57.528
57.5263
57.5246
57.523
57.5213
57.5197
57.518
57.5164
57.5147
57.5131
57.5115
57.5098
57.5082
57.5065
57.5049
57.5032
57.5016
57.5
57.4983
57.4967
57.4951
57.4934
57.4918
57.4901
57.4885
57.4869
57.4852
57.4836
57.482
57.4804
57.4787
57.4771
57.4755
57.4738
57.4722
57.4706
57.469
57.4673
57.4657
57.4641
57.4625
57.4609
57.4592
57.4576
57.456
57.4544
57.4528
57.4511
57.4495
57.4479
57.4463
57.4447
57.4431
57.4414
57.4398
57.4382
57.4366
57.435
57.4334
57.4318
57.4302
57.4285
57.4269
57.4253
57.4237
57.4221
57.4205
57.4189
57.4173
57.4157
57.4141
57.4125
57.4109
57.4093
57.4077
57.4061
57.4045
57.4029
57.4013
57.3997
57.3981
57.3965
57.3949
57.3933
57.3917
57.3901
57.3885
57.3869
57.3853
57.3837
57.3821
57.3805
57.3789
57.3773
57.3757
57.3741
57.3725
57.3709
57.3693
57.3677
57.3661
57.3646
57.363
57.3614
57.3598
57.3582
57.3566
57.355
57.3534
57.3518
57.3502
57.3487
57.3471
57.3455
57.3439
57.3423
57.3407
57.3391
57.3376
57.336
57.3344
57.3328
57.3312
57.3296
57.328
57.3265
57.3249
57.3233
57.3217
57.3201
57.3185
57.317
57.3154
57.3138
57.3122
57.3106
57.3091
57.3075
57.3059
57.3043
57.3027
57.3012
57.2996
57.298
57.2964
57.2948
57.2933
57.2917
57.2901
57.2885
57.287
57.2854
57.2838
57.2822
57.2807
57.2791
57.2775
57.2759
57.2744
57.2728
57.2712
57.2696
57.2681
57.2665
57.2649
57.2633
57.2618
57.2602
57.2586
57.257
57.2555
57.2539
57.2523
57.2508
57.2492
57.2476
57.246
57.2445
57.2429
57.2413
57.2398
57.2382
57.2366
57.235
57.2335
57.2319
57.2303
57.2288
57.2272
57.2256
57.2241
57.2225
57.2209
57.2194
57.2178
57.2162
57.2147
57.2131
57.2115
57.21
57.2084
57.2068
57.2053
57.2037
57.2021
57.2006
57.199
57.1974
57.1959
57.1943
57.1927
57.1912
57.1896
57.188
57.1865
57.1849
57.1833
57.1818
57.1802
57.1786
57.1771
57.1755
57.1739
57.1724
57.1708
57.1693
57.1677
57.1661
57.1646
57.163
57.1614
57.1599
57.1583
57.1568
57.1552
57.1536
57.1521
57.1505
57.1489
57.1474
57.1458
57.1443
57.1427
57.1411
57.1396
57.138
57.1364
57.1349
57.1333
57.1318
57.1302
57.1286
57.1271
57.1255
57.124
57.1224
57.1208
57.1193
57.1177
57.1162
57.1146
57.113
57.1115
57.1099
57.1084
57.1068
57.1052
57.1037
57.1021
57.1006
57.099
57.0975
57.0959
57.0943
57.0928
57.0912
57.0897
57.0881
57.0865
57.085
57.0834
57.0819
57.0803
57.0788
57.0772
57.0756
57.0741
57.0725
57.071
57.0694
57.0679
57.0663
57.0647
57.0632
57.0616
57.0601
57.0585
57.057
57.0554
57.0539
57.0523
57.0507
57.0492
57.0476
57.0461
57.0445
57.043
57.0414
57.0398
57.0383
57.0367
57.0352
57.0336
57.0321
57.0305
57.029
57.0274
57.0259
57.0243
57.0227
57.0212
57.0196
57.0181
57.0165
57.015
57.0134
57.0119
57.0103
57.0088
57.0072
57.0056
57.0041
57.0025
57.001
56.9994
56.9979
56.9963
56.9948
56.9932
56.9917
56.9901
56.9886
56.987
56.9855
56.9839
56.9823
56.9808
56.9792
56.9777
56.9761
56.9746
56.973
56.9715
56.9699
56.9684
56.9668
56.9653
56.9637
56.9622
56.9606
56.9591
56.9575
56.956
56.9544
56.9528
56.9513
56.9497
56.9482
56.9466
56.9451
56.9435
56.942
56.9404
56.9389
56.9373
56.9358
56.9342
56.9327
56.9311
56.9296
56.928
56.9265
56.9249
56.9234
56.9218
56.9203
56.9187
56.9172
56.9156
56.9141
56.9125
56.911
56.9094
56.9079
56.9063
56.9048
56.9032
56.9017
56.9001
56.8986
56.897
56.8955
56.8939
56.8924
56.8908
56.8893
56.8877
56.8862
56.8846
56.8831
56.8815
56.88
56.8784
56.8769
56.8753
56.8738
56.8722
56.8707
56.8691
56.8676
56.866
56.8645
56.8629
56.8614
56.8598
56.8583
56.8567
56.8552
56.8536
56.8521
56.8505
56.849
56.8474
56.8459
56.8443
56.8428
56.8412
56.8397
56.8381
56.8366
56.8351
56.8335
56.832
56.8304
56.8289
56.8273
56.8258
56.8242
56.8227
56.8211
56.8196
56.818
56.8165
56.8149
56.8134
56.8118
56.8103
56.8087
56.8072
56.8056
56.8041
56.8025
56.801
56.7995
56.7979
56.7964
56.7948
56.7933
56.7917
56.7902
56.7886
56.7871
56.7855
56.784
56.7824
56.7809
56.7794
56.7778
56.7778
60.2138
60.2138
58.6558
58.4
58.3345
58.3061
58.2893
58.2773
58.2678
58.2597
58.2527
58.2463
58.2403
58.2347
58.2294
58.2242
58.2193
58.2144
58.2097
58.205
58.2005
58.196
58.1916
58.1873
58.183
58.1788
58.1746
58.1705
58.1664
58.1624
58.1584
58.1545
58.1506
58.1468
58.143
58.1393
58.1355
58.1319
58.1282
58.1246
58.1211
58.1175
58.1141
58.1106
58.1072
58.1038
58.1004
58.0971
58.0938
58.0905
58.0872
58.084
58.0808
58.0776
58.0745
58.0714
58.0682
58.0652
58.0621
58.0591
58.0561
58.0531
58.0501
58.0472
58.0442
58.0413
58.0384
58.0355
58.0327
58.0298
58.027
58.0242
58.0214
58.0186
58.0159
58.0131
58.0104
58.0077
58.005
58.0023
57.9997
57.997
57.9944
57.9917
57.9891
57.9865
57.9839
57.9813
57.9788
57.9762
57.9737
57.9711
57.9686
57.9661
57.9636
57.9611
57.9586
57.9562
57.9537
57.9513
57.9488
57.9464
57.944
57.9416
57.9392
57.9368
57.9344
57.9321
57.9297
57.9273
57.925
57.9227
57.9203
57.918
57.9157
57.9134
57.9111
57.9088
57.9066
57.9043
57.902
57.8998
57.8975
57.8953
57.893
57.8908
57.8886
57.8864
57.8842
57.882
57.8798
57.8776
57.8754
57.8732
57.8711
57.8689
57.8667
57.8646
57.8624
57.8603
57.8582
57.856
57.8539
57.8518
57.8497
57.8476
57.8455
57.8434
57.8413
57.8392
57.8372
57.8351
57.833
57.831
57.8289
57.8269
57.8248
57.8228
57.8207
57.8187
57.8167
57.8146
57.8126
57.8106
57.8086
57.8066
57.8046
57.8026
57.8006
57.7986
57.7966
57.7947
57.7927
57.7907
57.7887
57.7868
57.7848
57.7829
57.7809
57.779
57.777
57.7751
57.7731
57.7712
57.7693
57.7674
57.7654
57.7635
57.7616
57.7597
57.7578
57.7559
57.754
57.7521
57.7502
57.7483
57.7464
57.7445
57.7426
57.7408
57.7389
57.737
57.7351
57.7333
57.7314
57.7295
57.7277
57.7258
57.724
57.7221
57.7203
57.7184
57.7166
57.7148
57.7129
57.7111
57.7093
57.7074
57.7056
57.7038
57.702
57.7002
57.6983
57.6965
57.6947
57.6929
57.6911
57.6893
57.6875
57.6857
57.6839
57.6821
57.6803
57.6785
57.6768
57.675
57.6732
57.6714
57.6696
57.6679
57.6661
57.6643
57.6626
57.6608
57.659
57.6573
57.6555
57.6537
57.652
57.6502
57.6485
57.6467
57.645
57.6432
57.6415
57.6397
57.638
57.6363
57.6345
57.6328
57.631
57.6293
57.6276
57.6259
57.6241
57.6224
57.6207
57.619
57.6172
57.6155
57.6138
57.6121
57.6104
57.6086
57.6069
57.6052
57.6035
57.6018
57.6001
57.5984
57.5967
57.595
57.5933
57.5916
57.5899
57.5882
57.5865
57.5848
57.5831
57.5814
57.5797
57.5781
57.5764
57.5747
57.573
57.5713
57.5696
57.568
57.5663
57.5646
57.5629
57.5612
57.5596
57.5579
57.5562
57.5545
57.5529
57.5512
57.5495
57.5479
57.5462
57.5445
57.5429
57.5412
57.5396
57.5379
57.5362
57.5346
57.5329
57.5313
57.5296
57.528
57.5263
57.5246
57.523
57.5213
57.5197
57.518
57.5164
57.5148
57.5131
57.5115
57.5098
57.5082
57.5065
57.5049
57.5032
57.5016
57.5
57.4983
57.4967
57.4951
57.4934
57.4918
57.4902
57.4885
57.4869
57.4853
57.4836
57.482
57.4804
57.4787
57.4771
57.4755
57.4738
57.4722
57.4706
57.469
57.4673
57.4657
57.4641
57.4625
57.4609
57.4592
57.4576
57.456
57.4544
57.4528
57.4511
57.4495
57.4479
57.4463
57.4447
57.4431
57.4414
57.4398
57.4382
57.4366
57.435
57.4334
57.4318
57.4302
57.4286
57.4269
57.4253
57.4237
57.4221
57.4205
57.4189
57.4173
57.4157
57.4141
57.4125
57.4109
57.4093
57.4077
57.4061
57.4045
57.4029
57.4013
57.3997
57.3981
57.3965
57.3949
57.3933
57.3917
57.3901
57.3885
57.3869
57.3853
57.3837
57.3821
57.3805
57.3789
57.3773
57.3757
57.3741
57.3725
57.3709
57.3693
57.3677
57.3662
57.3646
57.363
57.3614
57.3598
57.3582
57.3566
57.355
57.3534
57.3518
57.3503
57.3487
57.3471
57.3455
57.3439
57.3423
57.3407
57.3391
57.3376
57.336
57.3344
57.3328
57.3312
57.3296
57.328
57.3265
57.3249
57.3233
57.3217
57.3201
57.3186
57.317
57.3154
57.3138
57.3122
57.3106
57.3091
57.3075
57.3059
57.3043
57.3027
57.3012
57.2996
57.298
57.2964
57.2949
57.2933
57.2917
57.2901
57.2885
57.287
57.2854
57.2838
57.2822
57.2807
57.2791
57.2775
57.2759
57.2744
57.2728
57.2712
57.2696
57.2681
57.2665
57.2649
57.2633
57.2618
57.2602
57.2586
57.257
57.2555
57.2539
57.2523
57.2508
57.2492
57.2476
57.246
57.2445
57.2429
57.2413
57.2398
57.2382
57.2366
57.2351
57.2335
57.2319
57.2303
57.2288
57.2272
57.2256
57.2241
57.2225
57.2209
57.2194
57.2178
57.2162
57.2147
57.2131
57.2115
57.21
57.2084
57.2068
57.2053
57.2037
57.2021
57.2006
57.199
57.1974
57.1959
57.1943
57.1927
57.1912
57.1896
57.188
57.1865
57.1849
57.1833
57.1818
57.1802
57.1786
57.1771
57.1755
57.1739
57.1724
57.1708
57.1693
57.1677
57.1661
57.1646
57.163
57.1614
57.1599
57.1583
57.1568
57.1552
57.1536
57.1521
57.1505
57.1489
57.1474
57.1458
57.1443
57.1427
57.1411
57.1396
57.138
57.1365
57.1349
57.1333
57.1318
57.1302
57.1286
57.1271
57.1255
57.124
57.1224
57.1208
57.1193
57.1177
57.1162
57.1146
57.113
57.1115
57.1099
57.1084
57.1068
57.1053
57.1037
57.1021
57.1006
57.099
57.0975
57.0959
57.0943
57.0928
57.0912
57.0897
57.0881
57.0866
57.085
57.0834
57.0819
57.0803
57.0788
57.0772
57.0756
57.0741
57.0725
57.071
57.0694
57.0679
57.0663
57.0648
57.0632
57.0616
57.0601
57.0585
57.057
57.0554
57.0539
57.0523
57.0507
57.0492
57.0476
57.0461
57.0445
57.043
57.0414
57.0399
57.0383
57.0367
57.0352
57.0336
57.0321
57.0305
57.029
57.0274
57.0259
57.0243
57.0227
57.0212
57.0196
57.0181
57.0165
57.015
57.0134
57.0119
57.0103
57.0088
57.0072
57.0057
57.0041
57.0025
57.001
56.9994
56.9979
56.9963
56.9948
56.9932
56.9917
56.9901
56.9886
56.987
56.9855
56.9839
56.9823
56.9808
56.9792
56.9777
56.9761
56.9746
56.973
56.9715
56.9699
56.9684
56.9668
56.9653
56.9637
56.9622
56.9606
56.9591
56.9575
56.956
56.9544
56.9529
56.9513
56.9497
56.9482
56.9466
56.9451
56.9435
56.942
56.9404
56.9389
56.9373
56.9358
56.9342
56.9327
56.9311
56.9296
56.928
56.9265
56.9249
56.9234
56.9218
56.9203
56.9187
56.9172
56.9156
56.9141
56.9125
56.911
56.9094
56.9079
56.9063
56.9048
56.9032
56.9017
56.9001
56.8986
56.897
56.8955
56.8939
56.8924
56.8908
56.8893
56.8877
56.8862
56.8846
56.8831
56.8815
56.88
56.8784
56.8769
56.8753
56.8738
56.8722
56.8707
56.8691
56.8676
56.866
56.8645
56.8629
56.8614
56.8598
56.8583
56.8567
56.8552
56.8536
56.8521
56.8505
56.849
56.8474
56.8459
56.8443
56.8428
56.8412
56.8397
56.8382
56.8366
56.8351
56.8335
56.832
56.8304
56.8289
56.8273
56.8258
56.8242
56.8227
56.8211
56.8196
56.818
56.8165
56.8149
56.8134
56.8118
56.8103
56.8087
56.8072
56.8056
56.8041
56.8026
56.801
56.7995
56.7979
56.7964
56.7948
56.7933
56.7917
56.7902
56.7886
56.7871
56.7855
56.784
56.7824
56.7809
56.7794
56.7778
56.7778
59.5243
59.5243
58.6399
58.4067
58.3381
58.3082
58.2906
58.2782
58.2684
58.2603
58.2531
58.2466
58.2406
58.235
58.2296
58.2244
58.2194
58.2145
58.2098
58.2052
58.2006
58.1961
58.1917
58.1873
58.1831
58.1788
58.1747
58.1705
58.1665
58.1625
58.1585
58.1546
58.1507
58.1468
58.143
58.1393
58.1356
58.1319
58.1283
58.1247
58.1211
58.1176
58.1141
58.1106
58.1072
58.1038
58.1004
58.0971
58.0938
58.0905
58.0872
58.084
58.0808
58.0776
58.0745
58.0714
58.0683
58.0652
58.0621
58.0591
58.0561
58.0531
58.0501
58.0472
58.0442
58.0413
58.0384
58.0356
58.0327
58.0299
58.027
58.0242
58.0214
58.0187
58.0159
58.0132
58.0104
58.0077
58.005
58.0023
57.9997
57.997
57.9944
57.9917
57.9891
57.9865
57.9839
57.9813
57.9788
57.9762
57.9737
57.9711
57.9686
57.9661
57.9636
57.9611
57.9587
57.9562
57.9537
57.9513
57.9489
57.9464
57.944
57.9416
57.9392
57.9368
57.9344
57.9321
57.9297
57.9274
57.925
57.9227
57.9203
57.918
57.9157
57.9134
57.9111
57.9088
57.9066
57.9043
57.902
57.8998
57.8975
57.8953
57.893
57.8908
57.8886
57.8864