# vtk DataFile Version 2.0
FlowField
ASCII
DATASET STRUCTURED_GRID
DIMENSIONS 800 1 200
POINTS 160000 float
0 0 0
0.04 0 0
0.08 0 0
0.12 0 0
0.16 0 0
0.2 0 0
0.24 0 0
0.28 0 0
0.32 0 0
0.36 0 0
0.4 0 0
0.44 0 0
0.48 0 0
0.52 0 0
0.56 0 0
0.6 0 0
0.64 0 0
0.68 0 0
0.72 0 0
0.76 0 0
0.8 0 0
0.84 0 0
0.88 0 0
0.92 0 0
0.96 0 0
1 0 0
1.04 0 0
1.08 0 0
1.12 0 0
1.16 0 0
1.2 0 0
1.24 0 0
1.28 0 0
1.32 0 0
1.36 0 0
1.4 0 0
1.44 0 0
1.48 0 0
1.52 0 0
1.56 0 0
1.6 0 0
1.64 0 0
1.68 0 0
1.72 0 0
1.76 0 0
1.8 0 0
1.84 0 0
1.88 0 0
1.92 0 0
1.96 0 0
2 0 0
2.04 0 0
2.08 0 0
2.12 0 0
2.16 0 0
2.2 0 0
2.24 0 0
2.28 0 0
2.32 0 0
2.36 0 0
2.4 0 0
2.44 0 0
2.48 0 0
2.52 0 0
2.56 0 0
2.6 0 0
2.64 0 0
2.68 0 0
2.72 0 0
2.76 0 0
2.8 0 0
2.84 0 0
2.88 0 0
2.92 0 0
2.96 0 0
3 0 0
3.04 0 0
3.08 0 0
3.12 0 0
3.16 0 0
3.2 0 0
3.24 0 0
3.28 0 0
3.32 0 0
3.36 0 0
3.4 0 0
3.44 0 0
3.48 0 0
3.52 0 0
3.56 0 0
3.6 0 0
3.64 0 0
3.68 0 0
3.72 0 0
3.76 0 0
3.8 0 0
3.84 0 0
3.88 0 0
3.92 0 0
3.96 0 0
4 0 0
4.04 0 0
4.08 0 0
4.12 0 0
4.16 0 0
4.2 0 0
4.24 0 0
4.28 0 0
4.32 0 0
4.36 0 0
4.4 0 0
4.44 0 0
4.48 0 0
4.52 0 0
4.56 0 0
4.6 0 0
4.64 0 0
4.68 0 0
4.72 0 0
4.76 0 0
4.8 0 0
4.84 0 0
4.88 0 0
4.92 0 0
4.96 0 0
5 0 0
5.04 0 0
5.08 0 0
5.12 0 0
5.16 0 0
5.2 0 0
5.24 0 0
5.28 0 0
5.32 0 0
5.36 0 0
5.4 0 0
5.44 0 0
5.48 0 0
5.52 0 0
5.56 0 0
5.6 0 0
5.64 0 0
5.68 0 0
5.72 0 0
5.76 0 0
5.8 0 0
5.84 0 0
5.88 0 0
5.92 0 0
5.96 0 0
6 0 0
6.04 0 0
6.08 0 0
6.12 0 0
6.16 0 0
6.2 0 0
6.24 0 0
6.28 0 0
6.32 0 0
6.36 0 0
6.4 0 0
6.44 0 0
6.48 0 0
6.52 0 0
6.56 0 0
6.6 0 0
6.64 0 0
6.68 0 0
6.72 0 0
6.76 0 0
6.8 0 0
6.84 0 0
6.88 0 0
6.92 0 0
6.96 0 0
7 0 0
7.04 0 0
7.08 0 0
7.12 0 0
7.16 0 0
7.2 0 0
7.24 0 0
7.28 0 0
7.32 0 0
7.36 0 0
7.4 0 0
7.44 0 0
7.48 0 0
7.52 0 0
7.56 0 0
7.6 0 0
7.64 0 0
7.68 0 0
7.72 0 0
7.76 0 0
7.8 0 0
7.84 0 0
7.88 0 0
7.92 0 0
7.96 0 0
8 0 0
8.04 0 0
8.08 0 0
8.12 0 0
8.16 0 0
8.2 0 0
8.24 0 0
8.28 0 0
8.32 0 0
8.36 0 0
8.4 0 0
8.44 0 0
8.48 0 0
8.52 0 0
8.56 0 0
8.6 0 0
8.64 0 0
8.68 0 0
8.72 0 0
8.76 0 0
8.8 0 0
8.84 0 0
8.88 0 0
8.92 0 0
8.96 0 0
9 0 0
9.04 0 0
9.08 0 0
9.12 0 0
9.16 0 0
9.2 0 0
9.24 0 0
9.28 0 0
9.32 0 0
9.36 0 0
9.4 0 0
9.44 0 0
9.48 0 0
9.52 0 0
9.56 0 0
9.6 0 0
9.64 0 0
9.68 0 0
9.72 0 0
9.76 0 0
9.8 0 0
9.84 0 0
9.88 0 0
9.92 0 0
9.96 0 0
10 0 0
10.04 0 0
10.08 0 0
10.12 0 0
10.16 0 0
10.2 0 0
10.24 0 0
10.28 0 0
10.32 0 0
10.36 0 0
10.4 0 0
10.44 0 0
10.48 0 0
10.52 0 0
10.56 0 0
10.6 0 0
10.64 0 0
10.68 0 0
10.72 0 0
10.76 0 0
10.8 0 0
10.84 0 0
10.88 0 0
10.92 0 0
10.96 0 0
11 0 0
11.04 0 0
11.08 0 0
11.12 0 0
11.16 0 0
11.2 0 0
11.24 0 0
11.28 0 0
11.32 0 0
11.36 0 0
11.4 0 0
11.44 0 0
11.48 0 0
11.52 0 0
11.56 0 0
11.6 0 0
11.64 0 0
11.68 0 0
11.72 0 0
11.76 0 0
11.8 0 0
11.84 0 0
11.88 0 0
11.92 0 0
11.96 0 0
12 0 0
12.04 0 0
12.08 0 0
12.12 0 0
12.16 0 0
12.2 0 0
12.24 0 0
12.28 0 0
12.32 0 0
12.36 0 0
12.4 0 0
12.44 0 0
12.48 0 0
12.52 0 0
12.56 0 0
12.6 0 0
12.64 0 0
12.68 0 0
12.72 0 0
12.76 0 0
12.8 0 0
12.84 0 0
12.88 0 0
12.92 0 0
12.96 0 0
13 0 0
13.04 0 0
13.08 0 0
13.12 0 0
13.16 0 0
13.2 0 0
13.24 0 0
13.28 0 0
13.32 0 0
13.36 0 0
13.4 0 0
13.44 0 0
13.48 0 0
13.52 0 0
13.56 0 0
13.6 0 0
13.64 0 0
13.68 0 0
13.72 0 0
13.76 0 0
13.8 0 0
13.84 0 0
13.88 0 0
13.92 0 0
13.96 0 0
14 0 0
14.04 0 0
14.08 0 0
14.12 0 0
14.16 0 0
14.2 0 0
14.24 0 0
14.28 0 0
14.32 0 0
14.36 0 0
14.4 0 0
14.44 0 0
14.48 0 0
14.52 0 0
14.56 0 0
14.6 0 0
14.64 0 0
14.68 0 0
14.72 0 0
14.76 0 0
14.8 0 0
14.84 0 0
14.88 0 0
14.92 0 0
14.96 0 0
15 0 0
15.04 0 0
15.08 0 0
15.12 0 0
15.16 0 0
15.2 0 0
15.24 0 0
15.28 0 0
15.32 0 0
15.36 0 0
15.4 0 0
15.44 0 0
15.48 0 0
15.52 0 0
15.56 0 0
15.6 0 0
15.64 0 0
15.68 0 0
15.72 0 0
15.76 0 0
15.8 0 0
15.84 0 0
15.88 0 0
15.92 0 0
15.96 0 0
16 0 0
16.04 0 0
16.08 0 0
16.12 0 0
16.16 0 0
16.2 0 0
16.24 0 0
16.28 0 0
16.32 0 0
16.36 0 0
16.4 0 0
16.44 0 0
16.48 0 0
16.52 0 0
16.56 0 0
16.6 0 0
16.64 0 0
16.68 0 0
16.72 0 0
16.76 0 0
16.8 0 0
16.84 0 0
16.88 0 0
16.92 0 0
16.96 0 0
17 0 0
17.04 0 0
17.08 0 0
17.12 0 0
17.16 0 0
17.2 0 0
17.24 0 0
17.28 0 0
17.32 0 0
17.36 0 0
17.4 0 0
17.44 0 0
17.48 0 0
17.52 0 0
17.56 0 0
17.6 0 0
17.64 0 0
17.68 0 0
17.72 0 0
17.76 0 0
17.8 0 0
17.84 0 0
17.88 0 0
17.92 0 0
17.96 0 0
18 0 0
18.04 0 0
18.08 0 0
18.12 0 0
18.16 0 0
18.2 0 0
18.24 0 0
18.28 0 0
18.32 0 0
18.36 0 0
18.4 0 0
18.44 0 0
18.48 0 0
18.52 0 0
18.56 0 0
18.6 0 0
18.64 0 0
18.68 0 0
18.72 0 0
18.76 0 0
18.8 0 0
18.84 0 0
18.88 0 0
18.92 0 0
18.96 0 0
19 0 0
19.04 0 0
19.08 0 0
19.12 0 0
19.16 0 0
19.2 0 0
19.24 0 0
19.28 0 0
19.32 0 0
19.36 0 0
19.4 0 0
19.44 0 0
19.48 0 0
19.52 0 0
19.56 0 0
19.6 0 0
19.64 0 0
19.68 0 0
19.72 0 0
19.76 0 0
19.8 0 0
19.84 0 0
19.88 0 0
19.92 0 0
19.96 0 0
20 0 0
20.04 0 0
20.08 0 0
20.12 0 0
20.16 0 0
20.2 0 0
20.24 0 0
20.28 0 0
20.32 0 0
20.36 0 0
20.4 0 0
20.44 0 0
20.48 0 0
20.52 0 0
20.56 0 0
20.6 0 0
20.64 0 0
20.68 0 0
20.72 0 0
20.76 0 0
20.8 0 0
20.84 0 0
20.88 0 0
20.92 0 0
20.96 0 0
21 0 0
21.04 0 0
21.08 0 0
21.12 0 0
21.16 0 0
21.2 0 0
21.24 0 0
21.28 0 0
21.32 0 0
21.36 0 0
21.4 0 0
21.44 0 0
21.48 0 0
21.52 0 0
21.56 0 0
21.6 0 0
21.64 0 0
21.68 0 0
21.72 0 0
21.76 0 0
21.8 0 0
21.84 0 0
21.88 0 0
21.92 0 0
21.96 0 0
22 0 0
22.04 0 0
22.08 0 0
22.12 0 0
22.16 0 0
22.2 0 0
22.24 0 0
22.28 0 0
22.32 0 0
22.36 0 0
22.4 0 0
22.44 0 0
22.48 0 0
22.52 0 0
22.56 0 0
22.6 0 0
22.64 0 0
22.68 0 0
22.72 0 0
22.76 0 0
22.8 0 0
22.84 0 0
22.88 0 0
22.92 0 0
22.96 0 0
23 0 0
23.04 0 0
23.08 0 0
23.12 0 0
23.16 0 0
23.2 0 0
23.24 0 0
23.28 0 0
23.32 0 0
23.36 0 0
23.4 0 0
23.44 0 0
23.48 0 0
23.52 0 0
23.56 0 0
23.6 0 0
23.64 0 0
23.68 0 0
23.72 0 0
23.76 0 0
23.8 0 0
23.84 0 0
23.88 0 0
23.92 0 0
23.96 0 0
24 0 0
24.04 0 0
24.08 0 0
24.12 0 0
24.16 0 0
24.2 0 0
24.24 0 0
24.28 0 0
24.32 0 0
24.36 0 0
24.4 0 0
24.44 0 0
24.48 0 0
24.52 0 0
24.56 0 0
24.6 0 0
24.64 0 0
24.68 0 0
24.72 0 0
24.76 0 0
24.8 0 0
24.84 0 0
24.88 0 0
24.92 0 0
24.96 0 0
25 0 0
25.04 0 0
25.08 0 0
25.12 0 0
25.16 0 0
25.2 0 0
25.24 0 0
25.28 0 0
25.32 0 0
25.36 0 0
25.4 0 0
25.44 0 0
25.48 0 0
25.52 0 0
25.56 0 0
25.6 0 0
25.64 0 0
25.68 0 0
25.72 0 0
25.76 0 0
25.8 0 0
25.84 0 0
25.88 0 0
25.92 0 0
25.96 0 0
26 0 0
26.04 0 0
26.08 0 0
26.12 0 0
26.16 0 0
26.2 0 0
26.24 0 0
26.28 0 0
26.32 0 0
26.36 0 0
26.4 0 0
26.44 0 0
26.48 0 0
26.52 0 0
26.56 0 0
26.6 0 0
26.64 0 0
26.68 0 0
26.72 0 0
26.76 0 0
26.8 0 0
26.84 0 0
26.88 0 0
26.92 0 0
26.96 0 0
27 0 0
27.04 0 0
27.08 0 0
27.12 0 0
27.16 0 0
27.2 0 0
27.24 0 0
27.28 0 0
27.32 0 0
27.36 0 0
27.4 0 0
27.44 0 0
27.48 0 0
27.52 0 0
27.56 0 0
27.6 0 0
27.64 0 0
27.68 0 0
27.72 0 0
27.76 0 0
27.8 0 0
27.84 0 0
27.88 0 0
27.92 0 0
27.96 0 0
28 0 0
28.04 0 0
28.08 0 0
28.12 0 0
28.16 0 0
28.2 0 0
28.24 0 0
28.28 0 0
28.32 0 0
28.36 0 0
28.4 0 0
28.44 0 0
28.48 0 0
28.52 0 0
28.56 0 0
28.6 0 0
28.64 0 0
28.68 0 0
28.72 0 0
28.76 0 0
28.8 0 0
28.84 0 0
28.88 0 0
28.92 0 0
28.96 0 0
29 0 0
29.04 0 0
29.08 0 0
29.12 0 0
29.16 0 0
29.2 0 0
29.24 0 0
29.28 0 0
29.32 0 0
29.36 0 0
29.4 0 0
29.44 0 0
29.48 0 0
29.52 0 0
29.56 0 0
29.6 0 0
29.64 0 0
29.68 0 0
29.72 0 0
29.76 0 0
29.8 0 0
29.84 0 0
29.88 0 0
29.92 0 0
29.96 0 0
30 0 0
30.04 0 0
30.08 0 0
30.12 0 0
30.16 0 0
30.2 0 0
30.24 0 0
30.28 0 0
30.32 0 0
30.36 0 0
30.4 0 0
30.44 0 0
30.48 0 0
30.52 0 0
30.56 0 0
30.6 0 0
30.64 0 0
30.68 0 0
30.72 0 0
30.76 0 0
30.8 0 0
30.84 0 0
30.88 0 0
30.92 0 0
30.96 0 0
31 0 0
31.04 0 0
31.08 0 0
31.12 0 0
31.16 0 0
31.2 0 0
31.24 0 0
31.28 0 0
31.32 0 0
31.36 0 0
31.4 0 0
31.44 0 0
31.48 0 0
31.52 0 0
31.56 0 0
31.6 0 0
31.64 0 0
31.68 0 0
31.72 0 0
31.76 0 0
31.8 0 0
31.84 0 0
31.88 0 0
31.92 0 0
31.96 0 0
0 0.005 0
0.04 0.005 0
0.08 0.005 0
0.12 0.005 0
0.16 0.005 0
0.2 0.005 0
0.24 0.005 0
0.28 0.005 0
0.32 0.005 0
0.36 0.005 0
0.4 0.005 0
0.44 0.005 0
0.48 0.005 0
0.52 0.005 0
0.56 0.005 0
0.6 0.005 0
0.64 0.005 0
0.68 0.005 0
0.72 0.005 0
0.76 0.005 0
0.8 0.005 0
0.84 0.005 0
0.88 0.005 0
0.92 0.005 0
0.96 0.005 0
1 0.005 0
1.04 0.005 0
1.08 0.005 0
1.12 0.005 0
1.16 0.005 0
1.2 0.005 0
1.24 0.005 0
1.28 0.005 0
1.32 0.005 0
1.36 0.005 0
1.4 0.005 0
1.44 0.005 0
1.48 0.005 0
1.52 0.005 0
1.56 0.005 0
1.6 0.005 0
1.64 0.005 0
1.68 0.005 0
1.72 0.005 0
1.76 0.005 0
1.8 0.005 0
1.84 0.005 0
1.88 0.005 0
1.92 0.005 0
1.96 0.005 0
2 0.005 0
2.04 0.005 0
2.08 0.005 0
2.12 0.005 0
2.16 0.005 0
2.2 0.005 0
2.24 0.005 0
2.28 0.005 0
2.32 0.005 0
2.36 0.005 0
2.4 0.005 0
2.44 0.005 0
2.48 0.005 0
2.52 0.005 0
2.56 0.005 0
2.6 0.005 0
2.64 0.005 0
2.68 0.005 0
2.72 0.005 0
2.76 0.005 0
2.8 0.005 0
2.84 0.005 0
2.88 0.005 0
2.92 0.005 0
2.96 0.005 0
3 0.005 0
3.04 0.005 0
3.08 0.005 0
3.12 0.005 0
3.16 0.005 0
3.2 0.005 0
3.24 0.005 0
3.28 0.005 0
3.32 0.005 0
3.36 0.005 0
3.4 0.005 0
3.44 0.005 0
3.48 0.005 0
3.52 0.005 0
3.56 0.005 0
3.6 0.005 0
3.64 0.005 0
3.68 0.005 0
3.72 0.005 0
3.76 0.005 0
3.8 0.005 0
3.84 0.005 0
3.88 0.005 0
3.92 0.005 0
3.96 0.005 0
4 0.005 0
4.04 0.005 0
4.08 0.005 0
4.12 0.005 0
4.16 0.005 0
4.2 0.005 0
4.24 0.005 0
4.28 0.005 0
4.32 0.005 0
4.36 0.005 0
4.4 0.005 0
4.44 0.005 0
4.48 0.005 0
4.52 0.005 0
4.56 0.005 0
4.6 0.005 0
4.64 0.005 0
4.68 0.005 0
4.72 0.005 0
4.76 0.005 0
4.8 0.005 0
4.84 0.005 0
4.88 0.005 0
4.92 0.005 0
4.96 0.005 0
5 0.005 0
5.04 0.005 0
5.08 0.005 0
5.12 0.005 0
5.16 0.005 0
5.2 0.005 0
5.24 0.005 0
5.28 0.005 0
5.32 0.005 0
5.36 0.005 0
5.4 0.005 0
5.44 0.005 0
5.48 0.005 0
5.52 0.005 0
5.56 0.005 0
5.6 0.005 0
5.64 0.005 0
5.68 0.005 0
5.72 0.005 0
5.76 0.005 0
5.8 0.005 0
5.84 0.005 0
5.88 0.005 0
5.92 0.005 0
5.96 0.005 0
6 0.005 0
6.04 0.005 0
6.08 0.005 0
6.12 0.005 0
6.16 0.005 0
6.2 0.005 0
6.24 0.005 0
6.28 0.005 0
6.32 0.005 0
6.36 0.005 0
6.4 0.005 0
6.44 0.005 0
6.48 0.005 0
6.52 0.005 0
6.56 0.005 0
6.6 0.005 0
6.64 0.005 0
6.68 0.005 0
6.72 0.005 0
6.76 0.005 0
6.8 0.005 0
6.84 0.005 0
6.88 0.005 0
6.92 0.005 0
6.96 0.005 0
7 0.005 0
7.04 0.005 0
7.08 0.005 0
7.12 0.005 0
7.16 0.005 0
7.2 0.005 0
7.24 0.005 0
7.28 0.005 0
7.32 0.005 0
7.36 0.005 0
7.4 0.005 0
[...]
POINT_DATA 160000

SCALARS u float 1
LOOKUP_TABLE default
-1
-0.483358
-0.183963
-0.108845
-0.081033
-0.0668337
-0.0581181
-0.0521527
-0.0477774
-0.0444145
-0.0417413
-0.0395615
-0.0377482
-0.0362153
-0.0349015
-0.0337624
-0.0327648
-0.031883
-0.0310974
-0.0303923
-0.0297553
-0.0291764
-0.0286472
-0.0281611
-0.0277125
-0.0272968
-0.02691
-0.0265488
-0.0262104
-0.0258925
-0.025593
-0.02531
-0.0250422
-0.0247881
-0.0245465
-0.0243165
-0.0240971
-0.0238875
-0.023687
-0.0234949
-0.0233107
-0.0231338
-0.0229637
-0.0228001
-0.0226426
-0.0224907
-0.0223442
-0.0222027
-0.022066
-0.0219338
-0.0218059
-0.021682
-0.021562
-0.0214457
-0.0213329
-0.0212234
-0.021117
-0.0210137
-0.0209133
-0.0208157
-0.0207207
-0.0206282
-0.0205381
-0.0204504
-0.0203649
-0.0202816
-0.0202003
-0.020121
-0.0200436
-0.0199681
-0.0198943
-0.0198222
-0.0197517
-0.0196829
-0.0196155
-0.0195497
-0.0194852
-0.0194222
-0.0193604
-0.0193
-0.0192408
-0.0191828
-0.019126
-0.0190703
-0.0190157
-0.0189622
-0.0189097
-0.0188581
-0.0188076
-0.018758
-0.0187093
-0.0186616
-0.0186146
-0.0185686
-0.0185233
-0.0184788
-0.0184351
-0.0183922
-0.01835
-0.0183085
-0.0182677
-0.0182276
-0.0181881
-0.0181493
-0.0181111
-0.0180736
-0.0180366
-0.0180002
-0.0179644
-0.0179291
-0.0178944
-0.0178602
-0.0178265
-0.0177934
-0.0177607
-0.0177285
-0.0176968
-0.0176655
-0.0176348
-0.0176044
-0.0175745
-0.017545
-0.0175159
-0.0174873
-0.017459
-0.0174311
-0.0174036
-0.0173765
-0.0173498
-0.0173234
-0.0172973
-0.0172716
-0.0172463
-0.0172213
-0.0171966
-0.0171722
-0.0171482
-0.0171244
-0.017101
-0.0170779
-0.017055
-0.0170325
-0.0170102
-0.0169882
-0.0169665
-0.016945
-0.0169239
-0.0169029
-0.0168823
-0.0168618
-0.0168417
-0.0168217
-0.016802
-0.0167826
-0.0167634
-0.0167444
-0.0167256
-0.016707
-0.0166887
-0.0166706
-0.0166526
-0.0166349
-0.0166174
-0.0166001
-0.016583
-0.0165661
-0.0165494
-0.0165329
-0.0165165
-0.0165004
-0.0164844
-0.0164686
-0.0164529
-0.0164375
-0.0164222
-0.0164071
-0.0163922
-0.0163774
-0.0163628
-0.0163483
-0.016334
-0.0163198
-0.0163058
-0.016292
-0.0162783
-0.0162648
-0.0162514
-0.0162381
-0.016225
-0.016212
-0.0161992
-0.0161865
-0.0161739
-0.0161614
-0.0161491
-0.016137
-0.0161249
-0.016113
-0.0161012
-0.0160895
-0.016078
-0.0160665
-0.0160552
-0.016044
-0.0160329
-0.016022
-0.0160111
-0.0160004
-0.0159897
-0.0159792
-0.0159688
-0.0159585
-0.0159483
-0.0159382
-0.0159282
-0.0159183
-0.0159085
-0.0158988
-0.0158892
-0.0158797
-0.0158703
-0.0158609
-0.0158517
-0.0158426
-0.0158336
-0.0158246
-0.0158158
-0.015807
-0.0157983
-0.0157897
-0.0157812
-0.0157728
-0.0157645
-0.0157562
-0.015748
-0.0157399
-0.0157319
-0.015724
-0.0157161
-0.0157084
-0.0157007
-0.015693
-0.0156855
-0.015678
-0.0156706
-0.0156633
-0.015656
-0.0156488
-0.0156417
-0.0156347
-0.0156277
-0.0156208
-0.015614
-0.0156072
-0.0156005
-0.0155938
-0.0155873
-0.0155807
-0.0155743
-0.0155679
-0.0155616
-0.0155553
-0.0155491
-0.0155429
-0.0155369
-0.0155308
-0.0155249
-0.015519
-0.0155131
-0.0155073
-0.0155016
-0.0154959
-0.0154902
-0.0154847
-0.0154791
-0.0154737
-0.0154682
-0.0154629
-0.0154576
-0.0154523
-0.0154471
-0.0154419
-0.0154368
-0.0154317
-0.0154267
-0.0154217
-0.0154168
-0.0154119
-0.0154071
-0.0154023
-0.0153976
-0.0153929
-0.0153882
-0.0153836
-0.015379
-0.0153745
-0.01537
-0.0153656
-0.0153612
-0.0153568
-0.0153525
-0.0153483
-0.015344
-0.0153398
-0.0153357
-0.0153316
-0.0153275
-0.0153235
-0.0153195
-0.0153155
-0.0153116
-0.0153077
-0.0153038
-0.0153
-0.0152962
-0.0152925
-0.0152888
-0.0152851
-0.0152814
-0.0152778
-0.0152743
-0.0152707
-0.0152672
-0.0152637
-0.0152603
-0.0152569
-0.0152535
-0.0152501
-0.0152468
-0.0152435
-0.0152403
-0.015237
-0.0152338
-0.0152307
-0.0152275
-0.0152244
-0.0152213
-0.0152182
-0.0152152
-0.0152122
-0.0152092
-0.0152063
-0.0152034
-0.0152005
-0.0151976
-0.0151948
-0.0151919
-0.0151891
-0.0151864
-0.0151836
-0.0151809
-0.0151782
-0.0151755
-0.0151729
-0.0151703
-0.0151677
-0.0151651
-0.0151625
-0.01516
-0.0151575
-0.015155
-0.0151526
-0.0151501
-0.0151477
-0.0151453
-0.0151429
-0.0151406
-0.0151382
-0.0151359
-0.0151336
-0.0151314
-0.0151291
-0.0151269
-0.0151247
-0.0151225
-0.0151203
-0.0151181
-0.015116
-0.0151139
-0.0151118
-0.0151097
-0.0151077
-0.0151056
-0.0151036
-0.0151016
-0.0150996
-0.0150977
-0.0150957
-0.0150938
-0.0150919
-0.01509
-0.0150881
-0.0150863
-0.0150844
-0.0150826
-0.0150808
-0.015079
-0.0150773
-0.0150755
-0.0150738
-0.0150721
-0.0150704
-0.0150687
-0.0150671
-0.0150654
-0.0150638
-0.0150622
-0.0150606
-0.015059
-0.0150575
-0.0150559
-0.0150544
-0.0150529
-0.0150514
-0.01505
-0.0150485
-0.0150471
-0.0150456
-0.0150442
-0.0150429
-0.0150415
-0.0150401
-0.0150388
-0.0150375
-0.0150362
-0.0150349
-0.0150336
-0.0150324
-0.0150311
-0.0150299
-0.0150287
-0.0150275
-0.0150263
-0.0150252
-0.015024
-0.0150229
-0.0150218
-0.0150207
-0.0150196
-0.0150185
-0.0150175
-0.0150164
-0.0150154
-0.0150144
-0.0150134
-0.0150124
-0.0150115
-0.0150105
-0.0150096
-0.0150087
-0.0150077
-0.0150068
-0.015006
-0.0150051
-0.0150042
-0.0150034
-0.0150026
-0.0150018
-0.0150009
-0.0150002
-0.0149994
-0.0149986
-0.0149979
-0.0149971
-0.0149964
-0.0149957
-0.0149949
-0.0149943
-0.0149936
-0.0149929
-0.0149922
-0.0149916
-0.0149909
-0.0149903
-0.0149897
-0.014989
-0.0149884
-0.0149878
-0.0149873
-0.0149867
-0.0149861
-0.0149856
-0.014985
-0.0149845
-0.0149839
-0.0149834
-0.0149829
-0.0149824
-0.0149819
-0.0149814
-0.0149809
-0.0149804
-0.0149799
-0.0149794
-0.014979
-0.0149785
-0.0149781
-0.0149776
-0.0149772
-0.0149767
-0.0149763
-0.0149759
-0.0149755
-0.0149751
-0.0149746
-0.0149742
-0.0149738
-0.0149734
-0.014973
-0.0149727
-0.0149723
-0.0149719
-0.0149715
-0.0149711
-0.0149708
-0.0149704
-0.01497
-0.0149697
-0.0149693
-0.014969
-0.0149686
-0.0149683
-0.0149679
-0.0149676
-0.0149672
-0.0149669
-0.0149665
-0.0149662
-0.0149659
-0.0149655
-0.0149652
-0.0149649
-0.0149645
-0.0149642
-0.0149639
-0.0149636
-0.0149632
-0.0149629
-0.0149626
-0.0149623
-0.014962
-0.0149616
-0.0149613
-0.014961
-0.0149607
-0.0149604
-0.0149601
-0.0149597
-0.0149594
-0.0149591
-0.0149588
-0.0149585
-0.0149582
-0.0149579
-0.0149576
-0.0149572
-0.0149569
-0.0149566
-0.0149563
-0.014956
-0.0149557
-0.0149554
-0.0149551
-0.0149548
-0.0149545
-0.0149541
-0.0149538
-0.0149535
-0.0149532
-0.0149529
-0.0149526
-0.0149523
-0.014952
-0.0149517
-0.0149514
-0.0149511
-0.0149507
-0.0149504
-0.0149501
-0.0149498
-0.0149495
-0.0149492
-0.0149489
-0.0149486
-0.0149483
-0.014948
-0.0149477
-0.0149474
-0.014947
-0.0149467
-0.0149464
-0.0149461
-0.0149458
-0.0149455
-0.0149452
-0.0149449
-0.0149446
-0.0149443
-0.014944
-0.0149437
-0.0149433
-0.014943
-0.0149427
-0.0149424
-0.0149421
-0.0149418
-0.0149415
-0.0149412
-0.0149409
-0.0149406
-0.0149403
-0.01494
-0.0149397
-0.0149393
-0.014939
-0.0149387
-0.0149384
-0.0149381
-0.0149378
-0.0149375
-0.0149372
-0.0149369
-0.0149366
-0.0149363
-0.014936
-0.0149356
-0.0149353
-0.014935
-0.0149347
-0.0149344
-0.0149341
-0.0149338
-0.0149335
-0.0149332
-0.0149329
-0.0149326
-0.0149323
-0.0149319
-0.0149316
-0.0149313
-0.014931
-0.0149307
-0.0149304
-0.0149301
-0.0149298
-0.0149295
-0.0149292
-0.0149289
-0.0149286
-0.0149282
-0.0149279
-0.0149276
-0.0149273
-0.014927
-0.0149267
-0.0149264
-0.0149261
-0.0149258
-0.0149255
-0.0149252
-0.0149249
-0.0149245
-0.0149242
-0.0149239
-0.0149236
-0.0149233
-0.014923
-0.0149227
-0.0149224
-0.0149221
-0.0149218
-0.0149215
-0.0149212
-0.0149208
-0.0149205
-0.0149202
-0.0149199
-0.0149196
-0.0149193
-0.014919
-0.0149187
-0.0149184
-0.0149181
-0.0149178
-0.0149175
-0.0149172
-0.0149168
-0.0149165
-0.0149162
-0.0149159
-0.0149156
-0.0149153
-0.014915
-0.0149147
-0.0149144
-0.0149141
-0.0149138
-0.0149135
-0.0149131
-0.0149128
-0.0149125
-0.0149122
-0.0149119
-0.0149116
-0.0149113
-0.014911
-0.0149107
-0.0149104
-0.0149101
-0.0149098
-0.0149094
-0.0149091
-0.0149088
-0.0149085
-0.0149082
-0.0149079
-0.0149076
-0.0149073
-0.014907
-0.0149067
-0.0149064
-0.0149061
-0.0149057
-0.0149054
-0.0149051
-0.0149048
-0.0149045
-0.0149042
-0.0149039
-0.0149036
-0.0149033
-0.014903
-0.0149027
-0.0149024
-0.014902
-0.0149017
-0.0149014
-0.0149011
-0.0149008
-0.0149005
-0.0149002
-0.0148999
-0.0148996
-0.0148993
-0.014899
-0.0148987
-0.0148984
-0.014898
-0.0148977
-0.0148974
-0.0148971
-0.0148968
-0.0148965
-0.0148962
-0.0148959
-0.0148956
-0.0148953
-0.014895
-0.0148947
-0.0148943
-0.014894
-0.0148937
-0.0148934
-0.0148931
-0.0148928
-0.0148925
-0.0148922
-0.0148919
-0.0148916
-0.0148913
-0.014891
-0.0148906
-0.0148903
-0.01489
-0.0148897
-0.0148894
-0.0148891
-0.0148888
-0.0148885
-0.0148881
-0.0148878
-0.0148875
-0.0148872
-0.0148869
-0.0148865
-0.0148862
-0.0148858
-0.0148855
-0.0148851
-0.0148847
-0.0148843
-0.0148838
-0.0148833
-0.0148828
-0.0148821
-0.0148815
-0.0148805
-0.0148801
-0.0148801
-0.0148801
1
0.483358
0.183963
0.108845
0.081033
0.0668337
0.0581181
0.0521527
0.0477774
0.0444145
0.0417413
0.0395615
0.0377482
0.0362153
0.0349015
0.0337624
0.0327648
0.031883
0.0310974
0.0303923
0.0297553
0.0291764
0.0286472
0.0281611
0.0277125
0.0272968
0.02691
0.0265488
0.0262104
0.0258925
0.025593
0.02531
0.0250422
0.0247881
0.0245465
0.0243165
0.0240971
0.0238875
0.023687
0.0234949
0.0233107
0.0231338
0.0229637
0.0228001
0.0226426
0.0224907
0.0223442
0.0222027
0.022066
0.0219338
0.0218059
0.021682
0.021562
0.0214457
0.0213329
0.0212234
0.021117
0.0210137
0.0209133
0.0208157
0.0207207
0.0206282
0.0205381
0.0204504
0.0203649
0.0202816
0.0202003
0.020121
0.0200436
0.0199681
0.0198943
0.0198222
0.0197517
0.0196829
0.0196155
0.0195497
0.0194852
0.0194222
0.0193604
0.0193
0.0192408
0.0191828
0.019126
0.0190703
0.0190157
0.0189622
0.0189097
0.0188581
0.0188076
0.018758
0.0187093
0.0186616
0.0186146
0.0185686
0.0185233
0.0184788
0.0184351
0.0183922
0.01835
0.0183085
0.0182677
0.0182276
0.0181881
0.0181493
0.0181111
0.0180736
0.0180366
0.0180002
0.0179644
0.0179291
0.0178944
0.0178602
0.0178265
0.0177934
0.0177607
0.0177285
0.0176968
0.0176655
0.0176348
0.0176044
0.0175745
0.017545
0.0175159
0.0174873
0.017459
0.0174311
0.0174036
0.0173765
0.0173498
0.0173234
0.0172973
0.0172716
0.0172463
0.0172213
0.0171966
0.0171722
0.0171482
0.0171244
0.017101
0.0170779
0.017055
0.0170325
0.0170102
0.0169882
0.0169665
0.016945
0.0169239
0.0169029
0.0168823
0.0168618
0.0168417
0.0168217
0.016802
0.0167826
0.0167634
0.0167444
0.0167256
0.016707
0.0166887
0.0166706
0.0166526
0.0166349
0.0166174
0.0166001
0.016583
0.0165661
0.0165494
0.0165329
0.0165165
0.0165004
0.0164844
0.0164686
0.0164529
0.0164375
0.0164222
0.0164071
0.0163922
0.0163774
0.0163628
0.0163483
0.016334
0.0163198
0.0163058
0.016292
0.0162783
0.0162648
0.0162514
0.0162381
0.016225
0.016212
0.0161992
0.0161865
0.0161739
0.0161614
0.0161491
0.016137
0.0161249
0.016113
0.0161012
0.0160895
0.016078
0.0160665
0.0160552
0.016044
0.0160329
0.016022
0.0160111
0.0160004
0.0159897
0.0159792
0.0159688
0.0159585
0.0159483
0.0159382
0.0159282
0.0159183
0.0159085
0.0158988
0.0158892
0.0158797
0.0158703
0.0158609
0.0158517
0.0158426
0.0158336
0.0158246
0.0158158
0.015807
0.0157983
0.0157897
0.0157812
0.0157728
0.0157645
0.0157562
0.015748
0.0157399
0.0157319
0.015724
0.0157161
0.0157084
0.0157007
0.015693
0.0156855
0.015678
0.0156706
0.0156633
0.015656
0.0156488
0.0156417
0.0156347
0.0156277
0.0156208
0.015614
0.0156072
0.0156005
0.0155938
0.0155873
0.0155807
0.0155743
0.0155679
0.0155616
0.0155553
0.0155491
0.0155429
0.0155369
0.0155308
0.0155249
0.015519
0.0155131
0.0155073
0.0155016
0.0154959
0.0154902
0.0154847
0.0154791
0.0154737
0.0154682
0.0154629
0.0154576
0.0154523
0.0154471
0.0154419
0.0154368
0.0154317
0.0154267
0.0154217
0.0154168
0.0154119
0.0154071
0.0154023
0.0153976
0.0153929
0.0153882
0.0153836
0.015379
0.0153745
0.01537
0.0153656
0.0153612
0.0153568
0.0153525
0.0153483
0.015344
0.0153398
0.0153357
0.0153316
0.0153275
0.0153235
0.0153195
0.0153155
0.0153116
0.0153077
0.0153038
0.0153
0.0152962
0.0152925
0.0152888
0.0152851
0.0152814
0.0152778
0.0152743
0.0152707
0.0152672
0.0152637
0.0152603
0.0152569
0.0152535
0.0152501
0.0152468
0.0152435
0.0152403
0.015237
0.0152338
0.0152307
0.0152275
0.0152244
0.0152213
0.0152182
0.0152152
0.0152122
0.0152092
0.0152063
0.0152034
0.0152005
0.0151976
0.0151948
0.0151919
0.0151891
0.0151864
0.0151836
0.0151809
0.0151782
0.0151755
0.0151729
0.0151703
0.0151677
0.0151651
0.0151625
0.01516
0.0151575
0.015155
0.0151526
0.0151501
0.0151477
0.0151453
0.0151429
0.0151406
0.0151382
0.0151359
0.0151336
0.0151314
0.0151291
0.0151269
0.0151247
0.0151225
0.0151203
0.0151181
0.015116
0.0151139
0.0151118
0.0151097
0.0151077
0.0151056
0.0151036
0.0151016
0.0150996
0.0150977
0.0150957
0.0150938
0.0150919
0.01509
0.0150881
0.0150863
0.0150844
0.0150826
0.0150808
0.015079
0.0150773
0.0150755
0.0150738
0.0150721
0.0150704
0.0150687
0.0150671
0.0150654
0.0150638
0.0150622
0.0150606
0.015059
0.0150575
0.0150559
0.0150544
0.0150529
0.0150514
0.01505
0.0150485
0.0150471
0.0150456
0.0150442
0.0150429
0.0150415
0.0150401
0.0150388
0.0150375
0.0150362
0.0150349
0.0150336
0.0150324
0.0150311
0.0150299
0.0150287
0.0150275
0.0150263
0.0150252
0.015024
0.0150229
0.0150218
0.0150207
0.0150196
0.0150185
0.0150175
0.0150164
0.0150154
0.0150144
0.0150134
0.0150124
0.0150115
0.0150105
0.0150096
0.0150087
0.0150077
0.0150068
0.015006
0.0150051
0.0150042
0.0150034
0.0150026
0.0150018
0.0150009
0.0150002
0.0149994
0.0149986
0.0149979
0.0149971
0.0149964
0.0149957
0.0149949
0.0149943
0.0149936
0.0149929
0.0149922
0.0149916
0.0149909
0.0149903
0.0149897
0.014989
0.0149884
0.0149878
0.0149873
0.0149867
0.0149861
0.0149856
0.014985
0.0149845
0.0149839
0.0149834
0.0149829
0.0149824
0.0149819
0.0149814
0.0149809
0.0149804
0.0149799
0.0149794
0.014979
0.0149785
0.0149781
0.0149776
0.0149772
0.0149767
0.0149763
0.0149759
0.0149755
0.0149751
0.0149746
0.0149742
0.0149738
0.0149734
0.014973
0.0149727
0.0149723
0.0149719
0.0149715
0.0149711
0.0149708
0.0149704
0.01497
0.0149697
0.0149693
0.014969
0.0149686
0.0149683
0.0149679
0.0149676
0.0149672
0.0149669
0.0149665
0.0149662
0.0149659
0.0149655
0.0149652
0.0149649
0.0149645
0.0149642
0.0149639
0.0149636
0.0149632
0.0149629
0.0149626
0.0149623
0.014962
0.0149616
0.0149613
0.014961
0.0149607
0.0149604
0.0149601
0.0149597
0.0149594
0.0149591
0.0149588
0.0149585
0.0149582
0.0149579
0.0149576
0.0149572
0.0149569
0.0149566
0.0149563
0.014956
0.0149557
0.0149554
0.0149551
0.0149548
0.0149545
0.0149541
0.0149538
0.0149535
0.0149532
0.0149529
0.0149526
0.0149523
0.014952
0.0149517
0.0149514
0.0149511
0.0149507
0.0149504
0.0149501
0.0149498
0.0149495
0.0149492
0.0149489
0.0149486
0.0149483
0.014948
0.0149477
0.0149474
0.014947
0.0149467
0.0149464
0.0149461
0.0149458
0.0149455
0.0149452
0.0149449
0.0149446
0.0149443
0.014944
0.0149437
0.0149433
0.014943
0.0149427
0.0149424
0.0149421
0.0149418
0.0149415
0.0149412
0.0149409
0.0149406
0.0149403
0.01494
0.0149397
0.0149393
0.014939
0.0149387
0.0149384
0.0149381
0.0149378
0.0149375
0.0149372
0.0149369
0.0149366
0.0149363
0.014936
0.0149356
0.0149353
0.014935
0.0149347
0.0149344
0.0149341
0.0149338
0.0149335
0.0149332
0.0149329
0.0149326
0.0149323
0.0149319
0.0149316
0.0149313
0.014931
0.0149307
0.0149304
0.0149301
0.0149298
0.0149295
0.0149292
0.0149289
0.0149286
0.0149282
0.0149279
0.0149276
0.0149273
0.014927
0.0149267
0.0149264
0.0149261
0.0149258
0.0149255
0.0149252
0.0149249
0.0149245
0.0149242
0.0149239
0.0149236
0.0149233
0.014923
0.0149227
0.0149224
0.0149221
0.0149218
0.0149215
0.0149212
0.0149208
0.0149205
0.0149202
0.0149199
0.0149196
0.0149193
0.014919
0.0149187
0.0149184
0.0149181
0.0149178
0.0149175
0.0149172
0.0149168
0.0149165
0.0149162
0.0149159
0.0149156
0.0149153
0.014915
0.0149147
0.0149144
0.0149141
0.0149138
0.0149135
0.0149131
0.0149128
0.0149125
0.0149122
0.0149119
0.0149116
0.0149113
0.014911
0.0149107
0.0149104
0.0149101
0.0149098
0.0149094
0.0149091
0.0149088
0.0149085
0.0149082
0.0149079
0.0149076
0.0149073
0.014907
0.0149067
0.0149064
0.0149061
0.0149057
0.0149054
0.0149051
0.0149048
0.0149045
0.0149042
0.0149039
0.0149036
0.0149033
0.014903
0.0149027
0.0149024
0.014902
0.0149017
0.0149014
0.0149011
0.0149008
0.0149005
0.0149002
0.0148999
0.0148996
0.0148993
0.014899
0.0148987
0.0148984
0.014898
0.0148977
0.0148974
0.0148971
0.0148968
0.0148965
0.0148962
0.0148959
0.0148956
0.0148953
0.014895
0.0148947
0.0148943
0.014894
0.0148937
0.0148934
0.0148931
0.0148928
0.0148925
0.0148922
0.0148919
0.0148916
0.0148913
0.014891
0.0148906
0.0148903
0.01489
0.0148897
0.0148894
0.0148891
0.0148888
0.0148885
0.0148881
0.0148878
0.0148875
0.0148872
0.0148869
0.0148865
0.0148862
0.0148858
0.0148855
0.0148851
0.0148847
0.0148843
0.0148838
0.0148833
0.0148828
0.0148821
0.0148815
0.0148805
0.0148801
0.0148801
0.0148801
1
0.969192
0.495616
0.314223
0.237897
0.197396
0.172133
0.154696
0.141842
0.131928
0.124028
0.117573
0.112197
0.107646
0.103742
0.100355
0.0973865
0.0947622
0.0924234
0.090324
0.0884273
0.0867034
0.085128
0.083681
0.0823459
0.0811088
0.0799581
0.078884
0.077878
0.0769331
0.076043
0.0752026
0.0744071
0.0736526
0.0729357
0.072253
0.0716021
0.0709804
0.0703857
0.0698162
0.0692701
0.0687458
0.0682419
0.0677571
0.0672903
0.0668404
0.0664063
0.0659873
0.0655825
0.0651911
0.0648124
0.0644457
0.0640905
0.0637462
0.0634122
0.0630881
0.0627734
0.0624677
0.0621706
0.0618816
0.0616005
0.0613269
0.0610606
0.0608011
0.0605482
0.0603017
0.0600613
0.0598267
0.0595978
0.0593744
0.0591562
0.058943
0.0587346
0.058531
0.0583319
0.0581371
0.0579466
0.0577602
0.0575776
0.0573989
0.0572239
0.0570525
0.0568845
0.0567199
0.0565585
0.0564002
0.056245
0.0560928
0.0559434
0.0557968
0.055653
0.0555118
0.0553731
0.0552369
0.0551031
0.0549717
0.0548426
0.0547157
0.054591
0.0544684
0.0543478
0.0542293
0.0541127
0.053998
0.0538852
0.0537742
0.053665
0.0535575
0.0534516
0.0533474
0.0532449
0.0531439
0.0530444
0.0529464
0.0528499
0.0527549
0.0526612
0.0525689
0.052478
0.0523883
0.0523
0.0522129
0.052127
0.0520423
0.0519588
0.0518765
0.0517953
0.0517152
0.0516362
0.0515583
0.0514814
0.0514056
0.0513307
0.0512569
0.051184
0.051112
0.051041
0.0509709
0.0509017
0.0508334
0.050766
0.0506994
0.0506337
0.0505687
0.0505046
0.0504413
0.0503787
0.0503169
0.0502559
0.0501956
0.0501361
0.0500772
0.0500191
0.0499617
0.0499049
0.0498488
0.0497934
0.0497386
0.0496845
0.049631
0.0495781
0.0495259
0.0494742
0.0494231
0.0493726
0.0493227
0.0492734
0.0492246
0.0491764
0.0491287
0.0490815
0.0490349
0.0489888
0.0489432
0.0488981
0.0488535
0.0488094
0.0487658
0.0487226
0.04868
0.0486378
0.048596
0.0485547
0.0485139
0.0484735
0.0484335
0.048394
0.0483548
0.0483161
0.0482778
0.04824
0.0482025
0.0481654
0.0481287
0.0480924
0.0480565
0.0480209
0.0479857
0.0479509
0.0479165
0.0478824
0.0478487
0.0478153
0.0477822
0.0477496
0.0477172
0.0476852
0.0476535
0.0476221
0.0475911
0.0475603
0.0475299
0.0474998
0.04747
0.0474405
0.0474113
0.0473824
0.0473538
0.0473255
0.0472975
0.0472697
0.0472423
0.0472151
0.0471882
0.0471615
0.0471351
0.047109
0.0470832
0.0470576
0.0470322
0.0470072
0.0469823
0.0469577
0.0469334
0.0469093
0.0468854
0.0468618
0.0468384
0.0468152
0.0467923
0.0467696
0.0467471
0.0467248
0.0467028
0.046681
0.0466594
0.046638
0.0466168
0.0465958
0.046575
0.0465544
0.0465341
0.0465139
0.0464939
0.0464741
0.0464545
0.0464351
0.0464159
0.0463969
0.046378
0.0463594
0.0463409
0.0463226
0.0463045
0.0462865
0.0462688
0.0462512
0.0462337
0.0462165
0.0461994
0.0461824
0.0461657
0.046149
0.0461326
0.0461163
0.0461002
0.0460842
0.0460683
0.0460527
0.0460371
0.0460218
0.0460065
0.0459914
0.0459765
0.0459617
0.045947
0.0459325
0.0459181
0.0459039
0.0458897
0.0458758
0.0458619
0.0458482
0.0458346
0.0458211
0.0458078
0.0457946
0.0457815
0.0457686
0.0457557
0.045743
0.0457304
0.0457179
0.0457056
0.0456933
0.0456812
0.0456692
0.0456573
0.0456455
0.0456338
0.0456222
0.0456107
0.0455994
0.0455881
0.0455769
0.0455659
0.045555
0.0455441
0.0455334
0.0455227
0.0455122
0.0455017
0.0454914
0.0454811
0.0454709
0.0454609
0.0454509
0.045441
0.0454312
0.0454215
0.0454119
0.0454024
0.0453929
0.0453836
0.0453743
0.0453651
0.045356
0.045347
0.045338
0.0453292
0.0453204
0.0453117
0.0453031