# vtk DataFile Version 2.0
FlowField
ASCII
DATASET STRUCTURED_GRID
DIMENSIONS 800 1 200
POINTS 160000 float
0 0 0
0.04 0 0
0.08 0 0
0.12 0 0
0.16 0 0
0.2 0 0
0.24 0 0
0.28 0 0
0.32 0 0
0.36 0 0
0.4 0 0
0.44 0 0
0.48 0 0
0.52 0 0
0.56 0 0
0.6 0 0
0.64 0 0
0.68 0 0
0.72 0 0
0.76 0 0
0.8 0 0
0.84 0 0
0.88 0 0
0.92 0 0
0.96 0 0
1 0 0
1.04 0 0
1.08 0 0
1.12 0 0
1.16 0 0
1.2 0 0
1.24 0 0
1.28 0 0
1.32 0 0
1.36 0 0
1.4 0 0
1.44 0 0
1.48 0 0
1.52 0 0
1.56 0 0
1.6 0 0
1.64 0 0
1.68 0 0
1.72 0 0
1.76 0 0
1.8 0 0
1.84 0 0
1.88 0 0
1.92 0 0
1.96 0 0
2 0 0
2.04 0 0
2.08 0 0
2.12 0 0
2.16 0 0
2.2 0 0
2.24 0 0
2.28 0 0
2.32 0 0
2.36 0 0
2.4 0 0
2.44 0 0
2.48 0 0
2.52 0 0
2.56 0 0
2.6 0 0
2.64 0 0
2.68 0 0
2.72 0 0
2.76 0 0
2.8 0 0
2.84 0 0
2.88 0 0
2.92 0 0
2.96 0 0
3 0 0
3.04 0 0
3.08 0 0
3.12 0 0
3.16 0 0
3.2 0 0
3.24 0 0
3.28 0 0
3.32 0 0
3.36 0 0
3.4 0 0
3.44 0 0
3.48 0 0
3.52 0 0
3.56 0 0
3.6 0 0
3.64 0 0
3.68 0 0
3.72 0 0
3.76 0 0
3.8 0 0
3.84 0 0
3.88 0 0
3.92 0 0
3.96 0 0
4 0 0
4.04 0 0
4.08 0 0
4.12 0 0
4.16 0 0
4.2 0 0
4.24 0 0
4.28 0 0
4.32 0 0
4.36 0 0
4.4 0 0
4.44 0 0
4.48 0 0
4.52 0 0
4.56 0 0
4.6 0 0
4.64 0 0
4.68 0 0
4.72 0 0
4.76 0 0
4.8 0 0
4.84 0 0
4.88 0 0
4.92 0 0
4.96 0 0
5 0 0
5.04 0 0
5.08 0 0
5.12 0 0
5.16 0 0
5.2 0 0
5.24 0 0
5.28 0 0
5.32 0 0
5.36 0 0
5.4 0 0
5.44 0 0
5.48 0 0
5.52 0 0
5.56 0 0
5.6 0 0
5.64 0 0
5.68 0 0
5.72 0 0
5.76 0 0
5.8 0 0
5.84 0 0
5.88 0 0
5.92 0 0
5.96 0 0
6 0 0
6.04 0 0
6.08 0 0
6.12 0 0
6.16 0 0
6.2 0 0
6.24 0 0
6.28 0 0
6.32 0 0
6.36 0 0
6.4 0 0
6.44 0 0
6.48 0 0
6.52 0 0
6.56 0 0
6.6 0 0
6.64 0 0
6.68 0 0
6.72 0 0
6.76 0 0
6.8 0 0
6.84 0 0
6.88 0 0
6.92 0 0
6.96 0 0
7 0 0
7.04 0 0
7.08 0 0
7.12 0 0
7.16 0 0
7.2 0 0
7.24 0 0
7.28 0 0
7.32 0 0
7.36 0 0
7.4 0 0
7.44 0 0
7.48 0 0
7.52 0 0
7.56 0 0
7.6 0 0
7.64 0 0
7.68 0 0
7.72 0 0
7.76 0 0
7.8 0 0
7.84 0 0
7.88 0 0
7.92 0 0
7.96 0 0
8 0 0
8.04 0 0
8.08 0 0
8.12 0 0
8.16 0 0
8.2 0 0
8.24 0 0
8.28 0 0
8.32 0 0
8.36 0 0
8.4 0 0
8.44 0 0
8.48 0 0
8.52 0 0
8.56 0 0
8.6 0 0
8.64 0 0
8.68 0 0
8.72 0 0
8.76 0 0
8.8 0 0
8.84 0 0
8.88 0 0
8.92 0 0
8.96 0 0
9 0 0
9.04 0 0
9.08 0 0
9.12 0 0
9.16 0 0
9.2 0 0
9.24 0 0
9.28 0 0
9.32 0 0
9.36 0 0
9.4 0 0
9.44 0 0
9.48 0 0
9.52 0 0
9.56 0 0
9.6 0 0
9.64 0 0
9.68 0 0
9.72 0 0
9.76 0 0
9.8 0 0
9.84 0 0
9.88 0 0
9.92 0 0
9.96 0 0
10 0 0
10.04 0 0
10.08 0 0
10.12 0 0
10.16 0 0
10.2 0 0
10.24 0 0
10.28 0 0
10.32 0 0
10.36 0 0
10.4 0 0
10.44 0 0
10.48 0 0
10.52 0 0
10.56 0 0
10.6 0 0
10.64 0 0
10.68 0 0
10.72 0 0
10.76 0 0
10.8 0 0
10.84 0 0
10.88 0 0
10.92 0 0
10.96 0 0
11 0 0
11.04 0 0
11.08 0 0
11.12 0 0
11.16 0 0
11.2 0 0
11.24 0 0
11.28 0 0
11.32 0 0
11.36 0 0
11.4 0 0
11.44 0 0
11.48 0 0
11.52 0 0
11.56 0 0
11.6 0 0
11.64 0 0
11.68 0 0
11.72 0 0
11.76 0 0
11.8 0 0
11.84 0 0
11.88 0 0
11.92 0 0
11.96 0 0
12 0 0
12.04 0 0
12.08 0 0
12.12 0 0
12.16 0 0
12.2 0 0
12.24 0 0
12.28 0 0
12.32 0 0
12.36 0 0
12.4 0 0
12.44 0 0
12.48 0 0
12.52 0 0
12.56 0 0
12.6 0 0
12.64 0 0
12.68 0 0
12.72 0 0
12.76 0 0
12.8 0 0
12.84 0 0
12.88 0 0
12.92 0 0
12.96 0 0
13 0 0
13.04 0 0
13.08 0 0
13.12 0 0
13.16 0 0
13.2 0 0
13.24 0 0
13.28 0 0
13.32 0 0
13.36 0 0
13.4 0 0
13.44 0 0
13.48 0 0
13.52 0 0
13.56 0 0
13.6 0 0
13.64 0 0
13.68 0 0
13.72 0 0
13.76 0 0
13.8 0 0
13.84 0 0
13.88 0 0
13.92 0 0
13.96 0 0
14 0 0
14.04 0 0
14.08 0 0
14.12 0 0
14.16 0 0
14.2 0 0
14.24 0 0
14.28 0 0
14.32 0 0
14.36 0 0
14.4 0 0
14.44 0 0
14.48 0 0
14.52 0 0
14.56 0 0
14.6 0 0
14.64 0 0
14.68 0 0
14.72 0 0
14.76 0 0
14.8 0 0
14.84 0 0
14.88 0 0
14.92 0 0
14.96 0 0
15 0 0
15.04 0 0
15.08 0 0
15.12 0 0
15.16 0 0
15.2 0 0
15.24 0 0
15.28 0 0
15.32 0 0
15.36 0 0
15.4 0 0
15.44 0 0
15.48 0 0
15.52 0 0
15.56 0 0
15.6 0 0
15.64 0 0
15.68 0 0
15.72 0 0
15.76 0 0
15.8 0 0
15.84 0 0
15.88 0 0
15.92 0 0
15.96 0 0
16 0 0
16.04 0 0
16.08 0 0
16.12 0 0
16.16 0 0
16.2 0 0
16.24 0 0
16.28 0 0
16.32 0 0
16.36 0 0
16.4 0 0
16.44 0 0
16.48 0 0
16.52 0 0
16.56 0 0
16.6 0 0
16.64 0 0
16.68 0 0
16.72 0 0
16.76 0 0
16.8 0 0
16.84 0 0
16.88 0 0
16.92 0 0
16.96 0 0
17 0 0
17.04 0 0
17.08 0 0
17.12 0 0
17.16 0 0
17.2 0 0
17.24 0 0
17.28 0 0
17.32 0 0
17.36 0 0
17.4 0 0
17.44 0 0
17.48 0 0
17.52 0 0
17.56 0 0
17.6 0 0
17.64 0 0
17.68 0 0
17.72 0 0
17.76 0 0
17.8 0 0
17.84 0 0
17.88 0 0
17.92 0 0
17.96 0 0
18 0 0
18.04 0 0
18.08 0 0
18.12 0 0
18.16 0 0
18.2 0 0
18.24 0 0
18.28 0 0
18.32 0 0
18.36 0 0
18.4 0 0
18.44 0 0
18.48 0 0
18.52 0 0
18.56 0 0
18.6 0 0
18.64 0 0
18.68 0 0
18.72 0 0
18.76 0 0
18.8 0 0
18.84 0 0
18.88 0 0
18.92 0 0
18.96 0 0
19 0 0
19.04 0 0
19.08 0 0
19.12 0 0
19.16 0 0
19.2 0 0
19.24 0 0
19.28 0 0
19.32 0 0
19.36 0 0
19.4 0 0
19.44 0 0
19.48 0 0
19.52 0 0
19.56 0 0
19.6 0 0
19.64 0 0
19.68 0 0
19.72 0 0
19.76 0 0
19.8 0 0
19.84 0 0
19.88 0 0
19.92 0 0
19.96 0 0
20 0 0
20.04 0 0
20.08 0 0
20.12 0 0
20.16 0 0
20.2 0 0
20.24 0 0
20.28 0 0
20.32 0 0
20.36 0 0
20.4 0 0
20.44 0 0
20.48 0 0
20.52 0 0
20.56 0 0
20.6 0 0
20.64 0 0
20.68 0 0
20.72 0 0
20.76 0 0
20.8 0 0
20.84 0 0
20.88 0 0
20.92 0 0
20.96 0 0
21 0 0
21.04 0 0
21.08 0 0
21.12 0 0
21.16 0 0
21.2 0 0
21.24 0 0
21.28 0 0
21.32 0 0
21.36 0 0
21.4 0 0
21.44 0 0
21.48 0 0
21.52 0 0
21.56 0 0
21.6 0 0
21.64 0 0
21.68 0 0
21.72 0 0
21.76 0 0
21.8 0 0
21.84 0 0
21.88 0 0
21.92 0 0
21.96 0 0
22 0 0
22.04 0 0
22.08 0 0
22.12 0 0
22.16 0 0
22.2 0 0
22.24 0 0
22.28 0 0
22.32 0 0
22.36 0 0
22.4 0 0
22.44 0 0
22.48 0 0
22.52 0 0
22.56 0 0
22.6 0 0
22.64 0 0
22.68 0 0
22.72 0 0
22.76 0 0
22.8 0 0
22.84 0 0
22.88 0 0
22.92 0 0
22.96 0 0
23 0 0
23.04 0 0
23.08 0 0
23.12 0 0
23.16 0 0
23.2 0 0
23.24 0 0
23.28 0 0
23.32 0 0
23.36 0 0
23.4 0 0
23.44 0 0
23.48 0 0
23.52 0 0
23.56 0 0
23.6 0 0
23.64 0 0
23.68 0 0
23.72 0 0
23.76 0 0
23.8 0 0
23.84 0 0
23.88 0 0
23.92 0 0
23.96 0 0
24 0 0
24.04 0 0
24.08 0 0
24.12 0 0
24.16 0 0
24.2 0 0
24.24 0 0
24.28 0 0
24.32 0 0
24.36 0 0
24.4 0 0
24.44 0 0
24.48 0 0
24.52 0 0
24.56 0 0
24.6 0 0
24.64 0 0
24.68 0 0
24.72 0 0
24.76 0 0
24.8 0 0
24.84 0 0
24.88 0 0
24.92 0 0
24.96 0 0
25 0 0
25.04 0 0
25.08 0 0
25.12 0 0
25.16 0 0
25.2 0 0
25.24 0 0
25.28 0 0
25.32 0 0
25.36 0 0
25.4 0 0
25.44 0 0
25.48 0 0
25.52 0 0
25.56 0 0
25.6 0 0
25.64 0 0
25.68 0 0
25.72 0 0
25.76 0 0
25.8 0 0
25.84 0 0
25.88 0 0
25.92 0 0
25.96 0 0
26 0 0
26.04 0 0
26.08 0 0
26.12 0 0
26.16 0 0
26.2 0 0
26.24 0 0
26.28 0 0
26.32 0 0
26.36 0 0
26.4 0 0
26.44 0 0
26.48 0 0
26.52 0 0
26.56 0 0
26.6 0 0
26.64 0 0
26.68 0 0
26.72 0 0
26.76 0 0
26.8 0 0
26.84 0 0
26.88 0 0
26.92 0 0
26.96 0 0
27 0 0
27.04 0 0
27.08 0 0
27.12 0 0
27.16 0 0
27.2 0 0
27.24 0 0
27.28 0 0
27.32 0 0
27.36 0 0
27.4 0 0
27.44 0 0
27.48 0 0
27.52 0 0
27.56 0 0
27.6 0 0
27.64 0 0
27.68 0 0
27.72 0 0
27.76 0 0
27.8 0 0
27.84 0 0
27.88 0 0
27.92 0 0
27.96 0 0
28 0 0
28.04 0 0
28.08 0 0
28.12 0 0
28.16 0 0
28.2 0 0
28.24 0 0
28.28 0 0
28.32 0 0
28.36 0 0
28.4 0 0
28.44 0 0
28.48 0 0
28.52 0 0
28.56 0 0
28.6 0 0
28.64 0 0
28.68 0 0
28.72 0 0
28.76 0 0
28.8 0 0
28.84 0 0
28.88 0 0
28.92 0 0
28.96 0 0
29 0 0
29.04 0 0
29.08 0 0
29.12 0 0
29.16 0 0
29.2 0 0
29.24 0 0
29.28 0 0
29.32 0 0
29.36 0 0
29.4 0 0
29.44 0 0
29.48 0 0
29.52 0 0
29.56 0 0
29.6 0 0
29.64 0 0
29.68 0 0
29.72 0 0
29.76 0 0
29.8 0 0
29.84 0 0
29.88 0 0
29.92 0 0
29.96 0 0
30 0 0
30.04 0 0
30.08 0 0
30.12 0 0
30.16 0 0
30.2 0 0
30.24 0 0
30.28 0 0
30.32 0 0
30.36 0 0
30.4 0 0
30.44 0 0
30.48 0 0
30.52 0 0
30.56 0 0
30.6 0 0
30.64 0 0
30.68 0 0
30.72 0 0
30.76 0 0
30.8 0 0
30.84 0 0
30.88 0 0
30.92 0 0
30.96 0 0
31 0 0
31.04 0 0
31.08 0 0
31.12 0 0
31.16 0 0
31.2 0 0
31.24 0 0
31.28 0 0
31.32 0 0
31.36 0 0
31.4 0 0
31.44 0 0
31.48 0 0
31.52 0 0
31.56 0 0
31.6 0 0
31.64 0 0
31.68 0 0
31.72 0 0
31.76 0 0
31.8 0 0
31.84 0 0
31.88 0 0
31.92 0 0
31.96 0 0
0 0.005 0
0.04 0.005 0
0.08 0.005 0
0.12 0.005 0
0.16 0.005 0
0.2 0.005 0
0.24 0.005 0
0.28 0.005 0
0.32 0.005 0
0.36 0.005 0
0.4 0.005 0
0.44 0.005 0
0.48 0.005 0
0.52 0.005 0
0.56 0.005 0
0.6 0.005 0
0.64 0.005 0
0.68 0.005 0
0.72 0.005 0
0.76 0.005 0
0.8 0.005 0
0.84 0.005 0
0.88 0.005 0
0.92 0.005 0
0.96 0.005 0
1 0.005 0
1.04 0.005 0
1.08 0.005 0
1.12 0.005 0
1.16 0.005 0
1.2 0.005 0
1.24 0.005 0
1.28 0.005 0
1.32 0.005 0
1.36 0.005 0
1.4 0.005 0
1.44 0.005 0
1.48 0.005 0
1.52 0.005 0
1.56 0.005 0
1.6 0.005 0
1.64 0.005 0
1.68 0.005 0
1.72 0.005 0
1.76 0.005 0
1.8 0.005 0
1.84 0.005 0
1.88 0.005 0
1.92 0.005 0
1.96 0.005 0
2 0.005 0
2.04 0.005 0
2.08 0.005 0
2.12 0.005 0
2.16 0.005 0
2.2 0.005 0
2.24 0.005 0
2.28 0.005 0
2.32 0.005 0
2.36 0.005 0
2.4 0.005 0
2.44 0.005 0
2.48 0.005 0
2.52 0.005 0
2.56 0.005 0
2.6 0.005 0
2.64 0.005 0
2.68 0.005 0
2.72 0.005 0
2.76 0.005 0
2.8 0.005 0
2.84 0.005 0
2.88 0.005 0
2.92 0.005 0
2.96 0.005 0
3 0.005 0
3.04 0.005 0
3.08 0.005 0
3.12 0.005 0
3.16 0.005 0
3.2 0.005 0
3.24 0.005 0
3.28 0.005 0
3.32 0.005 0
3.36 0.005 0
3.4 0.005 0
3.44 0.005 0
3.48 0.005 0
3.52 0.005 0
3.56 0.005 0
3.6 0.005 0
3.64 0.005 0
3.68 0.005 0
3.72 0.005 0
3.76 0.005 0
3.8 0.005 0
3.84 0.005 0
3.88 0.005 0
3.92 0.005 0
3.96 0.005 0
4 0.005 0
4.04 0.005 0
4.08 0.005 0
4.12 0.005 0
4.16 0.005 0
4.2 0.005 0
4.24 0.005 0
4.28 0.005 0
4.32 0.005 0
4.36 0.005 0
4.4 0.005 0
4.44 0.005 0
4.48 0.005 0
4.52 0.005 0
4.56 0.005 0
4.6 0.005 0
4.64 0.005 0
4.68 0.005 0
4.72 0.005 0
4.76 0.005 0
4.8 0.005 0
4.84 0.005 0
4.88 0.005 0
4.92 0.005 0
4.96 0.005 0
5 0.005 0
5.04 0.005 0
5.08 0.005 0
5.12 0.005 0
5.16 0.005 0
5.2 0.005 0
5.24 0.005 0
5.28 0.005 0
5.32 0.005 0
5.36 0.005 0
5.4 0.005 0
5.44 0.005 0
5.48 0.005 0
5.52 0.005 0
5.56 0.005 0
5.6 0.005 0
5.64 0.005 0
5.68 0.005 0
5.72 0.005 0
5.76 0.005 0
5.8 0.005 0
5.84 0.005 0
5.88 0.005 0
5.92 0.005 0
5.96 0.005 0
6 0.005 0
6.04 0.005 0
6.08 0.005 0
6.12 0.005 0
6.16 0.005 0
6.2 0.005 0
6.24 0.005 0
6.28 0.005 0
6.32 0.005 0
6.36 0.005 0
6.4 0.005 0
6.44 0.005 0
6.48 0.005 0
6.52 0.005 0
6.56 0.005 0
6.6 0.005 0
6.64 0.005 0
6.68 0.005 0
6.72 0.005 0
6.76 0.005 0
6.8 0.005 0
6.84 0.005 0
6.88 0.005 0
6.92 0.005 0
6.96 0.005 0
7 0.005 0
7.04 0.005 0
7.08 0.005 0
7.12 0.005 0
7.16 0.005 0
7.2 0.005 0
7.24 0.005 0
7.28 0.005 0
7.32 0.005 0
7.36 0.005 0
7.4 0.005 0
[...]
POINT_DATA 160000

SCALARS v float 1
LOOKUP_TABLE default
0
0
0
0
0
0
0
0
0
0
0
0
0
0
0
0
0
0
0
0
0
0
0
0
0
0
0
0
0
0
0
0
0
0
0
0
0
0
0
0
0
0
0
0
0
0
0
0
0
0
0
0
0
0
0
0
0
0
0
0
0
0
0
0
0
0
0
0
0
0
0
0
0
0
0
0
0
0
0
0
0
0
0
0
0
0
0
0
0
0
0
0
0
0
0
0
0
0
0
0
0
0
0
0
0
0
0
0
0
0
0
0
0
0
0
0
0
0
0
0
0
0
0
0
0
0
0
0
0
0
0
0
0
0
0
0
0
0
0
0
0
0
0
0
0
0
0
0
0
0
0
0
0
0
0
0
0
0
0
0
0
0
0
0
0
0
0
0
0
0
0
0
0
0
0
0
0
0
0
0
0
0
0
0
0
0
0
0
0
0
0
0
0
0
0
0
0
0
0
0
0
0
0
0
0
0
0
0
0
0
0
0
0
0
0
0
0
0
0
0
0
0
0
0
0
0
0
0
0
0
0
0
0
0
0
0
0
0
0
0
0
0
0
0
0
0
0
0
0
0
0
0
0
0
0
0
0
0
0
0
0
0
0
0
0
0
0
0
0
0
0
0
0
0
0
0
0
0
0
0
0
0
0
0
0
0
0
0
0
0
0
0
0
0
0
0
0
0
0
0
0
0
0
0
0
0
0
0
0
0
0
0
0
0
0
0
0
0
0
0
0
0
0
0
0
0
0
0
0
0
0
0
0
0
0
0
0
0
0
0
0
0
0
0
0
0
0
0
0
0
0
0
0
0
0
0
0
0
0
0
0
0
0
0
0
0
0
0
0
0
0
0
0
0
0
0
0
0
0
0
0
0
0
0
0
0
0
0
0
0
0
0
0
0
0
0
0
0
0
0
0
0
0
0
0
0
0
0
0
0
0
0
0
0
0
0
0
0
0
0
0
0
0
0
0
0
0
0
0
0
0
0
0
0
0
0
0
0
0
0
0
0
0
0
0
0
0
0
0
0
0
0
0
0
0
0
0
0
0
0
0
0
0
0
0
0
0
0
0
0
0
0
0
0
0
0
0
0
0
0
0
0
0
0
0
0
0
0
0
0
0
0
0
0
0
0
0
0
0
0
0
0
0
0
0
0
0
0
0
0
0
0
0
0
0
0
0
0
0
0
0
0
0
0
0
0
0
0
0
0
0
0
0
0
0
0
0
0
0
0
0
0
0
0
0
0
0
0
0
0
0
0
0
0
0
0
0
0
0
0
0
0
0
0
0
0
0
0
0
0
0
0
0
0
0
0
0
0
0
0
0
0
0
0
0
0
0
0
0
0
0
0
0
0
0
0
0
0
0
0
0
0
0
0
0
0
0
0
0
0
0
0
0
0
0
0
0
0
0
0
0
0
0
0
0
0
0
0
0
0
0
0
0
0
0
0
0
0
0
0
0
0
0
0
0
0
0
0
0
0
0
0
0
0
0
0
0
0
0
0
0
0
0
0
0
0
0
0
0
0
0
0
0
0
0
0
0
0
0
0
0
0
0
0
0
0
0
0
0
0
0
0
0
0
0
0
0
0
0
0
0
0
0
0
0
0
0
0
0
0
0
0
0
0
0
0
0
0
0
0
0
0
0
0
0
0
0
0
0
0
0
0
0
0
0
0
0
0
0
0
0
0
0
0
0
0
0
0
0
0
0
0
0
0
0
0
0
0
0
0
0
0
0
0
0
0
0
0
0
0
0
0
0
0
0
0
0
0
0
0
0
0
0
0
0
0
0
0
0
0
0
0
0
0
0
0
0
0
0
0
0
0
0.0374156
0.00938096
0.0034678
0.00176618
0.0010807
0.000736941
0.000538164
0.000411619
0.000325419
0.000263731
0.00021791
0.000182879
0.000155477
0.000133641
0.000115968
0.000101477
8.94581e-05
7.93902e-05
7.08803e-05
6.36283e-05
5.74015e-05
5.20173e-05
4.73308e-05
4.32262e-05
3.96098e-05
3.64057e-05
3.35518e-05
3.09969e-05
2.86988e-05
2.66222e-05
2.47377e-05
2.30208e-05
2.14506e-05
2.00095e-05
1.86824e-05
1.74566e-05
1.63211e-05
1.52663e-05
1.42842e-05
1.33675e-05
1.251e-05
1.17063e-05
1.09516e-05
1.02417e-05
9.5727e-06
8.94139e-06
8.34474e-06
7.78009e-06
7.24503e-06
6.7374e-06
6.25525e-06
5.7968e-06
5.36043e-06
4.94469e-06
4.54822e-06
4.16978e-06
3.80826e-06
3.46262e-06
3.13191e-06
2.81523e-06
2.51176e-06
2.22077e-06
1.94155e-06
1.67344e-06
1.41584e-06
1.16819e-06
9.29974e-07
7.0069e-07
4.79879e-07
2.67116e-07
6.20074e-08
-1.35828e-07
-3.26746e-07
-5.11075e-07
-6.89126e-07
-8.61191e-07
-1.02754e-06
-1.18844e-06
-1.34413e-06
-1.49485e-06
-1.64081e-06
-1.78222e-06
-1.91927e-06
-2.05215e-06
-2.18103e-06
-2.30608e-06
-2.42745e-06
-2.54529e-06
-2.65974e-06
-2.77095e-06
-2.87902e-06
-2.9841e-06
-3.08629e-06
-3.18569e-06
-3.28242e-06
-3.37658e-06
-3.46825e-06
-3.55754e-06
-3.64452e-06
-3.72928e-06
-3.8119e-06
-3.89245e-06
-3.97101e-06
-4.04764e-06
-4.12241e-06
-4.19538e-06
-4.26661e-06
-4.33617e-06
-4.4041e-06
-4.47046e-06
-4.5353e-06
-4.59867e-06
-4.66062e-06
-4.72118e-06
-4.78041e-06
-4.83835e-06
-4.89502e-06
-4.95049e-06
-5.00478e-06
-5.05792e-06
-5.10995e-06
-5.16091e-06
-5.21082e-06
-5.25971e-06
-5.30762e-06
-5.35457e-06
-5.40059e-06
-5.44571e-06
-5.48995e-06
-5.53334e-06
-5.57589e-06
-5.61764e-06
-5.6586e-06
-5.6988e-06
-5.73825e-06
-5.77698e-06
-5.81501e-06
-5.85234e-06
-5.88901e-06
-5.92503e-06
-5.96042e-06
-5.99518e-06
-6.02934e-06
-6.06291e-06
-6.09591e-06
-6.12835e-06
-6.16024e-06
-6.19161e-06
-6.22245e-06
-6.25278e-06
-6.28262e-06
-6.31198e-06
-6.34087e-06
-6.36929e-06
-6.39727e-06
-6.4248e-06
-6.45191e-06
-6.47859e-06
-6.50486e-06
-6.53074e-06
-6.55622e-06
-6.58131e-06
-6.60603e-06
-6.63038e-06
-6.65437e-06
-6.678e-06
-6.7013e-06
-6.72425e-06
-6.74687e-06
-6.76918e-06
-6.79116e-06
-6.81283e-06
-6.8342e-06
-6.85528e-06
-6.87605e-06
-6.89654e-06
-6.91675e-06
-6.93669e-06
-6.95635e-06
-6.97575e-06
-6.99489e-06
-7.01377e-06
-7.0324e-06
-7.05079e-06
-7.06894e-06
-7.08684e-06
-7.10452e-06
-7.12196e-06
-7.13919e-06
-7.15619e-06
-7.17298e-06
-7.18956e-06
-7.20592e-06
-7.22208e-06
-7.23804e-06
-7.2538e-06
-7.26936e-06
-7.28473e-06
-7.29992e-06
-7.31492e-06
-7.32973e-06
-7.34437e-06
-7.35883e-06
-7.37312e-06
-7.38723e-06
-7.40117e-06
-7.41495e-06
-7.42857e-06
-7.44203e-06
-7.45532e-06
-7.46846e-06
-7.48145e-06
-7.49429e-06
-7.50698e-06
-7.51952e-06
-7.53191e-06
-7.54416e-06
-7.55628e-06
-7.56826e-06
-7.5801e-06
-7.5918e-06
-7.60336e-06
-7.6148e-06
-7.62611e-06
-7.6373e-06
-7.64836e-06
-7.65929e-06
-7.6701e-06
-7.6808e-06
-7.69138e-06
-7.70184e-06
-7.71219e-06
-7.72242e-06
-7.73256e-06
-7.74258e-06
-7.75251e-06
-7.76233e-06
-7.77205e-06
-7.78168e-06
-7.79121e-06
-7.80066e-06
-7.81002e-06
-7.8193e-06
-7.8285e-06
-7.83762e-06
-7.84666e-06
-7.85564e-06
-7.86455e-06
-7.8734e-06
-7.88219e-06
-7.89093e-06
-7.89962e-06
-7.90825e-06
-7.91684e-06
-7.92539e-06
-7.93391e-06
-7.94239e-06
-7.95085e-06
-7.95927e-06
-7.96767e-06
-7.97604e-06
-7.9844e-06
-7.99274e-06
-8.00108e-06
-8.0094e-06
-8.01771e-06
-8.02601e-06
-8.03429e-06
-8.04258e-06
-8.05086e-06
-8.05914e-06
-8.06742e-06
-8.07569e-06
-8.08396e-06
-8.09222e-06
-8.10049e-06
-8.10875e-06
-8.11701e-06
-8.12525e-06
-8.1335e-06
-8.14174e-06
-8.14998e-06
-8.1582e-06
-8.16641e-06
-8.17461e-06
-8.1828e-06
-8.19097e-06
-8.19913e-06
-8.20727e-06
-8.21539e-06
-8.22348e-06
-8.23156e-06
-8.23961e-06
-8.24763e-06
-8.25562e-06
-8.26359e-06
-8.27152e-06
-8.27941e-06
-8.28727e-06
-8.29508e-06
-8.30286e-06
-8.31059e-06
-8.31828e-06
-8.32592e-06
-8.33351e-06
-8.34106e-06
-8.34854e-06
-8.35597e-06
-8.36335e-06
-8.37067e-06
-8.37793e-06
-8.38512e-06
-8.39225e-06
-8.39932e-06
-8.40632e-06
-8.41324e-06
-8.4201e-06
-8.42689e-06
-8.4336e-06
-8.44024e-06
-8.4468e-06
-8.45327e-06
-8.45967e-06
-8.46599e-06
-8.47224e-06
-8.47839e-06
-8.48446e-06
-8.49043e-06
-8.49633e-06
-8.50215e-06
-8.50787e-06
-8.5135e-06
-8.51905e-06
-8.5245e-06
-8.52986e-06
-8.53514e-06
-8.54031e-06
-8.5454e-06
-8.5504e-06
-8.5553e-06
-8.56012e-06
-8.56483e-06
-8.56945e-06
-8.57398e-06
-8.57842e-06
-8.58277e-06
-8.58702e-06
-8.59118e-06
-8.59524e-06
-8.59921e-06
-8.6031e-06
-8.60689e-06
-8.61059e-06
-8.61419e-06
-8.61771e-06
-8.62114e-06
-8.62448e-06
-8.62773e-06
-8.63089e-06
-8.63397e-06
-8.63696e-06
-8.63986e-06
-8.64268e-06
-8.64542e-06
-8.64807e-06
-8.65064e-06
-8.65313e-06
-8.65554e-06
-8.65787e-06
-8.66012e-06
-8.6623e-06
-8.6644e-06
-8.66642e-06
-8.66837e-06
-8.67025e-06
-8.67206e-06
-8.6738e-06
-8.67547e-06
-8.67707e-06
-8.67861e-06
-8.68008e-06
-8.68149e-06
-8.68284e-06
-8.68412e-06
-8.68535e-06
-8.68653e-06
-8.68764e-06
-8.6887e-06
-8.68971e-06
-8.69066e-06
-8.69157e-06
-8.69243e-06
-8.69325e-06
-8.69401e-06
-8.69473e-06
-8.69541e-06
-8.69605e-06
-8.69665e-06
-8.69721e-06
-8.69774e-06
-8.69822e-06
-8.69867e-06
-8.69909e-06
-8.69948e-06
-8.69984e-06
-8.70017e-06
-8.70048e-06
-8.70075e-06
-8.701e-06
-8.70123e-06
-8.70143e-06
-8.70162e-06
-8.70179e-06
-8.70194e-06
-8.70207e-06
-8.70219e-06
-8.70231e-06
-8.70241e-06
-8.7025e-06
-8.70259e-06
-8.70266e-06
-8.70273e-06
-8.7028e-06
-8.70287e-06
-8.70293e-06
-8.70299e-06
-8.70305e-06
-8.7031e-06
-8.70315e-06
-8.70321e-06
-8.70326e-06
-8.70331e-06
-8.70337e-06
-8.70342e-06
-8.70347e-06
-8.70352e-06
-8.70357e-06
-8.70362e-06
-8.70367e-06
-8.70373e-06
-8.70378e-06
-8.70383e-06
-8.70388e-06
-8.70393e-06
-8.70398e-06
-8.70403e-06
-8.70408e-06
-8.70413e-06
-8.70419e-06
-8.70425e-06
-8.7043e-06
-8.70436e-06
-8.7044e-06
-8.70445e-06
-8.7045e-06
-8.70456e-06
-8.70461e-06
-8.70466e-06
-8.70472e-06
-8.70477e-06
-8.70482e-06
-8.70487e-06
-8.70492e-06
-8.70498e-06
-8.70503e-06
-8.70508e-06
-8.70513e-06
-8.70518e-06
-8.70524e-06
-8.70529e-06
-8.70534e-06
-8.70539e-06
-8.70545e-06
-8.7055e-06
-8.70555e-06
-8.7056e-06
-8.70566e-06
-8.70571e-06
-8.70576e-06
-8.70581e-06
-8.70586e-06
-8.70592e-06
-8.70597e-06
-8.70602e-06
-8.70607e-06
-8.70613e-06
-8.70618e-06
-8.70623e-06
-8.70629e-06
-8.70634e-06
-8.70639e-06
-8.70645e-06
-8.70649e-06
-8.70654e-06
-8.7066e-06
-8.70665e-06
-8.7067e-06
-8.70676e-06
-8.70681e-06
-8.70686e-06
-8.70691e-06
-8.70697e-06
-8.70702e-06
-8.70707e-06
-8.70712e-06
-8.70717e-06
-8.70723e-06
-8.70729e-06
-8.70734e-06
-8.70739e-06
-8.70744e-06
-8.70749e-06
-8.70754e-06
-8.70759e-06
-8.70765e-06
-8.7077e-06
-8.70776e-06
-8.70781e-06
-8.70786e-06
-8.70791e-06
-8.70797e-06
-8.70802e-06
-8.70807e-06
-8.70813e-06
-8.70818e-06
-8.70823e-06
-8.70829e-06
-8.70834e-06
-8.70839e-06
-8.70844e-06
-8.70849e-06
-8.70854e-06
-8.7086e-06
-8.70866e-06
-8.70871e-06
-8.70876e-06
-8.70881e-06
-8.70886e-06
-8.70892e-06
-8.70898e-06
-8.70903e-06
-8.70908e-06
-8.70913e-06
-8.70918e-06
-8.70924e-06
-8.70929e-06
-8.70934e-06
-8.70939e-06
-8.70945e-06
-8.7095e-06
-8.70955e-06
-8.7096e-06
-8.70966e-06
-8.70971e-06
-8.70977e-06
-8.70982e-06
-8.70987e-06
-8.70992e-06
-8.70998e-06
-8.71003e-06
-8.71008e-06
-8.71013e-06
-8.71019e-06
-8.71024e-06
-8.7103e-06
-8.71035e-06
-8.7104e-06
-8.71045e-06
-8.7105e-06
-8.71056e-06
-8.71062e-06
-8.71067e-06
-8.71072e-06
-8.71077e-06
-8.71083e-06
-8.71088e-06
-8.71094e-06
-8.71099e-06
-8.71104e-06
-8.7111e-06
-8.71115e-06
-8.7112e-06
-8.71125e-06
-8.71131e-06
-8.71136e-06
-8.71141e-06
-8.71146e-06
-8.71152e-06
-8.71157e-06
-8.71162e-06
-8.71168e-06
-8.71173e-06
-8.71178e-06
-8.71184e-06
-8.71189e-06
-8.71194e-06
-8.712e-06
-8.71205e-06
-8.7121e-06
-8.71216e-06
-8.71221e-06
-8.71227e-06
-8.71232e-06
-8.71237e-06
-8.71242e-06
-8.71248e-06
-8.71254e-06
-8.71259e-06
-8.71264e-06
-8.71269e-06
-8.71274e-06
-8.7128e-06
-8.71285e-06
-8.7129e-06
-8.71296e-06
-8.71301e-06
-8.71306e-06
-8.71312e-06
-8.71317e-06
-8.71323e-06
-8.71328e-06
-8.71333e-06
-8.71338e-06
-8.71344e-06
-8.71349e-06
-8.71354e-06
-8.7136e-06
-8.71365e-06
-8.71371e-06
-8.71376e-06
-8.71382e-06
-8.71387e-06
-8.71392e-06
-8.71397e-06
-8.71402e-06
-8.71408e-06
-8.71413e-06
-8.71419e-06
-8.71424e-06
-8.7143e-06
-8.71435e-06
-8.7144e-06
-8.71445e-06
-8.71451e-06
-8.71456e-06
-8.71462e-06
-8.71467e-06
-8.71473e-06
-8.71478e-06
-8.71483e-06
-8.71489e-06
-8.71494e-06
-8.715e-06
-8.71505e-06
-8.71511e-06
-8.71516e-06
-8.71521e-06
-8.71526e-06
-8.71532e-06
-8.71537e-06
-8.71542e-06
-8.71547e-06
-8.71553e-06
-8.71559e-06
-8.71564e-06
-8.7157e-06
-8.71575e-06
-8.7158e-06
-8.71586e-06
-8.71591e-06
-8.71596e-06
-8.71602e-06
-8.71607e-06
-8.71612e-06
-8.71618e-06
-8.71623e-06
-8.71629e-06
-8.71634e-06
-8.71639e-06
-8.71645e-06
-8.7165e-06
-8.71656e-06
-8.71661e-06
-8.71666e-06
-8.71672e-06
-8.71677e-06
-8.71683e-06
-8.71688e-06
-8.71693e-06
-8.71699e-06
-8.71705e-06
-8.7171e-06
-8.71715e-06
-8.71721e-06
-8.71726e-06
-8.71731e-06
-8.71737e-06
-8.71742e-06
-8.71747e-06
-8.71753e-06
-8.71759e-06
-8.71764e-06
-8.71769e-06
-8.71775e-06
-8.7178e-06
-8.71786e-06
-8.71791e-06
-8.71797e-06
-8.71802e-06
-8.71807e-06
-8.71812e-06
-8.71818e-06
-8.71824e-06
-8.71829e-06
-8.71834e-06
-8.7184e-06
-8.71845e-06
-8.7185e-06
-8.71855e-06
-8.71861e-06
-8.71867e-06
-8.71872e-06
-8.71878e-06
-8.71883e-06
-8.71889e-06
-8.71894e-06
-8.71899e-06
-8.71905e-06
-8.7191e-06
-8.71916e-06
-8.71921e-06
-8.71927e-06
-8.71933e-06
-8.71938e-06
-8.71943e-06
-8.71948e-06
-8.71954e-06
-8.71959e-06
-8.71965e-06
-8.7197e-06
-8.71975e-06
-8.71981e-06
-8.71987e-06
-8.71992e-06
-8.71997e-06
-8.72003e-06
-8.72008e-06
-8.72013e-06
-8.72019e-06
-8.72025e-06
-8.7203e-06
-8.72035e-06
-8.72041e-06
-8.72046e-06
-8.72051e-06
-8.72057e-06
-8.72062e-06
-8.72068e-06
-8.72073e-06
-8.72077e-06
-8.72082e-06
-8.72088e-06
-8.72093e-06
-8.72097e-06
-8.72101e-06
-8.72106e-06
-8.7211e-06
-8.72113e-06
-8.72116e-06
-8.72118e-06
-8.72119e-06
-8.72119e-06
-8.72118e-06
-8.72115e-06
-8.72109e-06
-8.721e-06
-8.72088e-06
-8.72071e-06
-8.72048e-06
-8.72019e-06
-8.71978e-06
-8.71928e-06
-8.71857e-06
-8.71773e-06
-8.71654e-06
-8.71519e-06
-8.71315e-06
-8.711e-06
-8.70739e-06
-8.70414e-06
-8.69732e-06
-8.69308e-06
-8.67809e-06
-8.6772e-06
-8.63244e-06
-8.70987e-06
-6.15695e-06
-6.15695e-06
0
0
0.0966098
0.0320525
0.013006
0.00682617
0.00423587
0.00291393
0.00214229
0.00164821
0.00131035
0.00106787
0.000887358
0.00074911
0.000640805
0.000554382
0.000484358
0.000426878
0.000379163
0.00033916
0.000305323
0.00027647
0.000251683
0.000230241
0.000211571
0.000195214
0.0001808
0.000168029
0.000156652
0.000146468
0.000137307
0.000129031
0.000121522
0.000114681
0.000108426
0.000102687
9.74033e-05
9.2524e-05
8.80051e-05
8.38089e-05
7.99023e-05
7.62571e-05
7.28482e-05
6.96538e-05
6.66548e-05
6.38342e-05
6.1177e-05
5.86698e-05
5.63007e-05
5.40591e-05
5.19353e-05
4.99207e-05
4.80074e-05
4.61885e-05
4.44574e-05
4.28083e-05
4.12358e-05
3.9735e-05
3.83014e-05
3.69309e-05
3.56197e-05
3.43642e-05
3.31613e-05
3.20079e-05
3.09011e-05
2.98385e-05
2.88177e-05
2.78363e-05
2.68923e-05
2.59838e-05
2.51089e-05
2.42659e-05
2.34533e-05
2.26695e-05
2.19131e-05
2.11829e-05
2.04776e-05
1.97961e-05
1.91371e-05
1.84998e-05
1.78832e-05
1.72862e-05
1.67081e-05
1.61481e-05
1.56053e-05
1.50791e-05
1.45687e-05
1.40735e-05
1.35929e-05
1.31263e-05
1.26731e-05
1.22327e-05
1.18048e-05
1.13888e-05
1.09842e-05
1.05906e-05
1.02076e-05
9.83483e-06
9.47188e-06
9.11839e-06
8.77404e-06
8.43848e-06
8.1114e-06
7.79252e-06
7.48153e-06
7.17818e-06
6.8822e-06
6.59335e-06
6.31137e-06
6.03604e-06
5.76714e-06
5.50446e-06
5.24781e-06
4.99699e-06
4.7518e-06
4.51208e-06
4.27765e-06
4.04835e-06
3.82402e-06
3.6045e-06
3.38965e-06
3.17933e-06
2.97341e-06
2.77175e-06
2.57424e-06
2.38074e-06
2.19115e-06
2.00534e-06
1.82322e-06
1.64468e-06
1.46961e-06
1.29793e-06
1.12953e-06
9.6434e-07
8.02254e-07
6.43198e-07
4.87085e-07
3.33838e-07
1.83385e-07
3.5654e-08
-1.09432e-07
-2.51941e-07
-3.91933e-07
-5.29475e-07
-6.64627e-07
-7.97447e-07
-9.28003e-07
-1.05635e-06
-1.18253e-06
-1.3066e-06
-1.42861e-06
-1.54862e-06
-1.66667e-06
-1.78281e-06
-1.89708e-06
-2.00952e-06
-2.12018e-06
-2.2291e-06
-2.33631e-06
-2.44185e-06
-2.54578e-06
-2.64812e-06
-2.74889e-06
-2.84814e-06
-2.94591e-06
-3.04222e-06
-3.1371e-06
-3.23059e-06
-3.32272e-06
-3.4135e-06
-3.50298e-06
-3.59118e-06
-3.67811e-06
-3.76382e-06
-3.84833e-06
-3.93166e-06
-4.01382e-06
-4.09485e-06
-4.17477e-06
-4.2536e-06
-4.33135e-06
-4.40806e-06
-4.48374e-06
-4.5584e-06
-4.63208e-06
-4.70479e-06
-4.77653e-06
-4.84734e-06
-4.91722e-06
-4.98621e-06
-5.05431e-06
-5.12153e-06
-5.1879e-06
-5.25343e-06
-5.31813e-06
-5.38201e-06
-5.4451e-06
-5.5074e-06
-5.56893e-06
-5.6297e-06
-5.68973e-06
-5.74902e-06
-5.80759e-06
-5.86545e-06
-5.92261e-06
-5.97908e-06
-6.03487e-06
-6.08999e-06
-6.14446e-06
-6.19829e-06
-6.25148e-06
-6.30404e-06
-6.35599e-06
-6.40733e-06
-6.45807e-06
-6.50822e-06
-6.55779e-06
-6.60679e-06
-6.65522e-06
-6.7031e-06
-6.75044e-06
-6.79724e-06
-6.84349e-06
-6.88923e-06
-6.93445e-06
-6.97917e-06
-7.02339e-06
-7.06711e-06
-7.11035e-06
-7.15311e-06
-7.19541e-06
-7.23725e-06
-7.27864e-06
-7.31958e-06
-7.36009e-06
-7.40018e-06
-7.43986e-06
-7.47914e-06
-7.51802e-06
-7.55652e-06
-7.59465e-06
-7.63243e-06
-7.66986e-06
-7.70696e-06
-7.74374e-06
-7.7802e-06
-7.81637e-06
-7.85227e-06
-7.8879e-06
-7.92328e-06
-7.95843e-06
-7.99335e-06
-8.02808e-06
-8.0626e-06
-8.09695e-06
-8.13113e-06
-8.16516e-06
-8.19906e-06
-8.23284e-06
-8.2665e-06
-8.30006e-06
-8.33354e-06
-8.36693e-06
-8.40027e-06
-8.43354e-06
-8.46678e-06
-8.49997e-06
-8.53313e-06
-8.56625e-06
-8.59935e-06
-8.63244e-06
-8.66551e-06
-8.69857e-06
-8.73162e-06
-8.76466e-06
-8.79769e-06
-8.83071e-06
-8.86372e-06
-8.89672e-06
-8.9297e-06
-8.96265e-06
-8.99559e-06
-9.0285e-06
-9.06139e-06
-9.09423e-06
-9.12702e-06
-9.15976e-06
-9.19246e-06
-9.22509e-06
-9.25765e-06
-9.29014e-06
-9.32254e-06
-9.35485e-06
-9.38707e-06
-9.41918e-06
-9.45117e-06
-9.48305e-06
-9.51479e-06
-9.5464e-06
-9.57786e-06
-9.60917e-06
-9.64031e-06
-9.67128e-06
-9.70208e-06
-9.73269e-06
-9.7631e-06
-9.79332e-06
-9.82333e-06
-9.85311e-06
-9.88267e-06
-9.912e-06
-9.94109e-06
-9.96993e-06
-9.99851e-06
-1.00268e-05
-1.00549e-05
-1.00827e-05
-1.01102e-05
-1.01374e-05
-1.01643e-05
-1.01909e-05
-1.02172e-05
-1.02432e-05
-1.02689e-05
-1.02942e-05
-1.03192e-05
-1.03439e-05
-1.03683e-05
-1.03923e-05
-1.04159e-05
-1.04393e-05
-1.04622e-05
-1.04848e-05
-1.05071e-05
-1.0529e-05
-1.05505e-05
-1.05716e-05
-1.05924e-05
-1.06128e-05
-1.06329e-05
-1.06526e-05
-1.06719e-05
-1.06908e-05
-1.07094e-05
-1.07275e-05
-1.07453e-05
-1.07628e-05
-1.07798e-05
-1.07965e-05
-1.08128e-05
-1.08288e-05
-1.08443e-05
-1.08596e-05
-1.08744e-05
-1.08889e-05
-1.0903e-05
-1.09167e-05
-1.09301e-05
-1.09431e-05
-1.09558e-05
-1.09682e-05
-1.09801e-05
-1.09918e-05
-1.10031e-05
-1.1014e-05
-1.10247e-05
-1.1035e-05
-1.10449e-05
-1.10546e-05
-1.10639e-05
-1.10729e-05
-1.10816e-05
-1.109e-05
-1.10981e-05
-1.11059e-05
-1.11134e-05
-1.11206e-05
-1.11275e-05
-1.11342e-05
-1.11406e-05
-1.11467e-05
-1.11526e-05
-1.11582e-05
-1.11635e-05
-1.11686e-05
-1.11735e-05
-1.11782e-05
-1.11826e-05
-1.11868e-05
-1.11907e-05
-1.11945e-05
-1.11981e-05
-1.12015e-05
-1.12046e-05
-1.12076e-05
-1.12105e-05
-1.12131e-05
-1.12156e-05
-1.12179e-05
-1.12201e-05
-1.12221e-05
-1.1224e-05
-1.12257e-05
-1.12273e-05
-1.12288e-05
-1.12301e-05
-1.12313e-05
-1.12325e-05
-1.12335e-05
-1.12344e-05
-1.12352e-05
-1.12359e-05
-1.12366e-05
-1.12371e-05
-1.12376e-05
-1.1238e-05
-1.12384e-05
-1.12388e-05
-1.1239e-05
-1.12393e-05
-1.12395e-05
-1.12397e-05
-1.12399e-05
-1.124e-05
-1.12401e-05
-1.12402e-05
-1.12403e-05
-1.12404e-05
-1.12405e-05
-1.12406e-05
-1.12407e-05
-1.12407e-05
-1.12408e-05
-1.12409e-05
-1.12409e-05
-1.1241e-05
-1.12411e-05
-1.12411e-05
-1.12412e-05
-1.12413e-05
-1.12413e-05
-1.12414e-05
-1.12415e-05
-1.12415e-05
-1.12416e-05
-1.12417e-05
-1.12417e-05
-1.12418e-05
-1.12419e-05
-1.12419e-05
-1.1242e-05
-1.12421e-05
-1.12422e-05
-1.12422e-05
-1.12423e-05
-1.12424e-05
-1.12424e-05
-1.12425e-05
-1.12426e-05
-1.12426e-05
-1.12427e-05
-1.12428e-05
-1.12428e-05
-1.12429e-05
-1.1243e-05
-1.1243e-05
-1.12431e-05
-1.12432e-05
-1.12432e-05
-1.12433e-05
-1.12434e-05
-1.12435e-05
-1.12435e-05
-1.12436e-05
-1.12437e-05
-1.12437e-05
-1.12438e-05
-1.12439e-05
-1.12439e-05
-1.1244e-05
-1.12441e-05
-1.12441e-05
-1.12442e-05
-1.12443e-05
-1.12443e-05
-1.12444e-05
-1.12445e-05
-1.12445e-05
-1.12446e-05
-1.12447e-05
-1.12448e-05
-1.12448e-05
-1.12449e-05
-1.1245e-05
-1.1245e-05
-1.12451e-05
-1.12452e-05
-1.12452e-05
-1.12453e-05
-1.12454e-05
-1.12454e-05
-1.12455e-05
-1.12456e-05
-1.12456e-05
-1.12457e-05
-1.12458e-05
-1.12459e-05
-1.12459e-05
-1.1246e-05
-1.12461e-05
-1.12461e-05
-1.12462e-05
-1.12463e-05
-1.12463e-05
-1.12464e-05
-1.12465e-05
-1.12465e-05
-1.12466e-05
-1.12467e-05
-1.12468e-05
-1.12468e-05
-1.12469e-05
-1.1247e-05
-1.1247e-05
-1.12471e-05
-1.12472e-05
-1.12472e-05
-1.12473e-05
-1.12474e-05
-1.12474e-05
-1.12475e-05
-1.12476e-05
-1.12476e-05
-1.12477e-05
-1.12478e-05
-1.12479e-05
-1.12479e-05
-1.1248e-05
-1.12481e-05
-1.12481e-05
-1.12482e-05
-1.12483e-05
-1.12484e-05
-1.12484e-05
-1.12485e-05
-1.12486e-05
-1.12486e-05
-1.12487e-05
-1.12488e-05
-1.12488e-05
-1.12489e-05
-1.1249e-05
-1.1249e-05
-1.12491e-05
-1.12492e-05
-1.12492e-05
-1.12493e-05
-1.12494e-05
-1.12495e-05
-1.12495e-05
-1.12496e-05
-1.12497e-05
-1.12497e-05
-1.12498e-05
-1.12499e-05
-1.12499e-05
-1.125e-05
-1.12501e-05
-1.12501e-05
-1.12502e-05
-1.12503e-05
-1.12504e-05
-1.12504e-05
-1.12505e-05
-1.12506e-05
-1.12506e-05
-1.12507e-05
-1.12508e-05
-1.12508e-05
-1.12509e-05
-1.1251e-05
-1.12511e-05
-1.12511e-05
-1.12512e-05
-1.12513e-05
-1.12513e-05
-1.12514e-05
-1.12515e-05
-1.12515e-05
-1.12516e-05
-1.12517e-05
-1.12517e-05
-1.12518e-05
-1.12519e-05
-1.1252e-05
-1.1252e-05
-1.12521e-05
-1.12522e-05
-1.12522e-05
-1.12523e-05
-1.12524e-05
-1.12524e-05
-1.12525e-05
-1.12526e-05
-1.12527e-05
-1.12527e-05
-1.12528e-05
-1.12529e-05
-1.12529e-05
-1.1253e-05
-1.12531e-05
-1.12531e-05
-1.12532e-05
-1.12533e-05
-1.12534e-05
-1.12534e-05
-1.12535e-05
-1.12536e-05
-1.12536e-05
-1.12537e-05
-1.12538e-05
-1.12538e-05
-1.12539e-05
-1.1254e-05
-1.12541e-05
-1.12541e-05
-1.12542e-05
-1.12543e-05
-1.12543e-05
-1.12544e-05
-1.12545e-05
-1.12545e-05
-1.12546e-05
-1.12547e-05
-1.12548e-05
-1.12548e-05
-1.12549e-05
-1.1255e-05
-1.1255e-05
-1.12551e-05
-1.12552e-05
-1.12553e-05
-1.12553e-05
-1.12554e-05