# vtk DataFile Version 2.0
FlowField
ASCII
DATASET STRUCTURED_GRID
DIMENSIONS 800 1 200
POINTS 160000 float
0 0 0
0.04 0 0
0.08 0 0
0.12 0 0
0.16 0 0
0.2 0 0
0.24 0 0
0.28 0 0
0.32 0 0
0.36 0 0
0.4 0 0
0.44 0 0
0.48 0 0
0.52 0 0
0.56 0 0
0.6 0 0
0.64 0 0
0.68 0 0
0.72 0 0
0.76 0 0
0.8 0 0
0.84 0 0
0.88 0 0
0.92 0 0
0.96 0 0
1 0 0
1.04 0 0
1.08 0 0
1.12 0 0
1.16 0 0
1.2 0 0
1.24 0 0
1.28 0 0
1.32 0 0
1.36 0 0
1.4 0 0
1.44 0 0
1.48 0 0
1.52 0 0
1.56 0 0
1.6 0 0
1.64 0 0
1.68 0 0
1.72 0 0
1.76 0 0
1.8 0 0
1.84 0 0
1.88 0 0
1.92 0 0
1.96 0 0
2 0 0
2.04 0 0
2.08 0 0
2.12 0 0
2.16 0 0
2.2 0 0
2.24 0 0
2.28 0 0
2.32 0 0
2.36 0 0
2.4 0 0
2.44 0 0
2.48 0 0
2.52 0 0
2.56 0 0
2.6 0 0
2.64 0 0
2.68 0 0
2.72 0 0
2.76 0 0
2.8 0 0
2.84 0 0
2.88 0 0
2.92 0 0
2.96 0 0
3 0 0
3.04 0 0
3.08 0 0
3.12 0 0
3.16 0 0
3.2 0 0
3.24 0 0
3.28 0 0
3.32 0 0
3.36 0 0
3.4 0 0
3.44 0 0
3.48 0 0
3.52 0 0
3.56 0 0
3.6 0 0
3.64 0 0
3.68 0 0
3.72 0 0
3.76 0 0
3.8 0 0
3.84 0 0
3.88 0 0
3.92 0 0
3.96 0 0
4 0 0
4.04 0 0
4.08 0 0
4.12 0 0
4.16 0 0
4.2 0 0
4.24 0 0
4.28 0 0
4.32 0 0
4.36 0 0
4.4 0 0
4.44 0 0
4.48 0 0
4.52 0 0
4.56 0 0
4.6 0 0
4.64 0 0
4.68 0 0
4.72 0 0
4.76 0 0
4.8 0 0
4.84 0 0
4.88 0 0
4.92 0 0
4.96 0 0
5 0 0
5.04 0 0
5.08 0 0
5.12 0 0
5.16 0 0
5.2 0 0
5.24 0 0
5.28 0 0
5.32 0 0
5.36 0 0
5.4 0 0
5.44 0 0
5.48 0 0
5.52 0 0
5.56 0 0
5.6 0 0
5.64 0 0
5.68 0 0
5.72 0 0
5.76 0 0
5.8 0 0
5.84 0 0
5.88 0 0
5.92 0 0
5.96 0 0
6 0 0
6.04 0 0
6.08 0 0
6.12 0 0
6.16 0 0
6.2 0 0
6.24 0 0
6.28 0 0
6.32 0 0
6.36 0 0
6.4 0 0
6.44 0 0
6.48 0 0
6.52 0 0
6.56 0 0
6.6 0 0
6.64 0 0
6.68 0 0
6.72 0 0
6.76 0 0
6.8 0 0
6.84 0 0
6.88 0 0
6.92 0 0
6.96 0 0
7 0 0
7.04 0 0
7.08 0 0
7.12 0 0
7.16 0 0
7.2 0 0
7.24 0 0
7.28 0 0
7.32 0 0
7.36 0 0
7.4 0 0
7.44 0 0
7.48 0 0
7.52 0 0
7.56 0 0
7.6 0 0
7.64 0 0
7.68 0 0
7.72 0 0
7.76 0 0
7.8 0 0
7.84 0 0
7.88 0 0
7.92 0 0
7.96 0 0
8 0 0
8.04 0 0
8.08 0 0
8.12 0 0
8.16 0 0
8.2 0 0
8.24 0 0
8.28 0 0
8.32 0 0
8.36 0 0
8.4 0 0
8.44 0 0
8.48 0 0
8.52 0 0
8.56 0 0
8.6 0 0
8.64 0 0
8.68 0 0
8.72 0 0
8.76 0 0
8.8 0 0
8.84 0 0
8.88 0 0
8.92 0 0
8.96 0 0
9 0 0
9.04 0 0
9.08 0 0
9.12 0 0
9.16 0 0
9.2 0 0
9.24 0 0
9.28 0 0
9.32 0 0
9.36 0 0
9.4 0 0
9.44 0 0
9.48 0 0
9.52 0 0
9.56 0 0
9.6 0 0
9.64 0 0
9.68 0 0
9.72 0 0
9.76 0 0
9.8 0 0
9.84 0 0
9.88 0 0
9.92 0 0
9.96 0 0
10 0 0
10.04 0 0
10.08 0 0
10.12 0 0
10.16 0 0
10.2 0 0
10.24 0 0
10.28 0 0
10.32 0 0
10.36 0 0
10.4 0 0
10.44 0 0
10.48 0 0
10.52 0 0
10.56 0 0
10.6 0 0
10.64 0 0
10.68 0 0
10.72 0 0
10.76 0 0
10.8 0 0
10.84 0 0
10.88 0 0
10.92 0 0
10.96 0 0
11 0 0
11.04 0 0
11.08 0 0
11.12 0 0
11.16 0 0
11.2 0 0
11.24 0 0
11.28 0 0
11.32 0 0
11.36 0 0
11.4 0 0
11.44 0 0
11.48 0 0
11.52 0 0
11.56 0 0
11.6 0 0
11.64 0 0
11.68 0 0
11.72 0 0
11.76 0 0
11.8 0 0
11.84 0 0
11.88 0 0
11.92 0 0
11.96 0 0
12 0 0
12.04 0 0
12.08 0 0
12.12 0 0
12.16 0 0
12.2 0 0
12.24 0 0
12.28 0 0
12.32 0 0
12.36 0 0
12.4 0 0
12.44 0 0
12.48 0 0
12.52 0 0
12.56 0 0
12.6 0 0
12.64 0 0
12.68 0 0
12.72 0 0
12.76 0 0
12.8 0 0
12.84 0 0
12.88 0 0
12.92 0 0
12.96 0 0
13 0 0
13.04 0 0
13.08 0 0
13.12 0 0
13.16 0 0
13.2 0 0
13.24 0 0
13.28 0 0
13.32 0 0
13.36 0 0
13.4 0 0
13.44 0 0
13.48 0 0
13.52 0 0
13.56 0 0
13.6 0 0
13.64 0 0
13.68 0 0
13.72 0 0
13.76 0 0
13.8 0 0
13.84 0 0
13.88 0 0
13.92 0 0
13.96 0 0
14 0 0
14.04 0 0
14.08 0 0
14.12 0 0
14.16 0 0
14.2 0 0
14.24 0 0
14.28 0 0
14.32 0 0
14.36 0 0
14.4 0 0
14.44 0 0
14.48 0 0
14.52 0 0
14.56 0 0
14.6 0 0
14.64 0 0
14.68 0 0
14.72 0 0
14.76 0 0
14.8 0 0
14.84 0 0
14.88 0 0
14.92 0 0
14.96 0 0
15 0 0
15.04 0 0
15.08 0 0
15.12 0 0
15.16 0 0
15.2 0 0
15.24 0 0
15.28 0 0
15.32 0 0
15.36 0 0
15.4 0 0
15.44 0 0
15.48 0 0
15.52 0 0
15.56 0 0
15.6 0 0
15.64 0 0
15.68 0 0
15.72 0 0
15.76 0 0
15.8 0 0
15.84 0 0
15.88 0 0
15.92 0 0
15.96 0 0
16 0 0
16.04 0 0
16.08 0 0
16.12 0 0
16.16 0 0
16.2 0 0
16.24 0 0
16.28 0 0
16.32 0 0
16.36 0 0
16.4 0 0
16.44 0 0
16.48 0 0
16.52 0 0
16.56 0 0
16.6 0 0
16.64 0 0
16.68 0 0
16.72 0 0
16.76 0 0
16.8 0 0
16.84 0 0
16.88 0 0
16.92 0 0
16.96 0 0
17 0 0
17.04 0 0
17.08 0 0
17.12 0 0
17.16 0 0
17.2 0 0
17.24 0 0
17.28 0 0
17.32 0 0
17.36 0 0
17.4 0 0
17.44 0 0
17.48 0 0
17.52 0 0
17.56 0 0
17.6 0 0
17.64 0 0
17.68 0 0
17.72 0 0
17.76 0 0
17.8 0 0
17.84 0 0
17.88 0 0
17.92 0 0
17.96 0 0
18 0 0
18.04 0 0
18.08 0 0
18.12 0 0
18.16 0 0
18.2 0 0
18.24 0 0
18.28 0 0
18.32 0 0
18.36 0 0
18.4 0 0
18.44 0 0
18.48 0 0
18.52 0 0
18.56 0 0
18.6 0 0
18.64 0 0
18.68 0 0
18.72 0 0
18.76 0 0
18.8 0 0
18.84 0 0
18.88 0 0
18.92 0 0
18.96 0 0
19 0 0
19.04 0 0
19.08 0 0
19.12 0 0
19.16 0 0
19.2 0 0
19.24 0 0
19.28 0 0
19.32 0 0
19.36 0 0
19.4 0 0
19.44 0 0
19.48 0 0
19.52 0 0
19.56 0 0
19.6 0 0
19.64 0 0
19.68 0 0
19.72 0 0
19.76 0 0
19.8 0 0
19.84 0 0
19.88 0 0
19.92 0 0
19.96 0 0
20 0 0
20.04 0 0
20.08 0 0
20.12 0 0
20.16 0 0
20.2 0 0
20.24 0 0
20.28 0 0
20.32 0 0
20.36 0 0
20.4 0 0
20.44 0 0
20.48 0 0
20.52 0 0
20.56 0 0
20.6 0 0
20.64 0 0
20.68 0 0
20.72 0 0
20.76 0 0
20.8 0 0
20.84 0 0
20.88 0 0
20.92 0 0
20.96 0 0
21 0 0
21.04 0 0
21.08 0 0
21.12 0 0
21.16 0 0
21.2 0 0
21.24 0 0
21.28 0 0
21.32 0 0
21.36 0 0
21.4 0 0
21.44 0 0
21.48 0 0
21.52 0 0
21.56 0 0
21.6 0 0
21.64 0 0
21.68 0 0
21.72 0 0
21.76 0 0
21.8 0 0
21.84 0 0
21.88 0 0
21.92 0 0
21.96 0 0
22 0 0
22.04 0 0
22.08 0 0
22.12 0 0
22.16 0 0
22.2 0 0
22.24 0 0
22.28 0 0
22.32 0 0
22.36 0 0
22.4 0 0
22.44 0 0
22.48 0 0
22.52 0 0
22.56 0 0
22.6 0 0
22.64 0 0
22.68 0 0
22.72 0 0
22.76 0 0
22.8 0 0
22.84 0 0
22.88 0 0
22.92 0 0
22.96 0 0
23 0 0
23.04 0 0
23.08 0 0
23.12 0 0
23.16 0 0
23.2 0 0
23.24 0 0
23.28 0 0
23.32 0 0
23.36 0 0
23.4 0 0
23.44 0 0
23.48 0 0
23.52 0 0
23.56 0 0
23.6 0 0
23.64 0 0
23.68 0 0
23.72 0 0
23.76 0 0
23.8 0 0
23.84 0 0
23.88 0 0
23.92 0 0
23.96 0 0
24 0 0
24.04 0 0
24.08 0 0
24.12 0 0
24.16 0 0
24.2 0 0
24.24 0 0
24.28 0 0
24.32 0 0
24.36 0 0
24.4 0 0
24.44 0 0
24.48 0 0
24.52 0 0
24.56 0 0
24.6 0 0
24.64 0 0
24.68 0 0
24.72 0 0
24.76 0 0
24.8 0 0
24.84 0 0
24.88 0 0
24.92 0 0
24.96 0 0
25 0 0
25.04 0 0
25.08 0 0
25.12 0 0
25.16 0 0
25.2 0 0
25.24 0 0
25.28 0 0
25.32 0 0
25.36 0 0
25.4 0 0
25.44 0 0
25.48 0 0
25.52 0 0
25.56 0 0
25.6 0 0
25.64 0 0
25.68 0 0
25.72 0 0
25.76 0 0
25.8 0 0
25.84 0 0
25.88 0 0
25.92 0 0
25.96 0 0
26 0 0
26.04 0 0
26.08 0 0
26.12 0 0
26.16 0 0
26.2 0 0
26.24 0 0
26.28 0 0
26.32 0 0
26.36 0 0
26.4 0 0
26.44 0 0
26.48 0 0
26.52 0 0
26.56 0 0
26.6 0 0
26.64 0 0
26.68 0 0
26.72 0 0
26.76 0 0
26.8 0 0
26.84 0 0
26.88 0 0
26.92 0 0
26.96 0 0
27 0 0
27.04 0 0
27.08 0 0
27.12 0 0
27.16 0 0
27.2 0 0
27.24 0 0
27.28 0 0
27.32 0 0
27.36 0 0
27.4 0 0
27.44 0 0
27.48 0 0
27.52 0 0
27.56 0 0
27.6 0 0
27.64 0 0
27.68 0 0
27.72 0 0
27.76 0 0
27.8 0 0
27.84 0 0
27.88 0 0
27.92 0 0
27.96 0 0
28 0 0
28.04 0 0
28.08 0 0
28.12 0 0
28.16 0 0
28.2 0 0
28.24 0 0
28.28 0 0
28.32 0 0
28.36 0 0
28.4 0 0
28.44 0 0
28.48 0 0
28.52 0 0
28.56 0 0
28.6 0 0
28.64 0 0
28.68 0 0
28.72 0 0
28.76 0 0
28.8 0 0
28.84 0 0
28.88 0 0
28.92 0 0
28.96 0 0
29 0 0
29.04 0 0
29.08 0 0
29.12 0 0
29.16 0 0
29.2 0 0
29.24 0 0
29.28 0 0
29.32 0 0
29.36 0 0
29.4 0 0
29.44 0 0
29.48 0 0
29.52 0 0
29.56 0 0
29.6 0 0
29.64 0 0
29.68 0 0
29.72 0 0
29.76 0 0
29.8 0 0
29.84 0 0
29.88 0 0
29.92 0 0
29.96 0 0
30 0 0
30.04 0 0
30.08 0 0
30.12 0 0
30.16 0 0
30.2 0 0
30.24 0 0
30.28 0 0
30.32 0 0
30.36 0 0
30.4 0 0
30.44 0 0
30.48 0 0
30.52 0 0
30.56 0 0
30.6 0 0
30.64 0 0
30.68 0 0
30.72 0 0
30.76 0 0
30.8 0 0
30.84 0 0
30.88 0 0
30.92 0 0
30.96 0 0
31 0 0
31.04 0 0
31.08 0 0
31.12 0 0
31.16 0 0
31.2 0 0
31.24 0 0
31.28 0 0
31.32 0 0
31.36 0 0
31.4 0 0
31.44 0 0
31.48 0 0
31.52 0 0
31.56 0 0
31.6 0 0
31.64 0 0
31.68 0 0
31.72 0 0
31.76 0 0
31.8 0 0
31.84 0 0
31.88 0 0
31.92 0 0
31.96 0 0
0 0.005 0
0.04 0.005 0
0.08 0.005 0
0.12 0.005 0
0.16 0.005 0
0.2 0.005 0
0.24 0.005 0
0.28 0.005 0
0.32 0.005 0
0.36 0.005 0
0.4 0.005 0
0.44 0.005 0
0.48 0.005 0
0.52 0.005 0
0.56 0.005 0
0.6 0.005 0
0.64 0.005 0
0.68 0.005 0
0.72 0.005 0
0.76 0.005 0
0.8 0.005 0
0.84 0.005 0
0.88 0.005 0
0.92 0.005 0
0.96 0.005 0
1 0.005 0
1.04 0.005 0
1.08 0.005 0
1.12 0.005 0
1.16 0.005 0
1.2 0.005 0
1.24 0.005 0
1.28 0.005 0
1.32 0.005 0
1.36 0.005 0
1.4 0.005 0
1.44 0.005 0
1.48 0.005 0
1.52 0.005 0
1.56 0.005 0
1.6 0.005 0
1.64 0.005 0
1.68 0.005 0
1.72 0.005 0
1.76 0.005 0
1.8 0.005 0
1.84 0.005 0
1.88 0.005 0
1.92 0.005 0
1.96 0.005 0
2 0.005 0
2.04 0.005 0
2.08 0.005 0
2.12 0.005 0
2.16 0.005 0
2.2 0.005 0
2.24 0.005 0
2.28 0.005 0
2.32 0.005 0
2.36 0.005 0
2.4 0.005 0
2.44 0.005 0
2.48 0.005 0
2.52 0.005 0
2.56 0.005 0
2.6 0.005 0
2.64 0.005 0
2.68 0.005 0
2.72 0.005 0
2.76 0.005 0
2.8 0.005 0
2.84 0.005 0
2.88 0.005 0
2.92 0.005 0
2.96 0.005 0
3 0.005 0
3.04 0.005 0
3.08 0.005 0
3.12 0.005 0
3.16 0.005 0
3.2 0.005 0
3.24 0.005 0
3.28 0.005 0
3.32 0.005 0
3.36 0.005 0
3.4 0.005 0
3.44 0.005 0
3.48 0.005 0
3.52 0.005 0
3.56 0.005 0
3.6 0.005 0
3.64 0.005 0
3.68 0.005 0
3.72 0.005 0
3.76 0.005 0
3.8 0.005 0
3.84 0.005 0
3.88 0.005 0
3.92 0.005 0
3.96 0.005 0
4 0.005 0
4.04 0.005 0
4.08 0.005 0
4.12 0.005 0
4.16 0.005 0
4.2 0.005 0
4.24 0.005 0
4.28 0.005 0
4.32 0.005 0
4.36 0.005 0
4.4 0.005 0
4.44 0.005 0
4.48 0.005 0
4.52 0.005 0
4.56 0.005 0
4.6 0.005 0
4.64 0.005 0
4.68 0.005 0
4.72 0.005 0
4.76 0.005 0
4.8 0.005 0
4.84 0.005 0
4.88 0.005 0
4.92 0.005 0
4.96 0.005 0
5 0.005 0
5.04 0.005 0
5.08 0.005 0
5.12 0.005 0
5.16 0.005 0
5.2 0.005 0
5.24 0.005 0
5.28 0.005 0
5.32 0.005 0
5.36 0.005 0
5.4 0.005 0
5.44 0.005 0
5.48 0.005 0
5.52 0.005 0
5.56 0.005 0
5.6 0.005 0
5.64 0.005 0
5.68 0.005 0
5.72 0.005 0
5.76 0.005 0
5.8 0.005 0
5.84 0.005 0
5.88 0.005 0
5.92 0.005 0
5.96 0.005 0
6 0.005 0
6.04 0.005 0
6.08 0.005 0
6.12 0.005 0
6.16 0.005 0
6.2 0.005 0
6.24 0.005 0
6.28 0.005 0
6.32 0.005 0
6.36 0.005 0
6.4 0.005 0
6.44 0.005 0
6.48 0.005 0
6.52 0.005 0
6.56 0.005 0
6.6 0.005 0
6.64 0.005 0
6.68 0.005 0
6.72 0.005 0
6.76 0.005 0
6.8 0.005 0
6.84 0.005 0
6.88 0.005 0
6.92 0.005 0
6.96 0.005 0
7 0.005 0
7.04 0.005 0
7.08 0.005 0
7.12 0.005 0
7.16 0.005 0
7.2 0.005 0
7.24 0.005 0
7.28 0.005 0
7.32 0.005 0
7.36 0.005 0
7.4 0.005 0
[...]
POINT_DATA 160000

SCALARS p float 1
LOOKUP_TABLE default
1
84.0738
81.8583
81.6034
81.5433
81.5169
81.5008
81.4892
81.48
81.4721
81.4652
81.4589
81.453
81.4474
81.4421
81.437
81.432
81.4272
81.4225
81.4179
81.4133
81.4089
81.4045
81.4001
81.3959
81.3916
81.3875
81.3834
81.3793
81.3753
81.3713
81.3674
81.3635
81.3597
81.3559
81.3522
81.3485
81.3448
81.3412
81.3376
81.334
81.3305
81.327
81.3235
81.3201
81.3167
81.3133
81.31
81.3067
81.3034
81.3001
81.2969
81.2937
81.2906
81.2874
81.2843
81.2812
81.2781
81.275
81.272
81.269
81.266
81.263
81.2601
81.2572
81.2542
81.2513
81.2485
81.2456
81.2428
81.2399
81.2371
81.2344
81.2316
81.2288
81.2261
81.2234
81.2206
81.2179
81.2153
81.2126
81.2099
81.2073
81.2047
81.202
81.1994
81.1968
81.1943
81.1917
81.1891
81.1866
81.1841
81.1816
81.179
81.1765
81.1741
81.1716
81.1691
81.1667
81.1642
81.1618
81.1594
81.1569
81.1545
81.1521
81.1498
81.1474
81.145
81.1426
81.1403
81.1379
81.1356
81.1333
81.131
81.1287
81.1264
81.1241
81.1218
81.1195
81.1172
81.115
81.1127
81.1105
81.1082
81.106
81.1037
81.1015
81.0993
81.0971
81.0949
81.0927
81.0905
81.0883
81.0862
81.084
81.0818
81.0797
81.0775
81.0754
81.0732
81.0711
81.069
81.0669
81.0648
81.0626
81.0605
81.0584
81.0564
81.0543
81.0522
81.0501
81.048
81.046
81.0439
81.0418
81.0398
81.0377
81.0357
81.0337
81.0316
81.0296
81.0276
81.0256
81.0236
81.0215
81.0195
81.0175
81.0155
81.0135
81.0116
81.0096
81.0076
81.0056
81.0036
81.0017
80.9997
80.9978
80.9958
80.9938
80.9919
80.99
80.988
80.9861
80.9841
80.9822
80.9803
80.9784
80.9765
80.9745
80.9726
80.9707
80.9688
80.9669
80.965
80.9631
80.9612
80.9593
80.9575
80.9556
80.9537
80.9518
80.9499
80.9481
80.9462
80.9443
80.9425
80.9406
80.9388
80.9369
80.9351
80.9332
80.9314
80.9295
80.9277
80.9259
80.924
80.9222
80.9204
80.9186
80.9167
80.9149
80.9131
80.9113
80.9095
80.9077
80.9059
80.9041
80.9023
80.9005
80.8987
80.8969
80.8951
80.8933
80.8915
80.8897
80.8879
80.8861
80.8844
80.8826
80.8808
80.879
80.8773
80.8755
80.8737
80.872
80.8702
80.8684
80.8667
80.8649
80.8632
80.8614
80.8597
80.8579
80.8562
80.8544
80.8527
80.8509
80.8492
80.8475
80.8457
80.844
80.8423
80.8405
80.8388
80.8371
80.8353
80.8336
80.8319
80.8302
80.8285
80.8267
80.825
80.8233
80.8216
80.8199
80.8182
80.8165
80.8148
80.813
80.8113
80.8096
80.8079
80.8062
80.8045
80.8028
80.8011
80.7995
80.7978
80.7961
80.7944
80.7927
80.791
80.7893
80.7876
80.7859
80.7843
80.7826
80.7809
80.7792
80.7775
80.7759
80.7742
80.7725
80.7708
80.7692
80.7675
80.7658
80.7642
80.7625
80.7608
80.7592
80.7575
80.7558
80.7542
80.7525
80.7508
80.7492
80.7475
80.7459
80.7442
80.7426
80.7409
80.7392
80.7376
80.7359
80.7343
80.7326
80.731
80.7293
80.7277
80.7261
80.7244
80.7228
80.7211
80.7195
80.7178
80.7162
80.7146
80.7129
80.7113
80.7096
80.708
80.7064
80.7047
80.7031
80.7015
80.6998
80.6982
80.6966
80.6949
80.6933
80.6917
80.69
80.6884
80.6868
80.6852
80.6835
80.6819
80.6803
80.6787
80.677
80.6754
80.6738
80.6722
80.6706
80.6689
80.6673
80.6657
80.6641
80.6625
80.6609
80.6592
80.6576
80.656
80.6544
80.6528
80.6512
80.6496
80.6479
80.6463
80.6447
80.6431
80.6415
80.6399
80.6383
80.6367
80.6351
80.6335
80.6319
80.6302
80.6286
80.627
80.6254
80.6238
80.6222
80.6206
80.619
80.6174
80.6158
80.6142
80.6126
80.611
80.6094
80.6078
80.6062
80.6046
80.603
80.6014
80.5998
80.5982
80.5966
80.595
80.5934
80.5918
80.5902
80.5887
80.5871
80.5855
80.5839
80.5823
80.5807
80.5791
80.5775
80.5759
80.5743
80.5727
80.5711
80.5696
80.568
80.5664
80.5648
80.5632
80.5616
80.56
80.5584
80.5568
80.5553
80.5537
80.5521
80.5505
80.5489
80.5473
80.5457
80.5442
80.5426
80.541
80.5394
80.5378
80.5362
80.5347
80.5331
80.5315
80.5299
80.5283
80.5268
80.5252
80.5236
80.522
80.5204
80.5189
80.5173
80.5157
80.5141
80.5125
80.511
80.5094
80.5078
80.5062
80.5046
80.5031
80.5015
80.4999
80.4983
80.4968
80.4952
80.4936
80.492
80.4905
80.4889
80.4873
80.4857
80.4842
80.4826
80.481
80.4794
80.4779
80.4763
80.4747
80.4731
80.4716
80.47
80.4684
80.4668
80.4653
80.4637
80.4621
80.4606
80.459
80.4574
80.4558
80.4543
80.4527
80.4511
80.4496
80.448
80.4464
80.4449
80.4433
80.4417
80.4402
80.4386
80.437
80.4354
80.4339
80.4323
80.4307
80.4292
80.4276
80.426
80.4245
80.4229
80.4213
80.4198
80.4182
80.4166
80.4151
80.4135
80.4119
80.4104
80.4088
80.4072
80.4057
80.4041
80.4025
80.401
80.3994
80.3978
80.3963
80.3947
80.3932
80.3916
80.39
80.3885
80.3869
80.3853
80.3838
80.3822
80.3806
80.3791
80.3775
80.376
80.3744
80.3728
80.3713
80.3697
80.3681
80.3666
80.365
80.3635
80.3619
80.3603
80.3588
80.3572
80.3556
80.3541
80.3525
80.351
80.3494
80.3478
80.3463
80.3447
80.3432
80.3416
80.34
80.3385
80.3369
80.3354
80.3338
80.3322
80.3307
80.3291
80.3276
80.326
80.3244
80.3229
80.3213
80.3198
80.3182
80.3166
80.3151
80.3135
80.312
80.3104
80.3088
80.3073
80.3057
80.3042
80.3026
80.3011
80.2995
80.2979
80.2964
80.2948
80.2933
80.2917
80.2902
80.2886
80.287
80.2855
80.2839
80.2824
80.2808
80.2793
80.2777
80.2761
80.2746
80.273
80.2715
80.2699
80.2684
80.2668
80.2652
80.2637
80.2621
80.2606
80.259
80.2575
80.2559
80.2544
80.2528
80.2512
80.2497
80.2481
80.2466
80.245
80.2435
80.2419
80.2404
80.2388
80.2372
80.2357
80.2341
80.2326
80.231
80.2295
80.2279
80.2264
80.2248
80.2233
80.2217
80.2201
80.2186
80.217
80.2155
80.2139
80.2124
80.2108
80.2093
80.2077
80.2062
80.2046
80.2031
80.2015
80.2
80.1984
80.1968
80.1953
80.1937
80.1922
80.1906
80.1891
80.1875
80.186
80.1844
80.1829
80.1813
80.1798
80.1782
80.1767
80.1751
80.1736
80.172
80.1705
80.1689
80.1673
80.1658
80.1642
80.1627
80.1611
80.1596
80.158
80.1565
80.1549
80.1534
80.1518
80.1503
80.1487
80.1472
80.1456
80.1441
80.1425
80.141
80.1394
80.1379
80.1363
80.1348
80.1332
80.1317
80.1301
80.1286
80.127
80.1255
80.1239
80.1224
80.1208
80.1193
80.1177
80.1162
80.1146
80.1131
80.1115
80.11
80.1084
80.1069
80.1053
80.1038
80.1022
80.1007
80.0991
80.0976
80.096
80.0945
80.0929
80.0914
80.0898
80.0883
80.0867
80.0852
80.0836
80.0821
80.0805
80.079
80.0774
80.0759
80.0743
80.0728
80.0712
80.0697
80.0681
80.0666
80.065
80.0635
80.0619
80.0604
80.0588
80.0573
80.0557
80.0542
80.0526
80.0511
80.0495
80.048
80.0465
80.0449
80.0434
80.0418
80.0403
80.0387
80.0372
80.0356
80.0341
80.0325
80.031
80.0294
80.0279
80.0263
80.0248
80.0232
80.0217
80.0201
80.0186
80.017
80.0155
80.014
80.0124
80.0109
80.0093
80.0078
80.0062
80.0047
80.0031
80.0016
80
79.9985
79.9969
79.9954
79.9938
79.9923
79.9908
1
84.0738
84.0738
81.8583
81.6034
81.5433
81.5169
81.5008
81.4892
81.48
81.4721
81.4652
81.4589
81.453
81.4474
81.4421
81.437
81.432
81.4272
81.4225
81.4179
81.4133
81.4089
81.4045
81.4001
81.3959
81.3916
81.3875
81.3834
81.3793
81.3753
81.3713
81.3674
81.3635
81.3597
81.3559
81.3522
81.3485
81.3448
81.3412
81.3376
81.334
81.3305
81.327
81.3235
81.3201
81.3167
81.3133
81.31
81.3067
81.3034
81.3001
81.2969
81.2937
81.2906
81.2874
81.2843
81.2812
81.2781
81.275
81.272
81.269
81.266
81.263
81.2601
81.2572
81.2542
81.2513
81.2485
81.2456
81.2428
81.2399
81.2371
81.2344
81.2316
81.2288
81.2261
81.2234
81.2206
81.2179
81.2153
81.2126
81.2099
81.2073
81.2047
81.202
81.1994
81.1968
81.1943
81.1917
81.1891
81.1866
81.1841
81.1816
81.179
81.1765
81.1741
81.1716
81.1691
81.1667
81.1642
81.1618
81.1594
81.1569
81.1545
81.1521
81.1498
81.1474
81.145
81.1426
81.1403
81.1379
81.1356
81.1333
81.131
81.1287
81.1264
81.1241
81.1218
81.1195
81.1172
81.115
81.1127
81.1105
81.1082
81.106
81.1037
81.1015
81.0993
81.0971
81.0949
81.0927
81.0905
81.0883
81.0862
81.084
81.0818
81.0797
81.0775
81.0754
81.0732
81.0711
81.069
81.0669
81.0648
81.0626
81.0605
81.0584
81.0564
81.0543
81.0522
81.0501
81.048
81.046
81.0439
81.0418
81.0398
81.0377
81.0357
81.0337
81.0316
81.0296
81.0276
81.0256
81.0236
81.0215
81.0195
81.0175
81.0155
81.0135
81.0116
81.0096
81.0076
81.0056
81.0036
81.0017
80.9997
80.9978
80.9958
80.9938
80.9919
80.99
80.988
80.9861
80.9841
80.9822
80.9803
80.9784
80.9765
80.9745
80.9726
80.9707
80.9688
80.9669
80.965
80.9631
80.9612
80.9593
80.9575
80.9556
80.9537
80.9518
80.9499
80.9481
80.9462
80.9443
80.9425
80.9406
80.9388
80.9369
80.9351
80.9332
80.9314
80.9295
80.9277
80.9259
80.924
80.9222
80.9204
80.9186
80.9167
80.9149
80.9131
80.9113
80.9095
80.9077
80.9059
80.9041
80.9023
80.9005
80.8987
80.8969
80.8951
80.8933
80.8915
80.8897
80.8879
80.8861
80.8844
80.8826
80.8808
80.879
80.8773
80.8755
80.8737
80.872
80.8702
80.8684
80.8667
80.8649
80.8632
80.8614
80.8597
80.8579
80.8562
80.8544
80.8527
80.8509
80.8492
80.8475
80.8457
80.844
80.8423
80.8405
80.8388
80.8371
80.8353
80.8336
80.8319
80.8302
80.8285
80.8267
80.825
80.8233
80.8216
80.8199
80.8182
80.8165
80.8148
80.813
80.8113
80.8096
80.8079
80.8062
80.8045
80.8028
80.8011
80.7995
80.7978
80.7961
80.7944
80.7927
80.791
80.7893
80.7876
80.7859
80.7843
80.7826
80.7809
80.7792
80.7775
80.7759
80.7742
80.7725
80.7708
80.7692
80.7675
80.7658
80.7642
80.7625
80.7608
80.7592
80.7575
80.7558
80.7542
80.7525
80.7508
80.7492
80.7475
80.7459
80.7442
80.7426
80.7409
80.7392
80.7376
80.7359
80.7343
80.7326
80.731
80.7293
80.7277
80.7261
80.7244
80.7228
80.7211
80.7195
80.7178
80.7162
80.7146
80.7129
80.7113
80.7096
80.708
80.7064
80.7047
80.7031
80.7015
80.6998
80.6982
80.6966
80.6949
80.6933
80.6917
80.69
80.6884
80.6868
80.6852
80.6835
80.6819
80.6803
80.6787
80.677
80.6754
80.6738
80.6722
80.6706
80.6689
80.6673
80.6657
80.6641
80.6625
80.6609
80.6592
80.6576
80.656
80.6544
80.6528
80.6512
80.6496
80.6479
80.6463
80.6447
80.6431
80.6415
80.6399
80.6383
80.6367
80.6351
80.6335
80.6319
80.6302
80.6286
80.627
80.6254
80.6238
80.6222
80.6206
80.619
80.6174
80.6158
80.6142
80.6126
80.611
80.6094
80.6078
80.6062
80.6046
80.603
80.6014
80.5998
80.5982
80.5966
80.595
80.5934
80.5918
80.5902
80.5887
80.5871
80.5855
80.5839
80.5823
80.5807
80.5791
80.5775
80.5759
80.5743
80.5727
80.5711
80.5696
80.568
80.5664
80.5648
80.5632
80.5616
80.56
80.5584
80.5568
80.5553
80.5537
80.5521
80.5505
80.5489
80.5473
80.5457
80.5442
80.5426
80.541
80.5394
80.5378
80.5362
80.5347
80.5331
80.5315
80.5299
80.5283
80.5268
80.5252
80.5236
80.522
80.5204
80.5189
80.5173
80.5157
80.5141
80.5125
80.511
80.5094
80.5078
80.5062
80.5046
80.5031
80.5015
80.4999
80.4983
80.4968
80.4952
80.4936
80.492
80.4905
80.4889
80.4873
80.4857
80.4842
80.4826
80.481
80.4794
80.4779
80.4763
80.4747
80.4731
80.4716
80.47
80.4684
80.4668
80.4653
80.4637
80.4621
80.4606
80.459
80.4574
80.4558
80.4543
80.4527
80.4511
80.4496
80.448
80.4464
80.4449
80.4433
80.4417
80.4402
80.4386
80.437
80.4354
80.4339
80.4323
80.4307
80.4292
80.4276
80.426
80.4245
80.4229
80.4213
80.4198
80.4182
80.4166
80.4151
80.4135
80.4119
80.4104
80.4088
80.4072
80.4057
80.4041
80.4025
80.401
80.3994
80.3978
80.3963
80.3947
80.3932
80.3916
80.39
80.3885
80.3869
80.3853
80.3838
80.3822
80.3806
80.3791
80.3775
80.376
80.3744
80.3728
80.3713
80.3697
80.3681
80.3666
80.365
80.3635
80.3619
80.3603
80.3588
80.3572
80.3556
80.3541
80.3525
80.351
80.3494
80.3478
80.3463
80.3447
80.3432
80.3416
80.34
80.3385
80.3369
80.3354
80.3338
80.3322
80.3307
80.3291
80.3276
80.326
80.3244
80.3229
80.3213
80.3198
80.3182
80.3166
80.3151
80.3135
80.312
80.3104
80.3088
80.3073
80.3057
80.3042
80.3026
80.3011
80.2995
80.2979
80.2964
80.2948
80.2933
80.2917
80.2902
80.2886
80.287
80.2855
80.2839
80.2824
80.2808
80.2793
80.2777
80.2761
80.2746
80.273
80.2715
80.2699
80.2684
80.2668
80.2652
80.2637
80.2621
80.2606
80.259
80.2575
80.2559
80.2544
80.2528
80.2512
80.2497
80.2481
80.2466
80.245
80.2435
80.2419
80.2404
80.2388
80.2372
80.2357
80.2341
80.2326
80.231
80.2295
80.2279
80.2264
80.2248
80.2233
80.2217
80.2201
80.2186
80.217
80.2155
80.2139
80.2124
80.2108
80.2093
80.2077
80.2062
80.2046
80.2031
80.2015
80.2
80.1984
80.1968
80.1953
80.1937
80.1922
80.1906
80.1891
80.1875
80.186
80.1844
80.1829
80.1813
80.1798
80.1782
80.1767
80.1751
80.1736
80.172
80.1705
80.1689
80.1673
80.1658
80.1642
80.1627
80.1611
80.1596
80.158
80.1565
80.1549
80.1534
80.1518
80.1503
80.1487
80.1472
80.1456
80.1441
80.1425
80.141
80.1394
80.1379
80.1363
80.1348
80.1332
80.1317
80.1301
80.1286
80.127
80.1255
80.1239
80.1224
80.1208
80.1193
80.1177
80.1162
80.1146
80.1131
80.1115
80.11
80.1084
80.1069
80.1053
80.1038
80.1022
80.1007
80.0991
80.0976
80.096
80.0945
80.0929
80.0914
80.0898
80.0883
80.0867
80.0852
80.0836
80.0821
80.0805
80.079
80.0774
80.0759
80.0743
80.0728
80.0712
80.0697
80.0681
80.0666
80.065
80.0635
80.0619
80.0604
80.0588
80.0573
80.0557
80.0542
80.0526
80.0511
80.0495
80.048
80.0465
80.0449
80.0434
80.0418
80.0403
80.0387
80.0372
80.0356
80.0341
80.0325
80.031
80.0294
80.0279
80.0263
80.0248
80.0232
80.0217
80.0201
80.0186
80.017
80.0155
80.014
80.0124
80.0109
80.0093
80.0078
80.0062
80.0047
80.0031
80.0016
80
79.9985
79.9969
79.9954
79.9938
79.9923
79.9908
79.9908
83.4268
83.4268
81.8687
81.6129
81.5474
81.5191
81.5022
81.4902
81.4807
81.4727
81.4656
81.4592
81.4533
81.4477
81.4423
81.4372
81.4322
81.4274
81.4226
81.418
81.4134
81.409
81.4046
81.4002
81.3959
81.3917
81.3876
81.3834
81.3794
81.3754
81.3714
81.3675
81.3636
81.3598
81.356
81.3522
81.3485
81.3448
81.3412
81.3376
81.334
81.3305
81.327
81.3235
81.3201
81.3167
81.3134
81.31
81.3067
81.3034
81.3002
81.2969
81.2937
81.2906
81.2874
81.2843
81.2812
81.2781
81.2751
81.272
81.269
81.266
81.2631
81.2601
81.2572
81.2543
81.2514
81.2485
81.2456
81.2428
81.24
81.2372
81.2344
81.2316
81.2288
81.2261
81.2234
81.2207
81.218
81.2153
81.2126
81.2099
81.2073
81.2047
81.2021
81.1995
81.1969
81.1943
81.1917
81.1892
81.1866
81.1841
81.1816
81.1791
81.1766
81.1741
81.1716
81.1691
81.1667
81.1642
81.1618
81.1594
81.157
81.1545
81.1521
81.1498
81.1474
81.145
81.1427
81.1403
81.138
81.1356
81.1333
81.131
81.1287
81.1264
81.1241
81.1218
81.1195
81.1172
81.115
81.1127
81.1105
81.1082
81.106
81.1038
81.1015
81.0993
81.0971
81.0949
81.0927
81.0905
81.0883
81.0862
81.084
81.0818
81.0797
81.0775
81.0754
81.0733
81.0711
81.069
81.0669
81.0648
81.0627
81.0605
81.0585
81.0564
81.0543
81.0522
81.0501
81.048
81.046
81.0439
81.0419
81.0398
81.0378
81.0357
81.0337
81.0316
81.0296
81.0276
81.0256
81.0236
81.0215
81.0195
81.0175
81.0155
81.0136
81.0116
81.0096
81.0076
81.0056
81.0037
81.0017
80.9997
80.9978
80.9958
80.9939
80.9919
80.99
80.988
80.9861
80.9842
80.9822
80.9803
80.9784
80.9765
80.9745
80.9726
80.9707
80.9688
80.9669
80.965
80.9631
80.9612
80.9593
80.9575
80.9556
80.9537
80.9518
80.95
80.9481
80.9462
80.9444
80.9425
80.9406
80.9388
80.9369
80.9351
80.9332
80.9314
80.9296
80.9277
80.9259
80.924
80.9222
80.9204
80.9186
80.9167
80.9149
80.9131
80.9113
80.9095
80.9077
80.9059
80.9041
80.9023
80.9005
80.8987
80.8969
80.8951
80.8933
80.8915
80.8897
80.8879
80.8861
80.8844
80.8826
80.8808
80.879
80.8773
80.8755
80.8737
80.872
80.8702
80.8684
80.8667
80.8649
80.8632
80.8614
80.8597
80.8579
80.8562
80.8544
80.8527
80.8509
80.8492
80.8475
80.8457
80.844
80.8423
80.8405
80.8388
80.8371
80.8353
80.8336
80.8319
80.8302
80.8285
80.8267
80.825
80.8233
80.8216
80.8199
80.8182
80.8165
80.8148
80.8131
80.8113
80.8096
80.8079
80.8062
80.8045
80.8028
80.8012
80.7995
80.7978
80.7961
80.7944
80.7927
80.791
80.7893
80.7876
80.7859
80.7843
80.7826
80.7809
80.7792
80.7775
80.7759
80.7742
80.7725
80.7708
80.7692
80.7675
80.7658
80.7642
80.7625
80.7608
80.7592
80.7575
80.7558
80.7542
80.7525
80.7508
80.7492
80.7475
80.7459
80.7442
80.7426
80.7409
80.7393
80.7376
80.7359
80.7343
80.7326
80.731
80.7293
80.7277
80.7261
80.7244
80.7228
80.7211
80.7195
80.7178
80.7162
80.7146
80.7129
80.7113
80.7096
80.708
80.7064
80.7047
80.7031
80.7015
80.6998
80.6982
80.6966
80.6949
80.6933
80.6917
80.6901
80.6884
80.6868
80.6852
80.6835
80.6819
80.6803
80.6787
80.677
80.6754
80.6738
80.6722
80.6706
80.6689
80.6673
80.6657
80.6641
80.6625
80.6609
80.6592
80.6576
80.656
80.6544
80.6528
80.6512
80.6496
80.6479
80.6463
80.6447
80.6431
80.6415
80.6399
80.6383
80.6367
80.6351
80.6335
80.6319
80.6302
80.6286
80.627
80.6254
80.6238
80.6222
80.6206
80.619
80.6174
80.6158
80.6142
80.6126
80.611
80.6094
80.6078
80.6062
80.6046
80.603
80.6014
80.5998
80.5982
80.5966
80.595
80.5934
80.5918
80.5903
80.5887
80.5871
80.5855
80.5839
80.5823
80.5807
80.5791
80.5775
80.5759
80.5743
80.5727
80.5711
80.5696
80.568
80.5664
80.5648
80.5632
80.5616
80.56
80.5584
80.5569
80.5553
80.5537
80.5521
80.5505
80.5489
80.5473
80.5458
80.5442
80.5426
80.541
80.5394
80.5378
80.5362
80.5347
80.5331
80.5315
80.5299
80.5283
80.5268
80.5252
80.5236
80.522
80.5204
80.5189
80.5173
80.5157
80.5141
80.5125
80.511
80.5094
80.5078
80.5062
80.5046
80.5031
80.5015
80.4999
80.4983
80.4968
80.4952
80.4936
80.492
80.4905
80.4889
80.4873
80.4857
80.4842
80.4826
80.481
80.4794
80.4779
80.4763
80.4747
80.4731
80.4716
80.47
80.4684
80.4669
80.4653
80.4637
80.4621
80.4606
80.459
80.4574
80.4559
80.4543
80.4527
80.4511
80.4496
80.448
80.4464
80.4449
80.4433
80.4417
80.4402
80.4386
80.437
80.4354
80.4339
80.4323
80.4307
80.4292
80.4276
80.426
80.4245
80.4229
80.4213
80.4198
80.4182
80.4166
80.4151
80.4135
80.4119
80.4104
80.4088
80.4072
80.4057
80.4041
80.4025
80.401
80.3994
80.3978
80.3963
80.3947
80.3932
80.3916
80.39
80.3885
80.3869
80.3853
80.3838
80.3822
80.3806
80.3791
80.3775
80.376
80.3744
80.3728
80.3713
80.3697
80.3681
80.3666
80.365
80.3635
80.3619
80.3603
80.3588
80.3572
80.3556
80.3541
80.3525
80.351
80.3494
80.3478
80.3463
80.3447
80.3432
80.3416
80.34
80.3385
80.3369
80.3354
80.3338
80.3322
80.3307
80.3291
80.3276
80.326
80.3244
80.3229
80.3213
80.3198
80.3182
80.3166
80.3151
80.3135
80.312
80.3104
80.3089
80.3073
80.3057
80.3042
80.3026
80.3011
80.2995
80.2979
80.2964
80.2948
80.2933
80.2917
80.2902
80.2886
80.287
80.2855
80.2839
80.2824
80.2808
80.2793
80.2777
80.2761
80.2746
80.273
80.2715
80.2699
80.2684
80.2668
80.2652
80.2637
80.2621
80.2606
80.259
80.2575
80.2559
80.2544
80.2528
80.2512
80.2497
80.2481
80.2466
80.245
80.2435
80.2419
80.2404
80.2388
80.2373
80.2357
80.2341
80.2326
80.231
80.2295
80.2279
80.2264
80.2248
80.2233
80.2217
80.2202
80.2186
80.217
80.2155
80.2139
80.2124
80.2108
80.2093
80.2077
80.2062
80.2046
80.2031
80.2015
80.2
80.1984
80.1969
80.1953
80.1937
80.1922
80.1906
80.1891
80.1875
80.186
80.1844
80.1829
80.1813
80.1798
80.1782
80.1767
80.1751
80.1736
80.172
80.1705
80.1689
80.1674
80.1658
80.1643
80.1627
80.1611
80.1596
80.158
80.1565
80.1549
80.1534
80.1518
80.1503
80.1487
80.1472
80.1456
80.1441
80.1425
80.141
80.1394
80.1379
80.1363
80.1348
80.1332
80.1317
80.1301
80.1286
80.127
80.1255
80.1239
80.1224
80.1208
80.1193
80.1177
80.1162
80.1146
80.1131
80.1115
80.11
80.1084
80.1069
80.1053
80.1038
80.1022
80.1007
80.0991
80.0976
80.096
80.0945
80.0929
80.0914
80.0898
80.0883
80.0867
80.0852
80.0836
80.0821
80.0805
80.079
80.0774
80.0759
80.0743
80.0728
80.0712
80.0697
80.0681
80.0666
80.065
80.0635
80.0619
80.0604
80.0588
80.0573
80.0557
80.0542
80.0526
80.0511
80.0496
80.048
80.0465
80.0449
80.0434
80.0418
80.0403
80.0387
80.0372
80.0356
80.0341
80.0325
80.031
80.0294
80.0279
80.0263
80.0248
80.0232
80.0217
80.0201
80.0186
80.017
80.0155
80.014
80.0124
80.0109
80.0093
80.0078
80.0062
80.0047
80.0031
80.0016
80
79.9985
79.9969
79.9954
79.9938
79.9923
79.9908
79.9908
82.7373
82.7373
81.8529
81.6196
81.5511
81.5212
81.5035
81.4911
81.4814
81.4732
81.4661
81.4596
81.4536
81.4479
81.4425
81.4374
81.4324
81.4275
81.4227
81.4181
81.4135
81.4091
81.4046
81.4003
81.396
81.3918
81.3876
81.3835
81.3794
81.3754
81.3714
81.3675
81.3636
81.3598
81.356
81.3522
81.3485
81.3449
81.3412
81.3376
81.3341
81.3305
81.327
81.3236
81.3201
81.3167
81.3134
81.31
81.3067
81.3034
81.3002
81.297
81.2938
81.2906
81.2874
81.2843
81.2812
81.2781
81.2751
81.272
81.269
81.266
81.2631
81.2601
81.2572
81.2543
81.2514
81.2485
81.2456
81.2428
81.24
81.2372
81.2344
81.2316
81.2288
81.2261
81.2234
81.2207
81.218
81.2153
81.2126
81.21
81.2073
81.2047
81.2021
81.1995
81.1969
81.1943
81.1917
81.1892
81.1866
81.1841
81.1816
81.1791
81.1766
81.1741
81.1716
81.1691
81.1667
81.1642
81.1618
81.1594
81.157
81.1546
81.1522
81.1498
81.1474
81.145
81.1427
81.1403
81.138
81.1356
81.1333
81.131
81.1287
81.1264
81.1241
81.1218
81.1195
81.1172
81.115
81.1127
81.1105
81.1082
81.106
81.1038
81.1015
81.0993
81.0971
81.0949
81.0927
81.0905
81.0884