# vtk DataFile Version 2.0
FlowField
ASCII
DATASET STRUCTURED_GRID
DIMENSIONS 800 1 200
POINTS 160000 float
0 0 0
0.04 0 0
0.08 0 0
0.12 0 0
0.16 0 0
0.2 0 0
0.24 0 0
0.28 0 0
0.32 0 0
0.36 0 0
0.4 0 0
0.44 0 0
0.48 0 0
0.52 0 0
0.56 0 0
0.6 0 0
0.64 0 0
0.68 0 0
0.72 0 0
0.76 0 0
0.8 0 0
0.84 0 0
0.88 0 0
0.92 0 0
0.96 0 0
1 0 0
1.04 0 0
1.08 0 0
1.12 0 0
1.16 0 0
1.2 0 0
1.24 0 0
1.28 0 0
1.32 0 0
1.36 0 0
1.4 0 0
1.44 0 0
1.48 0 0
1.52 0 0
1.56 0 0
1.6 0 0
1.64 0 0
1.68 0 0
1.72 0 0
1.76 0 0
1.8 0 0
1.84 0 0
1.88 0 0
1.92 0 0
1.96 0 0
2 0 0
2.04 0 0
2.08 0 0
2.12 0 0
2.16 0 0
2.2 0 0
2.24 0 0
2.28 0 0
2.32 0 0
2.36 0 0
2.4 0 0
2.44 0 0
2.48 0 0
2.52 0 0
2.56 0 0
2.6 0 0
2.64 0 0
2.68 0 0
2.72 0 0
2.76 0 0
2.8 0 0
2.84 0 0
2.88 0 0
2.92 0 0
2.96 0 0
3 0 0
3.04 0 0
3.08 0 0
3.12 0 0
3.16 0 0
3.2 0 0
3.24 0 0
3.28 0 0
3.32 0 0
3.36 0 0
3.4 0 0
3.44 0 0
3.48 0 0
3.52 0 0
3.56 0 0
3.6 0 0
3.64 0 0
3.68 0 0
3.72 0 0
3.76 0 0
3.8 0 0
3.84 0 0
3.88 0 0
3.92 0 0
3.96 0 0
4 0 0
4.04 0 0
4.08 0 0
4.12 0 0
4.16 0 0
4.2 0 0
4.24 0 0
4.28 0 0
4.32 0 0
4.36 0 0
4.4 0 0
4.44 0 0
4.48 0 0
4.52 0 0
4.56 0 0
4.6 0 0
4.64 0 0
4.68 0 0
4.72 0 0
4.76 0 0
4.8 0 0
4.84 0 0
4.88 0 0
4.92 0 0
4.96 0 0
5 0 0
5.04 0 0
5.08 0 0
5.12 0 0
5.16 0 0
5.2 0 0
5.24 0 0
5.28 0 0
5.32 0 0
5.36 0 0
5.4 0 0
5.44 0 0
5.48 0 0
5.52 0 0
5.56 0 0
5.6 0 0
5.64 0 0
5.68 0 0
5.72 0 0
5.76 0 0
5.8 0 0
5.84 0 0
5.88 0 0
5.92 0 0
5.96 0 0
6 0 0
6.04 0 0
6.08 0 0
6.12 0 0
6.16 0 0
6.2 0 0
6.24 0 0
6.28 0 0
6.32 0 0
6.36 0 0
6.4 0 0
6.44 0 0
6.48 0 0
6.52 0 0
6.56 0 0
6.6 0 0
6.64 0 0
6.68 0 0
6.72 0 0
6.76 0 0
6.8 0 0
6.84 0 0
6.88 0 0
6.92 0 0
6.96 0 0
7 0 0
7.04 0 0
7.08 0 0
7.12 0 0
7.16 0 0
7.2 0 0
7.24 0 0
7.28 0 0
7.32 0 0
7.36 0 0
7.4 0 0
7.44 0 0
7.48 0 0
7.52 0 0
7.56 0 0
7.6 0 0
7.64 0 0
7.68 0 0
7.72 0 0
7.76 0 0
7.8 0 0
7.84 0 0
7.88 0 0
7.92 0 0
7.96 0 0
8 0 0
8.04 0 0
8.08 0 0
8.12 0 0
8.16 0 0
8.2 0 0
8.24 0 0
8.28 0 0
8.32 0 0
8.36 0 0
8.4 0 0
8.44 0 0
8.48 0 0
8.52 0 0
8.56 0 0
8.6 0 0
8.64 0 0
8.68 0 0
8.72 0 0
8.76 0 0
8.8 0 0
8.84 0 0
8.88 0 0
8.92 0 0
8.96 0 0
9 0 0
9.04 0 0
9.08 0 0
9.12 0 0
9.16 0 0
9.2 0 0
9.24 0 0
9.28 0 0
9.32 0 0
9.36 0 0
9.4 0 0
9.44 0 0
9.48 0 0
9.52 0 0
9.56 0 0
9.6 0 0
9.64 0 0
9.68 0 0
9.72 0 0
9.76 0 0
9.8 0 0
9.84 0 0
9.88 0 0
9.92 0 0
9.96 0 0
10 0 0
10.04 0 0
10.08 0 0
10.12 0 0
10.16 0 0
10.2 0 0
10.24 0 0
10.28 0 0
10.32 0 0
10.36 0 0
10.4 0 0
10.44 0 0
10.48 0 0
10.52 0 0
10.56 0 0
10.6 0 0
10.64 0 0
10.68 0 0
10.72 0 0
10.76 0 0
10.8 0 0
10.84 0 0
10.88 0 0
10.92 0 0
10.96 0 0
11 0 0
11.04 0 0
11.08 0 0
11.12 0 0
11.16 0 0
11.2 0 0
11.24 0 0
11.28 0 0
11.32 0 0
11.36 0 0
11.4 0 0
11.44 0 0
11.48 0 0
11.52 0 0
11.56 0 0
11.6 0 0
11.64 0 0
11.68 0 0
11.72 0 0
11.76 0 0
11.8 0 0
11.84 0 0
11.88 0 0
11.92 0 0
11.96 0 0
12 0 0
12.04 0 0
12.08 0 0
12.12 0 0
12.16 0 0
12.2 0 0
12.24 0 0
12.28 0 0
12.32 0 0
12.36 0 0
12.4 0 0
12.44 0 0
12.48 0 0
12.52 0 0
12.56 0 0
12.6 0 0
12.64 0 0
12.68 0 0
12.72 0 0
12.76 0 0
12.8 0 0
12.84 0 0
12.88 0 0
12.92 0 0
12.96 0 0
13 0 0
13.04 0 0
13.08 0 0
13.12 0 0
13.16 0 0
13.2 0 0
13.24 0 0
13.28 0 0
13.32 0 0
13.36 0 0
13.4 0 0
13.44 0 0
13.48 0 0
13.52 0 0
13.56 0 0
13.6 0 0
13.64 0 0
13.68 0 0
13.72 0 0
13.76 0 0
13.8 0 0
13.84 0 0
13.88 0 0
13.92 0 0
13.96 0 0
14 0 0
14.04 0 0
14.08 0 0
14.12 0 0
14.16 0 0
14.2 0 0
14.24 0 0
14.28 0 0
14.32 0 0
14.36 0 0
14.4 0 0
14.44 0 0
14.48 0 0
14.52 0 0
14.56 0 0
14.6 0 0
14.64 0 0
14.68 0 0
14.72 0 0
14.76 0 0
14.8 0 0
14.84 0 0
14.88 0 0
14.92 0 0
14.96 0 0
15 0 0
15.04 0 0
15.08 0 0
15.12 0 0
15.16 0 0
15.2 0 0
15.24 0 0
15.28 0 0
15.32 0 0
15.36 0 0
15.4 0 0
15.44 0 0
15.48 0 0
15.52 0 0
15.56 0 0
15.6 0 0
15.64 0 0
15.68 0 0
15.72 0 0
15.76 0 0
15.8 0 0
15.84 0 0
15.88 0 0
15.92 0 0
15.96 0 0
16 0 0
16.04 0 0
16.08 0 0
16.12 0 0
16.16 0 0
16.2 0 0
16.24 0 0
16.28 0 0
16.32 0 0
16.36 0 0
16.4 0 0
16.44 0 0
16.48 0 0
16.52 0 0
16.56 0 0
16.6 0 0
16.64 0 0
16.68 0 0
16.72 0 0
16.76 0 0
16.8 0 0
16.84 0 0
16.88 0 0
16.92 0 0
16.96 0 0
17 0 0
17.04 0 0
17.08 0 0
17.12 0 0
17.16 0 0
17.2 0 0
17.24 0 0
17.28 0 0
17.32 0 0
17.36 0 0
17.4 0 0
17.44 0 0
17.48 0 0
17.52 0 0
17.56 0 0
17.6 0 0
17.64 0 0
17.68 0 0
17.72 0 0
17.76 0 0
17.8 0 0
17.84 0 0
17.88 0 0
17.92 0 0
17.96 0 0
18 0 0
18.04 0 0
18.08 0 0
18.12 0 0
18.16 0 0
18.2 0 0
18.24 0 0
18.28 0 0
18.32 0 0
18.36 0 0
18.4 0 0
18.44 0 0
18.48 0 0
18.52 0 0
18.56 0 0
18.6 0 0
18.64 0 0
18.68 0 0
18.72 0 0
18.76 0 0
18.8 0 0
18.84 0 0
18.88 0 0
18.92 0 0
18.96 0 0
19 0 0
19.04 0 0
19.08 0 0
19.12 0 0
19.16 0 0
19.2 0 0
19.24 0 0
19.28 0 0
19.32 0 0
19.36 0 0
19.4 0 0
19.44 0 0
19.48 0 0
19.52 0 0
19.56 0 0
19.6 0 0
19.64 0 0
19.68 0 0
19.72 0 0
19.76 0 0
19.8 0 0
19.84 0 0
19.88 0 0
19.92 0 0
19.96 0 0
20 0 0
20.04 0 0
20.08 0 0
20.12 0 0
20.16 0 0
20.2 0 0
20.24 0 0
20.28 0 0
20.32 0 0
20.36 0 0
20.4 0 0
20.44 0 0
20.48 0 0
20.52 0 0
20.56 0 0
20.6 0 0
20.64 0 0
20.68 0 0
20.72 0 0
20.76 0 0
20.8 0 0
20.84 0 0
20.88 0 0
20.92 0 0
20.96 0 0
21 0 0
21.04 0 0
21.08 0 0
21.12 0 0
21.16 0 0
21.2 0 0
21.24 0 0
21.28 0 0
21.32 0 0
21.36 0 0
21.4 0 0
21.44 0 0
21.48 0 0
21.52 0 0
21.56 0 0
21.6 0 0
21.64 0 0
21.68 0 0
21.72 0 0
21.76 0 0
21.8 0 0
21.84 0 0
21.88 0 0
21.92 0 0
21.96 0 0
22 0 0
22.04 0 0
22.08 0 0
22.12 0 0
22.16 0 0
22.2 0 0
22.24 0 0
22.28 0 0
22.32 0 0
22.36 0 0
22.4 0 0
22.44 0 0
22.48 0 0
22.52 0 0
22.56 0 0
22.6 0 0
22.64 0 0
22.68 0 0
22.72 0 0
22.76 0 0
22.8 0 0
22.84 0 0
22.88 0 0
22.92 0 0
22.96 0 0
23 0 0
23.04 0 0
23.08 0 0
23.12 0 0
23.16 0 0
23.2 0 0
23.24 0 0
23.28 0 0
23.32 0 0
23.36 0 0
23.4 0 0
23.44 0 0
23.48 0 0
23.52 0 0
23.56 0 0
23.6 0 0
23.64 0 0
23.68 0 0
23.72 0 0
23.76 0 0
23.8 0 0
23.84 0 0
23.88 0 0
23.92 0 0
23.96 0 0
24 0 0
24.04 0 0
24.08 0 0
24.12 0 0
24.16 0 0
24.2 0 0
24.24 0 0
24.28 0 0
24.32 0 0
24.36 0 0
24.4 0 0
24.44 0 0
24.48 0 0
24.52 0 0
24.56 0 0
24.6 0 0
24.64 0 0
24.68 0 0
24.72 0 0
24.76 0 0
24.8 0 0
24.84 0 0
24.88 0 0
24.92 0 0
24.96 0 0
25 0 0
25.04 0 0
25.08 0 0
25.12 0 0
25.16 0 0
25.2 0 0
25.24 0 0
25.28 0 0
25.32 0 0
25.36 0 0
25.4 0 0
25.44 0 0
25.48 0 0
25.52 0 0
25.56 0 0
25.6 0 0
25.64 0 0
25.68 0 0
25.72 0 0
25.76 0 0
25.8 0 0
25.84 0 0
25.88 0 0
25.92 0 0
25.96 0 0
26 0 0
26.04 0 0
26.08 0 0
26.12 0 0
26.16 0 0
26.2 0 0
26.24 0 0
26.28 0 0
26.32 0 0
26.36 0 0
26.4 0 0
26.44 0 0
26.48 0 0
26.52 0 0
26.56 0 0
26.6 0 0
26.64 0 0
26.68 0 0
26.72 0 0
26.76 0 0
26.8 0 0
26.84 0 0
26.88 0 0
26.92 0 0
26.96 0 0
27 0 0
27.04 0 0
27.08 0 0
27.12 0 0
27.16 0 0
27.2 0 0
27.24 0 0
27.28 0 0
27.32 0 0
27.36 0 0
27.4 0 0
27.44 0 0
27.48 0 0
27.52 0 0
27.56 0 0
27.6 0 0
27.64 0 0
27.68 0 0
27.72 0 0
27.76 0 0
27.8 0 0
27.84 0 0
27.88 0 0
27.92 0 0
27.96 0 0
28 0 0
28.04 0 0
28.08 0 0
28.12 0 0
28.16 0 0
28.2 0 0
28.24 0 0
28.28 0 0
28.32 0 0
28.36 0 0
28.4 0 0
28.44 0 0
28.48 0 0
28.52 0 0
28.56 0 0
28.6 0 0
28.64 0 0
28.68 0 0
28.72 0 0
28.76 0 0
28.8 0 0
28.84 0 0
28.88 0 0
28.92 0 0
28.96 0 0
29 0 0
29.04 0 0
29.08 0 0
29.12 0 0
29.16 0 0
29.2 0 0
29.24 0 0
29.28 0 0
29.32 0 0
29.36 0 0
29.4 0 0
29.44 0 0
29.48 0 0
29.52 0 0
29.56 0 0
29.6 0 0
29.64 0 0
29.68 0 0
29.72 0 0
29.76 0 0
29.8 0 0
29.84 0 0
29.88 0 0
29.92 0 0
29.96 0 0
30 0 0
30.04 0 0
30.08 0 0
30.12 0 0
30.16 0 0
30.2 0 0
30.24 0 0
30.28 0 0
30.32 0 0
30.36 0 0
30.4 0 0
30.44 0 0
30.48 0 0
30.52 0 0
30.56 0 0
30.6 0 0
30.64 0 0
30.68 0 0
30.72 0 0
30.76 0 0
30.8 0 0
30.84 0 0
30.88 0 0
30.92 0 0
30.96 0 0
31 0 0
31.04 0 0
31.08 0 0
31.12 0 0
31.16 0 0
31.2 0 0
31.24 0 0
31.28 0 0
31.32 0 0
31.36 0 0
31.4 0 0
31.44 0 0
31.48 0 0
31.52 0 0
31.56 0 0
31.6 0 0
31.64 0 0
31.68 0 0
31.72 0 0
31.76 0 0
31.8 0 0
31.84 0 0
31.88 0 0
31.92 0 0
31.96 0 0
0 0.005 0
0.04 0.005 0
0.08 0.005 0
0.12 0.005 0
0.16 0.005 0
0.2 0.005 0
0.24 0.005 0
0.28 0.005 0
0.32 0.005 0
0.36 0.005 0
0.4 0.005 0
0.44 0.005 0
0.48 0.005 0
0.52 0.005 0
0.56 0.005 0
0.6 0.005 0
0.64 0.005 0
0.68 0.005 0
0.72 0.005 0
0.76 0.005 0
0.8 0.005 0
0.84 0.005 0
0.88 0.005 0
0.92 0.005 0
0.96 0.005 0
1 0.005 0
1.04 0.005 0
1.08 0.005 0
1.12 0.005 0
1.16 0.005 0
1.2 0.005 0
1.24 0.005 0
1.28 0.005 0
1.32 0.005 0
1.36 0.005 0
1.4 0.005 0
1.44 0.005 0
1.48 0.005 0
1.52 0.005 0
1.56 0.005 0
1.6 0.005 0
1.64 0.005 0
1.68 0.005 0
1.72 0.005 0
1.76 0.005 0
1.8 0.005 0
1.84 0.005 0
1.88 0.005 0
1.92 0.005 0
1.96 0.005 0
2 0.005 0
2.04 0.005 0
2.08 0.005 0
2.12 0.005 0
2.16 0.005 0
2.2 0.005 0
2.24 0.005 0
2.28 0.005 0
2.32 0.005 0
2.36 0.005 0
2.4 0.005 0
2.44 0.005 0
2.48 0.005 0
2.52 0.005 0
2.56 0.005 0
2.6 0.005 0
2.64 0.005 0
2.68 0.005 0
2.72 0.005 0
2.76 0.005 0
2.8 0.005 0
2.84 0.005 0
2.88 0.005 0
2.92 0.005 0
2.96 0.005 0
3 0.005 0
3.04 0.005 0
3.08 0.005 0
3.12 0.005 0
3.16 0.005 0
3.2 0.005 0
3.24 0.005 0
3.28 0.005 0
3.32 0.005 0
3.36 0.005 0
3.4 0.005 0
3.44 0.005 0
3.48 0.005 0
3.52 0.005 0
3.56 0.005 0
3.6 0.005 0
3.64 0.005 0
3.68 0.005 0
3.72 0.005 0
3.76 0.005 0
3.8 0.005 0
3.84 0.005 0
3.88 0.005 0
3.92 0.005 0
3.96 0.005 0
4 0.005 0
4.04 0.005 0
4.08 0.005 0
4.12 0.005 0
4.16 0.005 0
4.2 0.005 0
4.24 0.005 0
4.28 0.005 0
4.32 0.005 0
4.36 0.005 0
4.4 0.005 0
4.44 0.005 0
4.48 0.005 0
4.52 0.005 0
4.56 0.005 0
4.6 0.005 0
4.64 0.005 0
4.68 0.005 0
4.72 0.005 0
4.76 0.005 0
4.8 0.005 0
4.84 0.005 0
4.88 0.005 0
4.92 0.005 0
4.96 0.005 0
5 0.005 0
5.04 0.005 0
5.08 0.005 0
5.12 0.005 0
5.16 0.005 0
5.2 0.005 0
5.24 0.005 0
5.28 0.005 0
5.32 0.005 0
5.36 0.005 0
5.4 0.005 0
5.44 0.005 0
5.48 0.005 0
5.52 0.005 0
5.56 0.005 0
5.6 0.005 0
5.64 0.005 0
5.68 0.005 0
5.72 0.005 0
5.76 0.005 0
5.8 0.005 0
5.84 0.005 0
5.88 0.005 0
5.92 0.005 0
5.96 0.005 0
6 0.005 0
6.04 0.005 0
6.08 0.005 0
6.12 0.005 0
6.16 0.005 0
6.2 0.005 0
6.24 0.005 0
6.28 0.005 0
6.32 0.005 0
6.36 0.005 0
6.4 0.005 0
6.44 0.005 0
6.48 0.005 0
6.52 0.005 0
6.56 0.005 0
6.6 0.005 0
6.64 0.005 0
6.68 0.005 0
6.72 0.005 0
6.76 0.005 0
6.8 0.005 0
6.84 0.005 0
6.88 0.005 0
6.92 0.005 0
6.96 0.005 0
7 0.005 0
7.04 0.005 0
7.08 0.005 0
7.12 0.005 0
7.16 0.005 0
7.2 0.005 0
7.24 0.005 0
7.28 0.005 0
7.32 0.005 0
7.36 0.005 0
7.4 0.005 0
[...]
POINT_DATA 160000

SCALARS u float 1
LOOKUP_TABLE default
-1
-0.483352
-0.183959
-0.108841
-0.0810284
-0.0668285
-0.0581125
-0.0521465
-0.0477708
-0.0444075
-0.0417338
-0.0395537
-0.0377401
-0.0362068
-0.0348927
-0.0337534
-0.0327554
-0.0318734
-0.0310876
-0.0303823
-0.0297451
-0.029166
-0.0286367
-0.0281505
-0.0277018
-0.027286
-0.0268991
-0.026538
-0.0261997
-0.0258819
-0.0255825
-0.0252998
-0.0250322
-0.0247784
-0.0245373
-0.0243078
-0.024089
-0.0238801
-0.0236804
-0.0234893
-0.0233061
-0.0231305
-0.0229619
-0.0227999
-0.0226442
-0.0224944
-0.0223502
-0.0222113
-0.0220775
-0.0219486
-0.0218244
-0.0217046
-0.0215891
-0.0214778
-0.0213706
-0.0212672
-0.0211677
-0.021072
-0.0209799
-0.0208915
-0.0208067
-0.0207256
-0.0206481
-0.0205743
-0.0205043
-0.0204381
-0.0203757
-0.0203171
-0.0202623
-0.0202113
-0.0201639
-0.0201201
-0.0200796
-0.0200423
-0.0200079
-0.0199761
-0.0199469
-0.0199197
-0.0198945
-0.0198709
-0.0198487
-0.0198278
-0.0198079
-0.019789
-0.0197712
-0.0197542
-0.0197382
-0.0197231
-0.0197088
-0.0196951
-0.0196821
-0.0196695
-0.0196572
-0.0196452
-0.0196334
-0.0196218
-0.0196106
-0.0195997
-0.0195895
-0.0195799
-0.0195712
-0.0195634
-0.0195567
-0.0195509
-0.0195462
-0.0195423
-0.0195393
-0.0195369
-0.0195352
-0.019534
-0.0195331
-0.0195325
-0.0195321
-0.0195318
-0.0195316
-0.0195314
-0.0195312
-0.019531
-0.0195309
-0.0195307
-0.0195305
-0.0195302
-0.01953
-0.0195298
-0.0195295
-0.0195293
-0.019529
-0.0195287
-0.0195285
-0.0195282
-0.0195279
-0.0195277
-0.0195274
-0.0195272
-0.0195269
-0.0195267
-0.0195264
-0.0195262
-0.0195259
-0.0195257
-0.0195254
-0.0195252
-0.0195249
-0.0195247
-0.0195244
-0.0195242
-0.0195239
-0.0195237
-0.0195234
-0.0195232
-0.019523
-0.0195227
-0.0195225
-0.0195222
-0.019522
-0.0195218
-0.0195215
-0.0195213
-0.019521
-0.0195208
-0.0195206
-0.0195203
-0.0195201
-0.0195199
-0.0195196
-0.0195194
-0.0195192
-0.019519
-0.0195187
-0.0195185
-0.0195183
-0.019518
-0.0195178
-0.0195176
-0.0195173
-0.0195171
-0.0195169
-0.0195167
-0.0195164
-0.0195162
-0.019516
-0.0195157
-0.0195155
-0.0195153
-0.0195151
-0.0195148
-0.0195146
-0.0195144
-0.0195141
-0.0195139
-0.0195137
-0.0195135
-0.0195132
-0.019513
-0.0195128
-0.0195125
-0.0195123
-0.0195121
-0.0195119
-0.0195116
-0.0195114
-0.0195112
-0.0195109
-0.0195107
-0.0195105
-0.0195102
-0.01951
-0.0195098
-0.0195095
-0.0195093
-0.019509
-0.0195088
-0.0195086
-0.0195083
-0.0195081
-0.0195079
-0.0195076
-0.0195074
-0.0195071
-0.0195069
-0.0195066
-0.0195064
-0.0195062
-0.0195059
-0.0195057
-0.0195054
-0.0195052
-0.0195049
-0.0195047
-0.0195044
-0.0195042
-0.0195039
-0.0195037
-0.0195034
-0.0195032
-0.0195029
-0.0195026
-0.0195024
-0.0195021
-0.0195019
-0.0195016
-0.0195013
-0.0195011
-0.0195008
-0.0195006
-0.0195003
-0.0195
-0.0194998
-0.0194995
-0.0194992
-0.019499
-0.0194987
-0.0194984
-0.0194981
-0.0194979
-0.0194976
-0.0194973
-0.0194971
-0.0194968
-0.0194965
-0.0194962
-0.0194959
-0.0194957
-0.0194954
-0.0194951
-0.0194948
-0.0194945
-0.0194943
-0.019494
-0.0194937
-0.0194934
-0.0194931
-0.0194928
-0.0194926
-0.0194923
-0.019492
-0.0194917
-0.0194914
-0.0194911
-0.0194908
-0.0194905
-0.0194902
-0.0194899
-0.0194896
-0.0194894
-0.0194891
-0.0194888
-0.0194885
-0.0194882
-0.0194879
-0.0194876
-0.0194873
-0.019487
-0.0194867
-0.0194864
-0.0194861
-0.0194858
-0.0194855
-0.0194852
-0.0194849
-0.0194846
-0.0194843
-0.019484
-0.0194837
-0.0194834
-0.019483
-0.0194827
-0.0194824
-0.0194821
-0.0194818
-0.0194815
-0.0194812
-0.0194809
-0.0194806
-0.0194803
-0.01948
-0.0194797
-0.0194793
-0.019479
-0.0194787
-0.0194784
-0.0194781
-0.0194778
-0.0194775
-0.0194772
-0.0194769
-0.0194765
-0.0194762
-0.0194759
-0.0194756
-0.0194753
-0.019475
-0.0194746
-0.0194743
-0.019474
-0.0194737
-0.0194734
-0.0194731
-0.0194728
-0.0194724
-0.0194721
-0.0194718
-0.0194715
-0.0194712
-0.0194708
-0.0194705
-0.0194702
-0.0194699
-0.0194696
-0.0194692
-0.0194689
-0.0194686
-0.0194683
-0.019468
-0.0194676
-0.0194673
-0.019467
-0.0194667
-0.0194664
-0.019466
-0.0194657
-0.0194654
-0.0194651
-0.0194648
-0.0194644
-0.0194641
-0.0194638
-0.0194635
-0.0194631
-0.0194628
-0.0194625
-0.0194622
-0.0194618
-0.0194615
-0.0194612
-0.0194609
-0.0194606
-0.0194602
-0.0194599
-0.0194596
-0.0194593
-0.0194589
-0.0194586
-0.0194583
-0.019458
-0.0194576
-0.0194573
-0.019457
-0.0194566
-0.0194563
-0.019456
-0.0194557
-0.0194553
-0.019455
-0.0194547
-0.0194544
-0.019454
-0.0194537
-0.0194534
-0.0194531
-0.0194527
-0.0194524
-0.0194521
-0.0194517
-0.0194514
-0.0194511
-0.0194508
-0.0194504
-0.0194501
-0.0194498
-0.0194494
-0.0194491
-0.0194488
-0.0194485
-0.0194481
-0.0194478
-0.0194475
-0.0194471
-0.0194468
-0.0194465
-0.0194462
-0.0194458
-0.0194455
-0.0194452
-0.0194448
-0.0194445
-0.0194442
-0.0194438
-0.0194435
-0.0194432
-0.0194429
-0.0194425
-0.0194422
-0.0194419
-0.0194415
-0.0194412
-0.0194409
-0.0194405
-0.0194402
-0.0194399
-0.0194395
-0.0194392
-0.0194389
-0.0194386
-0.0194382
-0.0194379
-0.0194376
-0.0194372
-0.0194369
-0.0194366
-0.0194362
-0.0194359
-0.0194356
-0.0194352
-0.0194349
-0.0194346
-0.0194342
-0.0194339
-0.0194336
-0.0194332
-0.0194329
-0.0194326
-0.0194322
-0.0194319
-0.0194316
-0.0194312
-0.0194309
-0.0194306
-0.0194302
-0.0194299
-0.0194296
-0.0194292
-0.0194289
-0.0194286
-0.0194282
-0.0194279
-0.0194276
-0.0194272
-0.0194269
-0.0194266
-0.0194262
-0.0194259
-0.0194256
-0.0194252
-0.0194249
-0.0194246
-0.0194242
-0.0194239
-0.0194236
-0.0194232
-0.0194229
-0.0194226
-0.0194222
-0.0194219
-0.0194215
-0.0194212
-0.0194209
-0.0194205
-0.0194202
-0.0194199
-0.0194195
-0.0194192
-0.0194189
-0.0194185
-0.0194182
-0.0194179
-0.0194175
-0.0194172
-0.0194169
-0.0194165
-0.0194162
-0.0194158
-0.0194155
-0.0194152
-0.0194148
-0.0194145
-0.0194142
-0.0194138
-0.0194135
-0.0194132
-0.0194128
-0.0194125
-0.0194121
-0.0194118
-0.0194115
-0.0194111
-0.0194108
-0.0194105
-0.0194101
-0.0194098
-0.0194094
-0.0194091
-0.0194088
-0.0194084
-0.0194081
-0.0194078
-0.0194074
-0.0194071
-0.0194067
-0.0194064
-0.0194061
-0.0194057
-0.0194054
-0.0194051
-0.0194047
-0.0194044
-0.019404
-0.0194037
-0.0194034
-0.019403
-0.0194027
-0.0194024
-0.019402
-0.0194017
-0.0194013
-0.019401
-0.0194007
-0.0194003
-0.0194
-0.0193996
-0.0193993
-0.019399
-0.0193986
-0.0193983
-0.019398
-0.0193976
-0.0193973
-0.0193969
-0.0193966
-0.0193963
-0.0193959
-0.0193956
-0.0193952
-0.0193949
-0.0193946
-0.0193942
-0.0193939
-0.0193935
-0.0193932
-0.0193929
-0.0193925
-0.0193922
-0.0193918
-0.0193915
-0.0193912
-0.0193908
-0.0193905
-0.0193901
-0.0193898
-0.0193895
-0.0193891
-0.0193888
-0.0193884
-0.0193881
-0.0193878
-0.0193874
-0.0193871
-0.0193867
-0.0193864
-0.0193861
-0.0193857
-0.0193854
-0.019385
-0.0193847
-0.0193844
-0.019384
-0.0193837
-0.0193833
-0.019383
-0.0193826
-0.0193823
-0.019382
-0.0193816
-0.0193813
-0.0193809
-0.0193806
-0.0193803
-0.0193799
-0.0193796
-0.0193792
-0.0193789
-0.0193786
-0.0193782
-0.0193779
-0.0193775
-0.0193772
-0.0193768
-0.0193765
-0.0193762
-0.0193758
-0.0193755
-0.0193751
-0.0193748
-0.0193744
-0.0193741
-0.0193738
-0.0193734
-0.0193731
-0.0193727
-0.0193724
-0.0193721
-0.0193717
-0.0193714
-0.019371
-0.0193707
-0.0193703
-0.01937
-0.0193697
-0.0193693
-0.019369
-0.0193686
-0.0193683
-0.0193679
-0.0193676
-0.0193672
-0.0193669
-0.0193666
-0.0193662
-0.0193659
-0.0193655
-0.0193652
-0.0193648
-0.0193645
-0.0193642
-0.0193638
-0.0193635
-0.0193631
-0.0193628
-0.0193624
-0.0193621
-0.0193618
-0.0193614
-0.0193611
-0.0193607
-0.0193604
-0.01936
-0.0193597
-0.0193593
-0.019359
-0.0193587
-0.0193583
-0.019358
-0.0193576
-0.0193573
-0.0193569
-0.0193566
-0.0193562
-0.0193559
-0.0193555
-0.0193552
-0.0193549
-0.0193545
-0.0193542
-0.0193538
-0.0193535
-0.0193531
-0.0193528
-0.0193524
-0.0193521
-0.0193518
-0.0193514
-0.0193511
-0.0193507
-0.0193504
-0.01935
-0.0193497
-0.0193493
-0.019349
-0.0193486
-0.0193483
-0.0193479
-0.0193476
-0.0193473
-0.0193469
-0.0193466
-0.0193462
-0.0193459
-0.0193455
-0.0193452
-0.0193448
-0.0193445
-0.0193441
-0.0193438
-0.0193434
-0.0193431
-0.0193428
-0.0193424
-0.0193421
-0.0193417
-0.0193414
-0.019341
-0.0193407
-0.0193403
-0.01934
-0.0193396
-0.0193393
-0.0193389
-0.0193386
-0.0193382
-0.0193379
-0.0193375
-0.0193372
-0.0193369
-0.0193365
-0.0193362
-0.0193358
-0.0193355
-0.0193351
-0.0193348
-0.0193344
-0.0193341
-0.0193337
-0.0193334
-0.019333
-0.0193327
-0.0193323
-0.019332
-0.0193316
-0.0193313
-0.0193309
-0.0193306
-0.0193302
-0.0193299
-0.0193295
-0.0193292
-0.0193288
-0.0193285
-0.0193281
-0.0193278
-0.0193274
-0.0193271
-0.0193267
-0.0193264
-0.019326
-0.0193257
-0.0193253
-0.019325
-0.0193246
-0.0193242
-0.0193239
-0.0193235
-0.0193231
-0.0193227
-0.0193224
-0.019322
-0.0193215
-0.0193211
-0.0193207
-0.0193202
-0.0193197
-0.0193191
-0.0193185
-0.0193179
-0.0193172
-0.0193162
-0.0193154
-0.0193138
-0.0193138
-0.0193138
-0.0193138
1
0.483352
0.183959
0.108841
0.0810284
0.0668285
0.0581125
0.0521465
0.0477708
0.0444075
0.0417338
0.0395537
0.0377401
0.0362068
0.0348927
0.0337534
0.0327554
0.0318734
0.0310876
0.0303823
0.0297451
0.029166
0.0286367
0.0281505
0.0277018
0.027286
0.0268991
0.026538
0.0261997
0.0258819
0.0255825
0.0252998
0.0250322
0.0247784
0.0245373
0.0243078
0.024089
0.0238801
0.0236804
0.0234893
0.0233061
0.0231305
0.0229619
0.0227999
0.0226442
0.0224944
0.0223502
0.0222113
0.0220775
0.0219486
0.0218244
0.0217046
0.0215891
0.0214778
0.0213706
0.0212672
0.0211677
0.021072
0.0209799
0.0208915
0.0208067
0.0207256
0.0206481
0.0205743
0.0205043
0.0204381
0.0203757
0.0203171
0.0202623
0.0202113
0.0201639
0.0201201
0.0200796
0.0200423
0.0200079
0.0199761
0.0199469
0.0199197
0.0198945
0.0198709
0.0198487
0.0198278
0.0198079
0.019789
0.0197712
0.0197542
0.0197382
0.0197231
0.0197088
0.0196951
0.0196821
0.0196695
0.0196572
0.0196452
0.0196334
0.0196218
0.0196106
0.0195997
0.0195895
0.0195799
0.0195712
0.0195634
0.0195567
0.0195509
0.0195462
0.0195423
0.0195393
0.0195369
0.0195352
0.019534
0.0195331
0.0195325
0.0195321
0.0195318
0.0195316
0.0195314
0.0195312
0.019531
0.0195309
0.0195307
0.0195305
0.0195302
0.01953
0.0195298
0.0195295
0.0195293
0.019529
0.0195287
0.0195285
0.0195282
0.0195279
0.0195277
0.0195274
0.0195272
0.0195269
0.0195267
0.0195264
0.0195262
0.0195259
0.0195257
0.0195254
0.0195252
0.0195249
0.0195247
0.0195244
0.0195242
0.0195239
0.0195237
0.0195234
0.0195232
0.019523
0.0195227
0.0195225
0.0195222
0.019522
0.0195218
0.0195215
0.0195213
0.019521
0.0195208
0.0195206
0.0195203
0.0195201
0.0195199
0.0195196
0.0195194
0.0195192
0.019519
0.0195187
0.0195185
0.0195183
0.019518
0.0195178
0.0195176
0.0195173
0.0195171
0.0195169
0.0195167
0.0195164
0.0195162
0.019516
0.0195157
0.0195155
0.0195153
0.0195151
0.0195148
0.0195146
0.0195144
0.0195141
0.0195139
0.0195137
0.0195135
0.0195132
0.019513
0.0195128
0.0195125
0.0195123
0.0195121
0.0195119
0.0195116
0.0195114
0.0195112
0.0195109
0.0195107
0.0195105
0.0195102
0.01951
0.0195098
0.0195095
0.0195093
0.019509
0.0195088
0.0195086
0.0195083
0.0195081
0.0195079
0.0195076
0.0195074
0.0195071
0.0195069
0.0195066
0.0195064
0.0195062
0.0195059
0.0195057
0.0195054
0.0195052
0.0195049
0.0195047
0.0195044
0.0195042
0.0195039
0.0195037
0.0195034
0.0195032
0.0195029
0.0195026
0.0195024
0.0195021
0.0195019
0.0195016
0.0195013
0.0195011
0.0195008
0.0195006
0.0195003
0.0195
0.0194998
0.0194995
0.0194992
0.019499
0.0194987
0.0194984
0.0194981
0.0194979
0.0194976
0.0194973
0.0194971
0.0194968
0.0194965
0.0194962
0.0194959
0.0194957
0.0194954
0.0194951
0.0194948
0.0194945
0.0194943
0.019494
0.0194937
0.0194934
0.0194931
0.0194928
0.0194926
0.0194923
0.019492
0.0194917
0.0194914
0.0194911
0.0194908
0.0194905
0.0194902
0.0194899
0.0194896
0.0194894
0.0194891
0.0194888
0.0194885
0.0194882
0.0194879
0.0194876
0.0194873
0.019487
0.0194867
0.0194864
0.0194861
0.0194858
0.0194855
0.0194852
0.0194849
0.0194846
0.0194843
0.019484
0.0194837
0.0194834
0.019483
0.0194827
0.0194824
0.0194821
0.0194818
0.0194815
0.0194812
0.0194809
0.0194806
0.0194803
0.01948
0.0194797
0.0194793
0.019479
0.0194787
0.0194784
0.0194781
0.0194778
0.0194775
0.0194772
0.0194769
0.0194765
0.0194762
0.0194759
0.0194756
0.0194753
0.019475
0.0194746
0.0194743
0.019474
0.0194737
0.0194734
0.0194731
0.0194728
0.0194724
0.0194721
0.0194718
0.0194715
0.0194712
0.0194708
0.0194705
0.0194702
0.0194699
0.0194696
0.0194692
0.0194689
0.0194686
0.0194683
0.019468
0.0194676
0.0194673
0.019467
0.0194667
0.0194664
0.019466
0.0194657
0.0194654
0.0194651
0.0194648
0.0194644
0.0194641
0.0194638
0.0194635
0.0194631
0.0194628
0.0194625
0.0194622
0.0194618
0.0194615
0.0194612
0.0194609
0.0194606
0.0194602
0.0194599
0.0194596
0.0194593
0.0194589
0.0194586
0.0194583
0.019458
0.0194576
0.0194573
0.019457
0.0194566
0.0194563
0.019456
0.0194557
0.0194553
0.019455
0.0194547
0.0194544
0.019454
0.0194537
0.0194534
0.0194531
0.0194527
0.0194524
0.0194521
0.0194517
0.0194514
0.0194511
0.0194508
0.0194504
0.0194501
0.0194498
0.0194494
0.0194491
0.0194488
0.0194485
0.0194481
0.0194478
0.0194475
0.0194471
0.0194468
0.0194465
0.0194462
0.0194458
0.0194455
0.0194452
0.0194448
0.0194445
0.0194442
0.0194438
0.0194435
0.0194432
0.0194429
0.0194425
0.0194422
0.0194419
0.0194415
0.0194412
0.0194409
0.0194405
0.0194402
0.0194399
0.0194395
0.0194392
0.0194389
0.0194386
0.0194382
0.0194379
0.0194376
0.0194372
0.0194369
0.0194366
0.0194362
0.0194359
0.0194356
0.0194352
0.0194349
0.0194346
0.0194342
0.0194339
0.0194336
0.0194332
0.0194329
0.0194326
0.0194322
0.0194319
0.0194316
0.0194312
0.0194309
0.0194306
0.0194302
0.0194299
0.0194296
0.0194292
0.0194289
0.0194286
0.0194282
0.0194279
0.0194276
0.0194272
0.0194269
0.0194266
0.0194262
0.0194259
0.0194256
0.0194252
0.0194249
0.0194246
0.0194242
0.0194239
0.0194236
0.0194232
0.0194229
0.0194226
0.0194222
0.0194219
0.0194215
0.0194212
0.0194209
0.0194205
0.0194202
0.0194199
0.0194195
0.0194192
0.0194189
0.0194185
0.0194182
0.0194179
0.0194175
0.0194172
0.0194169
0.0194165
0.0194162
0.0194158
0.0194155
0.0194152
0.0194148
0.0194145
0.0194142
0.0194138
0.0194135
0.0194132
0.0194128
0.0194125
0.0194121
0.0194118
0.0194115
0.0194111
0.0194108
0.0194105
0.0194101
0.0194098
0.0194094
0.0194091
0.0194088
0.0194084
0.0194081
0.0194078
0.0194074
0.0194071
0.0194067
0.0194064
0.0194061
0.0194057
0.0194054
0.0194051
0.0194047
0.0194044
0.019404
0.0194037
0.0194034
0.019403
0.0194027
0.0194024
0.019402
0.0194017
0.0194013
0.019401
0.0194007
0.0194003
0.0194
0.0193996
0.0193993
0.019399
0.0193986
0.0193983
0.019398
0.0193976
0.0193973
0.0193969
0.0193966
0.0193963
0.0193959
0.0193956
0.0193952
0.0193949
0.0193946
0.0193942
0.0193939
0.0193935
0.0193932
0.0193929
0.0193925
0.0193922
0.0193918
0.0193915
0.0193912
0.0193908
0.0193905
0.0193901
0.0193898
0.0193895
0.0193891
0.0193888
0.0193884
0.0193881
0.0193878
0.0193874
0.0193871
0.0193867
0.0193864
0.0193861
0.0193857
0.0193854
0.019385
0.0193847
0.0193844
0.019384
0.0193837
0.0193833
0.019383
0.0193826
0.0193823
0.019382
0.0193816
0.0193813
0.0193809
0.0193806
0.0193803
0.0193799
0.0193796
0.0193792
0.0193789
0.0193786
0.0193782
0.0193779
0.0193775
0.0193772
0.0193768
0.0193765
0.0193762
0.0193758
0.0193755
0.0193751
0.0193748
0.0193744
0.0193741
0.0193738
0.0193734
0.0193731
0.0193727
0.0193724
0.0193721
0.0193717
0.0193714
0.019371
0.0193707
0.0193703
0.01937
0.0193697
0.0193693
0.019369
0.0193686
0.0193683
0.0193679
0.0193676
0.0193672
0.0193669
0.0193666
0.0193662
0.0193659
0.0193655
0.0193652
0.0193648
0.0193645
0.0193642
0.0193638
0.0193635
0.0193631
0.0193628
0.0193624
0.0193621
0.0193618
0.0193614
0.0193611
0.0193607
0.0193604
0.01936
0.0193597
0.0193593
0.019359
0.0193587
0.0193583
0.019358
0.0193576
0.0193573
0.0193569
0.0193566
0.0193562
0.0193559
0.0193555
0.0193552
0.0193549
0.0193545
0.0193542
0.0193538
0.0193535
0.0193531
0.0193528
0.0193524
0.0193521
0.0193518
0.0193514
0.0193511
0.0193507
0.0193504
0.01935
0.0193497
0.0193493
0.019349
0.0193486
0.0193483
0.0193479
0.0193476
0.0193473
0.0193469
0.0193466
0.0193462
0.0193459
0.0193455
0.0193452
0.0193448
0.0193445
0.0193441
0.0193438
0.0193434
0.0193431
0.0193428
0.0193424
0.0193421
0.0193417
0.0193414
0.019341
0.0193407
0.0193403
0.01934
0.0193396
0.0193393
0.0193389
0.0193386
0.0193382
0.0193379
0.0193375
0.0193372
0.0193369
0.0193365
0.0193362
0.0193358
0.0193355
0.0193351
0.0193348
0.0193344
0.0193341
0.0193337
0.0193334
0.019333
0.0193327
0.0193323
0.019332
0.0193316
0.0193313
0.0193309
0.0193306
0.0193302
0.0193299
0.0193295
0.0193292
0.0193288
0.0193285
0.0193281
0.0193278
0.0193274
0.0193271
0.0193267
0.0193264
0.019326
0.0193257
0.0193253
0.019325
0.0193246
0.0193242
0.0193239
0.0193235
0.0193231
0.0193227
0.0193224
0.019322
0.0193215
0.0193211
0.0193207
0.0193202
0.0193197
0.0193191
0.0193185
0.0193179
0.0193172
0.0193162
0.0193154
0.0193138
0.0193138
0.0193138
0.0193138
1
0.969182
0.495607
0.314213
0.237885
0.197382
0.172118
0.15468
0.141824
0.131909
0.124007
0.117552
0.112174
0.107622
0.103718
0.10033
0.0973605
0.0947353
0.0923958
0.0902959
0.0883986
0.0866742
0.0850983
0.083651
0.0823156
0.0810784
0.0799276
0.0788535
0.0778477
0.0769031
0.0760136
0.0751738
0.0743792
0.0736258
0.0729102
0.0722292
0.0715801
0.0709606
0.0703686
0.0698021
0.0692594
0.0687391
0.0682397
0.0677601
0.0672991
0.0668558
0.0664292
0.0660185
0.0656231
0.0652421
0.0648751
0.0645214
0.0641807
0.0638525
0.0635364
0.0632321
0.0629393
0.0626578
0.0623875
0.0621282
0.0618799
0.0616427
0.0614165
0.0612015
0.0609977
0.0608054
0.0606244
0.0604548
0.0602965
0.0601493
0.0600127
0.0598864
0.0597698
0.0596623
0.0595632
0.0594718
0.0593872
0.0593088
0.0592357
0.0591672
0.0591028
0.0590418
0.058984
0.0589291
0.058877
0.0588277
0.058781
0.0587368
0.0586949
0.0586551
0.0586169
0.05858
0.0585442
0.0585093
0.0584752
0.0584421
0.0584101
0.0583797
0.0583511
0.0583248
0.0583011
0.0582801
0.0582619
0.0582467
0.0582341
0.058224
0.0582161
0.0582101
0.0582056
0.0582024
0.0582001
0.0581985
0.0581974
0.0581965
0.0581958
0.0581953
0.0581947
0.0581941
0.0581935
0.0581928
0.0581921
0.0581914
0.0581906
0.0581898
0.058189
0.0581882
0.0581873
0.0581865
0.0581856
0.0581848
0.058184
0.0581831
0.0581823
0.0581814
0.0581806
0.0581798
0.058179
0.0581782
0.0581773
0.0581765
0.0581757
0.0581749
0.0581741
0.0581733
0.0581725
0.0581717
0.0581709
0.0581701
0.0581693
0.0581685
0.0581677
0.058167
0.0581662
0.0581654
0.0581646
0.0581638
0.0581631
0.0581623
0.0581615
0.0581607
0.05816
0.0581592
0.0581585
0.0581577
0.0581569
0.0581562
0.0581554
0.0581547
0.0581539
0.0581531
0.0581524
0.0581516
0.0581509
0.0581501
0.0581494
0.0581486
0.0581479
0.0581472
0.0581464
0.0581457
0.0581449
0.0581442
0.0581434
0.0581427
0.058142
0.0581412
0.0581405
0.0581398
0.058139
0.0581383
0.0581375
0.0581368
0.0581361
0.0581353
0.0581346
0.0581338
0.0581331
0.0581324
0.0581316
0.0581309
0.0581301
0.0581294
0.0581287
0.0581279
0.0581272
0.0581264
0.0581257
0.0581249
0.0581242
0.0581235
0.0581227
0.058122
0.0581212
0.0581205
0.0581197
0.058119
0.0581182
0.0581174
0.0581167
0.0581159
0.0581152
0.0581144
0.0581136
0.0581129
0.0581121
0.0581113
0.0581106
0.0581098
0.058109
0.0581083
0.0581075
0.0581067
0.0581059
0.0581051
0.0581044
0.0581036
0.0581028
0.058102
0.0581012
0.0581004
0.0580996
0.0580988
0.058098
0.0580972
0.0580964
0.0580956
0.0580948
0.058094
0.0580932
0.0580924
0.0580916
0.0580907
0.0580899
0.0580891
0.0580883
0.0580874
0.0580866
0.0580858
0.058085
0.0580841
0.0580833
0.0580825
0.0580816
0.0580808
0.0580799
0.0580791
0.0580782
0.0580774
0.0580765
0.0580757
0.0580748
0.058074
0.0580731
0.0580722
0.0580714
0.0580705
0.0580697
0.0580688
0.0580679
0.058067
0.0580662
0.0580653
0.0580644
0.0580635
0.0580627
0.0580618
0.0580609
0.05806
0.0580591
0.0580582
0.0580573
0.0580564
0.0580556
0.0580547
0.0580538
0.0580529
0.058052
0.0580511
0.0580502
0.0580493
0.0580483
0.0580474
0.0580465
0.0580456
0.0580447
0.0580438
0.0580429
0.058042
0.0580411
0.0580401
0.0580392
0.0580383
0.0580374
0.0580364
0.0580355
0.0580346
0.0580337
0.0580327
0.0580318
0.0580309
0.05803
0.058029
0.0580281
0.0580272
0.0580262
0.0580253
0.0580243
0.0580234
0.0580225
0.0580215
0.0580206
0.0580196
0.0580187
0.0580178
0.0580168
0.0580159
0.0580149