# vtk DataFile Version 2.0
FlowField
ASCII
DATASET STRUCTURED_GRID
DIMENSIONS 800 1 200
POINTS 160000 float
0 0 0
0.04 0 0
0.08 0 0
0.12 0 0
0.16 0 0
0.2 0 0
0.24 0 0
0.28 0 0
0.32 0 0
0.36 0 0
0.4 0 0
0.44 0 0
0.48 0 0
0.52 0 0
0.56 0 0
0.6 0 0
0.64 0 0
0.68 0 0
0.72 0 0
0.76 0 0
0.8 0 0
0.84 0 0
0.88 0 0
0.92 0 0
0.96 0 0
1 0 0
1.04 0 0
1.08 0 0
1.12 0 0
1.16 0 0
1.2 0 0
1.24 0 0
1.28 0 0
1.32 0 0
1.36 0 0
1.4 0 0
1.44 0 0
1.48 0 0
1.52 0 0
1.56 0 0
1.6 0 0
1.64 0 0
1.68 0 0
1.72 0 0
1.76 0 0
1.8 0 0
1.84 0 0
1.88 0 0
1.92 0 0
1.96 0 0
2 0 0
2.04 0 0
2.08 0 0
2.12 0 0
2.16 0 0
2.2 0 0
2.24 0 0
2.28 0 0
2.32 0 0
2.36 0 0
2.4 0 0
2.44 0 0
2.48 0 0
2.52 0 0
2.56 0 0
2.6 0 0
2.64 0 0
2.68 0 0
2.72 0 0
2.76 0 0
2.8 0 0
2.84 0 0
2.88 0 0
2.92 0 0
2.96 0 0
3 0 0
3.04 0 0
3.08 0 0
3.12 0 0
3.16 0 0
3.2 0 0
3.24 0 0
3.28 0 0
3.32 0 0
3.36 0 0
3.4 0 0
3.44 0 0
3.48 0 0
3.52 0 0
3.56 0 0
3.6 0 0
3.64 0 0
3.68 0 0
3.72 0 0
3.76 0 0
3.8 0 0
3.84 0 0
3.88 0 0
3.92 0 0
3.96 0 0
4 0 0
4.04 0 0
4.08 0 0
4.12 0 0
4.16 0 0
4.2 0 0
4.24 0 0
4.28 0 0
4.32 0 0
4.36 0 0
4.4 0 0
4.44 0 0
4.48 0 0
4.52 0 0
4.56 0 0
4.6 0 0
4.64 0 0
4.68 0 0
4.72 0 0
4.76 0 0
4.8 0 0
4.84 0 0
4.88 0 0
4.92 0 0
4.96 0 0
5 0 0
5.04 0 0
5.08 0 0
5.12 0 0
5.16 0 0
5.2 0 0
5.24 0 0
5.28 0 0
5.32 0 0
5.36 0 0
5.4 0 0
5.44 0 0
5.48 0 0
5.52 0 0
5.56 0 0
5.6 0 0
5.64 0 0
5.68 0 0
5.72 0 0
5.76 0 0
5.8 0 0
5.84 0 0
5.88 0 0
5.92 0 0
5.96 0 0
6 0 0
6.04 0 0
6.08 0 0
6.12 0 0
6.16 0 0
6.2 0 0
6.24 0 0
6.28 0 0
6.32 0 0
6.36 0 0
6.4 0 0
6.44 0 0
6.48 0 0
6.52 0 0
6.56 0 0
6.6 0 0
6.64 0 0
6.68 0 0
6.72 0 0
6.76 0 0
6.8 0 0
6.84 0 0
6.88 0 0
6.92 0 0
6.96 0 0
7 0 0
7.04 0 0
7.08 0 0
7.12 0 0
7.16 0 0
7.2 0 0
7.24 0 0
7.28 0 0
7.32 0 0
7.36 0 0
7.4 0 0
7.44 0 0
7.48 0 0
7.52 0 0
7.56 0 0
7.6 0 0
7.64 0 0
7.68 0 0
7.72 0 0
7.76 0 0
7.8 0 0
7.84 0 0
7.88 0 0
7.92 0 0
7.96 0 0
8 0 0
8.04 0 0
8.08 0 0
8.12 0 0
8.16 0 0
8.2 0 0
8.24 0 0
8.28 0 0
8.32 0 0
8.36 0 0
8.4 0 0
8.44 0 0
8.48 0 0
8.52 0 0
8.56 0 0
8.6 0 0
8.64 0 0
8.68 0 0
8.72 0 0
8.76 0 0
8.8 0 0
8.84 0 0
8.88 0 0
8.92 0 0
8.96 0 0
9 0 0
9.04 0 0
9.08 0 0
9.12 0 0
9.16 0 0
9.2 0 0
9.24 0 0
9.28 0 0
9.32 0 0
9.36 0 0
9.4 0 0
9.44 0 0
9.48 0 0
9.52 0 0
9.56 0 0
9.6 0 0
9.64 0 0
9.68 0 0
9.72 0 0
9.76 0 0
9.8 0 0
9.84 0 0
9.88 0 0
9.92 0 0
9.96 0 0
10 0 0
10.04 0 0
10.08 0 0
10.12 0 0
10.16 0 0
10.2 0 0
10.24 0 0
10.28 0 0
10.32 0 0
10.36 0 0
10.4 0 0
10.44 0 0
10.48 0 0
10.52 0 0
10.56 0 0
10.6 0 0
10.64 0 0
10.68 0 0
10.72 0 0
10.76 0 0
10.8 0 0
10.84 0 0
10.88 0 0
10.92 0 0
10.96 0 0
11 0 0
11.04 0 0
11.08 0 0
11.12 0 0
11.16 0 0
11.2 0 0
11.24 0 0
11.28 0 0
11.32 0 0
11.36 0 0
11.4 0 0
11.44 0 0
11.48 0 0
11.52 0 0
11.56 0 0
11.6 0 0
11.64 0 0
11.68 0 0
11.72 0 0
11.76 0 0
11.8 0 0
11.84 0 0
11.88 0 0
11.92 0 0
11.96 0 0
12 0 0
12.04 0 0
12.08 0 0
12.12 0 0
12.16 0 0
12.2 0 0
12.24 0 0
12.28 0 0
12.32 0 0
12.36 0 0
12.4 0 0
12.44 0 0
12.48 0 0
12.52 0 0
12.56 0 0
12.6 0 0
12.64 0 0
12.68 0 0
12.72 0 0
12.76 0 0
12.8 0 0
12.84 0 0
12.88 0 0
12.92 0 0
12.96 0 0
13 0 0
13.04 0 0
13.08 0 0
13.12 0 0
13.16 0 0
13.2 0 0
13.24 0 0
13.28 0 0
13.32 0 0
13.36 0 0
13.4 0 0
13.44 0 0
13.48 0 0
13.52 0 0
13.56 0 0
13.6 0 0
13.64 0 0
13.68 0 0
13.72 0 0
13.76 0 0
13.8 0 0
13.84 0 0
13.88 0 0
13.92 0 0
13.96 0 0
14 0 0
14.04 0 0
14.08 0 0
14.12 0 0
14.16 0 0
14.2 0 0
14.24 0 0
14.28 0 0
14.32 0 0
14.36 0 0
14.4 0 0
14.44 0 0
14.48 0 0
14.52 0 0
14.56 0 0
14.6 0 0
14.64 0 0
14.68 0 0
14.72 0 0
14.76 0 0
14.8 0 0
14.84 0 0
14.88 0 0
14.92 0 0
14.96 0 0
15 0 0
15.04 0 0
15.08 0 0
15.12 0 0
15.16 0 0
15.2 0 0
15.24 0 0
15.28 0 0
15.32 0 0
15.36 0 0
15.4 0 0
15.44 0 0
15.48 0 0
15.52 0 0
15.56 0 0
15.6 0 0
15.64 0 0
15.68 0 0
15.72 0 0
15.76 0 0
15.8 0 0
15.84 0 0
15.88 0 0
15.92 0 0
15.96 0 0
16 0 0
16.04 0 0
16.08 0 0
16.12 0 0
16.16 0 0
16.2 0 0
16.24 0 0
16.28 0 0
16.32 0 0
16.36 0 0
16.4 0 0
16.44 0 0
16.48 0 0
16.52 0 0
16.56 0 0
16.6 0 0
16.64 0 0
16.68 0 0
16.72 0 0
16.76 0 0
16.8 0 0
16.84 0 0
16.88 0 0
16.92 0 0
16.96 0 0
17 0 0
17.04 0 0
17.08 0 0
17.12 0 0
17.16 0 0
17.2 0 0
17.24 0 0
17.28 0 0
17.32 0 0
17.36 0 0
17.4 0 0
17.44 0 0
17.48 0 0
17.52 0 0
17.56 0 0
17.6 0 0
17.64 0 0
17.68 0 0
17.72 0 0
17.76 0 0
17.8 0 0
17.84 0 0
17.88 0 0
17.92 0 0
17.96 0 0
18 0 0
18.04 0 0
18.08 0 0
18.12 0 0
18.16 0 0
18.2 0 0
18.24 0 0
18.28 0 0
18.32 0 0
18.36 0 0
18.4 0 0
18.44 0 0
18.48 0 0
18.52 0 0
18.56 0 0
18.6 0 0
18.64 0 0
18.68 0 0
18.72 0 0
18.76 0 0
18.8 0 0
18.84 0 0
18.88 0 0
18.92 0 0
18.96 0 0
19 0 0
19.04 0 0
19.08 0 0
19.12 0 0
19.16 0 0
19.2 0 0
19.24 0 0
19.28 0 0
19.32 0 0
19.36 0 0
19.4 0 0
19.44 0 0
19.48 0 0
19.52 0 0
19.56 0 0
19.6 0 0
19.64 0 0
19.68 0 0
19.72 0 0
19.76 0 0
19.8 0 0
19.84 0 0
19.88 0 0
19.92 0 0
19.96 0 0
20 0 0
20.04 0 0
20.08 0 0
20.12 0 0
20.16 0 0
20.2 0 0
20.24 0 0
20.28 0 0
20.32 0 0
20.36 0 0
20.4 0 0
20.44 0 0
20.48 0 0
20.52 0 0
20.56 0 0
20.6 0 0
20.64 0 0
20.68 0 0
20.72 0 0
20.76 0 0
20.8 0 0
20.84 0 0
20.88 0 0
20.92 0 0
20.96 0 0
21 0 0
21.04 0 0
21.08 0 0
21.12 0 0
21.16 0 0
21.2 0 0
21.24 0 0
21.28 0 0
21.32 0 0
21.36 0 0
21.4 0 0
21.44 0 0
21.48 0 0
21.52 0 0
21.56 0 0
21.6 0 0
21.64 0 0
21.68 0 0
21.72 0 0
21.76 0 0
21.8 0 0
21.84 0 0
21.88 0 0
21.92 0 0
21.96 0 0
22 0 0
22.04 0 0
22.08 0 0
22.12 0 0
22.16 0 0
22.2 0 0
22.24 0 0
22.28 0 0
22.32 0 0
22.36 0 0
22.4 0 0
22.44 0 0
22.48 0 0
22.52 0 0
22.56 0 0
22.6 0 0
22.64 0 0
22.68 0 0
22.72 0 0
22.76 0 0
22.8 0 0
22.84 0 0
22.88 0 0
22.92 0 0
22.96 0 0
23 0 0
23.04 0 0
23.08 0 0
23.12 0 0
23.16 0 0
23.2 0 0
23.24 0 0
23.28 0 0
23.32 0 0
23.36 0 0
23.4 0 0
23.44 0 0
23.48 0 0
23.52 0 0
23.56 0 0
23.6 0 0
23.64 0 0
23.68 0 0
23.72 0 0
23.76 0 0
23.8 0 0
23.84 0 0
23.88 0 0
23.92 0 0
23.96 0 0
24 0 0
24.04 0 0
24.08 0 0
24.12 0 0
24.16 0 0
24.2 0 0
24.24 0 0
24.28 0 0
24.32 0 0
24.36 0 0
24.4 0 0
24.44 0 0
24.48 0 0
24.52 0 0
24.56 0 0
24.6 0 0
24.64 0 0
24.68 0 0
24.72 0 0
24.76 0 0
24.8 0 0
24.84 0 0
24.88 0 0
24.92 0 0
24.96 0 0
25 0 0
25.04 0 0
25.08 0 0
25.12 0 0
25.16 0 0
25.2 0 0
25.24 0 0
25.28 0 0
25.32 0 0
25.36 0 0
25.4 0 0
25.44 0 0
25.48 0 0
25.52 0 0
25.56 0 0
25.6 0 0
25.64 0 0
25.68 0 0
25.72 0 0
25.76 0 0
25.8 0 0
25.84 0 0
25.88 0 0
25.92 0 0
25.96 0 0
26 0 0
26.04 0 0
26.08 0 0
26.12 0 0
26.16 0 0
26.2 0 0
26.24 0 0
26.28 0 0
26.32 0 0
26.36 0 0
26.4 0 0
26.44 0 0
26.48 0 0
26.52 0 0
26.56 0 0
26.6 0 0
26.64 0 0
26.68 0 0
26.72 0 0
26.76 0 0
26.8 0 0
26.84 0 0
26.88 0 0
26.92 0 0
26.96 0 0
27 0 0
27.04 0 0
27.08 0 0
27.12 0 0
27.16 0 0
27.2 0 0
27.24 0 0
27.28 0 0
27.32 0 0
27.36 0 0
27.4 0 0
27.44 0 0
27.48 0 0
27.52 0 0
27.56 0 0
27.6 0 0
27.64 0 0
27.68 0 0
27.72 0 0
27.76 0 0
27.8 0 0
27.84 0 0
27.88 0 0
27.92 0 0
27.96 0 0
28 0 0
28.04 0 0
28.08 0 0
28.12 0 0
28.16 0 0
28.2 0 0
28.24 0 0
28.28 0 0
28.32 0 0
28.36 0 0
28.4 0 0
28.44 0 0
28.48 0 0
28.52 0 0
28.56 0 0
28.6 0 0
28.64 0 0
28.68 0 0
28.72 0 0
28.76 0 0
28.8 0 0
28.84 0 0
28.88 0 0
28.92 0 0
28.96 0 0
29 0 0
29.04 0 0
29.08 0 0
29.12 0 0
29.16 0 0
29.2 0 0
29.24 0 0
29.28 0 0
29.32 0 0
29.36 0 0
29.4 0 0
29.44 0 0
29.48 0 0
29.52 0 0
29.56 0 0
29.6 0 0
29.64 0 0
29.68 0 0
29.72 0 0
29.76 0 0
29.8 0 0
29.84 0 0
29.88 0 0
29.92 0 0
29.96 0 0
30 0 0
30.04 0 0
30.08 0 0
30.12 0 0
30.16 0 0
30.2 0 0
30.24 0 0
30.28 0 0
30.32 0 0
30.36 0 0
30.4 0 0
30.44 0 0
30.48 0 0
30.52 0 0
30.56 0 0
30.6 0 0
30.64 0 0
30.68 0 0
30.72 0 0
30.76 0 0
30.8 0 0
30.84 0 0
30.88 0 0
30.92 0 0
30.96 0 0
31 0 0
31.04 0 0
31.08 0 0
31.12 0 0
31.16 0 0
31.2 0 0
31.24 0 0
31.28 0 0
31.32 0 0
31.36 0 0
31.4 0 0
31.44 0 0
31.48 0 0
31.52 0 0
31.56 0 0
31.6 0 0
31.64 0 0
31.68 0 0
31.72 0 0
31.76 0 0
31.8 0 0
31.84 0 0
31.88 0 0
31.92 0 0
31.96 0 0
0 0.005 0
0.04 0.005 0
0.08 0.005 0
0.12 0.005 0
0.16 0.005 0
0.2 0.005 0
0.24 0.005 0
0.28 0.005 0
0.32 0.005 0
0.36 0.005 0
0.4 0.005 0
0.44 0.005 0
0.48 0.005 0
0.52 0.005 0
0.56 0.005 0
0.6 0.005 0
0.64 0.005 0
0.68 0.005 0
0.72 0.005 0
0.76 0.005 0
0.8 0.005 0
0.84 0.005 0
0.88 0.005 0
0.92 0.005 0
0.96 0.005 0
1 0.005 0
1.04 0.005 0
1.08 0.005 0
1.12 0.005 0
1.16 0.005 0
1.2 0.005 0
1.24 0.005 0
1.28 0.005 0
1.32 0.005 0
1.36 0.005 0
1.4 0.005 0
1.44 0.005 0
1.48 0.005 0
1.52 0.005 0
1.56 0.005 0
1.6 0.005 0
1.64 0.005 0
1.68 0.005 0
1.72 0.005 0
1.76 0.005 0
1.8 0.005 0
1.84 0.005 0
1.88 0.005 0
1.92 0.005 0
1.96 0.005 0
2 0.005 0
2.04 0.005 0
2.08 0.005 0
2.12 0.005 0
2.16 0.005 0
2.2 0.005 0
2.24 0.005 0
2.28 0.005 0
2.32 0.005 0
2.36 0.005 0
2.4 0.005 0
2.44 0.005 0
2.48 0.005 0
2.52 0.005 0
2.56 0.005 0
2.6 0.005 0
2.64 0.005 0
2.68 0.005 0
2.72 0.005 0
2.76 0.005 0
2.8 0.005 0
2.84 0.005 0
2.88 0.005 0
2.92 0.005 0
2.96 0.005 0
3 0.005 0
3.04 0.005 0
3.08 0.005 0
3.12 0.005 0
3.16 0.005 0
3.2 0.005 0
3.24 0.005 0
3.28 0.005 0
3.32 0.005 0
3.36 0.005 0
3.4 0.005 0
3.44 0.005 0
3.48 0.005 0
3.52 0.005 0
3.56 0.005 0
3.6 0.005 0
3.64 0.005 0
3.68 0.005 0
3.72 0.005 0
3.76 0.005 0
3.8 0.005 0
3.84 0.005 0
3.88 0.005 0
3.92 0.005 0
3.96 0.005 0
4 0.005 0
4.04 0.005 0
4.08 0.005 0
4.12 0.005 0
4.16 0.005 0
4.2 0.005 0
4.24 0.005 0
4.28 0.005 0
4.32 0.005 0
4.36 0.005 0
4.4 0.005 0
4.44 0.005 0
4.48 0.005 0
4.52 0.005 0
4.56 0.005 0
4.6 0.005 0
4.64 0.005 0
4.68 0.005 0
4.72 0.005 0
4.76 0.005 0
4.8 0.005 0
4.84 0.005 0
4.88 0.005 0
4.92 0.005 0
4.96 0.005 0
5 0.005 0
5.04 0.005 0
5.08 0.005 0
5.12 0.005 0
5.16 0.005 0
5.2 0.005 0
5.24 0.005 0
5.28 0.005 0
5.32 0.005 0
5.36 0.005 0
5.4 0.005 0
5.44 0.005 0
5.48 0.005 0
5.52 0.005 0
5.56 0.005 0
5.6 0.005 0
5.64 0.005 0
5.68 0.005 0
5.72 0.005 0
5.76 0.005 0
5.8 0.005 0
5.84 0.005 0
5.88 0.005 0
5.92 0.005 0
5.96 0.005 0
6 0.005 0
6.04 0.005 0
6.08 0.005 0
6.12 0.005 0
6.16 0.005 0
6.2 0.005 0
6.24 0.005 0
6.28 0.005 0
6.32 0.005 0
6.36 0.005 0
6.4 0.005 0
6.44 0.005 0
6.48 0.005 0
6.52 0.005 0
6.56 0.005 0
6.6 0.005 0
6.64 0.005 0
6.68 0.005 0
6.72 0.005 0
6.76 0.005 0
6.8 0.005 0
6.84 0.005 0
6.88 0.005 0
6.92 0.005 0
6.96 0.005 0
7 0.005 0
7.04 0.005 0
7.08 0.005 0
7.12 0.005 0
7.16 0.005 0
7.2 0.005 0
7.24 0.005 0
7.28 0.005 0
7.32 0.005 0
7.36 0.005 0
7.4 0.005 0
[...]
POINT_DATA 160000

SCALARS phi float 1
LOOKUP_TABLE default
1
1
1
1
1
1
1
1
1
1
1
1
1
1
1
1
1
0.999999
0.999996
0.999989
0.99997
0.999925
0.999829
0.999643
0.999306
0.998734
0.99782
0.996432
0.994422
0.991633
0.987906
0.98309
0.977056
0.969698
0.960943
0.950751
0.939118
0.926071
0.911667
0.895986
0.879129
0.861209
0.842348
0.822674
0.802313
0.781392
0.760028
0.738336
0.716421
0.694377
0.672293
0.650245
0.628302
0.606526
0.584968
0.563672
0.542676
0.522013
0.501707
0.481781
0.462249
0.443126
0.424419
0.406136
0.388279
0.37085
0.353849
0.337273
0.32112
0.305386
0.290065
0.275153
0.260645
0.246535
0.232819
0.219492
0.206549
0.193989
0.181808
0.170005
0.158579
0.147531
0.136863
0.126578
0.116679
0.10717
0.0980586
0.0893494
0.0810491
0.0731645
0.0657023
0.0586691
0.0520713
0.0459146
0.0402036
0.0349411
0.0301275
0.0257601
0.0218325
0.0183338
0.0152487
0.0125574
0.0102357
0.00825615
0.00658844
0.0052006
0.00406002
0.00313441
0.00239279
0.00180614
0.00134798
0.000994729
0.000725804
0.000523654
0.000373595
0.000263584
0.00018392
0.000126931
8.6652e-05
5.85196e-05
3.91005e-05
2.58504e-05
1.69124e-05
1.09508e-05
7.01838e-06
4.45277e-06
2.7969e-06
1.73951e-06
1.07135e-06
6.53486e-07
3.94818e-07
2.36298e-07
1.40112e-07
8.23169e-08
4.79237e-08
2.76507e-08
1.58126e-08
8.96362e-09
5.03726e-09
2.80659e-09
1.55053e-09
8.49458e-10
4.61533e-10
2.48717e-10
1.3295e-10
7.05001e-11
3.70894e-11
1.936e-11
1.00275e-11
5.15407e-12
2.62912e-12
1.33109e-12
6.68927e-13
3.33698e-13
1.6526e-13
8.12549e-14
3.96673e-14
1.92286e-14
9.25601e-15
4.42477e-15
2.10076e-15
9.90628e-16
4.64002e-16
2.1589e-16
9.97868e-17
4.58215e-17
2.09048e-17
9.47605e-18
4.26815e-18
1.91032e-18
8.49671e-19
3.75574e-19
1.64993e-19
7.20411e-20
3.12653e-20
1.34876e-20
5.78385e-21
2.46564e-21
1.04495e-21
4.40281e-22
1.8444e-22
7.6823e-23
3.18167e-23
1.31029e-23
5.36589e-24
2.18525e-24
8.85033e-25
3.56481e-25
1.42806e-25
5.68995e-26
2.25495e-26
8.8889e-27
3.48545e-27
1.35951e-27
5.27517e-28
2.03627e-28
7.81972e-29
2.98759e-29
1.13563e-29
4.29494e-30
1.61618e-30
6.05135e-31
2.25453e-31
8.35821e-32
3.08346e-32
1.13199e-32
4.13561e-33
1.50363e-33
5.44076e-34
1.95932e-34
7.02249e-35
2.50512e-35
8.89462e-36
3.1434e-36
1.10575e-36
3.87177e-37
1.34948e-37
4.6821e-38
1.61711e-38
5.56003e-39
1.90309e-39
6.48482e-40
2.1999e-40
7.42988e-41
2.49831e-41
8.3638e-42
2.78782e-42
9.25203e-43
3.05725e-43
1.0059e-43
3.29545e-44
1.07503e-44
3.49208e-45
1.12956e-45
3.63838e-46
1.16704e-46
3.72777e-47
1.18579e-47
3.75639e-48
1.18507e-48
3.72336e-49
1.16507e-49
3.6308e-50
1.12692e-50
3.48362e-51
1.07257e-51
3.28911e-52
1.00462e-52
3.05633e-53
9.2615e-54
2.79545e-54
8.40459e-55
2.51701e-55
7.50863e-56
2.23127e-56
6.60489e-57
1.94763e-57
5.72112e-58
1.67415e-58
4.88041e-59
1.41733e-59
4.10054e-60
1.18189e-60
3.39377e-61
9.70874e-62
2.7671e-62
7.85733e-63
2.22289e-63
6.26554e-64
1.75956e-64
4.92331e-65
1.37254e-65
3.81254e-66
1.05519e-66
2.90987e-67
7.99566e-68
2.18915e-68
5.97234e-69
1.62354e-69
4.39785e-70
1.18707e-70
3.19287e-71
8.55768e-72
2.28564e-72
6.0833e-73
1.61346e-73
4.26448e-74
1.12323e-74
2.94832e-75
7.71228e-76
2.01049e-76
5.22316e-77
1.35233e-77
3.48945e-78
8.97342e-79
2.2998e-79
5.87435e-80
1.49544e-80
3.79424e-81
9.59465e-82
2.41817e-82
6.0744e-83
1.52083e-83
3.79513e-84
9.43934e-85
2.34009e-85
5.7823e-86
1.42414e-86
3.49617e-87
8.55504e-88
2.08664e-88
5.07308e-89
1.22942e-89
2.96984e-90
7.15119e-91
1.71648e-91
4.10693e-92
9.79532e-93
2.32887e-93
5.51955e-94
1.30405e-94
3.07131e-95
7.21098e-96
1.68776e-96
3.93798e-97
9.15988e-98
2.12404e-98
4.91014e-99
1.13159e-99
2.59987e-100
5.95502e-101
1.35984e-101
3.0958e-102
7.02646e-103
1.58996e-103
3.58692e-104
8.06768e-105
1.80913e-105
4.04474e-106
9.01595e-107
2.00372e-107
4.43988e-108
9.8088e-109
2.16061e-109
4.74519e-110
1.03909e-110
2.26869e-111
4.93885e-112
1.07203e-112
2.32019e-113
5.00699e-114
1.07738e-114
2.31157e-115
4.94527e-116
1.05493e-116
2.24393e-117
4.75938e-118
1.00659e-118
2.12282e-119
4.46417e-120
9.36131e-121
1.95751e-121
4.08173e-122
8.48715e-123
1.75978e-123
3.63865e-124
7.5025e-125
1.54263e-125
3.16306e-126
6.46767e-127
1.31882e-127
2.68179e-128
5.43833e-129
1.0998e-129
2.21804e-130
4.46104e-131
8.94782e-132
1.78985e-132
3.57054e-133
7.10353e-134
1.40942e-134
2.7889e-135
5.50373e-136
1.08322e-136
2.12622e-137
4.16237e-138
8.12668e-139
1.58245e-139
3.07322e-140
5.9526e-141
1.14993e-141
2.21559e-142
4.25761e-143
8.1602e-144
1.55991e-144
2.97413e-145
5.65573e-146
1.07272e-146
2.02935e-147
3.82915e-148
7.20651e-149
1.35278e-149
2.53285e-150
4.73019e-151
8.81116e-152
1.63711e-152
3.03399e-153
5.60846e-154
1.03412e-154
1.90194e-155
3.48918e-156
6.38489e-157
1.16544e-157
2.12195e-158
3.85381e-159
6.98166e-160
1.26166e-160
2.27428e-161
4.08945e-162
7.33514e-163
1.31243e-163
2.34245e-164
4.17056e-165
7.40711e-166
1.31231e-166
2.31932e-167
4.08905e-168
7.19158e-169
1.26173e-169
2.20829e-170
3.85559e-171
6.71544e-172
1.16683e-172
2.02254e-173
3.49736e-174
6.03309e-175
1.03824e-175
1.78246e-176
3.05285e-177
5.21622e-178
8.89149e-179
1.51204e-179
2.56521e-180
4.34168e-181
7.33109e-182
1.23497e-182
2.07551e-183
3.47998e-184
5.82119e-185
9.71479e-186
1.6175e-186
2.68685e-187
4.45282e-188
7.36243e-189
1.21452e-189
1.99887e-190
3.2822e-191
5.37709e-192
8.78889e-193
1.43326e-193
2.33199e-194
3.78561e-195
6.13137e-196
9.90815e-197
1.59751e-197
2.56987e-198
4.12475e-199
6.60549e-200
1.05544e-200
1.68264e-201
2.67653e-202
4.24799e-203
6.72703e-204
1.06291e-204
1.67573e-205
2.636e-206
4.13737e-207
6.47954e-208
1.01252e-208
1.57873e-209
2.45615e-210
3.81284e-211
5.90597e-212
9.12816e-213
1.40776e-213
2.16633e-214
3.32642e-215
5.09667e-216
7.79209e-217
1.18873e-217
1.80956e-218
2.7487e-219
4.16626e-220
6.30134e-221
9.51016e-222
1.43223e-222
2.15234e-223
3.22763e-224
4.82982e-225
7.212e-226
1.07463e-226
1.59787e-227
2.37087e-228
3.51041e-229
5.18671e-230
7.64739e-231
1.12518e-231
1.65205e-232
2.42056e-233
3.53916e-234
5.16394e-235
7.51896e-236
1.09253e-236
1.58419e-237
2.29236e-238
3.31024e-239
4.77027e-240
6.86011e-241
9.84525e-242
1.41004e-242
2.01533e-243
2.87457e-244
4.0918e-245
5.81259e-246
8.24028e-247
1.16582e-247
1.64604e-248
2.31938e-249
3.26156e-250
4.57723e-251
6.41069e-252
8.96055e-253
1.24995e-253
1.74012e-254
2.41768e-255
3.35236e-256
4.63913e-257
6.40706e-258
8.83115e-259
1.21483e-259
1.66783e-260
2.28523e-261
3.12501e-262
4.26497e-263
5.80935e-264
7.89742e-265
1.0715e-265
1.45093e-266
1.9609e-267
2.64493e-268
3.56064e-269
4.78407e-270
6.41539e-271
8.58631e-272
1.14696e-272
1.52916e-273
2.03479e-274
2.70239e-275
3.58214e-276
4.73917e-277
6.25791e-278
8.24756e-279
1.08491e-279
1.42439e-280
1.86655e-281
2.44132e-282
3.18701e-283
4.1526e-284
5.4005e-285
7.01015e-286
9.08242e-287
1.17451e-287
1.51599e-288
1.95307e-289
2.51146e-290
3.22346e-291
4.12958e-292
5.28054e-293
6.73973e-294
8.58613e-295
1.09181e-295
1.38576e-296
1.75561e-297
2.22005e-298
2.80218e-299
3.53043e-300
4.43978e-301
5.57309e-302
6.98287e-303
8.73324e-304
1.09024e-304
1.35855e-305
1.68981e-306
2.09801e-307
2.60009e-308
3.21648e-309
3.97177e-310
4.89556e-311
6.02331e-312
7.39748e-313
9.0688e-314
1.10977e-314
1.35562e-315
1.65296e-316
2.01191e-317
2.44442e-318
2.96469e-319
3.5884e-320
4.34284e-321
5.2865e-322
7.41098e-323
0
0
0
0
0
0
0
0
0
0
0
0
0
0
0
0
0
0
0
0
0
0
0
0
0
0
0
0
0
0
0
0
0
0
0
0
0
0
0
0
0
0
0
0
0
0
0
0
0
0
0
0
0
0
0
0
0
0
0
0
0
0
0
0
0
0
0
0
0
0
0
0
0
0
0
0
0
0
0
0
0
0
0
0
0
0
0
0
0
0
0
0
0
0
0
0
0
0
0
0
0
0
0
0
0
0
0
0
0
0
0
0
0
0
0
0
0
0
0
0
0
0
0
0
0
0
0
0
0
0
0
0
0
0
0
0
0
0
0
0
0
0
0
0
0
0
0
0
0
0
0
0
0
0
0
0
0
0
0
0
0
0
0
0
0
0
0
0
0
0
0
0
0
0
0
0
0
0
0
0
0
0
0
0
0
0
0
0
0
1
1
1
1
1
1
1
1
1
1
1
1
1
1
1
1
1
0.999999
0.999996
0.999989
0.99997
0.999925
0.999829
0.999643
0.999306
0.998734
0.99782
0.996432
0.994422
0.991633
0.987906
0.98309
0.977056
0.969698
0.960943
0.950751
0.939118
0.926071
0.911667
0.895986
0.879129
0.861209
0.842348
0.822674
0.802313
0.781392
0.760028
0.738336
0.716421
0.694377
0.672293
0.650245
0.628302
0.606526
0.584968
0.563672
0.542676
0.522013
0.501707
0.481781
0.462249
0.443126
0.424419
0.406136
0.388279
0.37085
0.353849
0.337273
0.32112
0.305386
0.290065
0.275153
0.260645
0.246535
0.232819
0.219492
0.206549
0.193989
0.181808
0.170005
0.158579
0.147531
0.136863
0.126578
0.116679
0.10717
0.0980586
0.0893494
0.0810491
0.0731645
0.0657023
0.0586691
0.0520713
0.0459146
0.0402036
0.0349411
0.0301275
0.0257601
0.0218325
0.0183338
0.0152487
0.0125574
0.0102357
0.00825615
0.00658844
0.0052006
0.00406002
0.00313441
0.00239279
0.00180614
0.00134798
0.000994729
0.000725804
0.000523654
0.000373595
0.000263584
0.00018392
0.000126931
8.6652e-05
5.85196e-05
3.91005e-05
2.58504e-05
1.69124e-05
1.09508e-05
7.01838e-06
4.45277e-06
2.7969e-06
1.73951e-06
1.07135e-06
6.53486e-07
3.94818e-07
2.36298e-07
1.40112e-07
8.23169e-08
4.79237e-08
2.76507e-08
1.58126e-08
8.96362e-09
5.03726e-09
2.80659e-09
1.55053e-09
8.49458e-10
4.61533e-10
2.48717e-10
1.3295e-10
7.05001e-11
3.70894e-11
1.936e-11
1.00275e-11
5.15407e-12
2.62912e-12
1.33109e-12
6.68927e-13
3.33698e-13
1.6526e-13
8.12549e-14
3.96673e-14
1.92286e-14
9.25601e-15
4.42477e-15
2.10076e-15
9.90628e-16
4.64002e-16
2.1589e-16
9.97868e-17
4.58215e-17
2.09048e-17
9.47605e-18
4.26815e-18
1.91032e-18
8.49671e-19
3.75574e-19
1.64993e-19
7.20411e-20
3.12653e-20
1.34876e-20
5.78385e-21
2.46564e-21
1.04495e-21
4.40281e-22
1.8444e-22
7.6823e-23
3.18167e-23
1.31029e-23
5.36589e-24
2.18525e-24
8.85033e-25
3.56481e-25
1.42806e-25
5.68995e-26
2.25495e-26
8.8889e-27
3.48545e-27
1.35951e-27
5.27517e-28
2.03627e-28
7.81972e-29
2.98759e-29
1.13563e-29
4.29494e-30
1.61618e-30
6.05135e-31
2.25453e-31
8.35821e-32
3.08346e-32
1.13199e-32
4.13561e-33
1.50363e-33
5.44076e-34
1.95932e-34
7.02249e-35
2.50512e-35
8.89462e-36
3.1434e-36
1.10575e-36
3.87177e-37
1.34948e-37
4.6821e-38
1.61711e-38
5.56003e-39
1.90309e-39
6.48482e-40
2.1999e-40
7.42988e-41
2.49831e-41
8.3638e-42
2.78782e-42
9.25203e-43
3.05725e-43
1.0059e-43
3.29545e-44
1.07503e-44
3.49208e-45
1.12956e-45
3.63838e-46
1.16704e-46
3.72777e-47
1.18579e-47
3.75639e-48
1.18507e-48
3.72336e-49
1.16507e-49
3.6308e-50
1.12692e-50
3.48362e-51
1.07257e-51
3.28911e-52
1.00462e-52
3.05633e-53
9.2615e-54
2.79545e-54
8.40459e-55
2.51701e-55
7.50863e-56
2.23127e-56
6.60489e-57
1.94763e-57
5.72112e-58
1.67415e-58
4.88041e-59
1.41733e-59
4.10054e-60
1.18189e-60
3.39377e-61
9.70874e-62
2.7671e-62
7.85733e-63
2.22289e-63
6.26554e-64
1.75956e-64
4.92331e-65
1.37254e-65
3.81254e-66
1.05519e-66
2.90987e-67
7.99566e-68
2.18915e-68
5.97234e-69
1.62354e-69
4.39785e-70
1.18707e-70
3.19287e-71
8.55768e-72
2.28564e-72
6.0833e-73
1.61346e-73
4.26448e-74
1.12323e-74
2.94832e-75
7.71228e-76
2.01049e-76
5.22316e-77
1.35233e-77
3.48945e-78
8.97342e-79
2.2998e-79
5.87435e-80
1.49544e-80
3.79424e-81
9.59465e-82
2.41817e-82
6.0744e-83
1.52083e-83
3.79513e-84
9.43934e-85
2.34009e-85
5.7823e-86
1.42414e-86
3.49617e-87
8.55504e-88
2.08664e-88
5.07308e-89
1.22942e-89
2.96984e-90
7.15119e-91
1.71648e-91
4.10693e-92
9.79532e-93
2.32887e-93
5.51955e-94
1.30405e-94
3.07131e-95
7.21098e-96
1.68776e-96
3.93798e-97
9.15988e-98
2.12404e-98
4.91014e-99
1.13159e-99
2.59987e-100
5.95502e-101
1.35984e-101
3.0958e-102
7.02646e-103
1.58996e-103
3.58692e-104
8.06768e-105
1.80913e-105
4.04474e-106
9.01595e-107
2.00372e-107
4.43988e-108
9.8088e-109
2.16061e-109
4.74519e-110
1.03909e-110
2.26869e-111
4.93885e-112
1.07203e-112
2.32019e-113
5.00699e-114
1.07738e-114
2.31157e-115
4.94527e-116
1.05493e-116
2.24393e-117
4.75938e-118
1.00659e-118
2.12282e-119
4.46417e-120
9.36131e-121
1.95751e-121
4.08173e-122
8.48715e-123
1.75978e-123
3.63865e-124
7.5025e-125
1.54263e-125
3.16306e-126
6.46767e-127
1.31882e-127
2.68179e-128
5.43833e-129
1.0998e-129
2.21804e-130
4.46104e-131
8.94782e-132
1.78985e-132
3.57054e-133
7.10353e-134
1.40942e-134
2.7889e-135
5.50373e-136
1.08322e-136
2.12622e-137
4.16237e-138
8.12668e-139
1.58245e-139
3.07322e-140
5.9526e-141
1.14993e-141
2.21559e-142
4.25761e-143
8.1602e-144
1.55991e-144
2.97413e-145
5.65573e-146
1.07272e-146
2.02935e-147
3.82915e-148
7.20651e-149
1.35278e-149
2.53285e-150
4.73019e-151
8.81116e-152
1.63711e-152
3.03399e-153
5.60846e-154
1.03412e-154
1.90194e-155
3.48918e-156
6.38489e-157
1.16544e-157
2.12195e-158
3.85381e-159
6.98166e-160
1.26166e-160
2.27428e-161
4.08945e-162
7.33514e-163
1.31243e-163
2.34245e-164
4.17056e-165
7.40711e-166
1.31231e-166
2.31932e-167
4.08905e-168
7.19158e-169
1.26173e-169
2.20829e-170
3.85559e-171
6.71544e-172
1.16683e-172
2.02254e-173
3.49736e-174
6.03309e-175
1.03824e-175
1.78246e-176
3.05285e-177
5.21622e-178
8.89149e-179
1.51204e-179
2.56521e-180
4.34168e-181
7.33109e-182
1.23497e-182
2.07551e-183
3.47998e-184
5.82119e-185
9.71479e-186
1.6175e-186
2.68685e-187
4.45282e-188
7.36243e-189
1.21452e-189
1.99887e-190
3.2822e-191
5.37709e-192
8.78889e-193
1.43326e-193
2.33199e-194
3.78561e-195
6.13137e-196
9.90815e-197
1.59751e-197
2.56987e-198
4.12475e-199
6.60549e-200
1.05544e-200
1.68264e-201
2.67653e-202
4.24799e-203
6.72703e-204
1.06291e-204
1.67573e-205
2.636e-206
4.13737e-207
6.47954e-208
1.01252e-208
1.57873e-209
2.45615e-210
3.81284e-211
5.90597e-212
9.12816e-213
1.40776e-213
2.16633e-214
3.32642e-215
5.09667e-216
7.79209e-217
1.18873e-217
1.80956e-218
2.7487e-219
4.16626e-220
6.30134e-221
9.51016e-222
1.43223e-222
2.15234e-223
3.22763e-224
4.82982e-225
7.212e-226
1.07463e-226
1.59787e-227
2.37087e-228
3.51041e-229
5.18671e-230
7.64739e-231
1.12518e-231
1.65205e-232
2.42056e-233
3.53916e-234
5.16394e-235
7.51896e-236
1.09253e-236
1.58419e-237
2.29236e-238
3.31024e-239
4.77027e-240
6.86011e-241
9.84525e-242
1.41004e-242
2.01533e-243
2.87457e-244
4.0918e-245
5.81259e-246
8.24028e-247
1.16582e-247
1.64604e-248
2.31938e-249
3.26156e-250
4.57723e-251
6.41069e-252
8.96055e-253
1.24995e-253
1.74012e-254
2.41768e-255
3.35236e-256
4.63913e-257
6.40706e-258
8.83115e-259
1.21483e-259
1.66783e-260
2.28523e-261
3.12501e-262
4.26497e-263
5.80935e-264
7.89742e-265
1.0715e-265
1.45093e-266
1.9609e-267
2.64493e-268
3.56064e-269
4.78407e-270
6.41539e-271
8.58631e-272
1.14696e-272
1.52916e-273
2.03479e-274
2.70239e-275
3.58214e-276
4.73917e-277
6.25791e-278
8.24756e-279
1.08491e-279
1.42439e-280
1.86655e-281
2.44132e-282
3.18701e-283
4.1526e-284
5.4005e-285
7.01015e-286
9.08242e-287
1.17451e-287
1.51599e-288
1.95307e-289
2.51146e-290
3.22346e-291
4.12958e-292
5.28054e-293
6.73973e-294
8.58613e-295
1.09181e-295
1.38576e-296
1.75561e-297
2.22005e-298
2.80218e-299
3.53043e-300
4.43978e-301
5.57309e-302
6.98287e-303
8.73324e-304
1.09024e-304
1.35855e-305
1.68981e-306
2.09801e-307
2.60009e-308
3.21648e-309
3.97177e-310
4.89556e-311
6.02331e-312
7.39748e-313
9.0688e-314
1.10977e-314
1.35562e-315
1.65296e-316
2.01191e-317
2.44442e-318
2.96469e-319
3.5884e-320
4.34284e-321
5.2865e-322
7.41098e-323
0
0
0
0
0
0
0
0
0
0
0
0
0
0
0
0
0
0
0
0
0
0
0
0
0
0
0
0
0
0
0
0
0
0
0
0
0
0
0
0
0
0
0
0
0
0
0
0
0
0
0
0
0
0
0
0
0
0
0
0
0
0
0
0
0
0
0
0
0
0
0
0
0
0
0
0
0
0
0
0
0
0
0
0
0
0
0
0
0
0
0
0
0
0
0
0
0
0
0
0
0
0
0
0
0
0
0
0
0
0
0
0
0
0
0
0
0
0
0
0
0
0
0
0
0
0
0
0
0
0
0
0
0
0
0
0
0
0
0
0
0
0
0
0
0
0
0
0
0
0
0
0
0
0
0
0
0
0
0
0
0
0
0
0
0
0
0
0
0
0
0
0
0
0
0
0
0
0
0
0
0
0
0
0
0
0
0
0
0
1
1
1
1
1
1
1
1
1
1
1
1
1
1
1
1
1
0.999999
0.999997
0.999989
0.999971
0.999928
0.999836
0.999656
0.999329
0.998772
0.99788
0.996524
0.994556
0.99182
0.988158
0.983419
0.977473
0.970214
0.961566
0.951489
0.939974
0.927049
0.912767
0.897207
0.880467
0.862659
0.843905
0.824332
0.804064
0.783228
0.761942
0.740319
0.718465
0.696475
0.674437
0.652428
0.630518
0.608768
0.58723
0.565949
0.544963
0.524305
0.504001
0.484073
0.464536
0.445404
0.426686
0.408389
0.390516
0.373069
0.356049
0.339452
0.323277
0.307519
0.292173
0.277236
0.262701
0.248563
0.234818
0.221461
0.208488
0.195895
0.18368
0.171842
0.160379
0.149293
0.138584
0.128256
0.118312
0.108756
0.0995938
0.0908314
0.0824752
0.0745317
0.0670076
0.0599096
0.0532441
0.047017
0.041233
0.0358953
0.031005
0.02656
0.0225548
0.0189794
0.0158195
0.0130564
0.0106669
0.00862423
0.00689876
0.00545893
0.00427232
0.00330666
0.00253072
0.00191517
0.00143305
0.00106025
0.000775623
0.000561054
0.000401319
0.000283879
0.000198594
0.000137413
9.40484e-05
6.36773e-05
4.2655e-05
2.82718e-05
1.85431e-05
1.20367e-05
7.73356e-06
4.91864e-06
3.09711e-06
1.93092e-06
1.19211e-06
7.28898e-07
4.41432e-07
2.64823e-07
1.57395e-07
9.26876e-08
5.40868e-08
3.12787e-08
1.79283e-08
1.01861e-08
5.7372e-09
3.20376e-09
1.7739e-09
9.73986e-10
5.30359e-10
2.86432e-10
1.53444e-10
8.15435e-11
4.29915e-11
2.24888e-11
1.16728e-11
6.01241e-12
3.0734e-12
1.55928e-12
7.85227e-13
3.92524e-13
1.94792e-13
9.59709e-14
4.69467e-14
2.28033e-14
1.09988e-14
5.26843e-15
2.50629e-15
1.1842e-15
5.55764e-16
2.59092e-16
1.19989e-16
5.52055e-17
2.52347e-17
1.14609e-17
5.17204e-18
2.3193e-18
1.03354e-18
4.57714e-19
2.01456e-19
8.81274e-20
3.83182e-20
1.6561e-20
7.11496e-21
3.0387e-21
1.29018e-21
5.44605e-22
2.2856e-22
9.53728e-23
3.95708e-23
1.63256e-23
6.69771e-24
2.73252e-24
1.10866e-24
4.47349e-25
1.79526e-25
7.16564e-26
2.84478e-26
1.12337e-26
4.41257e-27
1.72414e-27
6.70163e-28
2.59138e-28
9.96866e-29
3.81517e-29
1.4527e-29
5.50347e-30
2.07448e-30
7.78054e-31
2.90368e-31
1.0783e-31
3.9847e-32
1.46531e-32
5.36233e-33
1.9529e-33
7.07815e-34
2.55321e-34
9.16623e-35
3.27525e-35
1.16482e-35
4.12328e-36
1.45282e-36
5.09532e-37
1.77883e-37
6.18179e-38
2.13854e-38
7.36468e-39
2.52485e-39
8.6173e-40
2.928e-40
9.90476e-41
3.3358e-41
1.11853e-41
3.73419e-42
1.24124e-42
4.10804e-43
1.35376e-43
4.44204e-44
1.45134e-44
4.72184e-45
1.52973e-45
4.93498e-46
1.58539e-46
5.07191e-47
1.61585e-47
5.12663e-48
1.61984e-48
5.09717e-49
1.59739e-49
4.98565e-50
1.54979e-50
4.79812e-51
1.47952e-51
4.54394e-52
1.38999e-52
4.23509e-53
1.28527e-53
3.88522e-54
1.16985e-54
3.5087e-55
1.04826e-55
3.11964e-56
9.24829e-57
2.73114e-57
8.03451e-58
2.35458e-58
6.87405e-59
1.99923e-59
5.79255e-60
1.67201e-60
4.80814e-61
1.3775e-61
3.93172e-62
1.11805e-62
3.16761e-63
8.94127e-64
2.5146e-64
7.04607e-65
1.96715e-65
5.47203e-66
1.51664e-66
4.18839e-67
1.15251e-67
3.15998e-68
8.63313e-69
2.35019e-69
6.37516e-70
1.72322e-70
4.64147e-71
1.24578e-71
3.33196e-72
8.88054e-73
2.35865e-73
6.24278e-74
1.64659e-74
4.32806e-75
1.13372e-75
2.95953e-76
7.69936e-77
1.9962e-77
5.15792e-78
1.32823e-78
3.4088e-79
8.71896e-80
2.22263e-80
5.64697e-81
1.42992e-81
3.60878e-82
9.07748e-83
2.27579e-83
5.68675e-84
1.41634e-84
3.51594e-85
8.69951e-86
2.14551e-86
5.27414e-87
1.2923e-87
3.15624e-88
7.68375e-89
1.86457e-89
4.51015e-90
1.08746e-90
2.61366e-91
6.26185e-92
1.49547e-92
3.56023e-93
8.44906e-94
1.99881e-94
4.71379e-95
1.10818e-95
2.59713e-96
6.06772e-97
1.41322e-97
3.28131e-98
7.59528e-99
1.75268e-99
4.03207e-100
9.24747e-101
2.11442e-101
4.81986e-102
1.09536e-102
2.4818e-103
5.6061e-104
1.26254e-104
2.83481e-105
6.34599e-106
1.41637e-106
3.15178e-107
6.99266e-108
1.54682e-108
3.41155e-109
7.50205e-110
1.64486e-110
3.59585e-111
7.83792e-112
1.70345e-112
3.69142e-113
7.97613e-114
1.71843e-114
3.69158e-115
7.9075e-116
1.68894e-116
3.59703e-117
7.63883e-118
1.61759e-118
3.41563e-119
7.19181e-120
1.50999e-120
3.16139e-121
6.60017e-122
1.37407e-122
2.85261e-123
5.90552e-124
1.21915e-124
2.50985e-125
5.1526e-126
1.05487e-126
2.15362e-127
4.38469e-128
8.90246e-129
1.80255e-129
3.63974e-130
7.32936e-131
1.47189e-131
2.94781e-132
5.88767e-133
1.17276e-133
2.3297e-134
4.61548e-135
9.11937e-136
1.79699e-136
3.53151e-137
6.92171e-138
1.35303e-138
2.63782e-139
5.12894e-140
9.94624e-141
1.92372e-141
3.71089e-142
7.13954e-143
1.37e-143
2.62201e-144
5.00508e-145
9.52914e-146
1.80953e-146
3.42728e-147
6.47451e-148
1.21995e-148
2.29273e-149
4.29781e-150
8.03573e-151
1.49861e-151
2.78768e-152
5.17234e-153
9.57249e-154
1.76709e-154
3.2538e-155
5.97617e-156
1.09486e-156
2.00078e-157
3.64711e-158
6.63143e-159
1.20276e-159
2.17603e-160
3.92706e-161
7.06952e-162
1.2695e-162
2.27406e-163
4.06345e-164
7.24298e-165
1.28787e-165
2.28432e-166
4.04182e-167
7.13403e-168
1.25612e-168
2.20634e-169
3.86594e-170
6.75747e-171
1.17832e-171
2.0497e-172
3.55688e-173
6.1575e-174
1.0634e-174
1.83209e-175