# vtk DataFile Version 2.0
FlowField
ASCII
DATASET STRUCTURED_GRID
DIMENSIONS 800 1 200
POINTS 160000 float
0 0 0
0.04 0 0
0.08 0 0
0.12 0 0
0.16 0 0
0.2 0 0
0.24 0 0
0.28 0 0
0.32 0 0
0.36 0 0
0.4 0 0
0.44 0 0
0.48 0 0
0.52 0 0
0.56 0 0
0.6 0 0
0.64 0 0
0.68 0 0
0.72 0 0
0.76 0 0
0.8 0 0
0.84 0 0
0.88 0 0
0.92 0 0
0.96 0 0
1 0 0
1.04 0 0
1.08 0 0
1.12 0 0
1.16 0 0
1.2 0 0
1.24 0 0
1.28 0 0
1.32 0 0
1.36 0 0
1.4 0 0
1.44 0 0
1.48 0 0
1.52 0 0
1.56 0 0
1.6 0 0
1.64 0 0
1.68 0 0
1.72 0 0
1.76 0 0
1.8 0 0
1.84 0 0
1.88 0 0
1.92 0 0
1.96 0 0
2 0 0
2.04 0 0
2.08 0 0
2.12 0 0
2.16 0 0
2.2 0 0
2.24 0 0
2.28 0 0
2.32 0 0
2.36 0 0
2.4 0 0
2.44 0 0
2.48 0 0
2.52 0 0
2.56 0 0
2.6 0 0
2.64 0 0
2.68 0 0
2.72 0 0
2.76 0 0
2.8 0 0
2.84 0 0
2.88 0 0
2.92 0 0
2.96 0 0
3 0 0
3.04 0 0
3.08 0 0
3.12 0 0
3.16 0 0
3.2 0 0
3.24 0 0
3.28 0 0
3.32 0 0
3.36 0 0
3.4 0 0
3.44 0 0
3.48 0 0
3.52 0 0
3.56 0 0
3.6 0 0
3.64 0 0
3.68 0 0
3.72 0 0
3.76 0 0
3.8 0 0
3.84 0 0
3.88 0 0
3.92 0 0
3.96 0 0
4 0 0
4.04 0 0
4.08 0 0
4.12 0 0
4.16 0 0
4.2 0 0
4.24 0 0
4.28 0 0
4.32 0 0
4.36 0 0
4.4 0 0
4.44 0 0
4.48 0 0
4.52 0 0
4.56 0 0
4.6 0 0
4.64 0 0
4.68 0 0
4.72 0 0
4.76 0 0
4.8 0 0
4.84 0 0
4.88 0 0
4.92 0 0
4.96 0 0
5 0 0
5.04 0 0
5.08 0 0
5.12 0 0
5.16 0 0
5.2 0 0
5.24 0 0
5.28 0 0
5.32 0 0
5.36 0 0
5.4 0 0
5.44 0 0
5.48 0 0
5.52 0 0
5.56 0 0
5.6 0 0
5.64 0 0
5.68 0 0
5.72 0 0
5.76 0 0
5.8 0 0
5.84 0 0
5.88 0 0
5.92 0 0
5.96 0 0
6 0 0
6.04 0 0
6.08 0 0
6.12 0 0
6.16 0 0
6.2 0 0
6.24 0 0
6.28 0 0
6.32 0 0
6.36 0 0
6.4 0 0
6.44 0 0
6.48 0 0
6.52 0 0
6.56 0 0
6.6 0 0
6.64 0 0
6.68 0 0
6.72 0 0
6.76 0 0
6.8 0 0
6.84 0 0
6.88 0 0
6.92 0 0
6.96 0 0
7 0 0
7.04 0 0
7.08 0 0
7.12 0 0
7.16 0 0
7.2 0 0
7.24 0 0
7.28 0 0
7.32 0 0
7.36 0 0
7.4 0 0
7.44 0 0
7.48 0 0
7.52 0 0
7.56 0 0
7.6 0 0
7.64 0 0
7.68 0 0
7.72 0 0
7.76 0 0
7.8 0 0
7.84 0 0
7.88 0 0
7.92 0 0
7.96 0 0
8 0 0
8.04 0 0
8.08 0 0
8.12 0 0
8.16 0 0
8.2 0 0
8.24 0 0
8.28 0 0
8.32 0 0
8.36 0 0
8.4 0 0
8.44 0 0
8.48 0 0
8.52 0 0
8.56 0 0
8.6 0 0
8.64 0 0
8.68 0 0
8.72 0 0
8.76 0 0
8.8 0 0
8.84 0 0
8.88 0 0
8.92 0 0
8.96 0 0
9 0 0
9.04 0 0
9.08 0 0
9.12 0 0
9.16 0 0
9.2 0 0
9.24 0 0
9.28 0 0
9.32 0 0
9.36 0 0
9.4 0 0
9.44 0 0
9.48 0 0
9.52 0 0
9.56 0 0
9.6 0 0
9.64 0 0
9.68 0 0
9.72 0 0
9.76 0 0
9.8 0 0
9.84 0 0
9.88 0 0
9.92 0 0
9.96 0 0
10 0 0
10.04 0 0
10.08 0 0
10.12 0 0
10.16 0 0
10.2 0 0
10.24 0 0
10.28 0 0
10.32 0 0
10.36 0 0
10.4 0 0
10.44 0 0
10.48 0 0
10.52 0 0
10.56 0 0
10.6 0 0
10.64 0 0
10.68 0 0
10.72 0 0
10.76 0 0
10.8 0 0
10.84 0 0
10.88 0 0
10.92 0 0
10.96 0 0
11 0 0
11.04 0 0
11.08 0 0
11.12 0 0
11.16 0 0
11.2 0 0
11.24 0 0
11.28 0 0
11.32 0 0
11.36 0 0
11.4 0 0
11.44 0 0
11.48 0 0
11.52 0 0
11.56 0 0
11.6 0 0
11.64 0 0
11.68 0 0
11.72 0 0
11.76 0 0
11.8 0 0
11.84 0 0
11.88 0 0
11.92 0 0
11.96 0 0
12 0 0
12.04 0 0
12.08 0 0
12.12 0 0
12.16 0 0
12.2 0 0
12.24 0 0
12.28 0 0
12.32 0 0
12.36 0 0
12.4 0 0
12.44 0 0
12.48 0 0
12.52 0 0
12.56 0 0
12.6 0 0
12.64 0 0
12.68 0 0
12.72 0 0
12.76 0 0
12.8 0 0
12.84 0 0
12.88 0 0
12.92 0 0
12.96 0 0
13 0 0
13.04 0 0
13.08 0 0
13.12 0 0
13.16 0 0
13.2 0 0
13.24 0 0
13.28 0 0
13.32 0 0
13.36 0 0
13.4 0 0
13.44 0 0
13.48 0 0
13.52 0 0
13.56 0 0
13.6 0 0
13.64 0 0
13.68 0 0
13.72 0 0
13.76 0 0
13.8 0 0
13.84 0 0
13.88 0 0
13.92 0 0
13.96 0 0
14 0 0
14.04 0 0
14.08 0 0
14.12 0 0
14.16 0 0
14.2 0 0
14.24 0 0
14.28 0 0
14.32 0 0
14.36 0 0
14.4 0 0
14.44 0 0
14.48 0 0
14.52 0 0
14.56 0 0
14.6 0 0
14.64 0 0
14.68 0 0
14.72 0 0
14.76 0 0
14.8 0 0
14.84 0 0
14.88 0 0
14.92 0 0
14.96 0 0
15 0 0
15.04 0 0
15.08 0 0
15.12 0 0
15.16 0 0
15.2 0 0
15.24 0 0
15.28 0 0
15.32 0 0
15.36 0 0
15.4 0 0
15.44 0 0
15.48 0 0
15.52 0 0
15.56 0 0
15.6 0 0
15.64 0 0
15.68 0 0
15.72 0 0
15.76 0 0
15.8 0 0
15.84 0 0
15.88 0 0
15.92 0 0
15.96 0 0
16 0 0
16.04 0 0
16.08 0 0
16.12 0 0
16.16 0 0
16.2 0 0
16.24 0 0
16.28 0 0
16.32 0 0
16.36 0 0
16.4 0 0
16.44 0 0
16.48 0 0
16.52 0 0
16.56 0 0
16.6 0 0
16.64 0 0
16.68 0 0
16.72 0 0
16.76 0 0
16.8 0 0
16.84 0 0
16.88 0 0
16.92 0 0
16.96 0 0
17 0 0
17.04 0 0
17.08 0 0
17.12 0 0
17.16 0 0
17.2 0 0
17.24 0 0
17.28 0 0
17.32 0 0
17.36 0 0
17.4 0 0
17.44 0 0
17.48 0 0
17.52 0 0
17.56 0 0
17.6 0 0
17.64 0 0
17.68 0 0
17.72 0 0
17.76 0 0
17.8 0 0
17.84 0 0
17.88 0 0
17.92 0 0
17.96 0 0
18 0 0
18.04 0 0
18.08 0 0
18.12 0 0
18.16 0 0
18.2 0 0
18.24 0 0
18.28 0 0
18.32 0 0
18.36 0 0
18.4 0 0
18.44 0 0
18.48 0 0
18.52 0 0
18.56 0 0
18.6 0 0
18.64 0 0
18.68 0 0
18.72 0 0
18.76 0 0
18.8 0 0
18.84 0 0
18.88 0 0
18.92 0 0
18.96 0 0
19 0 0
19.04 0 0
19.08 0 0
19.12 0 0
19.16 0 0
19.2 0 0
19.24 0 0
19.28 0 0
19.32 0 0
19.36 0 0
19.4 0 0
19.44 0 0
19.48 0 0
19.52 0 0
19.56 0 0
19.6 0 0
19.64 0 0
19.68 0 0
19.72 0 0
19.76 0 0
19.8 0 0
19.84 0 0
19.88 0 0
19.92 0 0
19.96 0 0
20 0 0
20.04 0 0
20.08 0 0
20.12 0 0
20.16 0 0
20.2 0 0
20.24 0 0
20.28 0 0
20.32 0 0
20.36 0 0
20.4 0 0
20.44 0 0
20.48 0 0
20.52 0 0
20.56 0 0
20.6 0 0
20.64 0 0
20.68 0 0
20.72 0 0
20.76 0 0
20.8 0 0
20.84 0 0
20.88 0 0
20.92 0 0
20.96 0 0
21 0 0
21.04 0 0
21.08 0 0
21.12 0 0
21.16 0 0
21.2 0 0
21.24 0 0
21.28 0 0
21.32 0 0
21.36 0 0
21.4 0 0
21.44 0 0
21.48 0 0
21.52 0 0
21.56 0 0
21.6 0 0
21.64 0 0
21.68 0 0
21.72 0 0
21.76 0 0
21.8 0 0
21.84 0 0
21.88 0 0
21.92 0 0
21.96 0 0
22 0 0
22.04 0 0
22.08 0 0
22.12 0 0
22.16 0 0
22.2 0 0
22.24 0 0
22.28 0 0
22.32 0 0
22.36 0 0
22.4 0 0
22.44 0 0
22.48 0 0
22.52 0 0
22.56 0 0
22.6 0 0
22.64 0 0
22.68 0 0
22.72 0 0
22.76 0 0
22.8 0 0
22.84 0 0
22.88 0 0
22.92 0 0
22.96 0 0
23 0 0
23.04 0 0
23.08 0 0
23.12 0 0
23.16 0 0
23.2 0 0
23.24 0 0
23.28 0 0
23.32 0 0
23.36 0 0
23.4 0 0
23.44 0 0
23.48 0 0
23.52 0 0
23.56 0 0
23.6 0 0
23.64 0 0
23.68 0 0
23.72 0 0
23.76 0 0
23.8 0 0
23.84 0 0
23.88 0 0
23.92 0 0
23.96 0 0
24 0 0
24.04 0 0
24.08 0 0
24.12 0 0
24.16 0 0
24.2 0 0
24.24 0 0
24.28 0 0
24.32 0 0
24.36 0 0
24.4 0 0
24.44 0 0
24.48 0 0
24.52 0 0
24.56 0 0
24.6 0 0
24.64 0 0
24.68 0 0
24.72 0 0
24.76 0 0
24.8 0 0
24.84 0 0
24.88 0 0
24.92 0 0
24.96 0 0
25 0 0
25.04 0 0
25.08 0 0
25.12 0 0
25.16 0 0
25.2 0 0
25.24 0 0
25.28 0 0
25.32 0 0
25.36 0 0
25.4 0 0
25.44 0 0
25.48 0 0
25.52 0 0
25.56 0 0
25.6 0 0
25.64 0 0
25.68 0 0
25.72 0 0
25.76 0 0
25.8 0 0
25.84 0 0
25.88 0 0
25.92 0 0
25.96 0 0
26 0 0
26.04 0 0
26.08 0 0
26.12 0 0
26.16 0 0
26.2 0 0
26.24 0 0
26.28 0 0
26.32 0 0
26.36 0 0
26.4 0 0
26.44 0 0
26.48 0 0
26.52 0 0
26.56 0 0
26.6 0 0
26.64 0 0
26.68 0 0
26.72 0 0
26.76 0 0
26.8 0 0
26.84 0 0
26.88 0 0
26.92 0 0
26.96 0 0
27 0 0
27.04 0 0
27.08 0 0
27.12 0 0
27.16 0 0
27.2 0 0
27.24 0 0
27.28 0 0
27.32 0 0
27.36 0 0
27.4 0 0
27.44 0 0
27.48 0 0
27.52 0 0
27.56 0 0
27.6 0 0
27.64 0 0
27.68 0 0
27.72 0 0
27.76 0 0
27.8 0 0
27.84 0 0
27.88 0 0
27.92 0 0
27.96 0 0
28 0 0
28.04 0 0
28.08 0 0
28.12 0 0
28.16 0 0
28.2 0 0
28.24 0 0
28.28 0 0
28.32 0 0
28.36 0 0
28.4 0 0
28.44 0 0
28.48 0 0
28.52 0 0
28.56 0 0
28.6 0 0
28.64 0 0
28.68 0 0
28.72 0 0
28.76 0 0
28.8 0 0
28.84 0 0
28.88 0 0
28.92 0 0
28.96 0 0
29 0 0
29.04 0 0
29.08 0 0
29.12 0 0
29.16 0 0
29.2 0 0
29.24 0 0
29.28 0 0
29.32 0 0
29.36 0 0
29.4 0 0
29.44 0 0
29.48 0 0
29.52 0 0
29.56 0 0
29.6 0 0
29.64 0 0
29.68 0 0
29.72 0 0
29.76 0 0
29.8 0 0
29.84 0 0
29.88 0 0
29.92 0 0
29.96 0 0
30 0 0
30.04 0 0
30.08 0 0
30.12 0 0
30.16 0 0
30.2 0 0
30.24 0 0
30.28 0 0
30.32 0 0
30.36 0 0
30.4 0 0
30.44 0 0
30.48 0 0
30.52 0 0
30.56 0 0
30.6 0 0
30.64 0 0
30.68 0 0
30.72 0 0
30.76 0 0
30.8 0 0
30.84 0 0
30.88 0 0
30.92 0 0
30.96 0 0
31 0 0
31.04 0 0
31.08 0 0
31.12 0 0
31.16 0 0
31.2 0 0
31.24 0 0
31.28 0 0
31.32 0 0
31.36 0 0
31.4 0 0
31.44 0 0
31.48 0 0
31.52 0 0
31.56 0 0
31.6 0 0
31.64 0 0
31.68 0 0
31.72 0 0
31.76 0 0
31.8 0 0
31.84 0 0
31.88 0 0
31.92 0 0
31.96 0 0
0 0.005 0
0.04 0.005 0
0.08 0.005 0
0.12 0.005 0
0.16 0.005 0
0.2 0.005 0
0.24 0.005 0
0.28 0.005 0
0.32 0.005 0
0.36 0.005 0
0.4 0.005 0
0.44 0.005 0
0.48 0.005 0
0.52 0.005 0
0.56 0.005 0
0.6 0.005 0
0.64 0.005 0
0.68 0.005 0
0.72 0.005 0
0.76 0.005 0
0.8 0.005 0
0.84 0.005 0
0.88 0.005 0
0.92 0.005 0
0.96 0.005 0
1 0.005 0
1.04 0.005 0
1.08 0.005 0
1.12 0.005 0
1.16 0.005 0
1.2 0.005 0
1.24 0.005 0
1.28 0.005 0
1.32 0.005 0
1.36 0.005 0
1.4 0.005 0
1.44 0.005 0
1.48 0.005 0
1.52 0.005 0
1.56 0.005 0
1.6 0.005 0
1.64 0.005 0
1.68 0.005 0
1.72 0.005 0
1.76 0.005 0
1.8 0.005 0
1.84 0.005 0
1.88 0.005 0
1.92 0.005 0
1.96 0.005 0
2 0.005 0
2.04 0.005 0
2.08 0.005 0
2.12 0.005 0
2.16 0.005 0
2.2 0.005 0
2.24 0.005 0
2.28 0.005 0
2.32 0.005 0
2.36 0.005 0
2.4 0.005 0
2.44 0.005 0
2.48 0.005 0
2.52 0.005 0
2.56 0.005 0
2.6 0.005 0
2.64 0.005 0
2.68 0.005 0
2.72 0.005 0
2.76 0.005 0
2.8 0.005 0
2.84 0.005 0
2.88 0.005 0
2.92 0.005 0
2.96 0.005 0
3 0.005 0
3.04 0.005 0
3.08 0.005 0
3.12 0.005 0
3.16 0.005 0
3.2 0.005 0
3.24 0.005 0
3.28 0.005 0
3.32 0.005 0
3.36 0.005 0
3.4 0.005 0
3.44 0.005 0
3.48 0.005 0
3.52 0.005 0
3.56 0.005 0
3.6 0.005 0
3.64 0.005 0
3.68 0.005 0
3.72 0.005 0
3.76 0.005 0
3.8 0.005 0
3.84 0.005 0
3.88 0.005 0
3.92 0.005 0
3.96 0.005 0
4 0.005 0
4.04 0.005 0
4.08 0.005 0
4.12 0.005 0
4.16 0.005 0
4.2 0.005 0
4.24 0.005 0
4.28 0.005 0
4.32 0.005 0
4.36 0.005 0
4.4 0.005 0
4.44 0.005 0
4.48 0.005 0
4.52 0.005 0
4.56 0.005 0
4.6 0.005 0
4.64 0.005 0
4.68 0.005 0
4.72 0.005 0
4.76 0.005 0
4.8 0.005 0
4.84 0.005 0
4.88 0.005 0
4.92 0.005 0
4.96 0.005 0
5 0.005 0
5.04 0.005 0
5.08 0.005 0
5.12 0.005 0
5.16 0.005 0
5.2 0.005 0
5.24 0.005 0
5.28 0.005 0
5.32 0.005 0
5.36 0.005 0
5.4 0.005 0
5.44 0.005 0
5.48 0.005 0
5.52 0.005 0
5.56 0.005 0
5.6 0.005 0
5.64 0.005 0
5.68 0.005 0
5.72 0.005 0
5.76 0.005 0
5.8 0.005 0
5.84 0.005 0
5.88 0.005 0
5.92 0.005 0
5.96 0.005 0
6 0.005 0
6.04 0.005 0
6.08 0.005 0
6.12 0.005 0
6.16 0.005 0
6.2 0.005 0
6.24 0.005 0
6.28 0.005 0
6.32 0.005 0
6.36 0.005 0
6.4 0.005 0
6.44 0.005 0
6.48 0.005 0
6.52 0.005 0
6.56 0.005 0
6.6 0.005 0
6.64 0.005 0
6.68 0.005 0
6.72 0.005 0
6.76 0.005 0
6.8 0.005 0
6.84 0.005 0
6.88 0.005 0
6.92 0.005 0
6.96 0.005 0
7 0.005 0
7.04 0.005 0
7.08 0.005 0
7.12 0.005 0
7.16 0.005 0
7.2 0.005 0
7.24 0.005 0
7.28 0.005 0
7.32 0.005 0
7.36 0.005 0
7.4 0.005 0
[...]
POINT_DATA 160000

SCALARS u float 1
LOOKUP_TABLE default
-1
-0.483358
-0.183963
-0.108845
-0.0810331
-0.0668337
-0.0581182
-0.0521527
-0.0477775
-0.0444146
-0.0417413
-0.0395615
-0.0377483
-0.0362153
-0.0349016
-0.0337625
-0.0327648
-0.031883
-0.0310974
-0.0303924
-0.0297554
-0.0291764
-0.0286473
-0.0281612
-0.0277126
-0.0272968
-0.02691
-0.0265488
-0.0262105
-0.0258925
-0.025593
-0.0253101
-0.0250422
-0.0247881
-0.0245466
-0.0243166
-0.0240971
-0.0238875
-0.023687
-0.023495
-0.0233107
-0.0231338
-0.0229638
-0.0228002
-0.0226427
-0.0224908
-0.0223442
-0.0222028
-0.0220661
-0.0219339
-0.021806
-0.0216821
-0.0215621
-0.0214458
-0.021333
-0.0212235
-0.0211171
-0.0210138
-0.0209134
-0.0208157
-0.0207207
-0.0206283
-0.0205382
-0.0204505
-0.020365
-0.0202817
-0.0202004
-0.0201211
-0.0200437
-0.0199682
-0.0198944
-0.0198223
-0.0197518
-0.019683
-0.0196156
-0.0195498
-0.0194853
-0.0194223
-0.0193605
-0.0193001
-0.0192409
-0.0191829
-0.0191261
-0.0190704
-0.0190158
-0.0189623
-0.0189097
-0.0188582
-0.0188077
-0.0187581
-0.0187094
-0.0186617
-0.0186147
-0.0185687
-0.0185234
-0.0184789
-0.0184352
-0.0183923
-0.0183501
-0.0183086
-0.0182678
-0.0182277
-0.0181882
-0.0181494
-0.0181112
-0.0180737
-0.0180367
-0.0180003
-0.0179645
-0.0179292
-0.0178945
-0.0178603
-0.0178266
-0.0177935
-0.0177608
-0.0177286
-0.0176969
-0.0176657
-0.0176349
-0.0176045
-0.0175746
-0.0175451
-0.017516
-0.0174874
-0.0174591
-0.0174312
-0.0174037
-0.0173766
-0.0173499
-0.0173235
-0.0172974
-0.0172718
-0.0172464
-0.0172214
-0.0171967
-0.0171724
-0.0171483
-0.0171246
-0.0171011
-0.017078
-0.0170552
-0.0170326
-0.0170103
-0.0169883
-0.0169666
-0.0169452
-0.016924
-0.0169031
-0.0168824
-0.016862
-0.0168418
-0.0168219
-0.0168022
-0.0167827
-0.0167635
-0.0167445
-0.0167257
-0.0167071
-0.0166888
-0.0166707
-0.0166528
-0.0166351
-0.0166176
-0.0166002
-0.0165831
-0.0165662
-0.0165495
-0.016533
-0.0165166
-0.0165005
-0.0164845
-0.0164687
-0.0164531
-0.0164376
-0.0164223
-0.0164072
-0.0163923
-0.0163775
-0.0163629
-0.0163484
-0.0163341
-0.01632
-0.016306
-0.0162921
-0.0162784
-0.0162649
-0.0162515
-0.0162382
-0.0162251
-0.0162121
-0.0161993
-0.0161866
-0.016174
-0.0161616
-0.0161493
-0.0161371
-0.016125
-0.0161131
-0.0161013
-0.0160896
-0.0160781
-0.0160667
-0.0160553
-0.0160441
-0.0160331
-0.0160221
-0.0160112
-0.0160005
-0.0159899
-0.0159793
-0.0159689
-0.0159586
-0.0159484
-0.0159383
-0.0159283
-0.0159184
-0.0159086
-0.0158989
-0.0158893
-0.0158798
-0.0158704
-0.0158611
-0.0158519
-0.0158427
-0.0158337
-0.0158248
-0.0158159
-0.0158071
-0.0157985
-0.0157899
-0.0157814
-0.0157729
-0.0157646
-0.0157563
-0.0157482
-0.0157401
-0.0157321
-0.0157241
-0.0157163
-0.0157085
-0.0157008
-0.0156932
-0.0156856
-0.0156782
-0.0156708
-0.0156634
-0.0156562
-0.015649
-0.0156419
-0.0156348
-0.0156278
-0.0156209
-0.0156141
-0.0156073
-0.0156006
-0.015594
-0.0155874
-0.0155809
-0.0155744
-0.015568
-0.0155617
-0.0155554
-0.0155492
-0.0155431
-0.015537
-0.015531
-0.015525
-0.0155191
-0.0155132
-0.0155074
-0.0155017
-0.015496
-0.0154904
-0.0154848
-0.0154793
-0.0154738
-0.0154684
-0.015463
-0.0154577
-0.0154524
-0.0154472
-0.015442
-0.0154369
-0.0154319
-0.0154268
-0.0154219
-0.0154169
-0.0154121
-0.0154072
-0.0154024
-0.0153977
-0.015393
-0.0153884
-0.0153838
-0.0153792
-0.0153747
-0.0153702
-0.0153657
-0.0153614
-0.015357
-0.0153527
-0.0153484
-0.0153442
-0.01534
-0.0153358
-0.0153317
-0.0153276
-0.0153236
-0.0153196
-0.0153156
-0.0153117
-0.0153078
-0.015304
-0.0153002
-0.0152964
-0.0152926
-0.0152889
-0.0152852
-0.0152816
-0.015278
-0.0152744
-0.0152709
-0.0152674
-0.0152639
-0.0152604
-0.015257
-0.0152536
-0.0152503
-0.015247
-0.0152437
-0.0152404
-0.0152372
-0.015234
-0.0152308
-0.0152277
-0.0152246
-0.0152215
-0.0152184
-0.0152154
-0.0152124
-0.0152094
-0.0152065
-0.0152035
-0.0152006
-0.0151978
-0.0151949
-0.0151921
-0.0151893
-0.0151865
-0.0151838
-0.0151811
-0.0151784
-0.0151757
-0.0151731
-0.0151705
-0.0151679
-0.0151653
-0.0151627
-0.0151602
-0.0151577
-0.0151552
-0.0151527
-0.0151503
-0.0151479
-0.0151455
-0.0151431
-0.0151407
-0.0151384
-0.0151361
-0.0151338
-0.0151315
-0.0151293
-0.015127
-0.0151248
-0.0151226
-0.0151204
-0.0151183
-0.0151161
-0.015114
-0.0151119
-0.0151098
-0.0151078
-0.0151057
-0.0151037
-0.0151017
-0.0150997
-0.0150977
-0.0150957
-0.0150938
-0.0150919
-0.0150899
-0.0150881
-0.0150862
-0.0150843
-0.0150825
-0.0150806
-0.0150788
-0.015077
-0.0150752
-0.0150735
-0.0150717
-0.01507
-0.0150682
-0.0150665
-0.0150648
-0.0150632
-0.0150615
-0.0150599
-0.0150582
-0.0150566
-0.015055
-0.0150534
-0.0150518
-0.0150503
-0.0150487
-0.0150472
-0.0150457
-0.0150442
-0.0150427
-0.0150412
-0.0150397
-0.0150383
-0.0150368
-0.0150354
-0.015034
-0.0150326
-0.0150312
-0.0150298
-0.0150285
-0.0150271
-0.0150258
-0.0150245
-0.0150232
-0.0150219
-0.0150206
-0.0150194
-0.0150181
-0.0150169
-0.0150157
-0.0150144
-0.0150132
-0.0150121
-0.0150109
-0.0150097
-0.0150086
-0.0150074
-0.0150063
-0.0150052
-0.0150041
-0.015003
-0.0150019
-0.0150009
-0.0149998
-0.0149988
-0.0149978
-0.0149968
-0.0149958
-0.0149948
-0.0149938
-0.0149928
-0.0149919
-0.0149909
-0.01499
-0.0149891
-0.0149882
-0.0149873
-0.0149864
-0.0149856
-0.0149847
-0.0149838
-0.014983
-0.0149822
-0.0149814
-0.0149806
-0.0149798
-0.014979
-0.0149782
-0.0149775
-0.0149767
-0.014976
-0.0149752
-0.0149745
-0.0149738
-0.0149731
-0.0149724
-0.0149717
-0.014971
-0.0149704
-0.0149697
-0.0149691
-0.0149684
-0.0149678
-0.0149672
-0.0149666
-0.014966
-0.0149654
-0.0149648
-0.0149642
-0.0149636
-0.0149631
-0.0149625
-0.014962
-0.0149614
-0.0149609
-0.0149604
-0.0149598
-0.0149593
-0.0149588
-0.0149583
-0.0149578
-0.0149573
-0.0149569
-0.0149564
-0.0149559
-0.0149555
-0.014955
-0.0149545
-0.0149541
-0.0149536
-0.0149532
-0.0149528
-0.0149524
-0.0149519
-0.0149515
-0.0149511
-0.0149507
-0.0149503
-0.0149499
-0.0149495
-0.0149491
-0.0149487
-0.0149483
-0.0149479
-0.0149475
-0.0149472
-0.0149468
-0.0149464
-0.0149461
-0.0149457
-0.0149453
-0.014945
-0.0149446
-0.0149443
-0.0149439
-0.0149436
-0.0149432
-0.0149429
-0.0149425
-0.0149422
-0.0149418
-0.0149415
-0.0149412
-0.0149408
-0.0149405
-0.0149402
-0.0149398
-0.0149395
-0.0149392
-0.0149388
-0.0149385
-0.0149382
-0.0149379
-0.0149375
-0.0149372
-0.0149369
-0.0149366
-0.0149363
-0.0149359
-0.0149356
-0.0149353
-0.014935
-0.0149347
-0.0149344
-0.014934
-0.0149337
-0.0149334
-0.0149331
-0.0149328
-0.0149325
-0.0149322
-0.0149319
-0.0149315
-0.0149312
-0.0149309
-0.0149306
-0.0149303
-0.01493
-0.0149297
-0.0149294
-0.0149291
-0.0149288
-0.0149284
-0.0149281
-0.0149278
-0.0149275
-0.0149272
-0.0149269
-0.0149266
-0.0149263
-0.014926
-0.0149257
-0.0149253
-0.014925
-0.0149247
-0.0149244
-0.0149241
-0.0149238
-0.0149235
-0.0149232
-0.0149229
-0.0149226
-0.0149223
-0.0149219
-0.0149216
-0.0149213
-0.014921
-0.0149207
-0.0149204
-0.0149201
-0.0149198
-0.0149195
-0.0149192
-0.0149189
-0.0149186
-0.0149182
-0.0149179
-0.0149176
-0.0149173
-0.014917
-0.0149167
-0.0149164
-0.0149161
-0.0149158
-0.0149155
-0.0149152
-0.0149148
-0.0149145
-0.0149142
-0.0149139
-0.0149136
-0.0149133
-0.014913
-0.0149127
-0.0149124
-0.0149121
-0.0149118
-0.0149114
-0.0149111
-0.0149108
-0.0149105
-0.0149102
-0.0149099
-0.0149096
-0.0149093
-0.014909
-0.0149087
-0.0149084
-0.0149081
-0.0149077
-0.0149074
-0.0149071
-0.0149068
-0.0149065
-0.0149062
-0.0149059
-0.0149056
-0.0149053
-0.014905
-0.0149047
-0.0149043
-0.014904
-0.0149037
-0.0149034
-0.0149031
-0.0149028
-0.0149025
-0.0149022
-0.0149019
-0.0149016
-0.0149013
-0.0149009
-0.0149006
-0.0149003
-0.0149
-0.0148997
-0.0148994
-0.0148991
-0.0148988
-0.0148985
-0.0148982
-0.0148979
-0.0148976
-0.0148972
-0.0148969
-0.0148966
-0.0148963
-0.014896
-0.0148957
-0.0148954
-0.0148951
-0.0148948
-0.0148945
-0.0148942
-0.0148938
-0.0148935
-0.0148932
-0.0148929
-0.0148926
-0.0148923
-0.014892
-0.0148917
-0.0148914
-0.0148911
-0.0148908
-0.0148905
-0.0148901
-0.0148898
-0.0148895
-0.0148892
-0.0148889
-0.0148886
-0.0148883
-0.014888
-0.0148877
-0.0148874
-0.0148871
-0.0148867
-0.0148864
-0.0148861
-0.0148858
-0.0148855
-0.0148852
-0.0148849
-0.0148846
-0.0148843
-0.014884
-0.0148837
-0.0148833
-0.014883
-0.0148827
-0.0148824
-0.0148821
-0.0148818
-0.0148815
-0.0148812
-0.0148809
-0.0148806
-0.0148803
-0.01488
-0.0148796
-0.0148793
-0.014879
-0.0148787
-0.0148784
-0.0148781
-0.0148778
-0.0148775
-0.0148772
-0.0148769
-0.0148766
-0.0148762
-0.0148759
-0.0148756
-0.0148753
-0.014875
-0.0148747
-0.0148744
-0.0148741
-0.0148738
-0.0148735
-0.0148732
-0.0148728
-0.0148725
-0.0148722
-0.0148719
-0.0148716
-0.0148713
-0.014871
-0.0148707
-0.0148703
-0.01487
-0.0148697
-0.0148694
-0.0148691
-0.0148687
-0.0148684
-0.014868
-0.0148677
-0.0148673
-0.0148669
-0.0148665
-0.014866
-0.0148655
-0.014865
-0.0148643
-0.0148637
-0.0148627
-0.0148623
-0.0148623
-0.0148623
1
0.483358
0.183963
0.108845
0.0810331
0.0668337
0.0581182
0.0521527
0.0477775
0.0444146
0.0417413
0.0395615
0.0377483
0.0362153
0.0349016
0.0337625
0.0327648
0.031883
0.0310974
0.0303924
0.0297554
0.0291764
0.0286473
0.0281612
0.0277126
0.0272968
0.02691
0.0265488
0.0262105
0.0258925
0.025593
0.0253101
0.0250422
0.0247881
0.0245466
0.0243166
0.0240971
0.0238875
0.023687
0.023495
0.0233107
0.0231338
0.0229638
0.0228002
0.0226427
0.0224908
0.0223442
0.0222028
0.0220661
0.0219339
0.021806
0.0216821
0.0215621
0.0214458
0.021333
0.0212235
0.0211171
0.0210138
0.0209134
0.0208157
0.0207207
0.0206283
0.0205382
0.0204505
0.020365
0.0202817
0.0202004
0.0201211
0.0200437
0.0199682
0.0198944
0.0198223
0.0197518
0.019683
0.0196156
0.0195498
0.0194853
0.0194223
0.0193605
0.0193001
0.0192409
0.0191829
0.0191261
0.0190704
0.0190158
0.0189623
0.0189097
0.0188582
0.0188077
0.0187581
0.0187094
0.0186617
0.0186147
0.0185687
0.0185234
0.0184789
0.0184352
0.0183923
0.0183501
0.0183086
0.0182678
0.0182277
0.0181882
0.0181494
0.0181112
0.0180737
0.0180367
0.0180003
0.0179645
0.0179292
0.0178945
0.0178603
0.0178266
0.0177935
0.0177608
0.0177286
0.0176969
0.0176657
0.0176349
0.0176045
0.0175746
0.0175451
0.017516
0.0174874
0.0174591
0.0174312
0.0174037
0.0173766
0.0173499
0.0173235
0.0172974
0.0172718
0.0172464
0.0172214
0.0171967
0.0171724
0.0171483
0.0171246
0.0171011
0.017078
0.0170552
0.0170326
0.0170103
0.0169883
0.0169666
0.0169452
0.016924
0.0169031
0.0168824
0.016862
0.0168418
0.0168219
0.0168022
0.0167827
0.0167635
0.0167445
0.0167257
0.0167071
0.0166888
0.0166707
0.0166528
0.0166351
0.0166176
0.0166002
0.0165831
0.0165662
0.0165495
0.016533
0.0165166
0.0165005
0.0164845
0.0164687
0.0164531
0.0164376
0.0164223
0.0164072
0.0163923
0.0163775
0.0163629
0.0163484
0.0163341
0.01632
0.016306
0.0162921
0.0162784
0.0162649
0.0162515
0.0162382
0.0162251
0.0162121
0.0161993
0.0161866
0.016174
0.0161616
0.0161493
0.0161371
0.016125
0.0161131
0.0161013
0.0160896
0.0160781
0.0160667
0.0160553
0.0160441
0.0160331
0.0160221
0.0160112
0.0160005
0.0159899
0.0159793
0.0159689
0.0159586
0.0159484
0.0159383
0.0159283
0.0159184
0.0159086
0.0158989
0.0158893
0.0158798
0.0158704
0.0158611
0.0158519
0.0158427
0.0158337
0.0158248
0.0158159
0.0158071
0.0157985
0.0157899
0.0157814
0.0157729
0.0157646
0.0157563
0.0157482
0.0157401
0.0157321
0.0157241
0.0157163
0.0157085
0.0157008
0.0156932
0.0156856
0.0156782
0.0156708
0.0156634
0.0156562
0.015649
0.0156419
0.0156348
0.0156278
0.0156209
0.0156141
0.0156073
0.0156006
0.015594
0.0155874
0.0155809
0.0155744
0.015568
0.0155617
0.0155554
0.0155492
0.0155431
0.015537
0.015531
0.015525
0.0155191
0.0155132
0.0155074
0.0155017
0.015496
0.0154904
0.0154848
0.0154793
0.0154738
0.0154684
0.015463
0.0154577
0.0154524
0.0154472
0.015442
0.0154369
0.0154319
0.0154268
0.0154219
0.0154169
0.0154121
0.0154072
0.0154024
0.0153977
0.015393
0.0153884
0.0153838
0.0153792
0.0153747
0.0153702
0.0153657
0.0153614
0.015357
0.0153527
0.0153484
0.0153442
0.01534
0.0153358
0.0153317
0.0153276
0.0153236
0.0153196
0.0153156
0.0153117
0.0153078
0.015304
0.0153002
0.0152964
0.0152926
0.0152889
0.0152852
0.0152816
0.015278
0.0152744
0.0152709
0.0152674
0.0152639
0.0152604
0.015257
0.0152536
0.0152503
0.015247
0.0152437
0.0152404
0.0152372
0.015234
0.0152308
0.0152277
0.0152246
0.0152215
0.0152184
0.0152154
0.0152124
0.0152094
0.0152065
0.0152035
0.0152006
0.0151978
0.0151949
0.0151921
0.0151893
0.0151865
0.0151838
0.0151811
0.0151784
0.0151757
0.0151731
0.0151705
0.0151679
0.0151653
0.0151627
0.0151602
0.0151577
0.0151552
0.0151527
0.0151503
0.0151479
0.0151455
0.0151431
0.0151407
0.0151384
0.0151361
0.0151338
0.0151315
0.0151293
0.015127
0.0151248
0.0151226
0.0151204
0.0151183
0.0151161
0.015114
0.0151119
0.0151098
0.0151078
0.0151057
0.0151037
0.0151017
0.0150997
0.0150977
0.0150957
0.0150938
0.0150919
0.0150899
0.0150881
0.0150862
0.0150843
0.0150825
0.0150806
0.0150788
0.015077
0.0150752
0.0150735
0.0150717
0.01507
0.0150682
0.0150665
0.0150648
0.0150632
0.0150615
0.0150599
0.0150582
0.0150566
0.015055
0.0150534
0.0150518
0.0150503
0.0150487
0.0150472
0.0150457
0.0150442
0.0150427
0.0150412
0.0150397
0.0150383
0.0150368
0.0150354
0.015034
0.0150326
0.0150312
0.0150298
0.0150285
0.0150271
0.0150258
0.0150245
0.0150232
0.0150219
0.0150206
0.0150194
0.0150181
0.0150169
0.0150157
0.0150144
0.0150132
0.0150121
0.0150109
0.0150097
0.0150086
0.0150074
0.0150063
0.0150052
0.0150041
0.015003
0.0150019
0.0150009
0.0149998
0.0149988
0.0149978
0.0149968
0.0149958
0.0149948
0.0149938
0.0149928
0.0149919
0.0149909
0.01499
0.0149891
0.0149882
0.0149873
0.0149864
0.0149856
0.0149847
0.0149838
0.014983
0.0149822
0.0149814
0.0149806
0.0149798
0.014979
0.0149782
0.0149775
0.0149767
0.014976
0.0149752
0.0149745
0.0149738
0.0149731
0.0149724
0.0149717
0.014971
0.0149704
0.0149697
0.0149691
0.0149684
0.0149678
0.0149672
0.0149666
0.014966
0.0149654
0.0149648
0.0149642
0.0149636
0.0149631
0.0149625
0.014962
0.0149614
0.0149609
0.0149604
0.0149598
0.0149593
0.0149588
0.0149583
0.0149578
0.0149573
0.0149569
0.0149564
0.0149559
0.0149555
0.014955
0.0149545
0.0149541
0.0149536
0.0149532
0.0149528
0.0149524
0.0149519
0.0149515
0.0149511
0.0149507
0.0149503
0.0149499
0.0149495
0.0149491
0.0149487
0.0149483
0.0149479
0.0149475
0.0149472
0.0149468
0.0149464
0.0149461
0.0149457
0.0149453
0.014945
0.0149446
0.0149443
0.0149439
0.0149436
0.0149432
0.0149429
0.0149425
0.0149422
0.0149418
0.0149415
0.0149412
0.0149408
0.0149405
0.0149402
0.0149398
0.0149395
0.0149392
0.0149388
0.0149385
0.0149382
0.0149379
0.0149375
0.0149372
0.0149369
0.0149366
0.0149363
0.0149359
0.0149356
0.0149353
0.014935
0.0149347
0.0149344
0.014934
0.0149337
0.0149334
0.0149331
0.0149328
0.0149325
0.0149322
0.0149319
0.0149315
0.0149312
0.0149309
0.0149306
0.0149303
0.01493
0.0149297
0.0149294
0.0149291
0.0149288
0.0149284
0.0149281
0.0149278
0.0149275
0.0149272
0.0149269
0.0149266
0.0149263
0.014926
0.0149257
0.0149253
0.014925
0.0149247
0.0149244
0.0149241
0.0149238
0.0149235
0.0149232
0.0149229
0.0149226
0.0149223
0.0149219
0.0149216
0.0149213
0.014921
0.0149207
0.0149204
0.0149201
0.0149198
0.0149195
0.0149192
0.0149189
0.0149186
0.0149182
0.0149179
0.0149176
0.0149173
0.014917
0.0149167
0.0149164
0.0149161
0.0149158
0.0149155
0.0149152
0.0149148
0.0149145
0.0149142
0.0149139
0.0149136
0.0149133
0.014913
0.0149127
0.0149124
0.0149121
0.0149118
0.0149114
0.0149111
0.0149108
0.0149105
0.0149102
0.0149099
0.0149096
0.0149093
0.014909
0.0149087
0.0149084
0.0149081
0.0149077
0.0149074
0.0149071
0.0149068
0.0149065
0.0149062
0.0149059
0.0149056
0.0149053
0.014905
0.0149047
0.0149043
0.014904
0.0149037
0.0149034
0.0149031
0.0149028
0.0149025
0.0149022
0.0149019
0.0149016
0.0149013
0.0149009
0.0149006
0.0149003
0.0149
0.0148997
0.0148994
0.0148991
0.0148988
0.0148985
0.0148982
0.0148979
0.0148976
0.0148972
0.0148969
0.0148966
0.0148963
0.014896
0.0148957
0.0148954
0.0148951
0.0148948
0.0148945
0.0148942
0.0148938
0.0148935
0.0148932
0.0148929
0.0148926
0.0148923
0.014892
0.0148917
0.0148914
0.0148911
0.0148908
0.0148905
0.0148901
0.0148898
0.0148895
0.0148892
0.0148889
0.0148886
0.0148883
0.014888
0.0148877
0.0148874
0.0148871
0.0148867
0.0148864
0.0148861
0.0148858
0.0148855
0.0148852
0.0148849
0.0148846
0.0148843
0.014884
0.0148837
0.0148833
0.014883
0.0148827
0.0148824
0.0148821
0.0148818
0.0148815
0.0148812
0.0148809
0.0148806
0.0148803
0.01488
0.0148796
0.0148793
0.014879
0.0148787
0.0148784
0.0148781
0.0148778
0.0148775
0.0148772
0.0148769
0.0148766
0.0148762
0.0148759
0.0148756
0.0148753
0.014875
0.0148747
0.0148744
0.0148741
0.0148738
0.0148735
0.0148732
0.0148728
0.0148725
0.0148722
0.0148719
0.0148716
0.0148713
0.014871
0.0148707
0.0148703
0.01487
0.0148697
0.0148694
0.0148691
0.0148687
0.0148684
0.014868
0.0148677
0.0148673
0.0148669
0.0148665
0.014866
0.0148655
0.014865
0.0148643
0.0148637
0.0148627
0.0148623
0.0148623
0.0148623
1
0.969192
0.495616
0.314223
0.237897
0.197396
0.172133
0.154696
0.141842
0.131928
0.124028
0.117574
0.112197
0.107646
0.103742
0.100355
0.0973867
0.0947623
0.0924235
0.0903242
0.0884274
0.0867035
0.0851281
0.0836812
0.0823461
0.081109
0.0799583
0.0788841
0.0778782
0.0769332
0.0760432
0.0752027
0.0744073
0.0736528
0.0729358
0.0722532
0.0716023
0.0709806
0.0703859
0.0698164
0.0692703
0.068746
0.0682421
0.0677573
0.0672905
0.0668406
0.0664066
0.0659875
0.0655827
0.0651913
0.0648126
0.0644459
0.0640907
0.0637464
0.0634124
0.0630883
0.0627736
0.0624679
0.0621708
0.0618819
0.0616008
0.0613272
0.0610608
0.0608013
0.0605484
0.0603019
0.0600615
0.059827
0.0595981
0.0593746
0.0591564
0.0589432
0.0587349
0.0585313
0.0583322
0.0581374
0.0579469
0.0577604
0.0575779
0.0573992
0.0572242
0.0570528
0.0568848
0.0567201
0.0565587
0.0564005
0.0562453
0.0560931
0.0559437
0.0557971
0.0556533
0.055512
0.0553734
0.0552372
0.0551034
0.054972
0.0548429
0.054716
0.0545913
0.0544687
0.0543481
0.0542296
0.054113
0.0539983
0.0538855
0.0537745
0.0536653
0.0535578
0.0534519
0.0533478
0.0532452
0.0531442
0.0530447
0.0529468
0.0528503
0.0527552
0.0526615
0.0525692
0.0524783
0.0523886
0.0523003
0.0522132
0.0521273
0.0520427
0.0519592
0.0518768
0.0517957
0.0517156
0.0516366
0.0515587
0.0514818
0.0514059
0.0513311
0.0512572
0.0511843
0.0511124
0.0510414
0.0509713
0.0509021
0.0508338
0.0507664
0.0506998
0.050634
0.0505691
0.050505
0.0504416
0.0503791
0.0503173
0.0502563
0.050196
0.0501364
0.0500776
0.0500195
0.049962
0.0499053
0.0498492
0.0497938
0.049739
0.0496849
0.0496314
0.0495785
0.0495262
0.0494746
0.0494235
0.049373
0.0493231
0.0492738
0.049225
0.0491767
0.0491291
0.0490819
0.0490353
0.0489892
0.0489436
0.0488985
0.0488539
0.0488098
0.0487662
0.048723
0.0486803
0.0486381
0.0485964
0.0485551
0.0485143
0.0484739
0.0484339
0.0483943
0.0483552
0.0483165
0.0482782
0.0482403
0.0482029
0.0481658
0.0481291
0.0480928
0.0480568
0.0480213
0.0479861
0.0479513
0.0479169
0.0478828
0.0478491
0.0478157
0.0477826
0.0477499
0.0477176
0.0476856
0.0476539
0.0476225
0.0475915
0.0475607
0.0475303
0.0475002
0.0474704
0.0474409
0.0474117
0.0473828
0.0473542
0.0473259
0.0472979
0.0472701
0.0472427
0.0472155
0.0471886
0.0471619
0.0471355
0.0471094
0.0470836
0.047058
0.0470326
0.0470076
0.0469827
0.0469581
0.0469338
0.0469097
0.0468858
0.0468622
0.0468388
0.0468156
0.0467927
0.04677
0.0467475
0.0467253
0.0467032
0.0466814
0.0466598
0.0466384
0.0466172
0.0465962
0.0465754
0.0465548
0.0465345
0.0465143
0.0464943
0.0464745
0.0464549
0.0464355
0.0464163
0.0463973
0.0463785
0.0463598
0.0463413
0.046323
0.0463049
0.046287
0.0462692
0.0462516
0.0462342
0.0462169
0.0461998
0.0461829
0.0461661
0.0461495
0.046133
0.0461167
0.0461006
0.0460846
0.0460688
0.0460531
0.0460376
0.0460222
0.046007
0.0459919
0.0459769
0.0459621
0.0459475
0.0459329
0.0459185
0.0459043
0.0458902
0.0458762
0.0458624
0.0458486
0.0458351
0.0458216
0.0458083
0.0457951
0.045782
0.045769
0.0457562
0.0457435
0.0457309
0.0457184
0.045706
0.0456938
0.0456816
0.0456696
0.0456577
0.0456459
0.0456342
0.0456227
0.0456112
0.0455998
0.0455886
0.0455774
0.0455664
0.0455554
0.0455446
0.0455338
0.0455232
0.0455126
0.0455022
0.0454918
0.0454816
0.0454714
0.0454613
0.0454514
0.0454415
0.0454317
0.045422
0.0454124
0.0454028
0.0453934
0.045384
0.0453748
0.0453656
0.0453565
0.0453475