# vtk DataFile Version 2.0
FlowField
ASCII
DATASET STRUCTURED_GRID
DIMENSIONS 800 1 200
POINTS 160000 float
0 0 0
0.04 0 0
0.08 0 0
0.12 0 0
0.16 0 0
0.2 0 0
0.24 0 0
0.28 0 0
0.32 0 0
0.36 0 0
0.4 0 0
0.44 0 0
0.48 0 0
0.52 0 0
0.56 0 0
0.6 0 0
0.64 0 0
0.68 0 0
0.72 0 0
0.76 0 0
0.8 0 0
0.84 0 0
0.88 0 0
0.92 0 0
0.96 0 0
1 0 0
1.04 0 0
1.08 0 0
1.12 0 0
1.16 0 0
1.2 0 0
1.24 0 0
1.28 0 0
1.32 0 0
1.36 0 0
1.4 0 0
1.44 0 0
1.48 0 0
1.52 0 0
1.56 0 0
1.6 0 0
1.64 0 0
1.68 0 0
1.72 0 0
1.76 0 0
1.8 0 0
1.84 0 0
1.88 0 0
1.92 0 0
1.96 0 0
2 0 0
2.04 0 0
2.08 0 0
2.12 0 0
2.16 0 0
2.2 0 0
2.24 0 0
2.28 0 0
2.32 0 0
2.36 0 0
2.4 0 0
2.44 0 0
2.48 0 0
2.52 0 0
2.56 0 0
2.6 0 0
2.64 0 0
2.68 0 0
2.72 0 0
2.76 0 0
2.8 0 0
2.84 0 0
2.88 0 0
2.92 0 0
2.96 0 0
3 0 0
3.04 0 0
3.08 0 0
3.12 0 0
3.16 0 0
3.2 0 0
3.24 0 0
3.28 0 0
3.32 0 0
3.36 0 0
3.4 0 0
3.44 0 0
3.48 0 0
3.52 0 0
3.56 0 0
3.6 0 0
3.64 0 0
3.68 0 0
3.72 0 0
3.76 0 0
3.8 0 0
3.84 0 0
3.88 0 0
3.92 0 0
3.96 0 0
4 0 0
4.04 0 0
4.08 0 0
4.12 0 0
4.16 0 0
4.2 0 0
4.24 0 0
4.28 0 0
4.32 0 0
4.36 0 0
4.4 0 0
4.44 0 0
4.48 0 0
4.52 0 0
4.56 0 0
4.6 0 0
4.64 0 0
4.68 0 0
4.72 0 0
4.76 0 0
4.8 0 0
4.84 0 0
4.88 0 0
4.92 0 0
4.96 0 0
5 0 0
5.04 0 0
5.08 0 0
5.12 0 0
5.16 0 0
5.2 0 0
5.24 0 0
5.28 0 0
5.32 0 0
5.36 0 0
5.4 0 0
5.44 0 0
5.48 0 0
5.52 0 0
5.56 0 0
5.6 0 0
5.64 0 0
5.68 0 0
5.72 0 0
5.76 0 0
5.8 0 0
5.84 0 0
5.88 0 0
5.92 0 0
5.96 0 0
6 0 0
6.04 0 0
6.08 0 0
6.12 0 0
6.16 0 0
6.2 0 0
6.24 0 0
6.28 0 0
6.32 0 0
6.36 0 0
6.4 0 0
6.44 0 0
6.48 0 0
6.52 0 0
6.56 0 0
6.6 0 0
6.64 0 0
6.68 0 0
6.72 0 0
6.76 0 0
6.8 0 0
6.84 0 0
6.88 0 0
6.92 0 0
6.96 0 0
7 0 0
7.04 0 0
7.08 0 0
7.12 0 0
7.16 0 0
7.2 0 0
7.24 0 0
7.28 0 0
7.32 0 0
7.36 0 0
7.4 0 0
7.44 0 0
7.48 0 0
7.52 0 0
7.56 0 0
7.6 0 0
7.64 0 0
7.68 0 0
7.72 0 0
7.76 0 0
7.8 0 0
7.84 0 0
7.88 0 0
7.92 0 0
7.96 0 0
8 0 0
8.04 0 0
8.08 0 0
8.12 0 0
8.16 0 0
8.2 0 0
8.24 0 0
8.28 0 0
8.32 0 0
8.36 0 0
8.4 0 0
8.44 0 0
8.48 0 0
8.52 0 0
8.56 0 0
8.6 0 0
8.64 0 0
8.68 0 0
8.72 0 0
8.76 0 0
8.8 0 0
8.84 0 0
8.88 0 0
8.92 0 0
8.96 0 0
9 0 0
9.04 0 0
9.08 0 0
9.12 0 0
9.16 0 0
9.2 0 0
9.24 0 0
9.28 0 0
9.32 0 0
9.36 0 0
9.4 0 0
9.44 0 0
9.48 0 0
9.52 0 0
9.56 0 0
9.6 0 0
9.64 0 0
9.68 0 0
9.72 0 0
9.76 0 0
9.8 0 0
9.84 0 0
9.88 0 0
9.92 0 0
9.96 0 0
10 0 0
10.04 0 0
10.08 0 0
10.12 0 0
10.16 0 0
10.2 0 0
10.24 0 0
10.28 0 0
10.32 0 0
10.36 0 0
10.4 0 0
10.44 0 0
10.48 0 0
10.52 0 0
10.56 0 0
10.6 0 0
10.64 0 0
10.68 0 0
10.72 0 0
10.76 0 0
10.8 0 0
10.84 0 0
10.88 0 0
10.92 0 0
10.96 0 0
11 0 0
11.04 0 0
11.08 0 0
11.12 0 0
11.16 0 0
11.2 0 0
11.24 0 0
11.28 0 0
11.32 0 0
11.36 0 0
11.4 0 0
11.44 0 0
11.48 0 0
11.52 0 0
11.56 0 0
11.6 0 0
11.64 0 0
11.68 0 0
11.72 0 0
11.76 0 0
11.8 0 0
11.84 0 0
11.88 0 0
11.92 0 0
11.96 0 0
12 0 0
12.04 0 0
12.08 0 0
12.12 0 0
12.16 0 0
12.2 0 0
12.24 0 0
12.28 0 0
12.32 0 0
12.36 0 0
12.4 0 0
12.44 0 0
12.48 0 0
12.52 0 0
12.56 0 0
12.6 0 0
12.64 0 0
12.68 0 0
12.72 0 0
12.76 0 0
12.8 0 0
12.84 0 0
12.88 0 0
12.92 0 0
12.96 0 0
13 0 0
13.04 0 0
13.08 0 0
13.12 0 0
13.16 0 0
13.2 0 0
13.24 0 0
13.28 0 0
13.32 0 0
13.36 0 0
13.4 0 0
13.44 0 0
13.48 0 0
13.52 0 0
13.56 0 0
13.6 0 0
13.64 0 0
13.68 0 0
13.72 0 0
13.76 0 0
13.8 0 0
13.84 0 0
13.88 0 0
13.92 0 0
13.96 0 0
14 0 0
14.04 0 0
14.08 0 0
14.12 0 0
14.16 0 0
14.2 0 0
14.24 0 0
14.28 0 0
14.32 0 0
14.36 0 0
14.4 0 0
14.44 0 0
14.48 0 0
14.52 0 0
14.56 0 0
14.6 0 0
14.64 0 0
14.68 0 0
14.72 0 0
14.76 0 0
14.8 0 0
14.84 0 0
14.88 0 0
14.92 0 0
14.96 0 0
15 0 0
15.04 0 0
15.08 0 0
15.12 0 0
15.16 0 0
15.2 0 0
15.24 0 0
15.28 0 0
15.32 0 0
15.36 0 0
15.4 0 0
15.44 0 0
15.48 0 0
15.52 0 0
15.56 0 0
15.6 0 0
15.64 0 0
15.68 0 0
15.72 0 0
15.76 0 0
15.8 0 0
15.84 0 0
15.88 0 0
15.92 0 0
15.96 0 0
16 0 0
16.04 0 0
16.08 0 0
16.12 0 0
16.16 0 0
16.2 0 0
16.24 0 0
16.28 0 0
16.32 0 0
16.36 0 0
16.4 0 0
16.44 0 0
16.48 0 0
16.52 0 0
16.56 0 0
16.6 0 0
16.64 0 0
16.68 0 0
16.72 0 0
16.76 0 0
16.8 0 0
16.84 0 0
16.88 0 0
16.92 0 0
16.96 0 0
17 0 0
17.04 0 0
17.08 0 0
17.12 0 0
17.16 0 0
17.2 0 0
17.24 0 0
17.28 0 0
17.32 0 0
17.36 0 0
17.4 0 0
17.44 0 0
17.48 0 0
17.52 0 0
17.56 0 0
17.6 0 0
17.64 0 0
17.68 0 0
17.72 0 0
17.76 0 0
17.8 0 0
17.84 0 0
17.88 0 0
17.92 0 0
17.96 0 0
18 0 0
18.04 0 0
18.08 0 0
18.12 0 0
18.16 0 0
18.2 0 0
18.24 0 0
18.28 0 0
18.32 0 0
18.36 0 0
18.4 0 0
18.44 0 0
18.48 0 0
18.52 0 0
18.56 0 0
18.6 0 0
18.64 0 0
18.68 0 0
18.72 0 0
18.76 0 0
18.8 0 0
18.84 0 0
18.88 0 0
18.92 0 0
18.96 0 0
19 0 0
19.04 0 0
19.08 0 0
19.12 0 0
19.16 0 0
19.2 0 0
19.24 0 0
19.28 0 0
19.32 0 0
19.36 0 0
19.4 0 0
19.44 0 0
19.48 0 0
19.52 0 0
19.56 0 0
19.6 0 0
19.64 0 0
19.68 0 0
19.72 0 0
19.76 0 0
19.8 0 0
19.84 0 0
19.88 0 0
19.92 0 0
19.96 0 0
20 0 0
20.04 0 0
20.08 0 0
20.12 0 0
20.16 0 0
20.2 0 0
20.24 0 0
20.28 0 0
20.32 0 0
20.36 0 0
20.4 0 0
20.44 0 0
20.48 0 0
20.52 0 0
20.56 0 0
20.6 0 0
20.64 0 0
20.68 0 0
20.72 0 0
20.76 0 0
20.8 0 0
20.84 0 0
20.88 0 0
20.92 0 0
20.96 0 0
21 0 0
21.04 0 0
21.08 0 0
21.12 0 0
21.16 0 0
21.2 0 0
21.24 0 0
21.28 0 0
21.32 0 0
21.36 0 0
21.4 0 0
21.44 0 0
21.48 0 0
21.52 0 0
21.56 0 0
21.6 0 0
21.64 0 0
21.68 0 0
21.72 0 0
21.76 0 0
21.8 0 0
21.84 0 0
21.88 0 0
21.92 0 0
21.96 0 0
22 0 0
22.04 0 0
22.08 0 0
22.12 0 0
22.16 0 0
22.2 0 0
22.24 0 0
22.28 0 0
22.32 0 0
22.36 0 0
22.4 0 0
22.44 0 0
22.48 0 0
22.52 0 0
22.56 0 0
22.6 0 0
22.64 0 0
22.68 0 0
22.72 0 0
22.76 0 0
22.8 0 0
22.84 0 0
22.88 0 0
22.92 0 0
22.96 0 0
23 0 0
23.04 0 0
23.08 0 0
23.12 0 0
23.16 0 0
23.2 0 0
23.24 0 0
23.28 0 0
23.32 0 0
23.36 0 0
23.4 0 0
23.44 0 0
23.48 0 0
23.52 0 0
23.56 0 0
23.6 0 0
23.64 0 0
23.68 0 0
23.72 0 0
23.76 0 0
23.8 0 0
23.84 0 0
23.88 0 0
23.92 0 0
23.96 0 0
24 0 0
24.04 0 0
24.08 0 0
24.12 0 0
24.16 0 0
24.2 0 0
24.24 0 0
24.28 0 0
24.32 0 0
24.36 0 0
24.4 0 0
24.44 0 0
24.48 0 0
24.52 0 0
24.56 0 0
24.6 0 0
24.64 0 0
24.68 0 0
24.72 0 0
24.76 0 0
24.8 0 0
24.84 0 0
24.88 0 0
24.92 0 0
24.96 0 0
25 0 0
25.04 0 0
25.08 0 0
25.12 0 0
25.16 0 0
25.2 0 0
25.24 0 0
25.28 0 0
25.32 0 0
25.36 0 0
25.4 0 0
25.44 0 0
25.48 0 0
25.52 0 0
25.56 0 0
25.6 0 0
25.64 0 0
25.68 0 0
25.72 0 0
25.76 0 0
25.8 0 0
25.84 0 0
25.88 0 0
25.92 0 0
25.96 0 0
26 0 0
26.04 0 0
26.08 0 0
26.12 0 0
26.16 0 0
26.2 0 0
26.24 0 0
26.28 0 0
26.32 0 0
26.36 0 0
26.4 0 0
26.44 0 0
26.48 0 0
26.52 0 0
26.56 0 0
26.6 0 0
26.64 0 0
26.68 0 0
26.72 0 0
26.76 0 0
26.8 0 0
26.84 0 0
26.88 0 0
26.92 0 0
26.96 0 0
27 0 0
27.04 0 0
27.08 0 0
27.12 0 0
27.16 0 0
27.2 0 0
27.24 0 0
27.28 0 0
27.32 0 0
27.36 0 0
27.4 0 0
27.44 0 0
27.48 0 0
27.52 0 0
27.56 0 0
27.6 0 0
27.64 0 0
27.68 0 0
27.72 0 0
27.76 0 0
27.8 0 0
27.84 0 0
27.88 0 0
27.92 0 0
27.96 0 0
28 0 0
28.04 0 0
28.08 0 0
28.12 0 0
28.16 0 0
28.2 0 0
28.24 0 0
28.28 0 0
28.32 0 0
28.36 0 0
28.4 0 0
28.44 0 0
28.48 0 0
28.52 0 0
28.56 0 0
28.6 0 0
28.64 0 0
28.68 0 0
28.72 0 0
28.76 0 0
28.8 0 0
28.84 0 0
28.88 0 0
28.92 0 0
28.96 0 0
29 0 0
29.04 0 0
29.08 0 0
29.12 0 0
29.16 0 0
29.2 0 0
29.24 0 0
29.28 0 0
29.32 0 0
29.36 0 0
29.4 0 0
29.44 0 0
29.48 0 0
29.52 0 0
29.56 0 0
29.6 0 0
29.64 0 0
29.68 0 0
29.72 0 0
29.76 0 0
29.8 0 0
29.84 0 0
29.88 0 0
29.92 0 0
29.96 0 0
30 0 0
30.04 0 0
30.08 0 0
30.12 0 0
30.16 0 0
30.2 0 0
30.24 0 0
30.28 0 0
30.32 0 0
30.36 0 0
30.4 0 0
30.44 0 0
30.48 0 0
30.52 0 0
30.56 0 0
30.6 0 0
30.64 0 0
30.68 0 0
30.72 0 0
30.76 0 0
30.8 0 0
30.84 0 0
30.88 0 0
30.92 0 0
30.96 0 0
31 0 0
31.04 0 0
31.08 0 0
31.12 0 0
31.16 0 0
31.2 0 0
31.24 0 0
31.28 0 0
31.32 0 0
31.36 0 0
31.4 0 0
31.44 0 0
31.48 0 0
31.52 0 0
31.56 0 0
31.6 0 0
31.64 0 0
31.68 0 0
31.72 0 0
31.76 0 0
31.8 0 0
31.84 0 0
31.88 0 0
31.92 0 0
31.96 0 0
0 0.005 0
0.04 0.005 0
0.08 0.005 0
0.12 0.005 0
0.16 0.005 0
0.2 0.005 0
0.24 0.005 0
0.28 0.005 0
0.32 0.005 0
0.36 0.005 0
0.4 0.005 0
0.44 0.005 0
0.48 0.005 0
0.52 0.005 0
0.56 0.005 0
0.6 0.005 0
0.64 0.005 0
0.68 0.005 0
0.72 0.005 0
0.76 0.005 0
0.8 0.005 0
0.84 0.005 0
0.88 0.005 0
0.92 0.005 0
0.96 0.005 0
1 0.005 0
1.04 0.005 0
1.08 0.005 0
1.12 0.005 0
1.16 0.005 0
1.2 0.005 0
1.24 0.005 0
1.28 0.005 0
1.32 0.005 0
1.36 0.005 0
1.4 0.005 0
1.44 0.005 0
1.48 0.005 0
1.52 0.005 0
1.56 0.005 0
1.6 0.005 0
1.64 0.005 0
1.68 0.005 0
1.72 0.005 0
1.76 0.005 0
1.8 0.005 0
1.84 0.005 0
1.88 0.005 0
1.92 0.005 0
1.96 0.005 0
2 0.005 0
2.04 0.005 0
2.08 0.005 0
2.12 0.005 0
2.16 0.005 0
2.2 0.005 0
2.24 0.005 0
2.28 0.005 0
2.32 0.005 0
2.36 0.005 0
2.4 0.005 0
2.44 0.005 0
2.48 0.005 0
2.52 0.005 0
2.56 0.005 0
2.6 0.005 0
2.64 0.005 0
2.68 0.005 0
2.72 0.005 0
2.76 0.005 0
2.8 0.005 0
2.84 0.005 0
2.88 0.005 0
2.92 0.005 0
2.96 0.005 0
3 0.005 0
3.04 0.005 0
3.08 0.005 0
3.12 0.005 0
3.16 0.005 0
3.2 0.005 0
3.24 0.005 0
3.28 0.005 0
3.32 0.005 0
3.36 0.005 0
3.4 0.005 0
3.44 0.005 0
3.48 0.005 0
3.52 0.005 0
3.56 0.005 0
3.6 0.005 0
3.64 0.005 0
3.68 0.005 0
3.72 0.005 0
3.76 0.005 0
3.8 0.005 0
3.84 0.005 0
3.88 0.005 0
3.92 0.005 0
3.96 0.005 0
4 0.005 0
4.04 0.005 0
4.08 0.005 0
4.12 0.005 0
4.16 0.005 0
4.2 0.005 0
4.24 0.005 0
4.28 0.005 0
4.32 0.005 0
4.36 0.005 0
4.4 0.005 0
4.44 0.005 0
4.48 0.005 0
4.52 0.005 0
4.56 0.005 0
4.6 0.005 0
4.64 0.005 0
4.68 0.005 0
4.72 0.005 0
4.76 0.005 0
4.8 0.005 0
4.84 0.005 0
4.88 0.005 0
4.92 0.005 0
4.96 0.005 0
5 0.005 0
5.04 0.005 0
5.08 0.005 0
5.12 0.005 0
5.16 0.005 0
5.2 0.005 0
5.24 0.005 0
5.28 0.005 0
5.32 0.005 0
5.36 0.005 0
5.4 0.005 0
5.44 0.005 0
5.48 0.005 0
5.52 0.005 0
5.56 0.005 0
5.6 0.005 0
5.64 0.005 0
5.68 0.005 0
5.72 0.005 0
5.76 0.005 0
5.8 0.005 0
5.84 0.005 0
5.88 0.005 0
5.92 0.005 0
5.96 0.005 0
6 0.005 0
6.04 0.005 0
6.08 0.005 0
6.12 0.005 0
6.16 0.005 0
6.2 0.005 0
6.24 0.005 0
6.28 0.005 0
6.32 0.005 0
6.36 0.005 0
6.4 0.005 0
6.44 0.005 0
6.48 0.005 0
6.52 0.005 0
6.56 0.005 0
6.6 0.005 0
6.64 0.005 0
6.68 0.005 0
6.72 0.005 0
6.76 0.005 0
6.8 0.005 0
6.84 0.005 0
6.88 0.005 0
6.92 0.005 0
6.96 0.005 0
7 0.005 0
7.04 0.005 0
7.08 0.005 0
7.12 0.005 0
7.16 0.005 0
7.2 0.005 0
7.24 0.005 0
7.28 0.005 0
7.32 0.005 0
7.36 0.005 0
7.4 0.005 0
[...]
POINT_DATA 160000

SCALARS p float 1
LOOKUP_TABLE default
1
32.5017
30.2863
30.0314
29.9712
29.9448
29.9288
29.9172
29.908
29.9001
29.8932
29.8868
29.8809
29.8754
29.8701
29.865
29.86
29.8552
29.8505
29.8458
29.8413
29.8368
29.8324
29.8281
29.8238
29.8196
29.8155
29.8114
29.8073
29.8033
29.7993
29.7954
29.7915
29.7877
29.7839
29.7802
29.7764
29.7728
29.7691
29.7655
29.762
29.7585
29.755
29.7515
29.7481
29.7447
29.7413
29.738
29.7347
29.7314
29.7281
29.7249
29.7217
29.7185
29.7154
29.7123
29.7092
29.7061
29.703
29.7
29.697
29.694
29.691
29.6881
29.6852
29.6822
29.6793
29.6765
29.6736
29.6708
29.668
29.6651
29.6624
29.6596
29.6568
29.6541
29.6514
29.6486
29.6459
29.6433
29.6406
29.6379
29.6353
29.6327
29.6301
29.6275
29.6249
29.6223
29.6197
29.6172
29.6146
29.6121
29.6096
29.6071
29.6046
29.6021
29.5996
29.5971
29.5947
29.5922
29.5898
29.5874
29.585
29.5826
29.5802
29.5778
29.5754
29.573
29.5707
29.5683
29.566
29.5636
29.5613
29.559
29.5567
29.5544
29.5521
29.5498
29.5475
29.5452
29.543
29.5407
29.5385
29.5362
29.534
29.5318
29.5296
29.5273
29.5251
29.5229
29.5207
29.5186
29.5164
29.5142
29.512
29.5099
29.5077
29.5056
29.5034
29.5013
29.4992
29.497
29.4949
29.4928
29.4907
29.4886
29.4865
29.4844
29.4823
29.4802
29.4781
29.4761
29.474
29.4719
29.4699
29.4678
29.4658
29.4637
29.4617
29.4597
29.4576
29.4556
29.4536
29.4516
29.4496
29.4476
29.4456
29.4436
29.4416
29.4396
29.4376
29.4356
29.4337
29.4317
29.4297
29.4278
29.4258
29.4238
29.4219
29.4199
29.418
29.4161
29.4141
29.4122
29.4103
29.4083
29.4064
29.4045
29.4026
29.4007
29.3988
29.3969
29.395
29.3931
29.3912
29.3893
29.3874
29.3855
29.3836
29.3817
29.3799
29.378
29.3761
29.3743
29.3724
29.3705
29.3687
29.3668
29.365
29.3631
29.3613
29.3594
29.3576
29.3558
29.3539
29.3521
29.3503
29.3484
29.3466
29.3448
29.343
29.3412
29.3393
29.3375
29.3357
29.3339
29.3321
29.3303
29.3285
29.3267
29.3249
29.3231
29.3213
29.3195
29.3178
29.316
29.3142
29.3124
29.3106
29.3089
29.3071
29.3053
29.3036
29.3018
29.3
29.2983
29.2965
29.2947
29.293
29.2912
29.2895
29.2877
29.286
29.2842
29.2825
29.2807
29.279
29.2773
29.2755
29.2738
29.2721
29.2703
29.2686
29.2669
29.2651
29.2634
29.2617
29.26
29.2582
29.2565
29.2548
29.2531
29.2514
29.2497
29.2479
29.2462
29.2445
29.2428
29.2411
29.2394
29.2377
29.236
29.2343
29.2326
29.2309
29.2292
29.2275
29.2258
29.2241
29.2224
29.2208
29.2191
29.2174
29.2157
29.214
29.2123
29.2107
29.209
29.2073
29.2056
29.2039
29.2023
29.2006
29.1989
29.1973
29.1956
29.1939
29.1923
29.1906
29.1889
29.1873
29.1856
29.1839
29.1823
29.1806
29.179
29.1773
29.1757
29.174
29.1724
29.1707
29.1691
29.1674
29.1658
29.1641
29.1625
29.1608
29.1592
29.1575
29.1559
29.1543
29.1526
29.151
29.1494
29.1477
29.1461
29.1445
29.1428
29.1412
29.1396
29.1379
29.1363
29.1347
29.1331
29.1314
29.1298
29.1282
29.1266
29.1249
29.1233
29.1217
29.1201
29.1185
29.1169
29.1152
29.1136
29.112
29.1104
29.1088
29.1072
29.1056
29.104
29.1024
29.1007
29.0991
29.0975
29.0959
29.0943
29.0927
29.0911
29.0895
29.0879
29.0863
29.0847
29.0831
29.0815
29.0799
29.0783
29.0767
29.0751
29.0735
29.0719
29.0703
29.0687
29.0671
29.0656
29.064
29.0624
29.0608
29.0592
29.0576
29.056
29.0544
29.0528
29.0512
29.0496
29.0481
29.0465
29.0449
29.0433
29.0417
29.0401
29.0385
29.037
29.0354
29.0338
29.0322
29.0306
29.029
29.0274
29.0259
29.0243
29.0227
29.0211
29.0195
29.0179
29.0164
29.0148
29.0132
29.0116
29.01
29.0085
29.0069
29.0053
29.0037
29.0021
29.0005
28.999
28.9974
28.9958
28.9942
28.9926
28.9911
28.9895
28.9879
28.9863
28.9847
28.9832
28.9816
28.98
28.9784
28.9768
28.9753
28.9737
28.9721
28.9705
28.969
28.9674
28.9658
28.9642
28.9626
28.9611
28.9595
28.9579
28.9563
28.9547
28.9532
28.9516
28.95
28.9484
28.9468
28.9453
28.9437
28.9421
28.9405
28.939
28.9374
28.9358
28.9342
28.9326
28.9311
28.9295
28.9279
28.9263
28.9248
28.9232
28.9216
28.92
28.9184
28.9169
28.9153
28.9137
28.9121
28.9106
28.909
28.9074
28.9058
28.9042
28.9027
28.9011
28.8995
28.8979
28.8964
28.8948
28.8932
28.8916
28.89
28.8885
28.8869
28.8853
28.8837
28.8822
28.8806
28.879
28.8774
28.8759
28.8743
28.8727
28.8711
28.8695
28.868
28.8664
28.8648
28.8632
28.8617
28.8601
28.8585
28.8569
28.8554
28.8538
28.8522
28.8506
28.849
28.8475
28.8459
28.8443
28.8427
28.8412
28.8396
28.838
28.8364
28.8349
28.8333
28.8317
28.8301
28.8286
28.827
28.8254
28.8238
28.8223
28.8207
28.8191
28.8175
28.8159
28.8144
28.8128
28.8112
28.8096
28.8081
28.8065
28.8049
28.8033
28.8018
28.8002
28.7986
28.797
28.7955
28.7939
28.7923
28.7907
28.7892
28.7876
28.786
28.7844
28.7829
28.7813
28.7797
28.7781
28.7766
28.775
28.7734
28.7718
28.7703
28.7687
28.7671
28.7655
28.764
28.7624
28.7608
28.7592
28.7577
28.7561
28.7545
28.7529
28.7514
28.7498
28.7482
28.7466
28.7451
28.7435
28.7419
28.7403
28.7388
28.7372
28.7356
28.734
28.7325
28.7309
28.7293
28.7277
28.7262
28.7246
28.723
28.7214
28.7199
28.7183
28.7167
28.7152
28.7136
28.712
28.7104
28.7089
28.7073
28.7057
28.7041
28.7026
28.701
28.6994
28.6978
28.6963
28.6947
28.6931
28.6915
28.69
28.6884
28.6868
28.6852
28.6837
28.6821
28.6805
28.679
28.6774
28.6758
28.6742
28.6727
28.6711
28.6695
28.6679
28.6664
28.6648
28.6632
28.6616
28.6601
28.6585
28.6569
28.6554
28.6538
28.6522
28.6506
28.6491
28.6475
28.6459
28.6443
28.6428
28.6412
28.6396
28.6381
28.6365
28.6349
28.6333
28.6318
28.6302
28.6286
28.627
28.6255
28.6239
28.6223
28.6208
28.6192
28.6176
28.616
28.6145
28.6129
28.6113
28.6098
28.6082
28.6066
28.605
28.6035
28.6019
28.6003
28.5987
28.5972
28.5956
28.594
28.5925
28.5909
28.5893
28.5877
28.5862
28.5846
28.583
28.5815
28.5799
28.5783
28.5767
28.5752
28.5736
28.572
28.5705
28.5689
28.5673
28.5657
28.5642
28.5626
28.561
28.5595
28.5579
28.5563
28.5547
28.5532
28.5516
28.55
28.5485
28.5469
28.5453
28.5438
28.5422
28.5406
28.539
28.5375
28.5359
28.5343
28.5328
28.5312
28.5296
28.528
28.5265
28.5249
28.5233
28.5218
28.5202
28.5186
28.517
28.5155
28.5139
28.5123
28.5108
28.5092
28.5076
28.5061
28.5045
28.5029
28.5013
28.4998
28.4982
28.4966
28.4951
28.4935
28.4919
28.4904
28.4888
28.4872
28.4856
28.4841
28.4825
28.4809
28.4794
28.4778
28.4762
28.4747
28.4731
28.4715
28.4699
28.4684
28.4668
28.4652
28.4637
28.4621
28.4605
28.459
28.4574
28.4558
28.4543
28.4527
28.4511
28.4495
28.448
28.4464
28.4448
28.4433
28.4417
28.4401
28.4386
28.437
28.4354
28.4339
28.4323
28.4307
28.4292
28.4276
28.426
28.4244
28.4229
28.4213
28.4197
28.4182
28.4166
28.415
1
32.5017
32.5017
30.2863
30.0314
29.9712
29.9448
29.9288
29.9172
29.908
29.9001
29.8932
29.8868
29.8809
29.8754
29.8701
29.865
29.86
29.8552
29.8505
29.8458
29.8413
29.8368
29.8324
29.8281
29.8238
29.8196
29.8155
29.8114
29.8073
29.8033
29.7993
29.7954
29.7915
29.7877
29.7839
29.7802
29.7764
29.7728
29.7691
29.7655
29.762
29.7585
29.755
29.7515
29.7481
29.7447
29.7413
29.738
29.7347
29.7314
29.7281
29.7249
29.7217
29.7185
29.7154
29.7123
29.7092
29.7061
29.703
29.7
29.697
29.694
29.691
29.6881
29.6852
29.6822
29.6793
29.6765
29.6736
29.6708
29.668
29.6651
29.6624
29.6596
29.6568
29.6541
29.6514
29.6486
29.6459
29.6433
29.6406
29.6379
29.6353
29.6327
29.6301
29.6275
29.6249
29.6223
29.6197
29.6172
29.6146
29.6121
29.6096
29.6071
29.6046
29.6021
29.5996
29.5971
29.5947
29.5922
29.5898
29.5874
29.585
29.5826
29.5802
29.5778
29.5754
29.573
29.5707
29.5683
29.566
29.5636
29.5613
29.559
29.5567
29.5544
29.5521
29.5498
29.5475
29.5452
29.543
29.5407
29.5385
29.5362
29.534
29.5318
29.5296
29.5273
29.5251
29.5229
29.5207
29.5186
29.5164
29.5142
29.512
29.5099
29.5077
29.5056
29.5034
29.5013
29.4992
29.497
29.4949
29.4928
29.4907
29.4886
29.4865
29.4844
29.4823
29.4802
29.4781
29.4761
29.474
29.4719
29.4699
29.4678
29.4658
29.4637
29.4617
29.4597
29.4576
29.4556
29.4536
29.4516
29.4496
29.4476
29.4456
29.4436
29.4416
29.4396
29.4376
29.4356
29.4337
29.4317
29.4297
29.4278
29.4258
29.4238
29.4219
29.4199
29.418
29.4161
29.4141
29.4122
29.4103
29.4083
29.4064
29.4045
29.4026
29.4007
29.3988
29.3969
29.395
29.3931
29.3912
29.3893
29.3874
29.3855
29.3836
29.3817
29.3799
29.378
29.3761
29.3743
29.3724
29.3705
29.3687
29.3668
29.365
29.3631
29.3613
29.3594
29.3576
29.3558
29.3539
29.3521
29.3503
29.3484
29.3466
29.3448
29.343
29.3412
29.3393
29.3375
29.3357
29.3339
29.3321
29.3303
29.3285
29.3267
29.3249
29.3231
29.3213
29.3195
29.3178
29.316
29.3142
29.3124
29.3106
29.3089
29.3071
29.3053
29.3036
29.3018
29.3
29.2983
29.2965
29.2947
29.293
29.2912
29.2895
29.2877
29.286
29.2842
29.2825
29.2807
29.279
29.2773
29.2755
29.2738
29.2721
29.2703
29.2686
29.2669
29.2651
29.2634
29.2617
29.26
29.2582
29.2565
29.2548
29.2531
29.2514
29.2497
29.2479
29.2462
29.2445
29.2428
29.2411
29.2394
29.2377
29.236
29.2343
29.2326
29.2309
29.2292
29.2275
29.2258
29.2241
29.2224
29.2208
29.2191
29.2174
29.2157
29.214
29.2123
29.2107
29.209
29.2073
29.2056
29.2039
29.2023
29.2006
29.1989
29.1973
29.1956
29.1939
29.1923
29.1906
29.1889
29.1873
29.1856
29.1839
29.1823
29.1806
29.179
29.1773
29.1757
29.174
29.1724
29.1707
29.1691
29.1674
29.1658
29.1641
29.1625
29.1608
29.1592
29.1575
29.1559
29.1543
29.1526
29.151
29.1494
29.1477
29.1461
29.1445
29.1428
29.1412
29.1396
29.1379
29.1363
29.1347
29.1331
29.1314
29.1298
29.1282
29.1266
29.1249
29.1233
29.1217
29.1201
29.1185
29.1169
29.1152
29.1136
29.112
29.1104
29.1088
29.1072
29.1056
29.104
29.1024
29.1007
29.0991
29.0975
29.0959
29.0943
29.0927
29.0911
29.0895
29.0879
29.0863
29.0847
29.0831
29.0815
29.0799
29.0783
29.0767
29.0751
29.0735
29.0719
29.0703
29.0687
29.0671
29.0656
29.064
29.0624
29.0608
29.0592
29.0576
29.056
29.0544
29.0528
29.0512
29.0496
29.0481
29.0465
29.0449
29.0433
29.0417
29.0401
29.0385
29.037
29.0354
29.0338
29.0322
29.0306
29.029
29.0274
29.0259
29.0243
29.0227
29.0211
29.0195
29.0179
29.0164
29.0148
29.0132
29.0116
29.01
29.0085
29.0069
29.0053
29.0037
29.0021
29.0005
28.999
28.9974
28.9958
28.9942
28.9926
28.9911
28.9895
28.9879
28.9863
28.9847
28.9832
28.9816
28.98
28.9784
28.9768
28.9753
28.9737
28.9721
28.9705
28.969
28.9674
28.9658
28.9642
28.9626
28.9611
28.9595
28.9579
28.9563
28.9547
28.9532
28.9516
28.95
28.9484
28.9468
28.9453
28.9437
28.9421
28.9405
28.939
28.9374
28.9358
28.9342
28.9326
28.9311
28.9295
28.9279
28.9263
28.9248
28.9232
28.9216
28.92
28.9184
28.9169
28.9153
28.9137
28.9121
28.9106
28.909
28.9074
28.9058
28.9042
28.9027
28.9011
28.8995
28.8979
28.8964
28.8948
28.8932
28.8916
28.89
28.8885
28.8869
28.8853
28.8837
28.8822
28.8806
28.879
28.8774
28.8759
28.8743
28.8727
28.8711
28.8695
28.868
28.8664
28.8648
28.8632
28.8617
28.8601
28.8585
28.8569
28.8554
28.8538
28.8522
28.8506
28.849
28.8475
28.8459
28.8443
28.8427
28.8412
28.8396
28.838
28.8364
28.8349
28.8333
28.8317
28.8301
28.8286
28.827
28.8254
28.8238
28.8223
28.8207
28.8191
28.8175
28.8159
28.8144
28.8128
28.8112
28.8096
28.8081
28.8065
28.8049
28.8033
28.8018
28.8002
28.7986
28.797
28.7955
28.7939
28.7923
28.7907
28.7892
28.7876
28.786
28.7844
28.7829
28.7813
28.7797
28.7781
28.7766
28.775
28.7734
28.7718
28.7703
28.7687
28.7671
28.7655
28.764
28.7624
28.7608
28.7592
28.7577
28.7561
28.7545
28.7529
28.7514
28.7498
28.7482
28.7466
28.7451
28.7435
28.7419
28.7403
28.7388
28.7372
28.7356
28.734
28.7325
28.7309
28.7293
28.7277
28.7262
28.7246
28.723
28.7214
28.7199
28.7183
28.7167
28.7152
28.7136
28.712
28.7104
28.7089
28.7073
28.7057
28.7041
28.7026
28.701
28.6994
28.6978
28.6963
28.6947
28.6931
28.6915
28.69
28.6884
28.6868
28.6852
28.6837
28.6821
28.6805
28.679
28.6774
28.6758
28.6742
28.6727
28.6711
28.6695
28.6679
28.6664
28.6648
28.6632
28.6616
28.6601
28.6585
28.6569
28.6554
28.6538
28.6522
28.6506
28.6491
28.6475
28.6459
28.6443
28.6428
28.6412
28.6396
28.6381
28.6365
28.6349
28.6333
28.6318
28.6302
28.6286
28.627
28.6255
28.6239
28.6223
28.6208
28.6192
28.6176
28.616
28.6145
28.6129
28.6113
28.6098
28.6082
28.6066
28.605
28.6035
28.6019
28.6003
28.5987
28.5972
28.5956
28.594
28.5925
28.5909
28.5893
28.5877
28.5862
28.5846
28.583
28.5815
28.5799
28.5783
28.5767
28.5752
28.5736
28.572
28.5705
28.5689
28.5673
28.5657
28.5642
28.5626
28.561
28.5595
28.5579
28.5563
28.5547
28.5532
28.5516
28.55
28.5485
28.5469
28.5453
28.5438
28.5422
28.5406
28.539
28.5375
28.5359
28.5343
28.5328
28.5312
28.5296
28.528
28.5265
28.5249
28.5233
28.5218
28.5202
28.5186
28.517
28.5155
28.5139
28.5123
28.5108
28.5092
28.5076
28.5061
28.5045
28.5029
28.5013
28.4998
28.4982
28.4966
28.4951
28.4935
28.4919
28.4904
28.4888
28.4872
28.4856
28.4841
28.4825
28.4809
28.4794
28.4778
28.4762
28.4747
28.4731
28.4715
28.4699
28.4684
28.4668
28.4652
28.4637
28.4621
28.4605
28.459
28.4574
28.4558
28.4543
28.4527
28.4511
28.4495
28.448
28.4464
28.4448
28.4433
28.4417
28.4401
28.4386
28.437
28.4354
28.4339
28.4323
28.4307
28.4292
28.4276
28.426
28.4244
28.4229
28.4213
28.4197
28.4182
28.4166
28.415
28.415
31.8547
31.8547
30.2967
30.0409
29.9754
29.9471
29.9302
29.9182
29.9087
29.9007
29.8936
29.8872
29.8812
29.8756
29.8703
29.8652
29.8602
29.8553
29.8506
29.846
29.8414
29.8369
29.8325
29.8282
29.8239
29.8197
29.8155
29.8114
29.8074
29.8033
29.7994
29.7955
29.7916
29.7877
29.7839
29.7802
29.7765
29.7728
29.7692
29.7656
29.762
29.7585
29.755
29.7515
29.7481
29.7447
29.7413
29.738
29.7347
29.7314
29.7282
29.7249
29.7217
29.7186
29.7154
29.7123
29.7092
29.7061
29.7031
29.7
29.697
29.694
29.6911
29.6881
29.6852
29.6823
29.6794
29.6765
29.6736
29.6708
29.668
29.6652
29.6624
29.6596
29.6568
29.6541
29.6514
29.6487
29.646
29.6433
29.6406
29.638
29.6353
29.6327
29.6301
29.6275
29.6249
29.6223
29.6197
29.6172
29.6146
29.6121
29.6096
29.6071
29.6046
29.6021
29.5996
29.5971
29.5947
29.5922
29.5898
29.5874
29.585
29.5826
29.5802
29.5778
29.5754
29.573
29.5707
29.5683
29.566
29.5636
29.5613
29.559
29.5567
29.5544
29.5521
29.5498
29.5475
29.5453
29.543
29.5407
29.5385
29.5362
29.534
29.5318
29.5296
29.5274
29.5251
29.5229
29.5207
29.5186
29.5164
29.5142
29.512
29.5099
29.5077
29.5056
29.5034
29.5013
29.4992
29.497
29.4949
29.4928
29.4907
29.4886
29.4865
29.4844
29.4823
29.4802
29.4781
29.4761
29.474
29.4719
29.4699
29.4678
29.4658
29.4638
29.4617
29.4597
29.4577
29.4556
29.4536
29.4516
29.4496
29.4476
29.4456
29.4436
29.4416
29.4396
29.4376
29.4356
29.4337
29.4317
29.4297
29.4278
29.4258
29.4239
29.4219
29.42
29.418
29.4161
29.4141
29.4122
29.4103
29.4083
29.4064
29.4045
29.4026
29.4007
29.3988
29.3969
29.395
29.3931
29.3912
29.3893
29.3874
29.3855
29.3836
29.3818
29.3799
29.378
29.3761
29.3743
29.3724
29.3705
29.3687
29.3668
29.365
29.3631
29.3613
29.3594
29.3576
29.3558
29.3539
29.3521
29.3503
29.3484
29.3466
29.3448
29.343
29.3412
29.3393
29.3375
29.3357
29.3339
29.3321
29.3303
29.3285
29.3267
29.3249
29.3231
29.3213
29.3196
29.3178
29.316
29.3142
29.3124
29.3106
29.3089
29.3071
29.3053
29.3036
29.3018
29.3
29.2983
29.2965
29.2947
29.293
29.2912
29.2895
29.2877
29.286
29.2842
29.2825
29.2807
29.279
29.2773
29.2755
29.2738
29.2721
29.2703
29.2686
29.2669
29.2651
29.2634
29.2617
29.26
29.2582
29.2565
29.2548
29.2531
29.2514
29.2497
29.2479
29.2462
29.2445
29.2428
29.2411
29.2394
29.2377
29.236
29.2343
29.2326
29.2309
29.2292
29.2275
29.2258
29.2241
29.2225
29.2208
29.2191
29.2174
29.2157
29.214
29.2123
29.2107
29.209
29.2073
29.2056
29.204
29.2023
29.2006
29.1989
29.1973
29.1956
29.1939
29.1923
29.1906
29.1889
29.1873
29.1856
29.1839
29.1823
29.1806
29.179
29.1773
29.1757
29.174
29.1724
29.1707
29.1691
29.1674
29.1658
29.1641
29.1625
29.1608
29.1592
29.1575
29.1559
29.1543
29.1526
29.151
29.1494
29.1477
29.1461
29.1445
29.1428
29.1412
29.1396
29.1379
29.1363
29.1347
29.1331
29.1314
29.1298
29.1282
29.1266
29.1249
29.1233
29.1217
29.1201
29.1185
29.1169
29.1152
29.1136
29.112
29.1104
29.1088
29.1072
29.1056
29.104
29.1024
29.1007
29.0991
29.0975
29.0959
29.0943
29.0927
29.0911
29.0895
29.0879
29.0863
29.0847
29.0831
29.0815
29.0799
29.0783
29.0767
29.0751
29.0735
29.0719
29.0703
29.0687
29.0672
29.0656
29.064
29.0624
29.0608
29.0592
29.0576
29.056
29.0544
29.0528
29.0512
29.0497
29.0481
29.0465
29.0449
29.0433
29.0417
29.0401
29.0385
29.037
29.0354
29.0338
29.0322
29.0306
29.029
29.0274
29.0259
29.0243
29.0227
29.0211
29.0195
29.0179
29.0164
29.0148
29.0132
29.0116
29.01
29.0085
29.0069
29.0053
29.0037
29.0021
29.0005
28.999
28.9974
28.9958
28.9942
28.9926
28.9911
28.9895
28.9879
28.9863
28.9847
28.9832
28.9816
28.98
28.9784
28.9769
28.9753
28.9737
28.9721
28.9705
28.969
28.9674
28.9658
28.9642
28.9626
28.9611
28.9595
28.9579
28.9563
28.9547
28.9532
28.9516
28.95
28.9484
28.9469
28.9453
28.9437
28.9421
28.9405
28.939
28.9374
28.9358
28.9342
28.9327
28.9311
28.9295
28.9279
28.9263
28.9248
28.9232
28.9216
28.92
28.9184
28.9169
28.9153
28.9137
28.9121
28.9106
28.909
28.9074
28.9058
28.9042
28.9027
28.9011
28.8995
28.8979
28.8964
28.8948
28.8932
28.8916
28.8901
28.8885
28.8869
28.8853
28.8837
28.8822
28.8806
28.879
28.8774
28.8759
28.8743
28.8727
28.8711
28.8696
28.868
28.8664
28.8648
28.8632
28.8617
28.8601
28.8585
28.8569
28.8554
28.8538
28.8522
28.8506
28.8491
28.8475
28.8459
28.8443
28.8427
28.8412
28.8396
28.838
28.8364
28.8349
28.8333
28.8317
28.8301
28.8286
28.827
28.8254
28.8238
28.8223
28.8207
28.8191
28.8175
28.816
28.8144
28.8128
28.8112
28.8096
28.8081
28.8065
28.8049
28.8033
28.8018
28.8002
28.7986
28.797
28.7955
28.7939
28.7923
28.7907
28.7892
28.7876
28.786
28.7844
28.7829
28.7813
28.7797
28.7781
28.7766
28.775
28.7734
28.7718
28.7703
28.7687
28.7671
28.7655
28.764
28.7624
28.7608
28.7592
28.7577
28.7561
28.7545
28.7529
28.7514
28.7498
28.7482
28.7466
28.7451
28.7435
28.7419
28.7403
28.7388
28.7372
28.7356
28.734
28.7325
28.7309
28.7293
28.7277
28.7262
28.7246
28.723
28.7215
28.7199
28.7183
28.7167
28.7152
28.7136
28.712
28.7104
28.7089
28.7073
28.7057
28.7041
28.7026
28.701
28.6994
28.6978
28.6963
28.6947
28.6931
28.6915
28.69
28.6884
28.6868
28.6853
28.6837
28.6821
28.6805
28.679
28.6774
28.6758
28.6742
28.6727
28.6711
28.6695
28.6679
28.6664
28.6648
28.6632
28.6617
28.6601
28.6585
28.6569
28.6554
28.6538
28.6522
28.6506
28.6491
28.6475
28.6459
28.6444
28.6428
28.6412
28.6396
28.6381
28.6365
28.6349
28.6333
28.6318
28.6302
28.6286
28.6271
28.6255
28.6239
28.6223
28.6208
28.6192
28.6176
28.616
28.6145
28.6129
28.6113
28.6098
28.6082
28.6066
28.605
28.6035
28.6019
28.6003
28.5988
28.5972
28.5956
28.594
28.5925
28.5909
28.5893
28.5878
28.5862
28.5846
28.583
28.5815
28.5799
28.5783
28.5767
28.5752
28.5736
28.572
28.5705
28.5689
28.5673
28.5657
28.5642
28.5626
28.561
28.5595
28.5579
28.5563
28.5548
28.5532
28.5516
28.55
28.5485
28.5469
28.5453
28.5438
28.5422
28.5406
28.539
28.5375
28.5359
28.5343
28.5328
28.5312
28.5296
28.528
28.5265
28.5249
28.5233
28.5218
28.5202
28.5186
28.5171
28.5155
28.5139
28.5123
28.5108
28.5092
28.5076
28.5061
28.5045
28.5029
28.5014
28.4998
28.4982
28.4966
28.4951
28.4935
28.4919
28.4904
28.4888
28.4872
28.4857
28.4841
28.4825
28.4809
28.4794
28.4778
28.4762
28.4747
28.4731
28.4715
28.47
28.4684
28.4668
28.4652
28.4637
28.4621
28.4605
28.459
28.4574
28.4558
28.4543
28.4527
28.4511
28.4496
28.448
28.4464
28.4448
28.4433
28.4417
28.4401
28.4386
28.437
28.4354
28.4339
28.4323
28.4307
28.4292
28.4276
28.426
28.4245
28.4229
28.4213
28.4197
28.4182
28.4166
28.415
28.415
31.1652
31.1652
30.2808
30.0476
29.979
29.9491
29.9315
29.9191
29.9094
29.9012
29.894
29.8875
29.8815
29.8759
29.8705
29.8653
29.8603
29.8555
29.8507
29.8461
29.8415
29.837
29.8326
29.8283
29.824
29.8198
29.8156
29.8115
29.8074
29.8034
29.7994
29.7955
29.7916
29.7878
29.784
29.7802
29.7765
29.7728
29.7692
29.7656
29.762
29.7585
29.755
29.7516
29.7481
29.7447
29.7414
29.738
29.7347
29.7314
29.7282
29.725
29.7218
29.7186
29.7154
29.7123
29.7092
29.7061
29.7031
29.7
29.697
29.694
29.6911
29.6881
29.6852
29.6823
29.6794
29.6765
29.6736
29.6708
29.668
29.6652
29.6624
29.6596
29.6569
29.6541
29.6514
29.6487
29.646
29.6433
29.6406
29.638
29.6353
29.6327
29.6301
29.6275
29.6249
29.6223
29.6197
29.6172
29.6146
29.6121
29.6096
29.6071
29.6046
29.6021
29.5996
29.5972
29.5947
29.5923
29.5898
29.5874
29.585
29.5826
29.5802
29.5778
29.5754
29.573
29.5707
29.5683
29.566
29.5636
29.5613
29.559
29.5567
29.5544
29.5521
29.5498
29.5475
29.5453
29.543
29.5407
29.5385
29.5363
29.534
29.5318
29.5296
29.5274
29.5251
29.5229
29.5208
29.5186
29.5164