# vtk DataFile Version 2.0
FlowField
ASCII
DATASET STRUCTURED_GRID
DIMENSIONS 800 1 200
POINTS 160000 float
0 0 0
0.04 0 0
0.08 0 0
0.12 0 0
0.16 0 0
0.2 0 0
0.24 0 0
0.28 0 0
0.32 0 0
0.36 0 0
0.4 0 0
0.44 0 0
0.48 0 0
0.52 0 0
0.56 0 0
0.6 0 0
0.64 0 0
0.68 0 0
0.72 0 0
0.76 0 0
0.8 0 0
0.84 0 0
0.88 0 0
0.92 0 0
0.96 0 0
1 0 0
1.04 0 0
1.08 0 0
1.12 0 0
1.16 0 0
1.2 0 0
1.24 0 0
1.28 0 0
1.32 0 0
1.36 0 0
1.4 0 0
1.44 0 0
1.48 0 0
1.52 0 0
1.56 0 0
1.6 0 0
1.64 0 0
1.68 0 0
1.72 0 0
1.76 0 0
1.8 0 0
1.84 0 0
1.88 0 0
1.92 0 0
1.96 0 0
2 0 0
2.04 0 0
2.08 0 0
2.12 0 0
2.16 0 0
2.2 0 0
2.24 0 0
2.28 0 0
2.32 0 0
2.36 0 0
2.4 0 0
2.44 0 0
2.48 0 0
2.52 0 0
2.56 0 0
2.6 0 0
2.64 0 0
2.68 0 0
2.72 0 0
2.76 0 0
2.8 0 0
2.84 0 0
2.88 0 0
2.92 0 0
2.96 0 0
3 0 0
3.04 0 0
3.08 0 0
3.12 0 0
3.16 0 0
3.2 0 0
3.24 0 0
3.28 0 0
3.32 0 0
3.36 0 0
3.4 0 0
3.44 0 0
3.48 0 0
3.52 0 0
3.56 0 0
3.6 0 0
3.64 0 0
3.68 0 0
3.72 0 0
3.76 0 0
3.8 0 0
3.84 0 0
3.88 0 0
3.92 0 0
3.96 0 0
4 0 0
4.04 0 0
4.08 0 0
4.12 0 0
4.16 0 0
4.2 0 0
4.24 0 0
4.28 0 0
4.32 0 0
4.36 0 0
4.4 0 0
4.44 0 0
4.48 0 0
4.52 0 0
4.56 0 0
4.6 0 0
4.64 0 0
4.68 0 0
4.72 0 0
4.76 0 0
4.8 0 0
4.84 0 0
4.88 0 0
4.92 0 0
4.96 0 0
5 0 0
5.04 0 0
5.08 0 0
5.12 0 0
5.16 0 0
5.2 0 0
5.24 0 0
5.28 0 0
5.32 0 0
5.36 0 0
5.4 0 0
5.44 0 0
5.48 0 0
5.52 0 0
5.56 0 0
5.6 0 0
5.64 0 0
5.68 0 0
5.72 0 0
5.76 0 0
5.8 0 0
5.84 0 0
5.88 0 0
5.92 0 0
5.96 0 0
6 0 0
6.04 0 0
6.08 0 0
6.12 0 0
6.16 0 0
6.2 0 0
6.24 0 0
6.28 0 0
6.32 0 0
6.36 0 0
6.4 0 0
6.44 0 0
6.48 0 0
6.52 0 0
6.56 0 0
6.6 0 0
6.64 0 0
6.68 0 0
6.72 0 0
6.76 0 0
6.8 0 0
6.84 0 0
6.88 0 0
6.92 0 0
6.96 0 0
7 0 0
7.04 0 0
7.08 0 0
7.12 0 0
7.16 0 0
7.2 0 0
7.24 0 0
7.28 0 0
7.32 0 0
7.36 0 0
7.4 0 0
7.44 0 0
7.48 0 0
7.52 0 0
7.56 0 0
7.6 0 0
7.64 0 0
7.68 0 0
7.72 0 0
7.76 0 0
7.8 0 0
7.84 0 0
7.88 0 0
7.92 0 0
7.96 0 0
8 0 0
8.04 0 0
8.08 0 0
8.12 0 0
8.16 0 0
8.2 0 0
8.24 0 0
8.28 0 0
8.32 0 0
8.36 0 0
8.4 0 0
8.44 0 0
8.48 0 0
8.52 0 0
8.56 0 0
8.6 0 0
8.64 0 0
8.68 0 0
8.72 0 0
8.76 0 0
8.8 0 0
8.84 0 0
8.88 0 0
8.92 0 0
8.96 0 0
9 0 0
9.04 0 0
9.08 0 0
9.12 0 0
9.16 0 0
9.2 0 0
9.24 0 0
9.28 0 0
9.32 0 0
9.36 0 0
9.4 0 0
9.44 0 0
9.48 0 0
9.52 0 0
9.56 0 0
9.6 0 0
9.64 0 0
9.68 0 0
9.72 0 0
9.76 0 0
9.8 0 0
9.84 0 0
9.88 0 0
9.92 0 0
9.96 0 0
10 0 0
10.04 0 0
10.08 0 0
10.12 0 0
10.16 0 0
10.2 0 0
10.24 0 0
10.28 0 0
10.32 0 0
10.36 0 0
10.4 0 0
10.44 0 0
10.48 0 0
10.52 0 0
10.56 0 0
10.6 0 0
10.64 0 0
10.68 0 0
10.72 0 0
10.76 0 0
10.8 0 0
10.84 0 0
10.88 0 0
10.92 0 0
10.96 0 0
11 0 0
11.04 0 0
11.08 0 0
11.12 0 0
11.16 0 0
11.2 0 0
11.24 0 0
11.28 0 0
11.32 0 0
11.36 0 0
11.4 0 0
11.44 0 0
11.48 0 0
11.52 0 0
11.56 0 0
11.6 0 0
11.64 0 0
11.68 0 0
11.72 0 0
11.76 0 0
11.8 0 0
11.84 0 0
11.88 0 0
11.92 0 0
11.96 0 0
12 0 0
12.04 0 0
12.08 0 0
12.12 0 0
12.16 0 0
12.2 0 0
12.24 0 0
12.28 0 0
12.32 0 0
12.36 0 0
12.4 0 0
12.44 0 0
12.48 0 0
12.52 0 0
12.56 0 0
12.6 0 0
12.64 0 0
12.68 0 0
12.72 0 0
12.76 0 0
12.8 0 0
12.84 0 0
12.88 0 0
12.92 0 0
12.96 0 0
13 0 0
13.04 0 0
13.08 0 0
13.12 0 0
13.16 0 0
13.2 0 0
13.24 0 0
13.28 0 0
13.32 0 0
13.36 0 0
13.4 0 0
13.44 0 0
13.48 0 0
13.52 0 0
13.56 0 0
13.6 0 0
13.64 0 0
13.68 0 0
13.72 0 0
13.76 0 0
13.8 0 0
13.84 0 0
13.88 0 0
13.92 0 0
13.96 0 0
14 0 0
14.04 0 0
14.08 0 0
14.12 0 0
14.16 0 0
14.2 0 0
14.24 0 0
14.28 0 0
14.32 0 0
14.36 0 0
14.4 0 0
14.44 0 0
14.48 0 0
14.52 0 0
14.56 0 0
14.6 0 0
14.64 0 0
14.68 0 0
14.72 0 0
14.76 0 0
14.8 0 0
14.84 0 0
14.88 0 0
14.92 0 0
14.96 0 0
15 0 0
15.04 0 0
15.08 0 0
15.12 0 0
15.16 0 0
15.2 0 0
15.24 0 0
15.28 0 0
15.32 0 0
15.36 0 0
15.4 0 0
15.44 0 0
15.48 0 0
15.52 0 0
15.56 0 0
15.6 0 0
15.64 0 0
15.68 0 0
15.72 0 0
15.76 0 0
15.8 0 0
15.84 0 0
15.88 0 0
15.92 0 0
15.96 0 0
16 0 0
16.04 0 0
16.08 0 0
16.12 0 0
16.16 0 0
16.2 0 0
16.24 0 0
16.28 0 0
16.32 0 0
16.36 0 0
16.4 0 0
16.44 0 0
16.48 0 0
16.52 0 0
16.56 0 0
16.6 0 0
16.64 0 0
16.68 0 0
16.72 0 0
16.76 0 0
16.8 0 0
16.84 0 0
16.88 0 0
16.92 0 0
16.96 0 0
17 0 0
17.04 0 0
17.08 0 0
17.12 0 0
17.16 0 0
17.2 0 0
17.24 0 0
17.28 0 0
17.32 0 0
17.36 0 0
17.4 0 0
17.44 0 0
17.48 0 0
17.52 0 0
17.56 0 0
17.6 0 0
17.64 0 0
17.68 0 0
17.72 0 0
17.76 0 0
17.8 0 0
17.84 0 0
17.88 0 0
17.92 0 0
17.96 0 0
18 0 0
18.04 0 0
18.08 0 0
18.12 0 0
18.16 0 0
18.2 0 0
18.24 0 0
18.28 0 0
18.32 0 0
18.36 0 0
18.4 0 0
18.44 0 0
18.48 0 0
18.52 0 0
18.56 0 0
18.6 0 0
18.64 0 0
18.68 0 0
18.72 0 0
18.76 0 0
18.8 0 0
18.84 0 0
18.88 0 0
18.92 0 0
18.96 0 0
19 0 0
19.04 0 0
19.08 0 0
19.12 0 0
19.16 0 0
19.2 0 0
19.24 0 0
19.28 0 0
19.32 0 0
19.36 0 0
19.4 0 0
19.44 0 0
19.48 0 0
19.52 0 0
19.56 0 0
19.6 0 0
19.64 0 0
19.68 0 0
19.72 0 0
19.76 0 0
19.8 0 0
19.84 0 0
19.88 0 0
19.92 0 0
19.96 0 0
20 0 0
20.04 0 0
20.08 0 0
20.12 0 0
20.16 0 0
20.2 0 0
20.24 0 0
20.28 0 0
20.32 0 0
20.36 0 0
20.4 0 0
20.44 0 0
20.48 0 0
20.52 0 0
20.56 0 0
20.6 0 0
20.64 0 0
20.68 0 0
20.72 0 0
20.76 0 0
20.8 0 0
20.84 0 0
20.88 0 0
20.92 0 0
20.96 0 0
21 0 0
21.04 0 0
21.08 0 0
21.12 0 0
21.16 0 0
21.2 0 0
21.24 0 0
21.28 0 0
21.32 0 0
21.36 0 0
21.4 0 0
21.44 0 0
21.48 0 0
21.52 0 0
21.56 0 0
21.6 0 0
21.64 0 0
21.68 0 0
21.72 0 0
21.76 0 0
21.8 0 0
21.84 0 0
21.88 0 0
21.92 0 0
21.96 0 0
22 0 0
22.04 0 0
22.08 0 0
22.12 0 0
22.16 0 0
22.2 0 0
22.24 0 0
22.28 0 0
22.32 0 0
22.36 0 0
22.4 0 0
22.44 0 0
22.48 0 0
22.52 0 0
22.56 0 0
22.6 0 0
22.64 0 0
22.68 0 0
22.72 0 0
22.76 0 0
22.8 0 0
22.84 0 0
22.88 0 0
22.92 0 0
22.96 0 0
23 0 0
23.04 0 0
23.08 0 0
23.12 0 0
23.16 0 0
23.2 0 0
23.24 0 0
23.28 0 0
23.32 0 0
23.36 0 0
23.4 0 0
23.44 0 0
23.48 0 0
23.52 0 0
23.56 0 0
23.6 0 0
23.64 0 0
23.68 0 0
23.72 0 0
23.76 0 0
23.8 0 0
23.84 0 0
23.88 0 0
23.92 0 0
23.96 0 0
24 0 0
24.04 0 0
24.08 0 0
24.12 0 0
24.16 0 0
24.2 0 0
24.24 0 0
24.28 0 0
24.32 0 0
24.36 0 0
24.4 0 0
24.44 0 0
24.48 0 0
24.52 0 0
24.56 0 0
24.6 0 0
24.64 0 0
24.68 0 0
24.72 0 0
24.76 0 0
24.8 0 0
24.84 0 0
24.88 0 0
24.92 0 0
24.96 0 0
25 0 0
25.04 0 0
25.08 0 0
25.12 0 0
25.16 0 0
25.2 0 0
25.24 0 0
25.28 0 0
25.32 0 0
25.36 0 0
25.4 0 0
25.44 0 0
25.48 0 0
25.52 0 0
25.56 0 0
25.6 0 0
25.64 0 0
25.68 0 0
25.72 0 0
25.76 0 0
25.8 0 0
25.84 0 0
25.88 0 0
25.92 0 0
25.96 0 0
26 0 0
26.04 0 0
26.08 0 0
26.12 0 0
26.16 0 0
26.2 0 0
26.24 0 0
26.28 0 0
26.32 0 0
26.36 0 0
26.4 0 0
26.44 0 0
26.48 0 0
26.52 0 0
26.56 0 0
26.6 0 0
26.64 0 0
26.68 0 0
26.72 0 0
26.76 0 0
26.8 0 0
26.84 0 0
26.88 0 0
26.92 0 0
26.96 0 0
27 0 0
27.04 0 0
27.08 0 0
27.12 0 0
27.16 0 0
27.2 0 0
27.24 0 0
27.28 0 0
27.32 0 0
27.36 0 0
27.4 0 0
27.44 0 0
27.48 0 0
27.52 0 0
27.56 0 0
27.6 0 0
27.64 0 0
27.68 0 0
27.72 0 0
27.76 0 0
27.8 0 0
27.84 0 0
27.88 0 0
27.92 0 0
27.96 0 0
28 0 0
28.04 0 0
28.08 0 0
28.12 0 0
28.16 0 0
28.2 0 0
28.24 0 0
28.28 0 0
28.32 0 0
28.36 0 0
28.4 0 0
28.44 0 0
28.48 0 0
28.52 0 0
28.56 0 0
28.6 0 0
28.64 0 0
28.68 0 0
28.72 0 0
28.76 0 0
28.8 0 0
28.84 0 0
28.88 0 0
28.92 0 0
28.96 0 0
29 0 0
29.04 0 0
29.08 0 0
29.12 0 0
29.16 0 0
29.2 0 0
29.24 0 0
29.28 0 0
29.32 0 0
29.36 0 0
29.4 0 0
29.44 0 0
29.48 0 0
29.52 0 0
29.56 0 0
29.6 0 0
29.64 0 0
29.68 0 0
29.72 0 0
29.76 0 0
29.8 0 0
29.84 0 0
29.88 0 0
29.92 0 0
29.96 0 0
30 0 0
30.04 0 0
30.08 0 0
30.12 0 0
30.16 0 0
30.2 0 0
30.24 0 0
30.28 0 0
30.32 0 0
30.36 0 0
30.4 0 0
30.44 0 0
30.48 0 0
30.52 0 0
30.56 0 0
30.6 0 0
30.64 0 0
30.68 0 0
30.72 0 0
30.76 0 0
30.8 0 0
30.84 0 0
30.88 0 0
30.92 0 0
30.96 0 0
31 0 0
31.04 0 0
31.08 0 0
31.12 0 0
31.16 0 0
31.2 0 0
31.24 0 0
31.28 0 0
31.32 0 0
31.36 0 0
31.4 0 0
31.44 0 0
31.48 0 0
31.52 0 0
31.56 0 0
31.6 0 0
31.64 0 0
31.68 0 0
31.72 0 0
31.76 0 0
31.8 0 0
31.84 0 0
31.88 0 0
31.92 0 0
31.96 0 0
0 0.005 0
0.04 0.005 0
0.08 0.005 0
0.12 0.005 0
0.16 0.005 0
0.2 0.005 0
0.24 0.005 0
0.28 0.005 0
0.32 0.005 0
0.36 0.005 0
0.4 0.005 0
0.44 0.005 0
0.48 0.005 0
0.52 0.005 0
0.56 0.005 0
0.6 0.005 0
0.64 0.005 0
0.68 0.005 0
0.72 0.005 0
0.76 0.005 0
0.8 0.005 0
0.84 0.005 0
0.88 0.005 0
0.92 0.005 0
0.96 0.005 0
1 0.005 0
1.04 0.005 0
1.08 0.005 0
1.12 0.005 0
1.16 0.005 0
1.2 0.005 0
1.24 0.005 0
1.28 0.005 0
1.32 0.005 0
1.36 0.005 0
1.4 0.005 0
1.44 0.005 0
1.48 0.005 0
1.52 0.005 0
1.56 0.005 0
1.6 0.005 0
1.64 0.005 0
1.68 0.005 0
1.72 0.005 0
1.76 0.005 0
1.8 0.005 0
1.84 0.005 0
1.88 0.005 0
1.92 0.005 0
1.96 0.005 0
2 0.005 0
2.04 0.005 0
2.08 0.005 0
2.12 0.005 0
2.16 0.005 0
2.2 0.005 0
2.24 0.005 0
2.28 0.005 0
2.32 0.005 0
2.36 0.005 0
2.4 0.005 0
2.44 0.005 0
2.48 0.005 0
2.52 0.005 0
2.56 0.005 0
2.6 0.005 0
2.64 0.005 0
2.68 0.005 0
2.72 0.005 0
2.76 0.005 0
2.8 0.005 0
2.84 0.005 0
2.88 0.005 0
2.92 0.005 0
2.96 0.005 0
3 0.005 0
3.04 0.005 0
3.08 0.005 0
3.12 0.005 0
3.16 0.005 0
3.2 0.005 0
3.24 0.005 0
3.28 0.005 0
3.32 0.005 0
3.36 0.005 0
3.4 0.005 0
3.44 0.005 0
3.48 0.005 0
3.52 0.005 0
3.56 0.005 0
3.6 0.005 0
3.64 0.005 0
3.68 0.005 0
3.72 0.005 0
3.76 0.005 0
3.8 0.005 0
3.84 0.005 0
3.88 0.005 0
3.92 0.005 0
3.96 0.005 0
4 0.005 0
4.04 0.005 0
4.08 0.005 0
4.12 0.005 0
4.16 0.005 0
4.2 0.005 0
4.24 0.005 0
4.28 0.005 0
4.32 0.005 0
4.36 0.005 0
4.4 0.005 0
4.44 0.005 0
4.48 0.005 0
4.52 0.005 0
4.56 0.005 0
4.6 0.005 0
4.64 0.005 0
4.68 0.005 0
4.72 0.005 0
4.76 0.005 0
4.8 0.005 0
4.84 0.005 0
4.88 0.005 0
4.92 0.005 0
4.96 0.005 0
5 0.005 0
5.04 0.005 0
5.08 0.005 0
5.12 0.005 0
5.16 0.005 0
5.2 0.005 0
5.24 0.005 0
5.28 0.005 0
5.32 0.005 0
5.36 0.005 0
5.4 0.005 0
5.44 0.005 0
5.48 0.005 0
5.52 0.005 0
5.56 0.005 0
5.6 0.005 0
5.64 0.005 0
5.68 0.005 0
5.72 0.005 0
5.76 0.005 0
5.8 0.005 0
5.84 0.005 0
5.88 0.005 0
5.92 0.005 0
5.96 0.005 0
6 0.005 0
6.04 0.005 0
6.08 0.005 0
6.12 0.005 0
6.16 0.005 0
6.2 0.005 0
6.24 0.005 0
6.28 0.005 0
6.32 0.005 0
6.36 0.005 0
6.4 0.005 0
6.44 0.005 0
6.48 0.005 0
6.52 0.005 0
6.56 0.005 0
6.6 0.005 0
6.64 0.005 0
6.68 0.005 0
6.72 0.005 0
6.76 0.005 0
6.8 0.005 0
6.84 0.005 0
6.88 0.005 0
6.92 0.005 0
6.96 0.005 0
7 0.005 0
7.04 0.005 0
7.08 0.005 0
7.12 0.005 0
7.16 0.005 0
7.2 0.005 0
7.24 0.005 0
7.28 0.005 0
7.32 0.005 0
7.36 0.005 0
7.4 0.005 0
[...]
POINT_DATA 160000

SCALARS v float 1
LOOKUP_TABLE default
0
0
0
0
0
0
0
0
0
0
0
0
0
0
0
0
0
0
0
0
0
0
0
0
0
0
0
0
0
0
0
0
0
0
0
0
0
0
0
0
0
0
0
0
0
0
0
0
0
0
0
0
0
0
0
0
0
0
0
0
0
0
0
0
0
0
0
0
0
0
0
0
0
0
0
0
0
0
0
0
0
0
0
0
0
0
0
0
0
0
0
0
0
0
0
0
0
0
0
0
0
0
0
0
0
0
0
0
0
0
0
0
0
0
0
0
0
0
0
0
0
0
0
0
0
0
0
0
0
0
0
0
0
0
0
0
0
0
0
0
0
0
0
0
0
0
0
0
0
0
0
0
0
0
0
0
0
0
0
0
0
0
0
0
0
0
0
0
0
0
0
0
0
0
0
0
0
0
0
0
0
0
0
0
0
0
0
0
0
0
0
0
0
0
0
0
0
0
0
0
0
0
0
0
0
0
0
0
0
0
0
0
0
0
0
0
0
0
0
0
0
0
0
0
0
0
0
0
0
0
0
0
0
0
0
0
0
0
0
0
0
0
0
0
0
0
0
0
0
0
0
0
0
0
0
0
0
0
0
0
0
0
0
0
0
0
0
0
0
0
0
0
0
0
0
0
0
0
0
0
0
0
0
0
0
0
0
0
0
0
0
0
0
0
0
0
0
0
0
0
0
0
0
0
0
0
0
0
0
0
0
0
0
0
0
0
0
0
0
0
0
0
0
0
0
0
0
0
0
0
0
0
0
0
0
0
0
0
0
0
0
0
0
0
0
0
0
0
0
0
0
0
0
0
0
0
0
0
0
0
0
0
0
0
0
0
0
0
0
0
0
0
0
0
0
0
0
0
0
0
0
0
0
0
0
0
0
0
0
0
0
0
0
0
0
0
0
0
0
0
0
0
0
0
0
0
0
0
0
0
0
0
0
0
0
0
0
0
0
0
0
0
0
0
0
0
0
0
0
0
0
0
0
0
0
0
0
0
0
0
0
0
0
0
0
0
0
0
0
0
0
0
0
0
0
0
0
0
0
0
0
0
0
0
0
0
0
0
0
0
0
0
0
0
0
0
0
0
0
0
0
0
0
0
0
0
0
0
0
0
0
0
0
0
0
0
0
0
0
0
0
0
0
0
0
0
0
0
0
0
0
0
0
0
0
0
0
0
0
0
0
0
0
0
0
0
0
0
0
0
0
0
0
0
0
0
0
0
0
0
0
0
0
0
0
0
0
0
0
0
0
0
0
0
0
0
0
0
0
0
0
0
0
0
0
0
0
0
0
0
0
0
0
0
0
0
0
0
0
0
0
0
0
0
0
0
0
0
0
0
0
0
0
0
0
0
0
0
0
0
0
0
0
0
0
0
0
0
0
0
0
0
0
0
0
0
0
0
0
0
0
0
0
0
0
0
0
0
0
0
0
0
0
0
0
0
0
0
0
0
0
0
0
0
0
0
0
0
0
0
0
0
0
0
0
0
0
0
0
0
0
0
0
0
0
0
0
0
0
0
0
0
0
0
0
0
0
0
0
0
0
0
0
0
0
0
0
0
0
0
0
0
0
0
0
0
0
0
0
0
0
0
0
0
0
0
0
0
0
0
0
0
0
0
0
0
0
0
0
0
0
0
0
0
0
0
0
0
0
0
0
0
0
0
0
0
0
0
0
0
0
0
0
0
0
0
0
0
0
0
0
0
0
0
0
0
0
0
0
0
0
0
0
0
0
0
0
0
0
0
0
0
0
0
0
0
0
0
0
0
0
0
0
0
0
0
0
0
0
0
0
0
0
0
0
0
0
0
0
0
0
0
0.0374153
0.0093807
0.00346754
0.00176592
0.00108045
0.000736685
0.000537908
0.000411362
0.000325163
0.000263474
0.000217653
0.000182622
0.00015522
0.000133383
0.00011571
0.000101219
8.92e-05
7.91319e-05
7.06219e-05
6.33698e-05
5.7143e-05
5.17586e-05
4.70721e-05
4.29673e-05
3.93509e-05
3.61467e-05
3.32928e-05
3.07378e-05
2.84396e-05
2.63629e-05
2.44784e-05
2.27615e-05
2.11912e-05
1.975e-05
1.84229e-05
1.71971e-05
1.60615e-05
1.50067e-05
1.40245e-05
1.31078e-05
1.22503e-05
1.14466e-05
1.06918e-05
9.98182e-06
9.31282e-06
8.68148e-06
8.0848e-06
7.52012e-06
6.98503e-06
6.47738e-06
5.9952e-06
5.53673e-06
5.10034e-06
4.68456e-06
4.28806e-06
3.90961e-06
3.54807e-06
3.2024e-06
2.87166e-06
2.55496e-06
2.25148e-06
1.96047e-06
1.68122e-06
1.41309e-06
1.15548e-06
9.07812e-07
6.69573e-07
4.4027e-07
2.19444e-07
6.66805e-09
-1.98462e-07
-3.96318e-07
-5.87249e-07
-7.71589e-07
-9.49655e-07
-1.12173e-06
-1.2881e-06
-1.44901e-06
-1.60472e-06
-1.75545e-06
-1.90142e-06
-2.04284e-06
-2.17991e-06
-2.3128e-06
-2.44169e-06
-2.56675e-06
-2.68813e-06
-2.80598e-06
-2.92044e-06
-3.03166e-06
-3.13974e-06
-3.24482e-06
-3.34702e-06
-3.44643e-06
-3.54317e-06
-3.63734e-06
-3.72902e-06
-3.81832e-06
-3.9053e-06
-3.99007e-06
-4.07269e-06
-4.15325e-06
-4.23182e-06
-4.30845e-06
-4.38323e-06
-4.45621e-06
-4.52745e-06
-4.59701e-06
-4.66495e-06
-4.73132e-06
-4.79616e-06
-4.85954e-06
-4.92149e-06
-4.98206e-06
-5.0413e-06
-5.09924e-06
-5.15593e-06
-5.2114e-06
-5.26569e-06
-5.31884e-06
-5.37088e-06
-5.42184e-06
-5.47176e-06
-5.52066e-06
-5.56858e-06
-5.61554e-06
-5.66158e-06
-5.70671e-06
-5.75096e-06
-5.79436e-06
-5.83693e-06
-5.87869e-06
-5.91967e-06
-5.95989e-06
-5.99937e-06
-6.03812e-06
-6.07617e-06
-6.11354e-06
-6.15024e-06
-6.1863e-06
-6.22172e-06
-6.25652e-06
-6.29073e-06
-6.32436e-06
-6.35742e-06
-6.38993e-06
-6.42189e-06
-6.45334e-06
-6.48427e-06
-6.5147e-06
-6.54465e-06
-6.57413e-06
-6.60315e-06
-6.63173e-06
-6.65987e-06
-6.68759e-06
-6.71491e-06
-6.74183e-06
-6.76837e-06
-6.79455e-06
-6.82037e-06
-6.84585e-06
-6.87102e-06
-6.89588e-06
-6.92045e-06
-6.94475e-06
-6.96879e-06
-6.9926e-06
-7.0162e-06
-7.03961e-06
-7.06284e-06
-7.08593e-06
-7.10889e-06
-7.13174e-06
-7.15451e-06
-7.17722e-06
-7.19988e-06
-7.22252e-06
-7.24516e-06
-7.26781e-06
-7.29049e-06
-7.31323e-06
-7.33601e-06
-7.35886e-06
-7.38178e-06
-7.40479e-06
-7.42787e-06
-7.45104e-06
-7.47428e-06
-7.4976e-06
-7.52099e-06
-7.54444e-06
-7.56793e-06
-7.59147e-06
-7.61503e-06
-7.6386e-06
-7.66217e-06
-7.68571e-06
-7.70922e-06
-7.73267e-06
-7.75605e-06
-7.77934e-06
-7.80252e-06
-7.8256e-06
-7.84854e-06
-7.87133e-06
-7.89396e-06
-7.91643e-06
-7.93871e-06
-7.9608e-06
-7.98269e-06
-8.00437e-06
-8.02583e-06
-8.04708e-06
-8.06809e-06
-8.08888e-06
-8.10943e-06
-8.12973e-06
-8.14979e-06
-8.16961e-06
-8.18917e-06
-8.20848e-06
-8.22754e-06
-8.24634e-06
-8.26488e-06
-8.28317e-06
-8.3012e-06
-8.31896e-06
-8.33646e-06
-8.3537e-06
-8.37067e-06
-8.38738e-06
-8.40382e-06
-8.41999e-06
-8.4359e-06
-8.45154e-06
-8.46691e-06
-8.482e-06
-8.49683e-06
-8.51139e-06
-8.52568e-06
-8.5397e-06
-8.55345e-06
-8.56693e-06
-8.58014e-06
-8.59309e-06
-8.60577e-06
-8.61818e-06
-8.63033e-06
-8.64221e-06
-8.65383e-06
-8.66519e-06
-8.67629e-06
-8.68713e-06
-8.69772e-06
-8.70805e-06
-8.71814e-06
-8.72798e-06
-8.73757e-06
-8.74692e-06
-8.75603e-06
-8.7649e-06
-8.77353e-06
-8.78193e-06
-8.79009e-06
-8.79803e-06
-8.80573e-06
-8.81321e-06
-8.82047e-06
-8.82751e-06
-8.83432e-06
-8.84092e-06
-8.84731e-06
-8.85348e-06
-8.85946e-06
-8.86523e-06
-8.8708e-06
-8.87617e-06
-8.88137e-06
-8.88638e-06
-8.89122e-06
-8.8959e-06
-8.90042e-06
-8.90479e-06
-8.909e-06
-8.91307e-06
-8.91698e-06
-8.92073e-06
-8.92432e-06
-8.92774e-06
-8.93098e-06
-8.93402e-06
-8.93686e-06
-8.93949e-06
-8.94191e-06
-8.94411e-06
-8.94609e-06
-8.94786e-06
-8.94943e-06
-8.9508e-06
-8.95199e-06
-8.95302e-06
-8.95389e-06
-8.95463e-06
-8.95526e-06
-8.95578e-06
-8.95622e-06
-8.9566e-06
-8.95691e-06
-8.95718e-06
-8.95742e-06
-8.95763e-06
-8.95782e-06
-8.95798e-06
-8.95814e-06
-8.95829e-06
-8.95843e-06
-8.95857e-06
-8.9587e-06
-8.95883e-06
-8.95896e-06
-8.95909e-06
-8.95922e-06
-8.95935e-06
-8.95948e-06
-8.95961e-06
-8.95974e-06
-8.95987e-06
-8.96001e-06
-8.96014e-06
-8.96027e-06
-8.96041e-06
-8.96055e-06
-8.96069e-06
-8.96082e-06
-8.96096e-06
-8.96109e-06
-8.96123e-06
-8.96137e-06
-8.96151e-06
-8.96165e-06
-8.96178e-06
-8.96191e-06
-8.96205e-06
-8.96219e-06
-8.96232e-06
-8.96246e-06
-8.96259e-06
-8.96273e-06
-8.96286e-06
-8.963e-06
-8.96314e-06
-8.96327e-06
-8.96341e-06
-8.96354e-06
-8.96368e-06
-8.96382e-06
-8.96395e-06
-8.96409e-06
-8.96423e-06
-8.96436e-06
-8.9645e-06
-8.96463e-06
-8.96477e-06
-8.96491e-06
-8.96504e-06
-8.96518e-06
-8.96531e-06
-8.96545e-06
-8.96559e-06
-8.96572e-06
-8.96586e-06
-8.966e-06
-8.96613e-06
-8.96627e-06
-8.9664e-06
-8.96654e-06
-8.96668e-06
-8.96681e-06
-8.96695e-06
-8.96708e-06
-8.96722e-06
-8.96736e-06
-8.9675e-06
-8.96763e-06
-8.96777e-06
-8.96791e-06
-8.96804e-06
-8.96818e-06
-8.96831e-06
-8.96845e-06
-8.96859e-06
-8.96873e-06
-8.96886e-06
-8.969e-06
-8.96914e-06
-8.96927e-06
-8.96941e-06
-8.96955e-06
-8.96969e-06
-8.96982e-06
-8.96996e-06
-8.97009e-06
-8.97023e-06
-8.97037e-06
-8.97051e-06
-8.97064e-06
-8.97078e-06
-8.97092e-06
-8.97105e-06
-8.97119e-06
-8.97133e-06
-8.97147e-06
-8.9716e-06
-8.97174e-06
-8.97188e-06
-8.97201e-06
-8.97215e-06
-8.97229e-06
-8.97242e-06
-8.97256e-06
-8.9727e-06
-8.97284e-06
-8.97297e-06
-8.97311e-06
-8.97325e-06
-8.97338e-06
-8.97352e-06
-8.97366e-06
-8.9738e-06
-8.97393e-06
-8.97407e-06
-8.97421e-06
-8.97435e-06
-8.97448e-06
-8.97462e-06
-8.97476e-06
-8.9749e-06
-8.97504e-06
-8.97517e-06
-8.97531e-06
-8.97545e-06
-8.97558e-06
-8.97572e-06
-8.97586e-06
-8.976e-06
-8.97613e-06
-8.97627e-06
-8.97641e-06
-8.97655e-06
-8.97669e-06
-8.97683e-06
-8.97697e-06
-8.9771e-06
-8.97724e-06
-8.97737e-06
-8.97751e-06
-8.97765e-06
-8.97779e-06
-8.97793e-06
-8.97807e-06
-8.9782e-06
-8.97834e-06
-8.97848e-06
-8.97862e-06
-8.97876e-06
-8.97889e-06
-8.97903e-06
-8.97917e-06
-8.97931e-06
-8.97945e-06
-8.97958e-06
-8.97972e-06
-8.97985e-06
-8.97999e-06
-8.98014e-06
-8.98028e-06
-8.98041e-06
-8.98055e-06
-8.98069e-06
-8.98083e-06
-8.98097e-06
-8.98111e-06
-8.98124e-06
-8.98138e-06
-8.98152e-06
-8.98166e-06
-8.98179e-06
-8.98193e-06
-8.98208e-06
-8.98221e-06
-8.98235e-06
-8.98249e-06
-8.98263e-06
-8.98277e-06
-8.9829e-06
-8.98304e-06
-8.98318e-06
-8.98332e-06
-8.98346e-06
-8.9836e-06
-8.98374e-06
-8.98388e-06
-8.98401e-06
-8.98415e-06
-8.98429e-06
-8.98443e-06
-8.98457e-06
-8.98471e-06
-8.98485e-06
-8.98498e-06
-8.98512e-06
-8.98526e-06
-8.9854e-06
-8.98554e-06
-8.98568e-06
-8.98582e-06
-8.98596e-06
-8.9861e-06
-8.98624e-06
-8.98638e-06
-8.98652e-06
-8.98665e-06
-8.98679e-06
-8.98693e-06
-8.98707e-06
-8.98721e-06
-8.98735e-06
-8.98749e-06
-8.98763e-06
-8.98777e-06
-8.98791e-06
-8.98805e-06
-8.98819e-06
-8.98833e-06
-8.98847e-06
-8.9886e-06
-8.98874e-06
-8.98888e-06
-8.98902e-06
-8.98916e-06
-8.9893e-06
-8.98944e-06
-8.98958e-06
-8.98972e-06
-8.98986e-06
-8.99e-06
-8.99014e-06
-8.99028e-06
-8.99042e-06
-8.99056e-06
-8.99069e-06
-8.99083e-06
-8.99097e-06
-8.99112e-06
-8.99125e-06
-8.99139e-06
-8.99154e-06
-8.99168e-06
-8.99182e-06
-8.99195e-06
-8.99209e-06
-8.99223e-06
-8.99237e-06
-8.99251e-06
-8.99265e-06
-8.99279e-06
-8.99293e-06
-8.99307e-06
-8.99321e-06
-8.99335e-06
-8.9935e-06
-8.99363e-06
-8.99377e-06
-8.99391e-06
-8.99405e-06
-8.99419e-06
-8.99433e-06
-8.99448e-06
-8.99462e-06
-8.99475e-06
-8.9949e-06
-8.99504e-06
-8.99518e-06
-8.99531e-06
-8.99546e-06
-8.9956e-06
-8.99574e-06
-8.99587e-06
-8.99601e-06
-8.99616e-06
-8.9963e-06
-8.99644e-06
-8.99658e-06
-8.99672e-06
-8.99686e-06
-8.997e-06
-8.99714e-06
-8.99728e-06
-8.99742e-06
-8.99756e-06
-8.9977e-06
-8.99785e-06
-8.99799e-06
-8.99813e-06
-8.99827e-06
-8.99841e-06
-8.99855e-06
-8.99869e-06
-8.99883e-06
-8.99897e-06
-8.99911e-06
-8.99925e-06
-8.99939e-06
-8.99953e-06
-8.99967e-06
-8.99981e-06
-8.99995e-06
-9.00009e-06
-9.00023e-06
-9.00038e-06
-9.00052e-06
-9.00066e-06
-9.0008e-06
-9.00094e-06
-9.00108e-06
-9.00122e-06
-9.00137e-06
-9.00151e-06
-9.00165e-06
-9.00179e-06
-9.00193e-06
-9.00207e-06
-9.00221e-06
-9.00235e-06
-9.0025e-06
-9.00264e-06
-9.00278e-06
-9.00292e-06
-9.00306e-06
-9.0032e-06
-9.00334e-06
-9.00349e-06
-9.00362e-06
-9.00376e-06
-9.00391e-06
-9.00405e-06
-9.00419e-06
-9.00433e-06
-9.00447e-06
-9.00462e-06
-9.00476e-06
-9.0049e-06
-9.00504e-06
-9.00518e-06
-9.00533e-06
-9.00547e-06
-9.00561e-06
-9.00575e-06
-9.00589e-06
-9.00603e-06
-9.00618e-06
-9.00632e-06
-9.00646e-06
-9.0066e-06
-9.00674e-06
-9.00688e-06
-9.00703e-06
-9.00717e-06
-9.00731e-06
-9.00745e-06
-9.0076e-06
-9.00774e-06
-9.00788e-06
-9.00802e-06
-9.00816e-06
-9.0083e-06
-9.00845e-06
-9.00859e-06
-9.00873e-06
-9.00887e-06
-9.00902e-06
-9.00916e-06
-9.0093e-06
-9.00944e-06
-9.00958e-06
-9.00972e-06
-9.00987e-06
-9.01001e-06
-9.01015e-06
-9.0103e-06
-9.01044e-06
-9.01058e-06
-9.01072e-06
-9.01087e-06
-9.01101e-06
-9.01115e-06
-9.01129e-06
-9.01143e-06
-9.01158e-06
-9.01172e-06
-9.01186e-06
-9.012e-06
-9.01215e-06
-9.01229e-06
-9.01243e-06
-9.01258e-06
-9.01272e-06
-9.01286e-06
-9.013e-06
-9.01315e-06
-9.01329e-06
-9.01343e-06
-9.01358e-06
-9.01372e-06
-9.01386e-06
-9.014e-06
-9.01415e-06
-9.01429e-06
-9.01443e-06
-9.01458e-06
-9.01472e-06
-9.01486e-06
-9.015e-06
-9.01515e-06
-9.01529e-06
-9.01543e-06
-9.01558e-06
-9.01572e-06
-9.01586e-06
-9.016e-06
-9.01615e-06
-9.0163e-06
-9.01644e-06
-9.01658e-06
-9.01672e-06
-9.01686e-06
-9.01701e-06
-9.01715e-06
-9.0173e-06
-9.01744e-06
-9.01758e-06
-9.01773e-06
-9.01787e-06
-9.01801e-06
-9.01816e-06
-9.0183e-06
-9.01844e-06
-9.01859e-06
-9.01873e-06
-9.01887e-06
-9.01901e-06
-9.01916e-06
-9.0193e-06
-9.01944e-06
-9.01958e-06
-9.01973e-06
-9.01987e-06
-9.02001e-06
-9.02015e-06
-9.02029e-06
-9.02043e-06
-9.02056e-06
-9.02069e-06
-9.02082e-06
-9.02096e-06
-9.02108e-06
-9.0212e-06
-9.02131e-06
-9.02142e-06
-9.02151e-06
-9.0216e-06
-9.02166e-06
-9.02171e-06
-9.02173e-06
-9.02172e-06
-9.02166e-06
-9.02156e-06
-9.02138e-06
-9.02114e-06
-9.02077e-06
-9.02029e-06
-9.0196e-06
-9.01877e-06
-9.01754e-06
-9.01616e-06
-9.014e-06
-9.01178e-06
-9.00793e-06
-9.00458e-06
-8.99724e-06
-8.99299e-06
-8.97679e-06
-8.9767e-06
-8.92807e-06
-9.01535e-06
-6.36925e-06
-6.36925e-06
0
0
0.0966094
0.0320521
0.0130056
0.00682585
0.00423555
0.00291361
0.00214197
0.00164789
0.00131003
0.00106755
0.000887037
0.000748788
0.000640482
0.000554059
0.000484034
0.000426553
0.000378838
0.000338834
0.000304997
0.000276144
0.000251356
0.000229914
0.000211243
0.000194886
0.000180472
0.0001677
0.000156323
0.000146139
0.000136978
0.000128701
0.000121192
0.000114351
0.000108096
0.000102357
9.70727e-05
9.21932e-05
8.76742e-05
8.34778e-05
7.95711e-05
7.59257e-05
7.25166e-05
6.93221e-05
6.63229e-05
6.35022e-05
6.08448e-05
5.83375e-05
5.59683e-05
5.37266e-05
5.16027e-05
4.95879e-05
4.76746e-05
4.58555e-05
4.41243e-05
4.24751e-05
4.09025e-05
3.94016e-05
3.79679e-05
3.65974e-05
3.52861e-05
3.40305e-05
3.28275e-05
3.16739e-05
3.05671e-05
2.95045e-05
2.84835e-05
2.7502e-05
2.6558e-05
2.56494e-05
2.47744e-05
2.39314e-05
2.31187e-05
2.23348e-05
2.15784e-05
2.08481e-05
2.01428e-05
1.94611e-05
1.88022e-05
1.81648e-05
1.75481e-05
1.69511e-05
1.63729e-05
1.58128e-05
1.527e-05
1.47437e-05
1.42333e-05
1.37381e-05
1.32574e-05
1.27907e-05
1.23375e-05
1.18971e-05
1.14691e-05
1.1053e-05
1.06484e-05
1.02548e-05
9.87178e-06
9.49896e-06
9.13597e-06
8.78245e-06
8.43806e-06
8.10246e-06
7.77536e-06
7.45644e-06
7.14543e-06
6.84205e-06
6.54603e-06
6.25714e-06
5.97513e-06
5.69977e-06
5.43085e-06
5.16814e-06
4.91146e-06
4.6606e-06
4.41539e-06
4.17563e-06
3.94117e-06
3.71183e-06
3.48747e-06
3.26791e-06
3.05303e-06
2.84267e-06
2.63671e-06
2.43501e-06
2.23745e-06
2.04391e-06
1.85426e-06
1.6684e-06
1.48621e-06
1.30761e-06
1.13247e-06
9.60711e-07
7.92232e-07
6.26945e-07
4.64756e-07
3.05583e-07
1.49348e-07
-4.03069e-09
-1.54633e-07
-3.02533e-07
-4.47803e-07
-5.9051e-07
-7.30718e-07
-8.68498e-07
-1.00392e-06
-1.13704e-06
-1.26792e-06
-1.39662e-06
-1.52319e-06
-1.6477e-06
-1.7702e-06
-1.89073e-06
-2.00937e-06
-2.12615e-06
-2.24114e-06
-2.35438e-06
-2.46593e-06
-2.57583e-06
-2.68415e-06
-2.79093e-06
-2.89623e-06
-3.00011e-06
-3.10263e-06
-3.20385e-06
-3.30382e-06
-3.40263e-06
-3.50034e-06
-3.59702e-06
-3.69274e-06
-3.78759e-06
-3.88164e-06
-3.97498e-06
-4.06768e-06
-4.15985e-06
-4.25156e-06
-4.34289e-06
-4.43395e-06
-4.52479e-06
-4.61552e-06
-4.7062e-06
-4.7969e-06
-4.8877e-06
-4.97865e-06
-5.0698e-06
-5.16119e-06
-5.25285e-06
-5.34482e-06
-5.43711e-06
-5.52971e-06
-5.62263e-06
-5.71586e-06
-5.80937e-06
-5.90313e-06
-5.99711e-06
-6.09125e-06
-6.18552e-06
-6.27985e-06
-6.37419e-06
-6.46846e-06
-6.56261e-06
-6.65658e-06
-6.75028e-06
-6.84367e-06
-6.93667e-06
-7.02922e-06
-7.12128e-06
-7.21276e-06
-7.30363e-06
-7.39383e-06
-7.48332e-06
-7.57206e-06
-7.66001e-06
-7.74713e-06
-7.8334e-06
-7.91878e-06
-8.00326e-06
-8.08681e-06
-8.16941e-06
-8.25104e-06
-8.3317e-06
-8.41136e-06
-8.49002e-06
-8.56767e-06
-8.64429e-06
-8.71988e-06
-8.79444e-06
-8.86796e-06
-8.94043e-06
-9.01184e-06
-9.0822e-06
-9.1515e-06
-9.21974e-06
-9.28691e-06
-9.35301e-06
-9.41803e-06
-9.48197e-06
-9.54484e-06
-9.60662e-06
-9.66732e-06
-9.72693e-06
-9.78546e-06
-9.8429e-06
-9.89926e-06
-9.95453e-06
-1.00087e-05
-1.00618e-05
-1.01139e-05
-1.01648e-05
-1.02147e-05
-1.02636e-05
-1.03113e-05
-1.0358e-05
-1.04037e-05
-1.04483e-05
-1.04919e-05
-1.05345e-05
-1.0576e-05
-1.06165e-05
-1.0656e-05
-1.06946e-05
-1.07321e-05
-1.07687e-05
-1.08044e-05
-1.0839e-05
-1.08727e-05
-1.09055e-05
-1.09374e-05
-1.09683e-05
-1.09983e-05
-1.10275e-05
-1.10557e-05
-1.1083e-05
-1.11095e-05
-1.11351e-05
-1.11599e-05
-1.11838e-05
-1.12069e-05
-1.12292e-05
-1.12507e-05
-1.12715e-05
-1.12915e-05
-1.13108e-05
-1.13294e-05
-1.13473e-05
-1.13646e-05
-1.13813e-05
-1.13973e-05
-1.14128e-05
-1.14276e-05
-1.14418e-05
-1.14552e-05
-1.1468e-05
-1.14801e-05
-1.14914e-05
-1.15018e-05
-1.15114e-05
-1.15202e-05
-1.15282e-05
-1.15353e-05
-1.15415e-05
-1.1547e-05
-1.15518e-05
-1.15559e-05
-1.15593e-05
-1.15622e-05
-1.15646e-05
-1.15666e-05
-1.15681e-05
-1.15694e-05
-1.15705e-05
-1.15713e-05
-1.1572e-05
-1.15725e-05
-1.15729e-05
-1.15733e-05
-1.15736e-05
-1.15738e-05
-1.1574e-05
-1.15742e-05
-1.15744e-05
-1.15746e-05
-1.15747e-05
-1.15749e-05
-1.1575e-05
-1.15752e-05
-1.15753e-05
-1.15755e-05
-1.15757e-05
-1.15758e-05
-1.1576e-05
-1.15762e-05
-1.15763e-05
-1.15765e-05
-1.15767e-05
-1.15769e-05
-1.1577e-05
-1.15772e-05
-1.15774e-05
-1.15776e-05
-1.15778e-05
-1.15779e-05
-1.15781e-05
-1.15783e-05
-1.15785e-05
-1.15787e-05
-1.15788e-05
-1.1579e-05
-1.15792e-05
-1.15794e-05
-1.15795e-05
-1.15797e-05
-1.15799e-05
-1.15801e-05
-1.15802e-05
-1.15804e-05
-1.15806e-05
-1.15808e-05
-1.1581e-05
-1.15811e-05
-1.15813e-05
-1.15815e-05
-1.15817e-05
-1.15818e-05
-1.1582e-05
-1.15822e-05
-1.15824e-05
-1.15825e-05
-1.15827e-05
-1.15829e-05
-1.15831e-05
-1.15833e-05
-1.15834e-05
-1.15836e-05
-1.15838e-05
-1.1584e-05
-1.15841e-05
-1.15843e-05
-1.15845e-05
-1.15847e-05
-1.15849e-05
-1.1585e-05
-1.15852e-05
-1.15854e-05
-1.15856e-05
-1.15858e-05
-1.15859e-05
-1.15861e-05
-1.15863e-05
-1.15865e-05
-1.15866e-05
-1.15868e-05
-1.1587e-05
-1.15872e-05
-1.15873e-05
-1.15875e-05
-1.15877e-05
-1.15879e-05
-1.15881e-05
-1.15882e-05
-1.15884e-05
-1.15886e-05
-1.15888e-05
-1.1589e-05
-1.15891e-05
-1.15893e-05
-1.15895e-05
-1.15897e-05
-1.15898e-05
-1.159e-05
-1.15902e-05
-1.15904e-05
-1.15906e-05
-1.15907e-05
-1.15909e-05
-1.15911e-05
-1.15913e-05
-1.15915e-05
-1.15916e-05
-1.15918e-05
-1.1592e-05
-1.15922e-05
-1.15923e-05
-1.15925e-05
-1.15927e-05
-1.15929e-05
-1.15931e-05
-1.15932e-05
-1.15934e-05
-1.15936e-05
-1.15938e-05
-1.1594e-05
-1.15941e-05
-1.15943e-05
-1.15945e-05
-1.15947e-05
-1.15948e-05
-1.1595e-05
-1.15952e-05
-1.15954e-05
-1.15956e-05
-1.15957e-05
-1.15959e-05
-1.15961e-05
-1.15963e-05
-1.15965e-05
-1.15966e-05
-1.15968e-05
-1.1597e-05
-1.15972e-05
-1.15974e-05
-1.15975e-05
-1.15977e-05
-1.15979e-05
-1.15981e-05
-1.15983e-05
-1.15984e-05
-1.15986e-05
-1.15988e-05
-1.1599e-05
-1.15992e-05
-1.15993e-05
-1.15995e-05
-1.15997e-05
-1.15999e-05
-1.16001e-05
-1.16002e-05
-1.16004e-05
-1.16006e-05
-1.16008e-05
-1.1601e-05
-1.16011e-05
-1.16013e-05
-1.16015e-05
-1.16017e-05
-1.16018e-05
-1.1602e-05
-1.16022e-05
-1.16024e-05
-1.16026e-05
-1.16028e-05
-1.16029e-05
-1.16031e-05
-1.16033e-05
-1.16035e-05
-1.16037e-05
-1.16038e-05
-1.1604e-05
-1.16042e-05
-1.16044e-05
-1.16046e-05
-1.16047e-05
-1.16049e-05
-1.16051e-05
-1.16053e-05
-1.16055e-05
-1.16056e-05
-1.16058e-05
-1.1606e-05
-1.16062e-05
-1.16064e-05
-1.16065e-05
-1.16067e-05
-1.16069e-05
-1.16071e-05
-1.16073e-05
-1.16074e-05
-1.16076e-05
-1.16078e-05
-1.1608e-05
-1.16082e-05
-1.16083e-05
-1.16085e-05
-1.16087e-05
-1.16089e-05
-1.16091e-05
-1.16093e-05
-1.16094e-05
-1.16096e-05
-1.16098e-05
-1.161e-05
-1.16102e-05
-1.16103e-05
-1.16105e-05
-1.16107e-05
-1.16109e-05
-1.16111e-05
-1.16112e-05
-1.16114e-05
-1.16116e-05
-1.16118e-05
-1.1612e-05
-1.16122e-05
-1.16123e-05
-1.16125e-05
-1.16127e-05
-1.16129e-05
-1.16131e-05
-1.16132e-05
-1.16134e-05
-1.16136e-05
-1.16138e-05
-1.1614e-05
-1.16141e-05
-1.16143e-05
-1.16145e-05
-1.16147e-05
-1.16149e-05
-1.16151e-05
-1.16152e-05
-1.16154e-05
-1.16156e-05
-1.16158e-05
-1.1616e-05
-1.16162e-05
-1.16163e-05
-1.16165e-05
-1.16167e-05
-1.16169e-05
-1.16171e-05
-1.16172e-05
-1.16174e-05
-1.16176e-05
-1.16178e-05
-1.1618e-05
-1.16182e-05
-1.16183e-05
-1.16185e-05
-1.16187e-05
-1.16189e-05
-1.16191e-05
-1.16192e-05
-1.16194e-05
-1.16196e-05
-1.16198e-05
-1.162e-05
-1.16202e-05
-1.16203e-05
-1.16205e-05
-1.16207e-05
-1.16209e-05
-1.16211e-05
-1.16213e-05
-1.16214e-05
-1.16216e-05
-1.16218e-05
-1.1622e-05
-1.16222e-05
-1.16224e-05
-1.16225e-05
-1.16227e-05
-1.16229e-05
-1.16231e-05
-1.16233e-05
-1.16235e-05
-1.16236e-05
-1.16238e-05
-1.1624e-05
-1.16242e-05
-1.16244e-05
-1.16245e-05
-1.16247e-05
-1.16249e-05
-1.16251e-05
-1.16253e-05
-1.16255e-05
-1.16257e-05
-1.16258e-05
-1.1626e-05
-1.16262e-05
-1.16264e-05
-1.16266e-05
-1.16267e-05
-1.16269e-05
-1.16271e-05
-1.16273e-05
-1.16275e-05
-1.16277e-05
-1.16279e-05
-1.1628e-05
-1.16282e-05
-1.16284e-05
-1.16286e-05
-1.16288e-05
-1.1629e-05
-1.16291e-05
-1.16293e-05
-1.16295e-05
-1.16297e-05
-1.16299e-05
-1.16301e-05
-1.16302e-05
-1.16304e-05
-1.16306e-05
-1.16308e-05
-1.1631e-05
-1.16312e-05
-1.16313e-05
-1.16315e-05
-1.16317e-05
-1.16319e-05
-1.16321e-05
-1.16323e-05
-1.16324e-05
-1.16326e-05