# vtk DataFile Version 2.0
FlowField
ASCII
DATASET STRUCTURED_GRID
DIMENSIONS 800 1 200
POINTS 160000 float
0 0 0
0.04 0 0
0.08 0 0
0.12 0 0
0.16 0 0
0.2 0 0
0.24 0 0
0.28 0 0
0.32 0 0
0.36 0 0
0.4 0 0
0.44 0 0
0.48 0 0
0.52 0 0
0.56 0 0
0.6 0 0
0.64 0 0
0.68 0 0
0.72 0 0
0.76 0 0
0.8 0 0
0.84 0 0
0.88 0 0
0.92 0 0
0.96 0 0
1 0 0
1.04 0 0
1.08 0 0
1.12 0 0
1.16 0 0
1.2 0 0
1.24 0 0
1.28 0 0
1.32 0 0
1.36 0 0
1.4 0 0
1.44 0 0
1.48 0 0
1.52 0 0
1.56 0 0
1.6 0 0
1.64 0 0
1.68 0 0
1.72 0 0
1.76 0 0
1.8 0 0
1.84 0 0
1.88 0 0
1.92 0 0
1.96 0 0
2 0 0
2.04 0 0
2.08 0 0
2.12 0 0
2.16 0 0
2.2 0 0
2.24 0 0
2.28 0 0
2.32 0 0
2.36 0 0
2.4 0 0
2.44 0 0
2.48 0 0
2.52 0 0
2.56 0 0
2.6 0 0
2.64 0 0
2.68 0 0
2.72 0 0
2.76 0 0
2.8 0 0
2.84 0 0
2.88 0 0
2.92 0 0
2.96 0 0
3 0 0
3.04 0 0
3.08 0 0
3.12 0 0
3.16 0 0
3.2 0 0
3.24 0 0
3.28 0 0
3.32 0 0
3.36 0 0
3.4 0 0
3.44 0 0
3.48 0 0
3.52 0 0
3.56 0 0
3.6 0 0
3.64 0 0
3.68 0 0
3.72 0 0
3.76 0 0
3.8 0 0
3.84 0 0
3.88 0 0
3.92 0 0
3.96 0 0
4 0 0
4.04 0 0
4.08 0 0
4.12 0 0
4.16 0 0
4.2 0 0
4.24 0 0
4.28 0 0
4.32 0 0
4.36 0 0
4.4 0 0
4.44 0 0
4.48 0 0
4.52 0 0
4.56 0 0
4.6 0 0
4.64 0 0
4.68 0 0
4.72 0 0
4.76 0 0
4.8 0 0
4.84 0 0
4.88 0 0
4.92 0 0
4.96 0 0
5 0 0
5.04 0 0
5.08 0 0
5.12 0 0
5.16 0 0
5.2 0 0
5.24 0 0
5.28 0 0
5.32 0 0
5.36 0 0
5.4 0 0
5.44 0 0
5.48 0 0
5.52 0 0
5.56 0 0
5.6 0 0
5.64 0 0
5.68 0 0
5.72 0 0
5.76 0 0
5.8 0 0
5.84 0 0
5.88 0 0
5.92 0 0
5.96 0 0
6 0 0
6.04 0 0
6.08 0 0
6.12 0 0
6.16 0 0
6.2 0 0
6.24 0 0
6.28 0 0
6.32 0 0
6.36 0 0
6.4 0 0
6.44 0 0
6.48 0 0
6.52 0 0
6.56 0 0
6.6 0 0
6.64 0 0
6.68 0 0
6.72 0 0
6.76 0 0
6.8 0 0
6.84 0 0
6.88 0 0
6.92 0 0
6.96 0 0
7 0 0
7.04 0 0
7.08 0 0
7.12 0 0
7.16 0 0
7.2 0 0
7.24 0 0
7.28 0 0
7.32 0 0
7.36 0 0
7.4 0 0
7.44 0 0
7.48 0 0
7.52 0 0
7.56 0 0
7.6 0 0
7.64 0 0
7.68 0 0
7.72 0 0
7.76 0 0
7.8 0 0
7.84 0 0
7.88 0 0
7.92 0 0
7.96 0 0
8 0 0
8.04 0 0
8.08 0 0
8.12 0 0
8.16 0 0
8.2 0 0
8.24 0 0
8.28 0 0
8.32 0 0
8.36 0 0
8.4 0 0
8.44 0 0
8.48 0 0
8.52 0 0
8.56 0 0
8.6 0 0
8.64 0 0
8.68 0 0
8.72 0 0
8.76 0 0
8.8 0 0
8.84 0 0
8.88 0 0
8.92 0 0
8.96 0 0
9 0 0
9.04 0 0
9.08 0 0
9.12 0 0
9.16 0 0
9.2 0 0
9.24 0 0
9.28 0 0
9.32 0 0
9.36 0 0
9.4 0 0
9.44 0 0
9.48 0 0
9.52 0 0
9.56 0 0
9.6 0 0
9.64 0 0
9.68 0 0
9.72 0 0
9.76 0 0
9.8 0 0
9.84 0 0
9.88 0 0
9.92 0 0
9.96 0 0
10 0 0
10.04 0 0
10.08 0 0
10.12 0 0
10.16 0 0
10.2 0 0
10.24 0 0
10.28 0 0
10.32 0 0
10.36 0 0
10.4 0 0
10.44 0 0
10.48 0 0
10.52 0 0
10.56 0 0
10.6 0 0
10.64 0 0
10.68 0 0
10.72 0 0
10.76 0 0
10.8 0 0
10.84 0 0
10.88 0 0
10.92 0 0
10.96 0 0
11 0 0
11.04 0 0
11.08 0 0
11.12 0 0
11.16 0 0
11.2 0 0
11.24 0 0
11.28 0 0
11.32 0 0
11.36 0 0
11.4 0 0
11.44 0 0
11.48 0 0
11.52 0 0
11.56 0 0
11.6 0 0
11.64 0 0
11.68 0 0
11.72 0 0
11.76 0 0
11.8 0 0
11.84 0 0
11.88 0 0
11.92 0 0
11.96 0 0
12 0 0
12.04 0 0
12.08 0 0
12.12 0 0
12.16 0 0
12.2 0 0
12.24 0 0
12.28 0 0
12.32 0 0
12.36 0 0
12.4 0 0
12.44 0 0
12.48 0 0
12.52 0 0
12.56 0 0
12.6 0 0
12.64 0 0
12.68 0 0
12.72 0 0
12.76 0 0
12.8 0 0
12.84 0 0
12.88 0 0
12.92 0 0
12.96 0 0
13 0 0
13.04 0 0
13.08 0 0
13.12 0 0
13.16 0 0
13.2 0 0
13.24 0 0
13.28 0 0
13.32 0 0
13.36 0 0
13.4 0 0
13.44 0 0
13.48 0 0
13.52 0 0
13.56 0 0
13.6 0 0
13.64 0 0
13.68 0 0
13.72 0 0
13.76 0 0
13.8 0 0
13.84 0 0
13.88 0 0
13.92 0 0
13.96 0 0
14 0 0
14.04 0 0
14.08 0 0
14.12 0 0
14.16 0 0
14.2 0 0
14.24 0 0
14.28 0 0
14.32 0 0
14.36 0 0
14.4 0 0
14.44 0 0
14.48 0 0
14.52 0 0
14.56 0 0
14.6 0 0
14.64 0 0
14.68 0 0
14.72 0 0
14.76 0 0
14.8 0 0
14.84 0 0
14.88 0 0
14.92 0 0
14.96 0 0
15 0 0
15.04 0 0
15.08 0 0
15.12 0 0
15.16 0 0
15.2 0 0
15.24 0 0
15.28 0 0
15.32 0 0
15.36 0 0
15.4 0 0
15.44 0 0
15.48 0 0
15.52 0 0
15.56 0 0
15.6 0 0
15.64 0 0
15.68 0 0
15.72 0 0
15.76 0 0
15.8 0 0
15.84 0 0
15.88 0 0
15.92 0 0
15.96 0 0
16 0 0
16.04 0 0
16.08 0 0
16.12 0 0
16.16 0 0
16.2 0 0
16.24 0 0
16.28 0 0
16.32 0 0
16.36 0 0
16.4 0 0
16.44 0 0
16.48 0 0
16.52 0 0
16.56 0 0
16.6 0 0
16.64 0 0
16.68 0 0
16.72 0 0
16.76 0 0
16.8 0 0
16.84 0 0
16.88 0 0
16.92 0 0
16.96 0 0
17 0 0
17.04 0 0
17.08 0 0
17.12 0 0
17.16 0 0
17.2 0 0
17.24 0 0
17.28 0 0
17.32 0 0
17.36 0 0
17.4 0 0
17.44 0 0
17.48 0 0
17.52 0 0
17.56 0 0
17.6 0 0
17.64 0 0
17.68 0 0
17.72 0 0
17.76 0 0
17.8 0 0
17.84 0 0
17.88 0 0
17.92 0 0
17.96 0 0
18 0 0
18.04 0 0
18.08 0 0
18.12 0 0
18.16 0 0
18.2 0 0
18.24 0 0
18.28 0 0
18.32 0 0
18.36 0 0
18.4 0 0
18.44 0 0
18.48 0 0
18.52 0 0
18.56 0 0
18.6 0 0
18.64 0 0
18.68 0 0
18.72 0 0
18.76 0 0
18.8 0 0
18.84 0 0
18.88 0 0
18.92 0 0
18.96 0 0
19 0 0
19.04 0 0
19.08 0 0
19.12 0 0
19.16 0 0
19.2 0 0
19.24 0 0
19.28 0 0
19.32 0 0
19.36 0 0
19.4 0 0
19.44 0 0
19.48 0 0
19.52 0 0
19.56 0 0
19.6 0 0
19.64 0 0
19.68 0 0
19.72 0 0
19.76 0 0
19.8 0 0
19.84 0 0
19.88 0 0
19.92 0 0
19.96 0 0
20 0 0
20.04 0 0
20.08 0 0
20.12 0 0
20.16 0 0
20.2 0 0
20.24 0 0
20.28 0 0
20.32 0 0
20.36 0 0
20.4 0 0
20.44 0 0
20.48 0 0
20.52 0 0
20.56 0 0
20.6 0 0
20.64 0 0
20.68 0 0
20.72 0 0
20.76 0 0
20.8 0 0
20.84 0 0
20.88 0 0
20.92 0 0
20.96 0 0
21 0 0
21.04 0 0
21.08 0 0
21.12 0 0
21.16 0 0
21.2 0 0
21.24 0 0
21.28 0 0
21.32 0 0
21.36 0 0
21.4 0 0
21.44 0 0
21.48 0 0
21.52 0 0
21.56 0 0
21.6 0 0
21.64 0 0
21.68 0 0
21.72 0 0
21.76 0 0
21.8 0 0
21.84 0 0
21.88 0 0
21.92 0 0
21.96 0 0
22 0 0
22.04 0 0
22.08 0 0
22.12 0 0
22.16 0 0
22.2 0 0
22.24 0 0
22.28 0 0
22.32 0 0
22.36 0 0
22.4 0 0
22.44 0 0
22.48 0 0
22.52 0 0
22.56 0 0
22.6 0 0
22.64 0 0
22.68 0 0
22.72 0 0
22.76 0 0
22.8 0 0
22.84 0 0
22.88 0 0
22.92 0 0
22.96 0 0
23 0 0
23.04 0 0
23.08 0 0
23.12 0 0
23.16 0 0
23.2 0 0
23.24 0 0
23.28 0 0
23.32 0 0
23.36 0 0
23.4 0 0
23.44 0 0
23.48 0 0
23.52 0 0
23.56 0 0
23.6 0 0
23.64 0 0
23.68 0 0
23.72 0 0
23.76 0 0
23.8 0 0
23.84 0 0
23.88 0 0
23.92 0 0
23.96 0 0
24 0 0
24.04 0 0
24.08 0 0
24.12 0 0
24.16 0 0
24.2 0 0
24.24 0 0
24.28 0 0
24.32 0 0
24.36 0 0
24.4 0 0
24.44 0 0
24.48 0 0
24.52 0 0
24.56 0 0
24.6 0 0
24.64 0 0
24.68 0 0
24.72 0 0
24.76 0 0
24.8 0 0
24.84 0 0
24.88 0 0
24.92 0 0
24.96 0 0
25 0 0
25.04 0 0
25.08 0 0
25.12 0 0
25.16 0 0
25.2 0 0
25.24 0 0
25.28 0 0
25.32 0 0
25.36 0 0
25.4 0 0
25.44 0 0
25.48 0 0
25.52 0 0
25.56 0 0
25.6 0 0
25.64 0 0
25.68 0 0
25.72 0 0
25.76 0 0
25.8 0 0
25.84 0 0
25.88 0 0
25.92 0 0
25.96 0 0
26 0 0
26.04 0 0
26.08 0 0
26.12 0 0
26.16 0 0
26.2 0 0
26.24 0 0
26.28 0 0
26.32 0 0
26.36 0 0
26.4 0 0
26.44 0 0
26.48 0 0
26.52 0 0
26.56 0 0
26.6 0 0
26.64 0 0
26.68 0 0
26.72 0 0
26.76 0 0
26.8 0 0
26.84 0 0
26.88 0 0
26.92 0 0
26.96 0 0
27 0 0
27.04 0 0
27.08 0 0
27.12 0 0
27.16 0 0
27.2 0 0
27.24 0 0
27.28 0 0
27.32 0 0
27.36 0 0
27.4 0 0
27.44 0 0
27.48 0 0
27.52 0 0
27.56 0 0
27.6 0 0
27.64 0 0
27.68 0 0
27.72 0 0
27.76 0 0
27.8 0 0
27.84 0 0
27.88 0 0
27.92 0 0
27.96 0 0
28 0 0
28.04 0 0
28.08 0 0
28.12 0 0
28.16 0 0
28.2 0 0
28.24 0 0
28.28 0 0
28.32 0 0
28.36 0 0
28.4 0 0
28.44 0 0
28.48 0 0
28.52 0 0
28.56 0 0
28.6 0 0
28.64 0 0
28.68 0 0
28.72 0 0
28.76 0 0
28.8 0 0
28.84 0 0
28.88 0 0
28.92 0 0
28.96 0 0
29 0 0
29.04 0 0
29.08 0 0
29.12 0 0
29.16 0 0
29.2 0 0
29.24 0 0
29.28 0 0
29.32 0 0
29.36 0 0
29.4 0 0
29.44 0 0
29.48 0 0
29.52 0 0
29.56 0 0
29.6 0 0
29.64 0 0
29.68 0 0
29.72 0 0
29.76 0 0
29.8 0 0
29.84 0 0
29.88 0 0
29.92 0 0
29.96 0 0
30 0 0
30.04 0 0
30.08 0 0
30.12 0 0
30.16 0 0
30.2 0 0
30.24 0 0
30.28 0 0
30.32 0 0
30.36 0 0
30.4 0 0
30.44 0 0
30.48 0 0
30.52 0 0
30.56 0 0
30.6 0 0
30.64 0 0
30.68 0 0
30.72 0 0
30.76 0 0
30.8 0 0
30.84 0 0
30.88 0 0
30.92 0 0
30.96 0 0
31 0 0
31.04 0 0
31.08 0 0
31.12 0 0
31.16 0 0
31.2 0 0
31.24 0 0
31.28 0 0
31.32 0 0
31.36 0 0
31.4 0 0
31.44 0 0
31.48 0 0
31.52 0 0
31.56 0 0
31.6 0 0
31.64 0 0
31.68 0 0
31.72 0 0
31.76 0 0
31.8 0 0
31.84 0 0
31.88 0 0
31.92 0 0
31.96 0 0
0 0.005 0
0.04 0.005 0
0.08 0.005 0
0.12 0.005 0
0.16 0.005 0
0.2 0.005 0
0.24 0.005 0
0.28 0.005 0
0.32 0.005 0
0.36 0.005 0
0.4 0.005 0
0.44 0.005 0
0.48 0.005 0
0.52 0.005 0
0.56 0.005 0
0.6 0.005 0
0.64 0.005 0
0.68 0.005 0
0.72 0.005 0
0.76 0.005 0
0.8 0.005 0
0.84 0.005 0
0.88 0.005 0
0.92 0.005 0
0.96 0.005 0
1 0.005 0
1.04 0.005 0
1.08 0.005 0
1.12 0.005 0
1.16 0.005 0
1.2 0.005 0
1.24 0.005 0
1.28 0.005 0
1.32 0.005 0
1.36 0.005 0
1.4 0.005 0
1.44 0.005 0
1.48 0.005 0
1.52 0.005 0
1.56 0.005 0
1.6 0.005 0
1.64 0.005 0
1.68 0.005 0
1.72 0.005 0
1.76 0.005 0
1.8 0.005 0
1.84 0.005 0
1.88 0.005 0
1.92 0.005 0
1.96 0.005 0
2 0.005 0
2.04 0.005 0
2.08 0.005 0
2.12 0.005 0
2.16 0.005 0
2.2 0.005 0
2.24 0.005 0
2.28 0.005 0
2.32 0.005 0
2.36 0.005 0
2.4 0.005 0
2.44 0.005 0
2.48 0.005 0
2.52 0.005 0
2.56 0.005 0
2.6 0.005 0
2.64 0.005 0
2.68 0.005 0
2.72 0.005 0
2.76 0.005 0
2.8 0.005 0
2.84 0.005 0
2.88 0.005 0
2.92 0.005 0
2.96 0.005 0
3 0.005 0
3.04 0.005 0
3.08 0.005 0
3.12 0.005 0
3.16 0.005 0
3.2 0.005 0
3.24 0.005 0
3.28 0.005 0
3.32 0.005 0
3.36 0.005 0
3.4 0.005 0
3.44 0.005 0
3.48 0.005 0
3.52 0.005 0
3.56 0.005 0
3.6 0.005 0
3.64 0.005 0
3.68 0.005 0
3.72 0.005 0
3.76 0.005 0
3.8 0.005 0
3.84 0.005 0
3.88 0.005 0
3.92 0.005 0
3.96 0.005 0
4 0.005 0
4.04 0.005 0
4.08 0.005 0
4.12 0.005 0
4.16 0.005 0
4.2 0.005 0
4.24 0.005 0
4.28 0.005 0
4.32 0.005 0
4.36 0.005 0
4.4 0.005 0
4.44 0.005 0
4.48 0.005 0
4.52 0.005 0
4.56 0.005 0
4.6 0.005 0
4.64 0.005 0
4.68 0.005 0
4.72 0.005 0
4.76 0.005 0
4.8 0.005 0
4.84 0.005 0
4.88 0.005 0
4.92 0.005 0
4.96 0.005 0
5 0.005 0
5.04 0.005 0
5.08 0.005 0
5.12 0.005 0
5.16 0.005 0
5.2 0.005 0
5.24 0.005 0
5.28 0.005 0
5.32 0.005 0
5.36 0.005 0
5.4 0.005 0
5.44 0.005 0
5.48 0.005 0
5.52 0.005 0
5.56 0.005 0
5.6 0.005 0
5.64 0.005 0
5.68 0.005 0
5.72 0.005 0
5.76 0.005 0
5.8 0.005 0
5.84 0.005 0
5.88 0.005 0
5.92 0.005 0
5.96 0.005 0
6 0.005 0
6.04 0.005 0
6.08 0.005 0
6.12 0.005 0
6.16 0.005 0
6.2 0.005 0
6.24 0.005 0
6.28 0.005 0
6.32 0.005 0
6.36 0.005 0
6.4 0.005 0
6.44 0.005 0
6.48 0.005 0
6.52 0.005 0
6.56 0.005 0
6.6 0.005 0
6.64 0.005 0
6.68 0.005 0
6.72 0.005 0
6.76 0.005 0
6.8 0.005 0
6.84 0.005 0
6.88 0.005 0
6.92 0.005 0
6.96 0.005 0
7 0.005 0
7.04 0.005 0
7.08 0.005 0
7.12 0.005 0
7.16 0.005 0
7.2 0.005 0
7.24 0.005 0
7.28 0.005 0
7.32 0.005 0
7.36 0.005 0
7.4 0.005 0
[...]
POINT_DATA 160000

SCALARS u float 1
LOOKUP_TABLE default
-1
-0.483358
-0.183963
-0.108845
-0.0810331
-0.0668337
-0.0581182
-0.0521527
-0.0477775
-0.0444146
-0.0417413
-0.0395615
-0.0377483
-0.0362154
-0.0349016
-0.0337625
-0.0327649
-0.0318831
-0.0310975
-0.0303924
-0.0297554
-0.0291765
-0.0286473
-0.0281612
-0.0277127
-0.0272969
-0.0269101
-0.0265489
-0.0262105
-0.0258926
-0.0255931
-0.0253102
-0.0250423
-0.0247882
-0.0245466
-0.0243166
-0.0240972
-0.0238876
-0.0236871
-0.023495
-0.0233108
-0.0231339
-0.0229639
-0.0228003
-0.0226427
-0.0224909
-0.0223443
-0.0222028
-0.0220661
-0.021934
-0.021806
-0.0216822
-0.0215622
-0.0214459
-0.021333
-0.0212235
-0.0211172
-0.0210139
-0.0209135
-0.0208158
-0.0207208
-0.0206284
-0.0205383
-0.0204506
-0.0203651
-0.0202818
-0.0202005
-0.0201212
-0.0200438
-0.0199683
-0.0198945
-0.0198224
-0.0197519
-0.0196831
-0.0196157
-0.0195499
-0.0194854
-0.0194224
-0.0193606
-0.0193002
-0.019241
-0.019183
-0.0191262
-0.0190705
-0.0190159
-0.0189624
-0.0189099
-0.0188584
-0.0188078
-0.0187582
-0.0187096
-0.0186618
-0.0186149
-0.0185688
-0.0185235
-0.018479
-0.0184354
-0.0183924
-0.0183502
-0.0183087
-0.0182679
-0.0182278
-0.0181883
-0.0181495
-0.0181113
-0.0180738
-0.0180368
-0.0180004
-0.0179646
-0.0179293
-0.0178946
-0.0178604
-0.0178268
-0.0177936
-0.0177609
-0.0177287
-0.017697
-0.0176658
-0.017635
-0.0176046
-0.0175747
-0.0175452
-0.0175162
-0.0174875
-0.0174592
-0.0174314
-0.0174039
-0.0173767
-0.01735
-0.0173236
-0.0172976
-0.0172719
-0.0172465
-0.0172215
-0.0171968
-0.0171725
-0.0171484
-0.0171247
-0.0171013
-0.0170781
-0.0170553
-0.0170327
-0.0170105
-0.0169885
-0.0169667
-0.0169453
-0.0169241
-0.0169032
-0.0168825
-0.0168621
-0.0168419
-0.016822
-0.0168023
-0.0167828
-0.0167636
-0.0167446
-0.0167258
-0.0167073
-0.0166889
-0.0166708
-0.0166529
-0.0166352
-0.0166177
-0.0166004
-0.0165833
-0.0165664
-0.0165496
-0.0165331
-0.0165168
-0.0165006
-0.0164846
-0.0164688
-0.0164532
-0.0164378
-0.0164225
-0.0164074
-0.0163924
-0.0163776
-0.016363
-0.0163486
-0.0163343
-0.0163201
-0.0163061
-0.0162923
-0.0162786
-0.016265
-0.0162516
-0.0162384
-0.0162252
-0.0162123
-0.0161994
-0.0161867
-0.0161742
-0.0161617
-0.0161494
-0.0161372
-0.0161252
-0.0161133
-0.0161015
-0.0160898
-0.0160782
-0.0160668
-0.0160555
-0.0160443
-0.0160332
-0.0160222
-0.0160114
-0.0160006
-0.01599
-0.0159795
-0.0159691
-0.0159587
-0.0159485
-0.0159384
-0.0159284
-0.0159185
-0.0159087
-0.015899
-0.0158894
-0.0158799
-0.0158705
-0.0158612
-0.015852
-0.0158429
-0.0158338
-0.0158249
-0.015816
-0.0158073
-0.0157986
-0.01579
-0.0157815
-0.0157731
-0.0157647
-0.0157565
-0.0157483
-0.0157402
-0.0157322
-0.0157243
-0.0157164
-0.0157087
-0.015701
-0.0156933
-0.0156858
-0.0156783
-0.0156709
-0.0156636
-0.0156563
-0.0156491
-0.015642
-0.015635
-0.015628
-0.0156211
-0.0156142
-0.0156075
-0.0156008
-0.0155941
-0.0155875
-0.015581
-0.0155746
-0.0155682
-0.0155619
-0.0155556
-0.0155494
-0.0155432
-0.0155372
-0.0155311
-0.0155252
-0.0155192
-0.0155134
-0.0155076
-0.0155019
-0.0154962
-0.0154905
-0.015485
-0.0154794
-0.015474
-0.0154685
-0.0154632
-0.0154578
-0.0154526
-0.0154474
-0.0154422
-0.0154371
-0.015432
-0.015427
-0.015422
-0.0154171
-0.0154122
-0.0154074
-0.0154026
-0.0153979
-0.0153932
-0.0153885
-0.0153839
-0.0153793
-0.0153748
-0.0153703
-0.0153659
-0.0153615
-0.0153572
-0.0153528
-0.0153486
-0.0153443
-0.0153401
-0.015336
-0.0153319
-0.0153278
-0.0153238
-0.0153198
-0.0153158
-0.0153119
-0.015308
-0.0153041
-0.0153003
-0.0152965
-0.0152928
-0.0152891
-0.0152854
-0.0152818
-0.0152782
-0.0152746
-0.015271
-0.0152675
-0.015264
-0.0152606
-0.0152572
-0.0152538
-0.0152505
-0.0152471
-0.0152438
-0.0152406
-0.0152373
-0.0152341
-0.015231
-0.0152278
-0.0152247
-0.0152216
-0.0152186
-0.0152155
-0.0152125
-0.0152096
-0.0152066
-0.0152037
-0.0152008
-0.0151979
-0.0151951
-0.0151923
-0.0151895
-0.0151867
-0.015184
-0.0151813
-0.0151786
-0.0151759
-0.0151732
-0.0151706
-0.015168
-0.0151655
-0.0151629
-0.0151604
-0.0151579
-0.0151554
-0.0151529
-0.0151505
-0.0151481
-0.0151457
-0.0151433
-0.0151409
-0.0151386
-0.0151363
-0.015134
-0.0151317
-0.0151295
-0.0151272
-0.015125
-0.0151228
-0.0151206
-0.0151185
-0.0151163
-0.0151142
-0.0151121
-0.01511
-0.015108
-0.0151059
-0.0151039
-0.0151019
-0.0150999
-0.0150979
-0.0150959
-0.015094
-0.0150921
-0.0150901
-0.0150882
-0.0150864
-0.0150845
-0.0150826
-0.0150808
-0.015079
-0.0150772
-0.0150754
-0.0150736
-0.0150719
-0.0150701
-0.0150684
-0.0150667
-0.015065
-0.0150633
-0.0150616
-0.01506
-0.0150583
-0.0150567
-0.0150551
-0.0150535
-0.0150519
-0.0150503
-0.0150487
-0.0150472
-0.0150457
-0.0150441
-0.0150426
-0.0150411
-0.0150396
-0.0150381
-0.0150367
-0.0150352
-0.0150338
-0.0150323
-0.0150309
-0.0150295
-0.0150281
-0.0150267
-0.0150254
-0.015024
-0.0150226
-0.0150213
-0.01502
-0.0150186
-0.0150173
-0.015016
-0.0150147
-0.0150135
-0.0150122
-0.0150109
-0.0150097
-0.0150085
-0.0150072
-0.015006
-0.0150048
-0.0150036
-0.0150024
-0.0150012
-0.0150001
-0.0149989
-0.0149978
-0.0149966
-0.0149955
-0.0149944
-0.0149933
-0.0149921
-0.0149911
-0.01499
-0.0149889
-0.0149878
-0.0149868
-0.0149857
-0.0149847
-0.0149837
-0.0149826
-0.0149816
-0.0149806
-0.0149796
-0.0149786
-0.0149777
-0.0149767
-0.0149757
-0.0149748
-0.0149738
-0.0149729
-0.014972
-0.0149711
-0.0149702
-0.0149693
-0.0149684
-0.0149675
-0.0149666
-0.0149658
-0.0149649
-0.0149641
-0.0149632
-0.0149624
-0.0149616
-0.0149608
-0.0149599
-0.0149591
-0.0149584
-0.0149576
-0.0149568
-0.014956
-0.0149553
-0.0149545
-0.0149538
-0.0149531
-0.0149523
-0.0149516
-0.0149509
-0.0149502
-0.0149495
-0.0149488
-0.0149481
-0.0149475
-0.0149468
-0.0149461
-0.0149455
-0.0149448
-0.0149442
-0.0149436
-0.0149429
-0.0149423
-0.0149417
-0.0149411
-0.0149405
-0.0149399
-0.0149393
-0.0149388
-0.0149382
-0.0149376
-0.0149371
-0.0149365
-0.014936
-0.0149354
-0.0149349
-0.0149344
-0.0149338
-0.0149333
-0.0149328
-0.0149323
-0.0149318
-0.0149313
-0.0149308
-0.0149303
-0.0149299
-0.0149294
-0.0149289
-0.0149285
-0.014928
-0.0149275
-0.0149271
-0.0149266
-0.0149262
-0.0149258
-0.0149253
-0.0149249
-0.0149245
-0.014924
-0.0149236
-0.0149232
-0.0149228
-0.0149224
-0.014922
-0.0149216
-0.0149212
-0.0149208
-0.0149204
-0.01492
-0.0149196
-0.0149193
-0.0149189
-0.0149185
-0.0149181
-0.0149178
-0.0149174
-0.014917
-0.0149167
-0.0149163
-0.0149159
-0.0149156
-0.0149152
-0.0149149
-0.0149145
-0.0149142
-0.0149138
-0.0149135
-0.0149131
-0.0149128
-0.0149125
-0.0149121
-0.0149118
-0.0149115
-0.0149111
-0.0149108
-0.0149105
-0.0149101
-0.0149098
-0.0149095
-0.0149091
-0.0149088
-0.0149085
-0.0149082
-0.0149078
-0.0149075
-0.0149072
-0.0149069
-0.0149066
-0.0149062
-0.0149059
-0.0149056
-0.0149053
-0.014905
-0.0149046
-0.0149043
-0.014904
-0.0149037
-0.0149034
-0.0149031
-0.0149028
-0.0149024
-0.0149021
-0.0149018
-0.0149015
-0.0149012
-0.0149009
-0.0149006
-0.0149002
-0.0148999
-0.0148996
-0.0148993
-0.014899
-0.0148987
-0.0148984
-0.0148981
-0.0148978
-0.0148974
-0.0148971
-0.0148968
-0.0148965
-0.0148962
-0.0148959
-0.0148956
-0.0148953
-0.014895
-0.0148947
-0.0148943
-0.014894
-0.0148937
-0.0148934
-0.0148931
-0.0148928
-0.0148925
-0.0148922
-0.0148919
-0.0148916
-0.0148913
-0.0148909
-0.0148906
-0.0148903
-0.01489
-0.0148897
-0.0148894
-0.0148891
-0.0148888
-0.0148885
-0.0148882
-0.0148878
-0.0148875
-0.0148872
-0.0148869
-0.0148866
-0.0148863
-0.014886
-0.0148857
-0.0148854
-0.0148851
-0.0148848
-0.0148844
-0.0148841
-0.0148838
-0.0148835
-0.0148832
-0.0148829
-0.0148826
-0.0148823
-0.014882
-0.0148817
-0.0148813
-0.014881
-0.0148807
-0.0148804
-0.0148801
-0.0148798
-0.0148795
-0.0148792
-0.0148789
-0.0148786
-0.0148783
-0.0148779
-0.0148776
-0.0148773
-0.014877
-0.0148767
-0.0148764
-0.0148761
-0.0148758
-0.0148755
-0.0148752
-0.0148748
-0.0148745
-0.0148742
-0.0148739
-0.0148736
-0.0148733
-0.014873
-0.0148727
-0.0148724
-0.0148721
-0.0148718
-0.0148714
-0.0148711
-0.0148708
-0.0148705
-0.0148702
-0.0148699
-0.0148696
-0.0148693
-0.014869
-0.0148687
-0.0148683
-0.014868
-0.0148677
-0.0148674
-0.0148671
-0.0148668
-0.0148665
-0.0148662
-0.0148659
-0.0148656
-0.0148653
-0.0148649
-0.0148646
-0.0148643
-0.014864
-0.0148637
-0.0148634
-0.0148631
-0.0148628
-0.0148625
-0.0148622
-0.0148618
-0.0148615
-0.0148612
-0.0148609
-0.0148606
-0.0148603
-0.01486
-0.0148597
-0.0148594
-0.0148591
-0.0148588
-0.0148584
-0.0148581
-0.0148578
-0.0148575
-0.0148572
-0.0148569
-0.0148566
-0.0148563
-0.014856
-0.0148557
-0.0148553
-0.014855
-0.0148547
-0.0148544
-0.0148541
-0.0148538
-0.0148535
-0.0148532
-0.0148529
-0.0148525
-0.0148522
-0.0148519
-0.0148516
-0.0148513
-0.014851
-0.0148506
-0.0148503
-0.01485
-0.0148497
-0.0148493
-0.014849
-0.0148486
-0.0148482
-0.0148478
-0.0148474
-0.014847
-0.0148465
-0.0148459
-0.0148453
-0.0148446
-0.0148436
-0.0148432
-0.0148432
-0.0148432
1
0.483358
0.183963
0.108845
0.0810331
0.0668337
0.0581182
0.0521527
0.0477775
0.0444146
0.0417413
0.0395615
0.0377483
0.0362154
0.0349016
0.0337625
0.0327649
0.0318831
0.0310975
0.0303924
0.0297554
0.0291765
0.0286473
0.0281612
0.0277127
0.0272969
0.0269101
0.0265489
0.0262105
0.0258926
0.0255931
0.0253102
0.0250423
0.0247882
0.0245466
0.0243166
0.0240972
0.0238876
0.0236871
0.023495
0.0233108
0.0231339
0.0229639
0.0228003
0.0226427
0.0224909
0.0223443
0.0222028
0.0220661
0.021934
0.021806
0.0216822
0.0215622
0.0214459
0.021333
0.0212235
0.0211172
0.0210139
0.0209135
0.0208158
0.0207208
0.0206284
0.0205383
0.0204506
0.0203651
0.0202818
0.0202005
0.0201212
0.0200438
0.0199683
0.0198945
0.0198224
0.0197519
0.0196831
0.0196157
0.0195499
0.0194854
0.0194224
0.0193606
0.0193002
0.019241
0.019183
0.0191262
0.0190705
0.0190159
0.0189624
0.0189099
0.0188584
0.0188078
0.0187582
0.0187096
0.0186618
0.0186149
0.0185688
0.0185235
0.018479
0.0184354
0.0183924
0.0183502
0.0183087
0.0182679
0.0182278
0.0181883
0.0181495
0.0181113
0.0180738
0.0180368
0.0180004
0.0179646
0.0179293
0.0178946
0.0178604
0.0178268
0.0177936
0.0177609
0.0177287
0.017697
0.0176658
0.017635
0.0176046
0.0175747
0.0175452
0.0175162
0.0174875
0.0174592
0.0174314
0.0174039
0.0173767
0.01735
0.0173236
0.0172976
0.0172719
0.0172465
0.0172215
0.0171968
0.0171725
0.0171484
0.0171247
0.0171013
0.0170781
0.0170553
0.0170327
0.0170105
0.0169885
0.0169667
0.0169453
0.0169241
0.0169032
0.0168825
0.0168621
0.0168419
0.016822
0.0168023
0.0167828
0.0167636
0.0167446
0.0167258
0.0167073
0.0166889
0.0166708
0.0166529
0.0166352
0.0166177
0.0166004
0.0165833
0.0165664
0.0165496
0.0165331
0.0165168
0.0165006
0.0164846
0.0164688
0.0164532
0.0164378
0.0164225
0.0164074
0.0163924
0.0163776
0.016363
0.0163486
0.0163343
0.0163201
0.0163061
0.0162923
0.0162786
0.016265
0.0162516
0.0162384
0.0162252
0.0162123
0.0161994
0.0161867
0.0161742
0.0161617
0.0161494
0.0161372
0.0161252
0.0161133
0.0161015
0.0160898
0.0160782
0.0160668
0.0160555
0.0160443
0.0160332
0.0160222
0.0160114
0.0160006
0.01599
0.0159795
0.0159691
0.0159587
0.0159485
0.0159384
0.0159284
0.0159185
0.0159087
0.015899
0.0158894
0.0158799
0.0158705
0.0158612
0.015852
0.0158429
0.0158338
0.0158249
0.015816
0.0158073
0.0157986
0.01579
0.0157815
0.0157731
0.0157647
0.0157565
0.0157483
0.0157402
0.0157322
0.0157243
0.0157164
0.0157087
0.015701
0.0156933
0.0156858
0.0156783
0.0156709
0.0156636
0.0156563
0.0156491
0.015642
0.015635
0.015628
0.0156211
0.0156142
0.0156075
0.0156008
0.0155941
0.0155875
0.015581
0.0155746
0.0155682
0.0155619
0.0155556
0.0155494
0.0155432
0.0155372
0.0155311
0.0155252
0.0155192
0.0155134
0.0155076
0.0155019
0.0154962
0.0154905
0.015485
0.0154794
0.015474
0.0154685
0.0154632
0.0154578
0.0154526
0.0154474
0.0154422
0.0154371
0.015432
0.015427
0.015422
0.0154171
0.0154122
0.0154074
0.0154026
0.0153979
0.0153932
0.0153885
0.0153839
0.0153793
0.0153748
0.0153703
0.0153659
0.0153615
0.0153572
0.0153528
0.0153486
0.0153443
0.0153401
0.015336
0.0153319
0.0153278
0.0153238
0.0153198
0.0153158
0.0153119
0.015308
0.0153041
0.0153003
0.0152965
0.0152928
0.0152891
0.0152854
0.0152818
0.0152782
0.0152746
0.015271
0.0152675
0.015264
0.0152606
0.0152572
0.0152538
0.0152505
0.0152471
0.0152438
0.0152406
0.0152373
0.0152341
0.015231
0.0152278
0.0152247
0.0152216
0.0152186
0.0152155
0.0152125
0.0152096
0.0152066
0.0152037
0.0152008
0.0151979
0.0151951
0.0151923
0.0151895
0.0151867
0.015184
0.0151813
0.0151786
0.0151759
0.0151732
0.0151706
0.015168
0.0151655
0.0151629
0.0151604
0.0151579
0.0151554
0.0151529
0.0151505
0.0151481
0.0151457
0.0151433
0.0151409
0.0151386
0.0151363
0.015134
0.0151317
0.0151295
0.0151272
0.015125
0.0151228
0.0151206
0.0151185
0.0151163
0.0151142
0.0151121
0.01511
0.015108
0.0151059
0.0151039
0.0151019
0.0150999
0.0150979
0.0150959
0.015094
0.0150921
0.0150901
0.0150882
0.0150864
0.0150845
0.0150826
0.0150808
0.015079
0.0150772
0.0150754
0.0150736
0.0150719
0.0150701
0.0150684
0.0150667
0.015065
0.0150633
0.0150616
0.01506
0.0150583
0.0150567
0.0150551
0.0150535
0.0150519
0.0150503
0.0150487
0.0150472
0.0150457
0.0150441
0.0150426
0.0150411
0.0150396
0.0150381
0.0150367
0.0150352
0.0150338
0.0150323
0.0150309
0.0150295
0.0150281
0.0150267
0.0150254
0.015024
0.0150226
0.0150213
0.01502
0.0150186
0.0150173
0.015016
0.0150147
0.0150135
0.0150122
0.0150109
0.0150097
0.0150085
0.0150072
0.015006
0.0150048
0.0150036
0.0150024
0.0150012
0.0150001
0.0149989
0.0149978
0.0149966
0.0149955
0.0149944
0.0149933
0.0149921
0.0149911
0.01499
0.0149889
0.0149878
0.0149868
0.0149857
0.0149847
0.0149837
0.0149826
0.0149816
0.0149806
0.0149796
0.0149786
0.0149777
0.0149767
0.0149757
0.0149748
0.0149738
0.0149729
0.014972
0.0149711
0.0149702
0.0149693
0.0149684
0.0149675
0.0149666
0.0149658
0.0149649
0.0149641
0.0149632
0.0149624
0.0149616
0.0149608
0.0149599
0.0149591
0.0149584
0.0149576
0.0149568
0.014956
0.0149553
0.0149545
0.0149538
0.0149531
0.0149523
0.0149516
0.0149509
0.0149502
0.0149495
0.0149488
0.0149481
0.0149475
0.0149468
0.0149461
0.0149455
0.0149448
0.0149442
0.0149436
0.0149429
0.0149423
0.0149417
0.0149411
0.0149405
0.0149399
0.0149393
0.0149388
0.0149382
0.0149376
0.0149371
0.0149365
0.014936
0.0149354
0.0149349
0.0149344
0.0149338
0.0149333
0.0149328
0.0149323
0.0149318
0.0149313
0.0149308
0.0149303
0.0149299
0.0149294
0.0149289
0.0149285
0.014928
0.0149275
0.0149271
0.0149266
0.0149262
0.0149258
0.0149253
0.0149249
0.0149245
0.014924
0.0149236
0.0149232
0.0149228
0.0149224
0.014922
0.0149216
0.0149212
0.0149208
0.0149204
0.01492
0.0149196
0.0149193
0.0149189
0.0149185
0.0149181
0.0149178
0.0149174
0.014917
0.0149167
0.0149163
0.0149159
0.0149156
0.0149152
0.0149149
0.0149145
0.0149142
0.0149138
0.0149135
0.0149131
0.0149128
0.0149125
0.0149121
0.0149118
0.0149115
0.0149111
0.0149108
0.0149105
0.0149101
0.0149098
0.0149095
0.0149091
0.0149088
0.0149085
0.0149082
0.0149078
0.0149075
0.0149072
0.0149069
0.0149066
0.0149062
0.0149059
0.0149056
0.0149053
0.014905
0.0149046
0.0149043
0.014904
0.0149037
0.0149034
0.0149031
0.0149028
0.0149024
0.0149021
0.0149018
0.0149015
0.0149012
0.0149009
0.0149006
0.0149002
0.0148999
0.0148996
0.0148993
0.014899
0.0148987
0.0148984
0.0148981
0.0148978
0.0148974
0.0148971
0.0148968
0.0148965
0.0148962
0.0148959
0.0148956
0.0148953
0.014895
0.0148947
0.0148943
0.014894
0.0148937
0.0148934
0.0148931
0.0148928
0.0148925
0.0148922
0.0148919
0.0148916
0.0148913
0.0148909
0.0148906
0.0148903
0.01489
0.0148897
0.0148894
0.0148891
0.0148888
0.0148885
0.0148882
0.0148878
0.0148875
0.0148872
0.0148869
0.0148866
0.0148863
0.014886
0.0148857
0.0148854
0.0148851
0.0148848
0.0148844
0.0148841
0.0148838
0.0148835
0.0148832
0.0148829
0.0148826
0.0148823
0.014882
0.0148817
0.0148813
0.014881
0.0148807
0.0148804
0.0148801
0.0148798
0.0148795
0.0148792
0.0148789
0.0148786
0.0148783
0.0148779
0.0148776
0.0148773
0.014877
0.0148767
0.0148764
0.0148761
0.0148758
0.0148755
0.0148752
0.0148748
0.0148745
0.0148742
0.0148739
0.0148736
0.0148733
0.014873
0.0148727
0.0148724
0.0148721
0.0148718
0.0148714
0.0148711
0.0148708
0.0148705
0.0148702
0.0148699
0.0148696
0.0148693
0.014869
0.0148687
0.0148683
0.014868
0.0148677
0.0148674
0.0148671
0.0148668
0.0148665
0.0148662
0.0148659
0.0148656
0.0148653
0.0148649
0.0148646
0.0148643
0.014864
0.0148637
0.0148634
0.0148631
0.0148628
0.0148625
0.0148622
0.0148618
0.0148615
0.0148612
0.0148609
0.0148606
0.0148603
0.01486
0.0148597
0.0148594
0.0148591
0.0148588
0.0148584
0.0148581
0.0148578
0.0148575
0.0148572
0.0148569
0.0148566
0.0148563
0.014856
0.0148557
0.0148553
0.014855
0.0148547
0.0148544
0.0148541
0.0148538
0.0148535
0.0148532
0.0148529
0.0148525
0.0148522
0.0148519
0.0148516
0.0148513
0.014851
0.0148506
0.0148503
0.01485
0.0148497
0.0148493
0.014849
0.0148486
0.0148482
0.0148478
0.0148474
0.014847
0.0148465
0.0148459
0.0148453
0.0148446
0.0148436
0.0148432
0.0148432
0.0148432
1
0.969192
0.495617
0.314223
0.237897
0.197396
0.172133
0.154696
0.141842
0.131928
0.124028
0.117574
0.112197
0.107646
0.103742
0.100355
0.0973868
0.0947624
0.0924236
0.0903243
0.0884276
0.0867037
0.0851283
0.0836813
0.0823462
0.0811092
0.0799585
0.0788843
0.0778783
0.0769334
0.0760434
0.0752029
0.0744075
0.073653
0.072936
0.0722534
0.0716025
0.0709808
0.0703861
0.0698166
0.0692705
0.0687462
0.0682423
0.0677575
0.0672907
0.0668408
0.0664068
0.0659878
0.0655829
0.0651915
0.0648128
0.0644462
0.064091
0.0637466
0.0634127
0.0630886
0.0627739
0.0624682
0.0621711
0.0618821
0.061601
0.0613275
0.0610611
0.0608016
0.0605487
0.0603022
0.0600618
0.0598273
0.0595984
0.0593749
0.0591567
0.0589435
0.0587352
0.0585316
0.0583325
0.0581377
0.0579472
0.0577607
0.0575782
0.0573995
0.0572245
0.0570531
0.0568851
0.0567204
0.0565591
0.0564008
0.0562456
0.0560934
0.055944
0.0557975
0.0556536
0.0555124
0.0553737
0.0552375
0.0551038
0.0549724
0.0548432
0.0547164
0.0545916
0.054469
0.0543485
0.0542299
0.0541134
0.0539987
0.0538859
0.0537749
0.0536656
0.0535581
0.0534523
0.0533481
0.0532455
0.0531445
0.0530451
0.0529471
0.0528506
0.0527556
0.0526619
0.0525696
0.0524786
0.052389
0.0523006
0.0522135
0.0521277
0.052043
0.0519595
0.0518772
0.051796
0.0517159
0.0516369
0.051559
0.0514821
0.0514063
0.0513314
0.0512576
0.0511847
0.0511128
0.0510418
0.0509717
0.0509025
0.0508342
0.0507667
0.0507001
0.0506344
0.0505695
0.0505053
0.050442
0.0503795
0.0503177
0.0502567
0.0501964
0.0501368
0.050078
0.0500199
0.0499624
0.0499057
0.0498496
0.0497942
0.0497394
0.0496853
0.0496318
0.0495789
0.0495266
0.049475
0.0494239
0.0493734
0.0493235
0.0492742
0.0492254
0.0491771
0.0491295
0.0490823
0.0490357
0.0489896
0.048944
0.0488989
0.0488543
0.0488102
0.0487666
0.0487234
0.0486808
0.0486386
0.0485968
0.0485555
0.0485147
0.0484743
0.0484343
0.0483947
0.0483556
0.0483169
0.0482786
0.0482408
0.0482033
0.0481662
0.0481295
0.0480932
0.0480573
0.0480217
0.0479865
0.0479517
0.0479173
0.0478832
0.0478495
0.0478161
0.0477831
0.0477504
0.047718
0.047686
0.0476543
0.0476229
0.0475919
0.0475612
0.0475307
0.0475006
0.0474708
0.0474413
0.0474122
0.0473833
0.0473547
0.0473263
0.0472983
0.0472706
0.0472431
0.0472159
0.047189
0.0471624
0.047136
0.0471099
0.047084
0.0470584
0.0470331
0.047008
0.0469832
0.0469586
0.0469342
0.0469101
0.0468863
0.0468626
0.0468392
0.0468161
0.0467931
0.0467704
0.0467479
0.0467257
0.0467036
0.0466818
0.0466602
0.0466388
0.0466176
0.0465966
0.0465759
0.0465553
0.0465349
0.0465147
0.0464948
0.046475
0.0464554
0.046436
0.0464168
0.0463977
0.0463789
0.0463603
0.0463418
0.0463235
0.0463054
0.0462874
0.0462696
0.046252
0.0462346
0.0462173
0.0462002
0.0461833
0.0461665
0.0461499
0.0461335
0.0461172
0.046101
0.0460851
0.0460692
0.0460536
0.046038
0.0460226
0.0460074
0.0459923
0.0459774
0.0459626
0.0459479
0.0459334
0.045919
0.0459048
0.0458906
0.0458767
0.0458628
0.0458491
0.0458355
0.0458221
0.0458087
0.0457955
0.0457824
0.0457695
0.0457566
0.0457439
0.0457313
0.0457189
0.0457065
0.0456942
0.0456821
0.0456701
0.0456582
0.0456464
0.0456347
0.0456231
0.0456117
0.0456003
0.0455891
0.0455779
0.0455669
0.0455559
0.0455451
0.0455343
0.0455237
0.0455131
0.0455027
0.0454923
0.0454821
0.0454719
0.0454618
0.0454519
0.045442
0.0454322
0.0454225
0.0454129
0.0454033
0.0453939
0.0453845
0.0453753
0.0453661
0.045357
0.045348
0.045339