# vtk DataFile Version 2.0
FlowField
ASCII
DATASET STRUCTURED_GRID
DIMENSIONS 800 1 200
POINTS 160000 float
0 0 0
0.04 0 0
0.08 0 0
0.12 0 0
0.16 0 0
0.2 0 0
0.24 0 0
0.28 0 0
0.32 0 0
0.36 0 0
0.4 0 0
0.44 0 0
0.48 0 0
0.52 0 0
0.56 0 0
0.6 0 0
0.64 0 0
0.68 0 0
0.72 0 0
0.76 0 0
0.8 0 0
0.84 0 0
0.88 0 0
0.92 0 0
0.96 0 0
1 0 0
1.04 0 0
1.08 0 0
1.12 0 0
1.16 0 0
1.2 0 0
1.24 0 0
1.28 0 0
1.32 0 0
1.36 0 0
1.4 0 0
1.44 0 0
1.48 0 0
1.52 0 0
1.56 0 0
1.6 0 0
1.64 0 0
1.68 0 0
1.72 0 0
1.76 0 0
1.8 0 0
1.84 0 0
1.88 0 0
1.92 0 0
1.96 0 0
2 0 0
2.04 0 0
2.08 0 0
2.12 0 0
2.16 0 0
2.2 0 0
2.24 0 0
2.28 0 0
2.32 0 0
2.36 0 0
2.4 0 0
2.44 0 0
2.48 0 0
2.52 0 0
2.56 0 0
2.6 0 0
2.64 0 0
2.68 0 0
2.72 0 0
2.76 0 0
2.8 0 0
2.84 0 0
2.88 0 0
2.92 0 0
2.96 0 0
3 0 0
3.04 0 0
3.08 0 0
3.12 0 0
3.16 0 0
3.2 0 0
3.24 0 0
3.28 0 0
3.32 0 0
3.36 0 0
3.4 0 0
3.44 0 0
3.48 0 0
3.52 0 0
3.56 0 0
3.6 0 0
3.64 0 0
3.68 0 0
3.72 0 0
3.76 0 0
3.8 0 0
3.84 0 0
3.88 0 0
3.92 0 0
3.96 0 0
4 0 0
4.04 0 0
4.08 0 0
4.12 0 0
4.16 0 0
4.2 0 0
4.24 0 0
4.28 0 0
4.32 0 0
4.36 0 0
4.4 0 0
4.44 0 0
4.48 0 0
4.52 0 0
4.56 0 0
4.6 0 0
4.64 0 0
4.68 0 0
4.72 0 0
4.76 0 0
4.8 0 0
4.84 0 0
4.88 0 0
4.92 0 0
4.96 0 0
5 0 0
5.04 0 0
5.08 0 0
5.12 0 0
5.16 0 0
5.2 0 0
5.24 0 0
5.28 0 0
5.32 0 0
5.36 0 0
5.4 0 0
5.44 0 0
5.48 0 0
5.52 0 0
5.56 0 0
5.6 0 0
5.64 0 0
5.68 0 0
5.72 0 0
5.76 0 0
5.8 0 0
5.84 0 0
5.88 0 0
5.92 0 0
5.96 0 0
6 0 0
6.04 0 0
6.08 0 0
6.12 0 0
6.16 0 0
6.2 0 0
6.24 0 0
6.28 0 0
6.32 0 0
6.36 0 0
6.4 0 0
6.44 0 0
6.48 0 0
6.52 0 0
6.56 0 0
6.6 0 0
6.64 0 0
6.68 0 0
6.72 0 0
6.76 0 0
6.8 0 0
6.84 0 0
6.88 0 0
6.92 0 0
6.96 0 0
7 0 0
7.04 0 0
7.08 0 0
7.12 0 0
7.16 0 0
7.2 0 0
7.24 0 0
7.28 0 0
7.32 0 0
7.36 0 0
7.4 0 0
7.44 0 0
7.48 0 0
7.52 0 0
7.56 0 0
7.6 0 0
7.64 0 0
7.68 0 0
7.72 0 0
7.76 0 0
7.8 0 0
7.84 0 0
7.88 0 0
7.92 0 0
7.96 0 0
8 0 0
8.04 0 0
8.08 0 0
8.12 0 0
8.16 0 0
8.2 0 0
8.24 0 0
8.28 0 0
8.32 0 0
8.36 0 0
8.4 0 0
8.44 0 0
8.48 0 0
8.52 0 0
8.56 0 0
8.6 0 0
8.64 0 0
8.68 0 0
8.72 0 0
8.76 0 0
8.8 0 0
8.84 0 0
8.88 0 0
8.92 0 0
8.96 0 0
9 0 0
9.04 0 0
9.08 0 0
9.12 0 0
9.16 0 0
9.2 0 0
9.24 0 0
9.28 0 0
9.32 0 0
9.36 0 0
9.4 0 0
9.44 0 0
9.48 0 0
9.52 0 0
9.56 0 0
9.6 0 0
9.64 0 0
9.68 0 0
9.72 0 0
9.76 0 0
9.8 0 0
9.84 0 0
9.88 0 0
9.92 0 0
9.96 0 0
10 0 0
10.04 0 0
10.08 0 0
10.12 0 0
10.16 0 0
10.2 0 0
10.24 0 0
10.28 0 0
10.32 0 0
10.36 0 0
10.4 0 0
10.44 0 0
10.48 0 0
10.52 0 0
10.56 0 0
10.6 0 0
10.64 0 0
10.68 0 0
10.72 0 0
10.76 0 0
10.8 0 0
10.84 0 0
10.88 0 0
10.92 0 0
10.96 0 0
11 0 0
11.04 0 0
11.08 0 0
11.12 0 0
11.16 0 0
11.2 0 0
11.24 0 0
11.28 0 0
11.32 0 0
11.36 0 0
11.4 0 0
11.44 0 0
11.48 0 0
11.52 0 0
11.56 0 0
11.6 0 0
11.64 0 0
11.68 0 0
11.72 0 0
11.76 0 0
11.8 0 0
11.84 0 0
11.88 0 0
11.92 0 0
11.96 0 0
12 0 0
12.04 0 0
12.08 0 0
12.12 0 0
12.16 0 0
12.2 0 0
12.24 0 0
12.28 0 0
12.32 0 0
12.36 0 0
12.4 0 0
12.44 0 0
12.48 0 0
12.52 0 0
12.56 0 0
12.6 0 0
12.64 0 0
12.68 0 0
12.72 0 0
12.76 0 0
12.8 0 0
12.84 0 0
12.88 0 0
12.92 0 0
12.96 0 0
13 0 0
13.04 0 0
13.08 0 0
13.12 0 0
13.16 0 0
13.2 0 0
13.24 0 0
13.28 0 0
13.32 0 0
13.36 0 0
13.4 0 0
13.44 0 0
13.48 0 0
13.52 0 0
13.56 0 0
13.6 0 0
13.64 0 0
13.68 0 0
13.72 0 0
13.76 0 0
13.8 0 0
13.84 0 0
13.88 0 0
13.92 0 0
13.96 0 0
14 0 0
14.04 0 0
14.08 0 0
14.12 0 0
14.16 0 0
14.2 0 0
14.24 0 0
14.28 0 0
14.32 0 0
14.36 0 0
14.4 0 0
14.44 0 0
14.48 0 0
14.52 0 0
14.56 0 0
14.6 0 0
14.64 0 0
14.68 0 0
14.72 0 0
14.76 0 0
14.8 0 0
14.84 0 0
14.88 0 0
14.92 0 0
14.96 0 0
15 0 0
15.04 0 0
15.08 0 0
15.12 0 0
15.16 0 0
15.2 0 0
15.24 0 0
15.28 0 0
15.32 0 0
15.36 0 0
15.4 0 0
15.44 0 0
15.48 0 0
15.52 0 0
15.56 0 0
15.6 0 0
15.64 0 0
15.68 0 0
15.72 0 0
15.76 0 0
15.8 0 0
15.84 0 0
15.88 0 0
15.92 0 0
15.96 0 0
16 0 0
16.04 0 0
16.08 0 0
16.12 0 0
16.16 0 0
16.2 0 0
16.24 0 0
16.28 0 0
16.32 0 0
16.36 0 0
16.4 0 0
16.44 0 0
16.48 0 0
16.52 0 0
16.56 0 0
16.6 0 0
16.64 0 0
16.68 0 0
16.72 0 0
16.76 0 0
16.8 0 0
16.84 0 0
16.88 0 0
16.92 0 0
16.96 0 0
17 0 0
17.04 0 0
17.08 0 0
17.12 0 0
17.16 0 0
17.2 0 0
17.24 0 0
17.28 0 0
17.32 0 0
17.36 0 0
17.4 0 0
17.44 0 0
17.48 0 0
17.52 0 0
17.56 0 0
17.6 0 0
17.64 0 0
17.68 0 0
17.72 0 0
17.76 0 0
17.8 0 0
17.84 0 0
17.88 0 0
17.92 0 0
17.96 0 0
18 0 0
18.04 0 0
18.08 0 0
18.12 0 0
18.16 0 0
18.2 0 0
18.24 0 0
18.28 0 0
18.32 0 0
18.36 0 0
18.4 0 0
18.44 0 0
18.48 0 0
18.52 0 0
18.56 0 0
18.6 0 0
18.64 0 0
18.68 0 0
18.72 0 0
18.76 0 0
18.8 0 0
18.84 0 0
18.88 0 0
18.92 0 0
18.96 0 0
19 0 0
19.04 0 0
19.08 0 0
19.12 0 0
19.16 0 0
19.2 0 0
19.24 0 0
19.28 0 0
19.32 0 0
19.36 0 0
19.4 0 0
19.44 0 0
19.48 0 0
19.52 0 0
19.56 0 0
19.6 0 0
19.64 0 0
19.68 0 0
19.72 0 0
19.76 0 0
19.8 0 0
19.84 0 0
19.88 0 0
19.92 0 0
19.96 0 0
20 0 0
20.04 0 0
20.08 0 0
20.12 0 0
20.16 0 0
20.2 0 0
20.24 0 0
20.28 0 0
20.32 0 0
20.36 0 0
20.4 0 0
20.44 0 0
20.48 0 0
20.52 0 0
20.56 0 0
20.6 0 0
20.64 0 0
20.68 0 0
20.72 0 0
20.76 0 0
20.8 0 0
20.84 0 0
20.88 0 0
20.92 0 0
20.96 0 0
21 0 0
21.04 0 0
21.08 0 0
21.12 0 0
21.16 0 0
21.2 0 0
21.24 0 0
21.28 0 0
21.32 0 0
21.36 0 0
21.4 0 0
21.44 0 0
21.48 0 0
21.52 0 0
21.56 0 0
21.6 0 0
21.64 0 0
21.68 0 0
21.72 0 0
21.76 0 0
21.8 0 0
21.84 0 0
21.88 0 0
21.92 0 0
21.96 0 0
22 0 0
22.04 0 0
22.08 0 0
22.12 0 0
22.16 0 0
22.2 0 0
22.24 0 0
22.28 0 0
22.32 0 0
22.36 0 0
22.4 0 0
22.44 0 0
22.48 0 0
22.52 0 0
22.56 0 0
22.6 0 0
22.64 0 0
22.68 0 0
22.72 0 0
22.76 0 0
22.8 0 0
22.84 0 0
22.88 0 0
22.92 0 0
22.96 0 0
23 0 0
23.04 0 0
23.08 0 0
23.12 0 0
23.16 0 0
23.2 0 0
23.24 0 0
23.28 0 0
23.32 0 0
23.36 0 0
23.4 0 0
23.44 0 0
23.48 0 0
23.52 0 0
23.56 0 0
23.6 0 0
23.64 0 0
23.68 0 0
23.72 0 0
23.76 0 0
23.8 0 0
23.84 0 0
23.88 0 0
23.92 0 0
23.96 0 0
24 0 0
24.04 0 0
24.08 0 0
24.12 0 0
24.16 0 0
24.2 0 0
24.24 0 0
24.28 0 0
24.32 0 0
24.36 0 0
24.4 0 0
24.44 0 0
24.48 0 0
24.52 0 0
24.56 0 0
24.6 0 0
24.64 0 0
24.68 0 0
24.72 0 0
24.76 0 0
24.8 0 0
24.84 0 0
24.88 0 0
24.92 0 0
24.96 0 0
25 0 0
25.04 0 0
25.08 0 0
25.12 0 0
25.16 0 0
25.2 0 0
25.24 0 0
25.28 0 0
25.32 0 0
25.36 0 0
25.4 0 0
25.44 0 0
25.48 0 0
25.52 0 0
25.56 0 0
25.6 0 0
25.64 0 0
25.68 0 0
25.72 0 0
25.76 0 0
25.8 0 0
25.84 0 0
25.88 0 0
25.92 0 0
25.96 0 0
26 0 0
26.04 0 0
26.08 0 0
26.12 0 0
26.16 0 0
26.2 0 0
26.24 0 0
26.28 0 0
26.32 0 0
26.36 0 0
26.4 0 0
26.44 0 0
26.48 0 0
26.52 0 0
26.56 0 0
26.6 0 0
26.64 0 0
26.68 0 0
26.72 0 0
26.76 0 0
26.8 0 0
26.84 0 0
26.88 0 0
26.92 0 0
26.96 0 0
27 0 0
27.04 0 0
27.08 0 0
27.12 0 0
27.16 0 0
27.2 0 0
27.24 0 0
27.28 0 0
27.32 0 0
27.36 0 0
27.4 0 0
27.44 0 0
27.48 0 0
27.52 0 0
27.56 0 0
27.6 0 0
27.64 0 0
27.68 0 0
27.72 0 0
27.76 0 0
27.8 0 0
27.84 0 0
27.88 0 0
27.92 0 0
27.96 0 0
28 0 0
28.04 0 0
28.08 0 0
28.12 0 0
28.16 0 0
28.2 0 0
28.24 0 0
28.28 0 0
28.32 0 0
28.36 0 0
28.4 0 0
28.44 0 0
28.48 0 0
28.52 0 0
28.56 0 0
28.6 0 0
28.64 0 0
28.68 0 0
28.72 0 0
28.76 0 0
28.8 0 0
28.84 0 0
28.88 0 0
28.92 0 0
28.96 0 0
29 0 0
29.04 0 0
29.08 0 0
29.12 0 0
29.16 0 0
29.2 0 0
29.24 0 0
29.28 0 0
29.32 0 0
29.36 0 0
29.4 0 0
29.44 0 0
29.48 0 0
29.52 0 0
29.56 0 0
29.6 0 0
29.64 0 0
29.68 0 0
29.72 0 0
29.76 0 0
29.8 0 0
29.84 0 0
29.88 0 0
29.92 0 0
29.96 0 0
30 0 0
30.04 0 0
30.08 0 0
30.12 0 0
30.16 0 0
30.2 0 0
30.24 0 0
30.28 0 0
30.32 0 0
30.36 0 0
30.4 0 0
30.44 0 0
30.48 0 0
30.52 0 0
30.56 0 0
30.6 0 0
30.64 0 0
30.68 0 0
30.72 0 0
30.76 0 0
30.8 0 0
30.84 0 0
30.88 0 0
30.92 0 0
30.96 0 0
31 0 0
31.04 0 0
31.08 0 0
31.12 0 0
31.16 0 0
31.2 0 0
31.24 0 0
31.28 0 0
31.32 0 0
31.36 0 0
31.4 0 0
31.44 0 0
31.48 0 0
31.52 0 0
31.56 0 0
31.6 0 0
31.64 0 0
31.68 0 0
31.72 0 0
31.76 0 0
31.8 0 0
31.84 0 0
31.88 0 0
31.92 0 0
31.96 0 0
0 0.005 0
0.04 0.005 0
0.08 0.005 0
0.12 0.005 0
0.16 0.005 0
0.2 0.005 0
0.24 0.005 0
0.28 0.005 0
0.32 0.005 0
0.36 0.005 0
0.4 0.005 0
0.44 0.005 0
0.48 0.005 0
0.52 0.005 0
0.56 0.005 0
0.6 0.005 0
0.64 0.005 0
0.68 0.005 0
0.72 0.005 0
0.76 0.005 0
0.8 0.005 0
0.84 0.005 0
0.88 0.005 0
0.92 0.005 0
0.96 0.005 0
1 0.005 0
1.04 0.005 0
1.08 0.005 0
1.12 0.005 0
1.16 0.005 0
1.2 0.005 0
1.24 0.005 0
1.28 0.005 0
1.32 0.005 0
1.36 0.005 0
1.4 0.005 0
1.44 0.005 0
1.48 0.005 0
1.52 0.005 0
1.56 0.005 0
1.6 0.005 0
1.64 0.005 0
1.68 0.005 0
1.72 0.005 0
1.76 0.005 0
1.8 0.005 0
1.84 0.005 0
1.88 0.005 0
1.92 0.005 0
1.96 0.005 0
2 0.005 0
2.04 0.005 0
2.08 0.005 0
2.12 0.005 0
2.16 0.005 0
2.2 0.005 0
2.24 0.005 0
2.28 0.005 0
2.32 0.005 0
2.36 0.005 0
2.4 0.005 0
2.44 0.005 0
2.48 0.005 0
2.52 0.005 0
2.56 0.005 0
2.6 0.005 0
2.64 0.005 0
2.68 0.005 0
2.72 0.005 0
2.76 0.005 0
2.8 0.005 0
2.84 0.005 0
2.88 0.005 0
2.92 0.005 0
2.96 0.005 0
3 0.005 0
3.04 0.005 0
3.08 0.005 0
3.12 0.005 0
3.16 0.005 0
3.2 0.005 0
3.24 0.005 0
3.28 0.005 0
3.32 0.005 0
3.36 0.005 0
3.4 0.005 0
3.44 0.005 0
3.48 0.005 0
3.52 0.005 0
3.56 0.005 0
3.6 0.005 0
3.64 0.005 0
3.68 0.005 0
3.72 0.005 0
3.76 0.005 0
3.8 0.005 0
3.84 0.005 0
3.88 0.005 0
3.92 0.005 0
3.96 0.005 0
4 0.005 0
4.04 0.005 0
4.08 0.005 0
4.12 0.005 0
4.16 0.005 0
4.2 0.005 0
4.24 0.005 0
4.28 0.005 0
4.32 0.005 0
4.36 0.005 0
4.4 0.005 0
4.44 0.005 0
4.48 0.005 0
4.52 0.005 0
4.56 0.005 0
4.6 0.005 0
4.64 0.005 0
4.68 0.005 0
4.72 0.005 0
4.76 0.005 0
4.8 0.005 0
4.84 0.005 0
4.88 0.005 0
4.92 0.005 0
4.96 0.005 0
5 0.005 0
5.04 0.005 0
5.08 0.005 0
5.12 0.005 0
5.16 0.005 0
5.2 0.005 0
5.24 0.005 0
5.28 0.005 0
5.32 0.005 0
5.36 0.005 0
5.4 0.005 0
5.44 0.005 0
5.48 0.005 0
5.52 0.005 0
5.56 0.005 0
5.6 0.005 0
5.64 0.005 0
5.68 0.005 0
5.72 0.005 0
5.76 0.005 0
5.8 0.005 0
5.84 0.005 0
5.88 0.005 0
5.92 0.005 0
5.96 0.005 0
6 0.005 0
6.04 0.005 0
6.08 0.005 0
6.12 0.005 0
6.16 0.005 0
6.2 0.005 0
6.24 0.005 0
6.28 0.005 0
6.32 0.005 0
6.36 0.005 0
6.4 0.005 0
6.44 0.005 0
6.48 0.005 0
6.52 0.005 0
6.56 0.005 0
6.6 0.005 0
6.64 0.005 0
6.68 0.005 0
6.72 0.005 0
6.76 0.005 0
6.8 0.005 0
6.84 0.005 0
6.88 0.005 0
6.92 0.005 0
6.96 0.005 0
7 0.005 0
7.04 0.005 0
7.08 0.005 0
7.12 0.005 0
7.16 0.005 0
7.2 0.005 0
7.24 0.005 0
7.28 0.005 0
7.32 0.005 0
7.36 0.005 0
7.4 0.005 0
[...]
POINT_DATA 160000

SCALARS v float 1
LOOKUP_TABLE default
0
0
0
0
0
0
0
0
0
0
0
0
0
0
0
0
0
0
0
0
0
0
0
0
0
0
0
0
0
0
0
0
0
0
0
0
0
0
0
0
0
0
0
0
0
0
0
0
0
0
0
0
0
0
0
0
0
0
0
0
0
0
0
0
0
0
0
0
0
0
0
0
0
0
0
0
0
0
0
0
0
0
0
0
0
0
0
0
0
0
0
0
0
0
0
0
0
0
0
0
0
0
0
0
0
0
0
0
0
0
0
0
0
0
0
0
0
0
0
0
0
0
0
0
0
0
0
0
0
0
0
0
0
0
0
0
0
0
0
0
0
0
0
0
0
0
0
0
0
0
0
0
0
0
0
0
0
0
0
0
0
0
0
0
0
0
0
0
0
0
0
0
0
0
0
0
0
0
0
0
0
0
0
0
0
0
0
0
0
0
0
0
0
0
0
0
0
0
0
0
0
0
0
0
0
0
0
0
0
0
0
0
0
0
0
0
0
0
0
0
0
0
0
0
0
0
0
0
0
0
0
0
0
0
0
0
0
0
0
0
0
0
0
0
0
0
0
0
0
0
0
0
0
0
0
0
0
0
0
0
0
0
0
0
0
0
0
0
0
0
0
0
0
0
0
0
0
0
0
0
0
0
0
0
0
0
0
0
0
0
0
0
0
0
0
0
0
0
0
0
0
0
0
0
0
0
0
0
0
0
0
0
0
0
0
0
0
0
0
0
0
0
0
0
0
0
0
0
0
0
0
0
0
0
0
0
0
0
0
0
0
0
0
0
0
0
0
0
0
0
0
0
0
0
0
0
0
0
0
0
0
0
0
0
0
0
0
0
0
0
0
0
0
0
0
0
0
0
0
0
0
0
0
0
0
0
0
0
0
0
0
0
0
0
0
0
0
0
0
0
0
0
0
0
0
0
0
0
0
0
0
0
0
0
0
0
0
0
0
0
0
0
0
0
0
0
0
0
0
0
0
0
0
0
0
0
0
0
0
0
0
0
0
0
0
0
0
0
0
0
0
0
0
0
0
0
0
0
0
0
0
0
0
0
0
0
0
0
0
0
0
0
0
0
0
0
0
0
0
0
0
0
0
0
0
0
0
0
0
0
0
0
0
0
0
0
0
0
0
0
0
0
0
0
0
0
0
0
0
0
0
0
0
0
0
0
0
0
0
0
0
0
0
0
0
0
0
0
0
0
0
0
0
0
0
0
0
0
0
0
0
0
0
0
0
0
0
0
0
0
0
0
0
0
0
0
0
0
0
0
0
0
0
0
0
0
0
0
0
0
0
0
0
0
0
0
0
0
0
0
0
0
0
0
0
0
0
0
0
0
0
0
0
0
0
0
0
0
0
0
0
0
0
0
0
0
0
0
0
0
0
0
0
0
0
0
0
0
0
0
0
0
0
0
0
0
0
0
0
0
0
0
0
0
0
0
0
0
0
0
0
0
0
0
0
0
0
0
0
0
0
0
0
0
0
0
0
0
0
0
0
0
0
0
0
0
0
0
0
0
0
0
0
0
0
0
0
0
0
0
0
0
0
0
0
0
0
0
0
0
0
0
0
0
0
0
0
0
0
0
0
0
0
0
0
0
0
0
0
0
0
0
0
0
0
0
0
0
0
0
0
0
0
0
0
0
0
0
0
0
0
0
0
0
0
0
0
0
0
0
0
0
0
0
0
0
0
0
0
0
0
0
0
0
0
0
0
0
0
0
0
0
0
0
0
0
0
0
0
0
0
0
0
0
0
0
0
0
0
0
0
0
0
0
0
0
0
0
0
0
0
0
0
0
0
0
0
0
0
0
0
0
0.0374158
0.00938112
0.00346795
0.00176634
0.00108086
0.000737099
0.000538321
0.000411777
0.000325578
0.000263889
0.000218068
0.000183038
0.000155636
0.0001338
0.000116127
0.000101636
8.96173e-05
7.95495e-05
7.10397e-05
6.37877e-05
5.7561e-05
5.21769e-05
4.74904e-05
4.33858e-05
3.97695e-05
3.65655e-05
3.37116e-05
3.11568e-05
2.88586e-05
2.67821e-05
2.48977e-05
2.31808e-05
2.16106e-05
2.01695e-05
1.88425e-05
1.76167e-05
1.64812e-05
1.54265e-05
1.44444e-05
1.35277e-05
1.26702e-05
1.18666e-05
1.11119e-05
1.0402e-05
9.73301e-06
9.10171e-06
8.50508e-06
7.94045e-06
7.40541e-06
6.8978e-06
6.41566e-06
5.95723e-06
5.52088e-06
5.10515e-06
4.70869e-06
4.33028e-06
3.96878e-06
3.62314e-06
3.29243e-06
2.97577e-06
2.67232e-06
2.38135e-06
2.10213e-06
1.83404e-06
1.57645e-06
1.32881e-06
1.09061e-06
8.61335e-07
6.40534e-07
4.27786e-07
2.22689e-07
2.48636e-08
-1.66047e-07
-3.50363e-07
-5.28399e-07
-7.00453e-07
-8.66799e-07
-1.02769e-06
-1.18338e-06
-1.33408e-06
-1.48003e-06
-1.62143e-06
-1.75848e-06
-1.89135e-06
-2.02022e-06
-2.14526e-06
-2.26662e-06
-2.38444e-06
-2.49889e-06
-2.61009e-06
-2.71816e-06
-2.82323e-06
-2.9254e-06
-3.0248e-06
-3.12152e-06
-3.21567e-06
-3.30735e-06
-3.39662e-06
-3.48359e-06
-3.56834e-06
-3.65096e-06
-3.73151e-06
-3.81006e-06
-3.88668e-06
-3.96144e-06
-4.03441e-06
-4.10564e-06
-4.17519e-06
-4.24311e-06
-4.30946e-06
-4.3743e-06
-4.43767e-06
-4.49961e-06
-4.56017e-06
-4.61939e-06
-4.67732e-06
-4.73399e-06
-4.78945e-06
-4.84374e-06
-4.89687e-06
-4.9489e-06
-4.99985e-06
-5.04976e-06
-5.09865e-06
-5.14655e-06
-5.19349e-06
-5.23951e-06
-5.28463e-06
-5.32886e-06
-5.37224e-06
-5.41479e-06
-5.45653e-06
-5.4975e-06
-5.53769e-06
-5.57714e-06
-5.61587e-06
-5.65389e-06
-5.69122e-06
-5.72789e-06
-5.76391e-06
-5.79929e-06
-5.83404e-06
-5.86819e-06
-5.90176e-06
-5.93476e-06
-5.9672e-06
-5.9991e-06
-6.03046e-06
-6.0613e-06
-6.09163e-06
-6.12147e-06
-6.15082e-06
-6.1797e-06
-6.20813e-06
-6.2361e-06
-6.26363e-06
-6.29073e-06
-6.31742e-06
-6.34369e-06
-6.36956e-06
-6.39504e-06
-6.42013e-06
-6.44485e-06
-6.4692e-06
-6.49319e-06
-6.51683e-06
-6.54012e-06
-6.56307e-06
-6.5857e-06
-6.608e-06
-6.62998e-06
-6.65165e-06
-6.67302e-06
-6.69409e-06
-6.71487e-06
-6.73537e-06
-6.75558e-06
-6.77551e-06
-6.79517e-06
-6.81457e-06
-6.83371e-06
-6.85259e-06
-6.87122e-06
-6.88961e-06
-6.90776e-06
-6.92567e-06
-6.94335e-06
-6.9608e-06
-6.97802e-06
-6.99503e-06
-7.01182e-06
-7.0284e-06
-7.04476e-06
-7.06092e-06
-7.07688e-06
-7.09264e-06
-7.10821e-06
-7.12358e-06
-7.13877e-06
-7.15377e-06
-7.16858e-06
-7.18322e-06
-7.19768e-06
-7.21197e-06
-7.22609e-06
-7.24004e-06
-7.25382e-06
-7.26744e-06
-7.2809e-06
-7.2942e-06
-7.30735e-06
-7.32034e-06
-7.33318e-06
-7.34587e-06
-7.35841e-06
-7.37082e-06
-7.38308e-06
-7.3952e-06
-7.40718e-06
-7.41903e-06
-7.43074e-06
-7.44232e-06
-7.45377e-06
-7.46509e-06
-7.47627e-06
-7.48734e-06
-7.49828e-06
-7.5091e-06
-7.51981e-06
-7.53039e-06
-7.54086e-06
-7.55121e-06
-7.56145e-06
-7.57158e-06
-7.58159e-06
-7.5915e-06
-7.6013e-06
-7.61099e-06
-7.62057e-06
-7.63006e-06
-7.63944e-06
-7.64872e-06
-7.65789e-06
-7.66698e-06
-7.67596e-06
-7.68485e-06
-7.69364e-06
-7.70234e-06
-7.71095e-06
-7.71946e-06
-7.72788e-06
-7.73622e-06
-7.74446e-06
-7.75262e-06
-7.76069e-06
-7.76868e-06
-7.77659e-06
-7.78441e-06
-7.79215e-06
-7.7998e-06
-7.80738e-06
-7.81488e-06
-7.8223e-06
-7.82965e-06
-7.83692e-06
-7.8441e-06
-7.85121e-06
-7.85825e-06
-7.86522e-06
-7.87212e-06
-7.87895e-06
-7.88571e-06
-7.89239e-06
-7.899e-06
-7.90554e-06
-7.91202e-06
-7.91844e-06
-7.92479e-06
-7.93107e-06
-7.93729e-06
-7.94344e-06
-7.94953e-06
-7.95555e-06
-7.96152e-06
-7.96743e-06
-7.97327e-06
-7.97905e-06
-7.98478e-06
-7.99044e-06
-7.99605e-06
-8.0016e-06
-8.00709e-06
-8.01253e-06
-8.01791e-06
-8.02324e-06
-8.02852e-06
-8.03374e-06
-8.03891e-06
-8.04402e-06
-8.04908e-06
-8.05409e-06
-8.05904e-06
-8.06395e-06
-8.06881e-06
-8.07363e-06
-8.07839e-06
-8.0831e-06
-8.08777e-06
-8.09239e-06
-8.09695e-06
-8.10147e-06
-8.10596e-06
-8.11039e-06
-8.11478e-06
-8.11912e-06
-8.12342e-06
-8.12768e-06
-8.13189e-06
-8.13606e-06
-8.14019e-06
-8.14428e-06
-8.14833e-06
-8.15233e-06
-8.15629e-06
-8.16021e-06
-8.1641e-06
-8.16795e-06
-8.17175e-06
-8.17552e-06
-8.17924e-06
-8.18294e-06
-8.1866e-06
-8.19021e-06
-8.19379e-06
-8.19734e-06
-8.20085e-06
-8.20432e-06
-8.20776e-06
-8.21116e-06
-8.21453e-06
-8.21787e-06
-8.22117e-06
-8.22444e-06
-8.22768e-06
-8.23088e-06
-8.23405e-06
-8.23719e-06
-8.24029e-06
-8.24337e-06
-8.24641e-06
-8.24943e-06
-8.25242e-06
-8.25537e-06
-8.25829e-06
-8.26119e-06
-8.26406e-06
-8.26689e-06
-8.2697e-06
-8.27248e-06
-8.27522e-06
-8.27794e-06
-8.28065e-06
-8.28332e-06
-8.28596e-06
-8.28858e-06
-8.29116e-06
-8.29372e-06
-8.29626e-06
-8.29878e-06
-8.30126e-06
-8.30372e-06
-8.30616e-06
-8.30857e-06
-8.31096e-06
-8.31332e-06
-8.31566e-06
-8.31798e-06
-8.32027e-06
-8.32254e-06
-8.32478e-06
-8.32701e-06
-8.32921e-06
-8.33139e-06
-8.33354e-06
-8.33568e-06
-8.33779e-06
-8.33989e-06
-8.34196e-06
-8.34401e-06
-8.34604e-06
-8.34805e-06
-8.35004e-06
-8.35201e-06
-8.35396e-06
-8.35589e-06
-8.3578e-06
-8.35968e-06
-8.36156e-06
-8.36341e-06
-8.36525e-06
-8.36706e-06
-8.36886e-06
-8.37063e-06
-8.3724e-06
-8.37414e-06
-8.37587e-06
-8.37758e-06
-8.37927e-06
-8.38094e-06
-8.38259e-06
-8.38424e-06
-8.38587e-06
-8.38747e-06
-8.38906e-06
-8.39063e-06
-8.39219e-06
-8.39374e-06
-8.39526e-06
-8.39678e-06
-8.39827e-06
-8.39976e-06
-8.40123e-06
-8.40268e-06
-8.40411e-06
-8.40554e-06
-8.40695e-06
-8.40834e-06
-8.40972e-06
-8.41109e-06
-8.41244e-06
-8.41378e-06
-8.4151e-06
-8.41641e-06
-8.41771e-06
-8.419e-06
-8.42027e-06
-8.42153e-06
-8.42278e-06
-8.42401e-06
-8.42523e-06
-8.42644e-06
-8.42763e-06
-8.42882e-06
-8.43e-06
-8.43116e-06
-8.43231e-06
-8.43345e-06
-8.43457e-06
-8.43568e-06
-8.43679e-06
-8.43788e-06
-8.43896e-06
-8.44003e-06
-8.44109e-06
-8.44214e-06
-8.44317e-06
-8.4442e-06
-8.44521e-06
-8.44622e-06
-8.44722e-06
-8.44821e-06
-8.44918e-06
-8.45015e-06
-8.4511e-06
-8.45205e-06
-8.45299e-06
-8.45391e-06
-8.45483e-06
-8.45573e-06
-8.45664e-06
-8.45753e-06
-8.45841e-06
-8.45928e-06
-8.46014e-06
-8.461e-06
-8.46185e-06
-8.46268e-06
-8.46351e-06
-8.46433e-06
-8.46514e-06
-8.46594e-06
-8.46674e-06
-8.46753e-06
-8.46831e-06
-8.46908e-06
-8.46985e-06
-8.47061e-06
-8.47135e-06
-8.4721e-06
-8.47283e-06
-8.47356e-06
-8.47428e-06
-8.475e-06
-8.47571e-06
-8.47641e-06
-8.47711e-06
-8.47779e-06
-8.47847e-06
-8.47915e-06
-8.47982e-06
-8.48048e-06
-8.48114e-06
-8.4818e-06
-8.48245e-06
-8.48309e-06
-8.48372e-06
-8.48434e-06
-8.48497e-06
-8.48559e-06
-8.48621e-06
-8.48681e-06
-8.48741e-06
-8.48801e-06
-8.48861e-06
-8.4892e-06
-8.48979e-06
-8.49037e-06
-8.49095e-06
-8.49152e-06
-8.49209e-06
-8.49266e-06
-8.49323e-06
-8.49379e-06
-8.49434e-06
-8.49489e-06
-8.49544e-06
-8.49598e-06
-8.49653e-06
-8.49707e-06
-8.4976e-06
-8.49813e-06
-8.49866e-06
-8.49919e-06
-8.49971e-06
-8.50023e-06
-8.50076e-06
-8.50128e-06
-8.50179e-06
-8.5023e-06
-8.5028e-06
-8.50331e-06
-8.50382e-06
-8.50432e-06
-8.50482e-06
-8.50532e-06
-8.50581e-06
-8.5063e-06
-8.50679e-06
-8.50728e-06
-8.50777e-06
-8.50825e-06
-8.50873e-06
-8.50921e-06
-8.50969e-06
-8.51017e-06
-8.51065e-06
-8.51112e-06
-8.51159e-06
-8.51205e-06
-8.51252e-06
-8.51298e-06
-8.51345e-06
-8.51391e-06
-8.51436e-06
-8.51482e-06
-8.51527e-06
-8.51572e-06
-8.51616e-06
-8.51661e-06
-8.51706e-06
-8.5175e-06
-8.51794e-06
-8.51837e-06
-8.51881e-06
-8.51924e-06
-8.51967e-06
-8.52009e-06
-8.52051e-06
-8.52093e-06
-8.52135e-06
-8.52176e-06
-8.52218e-06
-8.52259e-06
-8.52299e-06
-8.52339e-06
-8.52379e-06
-8.52419e-06
-8.52458e-06
-8.52497e-06
-8.52535e-06
-8.52573e-06
-8.52611e-06
-8.52648e-06
-8.52685e-06
-8.52722e-06
-8.52759e-06
-8.52795e-06
-8.5283e-06
-8.52865e-06
-8.529e-06
-8.52934e-06
-8.52968e-06
-8.53001e-06
-8.53035e-06
-8.53067e-06
-8.531e-06
-8.53132e-06
-8.53163e-06
-8.53194e-06
-8.53225e-06
-8.53255e-06
-8.53284e-06
-8.53313e-06
-8.53342e-06
-8.53371e-06
-8.53399e-06
-8.53426e-06
-8.53453e-06
-8.53479e-06
-8.53505e-06
-8.53531e-06
-8.53556e-06
-8.53582e-06
-8.53606e-06
-8.53629e-06
-8.53652e-06
-8.53675e-06
-8.53698e-06
-8.5372e-06
-8.53741e-06
-8.53762e-06
-8.53783e-06
-8.53803e-06
-8.53823e-06
-8.53842e-06
-8.53861e-06
-8.5388e-06
-8.53898e-06
-8.53915e-06
-8.53931e-06
-8.53948e-06
-8.53965e-06
-8.53981e-06
-8.53997e-06
-8.54011e-06
-8.54026e-06
-8.54041e-06
-8.54054e-06
-8.54067e-06
-8.5408e-06
-8.54093e-06
-8.54106e-06
-8.54118e-06
-8.5413e-06
-8.54141e-06
-8.54152e-06
-8.54162e-06
-8.54173e-06
-8.54183e-06
-8.54192e-06
-8.54201e-06
-8.5421e-06
-8.54219e-06
-8.54228e-06
-8.54236e-06
-8.54244e-06
-8.54251e-06
-8.54258e-06
-8.54265e-06
-8.54271e-06
-8.54278e-06
-8.54285e-06
-8.54291e-06
-8.54297e-06
-8.54302e-06
-8.54308e-06
-8.54313e-06
-8.54318e-06
-8.54322e-06
-8.54327e-06
-8.54331e-06
-8.54335e-06
-8.54339e-06
-8.54343e-06
-8.54347e-06
-8.5435e-06
-8.54353e-06
-8.54357e-06
-8.5436e-06
-8.54363e-06
-8.54365e-06
-8.54368e-06
-8.5437e-06
-8.54372e-06
-8.54375e-06
-8.54377e-06
-8.54379e-06
-8.54381e-06
-8.54383e-06
-8.54384e-06
-8.54386e-06
-8.54388e-06
-8.5439e-06
-8.54391e-06
-8.54392e-06
-8.54393e-06
-8.54394e-06
-8.54395e-06
-8.54397e-06
-8.54398e-06
-8.54399e-06
-8.544e-06
-8.54401e-06
-8.54402e-06
-8.54403e-06
-8.54404e-06
-8.54405e-06
-8.54405e-06
-8.54406e-06
-8.54406e-06
-8.54407e-06
-8.54408e-06
-8.54409e-06
-8.54409e-06
-8.54409e-06
-8.5441e-06
-8.54411e-06
-8.54411e-06
-8.54412e-06
-8.54412e-06
-8.54412e-06
-8.54412e-06
-8.54413e-06
-8.54414e-06
-8.54414e-06
-8.54414e-06
-8.54414e-06
-8.54415e-06
-8.54415e-06
-8.54416e-06
-8.54416e-06
-8.54417e-06
-8.54417e-06
-8.54417e-06
-8.54417e-06
-8.54418e-06
-8.54418e-06
-8.54419e-06
-8.54419e-06
-8.54419e-06
-8.54419e-06
-8.54419e-06
-8.5442e-06
-8.5442e-06
-8.5442e-06
-8.54421e-06
-8.54421e-06
-8.54421e-06
-8.54421e-06
-8.54421e-06
-8.54421e-06
-8.5442e-06
-8.5442e-06
-8.5442e-06
-8.54419e-06
-8.54419e-06
-8.54418e-06
-8.54416e-06
-8.54414e-06
-8.54411e-06
-8.54407e-06
-8.54403e-06
-8.54397e-06
-8.5439e-06
-8.5438e-06
-8.54368e-06
-8.54352e-06
-8.54332e-06
-8.54306e-06
-8.54273e-06
-8.54231e-06
-8.54179e-06
-8.5411e-06
-8.54028e-06
-8.53912e-06
-8.5378e-06
-8.53585e-06
-8.53378e-06
-8.53036e-06
-8.52724e-06
-8.52077e-06
-8.51662e-06
-8.50241e-06
-8.50119e-06
-8.45874e-06
-8.53065e-06
-6.03205e-06
-6.03205e-06
0
0
0.0966101
0.0320527
0.0130061
0.00682636
0.00423606
0.00291412
0.00214249
0.00164841
0.00131054
0.00106806
0.000887556
0.000749308
0.000641004
0.000554582
0.000484557
0.000427078
0.000379363
0.000339361
0.000305524
0.000276672
0.000251885
0.000230443
0.000211773
0.000195416
0.000181003
0.000168231
0.000156855
0.000146671
0.00013751
0.000129234
0.000121725
0.000114885
0.00010863
0.000102891
9.76072e-05
9.2728e-05
8.82093e-05
8.40131e-05
8.01067e-05
7.64615e-05
7.30527e-05
6.98584e-05
6.68595e-05
6.40389e-05
6.13818e-05
5.88747e-05
5.65057e-05
5.42642e-05
5.21405e-05
5.01259e-05
4.82127e-05
4.63939e-05
4.46628e-05
4.30138e-05
4.14413e-05
3.99406e-05
3.85071e-05
3.71367e-05
3.58255e-05
3.45701e-05
3.33672e-05
3.22138e-05
3.11072e-05
3.00446e-05
2.90238e-05
2.80425e-05
2.70985e-05
2.61901e-05
2.53152e-05
2.44723e-05
2.36597e-05
2.2876e-05
2.21197e-05
2.13895e-05
2.06843e-05
2.00027e-05
1.93438e-05
1.87066e-05
1.80899e-05
1.7493e-05
1.6915e-05
1.6355e-05
1.58123e-05
1.52861e-05
1.47757e-05
1.42806e-05
1.38e-05
1.33334e-05
1.28802e-05
1.24399e-05
1.2012e-05
1.1596e-05
1.11915e-05
1.07979e-05
1.0415e-05
1.00422e-05
9.67929e-06
9.32584e-06
8.98152e-06
8.64599e-06
8.31894e-06
8.00008e-06
7.68913e-06
7.38582e-06
7.08986e-06
6.80102e-06
6.51907e-06
6.24378e-06
5.97491e-06
5.71227e-06
5.45563e-06
5.20483e-06
4.95967e-06
4.71997e-06
4.48557e-06
4.25629e-06
4.03198e-06
3.81248e-06
3.59765e-06
3.38736e-06
3.18146e-06
2.97983e-06
2.78233e-06
2.58885e-06
2.39928e-06
2.2135e-06
2.0314e-06
1.85287e-06
1.67783e-06
1.50617e-06
1.3378e-06
1.17261e-06
1.01054e-06
8.51495e-07
6.95401e-07
5.42176e-07
3.91742e-07
2.44023e-07
9.89492e-08
-4.35444e-08
-1.83516e-07
-3.21038e-07
-4.56175e-07
-5.88988e-07
-7.19535e-07
-8.47866e-07
-9.74038e-07
-1.0981e-06
-1.22011e-06
-1.3401e-06
-1.45813e-06
-1.57426e-06
-1.68852e-06
-1.80095e-06
-1.9116e-06
-2.02051e-06
-2.12771e-06
-2.23325e-06
-2.33717e-06
-2.4395e-06
-2.54027e-06
-2.63952e-06
-2.73728e-06
-2.83358e-06
-2.92847e-06
-3.02195e-06
-3.11407e-06
-3.20485e-06
-3.29433e-06
-3.38252e-06
-3.46946e-06
-3.55517e-06
-3.63967e-06
-3.72299e-06
-3.80516e-06
-3.88619e-06
-3.96611e-06
-4.04493e-06
-4.12268e-06
-4.19939e-06
-4.27508e-06
-4.34974e-06
-4.42342e-06
-4.49612e-06
-4.56787e-06
-4.63869e-06
-4.70858e-06
-4.77757e-06
-4.84566e-06
-4.91289e-06
-4.97926e-06
-5.0448e-06
-5.1095e-06
-5.17338e-06
-5.23647e-06
-5.29878e-06
-5.36032e-06
-5.42109e-06
-5.48112e-06
-5.54042e-06
-5.59899e-06
-5.65685e-06
-5.71402e-06
-5.77049e-06
-5.82629e-06
-5.88143e-06
-5.93591e-06
-5.98974e-06
-6.04293e-06
-6.0955e-06
-6.14746e-06
-6.19881e-06
-6.24955e-06
-6.29971e-06
-6.3493e-06
-6.39831e-06
-6.44676e-06
-6.49465e-06
-6.542e-06
-6.58881e-06
-6.63509e-06
-6.68084e-06
-6.72608e-06
-6.7708e-06
-6.81503e-06
-6.85875e-06
-6.902e-06
-6.94476e-06
-6.98705e-06
-7.02887e-06
-7.07023e-06
-7.11113e-06
-7.15158e-06
-7.19159e-06
-7.23116e-06
-7.27029e-06
-7.309e-06
-7.34729e-06
-7.38516e-06
-7.42263e-06
-7.45969e-06
-7.49634e-06
-7.5326e-06
-7.56848e-06
-7.60397e-06
-7.63908e-06
-7.67381e-06
-7.70817e-06
-7.74216e-06
-7.77579e-06
-7.80907e-06
-7.84199e-06
-7.87456e-06
-7.90679e-06
-7.93868e-06
-7.97024e-06
-8.00146e-06
-8.03235e-06
-8.06291e-06
-8.09316e-06
-8.12308e-06
-8.1527e-06
-8.18201e-06
-8.21101e-06
-8.23971e-06
-8.2681e-06
-8.2962e-06
-8.324e-06
-8.35153e-06
-8.37877e-06
-8.40573e-06
-8.43239e-06
-8.45879e-06
-8.48491e-06
-8.51076e-06
-8.53635e-06
-8.56168e-06
-8.58674e-06
-8.61155e-06
-8.63609e-06
-8.66039e-06
-8.68443e-06
-8.70823e-06
-8.73178e-06
-8.7551e-06
-8.77817e-06
-8.80101e-06
-8.82361e-06
-8.84598e-06
-8.86812e-06
-8.89004e-06
-8.91173e-06
-8.9332e-06
-8.95445e-06
-8.97549e-06
-8.99631e-06
-9.01692e-06
-9.03732e-06
-9.05751e-06
-9.07749e-06
-9.09727e-06
-9.11685e-06
-9.13623e-06
-9.15541e-06
-9.1744e-06
-9.1932e-06
-9.21181e-06
-9.23023e-06
-9.24845e-06
-9.26649e-06
-9.28435e-06
-9.30203e-06
-9.31953e-06
-9.33686e-06
-9.354e-06
-9.37098e-06
-9.38778e-06
-9.40441e-06
-9.42088e-06
-9.43718e-06
-9.45331e-06
-9.46928e-06
-9.48508e-06
-9.50072e-06
-9.51622e-06
-9.53155e-06
-9.54673e-06
-9.56175e-06
-9.57662e-06
-9.59133e-06
-9.60591e-06
-9.62034e-06
-9.63462e-06
-9.64875e-06
-9.66274e-06
-9.6766e-06
-9.69031e-06
-9.70388e-06
-9.71731e-06
-9.73062e-06
-9.74378e-06
-9.75681e-06
-9.76972e-06
-9.78249e-06
-9.79513e-06
-9.80764e-06
-9.82003e-06
-9.8323e-06
-9.84443e-06
-9.85645e-06
-9.86835e-06
-9.88013e-06
-9.89178e-06
-9.90332e-06
-9.91475e-06
-9.92605e-06
-9.93724e-06
-9.94832e-06
-9.95929e-06
-9.97015e-06
-9.9809e-06
-9.99154e-06
-1.00021e-05
-1.00125e-05
-1.00228e-05
-1.0033e-05
-1.00432e-05
-1.00532e-05
-1.00631e-05
-1.00729e-05
-1.00826e-05
-1.00922e-05
-1.01017e-05
-1.01112e-05
-1.01205e-05
-1.01297e-05
-1.01389e-05
-1.01479e-05
-1.01568e-05
-1.01657e-05
-1.01745e-05
-1.01832e-05
-1.01918e-05
-1.02003e-05
-1.02087e-05
-1.02171e-05
-1.02253e-05
-1.02335e-05
-1.02416e-05
-1.02496e-05
-1.02575e-05
-1.02654e-05
-1.02731e-05
-1.02808e-05
-1.02884e-05
-1.0296e-05
-1.03034e-05
-1.03108e-05
-1.03181e-05
-1.03254e-05
-1.03325e-05
-1.03396e-05
-1.03466e-05
-1.03536e-05
-1.03605e-05
-1.03673e-05
-1.0374e-05
-1.03807e-05
-1.03873e-05
-1.03938e-05
-1.04003e-05
-1.04067e-05
-1.04131e-05
-1.04193e-05
-1.04255e-05
-1.04317e-05
-1.04378e-05
-1.04438e-05
-1.04498e-05
-1.04557e-05
-1.04615e-05
-1.04673e-05
-1.04731e-05
-1.04787e-05
-1.04843e-05
-1.04899e-05
-1.04954e-05
-1.05008e-05
-1.05062e-05
-1.05116e-05
-1.05168e-05
-1.05221e-05
-1.05272e-05
-1.05324e-05
-1.05374e-05
-1.05425e-05
-1.05474e-05
-1.05523e-05
-1.05572e-05
-1.0562e-05
-1.05668e-05
-1.05715e-05
-1.05762e-05
-1.05808e-05
-1.05854e-05
-1.059e-05
-1.05944e-05
-1.05989e-05
-1.06033e-05
-1.06076e-05
-1.06119e-05
-1.06162e-05
-1.06204e-05
-1.06246e-05
-1.06287e-05
-1.06328e-05
-1.06369e-05
-1.06409e-05
-1.06449e-05
-1.06488e-05
-1.06527e-05
-1.06565e-05
-1.06603e-05
-1.06641e-05
-1.06678e-05
-1.06715e-05
-1.06752e-05
-1.06788e-05
-1.06824e-05
-1.06859e-05
-1.06895e-05
-1.06929e-05
-1.06964e-05
-1.06998e-05
-1.07032e-05
-1.07065e-05
-1.07098e-05
-1.07131e-05
-1.07163e-05
-1.07195e-05
-1.07227e-05
-1.07258e-05
-1.07289e-05
-1.0732e-05
-1.07351e-05
-1.07381e-05
-1.07411e-05
-1.0744e-05
-1.0747e-05
-1.07499e-05
-1.07527e-05
-1.07556e-05
-1.07584e-05
-1.07612e-05
-1.0764e-05
-1.07667e-05
-1.07695e-05
-1.07721e-05
-1.07748e-05
-1.07775e-05
-1.07801e-05
-1.07827e-05
-1.07853e-05
-1.07878e-05
-1.07904e-05
-1.07929e-05
-1.07953e-05
-1.07978e-05
-1.08003e-05
-1.08027e-05
-1.08051e-05
-1.08075e-05
-1.08099e-05
-1.08122e-05
-1.08146e-05
-1.08169e-05
-1.08192e-05
-1.08215e-05
-1.08238e-05
-1.0826e-05
-1.08283e-05
-1.08305e-05
-1.08327e-05
-1.08349e-05
-1.08371e-05
-1.08393e-05
-1.08415e-05
-1.08436e-05
-1.08457e-05
-1.08479e-05
-1.085e-05
-1.08521e-05
-1.08542e-05
-1.08563e-05
-1.08583e-05
-1.08604e-05
-1.08624e-05
-1.08645e-05
-1.08665e-05
-1.08685e-05
-1.08705e-05
-1.08726e-05
-1.08745e-05
-1.08765e-05
-1.08785e-05
-1.08805e-05
-1.08824e-05
-1.08844e-05
-1.08863e-05
-1.08883e-05
-1.08902e-05
-1.08921e-05
-1.0894e-05
-1.08959e-05
-1.08978e-05
-1.08997e-05
-1.09016e-05
-1.09035e-05
-1.09053e-05
-1.09072e-05
-1.0909e-05
-1.09109e-05
-1.09127e-05
-1.09145e-05
-1.09163e-05
-1.09181e-05
-1.09199e-05
-1.09217e-05
-1.09235e-05
-1.09252e-05
-1.0927e-05
-1.09287e-05
-1.09304e-05
-1.09322e-05
-1.09339e-05
-1.09356e-05
-1.09373e-05
-1.09389e-05
-1.09406e-05
-1.09423e-05
-1.09439e-05
-1.09456e-05
-1.09472e-05
-1.09488e-05
-1.09504e-05
-1.0952e-05
-1.09535e-05
-1.09551e-05
-1.09566e-05
-1.09581e-05
-1.09597e-05
-1.09612e-05
-1.09626e-05
-1.09641e-05
-1.09656e-05
-1.0967e-05
-1.09684e-05
-1.09698e-05
-1.09712e-05
-1.09726e-05
-1.0974e-05
-1.09753e-05
-1.09766e-05
-1.09779e-05
-1.09792e-05
-1.09805e-05
-1.09818e-05
-1.0983e-05
-1.09842e-05
-1.09854e-05
-1.09866e-05
-1.09878e-05
-1.0989e-05
-1.09901e-05
-1.09912e-05
-1.09923e-05
-1.09934e-05
-1.09944e-05
-1.09955e-05
-1.09965e-05
-1.09975e-05
-1.09985e-05
-1.09995e-05
-1.10004e-05
-1.10014e-05
-1.10023e-05
-1.10032e-05
-1.10041e-05
-1.10049e-05
-1.10058e-05
-1.10066e-05
-1.10074e-05
-1.10082e-05
-1.1009e-05
-1.10097e-05
-1.10105e-05
-1.10112e-05
-1.10119e-05
-1.10126e-05
-1.10132e-05
-1.10139e-05