# vtk DataFile Version 2.0
FlowField
ASCII
DATASET STRUCTURED_GRID
DIMENSIONS 800 1 200
POINTS 160000 float
0 0 0
0.04 0 0
0.08 0 0
0.12 0 0
0.16 0 0
0.2 0 0
0.24 0 0
0.28 0 0
0.32 0 0
0.36 0 0
0.4 0 0
0.44 0 0
0.48 0 0
0.52 0 0
0.56 0 0
0.6 0 0
0.64 0 0
0.68 0 0
0.72 0 0
0.76 0 0
0.8 0 0
0.84 0 0
0.88 0 0
0.92 0 0
0.96 0 0
1 0 0
1.04 0 0
1.08 0 0
1.12 0 0
1.16 0 0
1.2 0 0
1.24 0 0
1.28 0 0
1.32 0 0
1.36 0 0
1.4 0 0
1.44 0 0
1.48 0 0
1.52 0 0
1.56 0 0
1.6 0 0
1.64 0 0
1.68 0 0
1.72 0 0
1.76 0 0
1.8 0 0
1.84 0 0
1.88 0 0
1.92 0 0
1.96 0 0
2 0 0
2.04 0 0
2.08 0 0
2.12 0 0
2.16 0 0
2.2 0 0
2.24 0 0
2.28 0 0
2.32 0 0
2.36 0 0
2.4 0 0
2.44 0 0
2.48 0 0
2.52 0 0
2.56 0 0
2.6 0 0
2.64 0 0
2.68 0 0
2.72 0 0
2.76 0 0
2.8 0 0
2.84 0 0
2.88 0 0
2.92 0 0
2.96 0 0
3 0 0
3.04 0 0
3.08 0 0
3.12 0 0
3.16 0 0
3.2 0 0
3.24 0 0
3.28 0 0
3.32 0 0
3.36 0 0
3.4 0 0
3.44 0 0
3.48 0 0
3.52 0 0
3.56 0 0
3.6 0 0
3.64 0 0
3.68 0 0
3.72 0 0
3.76 0 0
3.8 0 0
3.84 0 0
3.88 0 0
3.92 0 0
3.96 0 0
4 0 0
4.04 0 0
4.08 0 0
4.12 0 0
4.16 0 0
4.2 0 0
4.24 0 0
4.28 0 0
4.32 0 0
4.36 0 0
4.4 0 0
4.44 0 0
4.48 0 0
4.52 0 0
4.56 0 0
4.6 0 0
4.64 0 0
4.68 0 0
4.72 0 0
4.76 0 0
4.8 0 0
4.84 0 0
4.88 0 0
4.92 0 0
4.96 0 0
5 0 0
5.04 0 0
5.08 0 0
5.12 0 0
5.16 0 0
5.2 0 0
5.24 0 0
5.28 0 0
5.32 0 0
5.36 0 0
5.4 0 0
5.44 0 0
5.48 0 0
5.52 0 0
5.56 0 0
5.6 0 0
5.64 0 0
5.68 0 0
5.72 0 0
5.76 0 0
5.8 0 0
5.84 0 0
5.88 0 0
5.92 0 0
5.96 0 0
6 0 0
6.04 0 0
6.08 0 0
6.12 0 0
6.16 0 0
6.2 0 0
6.24 0 0
6.28 0 0
6.32 0 0
6.36 0 0
6.4 0 0
6.44 0 0
6.48 0 0
6.52 0 0
6.56 0 0
6.6 0 0
6.64 0 0
6.68 0 0
6.72 0 0
6.76 0 0
6.8 0 0
6.84 0 0
6.88 0 0
6.92 0 0
6.96 0 0
7 0 0
7.04 0 0
7.08 0 0
7.12 0 0
7.16 0 0
7.2 0 0
7.24 0 0
7.28 0 0
7.32 0 0
7.36 0 0
7.4 0 0
7.44 0 0
7.48 0 0
7.52 0 0
7.56 0 0
7.6 0 0
7.64 0 0
7.68 0 0
7.72 0 0
7.76 0 0
7.8 0 0
7.84 0 0
7.88 0 0
7.92 0 0
7.96 0 0
8 0 0
8.04 0 0
8.08 0 0
8.12 0 0
8.16 0 0
8.2 0 0
8.24 0 0
8.28 0 0
8.32 0 0
8.36 0 0
8.4 0 0
8.44 0 0
8.48 0 0
8.52 0 0
8.56 0 0
8.6 0 0
8.64 0 0
8.68 0 0
8.72 0 0
8.76 0 0
8.8 0 0
8.84 0 0
8.88 0 0
8.92 0 0
8.96 0 0
9 0 0
9.04 0 0
9.08 0 0
9.12 0 0
9.16 0 0
9.2 0 0
9.24 0 0
9.28 0 0
9.32 0 0
9.36 0 0
9.4 0 0
9.44 0 0
9.48 0 0
9.52 0 0
9.56 0 0
9.6 0 0
9.64 0 0
9.68 0 0
9.72 0 0
9.76 0 0
9.8 0 0
9.84 0 0
9.88 0 0
9.92 0 0
9.96 0 0
10 0 0
10.04 0 0
10.08 0 0
10.12 0 0
10.16 0 0
10.2 0 0
10.24 0 0
10.28 0 0
10.32 0 0
10.36 0 0
10.4 0 0
10.44 0 0
10.48 0 0
10.52 0 0
10.56 0 0
10.6 0 0
10.64 0 0
10.68 0 0
10.72 0 0
10.76 0 0
10.8 0 0
10.84 0 0
10.88 0 0
10.92 0 0
10.96 0 0
11 0 0
11.04 0 0
11.08 0 0
11.12 0 0
11.16 0 0
11.2 0 0
11.24 0 0
11.28 0 0
11.32 0 0
11.36 0 0
11.4 0 0
11.44 0 0
11.48 0 0
11.52 0 0
11.56 0 0
11.6 0 0
11.64 0 0
11.68 0 0
11.72 0 0
11.76 0 0
11.8 0 0
11.84 0 0
11.88 0 0
11.92 0 0
11.96 0 0
12 0 0
12.04 0 0
12.08 0 0
12.12 0 0
12.16 0 0
12.2 0 0
12.24 0 0
12.28 0 0
12.32 0 0
12.36 0 0
12.4 0 0
12.44 0 0
12.48 0 0
12.52 0 0
12.56 0 0
12.6 0 0
12.64 0 0
12.68 0 0
12.72 0 0
12.76 0 0
12.8 0 0
12.84 0 0
12.88 0 0
12.92 0 0
12.96 0 0
13 0 0
13.04 0 0
13.08 0 0
13.12 0 0
13.16 0 0
13.2 0 0
13.24 0 0
13.28 0 0
13.32 0 0
13.36 0 0
13.4 0 0
13.44 0 0
13.48 0 0
13.52 0 0
13.56 0 0
13.6 0 0
13.64 0 0
13.68 0 0
13.72 0 0
13.76 0 0
13.8 0 0
13.84 0 0
13.88 0 0
13.92 0 0
13.96 0 0
14 0 0
14.04 0 0
14.08 0 0
14.12 0 0
14.16 0 0
14.2 0 0
14.24 0 0
14.28 0 0
14.32 0 0
14.36 0 0
14.4 0 0
14.44 0 0
14.48 0 0
14.52 0 0
14.56 0 0
14.6 0 0
14.64 0 0
14.68 0 0
14.72 0 0
14.76 0 0
14.8 0 0
14.84 0 0
14.88 0 0
14.92 0 0
14.96 0 0
15 0 0
15.04 0 0
15.08 0 0
15.12 0 0
15.16 0 0
15.2 0 0
15.24 0 0
15.28 0 0
15.32 0 0
15.36 0 0
15.4 0 0
15.44 0 0
15.48 0 0
15.52 0 0
15.56 0 0
15.6 0 0
15.64 0 0
15.68 0 0
15.72 0 0
15.76 0 0
15.8 0 0
15.84 0 0
15.88 0 0
15.92 0 0
15.96 0 0
16 0 0
16.04 0 0
16.08 0 0
16.12 0 0
16.16 0 0
16.2 0 0
16.24 0 0
16.28 0 0
16.32 0 0
16.36 0 0
16.4 0 0
16.44 0 0
16.48 0 0
16.52 0 0
16.56 0 0
16.6 0 0
16.64 0 0
16.68 0 0
16.72 0 0
16.76 0 0
16.8 0 0
16.84 0 0
16.88 0 0
16.92 0 0
16.96 0 0
17 0 0
17.04 0 0
17.08 0 0
17.12 0 0
17.16 0 0
17.2 0 0
17.24 0 0
17.28 0 0
17.32 0 0
17.36 0 0
17.4 0 0
17.44 0 0
17.48 0 0
17.52 0 0
17.56 0 0
17.6 0 0
17.64 0 0
17.68 0 0
17.72 0 0
17.76 0 0
17.8 0 0
17.84 0 0
17.88 0 0
17.92 0 0
17.96 0 0
18 0 0
18.04 0 0
18.08 0 0
18.12 0 0
18.16 0 0
18.2 0 0
18.24 0 0
18.28 0 0
18.32 0 0
18.36 0 0
18.4 0 0
18.44 0 0
18.48 0 0
18.52 0 0
18.56 0 0
18.6 0 0
18.64 0 0
18.68 0 0
18.72 0 0
18.76 0 0
18.8 0 0
18.84 0 0
18.88 0 0
18.92 0 0
18.96 0 0
19 0 0
19.04 0 0
19.08 0 0
19.12 0 0
19.16 0 0
19.2 0 0
19.24 0 0
19.28 0 0
19.32 0 0
19.36 0 0
19.4 0 0
19.44 0 0
19.48 0 0
19.52 0 0
19.56 0 0
19.6 0 0
19.64 0 0
19.68 0 0
19.72 0 0
19.76 0 0
19.8 0 0
19.84 0 0
19.88 0 0
19.92 0 0
19.96 0 0
20 0 0
20.04 0 0
20.08 0 0
20.12 0 0
20.16 0 0
20.2 0 0
20.24 0 0
20.28 0 0
20.32 0 0
20.36 0 0
20.4 0 0
20.44 0 0
20.48 0 0
20.52 0 0
20.56 0 0
20.6 0 0
20.64 0 0
20.68 0 0
20.72 0 0
20.76 0 0
20.8 0 0
20.84 0 0
20.88 0 0
20.92 0 0
20.96 0 0
21 0 0
21.04 0 0
21.08 0 0
21.12 0 0
21.16 0 0
21.2 0 0
21.24 0 0
21.28 0 0
21.32 0 0
21.36 0 0
21.4 0 0
21.44 0 0
21.48 0 0
21.52 0 0
21.56 0 0
21.6 0 0
21.64 0 0
21.68 0 0
21.72 0 0
21.76 0 0
21.8 0 0
21.84 0 0
21.88 0 0
21.92 0 0
21.96 0 0
22 0 0
22.04 0 0
22.08 0 0
22.12 0 0
22.16 0 0
22.2 0 0
22.24 0 0
22.28 0 0
22.32 0 0
22.36 0 0
22.4 0 0
22.44 0 0
22.48 0 0
22.52 0 0
22.56 0 0
22.6 0 0
22.64 0 0
22.68 0 0
22.72 0 0
22.76 0 0
22.8 0 0
22.84 0 0
22.88 0 0
22.92 0 0
22.96 0 0
23 0 0
23.04 0 0
23.08 0 0
23.12 0 0
23.16 0 0
23.2 0 0
23.24 0 0
23.28 0 0
23.32 0 0
23.36 0 0
23.4 0 0
23.44 0 0
23.48 0 0
23.52 0 0
23.56 0 0
23.6 0 0
23.64 0 0
23.68 0 0
23.72 0 0
23.76 0 0
23.8 0 0
23.84 0 0
23.88 0 0
23.92 0 0
23.96 0 0
24 0 0
24.04 0 0
24.08 0 0
24.12 0 0
24.16 0 0
24.2 0 0
24.24 0 0
24.28 0 0
24.32 0 0
24.36 0 0
24.4 0 0
24.44 0 0
24.48 0 0
24.52 0 0
24.56 0 0
24.6 0 0
24.64 0 0
24.68 0 0
24.72 0 0
24.76 0 0
24.8 0 0
24.84 0 0
24.88 0 0
24.92 0 0
24.96 0 0
25 0 0
25.04 0 0
25.08 0 0
25.12 0 0
25.16 0 0
25.2 0 0
25.24 0 0
25.28 0 0
25.32 0 0
25.36 0 0
25.4 0 0
25.44 0 0
25.48 0 0
25.52 0 0
25.56 0 0
25.6 0 0
25.64 0 0
25.68 0 0
25.72 0 0
25.76 0 0
25.8 0 0
25.84 0 0
25.88 0 0
25.92 0 0
25.96 0 0
26 0 0
26.04 0 0
26.08 0 0
26.12 0 0
26.16 0 0
26.2 0 0
26.24 0 0
26.28 0 0
26.32 0 0
26.36 0 0
26.4 0 0
26.44 0 0
26.48 0 0
26.52 0 0
26.56 0 0
26.6 0 0
26.64 0 0
26.68 0 0
26.72 0 0
26.76 0 0
26.8 0 0
26.84 0 0
26.88 0 0
26.92 0 0
26.96 0 0
27 0 0
27.04 0 0
27.08 0 0
27.12 0 0
27.16 0 0
27.2 0 0
27.24 0 0
27.28 0 0
27.32 0 0
27.36 0 0
27.4 0 0
27.44 0 0
27.48 0 0
27.52 0 0
27.56 0 0
27.6 0 0
27.64 0 0
27.68 0 0
27.72 0 0
27.76 0 0
27.8 0 0
27.84 0 0
27.88 0 0
27.92 0 0
27.96 0 0
28 0 0
28.04 0 0
28.08 0 0
28.12 0 0
28.16 0 0
28.2 0 0
28.24 0 0
28.28 0 0
28.32 0 0
28.36 0 0
28.4 0 0
28.44 0 0
28.48 0 0
28.52 0 0
28.56 0 0
28.6 0 0
28.64 0 0
28.68 0 0
28.72 0 0
28.76 0 0
28.8 0 0
28.84 0 0
28.88 0 0
28.92 0 0
28.96 0 0
29 0 0
29.04 0 0
29.08 0 0
29.12 0 0
29.16 0 0
29.2 0 0
29.24 0 0
29.28 0 0
29.32 0 0
29.36 0 0
29.4 0 0
29.44 0 0
29.48 0 0
29.52 0 0
29.56 0 0
29.6 0 0
29.64 0 0
29.68 0 0
29.72 0 0
29.76 0 0
29.8 0 0
29.84 0 0
29.88 0 0
29.92 0 0
29.96 0 0
30 0 0
30.04 0 0
30.08 0 0
30.12 0 0
30.16 0 0
30.2 0 0
30.24 0 0
30.28 0 0
30.32 0 0
30.36 0 0
30.4 0 0
30.44 0 0
30.48 0 0
30.52 0 0
30.56 0 0
30.6 0 0
30.64 0 0
30.68 0 0
30.72 0 0
30.76 0 0
30.8 0 0
30.84 0 0
30.88 0 0
30.92 0 0
30.96 0 0
31 0 0
31.04 0 0
31.08 0 0
31.12 0 0
31.16 0 0
31.2 0 0
31.24 0 0
31.28 0 0
31.32 0 0
31.36 0 0
31.4 0 0
31.44 0 0
31.48 0 0
31.52 0 0
31.56 0 0
31.6 0 0
31.64 0 0
31.68 0 0
31.72 0 0
31.76 0 0
31.8 0 0
31.84 0 0
31.88 0 0
31.92 0 0
31.96 0 0
0 0.005 0
0.04 0.005 0
0.08 0.005 0
0.12 0.005 0
0.16 0.005 0
0.2 0.005 0
0.24 0.005 0
0.28 0.005 0
0.32 0.005 0
0.36 0.005 0
0.4 0.005 0
0.44 0.005 0
0.48 0.005 0
0.52 0.005 0
0.56 0.005 0
0.6 0.005 0
0.64 0.005 0
0.68 0.005 0
0.72 0.005 0
0.76 0.005 0
0.8 0.005 0
0.84 0.005 0
0.88 0.005 0
0.92 0.005 0
0.96 0.005 0
1 0.005 0
1.04 0.005 0
1.08 0.005 0
1.12 0.005 0
1.16 0.005 0
1.2 0.005 0
1.24 0.005 0
1.28 0.005 0
1.32 0.005 0
1.36 0.005 0
1.4 0.005 0
1.44 0.005 0
1.48 0.005 0
1.52 0.005 0
1.56 0.005 0
1.6 0.005 0
1.64 0.005 0
1.68 0.005 0
1.72 0.005 0
1.76 0.005 0
1.8 0.005 0
1.84 0.005 0
1.88 0.005 0
1.92 0.005 0
1.96 0.005 0
2 0.005 0
2.04 0.005 0
2.08 0.005 0
2.12 0.005 0
2.16 0.005 0
2.2 0.005 0
2.24 0.005 0
2.28 0.005 0
2.32 0.005 0
2.36 0.005 0
2.4 0.005 0
2.44 0.005 0
2.48 0.005 0
2.52 0.005 0
2.56 0.005 0
2.6 0.005 0
2.64 0.005 0
2.68 0.005 0
2.72 0.005 0
2.76 0.005 0
2.8 0.005 0
2.84 0.005 0
2.88 0.005 0
2.92 0.005 0
2.96 0.005 0
3 0.005 0
3.04 0.005 0
3.08 0.005 0
3.12 0.005 0
3.16 0.005 0
3.2 0.005 0
3.24 0.005 0
3.28 0.005 0
3.32 0.005 0
3.36 0.005 0
3.4 0.005 0
3.44 0.005 0
3.48 0.005 0
3.52 0.005 0
3.56 0.005 0
3.6 0.005 0
3.64 0.005 0
3.68 0.005 0
3.72 0.005 0
3.76 0.005 0
3.8 0.005 0
3.84 0.005 0
3.88 0.005 0
3.92 0.005 0
3.96 0.005 0
4 0.005 0
4.04 0.005 0
4.08 0.005 0
4.12 0.005 0
4.16 0.005 0
4.2 0.005 0
4.24 0.005 0
4.28 0.005 0
4.32 0.005 0
4.36 0.005 0
4.4 0.005 0
4.44 0.005 0
4.48 0.005 0
4.52 0.005 0
4.56 0.005 0
4.6 0.005 0
4.64 0.005 0
4.68 0.005 0
4.72 0.005 0
4.76 0.005 0
4.8 0.005 0
4.84 0.005 0
4.88 0.005 0
4.92 0.005 0
4.96 0.005 0
5 0.005 0
5.04 0.005 0
5.08 0.005 0
5.12 0.005 0
5.16 0.005 0
5.2 0.005 0
5.24 0.005 0
5.28 0.005 0
5.32 0.005 0
5.36 0.005 0
5.4 0.005 0
5.44 0.005 0
5.48 0.005 0
5.52 0.005 0
5.56 0.005 0
5.6 0.005 0
5.64 0.005 0
5.68 0.005 0
5.72 0.005 0
5.76 0.005 0
5.8 0.005 0
5.84 0.005 0
5.88 0.005 0
5.92 0.005 0
5.96 0.005 0
6 0.005 0
6.04 0.005 0
6.08 0.005 0
6.12 0.005 0
6.16 0.005 0
6.2 0.005 0
6.24 0.005 0
6.28 0.005 0
6.32 0.005 0
6.36 0.005 0
6.4 0.005 0
6.44 0.005 0
6.48 0.005 0
6.52 0.005 0
6.56 0.005 0
6.6 0.005 0
6.64 0.005 0
6.68 0.005 0
6.72 0.005 0
6.76 0.005 0
6.8 0.005 0
6.84 0.005 0
6.88 0.005 0
6.92 0.005 0
6.96 0.005 0
7 0.005 0
7.04 0.005 0
7.08 0.005 0
7.12 0.005 0
7.16 0.005 0
7.2 0.005 0
7.24 0.005 0
7.28 0.005 0
7.32 0.005 0
7.36 0.005 0
7.4 0.005 0
[...]
POINT_DATA 160000

SCALARS phi float 1
LOOKUP_TABLE default
1
1
1
1
1
1
1
1
1
1
1
1
1
1
1
1
1
1
1
1
1
1
1
1
1
1
1
1
1
1
1
1
1
1
1
0.999999
0.999999
0.999999
0.999999
0.999998
0.999997
0.999997
0.999995
0.999994
0.999992
0.99999
0.999988
0.999985
0.999982
0.999978
0.999973
0.999968
0.999961
0.999954
0.999946
0.999937
0.999926
0.999914
0.999901
0.999886
0.99987
0.999852
0.999832
0.99981
0.999786
0.99976
0.999731
0.9997
0.999667
0.999631
0.999592
0.99955
0.999505
0.999457
0.999406
0.999352
0.999294
0.999232
0.999167
0.999099
0.999026
0.998949
0.998869
0.998784
0.998695
0.998602
0.998504
0.998403
0.998296
0.998185
0.998069
0.997949
0.997824
0.997694
0.997559
0.997419
0.997275
0.997125
0.99697
0.99681
0.996645
0.996475
0.9963
0.996119
0.995933
0.995742
0.995546
0.995344
0.995137
0.994925
0.994707
0.994484
0.994256
0.994022
0.993783
0.993539
0.993289
0.993034
0.992774
0.992509
0.992238
0.991962
0.99168
0.991394
0.991102
0.990805
0.990502
0.990195
0.989883
0.989565
0.989242
0.988915
0.988582
0.988244
0.987901
0.987554
0.987201
0.986844
0.986482
0.986115
0.985743
0.985367
0.984986
0.984601
0.98421
0.983816
0.983416
0.983013
0.982604
0.982192
0.981775
0.981354
0.980928
0.980499
0.980065
0.979627
0.979185
0.978739
0.978289
0.977835
0.977377
0.976915
0.97645
0.975981
0.975508
0.975031
0.97455
0.974067
0.973579
0.973088
0.972594
0.972096
0.971595
0.97109
0.970582
0.970071
0.969557
0.969039
0.968519
0.967995
0.967469
0.966939
0.966407
0.965871
0.965333
0.964792
0.964248
0.963701
0.963152
0.9626
0.962045
0.961488
0.960928
0.960366
0.959801
0.959234
0.958664
0.958092
0.957518
0.956941
0.956362
0.955781
0.955198
0.954612
0.954024
0.953434
0.952842
0.952247
0.951651
0.951052
0.950451
0.949849
0.949244
0.948637
0.948028
0.947417
0.946804
0.946189
0.945572
0.944953
0.944332
0.943709
0.943084
0.942457
0.941828
0.941196
0.940563
0.939927
0.939289
0.938649
0.938007
0.937363
0.936716
0.936067
0.935415
0.934762
0.934105
0.933446
0.932785
0.932121
0.931455
0.930785
0.930113
0.929438
0.92876
0.92808
0.927396
0.926709
0.926018
0.925325
0.924628
0.923928
0.923224
0.922516
0.921805
0.92109
0.920371
0.919648
0.918921
0.91819
0.917454
0.916714
0.91597
0.915221
0.914467
0.913709
0.912945
0.912177
0.911403
0.910624
0.90984
0.90905
0.908254
0.907453
0.906646
0.905833
0.905014
0.904189
0.903358
0.90252
0.901676
0.900825
0.899967
0.899103
0.898231
0.897353
0.896467
0.895574
0.894674
0.893766
0.892851
0.891928
0.890997
0.890058
0.889111
0.888156
0.887193
0.886222
0.885242
0.884254
0.883257
0.882252
0.881237
0.880215
0.879183
0.878142
0.877092
0.876033
0.874965
0.873888
0.872801
0.871705
0.8706
0.869485
0.86836
0.867226
0.866082
0.864929
0.863766
0.862593
0.86141
0.860217
0.859015
0.857802
0.856579
0.855347
0.854104
0.852852
0.851589
0.850316
0.849034
0.847741
0.846438
0.845125
0.843801
0.842468
0.841124
0.839771
0.838407
0.837033
0.835649
0.834255
0.832851
0.831437
0.830013
0.828579
0.827135
0.825681
0.824217
0.822743
0.821259
0.819765
0.818262
0.816749
0.815226
0.813694
0.812152
0.8106
0.809039
0.807468
0.805888
0.804299
0.8027
0.801093
0.799475
0.797849
0.796214
0.79457
0.792917
0.791255
0.789584
0.787905
0.786217
0.78452
0.782815
0.781101
0.779379
0.777649
0.775911
0.774165
0.77241
0.770648
0.768878
0.7671
0.765314
0.763521
0.76172
0.759912
0.758096
0.756274
0.754444
0.752607
0.750763
0.748912
0.747055
0.74519
0.743319
0.741442
0.739558
0.737668
0.735772
0.73387
0.731961
0.730047
0.728127
0.726201
0.724269
0.722332
0.720389
0.718441
0.716488
0.71453
0.712567
0.710598
0.708625
0.706647
0.704665
0.702677
0.700686
0.69869
0.696689
0.694685
0.692676
0.690664
0.688648
0.686627
0.684603
0.682576
0.680545
0.678511
0.676473
0.674432
0.672388
0.670341
0.668291
0.666238
0.664182
0.662124
0.660063
0.658
0.655934
0.653866
0.651796
0.649724
0.64765
0.645574
0.643496
0.641416
0.639334
0.637251
0.635167
0.633081
0.630994
0.628905
0.626815
0.624725
0.622633
0.620541
0.618447
0.616353
0.614258
0.612163
0.610067
0.607971
0.605874
0.603777
0.60168
0.599583
0.597486
0.595388
0.593291
0.591194
0.589098
0.587001
0.584906
0.58281
0.580715
0.578621
0.576527
0.574435
0.572343
0.570252
0.568161
0.566072
0.563984
0.561897
0.559812
0.557727
0.555644
0.553562
0.551482
0.549404
0.547326
0.545251
0.543177
0.541105
0.539035
0.536967
0.5349
0.532836
0.530773
0.528713
0.526655
0.524599
0.522545
0.520494
0.518444
0.516398
0.514353
0.512312
0.510272
0.508236
0.506202
0.50417
0.502142
0.500116
0.498093
0.496073
0.494055
0.492041
0.49003
0.488021
0.486016
0.484014
0.482015
0.480019
0.478026
0.476037
0.474051
0.472068
0.470089
0.468112
0.46614
0.464171
0.462205
0.460243
0.458285
0.45633
0.454378
0.452431
0.450487
0.448546
0.44661
0.444677
0.442748
0.440823
0.438902
0.436985
0.435071
0.433162
0.431256
0.429354
0.427457
0.425563
0.423674
0.421788
0.419907
0.41803
0.416157
0.414288
0.412423
0.410563
0.408706
0.406854
0.405006
0.403163
0.401324
0.399489
0.397658
0.395832
0.39401
0.392192
0.390379
0.38857
0.386766
0.384966
0.38317
0.381379
0.379593
0.377811
0.376033
0.37426
0.372491
0.370727
0.368968
0.367213
0.365462
0.363716
0.361975
0.360238
0.358506
0.356779
0.355056
0.353337
0.351624
0.349914
0.34821
0.34651
0.344815
0.343124
0.341439
0.339757
0.338081
0.336409
0.334742
0.333079
0.331421
0.329768
0.328119
0.326476
0.324837
0.323202
0.321572
0.319947
0.318327
0.316711
0.3151
0.313494
0.311892
0.310296
0.308703
0.307116
0.305533
0.303955
0.302382
0.300813
0.299249
0.29769
0.296135
0.294585
0.29304
0.291499
0.289963
0.288432
0.286906
0.285384
0.283867
0.282354
0.280846
0.279343
0.277845
0.276351
0.274861
0.273377
0.271897
0.270422
0.268951
0.267485
0.266023
0.264567
0.263114
0.261667
0.260224
0.258785
0.257351
0.255922
0.254497
0.253077
0.251662
0.250251
0.248844
0.247442
0.246045
0.244652
0.243264
0.24188
0.240501
0.239126
0.237756
0.23639
0.235028
0.233671
0.232319
0.230971
0.229628
0.228289
0.226954
0.225624
0.224298
0.222977
0.22166
0.220347
0.219039
0.217735
0.216435
0.21514
0.21385
0.212563
0.211281
0.210003
0.20873
0.207461
0.206196
0.204935
0.203679
0.202427
0.201179
0.199936
0.198697
0.197462
0.196231
0.195005
0.193782
0.192564
0.19135
0.19014
0.188935
0.187734
0.186536
0.185343
0.184154
0.18297
0.181789
0.180612
0.17944
0.178272
0.177107
0.175947
0.174791
0.173639
0.172491
0.171347
0.170207
0.169071
0.167939
0.166811
0.165688
0.164568
0.163452
0.16234
0.161232
0.160128
0.159028
0.157932
0.15684
0.155751
0.154667
0.153587
0.15251
0.151437
0.150369
0.149304
0.148243
0.147186
0.146132
0.145083
0.144037
0.142996
0.141958
0.140924
0.139893
0.138867
0.137844
0.136825
0.13581
0.134798
0.133791
0.132787
0.131787
0.13079
0.129798
0.128809
0.127823
0.126842
0.125864
0.12489
0.12392
0.122953
0.12199
0.121031
0.120075
0.119123
0.118174
0.11723
0.116289
0.115351
0.114417
0.113487
0.112561
0.111638
0.110718
0.109803
0.108891
0.107982
0.107077
0.106176
0.105278
0.104384
0.103493
0.102606
0.101723
0.100843
0.099966
0.0990939
0.0982231
0.0973606
0.096496
0.0956715
0.0949092
0.0949092
1
1
1
1
1
1
1
1
1
1
1
1
1
1
1
1
1
1
1
1
1
1
1
1
1
1
1
1
1
1
1
1
1
1
1
0.999999
0.999999
0.999999
0.999999
0.999998
0.999997
0.999997
0.999995
0.999994
0.999992
0.99999
0.999988
0.999985
0.999982
0.999978
0.999973
0.999968
0.999961
0.999954
0.999946
0.999937
0.999926
0.999914
0.999901
0.999886
0.99987
0.999852
0.999832
0.99981
0.999786
0.99976
0.999731
0.9997
0.999667
0.999631
0.999592
0.99955
0.999505
0.999457
0.999406
0.999352
0.999294
0.999232
0.999167
0.999099
0.999026
0.998949
0.998869
0.998784
0.998695
0.998602
0.998504
0.998403
0.998296
0.998185
0.998069
0.997949
0.997824
0.997694
0.997559
0.997419
0.997275
0.997125
0.99697
0.99681
0.996645
0.996475
0.9963
0.996119
0.995933
0.995742
0.995546
0.995344
0.995137
0.994925
0.994707
0.994484
0.994256
0.994022
0.993783
0.993539
0.993289
0.993034
0.992774
0.992509
0.992238
0.991962
0.99168
0.991394
0.991102
0.990805
0.990502
0.990195
0.989883
0.989565
0.989242
0.988915
0.988582
0.988244
0.987901
0.987554
0.987201
0.986844
0.986482
0.986115
0.985743
0.985367
0.984986
0.984601
0.98421
0.983816
0.983416
0.983013
0.982604
0.982192
0.981775
0.981354
0.980928
0.980499
0.980065
0.979627
0.979185
0.978739
0.978289
0.977835
0.977377
0.976915
0.97645
0.975981
0.975508
0.975031
0.97455
0.974067
0.973579
0.973088
0.972594
0.972096
0.971595
0.97109
0.970582
0.970071
0.969557
0.969039
0.968519
0.967995
0.967469
0.966939
0.966407
0.965871
0.965333
0.964792
0.964248
0.963701
0.963152
0.9626
0.962045
0.961488
0.960928
0.960366
0.959801
0.959234
0.958664
0.958092
0.957518
0.956941
0.956362
0.955781
0.955198
0.954612
0.954024
0.953434
0.952842
0.952247
0.951651
0.951052
0.950451
0.949849
0.949244
0.948637
0.948028
0.947417
0.946804
0.946189
0.945572
0.944953
0.944332
0.943709
0.943084
0.942457
0.941828
0.941196
0.940563
0.939927
0.939289
0.938649
0.938007
0.937363
0.936716
0.936067
0.935415
0.934762
0.934105
0.933446
0.932785
0.932121
0.931455
0.930785
0.930113
0.929438
0.92876
0.92808
0.927396
0.926709
0.926018
0.925325
0.924628
0.923928
0.923224
0.922516
0.921805
0.92109
0.920371
0.919648
0.918921
0.91819
0.917454
0.916714
0.91597
0.915221
0.914467
0.913709
0.912945
0.912177
0.911403
0.910624
0.90984
0.90905
0.908254
0.907453
0.906646
0.905833
0.905014
0.904189
0.903358
0.90252
0.901676
0.900825
0.899967
0.899103
0.898231
0.897353
0.896467
0.895574
0.894674
0.893766
0.892851
0.891928
0.890997
0.890058
0.889111
0.888156
0.887193
0.886222
0.885242
0.884254
0.883257
0.882252
0.881237
0.880215
0.879183
0.878142
0.877092
0.876033
0.874965
0.873888
0.872801
0.871705
0.8706
0.869485
0.86836
0.867226
0.866082
0.864929
0.863766
0.862593
0.86141
0.860217
0.859015
0.857802
0.856579
0.855347
0.854104
0.852852
0.851589
0.850316
0.849034
0.847741
0.846438
0.845125
0.843801
0.842468
0.841124
0.839771
0.838407
0.837033
0.835649
0.834255
0.832851
0.831437
0.830013
0.828579
0.827135
0.825681
0.824217
0.822743
0.821259
0.819765
0.818262
0.816749
0.815226
0.813694
0.812152
0.8106
0.809039
0.807468
0.805888
0.804299
0.8027
0.801093
0.799475
0.797849
0.796214
0.79457
0.792917
0.791255
0.789584
0.787905
0.786217
0.78452
0.782815
0.781101
0.779379
0.777649
0.775911
0.774165
0.77241
0.770648
0.768878
0.7671
0.765314
0.763521
0.76172
0.759912
0.758096
0.756274
0.754444
0.752607
0.750763
0.748912
0.747055
0.74519
0.743319
0.741442
0.739558
0.737668
0.735772
0.73387
0.731961
0.730047
0.728127
0.726201
0.724269
0.722332
0.720389
0.718441
0.716488
0.71453
0.712567
0.710598
0.708625
0.706647
0.704665
0.702677
0.700686
0.69869
0.696689
0.694685
0.692676
0.690664
0.688648
0.686627
0.684603
0.682576
0.680545
0.678511
0.676473
0.674432
0.672388
0.670341
0.668291
0.666238
0.664182
0.662124
0.660063
0.658
0.655934
0.653866
0.651796
0.649724
0.64765
0.645574
0.643496
0.641416
0.639334
0.637251
0.635167
0.633081
0.630994
0.628905
0.626815
0.624725
0.622633
0.620541
0.618447
0.616353
0.614258
0.612163
0.610067
0.607971
0.605874
0.603777
0.60168
0.599583
0.597486
0.595388
0.593291
0.591194
0.589098
0.587001
0.584906
0.58281
0.580715
0.578621
0.576527
0.574435
0.572343
0.570252
0.568161
0.566072
0.563984
0.561897
0.559812
0.557727
0.555644
0.553562
0.551482
0.549404
0.547326
0.545251
0.543177
0.541105
0.539035
0.536967
0.5349
0.532836
0.530773
0.528713
0.526655
0.524599
0.522545
0.520494
0.518444
0.516398
0.514353
0.512312
0.510272
0.508236
0.506202
0.50417
0.502142
0.500116
0.498093
0.496073
0.494055
0.492041
0.49003
0.488021
0.486016
0.484014
0.482015
0.480019
0.478026
0.476037
0.474051
0.472068
0.470089
0.468112
0.46614
0.464171
0.462205
0.460243
0.458285
0.45633
0.454378
0.452431
0.450487
0.448546
0.44661
0.444677
0.442748
0.440823
0.438902
0.436985
0.435071
0.433162
0.431256
0.429354
0.427457
0.425563
0.423674
0.421788
0.419907
0.41803
0.416157
0.414288
0.412423
0.410563
0.408706
0.406854
0.405006
0.403163
0.401324
0.399489
0.397658
0.395832
0.39401
0.392192
0.390379
0.38857
0.386766
0.384966
0.38317
0.381379
0.379593
0.377811
0.376033
0.37426
0.372491
0.370727
0.368968
0.367213
0.365462
0.363716
0.361975
0.360238
0.358506
0.356779
0.355056
0.353337
0.351624
0.349914
0.34821
0.34651
0.344815
0.343124
0.341439
0.339757
0.338081
0.336409
0.334742
0.333079
0.331421
0.329768
0.328119
0.326476
0.324837
0.323202
0.321572
0.319947
0.318327
0.316711
0.3151
0.313494
0.311892
0.310296
0.308703
0.307116
0.305533
0.303955
0.302382
0.300813
0.299249
0.29769
0.296135
0.294585
0.29304
0.291499
0.289963
0.288432
0.286906
0.285384
0.283867
0.282354
0.280846
0.279343
0.277845
0.276351
0.274861
0.273377
0.271897
0.270422
0.268951
0.267485
0.266023
0.264567
0.263114
0.261667
0.260224
0.258785
0.257351
0.255922
0.254497
0.253077
0.251662
0.250251
0.248844
0.247442
0.246045
0.244652
0.243264
0.24188
0.240501
0.239126
0.237756
0.23639
0.235028
0.233671
0.232319
0.230971
0.229628
0.228289
0.226954
0.225624
0.224298
0.222977
0.22166
0.220347
0.219039
0.217735
0.216435
0.21514
0.21385
0.212563
0.211281
0.210003
0.20873
0.207461
0.206196
0.204935
0.203679
0.202427
0.201179
0.199936
0.198697
0.197462
0.196231
0.195005
0.193782
0.192564
0.19135
0.19014
0.188935
0.187734
0.186536
0.185343
0.184154
0.18297
0.181789
0.180612
0.17944
0.178272
0.177107
0.175947
0.174791
0.173639
0.172491
0.171347
0.170207
0.169071
0.167939
0.166811
0.165688
0.164568
0.163452
0.16234
0.161232
0.160128
0.159028
0.157932
0.15684
0.155751
0.154667
0.153587
0.15251
0.151437
0.150369
0.149304
0.148243
0.147186
0.146132
0.145083
0.144037
0.142996
0.141958
0.140924
0.139893
0.138867
0.137844
0.136825
0.13581
0.134798
0.133791
0.132787
0.131787
0.13079
0.129798
0.128809
0.127823
0.126842
0.125864
0.12489
0.12392
0.122953
0.12199
0.121031
0.120075
0.119123
0.118174
0.11723
0.116289
0.115351
0.114417
0.113487
0.112561
0.111638
0.110718
0.109803
0.108891
0.107982
0.107077
0.106176
0.105278
0.104384
0.103493
0.102606
0.101723
0.100843
0.099966
0.0990939
0.0982231
0.0973606
0.096496
0.0956715
0.0949092
0.0949092
1
1
1
1
1
1
1
1
1
1
1
1
1
1
1
1
1
1
1
1
1
1
1
1
1
1
1
1
1
1
1
1
1
1
1
0.999999
0.999999
0.999999
0.999999
0.999998
0.999997
0.999997
0.999995
0.999994
0.999992
0.99999
0.999988
0.999985
0.999982
0.999978
0.999973
0.999968
0.999961
0.999954
0.999946
0.999937
0.999926
0.999914
0.999901
0.999886
0.99987
0.999852
0.999832
0.99981
0.999786
0.99976
0.999731
0.9997
0.999667
0.999631
0.999592
0.99955
0.999505
0.999457
0.999406
0.999352
0.999294
0.999232
0.999167
0.999098
0.999026
0.998949
0.998869
0.998784
0.998695
0.998602
0.998504
0.998402
0.998296
0.998185
0.998069
0.997949
0.997824
0.997694
0.997559
0.997419
0.997274
0.997124
0.99697
0.99681
0.996645
0.996474
0.996299
0.996118
0.995933
0.995742
0.995545
0.995343
0.995136
0.994924
0.994706
0.994483
0.994255
0.994022
0.993783
0.993538
0.993289
0.993034
0.992773
0.992508
0.992237
0.991961
0.991679
0.991393
0.991101
0.990804
0.990501
0.990194
0.989882
0.989564
0.989241
0.988914
0.988581
0.988243
0.9879
0.987553
0.9872
0.986843
0.986481
0.986114
0.985742
0.985366
0.984985
0.984599
0.984209
0.983814
0.983415
0.983011
0.982603
0.982191
0.981774
0.981353
0.980927
0.980497
0.980064
0.979626
0.979184
0.978738
0.978288
0.977834
0.977376
0.976914
0.976448
0.975979
0.975506
0.975029
0.974549
0.974065
0.973578
0.973087
0.972592
0.972094
0.971593
0.971088
0.970581
0.97007
0.969555
0.969038
0.968517
0.967994
0.967467
0.966938
0.966405
0.96587
0.965331
0.96479
0.964246
0.9637
0.96315
0.962598
0.962044
0.961486
0.960927
0.960364
0.9598
0.959232
0.958663
0.958091
0.957516
0.95694
0.956361
0.955779
0.955196
0.95461
0.954022
0.953432
0.95284
0.952246
0.951649
0.95105
0.95045
0.949847
0.949242
0.948636
0.948027
0.947416
0.946803
0.946188
0.945571
0.944952
0.944331
0.943708
0.943083
0.942456
0.941826
0.941195
0.940562
0.939926
0.939288
0.938648
0.938006
0.937362
0.936715
0.936066
0.935415
0.934761
0.934105
0.933446
0.932785
0.932121
0.931455
0.930786
0.930114
0.929439
0.928761
0.928081
0.927397
0.92671
0.92602
0.925327
0.92463
0.92393
0.923226
0.922519
0.921808
0.921093
0.920375
0.919652
0.918925
0.918194
0.917459
0.91672
0.915976
0.915227
0.914473
0.913715
0.912952
0.912184
0.911411
0.910632
0.909848
0.909059
0.908264
0.907464
0.906657
0.905845
0.905026
0.904202
0.903371
0.902534
0.90169
0.90084
0.899983
0.899119
0.898248
0.89737
0.896485
0.895593
0.894694
0.893787
0.892872
0.89195
0.891019
0.890081
0.889135
0.888181
0.887219
0.886249
0.88527
0.884283
0.883287
0.882282
0.881269
0.880247
0.879216
0.878176
0.877128
0.87607
0.875003
0.873926
0.872841
0.871746
0.870641
0.869528
0.868404
0.867271
0.866129
0.864976
0.863814
0.862642
0.861461
0.860269
0.859068
0.857857
0.856635
0.855404
0.854163
0.852911
0.85165
0.850379
0.849097
0.847805
0.846504
0.845192
0.84387
0.842538
0.841196
0.839844
0.838481
0.837109
0.835726
0.834333
0.832931
0.831518
0.830095
0.828662
0.82722
0.825767
0.824305
0.822832
0.82135
0.819858
0.818356
0.816844
0.815323
0.813792
0.812251
0.810701
0.809141
0.807572
0.805994
0.804406
0.802809
0.801202
0.799587
0.797962
0.796328
0.794685
0.793034
0.791373
0.789704
0.788026
0.786339
0.784644
0.782941
0.781228
0.779508
0.777779
0.776043
0.774298
0.772545
0.770784
0.769015
0.767238
0.765454
0.763662
0.761863
0.760056
0.758242
0.756421
0.754592
0.752757
0.750914
0.749065
0.747209
0.745346
0.743476
0.7416
0.739718
0.737829
0.735934
0.734033
0.732126
0.730213
0.728294
0.72637
0.724439
0.722504
0.720562
0.718616
0.716664
0.714707
0.712745
0.710778
0.708806
0.706829
0.704848
0.702862
0.700871
0.698876
0.696877
0.694874
0.692867
0.690855
0.68884
0.686821
0.684798
0.682772
0.680742
0.678709
0.676672
0.674632
0.67259
0.670544
0.668495
0.666443
0.664388
0.662331
0.660271
0.658209
0.656144
0.654077
0.652008
0.649937
0.647864
0.645789
0.643712
0.641633
0.639552
0.63747
0.635386
0.633301
0.631215
0.629128
0.627039
0.624949
0.622858
0.620766
0.618674
0.616581
0.614487
0.612392
0.610297
0.608201
0.606106
0.604009
0.601913
0.599817
0.59772
0.595624
0.593527
0.591431
0.589335
0.58724
0.585144
0.58305
0.580956
0.578862
0.576769
0.574677
0.572585
0.570495
0.568405
0.566317
0.564229
0.562143
0.560058
0.557974
0.555892
0.55381
0.551731
0.549653
0.547576
0.545501
0.543428
0.541356
0.539286
0.537219
0.535153
0.533089
0.531027
0.528967
0.526909
0.524853
0.5228
0.520749
0.5187
0.516654
0.51461
0.512569
0.51053
0.508493
0.50646
0.504429
0.5024
0.500375
0.498352
0.496332
0.494315
0.492301
0.49029
0.488282
0.486277
0.484275
0.482276
0.48028
0.478288
0.476299
0.474313
0.47233
0.470351
0.468375
0.466403
0.464434
0.462468
0.460506
0.458548
0.456593
0.454642
0.452695
0.450751
0.448811
0.446874
0.444942
0.443013
0.441088
0.439167
0.437249
0.435336
0.433426
0.431521
0.429619
0.427722
0.425828
0.423939
0.422053
0.420172
0.418295
0.416422
0.414553
0.412688
0.410828
0.408971
0.407119
0.405271
0.403428
0.401588
0.399753
0.397923
0.396096
0.394274
0.392457
0.390643
0.388835
0.38703
0.38523
0.383435
0.381643
0.379857
0.378074
0.376297
0.374523
0.372755
0.370991
0.369231
0.367476
0.365725
0.363979
0.362238
0.360501
0.358768
0.357041
0.355318
0.353599
0.351885
0.350176
0.348471
0.346771
0.345076
0.343385
0.341699
0.340017
0.338341
0.336669
0.335001
0.333338
0.33168
0.330027
0.328378
0.326734
0.325095
0.32346
0.32183
0.320205
0.318584
0.316968
0.315357
0.31375
0.312148
0.310551
0.308959
0.307371
0.305788
0.30421
0.302636
0.301067
0.299503
0.297943
0.296388
0.294838
0.293292
0.291751
0.290215
0.288684
0.287157
0.285635
0.284117
0.282604
0.281096
0.279593
0.278094
0.2766
0.27511
0.273625
0.272145
0.270669
0.269198
0.267732
0.26627
0.264813
0.26336
0.261912
0.260469
0.25903
0.257596
0.256166
0.254741
0.25332
0.251904
0.250493
0.249086
0.247684
0.246286
0.244893
0.243504
0.24212
0.24074
0.239365
0.237994
0.236628
0.235266
0.233909
0.232556
0.231208
0.229864
0.228525
0.22719
0.225859
0.224533
0.223211
0.221894
0.220581
0.219272
0.217968
0.216668
0.215372
0.214081
0.212794
0.211512
0.210234
0.20896
0.20769
0.206425
0.205164
0.203907
0.202655
0.201407
0.200163
0.198923
0.197688
0.196456
0.19523
0.194007
0.192788
0.191574
0.190364
0.189158
0.187956
0.186758
0.185565
0.184375
0.18319
0.182009
0.180832
0.179659
0.17849
0.177325
0.176165
0.175008
0.173856
0.172707
0.171563
0.170422
0.169286