# vtk DataFile Version 2.0
FlowField
ASCII
DATASET STRUCTURED_GRID
DIMENSIONS 800 1 200
POINTS 160000 float
0 0 0
0.04 0 0
0.08 0 0
0.12 0 0
0.16 0 0
0.2 0 0
0.24 0 0
0.28 0 0
0.32 0 0
0.36 0 0
0.4 0 0
0.44 0 0
0.48 0 0
0.52 0 0
0.56 0 0
0.6 0 0
0.64 0 0
0.68 0 0
0.72 0 0
0.76 0 0
0.8 0 0
0.84 0 0
0.88 0 0
0.92 0 0
0.96 0 0
1 0 0
1.04 0 0
1.08 0 0
1.12 0 0
1.16 0 0
1.2 0 0
1.24 0 0
1.28 0 0
1.32 0 0
1.36 0 0
1.4 0 0
1.44 0 0
1.48 0 0
1.52 0 0
1.56 0 0
1.6 0 0
1.64 0 0
1.68 0 0
1.72 0 0
1.76 0 0
1.8 0 0
1.84 0 0
1.88 0 0
1.92 0 0
1.96 0 0
2 0 0
2.04 0 0
2.08 0 0
2.12 0 0
2.16 0 0
2.2 0 0
2.24 0 0
2.28 0 0
2.32 0 0
2.36 0 0
2.4 0 0
2.44 0 0
2.48 0 0
2.52 0 0
2.56 0 0
2.6 0 0
2.64 0 0
2.68 0 0
2.72 0 0
2.76 0 0
2.8 0 0
2.84 0 0
2.88 0 0
2.92 0 0
2.96 0 0
3 0 0
3.04 0 0
3.08 0 0
3.12 0 0
3.16 0 0
3.2 0 0
3.24 0 0
3.28 0 0
3.32 0 0
3.36 0 0
3.4 0 0
3.44 0 0
3.48 0 0
3.52 0 0
3.56 0 0
3.6 0 0
3.64 0 0
3.68 0 0
3.72 0 0
3.76 0 0
3.8 0 0
3.84 0 0
3.88 0 0
3.92 0 0
3.96 0 0
4 0 0
4.04 0 0
4.08 0 0
4.12 0 0
4.16 0 0
4.2 0 0
4.24 0 0
4.28 0 0
4.32 0 0
4.36 0 0
4.4 0 0
4.44 0 0
4.48 0 0
4.52 0 0
4.56 0 0
4.6 0 0
4.64 0 0
4.68 0 0
4.72 0 0
4.76 0 0
4.8 0 0
4.84 0 0
4.88 0 0
4.92 0 0
4.96 0 0
5 0 0
5.04 0 0
5.08 0 0
5.12 0 0
5.16 0 0
5.2 0 0
5.24 0 0
5.28 0 0
5.32 0 0
5.36 0 0
5.4 0 0
5.44 0 0
5.48 0 0
5.52 0 0
5.56 0 0
5.6 0 0
5.64 0 0
5.68 0 0
5.72 0 0
5.76 0 0
5.8 0 0
5.84 0 0
5.88 0 0
5.92 0 0
5.96 0 0
6 0 0
6.04 0 0
6.08 0 0
6.12 0 0
6.16 0 0
6.2 0 0
6.24 0 0
6.28 0 0
6.32 0 0
6.36 0 0
6.4 0 0
6.44 0 0
6.48 0 0
6.52 0 0
6.56 0 0
6.6 0 0
6.64 0 0
6.68 0 0
6.72 0 0
6.76 0 0
6.8 0 0
6.84 0 0
6.88 0 0
6.92 0 0
6.96 0 0
7 0 0
7.04 0 0
7.08 0 0
7.12 0 0
7.16 0 0
7.2 0 0
7.24 0 0
7.28 0 0
7.32 0 0
7.36 0 0
7.4 0 0
7.44 0 0
7.48 0 0
7.52 0 0
7.56 0 0
7.6 0 0
7.64 0 0
7.68 0 0
7.72 0 0
7.76 0 0
7.8 0 0
7.84 0 0
7.88 0 0
7.92 0 0
7.96 0 0
8 0 0
8.04 0 0
8.08 0 0
8.12 0 0
8.16 0 0
8.2 0 0
8.24 0 0
8.28 0 0
8.32 0 0
8.36 0 0
8.4 0 0
8.44 0 0
8.48 0 0
8.52 0 0
8.56 0 0
8.6 0 0
8.64 0 0
8.68 0 0
8.72 0 0
8.76 0 0
8.8 0 0
8.84 0 0
8.88 0 0
8.92 0 0
8.96 0 0
9 0 0
9.04 0 0
9.08 0 0
9.12 0 0
9.16 0 0
9.2 0 0
9.24 0 0
9.28 0 0
9.32 0 0
9.36 0 0
9.4 0 0
9.44 0 0
9.48 0 0
9.52 0 0
9.56 0 0
9.6 0 0
9.64 0 0
9.68 0 0
9.72 0 0
9.76 0 0
9.8 0 0
9.84 0 0
9.88 0 0
9.92 0 0
9.96 0 0
10 0 0
10.04 0 0
10.08 0 0
10.12 0 0
10.16 0 0
10.2 0 0
10.24 0 0
10.28 0 0
10.32 0 0
10.36 0 0
10.4 0 0
10.44 0 0
10.48 0 0
10.52 0 0
10.56 0 0
10.6 0 0
10.64 0 0
10.68 0 0
10.72 0 0
10.76 0 0
10.8 0 0
10.84 0 0
10.88 0 0
10.92 0 0
10.96 0 0
11 0 0
11.04 0 0
11.08 0 0
11.12 0 0
11.16 0 0
11.2 0 0
11.24 0 0
11.28 0 0
11.32 0 0
11.36 0 0
11.4 0 0
11.44 0 0
11.48 0 0
11.52 0 0
11.56 0 0
11.6 0 0
11.64 0 0
11.68 0 0
11.72 0 0
11.76 0 0
11.8 0 0
11.84 0 0
11.88 0 0
11.92 0 0
11.96 0 0
12 0 0
12.04 0 0
12.08 0 0
12.12 0 0
12.16 0 0
12.2 0 0
12.24 0 0
12.28 0 0
12.32 0 0
12.36 0 0
12.4 0 0
12.44 0 0
12.48 0 0
12.52 0 0
12.56 0 0
12.6 0 0
12.64 0 0
12.68 0 0
12.72 0 0
12.76 0 0
12.8 0 0
12.84 0 0
12.88 0 0
12.92 0 0
12.96 0 0
13 0 0
13.04 0 0
13.08 0 0
13.12 0 0
13.16 0 0
13.2 0 0
13.24 0 0
13.28 0 0
13.32 0 0
13.36 0 0
13.4 0 0
13.44 0 0
13.48 0 0
13.52 0 0
13.56 0 0
13.6 0 0
13.64 0 0
13.68 0 0
13.72 0 0
13.76 0 0
13.8 0 0
13.84 0 0
13.88 0 0
13.92 0 0
13.96 0 0
14 0 0
14.04 0 0
14.08 0 0
14.12 0 0
14.16 0 0
14.2 0 0
14.24 0 0
14.28 0 0
14.32 0 0
14.36 0 0
14.4 0 0
14.44 0 0
14.48 0 0
14.52 0 0
14.56 0 0
14.6 0 0
14.64 0 0
14.68 0 0
14.72 0 0
14.76 0 0
14.8 0 0
14.84 0 0
14.88 0 0
14.92 0 0
14.96 0 0
15 0 0
15.04 0 0
15.08 0 0
15.12 0 0
15.16 0 0
15.2 0 0
15.24 0 0
15.28 0 0
15.32 0 0
15.36 0 0
15.4 0 0
15.44 0 0
15.48 0 0
15.52 0 0
15.56 0 0
15.6 0 0
15.64 0 0
15.68 0 0
15.72 0 0
15.76 0 0
15.8 0 0
15.84 0 0
15.88 0 0
15.92 0 0
15.96 0 0
16 0 0
16.04 0 0
16.08 0 0
16.12 0 0
16.16 0 0
16.2 0 0
16.24 0 0
16.28 0 0
16.32 0 0
16.36 0 0
16.4 0 0
16.44 0 0
16.48 0 0
16.52 0 0
16.56 0 0
16.6 0 0
16.64 0 0
16.68 0 0
16.72 0 0
16.76 0 0
16.8 0 0
16.84 0 0
16.88 0 0
16.92 0 0
16.96 0 0
17 0 0
17.04 0 0
17.08 0 0
17.12 0 0
17.16 0 0
17.2 0 0
17.24 0 0
17.28 0 0
17.32 0 0
17.36 0 0
17.4 0 0
17.44 0 0
17.48 0 0
17.52 0 0
17.56 0 0
17.6 0 0
17.64 0 0
17.68 0 0
17.72 0 0
17.76 0 0
17.8 0 0
17.84 0 0
17.88 0 0
17.92 0 0
17.96 0 0
18 0 0
18.04 0 0
18.08 0 0
18.12 0 0
18.16 0 0
18.2 0 0
18.24 0 0
18.28 0 0
18.32 0 0
18.36 0 0
18.4 0 0
18.44 0 0
18.48 0 0
18.52 0 0
18.56 0 0
18.6 0 0
18.64 0 0
18.68 0 0
18.72 0 0
18.76 0 0
18.8 0 0
18.84 0 0
18.88 0 0
18.92 0 0
18.96 0 0
19 0 0
19.04 0 0
19.08 0 0
19.12 0 0
19.16 0 0
19.2 0 0
19.24 0 0
19.28 0 0
19.32 0 0
19.36 0 0
19.4 0 0
19.44 0 0
19.48 0 0
19.52 0 0
19.56 0 0
19.6 0 0
19.64 0 0
19.68 0 0
19.72 0 0
19.76 0 0
19.8 0 0
19.84 0 0
19.88 0 0
19.92 0 0
19.96 0 0
20 0 0
20.04 0 0
20.08 0 0
20.12 0 0
20.16 0 0
20.2 0 0
20.24 0 0
20.28 0 0
20.32 0 0
20.36 0 0
20.4 0 0
20.44 0 0
20.48 0 0
20.52 0 0
20.56 0 0
20.6 0 0
20.64 0 0
20.68 0 0
20.72 0 0
20.76 0 0
20.8 0 0
20.84 0 0
20.88 0 0
20.92 0 0
20.96 0 0
21 0 0
21.04 0 0
21.08 0 0
21.12 0 0
21.16 0 0
21.2 0 0
21.24 0 0
21.28 0 0
21.32 0 0
21.36 0 0
21.4 0 0
21.44 0 0
21.48 0 0
21.52 0 0
21.56 0 0
21.6 0 0
21.64 0 0
21.68 0 0
21.72 0 0
21.76 0 0
21.8 0 0
21.84 0 0
21.88 0 0
21.92 0 0
21.96 0 0
22 0 0
22.04 0 0
22.08 0 0
22.12 0 0
22.16 0 0
22.2 0 0
22.24 0 0
22.28 0 0
22.32 0 0
22.36 0 0
22.4 0 0
22.44 0 0
22.48 0 0
22.52 0 0
22.56 0 0
22.6 0 0
22.64 0 0
22.68 0 0
22.72 0 0
22.76 0 0
22.8 0 0
22.84 0 0
22.88 0 0
22.92 0 0
22.96 0 0
23 0 0
23.04 0 0
23.08 0 0
23.12 0 0
23.16 0 0
23.2 0 0
23.24 0 0
23.28 0 0
23.32 0 0
23.36 0 0
23.4 0 0
23.44 0 0
23.48 0 0
23.52 0 0
23.56 0 0
23.6 0 0
23.64 0 0
23.68 0 0
23.72 0 0
23.76 0 0
23.8 0 0
23.84 0 0
23.88 0 0
23.92 0 0
23.96 0 0
24 0 0
24.04 0 0
24.08 0 0
24.12 0 0
24.16 0 0
24.2 0 0
24.24 0 0
24.28 0 0
24.32 0 0
24.36 0 0
24.4 0 0
24.44 0 0
24.48 0 0
24.52 0 0
24.56 0 0
24.6 0 0
24.64 0 0
24.68 0 0
24.72 0 0
24.76 0 0
24.8 0 0
24.84 0 0
24.88 0 0
24.92 0 0
24.96 0 0
25 0 0
25.04 0 0
25.08 0 0
25.12 0 0
25.16 0 0
25.2 0 0
25.24 0 0
25.28 0 0
25.32 0 0
25.36 0 0
25.4 0 0
25.44 0 0
25.48 0 0
25.52 0 0
25.56 0 0
25.6 0 0
25.64 0 0
25.68 0 0
25.72 0 0
25.76 0 0
25.8 0 0
25.84 0 0
25.88 0 0
25.92 0 0
25.96 0 0
26 0 0
26.04 0 0
26.08 0 0
26.12 0 0
26.16 0 0
26.2 0 0
26.24 0 0
26.28 0 0
26.32 0 0
26.36 0 0
26.4 0 0
26.44 0 0
26.48 0 0
26.52 0 0
26.56 0 0
26.6 0 0
26.64 0 0
26.68 0 0
26.72 0 0
26.76 0 0
26.8 0 0
26.84 0 0
26.88 0 0
26.92 0 0
26.96 0 0
27 0 0
27.04 0 0
27.08 0 0
27.12 0 0
27.16 0 0
27.2 0 0
27.24 0 0
27.28 0 0
27.32 0 0
27.36 0 0
27.4 0 0
27.44 0 0
27.48 0 0
27.52 0 0
27.56 0 0
27.6 0 0
27.64 0 0
27.68 0 0
27.72 0 0
27.76 0 0
27.8 0 0
27.84 0 0
27.88 0 0
27.92 0 0
27.96 0 0
28 0 0
28.04 0 0
28.08 0 0
28.12 0 0
28.16 0 0
28.2 0 0
28.24 0 0
28.28 0 0
28.32 0 0
28.36 0 0
28.4 0 0
28.44 0 0
28.48 0 0
28.52 0 0
28.56 0 0
28.6 0 0
28.64 0 0
28.68 0 0
28.72 0 0
28.76 0 0
28.8 0 0
28.84 0 0
28.88 0 0
28.92 0 0
28.96 0 0
29 0 0
29.04 0 0
29.08 0 0
29.12 0 0
29.16 0 0
29.2 0 0
29.24 0 0
29.28 0 0
29.32 0 0
29.36 0 0
29.4 0 0
29.44 0 0
29.48 0 0
29.52 0 0
29.56 0 0
29.6 0 0
29.64 0 0
29.68 0 0
29.72 0 0
29.76 0 0
29.8 0 0
29.84 0 0
29.88 0 0
29.92 0 0
29.96 0 0
30 0 0
30.04 0 0
30.08 0 0
30.12 0 0
30.16 0 0
30.2 0 0
30.24 0 0
30.28 0 0
30.32 0 0
30.36 0 0
30.4 0 0
30.44 0 0
30.48 0 0
30.52 0 0
30.56 0 0
30.6 0 0
30.64 0 0
30.68 0 0
30.72 0 0
30.76 0 0
30.8 0 0
30.84 0 0
30.88 0 0
30.92 0 0
30.96 0 0
31 0 0
31.04 0 0
31.08 0 0
31.12 0 0
31.16 0 0
31.2 0 0
31.24 0 0
31.28 0 0
31.32 0 0
31.36 0 0
31.4 0 0
31.44 0 0
31.48 0 0
31.52 0 0
31.56 0 0
31.6 0 0
31.64 0 0
31.68 0 0
31.72 0 0
31.76 0 0
31.8 0 0
31.84 0 0
31.88 0 0
31.92 0 0
31.96 0 0
0 0.005 0
0.04 0.005 0
0.08 0.005 0
0.12 0.005 0
0.16 0.005 0
0.2 0.005 0
0.24 0.005 0
0.28 0.005 0
0.32 0.005 0
0.36 0.005 0
0.4 0.005 0
0.44 0.005 0
0.48 0.005 0
0.52 0.005 0
0.56 0.005 0
0.6 0.005 0
0.64 0.005 0
0.68 0.005 0
0.72 0.005 0
0.76 0.005 0
0.8 0.005 0
0.84 0.005 0
0.88 0.005 0
0.92 0.005 0
0.96 0.005 0
1 0.005 0
1.04 0.005 0
1.08 0.005 0
1.12 0.005 0
1.16 0.005 0
1.2 0.005 0
1.24 0.005 0
1.28 0.005 0
1.32 0.005 0
1.36 0.005 0
1.4 0.005 0
1.44 0.005 0
1.48 0.005 0
1.52 0.005 0
1.56 0.005 0
1.6 0.005 0
1.64 0.005 0
1.68 0.005 0
1.72 0.005 0
1.76 0.005 0
1.8 0.005 0
1.84 0.005 0
1.88 0.005 0
1.92 0.005 0
1.96 0.005 0
2 0.005 0
2.04 0.005 0
2.08 0.005 0
2.12 0.005 0
2.16 0.005 0
2.2 0.005 0
2.24 0.005 0
2.28 0.005 0
2.32 0.005 0
2.36 0.005 0
2.4 0.005 0
2.44 0.005 0
2.48 0.005 0
2.52 0.005 0
2.56 0.005 0
2.6 0.005 0
2.64 0.005 0
2.68 0.005 0
2.72 0.005 0
2.76 0.005 0
2.8 0.005 0
2.84 0.005 0
2.88 0.005 0
2.92 0.005 0
2.96 0.005 0
3 0.005 0
3.04 0.005 0
3.08 0.005 0
3.12 0.005 0
3.16 0.005 0
3.2 0.005 0
3.24 0.005 0
3.28 0.005 0
3.32 0.005 0
3.36 0.005 0
3.4 0.005 0
3.44 0.005 0
3.48 0.005 0
3.52 0.005 0
3.56 0.005 0
3.6 0.005 0
3.64 0.005 0
3.68 0.005 0
3.72 0.005 0
3.76 0.005 0
3.8 0.005 0
3.84 0.005 0
3.88 0.005 0
3.92 0.005 0
3.96 0.005 0
4 0.005 0
4.04 0.005 0
4.08 0.005 0
4.12 0.005 0
4.16 0.005 0
4.2 0.005 0
4.24 0.005 0
4.28 0.005 0
4.32 0.005 0
4.36 0.005 0
4.4 0.005 0
4.44 0.005 0
4.48 0.005 0
4.52 0.005 0
4.56 0.005 0
4.6 0.005 0
4.64 0.005 0
4.68 0.005 0
4.72 0.005 0
4.76 0.005 0
4.8 0.005 0
4.84 0.005 0
4.88 0.005 0
4.92 0.005 0
4.96 0.005 0
5 0.005 0
5.04 0.005 0
5.08 0.005 0
5.12 0.005 0
5.16 0.005 0
5.2 0.005 0
5.24 0.005 0
5.28 0.005 0
5.32 0.005 0
5.36 0.005 0
5.4 0.005 0
5.44 0.005 0
5.48 0.005 0
5.52 0.005 0
5.56 0.005 0
5.6 0.005 0
5.64 0.005 0
5.68 0.005 0
5.72 0.005 0
5.76 0.005 0
5.8 0.005 0
5.84 0.005 0
5.88 0.005 0
5.92 0.005 0
5.96 0.005 0
6 0.005 0
6.04 0.005 0
6.08 0.005 0
6.12 0.005 0
6.16 0.005 0
6.2 0.005 0
6.24 0.005 0
6.28 0.005 0
6.32 0.005 0
6.36 0.005 0
6.4 0.005 0
6.44 0.005 0
6.48 0.005 0
6.52 0.005 0
6.56 0.005 0
6.6 0.005 0
6.64 0.005 0
6.68 0.005 0
6.72 0.005 0
6.76 0.005 0
6.8 0.005 0
6.84 0.005 0
6.88 0.005 0
6.92 0.005 0
6.96 0.005 0
7 0.005 0
7.04 0.005 0
7.08 0.005 0
7.12 0.005 0
7.16 0.005 0
7.2 0.005 0
7.24 0.005 0
7.28 0.005 0
7.32 0.005 0
7.36 0.005 0
7.4 0.005 0
[...]
POINT_DATA 160000

SCALARS u float 1
LOOKUP_TABLE default
-1
-0.483358
-0.183963
-0.108845
-0.0810331
-0.0668337
-0.0581182
-0.0521527
-0.0477775
-0.0444146
-0.0417413
-0.0395616
-0.0377483
-0.0362154
-0.0349016
-0.0337626
-0.0327649
-0.0318831
-0.0310975
-0.0303925
-0.0297555
-0.0291765
-0.0286474
-0.0281613
-0.0277127
-0.0272969
-0.0269101
-0.0265489
-0.0262106
-0.0258926
-0.0255931
-0.0253102
-0.0250423
-0.0247882
-0.0245467
-0.0243167
-0.0240973
-0.0238877
-0.0236871
-0.0234951
-0.0233108
-0.023134
-0.0229639
-0.0228003
-0.0226428
-0.0224909
-0.0223444
-0.0222029
-0.0220662
-0.021934
-0.0218061
-0.0216822
-0.0215622
-0.0214459
-0.0213331
-0.0212236
-0.0211172
-0.0210139
-0.0209135
-0.0208159
-0.0207209
-0.0206284
-0.0205384
-0.0204506
-0.0203652
-0.0202818
-0.0202005
-0.0201213
-0.0200439
-0.0199683
-0.0198945
-0.0198224
-0.019752
-0.0196831
-0.0196158
-0.0195499
-0.0194855
-0.0194224
-0.0193607
-0.0193002
-0.0192411
-0.0191831
-0.0191262
-0.0190705
-0.0190159
-0.0189624
-0.0189099
-0.0188584
-0.0188079
-0.0187583
-0.0187096
-0.0186618
-0.0186149
-0.0185688
-0.0185236
-0.0184791
-0.0184354
-0.0183925
-0.0183503
-0.0183088
-0.018268
-0.0182279
-0.0181884
-0.0181496
-0.0181114
-0.0180738
-0.0180369
-0.0180005
-0.0179647
-0.0179294
-0.0178947
-0.0178605
-0.0178268
-0.0177936
-0.017761
-0.0177288
-0.0176971
-0.0176658
-0.017635
-0.0176047
-0.0175748
-0.0175453
-0.0175162
-0.0174876
-0.0174593
-0.0174314
-0.0174039
-0.0173768
-0.0173501
-0.0173237
-0.0172976
-0.0172719
-0.0172466
-0.0172216
-0.0171969
-0.0171725
-0.0171485
-0.0171248
-0.0171013
-0.0170782
-0.0170553
-0.0170328
-0.0170105
-0.0169885
-0.0169668
-0.0169454
-0.0169242
-0.0169032
-0.0168826
-0.0168622
-0.016842
-0.016822
-0.0168024
-0.0167829
-0.0167637
-0.0167447
-0.0167259
-0.0167073
-0.016689
-0.0166709
-0.016653
-0.0166353
-0.0166177
-0.0166004
-0.0165833
-0.0165664
-0.0165497
-0.0165332
-0.0165168
-0.0165007
-0.0164847
-0.0164689
-0.0164533
-0.0164378
-0.0164225
-0.0164074
-0.0163925
-0.0163777
-0.0163631
-0.0163486
-0.0163343
-0.0163202
-0.0163062
-0.0162923
-0.0162786
-0.0162651
-0.0162517
-0.0162384
-0.0162253
-0.0162123
-0.0161995
-0.0161868
-0.0161742
-0.0161618
-0.0161495
-0.0161373
-0.0161252
-0.0161133
-0.0161015
-0.0160899
-0.0160783
-0.0160669
-0.0160555
-0.0160443
-0.0160333
-0.0160223
-0.0160114
-0.0160007
-0.0159901
-0.0159795
-0.0159691
-0.0159588
-0.0159486
-0.0159385
-0.0159285
-0.0159186
-0.0159088
-0.0158991
-0.0158895
-0.01588
-0.0158706
-0.0158613
-0.0158521
-0.0158429
-0.0158339
-0.015825
-0.0158161
-0.0158073
-0.0157987
-0.0157901
-0.0157816
-0.0157732
-0.0157648
-0.0157566
-0.0157484
-0.0157403
-0.0157323
-0.0157244
-0.0157165
-0.0157087
-0.015701
-0.0156934
-0.0156858
-0.0156784
-0.015671
-0.0156636
-0.0156564
-0.0156492
-0.0156421
-0.015635
-0.0156281
-0.0156212
-0.0156143
-0.0156075
-0.0156008
-0.0155942
-0.0155876
-0.0155811
-0.0155746
-0.0155683
-0.0155619
-0.0155557
-0.0155495
-0.0155433
-0.0155372
-0.0155312
-0.0155252
-0.0155193
-0.0155135
-0.0155077
-0.0155019
-0.0154962
-0.0154906
-0.015485
-0.0154795
-0.015474
-0.0154686
-0.0154632
-0.0154579
-0.0154527
-0.0154474
-0.0154423
-0.0154372
-0.0154321
-0.0154271
-0.0154221
-0.0154172
-0.0154123
-0.0154075
-0.0154027
-0.0153979
-0.0153932
-0.0153886
-0.015384
-0.0153794
-0.0153749
-0.0153704
-0.015366
-0.0153616
-0.0153572
-0.0153529
-0.0153486
-0.0153444
-0.0153402
-0.0153361
-0.015332
-0.0153279
-0.0153238
-0.0153198
-0.0153159
-0.015312
-0.0153081
-0.0153042
-0.0153004
-0.0152966
-0.0152929
-0.0152892
-0.0152855
-0.0152818
-0.0152782
-0.0152747
-0.0152711
-0.0152676
-0.0152641
-0.0152607
-0.0152573
-0.0152539
-0.0152505
-0.0152472
-0.0152439
-0.0152407
-0.0152374
-0.0152342
-0.0152311
-0.0152279
-0.0152248
-0.0152217
-0.0152187
-0.0152156
-0.0152126
-0.0152096
-0.0152067
-0.0152038
-0.0152009
-0.015198
-0.0151952
-0.0151923
-0.0151896
-0.0151868
-0.015184
-0.0151813
-0.0151786
-0.015176
-0.0151733
-0.0151707
-0.0151681
-0.0151655
-0.015163
-0.0151604
-0.0151579
-0.0151555
-0.015153
-0.0151506
-0.0151481
-0.0151457
-0.0151434
-0.015141
-0.0151387
-0.0151364
-0.0151341
-0.0151318
-0.0151295
-0.0151273
-0.0151251
-0.0151229
-0.0151207
-0.0151185
-0.0151164
-0.0151143
-0.0151122
-0.0151101
-0.015108
-0.015106
-0.015104
-0.0151019
-0.0150999
-0.015098
-0.015096
-0.0150941
-0.0150921
-0.0150902
-0.0150883
-0.0150864
-0.0150846
-0.0150827
-0.0150809
-0.0150791
-0.0150773
-0.0150755
-0.0150737
-0.015072
-0.0150702
-0.0150685
-0.0150668
-0.0150651
-0.0150634
-0.0150617
-0.0150601
-0.0150584
-0.0150568
-0.0150552
-0.0150536
-0.015052
-0.0150504
-0.0150488
-0.0150473
-0.0150457
-0.0150442
-0.0150427
-0.0150412
-0.0150397
-0.0150382
-0.0150368
-0.0150353
-0.0150339
-0.0150324
-0.015031
-0.0150296
-0.0150282
-0.0150268
-0.0150254
-0.0150241
-0.0150227
-0.0150214
-0.01502
-0.0150187
-0.0150174
-0.0150161
-0.0150148
-0.0150135
-0.0150123
-0.015011
-0.0150097
-0.0150085
-0.0150073
-0.015006
-0.0150048
-0.0150036
-0.0150024
-0.0150012
-0.0150001
-0.0149989
-0.0149977
-0.0149966
-0.0149954
-0.0149943
-0.0149932
-0.0149921
-0.0149909
-0.0149898
-0.0149888
-0.0149877
-0.0149866
-0.0149855
-0.0149845
-0.0149834
-0.0149824
-0.0149813
-0.0149803
-0.0149793
-0.0149783
-0.0149773
-0.0149763
-0.0149753
-0.0149743
-0.0149733
-0.0149723
-0.0149714
-0.0149704
-0.0149695
-0.0149685
-0.0149676
-0.0149667
-0.0149658
-0.0149649
-0.014964
-0.0149631
-0.0149622
-0.0149613
-0.0149604
-0.0149595
-0.0149587
-0.0149578
-0.014957
-0.0149561
-0.0149553
-0.0149545
-0.0149537
-0.0149528
-0.014952
-0.0149512
-0.0149504
-0.0149497
-0.0149489
-0.0149481
-0.0149473
-0.0149466
-0.0149458
-0.0149451
-0.0149443
-0.0149436
-0.0149429
-0.0149421
-0.0149414
-0.0149407
-0.01494
-0.0149393
-0.0149386
-0.0149379
-0.0149373
-0.0149366
-0.0149359
-0.0149353
-0.0149346
-0.014934
-0.0149333
-0.0149327
-0.0149321
-0.0149314
-0.0149308
-0.0149302
-0.0149296
-0.014929
-0.0149284
-0.0149278
-0.0149272
-0.0149266
-0.0149261
-0.0149255
-0.0149249
-0.0149244
-0.0149238
-0.0149233
-0.0149227
-0.0149222
-0.0149217
-0.0149212
-0.0149206
-0.0149201
-0.0149196
-0.0149191
-0.0149186
-0.0149181
-0.0149176
-0.0149171
-0.0149166
-0.0149162
-0.0149157
-0.0149152
-0.0149147
-0.0149143
-0.0149138
-0.0149134
-0.0149129
-0.0149125
-0.014912
-0.0149116
-0.0149112
-0.0149107
-0.0149103
-0.0149099
-0.0149095
-0.014909
-0.0149086
-0.0149082
-0.0149078
-0.0149074
-0.014907
-0.0149066
-0.0149062
-0.0149058
-0.0149054
-0.014905
-0.0149047
-0.0149043
-0.0149039
-0.0149035
-0.0149031
-0.0149028
-0.0149024
-0.014902
-0.0149017
-0.0149013
-0.0149009
-0.0149006
-0.0149002
-0.0148999
-0.0148995
-0.0148992
-0.0148988
-0.0148985
-0.0148981
-0.0148978
-0.0148974
-0.0148971
-0.0148968
-0.0148964
-0.0148961
-0.0148957
-0.0148954
-0.0148951
-0.0148947
-0.0148944
-0.0148941
-0.0148938
-0.0148934
-0.0148931
-0.0148928
-0.0148924
-0.0148921
-0.0148918
-0.0148915
-0.0148912
-0.0148908
-0.0148905
-0.0148902
-0.0148899
-0.0148896
-0.0148892
-0.0148889
-0.0148886
-0.0148883
-0.014888
-0.0148876
-0.0148873
-0.014887
-0.0148867
-0.0148864
-0.0148861
-0.0148858
-0.0148854
-0.0148851
-0.0148848
-0.0148845
-0.0148842
-0.0148839
-0.0148836
-0.0148833
-0.0148829
-0.0148826
-0.0148823
-0.014882
-0.0148817
-0.0148814
-0.0148811
-0.0148808
-0.0148805
-0.0148801
-0.0148798
-0.0148795
-0.0148792
-0.0148789
-0.0148786
-0.0148783
-0.014878
-0.0148777
-0.0148773
-0.014877
-0.0148767
-0.0148764
-0.0148761
-0.0148758
-0.0148755
-0.0148752
-0.0148749
-0.0148746
-0.0148742
-0.0148739
-0.0148736
-0.0148733
-0.014873
-0.0148727
-0.0148724
-0.0148721
-0.0148718
-0.0148715
-0.0148711
-0.0148708
-0.0148705
-0.0148702
-0.0148699
-0.0148696
-0.0148693
-0.014869
-0.0148687
-0.0148684
-0.014868
-0.0148677
-0.0148674
-0.0148671
-0.0148668
-0.0148665
-0.0148662
-0.0148659
-0.0148656
-0.0148653
-0.0148649
-0.0148646
-0.0148643
-0.014864
-0.0148637
-0.0148634
-0.0148631
-0.0148628
-0.0148625
-0.0148622
-0.0148619
-0.0148615
-0.0148612
-0.0148609
-0.0148606
-0.0148603
-0.01486
-0.0148597
-0.0148594
-0.0148591
-0.0148588
-0.0148584
-0.0148581
-0.0148578
-0.0148575
-0.0148572
-0.0148569
-0.0148566
-0.0148563
-0.014856
-0.0148557
-0.0148553
-0.014855
-0.0148547
-0.0148544
-0.0148541
-0.0148538
-0.0148535
-0.0148532
-0.0148529
-0.0148526
-0.0148522
-0.0148519
-0.0148516
-0.0148513
-0.014851
-0.0148507
-0.0148504
-0.0148501
-0.0148498
-0.0148495
-0.0148491
-0.0148488
-0.0148485
-0.0148482
-0.0148479
-0.0148476
-0.0148473
-0.014847
-0.0148467
-0.0148464
-0.014846
-0.0148457
-0.0148454
-0.0148451
-0.0148448
-0.0148445
-0.0148442
-0.0148439
-0.0148436
-0.0148432
-0.0148429
-0.0148426
-0.0148423
-0.014842
-0.0148416
-0.0148413
-0.014841
-0.0148407
-0.0148403
-0.01484
-0.0148396
-0.0148392
-0.0148388
-0.0148384
-0.014838
-0.0148375
-0.0148369
-0.0148363
-0.0148356
-0.0148346
-0.0148342
-0.0148342
-0.0148342
1
0.483358
0.183963
0.108845
0.0810331
0.0668337
0.0581182
0.0521527
0.0477775
0.0444146
0.0417413
0.0395616
0.0377483
0.0362154
0.0349016
0.0337626
0.0327649
0.0318831
0.0310975
0.0303925
0.0297555
0.0291765
0.0286474
0.0281613
0.0277127
0.0272969
0.0269101
0.0265489
0.0262106
0.0258926
0.0255931
0.0253102
0.0250423
0.0247882
0.0245467
0.0243167
0.0240973
0.0238877
0.0236871
0.0234951
0.0233108
0.023134
0.0229639
0.0228003
0.0226428
0.0224909
0.0223444
0.0222029
0.0220662
0.021934
0.0218061
0.0216822
0.0215622
0.0214459
0.0213331
0.0212236
0.0211172
0.0210139
0.0209135
0.0208159
0.0207209
0.0206284
0.0205384
0.0204506
0.0203652
0.0202818
0.0202005
0.0201213
0.0200439
0.0199683
0.0198945
0.0198224
0.019752
0.0196831
0.0196158
0.0195499
0.0194855
0.0194224
0.0193607
0.0193002
0.0192411
0.0191831
0.0191262
0.0190705
0.0190159
0.0189624
0.0189099
0.0188584
0.0188079
0.0187583
0.0187096
0.0186618
0.0186149
0.0185688
0.0185236
0.0184791
0.0184354
0.0183925
0.0183503
0.0183088
0.018268
0.0182279
0.0181884
0.0181496
0.0181114
0.0180738
0.0180369
0.0180005
0.0179647
0.0179294
0.0178947
0.0178605
0.0178268
0.0177936
0.017761
0.0177288
0.0176971
0.0176658
0.017635
0.0176047
0.0175748
0.0175453
0.0175162
0.0174876
0.0174593
0.0174314
0.0174039
0.0173768
0.0173501
0.0173237
0.0172976
0.0172719
0.0172466
0.0172216
0.0171969
0.0171725
0.0171485
0.0171248
0.0171013
0.0170782
0.0170553
0.0170328
0.0170105
0.0169885
0.0169668
0.0169454
0.0169242
0.0169032
0.0168826
0.0168622
0.016842
0.016822
0.0168024
0.0167829
0.0167637
0.0167447
0.0167259
0.0167073
0.016689
0.0166709
0.016653
0.0166353
0.0166177
0.0166004
0.0165833
0.0165664
0.0165497
0.0165332
0.0165168
0.0165007
0.0164847
0.0164689
0.0164533
0.0164378
0.0164225
0.0164074
0.0163925
0.0163777
0.0163631
0.0163486
0.0163343
0.0163202
0.0163062
0.0162923
0.0162786
0.0162651
0.0162517
0.0162384
0.0162253
0.0162123
0.0161995
0.0161868
0.0161742
0.0161618
0.0161495
0.0161373
0.0161252
0.0161133
0.0161015
0.0160899
0.0160783
0.0160669
0.0160555
0.0160443
0.0160333
0.0160223
0.0160114
0.0160007
0.0159901
0.0159795
0.0159691
0.0159588
0.0159486
0.0159385
0.0159285
0.0159186
0.0159088
0.0158991
0.0158895
0.01588
0.0158706
0.0158613
0.0158521
0.0158429
0.0158339
0.015825
0.0158161
0.0158073
0.0157987
0.0157901
0.0157816
0.0157732
0.0157648
0.0157566
0.0157484
0.0157403
0.0157323
0.0157244
0.0157165
0.0157087
0.015701
0.0156934
0.0156858
0.0156784
0.015671
0.0156636
0.0156564
0.0156492
0.0156421
0.015635
0.0156281
0.0156212
0.0156143
0.0156075
0.0156008
0.0155942
0.0155876
0.0155811
0.0155746
0.0155683
0.0155619
0.0155557
0.0155495
0.0155433
0.0155372
0.0155312
0.0155252
0.0155193
0.0155135
0.0155077
0.0155019
0.0154962
0.0154906
0.015485
0.0154795
0.015474
0.0154686
0.0154632
0.0154579
0.0154527
0.0154474
0.0154423
0.0154372
0.0154321
0.0154271
0.0154221
0.0154172
0.0154123
0.0154075
0.0154027
0.0153979
0.0153932
0.0153886
0.015384
0.0153794
0.0153749
0.0153704
0.015366
0.0153616
0.0153572
0.0153529
0.0153486
0.0153444
0.0153402
0.0153361
0.015332
0.0153279
0.0153238
0.0153198
0.0153159
0.015312
0.0153081
0.0153042
0.0153004
0.0152966
0.0152929
0.0152892
0.0152855
0.0152818
0.0152782
0.0152747
0.0152711
0.0152676
0.0152641
0.0152607
0.0152573
0.0152539
0.0152505
0.0152472
0.0152439
0.0152407
0.0152374
0.0152342
0.0152311
0.0152279
0.0152248
0.0152217
0.0152187
0.0152156
0.0152126
0.0152096
0.0152067
0.0152038
0.0152009
0.015198
0.0151952
0.0151923
0.0151896
0.0151868
0.015184
0.0151813
0.0151786
0.015176
0.0151733
0.0151707
0.0151681
0.0151655
0.015163
0.0151604
0.0151579
0.0151555
0.015153
0.0151506
0.0151481
0.0151457
0.0151434
0.015141
0.0151387
0.0151364
0.0151341
0.0151318
0.0151295
0.0151273
0.0151251
0.0151229
0.0151207
0.0151185
0.0151164
0.0151143
0.0151122
0.0151101
0.015108
0.015106
0.015104
0.0151019
0.0150999
0.015098
0.015096
0.0150941
0.0150921
0.0150902
0.0150883
0.0150864
0.0150846
0.0150827
0.0150809
0.0150791
0.0150773
0.0150755
0.0150737
0.015072
0.0150702
0.0150685
0.0150668
0.0150651
0.0150634
0.0150617
0.0150601
0.0150584
0.0150568
0.0150552
0.0150536
0.015052
0.0150504
0.0150488
0.0150473
0.0150457
0.0150442
0.0150427
0.0150412
0.0150397
0.0150382
0.0150368
0.0150353
0.0150339
0.0150324
0.015031
0.0150296
0.0150282
0.0150268
0.0150254
0.0150241
0.0150227
0.0150214
0.01502
0.0150187
0.0150174
0.0150161
0.0150148
0.0150135
0.0150123
0.015011
0.0150097
0.0150085
0.0150073
0.015006
0.0150048
0.0150036
0.0150024
0.0150012
0.0150001
0.0149989
0.0149977
0.0149966
0.0149954
0.0149943
0.0149932
0.0149921
0.0149909
0.0149898
0.0149888
0.0149877
0.0149866
0.0149855
0.0149845
0.0149834
0.0149824
0.0149813
0.0149803
0.0149793
0.0149783
0.0149773
0.0149763
0.0149753
0.0149743
0.0149733
0.0149723
0.0149714
0.0149704
0.0149695
0.0149685
0.0149676
0.0149667
0.0149658
0.0149649
0.014964
0.0149631
0.0149622
0.0149613
0.0149604
0.0149595
0.0149587
0.0149578
0.014957
0.0149561
0.0149553
0.0149545
0.0149537
0.0149528
0.014952
0.0149512
0.0149504
0.0149497
0.0149489
0.0149481
0.0149473
0.0149466
0.0149458
0.0149451
0.0149443
0.0149436
0.0149429
0.0149421
0.0149414
0.0149407
0.01494
0.0149393
0.0149386
0.0149379
0.0149373
0.0149366
0.0149359
0.0149353
0.0149346
0.014934
0.0149333
0.0149327
0.0149321
0.0149314
0.0149308
0.0149302
0.0149296
0.014929
0.0149284
0.0149278
0.0149272
0.0149266
0.0149261
0.0149255
0.0149249
0.0149244
0.0149238
0.0149233
0.0149227
0.0149222
0.0149217
0.0149212
0.0149206
0.0149201
0.0149196
0.0149191
0.0149186
0.0149181
0.0149176
0.0149171
0.0149166
0.0149162
0.0149157
0.0149152
0.0149147
0.0149143
0.0149138
0.0149134
0.0149129
0.0149125
0.014912
0.0149116
0.0149112
0.0149107
0.0149103
0.0149099
0.0149095
0.014909
0.0149086
0.0149082
0.0149078
0.0149074
0.014907
0.0149066
0.0149062
0.0149058
0.0149054
0.014905
0.0149047
0.0149043
0.0149039
0.0149035
0.0149031
0.0149028
0.0149024
0.014902
0.0149017
0.0149013
0.0149009
0.0149006
0.0149002
0.0148999
0.0148995
0.0148992
0.0148988
0.0148985
0.0148981
0.0148978
0.0148974
0.0148971
0.0148968
0.0148964
0.0148961
0.0148957
0.0148954
0.0148951
0.0148947
0.0148944
0.0148941
0.0148938
0.0148934
0.0148931
0.0148928
0.0148924
0.0148921
0.0148918
0.0148915
0.0148912
0.0148908
0.0148905
0.0148902
0.0148899
0.0148896
0.0148892
0.0148889
0.0148886
0.0148883
0.014888
0.0148876
0.0148873
0.014887
0.0148867
0.0148864
0.0148861
0.0148858
0.0148854
0.0148851
0.0148848
0.0148845
0.0148842
0.0148839
0.0148836
0.0148833
0.0148829
0.0148826
0.0148823
0.014882
0.0148817
0.0148814
0.0148811
0.0148808
0.0148805
0.0148801
0.0148798
0.0148795
0.0148792
0.0148789
0.0148786
0.0148783
0.014878
0.0148777
0.0148773
0.014877
0.0148767
0.0148764
0.0148761
0.0148758
0.0148755
0.0148752
0.0148749
0.0148746
0.0148742
0.0148739
0.0148736
0.0148733
0.014873
0.0148727
0.0148724
0.0148721
0.0148718
0.0148715
0.0148711
0.0148708
0.0148705
0.0148702
0.0148699
0.0148696
0.0148693
0.014869
0.0148687
0.0148684
0.014868
0.0148677
0.0148674
0.0148671
0.0148668
0.0148665
0.0148662
0.0148659
0.0148656
0.0148653
0.0148649
0.0148646
0.0148643
0.014864
0.0148637
0.0148634
0.0148631
0.0148628
0.0148625
0.0148622
0.0148619
0.0148615
0.0148612
0.0148609
0.0148606
0.0148603
0.01486
0.0148597
0.0148594
0.0148591
0.0148588
0.0148584
0.0148581
0.0148578
0.0148575
0.0148572
0.0148569
0.0148566
0.0148563
0.014856
0.0148557
0.0148553
0.014855
0.0148547
0.0148544
0.0148541
0.0148538
0.0148535
0.0148532
0.0148529
0.0148526
0.0148522
0.0148519
0.0148516
0.0148513
0.014851
0.0148507
0.0148504
0.0148501
0.0148498
0.0148495
0.0148491
0.0148488
0.0148485
0.0148482
0.0148479
0.0148476
0.0148473
0.014847
0.0148467
0.0148464
0.014846
0.0148457
0.0148454
0.0148451
0.0148448
0.0148445
0.0148442
0.0148439
0.0148436
0.0148432
0.0148429
0.0148426
0.0148423
0.014842
0.0148416
0.0148413
0.014841
0.0148407
0.0148403
0.01484
0.0148396
0.0148392
0.0148388
0.0148384
0.014838
0.0148375
0.0148369
0.0148363
0.0148356
0.0148346
0.0148342
0.0148342
0.0148342
1
0.969192
0.495617
0.314223
0.237897
0.197396
0.172133
0.154696
0.141842
0.131928
0.124028
0.117574
0.112197
0.107646
0.103742
0.100355
0.0973868
0.0947625
0.0924237
0.0903244
0.0884277
0.0867038
0.0851284
0.0836814
0.0823463
0.0811092
0.0799586
0.0788844
0.0778784
0.0769335
0.0760435
0.075203
0.0744076
0.0736531
0.0729361
0.0722535
0.0716026
0.0709809
0.0703862
0.0698167
0.0692706
0.0687463
0.0682424
0.0677576
0.0672908
0.0668409
0.0664069
0.0659879
0.0655831
0.0651916
0.0648129
0.0644463
0.0640911
0.0637468
0.0634128
0.0630887
0.062774
0.0624683
0.0621712
0.0618823
0.0616012
0.0613276
0.0610612
0.0608017
0.0605488
0.0603023
0.0600619
0.0598274
0.0595985
0.0593751
0.0591568
0.0589437
0.0587353
0.0585317
0.0583326
0.0581378
0.0579473
0.0577609
0.0575784
0.0573997
0.0572247
0.0570532
0.0568852
0.0567206
0.0565592
0.056401
0.0562458
0.0560935
0.0559442
0.0557976
0.0556537
0.0555125
0.0553739
0.0552377
0.0551039
0.0549725
0.0548434
0.0547165
0.0545918
0.0544692
0.0543486
0.0542301
0.0541135
0.0539988
0.053886
0.053775
0.0536658
0.0535583
0.0534525
0.0533483
0.0532457
0.0531447
0.0530452
0.0529473
0.0528508
0.0527557
0.0526621
0.0525698
0.0524788
0.0523892
0.0523008
0.0522137
0.0521278
0.0520432
0.0519597
0.0518774
0.0517962
0.0517161
0.0516371
0.0515592
0.0514823
0.0514065
0.0513316
0.0512578
0.0511849
0.0511129
0.0510419
0.0509718
0.0509027
0.0508343
0.0507669
0.0507003
0.0506346
0.0505696
0.0505055
0.0504422
0.0503797
0.0503179
0.0502568
0.0501966
0.050137
0.0500782
0.05002
0.0499626
0.0499059
0.0498498
0.0497944
0.0497396
0.0496855
0.049632
0.0495791
0.0495268
0.0494752
0.0494241
0.0493736
0.0493237
0.0492744
0.0492256
0.0491773
0.0491296
0.0490825
0.0490359
0.0489898
0.0489442
0.0488991
0.0488545
0.0488104
0.0487668
0.0487236
0.048681
0.0486387
0.048597
0.0485557
0.0485149
0.0484745
0.0484345
0.0483949
0.0483558
0.0483171
0.0482788
0.0482409
0.0482035
0.0481664
0.0481297
0.0480934
0.0480575
0.0480219
0.0479867
0.0479519
0.0479175
0.0478834
0.0478497
0.0478163
0.0477833
0.0477506
0.0477182
0.0476862
0.0476545
0.0476231
0.0475921
0.0475614
0.0475309
0.0475008
0.047471
0.0474415
0.0474124
0.0473835
0.0473549
0.0473265
0.0472985
0.0472708
0.0472433
0.0472161
0.0471892
0.0471626
0.0471362
0.0471101
0.0470842
0.0470586
0.0470333
0.0470082
0.0469834
0.0469588
0.0469344
0.0469103
0.0468865
0.0468628
0.0468394
0.0468163
0.0467933
0.0467706
0.0467482
0.0467259
0.0467038
0.046682
0.0466604
0.046639
0.0466178
0.0465968
0.0465761
0.0465555
0.0465351
0.0465149
0.046495
0.0464752
0.0464556
0.0464362
0.046417
0.046398
0.0463791
0.0463605
0.046342
0.0463237
0.0463056
0.0462876
0.0462698
0.0462522
0.0462348
0.0462175
0.0462004
0.0461835
0.0461667
0.0461501
0.0461337
0.0461174
0.0461013
0.0460853
0.0460694
0.0460538
0.0460382
0.0460229
0.0460076
0.0459925
0.0459776
0.0459628
0.0459481
0.0459336
0.0459192
0.045905
0.0458909
0.0458769
0.045863
0.0458493
0.0458357
0.0458223
0.0458089
0.0457957
0.0457827
0.0457697
0.0457569
0.0457441
0.0457315
0.0457191
0.0457067
0.0456945
0.0456823
0.0456703
0.0456584
0.0456466
0.0456349
0.0456234
0.0456119
0.0456005
0.0455893
0.0455781
0.0455671
0.0455561
0.0455453
0.0455345
0.0455239
0.0455134
0.0455029
0.0454926
0.0454823
0.0454721
0.0454621
0.0454521
0.0454422
0.0454324
0.0454227
0.0454131
0.0454036
0.0453941
0.0453848
0.0453755