# vtk DataFile Version 2.0
FlowField
ASCII
DATASET STRUCTURED_GRID
DIMENSIONS 800 1 200
POINTS 160000 float
0 0 0
0.04 0 0
0.08 0 0
0.12 0 0
0.16 0 0
0.2 0 0
0.24 0 0
0.28 0 0
0.32 0 0
0.36 0 0
0.4 0 0
0.44 0 0
0.48 0 0
0.52 0 0
0.56 0 0
0.6 0 0
0.64 0 0
0.68 0 0
0.72 0 0
0.76 0 0
0.8 0 0
0.84 0 0
0.88 0 0
0.92 0 0
0.96 0 0
1 0 0
1.04 0 0
1.08 0 0
1.12 0 0
1.16 0 0
1.2 0 0
1.24 0 0
1.28 0 0
1.32 0 0
1.36 0 0
1.4 0 0
1.44 0 0
1.48 0 0
1.52 0 0
1.56 0 0
1.6 0 0
1.64 0 0
1.68 0 0
1.72 0 0
1.76 0 0
1.8 0 0
1.84 0 0
1.88 0 0
1.92 0 0
1.96 0 0
2 0 0
2.04 0 0
2.08 0 0
2.12 0 0
2.16 0 0
2.2 0 0
2.24 0 0
2.28 0 0
2.32 0 0
2.36 0 0
2.4 0 0
2.44 0 0
2.48 0 0
2.52 0 0
2.56 0 0
2.6 0 0
2.64 0 0
2.68 0 0
2.72 0 0
2.76 0 0
2.8 0 0
2.84 0 0
2.88 0 0
2.92 0 0
2.96 0 0
3 0 0
3.04 0 0
3.08 0 0
3.12 0 0
3.16 0 0
3.2 0 0
3.24 0 0
3.28 0 0
3.32 0 0
3.36 0 0
3.4 0 0
3.44 0 0
3.48 0 0
3.52 0 0
3.56 0 0
3.6 0 0
3.64 0 0
3.68 0 0
3.72 0 0
3.76 0 0
3.8 0 0
3.84 0 0
3.88 0 0
3.92 0 0
3.96 0 0
4 0 0
4.04 0 0
4.08 0 0
4.12 0 0
4.16 0 0
4.2 0 0
4.24 0 0
4.28 0 0
4.32 0 0
4.36 0 0
4.4 0 0
4.44 0 0
4.48 0 0
4.52 0 0
4.56 0 0
4.6 0 0
4.64 0 0
4.68 0 0
4.72 0 0
4.76 0 0
4.8 0 0
4.84 0 0
4.88 0 0
4.92 0 0
4.96 0 0
5 0 0
5.04 0 0
5.08 0 0
5.12 0 0
5.16 0 0
5.2 0 0
5.24 0 0
5.28 0 0
5.32 0 0
5.36 0 0
5.4 0 0
5.44 0 0
5.48 0 0
5.52 0 0
5.56 0 0
5.6 0 0
5.64 0 0
5.68 0 0
5.72 0 0
5.76 0 0
5.8 0 0
5.84 0 0
5.88 0 0
5.92 0 0
5.96 0 0
6 0 0
6.04 0 0
6.08 0 0
6.12 0 0
6.16 0 0
6.2 0 0
6.24 0 0
6.28 0 0
6.32 0 0
6.36 0 0
6.4 0 0
6.44 0 0
6.48 0 0
6.52 0 0
6.56 0 0
6.6 0 0
6.64 0 0
6.68 0 0
6.72 0 0
6.76 0 0
6.8 0 0
6.84 0 0
6.88 0 0
6.92 0 0
6.96 0 0
7 0 0
7.04 0 0
7.08 0 0
7.12 0 0
7.16 0 0
7.2 0 0
7.24 0 0
7.28 0 0
7.32 0 0
7.36 0 0
7.4 0 0
7.44 0 0
7.48 0 0
7.52 0 0
7.56 0 0
7.6 0 0
7.64 0 0
7.68 0 0
7.72 0 0
7.76 0 0
7.8 0 0
7.84 0 0
7.88 0 0
7.92 0 0
7.96 0 0
8 0 0
8.04 0 0
8.08 0 0
8.12 0 0
8.16 0 0
8.2 0 0
8.24 0 0
8.28 0 0
8.32 0 0
8.36 0 0
8.4 0 0
8.44 0 0
8.48 0 0
8.52 0 0
8.56 0 0
8.6 0 0
8.64 0 0
8.68 0 0
8.72 0 0
8.76 0 0
8.8 0 0
8.84 0 0
8.88 0 0
8.92 0 0
8.96 0 0
9 0 0
9.04 0 0
9.08 0 0
9.12 0 0
9.16 0 0
9.2 0 0
9.24 0 0
9.28 0 0
9.32 0 0
9.36 0 0
9.4 0 0
9.44 0 0
9.48 0 0
9.52 0 0
9.56 0 0
9.6 0 0
9.64 0 0
9.68 0 0
9.72 0 0
9.76 0 0
9.8 0 0
9.84 0 0
9.88 0 0
9.92 0 0
9.96 0 0
10 0 0
10.04 0 0
10.08 0 0
10.12 0 0
10.16 0 0
10.2 0 0
10.24 0 0
10.28 0 0
10.32 0 0
10.36 0 0
10.4 0 0
10.44 0 0
10.48 0 0
10.52 0 0
10.56 0 0
10.6 0 0
10.64 0 0
10.68 0 0
10.72 0 0
10.76 0 0
10.8 0 0
10.84 0 0
10.88 0 0
10.92 0 0
10.96 0 0
11 0 0
11.04 0 0
11.08 0 0
11.12 0 0
11.16 0 0
11.2 0 0
11.24 0 0
11.28 0 0
11.32 0 0
11.36 0 0
11.4 0 0
11.44 0 0
11.48 0 0
11.52 0 0
11.56 0 0
11.6 0 0
11.64 0 0
11.68 0 0
11.72 0 0
11.76 0 0
11.8 0 0
11.84 0 0
11.88 0 0
11.92 0 0
11.96 0 0
12 0 0
12.04 0 0
12.08 0 0
12.12 0 0
12.16 0 0
12.2 0 0
12.24 0 0
12.28 0 0
12.32 0 0
12.36 0 0
12.4 0 0
12.44 0 0
12.48 0 0
12.52 0 0
12.56 0 0
12.6 0 0
12.64 0 0
12.68 0 0
12.72 0 0
12.76 0 0
12.8 0 0
12.84 0 0
12.88 0 0
12.92 0 0
12.96 0 0
13 0 0
13.04 0 0
13.08 0 0
13.12 0 0
13.16 0 0
13.2 0 0
13.24 0 0
13.28 0 0
13.32 0 0
13.36 0 0
13.4 0 0
13.44 0 0
13.48 0 0
13.52 0 0
13.56 0 0
13.6 0 0
13.64 0 0
13.68 0 0
13.72 0 0
13.76 0 0
13.8 0 0
13.84 0 0
13.88 0 0
13.92 0 0
13.96 0 0
14 0 0
14.04 0 0
14.08 0 0
14.12 0 0
14.16 0 0
14.2 0 0
14.24 0 0
14.28 0 0
14.32 0 0
14.36 0 0
14.4 0 0
14.44 0 0
14.48 0 0
14.52 0 0
14.56 0 0
14.6 0 0
14.64 0 0
14.68 0 0
14.72 0 0
14.76 0 0
14.8 0 0
14.84 0 0
14.88 0 0
14.92 0 0
14.96 0 0
15 0 0
15.04 0 0
15.08 0 0
15.12 0 0
15.16 0 0
15.2 0 0
15.24 0 0
15.28 0 0
15.32 0 0
15.36 0 0
15.4 0 0
15.44 0 0
15.48 0 0
15.52 0 0
15.56 0 0
15.6 0 0
15.64 0 0
15.68 0 0
15.72 0 0
15.76 0 0
15.8 0 0
15.84 0 0
15.88 0 0
15.92 0 0
15.96 0 0
16 0 0
16.04 0 0
16.08 0 0
16.12 0 0
16.16 0 0
16.2 0 0
16.24 0 0
16.28 0 0
16.32 0 0
16.36 0 0
16.4 0 0
16.44 0 0
16.48 0 0
16.52 0 0
16.56 0 0
16.6 0 0
16.64 0 0
16.68 0 0
16.72 0 0
16.76 0 0
16.8 0 0
16.84 0 0
16.88 0 0
16.92 0 0
16.96 0 0
17 0 0
17.04 0 0
17.08 0 0
17.12 0 0
17.16 0 0
17.2 0 0
17.24 0 0
17.28 0 0
17.32 0 0
17.36 0 0
17.4 0 0
17.44 0 0
17.48 0 0
17.52 0 0
17.56 0 0
17.6 0 0
17.64 0 0
17.68 0 0
17.72 0 0
17.76 0 0
17.8 0 0
17.84 0 0
17.88 0 0
17.92 0 0
17.96 0 0
18 0 0
18.04 0 0
18.08 0 0
18.12 0 0
18.16 0 0
18.2 0 0
18.24 0 0
18.28 0 0
18.32 0 0
18.36 0 0
18.4 0 0
18.44 0 0
18.48 0 0
18.52 0 0
18.56 0 0
18.6 0 0
18.64 0 0
18.68 0 0
18.72 0 0
18.76 0 0
18.8 0 0
18.84 0 0
18.88 0 0
18.92 0 0
18.96 0 0
19 0 0
19.04 0 0
19.08 0 0
19.12 0 0
19.16 0 0
19.2 0 0
19.24 0 0
19.28 0 0
19.32 0 0
19.36 0 0
19.4 0 0
19.44 0 0
19.48 0 0
19.52 0 0
19.56 0 0
19.6 0 0
19.64 0 0
19.68 0 0
19.72 0 0
19.76 0 0
19.8 0 0
19.84 0 0
19.88 0 0
19.92 0 0
19.96 0 0
20 0 0
20.04 0 0
20.08 0 0
20.12 0 0
20.16 0 0
20.2 0 0
20.24 0 0
20.28 0 0
20.32 0 0
20.36 0 0
20.4 0 0
20.44 0 0
20.48 0 0
20.52 0 0
20.56 0 0
20.6 0 0
20.64 0 0
20.68 0 0
20.72 0 0
20.76 0 0
20.8 0 0
20.84 0 0
20.88 0 0
20.92 0 0
20.96 0 0
21 0 0
21.04 0 0
21.08 0 0
21.12 0 0
21.16 0 0
21.2 0 0
21.24 0 0
21.28 0 0
21.32 0 0
21.36 0 0
21.4 0 0
21.44 0 0
21.48 0 0
21.52 0 0
21.56 0 0
21.6 0 0
21.64 0 0
21.68 0 0
21.72 0 0
21.76 0 0
21.8 0 0
21.84 0 0
21.88 0 0
21.92 0 0
21.96 0 0
22 0 0
22.04 0 0
22.08 0 0
22.12 0 0
22.16 0 0
22.2 0 0
22.24 0 0
22.28 0 0
22.32 0 0
22.36 0 0
22.4 0 0
22.44 0 0
22.48 0 0
22.52 0 0
22.56 0 0
22.6 0 0
22.64 0 0
22.68 0 0
22.72 0 0
22.76 0 0
22.8 0 0
22.84 0 0
22.88 0 0
22.92 0 0
22.96 0 0
23 0 0
23.04 0 0
23.08 0 0
23.12 0 0
23.16 0 0
23.2 0 0
23.24 0 0
23.28 0 0
23.32 0 0
23.36 0 0
23.4 0 0
23.44 0 0
23.48 0 0
23.52 0 0
23.56 0 0
23.6 0 0
23.64 0 0
23.68 0 0
23.72 0 0
23.76 0 0
23.8 0 0
23.84 0 0
23.88 0 0
23.92 0 0
23.96 0 0
24 0 0
24.04 0 0
24.08 0 0
24.12 0 0
24.16 0 0
24.2 0 0
24.24 0 0
24.28 0 0
24.32 0 0
24.36 0 0
24.4 0 0
24.44 0 0
24.48 0 0
24.52 0 0
24.56 0 0
24.6 0 0
24.64 0 0
24.68 0 0
24.72 0 0
24.76 0 0
24.8 0 0
24.84 0 0
24.88 0 0
24.92 0 0
24.96 0 0
25 0 0
25.04 0 0
25.08 0 0
25.12 0 0
25.16 0 0
25.2 0 0
25.24 0 0
25.28 0 0
25.32 0 0
25.36 0 0
25.4 0 0
25.44 0 0
25.48 0 0
25.52 0 0
25.56 0 0
25.6 0 0
25.64 0 0
25.68 0 0
25.72 0 0
25.76 0 0
25.8 0 0
25.84 0 0
25.88 0 0
25.92 0 0
25.96 0 0
26 0 0
26.04 0 0
26.08 0 0
26.12 0 0
26.16 0 0
26.2 0 0
26.24 0 0
26.28 0 0
26.32 0 0
26.36 0 0
26.4 0 0
26.44 0 0
26.48 0 0
26.52 0 0
26.56 0 0
26.6 0 0
26.64 0 0
26.68 0 0
26.72 0 0
26.76 0 0
26.8 0 0
26.84 0 0
26.88 0 0
26.92 0 0
26.96 0 0
27 0 0
27.04 0 0
27.08 0 0
27.12 0 0
27.16 0 0
27.2 0 0
27.24 0 0
27.28 0 0
27.32 0 0
27.36 0 0
27.4 0 0
27.44 0 0
27.48 0 0
27.52 0 0
27.56 0 0
27.6 0 0
27.64 0 0
27.68 0 0
27.72 0 0
27.76 0 0
27.8 0 0
27.84 0 0
27.88 0 0
27.92 0 0
27.96 0 0
28 0 0
28.04 0 0
28.08 0 0
28.12 0 0
28.16 0 0
28.2 0 0
28.24 0 0
28.28 0 0
28.32 0 0
28.36 0 0
28.4 0 0
28.44 0 0
28.48 0 0
28.52 0 0
28.56 0 0
28.6 0 0
28.64 0 0
28.68 0 0
28.72 0 0
28.76 0 0
28.8 0 0
28.84 0 0
28.88 0 0
28.92 0 0
28.96 0 0
29 0 0
29.04 0 0
29.08 0 0
29.12 0 0
29.16 0 0
29.2 0 0
29.24 0 0
29.28 0 0
29.32 0 0
29.36 0 0
29.4 0 0
29.44 0 0
29.48 0 0
29.52 0 0
29.56 0 0
29.6 0 0
29.64 0 0
29.68 0 0
29.72 0 0
29.76 0 0
29.8 0 0
29.84 0 0
29.88 0 0
29.92 0 0
29.96 0 0
30 0 0
30.04 0 0
30.08 0 0
30.12 0 0
30.16 0 0
30.2 0 0
30.24 0 0
30.28 0 0
30.32 0 0
30.36 0 0
30.4 0 0
30.44 0 0
30.48 0 0
30.52 0 0
30.56 0 0
30.6 0 0
30.64 0 0
30.68 0 0
30.72 0 0
30.76 0 0
30.8 0 0
30.84 0 0
30.88 0 0
30.92 0 0
30.96 0 0
31 0 0
31.04 0 0
31.08 0 0
31.12 0 0
31.16 0 0
31.2 0 0
31.24 0 0
31.28 0 0
31.32 0 0
31.36 0 0
31.4 0 0
31.44 0 0
31.48 0 0
31.52 0 0
31.56 0 0
31.6 0 0
31.64 0 0
31.68 0 0
31.72 0 0
31.76 0 0
31.8 0 0
31.84 0 0
31.88 0 0
31.92 0 0
31.96 0 0
0 0.005 0
0.04 0.005 0
0.08 0.005 0
0.12 0.005 0
0.16 0.005 0
0.2 0.005 0
0.24 0.005 0
0.28 0.005 0
0.32 0.005 0
0.36 0.005 0
0.4 0.005 0
0.44 0.005 0
0.48 0.005 0
0.52 0.005 0
0.56 0.005 0
0.6 0.005 0
0.64 0.005 0
0.68 0.005 0
0.72 0.005 0
0.76 0.005 0
0.8 0.005 0
0.84 0.005 0
0.88 0.005 0
0.92 0.005 0
0.96 0.005 0
1 0.005 0
1.04 0.005 0
1.08 0.005 0
1.12 0.005 0
1.16 0.005 0
1.2 0.005 0
1.24 0.005 0
1.28 0.005 0
1.32 0.005 0
1.36 0.005 0
1.4 0.005 0
1.44 0.005 0
1.48 0.005 0
1.52 0.005 0
1.56 0.005 0
1.6 0.005 0
1.64 0.005 0
1.68 0.005 0
1.72 0.005 0
1.76 0.005 0
1.8 0.005 0
1.84 0.005 0
1.88 0.005 0
1.92 0.005 0
1.96 0.005 0
2 0.005 0
2.04 0.005 0
2.08 0.005 0
2.12 0.005 0
2.16 0.005 0
2.2 0.005 0
2.24 0.005 0
2.28 0.005 0
2.32 0.005 0
2.36 0.005 0
2.4 0.005 0
2.44 0.005 0
2.48 0.005 0
2.52 0.005 0
2.56 0.005 0
2.6 0.005 0
2.64 0.005 0
2.68 0.005 0
2.72 0.005 0
2.76 0.005 0
2.8 0.005 0
2.84 0.005 0
2.88 0.005 0
2.92 0.005 0
2.96 0.005 0
3 0.005 0
3.04 0.005 0
3.08 0.005 0
3.12 0.005 0
3.16 0.005 0
3.2 0.005 0
3.24 0.005 0
3.28 0.005 0
3.32 0.005 0
3.36 0.005 0
3.4 0.005 0
3.44 0.005 0
3.48 0.005 0
3.52 0.005 0
3.56 0.005 0
3.6 0.005 0
3.64 0.005 0
3.68 0.005 0
3.72 0.005 0
3.76 0.005 0
3.8 0.005 0
3.84 0.005 0
3.88 0.005 0
3.92 0.005 0
3.96 0.005 0
4 0.005 0
4.04 0.005 0
4.08 0.005 0
4.12 0.005 0
4.16 0.005 0
4.2 0.005 0
4.24 0.005 0
4.28 0.005 0
4.32 0.005 0
4.36 0.005 0
4.4 0.005 0
4.44 0.005 0
4.48 0.005 0
4.52 0.005 0
4.56 0.005 0
4.6 0.005 0
4.64 0.005 0
4.68 0.005 0
4.72 0.005 0
4.76 0.005 0
4.8 0.005 0
4.84 0.005 0
4.88 0.005 0
4.92 0.005 0
4.96 0.005 0
5 0.005 0
5.04 0.005 0
5.08 0.005 0
5.12 0.005 0
5.16 0.005 0
5.2 0.005 0
5.24 0.005 0
5.28 0.005 0
5.32 0.005 0
5.36 0.005 0
5.4 0.005 0
5.44 0.005 0
5.48 0.005 0
5.52 0.005 0
5.56 0.005 0
5.6 0.005 0
5.64 0.005 0
5.68 0.005 0
5.72 0.005 0
5.76 0.005 0
5.8 0.005 0
5.84 0.005 0
5.88 0.005 0
5.92 0.005 0
5.96 0.005 0
6 0.005 0
6.04 0.005 0
6.08 0.005 0
6.12 0.005 0
6.16 0.005 0
6.2 0.005 0
6.24 0.005 0
6.28 0.005 0
6.32 0.005 0
6.36 0.005 0
6.4 0.005 0
6.44 0.005 0
6.48 0.005 0
6.52 0.005 0
6.56 0.005 0
6.6 0.005 0
6.64 0.005 0
6.68 0.005 0
6.72 0.005 0
6.76 0.005 0
6.8 0.005 0
6.84 0.005 0
6.88 0.005 0
6.92 0.005 0
6.96 0.005 0
7 0.005 0
7.04 0.005 0
7.08 0.005 0
7.12 0.005 0
7.16 0.005 0
7.2 0.005 0
7.24 0.005 0
7.28 0.005 0
7.32 0.005 0
7.36 0.005 0
7.4 0.005 0
[...]
POINT_DATA 160000

SCALARS v float 1
LOOKUP_TABLE default
0
0
0
0
0
0
0
0
0
0
0
0
0
0
0
0
0
0
0
0
0
0
0
0
0
0
0
0
0
0
0
0
0
0
0
0
0
0
0
0
0
0
0
0
0
0
0
0
0
0
0
0
0
0
0
0
0
0
0
0
0
0
0
0
0
0
0
0
0
0
0
0
0
0
0
0
0
0
0
0
0
0
0
0
0
0
0
0
0
0
0
0
0
0
0
0
0
0
0
0
0
0
0
0
0
0
0
0
0
0
0
0
0
0
0
0
0
0
0
0
0
0
0
0
0
0
0
0
0
0
0
0
0
0
0
0
0
0
0
0
0
0
0
0
0
0
0
0
0
0
0
0
0
0
0
0
0
0
0
0
0
0
0
0
0
0
0
0
0
0
0
0
0
0
0
0
0
0
0
0
0
0
0
0
0
0
0
0
0
0
0
0
0
0
0
0
0
0
0
0
0
0
0
0
0
0
0
0
0
0
0
0
0
0
0
0
0
0
0
0
0
0
0
0
0
0
0
0
0
0
0
0
0
0
0
0
0
0
0
0
0
0
0
0
0
0
0
0
0
0
0
0
0
0
0
0
0
0
0
0
0
0
0
0
0
0
0
0
0
0
0
0
0
0
0
0
0
0
0
0
0
0
0
0
0
0
0
0
0
0
0
0
0
0
0
0
0
0
0
0
0
0
0
0
0
0
0
0
0
0
0
0
0
0
0
0
0
0
0
0
0
0
0
0
0
0
0
0
0
0
0
0
0
0
0
0
0
0
0
0
0
0
0
0
0
0
0
0
0
0
0
0
0
0
0
0
0
0
0
0
0
0
0
0
0
0
0
0
0
0
0
0
0
0
0
0
0
0
0
0
0
0
0
0
0
0
0
0
0
0
0
0
0
0
0
0
0
0
0
0
0
0
0
0
0
0
0
0
0
0
0
0
0
0
0
0
0
0
0
0
0
0
0
0
0
0
0
0
0
0
0
0
0
0
0
0
0
0
0
0
0
0
0
0
0
0
0
0
0
0
0
0
0
0
0
0
0
0
0
0
0
0
0
0
0
0
0
0
0
0
0
0
0
0
0
0
0
0
0
0
0
0
0
0
0
0
0
0
0
0
0
0
0
0
0
0
0
0
0
0
0
0
0
0
0
0
0
0
0
0
0
0
0
0
0
0
0
0
0
0
0
0
0
0
0
0
0
0
0
0
0
0
0
0
0
0
0
0
0
0
0
0
0
0
0
0
0
0
0
0
0
0
0
0
0
0
0
0
0
0
0
0
0
0
0
0
0
0
0
0
0
0
0
0
0
0
0
0
0
0
0
0
0
0
0
0
0
0
0
0
0
0
0
0
0
0
0
0
0
0
0
0
0
0
0
0
0
0
0
0
0
0
0
0
0
0
0
0
0
0
0
0
0
0
0
0
0
0
0
0
0
0
0
0
0
0
0
0
0
0
0
0
0
0
0
0
0
0
0
0
0
0
0
0
0
0
0
0
0
0
0
0
0
0
0
0
0
0
0
0
0
0
0
0
0
0
0
0
0
0
0
0
0
0
0
0
0
0
0
0
0
0
0
0
0
0
0
0
0
0
0
0
0
0
0
0
0
0
0
0
0
0
0
0
0
0
0
0
0
0
0
0
0
0
0
0
0
0
0
0
0
0
0
0
0
0
0
0
0
0
0
0
0
0
0
0
0
0
0
0
0
0
0
0
0
0
0
0
0
0
0
0
0
0
0
0
0
0
0
0
0
0
0
0
0
0
0
0
0
0
0
0
0
0
0
0
0
0
0
0
0
0
0
0
0
0
0
0
0
0
0
0
0.0374157
0.00938111
0.00346794
0.00176633
0.00108085
0.000737089
0.000538312
0.000411767
0.000325568
0.00026388
0.000218058
0.000183028
0.000155626
0.00013379
0.000116117
0.000101626
8.96074e-05
7.95395e-05
7.10297e-05
6.37778e-05
5.75511e-05
5.21669e-05
4.74805e-05
4.33759e-05
3.97595e-05
3.65555e-05
3.37016e-05
3.11468e-05
2.88487e-05
2.67721e-05
2.48877e-05
2.31708e-05
2.16006e-05
2.01595e-05
1.88325e-05
1.76067e-05
1.64712e-05
1.54165e-05
1.44344e-05
1.35177e-05
1.26603e-05
1.18566e-05
1.11019e-05
1.0392e-05
9.72302e-06
9.09172e-06
8.4951e-06
7.93046e-06
7.39542e-06
6.88782e-06
6.40568e-06
5.94724e-06
5.51088e-06
5.09516e-06
4.69871e-06
4.32029e-06
3.95878e-06
3.61315e-06
3.28244e-06
2.96577e-06
2.66232e-06
2.37134e-06
2.09213e-06
1.82403e-06
1.56645e-06
1.31882e-06
1.08061e-06
8.51329e-07
6.30529e-07
4.17781e-07
2.12681e-07
1.48511e-08
-1.76057e-07
-3.60372e-07
-5.38412e-07
-7.10469e-07
-8.76813e-07
-1.0377e-06
-1.19338e-06
-1.34409e-06
-1.49005e-06
-1.63145e-06
-1.76849e-06
-1.90136e-06
-2.03023e-06
-2.15527e-06
-2.27664e-06
-2.39447e-06
-2.50891e-06
-2.62011e-06
-2.72818e-06
-2.83325e-06
-2.93542e-06
-3.03482e-06
-3.13155e-06
-3.2257e-06
-3.31736e-06
-3.40664e-06
-3.49362e-06
-3.57837e-06
-3.66098e-06
-3.74152e-06
-3.82007e-06
-3.8967e-06
-3.97147e-06
-4.04444e-06
-4.11567e-06
-4.18521e-06
-4.25314e-06
-4.3195e-06
-4.38433e-06
-4.4477e-06
-4.50964e-06
-4.5702e-06
-4.62942e-06
-4.68736e-06
-4.74403e-06
-4.79949e-06
-4.85376e-06
-4.9069e-06
-4.95893e-06
-5.00988e-06
-5.05979e-06
-5.10868e-06
-5.15658e-06
-5.20353e-06
-5.24955e-06
-5.29466e-06
-5.3389e-06
-5.38228e-06
-5.42483e-06
-5.46657e-06
-5.50753e-06
-5.54773e-06
-5.58718e-06
-5.62591e-06
-5.66393e-06
-5.70126e-06
-5.73793e-06
-5.77394e-06
-5.80932e-06
-5.84408e-06
-5.87824e-06
-5.91181e-06
-5.94481e-06
-5.97725e-06
-6.00914e-06
-6.04049e-06
-6.07133e-06
-6.10167e-06
-6.13151e-06
-6.16087e-06
-6.18975e-06
-6.21818e-06
-6.24615e-06
-6.27368e-06
-6.30078e-06
-6.32746e-06
-6.35373e-06
-6.3796e-06
-6.40508e-06
-6.43018e-06
-6.4549e-06
-6.47925e-06
-6.50324e-06
-6.52687e-06
-6.55016e-06
-6.57312e-06
-6.59575e-06
-6.61805e-06
-6.64004e-06
-6.6617e-06
-6.68307e-06
-6.70414e-06
-6.72493e-06
-6.74542e-06
-6.76563e-06
-6.78556e-06
-6.80522e-06
-6.82462e-06
-6.84376e-06
-6.86265e-06
-6.88128e-06
-6.89967e-06
-6.91782e-06
-6.93573e-06
-6.9534e-06
-6.97085e-06
-6.98807e-06
-7.00508e-06
-7.02187e-06
-7.03845e-06
-7.05481e-06
-7.07097e-06
-7.08694e-06
-7.1027e-06
-7.11826e-06
-7.13364e-06
-7.14883e-06
-7.16383e-06
-7.17865e-06
-7.19328e-06
-7.20775e-06
-7.22204e-06
-7.23615e-06
-7.2501e-06
-7.26388e-06
-7.2775e-06
-7.29096e-06
-7.30426e-06
-7.31741e-06
-7.3304e-06
-7.34325e-06
-7.35594e-06
-7.36848e-06
-7.38088e-06
-7.39314e-06
-7.40527e-06
-7.41725e-06
-7.42909e-06
-7.4408e-06
-7.45238e-06
-7.46382e-06
-7.47514e-06
-7.48634e-06
-7.49741e-06
-7.50836e-06
-7.51917e-06
-7.52987e-06
-7.54046e-06
-7.55093e-06
-7.56127e-06
-7.57151e-06
-7.58163e-06
-7.59165e-06
-7.60156e-06
-7.61136e-06
-7.62105e-06
-7.63064e-06
-7.64012e-06
-7.6495e-06
-7.65878e-06
-7.66796e-06
-7.67704e-06
-7.68602e-06
-7.69492e-06
-7.70371e-06
-7.7124e-06
-7.72101e-06
-7.72953e-06
-7.73795e-06
-7.74628e-06
-7.75452e-06
-7.76268e-06
-7.77076e-06
-7.77875e-06
-7.78666e-06
-7.79448e-06
-7.80221e-06
-7.80986e-06
-7.81745e-06
-7.82495e-06
-7.83236e-06
-7.8397e-06
-7.84697e-06
-7.85416e-06
-7.86128e-06
-7.86832e-06
-7.87529e-06
-7.88218e-06
-7.88901e-06
-7.89577e-06
-7.90245e-06
-7.90906e-06
-7.91561e-06
-7.92208e-06
-7.9285e-06
-7.93485e-06
-7.94112e-06
-7.94734e-06
-7.9535e-06
-7.95959e-06
-7.96561e-06
-7.97158e-06
-7.97748e-06
-7.98332e-06
-7.9891e-06
-7.99483e-06
-8.0005e-06
-8.00611e-06
-8.01166e-06
-8.01715e-06
-8.02259e-06
-8.02797e-06
-8.03329e-06
-8.03857e-06
-8.04379e-06
-8.04896e-06
-8.05407e-06
-8.05913e-06
-8.06414e-06
-8.0691e-06
-8.07401e-06
-8.07887e-06
-8.08367e-06
-8.08843e-06
-8.09315e-06
-8.09781e-06
-8.10243e-06
-8.107e-06
-8.11153e-06
-8.116e-06
-8.12043e-06
-8.12482e-06
-8.12917e-06
-8.13347e-06
-8.13772e-06
-8.14194e-06
-8.14611e-06
-8.15023e-06
-8.15432e-06
-8.15836e-06
-8.16237e-06
-8.16633e-06
-8.17026e-06
-8.17415e-06
-8.17799e-06
-8.1818e-06
-8.18556e-06
-8.18929e-06
-8.19298e-06
-8.19663e-06
-8.20025e-06
-8.20384e-06
-8.20738e-06
-8.21089e-06
-8.21436e-06
-8.2178e-06
-8.2212e-06
-8.22458e-06
-8.22792e-06
-8.23122e-06
-8.23448e-06
-8.23772e-06
-8.24092e-06
-8.24408e-06
-8.24722e-06
-8.25034e-06
-8.25342e-06
-8.25646e-06
-8.25947e-06
-8.26246e-06
-8.26541e-06
-8.26834e-06
-8.27123e-06
-8.27409e-06
-8.27693e-06
-8.27974e-06
-8.28252e-06
-8.28527e-06
-8.288e-06
-8.29069e-06
-8.29336e-06
-8.296e-06
-8.29862e-06
-8.30121e-06
-8.30377e-06
-8.3063e-06
-8.30882e-06
-8.31131e-06
-8.31377e-06
-8.3162e-06
-8.31862e-06
-8.321e-06
-8.32336e-06
-8.32571e-06
-8.32802e-06
-8.33031e-06
-8.33258e-06
-8.33483e-06
-8.33706e-06
-8.33926e-06
-8.34144e-06
-8.34359e-06
-8.34572e-06
-8.34784e-06
-8.34994e-06
-8.35201e-06
-8.35405e-06
-8.35608e-06
-8.3581e-06
-8.36009e-06
-8.36205e-06
-8.364e-06
-8.36593e-06
-8.36784e-06
-8.36973e-06
-8.3716e-06
-8.37345e-06
-8.37529e-06
-8.3771e-06
-8.37889e-06
-8.38067e-06
-8.38243e-06
-8.38418e-06
-8.3859e-06
-8.38761e-06
-8.3893e-06
-8.39097e-06
-8.39262e-06
-8.39426e-06
-8.39589e-06
-8.39748e-06
-8.39907e-06
-8.40065e-06
-8.40221e-06
-8.40375e-06
-8.40527e-06
-8.40679e-06
-8.40829e-06
-8.40977e-06
-8.41123e-06
-8.41269e-06
-8.41413e-06
-8.41555e-06
-8.41696e-06
-8.41835e-06
-8.41973e-06
-8.4211e-06
-8.42246e-06
-8.4238e-06
-8.42514e-06
-8.42645e-06
-8.42776e-06
-8.42905e-06
-8.43033e-06
-8.4316e-06
-8.43286e-06
-8.43411e-06
-8.43535e-06
-8.43658e-06
-8.43779e-06
-8.439e-06
-8.4402e-06
-8.44139e-06
-8.44257e-06
-8.44374e-06
-8.44489e-06
-8.44604e-06
-8.44718e-06
-8.44831e-06
-8.44944e-06
-8.45055e-06
-8.45167e-06
-8.45277e-06
-8.45387e-06
-8.45495e-06
-8.45603e-06
-8.45712e-06
-8.45819e-06
-8.45924e-06
-8.4603e-06
-8.46135e-06
-8.46239e-06
-8.46343e-06
-8.46446e-06
-8.46549e-06
-8.46652e-06
-8.46753e-06
-8.46854e-06
-8.46955e-06
-8.47056e-06
-8.47156e-06
-8.47255e-06
-8.47355e-06
-8.47453e-06
-8.47552e-06
-8.4765e-06
-8.47747e-06
-8.47845e-06
-8.47941e-06
-8.48038e-06
-8.48134e-06
-8.48229e-06
-8.48325e-06
-8.48419e-06
-8.48514e-06
-8.48608e-06
-8.48702e-06
-8.48796e-06
-8.48889e-06
-8.48982e-06
-8.49075e-06
-8.49167e-06
-8.49258e-06
-8.4935e-06
-8.49441e-06
-8.49531e-06
-8.49621e-06
-8.49711e-06
-8.49801e-06
-8.4989e-06
-8.49978e-06
-8.50066e-06
-8.50154e-06
-8.50242e-06
-8.50329e-06
-8.50415e-06
-8.505e-06
-8.50586e-06
-8.50671e-06
-8.50755e-06
-8.50839e-06
-8.50922e-06
-8.51005e-06
-8.51087e-06
-8.51169e-06
-8.5125e-06
-8.5133e-06
-8.5141e-06
-8.51489e-06
-8.51568e-06
-8.51646e-06
-8.51722e-06
-8.51798e-06
-8.51874e-06
-8.51949e-06
-8.52023e-06
-8.52097e-06
-8.52171e-06
-8.52243e-06
-8.52314e-06
-8.52384e-06
-8.52453e-06
-8.52523e-06
-8.5259e-06
-8.52657e-06
-8.52724e-06
-8.5279e-06
-8.52855e-06
-8.52918e-06
-8.52981e-06
-8.53043e-06
-8.53104e-06
-8.53165e-06
-8.53224e-06
-8.53283e-06
-8.5334e-06
-8.53396e-06
-8.53452e-06
-8.53507e-06
-8.53561e-06
-8.53615e-06
-8.53666e-06
-8.53717e-06
-8.53768e-06
-8.53817e-06
-8.53866e-06
-8.53913e-06
-8.53959e-06
-8.54005e-06
-8.54049e-06
-8.54092e-06
-8.54135e-06
-8.54177e-06
-8.54218e-06
-8.54258e-06
-8.54297e-06
-8.54334e-06
-8.54372e-06
-8.54408e-06
-8.54443e-06
-8.54478e-06
-8.54512e-06
-8.54545e-06
-8.54577e-06
-8.54608e-06
-8.54638e-06
-8.54668e-06
-8.54696e-06
-8.54724e-06
-8.54752e-06
-8.54778e-06
-8.54803e-06
-8.54828e-06
-8.54852e-06
-8.54875e-06
-8.54898e-06
-8.5492e-06
-8.5494e-06
-8.54961e-06
-8.54981e-06
-8.55e-06
-8.55019e-06
-8.55036e-06
-8.55053e-06
-8.5507e-06
-8.55086e-06
-8.55101e-06
-8.55116e-06
-8.5513e-06
-8.55144e-06
-8.55157e-06
-8.55169e-06
-8.55181e-06
-8.55192e-06
-8.55204e-06
-8.55215e-06
-8.55225e-06
-8.55235e-06
-8.55244e-06
-8.55253e-06
-8.55262e-06
-8.5527e-06
-8.55278e-06
-8.55285e-06
-8.55293e-06
-8.55299e-06
-8.55306e-06
-8.55312e-06
-8.55317e-06
-8.55323e-06
-8.55329e-06
-8.55333e-06
-8.55338e-06
-8.55343e-06
-8.55348e-06
-8.55351e-06
-8.55354e-06
-8.55358e-06
-8.55362e-06
-8.55365e-06
-8.55369e-06
-8.55371e-06
-8.55374e-06
-8.55377e-06
-8.55379e-06
-8.55382e-06
-8.55384e-06
-8.55387e-06
-8.55388e-06
-8.5539e-06
-8.55392e-06
-8.55393e-06
-8.55395e-06
-8.55396e-06
-8.55398e-06
-8.554e-06
-8.55401e-06
-8.55402e-06
-8.55403e-06
-8.55404e-06
-8.55406e-06
-8.55407e-06
-8.55408e-06
-8.55409e-06
-8.5541e-06
-8.5541e-06
-8.55411e-06
-8.55412e-06
-8.55413e-06
-8.55414e-06
-8.55414e-06
-8.55415e-06
-8.55416e-06
-8.55417e-06
-8.55417e-06
-8.55418e-06
-8.55418e-06
-8.55419e-06
-8.5542e-06
-8.55421e-06
-8.55421e-06
-8.55422e-06
-8.55422e-06
-8.55423e-06
-8.55424e-06
-8.55425e-06
-8.55425e-06
-8.55426e-06
-8.55427e-06
-8.55427e-06
-8.55428e-06
-8.55428e-06
-8.55429e-06
-8.55429e-06
-8.5543e-06
-8.55431e-06
-8.55431e-06
-8.55431e-06
-8.55432e-06
-8.55433e-06
-8.55434e-06
-8.55435e-06
-8.55435e-06
-8.55436e-06
-8.55436e-06
-8.55437e-06
-8.55438e-06
-8.55438e-06
-8.55439e-06
-8.5544e-06
-8.5544e-06
-8.5544e-06
-8.55441e-06
-8.55441e-06
-8.55442e-06
-8.55443e-06
-8.55444e-06
-8.55444e-06
-8.55445e-06
-8.55445e-06
-8.55446e-06
-8.55446e-06
-8.55447e-06
-8.55448e-06
-8.55449e-06
-8.5545e-06
-8.5545e-06
-8.55451e-06
-8.55451e-06
-8.55451e-06
-8.55452e-06
-8.55453e-06
-8.55453e-06
-8.55454e-06
-8.55455e-06
-8.55455e-06
-8.55455e-06
-8.55456e-06
-8.55457e-06
-8.55458e-06
-8.55458e-06
-8.55459e-06
-8.5546e-06
-8.55461e-06
-8.55461e-06
-8.55462e-06
-8.55462e-06
-8.55462e-06
-8.55463e-06
-8.55464e-06
-8.55465e-06
-8.55465e-06
-8.55466e-06
-8.55467e-06
-8.55467e-06
-8.55467e-06
-8.55468e-06
-8.55469e-06
-8.55469e-06
-8.5547e-06
-8.5547e-06
-8.55471e-06
-8.55472e-06
-8.55472e-06
-8.55472e-06
-8.55473e-06
-8.55474e-06
-8.55474e-06
-8.55474e-06
-8.55474e-06
-8.55474e-06
-8.55474e-06
-8.55474e-06
-8.55473e-06
-8.55472e-06
-8.55471e-06
-8.5547e-06
-8.55467e-06
-8.55463e-06
-8.55459e-06
-8.55453e-06
-8.55446e-06
-8.55437e-06
-8.55425e-06
-8.55409e-06
-8.55389e-06
-8.55363e-06
-8.55331e-06
-8.55288e-06
-8.55237e-06
-8.55167e-06
-8.55085e-06
-8.54969e-06
-8.54837e-06
-8.54641e-06
-8.54434e-06
-8.5409e-06
-8.53776e-06
-8.53128e-06
-8.52712e-06
-8.51285e-06
-8.51165e-06
-8.46905e-06
-8.54128e-06
-6.03948e-06
-6.03948e-06
0
0
0.09661
0.0320527
0.0130061
0.00682635
0.00423605
0.00291411
0.00214247
0.0016484
0.00131053
0.00106805
0.000887544
0.000749296
0.000640992
0.00055457
0.000484545
0.000427066
0.000379351
0.000339348
0.000305512
0.000276659
0.000251872
0.00023043
0.00021176
0.000195404
0.00018099
0.000168219
0.000156842
0.000146658
0.000137498
0.000129222
0.000121712
0.000114872
0.000108617
0.000102878
9.75945e-05
9.27153e-05
8.81966e-05
8.40004e-05
8.00939e-05
7.64488e-05
7.30399e-05
6.98457e-05
6.68467e-05
6.40262e-05
6.13691e-05
5.8862e-05
5.6493e-05
5.42514e-05
5.21277e-05
5.01131e-05
4.82e-05
4.63811e-05
4.465e-05
4.3001e-05
4.14285e-05
3.99278e-05
3.84943e-05
3.71239e-05
3.58127e-05
3.45573e-05
3.33544e-05
3.2201e-05
3.10943e-05
3.00318e-05
2.9011e-05
2.80296e-05
2.70857e-05
2.61772e-05
2.53023e-05
2.44594e-05
2.36468e-05
2.28631e-05
2.21068e-05
2.13766e-05
2.06714e-05
1.99898e-05
1.9331e-05
1.86937e-05
1.80771e-05
1.74802e-05
1.69021e-05
1.63421e-05
1.57994e-05
1.52732e-05
1.47628e-05
1.42677e-05
1.37871e-05
1.33205e-05
1.28673e-05
1.2427e-05
1.19991e-05
1.15831e-05
1.11786e-05
1.0785e-05
1.0402e-05
1.00293e-05
9.66638e-06
9.31293e-06
8.96859e-06
8.63306e-06
8.30602e-06
7.98717e-06
7.67621e-06
7.37288e-06
7.07692e-06
6.78808e-06
6.50613e-06
6.23083e-06
5.96196e-06
5.69931e-06
5.44268e-06
5.19188e-06
4.94671e-06
4.70702e-06
4.47261e-06
4.24332e-06
4.01901e-06
3.79952e-06
3.5847e-06
3.3744e-06
3.1685e-06
2.96686e-06
2.76936e-06
2.57588e-06
2.38631e-06
2.20052e-06
2.01842e-06
1.8399e-06
1.66485e-06
1.49318e-06
1.32481e-06
1.15963e-06
9.9756e-07
8.38509e-07
6.82411e-07
5.29183e-07
3.78745e-07
2.31028e-07
8.59588e-08
-5.65336e-08
-1.96512e-07
-3.34042e-07
-4.69183e-07
-6.01999e-07
-7.32548e-07
-8.60877e-07
-9.87041e-07
-1.1111e-06
-1.23311e-06
-1.35311e-06
-1.47115e-06
-1.58728e-06
-1.70154e-06
-1.81398e-06
-1.92463e-06
-2.03353e-06
-2.14074e-06
-2.24628e-06
-2.3502e-06
-2.45252e-06
-2.5533e-06
-2.65255e-06
-2.75031e-06
-2.84662e-06
-2.9415e-06
-3.03498e-06
-3.1271e-06
-3.21789e-06
-3.30737e-06
-3.39557e-06
-3.48251e-06
-3.56821e-06
-3.65271e-06
-3.73604e-06
-3.81822e-06
-3.89925e-06
-3.97916e-06
-4.05798e-06
-4.13574e-06
-4.21245e-06
-4.28813e-06
-4.3628e-06
-4.43648e-06
-4.50918e-06
-4.58093e-06
-4.65175e-06
-4.72163e-06
-4.79062e-06
-4.85872e-06
-4.92596e-06
-4.99233e-06
-5.05787e-06
-5.12257e-06
-5.18646e-06
-5.24956e-06
-5.31186e-06
-5.3734e-06
-5.43417e-06
-5.4942e-06
-5.5535e-06
-5.61208e-06
-5.66994e-06
-5.7271e-06
-5.78358e-06
-5.83938e-06
-5.89451e-06
-5.94899e-06
-6.00282e-06
-6.05602e-06
-6.10859e-06
-6.16055e-06
-6.2119e-06
-6.26265e-06
-6.31281e-06
-6.36239e-06
-6.4114e-06
-6.45986e-06
-6.50775e-06
-6.5551e-06
-6.60191e-06
-6.64818e-06
-6.69394e-06
-6.73917e-06
-6.78391e-06
-6.82814e-06
-6.87187e-06
-6.91511e-06
-6.95787e-06
-7.00015e-06
-7.04197e-06
-7.08333e-06
-7.12422e-06
-7.16467e-06
-7.20468e-06
-7.24426e-06
-7.2834e-06
-7.32211e-06
-7.36039e-06
-7.39827e-06
-7.43573e-06
-7.47279e-06
-7.50944e-06
-7.54571e-06
-7.58158e-06
-7.61707e-06
-7.65218e-06
-7.68691e-06
-7.72127e-06
-7.75527e-06
-7.7889e-06
-7.82217e-06
-7.85509e-06
-7.88766e-06
-7.91989e-06
-7.95179e-06
-7.98334e-06
-8.01456e-06
-8.04545e-06
-8.07601e-06
-8.10626e-06
-8.13619e-06
-8.1658e-06
-8.19511e-06
-8.2241e-06
-8.2528e-06
-8.2812e-06
-8.3093e-06
-8.3371e-06
-8.36462e-06
-8.39186e-06
-8.41881e-06
-8.44549e-06
-8.47188e-06
-8.498e-06
-8.52385e-06
-8.54944e-06
-8.57476e-06
-8.59982e-06
-8.62462e-06
-8.64917e-06
-8.67347e-06
-8.69751e-06
-8.72131e-06
-8.74486e-06
-8.76817e-06
-8.79124e-06
-8.81407e-06
-8.83668e-06
-8.85905e-06
-8.8812e-06
-8.90311e-06
-8.9248e-06
-8.94627e-06
-8.96752e-06
-8.98855e-06
-9.00937e-06
-9.02998e-06
-9.05037e-06
-9.07056e-06
-9.09054e-06
-9.11033e-06
-9.12991e-06
-9.14929e-06
-9.16846e-06
-9.18745e-06
-9.20624e-06
-9.22485e-06
-9.24327e-06
-9.26149e-06
-9.27954e-06
-9.2974e-06
-9.31507e-06
-9.33257e-06
-9.34989e-06
-9.36704e-06
-9.38401e-06
-9.40081e-06
-9.41744e-06
-9.43391e-06
-9.4502e-06
-9.46633e-06
-9.4823e-06
-9.4981e-06
-9.51375e-06
-9.52924e-06
-9.54458e-06
-9.55975e-06
-9.57477e-06
-9.58964e-06
-9.60436e-06
-9.61893e-06
-9.63336e-06
-9.64764e-06
-9.66178e-06
-9.67577e-06
-9.68962e-06
-9.70332e-06
-9.71689e-06
-9.73033e-06
-9.74363e-06
-9.7568e-06
-9.76983e-06
-9.78273e-06
-9.7955e-06
-9.80814e-06
-9.82065e-06
-9.83304e-06
-9.84531e-06
-9.85746e-06
-9.86947e-06
-9.88136e-06
-9.89314e-06
-9.9048e-06
-9.91634e-06
-9.92776e-06
-9.93907e-06
-9.95026e-06
-9.96135e-06
-9.97232e-06
-9.98317e-06
-9.99392e-06
-1.00046e-05
-1.00151e-05
-1.00255e-05
-1.00358e-05
-1.00461e-05
-1.00562e-05
-1.00662e-05
-1.00761e-05
-1.00859e-05
-1.00956e-05
-1.01052e-05
-1.01148e-05
-1.01242e-05
-1.01335e-05
-1.01427e-05
-1.01519e-05
-1.01609e-05
-1.01699e-05
-1.01787e-05
-1.01875e-05
-1.01962e-05
-1.02048e-05
-1.02133e-05
-1.02217e-05
-1.02301e-05
-1.02384e-05
-1.02465e-05
-1.02546e-05
-1.02626e-05
-1.02706e-05
-1.02784e-05
-1.02862e-05
-1.02938e-05
-1.03015e-05
-1.0309e-05
-1.03165e-05
-1.03238e-05
-1.03311e-05
-1.03384e-05
-1.03455e-05
-1.03526e-05
-1.03596e-05
-1.03666e-05
-1.03735e-05
-1.03803e-05
-1.0387e-05
-1.03937e-05
-1.04003e-05
-1.04068e-05
-1.04133e-05
-1.04197e-05
-1.0426e-05
-1.04323e-05
-1.04385e-05
-1.04446e-05
-1.04507e-05
-1.04567e-05
-1.04627e-05
-1.04686e-05
-1.04744e-05
-1.04802e-05
-1.0486e-05
-1.04916e-05
-1.04973e-05
-1.05028e-05
-1.05083e-05
-1.05138e-05
-1.05192e-05
-1.05246e-05
-1.05299e-05
-1.05351e-05
-1.05403e-05
-1.05455e-05
-1.05506e-05
-1.05557e-05
-1.05607e-05
-1.05657e-05
-1.05706e-05
-1.05755e-05
-1.05804e-05
-1.05852e-05
-1.059e-05
-1.05947e-05
-1.05994e-05
-1.06041e-05
-1.06087e-05
-1.06133e-05
-1.06178e-05
-1.06223e-05
-1.06268e-05
-1.06313e-05
-1.06357e-05
-1.06401e-05
-1.06445e-05
-1.06488e-05
-1.06531e-05
-1.06574e-05
-1.06617e-05
-1.06659e-05
-1.06701e-05
-1.06743e-05
-1.06785e-05
-1.06827e-05
-1.06868e-05
-1.06909e-05
-1.0695e-05
-1.0699e-05
-1.07031e-05
-1.07071e-05
-1.07111e-05
-1.07151e-05
-1.07191e-05
-1.0723e-05
-1.0727e-05
-1.07309e-05
-1.07348e-05
-1.07387e-05
-1.07426e-05
-1.07464e-05
-1.07503e-05
-1.07541e-05
-1.0758e-05
-1.07618e-05
-1.07655e-05
-1.07693e-05
-1.07731e-05
-1.07768e-05
-1.07806e-05
-1.07843e-05
-1.0788e-05
-1.07917e-05
-1.07954e-05
-1.07991e-05
-1.08027e-05
-1.08064e-05
-1.081e-05
-1.08136e-05
-1.08172e-05
-1.08208e-05
-1.08243e-05
-1.08279e-05
-1.08314e-05
-1.08349e-05
-1.08384e-05
-1.08419e-05
-1.08453e-05
-1.08487e-05
-1.08522e-05
-1.08556e-05
-1.08589e-05
-1.08623e-05
-1.08656e-05
-1.08689e-05
-1.08722e-05
-1.08755e-05
-1.08787e-05
-1.08819e-05
-1.08851e-05
-1.08883e-05
-1.08914e-05
-1.08946e-05
-1.08976e-05
-1.09007e-05
-1.09037e-05
-1.09067e-05
-1.09097e-05
-1.09127e-05
-1.09156e-05
-1.09185e-05
-1.09213e-05
-1.09241e-05
-1.09269e-05
-1.09297e-05
-1.09324e-05
-1.09351e-05
-1.09377e-05
-1.09404e-05
-1.0943e-05
-1.09455e-05
-1.09481e-05
-1.09505e-05
-1.0953e-05
-1.09554e-05
-1.09578e-05
-1.09601e-05
-1.09624e-05
-1.09647e-05
-1.09669e-05
-1.09691e-05
-1.09713e-05
-1.09734e-05
-1.09755e-05
-1.09776e-05
-1.09796e-05
-1.09815e-05
-1.09835e-05
-1.09854e-05
-1.09872e-05
-1.09891e-05
-1.09908e-05
-1.09926e-05
-1.09943e-05
-1.0996e-05
-1.09976e-05
-1.09992e-05
-1.10008e-05
-1.10023e-05
-1.10038e-05
-1.10052e-05
-1.10066e-05
-1.1008e-05
-1.10094e-05
-1.10107e-05
-1.1012e-05
-1.10132e-05
-1.10144e-05
-1.10156e-05
-1.10168e-05
-1.10179e-05
-1.1019e-05
-1.102e-05
-1.1021e-05
-1.1022e-05
-1.1023e-05
-1.10239e-05
-1.10248e-05
-1.10257e-05
-1.10265e-05
-1.10273e-05
-1.10281e-05
-1.10289e-05
-1.10296e-05
-1.10303e-05
-1.1031e-05
-1.10316e-05
-1.10323e-05
-1.10329e-05
-1.10335e-05
-1.1034e-05
-1.10346e-05
-1.10351e-05
-1.10356e-05
-1.1036e-05
-1.10365e-05
-1.10369e-05
-1.10374e-05
-1.10378e-05
-1.10381e-05
-1.10385e-05
-1.10389e-05
-1.10392e-05
-1.10395e-05
-1.10398e-05
-1.10401e-05
-1.10404e-05
-1.10406e-05
-1.10409e-05
-1.10411e-05
-1.10413e-05
-1.10416e-05
-1.10418e-05
-1.10419e-05
-1.10421e-05
-1.10423e-05
-1.10425e-05
-1.10426e-05
-1.10427e-05
-1.10429e-05
-1.1043e-05
-1.10431e-05
-1.10432e-05
-1.10433e-05
-1.10434e-05
-1.10435e-05
-1.10436e-05
-1.10437e-05
-1.10438e-05
-1.10438e-05
-1.10439e-05
-1.1044e-05
-1.1044e-05
-1.10441e-05
-1.10441e-05