# vtk DataFile Version 2.0
FlowField
ASCII
DATASET STRUCTURED_GRID
DIMENSIONS 800 1 200
POINTS 160000 float
0 0 0
0.04 0 0
0.08 0 0
0.12 0 0
0.16 0 0
0.2 0 0
0.24 0 0
0.28 0 0
0.32 0 0
0.36 0 0
0.4 0 0
0.44 0 0
0.48 0 0
0.52 0 0
0.56 0 0
0.6 0 0
0.64 0 0
0.68 0 0
0.72 0 0
0.76 0 0
0.8 0 0
0.84 0 0
0.88 0 0
0.92 0 0
0.96 0 0
1 0 0
1.04 0 0
1.08 0 0
1.12 0 0
1.16 0 0
1.2 0 0
1.24 0 0
1.28 0 0
1.32 0 0
1.36 0 0
1.4 0 0
1.44 0 0
1.48 0 0
1.52 0 0
1.56 0 0
1.6 0 0
1.64 0 0
1.68 0 0
1.72 0 0
1.76 0 0
1.8 0 0
1.84 0 0
1.88 0 0
1.92 0 0
1.96 0 0
2 0 0
2.04 0 0
2.08 0 0
2.12 0 0
2.16 0 0
2.2 0 0
2.24 0 0
2.28 0 0
2.32 0 0
2.36 0 0
2.4 0 0
2.44 0 0
2.48 0 0
2.52 0 0
2.56 0 0
2.6 0 0
2.64 0 0
2.68 0 0
2.72 0 0
2.76 0 0
2.8 0 0
2.84 0 0
2.88 0 0
2.92 0 0
2.96 0 0
3 0 0
3.04 0 0
3.08 0 0
3.12 0 0
3.16 0 0
3.2 0 0
3.24 0 0
3.28 0 0
3.32 0 0
3.36 0 0
3.4 0 0
3.44 0 0
3.48 0 0
3.52 0 0
3.56 0 0
3.6 0 0
3.64 0 0
3.68 0 0
3.72 0 0
3.76 0 0
3.8 0 0
3.84 0 0
3.88 0 0
3.92 0 0
3.96 0 0
4 0 0
4.04 0 0
4.08 0 0
4.12 0 0
4.16 0 0
4.2 0 0
4.24 0 0
4.28 0 0
4.32 0 0
4.36 0 0
4.4 0 0
4.44 0 0
4.48 0 0
4.52 0 0
4.56 0 0
4.6 0 0
4.64 0 0
4.68 0 0
4.72 0 0
4.76 0 0
4.8 0 0
4.84 0 0
4.88 0 0
4.92 0 0
4.96 0 0
5 0 0
5.04 0 0
5.08 0 0
5.12 0 0
5.16 0 0
5.2 0 0
5.24 0 0
5.28 0 0
5.32 0 0
5.36 0 0
5.4 0 0
5.44 0 0
5.48 0 0
5.52 0 0
5.56 0 0
5.6 0 0
5.64 0 0
5.68 0 0
5.72 0 0
5.76 0 0
5.8 0 0
5.84 0 0
5.88 0 0
5.92 0 0
5.96 0 0
6 0 0
6.04 0 0
6.08 0 0
6.12 0 0
6.16 0 0
6.2 0 0
6.24 0 0
6.28 0 0
6.32 0 0
6.36 0 0
6.4 0 0
6.44 0 0
6.48 0 0
6.52 0 0
6.56 0 0
6.6 0 0
6.64 0 0
6.68 0 0
6.72 0 0
6.76 0 0
6.8 0 0
6.84 0 0
6.88 0 0
6.92 0 0
6.96 0 0
7 0 0
7.04 0 0
7.08 0 0
7.12 0 0
7.16 0 0
7.2 0 0
7.24 0 0
7.28 0 0
7.32 0 0
7.36 0 0
7.4 0 0
7.44 0 0
7.48 0 0
7.52 0 0
7.56 0 0
7.6 0 0
7.64 0 0
7.68 0 0
7.72 0 0
7.76 0 0
7.8 0 0
7.84 0 0
7.88 0 0
7.92 0 0
7.96 0 0
8 0 0
8.04 0 0
8.08 0 0
8.12 0 0
8.16 0 0
8.2 0 0
8.24 0 0
8.28 0 0
8.32 0 0
8.36 0 0
8.4 0 0
8.44 0 0
8.48 0 0
8.52 0 0
8.56 0 0
8.6 0 0
8.64 0 0
8.68 0 0
8.72 0 0
8.76 0 0
8.8 0 0
8.84 0 0
8.88 0 0
8.92 0 0
8.96 0 0
9 0 0
9.04 0 0
9.08 0 0
9.12 0 0
9.16 0 0
9.2 0 0
9.24 0 0
9.28 0 0
9.32 0 0
9.36 0 0
9.4 0 0
9.44 0 0
9.48 0 0
9.52 0 0
9.56 0 0
9.6 0 0
9.64 0 0
9.68 0 0
9.72 0 0
9.76 0 0
9.8 0 0
9.84 0 0
9.88 0 0
9.92 0 0
9.96 0 0
10 0 0
10.04 0 0
10.08 0 0
10.12 0 0
10.16 0 0
10.2 0 0
10.24 0 0
10.28 0 0
10.32 0 0
10.36 0 0
10.4 0 0
10.44 0 0
10.48 0 0
10.52 0 0
10.56 0 0
10.6 0 0
10.64 0 0
10.68 0 0
10.72 0 0
10.76 0 0
10.8 0 0
10.84 0 0
10.88 0 0
10.92 0 0
10.96 0 0
11 0 0
11.04 0 0
11.08 0 0
11.12 0 0
11.16 0 0
11.2 0 0
11.24 0 0
11.28 0 0
11.32 0 0
11.36 0 0
11.4 0 0
11.44 0 0
11.48 0 0
11.52 0 0
11.56 0 0
11.6 0 0
11.64 0 0
11.68 0 0
11.72 0 0
11.76 0 0
11.8 0 0
11.84 0 0
11.88 0 0
11.92 0 0
11.96 0 0
12 0 0
12.04 0 0
12.08 0 0
12.12 0 0
12.16 0 0
12.2 0 0
12.24 0 0
12.28 0 0
12.32 0 0
12.36 0 0
12.4 0 0
12.44 0 0
12.48 0 0
12.52 0 0
12.56 0 0
12.6 0 0
12.64 0 0
12.68 0 0
12.72 0 0
12.76 0 0
12.8 0 0
12.84 0 0
12.88 0 0
12.92 0 0
12.96 0 0
13 0 0
13.04 0 0
13.08 0 0
13.12 0 0
13.16 0 0
13.2 0 0
13.24 0 0
13.28 0 0
13.32 0 0
13.36 0 0
13.4 0 0
13.44 0 0
13.48 0 0
13.52 0 0
13.56 0 0
13.6 0 0
13.64 0 0
13.68 0 0
13.72 0 0
13.76 0 0
13.8 0 0
13.84 0 0
13.88 0 0
13.92 0 0
13.96 0 0
14 0 0
14.04 0 0
14.08 0 0
14.12 0 0
14.16 0 0
14.2 0 0
14.24 0 0
14.28 0 0
14.32 0 0
14.36 0 0
14.4 0 0
14.44 0 0
14.48 0 0
14.52 0 0
14.56 0 0
14.6 0 0
14.64 0 0
14.68 0 0
14.72 0 0
14.76 0 0
14.8 0 0
14.84 0 0
14.88 0 0
14.92 0 0
14.96 0 0
15 0 0
15.04 0 0
15.08 0 0
15.12 0 0
15.16 0 0
15.2 0 0
15.24 0 0
15.28 0 0
15.32 0 0
15.36 0 0
15.4 0 0
15.44 0 0
15.48 0 0
15.52 0 0
15.56 0 0
15.6 0 0
15.64 0 0
15.68 0 0
15.72 0 0
15.76 0 0
15.8 0 0
15.84 0 0
15.88 0 0
15.92 0 0
15.96 0 0
16 0 0
16.04 0 0
16.08 0 0
16.12 0 0
16.16 0 0
16.2 0 0
16.24 0 0
16.28 0 0
16.32 0 0
16.36 0 0
16.4 0 0
16.44 0 0
16.48 0 0
16.52 0 0
16.56 0 0
16.6 0 0
16.64 0 0
16.68 0 0
16.72 0 0
16.76 0 0
16.8 0 0
16.84 0 0
16.88 0 0
16.92 0 0
16.96 0 0
17 0 0
17.04 0 0
17.08 0 0
17.12 0 0
17.16 0 0
17.2 0 0
17.24 0 0
17.28 0 0
17.32 0 0
17.36 0 0
17.4 0 0
17.44 0 0
17.48 0 0
17.52 0 0
17.56 0 0
17.6 0 0
17.64 0 0
17.68 0 0
17.72 0 0
17.76 0 0
17.8 0 0
17.84 0 0
17.88 0 0
17.92 0 0
17.96 0 0
18 0 0
18.04 0 0
18.08 0 0
18.12 0 0
18.16 0 0
18.2 0 0
18.24 0 0
18.28 0 0
18.32 0 0
18.36 0 0
18.4 0 0
18.44 0 0
18.48 0 0
18.52 0 0
18.56 0 0
18.6 0 0
18.64 0 0
18.68 0 0
18.72 0 0
18.76 0 0
18.8 0 0
18.84 0 0
18.88 0 0
18.92 0 0
18.96 0 0
19 0 0
19.04 0 0
19.08 0 0
19.12 0 0
19.16 0 0
19.2 0 0
19.24 0 0
19.28 0 0
19.32 0 0
19.36 0 0
19.4 0 0
19.44 0 0
19.48 0 0
19.52 0 0
19.56 0 0
19.6 0 0
19.64 0 0
19.68 0 0
19.72 0 0
19.76 0 0
19.8 0 0
19.84 0 0
19.88 0 0
19.92 0 0
19.96 0 0
20 0 0
20.04 0 0
20.08 0 0
20.12 0 0
20.16 0 0
20.2 0 0
20.24 0 0
20.28 0 0
20.32 0 0
20.36 0 0
20.4 0 0
20.44 0 0
20.48 0 0
20.52 0 0
20.56 0 0
20.6 0 0
20.64 0 0
20.68 0 0
20.72 0 0
20.76 0 0
20.8 0 0
20.84 0 0
20.88 0 0
20.92 0 0
20.96 0 0
21 0 0
21.04 0 0
21.08 0 0
21.12 0 0
21.16 0 0
21.2 0 0
21.24 0 0
21.28 0 0
21.32 0 0
21.36 0 0
21.4 0 0
21.44 0 0
21.48 0 0
21.52 0 0
21.56 0 0
21.6 0 0
21.64 0 0
21.68 0 0
21.72 0 0
21.76 0 0
21.8 0 0
21.84 0 0
21.88 0 0
21.92 0 0
21.96 0 0
22 0 0
22.04 0 0
22.08 0 0
22.12 0 0
22.16 0 0
22.2 0 0
22.24 0 0
22.28 0 0
22.32 0 0
22.36 0 0
22.4 0 0
22.44 0 0
22.48 0 0
22.52 0 0
22.56 0 0
22.6 0 0
22.64 0 0
22.68 0 0
22.72 0 0
22.76 0 0
22.8 0 0
22.84 0 0
22.88 0 0
22.92 0 0
22.96 0 0
23 0 0
23.04 0 0
23.08 0 0
23.12 0 0
23.16 0 0
23.2 0 0
23.24 0 0
23.28 0 0
23.32 0 0
23.36 0 0
23.4 0 0
23.44 0 0
23.48 0 0
23.52 0 0
23.56 0 0
23.6 0 0
23.64 0 0
23.68 0 0
23.72 0 0
23.76 0 0
23.8 0 0
23.84 0 0
23.88 0 0
23.92 0 0
23.96 0 0
24 0 0
24.04 0 0
24.08 0 0
24.12 0 0
24.16 0 0
24.2 0 0
24.24 0 0
24.28 0 0
24.32 0 0
24.36 0 0
24.4 0 0
24.44 0 0
24.48 0 0
24.52 0 0
24.56 0 0
24.6 0 0
24.64 0 0
24.68 0 0
24.72 0 0
24.76 0 0
24.8 0 0
24.84 0 0
24.88 0 0
24.92 0 0
24.96 0 0
25 0 0
25.04 0 0
25.08 0 0
25.12 0 0
25.16 0 0
25.2 0 0
25.24 0 0
25.28 0 0
25.32 0 0
25.36 0 0
25.4 0 0
25.44 0 0
25.48 0 0
25.52 0 0
25.56 0 0
25.6 0 0
25.64 0 0
25.68 0 0
25.72 0 0
25.76 0 0
25.8 0 0
25.84 0 0
25.88 0 0
25.92 0 0
25.96 0 0
26 0 0
26.04 0 0
26.08 0 0
26.12 0 0
26.16 0 0
26.2 0 0
26.24 0 0
26.28 0 0
26.32 0 0
26.36 0 0
26.4 0 0
26.44 0 0
26.48 0 0
26.52 0 0
26.56 0 0
26.6 0 0
26.64 0 0
26.68 0 0
26.72 0 0
26.76 0 0
26.8 0 0
26.84 0 0
26.88 0 0
26.92 0 0
26.96 0 0
27 0 0
27.04 0 0
27.08 0 0
27.12 0 0
27.16 0 0
27.2 0 0
27.24 0 0
27.28 0 0
27.32 0 0
27.36 0 0
27.4 0 0
27.44 0 0
27.48 0 0
27.52 0 0
27.56 0 0
27.6 0 0
27.64 0 0
27.68 0 0
27.72 0 0
27.76 0 0
27.8 0 0
27.84 0 0
27.88 0 0
27.92 0 0
27.96 0 0
28 0 0
28.04 0 0
28.08 0 0
28.12 0 0
28.16 0 0
28.2 0 0
28.24 0 0
28.28 0 0
28.32 0 0
28.36 0 0
28.4 0 0
28.44 0 0
28.48 0 0
28.52 0 0
28.56 0 0
28.6 0 0
28.64 0 0
28.68 0 0
28.72 0 0
28.76 0 0
28.8 0 0
28.84 0 0
28.88 0 0
28.92 0 0
28.96 0 0
29 0 0
29.04 0 0
29.08 0 0
29.12 0 0
29.16 0 0
29.2 0 0
29.24 0 0
29.28 0 0
29.32 0 0
29.36 0 0
29.4 0 0
29.44 0 0
29.48 0 0
29.52 0 0
29.56 0 0
29.6 0 0
29.64 0 0
29.68 0 0
29.72 0 0
29.76 0 0
29.8 0 0
29.84 0 0
29.88 0 0
29.92 0 0
29.96 0 0
30 0 0
30.04 0 0
30.08 0 0
30.12 0 0
30.16 0 0
30.2 0 0
30.24 0 0
30.28 0 0
30.32 0 0
30.36 0 0
30.4 0 0
30.44 0 0
30.48 0 0
30.52 0 0
30.56 0 0
30.6 0 0
30.64 0 0
30.68 0 0
30.72 0 0
30.76 0 0
30.8 0 0
30.84 0 0
30.88 0 0
30.92 0 0
30.96 0 0
31 0 0
31.04 0 0
31.08 0 0
31.12 0 0
31.16 0 0
31.2 0 0
31.24 0 0
31.28 0 0
31.32 0 0
31.36 0 0
31.4 0 0
31.44 0 0
31.48 0 0
31.52 0 0
31.56 0 0
31.6 0 0
31.64 0 0
31.68 0 0
31.72 0 0
31.76 0 0
31.8 0 0
31.84 0 0
31.88 0 0
31.92 0 0
31.96 0 0
0 0.005 0
0.04 0.005 0
0.08 0.005 0
0.12 0.005 0
0.16 0.005 0
0.2 0.005 0
0.24 0.005 0
0.28 0.005 0
0.32 0.005 0
0.36 0.005 0
0.4 0.005 0
0.44 0.005 0
0.48 0.005 0
0.52 0.005 0
0.56 0.005 0
0.6 0.005 0
0.64 0.005 0
0.68 0.005 0
0.72 0.005 0
0.76 0.005 0
0.8 0.005 0
0.84 0.005 0
0.88 0.005 0
0.92 0.005 0
0.96 0.005 0
1 0.005 0
1.04 0.005 0
1.08 0.005 0
1.12 0.005 0
1.16 0.005 0
1.2 0.005 0
1.24 0.005 0
1.28 0.005 0
1.32 0.005 0
1.36 0.005 0
1.4 0.005 0
1.44 0.005 0
1.48 0.005 0
1.52 0.005 0
1.56 0.005 0
1.6 0.005 0
1.64 0.005 0
1.68 0.005 0
1.72 0.005 0
1.76 0.005 0
1.8 0.005 0
1.84 0.005 0
1.88 0.005 0
1.92 0.005 0
1.96 0.005 0
2 0.005 0
2.04 0.005 0
2.08 0.005 0
2.12 0.005 0
2.16 0.005 0
2.2 0.005 0
2.24 0.005 0
2.28 0.005 0
2.32 0.005 0
2.36 0.005 0
2.4 0.005 0
2.44 0.005 0
2.48 0.005 0
2.52 0.005 0
2.56 0.005 0
2.6 0.005 0
2.64 0.005 0
2.68 0.005 0
2.72 0.005 0
2.76 0.005 0
2.8 0.005 0
2.84 0.005 0
2.88 0.005 0
2.92 0.005 0
2.96 0.005 0
3 0.005 0
3.04 0.005 0
3.08 0.005 0
3.12 0.005 0
3.16 0.005 0
3.2 0.005 0
3.24 0.005 0
3.28 0.005 0
3.32 0.005 0
3.36 0.005 0
3.4 0.005 0
3.44 0.005 0
3.48 0.005 0
3.52 0.005 0
3.56 0.005 0
3.6 0.005 0
3.64 0.005 0
3.68 0.005 0
3.72 0.005 0
3.76 0.005 0
3.8 0.005 0
3.84 0.005 0
3.88 0.005 0
3.92 0.005 0
3.96 0.005 0
4 0.005 0
4.04 0.005 0
4.08 0.005 0
4.12 0.005 0
4.16 0.005 0
4.2 0.005 0
4.24 0.005 0
4.28 0.005 0
4.32 0.005 0
4.36 0.005 0
4.4 0.005 0
4.44 0.005 0
4.48 0.005 0
4.52 0.005 0
4.56 0.005 0
4.6 0.005 0
4.64 0.005 0
4.68 0.005 0
4.72 0.005 0
4.76 0.005 0
4.8 0.005 0
4.84 0.005 0
4.88 0.005 0
4.92 0.005 0
4.96 0.005 0
5 0.005 0
5.04 0.005 0
5.08 0.005 0
5.12 0.005 0
5.16 0.005 0
5.2 0.005 0
5.24 0.005 0
5.28 0.005 0
5.32 0.005 0
5.36 0.005 0
5.4 0.005 0
5.44 0.005 0
5.48 0.005 0
5.52 0.005 0
5.56 0.005 0
5.6 0.005 0
5.64 0.005 0
5.68 0.005 0
5.72 0.005 0
5.76 0.005 0
5.8 0.005 0
5.84 0.005 0
5.88 0.005 0
5.92 0.005 0
5.96 0.005 0
6 0.005 0
6.04 0.005 0
6.08 0.005 0
6.12 0.005 0
6.16 0.005 0
6.2 0.005 0
6.24 0.005 0
6.28 0.005 0
6.32 0.005 0
6.36 0.005 0
6.4 0.005 0
6.44 0.005 0
6.48 0.005 0
6.52 0.005 0
6.56 0.005 0
6.6 0.005 0
6.64 0.005 0
6.68 0.005 0
6.72 0.005 0
6.76 0.005 0
6.8 0.005 0
6.84 0.005 0
6.88 0.005 0
6.92 0.005 0
6.96 0.005 0
7 0.005 0
7.04 0.005 0
7.08 0.005 0
7.12 0.005 0
7.16 0.005 0
7.2 0.005 0
7.24 0.005 0
7.28 0.005 0
7.32 0.005 0
7.36 0.005 0
7.4 0.005 0
[...]
POINT_DATA 160000

SCALARS u float 1
LOOKUP_TABLE default
-1
-0.483358
-0.183963
-0.108845
-0.0810331
-0.0668337
-0.0581182
-0.0521527
-0.0477775
-0.0444146
-0.0417413
-0.0395616
-0.0377484
-0.0362154
-0.0349016
-0.0337626
-0.0327649
-0.0318831
-0.0310975
-0.0303925
-0.0297555
-0.0291765
-0.0286474
-0.0281613
-0.0277127
-0.0272969
-0.0269101
-0.0265489
-0.0262106
-0.0258927
-0.0255931
-0.0253102
-0.0250424
-0.0247882
-0.0245467
-0.0243167
-0.0240973
-0.0238877
-0.0236872
-0.0234951
-0.0233109
-0.023134
-0.0229639
-0.0228003
-0.0226428
-0.0224909
-0.0223444
-0.0222029
-0.0220662
-0.021934
-0.0218061
-0.0216823
-0.0215623
-0.0214459
-0.0213331
-0.0212236
-0.0211173
-0.021014
-0.0209135
-0.0208159
-0.0207209
-0.0206284
-0.0205384
-0.0204507
-0.0203652
-0.0202818
-0.0202006
-0.0201213
-0.0200439
-0.0199683
-0.0198945
-0.0198224
-0.019752
-0.0196831
-0.0196158
-0.0195499
-0.0194855
-0.0194224
-0.0193607
-0.0193003
-0.0192411
-0.0191831
-0.0191263
-0.0190706
-0.019016
-0.0189624
-0.0189099
-0.0188584
-0.0188079
-0.0187583
-0.0187096
-0.0186618
-0.0186149
-0.0185688
-0.0185236
-0.0184791
-0.0184354
-0.0183925
-0.0183503
-0.0183088
-0.018268
-0.0182279
-0.0181884
-0.0181496
-0.0181114
-0.0180739
-0.0180369
-0.0180005
-0.0179647
-0.0179294
-0.0178947
-0.0178605
-0.0178268
-0.0177937
-0.017761
-0.0177288
-0.0176971
-0.0176659
-0.0176351
-0.0176047
-0.0175748
-0.0175453
-0.0175162
-0.0174876
-0.0174593
-0.0174314
-0.0174039
-0.0173768
-0.0173501
-0.0173237
-0.0172977
-0.017272
-0.0172466
-0.0172216
-0.0171969
-0.0171726
-0.0171485
-0.0171248
-0.0171013
-0.0170782
-0.0170554
-0.0170328
-0.0170105
-0.0169886
-0.0169668
-0.0169454
-0.0169242
-0.0169033
-0.0168826
-0.0168622
-0.016842
-0.0168221
-0.0168024
-0.0167829
-0.0167637
-0.0167447
-0.0167259
-0.0167074
-0.016689
-0.0166709
-0.016653
-0.0166353
-0.0166178
-0.0166005
-0.0165834
-0.0165665
-0.0165497
-0.0165332
-0.0165169
-0.0165007
-0.0164847
-0.0164689
-0.0164533
-0.0164378
-0.0164226
-0.0164075
-0.0163925
-0.0163777
-0.0163631
-0.0163486
-0.0163343
-0.0163202
-0.0163062
-0.0162924
-0.0162787
-0.0162651
-0.0162517
-0.0162385
-0.0162253
-0.0162124
-0.0161995
-0.0161868
-0.0161742
-0.0161618
-0.0161495
-0.0161373
-0.0161253
-0.0161134
-0.0161016
-0.0160899
-0.0160783
-0.0160669
-0.0160556
-0.0160444
-0.0160333
-0.0160223
-0.0160115
-0.0160007
-0.0159901
-0.0159796
-0.0159691
-0.0159588
-0.0159486
-0.0159385
-0.0159285
-0.0159186
-0.0159088
-0.0158991
-0.0158895
-0.01588
-0.0158706
-0.0158613
-0.0158521
-0.015843
-0.0158339
-0.015825
-0.0158161
-0.0158074
-0.0157987
-0.0157901
-0.0157816
-0.0157732
-0.0157648
-0.0157566
-0.0157484
-0.0157403
-0.0157323
-0.0157244
-0.0157165
-0.0157087
-0.015701
-0.0156934
-0.0156859
-0.0156784
-0.015671
-0.0156637
-0.0156564
-0.0156492
-0.0156421
-0.0156351
-0.0156281
-0.0156212
-0.0156143
-0.0156076
-0.0156009
-0.0155942
-0.0155876
-0.0155811
-0.0155747
-0.0155683
-0.015562
-0.0155557
-0.0155495
-0.0155433
-0.0155373
-0.0155312
-0.0155253
-0.0155193
-0.0155135
-0.0155077
-0.0155019
-0.0154963
-0.0154906
-0.015485
-0.0154795
-0.0154741
-0.0154686
-0.0154633
-0.0154579
-0.0154527
-0.0154475
-0.0154423
-0.0154372
-0.0154321
-0.0154271
-0.0154221
-0.0154172
-0.0154123
-0.0154075
-0.0154027
-0.015398
-0.0153933
-0.0153886
-0.015384
-0.0153794
-0.0153749
-0.0153704
-0.015366
-0.0153616
-0.0153573
-0.0153529
-0.0153487
-0.0153444
-0.0153403
-0.0153361
-0.015332
-0.0153279
-0.0153239
-0.0153199
-0.0153159
-0.015312
-0.0153081
-0.0153042
-0.0153004
-0.0152966
-0.0152929
-0.0152892
-0.0152855
-0.0152819
-0.0152783
-0.0152747
-0.0152711
-0.0152676
-0.0152642
-0.0152607
-0.0152573
-0.0152539
-0.0152506
-0.0152472
-0.0152439
-0.0152407
-0.0152375
-0.0152343
-0.0152311
-0.0152279
-0.0152248
-0.0152217
-0.0152187
-0.0152157
-0.0152126
-0.0152097
-0.0152067
-0.0152038
-0.0152009
-0.015198
-0.0151952
-0.0151924
-0.0151896
-0.0151868
-0.0151841
-0.0151814
-0.0151787
-0.015176
-0.0151734
-0.0151707
-0.0151681
-0.0151656
-0.015163
-0.0151605
-0.015158
-0.0151555
-0.015153
-0.0151506
-0.0151482
-0.0151458
-0.0151434
-0.015141
-0.0151387
-0.0151364
-0.0151341
-0.0151318
-0.0151296
-0.0151273
-0.0151251
-0.0151229
-0.0151207
-0.0151186
-0.0151164
-0.0151143
-0.0151122
-0.0151101
-0.0151081
-0.015106
-0.015104
-0.015102
-0.0151
-0.015098
-0.015096
-0.0150941
-0.0150922
-0.0150903
-0.0150884
-0.0150865
-0.0150846
-0.0150828
-0.0150809
-0.0150791
-0.0150773
-0.0150755
-0.0150738
-0.015072
-0.0150703
-0.0150685
-0.0150668
-0.0150651
-0.0150634
-0.0150618
-0.0150601
-0.0150585
-0.0150568
-0.0150552
-0.0150536
-0.015052
-0.0150504
-0.0150489
-0.0150473
-0.0150458
-0.0150443
-0.0150427
-0.0150412
-0.0150397
-0.0150383
-0.0150368
-0.0150353
-0.0150339
-0.0150325
-0.0150311
-0.0150296
-0.0150282
-0.0150269
-0.0150255
-0.0150241
-0.0150228
-0.0150214
-0.0150201
-0.0150188
-0.0150175
-0.0150161
-0.0150149
-0.0150136
-0.0150123
-0.015011
-0.0150098
-0.0150085
-0.0150073
-0.0150061
-0.0150049
-0.0150037
-0.0150025
-0.0150013
-0.0150001
-0.0149989
-0.0149978
-0.0149966
-0.0149955
-0.0149943
-0.0149932
-0.0149921
-0.014991
-0.0149899
-0.0149888
-0.0149877
-0.0149866
-0.0149855
-0.0149845
-0.0149834
-0.0149824
-0.0149813
-0.0149803
-0.0149793
-0.0149783
-0.0149773
-0.0149762
-0.0149753
-0.0149743
-0.0149733
-0.0149723
-0.0149713
-0.0149704
-0.0149694
-0.0149685
-0.0149675
-0.0149666
-0.0149657
-0.0149648
-0.0149639
-0.0149629
-0.014962
-0.0149612
-0.0149603
-0.0149594
-0.0149585
-0.0149577
-0.0149568
-0.0149559
-0.0149551
-0.0149542
-0.0149534
-0.0149526
-0.0149518
-0.0149509
-0.0149501
-0.0149493
-0.0149485
-0.0149477
-0.0149469
-0.0149462
-0.0149454
-0.0149446
-0.0149439
-0.0149431
-0.0149424
-0.0149416
-0.0149409
-0.0149401
-0.0149394
-0.0149387
-0.014938
-0.0149373
-0.0149366
-0.0149359
-0.0149352
-0.0149345
-0.0149338
-0.0149331
-0.0149324
-0.0149318
-0.0149311
-0.0149305
-0.0149298
-0.0149292
-0.0149285
-0.0149279
-0.0149273
-0.0149267
-0.014926
-0.0149254
-0.0149248
-0.0149242
-0.0149236
-0.014923
-0.0149225
-0.0149219
-0.0149213
-0.0149207
-0.0149202
-0.0149196
-0.014919
-0.0149185
-0.0149179
-0.0149174
-0.0149169
-0.0149163
-0.0149158
-0.0149153
-0.0149148
-0.0149143
-0.0149137
-0.0149132
-0.0149127
-0.0149122
-0.0149118
-0.0149113
-0.0149108
-0.0149103
-0.0149098
-0.0149094
-0.0149089
-0.0149084
-0.014908
-0.0149075
-0.0149071
-0.0149066
-0.0149062
-0.0149057
-0.0149053
-0.0149049
-0.0149044
-0.014904
-0.0149036
-0.0149032
-0.0149027
-0.0149023
-0.0149019
-0.0149015
-0.0149011
-0.0149007
-0.0149003
-0.0148999
-0.0148995
-0.0148991
-0.0148987
-0.0148984
-0.014898
-0.0148976
-0.0148972
-0.0148968
-0.0148965
-0.0148961
-0.0148957
-0.0148954
-0.014895
-0.0148946
-0.0148943
-0.0148939
-0.0148936
-0.0148932
-0.0148928
-0.0148925
-0.0148921
-0.0148918
-0.0148914
-0.0148911
-0.0148908
-0.0148904
-0.0148901
-0.0148897
-0.0148894
-0.0148891
-0.0148887
-0.0148884
-0.0148881
-0.0148877
-0.0148874
-0.0148871
-0.0148867
-0.0148864
-0.0148861
-0.0148857
-0.0148854
-0.0148851
-0.0148848
-0.0148844
-0.0148841
-0.0148838
-0.0148835
-0.0148832
-0.0148828
-0.0148825
-0.0148822
-0.0148819
-0.0148816
-0.0148812
-0.0148809
-0.0148806
-0.0148803
-0.01488
-0.0148797
-0.0148794
-0.014879
-0.0148787
-0.0148784
-0.0148781
-0.0148778
-0.0148775
-0.0148772
-0.0148768
-0.0148765
-0.0148762
-0.0148759
-0.0148756
-0.0148753
-0.014875
-0.0148747
-0.0148743
-0.014874
-0.0148737
-0.0148734
-0.0148731
-0.0148728
-0.0148725
-0.0148722
-0.0148719
-0.0148715
-0.0148712
-0.0148709
-0.0148706
-0.0148703
-0.01487
-0.0148697
-0.0148694
-0.0148691
-0.0148687
-0.0148684
-0.0148681
-0.0148678
-0.0148675
-0.0148672
-0.0148669
-0.0148666
-0.0148663
-0.014866
-0.0148656
-0.0148653
-0.014865
-0.0148647
-0.0148644
-0.0148641
-0.0148638
-0.0148635
-0.0148632
-0.0148629
-0.0148625
-0.0148622
-0.0148619
-0.0148616
-0.0148613
-0.014861
-0.0148607
-0.0148604
-0.0148601
-0.0148598
-0.0148594
-0.0148591
-0.0148588
-0.0148585
-0.0148582
-0.0148579
-0.0148576
-0.0148573
-0.014857
-0.0148567
-0.0148563
-0.014856
-0.0148557
-0.0148554
-0.0148551
-0.0148548
-0.0148545
-0.0148542
-0.0148539
-0.0148536
-0.0148532
-0.0148529
-0.0148526
-0.0148523
-0.014852
-0.0148517
-0.0148514
-0.0148511
-0.0148508
-0.0148505
-0.0148501
-0.0148498
-0.0148495
-0.0148492
-0.0148489
-0.0148486
-0.0148483
-0.014848
-0.0148477
-0.0148474
-0.014847
-0.0148467
-0.0148464
-0.0148461
-0.0148458
-0.0148455
-0.0148452
-0.0148449
-0.0148446
-0.0148443
-0.0148439
-0.0148436
-0.0148433
-0.014843
-0.0148427
-0.0148424
-0.0148421
-0.0148418
-0.0148415
-0.0148411
-0.0148408
-0.0148405
-0.0148402
-0.0148399
-0.0148396
-0.0148393
-0.014839
-0.0148386
-0.0148383
-0.014838
-0.0148377
-0.0148373
-0.014837
-0.0148367
-0.0148363
-0.0148359
-0.0148356
-0.0148352
-0.0148348
-0.0148343
-0.0148338
-0.0148333
-0.0148326
-0.014832
-0.014831
-0.0148306
-0.0148306
-0.0148306
1
0.483358
0.183963
0.108845
0.0810331
0.0668337
0.0581182
0.0521527
0.0477775
0.0444146
0.0417413
0.0395616
0.0377484
0.0362154
0.0349016
0.0337626
0.0327649
0.0318831
0.0310975
0.0303925
0.0297555
0.0291765
0.0286474
0.0281613
0.0277127
0.0272969
0.0269101
0.0265489
0.0262106
0.0258927
0.0255931
0.0253102
0.0250424
0.0247882
0.0245467
0.0243167
0.0240973
0.0238877
0.0236872
0.0234951
0.0233109
0.023134
0.0229639
0.0228003
0.0226428
0.0224909
0.0223444
0.0222029
0.0220662
0.021934
0.0218061
0.0216823
0.0215623
0.0214459
0.0213331
0.0212236
0.0211173
0.021014
0.0209135
0.0208159
0.0207209
0.0206284
0.0205384
0.0204507
0.0203652
0.0202818
0.0202006
0.0201213
0.0200439
0.0199683
0.0198945
0.0198224
0.019752
0.0196831
0.0196158
0.0195499
0.0194855
0.0194224
0.0193607
0.0193003
0.0192411
0.0191831
0.0191263
0.0190706
0.019016
0.0189624
0.0189099
0.0188584
0.0188079
0.0187583
0.0187096
0.0186618
0.0186149
0.0185688
0.0185236
0.0184791
0.0184354
0.0183925
0.0183503
0.0183088
0.018268
0.0182279
0.0181884
0.0181496
0.0181114
0.0180739
0.0180369
0.0180005
0.0179647
0.0179294
0.0178947
0.0178605
0.0178268
0.0177937
0.017761
0.0177288
0.0176971
0.0176659
0.0176351
0.0176047
0.0175748
0.0175453
0.0175162
0.0174876
0.0174593
0.0174314
0.0174039
0.0173768
0.0173501
0.0173237
0.0172977
0.017272
0.0172466
0.0172216
0.0171969
0.0171726
0.0171485
0.0171248
0.0171013
0.0170782
0.0170554
0.0170328
0.0170105
0.0169886
0.0169668
0.0169454
0.0169242
0.0169033
0.0168826
0.0168622
0.016842
0.0168221
0.0168024
0.0167829
0.0167637
0.0167447
0.0167259
0.0167074
0.016689
0.0166709
0.016653
0.0166353
0.0166178
0.0166005
0.0165834
0.0165665
0.0165497
0.0165332
0.0165169
0.0165007
0.0164847
0.0164689
0.0164533
0.0164378
0.0164226
0.0164075
0.0163925
0.0163777
0.0163631
0.0163486
0.0163343
0.0163202
0.0163062
0.0162924
0.0162787
0.0162651
0.0162517
0.0162385
0.0162253
0.0162124
0.0161995
0.0161868
0.0161742
0.0161618
0.0161495
0.0161373
0.0161253
0.0161134
0.0161016
0.0160899
0.0160783
0.0160669
0.0160556
0.0160444
0.0160333
0.0160223
0.0160115
0.0160007
0.0159901
0.0159796
0.0159691
0.0159588
0.0159486
0.0159385
0.0159285
0.0159186
0.0159088
0.0158991
0.0158895
0.01588
0.0158706
0.0158613
0.0158521
0.015843
0.0158339
0.015825
0.0158161
0.0158074
0.0157987
0.0157901
0.0157816
0.0157732
0.0157648
0.0157566
0.0157484
0.0157403
0.0157323
0.0157244
0.0157165
0.0157087
0.015701
0.0156934
0.0156859
0.0156784
0.015671
0.0156637
0.0156564
0.0156492
0.0156421
0.0156351
0.0156281
0.0156212
0.0156143
0.0156076
0.0156009
0.0155942
0.0155876
0.0155811
0.0155747
0.0155683
0.015562
0.0155557
0.0155495
0.0155433
0.0155373
0.0155312
0.0155253
0.0155193
0.0155135
0.0155077
0.0155019
0.0154963
0.0154906
0.015485
0.0154795
0.0154741
0.0154686
0.0154633
0.0154579
0.0154527
0.0154475
0.0154423
0.0154372
0.0154321
0.0154271
0.0154221
0.0154172
0.0154123
0.0154075
0.0154027
0.015398
0.0153933
0.0153886
0.015384
0.0153794
0.0153749
0.0153704
0.015366
0.0153616
0.0153573
0.0153529
0.0153487
0.0153444
0.0153403
0.0153361
0.015332
0.0153279
0.0153239
0.0153199
0.0153159
0.015312
0.0153081
0.0153042
0.0153004
0.0152966
0.0152929
0.0152892
0.0152855
0.0152819
0.0152783
0.0152747
0.0152711
0.0152676
0.0152642
0.0152607
0.0152573
0.0152539
0.0152506
0.0152472
0.0152439
0.0152407
0.0152375
0.0152343
0.0152311
0.0152279
0.0152248
0.0152217
0.0152187
0.0152157
0.0152126
0.0152097
0.0152067
0.0152038
0.0152009
0.015198
0.0151952
0.0151924
0.0151896
0.0151868
0.0151841
0.0151814
0.0151787
0.015176
0.0151734
0.0151707
0.0151681
0.0151656
0.015163
0.0151605
0.015158
0.0151555
0.015153
0.0151506
0.0151482
0.0151458
0.0151434
0.015141
0.0151387
0.0151364
0.0151341
0.0151318
0.0151296
0.0151273
0.0151251
0.0151229
0.0151207
0.0151186
0.0151164
0.0151143
0.0151122
0.0151101
0.0151081
0.015106
0.015104
0.015102
0.0151
0.015098
0.015096
0.0150941
0.0150922
0.0150903
0.0150884
0.0150865
0.0150846
0.0150828
0.0150809
0.0150791
0.0150773
0.0150755
0.0150738
0.015072
0.0150703
0.0150685
0.0150668
0.0150651
0.0150634
0.0150618
0.0150601
0.0150585
0.0150568
0.0150552
0.0150536
0.015052
0.0150504
0.0150489
0.0150473
0.0150458
0.0150443
0.0150427
0.0150412
0.0150397
0.0150383
0.0150368
0.0150353
0.0150339
0.0150325
0.0150311
0.0150296
0.0150282
0.0150269
0.0150255
0.0150241
0.0150228
0.0150214
0.0150201
0.0150188
0.0150175
0.0150161
0.0150149
0.0150136
0.0150123
0.015011
0.0150098
0.0150085
0.0150073
0.0150061
0.0150049
0.0150037
0.0150025
0.0150013
0.0150001
0.0149989
0.0149978
0.0149966
0.0149955
0.0149943
0.0149932
0.0149921
0.014991
0.0149899
0.0149888
0.0149877
0.0149866
0.0149855
0.0149845
0.0149834
0.0149824
0.0149813
0.0149803
0.0149793
0.0149783
0.0149773
0.0149762
0.0149753
0.0149743
0.0149733
0.0149723
0.0149713
0.0149704
0.0149694
0.0149685
0.0149675
0.0149666
0.0149657
0.0149648
0.0149639
0.0149629
0.014962
0.0149612
0.0149603
0.0149594
0.0149585
0.0149577
0.0149568
0.0149559
0.0149551
0.0149542
0.0149534
0.0149526
0.0149518
0.0149509
0.0149501
0.0149493
0.0149485
0.0149477
0.0149469
0.0149462
0.0149454
0.0149446
0.0149439
0.0149431
0.0149424
0.0149416
0.0149409
0.0149401
0.0149394
0.0149387
0.014938
0.0149373
0.0149366
0.0149359
0.0149352
0.0149345
0.0149338
0.0149331
0.0149324
0.0149318
0.0149311
0.0149305
0.0149298
0.0149292
0.0149285
0.0149279
0.0149273
0.0149267
0.014926
0.0149254
0.0149248
0.0149242
0.0149236
0.014923
0.0149225
0.0149219
0.0149213
0.0149207
0.0149202
0.0149196
0.014919
0.0149185
0.0149179
0.0149174
0.0149169
0.0149163
0.0149158
0.0149153
0.0149148
0.0149143
0.0149137
0.0149132
0.0149127
0.0149122
0.0149118
0.0149113
0.0149108
0.0149103
0.0149098
0.0149094
0.0149089
0.0149084
0.014908
0.0149075
0.0149071
0.0149066
0.0149062
0.0149057
0.0149053
0.0149049
0.0149044
0.014904
0.0149036
0.0149032
0.0149027
0.0149023
0.0149019
0.0149015
0.0149011
0.0149007
0.0149003
0.0148999
0.0148995
0.0148991
0.0148987
0.0148984
0.014898
0.0148976
0.0148972
0.0148968
0.0148965
0.0148961
0.0148957
0.0148954
0.014895
0.0148946
0.0148943
0.0148939
0.0148936
0.0148932
0.0148928
0.0148925
0.0148921
0.0148918
0.0148914
0.0148911
0.0148908
0.0148904
0.0148901
0.0148897
0.0148894
0.0148891
0.0148887
0.0148884
0.0148881
0.0148877
0.0148874
0.0148871
0.0148867
0.0148864
0.0148861
0.0148857
0.0148854
0.0148851
0.0148848
0.0148844
0.0148841
0.0148838
0.0148835
0.0148832
0.0148828
0.0148825
0.0148822
0.0148819
0.0148816
0.0148812
0.0148809
0.0148806
0.0148803
0.01488
0.0148797
0.0148794
0.014879
0.0148787
0.0148784
0.0148781
0.0148778
0.0148775
0.0148772
0.0148768
0.0148765
0.0148762
0.0148759
0.0148756
0.0148753
0.014875
0.0148747
0.0148743
0.014874
0.0148737
0.0148734
0.0148731
0.0148728
0.0148725
0.0148722
0.0148719
0.0148715
0.0148712
0.0148709
0.0148706
0.0148703
0.01487
0.0148697
0.0148694
0.0148691
0.0148687
0.0148684
0.0148681
0.0148678
0.0148675
0.0148672
0.0148669
0.0148666
0.0148663
0.014866
0.0148656
0.0148653
0.014865
0.0148647
0.0148644
0.0148641
0.0148638
0.0148635
0.0148632
0.0148629
0.0148625
0.0148622
0.0148619
0.0148616
0.0148613
0.014861
0.0148607
0.0148604
0.0148601
0.0148598
0.0148594
0.0148591
0.0148588
0.0148585
0.0148582
0.0148579
0.0148576
0.0148573
0.014857
0.0148567
0.0148563
0.014856
0.0148557
0.0148554
0.0148551
0.0148548
0.0148545
0.0148542
0.0148539
0.0148536
0.0148532
0.0148529
0.0148526
0.0148523
0.014852
0.0148517
0.0148514
0.0148511
0.0148508
0.0148505
0.0148501
0.0148498
0.0148495
0.0148492
0.0148489
0.0148486
0.0148483
0.014848
0.0148477
0.0148474
0.014847
0.0148467
0.0148464
0.0148461
0.0148458
0.0148455
0.0148452
0.0148449
0.0148446
0.0148443
0.0148439
0.0148436
0.0148433
0.014843
0.0148427
0.0148424
0.0148421
0.0148418
0.0148415
0.0148411
0.0148408
0.0148405
0.0148402
0.0148399
0.0148396
0.0148393
0.014839
0.0148386
0.0148383
0.014838
0.0148377
0.0148373
0.014837
0.0148367
0.0148363
0.0148359
0.0148356
0.0148352
0.0148348
0.0148343
0.0148338
0.0148333
0.0148326
0.014832
0.014831
0.0148306
0.0148306
0.0148306
1
0.969192
0.495617
0.314223
0.237897
0.197396
0.172134
0.154696
0.141842
0.131928
0.124028
0.117574
0.112197
0.107646
0.103742
0.100355
0.0973869
0.0947625
0.0924237
0.0903244
0.0884277
0.0867038
0.0851284
0.0836814
0.0823463
0.0811093
0.0799586
0.0788844
0.0778785
0.0769335
0.0760435
0.075203
0.0744076
0.0736531
0.0729362
0.0722536
0.0716026
0.0709809
0.0703863
0.0698167
0.0692706
0.0687463
0.0682424
0.0677577
0.0672909
0.066841
0.0664069
0.0659879
0.0655831
0.0651917
0.064813
0.0644463
0.0640911
0.0637468
0.0634129
0.0630888
0.0627741
0.0624684
0.0621712
0.0618823
0.0616012
0.0613276
0.0610613
0.0608018
0.0605489
0.0603024
0.060062
0.0598275
0.0595986
0.0593751
0.0591569
0.0589437
0.0587354
0.0585318
0.0583326
0.0581379
0.0579474
0.0577609
0.0575784
0.0573997
0.0572247
0.0570533
0.0568853
0.0567206
0.0565593
0.056401
0.0562458
0.0560936
0.0559442
0.0557977
0.0556538
0.0555126
0.0553739
0.0552377
0.055104
0.0549726
0.0548435
0.0547166
0.0545919
0.0544693
0.0543487
0.0542302
0.0541136
0.0539989
0.0538861
0.0537751
0.0536659
0.0535583
0.0534525
0.0533483
0.0532458
0.0531448
0.0530453
0.0529474
0.0528509
0.0527558
0.0526621
0.0525698
0.0524789
0.0523892
0.0523009
0.0522138
0.0521279
0.0520433
0.0519598
0.0518775
0.0517963
0.0517162
0.0516372
0.0515593
0.0514824
0.0514065
0.0513317
0.0512578
0.0511849
0.051113
0.051042
0.0509719
0.0509027
0.0508344
0.050767
0.0507004
0.0506346
0.0505697
0.0505056
0.0504423
0.0503797
0.0503179
0.0502569
0.0501966
0.0501371
0.0500783
0.0500201
0.0499627
0.0499059
0.0498499
0.0497944
0.0497397
0.0496855
0.049632
0.0495792
0.0495269
0.0494752
0.0494242
0.0493737
0.0493238
0.0492744
0.0492256
0.0491774
0.0491297
0.0490826
0.0490359
0.0489898
0.0489442
0.0488991
0.0488546
0.0488105
0.0487668
0.0487237
0.048681
0.0486388
0.0485971
0.0485558
0.0485149
0.0484745
0.0484346
0.048395
0.0483559
0.0483172
0.0482789
0.048241
0.0482035
0.0481665
0.0481298
0.0480935
0.0480575
0.048022
0.0479868
0.047952
0.0479176
0.0478835
0.0478498
0.0478164
0.0477833
0.0477506
0.0477183
0.0476863
0.0476546
0.0476232
0.0475922
0.0475614
0.047531
0.0475009
0.0474711
0.0474416
0.0474124
0.0473835
0.0473549
0.0473266
0.0472986
0.0472708
0.0472434
0.0472162
0.0471893
0.0471626
0.0471363
0.0471101
0.0470843
0.0470587
0.0470334
0.0470083
0.0469834
0.0469588
0.0469345
0.0469104
0.0468865
0.0468629
0.0468395
0.0468164
0.0467934
0.0467707
0.0467482
0.046726
0.0467039
0.0466821
0.0466605
0.0466391
0.0466179
0.0465969
0.0465761
0.0465556
0.0465352
0.046515
0.046495
0.0464753
0.0464557
0.0464363
0.0464171
0.046398
0.0463792
0.0463605
0.0463421
0.0463238
0.0463056
0.0462877
0.0462699
0.0462523
0.0462349
0.0462176
0.0462005
0.0461836
0.0461668
0.0461502
0.0461338
0.0461175
0.0461013
0.0460854
0.0460695
0.0460539
0.0460383
0.0460229
0.0460077
0.0459926
0.0459777
0.0459629
0.0459482
0.0459337
0.0459193
0.0459051
0.0458909
0.045877
0.0458631
0.0458494
0.0458358
0.0458224
0.045809
0.0457958
0.0457827
0.0457698
0.0457569
0.0457442
0.0457316
0.0457192
0.0457068
0.0456945
0.0456824
0.0456704
0.0456585
0.0456467
0.045635
0.0456234
0.045612
0.0456006
0.0455894
0.0455782
0.0455672
0.0455562
0.0455454
0.0455346
0.045524
0.0455134
0.045503
0.0454926
0.0454824
0.0454722
0.0454622
0.0454522
0.0454423
0.0454325
0.0454228
0.0454132
0.0454037
0.0453942
0.0453849
0.0453756