# vtk DataFile Version 2.0
FlowField
ASCII
DATASET STRUCTURED_GRID
DIMENSIONS 800 1 200
POINTS 160000 float
0 0 0
0.04 0 0
0.08 0 0
0.12 0 0
0.16 0 0
0.2 0 0
0.24 0 0
0.28 0 0
0.32 0 0
0.36 0 0
0.4 0 0
0.44 0 0
0.48 0 0
0.52 0 0
0.56 0 0
0.6 0 0
0.64 0 0
0.68 0 0
0.72 0 0
0.76 0 0
0.8 0 0
0.84 0 0
0.88 0 0
0.92 0 0
0.96 0 0
1 0 0
1.04 0 0
1.08 0 0
1.12 0 0
1.16 0 0
1.2 0 0
1.24 0 0
1.28 0 0
1.32 0 0
1.36 0 0
1.4 0 0
1.44 0 0
1.48 0 0
1.52 0 0
1.56 0 0
1.6 0 0
1.64 0 0
1.68 0 0
1.72 0 0
1.76 0 0
1.8 0 0
1.84 0 0
1.88 0 0
1.92 0 0
1.96 0 0
2 0 0
2.04 0 0
2.08 0 0
2.12 0 0
2.16 0 0
2.2 0 0
2.24 0 0
2.28 0 0
2.32 0 0
2.36 0 0
2.4 0 0
2.44 0 0
2.48 0 0
2.52 0 0
2.56 0 0
2.6 0 0
2.64 0 0
2.68 0 0
2.72 0 0
2.76 0 0
2.8 0 0
2.84 0 0
2.88 0 0
2.92 0 0
2.96 0 0
3 0 0
3.04 0 0
3.08 0 0
3.12 0 0
3.16 0 0
3.2 0 0
3.24 0 0
3.28 0 0
3.32 0 0
3.36 0 0
3.4 0 0
3.44 0 0
3.48 0 0
3.52 0 0
3.56 0 0
3.6 0 0
3.64 0 0
3.68 0 0
3.72 0 0
3.76 0 0
3.8 0 0
3.84 0 0
3.88 0 0
3.92 0 0
3.96 0 0
4 0 0
4.04 0 0
4.08 0 0
4.12 0 0
4.16 0 0
4.2 0 0
4.24 0 0
4.28 0 0
4.32 0 0
4.36 0 0
4.4 0 0
4.44 0 0
4.48 0 0
4.52 0 0
4.56 0 0
4.6 0 0
4.64 0 0
4.68 0 0
4.72 0 0
4.76 0 0
4.8 0 0
4.84 0 0
4.88 0 0
4.92 0 0
4.96 0 0
5 0 0
5.04 0 0
5.08 0 0
5.12 0 0
5.16 0 0
5.2 0 0
5.24 0 0
5.28 0 0
5.32 0 0
5.36 0 0
5.4 0 0
5.44 0 0
5.48 0 0
5.52 0 0
5.56 0 0
5.6 0 0
5.64 0 0
5.68 0 0
5.72 0 0
5.76 0 0
5.8 0 0
5.84 0 0
5.88 0 0
5.92 0 0
5.96 0 0
6 0 0
6.04 0 0
6.08 0 0
6.12 0 0
6.16 0 0
6.2 0 0
6.24 0 0
6.28 0 0
6.32 0 0
6.36 0 0
6.4 0 0
6.44 0 0
6.48 0 0
6.52 0 0
6.56 0 0
6.6 0 0
6.64 0 0
6.68 0 0
6.72 0 0
6.76 0 0
6.8 0 0
6.84 0 0
6.88 0 0
6.92 0 0
6.96 0 0
7 0 0
7.04 0 0
7.08 0 0
7.12 0 0
7.16 0 0
7.2 0 0
7.24 0 0
7.28 0 0
7.32 0 0
7.36 0 0
7.4 0 0
7.44 0 0
7.48 0 0
7.52 0 0
7.56 0 0
7.6 0 0
7.64 0 0
7.68 0 0
7.72 0 0
7.76 0 0
7.8 0 0
7.84 0 0
7.88 0 0
7.92 0 0
7.96 0 0
8 0 0
8.04 0 0
8.08 0 0
8.12 0 0
8.16 0 0
8.2 0 0
8.24 0 0
8.28 0 0
8.32 0 0
8.36 0 0
8.4 0 0
8.44 0 0
8.48 0 0
8.52 0 0
8.56 0 0
8.6 0 0
8.64 0 0
8.68 0 0
8.72 0 0
8.76 0 0
8.8 0 0
8.84 0 0
8.88 0 0
8.92 0 0
8.96 0 0
9 0 0
9.04 0 0
9.08 0 0
9.12 0 0
9.16 0 0
9.2 0 0
9.24 0 0
9.28 0 0
9.32 0 0
9.36 0 0
9.4 0 0
9.44 0 0
9.48 0 0
9.52 0 0
9.56 0 0
9.6 0 0
9.64 0 0
9.68 0 0
9.72 0 0
9.76 0 0
9.8 0 0
9.84 0 0
9.88 0 0
9.92 0 0
9.96 0 0
10 0 0
10.04 0 0
10.08 0 0
10.12 0 0
10.16 0 0
10.2 0 0
10.24 0 0
10.28 0 0
10.32 0 0
10.36 0 0
10.4 0 0
10.44 0 0
10.48 0 0
10.52 0 0
10.56 0 0
10.6 0 0
10.64 0 0
10.68 0 0
10.72 0 0
10.76 0 0
10.8 0 0
10.84 0 0
10.88 0 0
10.92 0 0
10.96 0 0
11 0 0
11.04 0 0
11.08 0 0
11.12 0 0
11.16 0 0
11.2 0 0
11.24 0 0
11.28 0 0
11.32 0 0
11.36 0 0
11.4 0 0
11.44 0 0
11.48 0 0
11.52 0 0
11.56 0 0
11.6 0 0
11.64 0 0
11.68 0 0
11.72 0 0
11.76 0 0
11.8 0 0
11.84 0 0
11.88 0 0
11.92 0 0
11.96 0 0
12 0 0
12.04 0 0
12.08 0 0
12.12 0 0
12.16 0 0
12.2 0 0
12.24 0 0
12.28 0 0
12.32 0 0
12.36 0 0
12.4 0 0
12.44 0 0
12.48 0 0
12.52 0 0
12.56 0 0
12.6 0 0
12.64 0 0
12.68 0 0
12.72 0 0
12.76 0 0
12.8 0 0
12.84 0 0
12.88 0 0
12.92 0 0
12.96 0 0
13 0 0
13.04 0 0
13.08 0 0
13.12 0 0
13.16 0 0
13.2 0 0
13.24 0 0
13.28 0 0
13.32 0 0
13.36 0 0
13.4 0 0
13.44 0 0
13.48 0 0
13.52 0 0
13.56 0 0
13.6 0 0
13.64 0 0
13.68 0 0
13.72 0 0
13.76 0 0
13.8 0 0
13.84 0 0
13.88 0 0
13.92 0 0
13.96 0 0
14 0 0
14.04 0 0
14.08 0 0
14.12 0 0
14.16 0 0
14.2 0 0
14.24 0 0
14.28 0 0
14.32 0 0
14.36 0 0
14.4 0 0
14.44 0 0
14.48 0 0
14.52 0 0
14.56 0 0
14.6 0 0
14.64 0 0
14.68 0 0
14.72 0 0
14.76 0 0
14.8 0 0
14.84 0 0
14.88 0 0
14.92 0 0
14.96 0 0
15 0 0
15.04 0 0
15.08 0 0
15.12 0 0
15.16 0 0
15.2 0 0
15.24 0 0
15.28 0 0
15.32 0 0
15.36 0 0
15.4 0 0
15.44 0 0
15.48 0 0
15.52 0 0
15.56 0 0
15.6 0 0
15.64 0 0
15.68 0 0
15.72 0 0
15.76 0 0
15.8 0 0
15.84 0 0
15.88 0 0
15.92 0 0
15.96 0 0
16 0 0
16.04 0 0
16.08 0 0
16.12 0 0
16.16 0 0
16.2 0 0
16.24 0 0
16.28 0 0
16.32 0 0
16.36 0 0
16.4 0 0
16.44 0 0
16.48 0 0
16.52 0 0
16.56 0 0
16.6 0 0
16.64 0 0
16.68 0 0
16.72 0 0
16.76 0 0
16.8 0 0
16.84 0 0
16.88 0 0
16.92 0 0
16.96 0 0
17 0 0
17.04 0 0
17.08 0 0
17.12 0 0
17.16 0 0
17.2 0 0
17.24 0 0
17.28 0 0
17.32 0 0
17.36 0 0
17.4 0 0
17.44 0 0
17.48 0 0
17.52 0 0
17.56 0 0
17.6 0 0
17.64 0 0
17.68 0 0
17.72 0 0
17.76 0 0
17.8 0 0
17.84 0 0
17.88 0 0
17.92 0 0
17.96 0 0
18 0 0
18.04 0 0
18.08 0 0
18.12 0 0
18.16 0 0
18.2 0 0
18.24 0 0
18.28 0 0
18.32 0 0
18.36 0 0
18.4 0 0
18.44 0 0
18.48 0 0
18.52 0 0
18.56 0 0
18.6 0 0
18.64 0 0
18.68 0 0
18.72 0 0
18.76 0 0
18.8 0 0
18.84 0 0
18.88 0 0
18.92 0 0
18.96 0 0
19 0 0
19.04 0 0
19.08 0 0
19.12 0 0
19.16 0 0
19.2 0 0
19.24 0 0
19.28 0 0
19.32 0 0
19.36 0 0
19.4 0 0
19.44 0 0
19.48 0 0
19.52 0 0
19.56 0 0
19.6 0 0
19.64 0 0
19.68 0 0
19.72 0 0
19.76 0 0
19.8 0 0
19.84 0 0
19.88 0 0
19.92 0 0
19.96 0 0
20 0 0
20.04 0 0
20.08 0 0
20.12 0 0
20.16 0 0
20.2 0 0
20.24 0 0
20.28 0 0
20.32 0 0
20.36 0 0
20.4 0 0
20.44 0 0
20.48 0 0
20.52 0 0
20.56 0 0
20.6 0 0
20.64 0 0
20.68 0 0
20.72 0 0
20.76 0 0
20.8 0 0
20.84 0 0
20.88 0 0
20.92 0 0
20.96 0 0
21 0 0
21.04 0 0
21.08 0 0
21.12 0 0
21.16 0 0
21.2 0 0
21.24 0 0
21.28 0 0
21.32 0 0
21.36 0 0
21.4 0 0
21.44 0 0
21.48 0 0
21.52 0 0
21.56 0 0
21.6 0 0
21.64 0 0
21.68 0 0
21.72 0 0
21.76 0 0
21.8 0 0
21.84 0 0
21.88 0 0
21.92 0 0
21.96 0 0
22 0 0
22.04 0 0
22.08 0 0
22.12 0 0
22.16 0 0
22.2 0 0
22.24 0 0
22.28 0 0
22.32 0 0
22.36 0 0
22.4 0 0
22.44 0 0
22.48 0 0
22.52 0 0
22.56 0 0
22.6 0 0
22.64 0 0
22.68 0 0
22.72 0 0
22.76 0 0
22.8 0 0
22.84 0 0
22.88 0 0
22.92 0 0
22.96 0 0
23 0 0
23.04 0 0
23.08 0 0
23.12 0 0
23.16 0 0
23.2 0 0
23.24 0 0
23.28 0 0
23.32 0 0
23.36 0 0
23.4 0 0
23.44 0 0
23.48 0 0
23.52 0 0
23.56 0 0
23.6 0 0
23.64 0 0
23.68 0 0
23.72 0 0
23.76 0 0
23.8 0 0
23.84 0 0
23.88 0 0
23.92 0 0
23.96 0 0
24 0 0
24.04 0 0
24.08 0 0
24.12 0 0
24.16 0 0
24.2 0 0
24.24 0 0
24.28 0 0
24.32 0 0
24.36 0 0
24.4 0 0
24.44 0 0
24.48 0 0
24.52 0 0
24.56 0 0
24.6 0 0
24.64 0 0
24.68 0 0
24.72 0 0
24.76 0 0
24.8 0 0
24.84 0 0
24.88 0 0
24.92 0 0
24.96 0 0
25 0 0
25.04 0 0
25.08 0 0
25.12 0 0
25.16 0 0
25.2 0 0
25.24 0 0
25.28 0 0
25.32 0 0
25.36 0 0
25.4 0 0
25.44 0 0
25.48 0 0
25.52 0 0
25.56 0 0
25.6 0 0
25.64 0 0
25.68 0 0
25.72 0 0
25.76 0 0
25.8 0 0
25.84 0 0
25.88 0 0
25.92 0 0
25.96 0 0
26 0 0
26.04 0 0
26.08 0 0
26.12 0 0
26.16 0 0
26.2 0 0
26.24 0 0
26.28 0 0
26.32 0 0
26.36 0 0
26.4 0 0
26.44 0 0
26.48 0 0
26.52 0 0
26.56 0 0
26.6 0 0
26.64 0 0
26.68 0 0
26.72 0 0
26.76 0 0
26.8 0 0
26.84 0 0
26.88 0 0
26.92 0 0
26.96 0 0
27 0 0
27.04 0 0
27.08 0 0
27.12 0 0
27.16 0 0
27.2 0 0
27.24 0 0
27.28 0 0
27.32 0 0
27.36 0 0
27.4 0 0
27.44 0 0
27.48 0 0
27.52 0 0
27.56 0 0
27.6 0 0
27.64 0 0
27.68 0 0
27.72 0 0
27.76 0 0
27.8 0 0
27.84 0 0
27.88 0 0
27.92 0 0
27.96 0 0
28 0 0
28.04 0 0
28.08 0 0
28.12 0 0
28.16 0 0
28.2 0 0
28.24 0 0
28.28 0 0
28.32 0 0
28.36 0 0
28.4 0 0
28.44 0 0
28.48 0 0
28.52 0 0
28.56 0 0
28.6 0 0
28.64 0 0
28.68 0 0
28.72 0 0
28.76 0 0
28.8 0 0
28.84 0 0
28.88 0 0
28.92 0 0
28.96 0 0
29 0 0
29.04 0 0
29.08 0 0
29.12 0 0
29.16 0 0
29.2 0 0
29.24 0 0
29.28 0 0
29.32 0 0
29.36 0 0
29.4 0 0
29.44 0 0
29.48 0 0
29.52 0 0
29.56 0 0
29.6 0 0
29.64 0 0
29.68 0 0
29.72 0 0
29.76 0 0
29.8 0 0
29.84 0 0
29.88 0 0
29.92 0 0
29.96 0 0
30 0 0
30.04 0 0
30.08 0 0
30.12 0 0
30.16 0 0
30.2 0 0
30.24 0 0
30.28 0 0
30.32 0 0
30.36 0 0
30.4 0 0
30.44 0 0
30.48 0 0
30.52 0 0
30.56 0 0
30.6 0 0
30.64 0 0
30.68 0 0
30.72 0 0
30.76 0 0
30.8 0 0
30.84 0 0
30.88 0 0
30.92 0 0
30.96 0 0
31 0 0
31.04 0 0
31.08 0 0
31.12 0 0
31.16 0 0
31.2 0 0
31.24 0 0
31.28 0 0
31.32 0 0
31.36 0 0
31.4 0 0
31.44 0 0
31.48 0 0
31.52 0 0
31.56 0 0
31.6 0 0
31.64 0 0
31.68 0 0
31.72 0 0
31.76 0 0
31.8 0 0
31.84 0 0
31.88 0 0
31.92 0 0
31.96 0 0
0 0.005 0
0.04 0.005 0
0.08 0.005 0
0.12 0.005 0
0.16 0.005 0
0.2 0.005 0
0.24 0.005 0
0.28 0.005 0
0.32 0.005 0
0.36 0.005 0
0.4 0.005 0
0.44 0.005 0
0.48 0.005 0
0.52 0.005 0
0.56 0.005 0
0.6 0.005 0
0.64 0.005 0
0.68 0.005 0
0.72 0.005 0
0.76 0.005 0
0.8 0.005 0
0.84 0.005 0
0.88 0.005 0
0.92 0.005 0
0.96 0.005 0
1 0.005 0
1.04 0.005 0
1.08 0.005 0
1.12 0.005 0
1.16 0.005 0
1.2 0.005 0
1.24 0.005 0
1.28 0.005 0
1.32 0.005 0
1.36 0.005 0
1.4 0.005 0
1.44 0.005 0
1.48 0.005 0
1.52 0.005 0
1.56 0.005 0
1.6 0.005 0
1.64 0.005 0
1.68 0.005 0
1.72 0.005 0
1.76 0.005 0
1.8 0.005 0
1.84 0.005 0
1.88 0.005 0
1.92 0.005 0
1.96 0.005 0
2 0.005 0
2.04 0.005 0
2.08 0.005 0
2.12 0.005 0
2.16 0.005 0
2.2 0.005 0
2.24 0.005 0
2.28 0.005 0
2.32 0.005 0
2.36 0.005 0
2.4 0.005 0
2.44 0.005 0
2.48 0.005 0
2.52 0.005 0
2.56 0.005 0
2.6 0.005 0
2.64 0.005 0
2.68 0.005 0
2.72 0.005 0
2.76 0.005 0
2.8 0.005 0
2.84 0.005 0
2.88 0.005 0
2.92 0.005 0
2.96 0.005 0
3 0.005 0
3.04 0.005 0
3.08 0.005 0
3.12 0.005 0
3.16 0.005 0
3.2 0.005 0
3.24 0.005 0
3.28 0.005 0
3.32 0.005 0
3.36 0.005 0
3.4 0.005 0
3.44 0.005 0
3.48 0.005 0
3.52 0.005 0
3.56 0.005 0
3.6 0.005 0
3.64 0.005 0
3.68 0.005 0
3.72 0.005 0
3.76 0.005 0
3.8 0.005 0
3.84 0.005 0
3.88 0.005 0
3.92 0.005 0
3.96 0.005 0
4 0.005 0
4.04 0.005 0
4.08 0.005 0
4.12 0.005 0
4.16 0.005 0
4.2 0.005 0
4.24 0.005 0
4.28 0.005 0
4.32 0.005 0
4.36 0.005 0
4.4 0.005 0
4.44 0.005 0
4.48 0.005 0
4.52 0.005 0
4.56 0.005 0
4.6 0.005 0
4.64 0.005 0
4.68 0.005 0
4.72 0.005 0
4.76 0.005 0
4.8 0.005 0
4.84 0.005 0
4.88 0.005 0
4.92 0.005 0
4.96 0.005 0
5 0.005 0
5.04 0.005 0
5.08 0.005 0
5.12 0.005 0
5.16 0.005 0
5.2 0.005 0
5.24 0.005 0
5.28 0.005 0
5.32 0.005 0
5.36 0.005 0
5.4 0.005 0
5.44 0.005 0
5.48 0.005 0
5.52 0.005 0
5.56 0.005 0
5.6 0.005 0
5.64 0.005 0
5.68 0.005 0
5.72 0.005 0
5.76 0.005 0
5.8 0.005 0
5.84 0.005 0
5.88 0.005 0
5.92 0.005 0
5.96 0.005 0
6 0.005 0
6.04 0.005 0
6.08 0.005 0
6.12 0.005 0
6.16 0.005 0
6.2 0.005 0
6.24 0.005 0
6.28 0.005 0
6.32 0.005 0
6.36 0.005 0
6.4 0.005 0
6.44 0.005 0
6.48 0.005 0
6.52 0.005 0
6.56 0.005 0
6.6 0.005 0
6.64 0.005 0
6.68 0.005 0
6.72 0.005 0
6.76 0.005 0
6.8 0.005 0
6.84 0.005 0
6.88 0.005 0
6.92 0.005 0
6.96 0.005 0
7 0.005 0
7.04 0.005 0
7.08 0.005 0
7.12 0.005 0
7.16 0.005 0
7.2 0.005 0
7.24 0.005 0
7.28 0.005 0
7.32 0.005 0
7.36 0.005 0
7.4 0.005 0
[...]
POINT_DATA 160000

SCALARS v float 1
LOOKUP_TABLE default
0
0
0
0
0
0
0
0
0
0
0
0
0
0
0
0
0
0
0
0
0
0
0
0
0
0
0
0
0
0
0
0
0
0
0
0
0
0
0
0
0
0
0
0
0
0
0
0
0
0
0
0
0
0
0
0
0
0
0
0
0
0
0
0
0
0
0
0
0
0
0
0
0
0
0
0
0
0
0
0
0
0
0
0
0
0
0
0
0
0
0
0
0
0
0
0
0
0
0
0
0
0
0
0
0
0
0
0
0
0
0
0
0
0
0
0
0
0
0
0
0
0
0
0
0
0
0
0
0
0
0
0
0
0
0
0
0
0
0
0
0
0
0
0
0
0
0
0
0
0
0
0
0
0
0
0
0
0
0
0
0
0
0
0
0
0
0
0
0
0
0
0
0
0
0
0
0
0
0
0
0
0
0
0
0
0
0
0
0
0
0
0
0
0
0
0
0
0
0
0
0
0
0
0
0
0
0
0
0
0
0
0
0
0
0
0
0
0
0
0
0
0
0
0
0
0
0
0
0
0
0
0
0
0
0
0
0
0
0
0
0
0
0
0
0
0
0
0
0
0
0
0
0
0
0
0
0
0
0
0
0
0
0
0
0
0
0
0
0
0
0
0
0
0
0
0
0
0
0
0
0
0
0
0
0
0
0
0
0
0
0
0
0
0
0
0
0
0
0
0
0
0
0
0
0
0
0
0
0
0
0
0
0
0
0
0
0
0
0
0
0
0
0
0
0
0
0
0
0
0
0
0
0
0
0
0
0
0
0
0
0
0
0
0
0
0
0
0
0
0
0
0
0
0
0
0
0
0
0
0
0
0
0
0
0
0
0
0
0
0
0
0
0
0
0
0
0
0
0
0
0
0
0
0
0
0
0
0
0
0
0
0
0
0
0
0
0
0
0
0
0
0
0
0
0
0
0
0
0
0
0
0
0
0
0
0
0
0
0
0
0
0
0
0
0
0
0
0
0
0
0
0
0
0
0
0
0
0
0
0
0
0
0
0
0
0
0
0
0
0
0
0
0
0
0
0
0
0
0
0
0
0
0
0
0
0
0
0
0
0
0
0
0
0
0
0
0
0
0
0
0
0
0
0
0
0
0
0
0
0
0
0
0
0
0
0
0
0
0
0
0
0
0
0
0
0
0
0
0
0
0
0
0
0
0
0
0
0
0
0
0
0
0
0
0
0
0
0
0
0
0
0
0
0
0
0
0
0
0
0
0
0
0
0
0
0
0
0
0
0
0
0
0
0
0
0
0
0
0
0
0
0
0
0
0
0
0
0
0
0
0
0
0
0
0
0
0
0
0
0
0
0
0
0
0
0
0
0
0
0
0
0
0
0
0
0
0
0
0
0
0
0
0
0
0
0
0
0
0
0
0
0
0
0
0
0
0
0
0
0
0
0
0
0
0
0
0
0
0
0
0
0
0
0
0
0
0
0
0
0
0
0
0
0
0
0
0
0
0
0
0
0
0
0
0
0
0
0
0
0
0
0
0
0
0
0
0
0
0
0
0
0
0
0
0
0
0
0
0
0
0
0
0
0
0
0
0
0
0
0
0
0
0
0
0
0
0
0
0
0
0
0
0
0
0
0
0
0
0
0
0
0
0
0
0
0
0
0
0
0
0
0
0
0
0
0
0
0
0
0
0
0
0
0
0
0
0
0
0
0
0
0
0
0
0
0
0
0
0
0
0
0
0
0
0
0
0
0
0
0
0
0
0
0
0
0
0
0
0
0
0
0
0
0
0
0
0
0
0
0
0
0
0
0
0
0
0
0
0
0
0
0
0
0
0
0
0
0
0
0
0
0
0.0374157
0.00938104
0.00346788
0.00176626
0.00108078
0.000737022
0.000538245
0.0004117
0.000325501
0.000263813
0.000217991
0.000182961
0.000155559
0.000133723
0.00011605
0.000101559
8.95402e-05
7.94722e-05
7.09624e-05
6.37105e-05
5.74837e-05
5.20995e-05
4.74131e-05
4.33084e-05
3.96921e-05
3.6488e-05
3.36342e-05
3.10793e-05
2.87811e-05
2.67046e-05
2.48202e-05
2.31033e-05
2.15331e-05
2.00919e-05
1.87649e-05
1.75391e-05
1.64036e-05
1.53489e-05
1.43667e-05
1.345e-05
1.25926e-05
1.17889e-05
1.10342e-05
1.03243e-05
9.65531e-06
9.024e-06
8.42736e-06
7.86271e-06
7.32767e-06
6.82005e-06
6.33791e-06
5.87947e-06
5.44311e-06
5.02737e-06
4.63091e-06
4.25248e-06
3.89097e-06
3.54534e-06
3.21462e-06
2.89795e-06
2.5945e-06
2.30351e-06
2.02429e-06
1.75619e-06
1.49861e-06
1.25097e-06
1.01275e-06
7.83465e-07
5.62663e-07
3.49909e-07
1.44802e-07
-5.30305e-08
-2.43941e-07
-4.28264e-07
-6.06308e-07
-7.78365e-07
-9.44715e-07
-1.10561e-06
-1.2613e-06
-1.41201e-06
-1.55796e-06
-1.69937e-06
-1.83642e-06
-1.96929e-06
-2.09817e-06
-2.22321e-06
-2.34458e-06
-2.46242e-06
-2.57686e-06
-2.68806e-06
-2.79613e-06
-2.90121e-06
-3.00339e-06
-3.10279e-06
-3.19952e-06
-3.29367e-06
-3.38534e-06
-3.47462e-06
-3.5616e-06
-3.64635e-06
-3.72897e-06
-3.80952e-06
-3.88808e-06
-3.9647e-06
-4.03947e-06
-4.11244e-06
-4.18367e-06
-4.25322e-06
-4.32115e-06
-4.38751e-06
-4.45235e-06
-4.51571e-06
-4.57765e-06
-4.63822e-06
-4.69744e-06
-4.75538e-06
-4.81206e-06
-4.86752e-06
-4.92181e-06
-4.97494e-06
-5.02697e-06
-5.07793e-06
-5.12784e-06
-5.17673e-06
-5.22463e-06
-5.27159e-06
-5.31761e-06
-5.36272e-06
-5.40695e-06
-5.45034e-06
-5.4929e-06
-5.53465e-06
-5.5756e-06
-5.6158e-06
-5.65525e-06
-5.69398e-06
-5.732e-06
-5.76934e-06
-5.80601e-06
-5.84202e-06
-5.87741e-06
-5.91217e-06
-5.94633e-06
-5.9799e-06
-6.0129e-06
-6.04534e-06
-6.07724e-06
-6.1086e-06
-6.13944e-06
-6.16977e-06
-6.19961e-06
-6.22897e-06
-6.25786e-06
-6.28628e-06
-6.31426e-06
-6.34179e-06
-6.36889e-06
-6.39558e-06
-6.42186e-06
-6.44773e-06
-6.4732e-06
-6.49829e-06
-6.52302e-06
-6.54737e-06
-6.57136e-06
-6.595e-06
-6.61829e-06
-6.64124e-06
-6.66387e-06
-6.68617e-06
-6.70816e-06
-6.72983e-06
-6.75121e-06
-6.77228e-06
-6.79305e-06
-6.81355e-06
-6.83376e-06
-6.85369e-06
-6.87335e-06
-6.89275e-06
-6.9119e-06
-6.93078e-06
-6.94942e-06
-6.96781e-06
-6.98596e-06
-7.00386e-06
-7.02154e-06
-7.03899e-06
-7.05622e-06
-7.07322e-06
-7.09001e-06
-7.10658e-06
-7.12295e-06
-7.13912e-06
-7.15508e-06
-7.17084e-06
-7.1864e-06
-7.20177e-06
-7.21696e-06
-7.23196e-06
-7.24678e-06
-7.26142e-06
-7.27588e-06
-7.29016e-06
-7.30428e-06
-7.31823e-06
-7.33201e-06
-7.34563e-06
-7.35909e-06
-7.37239e-06
-7.38553e-06
-7.39853e-06
-7.41137e-06
-7.42406e-06
-7.43661e-06
-7.44901e-06
-7.46127e-06
-7.47339e-06
-7.48537e-06
-7.49721e-06
-7.50892e-06
-7.5205e-06
-7.53194e-06
-7.54326e-06
-7.55445e-06
-7.56552e-06
-7.57646e-06
-7.58728e-06
-7.59798e-06
-7.60857e-06
-7.61903e-06
-7.62938e-06
-7.63962e-06
-7.64974e-06
-7.65976e-06
-7.66966e-06
-7.67946e-06
-7.68915e-06
-7.69874e-06
-7.70822e-06
-7.71759e-06
-7.72687e-06
-7.73605e-06
-7.74513e-06
-7.75411e-06
-7.763e-06
-7.7718e-06
-7.78049e-06
-7.78909e-06
-7.79761e-06
-7.80603e-06
-7.81436e-06
-7.82261e-06
-7.83077e-06
-7.83884e-06
-7.84682e-06
-7.85473e-06
-7.86255e-06
-7.87029e-06
-7.87794e-06
-7.88552e-06
-7.89301e-06
-7.90043e-06
-7.90777e-06
-7.91504e-06
-7.92223e-06
-7.92933e-06
-7.93637e-06
-7.94333e-06
-7.95022e-06
-7.95704e-06
-7.96379e-06
-7.97048e-06
-7.97709e-06
-7.98363e-06
-7.9901e-06
-7.9965e-06
-8.00284e-06
-8.00912e-06
-8.01532e-06
-8.02146e-06
-8.02755e-06
-8.03357e-06
-8.03952e-06
-8.04542e-06
-8.05126e-06
-8.05703e-06
-8.06274e-06
-8.0684e-06
-8.07401e-06
-8.07955e-06
-8.08504e-06
-8.09049e-06
-8.09587e-06
-8.1012e-06
-8.10649e-06
-8.11172e-06
-8.11691e-06
-8.12204e-06
-8.12713e-06
-8.13217e-06
-8.13718e-06
-8.14214e-06
-8.14706e-06
-8.15194e-06
-8.15678e-06
-8.16158e-06
-8.16634e-06
-8.17107e-06
-8.17577e-06
-8.18044e-06
-8.18507e-06
-8.18968e-06
-8.19426e-06
-8.19881e-06
-8.20334e-06
-8.20784e-06
-8.21232e-06
-8.21678e-06
-8.22122e-06
-8.22564e-06
-8.23004e-06
-8.23442e-06
-8.23879e-06
-8.24314e-06
-8.24747e-06
-8.2518e-06
-8.25611e-06
-8.2604e-06
-8.26469e-06
-8.26896e-06
-8.27323e-06
-8.27749e-06
-8.28173e-06
-8.28597e-06
-8.2902e-06
-8.29442e-06
-8.29863e-06
-8.30284e-06
-8.30703e-06
-8.31121e-06
-8.3154e-06
-8.31958e-06
-8.32375e-06
-8.3279e-06
-8.33205e-06
-8.33619e-06
-8.34032e-06
-8.34445e-06
-8.34856e-06
-8.35266e-06
-8.35675e-06
-8.36084e-06
-8.3649e-06
-8.36896e-06
-8.37301e-06
-8.37705e-06
-8.38107e-06
-8.38508e-06
-8.38907e-06
-8.39304e-06
-8.397e-06
-8.40094e-06
-8.40486e-06
-8.40876e-06
-8.41264e-06
-8.41651e-06
-8.42035e-06
-8.42417e-06
-8.42797e-06
-8.43174e-06
-8.43549e-06
-8.43921e-06
-8.44291e-06
-8.44657e-06
-8.45021e-06
-8.45382e-06
-8.4574e-06
-8.46096e-06
-8.46448e-06
-8.46796e-06
-8.47141e-06
-8.47483e-06
-8.47822e-06
-8.48157e-06
-8.48488e-06
-8.48816e-06
-8.4914e-06
-8.4946e-06
-8.49777e-06
-8.50089e-06
-8.50398e-06
-8.50702e-06
-8.51002e-06
-8.51298e-06
-8.51591e-06
-8.51879e-06
-8.52163e-06
-8.52442e-06
-8.52717e-06
-8.52988e-06
-8.53254e-06
-8.53516e-06
-8.53773e-06
-8.54025e-06
-8.54273e-06
-8.54517e-06
-8.54757e-06
-8.54992e-06
-8.55222e-06
-8.55448e-06
-8.55669e-06
-8.55886e-06
-8.56098e-06
-8.56306e-06
-8.56508e-06
-8.56707e-06
-8.56901e-06
-8.57091e-06
-8.57276e-06
-8.57457e-06
-8.57633e-06
-8.57805e-06
-8.57972e-06
-8.58136e-06
-8.58295e-06
-8.58449e-06
-8.58599e-06
-8.58746e-06
-8.58888e-06
-8.59026e-06
-8.5916e-06
-8.59289e-06
-8.59415e-06
-8.59537e-06
-8.59655e-06
-8.5977e-06
-8.5988e-06
-8.59987e-06
-8.6009e-06
-8.6019e-06
-8.60286e-06
-8.60379e-06
-8.60468e-06
-8.60554e-06
-8.60636e-06
-8.60716e-06
-8.60792e-06
-8.60866e-06
-8.60936e-06
-8.61003e-06
-8.61068e-06
-8.61129e-06
-8.61188e-06
-8.61245e-06
-8.61299e-06
-8.6135e-06
-8.61399e-06
-8.61446e-06
-8.6149e-06
-8.61532e-06
-8.61572e-06
-8.6161e-06
-8.61646e-06
-8.6168e-06
-8.61712e-06
-8.61742e-06
-8.61771e-06
-8.61798e-06
-8.61823e-06
-8.61847e-06
-8.6187e-06
-8.61891e-06
-8.61911e-06
-8.61929e-06
-8.61947e-06
-8.61963e-06
-8.61978e-06
-8.61992e-06
-8.62005e-06
-8.62018e-06
-8.62029e-06
-8.62039e-06
-8.62049e-06
-8.62059e-06
-8.62067e-06
-8.62074e-06
-8.62082e-06
-8.62089e-06
-8.62095e-06
-8.62101e-06
-8.62106e-06
-8.62111e-06
-8.62115e-06
-8.62119e-06
-8.62124e-06
-8.62128e-06
-8.62132e-06
-8.62135e-06
-8.62138e-06
-8.62142e-06
-8.62145e-06
-8.62148e-06
-8.62151e-06
-8.62154e-06
-8.62157e-06
-8.62159e-06
-8.62162e-06
-8.62165e-06
-8.62168e-06
-8.6217e-06
-8.62173e-06
-8.62175e-06
-8.62178e-06
-8.62181e-06
-8.62183e-06
-8.62186e-06
-8.62189e-06
-8.62191e-06
-8.62194e-06
-8.62197e-06
-8.62199e-06
-8.62202e-06
-8.62204e-06
-8.62207e-06
-8.6221e-06
-8.62212e-06
-8.62215e-06
-8.62218e-06
-8.62221e-06
-8.62224e-06
-8.62227e-06
-8.62229e-06
-8.62231e-06
-8.62234e-06
-8.62236e-06
-8.62239e-06
-8.62242e-06
-8.62244e-06
-8.62247e-06
-8.6225e-06
-8.62252e-06
-8.62255e-06
-8.62258e-06
-8.62261e-06
-8.62263e-06
-8.62266e-06
-8.62269e-06
-8.62271e-06
-8.62274e-06
-8.62277e-06
-8.6228e-06
-8.62282e-06
-8.62285e-06
-8.62287e-06
-8.6229e-06
-8.62293e-06
-8.62295e-06
-8.62298e-06
-8.623e-06
-8.62303e-06
-8.62306e-06
-8.62309e-06
-8.62311e-06
-8.62314e-06
-8.62316e-06
-8.62319e-06
-8.62322e-06
-8.62325e-06
-8.62328e-06
-8.6233e-06
-8.62333e-06
-8.62336e-06
-8.62338e-06
-8.62341e-06
-8.62344e-06
-8.62347e-06
-8.62349e-06
-8.62351e-06
-8.62354e-06
-8.62357e-06
-8.6236e-06
-8.62362e-06
-8.62365e-06
-8.62367e-06
-8.6237e-06
-8.62374e-06
-8.62377e-06
-8.62379e-06
-8.62381e-06
-8.62384e-06
-8.62386e-06
-8.62389e-06
-8.62392e-06
-8.62395e-06
-8.62398e-06
-8.624e-06
-8.62403e-06
-8.62405e-06
-8.62408e-06
-8.62411e-06
-8.62414e-06
-8.62417e-06
-8.62419e-06
-8.62421e-06
-8.62424e-06
-8.62427e-06
-8.6243e-06
-8.62433e-06
-8.62435e-06
-8.62438e-06
-8.6244e-06
-8.62443e-06
-8.62446e-06
-8.62448e-06
-8.62451e-06
-8.62454e-06
-8.62457e-06
-8.62459e-06
-8.62462e-06
-8.62465e-06
-8.62468e-06
-8.6247e-06
-8.62473e-06
-8.62476e-06
-8.62478e-06
-8.62481e-06
-8.62484e-06
-8.62487e-06
-8.62489e-06
-8.62492e-06
-8.62495e-06
-8.62497e-06
-8.625e-06
-8.62503e-06
-8.62505e-06
-8.62508e-06
-8.62511e-06
-8.62514e-06
-8.62516e-06
-8.62519e-06
-8.62521e-06
-8.62524e-06
-8.62527e-06
-8.6253e-06
-8.62532e-06
-8.62535e-06
-8.62538e-06
-8.6254e-06
-8.62543e-06
-8.62546e-06
-8.62549e-06
-8.62552e-06
-8.62554e-06
-8.62556e-06
-8.62559e-06
-8.62562e-06
-8.62565e-06
-8.62568e-06
-8.62571e-06
-8.62573e-06
-8.62576e-06
-8.62578e-06
-8.62581e-06
-8.62585e-06
-8.62587e-06
-8.6259e-06
-8.62592e-06
-8.62595e-06
-8.62598e-06
-8.62601e-06
-8.62604e-06
-8.62606e-06
-8.62609e-06
-8.62611e-06
-8.62614e-06
-8.62617e-06
-8.6262e-06
-8.62623e-06
-8.62625e-06
-8.62628e-06
-8.6263e-06
-8.62633e-06
-8.62636e-06
-8.62638e-06
-8.62641e-06
-8.62644e-06
-8.62647e-06
-8.6265e-06
-8.62652e-06
-8.62655e-06
-8.62658e-06
-8.62661e-06
-8.62663e-06
-8.62666e-06
-8.62669e-06
-8.62672e-06
-8.62674e-06
-8.62677e-06
-8.6268e-06
-8.62683e-06
-8.62685e-06
-8.62688e-06
-8.6269e-06
-8.62693e-06
-8.62696e-06
-8.62699e-06
-8.62701e-06
-8.62704e-06
-8.62707e-06
-8.6271e-06
-8.62713e-06
-8.62716e-06
-8.62718e-06
-8.62721e-06
-8.62723e-06
-8.62726e-06
-8.62729e-06
-8.62732e-06
-8.62734e-06
-8.62737e-06
-8.6274e-06
-8.62743e-06
-8.62746e-06
-8.62748e-06
-8.62751e-06
-8.62754e-06
-8.62757e-06
-8.62759e-06
-8.62762e-06
-8.62765e-06
-8.62768e-06
-8.6277e-06
-8.62773e-06
-8.62776e-06
-8.62778e-06
-8.62781e-06
-8.62784e-06
-8.62787e-06
-8.6279e-06
-8.62793e-06
-8.62795e-06
-8.62798e-06
-8.628e-06
-8.62803e-06
-8.62806e-06
-8.62809e-06
-8.62811e-06
-8.62814e-06
-8.62817e-06
-8.6282e-06
-8.62822e-06
-8.62825e-06
-8.62828e-06
-8.62831e-06
-8.62833e-06
-8.62836e-06
-8.62838e-06
-8.62841e-06
-8.62843e-06
-8.62846e-06
-8.62848e-06
-8.6285e-06
-8.62852e-06
-8.62854e-06
-8.62855e-06
-8.62857e-06
-8.62857e-06
-8.62857e-06
-8.62857e-06
-8.62856e-06
-8.62853e-06
-8.6285e-06
-8.62844e-06
-8.62836e-06
-8.62825e-06
-8.62811e-06
-8.62794e-06
-8.62769e-06
-8.62738e-06
-8.62696e-06
-8.62644e-06
-8.62574e-06
-8.62491e-06
-8.62373e-06
-8.62239e-06
-8.62039e-06
-8.61828e-06
-8.61476e-06
-8.61157e-06
-8.60492e-06
-8.60071e-06
-8.58611e-06
-8.58503e-06
-8.54146e-06
-8.61596e-06
-6.09157e-06
-6.09157e-06
0
0
0.0966099
0.0320526
0.0130061
0.00682626
0.00423597
0.00291403
0.00214239
0.00164831
0.00131045
0.00106797
0.00088746
0.000749212
0.000640908
0.000554485
0.000484461
0.000426981
0.000379266
0.000339263
0.000305427
0.000276574
0.000251787
0.000230345
0.000211675
0.000195318
0.000180905
0.000168133
0.000156757
0.000146572
0.000137412
0.000129136
0.000121626
0.000114786
0.000108531
0.000102792
9.75084e-05
9.26291e-05
8.81103e-05
8.39141e-05
8.00076e-05
7.63624e-05
7.29535e-05
6.97592e-05
6.67603e-05
6.39397e-05
6.12825e-05
5.87754e-05
5.64063e-05
5.41648e-05
5.2041e-05
5.00264e-05
4.81132e-05
4.62943e-05
4.45632e-05
4.29142e-05
4.13417e-05
3.98409e-05
3.84074e-05
3.70369e-05
3.57258e-05
3.44703e-05
3.32674e-05
3.2114e-05
3.10073e-05
2.99447e-05
2.89239e-05
2.79425e-05
2.69986e-05
2.60901e-05
2.52152e-05
2.43722e-05
2.35596e-05
2.27759e-05
2.20196e-05
2.12894e-05
2.05841e-05
1.99025e-05
1.92436e-05
1.86063e-05
1.79897e-05
1.73928e-05
1.68147e-05
1.62547e-05
1.57119e-05
1.51857e-05
1.46754e-05
1.41802e-05
1.36996e-05
1.3233e-05
1.27798e-05
1.23395e-05
1.19116e-05
1.14956e-05
1.1091e-05
1.06974e-05
1.03144e-05
9.94168e-06
9.57874e-06
9.22528e-06
8.88094e-06
8.54539e-06
8.21833e-06
7.89946e-06
7.58849e-06
7.28516e-06
6.98919e-06
6.70034e-06
6.41838e-06
6.14306e-06
5.87418e-06
5.61152e-06
5.35487e-06
5.10406e-06
4.85889e-06
4.61918e-06
4.38476e-06
4.15547e-06
3.93114e-06
3.71163e-06
3.49679e-06
3.28649e-06
3.08058e-06
2.87893e-06
2.68142e-06
2.48793e-06
2.29835e-06
2.11255e-06
1.93044e-06
1.75191e-06
1.57685e-06
1.40517e-06
1.23678e-06
1.07159e-06
9.09516e-07
7.50466e-07
5.94358e-07
4.41117e-07
2.9067e-07
1.42941e-07
-2.13737e-09
-1.44638e-07
-2.84627e-07
-4.22164e-07
-5.57312e-07
-6.90138e-07
-8.20693e-07
-9.49031e-07
-1.07521e-06
-1.19928e-06
-1.32129e-06
-1.44129e-06
-1.55934e-06
-1.67548e-06
-1.78974e-06
-1.90218e-06
-2.01284e-06
-2.12176e-06
-2.22897e-06
-2.33452e-06
-2.43845e-06
-2.54078e-06
-2.64155e-06
-2.74081e-06
-2.83858e-06
-2.93489e-06
-3.02978e-06
-3.12327e-06
-3.21539e-06
-3.30618e-06
-3.39567e-06
-3.48387e-06
-3.57081e-06
-3.65652e-06
-3.74103e-06
-3.82436e-06
-3.90653e-06
-3.98756e-06
-4.06748e-06
-4.14631e-06
-4.22407e-06
-4.30079e-06
-4.37647e-06
-4.45114e-06
-4.52483e-06
-4.59754e-06
-4.66928e-06
-4.74009e-06
-4.80999e-06
-4.87898e-06
-4.94709e-06
-5.01431e-06
-5.08068e-06
-5.14621e-06
-5.21092e-06
-5.27482e-06
-5.33791e-06
-5.40021e-06
-5.46175e-06
-5.52252e-06
-5.58255e-06
-5.64185e-06
-5.70042e-06
-5.75829e-06
-5.81545e-06
-5.87192e-06
-5.92772e-06
-5.98285e-06
-6.03733e-06
-6.09116e-06
-6.14436e-06
-6.19692e-06
-6.24887e-06
-6.30022e-06
-6.35097e-06
-6.40113e-06
-6.45071e-06
-6.49973e-06
-6.54817e-06
-6.59606e-06
-6.6434e-06
-6.69021e-06
-6.73648e-06
-6.78223e-06
-6.82746e-06
-6.87219e-06
-6.91641e-06
-6.96014e-06
-7.00337e-06
-7.04613e-06
-7.08842e-06
-7.13023e-06
-7.17158e-06
-7.21248e-06
-7.25292e-06
-7.29293e-06
-7.33249e-06
-7.37163e-06
-7.41033e-06
-7.44862e-06
-7.48649e-06
-7.52394e-06
-7.561e-06
-7.59765e-06
-7.63391e-06
-7.66978e-06
-7.70526e-06
-7.74037e-06
-7.7751e-06
-7.80945e-06
-7.84344e-06
-7.87707e-06
-7.91034e-06
-7.94326e-06
-7.97583e-06
-8.00805e-06
-8.03993e-06
-8.07148e-06
-8.1027e-06
-8.13358e-06
-8.16414e-06
-8.19438e-06
-8.2243e-06
-8.25391e-06
-8.28321e-06
-8.3122e-06
-8.34089e-06
-8.36928e-06
-8.39736e-06
-8.42516e-06
-8.45267e-06
-8.47988e-06
-8.50682e-06
-8.53348e-06
-8.55986e-06
-8.58597e-06
-8.6118e-06
-8.63736e-06
-8.66266e-06
-8.6877e-06
-8.71248e-06
-8.737e-06
-8.76127e-06
-8.7853e-06
-8.80907e-06
-8.8326e-06
-8.85589e-06
-8.87894e-06
-8.90176e-06
-8.92435e-06
-8.94671e-06
-8.96886e-06
-8.99078e-06
-9.01249e-06
-9.03399e-06
-9.05528e-06
-9.07637e-06
-9.09726e-06
-9.11796e-06
-9.13847e-06
-9.15879e-06
-9.17893e-06
-9.1989e-06
-9.21871e-06
-9.23835e-06
-9.25782e-06
-9.27715e-06
-9.29633e-06
-9.31536e-06
-9.33425e-06
-9.35301e-06
-9.37164e-06
-9.39015e-06
-9.40854e-06
-9.42682e-06
-9.445e-06
-9.46307e-06
-9.48105e-06
-9.49893e-06
-9.51674e-06
-9.53446e-06
-9.5521e-06
-9.56966e-06
-9.58716e-06
-9.6046e-06
-9.62197e-06
-9.63928e-06
-9.65654e-06
-9.67375e-06
-9.69092e-06
-9.70803e-06
-9.7251e-06
-9.74214e-06
-9.75913e-06
-9.7761e-06
-9.79302e-06
-9.80991e-06
-9.82676e-06
-9.84359e-06
-9.86039e-06
-9.87715e-06
-9.89388e-06
-9.91059e-06
-9.92727e-06
-9.94392e-06
-9.96054e-06
-9.97712e-06
-9.99366e-06
-1.00102e-05
-1.00267e-05
-1.00431e-05
-1.00595e-05
-1.00759e-05
-1.00922e-05
-1.01085e-05
-1.01247e-05
-1.01409e-05
-1.0157e-05
-1.01731e-05
-1.01891e-05
-1.02051e-05
-1.0221e-05
-1.02368e-05
-1.02526e-05
-1.02683e-05
-1.02839e-05
-1.02994e-05
-1.03149e-05
-1.03303e-05
-1.03456e-05
-1.03608e-05
-1.03759e-05
-1.03909e-05
-1.04058e-05
-1.04206e-05
-1.04353e-05
-1.04499e-05
-1.04643e-05
-1.04787e-05
-1.04929e-05
-1.0507e-05
-1.0521e-05
-1.05348e-05
-1.05485e-05
-1.05621e-05
-1.05755e-05
-1.05888e-05
-1.06019e-05
-1.06149e-05
-1.06277e-05
-1.06404e-05
-1.06529e-05
-1.06653e-05
-1.06775e-05
-1.06896e-05
-1.07014e-05
-1.07132e-05
-1.07247e-05
-1.07361e-05
-1.07473e-05
-1.07583e-05
-1.07692e-05
-1.07798e-05
-1.07903e-05
-1.08007e-05
-1.08108e-05
-1.08208e-05
-1.08305e-05
-1.08401e-05
-1.08496e-05
-1.08588e-05
-1.08678e-05
-1.08767e-05
-1.08854e-05
-1.08939e-05
-1.09022e-05
-1.09104e-05
-1.09183e-05
-1.09261e-05
-1.09337e-05
-1.09412e-05
-1.09484e-05
-1.09555e-05
-1.09624e-05
-1.09691e-05
-1.09756e-05
-1.0982e-05
-1.09882e-05
-1.09942e-05
-1.1e-05
-1.10057e-05
-1.10113e-05
-1.10166e-05
-1.10218e-05
-1.10268e-05
-1.10317e-05
-1.10364e-05
-1.1041e-05
-1.10454e-05
-1.10497e-05
-1.10538e-05
-1.10578e-05
-1.10616e-05
-1.10653e-05
-1.10689e-05
-1.10723e-05
-1.10756e-05
-1.10788e-05
-1.10818e-05
-1.10847e-05
-1.10875e-05
-1.10902e-05
-1.10928e-05
-1.10952e-05
-1.10975e-05
-1.10998e-05
-1.11019e-05
-1.11039e-05
-1.11059e-05
-1.11077e-05
-1.11094e-05
-1.11111e-05
-1.11126e-05
-1.11141e-05
-1.11155e-05
-1.11168e-05
-1.11181e-05
-1.11193e-05
-1.11204e-05
-1.11214e-05
-1.11224e-05
-1.11233e-05
-1.11241e-05
-1.11249e-05
-1.11257e-05
-1.11264e-05
-1.1127e-05
-1.11276e-05
-1.11282e-05
-1.11287e-05
-1.11291e-05
-1.11296e-05
-1.113e-05
-1.11303e-05
-1.11307e-05
-1.1131e-05
-1.11313e-05
-1.11315e-05
-1.11317e-05
-1.1132e-05
-1.11321e-05
-1.11323e-05
-1.11325e-05
-1.11326e-05
-1.11327e-05
-1.11328e-05
-1.11329e-05
-1.1133e-05
-1.11331e-05
-1.11332e-05
-1.11332e-05
-1.11333e-05
-1.11334e-05
-1.11334e-05
-1.11335e-05
-1.11335e-05
-1.11335e-05
-1.11336e-05
-1.11336e-05
-1.11337e-05
-1.11337e-05
-1.11337e-05
-1.11338e-05
-1.11338e-05
-1.11338e-05
-1.11339e-05
-1.11339e-05
-1.11339e-05
-1.1134e-05
-1.1134e-05
-1.1134e-05
-1.11341e-05
-1.11341e-05
-1.11342e-05
-1.11342e-05
-1.11342e-05
-1.11343e-05
-1.11343e-05
-1.11343e-05
-1.11344e-05
-1.11344e-05
-1.11344e-05
-1.11345e-05
-1.11345e-05
-1.11345e-05
-1.11346e-05
-1.11346e-05
-1.11346e-05
-1.11347e-05
-1.11347e-05
-1.11347e-05
-1.11348e-05
-1.11348e-05
-1.11349e-05
-1.11349e-05
-1.11349e-05
-1.1135e-05
-1.1135e-05
-1.1135e-05
-1.11351e-05
-1.11351e-05
-1.11351e-05
-1.11352e-05
-1.11352e-05
-1.11352e-05
-1.11353e-05
-1.11353e-05
-1.11353e-05
-1.11354e-05
-1.11354e-05
-1.11354e-05
-1.11355e-05
-1.11355e-05
-1.11356e-05
-1.11356e-05
-1.11356e-05
-1.11357e-05
-1.11357e-05
-1.11357e-05
-1.11358e-05
-1.11358e-05
-1.11358e-05
-1.11359e-05
-1.11359e-05
-1.11359e-05
-1.1136e-05
-1.1136e-05
-1.11361e-05
-1.11361e-05
-1.11361e-05
-1.11362e-05
-1.11362e-05
-1.11362e-05
-1.11363e-05
-1.11363e-05
-1.11363e-05
-1.11364e-05
-1.11364e-05
-1.11364e-05
-1.11365e-05
-1.11365e-05
-1.11365e-05
-1.11366e-05
-1.11366e-05
-1.11367e-05
-1.11367e-05
-1.11367e-05
-1.11368e-05
-1.11368e-05
-1.11368e-05
-1.11369e-05
-1.11369e-05
-1.11369e-05
-1.1137e-05
-1.1137e-05
-1.1137e-05
-1.11371e-05
-1.11371e-05
-1.11371e-05
-1.11372e-05
-1.11372e-05
-1.11373e-05
-1.11373e-05
-1.11373e-05
-1.11374e-05
-1.11374e-05
-1.11374e-05
-1.11375e-05
-1.11375e-05
-1.11375e-05
-1.11376e-05
-1.11376e-05
-1.11376e-05
-1.11377e-05
-1.11377e-05
-1.11378e-05
-1.11378e-05
-1.11378e-05
-1.11379e-05
-1.11379e-05
-1.11379e-05
-1.1138e-05
-1.1138e-05
-1.1138e-05
-1.11381e-05
-1.11381e-05
-1.11381e-05
-1.11382e-05
-1.11382e-05
-1.11383e-05
-1.11383e-05
-1.11383e-05