# vtk DataFile Version 2.0
FlowField
ASCII
DATASET STRUCTURED_GRID
DIMENSIONS 800 1 200
POINTS 160000 float
0 0 0
0.04 0 0
0.08 0 0
0.12 0 0
0.16 0 0
0.2 0 0
0.24 0 0
0.28 0 0
0.32 0 0
0.36 0 0
0.4 0 0
0.44 0 0
0.48 0 0
0.52 0 0
0.56 0 0
0.6 0 0
0.64 0 0
0.68 0 0
0.72 0 0
0.76 0 0
0.8 0 0
0.84 0 0
0.88 0 0
0.92 0 0
0.96 0 0
1 0 0
1.04 0 0
1.08 0 0
1.12 0 0
1.16 0 0
1.2 0 0
1.24 0 0
1.28 0 0
1.32 0 0
1.36 0 0
1.4 0 0
1.44 0 0
1.48 0 0
1.52 0 0
1.56 0 0
1.6 0 0
1.64 0 0
1.68 0 0
1.72 0 0
1.76 0 0
1.8 0 0
1.84 0 0
1.88 0 0
1.92 0 0
1.96 0 0
2 0 0
2.04 0 0
2.08 0 0
2.12 0 0
2.16 0 0
2.2 0 0
2.24 0 0
2.28 0 0
2.32 0 0
2.36 0 0
2.4 0 0
2.44 0 0
2.48 0 0
2.52 0 0
2.56 0 0
2.6 0 0
2.64 0 0
2.68 0 0
2.72 0 0
2.76 0 0
2.8 0 0
2.84 0 0
2.88 0 0
2.92 0 0
2.96 0 0
3 0 0
3.04 0 0
3.08 0 0
3.12 0 0
3.16 0 0
3.2 0 0
3.24 0 0
3.28 0 0
3.32 0 0
3.36 0 0
3.4 0 0
3.44 0 0
3.48 0 0
3.52 0 0
3.56 0 0
3.6 0 0
3.64 0 0
3.68 0 0
3.72 0 0
3.76 0 0
3.8 0 0
3.84 0 0
3.88 0 0
3.92 0 0
3.96 0 0
4 0 0
4.04 0 0
4.08 0 0
4.12 0 0
4.16 0 0
4.2 0 0
4.24 0 0
4.28 0 0
4.32 0 0
4.36 0 0
4.4 0 0
4.44 0 0
4.48 0 0
4.52 0 0
4.56 0 0
4.6 0 0
4.64 0 0
4.68 0 0
4.72 0 0
4.76 0 0
4.8 0 0
4.84 0 0
4.88 0 0
4.92 0 0
4.96 0 0
5 0 0
5.04 0 0
5.08 0 0
5.12 0 0
5.16 0 0
5.2 0 0
5.24 0 0
5.28 0 0
5.32 0 0
5.36 0 0
5.4 0 0
5.44 0 0
5.48 0 0
5.52 0 0
5.56 0 0
5.6 0 0
5.64 0 0
5.68 0 0
5.72 0 0
5.76 0 0
5.8 0 0
5.84 0 0
5.88 0 0
5.92 0 0
5.96 0 0
6 0 0
6.04 0 0
6.08 0 0
6.12 0 0
6.16 0 0
6.2 0 0
6.24 0 0
6.28 0 0
6.32 0 0
6.36 0 0
6.4 0 0
6.44 0 0
6.48 0 0
6.52 0 0
6.56 0 0
6.6 0 0
6.64 0 0
6.68 0 0
6.72 0 0
6.76 0 0
6.8 0 0
6.84 0 0
6.88 0 0
6.92 0 0
6.96 0 0
7 0 0
7.04 0 0
7.08 0 0
7.12 0 0
7.16 0 0
7.2 0 0
7.24 0 0
7.28 0 0
7.32 0 0
7.36 0 0
7.4 0 0
7.44 0 0
7.48 0 0
7.52 0 0
7.56 0 0
7.6 0 0
7.64 0 0
7.68 0 0
7.72 0 0
7.76 0 0
7.8 0 0
7.84 0 0
7.88 0 0
7.92 0 0
7.96 0 0
8 0 0
8.04 0 0
8.08 0 0
8.12 0 0
8.16 0 0
8.2 0 0
8.24 0 0
8.28 0 0
8.32 0 0
8.36 0 0
8.4 0 0
8.44 0 0
8.48 0 0
8.52 0 0
8.56 0 0
8.6 0 0
8.64 0 0
8.68 0 0
8.72 0 0
8.76 0 0
8.8 0 0
8.84 0 0
8.88 0 0
8.92 0 0
8.96 0 0
9 0 0
9.04 0 0
9.08 0 0
9.12 0 0
9.16 0 0
9.2 0 0
9.24 0 0
9.28 0 0
9.32 0 0
9.36 0 0
9.4 0 0
9.44 0 0
9.48 0 0
9.52 0 0
9.56 0 0
9.6 0 0
9.64 0 0
9.68 0 0
9.72 0 0
9.76 0 0
9.8 0 0
9.84 0 0
9.88 0 0
9.92 0 0
9.96 0 0
10 0 0
10.04 0 0
10.08 0 0
10.12 0 0
10.16 0 0
10.2 0 0
10.24 0 0
10.28 0 0
10.32 0 0
10.36 0 0
10.4 0 0
10.44 0 0
10.48 0 0
10.52 0 0
10.56 0 0
10.6 0 0
10.64 0 0
10.68 0 0
10.72 0 0
10.76 0 0
10.8 0 0
10.84 0 0
10.88 0 0
10.92 0 0
10.96 0 0
11 0 0
11.04 0 0
11.08 0 0
11.12 0 0
11.16 0 0
11.2 0 0
11.24 0 0
11.28 0 0
11.32 0 0
11.36 0 0
11.4 0 0
11.44 0 0
11.48 0 0
11.52 0 0
11.56 0 0
11.6 0 0
11.64 0 0
11.68 0 0
11.72 0 0
11.76 0 0
11.8 0 0
11.84 0 0
11.88 0 0
11.92 0 0
11.96 0 0
12 0 0
12.04 0 0
12.08 0 0
12.12 0 0
12.16 0 0
12.2 0 0
12.24 0 0
12.28 0 0
12.32 0 0
12.36 0 0
12.4 0 0
12.44 0 0
12.48 0 0
12.52 0 0
12.56 0 0
12.6 0 0
12.64 0 0
12.68 0 0
12.72 0 0
12.76 0 0
12.8 0 0
12.84 0 0
12.88 0 0
12.92 0 0
12.96 0 0
13 0 0
13.04 0 0
13.08 0 0
13.12 0 0
13.16 0 0
13.2 0 0
13.24 0 0
13.28 0 0
13.32 0 0
13.36 0 0
13.4 0 0
13.44 0 0
13.48 0 0
13.52 0 0
13.56 0 0
13.6 0 0
13.64 0 0
13.68 0 0
13.72 0 0
13.76 0 0
13.8 0 0
13.84 0 0
13.88 0 0
13.92 0 0
13.96 0 0
14 0 0
14.04 0 0
14.08 0 0
14.12 0 0
14.16 0 0
14.2 0 0
14.24 0 0
14.28 0 0
14.32 0 0
14.36 0 0
14.4 0 0
14.44 0 0
14.48 0 0
14.52 0 0
14.56 0 0
14.6 0 0
14.64 0 0
14.68 0 0
14.72 0 0
14.76 0 0
14.8 0 0
14.84 0 0
14.88 0 0
14.92 0 0
14.96 0 0
15 0 0
15.04 0 0
15.08 0 0
15.12 0 0
15.16 0 0
15.2 0 0
15.24 0 0
15.28 0 0
15.32 0 0
15.36 0 0
15.4 0 0
15.44 0 0
15.48 0 0
15.52 0 0
15.56 0 0
15.6 0 0
15.64 0 0
15.68 0 0
15.72 0 0
15.76 0 0
15.8 0 0
15.84 0 0
15.88 0 0
15.92 0 0
15.96 0 0
16 0 0
16.04 0 0
16.08 0 0
16.12 0 0
16.16 0 0
16.2 0 0
16.24 0 0
16.28 0 0
16.32 0 0
16.36 0 0
16.4 0 0
16.44 0 0
16.48 0 0
16.52 0 0
16.56 0 0
16.6 0 0
16.64 0 0
16.68 0 0
16.72 0 0
16.76 0 0
16.8 0 0
16.84 0 0
16.88 0 0
16.92 0 0
16.96 0 0
17 0 0
17.04 0 0
17.08 0 0
17.12 0 0
17.16 0 0
17.2 0 0
17.24 0 0
17.28 0 0
17.32 0 0
17.36 0 0
17.4 0 0
17.44 0 0
17.48 0 0
17.52 0 0
17.56 0 0
17.6 0 0
17.64 0 0
17.68 0 0
17.72 0 0
17.76 0 0
17.8 0 0
17.84 0 0
17.88 0 0
17.92 0 0
17.96 0 0
18 0 0
18.04 0 0
18.08 0 0
18.12 0 0
18.16 0 0
18.2 0 0
18.24 0 0
18.28 0 0
18.32 0 0
18.36 0 0
18.4 0 0
18.44 0 0
18.48 0 0
18.52 0 0
18.56 0 0
18.6 0 0
18.64 0 0
18.68 0 0
18.72 0 0
18.76 0 0
18.8 0 0
18.84 0 0
18.88 0 0
18.92 0 0
18.96 0 0
19 0 0
19.04 0 0
19.08 0 0
19.12 0 0
19.16 0 0
19.2 0 0
19.24 0 0
19.28 0 0
19.32 0 0
19.36 0 0
19.4 0 0
19.44 0 0
19.48 0 0
19.52 0 0
19.56 0 0
19.6 0 0
19.64 0 0
19.68 0 0
19.72 0 0
19.76 0 0
19.8 0 0
19.84 0 0
19.88 0 0
19.92 0 0
19.96 0 0
20 0 0
20.04 0 0
20.08 0 0
20.12 0 0
20.16 0 0
20.2 0 0
20.24 0 0
20.28 0 0
20.32 0 0
20.36 0 0
20.4 0 0
20.44 0 0
20.48 0 0
20.52 0 0
20.56 0 0
20.6 0 0
20.64 0 0
20.68 0 0
20.72 0 0
20.76 0 0
20.8 0 0
20.84 0 0
20.88 0 0
20.92 0 0
20.96 0 0
21 0 0
21.04 0 0
21.08 0 0
21.12 0 0
21.16 0 0
21.2 0 0
21.24 0 0
21.28 0 0
21.32 0 0
21.36 0 0
21.4 0 0
21.44 0 0
21.48 0 0
21.52 0 0
21.56 0 0
21.6 0 0
21.64 0 0
21.68 0 0
21.72 0 0
21.76 0 0
21.8 0 0
21.84 0 0
21.88 0 0
21.92 0 0
21.96 0 0
22 0 0
22.04 0 0
22.08 0 0
22.12 0 0
22.16 0 0
22.2 0 0
22.24 0 0
22.28 0 0
22.32 0 0
22.36 0 0
22.4 0 0
22.44 0 0
22.48 0 0
22.52 0 0
22.56 0 0
22.6 0 0
22.64 0 0
22.68 0 0
22.72 0 0
22.76 0 0
22.8 0 0
22.84 0 0
22.88 0 0
22.92 0 0
22.96 0 0
23 0 0
23.04 0 0
23.08 0 0
23.12 0 0
23.16 0 0
23.2 0 0
23.24 0 0
23.28 0 0
23.32 0 0
23.36 0 0
23.4 0 0
23.44 0 0
23.48 0 0
23.52 0 0
23.56 0 0
23.6 0 0
23.64 0 0
23.68 0 0
23.72 0 0
23.76 0 0
23.8 0 0
23.84 0 0
23.88 0 0
23.92 0 0
23.96 0 0
24 0 0
24.04 0 0
24.08 0 0
24.12 0 0
24.16 0 0
24.2 0 0
24.24 0 0
24.28 0 0
24.32 0 0
24.36 0 0
24.4 0 0
24.44 0 0
24.48 0 0
24.52 0 0
24.56 0 0
24.6 0 0
24.64 0 0
24.68 0 0
24.72 0 0
24.76 0 0
24.8 0 0
24.84 0 0
24.88 0 0
24.92 0 0
24.96 0 0
25 0 0
25.04 0 0
25.08 0 0
25.12 0 0
25.16 0 0
25.2 0 0
25.24 0 0
25.28 0 0
25.32 0 0
25.36 0 0
25.4 0 0
25.44 0 0
25.48 0 0
25.52 0 0
25.56 0 0
25.6 0 0
25.64 0 0
25.68 0 0
25.72 0 0
25.76 0 0
25.8 0 0
25.84 0 0
25.88 0 0
25.92 0 0
25.96 0 0
26 0 0
26.04 0 0
26.08 0 0
26.12 0 0
26.16 0 0
26.2 0 0
26.24 0 0
26.28 0 0
26.32 0 0
26.36 0 0
26.4 0 0
26.44 0 0
26.48 0 0
26.52 0 0
26.56 0 0
26.6 0 0
26.64 0 0
26.68 0 0
26.72 0 0
26.76 0 0
26.8 0 0
26.84 0 0
26.88 0 0
26.92 0 0
26.96 0 0
27 0 0
27.04 0 0
27.08 0 0
27.12 0 0
27.16 0 0
27.2 0 0
27.24 0 0
27.28 0 0
27.32 0 0
27.36 0 0
27.4 0 0
27.44 0 0
27.48 0 0
27.52 0 0
27.56 0 0
27.6 0 0
27.64 0 0
27.68 0 0
27.72 0 0
27.76 0 0
27.8 0 0
27.84 0 0
27.88 0 0
27.92 0 0
27.96 0 0
28 0 0
28.04 0 0
28.08 0 0
28.12 0 0
28.16 0 0
28.2 0 0
28.24 0 0
28.28 0 0
28.32 0 0
28.36 0 0
28.4 0 0
28.44 0 0
28.48 0 0
28.52 0 0
28.56 0 0
28.6 0 0
28.64 0 0
28.68 0 0
28.72 0 0
28.76 0 0
28.8 0 0
28.84 0 0
28.88 0 0
28.92 0 0
28.96 0 0
29 0 0
29.04 0 0
29.08 0 0
29.12 0 0
29.16 0 0
29.2 0 0
29.24 0 0
29.28 0 0
29.32 0 0
29.36 0 0
29.4 0 0
29.44 0 0
29.48 0 0
29.52 0 0
29.56 0 0
29.6 0 0
29.64 0 0
29.68 0 0
29.72 0 0
29.76 0 0
29.8 0 0
29.84 0 0
29.88 0 0
29.92 0 0
29.96 0 0
30 0 0
30.04 0 0
30.08 0 0
30.12 0 0
30.16 0 0
30.2 0 0
30.24 0 0
30.28 0 0
30.32 0 0
30.36 0 0
30.4 0 0
30.44 0 0
30.48 0 0
30.52 0 0
30.56 0 0
30.6 0 0
30.64 0 0
30.68 0 0
30.72 0 0
30.76 0 0
30.8 0 0
30.84 0 0
30.88 0 0
30.92 0 0
30.96 0 0
31 0 0
31.04 0 0
31.08 0 0
31.12 0 0
31.16 0 0
31.2 0 0
31.24 0 0
31.28 0 0
31.32 0 0
31.36 0 0
31.4 0 0
31.44 0 0
31.48 0 0
31.52 0 0
31.56 0 0
31.6 0 0
31.64 0 0
31.68 0 0
31.72 0 0
31.76 0 0
31.8 0 0
31.84 0 0
31.88 0 0
31.92 0 0
31.96 0 0
0 0.005 0
0.04 0.005 0
0.08 0.005 0
0.12 0.005 0
0.16 0.005 0
0.2 0.005 0
0.24 0.005 0
0.28 0.005 0
0.32 0.005 0
0.36 0.005 0
0.4 0.005 0
0.44 0.005 0
0.48 0.005 0
0.52 0.005 0
0.56 0.005 0
0.6 0.005 0
0.64 0.005 0
0.68 0.005 0
0.72 0.005 0
0.76 0.005 0
0.8 0.005 0
0.84 0.005 0
0.88 0.005 0
0.92 0.005 0
0.96 0.005 0
1 0.005 0
1.04 0.005 0
1.08 0.005 0
1.12 0.005 0
1.16 0.005 0
1.2 0.005 0
1.24 0.005 0
1.28 0.005 0
1.32 0.005 0
1.36 0.005 0
1.4 0.005 0
1.44 0.005 0
1.48 0.005 0
1.52 0.005 0
1.56 0.005 0
1.6 0.005 0
1.64 0.005 0
1.68 0.005 0
1.72 0.005 0
1.76 0.005 0
1.8 0.005 0
1.84 0.005 0
1.88 0.005 0
1.92 0.005 0
1.96 0.005 0
2 0.005 0
2.04 0.005 0
2.08 0.005 0
2.12 0.005 0
2.16 0.005 0
2.2 0.005 0
2.24 0.005 0
2.28 0.005 0
2.32 0.005 0
2.36 0.005 0
2.4 0.005 0
2.44 0.005 0
2.48 0.005 0
2.52 0.005 0
2.56 0.005 0
2.6 0.005 0
2.64 0.005 0
2.68 0.005 0
2.72 0.005 0
2.76 0.005 0
2.8 0.005 0
2.84 0.005 0
2.88 0.005 0
2.92 0.005 0
2.96 0.005 0
3 0.005 0
3.04 0.005 0
3.08 0.005 0
3.12 0.005 0
3.16 0.005 0
3.2 0.005 0
3.24 0.005 0
3.28 0.005 0
3.32 0.005 0
3.36 0.005 0
3.4 0.005 0
3.44 0.005 0
3.48 0.005 0
3.52 0.005 0
3.56 0.005 0
3.6 0.005 0
3.64 0.005 0
3.68 0.005 0
3.72 0.005 0
3.76 0.005 0
3.8 0.005 0
3.84 0.005 0
3.88 0.005 0
3.92 0.005 0
3.96 0.005 0
4 0.005 0
4.04 0.005 0
4.08 0.005 0
4.12 0.005 0
4.16 0.005 0
4.2 0.005 0
4.24 0.005 0
4.28 0.005 0
4.32 0.005 0
4.36 0.005 0
4.4 0.005 0
4.44 0.005 0
4.48 0.005 0
4.52 0.005 0
4.56 0.005 0
4.6 0.005 0
4.64 0.005 0
4.68 0.005 0
4.72 0.005 0
4.76 0.005 0
4.8 0.005 0
4.84 0.005 0
4.88 0.005 0
4.92 0.005 0
4.96 0.005 0
5 0.005 0
5.04 0.005 0
5.08 0.005 0
5.12 0.005 0
5.16 0.005 0
5.2 0.005 0
5.24 0.005 0
5.28 0.005 0
5.32 0.005 0
5.36 0.005 0
5.4 0.005 0
5.44 0.005 0
5.48 0.005 0
5.52 0.005 0
5.56 0.005 0
5.6 0.005 0
5.64 0.005 0
5.68 0.005 0
5.72 0.005 0
5.76 0.005 0
5.8 0.005 0
5.84 0.005 0
5.88 0.005 0
5.92 0.005 0
5.96 0.005 0
6 0.005 0
6.04 0.005 0
6.08 0.005 0
6.12 0.005 0
6.16 0.005 0
6.2 0.005 0
6.24 0.005 0
6.28 0.005 0
6.32 0.005 0
6.36 0.005 0
6.4 0.005 0
6.44 0.005 0
6.48 0.005 0
6.52 0.005 0
6.56 0.005 0
6.6 0.005 0
6.64 0.005 0
6.68 0.005 0
6.72 0.005 0
6.76 0.005 0
6.8 0.005 0
6.84 0.005 0
6.88 0.005 0
6.92 0.005 0
6.96 0.005 0
7 0.005 0
7.04 0.005 0
7.08 0.005 0
7.12 0.005 0
7.16 0.005 0
7.2 0.005 0
7.24 0.005 0
7.28 0.005 0
7.32 0.005 0
7.36 0.005 0
7.4 0.005 0
[...]
POINT_DATA 160000

SCALARS u float 1
LOOKUP_TABLE default
-1
-0.483358
-0.183963
-0.108845
-0.0810331
-0.0668337
-0.0581182
-0.0521527
-0.0477775
-0.0444146
-0.0417413
-0.0395615
-0.0377483
-0.0362154
-0.0349016
-0.0337625
-0.0327649
-0.0318831
-0.0310975
-0.0303924
-0.0297555
-0.0291765
-0.0286473
-0.0281613
-0.0277127
-0.0272969
-0.0269101
-0.0265489
-0.0262105
-0.0258926
-0.0255931
-0.0253102
-0.0250423
-0.0247882
-0.0245467
-0.0243166
-0.0240972
-0.0238876
-0.0236871
-0.023495
-0.0233108
-0.0231339
-0.0229639
-0.0228003
-0.0226428
-0.0224909
-0.0223443
-0.0222029
-0.0220662
-0.021934
-0.0218061
-0.0216822
-0.0215622
-0.0214459
-0.0213331
-0.0212236
-0.0211172
-0.0210139
-0.0209135
-0.0208159
-0.0207209
-0.0206284
-0.0205383
-0.0204506
-0.0203651
-0.0202818
-0.0202005
-0.0201212
-0.0200438
-0.0199683
-0.0198945
-0.0198224
-0.019752
-0.0196831
-0.0196158
-0.0195499
-0.0194855
-0.0194224
-0.0193607
-0.0193002
-0.019241
-0.019183
-0.0191262
-0.0190705
-0.0190159
-0.0189624
-0.0189099
-0.0188584
-0.0188078
-0.0187583
-0.0187096
-0.0186618
-0.0186149
-0.0185688
-0.0185235
-0.0184791
-0.0184354
-0.0183924
-0.0183502
-0.0183087
-0.0182679
-0.0182278
-0.0181884
-0.0181496
-0.0181114
-0.0180738
-0.0180368
-0.0180004
-0.0179646
-0.0179294
-0.0178946
-0.0178605
-0.0178268
-0.0177936
-0.017761
-0.0177288
-0.0176971
-0.0176658
-0.017635
-0.0176047
-0.0175748
-0.0175453
-0.0175162
-0.0174875
-0.0174593
-0.0174314
-0.0174039
-0.0173768
-0.01735
-0.0173236
-0.0172976
-0.0172719
-0.0172466
-0.0172216
-0.0171969
-0.0171725
-0.0171485
-0.0171247
-0.0171013
-0.0170782
-0.0170553
-0.0170328
-0.0170105
-0.0169885
-0.0169668
-0.0169453
-0.0169241
-0.0169032
-0.0168825
-0.0168621
-0.016842
-0.016822
-0.0168023
-0.0167829
-0.0167636
-0.0167446
-0.0167259
-0.0167073
-0.016689
-0.0166708
-0.0166529
-0.0166352
-0.0166177
-0.0166004
-0.0165833
-0.0165664
-0.0165497
-0.0165331
-0.0165168
-0.0165006
-0.0164847
-0.0164689
-0.0164532
-0.0164378
-0.0164225
-0.0164074
-0.0163925
-0.0163777
-0.0163631
-0.0163486
-0.0163343
-0.0163201
-0.0163061
-0.0162923
-0.0162786
-0.0162651
-0.0162517
-0.0162384
-0.0162253
-0.0162123
-0.0161995
-0.0161868
-0.0161742
-0.0161618
-0.0161494
-0.0161373
-0.0161252
-0.0161133
-0.0161015
-0.0160898
-0.0160783
-0.0160668
-0.0160555
-0.0160443
-0.0160332
-0.0160223
-0.0160114
-0.0160007
-0.01599
-0.0159795
-0.0159691
-0.0159588
-0.0159486
-0.0159385
-0.0159285
-0.0159186
-0.0159088
-0.0158991
-0.0158895
-0.01588
-0.0158706
-0.0158613
-0.015852
-0.0158429
-0.0158339
-0.0158249
-0.0158161
-0.0158073
-0.0157986
-0.01579
-0.0157815
-0.0157731
-0.0157648
-0.0157565
-0.0157484
-0.0157403
-0.0157323
-0.0157243
-0.0157165
-0.0157087
-0.015701
-0.0156934
-0.0156858
-0.0156783
-0.0156709
-0.0156636
-0.0156564
-0.0156492
-0.0156421
-0.015635
-0.015628
-0.0156211
-0.0156143
-0.0156075
-0.0156008
-0.0155942
-0.0155876
-0.0155811
-0.0155746
-0.0155682
-0.0155619
-0.0155556
-0.0155494
-0.0155433
-0.0155372
-0.0155312
-0.0155252
-0.0155193
-0.0155134
-0.0155076
-0.0155019
-0.0154962
-0.0154906
-0.015485
-0.0154795
-0.015474
-0.0154686
-0.0154632
-0.0154579
-0.0154526
-0.0154474
-0.0154422
-0.0154371
-0.0154321
-0.015427
-0.0154221
-0.0154171
-0.0154123
-0.0154074
-0.0154026
-0.0153979
-0.0153932
-0.0153886
-0.0153839
-0.0153794
-0.0153749
-0.0153704
-0.0153659
-0.0153615
-0.0153572
-0.0153529
-0.0153486
-0.0153444
-0.0153402
-0.015336
-0.0153319
-0.0153278
-0.0153238
-0.0153198
-0.0153158
-0.0153119
-0.015308
-0.0153042
-0.0153004
-0.0152966
-0.0152928
-0.0152891
-0.0152854
-0.0152818
-0.0152782
-0.0152746
-0.0152711
-0.0152676
-0.0152641
-0.0152606
-0.0152572
-0.0152538
-0.0152505
-0.0152472
-0.0152439
-0.0152406
-0.0152374
-0.0152342
-0.015231
-0.0152279
-0.0152248
-0.0152217
-0.0152186
-0.0152156
-0.0152126
-0.0152096
-0.0152067
-0.0152037
-0.0152008
-0.015198
-0.0151951
-0.0151923
-0.0151895
-0.0151868
-0.015184
-0.0151813
-0.0151786
-0.0151759
-0.0151733
-0.0151707
-0.0151681
-0.0151655
-0.0151629
-0.0151604
-0.0151579
-0.0151554
-0.015153
-0.0151505
-0.0151481
-0.0151457
-0.0151433
-0.015141
-0.0151386
-0.0151363
-0.015134
-0.0151317
-0.0151295
-0.0151273
-0.015125
-0.0151228
-0.0151207
-0.0151185
-0.0151164
-0.0151143
-0.0151122
-0.0151101
-0.015108
-0.015106
-0.0151039
-0.0151019
-0.0150999
-0.0150979
-0.015096
-0.015094
-0.0150921
-0.0150902
-0.0150883
-0.0150864
-0.0150845
-0.0150827
-0.0150809
-0.015079
-0.0150772
-0.0150755
-0.0150737
-0.0150719
-0.0150702
-0.0150685
-0.0150667
-0.015065
-0.0150634
-0.0150617
-0.01506
-0.0150584
-0.0150568
-0.0150551
-0.0150535
-0.0150519
-0.0150504
-0.0150488
-0.0150472
-0.0150457
-0.0150442
-0.0150427
-0.0150412
-0.0150397
-0.0150382
-0.0150367
-0.0150353
-0.0150338
-0.0150324
-0.015031
-0.0150296
-0.0150282
-0.0150268
-0.0150254
-0.015024
-0.0150227
-0.0150213
-0.01502
-0.0150187
-0.0150174
-0.0150161
-0.0150148
-0.0150135
-0.0150122
-0.015011
-0.0150097
-0.0150085
-0.0150072
-0.015006
-0.0150048
-0.0150036
-0.0150024
-0.0150012
-0.015
-0.0149989
-0.0149977
-0.0149966
-0.0149954
-0.0149943
-0.0149932
-0.0149921
-0.0149909
-0.0149899
-0.0149888
-0.0149877
-0.0149866
-0.0149856
-0.0149845
-0.0149835
-0.0149824
-0.0149814
-0.0149804
-0.0149794
-0.0149784
-0.0149774
-0.0149764
-0.0149754
-0.0149744
-0.0149735
-0.0149725
-0.0149715
-0.0149706
-0.0149697
-0.0149688
-0.0149678
-0.0149669
-0.014966
-0.0149651
-0.0149642
-0.0149634
-0.0149625
-0.0149616
-0.0149608
-0.0149599
-0.0149591
-0.0149583
-0.0149574
-0.0149566
-0.0149558
-0.014955
-0.0149542
-0.0149534
-0.0149526
-0.0149519
-0.0149511
-0.0149503
-0.0149496
-0.0149488
-0.0149481
-0.0149474
-0.0149467
-0.0149459
-0.0149452
-0.0149445
-0.0149438
-0.0149431
-0.0149425
-0.0149418
-0.0149411
-0.0149405
-0.0149398
-0.0149392
-0.0149385
-0.0149379
-0.0149372
-0.0149366
-0.014936
-0.0149354
-0.0149348
-0.0149342
-0.0149336
-0.014933
-0.0149324
-0.0149319
-0.0149313
-0.0149307
-0.0149302
-0.0149296
-0.0149291
-0.0149285
-0.014928
-0.0149275
-0.014927
-0.0149264
-0.0149259
-0.0149254
-0.0149249
-0.0149244
-0.0149239
-0.0149234
-0.014923
-0.0149225
-0.014922
-0.0149215
-0.0149211
-0.0149206
-0.0149202
-0.0149197
-0.0149193
-0.0149188
-0.0149184
-0.0149179
-0.0149175
-0.0149171
-0.0149167
-0.0149162
-0.0149158
-0.0149154
-0.014915
-0.0149146
-0.0149142
-0.0149138
-0.0149134
-0.014913
-0.0149126
-0.0149122
-0.0149119
-0.0149115
-0.0149111
-0.0149107
-0.0149103
-0.01491
-0.0149096
-0.0149092
-0.0149089
-0.0149085
-0.0149081
-0.0149078
-0.0149074
-0.0149071
-0.0149067
-0.0149064
-0.014906
-0.0149057
-0.0149053
-0.014905
-0.0149047
-0.0149043
-0.014904
-0.0149036
-0.0149033
-0.014903
-0.0149026
-0.0149023
-0.014902
-0.0149016
-0.0149013
-0.014901
-0.0149007
-0.0149003
-0.0149
-0.0148997
-0.0148994
-0.014899
-0.0148987
-0.0148984
-0.0148981
-0.0148978
-0.0148974
-0.0148971
-0.0148968
-0.0148965
-0.0148962
-0.0148958
-0.0148955
-0.0148952
-0.0148949
-0.0148946
-0.0148943
-0.014894
-0.0148936
-0.0148933
-0.014893
-0.0148927
-0.0148924
-0.0148921
-0.0148918
-0.0148914
-0.0148911
-0.0148908
-0.0148905
-0.0148902
-0.0148899
-0.0148896
-0.0148893
-0.014889
-0.0148886
-0.0148883
-0.014888
-0.0148877
-0.0148874
-0.0148871
-0.0148868
-0.0148865
-0.0148862
-0.0148859
-0.0148855
-0.0148852
-0.0148849
-0.0148846
-0.0148843
-0.014884
-0.0148837
-0.0148834
-0.0148831
-0.0148828
-0.0148824
-0.0148821
-0.0148818
-0.0148815
-0.0148812
-0.0148809
-0.0148806
-0.0148803
-0.01488
-0.0148797
-0.0148793
-0.014879
-0.0148787
-0.0148784
-0.0148781
-0.0148778
-0.0148775
-0.0148772
-0.0148769
-0.0148766
-0.0148763
-0.0148759
-0.0148756
-0.0148753
-0.014875
-0.0148747
-0.0148744
-0.0148741
-0.0148738
-0.0148735
-0.0148732
-0.0148728
-0.0148725
-0.0148722
-0.0148719
-0.0148716
-0.0148713
-0.014871
-0.0148707
-0.0148704
-0.0148701
-0.0148697
-0.0148694
-0.0148691
-0.0148688
-0.0148685
-0.0148682
-0.0148679
-0.0148676
-0.0148673
-0.014867
-0.0148666
-0.0148663
-0.014866
-0.0148657
-0.0148654
-0.0148651
-0.0148648
-0.0148645
-0.0148642
-0.0148639
-0.0148636
-0.0148632
-0.0148629
-0.0148626
-0.0148623
-0.014862
-0.0148617
-0.0148614
-0.0148611
-0.0148608
-0.0148605
-0.0148601
-0.0148598
-0.0148595
-0.0148592
-0.0148589
-0.0148586
-0.0148583
-0.014858
-0.0148577
-0.0148574
-0.014857
-0.0148567
-0.0148564
-0.0148561
-0.0148558
-0.0148555
-0.0148552
-0.0148549
-0.0148546
-0.0148543
-0.014854
-0.0148536
-0.0148533
-0.014853
-0.0148527
-0.0148524
-0.0148521
-0.0148518
-0.0148515
-0.0148512
-0.0148509
-0.0148505
-0.0148502
-0.0148499
-0.0148496
-0.0148493
-0.014849
-0.0148487
-0.0148484
-0.0148481
-0.0148477
-0.0148474
-0.0148471
-0.0148468
-0.0148465
-0.0148462
-0.0148458
-0.0148455
-0.0148452
-0.0148449
-0.0148445
-0.0148442
-0.0148438
-0.0148434
-0.014843
-0.0148426
-0.0148422
-0.0148417
-0.0148411
-0.0148405
-0.0148398
-0.0148388
-0.0148384
-0.0148384
-0.0148384
1
0.483358
0.183963
0.108845
0.0810331
0.0668337
0.0581182
0.0521527
0.0477775
0.0444146
0.0417413
0.0395615
0.0377483
0.0362154
0.0349016
0.0337625
0.0327649
0.0318831
0.0310975
0.0303924
0.0297555
0.0291765
0.0286473
0.0281613
0.0277127
0.0272969
0.0269101
0.0265489
0.0262105
0.0258926
0.0255931
0.0253102
0.0250423
0.0247882
0.0245467
0.0243166
0.0240972
0.0238876
0.0236871
0.023495
0.0233108
0.0231339
0.0229639
0.0228003
0.0226428
0.0224909
0.0223443
0.0222029
0.0220662
0.021934
0.0218061
0.0216822
0.0215622
0.0214459
0.0213331
0.0212236
0.0211172
0.0210139
0.0209135
0.0208159
0.0207209
0.0206284
0.0205383
0.0204506
0.0203651
0.0202818
0.0202005
0.0201212
0.0200438
0.0199683
0.0198945
0.0198224
0.019752
0.0196831
0.0196158
0.0195499
0.0194855
0.0194224
0.0193607
0.0193002
0.019241
0.019183
0.0191262
0.0190705
0.0190159
0.0189624
0.0189099
0.0188584
0.0188078
0.0187583
0.0187096
0.0186618
0.0186149
0.0185688
0.0185235
0.0184791
0.0184354
0.0183924
0.0183502
0.0183087
0.0182679
0.0182278
0.0181884
0.0181496
0.0181114
0.0180738
0.0180368
0.0180004
0.0179646
0.0179294
0.0178946
0.0178605
0.0178268
0.0177936
0.017761
0.0177288
0.0176971
0.0176658
0.017635
0.0176047
0.0175748
0.0175453
0.0175162
0.0174875
0.0174593
0.0174314
0.0174039
0.0173768
0.01735
0.0173236
0.0172976
0.0172719
0.0172466
0.0172216
0.0171969
0.0171725
0.0171485
0.0171247
0.0171013
0.0170782
0.0170553
0.0170328
0.0170105
0.0169885
0.0169668
0.0169453
0.0169241
0.0169032
0.0168825
0.0168621
0.016842
0.016822
0.0168023
0.0167829
0.0167636
0.0167446
0.0167259
0.0167073
0.016689
0.0166708
0.0166529
0.0166352
0.0166177
0.0166004
0.0165833
0.0165664
0.0165497
0.0165331
0.0165168
0.0165006
0.0164847
0.0164689
0.0164532
0.0164378
0.0164225
0.0164074
0.0163925
0.0163777
0.0163631
0.0163486
0.0163343
0.0163201
0.0163061
0.0162923
0.0162786
0.0162651
0.0162517
0.0162384
0.0162253
0.0162123
0.0161995
0.0161868
0.0161742
0.0161618
0.0161494
0.0161373
0.0161252
0.0161133
0.0161015
0.0160898
0.0160783
0.0160668
0.0160555
0.0160443
0.0160332
0.0160223
0.0160114
0.0160007
0.01599
0.0159795
0.0159691
0.0159588
0.0159486
0.0159385
0.0159285
0.0159186
0.0159088
0.0158991
0.0158895
0.01588
0.0158706
0.0158613
0.015852
0.0158429
0.0158339
0.0158249
0.0158161
0.0158073
0.0157986
0.01579
0.0157815
0.0157731
0.0157648
0.0157565
0.0157484
0.0157403
0.0157323
0.0157243
0.0157165
0.0157087
0.015701
0.0156934
0.0156858
0.0156783
0.0156709
0.0156636
0.0156564
0.0156492
0.0156421
0.015635
0.015628
0.0156211
0.0156143
0.0156075
0.0156008
0.0155942
0.0155876
0.0155811
0.0155746
0.0155682
0.0155619
0.0155556
0.0155494
0.0155433
0.0155372
0.0155312
0.0155252
0.0155193
0.0155134
0.0155076
0.0155019
0.0154962
0.0154906
0.015485
0.0154795
0.015474
0.0154686
0.0154632
0.0154579
0.0154526
0.0154474
0.0154422
0.0154371
0.0154321
0.015427
0.0154221
0.0154171
0.0154123
0.0154074
0.0154026
0.0153979
0.0153932
0.0153886
0.0153839
0.0153794
0.0153749
0.0153704
0.0153659
0.0153615
0.0153572
0.0153529
0.0153486
0.0153444
0.0153402
0.015336
0.0153319
0.0153278
0.0153238
0.0153198
0.0153158
0.0153119
0.015308
0.0153042
0.0153004
0.0152966
0.0152928
0.0152891
0.0152854
0.0152818
0.0152782
0.0152746
0.0152711
0.0152676
0.0152641
0.0152606
0.0152572
0.0152538
0.0152505
0.0152472
0.0152439
0.0152406
0.0152374
0.0152342
0.015231
0.0152279
0.0152248
0.0152217
0.0152186
0.0152156
0.0152126
0.0152096
0.0152067
0.0152037
0.0152008
0.015198
0.0151951
0.0151923
0.0151895
0.0151868
0.015184
0.0151813
0.0151786
0.0151759
0.0151733
0.0151707
0.0151681
0.0151655
0.0151629
0.0151604
0.0151579
0.0151554
0.015153
0.0151505
0.0151481
0.0151457
0.0151433
0.015141
0.0151386
0.0151363
0.015134
0.0151317
0.0151295
0.0151273
0.015125
0.0151228
0.0151207
0.0151185
0.0151164
0.0151143
0.0151122
0.0151101
0.015108
0.015106
0.0151039
0.0151019
0.0150999
0.0150979
0.015096
0.015094
0.0150921
0.0150902
0.0150883
0.0150864
0.0150845
0.0150827
0.0150809
0.015079
0.0150772
0.0150755
0.0150737
0.0150719
0.0150702
0.0150685
0.0150667
0.015065
0.0150634
0.0150617
0.01506
0.0150584
0.0150568
0.0150551
0.0150535
0.0150519
0.0150504
0.0150488
0.0150472
0.0150457
0.0150442
0.0150427
0.0150412
0.0150397
0.0150382
0.0150367
0.0150353
0.0150338
0.0150324
0.015031
0.0150296
0.0150282
0.0150268
0.0150254
0.015024
0.0150227
0.0150213
0.01502
0.0150187
0.0150174
0.0150161
0.0150148
0.0150135
0.0150122
0.015011
0.0150097
0.0150085
0.0150072
0.015006
0.0150048
0.0150036
0.0150024
0.0150012
0.015
0.0149989
0.0149977
0.0149966
0.0149954
0.0149943
0.0149932
0.0149921
0.0149909
0.0149899
0.0149888
0.0149877
0.0149866
0.0149856
0.0149845
0.0149835
0.0149824
0.0149814
0.0149804
0.0149794
0.0149784
0.0149774
0.0149764
0.0149754
0.0149744
0.0149735
0.0149725
0.0149715
0.0149706
0.0149697
0.0149688
0.0149678
0.0149669
0.014966
0.0149651
0.0149642
0.0149634
0.0149625
0.0149616
0.0149608
0.0149599
0.0149591
0.0149583
0.0149574
0.0149566
0.0149558
0.014955
0.0149542
0.0149534
0.0149526
0.0149519
0.0149511
0.0149503
0.0149496
0.0149488
0.0149481
0.0149474
0.0149467
0.0149459
0.0149452
0.0149445
0.0149438
0.0149431
0.0149425
0.0149418
0.0149411
0.0149405
0.0149398
0.0149392
0.0149385
0.0149379
0.0149372
0.0149366
0.014936
0.0149354
0.0149348
0.0149342
0.0149336
0.014933
0.0149324
0.0149319
0.0149313
0.0149307
0.0149302
0.0149296
0.0149291
0.0149285
0.014928
0.0149275
0.014927
0.0149264
0.0149259
0.0149254
0.0149249
0.0149244
0.0149239
0.0149234
0.014923
0.0149225
0.014922
0.0149215
0.0149211
0.0149206
0.0149202
0.0149197
0.0149193
0.0149188
0.0149184
0.0149179
0.0149175
0.0149171
0.0149167
0.0149162
0.0149158
0.0149154
0.014915
0.0149146
0.0149142
0.0149138
0.0149134
0.014913
0.0149126
0.0149122
0.0149119
0.0149115
0.0149111
0.0149107
0.0149103
0.01491
0.0149096
0.0149092
0.0149089
0.0149085
0.0149081
0.0149078
0.0149074
0.0149071
0.0149067
0.0149064
0.014906
0.0149057
0.0149053
0.014905
0.0149047
0.0149043
0.014904
0.0149036
0.0149033
0.014903
0.0149026
0.0149023
0.014902
0.0149016
0.0149013
0.014901
0.0149007
0.0149003
0.0149
0.0148997
0.0148994
0.014899
0.0148987
0.0148984
0.0148981
0.0148978
0.0148974
0.0148971
0.0148968
0.0148965
0.0148962
0.0148958
0.0148955
0.0148952
0.0148949
0.0148946
0.0148943
0.014894
0.0148936
0.0148933
0.014893
0.0148927
0.0148924
0.0148921
0.0148918
0.0148914
0.0148911
0.0148908
0.0148905
0.0148902
0.0148899
0.0148896
0.0148893
0.014889
0.0148886
0.0148883
0.014888
0.0148877
0.0148874
0.0148871
0.0148868
0.0148865
0.0148862
0.0148859
0.0148855
0.0148852
0.0148849
0.0148846
0.0148843
0.014884
0.0148837
0.0148834
0.0148831
0.0148828
0.0148824
0.0148821
0.0148818
0.0148815
0.0148812
0.0148809
0.0148806
0.0148803
0.01488
0.0148797
0.0148793
0.014879
0.0148787
0.0148784
0.0148781
0.0148778
0.0148775
0.0148772
0.0148769
0.0148766
0.0148763
0.0148759
0.0148756
0.0148753
0.014875
0.0148747
0.0148744
0.0148741
0.0148738
0.0148735
0.0148732
0.0148728
0.0148725
0.0148722
0.0148719
0.0148716
0.0148713
0.014871
0.0148707
0.0148704
0.0148701
0.0148697
0.0148694
0.0148691
0.0148688
0.0148685
0.0148682
0.0148679
0.0148676
0.0148673
0.014867
0.0148666
0.0148663
0.014866
0.0148657
0.0148654
0.0148651
0.0148648
0.0148645
0.0148642
0.0148639
0.0148636
0.0148632
0.0148629
0.0148626
0.0148623
0.014862
0.0148617
0.0148614
0.0148611
0.0148608
0.0148605
0.0148601
0.0148598
0.0148595
0.0148592
0.0148589
0.0148586
0.0148583
0.014858
0.0148577
0.0148574
0.014857
0.0148567
0.0148564
0.0148561
0.0148558
0.0148555
0.0148552
0.0148549
0.0148546
0.0148543
0.014854
0.0148536
0.0148533
0.014853
0.0148527
0.0148524
0.0148521
0.0148518
0.0148515
0.0148512
0.0148509
0.0148505
0.0148502
0.0148499
0.0148496
0.0148493
0.014849
0.0148487
0.0148484
0.0148481
0.0148477
0.0148474
0.0148471
0.0148468
0.0148465
0.0148462
0.0148458
0.0148455
0.0148452
0.0148449
0.0148445
0.0148442
0.0148438
0.0148434
0.014843
0.0148426
0.0148422
0.0148417
0.0148411
0.0148405
0.0148398
0.0148388
0.0148384
0.0148384
0.0148384
1
0.969192
0.495617
0.314223
0.237897
0.197396
0.172133
0.154696
0.141842
0.131928
0.124028
0.117574
0.112197
0.107646
0.103742
0.100355
0.0973868
0.0947625
0.0924237
0.0903243
0.0884276
0.0867037
0.0851283
0.0836814
0.0823463
0.0811092
0.0799585
0.0788844
0.0778784
0.0769335
0.0760434
0.075203
0.0744075
0.0736531
0.0729361
0.0722535
0.0716025
0.0709808
0.0703862
0.0698167
0.0692705
0.0687462
0.0682424
0.0677576
0.0672908
0.0668409
0.0664068
0.0659878
0.065583
0.0651916
0.0648129
0.0644462
0.064091
0.0637467
0.0634127
0.0630887
0.062774
0.0624683
0.0621711
0.0618822
0.0616011
0.0613275
0.0610611
0.0608017
0.0605488
0.0603023
0.0600619
0.0598273
0.0595985
0.059375
0.0591568
0.0589436
0.0587353
0.0585316
0.0583325
0.0581378
0.0579473
0.0577608
0.0575783
0.0573996
0.0572246
0.0570531
0.0568852
0.0567205
0.0565591
0.0564009
0.0562457
0.0560935
0.0559441
0.0557975
0.0556537
0.0555125
0.0553738
0.0552376
0.0551038
0.0549724
0.0548433
0.0547164
0.0545917
0.0544691
0.0543486
0.05423
0.0541134
0.0539988
0.0538859
0.0537749
0.0536657
0.0535582
0.0534524
0.0533482
0.0532456
0.0531446
0.0530452
0.0529472
0.0528507
0.0527556
0.052662
0.0525697
0.0524787
0.0523891
0.0523007
0.0522136
0.0521278
0.0520431
0.0519596
0.0518773
0.0517961
0.051716
0.051637
0.0515591
0.0514822
0.0514064
0.0513315
0.0512577
0.0511848
0.0511129
0.0510418
0.0509718
0.0509026
0.0508343
0.0507668
0.0507002
0.0506345
0.0505696
0.0505054
0.0504421
0.0503796
0.0503178
0.0502568
0.0501965
0.0501369
0.0500781
0.05002
0.0499625
0.0499058
0.0498497
0.0497943
0.0497395
0.0496854
0.0496319
0.049579
0.0495267
0.0494751
0.049424
0.0493735
0.0493236
0.0492743
0.0492255
0.0491772
0.0491296
0.0490824
0.0490358
0.0489897
0.0489441
0.048899
0.0488544
0.0488103
0.0487667
0.0487235
0.0486809
0.0486387
0.0485969
0.0485556
0.0485148
0.0484744
0.0484344
0.0483948
0.0483557
0.048317
0.0482787
0.0482409
0.0482034
0.0481663
0.0481296
0.0480933
0.0480574
0.0480218
0.0479866
0.0479518
0.0479174
0.0478833
0.0478496
0.0478162
0.0477832
0.0477505
0.0477181
0.0476861
0.0476544
0.047623
0.047592
0.0475613
0.0475308
0.0475007
0.0474709
0.0474415
0.0474123
0.0473834
0.0473548
0.0473264
0.0472984
0.0472707
0.0472432
0.047216
0.0471891
0.0471625
0.0471361
0.04711
0.0470841
0.0470585
0.0470332
0.0470081
0.0469833
0.0469587
0.0469343
0.0469102
0.0468864
0.0468627
0.0468393
0.0468162
0.0467932
0.0467705
0.0467481
0.0467258
0.0467038
0.0466819
0.0466603
0.0466389
0.0466177
0.0465967
0.046576
0.0465554
0.046535
0.0465148
0.0464949
0.0464751
0.0464555
0.0464361
0.0464169
0.0463979
0.046379
0.0463604
0.0463419
0.0463236
0.0463055
0.0462875
0.0462697
0.0462521
0.0462347
0.0462174
0.0462004
0.0461834
0.0461666
0.04615
0.0461336
0.0461173
0.0461012
0.0460852
0.0460693
0.0460537
0.0460381
0.0460228
0.0460075
0.0459924
0.0459775
0.0459627
0.045948
0.0459335
0.0459191
0.0459049
0.0458908
0.0458768
0.0458629
0.0458492
0.0458356
0.0458222
0.0458088
0.0457956
0.0457826
0.0457696
0.0457568
0.045744
0.0457314
0.045719
0.0457066
0.0456944
0.0456822
0.0456702
0.0456583
0.0456465
0.0456348
0.0456233
0.0456118
0.0456004
0.0455892
0.045578
0.045567
0.045556
0.0455452
0.0455344
0.0455238
0.0455132
0.0455028
0.0454924
0.0454822
0.045472
0.045462
0.045452
0.0454421
0.0454323
0.0454226
0.045413
0.0454035
0.045394
0.0453847
0.0453754
0.0453662
0.0453571
0.0453481
0.0453392
0.0453303
0.0453215