# vtk DataFile Version 2.0
FlowField
ASCII
DATASET STRUCTURED_GRID
DIMENSIONS 800 1 200
POINTS 160000 float
0 0 0
0.04 0 0
0.08 0 0
0.12 0 0
0.16 0 0
0.2 0 0
0.24 0 0
0.28 0 0
0.32 0 0
0.36 0 0
0.4 0 0
0.44 0 0
0.48 0 0
0.52 0 0
0.56 0 0
0.6 0 0
0.64 0 0
0.68 0 0
0.72 0 0
0.76 0 0
0.8 0 0
0.84 0 0
0.88 0 0
0.92 0 0
0.96 0 0
1 0 0
1.04 0 0
1.08 0 0
1.12 0 0
1.16 0 0
1.2 0 0
1.24 0 0
1.28 0 0
1.32 0 0
1.36 0 0
1.4 0 0
1.44 0 0
1.48 0 0
1.52 0 0
1.56 0 0
1.6 0 0
1.64 0 0
1.68 0 0
1.72 0 0
1.76 0 0
1.8 0 0
1.84 0 0
1.88 0 0
1.92 0 0
1.96 0 0
2 0 0
2.04 0 0
2.08 0 0
2.12 0 0
2.16 0 0
2.2 0 0
2.24 0 0
2.28 0 0
2.32 0 0
2.36 0 0
2.4 0 0
2.44 0 0
2.48 0 0
2.52 0 0
2.56 0 0
2.6 0 0
2.64 0 0
2.68 0 0
2.72 0 0
2.76 0 0
2.8 0 0
2.84 0 0
2.88 0 0
2.92 0 0
2.96 0 0
3 0 0
3.04 0 0
3.08 0 0
3.12 0 0
3.16 0 0
3.2 0 0
3.24 0 0
3.28 0 0
3.32 0 0
3.36 0 0
3.4 0 0
3.44 0 0
3.48 0 0
3.52 0 0
3.56 0 0
3.6 0 0
3.64 0 0
3.68 0 0
3.72 0 0
3.76 0 0
3.8 0 0
3.84 0 0
3.88 0 0
3.92 0 0
3.96 0 0
4 0 0
4.04 0 0
4.08 0 0
4.12 0 0
4.16 0 0
4.2 0 0
4.24 0 0
4.28 0 0
4.32 0 0
4.36 0 0
4.4 0 0
4.44 0 0
4.48 0 0
4.52 0 0
4.56 0 0
4.6 0 0
4.64 0 0
4.68 0 0
4.72 0 0
4.76 0 0
4.8 0 0
4.84 0 0
4.88 0 0
4.92 0 0
4.96 0 0
5 0 0
5.04 0 0
5.08 0 0
5.12 0 0
5.16 0 0
5.2 0 0
5.24 0 0
5.28 0 0
5.32 0 0
5.36 0 0
5.4 0 0
5.44 0 0
5.48 0 0
5.52 0 0
5.56 0 0
5.6 0 0
5.64 0 0
5.68 0 0
5.72 0 0
5.76 0 0
5.8 0 0
5.84 0 0
5.88 0 0
5.92 0 0
5.96 0 0
6 0 0
6.04 0 0
6.08 0 0
6.12 0 0
6.16 0 0
6.2 0 0
6.24 0 0
6.28 0 0
6.32 0 0
6.36 0 0
6.4 0 0
6.44 0 0
6.48 0 0
6.52 0 0
6.56 0 0
6.6 0 0
6.64 0 0
6.68 0 0
6.72 0 0
6.76 0 0
6.8 0 0
6.84 0 0
6.88 0 0
6.92 0 0
6.96 0 0
7 0 0
7.04 0 0
7.08 0 0
7.12 0 0
7.16 0 0
7.2 0 0
7.24 0 0
7.28 0 0
7.32 0 0
7.36 0 0
7.4 0 0
7.44 0 0
7.48 0 0
7.52 0 0
7.56 0 0
7.6 0 0
7.64 0 0
7.68 0 0
7.72 0 0
7.76 0 0
7.8 0 0
7.84 0 0
7.88 0 0
7.92 0 0
7.96 0 0
8 0 0
8.04 0 0
8.08 0 0
8.12 0 0
8.16 0 0
8.2 0 0
8.24 0 0
8.28 0 0
8.32 0 0
8.36 0 0
8.4 0 0
8.44 0 0
8.48 0 0
8.52 0 0
8.56 0 0
8.6 0 0
8.64 0 0
8.68 0 0
8.72 0 0
8.76 0 0
8.8 0 0
8.84 0 0
8.88 0 0
8.92 0 0
8.96 0 0
9 0 0
9.04 0 0
9.08 0 0
9.12 0 0
9.16 0 0
9.2 0 0
9.24 0 0
9.28 0 0
9.32 0 0
9.36 0 0
9.4 0 0
9.44 0 0
9.48 0 0
9.52 0 0
9.56 0 0
9.6 0 0
9.64 0 0
9.68 0 0
9.72 0 0
9.76 0 0
9.8 0 0
9.84 0 0
9.88 0 0
9.92 0 0
9.96 0 0
10 0 0
10.04 0 0
10.08 0 0
10.12 0 0
10.16 0 0
10.2 0 0
10.24 0 0
10.28 0 0
10.32 0 0
10.36 0 0
10.4 0 0
10.44 0 0
10.48 0 0
10.52 0 0
10.56 0 0
10.6 0 0
10.64 0 0
10.68 0 0
10.72 0 0
10.76 0 0
10.8 0 0
10.84 0 0
10.88 0 0
10.92 0 0
10.96 0 0
11 0 0
11.04 0 0
11.08 0 0
11.12 0 0
11.16 0 0
11.2 0 0
11.24 0 0
11.28 0 0
11.32 0 0
11.36 0 0
11.4 0 0
11.44 0 0
11.48 0 0
11.52 0 0
11.56 0 0
11.6 0 0
11.64 0 0
11.68 0 0
11.72 0 0
11.76 0 0
11.8 0 0
11.84 0 0
11.88 0 0
11.92 0 0
11.96 0 0
12 0 0
12.04 0 0
12.08 0 0
12.12 0 0
12.16 0 0
12.2 0 0
12.24 0 0
12.28 0 0
12.32 0 0
12.36 0 0
12.4 0 0
12.44 0 0
12.48 0 0
12.52 0 0
12.56 0 0
12.6 0 0
12.64 0 0
12.68 0 0
12.72 0 0
12.76 0 0
12.8 0 0
12.84 0 0
12.88 0 0
12.92 0 0
12.96 0 0
13 0 0
13.04 0 0
13.08 0 0
13.12 0 0
13.16 0 0
13.2 0 0
13.24 0 0
13.28 0 0
13.32 0 0
13.36 0 0
13.4 0 0
13.44 0 0
13.48 0 0
13.52 0 0
13.56 0 0
13.6 0 0
13.64 0 0
13.68 0 0
13.72 0 0
13.76 0 0
13.8 0 0
13.84 0 0
13.88 0 0
13.92 0 0
13.96 0 0
14 0 0
14.04 0 0
14.08 0 0
14.12 0 0
14.16 0 0
14.2 0 0
14.24 0 0
14.28 0 0
14.32 0 0
14.36 0 0
14.4 0 0
14.44 0 0
14.48 0 0
14.52 0 0
14.56 0 0
14.6 0 0
14.64 0 0
14.68 0 0
14.72 0 0
14.76 0 0
14.8 0 0
14.84 0 0
14.88 0 0
14.92 0 0
14.96 0 0
15 0 0
15.04 0 0
15.08 0 0
15.12 0 0
15.16 0 0
15.2 0 0
15.24 0 0
15.28 0 0
15.32 0 0
15.36 0 0
15.4 0 0
15.44 0 0
15.48 0 0
15.52 0 0
15.56 0 0
15.6 0 0
15.64 0 0
15.68 0 0
15.72 0 0
15.76 0 0
15.8 0 0
15.84 0 0
15.88 0 0
15.92 0 0
15.96 0 0
16 0 0
16.04 0 0
16.08 0 0
16.12 0 0
16.16 0 0
16.2 0 0
16.24 0 0
16.28 0 0
16.32 0 0
16.36 0 0
16.4 0 0
16.44 0 0
16.48 0 0
16.52 0 0
16.56 0 0
16.6 0 0
16.64 0 0
16.68 0 0
16.72 0 0
16.76 0 0
16.8 0 0
16.84 0 0
16.88 0 0
16.92 0 0
16.96 0 0
17 0 0
17.04 0 0
17.08 0 0
17.12 0 0
17.16 0 0
17.2 0 0
17.24 0 0
17.28 0 0
17.32 0 0
17.36 0 0
17.4 0 0
17.44 0 0
17.48 0 0
17.52 0 0
17.56 0 0
17.6 0 0
17.64 0 0
17.68 0 0
17.72 0 0
17.76 0 0
17.8 0 0
17.84 0 0
17.88 0 0
17.92 0 0
17.96 0 0
18 0 0
18.04 0 0
18.08 0 0
18.12 0 0
18.16 0 0
18.2 0 0
18.24 0 0
18.28 0 0
18.32 0 0
18.36 0 0
18.4 0 0
18.44 0 0
18.48 0 0
18.52 0 0
18.56 0 0
18.6 0 0
18.64 0 0
18.68 0 0
18.72 0 0
18.76 0 0
18.8 0 0
18.84 0 0
18.88 0 0
18.92 0 0
18.96 0 0
19 0 0
19.04 0 0
19.08 0 0
19.12 0 0
19.16 0 0
19.2 0 0
19.24 0 0
19.28 0 0
19.32 0 0
19.36 0 0
19.4 0 0
19.44 0 0
19.48 0 0
19.52 0 0
19.56 0 0
19.6 0 0
19.64 0 0
19.68 0 0
19.72 0 0
19.76 0 0
19.8 0 0
19.84 0 0
19.88 0 0
19.92 0 0
19.96 0 0
20 0 0
20.04 0 0
20.08 0 0
20.12 0 0
20.16 0 0
20.2 0 0
20.24 0 0
20.28 0 0
20.32 0 0
20.36 0 0
20.4 0 0
20.44 0 0
20.48 0 0
20.52 0 0
20.56 0 0
20.6 0 0
20.64 0 0
20.68 0 0
20.72 0 0
20.76 0 0
20.8 0 0
20.84 0 0
20.88 0 0
20.92 0 0
20.96 0 0
21 0 0
21.04 0 0
21.08 0 0
21.12 0 0
21.16 0 0
21.2 0 0
21.24 0 0
21.28 0 0
21.32 0 0
21.36 0 0
21.4 0 0
21.44 0 0
21.48 0 0
21.52 0 0
21.56 0 0
21.6 0 0
21.64 0 0
21.68 0 0
21.72 0 0
21.76 0 0
21.8 0 0
21.84 0 0
21.88 0 0
21.92 0 0
21.96 0 0
22 0 0
22.04 0 0
22.08 0 0
22.12 0 0
22.16 0 0
22.2 0 0
22.24 0 0
22.28 0 0
22.32 0 0
22.36 0 0
22.4 0 0
22.44 0 0
22.48 0 0
22.52 0 0
22.56 0 0
22.6 0 0
22.64 0 0
22.68 0 0
22.72 0 0
22.76 0 0
22.8 0 0
22.84 0 0
22.88 0 0
22.92 0 0
22.96 0 0
23 0 0
23.04 0 0
23.08 0 0
23.12 0 0
23.16 0 0
23.2 0 0
23.24 0 0
23.28 0 0
23.32 0 0
23.36 0 0
23.4 0 0
23.44 0 0
23.48 0 0
23.52 0 0
23.56 0 0
23.6 0 0
23.64 0 0
23.68 0 0
23.72 0 0
23.76 0 0
23.8 0 0
23.84 0 0
23.88 0 0
23.92 0 0
23.96 0 0
24 0 0
24.04 0 0
24.08 0 0
24.12 0 0
24.16 0 0
24.2 0 0
24.24 0 0
24.28 0 0
24.32 0 0
24.36 0 0
24.4 0 0
24.44 0 0
24.48 0 0
24.52 0 0
24.56 0 0
24.6 0 0
24.64 0 0
24.68 0 0
24.72 0 0
24.76 0 0
24.8 0 0
24.84 0 0
24.88 0 0
24.92 0 0
24.96 0 0
25 0 0
25.04 0 0
25.08 0 0
25.12 0 0
25.16 0 0
25.2 0 0
25.24 0 0
25.28 0 0
25.32 0 0
25.36 0 0
25.4 0 0
25.44 0 0
25.48 0 0
25.52 0 0
25.56 0 0
25.6 0 0
25.64 0 0
25.68 0 0
25.72 0 0
25.76 0 0
25.8 0 0
25.84 0 0
25.88 0 0
25.92 0 0
25.96 0 0
26 0 0
26.04 0 0
26.08 0 0
26.12 0 0
26.16 0 0
26.2 0 0
26.24 0 0
26.28 0 0
26.32 0 0
26.36 0 0
26.4 0 0
26.44 0 0
26.48 0 0
26.52 0 0
26.56 0 0
26.6 0 0
26.64 0 0
26.68 0 0
26.72 0 0
26.76 0 0
26.8 0 0
26.84 0 0
26.88 0 0
26.92 0 0
26.96 0 0
27 0 0
27.04 0 0
27.08 0 0
27.12 0 0
27.16 0 0
27.2 0 0
27.24 0 0
27.28 0 0
27.32 0 0
27.36 0 0
27.4 0 0
27.44 0 0
27.48 0 0
27.52 0 0
27.56 0 0
27.6 0 0
27.64 0 0
27.68 0 0
27.72 0 0
27.76 0 0
27.8 0 0
27.84 0 0
27.88 0 0
27.92 0 0
27.96 0 0
28 0 0
28.04 0 0
28.08 0 0
28.12 0 0
28.16 0 0
28.2 0 0
28.24 0 0
28.28 0 0
28.32 0 0
28.36 0 0
28.4 0 0
28.44 0 0
28.48 0 0
28.52 0 0
28.56 0 0
28.6 0 0
28.64 0 0
28.68 0 0
28.72 0 0
28.76 0 0
28.8 0 0
28.84 0 0
28.88 0 0
28.92 0 0
28.96 0 0
29 0 0
29.04 0 0
29.08 0 0
29.12 0 0
29.16 0 0
29.2 0 0
29.24 0 0
29.28 0 0
29.32 0 0
29.36 0 0
29.4 0 0
29.44 0 0
29.48 0 0
29.52 0 0
29.56 0 0
29.6 0 0
29.64 0 0
29.68 0 0
29.72 0 0
29.76 0 0
29.8 0 0
29.84 0 0
29.88 0 0
29.92 0 0
29.96 0 0
30 0 0
30.04 0 0
30.08 0 0
30.12 0 0
30.16 0 0
30.2 0 0
30.24 0 0
30.28 0 0
30.32 0 0
30.36 0 0
30.4 0 0
30.44 0 0
30.48 0 0
30.52 0 0
30.56 0 0
30.6 0 0
30.64 0 0
30.68 0 0
30.72 0 0
30.76 0 0
30.8 0 0
30.84 0 0
30.88 0 0
30.92 0 0
30.96 0 0
31 0 0
31.04 0 0
31.08 0 0
31.12 0 0
31.16 0 0
31.2 0 0
31.24 0 0
31.28 0 0
31.32 0 0
31.36 0 0
31.4 0 0
31.44 0 0
31.48 0 0
31.52 0 0
31.56 0 0
31.6 0 0
31.64 0 0
31.68 0 0
31.72 0 0
31.76 0 0
31.8 0 0
31.84 0 0
31.88 0 0
31.92 0 0
31.96 0 0
0 0.005 0
0.04 0.005 0
0.08 0.005 0
0.12 0.005 0
0.16 0.005 0
0.2 0.005 0
0.24 0.005 0
0.28 0.005 0
0.32 0.005 0
0.36 0.005 0
0.4 0.005 0
0.44 0.005 0
0.48 0.005 0
0.52 0.005 0
0.56 0.005 0
0.6 0.005 0
0.64 0.005 0
0.68 0.005 0
0.72 0.005 0
0.76 0.005 0
0.8 0.005 0
0.84 0.005 0
0.88 0.005 0
0.92 0.005 0
0.96 0.005 0
1 0.005 0
1.04 0.005 0
1.08 0.005 0
1.12 0.005 0
1.16 0.005 0
1.2 0.005 0
1.24 0.005 0
1.28 0.005 0
1.32 0.005 0
1.36 0.005 0
1.4 0.005 0
1.44 0.005 0
1.48 0.005 0
1.52 0.005 0
1.56 0.005 0
1.6 0.005 0
1.64 0.005 0
1.68 0.005 0
1.72 0.005 0
1.76 0.005 0
1.8 0.005 0
1.84 0.005 0
1.88 0.005 0
1.92 0.005 0
1.96 0.005 0
2 0.005 0
2.04 0.005 0
2.08 0.005 0
2.12 0.005 0
2.16 0.005 0
2.2 0.005 0
2.24 0.005 0
2.28 0.005 0
2.32 0.005 0
2.36 0.005 0
2.4 0.005 0
2.44 0.005 0
2.48 0.005 0
2.52 0.005 0
2.56 0.005 0
2.6 0.005 0
2.64 0.005 0
2.68 0.005 0
2.72 0.005 0
2.76 0.005 0
2.8 0.005 0
2.84 0.005 0
2.88 0.005 0
2.92 0.005 0
2.96 0.005 0
3 0.005 0
3.04 0.005 0
3.08 0.005 0
3.12 0.005 0
3.16 0.005 0
3.2 0.005 0
3.24 0.005 0
3.28 0.005 0
3.32 0.005 0
3.36 0.005 0
3.4 0.005 0
3.44 0.005 0
3.48 0.005 0
3.52 0.005 0
3.56 0.005 0
3.6 0.005 0
3.64 0.005 0
3.68 0.005 0
3.72 0.005 0
3.76 0.005 0
3.8 0.005 0
3.84 0.005 0
3.88 0.005 0
3.92 0.005 0
3.96 0.005 0
4 0.005 0
4.04 0.005 0
4.08 0.005 0
4.12 0.005 0
4.16 0.005 0
4.2 0.005 0
4.24 0.005 0
4.28 0.005 0
4.32 0.005 0
4.36 0.005 0
4.4 0.005 0
4.44 0.005 0
4.48 0.005 0
4.52 0.005 0
4.56 0.005 0
4.6 0.005 0
4.64 0.005 0
4.68 0.005 0
4.72 0.005 0
4.76 0.005 0
4.8 0.005 0
4.84 0.005 0
4.88 0.005 0
4.92 0.005 0
4.96 0.005 0
5 0.005 0
5.04 0.005 0
5.08 0.005 0
5.12 0.005 0
5.16 0.005 0
5.2 0.005 0
5.24 0.005 0
5.28 0.005 0
5.32 0.005 0
5.36 0.005 0
5.4 0.005 0
5.44 0.005 0
5.48 0.005 0
5.52 0.005 0
5.56 0.005 0
5.6 0.005 0
5.64 0.005 0
5.68 0.005 0
5.72 0.005 0
5.76 0.005 0
5.8 0.005 0
5.84 0.005 0
5.88 0.005 0
5.92 0.005 0
5.96 0.005 0
6 0.005 0
6.04 0.005 0
6.08 0.005 0
6.12 0.005 0
6.16 0.005 0
6.2 0.005 0
6.24 0.005 0
6.28 0.005 0
6.32 0.005 0
6.36 0.005 0
6.4 0.005 0
6.44 0.005 0
6.48 0.005 0
6.52 0.005 0
6.56 0.005 0
6.6 0.005 0
6.64 0.005 0
6.68 0.005 0
6.72 0.005 0
6.76 0.005 0
6.8 0.005 0
6.84 0.005 0
6.88 0.005 0
6.92 0.005 0
6.96 0.005 0
7 0.005 0
7.04 0.005 0
7.08 0.005 0
7.12 0.005 0
7.16 0.005 0
7.2 0.005 0
7.24 0.005 0
7.28 0.005 0
7.32 0.005 0
7.36 0.005 0
7.4 0.005 0
[...]
POINT_DATA 160000

SCALARS v float 1
LOOKUP_TABLE default
0
0
0
0
0
0
0
0
0
0
0
0
0
0
0
0
0
0
0
0
0
0
0
0
0
0
0
0
0
0
0
0
0
0
0
0
0
0
0
0
0
0
0
0
0
0
0
0
0
0
0
0
0
0
0
0
0
0
0
0
0
0
0
0
0
0
0
0
0
0
0
0
0
0
0
0
0
0
0
0
0
0
0
0
0
0
0
0
0
0
0
0
0
0
0
0
0
0
0
0
0
0
0
0
0
0
0
0
0
0
0
0
0
0
0
0
0
0
0
0
0
0
0
0
0
0
0
0
0
0
0
0
0
0
0
0
0
0
0
0
0
0
0
0
0
0
0
0
0
0
0
0
0
0
0
0
0
0
0
0
0
0
0
0
0
0
0
0
0
0
0
0
0
0
0
0
0
0
0
0
0
0
0
0
0
0
0
0
0
0
0
0
0
0
0
0
0
0
0
0
0
0
0
0
0
0
0
0
0
0
0
0
0
0
0
0
0
0
0
0
0
0
0
0
0
0
0
0
0
0
0
0
0
0
0
0
0
0
0
0
0
0
0
0
0
0
0
0
0
0
0
0
0
0
0
0
0
0
0
0
0
0
0
0
0
0
0
0
0
0
0
0
0
0
0
0
0
0
0
0
0
0
0
0
0
0
0
0
0
0
0
0
0
0
0
0
0
0
0
0
0
0
0
0
0
0
0
0
0
0
0
0
0
0
0
0
0
0
0
0
0
0
0
0
0
0
0
0
0
0
0
0
0
0
0
0
0
0
0
0
0
0
0
0
0
0
0
0
0
0
0
0
0
0
0
0
0
0
0
0
0
0
0
0
0
0
0
0
0
0
0
0
0
0
0
0
0
0
0
0
0
0
0
0
0
0
0
0
0
0
0
0
0
0
0
0
0
0
0
0
0
0
0
0
0
0
0
0
0
0
0
0
0
0
0
0
0
0
0
0
0
0
0
0
0
0
0
0
0
0
0
0
0
0
0
0
0
0
0
0
0
0
0
0
0
0
0
0
0
0
0
0
0
0
0
0
0
0
0
0
0
0
0
0
0
0
0
0
0
0
0
0
0
0
0
0
0
0
0
0
0
0
0
0
0
0
0
0
0
0
0
0
0
0
0
0
0
0
0
0
0
0
0
0
0
0
0
0
0
0
0
0
0
0
0
0
0
0
0
0
0
0
0
0
0
0
0
0
0
0
0
0
0
0
0
0
0
0
0
0
0
0
0
0
0
0
0
0
0
0
0
0
0
0
0
0
0
0
0
0
0
0
0
0
0
0
0
0
0
0
0
0
0
0
0
0
0
0
0
0
0
0
0
0
0
0
0
0
0
0
0
0
0
0
0
0
0
0
0
0
0
0
0
0
0
0
0
0
0
0
0
0
0
0
0
0
0
0
0
0
0
0
0
0
0
0
0
0
0
0
0
0
0
0
0
0
0
0
0
0
0
0
0
0
0
0
0
0
0
0
0
0
0
0
0
0
0
0
0
0
0
0
0
0
0
0
0
0
0
0
0
0
0
0
0
0
0
0
0
0
0
0
0
0
0
0
0
0
0
0
0
0
0
0
0
0
0
0
0
0
0
0
0
0
0
0
0
0
0
0
0
0
0
0
0
0
0
0
0
0
0
0
0
0
0
0
0
0
0
0
0
0
0
0
0
0
0
0
0
0
0
0
0
0
0
0
0
0
0
0
0
0
0
0
0
0
0
0
0
0
0
0
0
0
0
0
0
0
0
0
0
0
0
0
0
0
0
0
0
0
0
0
0
0
0
0
0
0
0
0
0
0
0
0
0
0
0
0
0
0
0
0
0.0374157
0.00938109
0.00346792
0.00176631
0.00108083
0.00073707
0.000538293
0.000411748
0.000325549
0.00026386
0.000218039
0.000183009
0.000155607
0.000133771
0.000116098
0.000101607
8.95882e-05
7.95203e-05
7.10105e-05
6.37586e-05
5.75318e-05
5.21477e-05
4.74612e-05
4.33566e-05
3.97403e-05
3.65363e-05
3.36824e-05
3.11275e-05
2.88294e-05
2.67528e-05
2.48684e-05
2.31515e-05
2.15813e-05
2.01402e-05
1.88132e-05
1.75874e-05
1.64519e-05
1.53972e-05
1.44151e-05
1.34984e-05
1.26409e-05
1.18373e-05
1.10826e-05
1.03726e-05
9.70368e-06
9.07238e-06
8.47574e-06
7.9111e-06
7.37607e-06
6.86846e-06
6.38632e-06
5.92788e-06
5.49153e-06
5.07579e-06
4.67933e-06
4.30092e-06
3.93941e-06
3.59378e-06
3.26307e-06
2.9464e-06
2.64295e-06
2.35197e-06
2.07275e-06
1.80465e-06
1.54707e-06
1.29943e-06
1.06122e-06
8.31942e-07
6.1114e-07
3.98391e-07
1.93293e-07
-4.53399e-09
-1.95442e-07
-3.79761e-07
-5.57806e-07
-7.29867e-07
-8.96213e-07
-1.0571e-06
-1.21279e-06
-1.36349e-06
-1.50945e-06
-1.65085e-06
-1.7879e-06
-1.92077e-06
-2.04964e-06
-2.17468e-06
-2.29604e-06
-2.41388e-06
-2.52833e-06
-2.63952e-06
-2.74759e-06
-2.85266e-06
-2.95484e-06
-3.05424e-06
-3.15097e-06
-3.24511e-06
-3.33678e-06
-3.42606e-06
-3.51303e-06
-3.59778e-06
-3.6804e-06
-3.76095e-06
-3.8395e-06
-3.91613e-06
-3.9909e-06
-4.06386e-06
-4.1351e-06
-4.20465e-06
-4.27256e-06
-4.33892e-06
-4.40376e-06
-4.46712e-06
-4.52907e-06
-4.58963e-06
-4.64885e-06
-4.70678e-06
-4.76346e-06
-4.81892e-06
-4.8732e-06
-4.92634e-06
-4.97837e-06
-5.02932e-06
-5.07922e-06
-5.12812e-06
-5.17603e-06
-5.22297e-06
-5.26899e-06
-5.3141e-06
-5.35834e-06
-5.40172e-06
-5.44427e-06
-5.48602e-06
-5.52698e-06
-5.56718e-06
-5.60663e-06
-5.64535e-06
-5.68337e-06
-5.72071e-06
-5.75738e-06
-5.79339e-06
-5.82877e-06
-5.86353e-06
-5.89769e-06
-5.93126e-06
-5.96426e-06
-5.99671e-06
-6.0286e-06
-6.05995e-06
-6.09079e-06
-6.12113e-06
-6.15097e-06
-6.18032e-06
-6.20921e-06
-6.23763e-06
-6.26561e-06
-6.29314e-06
-6.32024e-06
-6.34692e-06
-6.3732e-06
-6.39908e-06
-6.42455e-06
-6.44964e-06
-6.47436e-06
-6.49871e-06
-6.5227e-06
-6.54634e-06
-6.56963e-06
-6.59259e-06
-6.61522e-06
-6.63752e-06
-6.6595e-06
-6.68117e-06
-6.70254e-06
-6.72362e-06
-6.7444e-06
-6.76489e-06
-6.7851e-06
-6.80503e-06
-6.8247e-06
-6.84409e-06
-6.86323e-06
-6.88212e-06
-6.90075e-06
-6.91915e-06
-6.9373e-06
-6.9552e-06
-6.97288e-06
-6.99033e-06
-7.00756e-06
-7.02456e-06
-7.04135e-06
-7.05793e-06
-7.07429e-06
-7.09045e-06
-7.10641e-06
-7.12217e-06
-7.13774e-06
-7.15312e-06
-7.1683e-06
-7.1833e-06
-7.19813e-06
-7.21277e-06
-7.22722e-06
-7.24151e-06
-7.25563e-06
-7.26958e-06
-7.28336e-06
-7.29698e-06
-7.31044e-06
-7.32374e-06
-7.33689e-06
-7.34988e-06
-7.36272e-06
-7.37541e-06
-7.38796e-06
-7.40036e-06
-7.41262e-06
-7.42474e-06
-7.43672e-06
-7.44857e-06
-7.46028e-06
-7.47185e-06
-7.4833e-06
-7.49463e-06
-7.50582e-06
-7.51689e-06
-7.52783e-06
-7.53866e-06
-7.54935e-06
-7.55993e-06
-7.5704e-06
-7.58075e-06
-7.59099e-06
-7.60112e-06
-7.61114e-06
-7.62104e-06
-7.63084e-06
-7.64053e-06
-7.65011e-06
-7.65959e-06
-7.66898e-06
-7.67826e-06
-7.68744e-06
-7.69651e-06
-7.70549e-06
-7.71439e-06
-7.72318e-06
-7.73188e-06
-7.74049e-06
-7.749e-06
-7.75742e-06
-7.76575e-06
-7.77399e-06
-7.78215e-06
-7.79023e-06
-7.79822e-06
-7.80612e-06
-7.81394e-06
-7.82168e-06
-7.82934e-06
-7.83691e-06
-7.84441e-06
-7.85183e-06
-7.85917e-06
-7.86644e-06
-7.87363e-06
-7.88075e-06
-7.88779e-06
-7.89475e-06
-7.90165e-06
-7.90847e-06
-7.91522e-06
-7.9219e-06
-7.92852e-06
-7.93507e-06
-7.94154e-06
-7.94796e-06
-7.95431e-06
-7.96059e-06
-7.9668e-06
-7.97295e-06
-7.97905e-06
-7.98507e-06
-7.99103e-06
-7.99693e-06
-8.00277e-06
-8.00855e-06
-8.01428e-06
-8.01995e-06
-8.02556e-06
-8.03111e-06
-8.0366e-06
-8.04204e-06
-8.04742e-06
-8.05275e-06
-8.05802e-06
-8.06324e-06
-8.06841e-06
-8.07352e-06
-8.07858e-06
-8.08359e-06
-8.08855e-06
-8.09346e-06
-8.09831e-06
-8.10313e-06
-8.10789e-06
-8.1126e-06
-8.11726e-06
-8.12188e-06
-8.12645e-06
-8.13097e-06
-8.13545e-06
-8.13989e-06
-8.14428e-06
-8.14862e-06
-8.15292e-06
-8.15718e-06
-8.16139e-06
-8.16556e-06
-8.16969e-06
-8.17378e-06
-8.17782e-06
-8.18183e-06
-8.18579e-06
-8.18971e-06
-8.19359e-06
-8.19744e-06
-8.20124e-06
-8.20501e-06
-8.20874e-06
-8.21243e-06
-8.21609e-06
-8.21971e-06
-8.22329e-06
-8.22683e-06
-8.23033e-06
-8.23381e-06
-8.23725e-06
-8.24065e-06
-8.24402e-06
-8.24735e-06
-8.25065e-06
-8.25392e-06
-8.25715e-06
-8.26035e-06
-8.26352e-06
-8.26665e-06
-8.26976e-06
-8.27283e-06
-8.27588e-06
-8.27888e-06
-8.28186e-06
-8.28481e-06
-8.28773e-06
-8.29062e-06
-8.29349e-06
-8.29632e-06
-8.29912e-06
-8.30189e-06
-8.30465e-06
-8.30737e-06
-8.31006e-06
-8.31273e-06
-8.31537e-06
-8.31799e-06
-8.32058e-06
-8.32314e-06
-8.32568e-06
-8.3282e-06
-8.33069e-06
-8.33316e-06
-8.33562e-06
-8.33805e-06
-8.34045e-06
-8.34283e-06
-8.34519e-06
-8.34754e-06
-8.34986e-06
-8.35217e-06
-8.35446e-06
-8.35671e-06
-8.35896e-06
-8.36119e-06
-8.3634e-06
-8.3656e-06
-8.36779e-06
-8.36995e-06
-8.37211e-06
-8.37424e-06
-8.37637e-06
-8.37848e-06
-8.38058e-06
-8.38266e-06
-8.38473e-06
-8.38679e-06
-8.38884e-06
-8.39088e-06
-8.3929e-06
-8.39491e-06
-8.39692e-06
-8.39892e-06
-8.40091e-06
-8.40289e-06
-8.40486e-06
-8.40682e-06
-8.40877e-06
-8.41073e-06
-8.41267e-06
-8.4146e-06
-8.41653e-06
-8.41845e-06
-8.42036e-06
-8.42226e-06
-8.42417e-06
-8.42607e-06
-8.42796e-06
-8.42983e-06
-8.43171e-06
-8.43359e-06
-8.43546e-06
-8.43732e-06
-8.43917e-06
-8.44102e-06
-8.44286e-06
-8.4447e-06
-8.44653e-06
-8.44836e-06
-8.45018e-06
-8.45199e-06
-8.4538e-06
-8.45561e-06
-8.45741e-06
-8.45919e-06
-8.46097e-06
-8.46275e-06
-8.46452e-06
-8.46628e-06
-8.46803e-06
-8.46978e-06
-8.47152e-06
-8.47325e-06
-8.47497e-06
-8.47668e-06
-8.47839e-06
-8.48008e-06
-8.48176e-06
-8.48344e-06
-8.4851e-06
-8.48675e-06
-8.4884e-06
-8.49003e-06
-8.49165e-06
-8.49326e-06
-8.49485e-06
-8.49644e-06
-8.49801e-06
-8.49957e-06
-8.50111e-06
-8.50263e-06
-8.50415e-06
-8.50566e-06
-8.50715e-06
-8.50862e-06
-8.51008e-06
-8.51152e-06
-8.51295e-06
-8.51436e-06
-8.51576e-06
-8.51714e-06
-8.5185e-06
-8.51984e-06
-8.52118e-06
-8.52249e-06
-8.52379e-06
-8.52506e-06
-8.52632e-06
-8.52757e-06
-8.52879e-06
-8.52999e-06
-8.53118e-06
-8.53235e-06
-8.5335e-06
-8.53463e-06
-8.53575e-06
-8.53684e-06
-8.53791e-06
-8.53897e-06
-8.54e-06
-8.54102e-06
-8.54202e-06
-8.543e-06
-8.54396e-06
-8.54489e-06
-8.54581e-06
-8.54672e-06
-8.5476e-06
-8.54847e-06
-8.54931e-06
-8.55014e-06
-8.55094e-06
-8.55173e-06
-8.5525e-06
-8.55325e-06
-8.55399e-06
-8.55471e-06
-8.5554e-06
-8.55607e-06
-8.55673e-06
-8.55738e-06
-8.55801e-06
-8.55862e-06
-8.5592e-06
-8.55978e-06
-8.56034e-06
-8.56088e-06
-8.5614e-06
-8.56191e-06
-8.5624e-06
-8.56289e-06
-8.56335e-06
-8.56379e-06
-8.56422e-06
-8.56463e-06
-8.56504e-06
-8.56543e-06
-8.5658e-06
-8.56617e-06
-8.56652e-06
-8.56686e-06
-8.56718e-06
-8.56749e-06
-8.56778e-06
-8.56807e-06
-8.56835e-06
-8.56862e-06
-8.56887e-06
-8.56911e-06
-8.56934e-06
-8.56956e-06
-8.56978e-06
-8.56998e-06
-8.57017e-06
-8.57035e-06
-8.57053e-06
-8.5707e-06
-8.57087e-06
-8.57102e-06
-8.57117e-06
-8.5713e-06
-8.57143e-06
-8.57155e-06
-8.57167e-06
-8.57178e-06
-8.57188e-06
-8.57199e-06
-8.57208e-06
-8.57217e-06
-8.57225e-06
-8.57234e-06
-8.57241e-06
-8.57248e-06
-8.57254e-06
-8.57261e-06
-8.57267e-06
-8.57273e-06
-8.57278e-06
-8.57283e-06
-8.57288e-06
-8.57292e-06
-8.57296e-06
-8.573e-06
-8.57304e-06
-8.57307e-06
-8.5731e-06
-8.57313e-06
-8.57316e-06
-8.57319e-06
-8.57322e-06
-8.57324e-06
-8.57326e-06
-8.57328e-06
-8.5733e-06
-8.57332e-06
-8.57334e-06
-8.57336e-06
-8.57338e-06
-8.57339e-06
-8.57341e-06
-8.57342e-06
-8.57344e-06
-8.57345e-06
-8.57346e-06
-8.57348e-06
-8.57349e-06
-8.5735e-06
-8.57351e-06
-8.57353e-06
-8.57354e-06
-8.57356e-06
-8.57357e-06
-8.57358e-06
-8.57359e-06
-8.57361e-06
-8.57362e-06
-8.57363e-06
-8.57364e-06
-8.57365e-06
-8.57366e-06
-8.57367e-06
-8.57369e-06
-8.57371e-06
-8.57372e-06
-8.57373e-06
-8.57374e-06
-8.57375e-06
-8.57376e-06
-8.57377e-06
-8.57379e-06
-8.5738e-06
-8.57381e-06
-8.57382e-06
-8.57383e-06
-8.57385e-06
-8.57386e-06
-8.57386e-06
-8.57387e-06
-8.57389e-06
-8.5739e-06
-8.57392e-06
-8.57393e-06
-8.57394e-06
-8.57395e-06
-8.57396e-06
-8.57398e-06
-8.57399e-06
-8.574e-06
-8.57401e-06
-8.57402e-06
-8.57403e-06
-8.57405e-06
-8.57406e-06
-8.57407e-06
-8.57408e-06
-8.5741e-06
-8.57411e-06
-8.57412e-06
-8.57413e-06
-8.57414e-06
-8.57415e-06
-8.57417e-06
-8.57418e-06
-8.57419e-06
-8.5742e-06
-8.57421e-06
-8.57423e-06
-8.57423e-06
-8.57425e-06
-8.57426e-06
-8.57427e-06
-8.57429e-06
-8.5743e-06
-8.57431e-06
-8.57433e-06
-8.57434e-06
-8.57435e-06
-8.57436e-06
-8.57437e-06
-8.57438e-06
-8.57439e-06
-8.57441e-06
-8.57442e-06
-8.57443e-06
-8.57444e-06
-8.57445e-06
-8.57447e-06
-8.57448e-06
-8.57449e-06
-8.5745e-06
-8.57452e-06
-8.57453e-06
-8.57454e-06
-8.57455e-06
-8.57456e-06
-8.57458e-06
-8.57459e-06
-8.5746e-06
-8.57461e-06
-8.57462e-06
-8.57463e-06
-8.57465e-06
-8.57466e-06
-8.57467e-06
-8.57468e-06
-8.57469e-06
-8.57471e-06
-8.57472e-06
-8.57473e-06
-8.57474e-06
-8.57475e-06
-8.57477e-06
-8.57478e-06
-8.57479e-06
-8.5748e-06
-8.57482e-06
-8.57483e-06
-8.57484e-06
-8.57485e-06
-8.57487e-06
-8.57488e-06
-8.57489e-06
-8.5749e-06
-8.57491e-06
-8.57492e-06
-8.57494e-06
-8.57495e-06
-8.57496e-06
-8.57497e-06
-8.57499e-06
-8.575e-06
-8.57501e-06
-8.57501e-06
-8.57503e-06
-8.57505e-06
-8.57507e-06
-8.57507e-06
-8.57508e-06
-8.57509e-06
-8.57511e-06
-8.57513e-06
-8.57513e-06
-8.57514e-06
-8.57515e-06
-8.57516e-06
-8.57518e-06
-8.57519e-06
-8.57521e-06
-8.57522e-06
-8.57523e-06
-8.57524e-06
-8.57525e-06
-8.57527e-06
-8.57528e-06
-8.57529e-06
-8.5753e-06
-8.57531e-06
-8.57532e-06
-8.57534e-06
-8.57535e-06
-8.57536e-06
-8.57537e-06
-8.57539e-06
-8.5754e-06
-8.57541e-06
-8.57543e-06
-8.57544e-06
-8.57545e-06
-8.57546e-06
-8.57546e-06
-8.57547e-06
-8.57548e-06
-8.57549e-06
-8.5755e-06
-8.5755e-06
-8.57551e-06
-8.57551e-06
-8.57551e-06
-8.57551e-06
-8.5755e-06
-8.57549e-06
-8.57547e-06
-8.57544e-06
-8.57541e-06
-8.57536e-06
-8.57529e-06
-8.5752e-06
-8.57508e-06
-8.57493e-06
-8.57474e-06
-8.57448e-06
-8.57416e-06
-8.57374e-06
-8.57323e-06
-8.57252e-06
-8.57169e-06
-8.57053e-06
-8.56921e-06
-8.56723e-06
-8.56515e-06
-8.56168e-06
-8.55853e-06
-8.55199e-06
-8.54781e-06
-8.53346e-06
-8.53228e-06
-8.48941e-06
-8.56227e-06
-6.05413e-06
-6.05413e-06
0
0
0.09661
0.0320526
0.0130061
0.00682632
0.00423602
0.00291409
0.00214245
0.00164837
0.00131051
0.00106803
0.00088752
0.000749272
0.000640968
0.000554545
0.000484521
0.000427041
0.000379327
0.000339324
0.000305487
0.000276635
0.000251848
0.000230406
0.000211736
0.000195379
0.000180966
0.000168194
0.000156818
0.000146634
0.000137473
0.000129197
0.000121688
0.000114847
0.000108593
0.000102854
9.75699e-05
9.26907e-05
8.81719e-05
8.39757e-05
8.00693e-05
7.64241e-05
7.30153e-05
6.9821e-05
6.6822e-05
6.40015e-05
6.13443e-05
5.88372e-05
5.64682e-05
5.42266e-05
5.21029e-05
5.00884e-05
4.81752e-05
4.63563e-05
4.46252e-05
4.29762e-05
4.14037e-05
3.9903e-05
3.84695e-05
3.7099e-05
3.57879e-05
3.45325e-05
3.33296e-05
3.21762e-05
3.10695e-05
3.00069e-05
2.89861e-05
2.80048e-05
2.70608e-05
2.61523e-05
2.52774e-05
2.44345e-05
2.36219e-05
2.28382e-05
2.20819e-05
2.13517e-05
2.06464e-05
1.99649e-05
1.9306e-05
1.86687e-05
1.80521e-05
1.74552e-05
1.68771e-05
1.63171e-05
1.57744e-05
1.52482e-05
1.47379e-05
1.42427e-05
1.37621e-05
1.32955e-05
1.28423e-05
1.2402e-05
1.19741e-05
1.15581e-05
1.11535e-05
1.076e-05
1.0377e-05
1.00043e-05
9.64134e-06
9.28789e-06
8.94356e-06
8.60803e-06
8.28097e-06
7.96211e-06
7.65115e-06
7.34782e-06
7.05186e-06
6.76302e-06
6.48106e-06
6.20575e-06
5.93689e-06
5.67424e-06
5.4176e-06
5.16679e-06
4.92162e-06
4.68192e-06
4.44751e-06
4.21823e-06
3.99391e-06
3.77441e-06
3.55958e-06
3.34928e-06
3.14338e-06
2.94174e-06
2.74424e-06
2.55075e-06
2.36117e-06
2.17539e-06
1.99329e-06
1.81476e-06
1.6397e-06
1.46804e-06
1.29965e-06
1.13447e-06
9.72395e-07
8.13346e-07
6.57247e-07
5.04023e-07
3.53583e-07
2.05856e-07
6.07795e-08
-8.17116e-08
-2.21688e-07
-3.5922e-07
-4.94367e-07
-6.27189e-07
-7.57739e-07
-8.86074e-07
-1.01224e-06
-1.1363e-06
-1.25831e-06
-1.37832e-06
-1.49636e-06
-1.61249e-06
-1.72675e-06
-1.83918e-06
-1.94984e-06
-2.05875e-06
-2.16596e-06
-2.27151e-06
-2.37543e-06
-2.47776e-06
-2.57853e-06
-2.67778e-06
-2.77555e-06
-2.87186e-06
-2.96674e-06
-3.06023e-06
-3.15235e-06
-3.24314e-06
-3.33262e-06
-3.42082e-06
-3.50776e-06
-3.59347e-06
-3.67798e-06
-3.76131e-06
-3.84347e-06
-3.92451e-06
-4.00443e-06
-4.08326e-06
-4.16101e-06
-4.23772e-06
-4.3134e-06
-4.38807e-06
-4.46176e-06
-4.53447e-06
-4.60622e-06
-4.67703e-06
-4.74693e-06
-4.81592e-06
-4.88402e-06
-4.95125e-06
-5.01762e-06
-5.08316e-06
-5.14786e-06
-5.21175e-06
-5.27484e-06
-5.33715e-06
-5.39869e-06
-5.45947e-06
-5.5195e-06
-5.5788e-06
-5.63738e-06
-5.69524e-06
-5.7524e-06
-5.80888e-06
-5.86468e-06
-5.91982e-06
-5.97429e-06
-6.02813e-06
-6.08133e-06
-6.1339e-06
-6.18585e-06
-6.2372e-06
-6.28795e-06
-6.33812e-06
-6.38771e-06
-6.43672e-06
-6.48516e-06
-6.53306e-06
-6.58041e-06
-6.62722e-06
-6.67349e-06
-6.71924e-06
-6.76449e-06
-6.80922e-06
-6.85344e-06
-6.89717e-06
-6.94042e-06
-6.98318e-06
-7.02546e-06
-7.06727e-06
-7.10863e-06
-7.14953e-06
-7.18998e-06
-7.22999e-06
-7.26956e-06
-7.3087e-06
-7.3474e-06
-7.38569e-06
-7.42356e-06
-7.46102e-06
-7.49808e-06
-7.53474e-06
-7.571e-06
-7.60687e-06
-7.64236e-06
-7.67747e-06
-7.7122e-06
-7.74656e-06
-7.78055e-06
-7.81418e-06
-7.84745e-06
-7.88037e-06
-7.91294e-06
-7.94517e-06
-7.97706e-06
-8.0086e-06
-8.03982e-06
-8.07071e-06
-8.10128e-06
-8.13152e-06
-8.16144e-06
-8.19105e-06
-8.22036e-06
-8.24935e-06
-8.27805e-06
-8.30645e-06
-8.33455e-06
-8.36235e-06
-8.38987e-06
-8.4171e-06
-8.44404e-06
-8.47071e-06
-8.49711e-06
-8.52323e-06
-8.54908e-06
-8.57466e-06
-8.59998e-06
-8.62505e-06
-8.64985e-06
-8.67439e-06
-8.69868e-06
-8.72273e-06
-8.74652e-06
-8.77007e-06
-8.79338e-06
-8.81644e-06
-8.83928e-06
-8.86188e-06
-8.88426e-06
-8.9064e-06
-8.92831e-06
-8.95e-06
-8.97147e-06
-8.99272e-06
-9.01375e-06
-9.03457e-06
-9.05518e-06
-9.07557e-06
-9.09576e-06
-9.11574e-06
-9.13552e-06
-9.1551e-06
-9.17448e-06
-9.19366e-06
-9.21265e-06
-9.23144e-06
-9.25004e-06
-9.26846e-06
-9.28669e-06
-9.30473e-06
-9.32259e-06
-9.34027e-06
-9.35777e-06
-9.37509e-06
-9.39224e-06
-9.40921e-06
-9.42602e-06
-9.44265e-06
-9.45911e-06
-9.47541e-06
-9.49154e-06
-9.50751e-06
-9.52331e-06
-9.53895e-06
-9.55444e-06
-9.56977e-06
-9.58495e-06
-9.59997e-06
-9.61484e-06
-9.62956e-06
-9.64413e-06
-9.65856e-06
-9.67283e-06
-9.68696e-06
-9.70095e-06
-9.71479e-06
-9.72851e-06
-9.74208e-06
-9.7555e-06
-9.76879e-06
-9.78195e-06
-9.79498e-06
-9.80787e-06
-9.82063e-06
-9.83326e-06
-9.84576e-06
-9.85814e-06
-9.8704e-06
-9.88253e-06
-9.89453e-06
-9.90641e-06
-9.91817e-06
-9.92982e-06
-9.94135e-06
-9.95276e-06
-9.96406e-06
-9.97524e-06
-9.98631e-06
-9.99727e-06
-1.00081e-05
-1.00189e-05
-1.00295e-05
-1.00401e-05
-1.00505e-05
-1.00608e-05
-1.00711e-05
-1.00812e-05
-1.00912e-05
-1.01012e-05
-1.0111e-05
-1.01208e-05
-1.01305e-05
-1.01401e-05
-1.01496e-05
-1.0159e-05
-1.01684e-05
-1.01776e-05
-1.01868e-05
-1.0196e-05
-1.0205e-05
-1.0214e-05
-1.02229e-05
-1.02317e-05
-1.02405e-05
-1.02492e-05
-1.02578e-05
-1.02664e-05
-1.02749e-05
-1.02834e-05
-1.02918e-05
-1.03002e-05
-1.03085e-05
-1.03168e-05
-1.0325e-05
-1.03332e-05
-1.03413e-05
-1.03494e-05
-1.03574e-05
-1.03654e-05
-1.03734e-05
-1.03813e-05
-1.03893e-05
-1.03971e-05
-1.04049e-05
-1.04128e-05
-1.04205e-05
-1.04283e-05
-1.0436e-05
-1.04437e-05
-1.04514e-05
-1.0459e-05
-1.04666e-05
-1.04742e-05
-1.04818e-05
-1.04893e-05
-1.04968e-05
-1.05043e-05
-1.05118e-05
-1.05193e-05
-1.05267e-05
-1.05341e-05
-1.05415e-05
-1.05489e-05
-1.05562e-05
-1.05635e-05
-1.05708e-05
-1.05781e-05
-1.05854e-05
-1.05926e-05
-1.05998e-05
-1.0607e-05
-1.06142e-05
-1.06213e-05
-1.06284e-05
-1.06355e-05
-1.06425e-05
-1.06495e-05
-1.06565e-05
-1.06634e-05
-1.06704e-05
-1.06772e-05
-1.06841e-05
-1.06909e-05
-1.06977e-05
-1.07044e-05
-1.07111e-05
-1.07178e-05
-1.07244e-05
-1.0731e-05
-1.07375e-05
-1.0744e-05
-1.07504e-05
-1.07568e-05
-1.07632e-05
-1.07695e-05
-1.07757e-05
-1.07819e-05
-1.0788e-05
-1.07941e-05
-1.08001e-05
-1.08061e-05
-1.0812e-05
-1.08178e-05
-1.08236e-05
-1.08293e-05
-1.0835e-05
-1.08406e-05
-1.08461e-05
-1.08516e-05
-1.08569e-05
-1.08623e-05
-1.08675e-05
-1.08727e-05
-1.08778e-05
-1.08829e-05
-1.08879e-05
-1.08928e-05
-1.08976e-05
-1.09024e-05
-1.0907e-05
-1.09117e-05
-1.09162e-05
-1.09206e-05
-1.0925e-05
-1.09293e-05
-1.09336e-05
-1.09377e-05
-1.09418e-05
-1.09458e-05
-1.09497e-05
-1.09536e-05
-1.09573e-05
-1.0961e-05
-1.09646e-05
-1.09682e-05
-1.09716e-05
-1.0975e-05
-1.09783e-05
-1.09816e-05
-1.09847e-05
-1.09878e-05
-1.09908e-05
-1.09938e-05
-1.09966e-05
-1.09994e-05
-1.10021e-05
-1.10048e-05
-1.10073e-05
-1.10099e-05
-1.10123e-05
-1.10146e-05
-1.10169e-05
-1.10192e-05
-1.10213e-05
-1.10234e-05
-1.10255e-05
-1.10274e-05
-1.10293e-05
-1.10312e-05
-1.1033e-05
-1.10347e-05
-1.10363e-05
-1.1038e-05
-1.10395e-05
-1.1041e-05
-1.10424e-05
-1.10438e-05
-1.10452e-05
-1.10464e-05
-1.10477e-05
-1.10489e-05
-1.105e-05
-1.10511e-05
-1.10521e-05
-1.10531e-05
-1.10541e-05
-1.1055e-05
-1.10559e-05
-1.10567e-05
-1.10575e-05
-1.10583e-05
-1.1059e-05
-1.10597e-05
-1.10603e-05
-1.1061e-05
-1.10616e-05
-1.10621e-05
-1.10627e-05
-1.10632e-05
-1.10636e-05
-1.10641e-05
-1.10645e-05
-1.10649e-05
-1.10653e-05
-1.10656e-05
-1.1066e-05
-1.10663e-05
-1.10666e-05
-1.10669e-05
-1.10671e-05
-1.10674e-05
-1.10676e-05
-1.10678e-05
-1.1068e-05
-1.10682e-05
-1.10684e-05
-1.10685e-05
-1.10687e-05
-1.10688e-05
-1.10689e-05
-1.1069e-05
-1.10692e-05
-1.10693e-05
-1.10693e-05
-1.10694e-05
-1.10695e-05
-1.10696e-05
-1.10697e-05
-1.10697e-05
-1.10698e-05
-1.10698e-05
-1.10699e-05
-1.10699e-05
-1.107e-05
-1.107e-05
-1.107e-05
-1.10701e-05
-1.10701e-05
-1.10701e-05
-1.10701e-05
-1.10702e-05
-1.10702e-05
-1.10702e-05
-1.10702e-05
-1.10703e-05
-1.10703e-05
-1.10703e-05
-1.10703e-05
-1.10703e-05
-1.10704e-05
-1.10704e-05
-1.10704e-05
-1.10704e-05
-1.10704e-05
-1.10704e-05
-1.10705e-05
-1.10705e-05
-1.10705e-05
-1.10705e-05
-1.10705e-05
-1.10705e-05
-1.10705e-05
-1.10706e-05
-1.10706e-05
-1.10706e-05
-1.10706e-05
-1.10706e-05
-1.10706e-05
-1.10707e-05
-1.10707e-05
-1.10707e-05
-1.10707e-05
-1.10707e-05
-1.10707e-05
-1.10707e-05
-1.10708e-05
-1.10708e-05
-1.10708e-05
-1.10708e-05
-1.10708e-05
-1.10708e-05
-1.10709e-05
-1.10709e-05
-1.10709e-05
-1.10709e-05
-1.10709e-05
-1.10709e-05
-1.1071e-05
-1.1071e-05
-1.1071e-05
-1.1071e-05
-1.1071e-05