# vtk DataFile Version 2.0
FlowField
ASCII
DATASET STRUCTURED_GRID
DIMENSIONS 800 1 200
POINTS 160000 float
0 0 0
0.04 0 0
0.08 0 0
0.12 0 0
0.16 0 0
0.2 0 0
0.24 0 0
0.28 0 0
0.32 0 0
0.36 0 0
0.4 0 0
0.44 0 0
0.48 0 0
0.52 0 0
0.56 0 0
0.6 0 0
0.64 0 0
0.68 0 0
0.72 0 0
0.76 0 0
0.8 0 0
0.84 0 0
0.88 0 0
0.92 0 0
0.96 0 0
1 0 0
1.04 0 0
1.08 0 0
1.12 0 0
1.16 0 0
1.2 0 0
1.24 0 0
1.28 0 0
1.32 0 0
1.36 0 0
1.4 0 0
1.44 0 0
1.48 0 0
1.52 0 0
1.56 0 0
1.6 0 0
1.64 0 0
1.68 0 0
1.72 0 0
1.76 0 0
1.8 0 0
1.84 0 0
1.88 0 0
1.92 0 0
1.96 0 0
2 0 0
2.04 0 0
2.08 0 0
2.12 0 0
2.16 0 0
2.2 0 0
2.24 0 0
2.28 0 0
2.32 0 0
2.36 0 0
2.4 0 0
2.44 0 0
2.48 0 0
2.52 0 0
2.56 0 0
2.6 0 0
2.64 0 0
2.68 0 0
2.72 0 0
2.76 0 0
2.8 0 0
2.84 0 0
2.88 0 0
2.92 0 0
2.96 0 0
3 0 0
3.04 0 0
3.08 0 0
3.12 0 0
3.16 0 0
3.2 0 0
3.24 0 0
3.28 0 0
3.32 0 0
3.36 0 0
3.4 0 0
3.44 0 0
3.48 0 0
3.52 0 0
3.56 0 0
3.6 0 0
3.64 0 0
3.68 0 0
3.72 0 0
3.76 0 0
3.8 0 0
3.84 0 0
3.88 0 0
3.92 0 0
3.96 0 0
4 0 0
4.04 0 0
4.08 0 0
4.12 0 0
4.16 0 0
4.2 0 0
4.24 0 0
4.28 0 0
4.32 0 0
4.36 0 0
4.4 0 0
4.44 0 0
4.48 0 0
4.52 0 0
4.56 0 0
4.6 0 0
4.64 0 0
4.68 0 0
4.72 0 0
4.76 0 0
4.8 0 0
4.84 0 0
4.88 0 0
4.92 0 0
4.96 0 0
5 0 0
5.04 0 0
5.08 0 0
5.12 0 0
5.16 0 0
5.2 0 0
5.24 0 0
5.28 0 0
5.32 0 0
5.36 0 0
5.4 0 0
5.44 0 0
5.48 0 0
5.52 0 0
5.56 0 0
5.6 0 0
5.64 0 0
5.68 0 0
5.72 0 0
5.76 0 0
5.8 0 0
5.84 0 0
5.88 0 0
5.92 0 0
5.96 0 0
6 0 0
6.04 0 0
6.08 0 0
6.12 0 0
6.16 0 0
6.2 0 0
6.24 0 0
6.28 0 0
6.32 0 0
6.36 0 0
6.4 0 0
6.44 0 0
6.48 0 0
6.52 0 0
6.56 0 0
6.6 0 0
6.64 0 0
6.68 0 0
6.72 0 0
6.76 0 0
6.8 0 0
6.84 0 0
6.88 0 0
6.92 0 0
6.96 0 0
7 0 0
7.04 0 0
7.08 0 0
7.12 0 0
7.16 0 0
7.2 0 0
7.24 0 0
7.28 0 0
7.32 0 0
7.36 0 0
7.4 0 0
7.44 0 0
7.48 0 0
7.52 0 0
7.56 0 0
7.6 0 0
7.64 0 0
7.68 0 0
7.72 0 0
7.76 0 0
7.8 0 0
7.84 0 0
7.88 0 0
7.92 0 0
7.96 0 0
8 0 0
8.04 0 0
8.08 0 0
8.12 0 0
8.16 0 0
8.2 0 0
8.24 0 0
8.28 0 0
8.32 0 0
8.36 0 0
8.4 0 0
8.44 0 0
8.48 0 0
8.52 0 0
8.56 0 0
8.6 0 0
8.64 0 0
8.68 0 0
8.72 0 0
8.76 0 0
8.8 0 0
8.84 0 0
8.88 0 0
8.92 0 0
8.96 0 0
9 0 0
9.04 0 0
9.08 0 0
9.12 0 0
9.16 0 0
9.2 0 0
9.24 0 0
9.28 0 0
9.32 0 0
9.36 0 0
9.4 0 0
9.44 0 0
9.48 0 0
9.52 0 0
9.56 0 0
9.6 0 0
9.64 0 0
9.68 0 0
9.72 0 0
9.76 0 0
9.8 0 0
9.84 0 0
9.88 0 0
9.92 0 0
9.96 0 0
10 0 0
10.04 0 0
10.08 0 0
10.12 0 0
10.16 0 0
10.2 0 0
10.24 0 0
10.28 0 0
10.32 0 0
10.36 0 0
10.4 0 0
10.44 0 0
10.48 0 0
10.52 0 0
10.56 0 0
10.6 0 0
10.64 0 0
10.68 0 0
10.72 0 0
10.76 0 0
10.8 0 0
10.84 0 0
10.88 0 0
10.92 0 0
10.96 0 0
11 0 0
11.04 0 0
11.08 0 0
11.12 0 0
11.16 0 0
11.2 0 0
11.24 0 0
11.28 0 0
11.32 0 0
11.36 0 0
11.4 0 0
11.44 0 0
11.48 0 0
11.52 0 0
11.56 0 0
11.6 0 0
11.64 0 0
11.68 0 0
11.72 0 0
11.76 0 0
11.8 0 0
11.84 0 0
11.88 0 0
11.92 0 0
11.96 0 0
12 0 0
12.04 0 0
12.08 0 0
12.12 0 0
12.16 0 0
12.2 0 0
12.24 0 0
12.28 0 0
12.32 0 0
12.36 0 0
12.4 0 0
12.44 0 0
12.48 0 0
12.52 0 0
12.56 0 0
12.6 0 0
12.64 0 0
12.68 0 0
12.72 0 0
12.76 0 0
12.8 0 0
12.84 0 0
12.88 0 0
12.92 0 0
12.96 0 0
13 0 0
13.04 0 0
13.08 0 0
13.12 0 0
13.16 0 0
13.2 0 0
13.24 0 0
13.28 0 0
13.32 0 0
13.36 0 0
13.4 0 0
13.44 0 0
13.48 0 0
13.52 0 0
13.56 0 0
13.6 0 0
13.64 0 0
13.68 0 0
13.72 0 0
13.76 0 0
13.8 0 0
13.84 0 0
13.88 0 0
13.92 0 0
13.96 0 0
14 0 0
14.04 0 0
14.08 0 0
14.12 0 0
14.16 0 0
14.2 0 0
14.24 0 0
14.28 0 0
14.32 0 0
14.36 0 0
14.4 0 0
14.44 0 0
14.48 0 0
14.52 0 0
14.56 0 0
14.6 0 0
14.64 0 0
14.68 0 0
14.72 0 0
14.76 0 0
14.8 0 0
14.84 0 0
14.88 0 0
14.92 0 0
14.96 0 0
15 0 0
15.04 0 0
15.08 0 0
15.12 0 0
15.16 0 0
15.2 0 0
15.24 0 0
15.28 0 0
15.32 0 0
15.36 0 0
15.4 0 0
15.44 0 0
15.48 0 0
15.52 0 0
15.56 0 0
15.6 0 0
15.64 0 0
15.68 0 0
15.72 0 0
15.76 0 0
15.8 0 0
15.84 0 0
15.88 0 0
15.92 0 0
15.96 0 0
16 0 0
16.04 0 0
16.08 0 0
16.12 0 0
16.16 0 0
16.2 0 0
16.24 0 0
16.28 0 0
16.32 0 0
16.36 0 0
16.4 0 0
16.44 0 0
16.48 0 0
16.52 0 0
16.56 0 0
16.6 0 0
16.64 0 0
16.68 0 0
16.72 0 0
16.76 0 0
16.8 0 0
16.84 0 0
16.88 0 0
16.92 0 0
16.96 0 0
17 0 0
17.04 0 0
17.08 0 0
17.12 0 0
17.16 0 0
17.2 0 0
17.24 0 0
17.28 0 0
17.32 0 0
17.36 0 0
17.4 0 0
17.44 0 0
17.48 0 0
17.52 0 0
17.56 0 0
17.6 0 0
17.64 0 0
17.68 0 0
17.72 0 0
17.76 0 0
17.8 0 0
17.84 0 0
17.88 0 0
17.92 0 0
17.96 0 0
18 0 0
18.04 0 0
18.08 0 0
18.12 0 0
18.16 0 0
18.2 0 0
18.24 0 0
18.28 0 0
18.32 0 0
18.36 0 0
18.4 0 0
18.44 0 0
18.48 0 0
18.52 0 0
18.56 0 0
18.6 0 0
18.64 0 0
18.68 0 0
18.72 0 0
18.76 0 0
18.8 0 0
18.84 0 0
18.88 0 0
18.92 0 0
18.96 0 0
19 0 0
19.04 0 0
19.08 0 0
19.12 0 0
19.16 0 0
19.2 0 0
19.24 0 0
19.28 0 0
19.32 0 0
19.36 0 0
19.4 0 0
19.44 0 0
19.48 0 0
19.52 0 0
19.56 0 0
19.6 0 0
19.64 0 0
19.68 0 0
19.72 0 0
19.76 0 0
19.8 0 0
19.84 0 0
19.88 0 0
19.92 0 0
19.96 0 0
20 0 0
20.04 0 0
20.08 0 0
20.12 0 0
20.16 0 0
20.2 0 0
20.24 0 0
20.28 0 0
20.32 0 0
20.36 0 0
20.4 0 0
20.44 0 0
20.48 0 0
20.52 0 0
20.56 0 0
20.6 0 0
20.64 0 0
20.68 0 0
20.72 0 0
20.76 0 0
20.8 0 0
20.84 0 0
20.88 0 0
20.92 0 0
20.96 0 0
21 0 0
21.04 0 0
21.08 0 0
21.12 0 0
21.16 0 0
21.2 0 0
21.24 0 0
21.28 0 0
21.32 0 0
21.36 0 0
21.4 0 0
21.44 0 0
21.48 0 0
21.52 0 0
21.56 0 0
21.6 0 0
21.64 0 0
21.68 0 0
21.72 0 0
21.76 0 0
21.8 0 0
21.84 0 0
21.88 0 0
21.92 0 0
21.96 0 0
22 0 0
22.04 0 0
22.08 0 0
22.12 0 0
22.16 0 0
22.2 0 0
22.24 0 0
22.28 0 0
22.32 0 0
22.36 0 0
22.4 0 0
22.44 0 0
22.48 0 0
22.52 0 0
22.56 0 0
22.6 0 0
22.64 0 0
22.68 0 0
22.72 0 0
22.76 0 0
22.8 0 0
22.84 0 0
22.88 0 0
22.92 0 0
22.96 0 0
23 0 0
23.04 0 0
23.08 0 0
23.12 0 0
23.16 0 0
23.2 0 0
23.24 0 0
23.28 0 0
23.32 0 0
23.36 0 0
23.4 0 0
23.44 0 0
23.48 0 0
23.52 0 0
23.56 0 0
23.6 0 0
23.64 0 0
23.68 0 0
23.72 0 0
23.76 0 0
23.8 0 0
23.84 0 0
23.88 0 0
23.92 0 0
23.96 0 0
24 0 0
24.04 0 0
24.08 0 0
24.12 0 0
24.16 0 0
24.2 0 0
24.24 0 0
24.28 0 0
24.32 0 0
24.36 0 0
24.4 0 0
24.44 0 0
24.48 0 0
24.52 0 0
24.56 0 0
24.6 0 0
24.64 0 0
24.68 0 0
24.72 0 0
24.76 0 0
24.8 0 0
24.84 0 0
24.88 0 0
24.92 0 0
24.96 0 0
25 0 0
25.04 0 0
25.08 0 0
25.12 0 0
25.16 0 0
25.2 0 0
25.24 0 0
25.28 0 0
25.32 0 0
25.36 0 0
25.4 0 0
25.44 0 0
25.48 0 0
25.52 0 0
25.56 0 0
25.6 0 0
25.64 0 0
25.68 0 0
25.72 0 0
25.76 0 0
25.8 0 0
25.84 0 0
25.88 0 0
25.92 0 0
25.96 0 0
26 0 0
26.04 0 0
26.08 0 0
26.12 0 0
26.16 0 0
26.2 0 0
26.24 0 0
26.28 0 0
26.32 0 0
26.36 0 0
26.4 0 0
26.44 0 0
26.48 0 0
26.52 0 0
26.56 0 0
26.6 0 0
26.64 0 0
26.68 0 0
26.72 0 0
26.76 0 0
26.8 0 0
26.84 0 0
26.88 0 0
26.92 0 0
26.96 0 0
27 0 0
27.04 0 0
27.08 0 0
27.12 0 0
27.16 0 0
27.2 0 0
27.24 0 0
27.28 0 0
27.32 0 0
27.36 0 0
27.4 0 0
27.44 0 0
27.48 0 0
27.52 0 0
27.56 0 0
27.6 0 0
27.64 0 0
27.68 0 0
27.72 0 0
27.76 0 0
27.8 0 0
27.84 0 0
27.88 0 0
27.92 0 0
27.96 0 0
28 0 0
28.04 0 0
28.08 0 0
28.12 0 0
28.16 0 0
28.2 0 0
28.24 0 0
28.28 0 0
28.32 0 0
28.36 0 0
28.4 0 0
28.44 0 0
28.48 0 0
28.52 0 0
28.56 0 0
28.6 0 0
28.64 0 0
28.68 0 0
28.72 0 0
28.76 0 0
28.8 0 0
28.84 0 0
28.88 0 0
28.92 0 0
28.96 0 0
29 0 0
29.04 0 0
29.08 0 0
29.12 0 0
29.16 0 0
29.2 0 0
29.24 0 0
29.28 0 0
29.32 0 0
29.36 0 0
29.4 0 0
29.44 0 0
29.48 0 0
29.52 0 0
29.56 0 0
29.6 0 0
29.64 0 0
29.68 0 0
29.72 0 0
29.76 0 0
29.8 0 0
29.84 0 0
29.88 0 0
29.92 0 0
29.96 0 0
30 0 0
30.04 0 0
30.08 0 0
30.12 0 0
30.16 0 0
30.2 0 0
30.24 0 0
30.28 0 0
30.32 0 0
30.36 0 0
30.4 0 0
30.44 0 0
30.48 0 0
30.52 0 0
30.56 0 0
30.6 0 0
30.64 0 0
30.68 0 0
30.72 0 0
30.76 0 0
30.8 0 0
30.84 0 0
30.88 0 0
30.92 0 0
30.96 0 0
31 0 0
31.04 0 0
31.08 0 0
31.12 0 0
31.16 0 0
31.2 0 0
31.24 0 0
31.28 0 0
31.32 0 0
31.36 0 0
31.4 0 0
31.44 0 0
31.48 0 0
31.52 0 0
31.56 0 0
31.6 0 0
31.64 0 0
31.68 0 0
31.72 0 0
31.76 0 0
31.8 0 0
31.84 0 0
31.88 0 0
31.92 0 0
31.96 0 0
0 0.005 0
0.04 0.005 0
0.08 0.005 0
0.12 0.005 0
0.16 0.005 0
0.2 0.005 0
0.24 0.005 0
0.28 0.005 0
0.32 0.005 0
0.36 0.005 0
0.4 0.005 0
0.44 0.005 0
0.48 0.005 0
0.52 0.005 0
0.56 0.005 0
0.6 0.005 0
0.64 0.005 0
0.68 0.005 0
0.72 0.005 0
0.76 0.005 0
0.8 0.005 0
0.84 0.005 0
0.88 0.005 0
0.92 0.005 0
0.96 0.005 0
1 0.005 0
1.04 0.005 0
1.08 0.005 0
1.12 0.005 0
1.16 0.005 0
1.2 0.005 0
1.24 0.005 0
1.28 0.005 0
1.32 0.005 0
1.36 0.005 0
1.4 0.005 0
1.44 0.005 0
1.48 0.005 0
1.52 0.005 0
1.56 0.005 0
1.6 0.005 0
1.64 0.005 0
1.68 0.005 0
1.72 0.005 0
1.76 0.005 0
1.8 0.005 0
1.84 0.005 0
1.88 0.005 0
1.92 0.005 0
1.96 0.005 0
2 0.005 0
2.04 0.005 0
2.08 0.005 0
2.12 0.005 0
2.16 0.005 0
2.2 0.005 0
2.24 0.005 0
2.28 0.005 0
2.32 0.005 0
2.36 0.005 0
2.4 0.005 0
2.44 0.005 0
2.48 0.005 0
2.52 0.005 0
2.56 0.005 0
2.6 0.005 0
2.64 0.005 0
2.68 0.005 0
2.72 0.005 0
2.76 0.005 0
2.8 0.005 0
2.84 0.005 0
2.88 0.005 0
2.92 0.005 0
2.96 0.005 0
3 0.005 0
3.04 0.005 0
3.08 0.005 0
3.12 0.005 0
3.16 0.005 0
3.2 0.005 0
3.24 0.005 0
3.28 0.005 0
3.32 0.005 0
3.36 0.005 0
3.4 0.005 0
3.44 0.005 0
3.48 0.005 0
3.52 0.005 0
3.56 0.005 0
3.6 0.005 0
3.64 0.005 0
3.68 0.005 0
3.72 0.005 0
3.76 0.005 0
3.8 0.005 0
3.84 0.005 0
3.88 0.005 0
3.92 0.005 0
3.96 0.005 0
4 0.005 0
4.04 0.005 0
4.08 0.005 0
4.12 0.005 0
4.16 0.005 0
4.2 0.005 0
4.24 0.005 0
4.28 0.005 0
4.32 0.005 0
4.36 0.005 0
4.4 0.005 0
4.44 0.005 0
4.48 0.005 0
4.52 0.005 0
4.56 0.005 0
4.6 0.005 0
4.64 0.005 0
4.68 0.005 0
4.72 0.005 0
4.76 0.005 0
4.8 0.005 0
4.84 0.005 0
4.88 0.005 0
4.92 0.005 0
4.96 0.005 0
5 0.005 0
5.04 0.005 0
5.08 0.005 0
5.12 0.005 0
5.16 0.005 0
5.2 0.005 0
5.24 0.005 0
5.28 0.005 0
5.32 0.005 0
5.36 0.005 0
5.4 0.005 0
5.44 0.005 0
5.48 0.005 0
5.52 0.005 0
5.56 0.005 0
5.6 0.005 0
5.64 0.005 0
5.68 0.005 0
5.72 0.005 0
5.76 0.005 0
5.8 0.005 0
5.84 0.005 0
5.88 0.005 0
5.92 0.005 0
5.96 0.005 0
6 0.005 0
6.04 0.005 0
6.08 0.005 0
6.12 0.005 0
6.16 0.005 0
6.2 0.005 0
6.24 0.005 0
6.28 0.005 0
6.32 0.005 0
6.36 0.005 0
6.4 0.005 0
6.44 0.005 0
6.48 0.005 0
6.52 0.005 0
6.56 0.005 0
6.6 0.005 0
6.64 0.005 0
6.68 0.005 0
6.72 0.005 0
6.76 0.005 0
6.8 0.005 0
6.84 0.005 0
6.88 0.005 0
6.92 0.005 0
6.96 0.005 0
7 0.005 0
7.04 0.005 0
7.08 0.005 0
7.12 0.005 0
7.16 0.005 0
7.2 0.005 0
7.24 0.005 0
7.28 0.005 0
7.32 0.005 0
7.36 0.005 0
7.4 0.005 0
[...]
POINT_DATA 160000

SCALARS v float 1
LOOKUP_TABLE default
0
0
0
0
0
0
0
0
0
0
0
0
0
0
0
0
0
0
0
0
0
0
0
0
0
0
0
0
0
0
0
0
0
0
0
0
0
0
0
0
0
0
0
0
0
0
0
0
0
0
0
0
0
0
0
0
0
0
0
0
0
0
0
0
0
0
0
0
0
0
0
0
0
0
0
0
0
0
0
0
0
0
0
0
0
0
0
0
0
0
0
0
0
0
0
0
0
0
0
0
0
0
0
0
0
0
0
0
0
0
0
0
0
0
0
0
0
0
0
0
0
0
0
0
0
0
0
0
0
0
0
0
0
0
0
0
0
0
0
0
0
0
0
0
0
0
0
0
0
0
0
0
0
0
0
0
0
0
0
0
0
0
0
0
0
0
0
0
0
0
0
0
0
0
0
0
0
0
0
0
0
0
0
0
0
0
0
0
0
0
0
0
0
0
0
0
0
0
0
0
0
0
0
0
0
0
0
0
0
0
0
0
0
0
0
0
0
0
0
0
0
0
0
0
0
0
0
0
0
0
0
0
0
0
0
0
0
0
0
0
0
0
0
0
0
0
0
0
0
0
0
0
0
0
0
0
0
0
0
0
0
0
0
0
0
0
0
0
0
0
0
0
0
0
0
0
0
0
0
0
0
0
0
0
0
0
0
0
0
0
0
0
0
0
0
0
0
0
0
0
0
0
0
0
0
0
0
0
0
0
0
0
0
0
0
0
0
0
0
0
0
0
0
0
0
0
0
0
0
0
0
0
0
0
0
0
0
0
0
0
0
0
0
0
0
0
0
0
0
0
0
0
0
0
0
0
0
0
0
0
0
0
0
0
0
0
0
0
0
0
0
0
0
0
0
0
0
0
0
0
0
0
0
0
0
0
0
0
0
0
0
0
0
0
0
0
0
0
0
0
0
0
0
0
0
0
0
0
0
0
0
0
0
0
0
0
0
0
0
0
0
0
0
0
0
0
0
0
0
0
0
0
0
0
0
0
0
0
0
0
0
0
0
0
0
0
0
0
0
0
0
0
0
0
0
0
0
0
0
0
0
0
0
0
0
0
0
0
0
0
0
0
0
0
0
0
0
0
0
0
0
0
0
0
0
0
0
0
0
0
0
0
0
0
0
0
0
0
0
0
0
0
0
0
0
0
0
0
0
0
0
0
0
0
0
0
0
0
0
0
0
0
0
0
0
0
0
0
0
0
0
0
0
0
0
0
0
0
0
0
0
0
0
0
0
0
0
0
0
0
0
0
0
0
0
0
0
0
0
0
0
0
0
0
0
0
0
0
0
0
0
0
0
0
0
0
0
0
0
0
0
0
0
0
0
0
0
0
0
0
0
0
0
0
0
0
0
0
0
0
0
0
0
0
0
0
0
0
0
0
0
0
0
0
0
0
0
0
0
0
0
0
0
0
0
0
0
0
0
0
0
0
0
0
0
0
0
0
0
0
0
0
0
0
0
0
0
0
0
0
0
0
0
0
0
0
0
0
0
0
0
0
0
0
0
0
0
0
0
0
0
0
0
0
0
0
0
0
0
0
0
0
0
0
0
0
0
0
0
0
0
0
0
0
0
0
0
0
0
0
0
0
0
0
0
0
0
0
0
0
0
0
0
0
0
0
0
0
0
0
0
0
0
0
0
0
0
0
0
0
0
0
0
0
0
0
0
0
0
0
0
0
0
0
0
0
0
0
0
0
0
0
0
0
0
0
0
0
0
0
0
0
0
0
0
0
0
0
0
0
0
0
0
0
0
0
0
0
0
0
0
0
0
0
0
0
0
0
0
0
0
0
0
0
0
0
0
0
0
0
0
0
0.0374158
0.00938112
0.00346796
0.00176634
0.00108086
0.000737102
0.000538325
0.00041178
0.000325581
0.000263893
0.000218072
0.000183041
0.00015564
0.000133803
0.000116131
0.000101639
8.96208e-05
7.95529e-05
7.10431e-05
6.37912e-05
5.75645e-05
5.21803e-05
4.74939e-05
4.33893e-05
3.9773e-05
3.65689e-05
3.37151e-05
3.11602e-05
2.88621e-05
2.67855e-05
2.49012e-05
2.31843e-05
2.16141e-05
2.0173e-05
1.88459e-05
1.76202e-05
1.64847e-05
1.543e-05
1.44478e-05
1.35312e-05
1.26737e-05
1.18701e-05
1.11154e-05
1.04054e-05
9.73649e-06
9.1052e-06
8.50856e-06
7.94393e-06
7.40889e-06
6.90129e-06
6.41915e-06
5.96072e-06
5.52437e-06
5.10864e-06
4.71219e-06
4.33377e-06
3.97227e-06
3.62664e-06
3.29593e-06
2.97926e-06
2.67582e-06
2.38484e-06
2.10562e-06
1.83752e-06
1.57994e-06
1.33231e-06
1.0941e-06
8.64832e-07
6.44032e-07
4.31281e-07
2.26184e-07
2.83543e-08
-1.62557e-07
-3.46872e-07
-5.24907e-07
-6.9696e-07
-8.63303e-07
-1.0242e-06
-1.17988e-06
-1.33058e-06
-1.47653e-06
-1.61793e-06
-1.75498e-06
-1.88785e-06
-2.01672e-06
-2.14176e-06
-2.26312e-06
-2.38095e-06
-2.4954e-06
-2.60659e-06
-2.71466e-06
-2.81973e-06
-2.92191e-06
-3.02131e-06
-3.11803e-06
-3.21218e-06
-3.30385e-06
-3.39312e-06
-3.48009e-06
-3.56485e-06
-3.64746e-06
-3.728e-06
-3.80655e-06
-3.88318e-06
-3.95794e-06
-4.03091e-06
-4.10214e-06
-4.17168e-06
-4.23961e-06
-4.30597e-06
-4.3708e-06
-4.43416e-06
-4.4961e-06
-4.55666e-06
-4.61589e-06
-4.67382e-06
-4.73049e-06
-4.78595e-06
-4.84024e-06
-4.89337e-06
-4.9454e-06
-4.99634e-06
-5.04624e-06
-5.09513e-06
-5.14303e-06
-5.18999e-06
-5.236e-06
-5.28112e-06
-5.32536e-06
-5.36874e-06
-5.41129e-06
-5.45303e-06
-5.49399e-06
-5.53418e-06
-5.57363e-06
-5.61236e-06
-5.65038e-06
-5.68772e-06
-5.72438e-06
-5.76039e-06
-5.79577e-06
-5.83054e-06
-5.8647e-06
-5.89826e-06
-5.93126e-06
-5.96369e-06
-5.99558e-06
-6.02695e-06
-6.05779e-06
-6.08812e-06
-6.11796e-06
-6.14732e-06
-6.1762e-06
-6.20462e-06
-6.23259e-06
-6.26013e-06
-6.28724e-06
-6.31391e-06
-6.34018e-06
-6.36605e-06
-6.39152e-06
-6.41662e-06
-6.44134e-06
-6.46569e-06
-6.48968e-06
-6.51332e-06
-6.53661e-06
-6.55956e-06
-6.58219e-06
-6.60449e-06
-6.62647e-06
-6.64815e-06
-6.66952e-06
-6.69059e-06
-6.71136e-06
-6.73185e-06
-6.75206e-06
-6.772e-06
-6.79166e-06
-6.81107e-06
-6.8302e-06
-6.84908e-06
-6.86771e-06
-6.8861e-06
-6.90425e-06
-6.92216e-06
-6.93984e-06
-6.95729e-06
-6.97451e-06
-6.99151e-06
-7.0083e-06
-7.02488e-06
-7.04125e-06
-7.05741e-06
-7.07337e-06
-7.08912e-06
-7.10469e-06
-7.12006e-06
-7.13525e-06
-7.15025e-06
-7.16507e-06
-7.17971e-06
-7.19418e-06
-7.20846e-06
-7.22257e-06
-7.23652e-06
-7.2503e-06
-7.26393e-06
-7.27739e-06
-7.29069e-06
-7.30383e-06
-7.31682e-06
-7.32966e-06
-7.34236e-06
-7.35491e-06
-7.36731e-06
-7.37956e-06
-7.39168e-06
-7.40366e-06
-7.41551e-06
-7.42722e-06
-7.4388e-06
-7.45025e-06
-7.46156e-06
-7.47276e-06
-7.48383e-06
-7.49477e-06
-7.50559e-06
-7.51628e-06
-7.52687e-06
-7.53735e-06
-7.5477e-06
-7.55794e-06
-7.56806e-06
-7.57808e-06
-7.58798e-06
-7.59777e-06
-7.60747e-06
-7.61706e-06
-7.62654e-06
-7.63592e-06
-7.6452e-06
-7.65438e-06
-7.66346e-06
-7.67244e-06
-7.68133e-06
-7.69012e-06
-7.69882e-06
-7.70743e-06
-7.71594e-06
-7.72437e-06
-7.7327e-06
-7.74095e-06
-7.74911e-06
-7.75718e-06
-7.76517e-06
-7.77307e-06
-7.78089e-06
-7.78863e-06
-7.79629e-06
-7.80387e-06
-7.81136e-06
-7.81878e-06
-7.82613e-06
-7.8334e-06
-7.84058e-06
-7.8477e-06
-7.85474e-06
-7.86171e-06
-7.86861e-06
-7.87543e-06
-7.88218e-06
-7.88887e-06
-7.89548e-06
-7.90203e-06
-7.90851e-06
-7.91492e-06
-7.92127e-06
-7.92755e-06
-7.93378e-06
-7.93993e-06
-7.94601e-06
-7.95204e-06
-7.958e-06
-7.9639e-06
-7.96975e-06
-7.97554e-06
-7.98126e-06
-7.98692e-06
-7.99253e-06
-7.99809e-06
-8.00358e-06
-8.00901e-06
-8.0144e-06
-8.01973e-06
-8.025e-06
-8.03022e-06
-8.03539e-06
-8.0405e-06
-8.04556e-06
-8.05057e-06
-8.05553e-06
-8.06044e-06
-8.0653e-06
-8.07011e-06
-8.07488e-06
-8.07959e-06
-8.08425e-06
-8.08886e-06
-8.09344e-06
-8.09797e-06
-8.10245e-06
-8.10688e-06
-8.11126e-06
-8.11561e-06
-8.11991e-06
-8.12416e-06
-8.12837e-06
-8.13255e-06
-8.13668e-06
-8.14077e-06
-8.14482e-06
-8.14882e-06
-8.15278e-06
-8.1567e-06
-8.16058e-06
-8.16443e-06
-8.16824e-06
-8.172e-06
-8.17574e-06
-8.17943e-06
-8.18308e-06
-8.1867e-06
-8.19028e-06
-8.19382e-06
-8.19733e-06
-8.20081e-06
-8.20425e-06
-8.20766e-06
-8.21103e-06
-8.21436e-06
-8.21766e-06
-8.22093e-06
-8.22417e-06
-8.22737e-06
-8.23054e-06
-8.23368e-06
-8.23679e-06
-8.23987e-06
-8.24291e-06
-8.24592e-06
-8.24891e-06
-8.25187e-06
-8.25479e-06
-8.25768e-06
-8.26054e-06
-8.26338e-06
-8.26619e-06
-8.26897e-06
-8.27172e-06
-8.27444e-06
-8.27714e-06
-8.27981e-06
-8.28245e-06
-8.28506e-06
-8.28765e-06
-8.29022e-06
-8.29275e-06
-8.29527e-06
-8.29776e-06
-8.30022e-06
-8.30265e-06
-8.30506e-06
-8.30745e-06
-8.30981e-06
-8.31215e-06
-8.31447e-06
-8.31676e-06
-8.31903e-06
-8.32128e-06
-8.3235e-06
-8.3257e-06
-8.32788e-06
-8.33004e-06
-8.33218e-06
-8.33429e-06
-8.33639e-06
-8.33846e-06
-8.3405e-06
-8.34253e-06
-8.34454e-06
-8.34653e-06
-8.3485e-06
-8.35045e-06
-8.35238e-06
-8.35429e-06
-8.35618e-06
-8.35805e-06
-8.3599e-06
-8.36174e-06
-8.36355e-06
-8.36535e-06
-8.36713e-06
-8.36889e-06
-8.37064e-06
-8.37236e-06
-8.37407e-06
-8.37576e-06
-8.37743e-06
-8.37909e-06
-8.38073e-06
-8.38236e-06
-8.38396e-06
-8.38555e-06
-8.38713e-06
-8.38869e-06
-8.39023e-06
-8.39175e-06
-8.39327e-06
-8.39476e-06
-8.39625e-06
-8.39771e-06
-8.39916e-06
-8.4006e-06
-8.40202e-06
-8.40344e-06
-8.40483e-06
-8.40621e-06
-8.40758e-06
-8.40893e-06
-8.41026e-06
-8.41159e-06
-8.4129e-06
-8.4142e-06
-8.41548e-06
-8.41675e-06
-8.41801e-06
-8.41926e-06
-8.4205e-06
-8.42172e-06
-8.42293e-06
-8.42412e-06
-8.42531e-06
-8.42649e-06
-8.42765e-06
-8.42879e-06
-8.42993e-06
-8.43106e-06
-8.43217e-06
-8.43327e-06
-8.43437e-06
-8.43545e-06
-8.43652e-06
-8.43758e-06
-8.43862e-06
-8.43966e-06
-8.44069e-06
-8.4417e-06
-8.44271e-06
-8.44371e-06
-8.4447e-06
-8.44567e-06
-8.44664e-06
-8.4476e-06
-8.44855e-06
-8.44948e-06
-8.45041e-06
-8.45132e-06
-8.45223e-06
-8.45313e-06
-8.45403e-06
-8.45491e-06
-8.45578e-06
-8.45665e-06
-8.4575e-06
-8.45835e-06
-8.45919e-06
-8.46002e-06
-8.46083e-06
-8.46164e-06
-8.46245e-06
-8.46325e-06
-8.46404e-06
-8.46482e-06
-8.46559e-06
-8.46634e-06
-8.46711e-06
-8.46786e-06
-8.46861e-06
-8.46933e-06
-8.47006e-06
-8.47078e-06
-8.47149e-06
-8.47219e-06
-8.47289e-06
-8.47358e-06
-8.47427e-06
-8.47495e-06
-8.47562e-06
-8.47628e-06
-8.47693e-06
-8.47757e-06
-8.47822e-06
-8.47886e-06
-8.47948e-06
-8.48011e-06
-8.48073e-06
-8.48134e-06
-8.48194e-06
-8.48253e-06
-8.48313e-06
-8.48371e-06
-8.48429e-06
-8.48487e-06
-8.48543e-06
-8.486e-06
-8.48655e-06
-8.48711e-06
-8.48765e-06
-8.48819e-06
-8.48873e-06
-8.48926e-06
-8.48979e-06
-8.4903e-06
-8.49082e-06
-8.49132e-06
-8.49183e-06
-8.49233e-06
-8.49282e-06
-8.49331e-06
-8.49379e-06
-8.49428e-06
-8.49476e-06
-8.49523e-06
-8.49569e-06
-8.49615e-06
-8.49661e-06
-8.49707e-06
-8.49752e-06
-8.49796e-06
-8.49841e-06
-8.49885e-06
-8.49928e-06
-8.49971e-06
-8.50013e-06
-8.50055e-06
-8.50098e-06
-8.5014e-06
-8.50181e-06
-8.50222e-06
-8.50263e-06
-8.50303e-06
-8.50343e-06
-8.50383e-06
-8.50422e-06
-8.50461e-06
-8.505e-06
-8.50539e-06
-8.50577e-06
-8.50615e-06
-8.50653e-06
-8.50691e-06
-8.50729e-06
-8.50765e-06
-8.50802e-06
-8.50839e-06
-8.50875e-06
-8.50911e-06
-8.50947e-06
-8.50983e-06
-8.51018e-06
-8.51054e-06
-8.5109e-06
-8.51125e-06
-8.51159e-06
-8.51194e-06
-8.51228e-06
-8.51262e-06
-8.51296e-06
-8.5133e-06
-8.51364e-06
-8.51397e-06
-8.51431e-06
-8.51464e-06
-8.51497e-06
-8.5153e-06
-8.51563e-06
-8.51596e-06
-8.51628e-06
-8.5166e-06
-8.51692e-06
-8.51725e-06
-8.51757e-06
-8.51789e-06
-8.5182e-06
-8.51851e-06
-8.51883e-06
-8.51914e-06
-8.51945e-06
-8.51975e-06
-8.52006e-06
-8.52037e-06
-8.52067e-06
-8.52097e-06
-8.52128e-06
-8.52158e-06
-8.52187e-06
-8.52217e-06
-8.52247e-06
-8.52276e-06
-8.52305e-06
-8.52333e-06
-8.52362e-06
-8.52391e-06
-8.5242e-06
-8.52448e-06
-8.52476e-06
-8.52504e-06
-8.52532e-06
-8.52559e-06
-8.52586e-06
-8.52613e-06
-8.5264e-06
-8.52666e-06
-8.52693e-06
-8.52719e-06
-8.52745e-06
-8.52771e-06
-8.52797e-06
-8.52821e-06
-8.52846e-06
-8.52871e-06
-8.52896e-06
-8.5292e-06
-8.52944e-06
-8.52968e-06
-8.52992e-06
-8.53015e-06
-8.53038e-06
-8.53061e-06
-8.53083e-06
-8.53106e-06
-8.53128e-06
-8.5315e-06
-8.53171e-06
-8.53192e-06
-8.53213e-06
-8.53234e-06
-8.53254e-06
-8.53274e-06
-8.53294e-06
-8.53313e-06
-8.53332e-06
-8.53351e-06
-8.5337e-06
-8.53388e-06
-8.53406e-06
-8.53423e-06
-8.53441e-06
-8.53458e-06
-8.53475e-06
-8.53492e-06
-8.53508e-06
-8.53524e-06
-8.5354e-06
-8.53554e-06
-8.53569e-06
-8.53584e-06
-8.53599e-06
-8.53613e-06
-8.53626e-06
-8.5364e-06
-8.53653e-06
-8.53667e-06
-8.53679e-06
-8.5369e-06
-8.53702e-06
-8.53715e-06
-8.53727e-06
-8.53738e-06
-8.53749e-06
-8.5376e-06
-8.53771e-06
-8.53781e-06
-8.53791e-06
-8.538e-06
-8.53809e-06
-8.53819e-06
-8.53828e-06
-8.53837e-06
-8.53845e-06
-8.53854e-06
-8.53861e-06
-8.53869e-06
-8.53876e-06
-8.53883e-06
-8.5389e-06
-8.53897e-06
-8.53904e-06
-8.53911e-06
-8.53917e-06
-8.53923e-06
-8.53929e-06
-8.53934e-06
-8.5394e-06
-8.53945e-06
-8.5395e-06
-8.53955e-06
-8.53959e-06
-8.53964e-06
-8.53969e-06
-8.53973e-06
-8.53977e-06
-8.5398e-06
-8.53984e-06
-8.53988e-06
-8.53992e-06
-8.53995e-06
-8.53998e-06
-8.54001e-06
-8.54004e-06
-8.54007e-06
-8.54009e-06
-8.54012e-06
-8.54014e-06
-8.54017e-06
-8.5402e-06
-8.54022e-06
-8.54023e-06
-8.54025e-06
-8.54028e-06
-8.54029e-06
-8.54031e-06
-8.54033e-06
-8.54034e-06
-8.54036e-06
-8.54038e-06
-8.54039e-06
-8.5404e-06
-8.54041e-06
-8.54042e-06
-8.54044e-06
-8.54045e-06
-8.54045e-06
-8.54047e-06
-8.54048e-06
-8.54049e-06
-8.54049e-06
-8.54049e-06
-8.5405e-06
-8.54052e-06
-8.54052e-06
-8.54053e-06
-8.54053e-06
-8.54054e-06
-8.54055e-06
-8.54055e-06
-8.54055e-06
-8.54055e-06
-8.54056e-06
-8.54055e-06
-8.54055e-06
-8.54055e-06
-8.54055e-06
-8.54055e-06
-8.54054e-06
-8.54053e-06
-8.54051e-06
-8.54049e-06
-8.54047e-06
-8.54043e-06
-8.54038e-06
-8.54032e-06
-8.54025e-06
-8.54015e-06
-8.54003e-06
-8.53987e-06
-8.53967e-06
-8.53941e-06
-8.53909e-06
-8.53867e-06
-8.53815e-06
-8.53746e-06
-8.53663e-06
-8.53547e-06
-8.53416e-06
-8.53222e-06
-8.53016e-06
-8.52673e-06
-8.52361e-06
-8.51716e-06
-8.51301e-06
-8.49882e-06
-8.4976e-06
-8.45519e-06
-8.527e-06
-6.0295e-06
-6.0295e-06
0
0
0.0966101
0.0320527
0.0130062
0.00682636
0.00423606
0.00291413
0.00214249
0.00164841
0.00131055
0.00106807
0.00088756
0.000749313
0.000641009
0.000554586
0.000484562
0.000427082
0.000379368
0.000339365
0.000305529
0.000276676
0.000251889
0.000230447
0.000211777
0.000195421
0.000181007
0.000168236
0.000156859
0.000146675
0.000137515
0.000129239
0.000121729
0.000114889
0.000108634
0.000102895
9.76116e-05
9.27324e-05
8.82137e-05
8.40175e-05
8.01111e-05
7.64659e-05
7.30571e-05
6.98628e-05
6.68639e-05
6.40434e-05
6.13863e-05
5.88792e-05
5.65102e-05
5.42686e-05
5.21449e-05
5.01304e-05
4.82172e-05
4.63983e-05
4.46673e-05
4.30183e-05
4.14458e-05
3.99451e-05
3.85116e-05
3.71412e-05
3.583e-05
3.45746e-05
3.33717e-05
3.22183e-05
3.11117e-05
3.00491e-05
2.90283e-05
2.8047e-05
2.7103e-05
2.61945e-05
2.53197e-05
2.44768e-05
2.36642e-05
2.28804e-05
2.21242e-05
2.1394e-05
2.06887e-05
2.00072e-05
1.93483e-05
1.87111e-05
1.80944e-05
1.74975e-05
1.69195e-05
1.63595e-05
1.58168e-05
1.52906e-05
1.47802e-05
1.42851e-05
1.38045e-05
1.33379e-05
1.28847e-05
1.24444e-05
1.20165e-05
1.16005e-05
1.1196e-05
1.08024e-05
1.04195e-05
1.00467e-05
9.68381e-06
9.33036e-06
8.98603e-06
8.6505e-06
8.32346e-06
8.00461e-06
7.69366e-06
7.39033e-06
7.09437e-06
6.80554e-06
6.52359e-06
6.24829e-06
5.97942e-06
5.71678e-06
5.46015e-06
5.20935e-06
4.9642e-06
4.7245e-06
4.49009e-06
4.26081e-06
4.0365e-06
3.817e-06
3.60218e-06
3.39189e-06
3.18599e-06
2.98436e-06
2.78687e-06
2.5934e-06
2.40382e-06
2.21803e-06
2.03593e-06
1.8574e-06
1.68236e-06
1.51069e-06
1.34232e-06
1.17715e-06
1.01508e-06
8.5604e-07
6.99946e-07
5.46718e-07
3.9628e-07
2.48562e-07
1.03494e-07
-3.89968e-08
-1.78976e-07
-3.16506e-07
-4.51645e-07
-5.84453e-07
-7.14991e-07
-8.43318e-07
-9.6949e-07
-1.09356e-06
-1.21556e-06
-1.33556e-06
-1.45359e-06
-1.56972e-06
-1.68397e-06
-1.7964e-06
-1.90706e-06
-2.01597e-06
-2.12317e-06
-2.22871e-06
-2.33262e-06
-2.43494e-06
-2.53571e-06
-2.63497e-06
-2.73273e-06
-2.82903e-06
-2.92391e-06
-3.0174e-06
-3.10951e-06
-3.2003e-06
-3.28977e-06
-3.37797e-06
-3.46491e-06
-3.55062e-06
-3.63513e-06
-3.71844e-06
-3.8006e-06
-3.88163e-06
-3.96155e-06
-4.04037e-06
-4.11813e-06
-4.19484e-06
-4.27051e-06
-4.34518e-06
-4.41885e-06
-4.49155e-06
-4.5633e-06
-4.63412e-06
-4.70401e-06
-4.773e-06
-4.84109e-06
-4.90832e-06
-4.9747e-06
-5.04023e-06
-5.10493e-06
-5.16882e-06
-5.23191e-06
-5.29421e-06
-5.35574e-06
-5.41652e-06
-5.47655e-06
-5.53584e-06
-5.59442e-06
-5.65228e-06
-5.70945e-06
-5.76592e-06
-5.82171e-06
-5.87685e-06
-5.93133e-06
-5.98516e-06
-6.03836e-06
-6.09093e-06
-6.14288e-06
-6.19422e-06
-6.24498e-06
-6.29514e-06
-6.34472e-06
-6.39373e-06
-6.44218e-06
-6.49007e-06
-6.53742e-06
-6.58423e-06
-6.6305e-06
-6.67626e-06
-6.72149e-06
-6.76622e-06
-6.81045e-06
-6.85418e-06
-6.89742e-06
-6.94017e-06
-6.98246e-06
-7.02429e-06
-7.06565e-06
-7.10655e-06
-7.147e-06
-7.187e-06
-7.22657e-06
-7.2657e-06
-7.30441e-06
-7.3427e-06
-7.38058e-06
-7.41804e-06
-7.4551e-06
-7.49175e-06
-7.52802e-06
-7.56389e-06
-7.59938e-06
-7.63448e-06
-7.66922e-06
-7.70358e-06
-7.73757e-06
-7.77121e-06
-7.80448e-06
-7.8374e-06
-7.86997e-06
-7.9022e-06
-7.93409e-06
-7.96564e-06
-7.99686e-06
-8.02775e-06
-8.05832e-06
-8.08857e-06
-8.1185e-06
-8.14811e-06
-8.17742e-06
-8.20642e-06
-8.23511e-06
-8.26351e-06
-8.29161e-06
-8.31942e-06
-8.34694e-06
-8.37418e-06
-8.40113e-06
-8.4278e-06
-8.4542e-06
-8.48032e-06
-8.50618e-06
-8.53176e-06
-8.55708e-06
-8.58214e-06
-8.60696e-06
-8.63151e-06
-8.6558e-06
-8.67984e-06
-8.70364e-06
-8.72719e-06
-8.7505e-06
-8.77358e-06
-8.79642e-06
-8.81902e-06
-8.84139e-06
-8.86354e-06
-8.88546e-06
-8.90715e-06
-8.92862e-06
-8.94987e-06
-8.97091e-06
-8.99173e-06
-9.01234e-06
-9.03273e-06
-9.05292e-06
-9.07291e-06
-9.09269e-06
-9.11227e-06
-9.13165e-06
-9.15084e-06
-9.16983e-06
-9.18862e-06
-9.20723e-06
-9.22564e-06
-9.24387e-06
-9.26192e-06
-9.27979e-06
-9.29746e-06
-9.31496e-06
-9.33228e-06
-9.34943e-06
-9.36641e-06
-9.3832e-06
-9.39984e-06
-9.41631e-06
-9.43261e-06
-9.44874e-06
-9.46471e-06
-9.48051e-06
-9.49615e-06
-9.51164e-06
-9.52698e-06
-9.54216e-06
-9.55718e-06
-9.57205e-06
-9.58678e-06
-9.60135e-06
-9.61577e-06
-9.63005e-06
-9.64419e-06
-9.65818e-06
-9.67203e-06
-9.68575e-06
-9.69932e-06
-9.71276e-06
-9.72606e-06
-9.73923e-06
-9.75226e-06
-9.76516e-06
-9.77793e-06
-9.79058e-06
-9.80309e-06
-9.81548e-06
-9.82775e-06
-9.83989e-06
-9.8519e-06
-9.8638e-06
-9.87558e-06
-9.88724e-06
-9.89877e-06
-9.91019e-06
-9.9215e-06
-9.93269e-06
-9.94377e-06
-9.95474e-06
-9.9656e-06
-9.97635e-06
-9.987e-06
-9.99753e-06
-1.0008e-05
-1.00183e-05
-1.00285e-05
-1.00386e-05
-1.00486e-05
-1.00585e-05
-1.00683e-05
-1.00781e-05
-1.00877e-05
-1.00972e-05
-1.01066e-05
-1.01159e-05
-1.01252e-05
-1.01343e-05
-1.01433e-05
-1.01523e-05
-1.01612e-05
-1.01699e-05
-1.01786e-05
-1.01872e-05
-1.01957e-05
-1.02042e-05
-1.02125e-05
-1.02208e-05
-1.02289e-05
-1.0237e-05
-1.0245e-05
-1.0253e-05
-1.02608e-05
-1.02686e-05
-1.02763e-05
-1.02839e-05
-1.02914e-05
-1.02989e-05
-1.03063e-05
-1.03136e-05
-1.03208e-05
-1.0328e-05
-1.03351e-05
-1.03421e-05
-1.0349e-05
-1.03559e-05
-1.03627e-05
-1.03695e-05
-1.03761e-05
-1.03828e-05
-1.03893e-05
-1.03958e-05
-1.04022e-05
-1.04085e-05
-1.04148e-05
-1.0421e-05
-1.04272e-05
-1.04332e-05
-1.04393e-05
-1.04452e-05
-1.04511e-05
-1.0457e-05
-1.04628e-05
-1.04685e-05
-1.04742e-05
-1.04798e-05
-1.04853e-05
-1.04908e-05
-1.04963e-05
-1.05017e-05
-1.0507e-05
-1.05123e-05
-1.05175e-05
-1.05227e-05
-1.05278e-05
-1.05329e-05
-1.05379e-05
-1.05429e-05
-1.05478e-05
-1.05527e-05
-1.05575e-05
-1.05622e-05
-1.0567e-05
-1.05716e-05
-1.05763e-05
-1.05809e-05
-1.05854e-05
-1.05899e-05
-1.05943e-05
-1.05987e-05
-1.06031e-05
-1.06074e-05
-1.06116e-05
-1.06159e-05
-1.062e-05
-1.06242e-05
-1.06283e-05
-1.06323e-05
-1.06363e-05
-1.06403e-05
-1.06442e-05
-1.06481e-05
-1.0652e-05
-1.06558e-05
-1.06596e-05
-1.06633e-05
-1.0667e-05
-1.06707e-05
-1.06743e-05
-1.06779e-05
-1.06814e-05
-1.06849e-05
-1.06884e-05
-1.06919e-05
-1.06953e-05
-1.06986e-05
-1.0702e-05
-1.07053e-05
-1.07086e-05
-1.07118e-05
-1.0715e-05
-1.07182e-05
-1.07213e-05
-1.07244e-05
-1.07275e-05
-1.07305e-05
-1.07336e-05
-1.07366e-05
-1.07395e-05
-1.07424e-05
-1.07453e-05
-1.07482e-05
-1.0751e-05
-1.07538e-05
-1.07566e-05
-1.07594e-05
-1.07621e-05
-1.07648e-05
-1.07675e-05
-1.07701e-05
-1.07727e-05
-1.07753e-05
-1.07778e-05
-1.07804e-05
-1.07829e-05
-1.07854e-05
-1.07878e-05
-1.07903e-05
-1.07927e-05
-1.0795e-05
-1.07974e-05
-1.07997e-05
-1.0802e-05
-1.08043e-05
-1.08066e-05
-1.08088e-05
-1.08111e-05
-1.08133e-05
-1.08154e-05
-1.08176e-05
-1.08197e-05
-1.08218e-05
-1.08239e-05
-1.0826e-05
-1.0828e-05
-1.08301e-05
-1.08321e-05
-1.08341e-05
-1.0836e-05
-1.0838e-05
-1.08399e-05
-1.08418e-05
-1.08437e-05
-1.08456e-05
-1.08475e-05
-1.08493e-05
-1.08512e-05
-1.0853e-05
-1.08548e-05
-1.08565e-05
-1.08583e-05
-1.08601e-05
-1.08618e-05
-1.08635e-05
-1.08652e-05
-1.08669e-05
-1.08686e-05
-1.08702e-05
-1.08719e-05
-1.08735e-05
-1.08751e-05
-1.08768e-05
-1.08783e-05
-1.08799e-05
-1.08815e-05
-1.08831e-05
-1.08846e-05
-1.08862e-05
-1.08877e-05
-1.08892e-05
-1.08907e-05
-1.08922e-05
-1.08937e-05
-1.08952e-05
-1.08967e-05
-1.08981e-05
-1.08996e-05
-1.0901e-05
-1.09024e-05
-1.09039e-05
-1.09053e-05
-1.09067e-05
-1.09081e-05
-1.09095e-05
-1.09109e-05
-1.09123e-05
-1.09136e-05
-1.0915e-05
-1.09164e-05
-1.09177e-05
-1.09191e-05
-1.09204e-05
-1.09217e-05
-1.09231e-05
-1.09244e-05
-1.09257e-05
-1.0927e-05
-1.09283e-05
-1.09296e-05
-1.09309e-05
-1.09322e-05
-1.09335e-05
-1.09348e-05
-1.0936e-05
-1.09373e-05
-1.09385e-05
-1.09398e-05
-1.0941e-05
-1.09423e-05
-1.09435e-05
-1.09447e-05
-1.0946e-05
-1.09472e-05
-1.09484e-05
-1.09496e-05
-1.09508e-05
-1.0952e-05
-1.09532e-05
-1.09543e-05
-1.09555e-05
-1.09567e-05
-1.09578e-05
-1.0959e-05
-1.09601e-05
-1.09613e-05
-1.09624e-05
-1.09635e-05
-1.09646e-05
-1.09657e-05
-1.09668e-05
-1.09679e-05
-1.0969e-05
-1.09701e-05
-1.09711e-05
-1.09722e-05
-1.09732e-05
-1.09743e-05
-1.09753e-05
-1.09763e-05
-1.09773e-05
-1.09783e-05
-1.09793e-05
-1.09803e-05
-1.09813e-05
-1.09823e-05
-1.09832e-05
-1.09842e-05
-1.09851e-05
-1.0986e-05
-1.09869e-05
-1.09878e-05
-1.09887e-05
-1.09896e-05
-1.09905e-05