# vtk DataFile Version 2.0
FlowField
ASCII
DATASET STRUCTURED_GRID
DIMENSIONS 800 1 200
POINTS 160000 float
0 0 0
0.04 0 0
0.08 0 0
0.12 0 0
0.16 0 0
0.2 0 0
0.24 0 0
0.28 0 0
0.32 0 0
0.36 0 0
0.4 0 0
0.44 0 0
0.48 0 0
0.52 0 0
0.56 0 0
0.6 0 0
0.64 0 0
0.68 0 0
0.72 0 0
0.76 0 0
0.8 0 0
0.84 0 0
0.88 0 0
0.92 0 0
0.96 0 0
1 0 0
1.04 0 0
1.08 0 0
1.12 0 0
1.16 0 0
1.2 0 0
1.24 0 0
1.28 0 0
1.32 0 0
1.36 0 0
1.4 0 0
1.44 0 0
1.48 0 0
1.52 0 0
1.56 0 0
1.6 0 0
1.64 0 0
1.68 0 0
1.72 0 0
1.76 0 0
1.8 0 0
1.84 0 0
1.88 0 0
1.92 0 0
1.96 0 0
2 0 0
2.04 0 0
2.08 0 0
2.12 0 0
2.16 0 0
2.2 0 0
2.24 0 0
2.28 0 0
2.32 0 0
2.36 0 0
2.4 0 0
2.44 0 0
2.48 0 0
2.52 0 0
2.56 0 0
2.6 0 0
2.64 0 0
2.68 0 0
2.72 0 0
2.76 0 0
2.8 0 0
2.84 0 0
2.88 0 0
2.92 0 0
2.96 0 0
3 0 0
3.04 0 0
3.08 0 0
3.12 0 0
3.16 0 0
3.2 0 0
3.24 0 0
3.28 0 0
3.32 0 0
3.36 0 0
3.4 0 0
3.44 0 0
3.48 0 0
3.52 0 0
3.56 0 0
3.6 0 0
3.64 0 0
3.68 0 0
3.72 0 0
3.76 0 0
3.8 0 0
3.84 0 0
3.88 0 0
3.92 0 0
3.96 0 0
4 0 0
4.04 0 0
4.08 0 0
4.12 0 0
4.16 0 0
4.2 0 0
4.24 0 0
4.28 0 0
4.32 0 0
4.36 0 0
4.4 0 0
4.44 0 0
4.48 0 0
4.52 0 0
4.56 0 0
4.6 0 0
4.64 0 0
4.68 0 0
4.72 0 0
4.76 0 0
4.8 0 0
4.84 0 0
4.88 0 0
4.92 0 0
4.96 0 0
5 0 0
5.04 0 0
5.08 0 0
5.12 0 0
5.16 0 0
5.2 0 0
5.24 0 0
5.28 0 0
5.32 0 0
5.36 0 0
5.4 0 0
5.44 0 0
5.48 0 0
5.52 0 0
5.56 0 0
5.6 0 0
5.64 0 0
5.68 0 0
5.72 0 0
5.76 0 0
5.8 0 0
5.84 0 0
5.88 0 0
5.92 0 0
5.96 0 0
6 0 0
6.04 0 0
6.08 0 0
6.12 0 0
6.16 0 0
6.2 0 0
6.24 0 0
6.28 0 0
6.32 0 0
6.36 0 0
6.4 0 0
6.44 0 0
6.48 0 0
6.52 0 0
6.56 0 0
6.6 0 0
6.64 0 0
6.68 0 0
6.72 0 0
6.76 0 0
6.8 0 0
6.84 0 0
6.88 0 0
6.92 0 0
6.96 0 0
7 0 0
7.04 0 0
7.08 0 0
7.12 0 0
7.16 0 0
7.2 0 0
7.24 0 0
7.28 0 0
7.32 0 0
7.36 0 0
7.4 0 0
7.44 0 0
7.48 0 0
7.52 0 0
7.56 0 0
7.6 0 0
7.64 0 0
7.68 0 0
7.72 0 0
7.76 0 0
7.8 0 0
7.84 0 0
7.88 0 0
7.92 0 0
7.96 0 0
8 0 0
8.04 0 0
8.08 0 0
8.12 0 0
8.16 0 0
8.2 0 0
8.24 0 0
8.28 0 0
8.32 0 0
8.36 0 0
8.4 0 0
8.44 0 0
8.48 0 0
8.52 0 0
8.56 0 0
8.6 0 0
8.64 0 0
8.68 0 0
8.72 0 0
8.76 0 0
8.8 0 0
8.84 0 0
8.88 0 0
8.92 0 0
8.96 0 0
9 0 0
9.04 0 0
9.08 0 0
9.12 0 0
9.16 0 0
9.2 0 0
9.24 0 0
9.28 0 0
9.32 0 0
9.36 0 0
9.4 0 0
9.44 0 0
9.48 0 0
9.52 0 0
9.56 0 0
9.6 0 0
9.64 0 0
9.68 0 0
9.72 0 0
9.76 0 0
9.8 0 0
9.84 0 0
9.88 0 0
9.92 0 0
9.96 0 0
10 0 0
10.04 0 0
10.08 0 0
10.12 0 0
10.16 0 0
10.2 0 0
10.24 0 0
10.28 0 0
10.32 0 0
10.36 0 0
10.4 0 0
10.44 0 0
10.48 0 0
10.52 0 0
10.56 0 0
10.6 0 0
10.64 0 0
10.68 0 0
10.72 0 0
10.76 0 0
10.8 0 0
10.84 0 0
10.88 0 0
10.92 0 0
10.96 0 0
11 0 0
11.04 0 0
11.08 0 0
11.12 0 0
11.16 0 0
11.2 0 0
11.24 0 0
11.28 0 0
11.32 0 0
11.36 0 0
11.4 0 0
11.44 0 0
11.48 0 0
11.52 0 0
11.56 0 0
11.6 0 0
11.64 0 0
11.68 0 0
11.72 0 0
11.76 0 0
11.8 0 0
11.84 0 0
11.88 0 0
11.92 0 0
11.96 0 0
12 0 0
12.04 0 0
12.08 0 0
12.12 0 0
12.16 0 0
12.2 0 0
12.24 0 0
12.28 0 0
12.32 0 0
12.36 0 0
12.4 0 0
12.44 0 0
12.48 0 0
12.52 0 0
12.56 0 0
12.6 0 0
12.64 0 0
12.68 0 0
12.72 0 0
12.76 0 0
12.8 0 0
12.84 0 0
12.88 0 0
12.92 0 0
12.96 0 0
13 0 0
13.04 0 0
13.08 0 0
13.12 0 0
13.16 0 0
13.2 0 0
13.24 0 0
13.28 0 0
13.32 0 0
13.36 0 0
13.4 0 0
13.44 0 0
13.48 0 0
13.52 0 0
13.56 0 0
13.6 0 0
13.64 0 0
13.68 0 0
13.72 0 0
13.76 0 0
13.8 0 0
13.84 0 0
13.88 0 0
13.92 0 0
13.96 0 0
14 0 0
14.04 0 0
14.08 0 0
14.12 0 0
14.16 0 0
14.2 0 0
14.24 0 0
14.28 0 0
14.32 0 0
14.36 0 0
14.4 0 0
14.44 0 0
14.48 0 0
14.52 0 0
14.56 0 0
14.6 0 0
14.64 0 0
14.68 0 0
14.72 0 0
14.76 0 0
14.8 0 0
14.84 0 0
14.88 0 0
14.92 0 0
14.96 0 0
15 0 0
15.04 0 0
15.08 0 0
15.12 0 0
15.16 0 0
15.2 0 0
15.24 0 0
15.28 0 0
15.32 0 0
15.36 0 0
15.4 0 0
15.44 0 0
15.48 0 0
15.52 0 0
15.56 0 0
15.6 0 0
15.64 0 0
15.68 0 0
15.72 0 0
15.76 0 0
15.8 0 0
15.84 0 0
15.88 0 0
15.92 0 0
15.96 0 0
16 0 0
16.04 0 0
16.08 0 0
16.12 0 0
16.16 0 0
16.2 0 0
16.24 0 0
16.28 0 0
16.32 0 0
16.36 0 0
16.4 0 0
16.44 0 0
16.48 0 0
16.52 0 0
16.56 0 0
16.6 0 0
16.64 0 0
16.68 0 0
16.72 0 0
16.76 0 0
16.8 0 0
16.84 0 0
16.88 0 0
16.92 0 0
16.96 0 0
17 0 0
17.04 0 0
17.08 0 0
17.12 0 0
17.16 0 0
17.2 0 0
17.24 0 0
17.28 0 0
17.32 0 0
17.36 0 0
17.4 0 0
17.44 0 0
17.48 0 0
17.52 0 0
17.56 0 0
17.6 0 0
17.64 0 0
17.68 0 0
17.72 0 0
17.76 0 0
17.8 0 0
17.84 0 0
17.88 0 0
17.92 0 0
17.96 0 0
18 0 0
18.04 0 0
18.08 0 0
18.12 0 0
18.16 0 0
18.2 0 0
18.24 0 0
18.28 0 0
18.32 0 0
18.36 0 0
18.4 0 0
18.44 0 0
18.48 0 0
18.52 0 0
18.56 0 0
18.6 0 0
18.64 0 0
18.68 0 0
18.72 0 0
18.76 0 0
18.8 0 0
18.84 0 0
18.88 0 0
18.92 0 0
18.96 0 0
19 0 0
19.04 0 0
19.08 0 0
19.12 0 0
19.16 0 0
19.2 0 0
19.24 0 0
19.28 0 0
19.32 0 0
19.36 0 0
19.4 0 0
19.44 0 0
19.48 0 0
19.52 0 0
19.56 0 0
19.6 0 0
19.64 0 0
19.68 0 0
19.72 0 0
19.76 0 0
19.8 0 0
19.84 0 0
19.88 0 0
19.92 0 0
19.96 0 0
20 0 0
20.04 0 0
20.08 0 0
20.12 0 0
20.16 0 0
20.2 0 0
20.24 0 0
20.28 0 0
20.32 0 0
20.36 0 0
20.4 0 0
20.44 0 0
20.48 0 0
20.52 0 0
20.56 0 0
20.6 0 0
20.64 0 0
20.68 0 0
20.72 0 0
20.76 0 0
20.8 0 0
20.84 0 0
20.88 0 0
20.92 0 0
20.96 0 0
21 0 0
21.04 0 0
21.08 0 0
21.12 0 0
21.16 0 0
21.2 0 0
21.24 0 0
21.28 0 0
21.32 0 0
21.36 0 0
21.4 0 0
21.44 0 0
21.48 0 0
21.52 0 0
21.56 0 0
21.6 0 0
21.64 0 0
21.68 0 0
21.72 0 0
21.76 0 0
21.8 0 0
21.84 0 0
21.88 0 0
21.92 0 0
21.96 0 0
22 0 0
22.04 0 0
22.08 0 0
22.12 0 0
22.16 0 0
22.2 0 0
22.24 0 0
22.28 0 0
22.32 0 0
22.36 0 0
22.4 0 0
22.44 0 0
22.48 0 0
22.52 0 0
22.56 0 0
22.6 0 0
22.64 0 0
22.68 0 0
22.72 0 0
22.76 0 0
22.8 0 0
22.84 0 0
22.88 0 0
22.92 0 0
22.96 0 0
23 0 0
23.04 0 0
23.08 0 0
23.12 0 0
23.16 0 0
23.2 0 0
23.24 0 0
23.28 0 0
23.32 0 0
23.36 0 0
23.4 0 0
23.44 0 0
23.48 0 0
23.52 0 0
23.56 0 0
23.6 0 0
23.64 0 0
23.68 0 0
23.72 0 0
23.76 0 0
23.8 0 0
23.84 0 0
23.88 0 0
23.92 0 0
23.96 0 0
24 0 0
24.04 0 0
24.08 0 0
24.12 0 0
24.16 0 0
24.2 0 0
24.24 0 0
24.28 0 0
24.32 0 0
24.36 0 0
24.4 0 0
24.44 0 0
24.48 0 0
24.52 0 0
24.56 0 0
24.6 0 0
24.64 0 0
24.68 0 0
24.72 0 0
24.76 0 0
24.8 0 0
24.84 0 0
24.88 0 0
24.92 0 0
24.96 0 0
25 0 0
25.04 0 0
25.08 0 0
25.12 0 0
25.16 0 0
25.2 0 0
25.24 0 0
25.28 0 0
25.32 0 0
25.36 0 0
25.4 0 0
25.44 0 0
25.48 0 0
25.52 0 0
25.56 0 0
25.6 0 0
25.64 0 0
25.68 0 0
25.72 0 0
25.76 0 0
25.8 0 0
25.84 0 0
25.88 0 0
25.92 0 0
25.96 0 0
26 0 0
26.04 0 0
26.08 0 0
26.12 0 0
26.16 0 0
26.2 0 0
26.24 0 0
26.28 0 0
26.32 0 0
26.36 0 0
26.4 0 0
26.44 0 0
26.48 0 0
26.52 0 0
26.56 0 0
26.6 0 0
26.64 0 0
26.68 0 0
26.72 0 0
26.76 0 0
26.8 0 0
26.84 0 0
26.88 0 0
26.92 0 0
26.96 0 0
27 0 0
27.04 0 0
27.08 0 0
27.12 0 0
27.16 0 0
27.2 0 0
27.24 0 0
27.28 0 0
27.32 0 0
27.36 0 0
27.4 0 0
27.44 0 0
27.48 0 0
27.52 0 0
27.56 0 0
27.6 0 0
27.64 0 0
27.68 0 0
27.72 0 0
27.76 0 0
27.8 0 0
27.84 0 0
27.88 0 0
27.92 0 0
27.96 0 0
28 0 0
28.04 0 0
28.08 0 0
28.12 0 0
28.16 0 0
28.2 0 0
28.24 0 0
28.28 0 0
28.32 0 0
28.36 0 0
28.4 0 0
28.44 0 0
28.48 0 0
28.52 0 0
28.56 0 0
28.6 0 0
28.64 0 0
28.68 0 0
28.72 0 0
28.76 0 0
28.8 0 0
28.84 0 0
28.88 0 0
28.92 0 0
28.96 0 0
29 0 0
29.04 0 0
29.08 0 0
29.12 0 0
29.16 0 0
29.2 0 0
29.24 0 0
29.28 0 0
29.32 0 0
29.36 0 0
29.4 0 0
29.44 0 0
29.48 0 0
29.52 0 0
29.56 0 0
29.6 0 0
29.64 0 0
29.68 0 0
29.72 0 0
29.76 0 0
29.8 0 0
29.84 0 0
29.88 0 0
29.92 0 0
29.96 0 0
30 0 0
30.04 0 0
30.08 0 0
30.12 0 0
30.16 0 0
30.2 0 0
30.24 0 0
30.28 0 0
30.32 0 0
30.36 0 0
30.4 0 0
30.44 0 0
30.48 0 0
30.52 0 0
30.56 0 0
30.6 0 0
30.64 0 0
30.68 0 0
30.72 0 0
30.76 0 0
30.8 0 0
30.84 0 0
30.88 0 0
30.92 0 0
30.96 0 0
31 0 0
31.04 0 0
31.08 0 0
31.12 0 0
31.16 0 0
31.2 0 0
31.24 0 0
31.28 0 0
31.32 0 0
31.36 0 0
31.4 0 0
31.44 0 0
31.48 0 0
31.52 0 0
31.56 0 0
31.6 0 0
31.64 0 0
31.68 0 0
31.72 0 0
31.76 0 0
31.8 0 0
31.84 0 0
31.88 0 0
31.92 0 0
31.96 0 0
0 0.005 0
0.04 0.005 0
0.08 0.005 0
0.12 0.005 0
0.16 0.005 0
0.2 0.005 0
0.24 0.005 0
0.28 0.005 0
0.32 0.005 0
0.36 0.005 0
0.4 0.005 0
0.44 0.005 0
0.48 0.005 0
0.52 0.005 0
0.56 0.005 0
0.6 0.005 0
0.64 0.005 0
0.68 0.005 0
0.72 0.005 0
0.76 0.005 0
0.8 0.005 0
0.84 0.005 0
0.88 0.005 0
0.92 0.005 0
0.96 0.005 0
1 0.005 0
1.04 0.005 0
1.08 0.005 0
1.12 0.005 0
1.16 0.005 0
1.2 0.005 0
1.24 0.005 0
1.28 0.005 0
1.32 0.005 0
1.36 0.005 0
1.4 0.005 0
1.44 0.005 0
1.48 0.005 0
1.52 0.005 0
1.56 0.005 0
1.6 0.005 0
1.64 0.005 0
1.68 0.005 0
1.72 0.005 0
1.76 0.005 0
1.8 0.005 0
1.84 0.005 0
1.88 0.005 0
1.92 0.005 0
1.96 0.005 0
2 0.005 0
2.04 0.005 0
2.08 0.005 0
2.12 0.005 0
2.16 0.005 0
2.2 0.005 0
2.24 0.005 0
2.28 0.005 0
2.32 0.005 0
2.36 0.005 0
2.4 0.005 0
2.44 0.005 0
2.48 0.005 0
2.52 0.005 0
2.56 0.005 0
2.6 0.005 0
2.64 0.005 0
2.68 0.005 0
2.72 0.005 0
2.76 0.005 0
2.8 0.005 0
2.84 0.005 0
2.88 0.005 0
2.92 0.005 0
2.96 0.005 0
3 0.005 0
3.04 0.005 0
3.08 0.005 0
3.12 0.005 0
3.16 0.005 0
3.2 0.005 0
3.24 0.005 0
3.28 0.005 0
3.32 0.005 0
3.36 0.005 0
3.4 0.005 0
3.44 0.005 0
3.48 0.005 0
3.52 0.005 0
3.56 0.005 0
3.6 0.005 0
3.64 0.005 0
3.68 0.005 0
3.72 0.005 0
3.76 0.005 0
3.8 0.005 0
3.84 0.005 0
3.88 0.005 0
3.92 0.005 0
3.96 0.005 0
4 0.005 0
4.04 0.005 0
4.08 0.005 0
4.12 0.005 0
4.16 0.005 0
4.2 0.005 0
4.24 0.005 0
4.28 0.005 0
4.32 0.005 0
4.36 0.005 0
4.4 0.005 0
4.44 0.005 0
4.48 0.005 0
4.52 0.005 0
4.56 0.005 0
4.6 0.005 0
4.64 0.005 0
4.68 0.005 0
4.72 0.005 0
4.76 0.005 0
4.8 0.005 0
4.84 0.005 0
4.88 0.005 0
4.92 0.005 0
4.96 0.005 0
5 0.005 0
5.04 0.005 0
5.08 0.005 0
5.12 0.005 0
5.16 0.005 0
5.2 0.005 0
5.24 0.005 0
5.28 0.005 0
5.32 0.005 0
5.36 0.005 0
5.4 0.005 0
5.44 0.005 0
5.48 0.005 0
5.52 0.005 0
5.56 0.005 0
5.6 0.005 0
5.64 0.005 0
5.68 0.005 0
5.72 0.005 0
5.76 0.005 0
5.8 0.005 0
5.84 0.005 0
5.88 0.005 0
5.92 0.005 0
5.96 0.005 0
6 0.005 0
6.04 0.005 0
6.08 0.005 0
6.12 0.005 0
6.16 0.005 0
6.2 0.005 0
6.24 0.005 0
6.28 0.005 0
6.32 0.005 0
6.36 0.005 0
6.4 0.005 0
6.44 0.005 0
6.48 0.005 0
6.52 0.005 0
6.56 0.005 0
6.6 0.005 0
6.64 0.005 0
6.68 0.005 0
6.72 0.005 0
6.76 0.005 0
6.8 0.005 0
6.84 0.005 0
6.88 0.005 0
6.92 0.005 0
6.96 0.005 0
7 0.005 0
7.04 0.005 0
7.08 0.005 0
7.12 0.005 0
7.16 0.005 0
7.2 0.005 0
7.24 0.005 0
7.28 0.005 0
7.32 0.005 0
7.36 0.005 0
7.4 0.005 0
[...]
POINT_DATA 160000

SCALARS u float 1
LOOKUP_TABLE default
-1
-0.483357
-0.183962
-0.108845
-0.0810325
-0.0668331
-0.0581175
-0.0521519
-0.0477766
-0.0444137
-0.0417404
-0.0395605
-0.0377473
-0.0362142
-0.0349004
-0.0337613
-0.0327636
-0.0318818
-0.0310962
-0.0303911
-0.029754
-0.029175
-0.0286458
-0.0281597
-0.0277111
-0.0272953
-0.0269085
-0.0265472
-0.0262089
-0.0258909
-0.0255913
-0.0253084
-0.0250405
-0.0247864
-0.0245448
-0.0243147
-0.0240953
-0.0238857
-0.0236851
-0.023493
-0.0233088
-0.0231319
-0.0229618
-0.0227982
-0.0226406
-0.0224887
-0.0223422
-0.0222007
-0.0220639
-0.0219317
-0.0218038
-0.0216799
-0.0215599
-0.0214436
-0.0213307
-0.0212212
-0.0211148
-0.0210115
-0.0209111
-0.0208134
-0.0207184
-0.0206259
-0.0205358
-0.0204481
-0.0203626
-0.0202792
-0.020198
-0.0201186
-0.0200412
-0.0199657
-0.0198919
-0.0198198
-0.0197493
-0.0196804
-0.0196131
-0.0195472
-0.0194827
-0.0194196
-0.0193579
-0.0192974
-0.0192382
-0.0191802
-0.0191234
-0.0190677
-0.0190131
-0.0189595
-0.018907
-0.0188555
-0.0188049
-0.0187553
-0.0187066
-0.0186588
-0.0186119
-0.0185658
-0.0185205
-0.0184761
-0.0184324
-0.0183894
-0.0183472
-0.0183057
-0.0182649
-0.0182247
-0.0181853
-0.0181464
-0.0181082
-0.0180707
-0.0180337
-0.0179973
-0.0179614
-0.0179262
-0.0178914
-0.0178572
-0.0178236
-0.0177904
-0.0177577
-0.0177255
-0.0176938
-0.0176625
-0.0176317
-0.0176014
-0.0175714
-0.0175419
-0.0175128
-0.0174842
-0.0174559
-0.017428
-0.0174005
-0.0173734
-0.0173466
-0.0173202
-0.0172942
-0.0172685
-0.0172431
-0.0172181
-0.0171934
-0.017169
-0.017145
-0.0171212
-0.0170978
-0.0170746
-0.0170518
-0.0170292
-0.0170069
-0.0169849
-0.0169632
-0.0169417
-0.0169205
-0.0168996
-0.0168789
-0.0168585
-0.0168383
-0.0168184
-0.0167987
-0.0167792
-0.01676
-0.016741
-0.0167222
-0.0167036
-0.0166853
-0.0166671
-0.0166492
-0.0166315
-0.016614
-0.0165967
-0.0165795
-0.0165626
-0.0165459
-0.0165294
-0.016513
-0.0164968
-0.0164809
-0.016465
-0.0164494
-0.016434
-0.0164187
-0.0164036
-0.0163886
-0.0163738
-0.0163592
-0.0163447
-0.0163304
-0.0163163
-0.0163023
-0.0162884
-0.0162747
-0.0162612
-0.0162478
-0.0162346
-0.0162215
-0.0162085
-0.0161957
-0.016183
-0.0161705
-0.0161581
-0.0161458
-0.0161337
-0.0161217
-0.0161098
-0.0160981
-0.0160865
-0.016075
-0.0160637
-0.0160525
-0.0160415
-0.0160306
-0.0160198
-0.0160091
-0.0159986
-0.0159882
-0.015978
-0.0159679
-0.0159579
-0.0159481
-0.0159384
-0.0159288
-0.0159194
-0.0159101
-0.0159009
-0.0158919
-0.015883
-0.0158743
-0.0158656
-0.0158572
-0.0158488
-0.0158407
-0.0158326
-0.0158247
-0.0158169
-0.0158092
-0.0158017
-0.0157944
-0.0157871
-0.01578
-0.015773
-0.0157662
-0.0157595
-0.0157529
-0.0157464
-0.0157401
-0.0157339
-0.0157279
-0.0157219
-0.0157161
-0.0157104
-0.0157049
-0.0156994
-0.0156941
-0.0156889
-0.0156838
-0.0156788
-0.0156739
-0.0156692
-0.0156646
-0.01566
-0.0156556
-0.0156513
-0.0156471
-0.015643
-0.0156391
-0.0156352
-0.0156314
-0.0156277
-0.0156241
-0.0156206
-0.0156172
-0.0156139
-0.0156107
-0.0156076
-0.0156045
-0.0156016
-0.0155987
-0.015596
-0.0155933
-0.0155906
-0.0155881
-0.0155857
-0.0155833
-0.015581
-0.0155787
-0.0155766
-0.0155745
-0.0155724
-0.0155705
-0.0155686
-0.0155667
-0.015565
-0.0155633
-0.0155616
-0.01556
-0.0155585
-0.015557
-0.0155556
-0.0155542
-0.0155528
-0.0155516
-0.0155503
-0.0155491
-0.015548
-0.0155469
-0.0155458
-0.0155448
-0.0155438
-0.0155429
-0.015542
-0.0155411
-0.0155403
-0.0155395
-0.0155387
-0.0155379
-0.0155372
-0.0155365
-0.0155359
-0.0155352
-0.0155346
-0.015534
-0.0155335
-0.0155329
-0.0155324
-0.0155319
-0.0155314
-0.015531
-0.0155305
-0.0155301
-0.0155296
-0.0155292
-0.0155288
-0.0155285
-0.0155281
-0.0155277
-0.0155274
-0.015527
-0.0155267
-0.0155264
-0.015526
-0.0155257
-0.0155254
-0.0155251
-0.0155248
-0.0155245
-0.0155242
-0.0155239
-0.0155236
-0.0155232
-0.0155229
-0.0155226
-0.0155223
-0.015522
-0.0155217
-0.0155214
-0.0155211
-0.0155208
-0.0155205
-0.0155202
-0.0155199
-0.0155196
-0.0155193
-0.015519
-0.0155187
-0.0155184
-0.0155181
-0.0155178
-0.0155175
-0.0155172
-0.0155169
-0.0155166
-0.0155163
-0.015516
-0.0155157
-0.0155154
-0.0155151
-0.0155148
-0.0155145
-0.0155142
-0.0155139
-0.0155136
-0.0155133
-0.015513
-0.0155127
-0.0155124
-0.0155121
-0.0155118
-0.0155115
-0.0155112
-0.0155109
-0.0155106
-0.0155103
-0.01551
-0.0155097
-0.0155094
-0.0155091
-0.0155088
-0.0155085
-0.0155082
-0.0155079
-0.0155075
-0.0155072
-0.0155069
-0.0155066
-0.0155063
-0.015506
-0.0155057
-0.0155054
-0.0155051
-0.0155048
-0.0155045
-0.0155042
-0.0155039
-0.0155036
-0.0155033
-0.015503
-0.0155027
-0.0155024
-0.0155021
-0.0155018
-0.0155015
-0.0155012
-0.0155009
-0.0155006
-0.0155003
-0.0155
-0.0154997
-0.0154994
-0.0154991
-0.0154988
-0.0154985
-0.0154982
-0.0154979
-0.0154976
-0.0154973
-0.015497
-0.0154967
-0.0154964
-0.0154961
-0.0154958
-0.0154955
-0.0154952
-0.0154949
-0.0154946
-0.0154943
-0.015494
-0.0154937
-0.0154934
-0.0154931
-0.0154928
-0.0154925
-0.0154922
-0.0154919
-0.0154916
-0.0154913
-0.0154909
-0.0154906
-0.0154903
-0.01549
-0.0154897
-0.0154894
-0.0154891
-0.0154888
-0.0154885
-0.0154882
-0.0154879
-0.0154876
-0.0154873
-0.015487
-0.0154867
-0.0154864
-0.0154861
-0.0154858
-0.0154855
-0.0154852
-0.0154849
-0.0154846
-0.0154843
-0.015484
-0.0154837
-0.0154834
-0.0154831
-0.0154828
-0.0154825
-0.0154822
-0.0154819
-0.0154816
-0.0154813
-0.015481
-0.0154807
-0.0154804
-0.0154801
-0.0154798
-0.0154795
-0.0154792
-0.0154789
-0.0154786
-0.0154783
-0.015478
-0.0154777
-0.0154774
-0.0154771
-0.0154768
-0.0154765
-0.0154762
-0.0154759
-0.0154756
-0.0154753
-0.015475
-0.0154747
-0.0154743
-0.015474
-0.0154737
-0.0154734
-0.0154731
-0.0154728
-0.0154725
-0.0154722
-0.0154719
-0.0154716
-0.0154713
-0.015471
-0.0154707
-0.0154704
-0.0154701
-0.0154698
-0.0154695
-0.0154692
-0.0154689
-0.0154686
-0.0154683
-0.015468
-0.0154677
-0.0154674
-0.0154671
-0.0154668
-0.0154665
-0.0154662
-0.0154659
-0.0154656
-0.0154653
-0.015465
-0.0154647
-0.0154644
-0.0154641
-0.0154638
-0.0154635
-0.0154632
-0.0154629
-0.0154626
-0.0154623
-0.015462
-0.0154617
-0.0154614
-0.0154611
-0.0154608
-0.0154605
-0.0154602
-0.0154599
-0.0154596
-0.0154593
-0.015459
-0.0154587
-0.0154584
-0.0154581
-0.0154578
-0.0154575
-0.0154571
-0.0154568
-0.0154565
-0.0154562
-0.0154559
-0.0154556
-0.0154553
-0.015455
-0.0154547
-0.0154544
-0.0154541
-0.0154538
-0.0154535
-0.0154532
-0.0154529
-0.0154526
-0.0154523
-0.015452
-0.0154517
-0.0154514
-0.0154511
-0.0154508
-0.0154505
-0.0154502
-0.0154499
-0.0154496
-0.0154493
-0.015449
-0.0154487
-0.0154484
-0.0154481
-0.0154478
-0.0154475
-0.0154472
-0.0154469
-0.0154466
-0.0154463
-0.015446
-0.0154457
-0.0154454
-0.0154451
-0.0154448
-0.0154445
-0.0154442
-0.0154439
-0.0154436
-0.0154433
-0.015443
-0.0154427
-0.0154424
-0.0154421
-0.0154418
-0.0154415
-0.0154412
-0.0154409
-0.0154406
-0.0154403
-0.01544
-0.0154396
-0.0154393
-0.015439
-0.0154387
-0.0154384
-0.0154381
-0.0154378
-0.0154375
-0.0154372
-0.0154369
-0.0154366
-0.0154363
-0.015436
-0.0154357
-0.0154354
-0.0154351
-0.0154348
-0.0154345
-0.0154342
-0.0154339
-0.0154336
-0.0154333
-0.015433
-0.0154327
-0.0154324
-0.0154321
-0.0154318
-0.0154315
-0.0154312
-0.0154309
-0.0154306
-0.0154303
-0.01543
-0.0154297
-0.0154294
-0.0154291
-0.0154288
-0.0154285
-0.0154282
-0.0154279
-0.0154276
-0.0154273
-0.015427
-0.0154267
-0.0154264
-0.0154261
-0.0154258
-0.0154255
-0.0154252
-0.0154249
-0.0154246
-0.0154243
-0.015424
-0.0154237
-0.0154234
-0.0154231
-0.0154228
-0.0154225
-0.0154222
-0.0154218
-0.0154215
-0.0154212
-0.0154209
-0.0154206
-0.0154203
-0.01542
-0.0154197
-0.0154194
-0.0154191
-0.0154188
-0.0154185
-0.0154182
-0.0154179
-0.0154176
-0.0154173
-0.015417
-0.0154167
-0.0154164
-0.0154161
-0.0154158
-0.0154155
-0.0154152
-0.0154149
-0.0154146
-0.0154143
-0.015414
-0.0154137
-0.0154134
-0.0154131
-0.0154128
-0.0154125
-0.0154122
-0.0154119
-0.0154116
-0.0154113
-0.015411
-0.0154107
-0.0154104
-0.0154101
-0.0154098
-0.0154095
-0.0154092
-0.0154089
-0.0154086
-0.0154083
-0.015408
-0.0154077
-0.0154074
-0.0154071
-0.0154068
-0.0154065
-0.0154062
-0.0154059
-0.0154056
-0.0154053
-0.015405
-0.0154047
-0.0154044
-0.0154041
-0.0154038
-0.0154034
-0.0154031
-0.0154028
-0.0154025
-0.0154022
-0.0154019
-0.0154016
-0.0154013
-0.015401
-0.0154007
-0.0154004
-0.0154001
-0.0153998
-0.0153995
-0.0153992
-0.0153989
-0.0153986
-0.0153983
-0.015398
-0.0153977
-0.0153974
-0.0153971
-0.0153968
-0.0153965
-0.0153962
-0.0153959
-0.0153956
-0.0153953
-0.015395
-0.0153947
-0.0153944
-0.0153941
-0.0153938
-0.0153935
-0.0153932
-0.0153929
-0.0153926
-0.0153923
-0.015392
-0.0153917
-0.0153913
-0.015391
-0.0153907
-0.0153904
-0.0153901
-0.0153897
-0.0153894
-0.015389
-0.0153887
-0.0153883
-0.0153879
-0.0153875
-0.015387
-0.0153865
-0.015386
-0.0153853
-0.0153846
-0.0153835
-0.0153832
-0.0153832
-0.0153832
1
0.483357
0.183962
0.108845
0.0810325
0.0668331
0.0581175
0.0521519
0.0477766
0.0444137
0.0417404
0.0395605
0.0377473
0.0362142
0.0349004
0.0337613
0.0327636
0.0318818
0.0310962
0.0303911
0.029754
0.029175
0.0286458
0.0281597
0.0277111
0.0272953
0.0269085
0.0265472
0.0262089
0.0258909
0.0255913
0.0253084
0.0250405
0.0247864
0.0245448
0.0243147
0.0240953
0.0238857
0.0236851
0.023493
0.0233088
0.0231319
0.0229618
0.0227982
0.0226406
0.0224887
0.0223422
0.0222007
0.0220639
0.0219317
0.0218038
0.0216799
0.0215599
0.0214436
0.0213307
0.0212212
0.0211148
0.0210115
0.0209111
0.0208134
0.0207184
0.0206259
0.0205358
0.0204481
0.0203626
0.0202792
0.020198
0.0201186
0.0200412
0.0199657
0.0198919
0.0198198
0.0197493
0.0196804
0.0196131
0.0195472
0.0194827
0.0194196
0.0193579
0.0192974
0.0192382
0.0191802
0.0191234
0.0190677
0.0190131
0.0189595
0.018907
0.0188555
0.0188049
0.0187553
0.0187066
0.0186588
0.0186119
0.0185658
0.0185205
0.0184761
0.0184324
0.0183894
0.0183472
0.0183057
0.0182649
0.0182247
0.0181853
0.0181464
0.0181082
0.0180707
0.0180337
0.0179973
0.0179614
0.0179262
0.0178914
0.0178572
0.0178236
0.0177904
0.0177577
0.0177255
0.0176938
0.0176625
0.0176317
0.0176014
0.0175714
0.0175419
0.0175128
0.0174842
0.0174559
0.017428
0.0174005
0.0173734
0.0173466
0.0173202
0.0172942
0.0172685
0.0172431
0.0172181
0.0171934
0.017169
0.017145
0.0171212
0.0170978
0.0170746
0.0170518
0.0170292
0.0170069
0.0169849
0.0169632
0.0169417
0.0169205
0.0168996
0.0168789
0.0168585
0.0168383
0.0168184
0.0167987
0.0167792
0.01676
0.016741
0.0167222
0.0167036
0.0166853
0.0166671
0.0166492
0.0166315
0.016614
0.0165967
0.0165795
0.0165626
0.0165459
0.0165294
0.016513
0.0164968
0.0164809
0.016465
0.0164494
0.016434
0.0164187
0.0164036
0.0163886
0.0163738
0.0163592
0.0163447
0.0163304
0.0163163
0.0163023
0.0162884
0.0162747
0.0162612
0.0162478
0.0162346
0.0162215
0.0162085
0.0161957
0.016183
0.0161705
0.0161581
0.0161458
0.0161337
0.0161217
0.0161098
0.0160981
0.0160865
0.016075
0.0160637
0.0160525
0.0160415
0.0160306
0.0160198
0.0160091
0.0159986
0.0159882
0.015978
0.0159679
0.0159579
0.0159481
0.0159384
0.0159288
0.0159194
0.0159101
0.0159009
0.0158919
0.015883
0.0158743
0.0158656
0.0158572
0.0158488
0.0158407
0.0158326
0.0158247
0.0158169
0.0158092
0.0158017
0.0157944
0.0157871
0.01578
0.015773
0.0157662
0.0157595
0.0157529
0.0157464
0.0157401
0.0157339
0.0157279
0.0157219
0.0157161
0.0157104
0.0157049
0.0156994
0.0156941
0.0156889
0.0156838
0.0156788
0.0156739
0.0156692
0.0156646
0.01566
0.0156556
0.0156513
0.0156471
0.015643
0.0156391
0.0156352
0.0156314
0.0156277
0.0156241
0.0156206
0.0156172
0.0156139
0.0156107
0.0156076
0.0156045
0.0156016
0.0155987
0.015596
0.0155933
0.0155906
0.0155881
0.0155857
0.0155833
0.015581
0.0155787
0.0155766
0.0155745
0.0155724
0.0155705
0.0155686
0.0155667
0.015565
0.0155633
0.0155616
0.01556
0.0155585
0.015557
0.0155556
0.0155542
0.0155528
0.0155516
0.0155503
0.0155491
0.015548
0.0155469
0.0155458
0.0155448
0.0155438
0.0155429
0.015542
0.0155411
0.0155403
0.0155395
0.0155387
0.0155379
0.0155372
0.0155365
0.0155359
0.0155352
0.0155346
0.015534
0.0155335
0.0155329
0.0155324
0.0155319
0.0155314
0.015531
0.0155305
0.0155301
0.0155296
0.0155292
0.0155288
0.0155285
0.0155281
0.0155277
0.0155274
0.015527
0.0155267
0.0155264
0.015526
0.0155257
0.0155254
0.0155251
0.0155248
0.0155245
0.0155242
0.0155239
0.0155236
0.0155232
0.0155229
0.0155226
0.0155223
0.015522
0.0155217
0.0155214
0.0155211
0.0155208
0.0155205
0.0155202
0.0155199
0.0155196
0.0155193
0.015519
0.0155187
0.0155184
0.0155181
0.0155178
0.0155175
0.0155172
0.0155169
0.0155166
0.0155163
0.015516
0.0155157
0.0155154
0.0155151
0.0155148
0.0155145
0.0155142
0.0155139
0.0155136
0.0155133
0.015513
0.0155127
0.0155124
0.0155121
0.0155118
0.0155115
0.0155112
0.0155109
0.0155106
0.0155103
0.01551
0.0155097
0.0155094
0.0155091
0.0155088
0.0155085
0.0155082
0.0155079
0.0155075
0.0155072
0.0155069
0.0155066
0.0155063
0.015506
0.0155057
0.0155054
0.0155051
0.0155048
0.0155045
0.0155042
0.0155039
0.0155036
0.0155033
0.015503
0.0155027
0.0155024
0.0155021
0.0155018
0.0155015
0.0155012
0.0155009
0.0155006
0.0155003
0.0155
0.0154997
0.0154994
0.0154991
0.0154988
0.0154985
0.0154982
0.0154979
0.0154976
0.0154973
0.015497
0.0154967
0.0154964
0.0154961
0.0154958
0.0154955
0.0154952
0.0154949
0.0154946
0.0154943
0.015494
0.0154937
0.0154934
0.0154931
0.0154928
0.0154925
0.0154922
0.0154919
0.0154916
0.0154913
0.0154909
0.0154906
0.0154903
0.01549
0.0154897
0.0154894
0.0154891
0.0154888
0.0154885
0.0154882
0.0154879
0.0154876
0.0154873
0.015487
0.0154867
0.0154864
0.0154861
0.0154858
0.0154855
0.0154852
0.0154849
0.0154846
0.0154843
0.015484
0.0154837
0.0154834
0.0154831
0.0154828
0.0154825
0.0154822
0.0154819
0.0154816
0.0154813
0.015481
0.0154807
0.0154804
0.0154801
0.0154798
0.0154795
0.0154792
0.0154789
0.0154786
0.0154783
0.015478
0.0154777
0.0154774
0.0154771
0.0154768
0.0154765
0.0154762
0.0154759
0.0154756
0.0154753
0.015475
0.0154747
0.0154743
0.015474
0.0154737
0.0154734
0.0154731
0.0154728
0.0154725
0.0154722
0.0154719
0.0154716
0.0154713
0.015471
0.0154707
0.0154704
0.0154701
0.0154698
0.0154695
0.0154692
0.0154689
0.0154686
0.0154683
0.015468
0.0154677
0.0154674
0.0154671
0.0154668
0.0154665
0.0154662
0.0154659
0.0154656
0.0154653
0.015465
0.0154647
0.0154644
0.0154641
0.0154638
0.0154635
0.0154632
0.0154629
0.0154626
0.0154623
0.015462
0.0154617
0.0154614
0.0154611
0.0154608
0.0154605
0.0154602
0.0154599
0.0154596
0.0154593
0.015459
0.0154587
0.0154584
0.0154581
0.0154578
0.0154575
0.0154571
0.0154568
0.0154565
0.0154562
0.0154559
0.0154556
0.0154553
0.015455
0.0154547
0.0154544
0.0154541
0.0154538
0.0154535
0.0154532
0.0154529
0.0154526
0.0154523
0.015452
0.0154517
0.0154514
0.0154511
0.0154508
0.0154505
0.0154502
0.0154499
0.0154496
0.0154493
0.015449
0.0154487
0.0154484
0.0154481
0.0154478
0.0154475
0.0154472
0.0154469
0.0154466
0.0154463
0.015446
0.0154457
0.0154454
0.0154451
0.0154448
0.0154445
0.0154442
0.0154439
0.0154436
0.0154433
0.015443
0.0154427
0.0154424
0.0154421
0.0154418
0.0154415
0.0154412
0.0154409
0.0154406
0.0154403
0.01544
0.0154396
0.0154393
0.015439
0.0154387
0.0154384
0.0154381
0.0154378
0.0154375
0.0154372
0.0154369
0.0154366
0.0154363
0.015436
0.0154357
0.0154354
0.0154351
0.0154348
0.0154345
0.0154342
0.0154339
0.0154336
0.0154333
0.015433
0.0154327
0.0154324
0.0154321
0.0154318
0.0154315
0.0154312
0.0154309
0.0154306
0.0154303
0.01543
0.0154297
0.0154294
0.0154291
0.0154288
0.0154285
0.0154282
0.0154279
0.0154276
0.0154273
0.015427
0.0154267
0.0154264
0.0154261
0.0154258
0.0154255
0.0154252
0.0154249
0.0154246
0.0154243
0.015424
0.0154237
0.0154234
0.0154231
0.0154228
0.0154225
0.0154222
0.0154218
0.0154215
0.0154212
0.0154209
0.0154206
0.0154203
0.01542
0.0154197
0.0154194
0.0154191
0.0154188
0.0154185
0.0154182
0.0154179
0.0154176
0.0154173
0.015417
0.0154167
0.0154164
0.0154161
0.0154158
0.0154155
0.0154152
0.0154149
0.0154146
0.0154143
0.015414
0.0154137
0.0154134
0.0154131
0.0154128
0.0154125
0.0154122
0.0154119
0.0154116
0.0154113
0.015411
0.0154107
0.0154104
0.0154101
0.0154098
0.0154095
0.0154092
0.0154089
0.0154086
0.0154083
0.015408
0.0154077
0.0154074
0.0154071
0.0154068
0.0154065
0.0154062
0.0154059
0.0154056
0.0154053
0.015405
0.0154047
0.0154044
0.0154041
0.0154038
0.0154034
0.0154031
0.0154028
0.0154025
0.0154022
0.0154019
0.0154016
0.0154013
0.015401
0.0154007
0.0154004
0.0154001
0.0153998
0.0153995
0.0153992
0.0153989
0.0153986
0.0153983
0.015398
0.0153977
0.0153974
0.0153971
0.0153968
0.0153965
0.0153962
0.0153959
0.0153956
0.0153953
0.015395
0.0153947
0.0153944
0.0153941
0.0153938
0.0153935
0.0153932
0.0153929
0.0153926
0.0153923
0.015392
0.0153917
0.0153913
0.015391
0.0153907
0.0153904
0.0153901
0.0153897
0.0153894
0.015389
0.0153887
0.0153883
0.0153879
0.0153875
0.015387
0.0153865
0.015386
0.0153853
0.0153846
0.0153835
0.0153832
0.0153832
0.0153832
1
0.96919
0.495615
0.314222
0.237895
0.197394
0.172132
0.154694
0.14184
0.131926
0.124025
0.117571
0.112194
0.107643
0.103739
0.100352
0.0973833
0.0947588
0.0924199
0.0903205
0.0884236
0.0866996
0.0851241
0.083677
0.0823419
0.0811047
0.0799539
0.0788796
0.0778736
0.0769285
0.0760384
0.0751979
0.0744024
0.0736478
0.0729307
0.0722481
0.071597
0.0709752
0.0703805
0.0698109
0.0692647
0.0687403
0.0682364
0.0677516
0.0672847
0.0668347
0.0664006
0.0659815
0.0655766
0.0651851
0.0648064
0.0644396
0.0640844
0.06374
0.063406
0.0630818
0.0627671
0.0624613
0.0621641
0.0618751
0.061594
0.0613203
0.0610539
0.0607943
0.0605414
0.0602949
0.0600544
0.0598198
0.0595909
0.0593674
0.0591491
0.0589359
0.0587275
0.0585238
0.0583246
0.0581298
0.0579393
0.0577528
0.0575702
0.0573915
0.0572164
0.0570449
0.0568769
0.0567122
0.0565508
0.0563925
0.0562372
0.056085
0.0559356
0.055789
0.0556451
0.0555038
0.0553651
0.0552289
0.0550951
0.0549636
0.0548344
0.0547075
0.0545828
0.0544601
0.0543395
0.054221
0.0541043
0.0539896
0.0538768
0.0537657
0.0536564
0.0535489
0.053443
0.0533388
0.0532362
0.0531352
0.0530357
0.0529377
0.0528411
0.052746
0.0526523
0.05256
0.052469
0.0523794
0.052291
0.0522038
0.0521179
0.0520332
0.0519497
0.0518674
0.0517861
0.051706
0.051627
0.051549
0.0514721
0.0513962
0.0513214
0.0512475
0.0511746
0.0511026
0.0510315
0.0509614
0.0508922
0.0508239
0.0507564
0.0506898
0.050624
0.050559
0.0504949
0.0504315
0.050369
0.0503071
0.0502461
0.0501858
0.0501262
0.0500673
0.0500092
0.0499517
0.0498949
0.0498388
0.0497834
0.0497286
0.0496744
0.0496209
0.049568
0.0495157
0.049464
0.0494129
0.0493624
0.0493125
0.0492631
0.0492143
0.049166
0.0491183
0.0490712
0.0490245
0.0489784
0.0489328
0.0488877
0.0488431
0.048799
0.0487554
0.0487122
0.0486695
0.0486273
0.0485856
0.0485443
0.0485035
0.0484631
0.0484232
0.0483837
0.0483446
0.048306
0.0482678
0.04823
0.0481926
0.0481556
0.0481191
0.048083
0.0480472
0.0480119
0.047977
0.0479425
0.0479083
0.0478746
0.0478413
0.0478084
0.0477759
0.0477437
0.047712
0.0476807
0.0476498
0.0476193
0.0475892
0.0475595
0.0475301
0.0475013
0.0474728
0.0474447
0.047417
0.0473897
0.0473629
0.0473364
0.0473104
0.0472848
0.0472596
0.0472347
0.0472103
0.0471864
0.0471628
0.0471396
0.0471168
0.0470945
0.0470725
0.0470509
0.0470298
0.047009
0.0469886
0.0469687
0.0469491
0.0469299
0.0469111
0.0468926
0.0468746
0.0468569
0.0468396
0.0468226
0.0468061
0.0467898
0.046774
0.0467585
0.0467433
0.0467285
0.046714
0.0466999
0.0466861
0.0466727
0.0466595
0.0466467
0.0466342
0.046622
0.0466101
0.0465986
0.0465873
0.0465763
0.0465656
0.0465552
0.0465451
0.0465353
0.0465257
0.0465164
0.0465074
0.0464986
0.0464901
0.0464818
0.0464737
0.046466
0.0464584
0.0464511
0.046444
0.0464371
0.0464304
0.046424
0.0464177
0.0464117
0.0464058
0.0464002
0.0463947
0.0463894
0.0463843
0.0463794
0.0463746
0.04637
0.0463656
0.0463613
0.0463572
0.0463532
0.0463494
0.0463457
0.0463421
0.0463387
0.0463354
0.0463323
0.0463292
0.0463263
0.0463235
0.0463207
0.0463181
0.0463156
0.0463132
0.0463109
0.0463087
0.0463065
0.0463045
0.0463025
0.0463006
0.0462988
0.046297
0.0462953
0.0462937
0.0462921
0.0462906
0.0462891
0.0462877
0.0462864
0.0462851
0.0462838
0.0462826
0.0462814
0.0462803
0.0462792
0.0462781
0.046277
0.046276
0.046275
0.046274
0.046273
0.046272
0.0462711
0.0462701
0.0462692
0.0462683
0.0462674
0.0462664
0.0462655
0.0462646