# vtk DataFile Version 2.0
FlowField
ASCII
DATASET STRUCTURED_GRID
DIMENSIONS 800 1 200
POINTS 160000 float
0 0 0
0.04 0 0
0.08 0 0
0.12 0 0
0.16 0 0
0.2 0 0
0.24 0 0
0.28 0 0
0.32 0 0
0.36 0 0
0.4 0 0
0.44 0 0
0.48 0 0
0.52 0 0
0.56 0 0
0.6 0 0
0.64 0 0
0.68 0 0
0.72 0 0
0.76 0 0
0.8 0 0
0.84 0 0
0.88 0 0
0.92 0 0
0.96 0 0
1 0 0
1.04 0 0
1.08 0 0
1.12 0 0
1.16 0 0
1.2 0 0
1.24 0 0
1.28 0 0
1.32 0 0
1.36 0 0
1.4 0 0
1.44 0 0
1.48 0 0
1.52 0 0
1.56 0 0
1.6 0 0
1.64 0 0
1.68 0 0
1.72 0 0
1.76 0 0
1.8 0 0
1.84 0 0
1.88 0 0
1.92 0 0
1.96 0 0
2 0 0
2.04 0 0
2.08 0 0
2.12 0 0
2.16 0 0
2.2 0 0
2.24 0 0
2.28 0 0
2.32 0 0
2.36 0 0
2.4 0 0
2.44 0 0
2.48 0 0
2.52 0 0
2.56 0 0
2.6 0 0
2.64 0 0
2.68 0 0
2.72 0 0
2.76 0 0
2.8 0 0
2.84 0 0
2.88 0 0
2.92 0 0
2.96 0 0
3 0 0
3.04 0 0
3.08 0 0
3.12 0 0
3.16 0 0
3.2 0 0
3.24 0 0
3.28 0 0
3.32 0 0
3.36 0 0
3.4 0 0
3.44 0 0
3.48 0 0
3.52 0 0
3.56 0 0
3.6 0 0
3.64 0 0
3.68 0 0
3.72 0 0
3.76 0 0
3.8 0 0
3.84 0 0
3.88 0 0
3.92 0 0
3.96 0 0
4 0 0
4.04 0 0
4.08 0 0
4.12 0 0
4.16 0 0
4.2 0 0
4.24 0 0
4.28 0 0
4.32 0 0
4.36 0 0
4.4 0 0
4.44 0 0
4.48 0 0
4.52 0 0
4.56 0 0
4.6 0 0
4.64 0 0
4.68 0 0
4.72 0 0
4.76 0 0
4.8 0 0
4.84 0 0
4.88 0 0
4.92 0 0
4.96 0 0
5 0 0
5.04 0 0
5.08 0 0
5.12 0 0
5.16 0 0
5.2 0 0
5.24 0 0
5.28 0 0
5.32 0 0
5.36 0 0
5.4 0 0
5.44 0 0
5.48 0 0
5.52 0 0
5.56 0 0
5.6 0 0
5.64 0 0
5.68 0 0
5.72 0 0
5.76 0 0
5.8 0 0
5.84 0 0
5.88 0 0
5.92 0 0
5.96 0 0
6 0 0
6.04 0 0
6.08 0 0
6.12 0 0
6.16 0 0
6.2 0 0
6.24 0 0
6.28 0 0
6.32 0 0
6.36 0 0
6.4 0 0
6.44 0 0
6.48 0 0
6.52 0 0
6.56 0 0
6.6 0 0
6.64 0 0
6.68 0 0
6.72 0 0
6.76 0 0
6.8 0 0
6.84 0 0
6.88 0 0
6.92 0 0
6.96 0 0
7 0 0
7.04 0 0
7.08 0 0
7.12 0 0
7.16 0 0
7.2 0 0
7.24 0 0
7.28 0 0
7.32 0 0
7.36 0 0
7.4 0 0
7.44 0 0
7.48 0 0
7.52 0 0
7.56 0 0
7.6 0 0
7.64 0 0
7.68 0 0
7.72 0 0
7.76 0 0
7.8 0 0
7.84 0 0
7.88 0 0
7.92 0 0
7.96 0 0
8 0 0
8.04 0 0
8.08 0 0
8.12 0 0
8.16 0 0
8.2 0 0
8.24 0 0
8.28 0 0
8.32 0 0
8.36 0 0
8.4 0 0
8.44 0 0
8.48 0 0
8.52 0 0
8.56 0 0
8.6 0 0
8.64 0 0
8.68 0 0
8.72 0 0
8.76 0 0
8.8 0 0
8.84 0 0
8.88 0 0
8.92 0 0
8.96 0 0
9 0 0
9.04 0 0
9.08 0 0
9.12 0 0
9.16 0 0
9.2 0 0
9.24 0 0
9.28 0 0
9.32 0 0
9.36 0 0
9.4 0 0
9.44 0 0
9.48 0 0
9.52 0 0
9.56 0 0
9.6 0 0
9.64 0 0
9.68 0 0
9.72 0 0
9.76 0 0
9.8 0 0
9.84 0 0
9.88 0 0
9.92 0 0
9.96 0 0
10 0 0
10.04 0 0
10.08 0 0
10.12 0 0
10.16 0 0
10.2 0 0
10.24 0 0
10.28 0 0
10.32 0 0
10.36 0 0
10.4 0 0
10.44 0 0
10.48 0 0
10.52 0 0
10.56 0 0
10.6 0 0
10.64 0 0
10.68 0 0
10.72 0 0
10.76 0 0
10.8 0 0
10.84 0 0
10.88 0 0
10.92 0 0
10.96 0 0
11 0 0
11.04 0 0
11.08 0 0
11.12 0 0
11.16 0 0
11.2 0 0
11.24 0 0
11.28 0 0
11.32 0 0
11.36 0 0
11.4 0 0
11.44 0 0
11.48 0 0
11.52 0 0
11.56 0 0
11.6 0 0
11.64 0 0
11.68 0 0
11.72 0 0
11.76 0 0
11.8 0 0
11.84 0 0
11.88 0 0
11.92 0 0
11.96 0 0
12 0 0
12.04 0 0
12.08 0 0
12.12 0 0
12.16 0 0
12.2 0 0
12.24 0 0
12.28 0 0
12.32 0 0
12.36 0 0
12.4 0 0
12.44 0 0
12.48 0 0
12.52 0 0
12.56 0 0
12.6 0 0
12.64 0 0
12.68 0 0
12.72 0 0
12.76 0 0
12.8 0 0
12.84 0 0
12.88 0 0
12.92 0 0
12.96 0 0
13 0 0
13.04 0 0
13.08 0 0
13.12 0 0
13.16 0 0
13.2 0 0
13.24 0 0
13.28 0 0
13.32 0 0
13.36 0 0
13.4 0 0
13.44 0 0
13.48 0 0
13.52 0 0
13.56 0 0
13.6 0 0
13.64 0 0
13.68 0 0
13.72 0 0
13.76 0 0
13.8 0 0
13.84 0 0
13.88 0 0
13.92 0 0
13.96 0 0
14 0 0
14.04 0 0
14.08 0 0
14.12 0 0
14.16 0 0
14.2 0 0
14.24 0 0
14.28 0 0
14.32 0 0
14.36 0 0
14.4 0 0
14.44 0 0
14.48 0 0
14.52 0 0
14.56 0 0
14.6 0 0
14.64 0 0
14.68 0 0
14.72 0 0
14.76 0 0
14.8 0 0
14.84 0 0
14.88 0 0
14.92 0 0
14.96 0 0
15 0 0
15.04 0 0
15.08 0 0
15.12 0 0
15.16 0 0
15.2 0 0
15.24 0 0
15.28 0 0
15.32 0 0
15.36 0 0
15.4 0 0
15.44 0 0
15.48 0 0
15.52 0 0
15.56 0 0
15.6 0 0
15.64 0 0
15.68 0 0
15.72 0 0
15.76 0 0
15.8 0 0
15.84 0 0
15.88 0 0
15.92 0 0
15.96 0 0
16 0 0
16.04 0 0
16.08 0 0
16.12 0 0
16.16 0 0
16.2 0 0
16.24 0 0
16.28 0 0
16.32 0 0
16.36 0 0
16.4 0 0
16.44 0 0
16.48 0 0
16.52 0 0
16.56 0 0
16.6 0 0
16.64 0 0
16.68 0 0
16.72 0 0
16.76 0 0
16.8 0 0
16.84 0 0
16.88 0 0
16.92 0 0
16.96 0 0
17 0 0
17.04 0 0
17.08 0 0
17.12 0 0
17.16 0 0
17.2 0 0
17.24 0 0
17.28 0 0
17.32 0 0
17.36 0 0
17.4 0 0
17.44 0 0
17.48 0 0
17.52 0 0
17.56 0 0
17.6 0 0
17.64 0 0
17.68 0 0
17.72 0 0
17.76 0 0
17.8 0 0
17.84 0 0
17.88 0 0
17.92 0 0
17.96 0 0
18 0 0
18.04 0 0
18.08 0 0
18.12 0 0
18.16 0 0
18.2 0 0
18.24 0 0
18.28 0 0
18.32 0 0
18.36 0 0
18.4 0 0
18.44 0 0
18.48 0 0
18.52 0 0
18.56 0 0
18.6 0 0
18.64 0 0
18.68 0 0
18.72 0 0
18.76 0 0
18.8 0 0
18.84 0 0
18.88 0 0
18.92 0 0
18.96 0 0
19 0 0
19.04 0 0
19.08 0 0
19.12 0 0
19.16 0 0
19.2 0 0
19.24 0 0
19.28 0 0
19.32 0 0
19.36 0 0
19.4 0 0
19.44 0 0
19.48 0 0
19.52 0 0
19.56 0 0
19.6 0 0
19.64 0 0
19.68 0 0
19.72 0 0
19.76 0 0
19.8 0 0
19.84 0 0
19.88 0 0
19.92 0 0
19.96 0 0
20 0 0
20.04 0 0
20.08 0 0
20.12 0 0
20.16 0 0
20.2 0 0
20.24 0 0
20.28 0 0
20.32 0 0
20.36 0 0
20.4 0 0
20.44 0 0
20.48 0 0
20.52 0 0
20.56 0 0
20.6 0 0
20.64 0 0
20.68 0 0
20.72 0 0
20.76 0 0
20.8 0 0
20.84 0 0
20.88 0 0
20.92 0 0
20.96 0 0
21 0 0
21.04 0 0
21.08 0 0
21.12 0 0
21.16 0 0
21.2 0 0
21.24 0 0
21.28 0 0
21.32 0 0
21.36 0 0
21.4 0 0
21.44 0 0
21.48 0 0
21.52 0 0
21.56 0 0
21.6 0 0
21.64 0 0
21.68 0 0
21.72 0 0
21.76 0 0
21.8 0 0
21.84 0 0
21.88 0 0
21.92 0 0
21.96 0 0
22 0 0
22.04 0 0
22.08 0 0
22.12 0 0
22.16 0 0
22.2 0 0
22.24 0 0
22.28 0 0
22.32 0 0
22.36 0 0
22.4 0 0
22.44 0 0
22.48 0 0
22.52 0 0
22.56 0 0
22.6 0 0
22.64 0 0
22.68 0 0
22.72 0 0
22.76 0 0
22.8 0 0
22.84 0 0
22.88 0 0
22.92 0 0
22.96 0 0
23 0 0
23.04 0 0
23.08 0 0
23.12 0 0
23.16 0 0
23.2 0 0
23.24 0 0
23.28 0 0
23.32 0 0
23.36 0 0
23.4 0 0
23.44 0 0
23.48 0 0
23.52 0 0
23.56 0 0
23.6 0 0
23.64 0 0
23.68 0 0
23.72 0 0
23.76 0 0
23.8 0 0
23.84 0 0
23.88 0 0
23.92 0 0
23.96 0 0
24 0 0
24.04 0 0
24.08 0 0
24.12 0 0
24.16 0 0
24.2 0 0
24.24 0 0
24.28 0 0
24.32 0 0
24.36 0 0
24.4 0 0
24.44 0 0
24.48 0 0
24.52 0 0
24.56 0 0
24.6 0 0
24.64 0 0
24.68 0 0
24.72 0 0
24.76 0 0
24.8 0 0
24.84 0 0
24.88 0 0
24.92 0 0
24.96 0 0
25 0 0
25.04 0 0
25.08 0 0
25.12 0 0
25.16 0 0
25.2 0 0
25.24 0 0
25.28 0 0
25.32 0 0
25.36 0 0
25.4 0 0
25.44 0 0
25.48 0 0
25.52 0 0
25.56 0 0
25.6 0 0
25.64 0 0
25.68 0 0
25.72 0 0
25.76 0 0
25.8 0 0
25.84 0 0
25.88 0 0
25.92 0 0
25.96 0 0
26 0 0
26.04 0 0
26.08 0 0
26.12 0 0
26.16 0 0
26.2 0 0
26.24 0 0
26.28 0 0
26.32 0 0
26.36 0 0
26.4 0 0
26.44 0 0
26.48 0 0
26.52 0 0
26.56 0 0
26.6 0 0
26.64 0 0
26.68 0 0
26.72 0 0
26.76 0 0
26.8 0 0
26.84 0 0
26.88 0 0
26.92 0 0
26.96 0 0
27 0 0
27.04 0 0
27.08 0 0
27.12 0 0
27.16 0 0
27.2 0 0
27.24 0 0
27.28 0 0
27.32 0 0
27.36 0 0
27.4 0 0
27.44 0 0
27.48 0 0
27.52 0 0
27.56 0 0
27.6 0 0
27.64 0 0
27.68 0 0
27.72 0 0
27.76 0 0
27.8 0 0
27.84 0 0
27.88 0 0
27.92 0 0
27.96 0 0
28 0 0
28.04 0 0
28.08 0 0
28.12 0 0
28.16 0 0
28.2 0 0
28.24 0 0
28.28 0 0
28.32 0 0
28.36 0 0
28.4 0 0
28.44 0 0
28.48 0 0
28.52 0 0
28.56 0 0
28.6 0 0
28.64 0 0
28.68 0 0
28.72 0 0
28.76 0 0
28.8 0 0
28.84 0 0
28.88 0 0
28.92 0 0
28.96 0 0
29 0 0
29.04 0 0
29.08 0 0
29.12 0 0
29.16 0 0
29.2 0 0
29.24 0 0
29.28 0 0
29.32 0 0
29.36 0 0
29.4 0 0
29.44 0 0
29.48 0 0
29.52 0 0
29.56 0 0
29.6 0 0
29.64 0 0
29.68 0 0
29.72 0 0
29.76 0 0
29.8 0 0
29.84 0 0
29.88 0 0
29.92 0 0
29.96 0 0
30 0 0
30.04 0 0
30.08 0 0
30.12 0 0
30.16 0 0
30.2 0 0
30.24 0 0
30.28 0 0
30.32 0 0
30.36 0 0
30.4 0 0
30.44 0 0
30.48 0 0
30.52 0 0
30.56 0 0
30.6 0 0
30.64 0 0
30.68 0 0
30.72 0 0
30.76 0 0
30.8 0 0
30.84 0 0
30.88 0 0
30.92 0 0
30.96 0 0
31 0 0
31.04 0 0
31.08 0 0
31.12 0 0
31.16 0 0
31.2 0 0
31.24 0 0
31.28 0 0
31.32 0 0
31.36 0 0
31.4 0 0
31.44 0 0
31.48 0 0
31.52 0 0
31.56 0 0
31.6 0 0
31.64 0 0
31.68 0 0
31.72 0 0
31.76 0 0
31.8 0 0
31.84 0 0
31.88 0 0
31.92 0 0
31.96 0 0
0 0.005 0
0.04 0.005 0
0.08 0.005 0
0.12 0.005 0
0.16 0.005 0
0.2 0.005 0
0.24 0.005 0
0.28 0.005 0
0.32 0.005 0
0.36 0.005 0
0.4 0.005 0
0.44 0.005 0
0.48 0.005 0
0.52 0.005 0
0.56 0.005 0
0.6 0.005 0
0.64 0.005 0
0.68 0.005 0
0.72 0.005 0
0.76 0.005 0
0.8 0.005 0
0.84 0.005 0
0.88 0.005 0
0.92 0.005 0
0.96 0.005 0
1 0.005 0
1.04 0.005 0
1.08 0.005 0
1.12 0.005 0
1.16 0.005 0
1.2 0.005 0
1.24 0.005 0
1.28 0.005 0
1.32 0.005 0
1.36 0.005 0
1.4 0.005 0
1.44 0.005 0
1.48 0.005 0
1.52 0.005 0
1.56 0.005 0
1.6 0.005 0
1.64 0.005 0
1.68 0.005 0
1.72 0.005 0
1.76 0.005 0
1.8 0.005 0
1.84 0.005 0
1.88 0.005 0
1.92 0.005 0
1.96 0.005 0
2 0.005 0
2.04 0.005 0
2.08 0.005 0
2.12 0.005 0
2.16 0.005 0
2.2 0.005 0
2.24 0.005 0
2.28 0.005 0
2.32 0.005 0
2.36 0.005 0
2.4 0.005 0
2.44 0.005 0
2.48 0.005 0
2.52 0.005 0
2.56 0.005 0
2.6 0.005 0
2.64 0.005 0
2.68 0.005 0
2.72 0.005 0
2.76 0.005 0
2.8 0.005 0
2.84 0.005 0
2.88 0.005 0
2.92 0.005 0
2.96 0.005 0
3 0.005 0
3.04 0.005 0
3.08 0.005 0
3.12 0.005 0
3.16 0.005 0
3.2 0.005 0
3.24 0.005 0
3.28 0.005 0
3.32 0.005 0
3.36 0.005 0
3.4 0.005 0
3.44 0.005 0
3.48 0.005 0
3.52 0.005 0
3.56 0.005 0
3.6 0.005 0
3.64 0.005 0
3.68 0.005 0
3.72 0.005 0
3.76 0.005 0
3.8 0.005 0
3.84 0.005 0
3.88 0.005 0
3.92 0.005 0
3.96 0.005 0
4 0.005 0
4.04 0.005 0
4.08 0.005 0
4.12 0.005 0
4.16 0.005 0
4.2 0.005 0
4.24 0.005 0
4.28 0.005 0
4.32 0.005 0
4.36 0.005 0
4.4 0.005 0
4.44 0.005 0
4.48 0.005 0
4.52 0.005 0
4.56 0.005 0
4.6 0.005 0
4.64 0.005 0
4.68 0.005 0
4.72 0.005 0
4.76 0.005 0
4.8 0.005 0
4.84 0.005 0
4.88 0.005 0
4.92 0.005 0
4.96 0.005 0
5 0.005 0
5.04 0.005 0
5.08 0.005 0
5.12 0.005 0
5.16 0.005 0
5.2 0.005 0
5.24 0.005 0
5.28 0.005 0
5.32 0.005 0
5.36 0.005 0
5.4 0.005 0
5.44 0.005 0
5.48 0.005 0
5.52 0.005 0
5.56 0.005 0
5.6 0.005 0
5.64 0.005 0
5.68 0.005 0
5.72 0.005 0
5.76 0.005 0
5.8 0.005 0
5.84 0.005 0
5.88 0.005 0
5.92 0.005 0
5.96 0.005 0
6 0.005 0
6.04 0.005 0
6.08 0.005 0
6.12 0.005 0
6.16 0.005 0
6.2 0.005 0
6.24 0.005 0
6.28 0.005 0
6.32 0.005 0
6.36 0.005 0
6.4 0.005 0
6.44 0.005 0
6.48 0.005 0
6.52 0.005 0
6.56 0.005 0
6.6 0.005 0
6.64 0.005 0
6.68 0.005 0
6.72 0.005 0
6.76 0.005 0
6.8 0.005 0
6.84 0.005 0
6.88 0.005 0
6.92 0.005 0
6.96 0.005 0
7 0.005 0
7.04 0.005 0
7.08 0.005 0
7.12 0.005 0
7.16 0.005 0
7.2 0.005 0
7.24 0.005 0
7.28 0.005 0
7.32 0.005 0
7.36 0.005 0
7.4 0.005 0
[...]
POINT_DATA 160000

SCALARS u float 1
LOOKUP_TABLE default
-1
-0.483308
-0.183986
-0.108929
-0.0811875
-0.0670977
-0.05854
-0.0527446
-0.0485224
-0.0453421
-0.0429919
-0.0413702
-0.0403649
-0.0398266
-0.0395972
-0.0395443
-0.039577
-0.0396417
-0.0397114
-0.0397749
-0.0398284
-0.039872
-0.0399068
-0.0399344
-0.0399562
-0.0399733
-0.0399867
-0.0399972
-0.0400053
-0.0400116
-0.0400164
-0.04002
-0.0400228
-0.0400247
-0.0400262
-0.0400271
-0.0400277
-0.040028
-0.0400281
-0.040028
-0.0400277
-0.0400274
-0.040027
-0.0400265
-0.040026
-0.0400254
-0.0400248
-0.0400242
-0.0400235
-0.0400229
-0.0400222
-0.0400215
-0.0400208
-0.0400201
-0.0400194
-0.0400187
-0.040018
-0.0400173
-0.0400166
-0.0400159
-0.0400152
-0.0400145
-0.0400138
-0.0400131
-0.0400124
-0.0400117
-0.0400109
-0.0400102
-0.0400095
-0.0400088
-0.0400081
-0.0400074
-0.0400067
-0.0400059
-0.0400052
-0.0400045
-0.0400038
-0.0400031
-0.0400023
-0.0400016
-0.0400009
-0.0400002
-0.0399994
-0.0399987
-0.039998
-0.0399973
-0.0399965
-0.0399958
-0.0399951
-0.0399943
-0.0399936
-0.0399929
-0.0399921
-0.0399914
-0.0399907
-0.0399899
-0.0399892
-0.0399884
-0.0399877
-0.0399869
-0.0399862
-0.0399855
-0.0399847
-0.039984
-0.0399832
-0.0399825
-0.0399817
-0.039981
-0.0399802
-0.0399795
-0.0399787
-0.039978
-0.0399772
-0.0399765
-0.0399757
-0.039975
-0.0399742
-0.0399735
-0.0399727
-0.039972
-0.0399712
-0.0399704
-0.0399697
-0.0399689
-0.0399682
-0.0399674
-0.0399667
-0.0399659
-0.0399651
-0.0399644
-0.0399636
-0.0399628
-0.0399621
-0.0399613
-0.0399605
-0.0399598
-0.039959
-0.0399582
-0.0399575
-0.0399567
-0.0399559
-0.0399552
-0.0399544
-0.0399536
-0.0399528
-0.0399521
-0.0399513
-0.0399505
-0.0399497
-0.0399489
-0.0399482
-0.0399474
-0.0399466
-0.0399458
-0.039945
-0.0399443
-0.0399435
-0.0399427
-0.0399419
-0.0399411
-0.0399403
-0.0399395
-0.0399388
-0.039938
-0.0399372
-0.0399364
-0.0399356
-0.0399348
-0.039934
-0.0399332
-0.0399324
-0.0399316
-0.0399309
-0.0399301
-0.0399293
-0.0399285
-0.0399277
-0.0399269
-0.0399261
-0.0399253
-0.0399245
-0.0399237
-0.0399229
-0.0399221
-0.0399213
-0.0399205
-0.0399197
-0.0399188
-0.039918
-0.0399172
-0.0399164
-0.0399156
-0.0399148
-0.039914
-0.0399131
-0.0399123
-0.0399115
-0.0399107
-0.0399099
-0.039909
-0.0399082
-0.0399074
-0.0399065
-0.0399057
-0.0399049
-0.039904
-0.0399032
-0.0399024
-0.0399015
-0.0399007
-0.0398998
-0.039899
-0.0398981
-0.0398973
-0.0398964
-0.0398956
-0.0398947
-0.0398939
-0.039893
-0.0398922
-0.0398913
-0.0398905
-0.0398896
-0.0398887
-0.0398879
-0.039887
-0.0398861
-0.0398852
-0.0398844
-0.0398835
-0.0398826
-0.0398817
-0.0398809
-0.03988
-0.0398791
-0.0398782
-0.0398773
-0.0398764
-0.0398755
-0.0398746
-0.0398737
-0.0398728
-0.0398719
-0.039871
-0.0398701
-0.0398692
-0.0398683
-0.0398673
-0.0398664
-0.0398655
-0.0398646
-0.0398637
-0.0398627
-0.0398618
-0.0398609
-0.03986
-0.039859
-0.0398581
-0.0398572
-0.0398562
-0.0398553
-0.0398544
-0.0398534
-0.0398525
-0.0398516
-0.0398506
-0.0398497
-0.0398488
-0.0398478
-0.0398469
-0.0398459
-0.039845
-0.0398441
-0.0398431
-0.0398422
-0.0398412
-0.0398403
-0.0398394
-0.0398384
-0.0398375
-0.0398365
-0.0398356
-0.0398346
-0.0398337
-0.0398328
-0.0398318
-0.0398309
-0.0398299
-0.039829
-0.039828
-0.0398271
-0.0398261
-0.0398252
-0.0398242
-0.0398233
-0.0398223
-0.0398214
-0.0398204
-0.0398195
-0.0398185
-0.0398176
-0.0398166
-0.0398156
-0.0398147
-0.0398137
-0.0398128
-0.0398118
-0.0398108
-0.0398099
-0.0398089
-0.0398079
-0.039807
-0.039806
-0.039805
-0.039804
-0.039803
-0.0398021
-0.0398011
-0.0398001
-0.0397991
-0.0397981
-0.0397971
-0.0397961
-0.0397951
-0.0397941
-0.0397931
-0.0397921
-0.0397911
-0.0397901
-0.039789
-0.039788
-0.039787
-0.0397859
-0.0397849
-0.0397839
-0.0397828
-0.0397818
-0.0397807
-0.0397796
-0.0397786
-0.0397775
-0.0397765
-0.0397754
-0.0397743
-0.0397732
-0.0397721
-0.0397711
-0.03977
-0.0397689
-0.0397678
-0.0397667
-0.0397656
-0.0397645
-0.0397634
-0.0397623
-0.0397611
-0.03976
-0.0397589
-0.0397578
-0.0397567
-0.0397556
-0.0397544
-0.0397533
-0.0397522
-0.0397511
-0.0397499
-0.0397488
-0.0397477
-0.0397466
-0.0397454
-0.0397443
-0.0397432
-0.039742
-0.0397409
-0.0397398
-0.0397386
-0.0397375
-0.0397364
-0.0397352
-0.0397341
-0.039733
-0.0397318
-0.0397307
-0.0397295
-0.0397284
-0.0397272
-0.0397261
-0.0397249
-0.0397238
-0.0397226
-0.0397215
-0.0397203
-0.0397191
-0.0397179
-0.0397168
-0.0397156
-0.0397144
-0.0397132
-0.039712
-0.0397108
-0.0397096
-0.0397084
-0.0397072
-0.039706
-0.0397048
-0.0397036
-0.0397023
-0.0397011
-0.0396999
-0.0396986
-0.0396974
-0.0396961
-0.0396949
-0.0396936
-0.0396923
-0.0396911
-0.0396898
-0.0396885
-0.0396872
-0.0396859
-0.0396846
-0.0396833
-0.039682
-0.0396807
-0.0396794
-0.0396781
-0.0396768
-0.0396755
-0.0396741
-0.0396728
-0.0396715
-0.0396702
-0.0396688
-0.0396675
-0.0396661
-0.0396648
-0.0396634
-0.0396621
-0.0396607
-0.0396593
-0.039658
-0.0396566
-0.0396552
-0.0396539
-0.0396525
-0.0396511
-0.0396497
-0.0396483
-0.0396469
-0.0396455
-0.0396441
-0.0396427
-0.0396413
-0.0396399
-0.0396384
-0.039637
-0.0396356
-0.0396341
-0.0396327
-0.0396312
-0.0396298
-0.0396283
-0.0396268
-0.0396254
-0.0396239
-0.0396224
-0.0396209
-0.0396194
-0.0396179
-0.0396164
-0.0396148
-0.0396133
-0.0396118
-0.0396102
-0.0396087
-0.0396071
-0.0396056
-0.039604
-0.0396024
-0.0396008
-0.0395993
-0.0395977
-0.0395961
-0.0395944
-0.0395928
-0.0395912
-0.0395896
-0.0395879
-0.0395863
-0.0395846
-0.039583
-0.0395813
-0.0395796
-0.0395779
-0.0395762
-0.0395745
-0.0395728
-0.0395711
-0.0395694
-0.0395677
-0.0395659
-0.0395642
-0.0395624
-0.0395606
-0.0395589
-0.0395571
-0.0395553
-0.0395535
-0.0395517
-0.0395498
-0.039548
-0.0395462
-0.0395443
-0.0395424
-0.0395406
-0.0395387
-0.0395368
-0.0395349
-0.039533
-0.039531
-0.0395291
-0.0395271
-0.0395252
-0.0395232
-0.0395212
-0.0395192
-0.0395172
-0.0395152
-0.0395131
-0.0395111
-0.039509
-0.0395069
-0.0395048
-0.0395027
-0.0395006
-0.0394984
-0.0394963
-0.0394941
-0.0394919
-0.0394897
-0.0394875
-0.0394853
-0.039483
-0.0394808
-0.0394785
-0.0394762
-0.0394739
-0.0394715
-0.0394692
-0.0394668
-0.0394644
-0.039462
-0.0394595
-0.039457
-0.0394546
-0.0394521
-0.0394495
-0.039447
-0.0394444
-0.0394418
-0.0394392
-0.0394365
-0.0394339
-0.0394311
-0.0394284
-0.0394257
-0.0394229
-0.0394201
-0.0394172
-0.0394143
-0.0394114
-0.0394085
-0.0394055
-0.0394025
-0.0393994
-0.0393964
-0.0393932
-0.0393901
-0.0393869
-0.0393836
-0.0393803
-0.039377
-0.0393736
-0.0393701
-0.0393666
-0.039363
-0.0393594
-0.0393557
-0.039352
-0.0393481
-0.0393442
-0.0393403
-0.0393362
-0.039332
-0.0393278
-0.0393234
-0.0393189
-0.0393143
-0.0393096
-0.0393048
-0.0392997
-0.0392946
-0.0392892
-0.0392837
-0.039278
-0.039272
-0.0392658
-0.0392594
-0.0392527
-0.0392457
-0.0392383
-0.0392307
-0.0392226
-0.0392141
-0.0392052
-0.0391958
-0.039186
-0.0391755
-0.0391645
-0.0391528
-0.0391405
-0.0391274
-0.0391136
-0.0390989
-0.0390833
-0.0390668
-0.0390493
-0.0390308
-0.0390111
-0.0389903
-0.0389682
-0.0389448
-0.0389201
-0.0388939
-0.0388663
-0.0388371
-0.0388063
-0.0387738
-0.0387397
-0.0387038
-0.038666
-0.0386265
-0.038585
-0.0385416
-0.0384963
-0.038449
-0.0383997
-0.0383485
-0.0382953
-0.0382401
-0.0381829
-0.0381238
-0.0380629
-0.0380001
-0.0379354
-0.0378691
-0.0378011
-0.0377316
-0.0376605
-0.037588
-0.0375143
-0.0374394
-0.0373634
-0.0372865
-0.0372088
-0.0371305
-0.0370516
-0.0369723
-0.0368928
-0.0368133
-0.0367337
-0.0366545
-0.0365755
-0.0364971
-0.0364194
-0.0363424
-0.0362664
-0.0361914
-0.0361177
-0.0360452
-0.0359742
-0.0359047
-0.0358368
-0.0357707
-0.0357064
-0.0356439
-0.0355833
-0.0355248
-0.0354683
-0.0354138
-0.0353615
-0.0353112
-0.0352631
-0.035217
-0.0351731
-0.0351313
-0.0350915
-0.0350538
-0.0350181
-0.0349844
-0.0349525
-0.0349226
-0.0348944
-0.034868
-0.0348433
-0.0348202
-0.0347987
-0.0347787
-0.0347601
-0.0347428
-0.0347269
-0.0347122
-0.0346986
-0.0346861
-0.0346746
-0.0346641
-0.0346545
-0.0346458
-0.0346378
-0.0346305
-0.0346239
-0.0346179
-0.0346126
-0.0346077
-0.0346033
-0.0345994
-0.0345958
-0.0345927
-0.0345898
-0.0345873
-0.034585
-0.0345831
-0.0345813
-0.0345797
-0.0345783
-0.0345771
-0.034576
-0.0345751
-0.0345743
-0.0345735
-0.0345729
-0.0345723
-0.0345719
-0.0345714
-0.0345711
-0.0345708
-0.0345705
-0.0345703
-0.0345701
-0.0345699
-0.0345698
-0.0345696
-0.0345695
-0.0345694
-0.0345693
-0.0345693
-0.0345692
-0.0345692
-0.0345691
-0.0345691
-0.0345691
-0.034569
-0.034569
-0.034569
-0.034569
-0.034569
-0.034569
-0.034569
-0.034569
-0.034569
-0.034569
-0.0345689
-0.0345689
-0.0345689
-0.0345689
-0.0345689
-0.0345689
-0.0345689
-0.0345689
-0.0345689
-0.0345689
-0.0345689
-0.0345689
-0.0345689
-0.0345689
-0.0345689
-0.0345689
-0.0345689
-0.0345689
-0.0345689
-0.0345689
-0.0345689
-0.0345689
-0.0345689
-0.0345689
-0.0345689
-0.0345689
-0.0345689
-0.0345689
-0.0345689
1
0.483308
0.183986
0.108929
0.0811875
0.0670977
0.05854
0.0527446
0.0485224
0.0453421
0.0429919
0.0413702
0.0403649
0.0398266
0.0395972
0.0395443
0.039577
0.0396417
0.0397114
0.0397749
0.0398284
0.039872
0.0399068
0.0399344
0.0399562
0.0399733
0.0399867
0.0399972
0.0400053
0.0400116
0.0400164
0.04002
0.0400228
0.0400247
0.0400262
0.0400271
0.0400277
0.040028
0.0400281
0.040028
0.0400277
0.0400274
0.040027
0.0400265
0.040026
0.0400254
0.0400248
0.0400242
0.0400235
0.0400229
0.0400222
0.0400215
0.0400208
0.0400201
0.0400194
0.0400187
0.040018
0.0400173
0.0400166
0.0400159
0.0400152
0.0400145
0.0400138
0.0400131
0.0400124
0.0400117
0.0400109
0.0400102
0.0400095
0.0400088
0.0400081
0.0400074
0.0400067
0.0400059
0.0400052
0.0400045
0.0400038
0.0400031
0.0400023
0.0400016
0.0400009
0.0400002
0.0399994
0.0399987
0.039998
0.0399973
0.0399965
0.0399958
0.0399951
0.0399943
0.0399936
0.0399929
0.0399921
0.0399914
0.0399907
0.0399899
0.0399892
0.0399884
0.0399877
0.0399869
0.0399862
0.0399855
0.0399847
0.039984
0.0399832
0.0399825
0.0399817
0.039981
0.0399802
0.0399795
0.0399787
0.039978
0.0399772
0.0399765
0.0399757
0.039975
0.0399742
0.0399735
0.0399727
0.039972
0.0399712
0.0399704
0.0399697
0.0399689
0.0399682
0.0399674
0.0399667
0.0399659
0.0399651
0.0399644
0.0399636
0.0399628
0.0399621
0.0399613
0.0399605
0.0399598
0.039959
0.0399582
0.0399575
0.0399567
0.0399559
0.0399552
0.0399544
0.0399536
0.0399528
0.0399521
0.0399513
0.0399505
0.0399497
0.0399489
0.0399482
0.0399474
0.0399466
0.0399458
0.039945
0.0399443
0.0399435
0.0399427
0.0399419
0.0399411
0.0399403
0.0399395
0.0399388
0.039938
0.0399372
0.0399364
0.0399356
0.0399348
0.039934
0.0399332
0.0399324
0.0399316
0.0399309
0.0399301
0.0399293
0.0399285
0.0399277
0.0399269
0.0399261
0.0399253
0.0399245
0.0399237
0.0399229
0.0399221
0.0399213
0.0399205
0.0399197
0.0399188
0.039918
0.0399172
0.0399164
0.0399156
0.0399148
0.039914
0.0399131
0.0399123
0.0399115
0.0399107
0.0399099
0.039909
0.0399082
0.0399074
0.0399065
0.0399057
0.0399049
0.039904
0.0399032
0.0399024
0.0399015
0.0399007
0.0398998
0.039899
0.0398981
0.0398973
0.0398964
0.0398956
0.0398947
0.0398939
0.039893
0.0398922
0.0398913
0.0398905
0.0398896
0.0398887
0.0398879
0.039887
0.0398861
0.0398852
0.0398844
0.0398835
0.0398826
0.0398817
0.0398809
0.03988
0.0398791
0.0398782
0.0398773
0.0398764
0.0398755
0.0398746
0.0398737
0.0398728
0.0398719
0.039871
0.0398701
0.0398692
0.0398683
0.0398673
0.0398664
0.0398655
0.0398646
0.0398637
0.0398627
0.0398618
0.0398609
0.03986
0.039859
0.0398581
0.0398572
0.0398562
0.0398553
0.0398544
0.0398534
0.0398525
0.0398516
0.0398506
0.0398497
0.0398488
0.0398478
0.0398469
0.0398459
0.039845
0.0398441
0.0398431
0.0398422
0.0398412
0.0398403
0.0398394
0.0398384
0.0398375
0.0398365
0.0398356
0.0398346
0.0398337
0.0398328
0.0398318
0.0398309
0.0398299
0.039829
0.039828
0.0398271
0.0398261
0.0398252
0.0398242
0.0398233
0.0398223
0.0398214
0.0398204
0.0398195
0.0398185
0.0398176
0.0398166
0.0398156
0.0398147
0.0398137
0.0398128
0.0398118
0.0398108
0.0398099
0.0398089
0.0398079
0.039807
0.039806
0.039805
0.039804
0.039803
0.0398021
0.0398011
0.0398001
0.0397991
0.0397981
0.0397971
0.0397961
0.0397951
0.0397941
0.0397931
0.0397921
0.0397911
0.0397901
0.039789
0.039788
0.039787
0.0397859
0.0397849
0.0397839
0.0397828
0.0397818
0.0397807
0.0397796
0.0397786
0.0397775
0.0397765
0.0397754
0.0397743
0.0397732
0.0397721
0.0397711
0.03977
0.0397689
0.0397678
0.0397667
0.0397656
0.0397645
0.0397634
0.0397623
0.0397611
0.03976
0.0397589
0.0397578
0.0397567
0.0397556
0.0397544
0.0397533
0.0397522
0.0397511
0.0397499
0.0397488
0.0397477
0.0397466
0.0397454
0.0397443
0.0397432
0.039742
0.0397409
0.0397398
0.0397386
0.0397375
0.0397364
0.0397352
0.0397341
0.039733
0.0397318
0.0397307
0.0397295
0.0397284
0.0397272
0.0397261
0.0397249
0.0397238
0.0397226
0.0397215
0.0397203
0.0397191
0.0397179
0.0397168
0.0397156
0.0397144
0.0397132
0.039712
0.0397108
0.0397096
0.0397084
0.0397072
0.039706
0.0397048
0.0397036
0.0397023
0.0397011
0.0396999
0.0396986
0.0396974
0.0396961
0.0396949
0.0396936
0.0396923
0.0396911
0.0396898
0.0396885
0.0396872
0.0396859
0.0396846
0.0396833
0.039682
0.0396807
0.0396794
0.0396781
0.0396768
0.0396755
0.0396741
0.0396728
0.0396715
0.0396702
0.0396688
0.0396675
0.0396661
0.0396648
0.0396634
0.0396621
0.0396607
0.0396593
0.039658
0.0396566
0.0396552
0.0396539
0.0396525
0.0396511
0.0396497
0.0396483
0.0396469
0.0396455
0.0396441
0.0396427
0.0396413
0.0396399
0.0396384
0.039637
0.0396356
0.0396341
0.0396327
0.0396312
0.0396298
0.0396283
0.0396268
0.0396254
0.0396239
0.0396224
0.0396209
0.0396194
0.0396179
0.0396164
0.0396148
0.0396133
0.0396118
0.0396102
0.0396087
0.0396071
0.0396056
0.039604
0.0396024
0.0396008
0.0395993
0.0395977
0.0395961
0.0395944
0.0395928
0.0395912
0.0395896
0.0395879
0.0395863
0.0395846
0.039583
0.0395813
0.0395796
0.0395779
0.0395762
0.0395745
0.0395728
0.0395711
0.0395694
0.0395677
0.0395659
0.0395642
0.0395624
0.0395606
0.0395589
0.0395571
0.0395553
0.0395535
0.0395517
0.0395498
0.039548
0.0395462
0.0395443
0.0395424
0.0395406
0.0395387
0.0395368
0.0395349
0.039533
0.039531
0.0395291
0.0395271
0.0395252
0.0395232
0.0395212
0.0395192
0.0395172
0.0395152
0.0395131
0.0395111
0.039509
0.0395069
0.0395048
0.0395027
0.0395006
0.0394984
0.0394963
0.0394941
0.0394919
0.0394897
0.0394875
0.0394853
0.039483
0.0394808
0.0394785
0.0394762
0.0394739
0.0394715
0.0394692
0.0394668
0.0394644
0.039462
0.0394595
0.039457
0.0394546
0.0394521
0.0394495
0.039447
0.0394444
0.0394418
0.0394392
0.0394365
0.0394339
0.0394311
0.0394284
0.0394257
0.0394229
0.0394201
0.0394172
0.0394143
0.0394114
0.0394085
0.0394055
0.0394025
0.0393994
0.0393964
0.0393932
0.0393901
0.0393869
0.0393836
0.0393803
0.039377
0.0393736
0.0393701
0.0393666
0.039363
0.0393594
0.0393557
0.039352
0.0393481
0.0393442
0.0393403
0.0393362
0.039332
0.0393278
0.0393234
0.0393189
0.0393143
0.0393096
0.0393048
0.0392997
0.0392946
0.0392892
0.0392837
0.039278
0.039272
0.0392658
0.0392594
0.0392527
0.0392457
0.0392383
0.0392307
0.0392226
0.0392141
0.0392052
0.0391958
0.039186
0.0391755
0.0391645
0.0391528
0.0391405
0.0391274
0.0391136
0.0390989
0.0390833
0.0390668
0.0390493
0.0390308
0.0390111
0.0389903
0.0389682
0.0389448
0.0389201
0.0388939
0.0388663
0.0388371
0.0388063
0.0387738
0.0387397
0.0387038
0.038666
0.0386265
0.038585
0.0385416
0.0384963
0.038449
0.0383997
0.0383485
0.0382953
0.0382401
0.0381829
0.0381238
0.0380629
0.0380001
0.0379354
0.0378691
0.0378011
0.0377316
0.0376605
0.037588
0.0375143
0.0374394
0.0373634
0.0372865
0.0372088
0.0371305
0.0370516
0.0369723
0.0368928
0.0368133
0.0367337
0.0366545
0.0365755
0.0364971
0.0364194
0.0363424
0.0362664
0.0361914
0.0361177
0.0360452
0.0359742
0.0359047
0.0358368
0.0357707
0.0357064
0.0356439
0.0355833
0.0355248
0.0354683
0.0354138
0.0353615
0.0353112
0.0352631
0.035217
0.0351731
0.0351313
0.0350915
0.0350538
0.0350181
0.0349844
0.0349525
0.0349226
0.0348944
0.034868
0.0348433
0.0348202
0.0347987
0.0347787
0.0347601
0.0347428
0.0347269
0.0347122
0.0346986
0.0346861
0.0346746
0.0346641
0.0346545
0.0346458
0.0346378
0.0346305
0.0346239
0.0346179
0.0346126
0.0346077
0.0346033
0.0345994
0.0345958
0.0345927
0.0345898
0.0345873
0.034585
0.0345831
0.0345813
0.0345797
0.0345783
0.0345771
0.034576
0.0345751
0.0345743
0.0345735
0.0345729
0.0345723
0.0345719
0.0345714
0.0345711
0.0345708
0.0345705
0.0345703
0.0345701
0.0345699
0.0345698
0.0345696
0.0345695
0.0345694
0.0345693
0.0345693
0.0345692
0.0345692
0.0345691
0.0345691
0.0345691
0.034569
0.034569
0.034569
0.034569
0.034569
0.034569
0.034569
0.034569
0.034569
0.034569
0.0345689
0.0345689
0.0345689
0.0345689
0.0345689
0.0345689
0.0345689
0.0345689
0.0345689
0.0345689
0.0345689
0.0345689
0.0345689
0.0345689
0.0345689
0.0345689
0.0345689
0.0345689
0.0345689
0.0345689
0.0345689
0.0345689
0.0345689
0.0345689
0.0345689
0.0345689
0.0345689
0.0345689
0.0345689
1
0.969108
0.495672
0.314442
0.238324
0.198152
0.173355
0.156414
0.144035
0.134741
0.127924
0.123257
0.120373
0.118817
0.118128
0.117933
0.117979
0.118119
0.118279
0.118428
0.118555
0.118659
0.118742
0.118809
0.118861
0.118902
0.118934
0.118959
0.118979
0.118994
0.119005
0.119013
0.119019
0.119024
0.119026
0.119028
0.119029
0.119029
0.119028
0.119027
0.119026
0.119024
0.119022
0.11902
0.119018
0.119015
0.119013
0.119011
0.119008
0.119006
0.119003
0.119
0.118998
0.118995
0.118993
0.11899
0.118987
0.118985
0.118982
0.118979
0.118977
0.118974
0.118971
0.118969
0.118966
0.118963
0.11896
0.118958
0.118955
0.118952
0.11895
0.118947
0.118944
0.118941
0.118939
0.118936
0.118933
0.118931
0.118928
0.118925
0.118922
0.11892
0.118917
0.118914
0.118911
0.118908
0.118906
0.118903
0.1189
0.118897
0.118894
0.118892
0.118889
0.118886
0.118883
0.11888
0.118878
0.118875
0.118872
0.118869
0.118866
0.118863
0.118861
0.118858
0.118855
0.118852
0.118849
0.118846
0.118843
0.118841
0.118838
0.118835
0.118832
0.118829
0.118826
0.118823
0.11882
0.118817
0.118815
0.118812
0.118809
0.118806
0.118803
0.1188
0.118797
0.118794
0.118791
0.118788
0.118785
0.118782
0.118779
0.118776
0.118773
0.11877
0.118768
0.118765
0.118762
0.118759
0.118756
0.118753
0.11875
0.118747
0.118744
0.118741
0.118738
0.118734
0.118731
0.118728
0.118725
0.118722
0.118719
0.118716
0.118713
0.11871
0.118707
0.118704
0.118701
0.118698
0.118695
0.118692
0.118689
0.118685
0.118682
0.118679
0.118676
0.118673
0.11867
0.118667
0.118664
0.118661
0.118657
0.118654
0.118651
0.118648
0.118645
0.118642
0.118638
0.118635
0.118632
0.118629
0.118626
0.118623
0.118619
0.118616
0.118613
0.11861
0.118606
0.118603
0.1186
0.118597
0.118593
0.11859
0.118587
0.118584
0.11858
0.118577
0.118574
0.11857
0.118567
0.118564
0.11856
0.118557
0.118554
0.11855
0.118547
0.118544
0.11854
0.118537
0.118534
0.11853
0.118527
0.118523
0.11852
0.118517
0.118513
0.11851
0.118506
0.118503
0.118499
0.118496
0.118493
0.118489
0.118486
0.118482
0.118479
0.118475
0.118472
0.118468
0.118465
0.118461
0.118457
0.118454
0.11845
0.118447
0.118443
0.11844
0.118436
0.118432
0.118429
0.118425
0.118422
0.118418
0.118414
0.118411
0.118407
0.118403
0.1184
0.118396
0.118392
0.118388
0.118385
0.118381
0.118377
0.118374
0.11837
0.118366
0.118362
0.118359
0.118355
0.118351
0.118347
0.118344
0.11834
0.118336
0.118332
0.118328
0.118325
0.118321
0.118317
0.118313
0.118309
0.118305
0.118302
0.118298
0.118294
0.11829
0.118286
0.118282
0.118278
0.118274
0.118271
0.118267
0.118263
0.118259
0.118255
0.118251
0.118247
0.118243
0.118239
0.118235
0.118231
0.118227
0.118223
0.118219
0.118215
0.118211
0.118207
0.118203
0.118199
0.118195
0.118191
0.118187
0.118183
0.118179
0.118174
0.11817
0.118166
0.118162
0.118158
0.118154
0.11815
0.118145
0.118141
0.118137
0.118133
0.118129
0.118124
0.11812
0.118116
0.118112
0.118107
0.118103
0.118099
0.118094
0.11809
0.118086
0.118081
0.118077
0.118072
0.118068
0.118063
0.118059
0.118055
0.11805
0.118046
0.118041
0.118037
0.118032
0.118027
0.118023
0.118018
0.118014
0.118009
0.118004
0.118
0.117995
0.11799
0.117986
0.117981
0.117976
0.117972
0.117967
0.117962
0.117957
0.117952
0.117948
0.117943
0.117938
0.117933
0.117928
0.117923
0.117919
0.117914
0.117909
0.117904
0.117899
0.117894
0.117889
0.117884
0.117879
0.117874
0.117869
0.117864
0.117859
0.117854
0.117849
0.117844