# vtk DataFile Version 2.0
FlowField
ASCII
DATASET STRUCTURED_GRID
DIMENSIONS 800 1 200
POINTS 160000 float
0 0 0
0.04 0 0
0.08 0 0
0.12 0 0
0.16 0 0
0.2 0 0
0.24 0 0
0.28 0 0
0.32 0 0
0.36 0 0
0.4 0 0
0.44 0 0
0.48 0 0
0.52 0 0
0.56 0 0
0.6 0 0
0.64 0 0
0.68 0 0
0.72 0 0
0.76 0 0
0.8 0 0
0.84 0 0
0.88 0 0
0.92 0 0
0.96 0 0
1 0 0
1.04 0 0
1.08 0 0
1.12 0 0
1.16 0 0
1.2 0 0
1.24 0 0
1.28 0 0
1.32 0 0
1.36 0 0
1.4 0 0
1.44 0 0
1.48 0 0
1.52 0 0
1.56 0 0
1.6 0 0
1.64 0 0
1.68 0 0
1.72 0 0
1.76 0 0
1.8 0 0
1.84 0 0
1.88 0 0
1.92 0 0
1.96 0 0
2 0 0
2.04 0 0
2.08 0 0
2.12 0 0
2.16 0 0
2.2 0 0
2.24 0 0
2.28 0 0
2.32 0 0
2.36 0 0
2.4 0 0
2.44 0 0
2.48 0 0
2.52 0 0
2.56 0 0
2.6 0 0
2.64 0 0
2.68 0 0
2.72 0 0
2.76 0 0
2.8 0 0
2.84 0 0
2.88 0 0
2.92 0 0
2.96 0 0
3 0 0
3.04 0 0
3.08 0 0
3.12 0 0
3.16 0 0
3.2 0 0
3.24 0 0
3.28 0 0
3.32 0 0
3.36 0 0
3.4 0 0
3.44 0 0
3.48 0 0
3.52 0 0
3.56 0 0
3.6 0 0
3.64 0 0
3.68 0 0
3.72 0 0
3.76 0 0
3.8 0 0
3.84 0 0
3.88 0 0
3.92 0 0
3.96 0 0
4 0 0
4.04 0 0
4.08 0 0
4.12 0 0
4.16 0 0
4.2 0 0
4.24 0 0
4.28 0 0
4.32 0 0
4.36 0 0
4.4 0 0
4.44 0 0
4.48 0 0
4.52 0 0
4.56 0 0
4.6 0 0
4.64 0 0
4.68 0 0
4.72 0 0
4.76 0 0
4.8 0 0
4.84 0 0
4.88 0 0
4.92 0 0
4.96 0 0
5 0 0
5.04 0 0
5.08 0 0
5.12 0 0
5.16 0 0
5.2 0 0
5.24 0 0
5.28 0 0
5.32 0 0
5.36 0 0
5.4 0 0
5.44 0 0
5.48 0 0
5.52 0 0
5.56 0 0
5.6 0 0
5.64 0 0
5.68 0 0
5.72 0 0
5.76 0 0
5.8 0 0
5.84 0 0
5.88 0 0
5.92 0 0
5.96 0 0
6 0 0
6.04 0 0
6.08 0 0
6.12 0 0
6.16 0 0
6.2 0 0
6.24 0 0
6.28 0 0
6.32 0 0
6.36 0 0
6.4 0 0
6.44 0 0
6.48 0 0
6.52 0 0
6.56 0 0
6.6 0 0
6.64 0 0
6.68 0 0
6.72 0 0
6.76 0 0
6.8 0 0
6.84 0 0
6.88 0 0
6.92 0 0
6.96 0 0
7 0 0
7.04 0 0
7.08 0 0
7.12 0 0
7.16 0 0
7.2 0 0
7.24 0 0
7.28 0 0
7.32 0 0
7.36 0 0
7.4 0 0
7.44 0 0
7.48 0 0
7.52 0 0
7.56 0 0
7.6 0 0
7.64 0 0
7.68 0 0
7.72 0 0
7.76 0 0
7.8 0 0
7.84 0 0
7.88 0 0
7.92 0 0
7.96 0 0
8 0 0
8.04 0 0
8.08 0 0
8.12 0 0
8.16 0 0
8.2 0 0
8.24 0 0
8.28 0 0
8.32 0 0
8.36 0 0
8.4 0 0
8.44 0 0
8.48 0 0
8.52 0 0
8.56 0 0
8.6 0 0
8.64 0 0
8.68 0 0
8.72 0 0
8.76 0 0
8.8 0 0
8.84 0 0
8.88 0 0
8.92 0 0
8.96 0 0
9 0 0
9.04 0 0
9.08 0 0
9.12 0 0
9.16 0 0
9.2 0 0
9.24 0 0
9.28 0 0
9.32 0 0
9.36 0 0
9.4 0 0
9.44 0 0
9.48 0 0
9.52 0 0
9.56 0 0
9.6 0 0
9.64 0 0
9.68 0 0
9.72 0 0
9.76 0 0
9.8 0 0
9.84 0 0
9.88 0 0
9.92 0 0
9.96 0 0
10 0 0
10.04 0 0
10.08 0 0
10.12 0 0
10.16 0 0
10.2 0 0
10.24 0 0
10.28 0 0
10.32 0 0
10.36 0 0
10.4 0 0
10.44 0 0
10.48 0 0
10.52 0 0
10.56 0 0
10.6 0 0
10.64 0 0
10.68 0 0
10.72 0 0
10.76 0 0
10.8 0 0
10.84 0 0
10.88 0 0
10.92 0 0
10.96 0 0
11 0 0
11.04 0 0
11.08 0 0
11.12 0 0
11.16 0 0
11.2 0 0
11.24 0 0
11.28 0 0
11.32 0 0
11.36 0 0
11.4 0 0
11.44 0 0
11.48 0 0
11.52 0 0
11.56 0 0
11.6 0 0
11.64 0 0
11.68 0 0
11.72 0 0
11.76 0 0
11.8 0 0
11.84 0 0
11.88 0 0
11.92 0 0
11.96 0 0
12 0 0
12.04 0 0
12.08 0 0
12.12 0 0
12.16 0 0
12.2 0 0
12.24 0 0
12.28 0 0
12.32 0 0
12.36 0 0
12.4 0 0
12.44 0 0
12.48 0 0
12.52 0 0
12.56 0 0
12.6 0 0
12.64 0 0
12.68 0 0
12.72 0 0
12.76 0 0
12.8 0 0
12.84 0 0
12.88 0 0
12.92 0 0
12.96 0 0
13 0 0
13.04 0 0
13.08 0 0
13.12 0 0
13.16 0 0
13.2 0 0
13.24 0 0
13.28 0 0
13.32 0 0
13.36 0 0
13.4 0 0
13.44 0 0
13.48 0 0
13.52 0 0
13.56 0 0
13.6 0 0
13.64 0 0
13.68 0 0
13.72 0 0
13.76 0 0
13.8 0 0
13.84 0 0
13.88 0 0
13.92 0 0
13.96 0 0
14 0 0
14.04 0 0
14.08 0 0
14.12 0 0
14.16 0 0
14.2 0 0
14.24 0 0
14.28 0 0
14.32 0 0
14.36 0 0
14.4 0 0
14.44 0 0
14.48 0 0
14.52 0 0
14.56 0 0
14.6 0 0
14.64 0 0
14.68 0 0
14.72 0 0
14.76 0 0
14.8 0 0
14.84 0 0
14.88 0 0
14.92 0 0
14.96 0 0
15 0 0
15.04 0 0
15.08 0 0
15.12 0 0
15.16 0 0
15.2 0 0
15.24 0 0
15.28 0 0
15.32 0 0
15.36 0 0
15.4 0 0
15.44 0 0
15.48 0 0
15.52 0 0
15.56 0 0
15.6 0 0
15.64 0 0
15.68 0 0
15.72 0 0
15.76 0 0
15.8 0 0
15.84 0 0
15.88 0 0
15.92 0 0
15.96 0 0
16 0 0
16.04 0 0
16.08 0 0
16.12 0 0
16.16 0 0
16.2 0 0
16.24 0 0
16.28 0 0
16.32 0 0
16.36 0 0
16.4 0 0
16.44 0 0
16.48 0 0
16.52 0 0
16.56 0 0
16.6 0 0
16.64 0 0
16.68 0 0
16.72 0 0
16.76 0 0
16.8 0 0
16.84 0 0
16.88 0 0
16.92 0 0
16.96 0 0
17 0 0
17.04 0 0
17.08 0 0
17.12 0 0
17.16 0 0
17.2 0 0
17.24 0 0
17.28 0 0
17.32 0 0
17.36 0 0
17.4 0 0
17.44 0 0
17.48 0 0
17.52 0 0
17.56 0 0
17.6 0 0
17.64 0 0
17.68 0 0
17.72 0 0
17.76 0 0
17.8 0 0
17.84 0 0
17.88 0 0
17.92 0 0
17.96 0 0
18 0 0
18.04 0 0
18.08 0 0
18.12 0 0
18.16 0 0
18.2 0 0
18.24 0 0
18.28 0 0
18.32 0 0
18.36 0 0
18.4 0 0
18.44 0 0
18.48 0 0
18.52 0 0
18.56 0 0
18.6 0 0
18.64 0 0
18.68 0 0
18.72 0 0
18.76 0 0
18.8 0 0
18.84 0 0
18.88 0 0
18.92 0 0
18.96 0 0
19 0 0
19.04 0 0
19.08 0 0
19.12 0 0
19.16 0 0
19.2 0 0
19.24 0 0
19.28 0 0
19.32 0 0
19.36 0 0
19.4 0 0
19.44 0 0
19.48 0 0
19.52 0 0
19.56 0 0
19.6 0 0
19.64 0 0
19.68 0 0
19.72 0 0
19.76 0 0
19.8 0 0
19.84 0 0
19.88 0 0
19.92 0 0
19.96 0 0
20 0 0
20.04 0 0
20.08 0 0
20.12 0 0
20.16 0 0
20.2 0 0
20.24 0 0
20.28 0 0
20.32 0 0
20.36 0 0
20.4 0 0
20.44 0 0
20.48 0 0
20.52 0 0
20.56 0 0
20.6 0 0
20.64 0 0
20.68 0 0
20.72 0 0
20.76 0 0
20.8 0 0
20.84 0 0
20.88 0 0
20.92 0 0
20.96 0 0
21 0 0
21.04 0 0
21.08 0 0
21.12 0 0
21.16 0 0
21.2 0 0
21.24 0 0
21.28 0 0
21.32 0 0
21.36 0 0
21.4 0 0
21.44 0 0
21.48 0 0
21.52 0 0
21.56 0 0
21.6 0 0
21.64 0 0
21.68 0 0
21.72 0 0
21.76 0 0
21.8 0 0
21.84 0 0
21.88 0 0
21.92 0 0
21.96 0 0
22 0 0
22.04 0 0
22.08 0 0
22.12 0 0
22.16 0 0
22.2 0 0
22.24 0 0
22.28 0 0
22.32 0 0
22.36 0 0
22.4 0 0
22.44 0 0
22.48 0 0
22.52 0 0
22.56 0 0
22.6 0 0
22.64 0 0
22.68 0 0
22.72 0 0
22.76 0 0
22.8 0 0
22.84 0 0
22.88 0 0
22.92 0 0
22.96 0 0
23 0 0
23.04 0 0
23.08 0 0
23.12 0 0
23.16 0 0
23.2 0 0
23.24 0 0
23.28 0 0
23.32 0 0
23.36 0 0
23.4 0 0
23.44 0 0
23.48 0 0
23.52 0 0
23.56 0 0
23.6 0 0
23.64 0 0
23.68 0 0
23.72 0 0
23.76 0 0
23.8 0 0
23.84 0 0
23.88 0 0
23.92 0 0
23.96 0 0
24 0 0
24.04 0 0
24.08 0 0
24.12 0 0
24.16 0 0
24.2 0 0
24.24 0 0
24.28 0 0
24.32 0 0
24.36 0 0
24.4 0 0
24.44 0 0
24.48 0 0
24.52 0 0
24.56 0 0
24.6 0 0
24.64 0 0
24.68 0 0
24.72 0 0
24.76 0 0
24.8 0 0
24.84 0 0
24.88 0 0
24.92 0 0
24.96 0 0
25 0 0
25.04 0 0
25.08 0 0
25.12 0 0
25.16 0 0
25.2 0 0
25.24 0 0
25.28 0 0
25.32 0 0
25.36 0 0
25.4 0 0
25.44 0 0
25.48 0 0
25.52 0 0
25.56 0 0
25.6 0 0
25.64 0 0
25.68 0 0
25.72 0 0
25.76 0 0
25.8 0 0
25.84 0 0
25.88 0 0
25.92 0 0
25.96 0 0
26 0 0
26.04 0 0
26.08 0 0
26.12 0 0
26.16 0 0
26.2 0 0
26.24 0 0
26.28 0 0
26.32 0 0
26.36 0 0
26.4 0 0
26.44 0 0
26.48 0 0
26.52 0 0
26.56 0 0
26.6 0 0
26.64 0 0
26.68 0 0
26.72 0 0
26.76 0 0
26.8 0 0
26.84 0 0
26.88 0 0
26.92 0 0
26.96 0 0
27 0 0
27.04 0 0
27.08 0 0
27.12 0 0
27.16 0 0
27.2 0 0
27.24 0 0
27.28 0 0
27.32 0 0
27.36 0 0
27.4 0 0
27.44 0 0
27.48 0 0
27.52 0 0
27.56 0 0
27.6 0 0
27.64 0 0
27.68 0 0
27.72 0 0
27.76 0 0
27.8 0 0
27.84 0 0
27.88 0 0
27.92 0 0
27.96 0 0
28 0 0
28.04 0 0
28.08 0 0
28.12 0 0
28.16 0 0
28.2 0 0
28.24 0 0
28.28 0 0
28.32 0 0
28.36 0 0
28.4 0 0
28.44 0 0
28.48 0 0
28.52 0 0
28.56 0 0
28.6 0 0
28.64 0 0
28.68 0 0
28.72 0 0
28.76 0 0
28.8 0 0
28.84 0 0
28.88 0 0
28.92 0 0
28.96 0 0
29 0 0
29.04 0 0
29.08 0 0
29.12 0 0
29.16 0 0
29.2 0 0
29.24 0 0
29.28 0 0
29.32 0 0
29.36 0 0
29.4 0 0
29.44 0 0
29.48 0 0
29.52 0 0
29.56 0 0
29.6 0 0
29.64 0 0
29.68 0 0
29.72 0 0
29.76 0 0
29.8 0 0
29.84 0 0
29.88 0 0
29.92 0 0
29.96 0 0
30 0 0
30.04 0 0
30.08 0 0
30.12 0 0
30.16 0 0
30.2 0 0
30.24 0 0
30.28 0 0
30.32 0 0
30.36 0 0
30.4 0 0
30.44 0 0
30.48 0 0
30.52 0 0
30.56 0 0
30.6 0 0
30.64 0 0
30.68 0 0
30.72 0 0
30.76 0 0
30.8 0 0
30.84 0 0
30.88 0 0
30.92 0 0
30.96 0 0
31 0 0
31.04 0 0
31.08 0 0
31.12 0 0
31.16 0 0
31.2 0 0
31.24 0 0
31.28 0 0
31.32 0 0
31.36 0 0
31.4 0 0
31.44 0 0
31.48 0 0
31.52 0 0
31.56 0 0
31.6 0 0
31.64 0 0
31.68 0 0
31.72 0 0
31.76 0 0
31.8 0 0
31.84 0 0
31.88 0 0
31.92 0 0
31.96 0 0
0 0.005 0
0.04 0.005 0
0.08 0.005 0
0.12 0.005 0
0.16 0.005 0
0.2 0.005 0
0.24 0.005 0
0.28 0.005 0
0.32 0.005 0
0.36 0.005 0
0.4 0.005 0
0.44 0.005 0
0.48 0.005 0
0.52 0.005 0
0.56 0.005 0
0.6 0.005 0
0.64 0.005 0
0.68 0.005 0
0.72 0.005 0
0.76 0.005 0
0.8 0.005 0
0.84 0.005 0
0.88 0.005 0
0.92 0.005 0
0.96 0.005 0
1 0.005 0
1.04 0.005 0
1.08 0.005 0
1.12 0.005 0
1.16 0.005 0
1.2 0.005 0
1.24 0.005 0
1.28 0.005 0
1.32 0.005 0
1.36 0.005 0
1.4 0.005 0
1.44 0.005 0
1.48 0.005 0
1.52 0.005 0
1.56 0.005 0
1.6 0.005 0
1.64 0.005 0
1.68 0.005 0
1.72 0.005 0
1.76 0.005 0
1.8 0.005 0
1.84 0.005 0
1.88 0.005 0
1.92 0.005 0
1.96 0.005 0
2 0.005 0
2.04 0.005 0
2.08 0.005 0
2.12 0.005 0
2.16 0.005 0
2.2 0.005 0
2.24 0.005 0
2.28 0.005 0
2.32 0.005 0
2.36 0.005 0
2.4 0.005 0
2.44 0.005 0
2.48 0.005 0
2.52 0.005 0
2.56 0.005 0
2.6 0.005 0
2.64 0.005 0
2.68 0.005 0
2.72 0.005 0
2.76 0.005 0
2.8 0.005 0
2.84 0.005 0
2.88 0.005 0
2.92 0.005 0
2.96 0.005 0
3 0.005 0
3.04 0.005 0
3.08 0.005 0
3.12 0.005 0
3.16 0.005 0
3.2 0.005 0
3.24 0.005 0
3.28 0.005 0
3.32 0.005 0
3.36 0.005 0
3.4 0.005 0
3.44 0.005 0
3.48 0.005 0
3.52 0.005 0
3.56 0.005 0
3.6 0.005 0
3.64 0.005 0
3.68 0.005 0
3.72 0.005 0
3.76 0.005 0
3.8 0.005 0
3.84 0.005 0
3.88 0.005 0
3.92 0.005 0
3.96 0.005 0
4 0.005 0
4.04 0.005 0
4.08 0.005 0
4.12 0.005 0
4.16 0.005 0
4.2 0.005 0
4.24 0.005 0
4.28 0.005 0
4.32 0.005 0
4.36 0.005 0
4.4 0.005 0
4.44 0.005 0
4.48 0.005 0
4.52 0.005 0
4.56 0.005 0
4.6 0.005 0
4.64 0.005 0
4.68 0.005 0
4.72 0.005 0
4.76 0.005 0
4.8 0.005 0
4.84 0.005 0
4.88 0.005 0
4.92 0.005 0
4.96 0.005 0
5 0.005 0
5.04 0.005 0
5.08 0.005 0
5.12 0.005 0
5.16 0.005 0
5.2 0.005 0
5.24 0.005 0
5.28 0.005 0
5.32 0.005 0
5.36 0.005 0
5.4 0.005 0
5.44 0.005 0
5.48 0.005 0
5.52 0.005 0
5.56 0.005 0
5.6 0.005 0
5.64 0.005 0
5.68 0.005 0
5.72 0.005 0
5.76 0.005 0
5.8 0.005 0
5.84 0.005 0
5.88 0.005 0
5.92 0.005 0
5.96 0.005 0
6 0.005 0
6.04 0.005 0
6.08 0.005 0
6.12 0.005 0
6.16 0.005 0
6.2 0.005 0
6.24 0.005 0
6.28 0.005 0
6.32 0.005 0
6.36 0.005 0
6.4 0.005 0
6.44 0.005 0
6.48 0.005 0
6.52 0.005 0
6.56 0.005 0
6.6 0.005 0
6.64 0.005 0
6.68 0.005 0
6.72 0.005 0
6.76 0.005 0
6.8 0.005 0
6.84 0.005 0
6.88 0.005 0
6.92 0.005 0
6.96 0.005 0
7 0.005 0
7.04 0.005 0
7.08 0.005 0
7.12 0.005 0
7.16 0.005 0
7.2 0.005 0
7.24 0.005 0
7.28 0.005 0
7.32 0.005 0
7.36 0.005 0
7.4 0.005 0
[...]
POINT_DATA 160000

SCALARS v float 1
LOOKUP_TABLE default
0
0
0
0
0
0
0
0
0
0
0
0
0
0
0
0
0
0
0
0
0
0
0
0
0
0
0
0
0
0
0
0
0
0
0
0
0
0
0
0
0
0
0
0
0
0
0
0
0
0
0
0
0
0
0
0
0
0
0
0
0
0
0
0
0
0
0
0
0
0
0
0
0
0
0
0
0
0
0
0
0
0
0
0
0
0
0
0
0
0
0
0
0
0
0
0
0
0
0
0
0
0
0
0
0
0
0
0
0
0
0
0
0
0
0
0
0
0
0
0
0
0
0
0
0
0
0
0
0
0
0
0
0
0
0
0
0
0
0
0
0
0
0
0
0
0
0
0
0
0
0
0
0
0
0
0
0
0
0
0
0
0
0
0
0
0
0
0
0
0
0
0
0
0
0
0
0
0
0
0
0
0
0
0
0
0
0
0
0
0
0
0
0
0
0
0
0
0
0
0
0
0
0
0
0
0
0
0
0
0
0
0
0
0
0
0
0
0
0
0
0
0
0
0
0
0
0
0
0
0
0
0
0
0
0
0
0
0
0
0
0
0
0
0
0
0
0
0
0
0
0
0
0
0
0
0
0
0
0
0
0
0
0
0
0
0
0
0
0
0
0
0
0
0
0
0
0
0
0
0
0
0
0
0
0
0
0
0
0
0
0
0
0
0
0
0
0
0
0
0
0
0
0
0
0
0
0
0
0
0
0
0
0
0
0
0
0
0
0
0
0
0
0
0
0
0
0
0
0
0
0
0
0
0
0
0
0
0
0
0
0
0
0
0
0
0
0
0
0
0
0
0
0
0
0
0
0
0
0
0
0
0
0
0
0
0
0
0
0
0
0
0
0
0
0
0
0
0
0
0
0
0
0
0
0
0
0
0
0
0
0
0
0
0
0
0
0
0
0
0
0
0
0
0
0
0
0
0
0
0
0
0
0
0
0
0
0
0
0
0
0
0
0
0
0
0
0
0
0
0
0
0
0
0
0
0
0
0
0
0
0
0
0
0
0
0
0
0
0
0
0
0
0
0
0
0
0
0
0
0
0
0
0
0
0
0
0
0
0
0
0
0
0
0
0
0
0
0
0
0
0
0
0
0
0
0
0
0
0
0
0
0
0
0
0
0
0
0
0
0
0
0
0
0
0
0
0
0
0
0
0
0
0
0
0
0
0
0
0
0
0
0
0
0
0
0
0
0
0
0
0
0
0
0
0
0
0
0
0
0
0
0
0
0
0
0
0
0
0
0
0
0
0
0
0
0
0
0
0
0
0
0
0
0
0
0
0
0
0
0
0
0
0
0
0
0
0
0
0
0
0
0
0
0
0
0
0
0
0
0
0
0
0
0
0
0
0
0
0
0
0
0
0
0
0
0
0
0
0
0
0
0
0
0
0
0
0
0
0
0
0
0
0
0
0
0
0
0
0
0
0
0
0
0
0
0
0
0
0
0
0
0
0
0
0
0
0
0
0
0
0
0
0
0
0
0
0
0
0
0
0
0
0
0
0
0
0
0
0
0
0
0
0
0
0
0
0
0
0
0
0
0
0
0
0
0
0
0
0
0
0
0
0
0
0
0
0
0
0
0
0
0
0
0
0
0
0
0
0
0
0
0
0
0
0
0
0
0
0
0
0
0
0
0
0
0
0
0
0
0
0
0
0
0
0
0
0
0
0
0
0
0
0
0
0
0
0
0
0
0
0
0
0
0
0
0
0
0
0
0
0
0
0
0
0
0
0
0
0
0
0
0
0
0
0
0
0
0
0
0
0
0
0
0
0
0
0
0
0
0
0
0
0
0
0
0
0
0
0
0
0
0
0.0374157
0.00938106
0.0034679
0.00176628
0.0010808
0.000737042
0.000538265
0.00041172
0.000325521
0.000263833
0.000218012
0.000182981
0.00015558
0.000133743
0.000116071
0.000101579
8.95605e-05
7.94926e-05
7.09828e-05
6.37309e-05
5.75041e-05
5.212e-05
4.74335e-05
4.33289e-05
3.97125e-05
3.65085e-05
3.36546e-05
3.10997e-05
2.88016e-05
2.6725e-05
2.48406e-05
2.31237e-05
2.15535e-05
2.01124e-05
1.87854e-05
1.75596e-05
1.64241e-05
1.53694e-05
1.43872e-05
1.34705e-05
1.26131e-05
1.18094e-05
1.10547e-05
1.03448e-05
9.67582e-06
9.04452e-06
8.44788e-06
7.88324e-06
7.34819e-06
6.84058e-06
6.35844e-06
5.9e-06
5.46364e-06
5.04791e-06
4.65145e-06
4.27303e-06
3.91151e-06
3.56588e-06
3.23517e-06
2.9185e-06
2.61504e-06
2.32406e-06
2.04484e-06
1.77674e-06
1.51915e-06
1.27152e-06
1.03331e-06
8.0403e-07
5.83226e-07
3.70472e-07
1.65366e-07
-3.24672e-08
-2.23376e-07
-4.07695e-07
-5.85738e-07
-7.57795e-07
-9.24141e-07
-1.08504e-06
-1.24073e-06
-1.39144e-06
-1.5374e-06
-1.6788e-06
-1.81584e-06
-1.94871e-06
-2.07759e-06
-2.20263e-06
-2.32399e-06
-2.44183e-06
-2.55628e-06
-2.66748e-06
-2.77555e-06
-2.88062e-06
-2.9828e-06
-3.0822e-06
-3.17892e-06
-3.27307e-06
-3.36474e-06
-3.45402e-06
-3.541e-06
-3.62576e-06
-3.70838e-06
-3.78892e-06
-3.86747e-06
-3.9441e-06
-4.01887e-06
-4.09183e-06
-4.16306e-06
-4.23262e-06
-4.30055e-06
-4.36691e-06
-4.43174e-06
-4.49511e-06
-4.55705e-06
-4.61761e-06
-4.67684e-06
-4.73477e-06
-4.79145e-06
-4.84691e-06
-4.9012e-06
-4.95433e-06
-5.00636e-06
-5.05732e-06
-5.10722e-06
-5.15611e-06
-5.20401e-06
-5.25096e-06
-5.29698e-06
-5.3421e-06
-5.38634e-06
-5.42972e-06
-5.47228e-06
-5.51402e-06
-5.55498e-06
-5.59518e-06
-5.63463e-06
-5.67335e-06
-5.71138e-06
-5.74872e-06
-5.78539e-06
-5.8214e-06
-5.85678e-06
-5.89154e-06
-5.9257e-06
-5.95928e-06
-5.99228e-06
-6.02471e-06
-6.05661e-06
-6.08797e-06
-6.11881e-06
-6.14914e-06
-6.17898e-06
-6.20834e-06
-6.23723e-06
-6.26565e-06
-6.29363e-06
-6.32117e-06
-6.34827e-06
-6.37495e-06
-6.40122e-06
-6.42709e-06
-6.45257e-06
-6.47767e-06
-6.50239e-06
-6.52674e-06
-6.55073e-06
-6.57436e-06
-6.59767e-06
-6.62062e-06
-6.64324e-06
-6.66554e-06
-6.68753e-06
-6.70921e-06
-6.73057e-06
-6.75164e-06
-6.77242e-06
-6.79291e-06
-6.81312e-06
-6.83306e-06
-6.85273e-06
-6.87213e-06
-6.89127e-06
-6.91015e-06
-6.92879e-06
-6.94717e-06
-6.96532e-06
-6.98323e-06
-7.00091e-06
-7.01836e-06
-7.03559e-06
-7.05259e-06
-7.06938e-06
-7.08595e-06
-7.10232e-06
-7.11849e-06
-7.13445e-06
-7.15021e-06
-7.16577e-06
-7.18115e-06
-7.19633e-06
-7.21133e-06
-7.22615e-06
-7.24079e-06
-7.25525e-06
-7.26954e-06
-7.28366e-06
-7.2976e-06
-7.31139e-06
-7.32501e-06
-7.33847e-06
-7.35177e-06
-7.36492e-06
-7.37791e-06
-7.39075e-06
-7.40344e-06
-7.41598e-06
-7.42838e-06
-7.44065e-06
-7.45276e-06
-7.46474e-06
-7.47659e-06
-7.4883e-06
-7.49988e-06
-7.51133e-06
-7.52265e-06
-7.53384e-06
-7.5449e-06
-7.55584e-06
-7.56666e-06
-7.57737e-06
-7.58795e-06
-7.59842e-06
-7.60877e-06
-7.61901e-06
-7.62913e-06
-7.63915e-06
-7.64905e-06
-7.65885e-06
-7.66854e-06
-7.67812e-06
-7.68761e-06
-7.69699e-06
-7.70627e-06
-7.71544e-06
-7.72452e-06
-7.7335e-06
-7.74239e-06
-7.75118e-06
-7.75988e-06
-7.76848e-06
-7.777e-06
-7.78542e-06
-7.79375e-06
-7.802e-06
-7.81015e-06
-7.81823e-06
-7.82622e-06
-7.83412e-06
-7.84194e-06
-7.84968e-06
-7.85734e-06
-7.86491e-06
-7.87241e-06
-7.87983e-06
-7.88717e-06
-7.89444e-06
-7.90163e-06
-7.90874e-06
-7.91578e-06
-7.92275e-06
-7.92964e-06
-7.93646e-06
-7.94322e-06
-7.9499e-06
-7.95652e-06
-7.96307e-06
-7.96955e-06
-7.97596e-06
-7.9823e-06
-7.98858e-06
-7.99479e-06
-8.00095e-06
-8.00704e-06
-8.01306e-06
-8.01903e-06
-8.02493e-06
-8.03078e-06
-8.03655e-06
-8.04228e-06
-8.04794e-06
-8.05354e-06
-8.05909e-06
-8.06458e-06
-8.07002e-06
-8.0754e-06
-8.08072e-06
-8.08599e-06
-8.0912e-06
-8.09636e-06
-8.10147e-06
-8.10653e-06
-8.11154e-06
-8.11649e-06
-8.12139e-06
-8.12624e-06
-8.13104e-06
-8.1358e-06
-8.14051e-06
-8.14516e-06
-8.14977e-06
-8.15434e-06
-8.15886e-06
-8.16333e-06
-8.16776e-06
-8.17214e-06
-8.17648e-06
-8.18078e-06
-8.18504e-06
-8.18926e-06
-8.19343e-06
-8.19756e-06
-8.20166e-06
-8.20572e-06
-8.20974e-06
-8.21373e-06
-8.21768e-06
-8.2216e-06
-8.22548e-06
-8.22933e-06
-8.23315e-06
-8.23694e-06
-8.24069e-06
-8.24442e-06
-8.24812e-06
-8.25179e-06
-8.25544e-06
-8.25907e-06
-8.26267e-06
-8.26623e-06
-8.26978e-06
-8.27332e-06
-8.27683e-06
-8.28032e-06
-8.28378e-06
-8.28724e-06
-8.29068e-06
-8.2941e-06
-8.2975e-06
-8.30088e-06
-8.30426e-06
-8.30762e-06
-8.31097e-06
-8.31431e-06
-8.31763e-06
-8.32094e-06
-8.32425e-06
-8.32754e-06
-8.33082e-06
-8.3341e-06
-8.33736e-06
-8.34061e-06
-8.34386e-06
-8.34709e-06
-8.35033e-06
-8.35356e-06
-8.35677e-06
-8.35998e-06
-8.36318e-06
-8.36637e-06
-8.36956e-06
-8.37275e-06
-8.37591e-06
-8.37907e-06
-8.38223e-06
-8.38538e-06
-8.38853e-06
-8.39166e-06
-8.39478e-06
-8.3979e-06
-8.40101e-06
-8.4041e-06
-8.40719e-06
-8.41027e-06
-8.41333e-06
-8.41639e-06
-8.41944e-06
-8.42247e-06
-8.42549e-06
-8.42849e-06
-8.43148e-06
-8.43447e-06
-8.43743e-06
-8.44038e-06
-8.44331e-06
-8.44623e-06
-8.44913e-06
-8.45201e-06
-8.45488e-06
-8.45772e-06
-8.46055e-06
-8.46335e-06
-8.46614e-06
-8.46891e-06
-8.47165e-06
-8.47437e-06
-8.47706e-06
-8.47974e-06
-8.48239e-06
-8.48502e-06
-8.48761e-06
-8.49019e-06
-8.49274e-06
-8.49525e-06
-8.49775e-06
-8.50022e-06
-8.50266e-06
-8.50507e-06
-8.50745e-06
-8.5098e-06
-8.51212e-06
-8.51441e-06
-8.51667e-06
-8.5189e-06
-8.5211e-06
-8.52326e-06
-8.52539e-06
-8.52749e-06
-8.52956e-06
-8.5316e-06
-8.5336e-06
-8.53557e-06
-8.53751e-06
-8.53941e-06
-8.54128e-06
-8.54311e-06
-8.54491e-06
-8.54668e-06
-8.54841e-06
-8.55011e-06
-8.55178e-06
-8.55341e-06
-8.555e-06
-8.55657e-06
-8.5581e-06
-8.55959e-06
-8.56105e-06
-8.56248e-06
-8.56387e-06
-8.56523e-06
-8.56656e-06
-8.56785e-06
-8.56912e-06
-8.57035e-06
-8.57154e-06
-8.57271e-06
-8.57384e-06
-8.57494e-06
-8.57601e-06
-8.57705e-06
-8.57807e-06
-8.57905e-06
-8.58e-06
-8.58092e-06
-8.58181e-06
-8.58267e-06
-8.58351e-06
-8.58432e-06
-8.5851e-06
-8.58585e-06
-8.58658e-06
-8.58729e-06
-8.58796e-06
-8.58861e-06
-8.58924e-06
-8.58985e-06
-8.59043e-06
-8.59099e-06
-8.59152e-06
-8.59203e-06
-8.59253e-06
-8.593e-06
-8.59345e-06
-8.59388e-06
-8.5943e-06
-8.5947e-06
-8.59508e-06
-8.59543e-06
-8.59577e-06
-8.5961e-06
-8.59641e-06
-8.59671e-06
-8.59699e-06
-8.59725e-06
-8.5975e-06
-8.59774e-06
-8.59797e-06
-8.59818e-06
-8.59838e-06
-8.59857e-06
-8.59875e-06
-8.59892e-06
-8.59908e-06
-8.59922e-06
-8.59937e-06
-8.5995e-06
-8.59962e-06
-8.59974e-06
-8.59985e-06
-8.59996e-06
-8.60005e-06
-8.60013e-06
-8.60021e-06
-8.60029e-06
-8.60036e-06
-8.60043e-06
-8.6005e-06
-8.60055e-06
-8.6006e-06
-8.60066e-06
-8.60071e-06
-8.60076e-06
-8.60079e-06
-8.60083e-06
-8.60087e-06
-8.60091e-06
-8.60094e-06
-8.60097e-06
-8.601e-06
-8.60103e-06
-8.60106e-06
-8.60108e-06
-8.6011e-06
-8.60113e-06
-8.60115e-06
-8.60117e-06
-8.6012e-06
-8.60123e-06
-8.60124e-06
-8.60126e-06
-8.60128e-06
-8.6013e-06
-8.60132e-06
-8.60134e-06
-8.60137e-06
-8.60139e-06
-8.6014e-06
-8.60142e-06
-8.60145e-06
-8.60147e-06
-8.60149e-06
-8.60151e-06
-8.60153e-06
-8.60155e-06
-8.60157e-06
-8.60159e-06
-8.60161e-06
-8.60163e-06
-8.60165e-06
-8.60167e-06
-8.60169e-06
-8.60171e-06
-8.60173e-06
-8.60175e-06
-8.60177e-06
-8.60179e-06
-8.60181e-06
-8.60183e-06
-8.60185e-06
-8.60187e-06
-8.60189e-06
-8.60191e-06
-8.60193e-06
-8.60195e-06
-8.60197e-06
-8.602e-06
-8.60202e-06
-8.60204e-06
-8.60206e-06
-8.60208e-06
-8.6021e-06
-8.60212e-06
-8.60214e-06
-8.60216e-06
-8.60218e-06
-8.6022e-06
-8.60222e-06
-8.60224e-06
-8.60226e-06
-8.60228e-06
-8.6023e-06
-8.60232e-06
-8.60234e-06
-8.60236e-06
-8.60238e-06
-8.6024e-06
-8.60243e-06
-8.60246e-06
-8.60247e-06
-8.60249e-06
-8.60251e-06
-8.60253e-06
-8.60255e-06
-8.60257e-06
-8.60259e-06
-8.6026e-06
-8.60263e-06
-8.60265e-06
-8.60268e-06
-8.60269e-06
-8.60271e-06
-8.60273e-06
-8.60276e-06
-8.60277e-06
-8.60279e-06
-8.60282e-06
-8.60284e-06
-8.60286e-06
-8.60288e-06
-8.6029e-06
-8.60292e-06
-8.60294e-06
-8.60296e-06
-8.60298e-06
-8.603e-06
-8.60302e-06
-8.60304e-06
-8.60306e-06
-8.60308e-06
-8.6031e-06
-8.60312e-06
-8.60314e-06
-8.60317e-06
-8.60319e-06
-8.6032e-06
-8.60323e-06
-8.60325e-06
-8.60327e-06
-8.60329e-06
-8.60331e-06
-8.60333e-06
-8.60335e-06
-8.60337e-06
-8.60339e-06
-8.60341e-06
-8.60344e-06
-8.60346e-06
-8.60348e-06
-8.60349e-06
-8.60351e-06
-8.60353e-06
-8.60356e-06
-8.60358e-06
-8.6036e-06
-8.60362e-06
-8.60364e-06
-8.60366e-06
-8.60368e-06
-8.60371e-06
-8.60373e-06
-8.60375e-06
-8.60376e-06
-8.60378e-06
-8.6038e-06
-8.60383e-06
-8.60385e-06
-8.60387e-06
-8.60389e-06
-8.60391e-06
-8.60393e-06
-8.60395e-06
-8.60397e-06
-8.60399e-06
-8.60401e-06
-8.60404e-06
-8.60406e-06
-8.60408e-06
-8.6041e-06
-8.60411e-06
-8.60413e-06
-8.60416e-06
-8.60418e-06
-8.6042e-06
-8.60422e-06
-8.60424e-06
-8.60426e-06
-8.60428e-06
-8.6043e-06
-8.60432e-06
-8.60434e-06
-8.60437e-06
-8.60439e-06
-8.60441e-06
-8.60443e-06
-8.60445e-06
-8.60447e-06
-8.60449e-06
-8.60451e-06
-8.60453e-06
-8.60456e-06
-8.60458e-06
-8.6046e-06
-8.60462e-06
-8.60464e-06
-8.60466e-06
-8.60468e-06
-8.6047e-06
-8.60472e-06
-8.60474e-06
-8.60476e-06
-8.60478e-06
-8.6048e-06
-8.60482e-06
-8.60485e-06
-8.60487e-06
-8.60489e-06
-8.60491e-06
-8.60493e-06
-8.60495e-06
-8.60497e-06
-8.60499e-06
-8.60501e-06
-8.60504e-06
-8.60506e-06
-8.60508e-06
-8.60509e-06
-8.60511e-06
-8.60514e-06
-8.60516e-06
-8.60518e-06
-8.6052e-06
-8.60523e-06
-8.60524e-06
-8.60526e-06
-8.60528e-06
-8.60531e-06
-8.60533e-06
-8.60535e-06
-8.60537e-06
-8.60538e-06
-8.60541e-06
-8.60543e-06
-8.60546e-06
-8.60548e-06
-8.6055e-06
-8.60552e-06
-8.60554e-06
-8.60556e-06
-8.60558e-06
-8.6056e-06
-8.60562e-06
-8.60564e-06
-8.60566e-06
-8.60568e-06
-8.6057e-06
-8.60573e-06
-8.60574e-06
-8.60576e-06
-8.60578e-06
-8.6058e-06
-8.60582e-06
-8.60584e-06
-8.60586e-06
-8.60587e-06
-8.60588e-06
-8.6059e-06
-8.60591e-06
-8.60592e-06
-8.60592e-06
-8.60592e-06
-8.60592e-06
-8.60591e-06
-8.6059e-06
-8.60586e-06
-8.60582e-06
-8.60576e-06
-8.60568e-06
-8.60557e-06
-8.60542e-06
-8.60523e-06
-8.60498e-06
-8.60466e-06
-8.60424e-06
-8.60373e-06
-8.60303e-06
-8.6022e-06
-8.60103e-06
-8.59969e-06
-8.5977e-06
-8.5956e-06
-8.59211e-06
-8.58893e-06
-8.58233e-06
-8.57813e-06
-8.56363e-06
-8.56251e-06
-8.51924e-06
-8.59304e-06
-6.07559e-06
-6.07559e-06
0
0
0.09661
0.0320526
0.0130061
0.00682629
0.00423599
0.00291405
0.00214242
0.00164834
0.00131047
0.00106799
0.000887485
0.000749237
0.000640933
0.000554511
0.000484486
0.000427007
0.000379292
0.000339289
0.000305453
0.0002766
0.000251813
0.000230371
0.000211701
0.000195344
0.000180931
0.000168159
0.000156783
0.000146598
0.000137438
0.000129162
0.000121652
0.000114812
0.000108557
0.000102818
9.75345e-05
9.26552e-05
8.81364e-05
8.39402e-05
8.00338e-05
7.63886e-05
7.29797e-05
6.97854e-05
6.67864e-05
6.39659e-05
6.13087e-05
5.88016e-05
5.64326e-05
5.4191e-05
5.20673e-05
5.00527e-05
4.81395e-05
4.63206e-05
4.45895e-05
4.29405e-05
4.1368e-05
3.98673e-05
3.84337e-05
3.70633e-05
3.57521e-05
3.44967e-05
3.32938e-05
3.21404e-05
3.10337e-05
2.99711e-05
2.89503e-05
2.79689e-05
2.7025e-05
2.61165e-05
2.52416e-05
2.43986e-05
2.3586e-05
2.28023e-05
2.2046e-05
2.13158e-05
2.06105e-05
1.9929e-05
1.92701e-05
1.86328e-05
1.80162e-05
1.74192e-05
1.68412e-05
1.62812e-05
1.57384e-05
1.52122e-05
1.47019e-05
1.42067e-05
1.37261e-05
1.32595e-05
1.28063e-05
1.2366e-05
1.19381e-05
1.15221e-05
1.11175e-05
1.07239e-05
1.0341e-05
9.96823e-06
9.6053e-06
9.25183e-06
8.90749e-06
8.57194e-06
8.24489e-06
7.92603e-06
7.61507e-06
7.31173e-06
7.01577e-06
6.72693e-06
6.44496e-06
6.16965e-06
5.90076e-06
5.63811e-06
5.38148e-06
5.13066e-06
4.88549e-06
4.64579e-06
4.41137e-06
4.18208e-06
3.95776e-06
3.73825e-06
3.52342e-06
3.31312e-06
3.10721e-06
2.90556e-06
2.70806e-06
2.51458e-06
2.325e-06
2.1392e-06
1.95709e-06
1.77856e-06
1.6035e-06
1.43183e-06
1.26344e-06
1.09825e-06
9.36179e-07
7.7713e-07
6.21031e-07
4.67794e-07
3.17344e-07
1.69615e-07
2.45375e-08
-1.17959e-07
-2.57942e-07
-3.95476e-07
-5.30626e-07
-6.63451e-07
-7.93999e-07
-9.2233e-07
-1.04851e-06
-1.17258e-06
-1.29459e-06
-1.41459e-06
-1.53264e-06
-1.64878e-06
-1.76304e-06
-1.87548e-06
-1.98613e-06
-2.09505e-06
-2.20227e-06
-2.30781e-06
-2.41173e-06
-2.51406e-06
-2.61484e-06
-2.7141e-06
-2.81186e-06
-2.90818e-06
-3.00306e-06
-3.09655e-06
-3.18868e-06
-3.27947e-06
-3.36895e-06
-3.45714e-06
-3.54409e-06
-3.62981e-06
-3.71431e-06
-3.79763e-06
-3.87981e-06
-3.96084e-06
-4.04077e-06
-4.1196e-06
-4.19736e-06
-4.27407e-06
-4.34975e-06
-4.42442e-06
-4.4981e-06
-4.5708e-06
-4.64256e-06
-4.71337e-06
-4.78327e-06
-4.85226e-06
-4.92037e-06
-4.9876e-06
-5.05397e-06
-5.1195e-06
-5.18421e-06
-5.24811e-06
-5.3112e-06
-5.37351e-06
-5.43504e-06
-5.49582e-06
-5.55585e-06
-5.61514e-06
-5.67372e-06
-5.73159e-06
-5.78875e-06
-5.84522e-06
-5.90102e-06
-5.95615e-06
-6.01063e-06
-6.06447e-06
-6.11767e-06
-6.17024e-06
-6.22219e-06
-6.27355e-06
-6.32429e-06
-6.37445e-06
-6.42403e-06
-6.47304e-06
-6.52149e-06
-6.56938e-06
-6.61672e-06
-6.66353e-06
-6.70981e-06
-6.75556e-06
-6.8008e-06
-6.84553e-06
-6.88975e-06
-6.93347e-06
-6.97671e-06
-7.01947e-06
-7.06176e-06
-7.10357e-06
-7.14493e-06
-7.18583e-06
-7.22627e-06
-7.26628e-06
-7.30584e-06
-7.34497e-06
-7.38368e-06
-7.42196e-06
-7.45984e-06
-7.4973e-06
-7.53435e-06
-7.57101e-06
-7.60726e-06
-7.64313e-06
-7.67861e-06
-7.71372e-06
-7.74845e-06
-7.78281e-06
-7.8168e-06
-7.85043e-06
-7.8837e-06
-7.91661e-06
-7.94918e-06
-7.98141e-06
-8.0133e-06
-8.04484e-06
-8.07606e-06
-8.10695e-06
-8.13752e-06
-8.16776e-06
-8.19768e-06
-8.22729e-06
-8.25659e-06
-8.28558e-06
-8.31428e-06
-8.34268e-06
-8.37077e-06
-8.39857e-06
-8.42609e-06
-8.45332e-06
-8.48027e-06
-8.50694e-06
-8.53334e-06
-8.55946e-06
-8.58532e-06
-8.6109e-06
-8.63621e-06
-8.66127e-06
-8.68607e-06
-8.71061e-06
-8.7349e-06
-8.75894e-06
-8.78274e-06
-8.80629e-06
-8.8296e-06
-8.85267e-06
-8.87549e-06
-8.89809e-06
-8.92045e-06
-8.94258e-06
-8.96448e-06
-8.98617e-06
-9.00763e-06
-9.02887e-06
-9.04989e-06
-9.07069e-06
-9.09128e-06
-9.11166e-06
-9.13184e-06
-9.15181e-06
-9.17157e-06
-9.19113e-06
-9.21049e-06
-9.22965e-06
-9.24861e-06
-9.26739e-06
-9.28598e-06
-9.30437e-06
-9.32258e-06
-9.34061e-06
-9.35846e-06
-9.37613e-06
-9.39362e-06
-9.41094e-06
-9.4281e-06
-9.44509e-06
-9.46192e-06
-9.47858e-06
-9.49508e-06
-9.51143e-06
-9.52763e-06
-9.54368e-06
-9.55959e-06
-9.57537e-06
-9.591e-06
-9.60649e-06
-9.62185e-06
-9.63709e-06
-9.65221e-06
-9.66721e-06
-9.68209e-06
-9.69686e-06
-9.71152e-06
-9.72608e-06
-9.74054e-06
-9.7549e-06
-9.76917e-06
-9.78334e-06
-9.79744e-06
-9.81145e-06
-9.82538e-06
-9.83923e-06
-9.85301e-06
-9.86673e-06
-9.88039e-06
-9.89397e-06
-9.90749e-06
-9.92096e-06
-9.93438e-06
-9.94775e-06
-9.96107e-06
-9.97434e-06
-9.98757e-06
-1.00008e-05
-1.00139e-05
-1.0027e-05
-1.00401e-05
-1.00531e-05
-1.00661e-05
-1.00791e-05
-1.0092e-05
-1.01049e-05
-1.01178e-05
-1.01306e-05
-1.01435e-05
-1.01563e-05
-1.0169e-05
-1.01817e-05
-1.01945e-05
-1.02071e-05
-1.02198e-05
-1.02324e-05
-1.0245e-05
-1.02575e-05
-1.02701e-05
-1.02825e-05
-1.0295e-05
-1.03074e-05
-1.03198e-05
-1.03321e-05
-1.03445e-05
-1.03567e-05
-1.03689e-05
-1.03811e-05
-1.03932e-05
-1.04053e-05
-1.04173e-05
-1.04293e-05
-1.04412e-05
-1.04531e-05
-1.04649e-05
-1.04766e-05
-1.04883e-05
-1.04999e-05
-1.05115e-05
-1.05229e-05
-1.05343e-05
-1.05456e-05
-1.05569e-05
-1.0568e-05
-1.05791e-05
-1.05901e-05
-1.0601e-05
-1.06118e-05
-1.06225e-05
-1.06331e-05
-1.06436e-05
-1.0654e-05
-1.06644e-05
-1.06746e-05
-1.06847e-05
-1.06947e-05
-1.07046e-05
-1.07143e-05
-1.0724e-05
-1.07335e-05
-1.0743e-05
-1.07523e-05
-1.07614e-05
-1.07705e-05
-1.07794e-05
-1.07882e-05
-1.07969e-05
-1.08055e-05
-1.08139e-05
-1.08222e-05
-1.08304e-05
-1.08384e-05
-1.08463e-05
-1.0854e-05
-1.08617e-05
-1.08692e-05
-1.08765e-05
-1.08837e-05
-1.08908e-05
-1.08978e-05
-1.09046e-05
-1.09113e-05
-1.09178e-05
-1.09242e-05
-1.09305e-05
-1.09366e-05
-1.09426e-05
-1.09484e-05
-1.09542e-05
-1.09597e-05
-1.09652e-05
-1.09705e-05
-1.09757e-05
-1.09808e-05
-1.09857e-05
-1.09905e-05
-1.09951e-05
-1.09997e-05
-1.10041e-05
-1.10084e-05
-1.10126e-05
-1.10166e-05
-1.10205e-05
-1.10243e-05
-1.1028e-05
-1.10316e-05
-1.1035e-05
-1.10384e-05
-1.10416e-05
-1.10447e-05
-1.10477e-05
-1.10506e-05
-1.10534e-05
-1.10561e-05
-1.10587e-05
-1.10612e-05
-1.10636e-05
-1.1066e-05
-1.10682e-05
-1.10703e-05
-1.10723e-05
-1.10743e-05
-1.10762e-05
-1.1078e-05
-1.10797e-05
-1.10813e-05
-1.10829e-05
-1.10844e-05
-1.10858e-05
-1.10871e-05
-1.10884e-05
-1.10896e-05
-1.10908e-05
-1.10918e-05
-1.10929e-05
-1.10938e-05
-1.10948e-05
-1.10956e-05
-1.10965e-05
-1.10972e-05
-1.1098e-05
-1.10986e-05
-1.10993e-05
-1.10999e-05
-1.11004e-05
-1.1101e-05
-1.11014e-05
-1.11019e-05
-1.11023e-05
-1.11027e-05
-1.11031e-05
-1.11034e-05
-1.11037e-05
-1.1104e-05
-1.11043e-05
-1.11045e-05
-1.11047e-05
-1.1105e-05
-1.11051e-05
-1.11053e-05
-1.11055e-05
-1.11056e-05
-1.11057e-05
-1.11059e-05
-1.1106e-05
-1.11061e-05
-1.11062e-05
-1.11062e-05
-1.11063e-05
-1.11064e-05
-1.11064e-05
-1.11065e-05
-1.11065e-05
-1.11066e-05
-1.11066e-05
-1.11067e-05
-1.11067e-05
-1.11067e-05
-1.11068e-05
-1.11068e-05
-1.11068e-05
-1.11069e-05
-1.11069e-05
-1.11069e-05
-1.1107e-05
-1.1107e-05
-1.1107e-05
-1.1107e-05
-1.11071e-05
-1.11071e-05
-1.11071e-05
-1.11071e-05
-1.11072e-05
-1.11072e-05
-1.11072e-05
-1.11072e-05
-1.11073e-05
-1.11073e-05
-1.11073e-05
-1.11074e-05
-1.11074e-05
-1.11074e-05
-1.11074e-05
-1.11075e-05
-1.11075e-05
-1.11075e-05
-1.11075e-05
-1.11076e-05
-1.11076e-05
-1.11076e-05
-1.11077e-05
-1.11077e-05
-1.11077e-05
-1.11077e-05
-1.11078e-05
-1.11078e-05
-1.11078e-05
-1.11078e-05
-1.11079e-05
-1.11079e-05
-1.11079e-05
-1.11079e-05
-1.1108e-05
-1.1108e-05
-1.1108e-05
-1.11081e-05
-1.11081e-05
-1.11081e-05
-1.11081e-05
-1.11082e-05
-1.11082e-05
-1.11082e-05
-1.11082e-05
-1.11083e-05
-1.11083e-05
-1.11083e-05
-1.11083e-05
-1.11084e-05
-1.11084e-05
-1.11084e-05
-1.11085e-05
-1.11085e-05
-1.11085e-05
-1.11085e-05
-1.11086e-05
-1.11086e-05
-1.11086e-05
-1.11086e-05
-1.11087e-05
-1.11087e-05
-1.11087e-05
-1.11088e-05
-1.11088e-05
-1.11088e-05
-1.11088e-05
-1.11089e-05
-1.11089e-05
-1.11089e-05
-1.11089e-05
-1.1109e-05
-1.1109e-05
-1.1109e-05
-1.11091e-05
-1.11091e-05
-1.11091e-05
-1.11091e-05
-1.11092e-05
-1.11092e-05
-1.11092e-05
-1.11092e-05
-1.11093e-05
-1.11093e-05
-1.11093e-05
-1.11094e-05
-1.11094e-05
-1.11094e-05
-1.11094e-05
-1.11095e-05
-1.11095e-05
-1.11095e-05
-1.11095e-05
-1.11096e-05
-1.11096e-05
-1.11096e-05
-1.11097e-05
-1.11097e-05