# vtk DataFile Version 2.0
FlowField
ASCII
DATASET STRUCTURED_GRID
DIMENSIONS 800 1 200
POINTS 160000 float
0 0 0
0.04 0 0
0.08 0 0
0.12 0 0
0.16 0 0
0.2 0 0
0.24 0 0
0.28 0 0
0.32 0 0
0.36 0 0
0.4 0 0
0.44 0 0
0.48 0 0
0.52 0 0
0.56 0 0
0.6 0 0
0.64 0 0
0.68 0 0
0.72 0 0
0.76 0 0
0.8 0 0
0.84 0 0
0.88 0 0
0.92 0 0
0.96 0 0
1 0 0
1.04 0 0
1.08 0 0
1.12 0 0
1.16 0 0
1.2 0 0
1.24 0 0
1.28 0 0
1.32 0 0
1.36 0 0
1.4 0 0
1.44 0 0
1.48 0 0
1.52 0 0
1.56 0 0
1.6 0 0
1.64 0 0
1.68 0 0
1.72 0 0
1.76 0 0
1.8 0 0
1.84 0 0
1.88 0 0
1.92 0 0
1.96 0 0
2 0 0
2.04 0 0
2.08 0 0
2.12 0 0
2.16 0 0
2.2 0 0
2.24 0 0
2.28 0 0
2.32 0 0
2.36 0 0
2.4 0 0
2.44 0 0
2.48 0 0
2.52 0 0
2.56 0 0
2.6 0 0
2.64 0 0
2.68 0 0
2.72 0 0
2.76 0 0
2.8 0 0
2.84 0 0
2.88 0 0
2.92 0 0
2.96 0 0
3 0 0
3.04 0 0
3.08 0 0
3.12 0 0
3.16 0 0
3.2 0 0
3.24 0 0
3.28 0 0
3.32 0 0
3.36 0 0
3.4 0 0
3.44 0 0
3.48 0 0
3.52 0 0
3.56 0 0
3.6 0 0
3.64 0 0
3.68 0 0
3.72 0 0
3.76 0 0
3.8 0 0
3.84 0 0
3.88 0 0
3.92 0 0
3.96 0 0
4 0 0
4.04 0 0
4.08 0 0
4.12 0 0
4.16 0 0
4.2 0 0
4.24 0 0
4.28 0 0
4.32 0 0
4.36 0 0
4.4 0 0
4.44 0 0
4.48 0 0
4.52 0 0
4.56 0 0
4.6 0 0
4.64 0 0
4.68 0 0
4.72 0 0
4.76 0 0
4.8 0 0
4.84 0 0
4.88 0 0
4.92 0 0
4.96 0 0
5 0 0
5.04 0 0
5.08 0 0
5.12 0 0
5.16 0 0
5.2 0 0
5.24 0 0
5.28 0 0
5.32 0 0
5.36 0 0
5.4 0 0
5.44 0 0
5.48 0 0
5.52 0 0
5.56 0 0
5.6 0 0
5.64 0 0
5.68 0 0
5.72 0 0
5.76 0 0
5.8 0 0
5.84 0 0
5.88 0 0
5.92 0 0
5.96 0 0
6 0 0
6.04 0 0
6.08 0 0
6.12 0 0
6.16 0 0
6.2 0 0
6.24 0 0
6.28 0 0
6.32 0 0
6.36 0 0
6.4 0 0
6.44 0 0
6.48 0 0
6.52 0 0
6.56 0 0
6.6 0 0
6.64 0 0
6.68 0 0
6.72 0 0
6.76 0 0
6.8 0 0
6.84 0 0
6.88 0 0
6.92 0 0
6.96 0 0
7 0 0
7.04 0 0
7.08 0 0
7.12 0 0
7.16 0 0
7.2 0 0
7.24 0 0
7.28 0 0
7.32 0 0
7.36 0 0
7.4 0 0
7.44 0 0
7.48 0 0
7.52 0 0
7.56 0 0
7.6 0 0
7.64 0 0
7.68 0 0
7.72 0 0
7.76 0 0
7.8 0 0
7.84 0 0
7.88 0 0
7.92 0 0
7.96 0 0
8 0 0
8.04 0 0
8.08 0 0
8.12 0 0
8.16 0 0
8.2 0 0
8.24 0 0
8.28 0 0
8.32 0 0
8.36 0 0
8.4 0 0
8.44 0 0
8.48 0 0
8.52 0 0
8.56 0 0
8.6 0 0
8.64 0 0
8.68 0 0
8.72 0 0
8.76 0 0
8.8 0 0
8.84 0 0
8.88 0 0
8.92 0 0
8.96 0 0
9 0 0
9.04 0 0
9.08 0 0
9.12 0 0
9.16 0 0
9.2 0 0
9.24 0 0
9.28 0 0
9.32 0 0
9.36 0 0
9.4 0 0
9.44 0 0
9.48 0 0
9.52 0 0
9.56 0 0
9.6 0 0
9.64 0 0
9.68 0 0
9.72 0 0
9.76 0 0
9.8 0 0
9.84 0 0
9.88 0 0
9.92 0 0
9.96 0 0
10 0 0
10.04 0 0
10.08 0 0
10.12 0 0
10.16 0 0
10.2 0 0
10.24 0 0
10.28 0 0
10.32 0 0
10.36 0 0
10.4 0 0
10.44 0 0
10.48 0 0
10.52 0 0
10.56 0 0
10.6 0 0
10.64 0 0
10.68 0 0
10.72 0 0
10.76 0 0
10.8 0 0
10.84 0 0
10.88 0 0
10.92 0 0
10.96 0 0
11 0 0
11.04 0 0
11.08 0 0
11.12 0 0
11.16 0 0
11.2 0 0
11.24 0 0
11.28 0 0
11.32 0 0
11.36 0 0
11.4 0 0
11.44 0 0
11.48 0 0
11.52 0 0
11.56 0 0
11.6 0 0
11.64 0 0
11.68 0 0
11.72 0 0
11.76 0 0
11.8 0 0
11.84 0 0
11.88 0 0
11.92 0 0
11.96 0 0
12 0 0
12.04 0 0
12.08 0 0
12.12 0 0
12.16 0 0
12.2 0 0
12.24 0 0
12.28 0 0
12.32 0 0
12.36 0 0
12.4 0 0
12.44 0 0
12.48 0 0
12.52 0 0
12.56 0 0
12.6 0 0
12.64 0 0
12.68 0 0
12.72 0 0
12.76 0 0
12.8 0 0
12.84 0 0
12.88 0 0
12.92 0 0
12.96 0 0
13 0 0
13.04 0 0
13.08 0 0
13.12 0 0
13.16 0 0
13.2 0 0
13.24 0 0
13.28 0 0
13.32 0 0
13.36 0 0
13.4 0 0
13.44 0 0
13.48 0 0
13.52 0 0
13.56 0 0
13.6 0 0
13.64 0 0
13.68 0 0
13.72 0 0
13.76 0 0
13.8 0 0
13.84 0 0
13.88 0 0
13.92 0 0
13.96 0 0
14 0 0
14.04 0 0
14.08 0 0
14.12 0 0
14.16 0 0
14.2 0 0
14.24 0 0
14.28 0 0
14.32 0 0
14.36 0 0
14.4 0 0
14.44 0 0
14.48 0 0
14.52 0 0
14.56 0 0
14.6 0 0
14.64 0 0
14.68 0 0
14.72 0 0
14.76 0 0
14.8 0 0
14.84 0 0
14.88 0 0
14.92 0 0
14.96 0 0
15 0 0
15.04 0 0
15.08 0 0
15.12 0 0
15.16 0 0
15.2 0 0
15.24 0 0
15.28 0 0
15.32 0 0
15.36 0 0
15.4 0 0
15.44 0 0
15.48 0 0
15.52 0 0
15.56 0 0
15.6 0 0
15.64 0 0
15.68 0 0
15.72 0 0
15.76 0 0
15.8 0 0
15.84 0 0
15.88 0 0
15.92 0 0
15.96 0 0
16 0 0
16.04 0 0
16.08 0 0
16.12 0 0
16.16 0 0
16.2 0 0
16.24 0 0
16.28 0 0
16.32 0 0
16.36 0 0
16.4 0 0
16.44 0 0
16.48 0 0
16.52 0 0
16.56 0 0
16.6 0 0
16.64 0 0
16.68 0 0
16.72 0 0
16.76 0 0
16.8 0 0
16.84 0 0
16.88 0 0
16.92 0 0
16.96 0 0
17 0 0
17.04 0 0
17.08 0 0
17.12 0 0
17.16 0 0
17.2 0 0
17.24 0 0
17.28 0 0
17.32 0 0
17.36 0 0
17.4 0 0
17.44 0 0
17.48 0 0
17.52 0 0
17.56 0 0
17.6 0 0
17.64 0 0
17.68 0 0
17.72 0 0
17.76 0 0
17.8 0 0
17.84 0 0
17.88 0 0
17.92 0 0
17.96 0 0
18 0 0
18.04 0 0
18.08 0 0
18.12 0 0
18.16 0 0
18.2 0 0
18.24 0 0
18.28 0 0
18.32 0 0
18.36 0 0
18.4 0 0
18.44 0 0
18.48 0 0
18.52 0 0
18.56 0 0
18.6 0 0
18.64 0 0
18.68 0 0
18.72 0 0
18.76 0 0
18.8 0 0
18.84 0 0
18.88 0 0
18.92 0 0
18.96 0 0
19 0 0
19.04 0 0
19.08 0 0
19.12 0 0
19.16 0 0
19.2 0 0
19.24 0 0
19.28 0 0
19.32 0 0
19.36 0 0
19.4 0 0
19.44 0 0
19.48 0 0
19.52 0 0
19.56 0 0
19.6 0 0
19.64 0 0
19.68 0 0
19.72 0 0
19.76 0 0
19.8 0 0
19.84 0 0
19.88 0 0
19.92 0 0
19.96 0 0
20 0 0
20.04 0 0
20.08 0 0
20.12 0 0
20.16 0 0
20.2 0 0
20.24 0 0
20.28 0 0
20.32 0 0
20.36 0 0
20.4 0 0
20.44 0 0
20.48 0 0
20.52 0 0
20.56 0 0
20.6 0 0
20.64 0 0
20.68 0 0
20.72 0 0
20.76 0 0
20.8 0 0
20.84 0 0
20.88 0 0
20.92 0 0
20.96 0 0
21 0 0
21.04 0 0
21.08 0 0
21.12 0 0
21.16 0 0
21.2 0 0
21.24 0 0
21.28 0 0
21.32 0 0
21.36 0 0
21.4 0 0
21.44 0 0
21.48 0 0
21.52 0 0
21.56 0 0
21.6 0 0
21.64 0 0
21.68 0 0
21.72 0 0
21.76 0 0
21.8 0 0
21.84 0 0
21.88 0 0
21.92 0 0
21.96 0 0
22 0 0
22.04 0 0
22.08 0 0
22.12 0 0
22.16 0 0
22.2 0 0
22.24 0 0
22.28 0 0
22.32 0 0
22.36 0 0
22.4 0 0
22.44 0 0
22.48 0 0
22.52 0 0
22.56 0 0
22.6 0 0
22.64 0 0
22.68 0 0
22.72 0 0
22.76 0 0
22.8 0 0
22.84 0 0
22.88 0 0
22.92 0 0
22.96 0 0
23 0 0
23.04 0 0
23.08 0 0
23.12 0 0
23.16 0 0
23.2 0 0
23.24 0 0
23.28 0 0
23.32 0 0
23.36 0 0
23.4 0 0
23.44 0 0
23.48 0 0
23.52 0 0
23.56 0 0
23.6 0 0
23.64 0 0
23.68 0 0
23.72 0 0
23.76 0 0
23.8 0 0
23.84 0 0
23.88 0 0
23.92 0 0
23.96 0 0
24 0 0
24.04 0 0
24.08 0 0
24.12 0 0
24.16 0 0
24.2 0 0
24.24 0 0
24.28 0 0
24.32 0 0
24.36 0 0
24.4 0 0
24.44 0 0
24.48 0 0
24.52 0 0
24.56 0 0
24.6 0 0
24.64 0 0
24.68 0 0
24.72 0 0
24.76 0 0
24.8 0 0
24.84 0 0
24.88 0 0
24.92 0 0
24.96 0 0
25 0 0
25.04 0 0
25.08 0 0
25.12 0 0
25.16 0 0
25.2 0 0
25.24 0 0
25.28 0 0
25.32 0 0
25.36 0 0
25.4 0 0
25.44 0 0
25.48 0 0
25.52 0 0
25.56 0 0
25.6 0 0
25.64 0 0
25.68 0 0
25.72 0 0
25.76 0 0
25.8 0 0
25.84 0 0
25.88 0 0
25.92 0 0
25.96 0 0
26 0 0
26.04 0 0
26.08 0 0
26.12 0 0
26.16 0 0
26.2 0 0
26.24 0 0
26.28 0 0
26.32 0 0
26.36 0 0
26.4 0 0
26.44 0 0
26.48 0 0
26.52 0 0
26.56 0 0
26.6 0 0
26.64 0 0
26.68 0 0
26.72 0 0
26.76 0 0
26.8 0 0
26.84 0 0
26.88 0 0
26.92 0 0
26.96 0 0
27 0 0
27.04 0 0
27.08 0 0
27.12 0 0
27.16 0 0
27.2 0 0
27.24 0 0
27.28 0 0
27.32 0 0
27.36 0 0
27.4 0 0
27.44 0 0
27.48 0 0
27.52 0 0
27.56 0 0
27.6 0 0
27.64 0 0
27.68 0 0
27.72 0 0
27.76 0 0
27.8 0 0
27.84 0 0
27.88 0 0
27.92 0 0
27.96 0 0
28 0 0
28.04 0 0
28.08 0 0
28.12 0 0
28.16 0 0
28.2 0 0
28.24 0 0
28.28 0 0
28.32 0 0
28.36 0 0
28.4 0 0
28.44 0 0
28.48 0 0
28.52 0 0
28.56 0 0
28.6 0 0
28.64 0 0
28.68 0 0
28.72 0 0
28.76 0 0
28.8 0 0
28.84 0 0
28.88 0 0
28.92 0 0
28.96 0 0
29 0 0
29.04 0 0
29.08 0 0
29.12 0 0
29.16 0 0
29.2 0 0
29.24 0 0
29.28 0 0
29.32 0 0
29.36 0 0
29.4 0 0
29.44 0 0
29.48 0 0
29.52 0 0
29.56 0 0
29.6 0 0
29.64 0 0
29.68 0 0
29.72 0 0
29.76 0 0
29.8 0 0
29.84 0 0
29.88 0 0
29.92 0 0
29.96 0 0
30 0 0
30.04 0 0
30.08 0 0
30.12 0 0
30.16 0 0
30.2 0 0
30.24 0 0
30.28 0 0
30.32 0 0
30.36 0 0
30.4 0 0
30.44 0 0
30.48 0 0
30.52 0 0
30.56 0 0
30.6 0 0
30.64 0 0
30.68 0 0
30.72 0 0
30.76 0 0
30.8 0 0
30.84 0 0
30.88 0 0
30.92 0 0
30.96 0 0
31 0 0
31.04 0 0
31.08 0 0
31.12 0 0
31.16 0 0
31.2 0 0
31.24 0 0
31.28 0 0
31.32 0 0
31.36 0 0
31.4 0 0
31.44 0 0
31.48 0 0
31.52 0 0
31.56 0 0
31.6 0 0
31.64 0 0
31.68 0 0
31.72 0 0
31.76 0 0
31.8 0 0
31.84 0 0
31.88 0 0
31.92 0 0
31.96 0 0
0 0.005 0
0.04 0.005 0
0.08 0.005 0
0.12 0.005 0
0.16 0.005 0
0.2 0.005 0
0.24 0.005 0
0.28 0.005 0
0.32 0.005 0
0.36 0.005 0
0.4 0.005 0
0.44 0.005 0
0.48 0.005 0
0.52 0.005 0
0.56 0.005 0
0.6 0.005 0
0.64 0.005 0
0.68 0.005 0
0.72 0.005 0
0.76 0.005 0
0.8 0.005 0
0.84 0.005 0
0.88 0.005 0
0.92 0.005 0
0.96 0.005 0
1 0.005 0
1.04 0.005 0
1.08 0.005 0
1.12 0.005 0
1.16 0.005 0
1.2 0.005 0
1.24 0.005 0
1.28 0.005 0
1.32 0.005 0
1.36 0.005 0
1.4 0.005 0
1.44 0.005 0
1.48 0.005 0
1.52 0.005 0
1.56 0.005 0
1.6 0.005 0
1.64 0.005 0
1.68 0.005 0
1.72 0.005 0
1.76 0.005 0
1.8 0.005 0
1.84 0.005 0
1.88 0.005 0
1.92 0.005 0
1.96 0.005 0
2 0.005 0
2.04 0.005 0
2.08 0.005 0
2.12 0.005 0
2.16 0.005 0
2.2 0.005 0
2.24 0.005 0
2.28 0.005 0
2.32 0.005 0
2.36 0.005 0
2.4 0.005 0
2.44 0.005 0
2.48 0.005 0
2.52 0.005 0
2.56 0.005 0
2.6 0.005 0
2.64 0.005 0
2.68 0.005 0
2.72 0.005 0
2.76 0.005 0
2.8 0.005 0
2.84 0.005 0
2.88 0.005 0
2.92 0.005 0
2.96 0.005 0
3 0.005 0
3.04 0.005 0
3.08 0.005 0
3.12 0.005 0
3.16 0.005 0
3.2 0.005 0
3.24 0.005 0
3.28 0.005 0
3.32 0.005 0
3.36 0.005 0
3.4 0.005 0
3.44 0.005 0
3.48 0.005 0
3.52 0.005 0
3.56 0.005 0
3.6 0.005 0
3.64 0.005 0
3.68 0.005 0
3.72 0.005 0
3.76 0.005 0
3.8 0.005 0
3.84 0.005 0
3.88 0.005 0
3.92 0.005 0
3.96 0.005 0
4 0.005 0
4.04 0.005 0
4.08 0.005 0
4.12 0.005 0
4.16 0.005 0
4.2 0.005 0
4.24 0.005 0
4.28 0.005 0
4.32 0.005 0
4.36 0.005 0
4.4 0.005 0
4.44 0.005 0
4.48 0.005 0
4.52 0.005 0
4.56 0.005 0
4.6 0.005 0
4.64 0.005 0
4.68 0.005 0
4.72 0.005 0
4.76 0.005 0
4.8 0.005 0
4.84 0.005 0
4.88 0.005 0
4.92 0.005 0
4.96 0.005 0
5 0.005 0
5.04 0.005 0
5.08 0.005 0
5.12 0.005 0
5.16 0.005 0
5.2 0.005 0
5.24 0.005 0
5.28 0.005 0
5.32 0.005 0
5.36 0.005 0
5.4 0.005 0
5.44 0.005 0
5.48 0.005 0
5.52 0.005 0
5.56 0.005 0
5.6 0.005 0
5.64 0.005 0
5.68 0.005 0
5.72 0.005 0
5.76 0.005 0
5.8 0.005 0
5.84 0.005 0
5.88 0.005 0
5.92 0.005 0
5.96 0.005 0
6 0.005 0
6.04 0.005 0
6.08 0.005 0
6.12 0.005 0
6.16 0.005 0
6.2 0.005 0
6.24 0.005 0
6.28 0.005 0
6.32 0.005 0
6.36 0.005 0
6.4 0.005 0
6.44 0.005 0
6.48 0.005 0
6.52 0.005 0
6.56 0.005 0
6.6 0.005 0
6.64 0.005 0
6.68 0.005 0
6.72 0.005 0
6.76 0.005 0
6.8 0.005 0
6.84 0.005 0
6.88 0.005 0
6.92 0.005 0
6.96 0.005 0
7 0.005 0
7.04 0.005 0
7.08 0.005 0
7.12 0.005 0
7.16 0.005 0
7.2 0.005 0
7.24 0.005 0
7.28 0.005 0
7.32 0.005 0
7.36 0.005 0
7.4 0.005 0
[...]
POINT_DATA 160000

SCALARS u float 1
LOOKUP_TABLE default
-1
-0.483357
-0.183963
-0.108845
-0.0810328
-0.0668334
-0.0581178
-0.0521523
-0.0477771
-0.0444142
-0.0417409
-0.039561
-0.0377478
-0.0362148
-0.034901
-0.033762
-0.0327642
-0.0318825
-0.0310969
-0.0303918
-0.0297548
-0.0291758
-0.0286466
-0.0281605
-0.0277119
-0.0272961
-0.0269093
-0.0265481
-0.0262097
-0.0258918
-0.0255922
-0.0253093
-0.0250414
-0.0247873
-0.0245458
-0.0243157
-0.0240963
-0.0238867
-0.0236862
-0.0234941
-0.0233098
-0.0231329
-0.0229629
-0.0227993
-0.0226417
-0.0224898
-0.0223433
-0.0222018
-0.0220651
-0.0219329
-0.021805
-0.0216811
-0.0215611
-0.0214448
-0.0213319
-0.0212224
-0.0211161
-0.0210128
-0.0209123
-0.0208147
-0.0207197
-0.0206272
-0.0205371
-0.0204494
-0.0203639
-0.0202806
-0.0201993
-0.02012
-0.0200426
-0.019967
-0.0198932
-0.0198211
-0.0197507
-0.0196818
-0.0196144
-0.0195486
-0.0194841
-0.0194211
-0.0193593
-0.0192989
-0.0192397
-0.0191817
-0.0191248
-0.0190691
-0.0190145
-0.018961
-0.0189085
-0.018857
-0.0188064
-0.0187568
-0.0187082
-0.0186604
-0.0186134
-0.0185674
-0.0185221
-0.0184776
-0.0184339
-0.018391
-0.0183488
-0.0183073
-0.0182665
-0.0182263
-0.0181869
-0.0181481
-0.0181099
-0.0180723
-0.0180353
-0.0179989
-0.0179631
-0.0179278
-0.0178931
-0.0178589
-0.0178252
-0.0177921
-0.0177594
-0.0177272
-0.0176955
-0.0176642
-0.0176334
-0.0176031
-0.0175732
-0.0175437
-0.0175146
-0.0174859
-0.0174576
-0.0174298
-0.0174023
-0.0173751
-0.0173484
-0.017322
-0.017296
-0.0172703
-0.0172449
-0.0172199
-0.0171952
-0.0171708
-0.0171468
-0.017123
-0.0170996
-0.0170765
-0.0170536
-0.0170311
-0.0170088
-0.0169868
-0.0169651
-0.0169436
-0.0169224
-0.0169015
-0.0168808
-0.0168604
-0.0168402
-0.0168203
-0.0168006
-0.0167811
-0.0167619
-0.0167429
-0.0167241
-0.0167055
-0.0166872
-0.0166691
-0.0166512
-0.0166334
-0.0166159
-0.0165986
-0.0165815
-0.0165646
-0.0165479
-0.0165313
-0.016515
-0.0164988
-0.0164829
-0.016467
-0.0164514
-0.016436
-0.0164207
-0.0164056
-0.0163906
-0.0163758
-0.0163612
-0.0163467
-0.0163324
-0.0163183
-0.0163043
-0.0162904
-0.0162767
-0.0162632
-0.0162498
-0.0162365
-0.0162234
-0.0162104
-0.0161976
-0.0161849
-0.0161723
-0.0161598
-0.0161475
-0.0161354
-0.0161233
-0.0161114
-0.0160996
-0.0160879
-0.0160763
-0.0160649
-0.0160536
-0.0160424
-0.0160313
-0.0160203
-0.0160095
-0.0159987
-0.0159881
-0.0159775
-0.0159671
-0.0159568
-0.0159466
-0.0159365
-0.0159265
-0.0159166
-0.0159068
-0.0158971
-0.0158875
-0.015878
-0.0158686
-0.0158592
-0.01585
-0.0158409
-0.0158318
-0.0158229
-0.015814
-0.0158053
-0.0157966
-0.015788
-0.0157795
-0.0157711
-0.0157627
-0.0157545
-0.0157463
-0.0157382
-0.0157302
-0.0157222
-0.0157144
-0.0157066
-0.0156989
-0.0156913
-0.0156837
-0.0156762
-0.0156688
-0.0156615
-0.0156542
-0.0156471
-0.0156399
-0.0156329
-0.0156259
-0.015619
-0.0156122
-0.0156054
-0.0155988
-0.0155921
-0.0155856
-0.0155791
-0.0155727
-0.0155663
-0.0155601
-0.0155538
-0.0155477
-0.0155416
-0.0155356
-0.0155297
-0.0155238
-0.015518
-0.0155122
-0.0155066
-0.0155009
-0.0154954
-0.0154899
-0.0154845
-0.0154792
-0.0154739
-0.0154687
-0.0154635
-0.0154585
-0.0154534
-0.0154485
-0.0154436
-0.0154388
-0.0154341
-0.0154294
-0.0154248
-0.0154202
-0.0154157
-0.0154113
-0.015407
-0.0154027
-0.0153985
-0.0153943
-0.0153902
-0.0153862
-0.0153822
-0.0153783
-0.0153745
-0.0153708
-0.015367
-0.0153634
-0.0153598
-0.0153563
-0.0153529
-0.0153495
-0.0153462
-0.0153429
-0.0153397
-0.0153366
-0.0153335
-0.0153304
-0.0153275
-0.0153246
-0.0153217
-0.0153189
-0.0153162
-0.0153135
-0.0153109
-0.0153083
-0.0153058
-0.0153034
-0.015301
-0.0152986
-0.0152963
-0.0152941
-0.0152919
-0.0152898
-0.0152877
-0.0152856
-0.0152836
-0.0152817
-0.0152798
-0.0152779
-0.0152761
-0.0152743
-0.0152726
-0.0152709
-0.0152693
-0.0152677
-0.0152662
-0.0152646
-0.0152632
-0.0152617
-0.0152603
-0.015259
-0.0152577
-0.0152564
-0.0152551
-0.0152539
-0.0152527
-0.0152516
-0.0152505
-0.0152494
-0.0152483
-0.0152473
-0.0152463
-0.0152453
-0.0152444
-0.0152435
-0.0152426
-0.0152417
-0.0152409
-0.0152401
-0.0152393
-0.0152385
-0.0152377
-0.015237
-0.0152363
-0.0152356
-0.015235
-0.0152343
-0.0152337
-0.0152331
-0.0152325
-0.0152319
-0.0152313
-0.0152308
-0.0152302
-0.0152297
-0.0152292
-0.0152287
-0.0152282
-0.0152278
-0.0152273
-0.0152269
-0.0152264
-0.015226
-0.0152256
-0.0152251
-0.0152247
-0.0152243
-0.015224
-0.0152236
-0.0152232
-0.0152228
-0.0152225
-0.0152221
-0.0152218
-0.0152214
-0.0152211
-0.0152207
-0.0152204
-0.0152201
-0.0152197
-0.0152194
-0.0152191
-0.0152188
-0.0152184
-0.0152181
-0.0152178
-0.0152175
-0.0152172
-0.0152169
-0.0152166
-0.0152163
-0.0152159
-0.0152156
-0.0152153
-0.015215
-0.0152147
-0.0152144
-0.0152141
-0.0152138
-0.0152135
-0.0152132
-0.0152129
-0.0152126
-0.0152123
-0.015212
-0.0152117
-0.0152114
-0.0152111
-0.0152108
-0.0152105
-0.0152102
-0.0152099
-0.0152095
-0.0152092
-0.0152089
-0.0152086
-0.0152083
-0.015208
-0.0152077
-0.0152074
-0.0152071
-0.0152068
-0.0152065
-0.0152062
-0.0152059
-0.0152056
-0.0152053
-0.015205
-0.0152047
-0.0152044
-0.0152041
-0.0152038
-0.0152035
-0.0152032
-0.0152029
-0.0152026
-0.0152022
-0.0152019
-0.0152016
-0.0152013
-0.015201
-0.0152007
-0.0152004
-0.0152001
-0.0151998
-0.0151995
-0.0151992
-0.0151989
-0.0151986
-0.0151983
-0.015198
-0.0151977
-0.0151974
-0.0151971
-0.0151968
-0.0151965
-0.0151962
-0.0151959
-0.0151956
-0.0151953
-0.015195
-0.0151946
-0.0151943
-0.015194
-0.0151937
-0.0151934
-0.0151931
-0.0151928
-0.0151925
-0.0151922
-0.0151919
-0.0151916
-0.0151913
-0.015191
-0.0151907
-0.0151904
-0.0151901
-0.0151898
-0.0151895
-0.0151892
-0.0151889
-0.0151886
-0.0151883
-0.015188
-0.0151877
-0.0151873
-0.015187
-0.0151867
-0.0151864
-0.0151861
-0.0151858
-0.0151855
-0.0151852
-0.0151849
-0.0151846
-0.0151843
-0.015184
-0.0151837
-0.0151834
-0.0151831
-0.0151828
-0.0151825
-0.0151822
-0.0151819
-0.0151816
-0.0151813
-0.015181
-0.0151807
-0.0151804
-0.0151801
-0.0151797
-0.0151794
-0.0151791
-0.0151788
-0.0151785
-0.0151782
-0.0151779
-0.0151776
-0.0151773
-0.015177
-0.0151767
-0.0151764
-0.0151761
-0.0151758
-0.0151755
-0.0151752
-0.0151749
-0.0151746
-0.0151743
-0.015174
-0.0151737
-0.0151734
-0.0151731
-0.0151728
-0.0151725
-0.0151721
-0.0151718
-0.0151715
-0.0151712
-0.0151709
-0.0151706
-0.0151703
-0.01517
-0.0151697
-0.0151694
-0.0151691
-0.0151688
-0.0151685
-0.0151682
-0.0151679
-0.0151676
-0.0151673
-0.015167
-0.0151667
-0.0151664
-0.0151661
-0.0151658
-0.0151655
-0.0151652
-0.0151649
-0.0151645
-0.0151642
-0.0151639
-0.0151636
-0.0151633
-0.015163
-0.0151627
-0.0151624
-0.0151621
-0.0151618
-0.0151615
-0.0151612
-0.0151609
-0.0151606
-0.0151603
-0.01516
-0.0151597
-0.0151594
-0.0151591
-0.0151588
-0.0151585
-0.0151582
-0.0151579
-0.0151576
-0.0151573
-0.015157
-0.0151566
-0.0151563
-0.015156
-0.0151557
-0.0151554
-0.0151551
-0.0151548
-0.0151545
-0.0151542
-0.0151539
-0.0151536
-0.0151533
-0.015153
-0.0151527
-0.0151524
-0.0151521
-0.0151518
-0.0151515
-0.0151512
-0.0151509
-0.0151506
-0.0151503
-0.01515
-0.0151497
-0.0151494
-0.0151491
-0.0151487
-0.0151484
-0.0151481
-0.0151478
-0.0151475
-0.0151472
-0.0151469
-0.0151466
-0.0151463
-0.015146
-0.0151457
-0.0151454
-0.0151451
-0.0151448
-0.0151445
-0.0151442
-0.0151439
-0.0151436
-0.0151433
-0.015143
-0.0151427
-0.0151424
-0.0151421
-0.0151418
-0.0151415
-0.0151411
-0.0151408
-0.0151405
-0.0151402
-0.0151399
-0.0151396
-0.0151393
-0.015139
-0.0151387
-0.0151384
-0.0151381
-0.0151378
-0.0151375
-0.0151372
-0.0151369
-0.0151366
-0.0151363
-0.015136
-0.0151357
-0.0151354
-0.0151351
-0.0151348
-0.0151345
-0.0151342
-0.0151339
-0.0151336
-0.0151332
-0.0151329
-0.0151326
-0.0151323
-0.015132
-0.0151317
-0.0151314
-0.0151311
-0.0151308
-0.0151305
-0.0151302
-0.0151299
-0.0151296
-0.0151293
-0.015129
-0.0151287
-0.0151284
-0.0151281
-0.0151278
-0.0151275
-0.0151272
-0.0151269
-0.0151266
-0.0151263
-0.015126
-0.0151257
-0.0151254
-0.015125
-0.0151247
-0.0151244
-0.0151241
-0.0151238
-0.0151235
-0.0151232
-0.0151229
-0.0151226
-0.0151223
-0.015122
-0.0151217
-0.0151214
-0.0151211
-0.0151208
-0.0151205
-0.0151202
-0.0151199
-0.0151196
-0.0151193
-0.015119
-0.0151187
-0.0151184
-0.0151181
-0.0151178
-0.0151175
-0.0151171
-0.0151168
-0.0151165
-0.0151162
-0.0151159
-0.0151156
-0.0151153
-0.015115
-0.0151147
-0.0151144
-0.0151141
-0.0151138
-0.0151135
-0.0151132
-0.0151129
-0.0151126
-0.0151123
-0.015112
-0.0151117
-0.0151114
-0.0151111
-0.0151108
-0.0151105
-0.0151102
-0.0151099
-0.0151096
-0.0151092
-0.0151089
-0.0151086
-0.0151083
-0.015108
-0.0151077
-0.0151074
-0.0151071
-0.0151068
-0.0151065
-0.0151062
-0.0151059
-0.0151056
-0.0151053
-0.0151049
-0.0151046
-0.0151043
-0.015104
-0.0151037
-0.0151033
-0.015103
-0.0151026
-0.0151022
-0.0151018
-0.0151014
-0.015101
-0.0151005
-0.0150999
-0.0150993
-0.0150986
-0.0150976
-0.0150972
-0.0150972
-0.0150972
1
0.483357
0.183963
0.108845
0.0810328
0.0668334
0.0581178
0.0521523
0.0477771
0.0444142
0.0417409
0.039561
0.0377478
0.0362148
0.034901
0.033762
0.0327642
0.0318825
0.0310969
0.0303918
0.0297548
0.0291758
0.0286466
0.0281605
0.0277119
0.0272961
0.0269093
0.0265481
0.0262097
0.0258918
0.0255922
0.0253093
0.0250414
0.0247873
0.0245458
0.0243157
0.0240963
0.0238867
0.0236862
0.0234941
0.0233098
0.0231329
0.0229629
0.0227993
0.0226417
0.0224898
0.0223433
0.0222018
0.0220651
0.0219329
0.021805
0.0216811
0.0215611
0.0214448
0.0213319
0.0212224
0.0211161
0.0210128
0.0209123
0.0208147
0.0207197
0.0206272
0.0205371
0.0204494
0.0203639
0.0202806
0.0201993
0.02012
0.0200426
0.019967
0.0198932
0.0198211
0.0197507
0.0196818
0.0196144
0.0195486
0.0194841
0.0194211
0.0193593
0.0192989
0.0192397
0.0191817
0.0191248
0.0190691
0.0190145
0.018961
0.0189085
0.018857
0.0188064
0.0187568
0.0187082
0.0186604
0.0186134
0.0185674
0.0185221
0.0184776
0.0184339
0.018391
0.0183488
0.0183073
0.0182665
0.0182263
0.0181869
0.0181481
0.0181099
0.0180723
0.0180353
0.0179989
0.0179631
0.0179278
0.0178931
0.0178589
0.0178252
0.0177921
0.0177594
0.0177272
0.0176955
0.0176642
0.0176334
0.0176031
0.0175732
0.0175437
0.0175146
0.0174859
0.0174576
0.0174298
0.0174023
0.0173751
0.0173484
0.017322
0.017296
0.0172703
0.0172449
0.0172199
0.0171952
0.0171708
0.0171468
0.017123
0.0170996
0.0170765
0.0170536
0.0170311
0.0170088
0.0169868
0.0169651
0.0169436
0.0169224
0.0169015
0.0168808
0.0168604
0.0168402
0.0168203
0.0168006
0.0167811
0.0167619
0.0167429
0.0167241
0.0167055
0.0166872
0.0166691
0.0166512
0.0166334
0.0166159
0.0165986
0.0165815
0.0165646
0.0165479
0.0165313
0.016515
0.0164988
0.0164829
0.016467
0.0164514
0.016436
0.0164207
0.0164056
0.0163906
0.0163758
0.0163612
0.0163467
0.0163324
0.0163183
0.0163043
0.0162904
0.0162767
0.0162632
0.0162498
0.0162365
0.0162234
0.0162104
0.0161976
0.0161849
0.0161723
0.0161598
0.0161475
0.0161354
0.0161233
0.0161114
0.0160996
0.0160879
0.0160763
0.0160649
0.0160536
0.0160424
0.0160313
0.0160203
0.0160095
0.0159987
0.0159881
0.0159775
0.0159671
0.0159568
0.0159466
0.0159365
0.0159265
0.0159166
0.0159068
0.0158971
0.0158875
0.015878
0.0158686
0.0158592
0.01585
0.0158409
0.0158318
0.0158229
0.015814
0.0158053
0.0157966
0.015788
0.0157795
0.0157711
0.0157627
0.0157545
0.0157463
0.0157382
0.0157302
0.0157222
0.0157144
0.0157066
0.0156989
0.0156913
0.0156837
0.0156762
0.0156688
0.0156615
0.0156542
0.0156471
0.0156399
0.0156329
0.0156259
0.015619
0.0156122
0.0156054
0.0155988
0.0155921
0.0155856
0.0155791
0.0155727
0.0155663
0.0155601
0.0155538
0.0155477
0.0155416
0.0155356
0.0155297
0.0155238
0.015518
0.0155122
0.0155066
0.0155009
0.0154954
0.0154899
0.0154845
0.0154792
0.0154739
0.0154687
0.0154635
0.0154585
0.0154534
0.0154485
0.0154436
0.0154388
0.0154341
0.0154294
0.0154248
0.0154202
0.0154157
0.0154113
0.015407
0.0154027
0.0153985
0.0153943
0.0153902
0.0153862
0.0153822
0.0153783
0.0153745
0.0153708
0.015367
0.0153634
0.0153598
0.0153563
0.0153529
0.0153495
0.0153462
0.0153429
0.0153397
0.0153366
0.0153335
0.0153304
0.0153275
0.0153246
0.0153217
0.0153189
0.0153162
0.0153135
0.0153109
0.0153083
0.0153058
0.0153034
0.015301
0.0152986
0.0152963
0.0152941
0.0152919
0.0152898
0.0152877
0.0152856
0.0152836
0.0152817
0.0152798
0.0152779
0.0152761
0.0152743
0.0152726
0.0152709
0.0152693
0.0152677
0.0152662
0.0152646
0.0152632
0.0152617
0.0152603
0.015259
0.0152577
0.0152564
0.0152551
0.0152539
0.0152527
0.0152516
0.0152505
0.0152494
0.0152483
0.0152473
0.0152463
0.0152453
0.0152444
0.0152435
0.0152426
0.0152417
0.0152409
0.0152401
0.0152393
0.0152385
0.0152377
0.015237
0.0152363
0.0152356
0.015235
0.0152343
0.0152337
0.0152331
0.0152325
0.0152319
0.0152313
0.0152308
0.0152302
0.0152297
0.0152292
0.0152287
0.0152282
0.0152278
0.0152273
0.0152269
0.0152264
0.015226
0.0152256
0.0152251
0.0152247
0.0152243
0.015224
0.0152236
0.0152232
0.0152228
0.0152225
0.0152221
0.0152218
0.0152214
0.0152211
0.0152207
0.0152204
0.0152201
0.0152197
0.0152194
0.0152191
0.0152188
0.0152184
0.0152181
0.0152178
0.0152175
0.0152172
0.0152169
0.0152166
0.0152163
0.0152159
0.0152156
0.0152153
0.015215
0.0152147
0.0152144
0.0152141
0.0152138
0.0152135
0.0152132
0.0152129
0.0152126
0.0152123
0.015212
0.0152117
0.0152114
0.0152111
0.0152108
0.0152105
0.0152102
0.0152099
0.0152095
0.0152092
0.0152089
0.0152086
0.0152083
0.015208
0.0152077
0.0152074
0.0152071
0.0152068
0.0152065
0.0152062
0.0152059
0.0152056
0.0152053
0.015205
0.0152047
0.0152044
0.0152041
0.0152038
0.0152035
0.0152032
0.0152029
0.0152026
0.0152022
0.0152019
0.0152016
0.0152013
0.015201
0.0152007
0.0152004
0.0152001
0.0151998
0.0151995
0.0151992
0.0151989
0.0151986
0.0151983
0.015198
0.0151977
0.0151974
0.0151971
0.0151968
0.0151965
0.0151962
0.0151959
0.0151956
0.0151953
0.015195
0.0151946
0.0151943
0.015194
0.0151937
0.0151934
0.0151931
0.0151928
0.0151925
0.0151922
0.0151919
0.0151916
0.0151913
0.015191
0.0151907
0.0151904
0.0151901
0.0151898
0.0151895
0.0151892
0.0151889
0.0151886
0.0151883
0.015188
0.0151877
0.0151873
0.015187
0.0151867
0.0151864
0.0151861
0.0151858
0.0151855
0.0151852
0.0151849
0.0151846
0.0151843
0.015184
0.0151837
0.0151834
0.0151831
0.0151828
0.0151825
0.0151822
0.0151819
0.0151816
0.0151813
0.015181
0.0151807
0.0151804
0.0151801
0.0151797
0.0151794
0.0151791
0.0151788
0.0151785
0.0151782
0.0151779
0.0151776
0.0151773
0.015177
0.0151767
0.0151764
0.0151761
0.0151758
0.0151755
0.0151752
0.0151749
0.0151746
0.0151743
0.015174
0.0151737
0.0151734
0.0151731
0.0151728
0.0151725
0.0151721
0.0151718
0.0151715
0.0151712
0.0151709
0.0151706
0.0151703
0.01517
0.0151697
0.0151694
0.0151691
0.0151688
0.0151685
0.0151682
0.0151679
0.0151676
0.0151673
0.015167
0.0151667
0.0151664
0.0151661
0.0151658
0.0151655
0.0151652
0.0151649
0.0151645
0.0151642
0.0151639
0.0151636
0.0151633
0.015163
0.0151627
0.0151624
0.0151621
0.0151618
0.0151615
0.0151612
0.0151609
0.0151606
0.0151603
0.01516
0.0151597
0.0151594
0.0151591
0.0151588
0.0151585
0.0151582
0.0151579
0.0151576
0.0151573
0.015157
0.0151566
0.0151563
0.015156
0.0151557
0.0151554
0.0151551
0.0151548
0.0151545
0.0151542
0.0151539
0.0151536
0.0151533
0.015153
0.0151527
0.0151524
0.0151521
0.0151518
0.0151515
0.0151512
0.0151509
0.0151506
0.0151503
0.01515
0.0151497
0.0151494
0.0151491
0.0151487
0.0151484
0.0151481
0.0151478
0.0151475
0.0151472
0.0151469
0.0151466
0.0151463
0.015146
0.0151457
0.0151454
0.0151451
0.0151448
0.0151445
0.0151442
0.0151439
0.0151436
0.0151433
0.015143
0.0151427
0.0151424
0.0151421
0.0151418
0.0151415
0.0151411
0.0151408
0.0151405
0.0151402
0.0151399
0.0151396
0.0151393
0.015139
0.0151387
0.0151384
0.0151381
0.0151378
0.0151375
0.0151372
0.0151369
0.0151366
0.0151363
0.015136
0.0151357
0.0151354
0.0151351
0.0151348
0.0151345
0.0151342
0.0151339
0.0151336
0.0151332
0.0151329
0.0151326
0.0151323
0.015132
0.0151317
0.0151314
0.0151311
0.0151308
0.0151305
0.0151302
0.0151299
0.0151296
0.0151293
0.015129
0.0151287
0.0151284
0.0151281
0.0151278
0.0151275
0.0151272
0.0151269
0.0151266
0.0151263
0.015126
0.0151257
0.0151254
0.015125
0.0151247
0.0151244
0.0151241
0.0151238
0.0151235
0.0151232
0.0151229
0.0151226
0.0151223
0.015122
0.0151217
0.0151214
0.0151211
0.0151208
0.0151205
0.0151202
0.0151199
0.0151196
0.0151193
0.015119
0.0151187
0.0151184
0.0151181
0.0151178
0.0151175
0.0151171
0.0151168
0.0151165
0.0151162
0.0151159
0.0151156
0.0151153
0.015115
0.0151147
0.0151144
0.0151141
0.0151138
0.0151135
0.0151132
0.0151129
0.0151126
0.0151123
0.015112
0.0151117
0.0151114
0.0151111
0.0151108
0.0151105
0.0151102
0.0151099
0.0151096
0.0151092
0.0151089
0.0151086
0.0151083
0.015108
0.0151077
0.0151074
0.0151071
0.0151068
0.0151065
0.0151062
0.0151059
0.0151056
0.0151053
0.0151049
0.0151046
0.0151043
0.015104
0.0151037
0.0151033
0.015103
0.0151026
0.0151022
0.0151018
0.0151014
0.015101
0.0151005
0.0150999
0.0150993
0.0150986
0.0150976
0.0150972
0.0150972
0.0150972
1
0.969191
0.495616
0.314223
0.237896
0.197395
0.172133
0.154695
0.141841
0.131927
0.124027
0.117572
0.112195
0.107644
0.103741
0.100353
0.0973851
0.0947607
0.0924218
0.0903225
0.0884257
0.0867017
0.0851263
0.0836793
0.0823441
0.081107
0.0799563
0.0788821
0.0778761
0.0769311
0.076041
0.0752005
0.074405
0.0736505
0.0729335
0.0722509
0.0715999
0.0709781
0.0703834
0.0698139
0.0692677
0.0687434
0.0682395
0.0677547
0.0672878
0.0668379
0.0664038
0.0659848
0.0655799
0.0651885
0.0648097
0.064443
0.0640878
0.0637435
0.0634095
0.0630853
0.0627706
0.0624649
0.0621677
0.0618788
0.0615976
0.061324
0.0610576
0.0607981
0.0605452
0.0602987
0.0600583
0.0598237
0.0595948
0.0593713
0.059153
0.0589398
0.0587315
0.0585278
0.0583287
0.0581339
0.0579434
0.0577569
0.0575744
0.0573957
0.0572206
0.0570492
0.0568811
0.0567165
0.0565551
0.0563968
0.0562416
0.0560893
0.05594
0.0557934
0.0556495
0.0555083
0.0553696
0.0552334
0.0550996
0.0549682
0.054839
0.0547121
0.0545874
0.0544648
0.0543442
0.0542256
0.054109
0.0539943
0.0538815
0.0537705
0.0536612
0.0535537
0.0534479
0.0533437
0.0532411
0.0531401
0.0530406
0.0529426
0.0528461
0.052751
0.0526573
0.052565
0.052474
0.0523844
0.052296
0.0522089
0.052123
0.0520383
0.0519549
0.0518725
0.0517913
0.0517112
0.0516322
0.0515543
0.0514774
0.0514015
0.0513266
0.0512528
0.0511799
0.0511079
0.0510369
0.0509668
0.0508976
0.0508293
0.0507618
0.0506952
0.0506295
0.0505645
0.0505004
0.050437
0.0503745
0.0503127
0.0502517
0.0501914
0.0501318
0.0500729
0.0500148
0.0499574
0.0499006
0.0498445
0.0497891
0.0497343
0.0496801
0.0496266
0.0495737
0.0495215
0.0494698
0.0494187
0.0493682
0.0493183
0.0492689
0.0492201
0.0491719
0.0491242
0.049077
0.0490304
0.0489843
0.0489387
0.0488936
0.048849
0.0488048
0.0487612
0.0487181
0.0486754
0.0486332
0.0485914
0.0485501
0.0485092
0.0484688
0.0484288
0.0483893
0.0483502
0.0483114
0.0482731
0.0482352
0.0481977
0.0481607
0.0481239
0.0480876
0.0480517
0.0480161
0.0479809
0.0479461
0.0479117
0.0478776
0.0478438
0.0478104
0.0477774
0.0477447
0.0477123
0.0476803
0.0476486
0.0476172
0.0475861
0.0475554
0.047525
0.0474949
0.047465
0.0474355
0.0474063
0.0473774
0.0473488
0.0473205
0.0472924
0.0472647
0.0472372
0.04721
0.0471831
0.0471564
0.04713
0.0471039
0.047078
0.0470524
0.0470271
0.047002
0.0469771
0.0469525
0.0469282
0.0469041
0.0468802
0.0468565
0.0468331
0.04681
0.046787
0.0467643
0.0467418
0.0467196
0.0466975
0.0466757
0.0466541
0.0466327
0.0466116
0.0465906
0.0465698
0.0465493
0.046529
0.0465089
0.046489
0.0464693
0.0464498
0.0464305
0.0464114
0.0463925
0.0463738
0.0463553
0.046337
0.0463189
0.046301
0.0462833
0.0462659
0.0462486
0.0462315
0.0462146
0.0461979
0.0461814
0.0461651
0.046149
0.0461331
0.0461174
0.0461019
0.0460866
0.0460715
0.0460566
0.0460419
0.0460273
0.046013
0.0459989
0.045985
0.0459713
0.0459577
0.0459444
0.0459313
0.0459183
0.0459056
0.045893
0.0458807
0.0458685
0.0458566
0.0458448
0.0458332
0.0458218
0.0458106
0.0457996
0.0457888
0.0457782
0.0457677
0.0457574
0.0457474
0.0457375
0.0457278
0.0457182
0.0457089
0.0456997
0.0456907
0.0456819
0.0456733
0.0456648
0.0456565
0.0456484
0.0456404
0.0456326
0.045625
0.0456175
0.0456102
0.045603
0.0455961
0.0455892
0.0455825
0.045576
0.0455696
0.0455634
0.0455573
0.0455514
0.0455456
0.0455399
0.0455344
0.045529
0.0455237
0.0455186
0.0455136
0.0455088