# vtk DataFile Version 2.0
FlowField
ASCII
DATASET STRUCTURED_GRID
DIMENSIONS 800 1 200
POINTS 160000 float
0 0 0
0.04 0 0
0.08 0 0
0.12 0 0
0.16 0 0
0.2 0 0
0.24 0 0
0.28 0 0
0.32 0 0
0.36 0 0
0.4 0 0
0.44 0 0
0.48 0 0
0.52 0 0
0.56 0 0
0.6 0 0
0.64 0 0
0.68 0 0
0.72 0 0
0.76 0 0
0.8 0 0
0.84 0 0
0.88 0 0
0.92 0 0
0.96 0 0
1 0 0
1.04 0 0
1.08 0 0
1.12 0 0
1.16 0 0
1.2 0 0
1.24 0 0
1.28 0 0
1.32 0 0
1.36 0 0
1.4 0 0
1.44 0 0
1.48 0 0
1.52 0 0
1.56 0 0
1.6 0 0
1.64 0 0
1.68 0 0
1.72 0 0
1.76 0 0
1.8 0 0
1.84 0 0
1.88 0 0
1.92 0 0
1.96 0 0
2 0 0
2.04 0 0
2.08 0 0
2.12 0 0
2.16 0 0
2.2 0 0
2.24 0 0
2.28 0 0
2.32 0 0
2.36 0 0
2.4 0 0
2.44 0 0
2.48 0 0
2.52 0 0
2.56 0 0
2.6 0 0
2.64 0 0
2.68 0 0
2.72 0 0
2.76 0 0
2.8 0 0
2.84 0 0
2.88 0 0
2.92 0 0
2.96 0 0
3 0 0
3.04 0 0
3.08 0 0
3.12 0 0
3.16 0 0
3.2 0 0
3.24 0 0
3.28 0 0
3.32 0 0
3.36 0 0
3.4 0 0
3.44 0 0
3.48 0 0
3.52 0 0
3.56 0 0
3.6 0 0
3.64 0 0
3.68 0 0
3.72 0 0
3.76 0 0
3.8 0 0
3.84 0 0
3.88 0 0
3.92 0 0
3.96 0 0
4 0 0
4.04 0 0
4.08 0 0
4.12 0 0
4.16 0 0
4.2 0 0
4.24 0 0
4.28 0 0
4.32 0 0
4.36 0 0
4.4 0 0
4.44 0 0
4.48 0 0
4.52 0 0
4.56 0 0
4.6 0 0
4.64 0 0
4.68 0 0
4.72 0 0
4.76 0 0
4.8 0 0
4.84 0 0
4.88 0 0
4.92 0 0
4.96 0 0
5 0 0
5.04 0 0
5.08 0 0
5.12 0 0
5.16 0 0
5.2 0 0
5.24 0 0
5.28 0 0
5.32 0 0
5.36 0 0
5.4 0 0
5.44 0 0
5.48 0 0
5.52 0 0
5.56 0 0
5.6 0 0
5.64 0 0
5.68 0 0
5.72 0 0
5.76 0 0
5.8 0 0
5.84 0 0
5.88 0 0
5.92 0 0
5.96 0 0
6 0 0
6.04 0 0
6.08 0 0
6.12 0 0
6.16 0 0
6.2 0 0
6.24 0 0
6.28 0 0
6.32 0 0
6.36 0 0
6.4 0 0
6.44 0 0
6.48 0 0
6.52 0 0
6.56 0 0
6.6 0 0
6.64 0 0
6.68 0 0
6.72 0 0
6.76 0 0
6.8 0 0
6.84 0 0
6.88 0 0
6.92 0 0
6.96 0 0
7 0 0
7.04 0 0
7.08 0 0
7.12 0 0
7.16 0 0
7.2 0 0
7.24 0 0
7.28 0 0
7.32 0 0
7.36 0 0
7.4 0 0
7.44 0 0
7.48 0 0
7.52 0 0
7.56 0 0
7.6 0 0
7.64 0 0
7.68 0 0
7.72 0 0
7.76 0 0
7.8 0 0
7.84 0 0
7.88 0 0
7.92 0 0
7.96 0 0
8 0 0
8.04 0 0
8.08 0 0
8.12 0 0
8.16 0 0
8.2 0 0
8.24 0 0
8.28 0 0
8.32 0 0
8.36 0 0
8.4 0 0
8.44 0 0
8.48 0 0
8.52 0 0
8.56 0 0
8.6 0 0
8.64 0 0
8.68 0 0
8.72 0 0
8.76 0 0
8.8 0 0
8.84 0 0
8.88 0 0
8.92 0 0
8.96 0 0
9 0 0
9.04 0 0
9.08 0 0
9.12 0 0
9.16 0 0
9.2 0 0
9.24 0 0
9.28 0 0
9.32 0 0
9.36 0 0
9.4 0 0
9.44 0 0
9.48 0 0
9.52 0 0
9.56 0 0
9.6 0 0
9.64 0 0
9.68 0 0
9.72 0 0
9.76 0 0
9.8 0 0
9.84 0 0
9.88 0 0
9.92 0 0
9.96 0 0
10 0 0
10.04 0 0
10.08 0 0
10.12 0 0
10.16 0 0
10.2 0 0
10.24 0 0
10.28 0 0
10.32 0 0
10.36 0 0
10.4 0 0
10.44 0 0
10.48 0 0
10.52 0 0
10.56 0 0
10.6 0 0
10.64 0 0
10.68 0 0
10.72 0 0
10.76 0 0
10.8 0 0
10.84 0 0
10.88 0 0
10.92 0 0
10.96 0 0
11 0 0
11.04 0 0
11.08 0 0
11.12 0 0
11.16 0 0
11.2 0 0
11.24 0 0
11.28 0 0
11.32 0 0
11.36 0 0
11.4 0 0
11.44 0 0
11.48 0 0
11.52 0 0
11.56 0 0
11.6 0 0
11.64 0 0
11.68 0 0
11.72 0 0
11.76 0 0
11.8 0 0
11.84 0 0
11.88 0 0
11.92 0 0
11.96 0 0
12 0 0
12.04 0 0
12.08 0 0
12.12 0 0
12.16 0 0
12.2 0 0
12.24 0 0
12.28 0 0
12.32 0 0
12.36 0 0
12.4 0 0
12.44 0 0
12.48 0 0
12.52 0 0
12.56 0 0
12.6 0 0
12.64 0 0
12.68 0 0
12.72 0 0
12.76 0 0
12.8 0 0
12.84 0 0
12.88 0 0
12.92 0 0
12.96 0 0
13 0 0
13.04 0 0
13.08 0 0
13.12 0 0
13.16 0 0
13.2 0 0
13.24 0 0
13.28 0 0
13.32 0 0
13.36 0 0
13.4 0 0
13.44 0 0
13.48 0 0
13.52 0 0
13.56 0 0
13.6 0 0
13.64 0 0
13.68 0 0
13.72 0 0
13.76 0 0
13.8 0 0
13.84 0 0
13.88 0 0
13.92 0 0
13.96 0 0
14 0 0
14.04 0 0
14.08 0 0
14.12 0 0
14.16 0 0
14.2 0 0
14.24 0 0
14.28 0 0
14.32 0 0
14.36 0 0
14.4 0 0
14.44 0 0
14.48 0 0
14.52 0 0
14.56 0 0
14.6 0 0
14.64 0 0
14.68 0 0
14.72 0 0
14.76 0 0
14.8 0 0
14.84 0 0
14.88 0 0
14.92 0 0
14.96 0 0
15 0 0
15.04 0 0
15.08 0 0
15.12 0 0
15.16 0 0
15.2 0 0
15.24 0 0
15.28 0 0
15.32 0 0
15.36 0 0
15.4 0 0
15.44 0 0
15.48 0 0
15.52 0 0
15.56 0 0
15.6 0 0
15.64 0 0
15.68 0 0
15.72 0 0
15.76 0 0
15.8 0 0
15.84 0 0
15.88 0 0
15.92 0 0
15.96 0 0
16 0 0
16.04 0 0
16.08 0 0
16.12 0 0
16.16 0 0
16.2 0 0
16.24 0 0
16.28 0 0
16.32 0 0
16.36 0 0
16.4 0 0
16.44 0 0
16.48 0 0
16.52 0 0
16.56 0 0
16.6 0 0
16.64 0 0
16.68 0 0
16.72 0 0
16.76 0 0
16.8 0 0
16.84 0 0
16.88 0 0
16.92 0 0
16.96 0 0
17 0 0
17.04 0 0
17.08 0 0
17.12 0 0
17.16 0 0
17.2 0 0
17.24 0 0
17.28 0 0
17.32 0 0
17.36 0 0
17.4 0 0
17.44 0 0
17.48 0 0
17.52 0 0
17.56 0 0
17.6 0 0
17.64 0 0
17.68 0 0
17.72 0 0
17.76 0 0
17.8 0 0
17.84 0 0
17.88 0 0
17.92 0 0
17.96 0 0
18 0 0
18.04 0 0
18.08 0 0
18.12 0 0
18.16 0 0
18.2 0 0
18.24 0 0
18.28 0 0
18.32 0 0
18.36 0 0
18.4 0 0
18.44 0 0
18.48 0 0
18.52 0 0
18.56 0 0
18.6 0 0
18.64 0 0
18.68 0 0
18.72 0 0
18.76 0 0
18.8 0 0
18.84 0 0
18.88 0 0
18.92 0 0
18.96 0 0
19 0 0
19.04 0 0
19.08 0 0
19.12 0 0
19.16 0 0
19.2 0 0
19.24 0 0
19.28 0 0
19.32 0 0
19.36 0 0
19.4 0 0
19.44 0 0
19.48 0 0
19.52 0 0
19.56 0 0
19.6 0 0
19.64 0 0
19.68 0 0
19.72 0 0
19.76 0 0
19.8 0 0
19.84 0 0
19.88 0 0
19.92 0 0
19.96 0 0
20 0 0
20.04 0 0
20.08 0 0
20.12 0 0
20.16 0 0
20.2 0 0
20.24 0 0
20.28 0 0
20.32 0 0
20.36 0 0
20.4 0 0
20.44 0 0
20.48 0 0
20.52 0 0
20.56 0 0
20.6 0 0
20.64 0 0
20.68 0 0
20.72 0 0
20.76 0 0
20.8 0 0
20.84 0 0
20.88 0 0
20.92 0 0
20.96 0 0
21 0 0
21.04 0 0
21.08 0 0
21.12 0 0
21.16 0 0
21.2 0 0
21.24 0 0
21.28 0 0
21.32 0 0
21.36 0 0
21.4 0 0
21.44 0 0
21.48 0 0
21.52 0 0
21.56 0 0
21.6 0 0
21.64 0 0
21.68 0 0
21.72 0 0
21.76 0 0
21.8 0 0
21.84 0 0
21.88 0 0
21.92 0 0
21.96 0 0
22 0 0
22.04 0 0
22.08 0 0
22.12 0 0
22.16 0 0
22.2 0 0
22.24 0 0
22.28 0 0
22.32 0 0
22.36 0 0
22.4 0 0
22.44 0 0
22.48 0 0
22.52 0 0
22.56 0 0
22.6 0 0
22.64 0 0
22.68 0 0
22.72 0 0
22.76 0 0
22.8 0 0
22.84 0 0
22.88 0 0
22.92 0 0
22.96 0 0
23 0 0
23.04 0 0
23.08 0 0
23.12 0 0
23.16 0 0
23.2 0 0
23.24 0 0
23.28 0 0
23.32 0 0
23.36 0 0
23.4 0 0
23.44 0 0
23.48 0 0
23.52 0 0
23.56 0 0
23.6 0 0
23.64 0 0
23.68 0 0
23.72 0 0
23.76 0 0
23.8 0 0
23.84 0 0
23.88 0 0
23.92 0 0
23.96 0 0
24 0 0
24.04 0 0
24.08 0 0
24.12 0 0
24.16 0 0
24.2 0 0
24.24 0 0
24.28 0 0
24.32 0 0
24.36 0 0
24.4 0 0
24.44 0 0
24.48 0 0
24.52 0 0
24.56 0 0
24.6 0 0
24.64 0 0
24.68 0 0
24.72 0 0
24.76 0 0
24.8 0 0
24.84 0 0
24.88 0 0
24.92 0 0
24.96 0 0
25 0 0
25.04 0 0
25.08 0 0
25.12 0 0
25.16 0 0
25.2 0 0
25.24 0 0
25.28 0 0
25.32 0 0
25.36 0 0
25.4 0 0
25.44 0 0
25.48 0 0
25.52 0 0
25.56 0 0
25.6 0 0
25.64 0 0
25.68 0 0
25.72 0 0
25.76 0 0
25.8 0 0
25.84 0 0
25.88 0 0
25.92 0 0
25.96 0 0
26 0 0
26.04 0 0
26.08 0 0
26.12 0 0
26.16 0 0
26.2 0 0
26.24 0 0
26.28 0 0
26.32 0 0
26.36 0 0
26.4 0 0
26.44 0 0
26.48 0 0
26.52 0 0
26.56 0 0
26.6 0 0
26.64 0 0
26.68 0 0
26.72 0 0
26.76 0 0
26.8 0 0
26.84 0 0
26.88 0 0
26.92 0 0
26.96 0 0
27 0 0
27.04 0 0
27.08 0 0
27.12 0 0
27.16 0 0
27.2 0 0
27.24 0 0
27.28 0 0
27.32 0 0
27.36 0 0
27.4 0 0
27.44 0 0
27.48 0 0
27.52 0 0
27.56 0 0
27.6 0 0
27.64 0 0
27.68 0 0
27.72 0 0
27.76 0 0
27.8 0 0
27.84 0 0
27.88 0 0
27.92 0 0
27.96 0 0
28 0 0
28.04 0 0
28.08 0 0
28.12 0 0
28.16 0 0
28.2 0 0
28.24 0 0
28.28 0 0
28.32 0 0
28.36 0 0
28.4 0 0
28.44 0 0
28.48 0 0
28.52 0 0
28.56 0 0
28.6 0 0
28.64 0 0
28.68 0 0
28.72 0 0
28.76 0 0
28.8 0 0
28.84 0 0
28.88 0 0
28.92 0 0
28.96 0 0
29 0 0
29.04 0 0
29.08 0 0
29.12 0 0
29.16 0 0
29.2 0 0
29.24 0 0
29.28 0 0
29.32 0 0
29.36 0 0
29.4 0 0
29.44 0 0
29.48 0 0
29.52 0 0
29.56 0 0
29.6 0 0
29.64 0 0
29.68 0 0
29.72 0 0
29.76 0 0
29.8 0 0
29.84 0 0
29.88 0 0
29.92 0 0
29.96 0 0
30 0 0
30.04 0 0
30.08 0 0
30.12 0 0
30.16 0 0
30.2 0 0
30.24 0 0
30.28 0 0
30.32 0 0
30.36 0 0
30.4 0 0
30.44 0 0
30.48 0 0
30.52 0 0
30.56 0 0
30.6 0 0
30.64 0 0
30.68 0 0
30.72 0 0
30.76 0 0
30.8 0 0
30.84 0 0
30.88 0 0
30.92 0 0
30.96 0 0
31 0 0
31.04 0 0
31.08 0 0
31.12 0 0
31.16 0 0
31.2 0 0
31.24 0 0
31.28 0 0
31.32 0 0
31.36 0 0
31.4 0 0
31.44 0 0
31.48 0 0
31.52 0 0
31.56 0 0
31.6 0 0
31.64 0 0
31.68 0 0
31.72 0 0
31.76 0 0
31.8 0 0
31.84 0 0
31.88 0 0
31.92 0 0
31.96 0 0
0 0.005 0
0.04 0.005 0
0.08 0.005 0
0.12 0.005 0
0.16 0.005 0
0.2 0.005 0
0.24 0.005 0
0.28 0.005 0
0.32 0.005 0
0.36 0.005 0
0.4 0.005 0
0.44 0.005 0
0.48 0.005 0
0.52 0.005 0
0.56 0.005 0
0.6 0.005 0
0.64 0.005 0
0.68 0.005 0
0.72 0.005 0
0.76 0.005 0
0.8 0.005 0
0.84 0.005 0
0.88 0.005 0
0.92 0.005 0
0.96 0.005 0
1 0.005 0
1.04 0.005 0
1.08 0.005 0
1.12 0.005 0
1.16 0.005 0
1.2 0.005 0
1.24 0.005 0
1.28 0.005 0
1.32 0.005 0
1.36 0.005 0
1.4 0.005 0
1.44 0.005 0
1.48 0.005 0
1.52 0.005 0
1.56 0.005 0
1.6 0.005 0
1.64 0.005 0
1.68 0.005 0
1.72 0.005 0
1.76 0.005 0
1.8 0.005 0
1.84 0.005 0
1.88 0.005 0
1.92 0.005 0
1.96 0.005 0
2 0.005 0
2.04 0.005 0
2.08 0.005 0
2.12 0.005 0
2.16 0.005 0
2.2 0.005 0
2.24 0.005 0
2.28 0.005 0
2.32 0.005 0
2.36 0.005 0
2.4 0.005 0
2.44 0.005 0
2.48 0.005 0
2.52 0.005 0
2.56 0.005 0
2.6 0.005 0
2.64 0.005 0
2.68 0.005 0
2.72 0.005 0
2.76 0.005 0
2.8 0.005 0
2.84 0.005 0
2.88 0.005 0
2.92 0.005 0
2.96 0.005 0
3 0.005 0
3.04 0.005 0
3.08 0.005 0
3.12 0.005 0
3.16 0.005 0
3.2 0.005 0
3.24 0.005 0
3.28 0.005 0
3.32 0.005 0
3.36 0.005 0
3.4 0.005 0
3.44 0.005 0
3.48 0.005 0
3.52 0.005 0
3.56 0.005 0
3.6 0.005 0
3.64 0.005 0
3.68 0.005 0
3.72 0.005 0
3.76 0.005 0
3.8 0.005 0
3.84 0.005 0
3.88 0.005 0
3.92 0.005 0
3.96 0.005 0
4 0.005 0
4.04 0.005 0
4.08 0.005 0
4.12 0.005 0
4.16 0.005 0
4.2 0.005 0
4.24 0.005 0
4.28 0.005 0
4.32 0.005 0
4.36 0.005 0
4.4 0.005 0
4.44 0.005 0
4.48 0.005 0
4.52 0.005 0
4.56 0.005 0
4.6 0.005 0
4.64 0.005 0
4.68 0.005 0
4.72 0.005 0
4.76 0.005 0
4.8 0.005 0
4.84 0.005 0
4.88 0.005 0
4.92 0.005 0
4.96 0.005 0
5 0.005 0
5.04 0.005 0
5.08 0.005 0
5.12 0.005 0
5.16 0.005 0
5.2 0.005 0
5.24 0.005 0
5.28 0.005 0
5.32 0.005 0
5.36 0.005 0
5.4 0.005 0
5.44 0.005 0
5.48 0.005 0
5.52 0.005 0
5.56 0.005 0
5.6 0.005 0
5.64 0.005 0
5.68 0.005 0
5.72 0.005 0
5.76 0.005 0
5.8 0.005 0
5.84 0.005 0
5.88 0.005 0
5.92 0.005 0
5.96 0.005 0
6 0.005 0
6.04 0.005 0
6.08 0.005 0
6.12 0.005 0
6.16 0.005 0
6.2 0.005 0
6.24 0.005 0
6.28 0.005 0
6.32 0.005 0
6.36 0.005 0
6.4 0.005 0
6.44 0.005 0
6.48 0.005 0
6.52 0.005 0
6.56 0.005 0
6.6 0.005 0
6.64 0.005 0
6.68 0.005 0
6.72 0.005 0
6.76 0.005 0
6.8 0.005 0
6.84 0.005 0
6.88 0.005 0
6.92 0.005 0
6.96 0.005 0
7 0.005 0
7.04 0.005 0
7.08 0.005 0
7.12 0.005 0
7.16 0.005 0
7.2 0.005 0
7.24 0.005 0
7.28 0.005 0
7.32 0.005 0
7.36 0.005 0
7.4 0.005 0
[...]
POINT_DATA 160000

SCALARS u float 1
LOOKUP_TABLE default
-1
-0.483358
-0.183963
-0.108845
-0.0810331
-0.0668338
-0.0581182
-0.0521528
-0.0477775
-0.0444147
-0.0417414
-0.0395616
-0.0377484
-0.0362154
-0.0349017
-0.0337626
-0.0327649
-0.0318832
-0.0310976
-0.0303925
-0.0297555
-0.0291766
-0.0286474
-0.0281613
-0.0277127
-0.027297
-0.0269102
-0.026549
-0.0262106
-0.0258927
-0.0255932
-0.0253102
-0.0250424
-0.0247883
-0.0245467
-0.0243167
-0.0240973
-0.0238877
-0.0236872
-0.0234951
-0.0233109
-0.023134
-0.022964
-0.0228004
-0.0226428
-0.022491
-0.0223444
-0.022203
-0.0220662
-0.0219341
-0.0218062
-0.0216823
-0.0215623
-0.021446
-0.0213332
-0.0212237
-0.0211173
-0.021014
-0.0209136
-0.020816
-0.020721
-0.0206285
-0.0205384
-0.0204507
-0.0203652
-0.0202819
-0.0202006
-0.0201213
-0.0200439
-0.0199684
-0.0198946
-0.0198225
-0.0197521
-0.0196832
-0.0196159
-0.01955
-0.0194856
-0.0194225
-0.0193608
-0.0193003
-0.0192411
-0.0191831
-0.0191263
-0.0190706
-0.019016
-0.0189625
-0.01891
-0.0188585
-0.018808
-0.0187584
-0.0187097
-0.0186619
-0.018615
-0.0185689
-0.0185237
-0.0184792
-0.0184355
-0.0183926
-0.0183504
-0.0183089
-0.0182681
-0.018228
-0.0181885
-0.0181497
-0.0181115
-0.0180739
-0.018037
-0.0180006
-0.0179648
-0.0179295
-0.0178948
-0.0178606
-0.0178269
-0.0177937
-0.0177611
-0.0177289
-0.0176972
-0.0176659
-0.0176352
-0.0176048
-0.0175749
-0.0175454
-0.0175163
-0.0174877
-0.0174594
-0.0174315
-0.017404
-0.0173769
-0.0173502
-0.0173238
-0.0172977
-0.0172721
-0.0172467
-0.0172217
-0.017197
-0.0171726
-0.0171486
-0.0171249
-0.0171014
-0.0170783
-0.0170555
-0.0170329
-0.0170106
-0.0169886
-0.0169669
-0.0169455
-0.0169243
-0.0169034
-0.0168827
-0.0168623
-0.0168421
-0.0168222
-0.0168025
-0.016783
-0.0167638
-0.0167448
-0.016726
-0.0167075
-0.0166891
-0.016671
-0.0166531
-0.0166354
-0.0166179
-0.0166006
-0.0165835
-0.0165665
-0.0165498
-0.0165333
-0.016517
-0.0165008
-0.0164848
-0.016469
-0.0164534
-0.0164379
-0.0164227
-0.0164075
-0.0163926
-0.0163778
-0.0163632
-0.0163487
-0.0163344
-0.0163203
-0.0163063
-0.0162925
-0.0162788
-0.0162652
-0.0162518
-0.0162385
-0.0162254
-0.0162125
-0.0161996
-0.0161869
-0.0161743
-0.0161619
-0.0161496
-0.0161374
-0.0161254
-0.0161134
-0.0161016
-0.01609
-0.0160784
-0.016067
-0.0160557
-0.0160445
-0.0160334
-0.0160224
-0.0160116
-0.0160008
-0.0159902
-0.0159797
-0.0159692
-0.0159589
-0.0159487
-0.0159386
-0.0159286
-0.0159187
-0.0159089
-0.0158992
-0.0158896
-0.0158801
-0.0158707
-0.0158614
-0.0158522
-0.0158431
-0.015834
-0.0158251
-0.0158162
-0.0158075
-0.0157988
-0.0157902
-0.0157817
-0.0157733
-0.0157649
-0.0157567
-0.0157485
-0.0157404
-0.0157324
-0.0157245
-0.0157166
-0.0157088
-0.0157011
-0.0156935
-0.015686
-0.0156785
-0.0156711
-0.0156638
-0.0156565
-0.0156493
-0.0156422
-0.0156352
-0.0156282
-0.0156213
-0.0156144
-0.0156077
-0.015601
-0.0155943
-0.0155877
-0.0155812
-0.0155748
-0.0155684
-0.015562
-0.0155558
-0.0155496
-0.0155434
-0.0155373
-0.0155313
-0.0155253
-0.0155194
-0.0155136
-0.0155078
-0.015502
-0.0154964
-0.0154907
-0.0154851
-0.0154796
-0.0154741
-0.0154687
-0.0154634
-0.015458
-0.0154528
-0.0154476
-0.0154424
-0.0154373
-0.0154322
-0.0154272
-0.0154222
-0.0154173
-0.0154124
-0.0154076
-0.0154028
-0.0153981
-0.0153934
-0.0153887
-0.0153841
-0.0153795
-0.015375
-0.0153705
-0.0153661
-0.0153617
-0.0153574
-0.015353
-0.0153488
-0.0153445
-0.0153403
-0.0153362
-0.0153321
-0.015328
-0.015324
-0.01532
-0.015316
-0.0153121
-0.0153082
-0.0153043
-0.0153005
-0.0152967
-0.015293
-0.0152893
-0.0152856
-0.015282
-0.0152784
-0.0152748
-0.0152712
-0.0152677
-0.0152642
-0.0152608
-0.0152574
-0.015254
-0.0152507
-0.0152473
-0.015244
-0.0152408
-0.0152375
-0.0152343
-0.0152312
-0.015228
-0.0152249
-0.0152218
-0.0152188
-0.0152157
-0.0152127
-0.0152098
-0.0152068
-0.0152039
-0.015201
-0.0151981
-0.0151953
-0.0151925
-0.0151897
-0.0151869
-0.0151842
-0.0151815
-0.0151788
-0.0151761
-0.0151735
-0.0151708
-0.0151682
-0.0151657
-0.0151631
-0.0151606
-0.0151581
-0.0151556
-0.0151531
-0.0151507
-0.0151483
-0.0151459
-0.0151435
-0.0151411
-0.0151388
-0.0151365
-0.0151342
-0.0151319
-0.0151297
-0.0151274
-0.0151252
-0.015123
-0.0151208
-0.0151187
-0.0151165
-0.0151144
-0.0151123
-0.0151102
-0.0151082
-0.0151061
-0.0151041
-0.0151021
-0.0151001
-0.0150981
-0.0150961
-0.0150942
-0.0150923
-0.0150904
-0.0150885
-0.0150866
-0.0150847
-0.0150829
-0.015081
-0.0150792
-0.0150774
-0.0150756
-0.0150739
-0.0150721
-0.0150704
-0.0150686
-0.0150669
-0.0150652
-0.0150635
-0.0150619
-0.0150602
-0.0150586
-0.0150569
-0.0150553
-0.0150537
-0.0150521
-0.0150505
-0.015049
-0.0150474
-0.0150459
-0.0150444
-0.0150428
-0.0150413
-0.0150399
-0.0150384
-0.0150369
-0.0150355
-0.015034
-0.0150326
-0.0150312
-0.0150298
-0.0150284
-0.015027
-0.0150256
-0.0150242
-0.0150229
-0.0150215
-0.0150202
-0.0150189
-0.0150176
-0.0150163
-0.015015
-0.0150137
-0.0150124
-0.0150111
-0.0150099
-0.0150087
-0.0150074
-0.0150062
-0.015005
-0.0150038
-0.0150026
-0.0150014
-0.0150002
-0.014999
-0.0149979
-0.0149967
-0.0149956
-0.0149944
-0.0149933
-0.0149922
-0.0149911
-0.01499
-0.0149889
-0.0149878
-0.0149867
-0.0149857
-0.0149846
-0.0149835
-0.0149825
-0.0149815
-0.0149804
-0.0149794
-0.0149784
-0.0149774
-0.0149764
-0.0149754
-0.0149744
-0.0149734
-0.0149724
-0.0149714
-0.0149705
-0.0149695
-0.0149686
-0.0149676
-0.0149667
-0.0149658
-0.0149648
-0.0149639
-0.014963
-0.0149621
-0.0149612
-0.0149603
-0.0149594
-0.0149585
-0.0149577
-0.0149568
-0.0149559
-0.0149551
-0.0149542
-0.0149534
-0.0149525
-0.0149517
-0.0149509
-0.01495
-0.0149492
-0.0149484
-0.0149476
-0.0149468
-0.014946
-0.0149452
-0.0149444
-0.0149436
-0.0149428
-0.0149421
-0.0149413
-0.0149405
-0.0149398
-0.014939
-0.0149382
-0.0149375
-0.0149368
-0.014936
-0.0149353
-0.0149345
-0.0149338
-0.0149331
-0.0149324
-0.0149317
-0.014931
-0.0149303
-0.0149296
-0.0149289
-0.0149282
-0.0149275
-0.0149268
-0.0149261
-0.0149254
-0.0149248
-0.0149241
-0.0149234
-0.0149228
-0.0149221
-0.0149214
-0.0149208
-0.0149201
-0.0149195
-0.0149189
-0.0149182
-0.0149176
-0.014917
-0.0149163
-0.0149157
-0.0149151
-0.0149145
-0.0149139
-0.0149133
-0.0149126
-0.014912
-0.0149114
-0.0149108
-0.0149103
-0.0149097
-0.0149091
-0.0149085
-0.0149079
-0.0149073
-0.0149068
-0.0149062
-0.0149056
-0.0149051
-0.0149045
-0.0149039
-0.0149034
-0.0149028
-0.0149023
-0.0149017
-0.0149012
-0.0149007
-0.0149001
-0.0148996
-0.0148991
-0.0148985
-0.014898
-0.0148975
-0.014897
-0.0148965
-0.0148959
-0.0148954
-0.0148949
-0.0148944
-0.0148939
-0.0148934
-0.0148929
-0.0148924
-0.0148919
-0.0148915
-0.014891
-0.0148905
-0.01489
-0.0148895
-0.0148891
-0.0148886
-0.0148881
-0.0148877
-0.0148872
-0.0148867
-0.0148863
-0.0148858
-0.0148854
-0.0148849
-0.0148845
-0.014884
-0.0148836
-0.0148831
-0.0148827
-0.0148823
-0.0148818
-0.0148814
-0.014881
-0.0148806
-0.0148801
-0.0148797
-0.0148793
-0.0148789
-0.0148785
-0.014878
-0.0148776
-0.0148772
-0.0148768
-0.0148764
-0.014876
-0.0148756
-0.0148752
-0.0148748
-0.0148744
-0.014874
-0.0148737
-0.0148733
-0.0148729
-0.0148725
-0.0148721
-0.0148717
-0.0148714
-0.014871
-0.0148706
-0.0148702
-0.0148699
-0.0148695
-0.0148691
-0.0148688
-0.0148684
-0.014868
-0.0148677
-0.0148673
-0.014867
-0.0148666
-0.0148662
-0.0148659
-0.0148655
-0.0148652
-0.0148648
-0.0148645
-0.0148641
-0.0148638
-0.0148634
-0.0148631
-0.0148628
-0.0148624
-0.0148621
-0.0148617
-0.0148614
-0.0148611
-0.0148607
-0.0148604
-0.0148601
-0.0148597
-0.0148594
-0.0148591
-0.0148587
-0.0148584
-0.0148581
-0.0148577
-0.0148574
-0.0148571
-0.0148568
-0.0148564
-0.0148561
-0.0148558
-0.0148555
-0.0148551
-0.0148548
-0.0148545
-0.0148542
-0.0148538
-0.0148535
-0.0148532
-0.0148529
-0.0148526
-0.0148522
-0.0148519
-0.0148516
-0.0148513
-0.014851
-0.0148506
-0.0148503
-0.01485
-0.0148497
-0.0148494
-0.0148491
-0.0148487
-0.0148484
-0.0148481
-0.0148478
-0.0148475
-0.0148472
-0.0148469
-0.0148465
-0.0148462
-0.0148459
-0.0148456
-0.0148453
-0.014845
-0.0148447
-0.0148444
-0.014844
-0.0148437
-0.0148434
-0.0148431
-0.0148428
-0.0148425
-0.0148422
-0.0148419
-0.0148415
-0.0148412
-0.0148409
-0.0148406
-0.0148403
-0.01484
-0.0148397
-0.0148394
-0.0148391
-0.0148387
-0.0148384
-0.0148381
-0.0148378
-0.0148375
-0.0148372
-0.0148369
-0.0148366
-0.0148363
-0.0148359
-0.0148356
-0.0148353
-0.014835
-0.0148347
-0.0148344
-0.0148341
-0.0148338
-0.0148335
-0.0148331
-0.0148328
-0.0148325
-0.0148322
-0.0148319
-0.0148316
-0.0148313
-0.014831
-0.0148307
-0.0148303
-0.01483
-0.0148297
-0.0148294
-0.0148291
-0.0148288
-0.0148285
-0.0148282
-0.0148279
-0.0148275
-0.0148272
-0.0148269
-0.0148266
-0.0148263
-0.014826
-0.0148256
-0.0148253
-0.014825
-0.0148246
-0.0148243
-0.0148239
-0.0148236
-0.0148232
-0.0148228
-0.0148224
-0.0148219
-0.0148214
-0.0148209
-0.0148203
-0.0148196
-0.0148186
-0.0148182
-0.0148182
-0.0148182
1
0.483358
0.183963
0.108845
0.0810331
0.0668338
0.0581182
0.0521528
0.0477775
0.0444147
0.0417414
0.0395616
0.0377484
0.0362154
0.0349017
0.0337626
0.0327649
0.0318832
0.0310976
0.0303925
0.0297555
0.0291766
0.0286474
0.0281613
0.0277127
0.027297
0.0269102
0.026549
0.0262106
0.0258927
0.0255932
0.0253102
0.0250424
0.0247883
0.0245467
0.0243167
0.0240973
0.0238877
0.0236872
0.0234951
0.0233109
0.023134
0.022964
0.0228004
0.0226428
0.022491
0.0223444
0.022203
0.0220662
0.0219341
0.0218062
0.0216823
0.0215623
0.021446
0.0213332
0.0212237
0.0211173
0.021014
0.0209136
0.020816
0.020721
0.0206285
0.0205384
0.0204507
0.0203652
0.0202819
0.0202006
0.0201213
0.0200439
0.0199684
0.0198946
0.0198225
0.0197521
0.0196832
0.0196159
0.01955
0.0194856
0.0194225
0.0193608
0.0193003
0.0192411
0.0191831
0.0191263
0.0190706
0.019016
0.0189625
0.01891
0.0188585
0.018808
0.0187584
0.0187097
0.0186619
0.018615
0.0185689
0.0185237
0.0184792
0.0184355
0.0183926
0.0183504
0.0183089
0.0182681
0.018228
0.0181885
0.0181497
0.0181115
0.0180739
0.018037
0.0180006
0.0179648
0.0179295
0.0178948
0.0178606
0.0178269
0.0177937
0.0177611
0.0177289
0.0176972
0.0176659
0.0176352
0.0176048
0.0175749
0.0175454
0.0175163
0.0174877
0.0174594
0.0174315
0.017404
0.0173769
0.0173502
0.0173238
0.0172977
0.0172721
0.0172467
0.0172217
0.017197
0.0171726
0.0171486
0.0171249
0.0171014
0.0170783
0.0170555
0.0170329
0.0170106
0.0169886
0.0169669
0.0169455
0.0169243
0.0169034
0.0168827
0.0168623
0.0168421
0.0168222
0.0168025
0.016783
0.0167638
0.0167448
0.016726
0.0167075
0.0166891
0.016671
0.0166531
0.0166354
0.0166179
0.0166006
0.0165835
0.0165665
0.0165498
0.0165333
0.016517
0.0165008
0.0164848
0.016469
0.0164534
0.0164379
0.0164227
0.0164075
0.0163926
0.0163778
0.0163632
0.0163487
0.0163344
0.0163203
0.0163063
0.0162925
0.0162788
0.0162652
0.0162518
0.0162385
0.0162254
0.0162125
0.0161996
0.0161869
0.0161743
0.0161619
0.0161496
0.0161374
0.0161254
0.0161134
0.0161016
0.01609
0.0160784
0.016067
0.0160557
0.0160445
0.0160334
0.0160224
0.0160116
0.0160008
0.0159902
0.0159797
0.0159692
0.0159589
0.0159487
0.0159386
0.0159286
0.0159187
0.0159089
0.0158992
0.0158896
0.0158801
0.0158707
0.0158614
0.0158522
0.0158431
0.015834
0.0158251
0.0158162
0.0158075
0.0157988
0.0157902
0.0157817
0.0157733
0.0157649
0.0157567
0.0157485
0.0157404
0.0157324
0.0157245
0.0157166
0.0157088
0.0157011
0.0156935
0.015686
0.0156785
0.0156711
0.0156638
0.0156565
0.0156493
0.0156422
0.0156352
0.0156282
0.0156213
0.0156144
0.0156077
0.015601
0.0155943
0.0155877
0.0155812
0.0155748
0.0155684
0.015562
0.0155558
0.0155496
0.0155434
0.0155373
0.0155313
0.0155253
0.0155194
0.0155136
0.0155078
0.015502
0.0154964
0.0154907
0.0154851
0.0154796
0.0154741
0.0154687
0.0154634
0.015458
0.0154528
0.0154476
0.0154424
0.0154373
0.0154322
0.0154272
0.0154222
0.0154173
0.0154124
0.0154076
0.0154028
0.0153981
0.0153934
0.0153887
0.0153841
0.0153795
0.015375
0.0153705
0.0153661
0.0153617
0.0153574
0.015353
0.0153488
0.0153445
0.0153403
0.0153362
0.0153321
0.015328
0.015324
0.01532
0.015316
0.0153121
0.0153082
0.0153043
0.0153005
0.0152967
0.015293
0.0152893
0.0152856
0.015282
0.0152784
0.0152748
0.0152712
0.0152677
0.0152642
0.0152608
0.0152574
0.015254
0.0152507
0.0152473
0.015244
0.0152408
0.0152375
0.0152343
0.0152312
0.015228
0.0152249
0.0152218
0.0152188
0.0152157
0.0152127
0.0152098
0.0152068
0.0152039
0.015201
0.0151981
0.0151953
0.0151925
0.0151897
0.0151869
0.0151842
0.0151815
0.0151788
0.0151761
0.0151735
0.0151708
0.0151682
0.0151657
0.0151631
0.0151606
0.0151581
0.0151556
0.0151531
0.0151507
0.0151483
0.0151459
0.0151435
0.0151411
0.0151388
0.0151365
0.0151342
0.0151319
0.0151297
0.0151274
0.0151252
0.015123
0.0151208
0.0151187
0.0151165
0.0151144
0.0151123
0.0151102
0.0151082
0.0151061
0.0151041
0.0151021
0.0151001
0.0150981
0.0150961
0.0150942
0.0150923
0.0150904
0.0150885
0.0150866
0.0150847
0.0150829
0.015081
0.0150792
0.0150774
0.0150756
0.0150739
0.0150721
0.0150704
0.0150686
0.0150669
0.0150652
0.0150635
0.0150619
0.0150602
0.0150586
0.0150569
0.0150553
0.0150537
0.0150521
0.0150505
0.015049
0.0150474
0.0150459
0.0150444
0.0150428
0.0150413
0.0150399
0.0150384
0.0150369
0.0150355
0.015034
0.0150326
0.0150312
0.0150298
0.0150284
0.015027
0.0150256
0.0150242
0.0150229
0.0150215
0.0150202
0.0150189
0.0150176
0.0150163
0.015015
0.0150137
0.0150124
0.0150111
0.0150099
0.0150087
0.0150074
0.0150062
0.015005
0.0150038
0.0150026
0.0150014
0.0150002
0.014999
0.0149979
0.0149967
0.0149956
0.0149944
0.0149933
0.0149922
0.0149911
0.01499
0.0149889
0.0149878
0.0149867
0.0149857
0.0149846
0.0149835
0.0149825
0.0149815
0.0149804
0.0149794
0.0149784
0.0149774
0.0149764
0.0149754
0.0149744
0.0149734
0.0149724
0.0149714
0.0149705
0.0149695
0.0149686
0.0149676
0.0149667
0.0149658
0.0149648
0.0149639
0.014963
0.0149621
0.0149612
0.0149603
0.0149594
0.0149585
0.0149577
0.0149568
0.0149559
0.0149551
0.0149542
0.0149534
0.0149525
0.0149517
0.0149509
0.01495
0.0149492
0.0149484
0.0149476
0.0149468
0.014946
0.0149452
0.0149444
0.0149436
0.0149428
0.0149421
0.0149413
0.0149405
0.0149398
0.014939
0.0149382
0.0149375
0.0149368
0.014936
0.0149353
0.0149345
0.0149338
0.0149331
0.0149324
0.0149317
0.014931
0.0149303
0.0149296
0.0149289
0.0149282
0.0149275
0.0149268
0.0149261
0.0149254
0.0149248
0.0149241
0.0149234
0.0149228
0.0149221
0.0149214
0.0149208
0.0149201
0.0149195
0.0149189
0.0149182
0.0149176
0.014917
0.0149163
0.0149157
0.0149151
0.0149145
0.0149139
0.0149133
0.0149126
0.014912
0.0149114
0.0149108
0.0149103
0.0149097
0.0149091
0.0149085
0.0149079
0.0149073
0.0149068
0.0149062
0.0149056
0.0149051
0.0149045
0.0149039
0.0149034
0.0149028
0.0149023
0.0149017
0.0149012
0.0149007
0.0149001
0.0148996
0.0148991
0.0148985
0.014898
0.0148975
0.014897
0.0148965
0.0148959
0.0148954
0.0148949
0.0148944
0.0148939
0.0148934
0.0148929
0.0148924
0.0148919
0.0148915
0.014891
0.0148905
0.01489
0.0148895
0.0148891
0.0148886
0.0148881
0.0148877
0.0148872
0.0148867
0.0148863
0.0148858
0.0148854
0.0148849
0.0148845
0.014884
0.0148836
0.0148831
0.0148827
0.0148823
0.0148818
0.0148814
0.014881
0.0148806
0.0148801
0.0148797
0.0148793
0.0148789
0.0148785
0.014878
0.0148776
0.0148772
0.0148768
0.0148764
0.014876
0.0148756
0.0148752
0.0148748
0.0148744
0.014874
0.0148737
0.0148733
0.0148729
0.0148725
0.0148721
0.0148717
0.0148714
0.014871
0.0148706
0.0148702
0.0148699
0.0148695
0.0148691
0.0148688
0.0148684
0.014868
0.0148677
0.0148673
0.014867
0.0148666
0.0148662
0.0148659
0.0148655
0.0148652
0.0148648
0.0148645
0.0148641
0.0148638
0.0148634
0.0148631
0.0148628
0.0148624
0.0148621
0.0148617
0.0148614
0.0148611
0.0148607
0.0148604
0.0148601
0.0148597
0.0148594
0.0148591
0.0148587
0.0148584
0.0148581
0.0148577
0.0148574
0.0148571
0.0148568
0.0148564
0.0148561
0.0148558
0.0148555
0.0148551
0.0148548
0.0148545
0.0148542
0.0148538
0.0148535
0.0148532
0.0148529
0.0148526
0.0148522
0.0148519
0.0148516
0.0148513
0.014851
0.0148506
0.0148503
0.01485
0.0148497
0.0148494
0.0148491
0.0148487
0.0148484
0.0148481
0.0148478
0.0148475
0.0148472
0.0148469
0.0148465
0.0148462
0.0148459
0.0148456
0.0148453
0.014845
0.0148447
0.0148444
0.014844
0.0148437
0.0148434
0.0148431
0.0148428
0.0148425
0.0148422
0.0148419
0.0148415
0.0148412
0.0148409
0.0148406
0.0148403
0.01484
0.0148397
0.0148394
0.0148391
0.0148387
0.0148384
0.0148381
0.0148378
0.0148375
0.0148372
0.0148369
0.0148366
0.0148363
0.0148359
0.0148356
0.0148353
0.014835
0.0148347
0.0148344
0.0148341
0.0148338
0.0148335
0.0148331
0.0148328
0.0148325
0.0148322
0.0148319
0.0148316
0.0148313
0.014831
0.0148307
0.0148303
0.01483
0.0148297
0.0148294
0.0148291
0.0148288
0.0148285
0.0148282
0.0148279
0.0148275
0.0148272
0.0148269
0.0148266
0.0148263
0.014826
0.0148256
0.0148253
0.014825
0.0148246
0.0148243
0.0148239
0.0148236
0.0148232
0.0148228
0.0148224
0.0148219
0.0148214
0.0148209
0.0148203
0.0148196
0.0148186
0.0148182
0.0148182
0.0148182
1
0.969192
0.495617
0.314223
0.237897
0.197396
0.172134
0.154697
0.141842
0.131929
0.124028
0.117574
0.112197
0.107646
0.103742
0.100355
0.097387
0.0947626
0.0924238
0.0903245
0.0884278
0.0867039
0.0851285
0.0836815
0.0823465
0.0811094
0.0799587
0.0788846
0.0778786
0.0769336
0.0760436
0.0752032
0.0744077
0.0736533
0.0729363
0.0722537
0.0716028
0.0709811
0.0703864
0.0698169
0.0692708
0.0687465
0.0682426
0.0677578
0.067291
0.0668411
0.0664071
0.0659881
0.0655833
0.0651918
0.0648131
0.0644465
0.0640913
0.063747
0.063413
0.0630889
0.0627742
0.0624685
0.0621714
0.0618825
0.0616014
0.0613278
0.0610614
0.0608019
0.0605491
0.0603026
0.0600622
0.0598276
0.0595988
0.0593753
0.0591571
0.0589439
0.0587356
0.058532
0.0583328
0.0581381
0.0579476
0.0577611
0.0575786
0.0573999
0.0572249
0.0570535
0.0568855
0.0567209
0.0565595
0.0564012
0.056246
0.0560938
0.0559444
0.0557979
0.055654
0.0555128
0.0553741
0.055238
0.0551042
0.0549728
0.0548437
0.0547168
0.0545921
0.0544695
0.0543489
0.0542304
0.0541138
0.0539991
0.0538863
0.0537753
0.0536661
0.0535586
0.0534528
0.0533486
0.053246
0.053145
0.0530455
0.0529476
0.0528511
0.052756
0.0526624
0.0525701
0.0524791
0.0523895
0.0523011
0.052214
0.0521282
0.0520435
0.05196
0.0518777
0.0517965
0.0517164
0.0516374
0.0515595
0.0514826
0.0514068
0.0513319
0.0512581
0.0511852
0.0511133
0.0510423
0.0509722
0.050903
0.0508347
0.0507672
0.0507007
0.0506349
0.05057
0.0505059
0.0504425
0.05038
0.0503182
0.0502572
0.0501969
0.0501373
0.0500785
0.0500204
0.0499629
0.0499062
0.0498501
0.0497947
0.0497399
0.0496858
0.0496323
0.0495794
0.0495272
0.0494755
0.0494244
0.0493739
0.049324
0.0492747
0.0492259
0.0491777
0.04913
0.0490828
0.0490362
0.0489901
0.0489445
0.0488994
0.0488548
0.0488107
0.0487671
0.048724
0.0486813
0.0486391
0.0485974
0.0485561
0.0485152
0.0484748
0.0484348
0.0483953
0.0483562
0.0483175
0.0482792
0.0482413
0.0482038
0.0481667
0.04813
0.0480937
0.0480578
0.0480223
0.0479871
0.0479523
0.0479178
0.0478838
0.04785
0.0478166
0.0477836
0.0477509
0.0477186
0.0476865
0.0476549
0.0476235
0.0475924
0.0475617
0.0475313
0.0475012
0.0474714
0.0474419
0.0474127
0.0473838
0.0473552
0.0473269
0.0472989
0.0472711
0.0472437
0.0472165
0.0471896
0.0471629
0.0471365
0.0471104
0.0470846
0.047059
0.0470336
0.0470086
0.0469837
0.0469591
0.0469348
0.0469107
0.0468868
0.0468632
0.0468398
0.0468166
0.0467937
0.046771
0.0467485
0.0467263
0.0467042
0.0466824
0.0466608
0.0466394
0.0466182
0.0465972
0.0465764
0.0465558
0.0465355
0.0465153
0.0464953
0.0464755
0.046456
0.0464366
0.0464173
0.0463983
0.0463795
0.0463608
0.0463423
0.046324
0.0463059
0.046288
0.0462702
0.0462526
0.0462352
0.0462179
0.0462008
0.0461839
0.0461671
0.0461505
0.046134
0.0461178
0.0461016
0.0460856
0.0460698
0.0460541
0.0460386
0.0460232
0.046008
0.0459929
0.045978
0.0459632
0.0459485
0.045934
0.0459196
0.0459053
0.0458912
0.0458772
0.0458634
0.0458497
0.0458361
0.0458226
0.0458093
0.0457961
0.045783
0.0457701
0.0457572
0.0457445
0.0457319
0.0457194
0.0457071
0.0456948
0.0456827
0.0456707
0.0456588
0.045647
0.0456353
0.0456237
0.0456123
0.0456009
0.0455896
0.0455785
0.0455674
0.0455565
0.0455457
0.0455349
0.0455243
0.0455137
0.0455033
0.0454929
0.0454827
0.0454725
0.0454624
0.0454525
0.0454426
0.0454328
0.0454231
0.0454135
0.0454039
0.0453945
0.0453851
0.0453759
0.0453667
0.0453576
0.0453486
0.0453396
0.0453308
0.045322