# vtk DataFile Version 2.0
FlowField
ASCII
DATASET STRUCTURED_GRID
DIMENSIONS 800 1 200
POINTS 160000 float
0 0 0
0.04 0 0
0.08 0 0
0.12 0 0
0.16 0 0
0.2 0 0
0.24 0 0
0.28 0 0
0.32 0 0
0.36 0 0
0.4 0 0
0.44 0 0
0.48 0 0
0.52 0 0
0.56 0 0
0.6 0 0
0.64 0 0
0.68 0 0
0.72 0 0
0.76 0 0
0.8 0 0
0.84 0 0
0.88 0 0
0.92 0 0
0.96 0 0
1 0 0
1.04 0 0
1.08 0 0
1.12 0 0
1.16 0 0
1.2 0 0
1.24 0 0
1.28 0 0
1.32 0 0
1.36 0 0
1.4 0 0
1.44 0 0
1.48 0 0
1.52 0 0
1.56 0 0
1.6 0 0
1.64 0 0
1.68 0 0
1.72 0 0
1.76 0 0
1.8 0 0
1.84 0 0
1.88 0 0
1.92 0 0
1.96 0 0
2 0 0
2.04 0 0
2.08 0 0
2.12 0 0
2.16 0 0
2.2 0 0
2.24 0 0
2.28 0 0
2.32 0 0
2.36 0 0
2.4 0 0
2.44 0 0
2.48 0 0
2.52 0 0
2.56 0 0
2.6 0 0
2.64 0 0
2.68 0 0
2.72 0 0
2.76 0 0
2.8 0 0
2.84 0 0
2.88 0 0
2.92 0 0
2.96 0 0
3 0 0
3.04 0 0
3.08 0 0
3.12 0 0
3.16 0 0
3.2 0 0
3.24 0 0
3.28 0 0
3.32 0 0
3.36 0 0
3.4 0 0
3.44 0 0
3.48 0 0
3.52 0 0
3.56 0 0
3.6 0 0
3.64 0 0
3.68 0 0
3.72 0 0
3.76 0 0
3.8 0 0
3.84 0 0
3.88 0 0
3.92 0 0
3.96 0 0
4 0 0
4.04 0 0
4.08 0 0
4.12 0 0
4.16 0 0
4.2 0 0
4.24 0 0
4.28 0 0
4.32 0 0
4.36 0 0
4.4 0 0
4.44 0 0
4.48 0 0
4.52 0 0
4.56 0 0
4.6 0 0
4.64 0 0
4.68 0 0
4.72 0 0
4.76 0 0
4.8 0 0
4.84 0 0
4.88 0 0
4.92 0 0
4.96 0 0
5 0 0
5.04 0 0
5.08 0 0
5.12 0 0
5.16 0 0
5.2 0 0
5.24 0 0
5.28 0 0
5.32 0 0
5.36 0 0
5.4 0 0
5.44 0 0
5.48 0 0
5.52 0 0
5.56 0 0
5.6 0 0
5.64 0 0
5.68 0 0
5.72 0 0
5.76 0 0
5.8 0 0
5.84 0 0
5.88 0 0
5.92 0 0
5.96 0 0
6 0 0
6.04 0 0
6.08 0 0
6.12 0 0
6.16 0 0
6.2 0 0
6.24 0 0
6.28 0 0
6.32 0 0
6.36 0 0
6.4 0 0
6.44 0 0
6.48 0 0
6.52 0 0
6.56 0 0
6.6 0 0
6.64 0 0
6.68 0 0
6.72 0 0
6.76 0 0
6.8 0 0
6.84 0 0
6.88 0 0
6.92 0 0
6.96 0 0
7 0 0
7.04 0 0
7.08 0 0
7.12 0 0
7.16 0 0
7.2 0 0
7.24 0 0
7.28 0 0
7.32 0 0
7.36 0 0
7.4 0 0
7.44 0 0
7.48 0 0
7.52 0 0
7.56 0 0
7.6 0 0
7.64 0 0
7.68 0 0
7.72 0 0
7.76 0 0
7.8 0 0
7.84 0 0
7.88 0 0
7.92 0 0
7.96 0 0
8 0 0
8.04 0 0
8.08 0 0
8.12 0 0
8.16 0 0
8.2 0 0
8.24 0 0
8.28 0 0
8.32 0 0
8.36 0 0
8.4 0 0
8.44 0 0
8.48 0 0
8.52 0 0
8.56 0 0
8.6 0 0
8.64 0 0
8.68 0 0
8.72 0 0
8.76 0 0
8.8 0 0
8.84 0 0
8.88 0 0
8.92 0 0
8.96 0 0
9 0 0
9.04 0 0
9.08 0 0
9.12 0 0
9.16 0 0
9.2 0 0
9.24 0 0
9.28 0 0
9.32 0 0
9.36 0 0
9.4 0 0
9.44 0 0
9.48 0 0
9.52 0 0
9.56 0 0
9.6 0 0
9.64 0 0
9.68 0 0
9.72 0 0
9.76 0 0
9.8 0 0
9.84 0 0
9.88 0 0
9.92 0 0
9.96 0 0
10 0 0
10.04 0 0
10.08 0 0
10.12 0 0
10.16 0 0
10.2 0 0
10.24 0 0
10.28 0 0
10.32 0 0
10.36 0 0
10.4 0 0
10.44 0 0
10.48 0 0
10.52 0 0
10.56 0 0
10.6 0 0
10.64 0 0
10.68 0 0
10.72 0 0
10.76 0 0
10.8 0 0
10.84 0 0
10.88 0 0
10.92 0 0
10.96 0 0
11 0 0
11.04 0 0
11.08 0 0
11.12 0 0
11.16 0 0
11.2 0 0
11.24 0 0
11.28 0 0
11.32 0 0
11.36 0 0
11.4 0 0
11.44 0 0
11.48 0 0
11.52 0 0
11.56 0 0
11.6 0 0
11.64 0 0
11.68 0 0
11.72 0 0
11.76 0 0
11.8 0 0
11.84 0 0
11.88 0 0
11.92 0 0
11.96 0 0
12 0 0
12.04 0 0
12.08 0 0
12.12 0 0
12.16 0 0
12.2 0 0
12.24 0 0
12.28 0 0
12.32 0 0
12.36 0 0
12.4 0 0
12.44 0 0
12.48 0 0
12.52 0 0
12.56 0 0
12.6 0 0
12.64 0 0
12.68 0 0
12.72 0 0
12.76 0 0
12.8 0 0
12.84 0 0
12.88 0 0
12.92 0 0
12.96 0 0
13 0 0
13.04 0 0
13.08 0 0
13.12 0 0
13.16 0 0
13.2 0 0
13.24 0 0
13.28 0 0
13.32 0 0
13.36 0 0
13.4 0 0
13.44 0 0
13.48 0 0
13.52 0 0
13.56 0 0
13.6 0 0
13.64 0 0
13.68 0 0
13.72 0 0
13.76 0 0
13.8 0 0
13.84 0 0
13.88 0 0
13.92 0 0
13.96 0 0
14 0 0
14.04 0 0
14.08 0 0
14.12 0 0
14.16 0 0
14.2 0 0
14.24 0 0
14.28 0 0
14.32 0 0
14.36 0 0
14.4 0 0
14.44 0 0
14.48 0 0
14.52 0 0
14.56 0 0
14.6 0 0
14.64 0 0
14.68 0 0
14.72 0 0
14.76 0 0
14.8 0 0
14.84 0 0
14.88 0 0
14.92 0 0
14.96 0 0
15 0 0
15.04 0 0
15.08 0 0
15.12 0 0
15.16 0 0
15.2 0 0
15.24 0 0
15.28 0 0
15.32 0 0
15.36 0 0
15.4 0 0
15.44 0 0
15.48 0 0
15.52 0 0
15.56 0 0
15.6 0 0
15.64 0 0
15.68 0 0
15.72 0 0
15.76 0 0
15.8 0 0
15.84 0 0
15.88 0 0
15.92 0 0
15.96 0 0
16 0 0
16.04 0 0
16.08 0 0
16.12 0 0
16.16 0 0
16.2 0 0
16.24 0 0
16.28 0 0
16.32 0 0
16.36 0 0
16.4 0 0
16.44 0 0
16.48 0 0
16.52 0 0
16.56 0 0
16.6 0 0
16.64 0 0
16.68 0 0
16.72 0 0
16.76 0 0
16.8 0 0
16.84 0 0
16.88 0 0
16.92 0 0
16.96 0 0
17 0 0
17.04 0 0
17.08 0 0
17.12 0 0
17.16 0 0
17.2 0 0
17.24 0 0
17.28 0 0
17.32 0 0
17.36 0 0
17.4 0 0
17.44 0 0
17.48 0 0
17.52 0 0
17.56 0 0
17.6 0 0
17.64 0 0
17.68 0 0
17.72 0 0
17.76 0 0
17.8 0 0
17.84 0 0
17.88 0 0
17.92 0 0
17.96 0 0
18 0 0
18.04 0 0
18.08 0 0
18.12 0 0
18.16 0 0
18.2 0 0
18.24 0 0
18.28 0 0
18.32 0 0
18.36 0 0
18.4 0 0
18.44 0 0
18.48 0 0
18.52 0 0
18.56 0 0
18.6 0 0
18.64 0 0
18.68 0 0
18.72 0 0
18.76 0 0
18.8 0 0
18.84 0 0
18.88 0 0
18.92 0 0
18.96 0 0
19 0 0
19.04 0 0
19.08 0 0
19.12 0 0
19.16 0 0
19.2 0 0
19.24 0 0
19.28 0 0
19.32 0 0
19.36 0 0
19.4 0 0
19.44 0 0
19.48 0 0
19.52 0 0
19.56 0 0
19.6 0 0
19.64 0 0
19.68 0 0
19.72 0 0
19.76 0 0
19.8 0 0
19.84 0 0
19.88 0 0
19.92 0 0
19.96 0 0
20 0 0
20.04 0 0
20.08 0 0
20.12 0 0
20.16 0 0
20.2 0 0
20.24 0 0
20.28 0 0
20.32 0 0
20.36 0 0
20.4 0 0
20.44 0 0
20.48 0 0
20.52 0 0
20.56 0 0
20.6 0 0
20.64 0 0
20.68 0 0
20.72 0 0
20.76 0 0
20.8 0 0
20.84 0 0
20.88 0 0
20.92 0 0
20.96 0 0
21 0 0
21.04 0 0
21.08 0 0
21.12 0 0
21.16 0 0
21.2 0 0
21.24 0 0
21.28 0 0
21.32 0 0
21.36 0 0
21.4 0 0
21.44 0 0
21.48 0 0
21.52 0 0
21.56 0 0
21.6 0 0
21.64 0 0
21.68 0 0
21.72 0 0
21.76 0 0
21.8 0 0
21.84 0 0
21.88 0 0
21.92 0 0
21.96 0 0
22 0 0
22.04 0 0
22.08 0 0
22.12 0 0
22.16 0 0
22.2 0 0
22.24 0 0
22.28 0 0
22.32 0 0
22.36 0 0
22.4 0 0
22.44 0 0
22.48 0 0
22.52 0 0
22.56 0 0
22.6 0 0
22.64 0 0
22.68 0 0
22.72 0 0
22.76 0 0
22.8 0 0
22.84 0 0
22.88 0 0
22.92 0 0
22.96 0 0
23 0 0
23.04 0 0
23.08 0 0
23.12 0 0
23.16 0 0
23.2 0 0
23.24 0 0
23.28 0 0
23.32 0 0
23.36 0 0
23.4 0 0
23.44 0 0
23.48 0 0
23.52 0 0
23.56 0 0
23.6 0 0
23.64 0 0
23.68 0 0
23.72 0 0
23.76 0 0
23.8 0 0
23.84 0 0
23.88 0 0
23.92 0 0
23.96 0 0
24 0 0
24.04 0 0
24.08 0 0
24.12 0 0
24.16 0 0
24.2 0 0
24.24 0 0
24.28 0 0
24.32 0 0
24.36 0 0
24.4 0 0
24.44 0 0
24.48 0 0
24.52 0 0
24.56 0 0
24.6 0 0
24.64 0 0
24.68 0 0
24.72 0 0
24.76 0 0
24.8 0 0
24.84 0 0
24.88 0 0
24.92 0 0
24.96 0 0
25 0 0
25.04 0 0
25.08 0 0
25.12 0 0
25.16 0 0
25.2 0 0
25.24 0 0
25.28 0 0
25.32 0 0
25.36 0 0
25.4 0 0
25.44 0 0
25.48 0 0
25.52 0 0
25.56 0 0
25.6 0 0
25.64 0 0
25.68 0 0
25.72 0 0
25.76 0 0
25.8 0 0
25.84 0 0
25.88 0 0
25.92 0 0
25.96 0 0
26 0 0
26.04 0 0
26.08 0 0
26.12 0 0
26.16 0 0
26.2 0 0
26.24 0 0
26.28 0 0
26.32 0 0
26.36 0 0
26.4 0 0
26.44 0 0
26.48 0 0
26.52 0 0
26.56 0 0
26.6 0 0
26.64 0 0
26.68 0 0
26.72 0 0
26.76 0 0
26.8 0 0
26.84 0 0
26.88 0 0
26.92 0 0
26.96 0 0
27 0 0
27.04 0 0
27.08 0 0
27.12 0 0
27.16 0 0
27.2 0 0
27.24 0 0
27.28 0 0
27.32 0 0
27.36 0 0
27.4 0 0
27.44 0 0
27.48 0 0
27.52 0 0
27.56 0 0
27.6 0 0
27.64 0 0
27.68 0 0
27.72 0 0
27.76 0 0
27.8 0 0
27.84 0 0
27.88 0 0
27.92 0 0
27.96 0 0
28 0 0
28.04 0 0
28.08 0 0
28.12 0 0
28.16 0 0
28.2 0 0
28.24 0 0
28.28 0 0
28.32 0 0
28.36 0 0
28.4 0 0
28.44 0 0
28.48 0 0
28.52 0 0
28.56 0 0
28.6 0 0
28.64 0 0
28.68 0 0
28.72 0 0
28.76 0 0
28.8 0 0
28.84 0 0
28.88 0 0
28.92 0 0
28.96 0 0
29 0 0
29.04 0 0
29.08 0 0
29.12 0 0
29.16 0 0
29.2 0 0
29.24 0 0
29.28 0 0
29.32 0 0
29.36 0 0
29.4 0 0
29.44 0 0
29.48 0 0
29.52 0 0
29.56 0 0
29.6 0 0
29.64 0 0
29.68 0 0
29.72 0 0
29.76 0 0
29.8 0 0
29.84 0 0
29.88 0 0
29.92 0 0
29.96 0 0
30 0 0
30.04 0 0
30.08 0 0
30.12 0 0
30.16 0 0
30.2 0 0
30.24 0 0
30.28 0 0
30.32 0 0
30.36 0 0
30.4 0 0
30.44 0 0
30.48 0 0
30.52 0 0
30.56 0 0
30.6 0 0
30.64 0 0
30.68 0 0
30.72 0 0
30.76 0 0
30.8 0 0
30.84 0 0
30.88 0 0
30.92 0 0
30.96 0 0
31 0 0
31.04 0 0
31.08 0 0
31.12 0 0
31.16 0 0
31.2 0 0
31.24 0 0
31.28 0 0
31.32 0 0
31.36 0 0
31.4 0 0
31.44 0 0
31.48 0 0
31.52 0 0
31.56 0 0
31.6 0 0
31.64 0 0
31.68 0 0
31.72 0 0
31.76 0 0
31.8 0 0
31.84 0 0
31.88 0 0
31.92 0 0
31.96 0 0
0 0.005 0
0.04 0.005 0
0.08 0.005 0
0.12 0.005 0
0.16 0.005 0
0.2 0.005 0
0.24 0.005 0
0.28 0.005 0
0.32 0.005 0
0.36 0.005 0
0.4 0.005 0
0.44 0.005 0
0.48 0.005 0
0.52 0.005 0
0.56 0.005 0
0.6 0.005 0
0.64 0.005 0
0.68 0.005 0
0.72 0.005 0
0.76 0.005 0
0.8 0.005 0
0.84 0.005 0
0.88 0.005 0
0.92 0.005 0
0.96 0.005 0
1 0.005 0
1.04 0.005 0
1.08 0.005 0
1.12 0.005 0
1.16 0.005 0
1.2 0.005 0
1.24 0.005 0
1.28 0.005 0
1.32 0.005 0
1.36 0.005 0
1.4 0.005 0
1.44 0.005 0
1.48 0.005 0
1.52 0.005 0
1.56 0.005 0
1.6 0.005 0
1.64 0.005 0
1.68 0.005 0
1.72 0.005 0
1.76 0.005 0
1.8 0.005 0
1.84 0.005 0
1.88 0.005 0
1.92 0.005 0
1.96 0.005 0
2 0.005 0
2.04 0.005 0
2.08 0.005 0
2.12 0.005 0
2.16 0.005 0
2.2 0.005 0
2.24 0.005 0
2.28 0.005 0
2.32 0.005 0
2.36 0.005 0
2.4 0.005 0
2.44 0.005 0
2.48 0.005 0
2.52 0.005 0
2.56 0.005 0
2.6 0.005 0
2.64 0.005 0
2.68 0.005 0
2.72 0.005 0
2.76 0.005 0
2.8 0.005 0
2.84 0.005 0
2.88 0.005 0
2.92 0.005 0
2.96 0.005 0
3 0.005 0
3.04 0.005 0
3.08 0.005 0
3.12 0.005 0
3.16 0.005 0
3.2 0.005 0
3.24 0.005 0
3.28 0.005 0
3.32 0.005 0
3.36 0.005 0
3.4 0.005 0
3.44 0.005 0
3.48 0.005 0
3.52 0.005 0
3.56 0.005 0
3.6 0.005 0
3.64 0.005 0
3.68 0.005 0
3.72 0.005 0
3.76 0.005 0
3.8 0.005 0
3.84 0.005 0
3.88 0.005 0
3.92 0.005 0
3.96 0.005 0
4 0.005 0
4.04 0.005 0
4.08 0.005 0
4.12 0.005 0
4.16 0.005 0
4.2 0.005 0
4.24 0.005 0
4.28 0.005 0
4.32 0.005 0
4.36 0.005 0
4.4 0.005 0
4.44 0.005 0
4.48 0.005 0
4.52 0.005 0
4.56 0.005 0
4.6 0.005 0
4.64 0.005 0
4.68 0.005 0
4.72 0.005 0
4.76 0.005 0
4.8 0.005 0
4.84 0.005 0
4.88 0.005 0
4.92 0.005 0
4.96 0.005 0
5 0.005 0
5.04 0.005 0
5.08 0.005 0
5.12 0.005 0
5.16 0.005 0
5.2 0.005 0
5.24 0.005 0
5.28 0.005 0
5.32 0.005 0
5.36 0.005 0
5.4 0.005 0
5.44 0.005 0
5.48 0.005 0
5.52 0.005 0
5.56 0.005 0
5.6 0.005 0
5.64 0.005 0
5.68 0.005 0
5.72 0.005 0
5.76 0.005 0
5.8 0.005 0
5.84 0.005 0
5.88 0.005 0
5.92 0.005 0
5.96 0.005 0
6 0.005 0
6.04 0.005 0
6.08 0.005 0
6.12 0.005 0
6.16 0.005 0
6.2 0.005 0
6.24 0.005 0
6.28 0.005 0
6.32 0.005 0
6.36 0.005 0
6.4 0.005 0
6.44 0.005 0
6.48 0.005 0
6.52 0.005 0
6.56 0.005 0
6.6 0.005 0
6.64 0.005 0
6.68 0.005 0
6.72 0.005 0
6.76 0.005 0
6.8 0.005 0
6.84 0.005 0
6.88 0.005 0
6.92 0.005 0
6.96 0.005 0
7 0.005 0
7.04 0.005 0
7.08 0.005 0
7.12 0.005 0
7.16 0.005 0
7.2 0.005 0
7.24 0.005 0
7.28 0.005 0
7.32 0.005 0
7.36 0.005 0
7.4 0.005 0
[...]
POINT_DATA 160000

SCALARS p float 1
LOOKUP_TABLE default
1
29.549
27.3335
27.0786
27.0185
26.9921
26.976
26.9644
26.9552
26.9474
26.9404
26.9341
26.9282
26.9226
26.9173
26.9122
26.9072
26.9024
26.8977
26.8931
26.8885
26.8841
26.8797
26.8754
26.8711
26.8669
26.8627
26.8586
26.8545
26.8505
26.8466
26.8426
26.8388
26.8349
26.8312
26.8274
26.8237
26.82
26.8164
26.8128
26.8092
26.8057
26.8022
26.7988
26.7953
26.7919
26.7886
26.7852
26.7819
26.7786
26.7754
26.7722
26.769
26.7658
26.7627
26.7595
26.7564
26.7534
26.7503
26.7473
26.7443
26.7413
26.7383
26.7353
26.7324
26.7295
26.7266
26.7237
26.7209
26.718
26.7152
26.7124
26.7096
26.7068
26.7041
26.7013
26.6986
26.6959
26.6932
26.6905
26.6879
26.6852
26.6826
26.6799
26.6773
26.6747
26.6721
26.6695
26.667
26.6644
26.6619
26.6594
26.6568
26.6543
26.6518
26.6493
26.6469
26.6444
26.642
26.6395
26.6371
26.6346
26.6322
26.6298
26.6274
26.625
26.6227
26.6203
26.6179
26.6156
26.6132
26.6109
26.6086
26.6063
26.604
26.6017
26.5994
26.5971
26.5948
26.5925
26.5903
26.588
26.5858
26.5835
26.5813
26.5791
26.5768
26.5746
26.5724
26.5702
26.568
26.5658
26.5637
26.5615
26.5593
26.5572
26.555
26.5528
26.5507
26.5486
26.5464
26.5443
26.5422
26.5401
26.538
26.5359
26.5338
26.5317
26.5296
26.5275
26.5254
26.5234
26.5213
26.5192
26.5172
26.5151
26.5131
26.511
26.509
26.507
26.5049
26.5029
26.5009
26.4989
26.4969
26.4949
26.4929
26.4909
26.4889
26.4869
26.4849
26.4829
26.481
26.479
26.477
26.4751
26.4731
26.4711
26.4692
26.4672
26.4653
26.4634
26.4614
26.4595
26.4576
26.4556
26.4537
26.4518
26.4499
26.448
26.4461
26.4442
26.4423
26.4404
26.4385
26.4366
26.4347
26.4328
26.4309
26.429
26.4272
26.4253
26.4234
26.4216
26.4197
26.4178
26.416
26.4141
26.4123
26.4104
26.4086
26.4067
26.4049
26.4031
26.4012
26.3994
26.3976
26.3957
26.3939
26.3921
26.3903
26.3885
26.3866
26.3848
26.383
26.3812
26.3794
26.3776
26.3758
26.374
26.3722
26.3704
26.3686
26.3669
26.3651
26.3633
26.3615
26.3597
26.358
26.3562
26.3544
26.3526
26.3509
26.3491
26.3473
26.3456
26.3438
26.3421
26.3403
26.3386
26.3368
26.3351
26.3333
26.3316
26.3298
26.3281
26.3264
26.3246
26.3229
26.3212
26.3194
26.3177
26.316
26.3143
26.3125
26.3108
26.3091
26.3074
26.3057
26.304
26.3023
26.3005
26.2988
26.2971
26.2954
26.2937
26.292
26.2903
26.2886
26.287
26.2853
26.2836
26.2819
26.2802
26.2785
26.2768
26.2752
26.2735
26.2718
26.2701
26.2685
26.2668
26.2651
26.2635
26.2618
26.2601
26.2585
26.2568
26.2552
26.2535
26.2518
26.2502
26.2485
26.2469
26.2452
26.2436
26.2419
26.2403
26.2386
26.237
26.2354
26.2337
26.2321
26.2304
26.2288
26.2272
26.2255
26.2239
26.2223
26.2206
26.219
26.2174
26.2158
26.2141
26.2125
26.2109
26.2093
26.2076
26.206
26.2044
26.2028
26.2011
26.1995
26.1979
26.1963
26.1947
26.1931
26.1915
26.1898
26.1882
26.1866
26.185
26.1834
26.1818
26.1802
26.1786
26.177
26.1753
26.1737
26.1721
26.1705
26.1689
26.1673
26.1657
26.1641
26.1625
26.1609
26.1593
26.1577
26.1561
26.1545
26.1529
26.1513
26.1497
26.1481
26.1465
26.1449
26.1433
26.1417
26.1401
26.1385
26.1369
26.1353
26.1337
26.1321
26.1305
26.1289
26.1273
26.1257
26.1241
26.1225
26.1209
26.1193
26.1177
26.1161
26.1145
26.1129
26.1113
26.1097
26.1081
26.1065
26.105
26.1034
26.1018
26.1002
26.0986
26.097
26.0954
26.0938
26.0922
26.0906
26.089
26.0874
26.0858
26.0842
26.0826
26.081
26.0794
26.0778
26.0762
26.0746
26.073
26.0714
26.0699
26.0683
26.0667
26.0651
26.0635
26.0619
26.0603
26.0587
26.0571
26.0555
26.0539
26.0523
26.0507
26.0491
26.0475
26.0459
26.0443
26.0427
26.0411
26.0395
26.038
26.0364
26.0348
26.0332
26.0316
26.03
26.0284
26.0268
26.0252
26.0236
26.022
26.0204
26.0188
26.0172
26.0156
26.014
26.0124
26.0108
26.0093
26.0077
26.0061
26.0045
26.0029
26.0013
25.9997
25.9981
25.9965
25.9949
25.9933
25.9917
25.9901
25.9885
25.9869
25.9853
25.9838
25.9822
25.9806
25.979
25.9774
25.9758
25.9742
25.9726
25.971
25.9694
25.9678
25.9662
25.9646
25.963
25.9614
25.9598
25.9583
25.9567
25.9551
25.9535
25.9519
25.9503
25.9487
25.9471
25.9455
25.9439
25.9423
25.9407
25.9391
25.9375
25.936
25.9344
25.9328
25.9312
25.9296
25.928
25.9264
25.9248
25.9232
25.9216
25.92
25.9184
25.9168
25.9152
25.9137
25.9121
25.9105
25.9089
25.9073
25.9057
25.9041
25.9025
25.9009
25.8993
25.8977
25.8961
25.8945
25.893
25.8914
25.8898
25.8882
25.8866
25.885
25.8834
25.8818
25.8802
25.8786
25.877
25.8754
25.8738
25.8723
25.8707
25.8691
25.8675
25.8659
25.8643
25.8627
25.8611
25.8595
25.8579
25.8563
25.8547
25.8532
25.8516
25.85
25.8484
25.8468
25.8452
25.8436
25.842
25.8404
25.8388
25.8372
25.8357
25.8341
25.8325
25.8309
25.8293
25.8277
25.8261
25.8245
25.8229
25.8213
25.8197
25.8182
25.8166
25.815
25.8134
25.8118
25.8102
25.8086
25.807
25.8054
25.8038
25.8022
25.8007
25.7991
25.7975
25.7959
25.7943
25.7927
25.7911
25.7895
25.7879
25.7863
25.7847
25.7832
25.7816
25.78
25.7784
25.7768
25.7752
25.7736
25.772
25.7704
25.7688
25.7673
25.7657
25.7641
25.7625
25.7609
25.7593
25.7577
25.7561
25.7545
25.7529
25.7514
25.7498
25.7482
25.7466
25.745
25.7434
25.7418
25.7402
25.7386
25.737
25.7355
25.7339
25.7323
25.7307
25.7291
25.7275
25.7259
25.7243
25.7227
25.7212
25.7196
25.718
25.7164
25.7148
25.7132
25.7116
25.71
25.7084
25.7069
25.7053
25.7037
25.7021
25.7005
25.6989
25.6973
25.6957
25.6941
25.6926
25.691
25.6894
25.6878
25.6862
25.6846
25.683
25.6814
25.6798
25.6783
25.6767
25.6751
25.6735
25.6719
25.6703
25.6687
25.6671
25.6655
25.664
25.6624
25.6608
25.6592
25.6576
25.656
25.6544
25.6528
25.6513
25.6497
25.6481
25.6465
25.6449
25.6433
25.6417
25.6401
25.6385
25.637
25.6354
25.6338
25.6322
25.6306
25.629
25.6274
25.6258
25.6243
25.6227
25.6211
25.6195
25.6179
25.6163
25.6147
25.6131
25.6116
25.61
25.6084
25.6068
25.6052
25.6036
25.602
25.6004
25.5989
25.5973
25.5957
25.5941
25.5925
25.5909
25.5893
25.5877
25.5862
25.5846
25.583
25.5814
25.5798
25.5782
25.5766
25.5751
25.5735
25.5719
25.5703
25.5687
25.5671
25.5655
25.5639
25.5624
25.5608
25.5592
25.5576
25.556
25.5544
25.5528
25.5513
25.5497
25.5481
25.5465
25.5449
25.5433
25.5417
25.5401
25.5386
25.537
25.5354
25.5338
25.5322
25.5306
25.529
25.5275
25.5259
25.5243
25.5227
25.5211
25.5195
25.5179
25.5164
25.5148
25.5132
25.5116
25.51
25.5084
25.5068
25.5053
25.5037
25.5021
25.5005
25.4989
25.4973
25.4957
25.4942
25.4926
25.491
25.4894
25.4878
25.4862
25.4846
25.4831
25.4815
25.4799
25.4783
25.4767
25.4751
25.4735
25.472
25.4704
25.4688
25.4672
25.4656
25.464
25.4625
25.4609
25.4593
25.4577
1
29.549
29.549
27.3335
27.0786
27.0185
26.9921
26.976
26.9644
26.9552
26.9474
26.9404
26.9341
26.9282
26.9226
26.9173
26.9122
26.9072
26.9024
26.8977
26.8931
26.8885
26.8841
26.8797
26.8754
26.8711
26.8669
26.8627
26.8586
26.8545
26.8505
26.8466
26.8426
26.8388
26.8349
26.8312
26.8274
26.8237
26.82
26.8164
26.8128
26.8092
26.8057
26.8022
26.7988
26.7953
26.7919
26.7886
26.7852
26.7819
26.7786
26.7754
26.7722
26.769
26.7658
26.7627
26.7595
26.7564
26.7534
26.7503
26.7473
26.7443
26.7413
26.7383
26.7353
26.7324
26.7295
26.7266
26.7237
26.7209
26.718
26.7152
26.7124
26.7096
26.7068
26.7041
26.7013
26.6986
26.6959
26.6932
26.6905
26.6879
26.6852
26.6826
26.6799
26.6773
26.6747
26.6721
26.6695
26.667
26.6644
26.6619
26.6594
26.6568
26.6543
26.6518
26.6493
26.6469
26.6444
26.642
26.6395
26.6371
26.6346
26.6322
26.6298
26.6274
26.625
26.6227
26.6203
26.6179
26.6156
26.6132
26.6109
26.6086
26.6063
26.604
26.6017
26.5994
26.5971
26.5948
26.5925
26.5903
26.588
26.5858
26.5835
26.5813
26.5791
26.5768
26.5746
26.5724
26.5702
26.568
26.5658
26.5637
26.5615
26.5593
26.5572
26.555
26.5528
26.5507
26.5486
26.5464
26.5443
26.5422
26.5401
26.538
26.5359
26.5338
26.5317
26.5296
26.5275
26.5254
26.5234
26.5213
26.5192
26.5172
26.5151
26.5131
26.511
26.509
26.507
26.5049
26.5029
26.5009
26.4989
26.4969
26.4949
26.4929
26.4909
26.4889
26.4869
26.4849
26.4829
26.481
26.479
26.477
26.4751
26.4731
26.4711
26.4692
26.4672
26.4653
26.4634
26.4614
26.4595
26.4576
26.4556
26.4537
26.4518
26.4499
26.448
26.4461
26.4442
26.4423
26.4404
26.4385
26.4366
26.4347
26.4328
26.4309
26.429
26.4272
26.4253
26.4234
26.4216
26.4197
26.4178
26.416
26.4141
26.4123
26.4104
26.4086
26.4067
26.4049
26.4031
26.4012
26.3994
26.3976
26.3957
26.3939
26.3921
26.3903
26.3885
26.3866
26.3848
26.383
26.3812
26.3794
26.3776
26.3758
26.374
26.3722
26.3704
26.3686
26.3669
26.3651
26.3633
26.3615
26.3597
26.358
26.3562
26.3544
26.3526
26.3509
26.3491
26.3473
26.3456
26.3438
26.3421
26.3403
26.3386
26.3368
26.3351
26.3333
26.3316
26.3298
26.3281
26.3264
26.3246
26.3229
26.3212
26.3194
26.3177
26.316
26.3143
26.3125
26.3108
26.3091
26.3074
26.3057
26.304
26.3023
26.3005
26.2988
26.2971
26.2954
26.2937
26.292
26.2903
26.2886
26.287
26.2853
26.2836
26.2819
26.2802
26.2785
26.2768
26.2752
26.2735
26.2718
26.2701
26.2685
26.2668
26.2651
26.2635
26.2618
26.2601
26.2585
26.2568
26.2552
26.2535
26.2518
26.2502
26.2485
26.2469
26.2452
26.2436
26.2419
26.2403
26.2386
26.237
26.2354
26.2337
26.2321
26.2304
26.2288
26.2272
26.2255
26.2239
26.2223
26.2206
26.219
26.2174
26.2158
26.2141
26.2125
26.2109
26.2093
26.2076
26.206
26.2044
26.2028
26.2011
26.1995
26.1979
26.1963
26.1947
26.1931
26.1915
26.1898
26.1882
26.1866
26.185
26.1834
26.1818
26.1802
26.1786
26.177
26.1753
26.1737
26.1721
26.1705
26.1689
26.1673
26.1657
26.1641
26.1625
26.1609
26.1593
26.1577
26.1561
26.1545
26.1529
26.1513
26.1497
26.1481
26.1465
26.1449
26.1433
26.1417
26.1401
26.1385
26.1369
26.1353
26.1337
26.1321
26.1305
26.1289
26.1273
26.1257
26.1241
26.1225
26.1209
26.1193
26.1177
26.1161
26.1145
26.1129
26.1113
26.1097
26.1081
26.1065
26.105
26.1034
26.1018
26.1002
26.0986
26.097
26.0954
26.0938
26.0922
26.0906
26.089
26.0874
26.0858
26.0842
26.0826
26.081
26.0794
26.0778
26.0762
26.0746
26.073
26.0714
26.0699
26.0683
26.0667
26.0651
26.0635
26.0619
26.0603
26.0587
26.0571
26.0555
26.0539
26.0523
26.0507
26.0491
26.0475
26.0459
26.0443
26.0427
26.0411
26.0395
26.038
26.0364
26.0348
26.0332
26.0316
26.03
26.0284
26.0268
26.0252
26.0236
26.022
26.0204
26.0188
26.0172
26.0156
26.014
26.0124
26.0108
26.0093
26.0077
26.0061
26.0045
26.0029
26.0013
25.9997
25.9981
25.9965
25.9949
25.9933
25.9917
25.9901
25.9885
25.9869
25.9853
25.9838
25.9822
25.9806
25.979
25.9774
25.9758
25.9742
25.9726
25.971
25.9694
25.9678
25.9662
25.9646
25.963
25.9614
25.9598
25.9583
25.9567
25.9551
25.9535
25.9519
25.9503
25.9487
25.9471
25.9455
25.9439
25.9423
25.9407
25.9391
25.9375
25.936
25.9344
25.9328
25.9312
25.9296
25.928
25.9264
25.9248
25.9232
25.9216
25.92
25.9184
25.9168
25.9152
25.9137
25.9121
25.9105
25.9089
25.9073
25.9057
25.9041
25.9025
25.9009
25.8993
25.8977
25.8961
25.8945
25.893
25.8914
25.8898
25.8882
25.8866
25.885
25.8834
25.8818
25.8802
25.8786
25.877
25.8754
25.8738
25.8723
25.8707
25.8691
25.8675
25.8659
25.8643
25.8627
25.8611
25.8595
25.8579
25.8563
25.8547
25.8532
25.8516
25.85
25.8484
25.8468
25.8452
25.8436
25.842
25.8404
25.8388
25.8372
25.8357
25.8341
25.8325
25.8309
25.8293
25.8277
25.8261
25.8245
25.8229
25.8213
25.8197
25.8182
25.8166
25.815
25.8134
25.8118
25.8102
25.8086
25.807
25.8054
25.8038
25.8022
25.8007
25.7991
25.7975
25.7959
25.7943
25.7927
25.7911
25.7895
25.7879
25.7863
25.7847
25.7832
25.7816
25.78
25.7784
25.7768
25.7752
25.7736
25.772
25.7704
25.7688
25.7673
25.7657
25.7641
25.7625
25.7609
25.7593
25.7577
25.7561
25.7545
25.7529
25.7514
25.7498
25.7482
25.7466
25.745
25.7434
25.7418
25.7402
25.7386
25.737
25.7355
25.7339
25.7323
25.7307
25.7291
25.7275
25.7259
25.7243
25.7227
25.7212
25.7196
25.718
25.7164
25.7148
25.7132
25.7116
25.71
25.7084
25.7069
25.7053
25.7037
25.7021
25.7005
25.6989
25.6973
25.6957
25.6941
25.6926
25.691
25.6894
25.6878
25.6862
25.6846
25.683
25.6814
25.6798
25.6783
25.6767
25.6751
25.6735
25.6719
25.6703
25.6687
25.6671
25.6655
25.664
25.6624
25.6608
25.6592
25.6576
25.656
25.6544
25.6528
25.6513
25.6497
25.6481
25.6465
25.6449
25.6433
25.6417
25.6401
25.6385
25.637
25.6354
25.6338
25.6322
25.6306
25.629
25.6274
25.6258
25.6243
25.6227
25.6211
25.6195
25.6179
25.6163
25.6147
25.6131
25.6116
25.61
25.6084
25.6068
25.6052
25.6036
25.602
25.6004
25.5989
25.5973
25.5957
25.5941
25.5925
25.5909
25.5893
25.5877
25.5862
25.5846
25.583
25.5814
25.5798
25.5782
25.5766
25.5751
25.5735
25.5719
25.5703
25.5687
25.5671
25.5655
25.5639
25.5624
25.5608
25.5592
25.5576
25.556
25.5544
25.5528
25.5513
25.5497
25.5481
25.5465
25.5449
25.5433
25.5417
25.5401
25.5386
25.537
25.5354
25.5338
25.5322
25.5306
25.529
25.5275
25.5259
25.5243
25.5227
25.5211
25.5195
25.5179
25.5164
25.5148
25.5132
25.5116
25.51
25.5084
25.5068
25.5053
25.5037
25.5021
25.5005
25.4989
25.4973
25.4957
25.4942
25.4926
25.491
25.4894
25.4878
25.4862
25.4846
25.4831
25.4815
25.4799
25.4783
25.4767
25.4751
25.4735
25.472
25.4704
25.4688
25.4672
25.4656
25.464
25.4625
25.4609
25.4593
25.4577
25.4577
28.902
28.902
27.3439
27.0882
27.0226
26.9943
26.9774
26.9654
26.9559
26.9479
26.9408
26.9344
26.9285
26.9229
26.9175
26.9124
26.9074
26.9026
26.8978
26.8932
26.8887
26.8842
26.8798
26.8754
26.8712
26.8669
26.8628
26.8587
26.8546
26.8506
26.8466
26.8427
26.8388
26.835
26.8312
26.8274
26.8237
26.8201
26.8164
26.8128
26.8093
26.8057
26.8022
26.7988
26.7954
26.792
26.7886
26.7853
26.782
26.7787
26.7754
26.7722
26.769
26.7658
26.7627
26.7596
26.7565
26.7534
26.7503
26.7473
26.7443
26.7413
26.7383
26.7354
26.7324
26.7295
26.7266
26.7238
26.7209
26.7181
26.7152
26.7124
26.7096
26.7069
26.7041
26.7014
26.6986
26.6959
26.6932
26.6905
26.6879
26.6852
26.6826
26.6799
26.6773
26.6747
26.6721
26.6696
26.667
26.6644
26.6619
26.6594
26.6569
26.6543
26.6518
26.6494
26.6469
26.6444
26.642
26.6395
26.6371
26.6347
26.6322
26.6298
26.6274
26.6251
26.6227
26.6203
26.6179
26.6156
26.6133
26.6109
26.6086
26.6063
26.604
26.6017
26.5994
26.5971
26.5948
26.5925
26.5903
26.588
26.5858
26.5835
26.5813
26.5791
26.5768
26.5746
26.5724
26.5702
26.568
26.5658
26.5637
26.5615
26.5593
26.5572
26.555
26.5529
26.5507
26.5486
26.5464
26.5443
26.5422
26.5401
26.538
26.5359
26.5338
26.5317
26.5296
26.5275
26.5254
26.5234
26.5213
26.5192
26.5172
26.5151
26.5131
26.511
26.509
26.507
26.5049
26.5029
26.5009
26.4989
26.4969
26.4949
26.4929
26.4909
26.4889
26.4869
26.4849
26.4829
26.481
26.479
26.477
26.4751
26.4731
26.4711
26.4692
26.4672
26.4653
26.4634
26.4614
26.4595
26.4576
26.4556
26.4537
26.4518
26.4499
26.448
26.4461
26.4442
26.4423
26.4404
26.4385
26.4366
26.4347
26.4328
26.4309
26.429
26.4272
26.4253
26.4234
26.4216
26.4197
26.4178
26.416
26.4141
26.4123
26.4104
26.4086
26.4067
26.4049
26.4031
26.4012
26.3994
26.3976
26.3957
26.3939
26.3921
26.3903
26.3885
26.3866
26.3848
26.383
26.3812
26.3794
26.3776
26.3758
26.374
26.3722
26.3704
26.3686
26.3669
26.3651
26.3633
26.3615
26.3597
26.358
26.3562
26.3544
26.3526
26.3509
26.3491
26.3473
26.3456
26.3438
26.3421
26.3403
26.3386
26.3368
26.3351
26.3333
26.3316
26.3298
26.3281
26.3264
26.3246
26.3229
26.3212
26.3194
26.3177
26.316
26.3143
26.3125
26.3108
26.3091
26.3074
26.3057
26.304
26.3023
26.3005
26.2988
26.2971
26.2954
26.2937
26.292
26.2903
26.2887
26.287
26.2853
26.2836
26.2819
26.2802
26.2785
26.2769
26.2752
26.2735
26.2718
26.2701
26.2685
26.2668
26.2651
26.2635
26.2618
26.2601
26.2585
26.2568
26.2552
26.2535
26.2518
26.2502
26.2485
26.2469
26.2452
26.2436
26.2419
26.2403
26.2386
26.237
26.2354
26.2337
26.2321
26.2304
26.2288
26.2272
26.2255
26.2239
26.2223
26.2206
26.219
26.2174
26.2158
26.2141
26.2125
26.2109
26.2093
26.2076
26.206
26.2044
26.2028
26.2012
26.1995
26.1979
26.1963
26.1947
26.1931
26.1915
26.1898
26.1882
26.1866
26.185
26.1834
26.1818
26.1802
26.1786
26.177
26.1754
26.1737
26.1721
26.1705
26.1689
26.1673
26.1657
26.1641
26.1625
26.1609
26.1593
26.1577
26.1561
26.1545
26.1529
26.1513
26.1497
26.1481
26.1465
26.1449
26.1433
26.1417
26.1401
26.1385
26.1369
26.1353
26.1337
26.1321
26.1305
26.1289
26.1273
26.1257
26.1241
26.1225
26.1209
26.1193
26.1177
26.1161
26.1145
26.1129
26.1113
26.1097
26.1081
26.1066
26.105
26.1034
26.1018
26.1002
26.0986
26.097
26.0954
26.0938
26.0922
26.0906
26.089
26.0874
26.0858
26.0842
26.0826
26.081
26.0794
26.0778
26.0762
26.0746
26.073
26.0714
26.0699
26.0683
26.0667
26.0651
26.0635
26.0619
26.0603
26.0587
26.0571
26.0555
26.0539
26.0523
26.0507
26.0491
26.0475
26.0459
26.0443
26.0427
26.0411
26.0396
26.038
26.0364
26.0348
26.0332
26.0316
26.03
26.0284
26.0268
26.0252
26.0236
26.022
26.0204
26.0188
26.0172
26.0156
26.014
26.0124
26.0109
26.0093
26.0077
26.0061
26.0045
26.0029
26.0013
25.9997
25.9981
25.9965
25.9949
25.9933
25.9917
25.9901
25.9885
25.9869
25.9853
25.9838
25.9822
25.9806
25.979
25.9774
25.9758
25.9742
25.9726
25.971
25.9694
25.9678
25.9662
25.9646
25.963
25.9614
25.9599
25.9583
25.9567
25.9551
25.9535
25.9519
25.9503
25.9487
25.9471
25.9455
25.9439
25.9423
25.9407
25.9391
25.9375
25.936
25.9344
25.9328
25.9312
25.9296
25.928
25.9264
25.9248
25.9232
25.9216
25.92
25.9184
25.9168
25.9153
25.9137
25.9121
25.9105
25.9089
25.9073
25.9057
25.9041
25.9025
25.9009
25.8993
25.8977
25.8961
25.8946
25.893
25.8914
25.8898
25.8882
25.8866
25.885
25.8834
25.8818
25.8802
25.8786
25.877
25.8754
25.8739
25.8723
25.8707
25.8691
25.8675
25.8659
25.8643
25.8627
25.8611
25.8595
25.8579
25.8563
25.8548
25.8532
25.8516
25.85
25.8484
25.8468
25.8452
25.8436
25.842
25.8404
25.8388
25.8372
25.8357
25.8341
25.8325
25.8309
25.8293
25.8277
25.8261
25.8245
25.8229
25.8213
25.8197
25.8182
25.8166
25.815
25.8134
25.8118
25.8102
25.8086
25.807
25.8054
25.8038
25.8022
25.8007
25.7991
25.7975
25.7959
25.7943
25.7927
25.7911
25.7895
25.7879
25.7863
25.7848
25.7832
25.7816
25.78
25.7784
25.7768
25.7752
25.7736
25.772
25.7704
25.7688
25.7673
25.7657
25.7641
25.7625
25.7609
25.7593
25.7577
25.7561
25.7545
25.753
25.7514
25.7498
25.7482
25.7466
25.745
25.7434
25.7418
25.7402
25.7386
25.7371
25.7355
25.7339
25.7323
25.7307
25.7291
25.7275
25.7259
25.7243
25.7227
25.7212
25.7196
25.718
25.7164
25.7148
25.7132
25.7116
25.71
25.7084
25.7069
25.7053
25.7037
25.7021
25.7005
25.6989
25.6973
25.6957
25.6941
25.6926
25.691
25.6894
25.6878
25.6862
25.6846
25.683
25.6814
25.6798
25.6783
25.6767
25.6751
25.6735
25.6719
25.6703
25.6687
25.6671
25.6656
25.664
25.6624
25.6608
25.6592
25.6576
25.656
25.6544
25.6528
25.6513
25.6497
25.6481
25.6465
25.6449
25.6433
25.6417
25.6401
25.6386
25.637
25.6354
25.6338
25.6322
25.6306
25.629
25.6274
25.6258
25.6243
25.6227
25.6211
25.6195
25.6179
25.6163
25.6147
25.6131
25.6116
25.61
25.6084
25.6068
25.6052
25.6036
25.602
25.6004
25.5989
25.5973
25.5957
25.5941
25.5925
25.5909
25.5893
25.5878
25.5862
25.5846
25.583
25.5814
25.5798
25.5782
25.5766
25.5751
25.5735
25.5719
25.5703
25.5687
25.5671
25.5655
25.5639
25.5624
25.5608
25.5592
25.5576
25.556
25.5544
25.5528
25.5513
25.5497
25.5481
25.5465
25.5449
25.5433
25.5417
25.5402
25.5386
25.537
25.5354
25.5338
25.5322
25.5306
25.529
25.5275
25.5259
25.5243
25.5227
25.5211
25.5195
25.5179
25.5164
25.5148
25.5132
25.5116
25.51
25.5084
25.5068
25.5053
25.5037
25.5021
25.5005
25.4989
25.4973
25.4957
25.4942
25.4926
25.491
25.4894
25.4878
25.4862
25.4846
25.4831
25.4815
25.4799
25.4783
25.4767
25.4751
25.4736
25.472
25.4704
25.4688
25.4672
25.4656
25.464
25.4625
25.4609
25.4593
25.4577
25.4577
28.2125
28.2125
27.3281
27.0948
27.0263
26.9964
26.9788
26.9663
26.9566
26.9484
26.9413
26.9348
26.9288
26.9231
26.9178
26.9126
26.9076
26.9027
26.898
26.8933
26.8888
26.8843
26.8799
26.8755
26.8712
26.867
26.8628
26.8587
26.8547
26.8506
26.8467
26.8427
26.8389
26.835
26.8312
26.8275
26.8238
26.8201
26.8165
26.8129
26.8093
26.8058
26.8023
26.7988
26.7954
26.792
26.7886
26.7853
26.782
26.7787
26.7754
26.7722
26.769
26.7658
26.7627
26.7596
26.7565
26.7534
26.7503
26.7473
26.7443
26.7413
26.7383
26.7354
26.7324
26.7295
26.7266
26.7238
26.7209
26.7181
26.7152
26.7124
26.7096
26.7069
26.7041
26.7014
26.6986
26.6959
26.6932
26.6906
26.6879
26.6852
26.6826
26.68
26.6773
26.6747
26.6721
26.6696
26.667
26.6645
26.6619
26.6594
26.6569
26.6543
26.6519
26.6494
26.6469
26.6444
26.642
26.6395
26.6371
26.6347
26.6322
26.6298
26.6274
26.6251
26.6227
26.6203
26.618
26.6156
26.6133
26.6109
26.6086
26.6063
26.604
26.6017
26.5994
26.5971
26.5948
26.5925
26.5903
26.588
26.5858
26.5835
26.5813
26.5791
26.5768
26.5746