# vtk DataFile Version 2.0
FlowField
ASCII
DATASET STRUCTURED_GRID
DIMENSIONS 800 1 200
POINTS 160000 float
0 0 0
0.04 0 0
0.08 0 0
0.12 0 0
0.16 0 0
0.2 0 0
0.24 0 0
0.28 0 0
0.32 0 0
0.36 0 0
0.4 0 0
0.44 0 0
0.48 0 0
0.52 0 0
0.56 0 0
0.6 0 0
0.64 0 0
0.68 0 0
0.72 0 0
0.76 0 0
0.8 0 0
0.84 0 0
0.88 0 0
0.92 0 0
0.96 0 0
1 0 0
1.04 0 0
1.08 0 0
1.12 0 0
1.16 0 0
1.2 0 0
1.24 0 0
1.28 0 0
1.32 0 0
1.36 0 0
1.4 0 0
1.44 0 0
1.48 0 0
1.52 0 0
1.56 0 0
1.6 0 0
1.64 0 0
1.68 0 0
1.72 0 0
1.76 0 0
1.8 0 0
1.84 0 0
1.88 0 0
1.92 0 0
1.96 0 0
2 0 0
2.04 0 0
2.08 0 0
2.12 0 0
2.16 0 0
2.2 0 0
2.24 0 0
2.28 0 0
2.32 0 0
2.36 0 0
2.4 0 0
2.44 0 0
2.48 0 0
2.52 0 0
2.56 0 0
2.6 0 0
2.64 0 0
2.68 0 0
2.72 0 0
2.76 0 0
2.8 0 0
2.84 0 0
2.88 0 0
2.92 0 0
2.96 0 0
3 0 0
3.04 0 0
3.08 0 0
3.12 0 0
3.16 0 0
3.2 0 0
3.24 0 0
3.28 0 0
3.32 0 0
3.36 0 0
3.4 0 0
3.44 0 0
3.48 0 0
3.52 0 0
3.56 0 0
3.6 0 0
3.64 0 0
3.68 0 0
3.72 0 0
3.76 0 0
3.8 0 0
3.84 0 0
3.88 0 0
3.92 0 0
3.96 0 0
4 0 0
4.04 0 0
4.08 0 0
4.12 0 0
4.16 0 0
4.2 0 0
4.24 0 0
4.28 0 0
4.32 0 0
4.36 0 0
4.4 0 0
4.44 0 0
4.48 0 0
4.52 0 0
4.56 0 0
4.6 0 0
4.64 0 0
4.68 0 0
4.72 0 0
4.76 0 0
4.8 0 0
4.84 0 0
4.88 0 0
4.92 0 0
4.96 0 0
5 0 0
5.04 0 0
5.08 0 0
5.12 0 0
5.16 0 0
5.2 0 0
5.24 0 0
5.28 0 0
5.32 0 0
5.36 0 0
5.4 0 0
5.44 0 0
5.48 0 0
5.52 0 0
5.56 0 0
5.6 0 0
5.64 0 0
5.68 0 0
5.72 0 0
5.76 0 0
5.8 0 0
5.84 0 0
5.88 0 0
5.92 0 0
5.96 0 0
6 0 0
6.04 0 0
6.08 0 0
6.12 0 0
6.16 0 0
6.2 0 0
6.24 0 0
6.28 0 0
6.32 0 0
6.36 0 0
6.4 0 0
6.44 0 0
6.48 0 0
6.52 0 0
6.56 0 0
6.6 0 0
6.64 0 0
6.68 0 0
6.72 0 0
6.76 0 0
6.8 0 0
6.84 0 0
6.88 0 0
6.92 0 0
6.96 0 0
7 0 0
7.04 0 0
7.08 0 0
7.12 0 0
7.16 0 0
7.2 0 0
7.24 0 0
7.28 0 0
7.32 0 0
7.36 0 0
7.4 0 0
7.44 0 0
7.48 0 0
7.52 0 0
7.56 0 0
7.6 0 0
7.64 0 0
7.68 0 0
7.72 0 0
7.76 0 0
7.8 0 0
7.84 0 0
7.88 0 0
7.92 0 0
7.96 0 0
8 0 0
8.04 0 0
8.08 0 0
8.12 0 0
8.16 0 0
8.2 0 0
8.24 0 0
8.28 0 0
8.32 0 0
8.36 0 0
8.4 0 0
8.44 0 0
8.48 0 0
8.52 0 0
8.56 0 0
8.6 0 0
8.64 0 0
8.68 0 0
8.72 0 0
8.76 0 0
8.8 0 0
8.84 0 0
8.88 0 0
8.92 0 0
8.96 0 0
9 0 0
9.04 0 0
9.08 0 0
9.12 0 0
9.16 0 0
9.2 0 0
9.24 0 0
9.28 0 0
9.32 0 0
9.36 0 0
9.4 0 0
9.44 0 0
9.48 0 0
9.52 0 0
9.56 0 0
9.6 0 0
9.64 0 0
9.68 0 0
9.72 0 0
9.76 0 0
9.8 0 0
9.84 0 0
9.88 0 0
9.92 0 0
9.96 0 0
10 0 0
10.04 0 0
10.08 0 0
10.12 0 0
10.16 0 0
10.2 0 0
10.24 0 0
10.28 0 0
10.32 0 0
10.36 0 0
10.4 0 0
10.44 0 0
10.48 0 0
10.52 0 0
10.56 0 0
10.6 0 0
10.64 0 0
10.68 0 0
10.72 0 0
10.76 0 0
10.8 0 0
10.84 0 0
10.88 0 0
10.92 0 0
10.96 0 0
11 0 0
11.04 0 0
11.08 0 0
11.12 0 0
11.16 0 0
11.2 0 0
11.24 0 0
11.28 0 0
11.32 0 0
11.36 0 0
11.4 0 0
11.44 0 0
11.48 0 0
11.52 0 0
11.56 0 0
11.6 0 0
11.64 0 0
11.68 0 0
11.72 0 0
11.76 0 0
11.8 0 0
11.84 0 0
11.88 0 0
11.92 0 0
11.96 0 0
12 0 0
12.04 0 0
12.08 0 0
12.12 0 0
12.16 0 0
12.2 0 0
12.24 0 0
12.28 0 0
12.32 0 0
12.36 0 0
12.4 0 0
12.44 0 0
12.48 0 0
12.52 0 0
12.56 0 0
12.6 0 0
12.64 0 0
12.68 0 0
12.72 0 0
12.76 0 0
12.8 0 0
12.84 0 0
12.88 0 0
12.92 0 0
12.96 0 0
13 0 0
13.04 0 0
13.08 0 0
13.12 0 0
13.16 0 0
13.2 0 0
13.24 0 0
13.28 0 0
13.32 0 0
13.36 0 0
13.4 0 0
13.44 0 0
13.48 0 0
13.52 0 0
13.56 0 0
13.6 0 0
13.64 0 0
13.68 0 0
13.72 0 0
13.76 0 0
13.8 0 0
13.84 0 0
13.88 0 0
13.92 0 0
13.96 0 0
14 0 0
14.04 0 0
14.08 0 0
14.12 0 0
14.16 0 0
14.2 0 0
14.24 0 0
14.28 0 0
14.32 0 0
14.36 0 0
14.4 0 0
14.44 0 0
14.48 0 0
14.52 0 0
14.56 0 0
14.6 0 0
14.64 0 0
14.68 0 0
14.72 0 0
14.76 0 0
14.8 0 0
14.84 0 0
14.88 0 0
14.92 0 0
14.96 0 0
15 0 0
15.04 0 0
15.08 0 0
15.12 0 0
15.16 0 0
15.2 0 0
15.24 0 0
15.28 0 0
15.32 0 0
15.36 0 0
15.4 0 0
15.44 0 0
15.48 0 0
15.52 0 0
15.56 0 0
15.6 0 0
15.64 0 0
15.68 0 0
15.72 0 0
15.76 0 0
15.8 0 0
15.84 0 0
15.88 0 0
15.92 0 0
15.96 0 0
16 0 0
16.04 0 0
16.08 0 0
16.12 0 0
16.16 0 0
16.2 0 0
16.24 0 0
16.28 0 0
16.32 0 0
16.36 0 0
16.4 0 0
16.44 0 0
16.48 0 0
16.52 0 0
16.56 0 0
16.6 0 0
16.64 0 0
16.68 0 0
16.72 0 0
16.76 0 0
16.8 0 0
16.84 0 0
16.88 0 0
16.92 0 0
16.96 0 0
17 0 0
17.04 0 0
17.08 0 0
17.12 0 0
17.16 0 0
17.2 0 0
17.24 0 0
17.28 0 0
17.32 0 0
17.36 0 0
17.4 0 0
17.44 0 0
17.48 0 0
17.52 0 0
17.56 0 0
17.6 0 0
17.64 0 0
17.68 0 0
17.72 0 0
17.76 0 0
17.8 0 0
17.84 0 0
17.88 0 0
17.92 0 0
17.96 0 0
18 0 0
18.04 0 0
18.08 0 0
18.12 0 0
18.16 0 0
18.2 0 0
18.24 0 0
18.28 0 0
18.32 0 0
18.36 0 0
18.4 0 0
18.44 0 0
18.48 0 0
18.52 0 0
18.56 0 0
18.6 0 0
18.64 0 0
18.68 0 0
18.72 0 0
18.76 0 0
18.8 0 0
18.84 0 0
18.88 0 0
18.92 0 0
18.96 0 0
19 0 0
19.04 0 0
19.08 0 0
19.12 0 0
19.16 0 0
19.2 0 0
19.24 0 0
19.28 0 0
19.32 0 0
19.36 0 0
19.4 0 0
19.44 0 0
19.48 0 0
19.52 0 0
19.56 0 0
19.6 0 0
19.64 0 0
19.68 0 0
19.72 0 0
19.76 0 0
19.8 0 0
19.84 0 0
19.88 0 0
19.92 0 0
19.96 0 0
20 0 0
20.04 0 0
20.08 0 0
20.12 0 0
20.16 0 0
20.2 0 0
20.24 0 0
20.28 0 0
20.32 0 0
20.36 0 0
20.4 0 0
20.44 0 0
20.48 0 0
20.52 0 0
20.56 0 0
20.6 0 0
20.64 0 0
20.68 0 0
20.72 0 0
20.76 0 0
20.8 0 0
20.84 0 0
20.88 0 0
20.92 0 0
20.96 0 0
21 0 0
21.04 0 0
21.08 0 0
21.12 0 0
21.16 0 0
21.2 0 0
21.24 0 0
21.28 0 0
21.32 0 0
21.36 0 0
21.4 0 0
21.44 0 0
21.48 0 0
21.52 0 0
21.56 0 0
21.6 0 0
21.64 0 0
21.68 0 0
21.72 0 0
21.76 0 0
21.8 0 0
21.84 0 0
21.88 0 0
21.92 0 0
21.96 0 0
22 0 0
22.04 0 0
22.08 0 0
22.12 0 0
22.16 0 0
22.2 0 0
22.24 0 0
22.28 0 0
22.32 0 0
22.36 0 0
22.4 0 0
22.44 0 0
22.48 0 0
22.52 0 0
22.56 0 0
22.6 0 0
22.64 0 0
22.68 0 0
22.72 0 0
22.76 0 0
22.8 0 0
22.84 0 0
22.88 0 0
22.92 0 0
22.96 0 0
23 0 0
23.04 0 0
23.08 0 0
23.12 0 0
23.16 0 0
23.2 0 0
23.24 0 0
23.28 0 0
23.32 0 0
23.36 0 0
23.4 0 0
23.44 0 0
23.48 0 0
23.52 0 0
23.56 0 0
23.6 0 0
23.64 0 0
23.68 0 0
23.72 0 0
23.76 0 0
23.8 0 0
23.84 0 0
23.88 0 0
23.92 0 0
23.96 0 0
24 0 0
24.04 0 0
24.08 0 0
24.12 0 0
24.16 0 0
24.2 0 0
24.24 0 0
24.28 0 0
24.32 0 0
24.36 0 0
24.4 0 0
24.44 0 0
24.48 0 0
24.52 0 0
24.56 0 0
24.6 0 0
24.64 0 0
24.68 0 0
24.72 0 0
24.76 0 0
24.8 0 0
24.84 0 0
24.88 0 0
24.92 0 0
24.96 0 0
25 0 0
25.04 0 0
25.08 0 0
25.12 0 0
25.16 0 0
25.2 0 0
25.24 0 0
25.28 0 0
25.32 0 0
25.36 0 0
25.4 0 0
25.44 0 0
25.48 0 0
25.52 0 0
25.56 0 0
25.6 0 0
25.64 0 0
25.68 0 0
25.72 0 0
25.76 0 0
25.8 0 0
25.84 0 0
25.88 0 0
25.92 0 0
25.96 0 0
26 0 0
26.04 0 0
26.08 0 0
26.12 0 0
26.16 0 0
26.2 0 0
26.24 0 0
26.28 0 0
26.32 0 0
26.36 0 0
26.4 0 0
26.44 0 0
26.48 0 0
26.52 0 0
26.56 0 0
26.6 0 0
26.64 0 0
26.68 0 0
26.72 0 0
26.76 0 0
26.8 0 0
26.84 0 0
26.88 0 0
26.92 0 0
26.96 0 0
27 0 0
27.04 0 0
27.08 0 0
27.12 0 0
27.16 0 0
27.2 0 0
27.24 0 0
27.28 0 0
27.32 0 0
27.36 0 0
27.4 0 0
27.44 0 0
27.48 0 0
27.52 0 0
27.56 0 0
27.6 0 0
27.64 0 0
27.68 0 0
27.72 0 0
27.76 0 0
27.8 0 0
27.84 0 0
27.88 0 0
27.92 0 0
27.96 0 0
28 0 0
28.04 0 0
28.08 0 0
28.12 0 0
28.16 0 0
28.2 0 0
28.24 0 0
28.28 0 0
28.32 0 0
28.36 0 0
28.4 0 0
28.44 0 0
28.48 0 0
28.52 0 0
28.56 0 0
28.6 0 0
28.64 0 0
28.68 0 0
28.72 0 0
28.76 0 0
28.8 0 0
28.84 0 0
28.88 0 0
28.92 0 0
28.96 0 0
29 0 0
29.04 0 0
29.08 0 0
29.12 0 0
29.16 0 0
29.2 0 0
29.24 0 0
29.28 0 0
29.32 0 0
29.36 0 0
29.4 0 0
29.44 0 0
29.48 0 0
29.52 0 0
29.56 0 0
29.6 0 0
29.64 0 0
29.68 0 0
29.72 0 0
29.76 0 0
29.8 0 0
29.84 0 0
29.88 0 0
29.92 0 0
29.96 0 0
30 0 0
30.04 0 0
30.08 0 0
30.12 0 0
30.16 0 0
30.2 0 0
30.24 0 0
30.28 0 0
30.32 0 0
30.36 0 0
30.4 0 0
30.44 0 0
30.48 0 0
30.52 0 0
30.56 0 0
30.6 0 0
30.64 0 0
30.68 0 0
30.72 0 0
30.76 0 0
30.8 0 0
30.84 0 0
30.88 0 0
30.92 0 0
30.96 0 0
31 0 0
31.04 0 0
31.08 0 0
31.12 0 0
31.16 0 0
31.2 0 0
31.24 0 0
31.28 0 0
31.32 0 0
31.36 0 0
31.4 0 0
31.44 0 0
31.48 0 0
31.52 0 0
31.56 0 0
31.6 0 0
31.64 0 0
31.68 0 0
31.72 0 0
31.76 0 0
31.8 0 0
31.84 0 0
31.88 0 0
31.92 0 0
31.96 0 0
0 0.005 0
0.04 0.005 0
0.08 0.005 0
0.12 0.005 0
0.16 0.005 0
0.2 0.005 0
0.24 0.005 0
0.28 0.005 0
0.32 0.005 0
0.36 0.005 0
0.4 0.005 0
0.44 0.005 0
0.48 0.005 0
0.52 0.005 0
0.56 0.005 0
0.6 0.005 0
0.64 0.005 0
0.68 0.005 0
0.72 0.005 0
0.76 0.005 0
0.8 0.005 0
0.84 0.005 0
0.88 0.005 0
0.92 0.005 0
0.96 0.005 0
1 0.005 0
1.04 0.005 0
1.08 0.005 0
1.12 0.005 0
1.16 0.005 0
1.2 0.005 0
1.24 0.005 0
1.28 0.005 0
1.32 0.005 0
1.36 0.005 0
1.4 0.005 0
1.44 0.005 0
1.48 0.005 0
1.52 0.005 0
1.56 0.005 0
1.6 0.005 0
1.64 0.005 0
1.68 0.005 0
1.72 0.005 0
1.76 0.005 0
1.8 0.005 0
1.84 0.005 0
1.88 0.005 0
1.92 0.005 0
1.96 0.005 0
2 0.005 0
2.04 0.005 0
2.08 0.005 0
2.12 0.005 0
2.16 0.005 0
2.2 0.005 0
2.24 0.005 0
2.28 0.005 0
2.32 0.005 0
2.36 0.005 0
2.4 0.005 0
2.44 0.005 0
2.48 0.005 0
2.52 0.005 0
2.56 0.005 0
2.6 0.005 0
2.64 0.005 0
2.68 0.005 0
2.72 0.005 0
2.76 0.005 0
2.8 0.005 0
2.84 0.005 0
2.88 0.005 0
2.92 0.005 0
2.96 0.005 0
3 0.005 0
3.04 0.005 0
3.08 0.005 0
3.12 0.005 0
3.16 0.005 0
3.2 0.005 0
3.24 0.005 0
3.28 0.005 0
3.32 0.005 0
3.36 0.005 0
3.4 0.005 0
3.44 0.005 0
3.48 0.005 0
3.52 0.005 0
3.56 0.005 0
3.6 0.005 0
3.64 0.005 0
3.68 0.005 0
3.72 0.005 0
3.76 0.005 0
3.8 0.005 0
3.84 0.005 0
3.88 0.005 0
3.92 0.005 0
3.96 0.005 0
4 0.005 0
4.04 0.005 0
4.08 0.005 0
4.12 0.005 0
4.16 0.005 0
4.2 0.005 0
4.24 0.005 0
4.28 0.005 0
4.32 0.005 0
4.36 0.005 0
4.4 0.005 0
4.44 0.005 0
4.48 0.005 0
4.52 0.005 0
4.56 0.005 0
4.6 0.005 0
4.64 0.005 0
4.68 0.005 0
4.72 0.005 0
4.76 0.005 0
4.8 0.005 0
4.84 0.005 0
4.88 0.005 0
4.92 0.005 0
4.96 0.005 0
5 0.005 0
5.04 0.005 0
5.08 0.005 0
5.12 0.005 0
5.16 0.005 0
5.2 0.005 0
5.24 0.005 0
5.28 0.005 0
5.32 0.005 0
5.36 0.005 0
5.4 0.005 0
5.44 0.005 0
5.48 0.005 0
5.52 0.005 0
5.56 0.005 0
5.6 0.005 0
5.64 0.005 0
5.68 0.005 0
5.72 0.005 0
5.76 0.005 0
5.8 0.005 0
5.84 0.005 0
5.88 0.005 0
5.92 0.005 0
5.96 0.005 0
6 0.005 0
6.04 0.005 0
6.08 0.005 0
6.12 0.005 0
6.16 0.005 0
6.2 0.005 0
6.24 0.005 0
6.28 0.005 0
6.32 0.005 0
6.36 0.005 0
6.4 0.005 0
6.44 0.005 0
6.48 0.005 0
6.52 0.005 0
6.56 0.005 0
6.6 0.005 0
6.64 0.005 0
6.68 0.005 0
6.72 0.005 0
6.76 0.005 0
6.8 0.005 0
6.84 0.005 0
6.88 0.005 0
6.92 0.005 0
6.96 0.005 0
7 0.005 0
7.04 0.005 0
7.08 0.005 0
7.12 0.005 0
7.16 0.005 0
7.2 0.005 0
7.24 0.005 0
7.28 0.005 0
7.32 0.005 0
7.36 0.005 0
7.4 0.005 0
[...]
POINT_DATA 160000

SCALARS p float 1
LOOKUP_TABLE default
1
54.3321
52.1166
51.8618
51.8016
51.7752
51.7592
51.7476
51.7383
51.7305
51.7235
51.7172
51.7113
51.7057
51.7004
51.6953
51.6904
51.6855
51.6808
51.6762
51.6717
51.6672
51.6628
51.6585
51.6542
51.65
51.6458
51.6417
51.6376
51.6336
51.6297
51.6257
51.6219
51.618
51.6142
51.6105
51.6068
51.6031
51.5995
51.5959
51.5923
51.5888
51.5853
51.5818
51.5784
51.575
51.5717
51.5683
51.565
51.5617
51.5585
51.5553
51.5521
51.5489
51.5457
51.5426
51.5395
51.5364
51.5334
51.5303
51.5273
51.5243
51.5214
51.5184
51.5155
51.5126
51.5097
51.5068
51.5039
51.5011
51.4983
51.4955
51.4927
51.4899
51.4872
51.4844
51.4817
51.479
51.4763
51.4736
51.4709
51.4683
51.4656
51.463
51.4604
51.4578
51.4552
51.4526
51.45
51.4475
51.4449
51.4424
51.4399
51.4374
51.4349
51.4324
51.4299
51.4275
51.425
51.4225
51.4201
51.4177
51.4153
51.4129
51.4105
51.4081
51.4057
51.4033
51.401
51.3986
51.3963
51.3939
51.3916
51.3893
51.387
51.3847
51.3824
51.3801
51.3778
51.3756
51.3733
51.371
51.3688
51.3665
51.3643
51.3621
51.3599
51.3576
51.3554
51.3532
51.351
51.3489
51.3467
51.3445
51.3423
51.3402
51.338
51.3359
51.3337
51.3316
51.3294
51.3273
51.3252
51.3231
51.321
51.3189
51.3168
51.3147
51.3126
51.3105
51.3084
51.3064
51.3043
51.3022
51.3002
51.2981
51.2961
51.294
51.292
51.29
51.2879
51.2859
51.2839
51.2819
51.2799
51.2779
51.2759
51.2739
51.2719
51.2699
51.2679
51.2659
51.2639
51.262
51.26
51.258
51.2561
51.2541
51.2522
51.2502
51.2483
51.2463
51.2444
51.2425
51.2405
51.2386
51.2367
51.2348
51.2329
51.231
51.229
51.2271
51.2252
51.2233
51.2214
51.2196
51.2177
51.2158
51.2139
51.212
51.2101
51.2083
51.2064
51.2045
51.2027
51.2008
51.199
51.1971
51.1953
51.1934
51.1916
51.1897
51.1879
51.186
51.1842
51.1824
51.1805
51.1787
51.1769
51.1751
51.1732
51.1714
51.1696
51.1678
51.166
51.1642
51.1624
51.1606
51.1588
51.157
51.1552
51.1534
51.1516
51.1498
51.148
51.1463
51.1445
51.1427
51.1409
51.1391
51.1374
51.1356
51.1338
51.1321
51.1303
51.1285
51.1268
51.125
51.1233
51.1215
51.1197
51.118
51.1162
51.1145
51.1128
51.111
51.1093
51.1075
51.1058
51.1041
51.1023
51.1006
51.0989
51.0971
51.0954
51.0937
51.0919
51.0902
51.0885
51.0868
51.0851
51.0833
51.0816
51.0799
51.0782
51.0765
51.0748
51.0731
51.0714
51.0697
51.068
51.0663
51.0646
51.0629
51.0612
51.0595
51.0578
51.0561
51.0544
51.0527
51.051
51.0493
51.0476
51.046
51.0443
51.0426
51.0409
51.0392
51.0375
51.0359
51.0342
51.0325
51.0308
51.0292
51.0275
51.0258
51.0242
51.0225
51.0208
51.0191
51.0175
51.0158
51.0142
51.0125
51.0108
51.0092
51.0075
51.0059
51.0042
51.0025
51.0009
50.9992
50.9976
50.9959
50.9943
50.9926
50.991
50.9893
50.9877
50.986
50.9844
50.9827
50.9811
50.9794
50.9778
50.9762
50.9745
50.9729
50.9712
50.9696
50.968
50.9663
50.9647
50.9631
50.9614
50.9598
50.9582
50.9565
50.9549
50.9533
50.9516
50.95
50.9484
50.9467
50.9451
50.9435
50.9419
50.9402
50.9386
50.937
50.9354
50.9338
50.9321
50.9305
50.9289
50.9273
50.9256
50.924
50.9224
50.9208
50.9192
50.9176
50.9159
50.9143
50.9127
50.9111
50.9095
50.9079
50.9063
50.9047
50.903
50.9014
50.8998
50.8982
50.8966
50.895
50.8934
50.8918
50.8902
50.8886
50.887
50.8854
50.8838
50.8822
50.8806
50.8789
50.8773
50.8757
50.8741
50.8725
50.8709
50.8693
50.8677
50.8661
50.8645
50.8629
50.8613
50.8597
50.8582
50.8566
50.855
50.8534
50.8518
50.8502
50.8486
50.847
50.8454
50.8438
50.8422
50.8406
50.839
50.8374
50.8358
50.8342
50.8327
50.8311
50.8295
50.8279
50.8263
50.8247
50.8231
50.8215
50.8199
50.8183
50.8168
50.8152
50.8136
50.812
50.8104
50.8088
50.8072
50.8057
50.8041
50.8025
50.8009
50.7993
50.7977
50.7962
50.7946
50.793
50.7914
50.7898
50.7882
50.7867
50.7851
50.7835
50.7819
50.7803
50.7788
50.7772
50.7756
50.774
50.7724
50.7709
50.7693
50.7677
50.7661
50.7645
50.763
50.7614
50.7598
50.7582
50.7567
50.7551
50.7535
50.7519
50.7504
50.7488
50.7472
50.7456
50.7441
50.7425
50.7409
50.7393
50.7378
50.7362
50.7346
50.733
50.7315
50.7299
50.7283
50.7267
50.7252
50.7236
50.722
50.7205
50.7189
50.7173
50.7157
50.7142
50.7126
50.711
50.7095
50.7079
50.7063
50.7048
50.7032
50.7016
50.7
50.6985
50.6969
50.6953
50.6938
50.6922
50.6906
50.6891
50.6875
50.6859
50.6844
50.6828
50.6812
50.6797
50.6781
50.6765
50.675
50.6734
50.6718
50.6703
50.6687
50.6671
50.6656
50.664
50.6624
50.6609
50.6593
50.6577
50.6562
50.6546
50.653
50.6515
50.6499
50.6483
50.6468
50.6452
50.6437
50.6421
50.6405
50.639
50.6374
50.6358
50.6343
50.6327
50.6312
50.6296
50.628
50.6265
50.6249
50.6233
50.6218
50.6202
50.6187
50.6171
50.6155
50.614
50.6124
50.6108
50.6093
50.6077
50.6062
50.6046
50.603
50.6015
50.5999
50.5984
50.5968
50.5952
50.5937
50.5921
50.5906
50.589
50.5874
50.5859
50.5843
50.5828
50.5812
50.5796
50.5781
50.5765
50.575
50.5734
50.5718
50.5703
50.5687
50.5672
50.5656
50.5641
50.5625
50.5609
50.5594
50.5578
50.5563
50.5547
50.5531
50.5516
50.55
50.5485
50.5469
50.5454
50.5438
50.5422
50.5407
50.5391
50.5376
50.536
50.5345
50.5329
50.5313
50.5298
50.5282
50.5267
50.5251
50.5236
50.522
50.5205
50.5189
50.5173
50.5158
50.5142
50.5127
50.5111
50.5096
50.508
50.5065
50.5049
50.5033
50.5018
50.5002
50.4987
50.4971
50.4956
50.494
50.4925
50.4909
50.4894
50.4878
50.4862
50.4847
50.4831
50.4816
50.48
50.4785
50.4769
50.4754
50.4738
50.4723
50.4707
50.4692
50.4676
50.466
50.4645
50.4629
50.4614
50.4598
50.4583
50.4567
50.4552
50.4536
50.4521
50.4505
50.449
50.4474
50.4459
50.4443
50.4427
50.4412
50.4396
50.4381
50.4365
50.435
50.4334
50.4319
50.4303
50.4288
50.4272
50.4257
50.4241
50.4226
50.421
50.4195
50.4179
50.4164
50.4148
50.4133
50.4117
50.4102
50.4086
50.4071
50.4055
50.404
50.4024
50.4008
50.3993
50.3977
50.3962
50.3946
50.3931
50.3915
50.39
50.3884
50.3869
50.3853
50.3838
50.3822
50.3807
50.3791
50.3776
50.376
50.3745
50.3729
50.3714
50.3698
50.3683
50.3667
50.3652
50.3636
50.3621
50.3605
50.359
50.3574
50.3559
50.3543
50.3528
50.3512
50.3497
50.3481
50.3466
50.345
50.3435
50.3419
50.3404
50.3388
50.3373
50.3358
50.3342
50.3327
50.3311
50.3296
50.328
50.3265
50.3249
50.3234
50.3218
50.3203
50.3187
50.3172
50.3156
50.3141
50.3125
50.311
50.3094
50.3079
50.3063
50.3048
50.3032
50.3017
50.3001
50.2986
50.297
50.2955
50.2939
50.2924
50.2909
50.2893
50.2878
50.2862
50.2847
50.2831
50.2816
50.28
50.2785
50.2769
50.2754
50.2738
50.2723
50.2707
50.2692
50.2676
50.2661
50.2646
50.263
50.2615
50.2599
50.2584
50.2568
50.2553
50.2537
50.2522
50.2506
50.2491
1
54.3321
54.3321
52.1166
51.8618
51.8016
51.7752
51.7592
51.7476
51.7383
51.7305
51.7235
51.7172
51.7113
51.7057
51.7004
51.6953
51.6904
51.6855
51.6808
51.6762
51.6717
51.6672
51.6628
51.6585
51.6542
51.65
51.6458
51.6417
51.6376
51.6336
51.6297
51.6257
51.6219
51.618
51.6142
51.6105
51.6068
51.6031
51.5995
51.5959
51.5923
51.5888
51.5853
51.5818
51.5784
51.575
51.5717
51.5683
51.565
51.5617
51.5585
51.5553
51.5521
51.5489
51.5457
51.5426
51.5395
51.5364
51.5334
51.5303
51.5273
51.5243
51.5214
51.5184
51.5155
51.5126
51.5097
51.5068
51.5039
51.5011
51.4983
51.4955
51.4927
51.4899
51.4872
51.4844
51.4817
51.479
51.4763
51.4736
51.4709
51.4683
51.4656
51.463
51.4604
51.4578
51.4552
51.4526
51.45
51.4475
51.4449
51.4424
51.4399
51.4374
51.4349
51.4324
51.4299
51.4275
51.425
51.4225
51.4201
51.4177
51.4153
51.4129
51.4105
51.4081
51.4057
51.4033
51.401
51.3986
51.3963
51.3939
51.3916
51.3893
51.387
51.3847
51.3824
51.3801
51.3778
51.3756
51.3733
51.371
51.3688
51.3665
51.3643
51.3621
51.3599
51.3576
51.3554
51.3532
51.351
51.3489
51.3467
51.3445
51.3423
51.3402
51.338
51.3359
51.3337
51.3316
51.3294
51.3273
51.3252
51.3231
51.321
51.3189
51.3168
51.3147
51.3126
51.3105
51.3084
51.3064
51.3043
51.3022
51.3002
51.2981
51.2961
51.294
51.292
51.29
51.2879
51.2859
51.2839
51.2819
51.2799
51.2779
51.2759
51.2739
51.2719
51.2699
51.2679
51.2659
51.2639
51.262
51.26
51.258
51.2561
51.2541
51.2522
51.2502
51.2483
51.2463
51.2444
51.2425
51.2405
51.2386
51.2367
51.2348
51.2329
51.231
51.229
51.2271
51.2252
51.2233
51.2214
51.2196
51.2177
51.2158
51.2139
51.212
51.2101
51.2083
51.2064
51.2045
51.2027
51.2008
51.199
51.1971
51.1953
51.1934
51.1916
51.1897
51.1879
51.186
51.1842
51.1824
51.1805
51.1787
51.1769
51.1751
51.1732
51.1714
51.1696
51.1678
51.166
51.1642
51.1624
51.1606
51.1588
51.157
51.1552
51.1534
51.1516
51.1498
51.148
51.1463
51.1445
51.1427
51.1409
51.1391
51.1374
51.1356
51.1338
51.1321
51.1303
51.1285
51.1268
51.125
51.1233
51.1215
51.1197
51.118
51.1162
51.1145
51.1128
51.111
51.1093
51.1075
51.1058
51.1041
51.1023
51.1006
51.0989
51.0971
51.0954
51.0937
51.0919
51.0902
51.0885
51.0868
51.0851
51.0833
51.0816
51.0799
51.0782
51.0765
51.0748
51.0731
51.0714
51.0697
51.068
51.0663
51.0646
51.0629
51.0612
51.0595
51.0578
51.0561
51.0544
51.0527
51.051
51.0493
51.0476
51.046
51.0443
51.0426
51.0409
51.0392
51.0375
51.0359
51.0342
51.0325
51.0308
51.0292
51.0275
51.0258
51.0242
51.0225
51.0208
51.0191
51.0175
51.0158
51.0142
51.0125
51.0108
51.0092
51.0075
51.0059
51.0042
51.0025
51.0009
50.9992
50.9976
50.9959
50.9943
50.9926
50.991
50.9893
50.9877
50.986
50.9844
50.9827
50.9811
50.9794
50.9778
50.9762
50.9745
50.9729
50.9712
50.9696
50.968
50.9663
50.9647
50.9631
50.9614
50.9598
50.9582
50.9565
50.9549
50.9533
50.9516
50.95
50.9484
50.9467
50.9451
50.9435
50.9419
50.9402
50.9386
50.937
50.9354
50.9338
50.9321
50.9305
50.9289
50.9273
50.9256
50.924
50.9224
50.9208
50.9192
50.9176
50.9159
50.9143
50.9127
50.9111
50.9095
50.9079
50.9063
50.9047
50.903
50.9014
50.8998
50.8982
50.8966
50.895
50.8934
50.8918
50.8902
50.8886
50.887
50.8854
50.8838
50.8822
50.8806
50.8789
50.8773
50.8757
50.8741
50.8725
50.8709
50.8693
50.8677
50.8661
50.8645
50.8629
50.8613
50.8597
50.8582
50.8566
50.855
50.8534
50.8518
50.8502
50.8486
50.847
50.8454
50.8438
50.8422
50.8406
50.839
50.8374
50.8358
50.8342
50.8327
50.8311
50.8295
50.8279
50.8263
50.8247
50.8231
50.8215
50.8199
50.8183
50.8168
50.8152
50.8136
50.812
50.8104
50.8088
50.8072
50.8057
50.8041
50.8025
50.8009
50.7993
50.7977
50.7962
50.7946
50.793
50.7914
50.7898
50.7882
50.7867
50.7851
50.7835
50.7819
50.7803
50.7788
50.7772
50.7756
50.774
50.7724
50.7709
50.7693
50.7677
50.7661
50.7645
50.763
50.7614
50.7598
50.7582
50.7567
50.7551
50.7535
50.7519
50.7504
50.7488
50.7472
50.7456
50.7441
50.7425
50.7409
50.7393
50.7378
50.7362
50.7346
50.733
50.7315
50.7299
50.7283
50.7267
50.7252
50.7236
50.722
50.7205
50.7189
50.7173
50.7157
50.7142
50.7126
50.711
50.7095
50.7079
50.7063
50.7048
50.7032
50.7016
50.7
50.6985
50.6969
50.6953
50.6938
50.6922
50.6906
50.6891
50.6875
50.6859
50.6844
50.6828
50.6812
50.6797
50.6781
50.6765
50.675
50.6734
50.6718
50.6703
50.6687
50.6671
50.6656
50.664
50.6624
50.6609
50.6593
50.6577
50.6562
50.6546
50.653
50.6515
50.6499
50.6483
50.6468
50.6452
50.6437
50.6421
50.6405
50.639
50.6374
50.6358
50.6343
50.6327
50.6312
50.6296
50.628
50.6265
50.6249
50.6233
50.6218
50.6202
50.6187
50.6171
50.6155
50.614
50.6124
50.6108
50.6093
50.6077
50.6062
50.6046
50.603
50.6015
50.5999
50.5984
50.5968
50.5952
50.5937
50.5921
50.5906
50.589
50.5874
50.5859
50.5843
50.5828
50.5812
50.5796
50.5781
50.5765
50.575
50.5734
50.5718
50.5703
50.5687
50.5672
50.5656
50.5641
50.5625
50.5609
50.5594
50.5578
50.5563
50.5547
50.5531
50.5516
50.55
50.5485
50.5469
50.5454
50.5438
50.5422
50.5407
50.5391
50.5376
50.536
50.5345
50.5329
50.5313
50.5298
50.5282
50.5267
50.5251
50.5236
50.522
50.5205
50.5189
50.5173
50.5158
50.5142
50.5127
50.5111
50.5096
50.508
50.5065
50.5049
50.5033
50.5018
50.5002
50.4987
50.4971
50.4956
50.494
50.4925
50.4909
50.4894
50.4878
50.4862
50.4847
50.4831
50.4816
50.48
50.4785
50.4769
50.4754
50.4738
50.4723
50.4707
50.4692
50.4676
50.466
50.4645
50.4629
50.4614
50.4598
50.4583
50.4567
50.4552
50.4536
50.4521
50.4505
50.449
50.4474
50.4459
50.4443
50.4427
50.4412
50.4396
50.4381
50.4365
50.435
50.4334
50.4319
50.4303
50.4288
50.4272
50.4257
50.4241
50.4226
50.421
50.4195
50.4179
50.4164
50.4148
50.4133
50.4117
50.4102
50.4086
50.4071
50.4055
50.404
50.4024
50.4008
50.3993
50.3977
50.3962
50.3946
50.3931
50.3915
50.39
50.3884
50.3869
50.3853
50.3838
50.3822
50.3807
50.3791
50.3776
50.376
50.3745
50.3729
50.3714
50.3698
50.3683
50.3667
50.3652
50.3636
50.3621
50.3605
50.359
50.3574
50.3559
50.3543
50.3528
50.3512
50.3497
50.3481
50.3466
50.345
50.3435
50.3419
50.3404
50.3388
50.3373
50.3358
50.3342
50.3327
50.3311
50.3296
50.328
50.3265
50.3249
50.3234
50.3218
50.3203
50.3187
50.3172
50.3156
50.3141
50.3125
50.311
50.3094
50.3079
50.3063
50.3048
50.3032
50.3017
50.3001
50.2986
50.297
50.2955
50.2939
50.2924
50.2909
50.2893
50.2878
50.2862
50.2847
50.2831
50.2816
50.28
50.2785
50.2769
50.2754
50.2738
50.2723
50.2707
50.2692
50.2676
50.2661
50.2646
50.263
50.2615
50.2599
50.2584
50.2568
50.2553
50.2537
50.2522
50.2506
50.2491
50.2491
53.6851
53.6851
52.127
51.8713
51.8058
51.7774
51.7606
51.7485
51.739
51.731
51.724
51.7176
51.7116
51.706
51.7007
51.6955
51.6905
51.6857
51.681
51.6763
51.6718
51.6673
51.6629
51.6585
51.6543
51.65
51.6459
51.6418
51.6377
51.6337
51.6297
51.6258
51.6219
51.6181
51.6143
51.6105
51.6068
51.6032
51.5995
51.5959
51.5924
51.5888
51.5853
51.5819
51.5784
51.575
51.5717
51.5683
51.565
51.5618
51.5585
51.5553
51.5521
51.5489
51.5458
51.5426
51.5395
51.5365
51.5334
51.5304
51.5273
51.5244
51.5214
51.5184
51.5155
51.5126
51.5097
51.5068
51.504
51.5011
51.4983
51.4955
51.4927
51.4899
51.4872
51.4844
51.4817
51.479
51.4763
51.4736
51.4709
51.4683
51.4656
51.463
51.4604
51.4578
51.4552
51.4526
51.45
51.4475
51.4449
51.4424
51.4399
51.4374
51.4349
51.4324
51.4299
51.4275
51.425
51.4226
51.4201
51.4177
51.4153
51.4129
51.4105
51.4081
51.4057
51.4033
51.401
51.3986
51.3963
51.3939
51.3916
51.3893
51.387
51.3847
51.3824
51.3801
51.3778
51.3756
51.3733
51.371
51.3688
51.3665
51.3643
51.3621
51.3599
51.3577
51.3554
51.3532
51.351
51.3489
51.3467
51.3445
51.3423
51.3402
51.338
51.3359
51.3337
51.3316
51.3295
51.3273
51.3252
51.3231
51.321
51.3189
51.3168
51.3147
51.3126
51.3105
51.3084
51.3064
51.3043
51.3022
51.3002
51.2981
51.2961
51.294
51.292
51.29
51.2879
51.2859
51.2839
51.2819
51.2799
51.2779
51.2759
51.2739
51.2719
51.2699
51.2679
51.2659
51.264
51.262
51.26
51.2581
51.2561
51.2541
51.2522
51.2502
51.2483
51.2464
51.2444
51.2425
51.2406
51.2386
51.2367
51.2348
51.2329
51.231
51.2291
51.2271
51.2252
51.2234
51.2215
51.2196
51.2177
51.2158
51.2139
51.212
51.2102
51.2083
51.2064
51.2045
51.2027
51.2008
51.199
51.1971
51.1953
51.1934
51.1916
51.1897
51.1879
51.186
51.1842
51.1824
51.1805
51.1787
51.1769
51.1751
51.1733
51.1714
51.1696
51.1678
51.166
51.1642
51.1624
51.1606
51.1588
51.157
51.1552
51.1534
51.1516
51.1498
51.148
51.1463
51.1445
51.1427
51.1409
51.1391
51.1374
51.1356
51.1338
51.1321
51.1303
51.1285
51.1268
51.125
51.1233
51.1215
51.1198
51.118
51.1163
51.1145
51.1128
51.111
51.1093
51.1075
51.1058
51.1041
51.1023
51.1006
51.0989
51.0971
51.0954
51.0937
51.092
51.0902
51.0885
51.0868
51.0851
51.0834
51.0816
51.0799
51.0782
51.0765
51.0748
51.0731
51.0714
51.0697
51.068
51.0663
51.0646
51.0629
51.0612
51.0595
51.0578
51.0561
51.0544
51.0527
51.051
51.0493
51.0476
51.046
51.0443
51.0426
51.0409
51.0392
51.0375
51.0359
51.0342
51.0325
51.0308
51.0292
51.0275
51.0258
51.0242
51.0225
51.0208
51.0192
51.0175
51.0158
51.0142
51.0125
51.0108
51.0092
51.0075
51.0059
51.0042
51.0025
51.0009
50.9992
50.9976
50.9959
50.9943
50.9926
50.991
50.9893
50.9877
50.986
50.9844
50.9827
50.9811
50.9795
50.9778
50.9762
50.9745
50.9729
50.9712
50.9696
50.968
50.9663
50.9647
50.9631
50.9614
50.9598
50.9582
50.9565
50.9549
50.9533
50.9516
50.95
50.9484
50.9468
50.9451
50.9435
50.9419
50.9402
50.9386
50.937
50.9354
50.9338
50.9321
50.9305
50.9289
50.9273
50.9257
50.924
50.9224
50.9208
50.9192
50.9176
50.916
50.9143
50.9127
50.9111
50.9095
50.9079
50.9063
50.9047
50.9031
50.9014
50.8998
50.8982
50.8966
50.895
50.8934
50.8918
50.8902
50.8886
50.887
50.8854
50.8838
50.8822
50.8806
50.879
50.8773
50.8757
50.8741
50.8725
50.8709
50.8693
50.8677
50.8661
50.8645
50.8629
50.8613
50.8598
50.8582
50.8566
50.855
50.8534
50.8518
50.8502
50.8486
50.847
50.8454
50.8438
50.8422
50.8406
50.839
50.8374
50.8358
50.8342
50.8327
50.8311
50.8295
50.8279
50.8263
50.8247
50.8231
50.8215
50.8199
50.8184
50.8168
50.8152
50.8136
50.812
50.8104
50.8088
50.8072
50.8057
50.8041
50.8025
50.8009
50.7993
50.7977
50.7962
50.7946
50.793
50.7914
50.7898
50.7882
50.7867
50.7851
50.7835
50.7819
50.7803
50.7788
50.7772
50.7756
50.774
50.7724
50.7709
50.7693
50.7677
50.7661
50.7646
50.763
50.7614
50.7598
50.7582
50.7567
50.7551
50.7535
50.7519
50.7504
50.7488
50.7472
50.7456
50.7441
50.7425
50.7409
50.7393
50.7378
50.7362
50.7346
50.733
50.7315
50.7299
50.7283
50.7268
50.7252
50.7236
50.722
50.7205
50.7189
50.7173
50.7158
50.7142
50.7126
50.711
50.7095
50.7079
50.7063
50.7048
50.7032
50.7016
50.7
50.6985
50.6969
50.6953
50.6938
50.6922
50.6906
50.6891
50.6875
50.6859
50.6844
50.6828
50.6812
50.6797
50.6781
50.6765
50.675
50.6734
50.6718
50.6703
50.6687
50.6671
50.6656
50.664
50.6624
50.6609
50.6593
50.6577
50.6562
50.6546
50.653
50.6515
50.6499
50.6484
50.6468
50.6452
50.6437
50.6421
50.6405
50.639
50.6374
50.6358
50.6343
50.6327
50.6312
50.6296
50.628
50.6265
50.6249
50.6233
50.6218
50.6202
50.6187
50.6171
50.6155
50.614
50.6124
50.6108
50.6093
50.6077
50.6062
50.6046
50.603
50.6015
50.5999
50.5984
50.5968
50.5952
50.5937
50.5921
50.5906
50.589
50.5874
50.5859
50.5843
50.5828
50.5812
50.5796
50.5781
50.5765
50.575
50.5734
50.5719
50.5703
50.5687
50.5672
50.5656
50.5641
50.5625
50.5609
50.5594
50.5578
50.5563
50.5547
50.5532
50.5516
50.55
50.5485
50.5469
50.5454
50.5438
50.5423
50.5407
50.5391
50.5376
50.536
50.5345
50.5329
50.5314
50.5298
50.5282
50.5267
50.5251
50.5236
50.522
50.5205
50.5189
50.5173
50.5158
50.5142
50.5127
50.5111
50.5096
50.508
50.5065
50.5049
50.5034
50.5018
50.5002
50.4987
50.4971
50.4956
50.494
50.4925
50.4909
50.4894
50.4878
50.4862
50.4847
50.4831
50.4816
50.48
50.4785
50.4769
50.4754
50.4738
50.4723
50.4707
50.4692
50.4676
50.466
50.4645
50.4629
50.4614
50.4598
50.4583
50.4567
50.4552
50.4536
50.4521
50.4505
50.449
50.4474
50.4459
50.4443
50.4428
50.4412
50.4396
50.4381
50.4365
50.435
50.4334
50.4319
50.4303
50.4288
50.4272
50.4257
50.4241
50.4226
50.421
50.4195
50.4179
50.4164
50.4148
50.4133
50.4117
50.4102
50.4086
50.4071
50.4055
50.404
50.4024
50.4009
50.3993
50.3978
50.3962
50.3946
50.3931
50.3915
50.39
50.3884
50.3869
50.3853
50.3838
50.3822
50.3807
50.3791
50.3776
50.376
50.3745
50.3729
50.3714
50.3698
50.3683
50.3667
50.3652
50.3636
50.3621
50.3605
50.359
50.3574
50.3559
50.3543
50.3528
50.3512
50.3497
50.3481
50.3466
50.345
50.3435
50.342
50.3404
50.3389
50.3373
50.3358
50.3342
50.3327
50.3311
50.3296
50.328
50.3265
50.3249
50.3234
50.3218
50.3203
50.3187
50.3172
50.3156
50.3141
50.3125
50.311
50.3094
50.3079
50.3063
50.3048
50.3032
50.3017
50.3001
50.2986
50.297
50.2955
50.294
50.2924
50.2909
50.2893
50.2878
50.2862
50.2847
50.2831
50.2816
50.28
50.2785
50.2769
50.2754
50.2738
50.2723
50.2707
50.2692
50.2676
50.2661
50.2646
50.263
50.2615
50.2599
50.2584
50.2568
50.2553
50.2537
50.2522
50.2506
50.2491
50.2491
52.9956
52.9956
52.1112
51.878
51.8094
51.7795
51.7619
51.7495
51.7397
51.7316
51.7244
51.7179
51.7119
51.7062
51.7009
51.6957
51.6907
51.6858
51.6811
51.6764
51.6719
51.6674
51.663
51.6586
51.6543
51.6501
51.6459
51.6418
51.6378
51.6337
51.6298
51.6258
51.622
51.6181
51.6143
51.6106
51.6069
51.6032
51.5996
51.596
51.5924
51.5889
51.5854
51.5819
51.5785
51.5751
51.5717
51.5684
51.5651
51.5618
51.5585
51.5553
51.5521
51.5489
51.5458
51.5426
51.5395
51.5365
51.5334
51.5304
51.5274
51.5244
51.5214
51.5184
51.5155
51.5126
51.5097
51.5068
51.504
51.5011
51.4983
51.4955
51.4927
51.4899
51.4872
51.4844
51.4817
51.479
51.4763
51.4736
51.4709
51.4683
51.4656
51.463
51.4604
51.4578
51.4552
51.4526
51.4501
51.4475
51.445
51.4424
51.4399
51.4374
51.4349
51.4324
51.4299
51.4275
51.425
51.4226
51.4201
51.4177
51.4153
51.4129
51.4105
51.4081
51.4057
51.4033
51.401
51.3986
51.3963
51.394
51.3916
51.3893
51.387
51.3847
51.3824
51.3801
51.3778
51.3756
51.3733
51.371
51.3688
51.3666
51.3643
51.3621
51.3599
51.3577
51.3554
51.3532
51.3511
51.3489