# vtk DataFile Version 2.0
FlowField
ASCII
DATASET STRUCTURED_GRID
DIMENSIONS 800 1 200
POINTS 160000 float
0 0 0
0.04 0 0
0.08 0 0
0.12 0 0
0.16 0 0
0.2 0 0
0.24 0 0
0.28 0 0
0.32 0 0
0.36 0 0
0.4 0 0
0.44 0 0
0.48 0 0
0.52 0 0
0.56 0 0
0.6 0 0
0.64 0 0
0.68 0 0
0.72 0 0
0.76 0 0
0.8 0 0
0.84 0 0
0.88 0 0
0.92 0 0
0.96 0 0
1 0 0
1.04 0 0
1.08 0 0
1.12 0 0
1.16 0 0
1.2 0 0
1.24 0 0
1.28 0 0
1.32 0 0
1.36 0 0
1.4 0 0
1.44 0 0
1.48 0 0
1.52 0 0
1.56 0 0
1.6 0 0
1.64 0 0
1.68 0 0
1.72 0 0
1.76 0 0
1.8 0 0
1.84 0 0
1.88 0 0
1.92 0 0
1.96 0 0
2 0 0
2.04 0 0
2.08 0 0
2.12 0 0
2.16 0 0
2.2 0 0
2.24 0 0
2.28 0 0
2.32 0 0
2.36 0 0
2.4 0 0
2.44 0 0
2.48 0 0
2.52 0 0
2.56 0 0
2.6 0 0
2.64 0 0
2.68 0 0
2.72 0 0
2.76 0 0
2.8 0 0
2.84 0 0
2.88 0 0
2.92 0 0
2.96 0 0
3 0 0
3.04 0 0
3.08 0 0
3.12 0 0
3.16 0 0
3.2 0 0
3.24 0 0
3.28 0 0
3.32 0 0
3.36 0 0
3.4 0 0
3.44 0 0
3.48 0 0
3.52 0 0
3.56 0 0
3.6 0 0
3.64 0 0
3.68 0 0
3.72 0 0
3.76 0 0
3.8 0 0
3.84 0 0
3.88 0 0
3.92 0 0
3.96 0 0
4 0 0
4.04 0 0
4.08 0 0
4.12 0 0
4.16 0 0
4.2 0 0
4.24 0 0
4.28 0 0
4.32 0 0
4.36 0 0
4.4 0 0
4.44 0 0
4.48 0 0
4.52 0 0
4.56 0 0
4.6 0 0
4.64 0 0
4.68 0 0
4.72 0 0
4.76 0 0
4.8 0 0
4.84 0 0
4.88 0 0
4.92 0 0
4.96 0 0
5 0 0
5.04 0 0
5.08 0 0
5.12 0 0
5.16 0 0
5.2 0 0
5.24 0 0
5.28 0 0
5.32 0 0
5.36 0 0
5.4 0 0
5.44 0 0
5.48 0 0
5.52 0 0
5.56 0 0
5.6 0 0
5.64 0 0
5.68 0 0
5.72 0 0
5.76 0 0
5.8 0 0
5.84 0 0
5.88 0 0
5.92 0 0
5.96 0 0
6 0 0
6.04 0 0
6.08 0 0
6.12 0 0
6.16 0 0
6.2 0 0
6.24 0 0
6.28 0 0
6.32 0 0
6.36 0 0
6.4 0 0
6.44 0 0
6.48 0 0
6.52 0 0
6.56 0 0
6.6 0 0
6.64 0 0
6.68 0 0
6.72 0 0
6.76 0 0
6.8 0 0
6.84 0 0
6.88 0 0
6.92 0 0
6.96 0 0
7 0 0
7.04 0 0
7.08 0 0
7.12 0 0
7.16 0 0
7.2 0 0
7.24 0 0
7.28 0 0
7.32 0 0
7.36 0 0
7.4 0 0
7.44 0 0
7.48 0 0
7.52 0 0
7.56 0 0
7.6 0 0
7.64 0 0
7.68 0 0
7.72 0 0
7.76 0 0
7.8 0 0
7.84 0 0
7.88 0 0
7.92 0 0
7.96 0 0
8 0 0
8.04 0 0
8.08 0 0
8.12 0 0
8.16 0 0
8.2 0 0
8.24 0 0
8.28 0 0
8.32 0 0
8.36 0 0
8.4 0 0
8.44 0 0
8.48 0 0
8.52 0 0
8.56 0 0
8.6 0 0
8.64 0 0
8.68 0 0
8.72 0 0
8.76 0 0
8.8 0 0
8.84 0 0
8.88 0 0
8.92 0 0
8.96 0 0
9 0 0
9.04 0 0
9.08 0 0
9.12 0 0
9.16 0 0
9.2 0 0
9.24 0 0
9.28 0 0
9.32 0 0
9.36 0 0
9.4 0 0
9.44 0 0
9.48 0 0
9.52 0 0
9.56 0 0
9.6 0 0
9.64 0 0
9.68 0 0
9.72 0 0
9.76 0 0
9.8 0 0
9.84 0 0
9.88 0 0
9.92 0 0
9.96 0 0
10 0 0
10.04 0 0
10.08 0 0
10.12 0 0
10.16 0 0
10.2 0 0
10.24 0 0
10.28 0 0
10.32 0 0
10.36 0 0
10.4 0 0
10.44 0 0
10.48 0 0
10.52 0 0
10.56 0 0
10.6 0 0
10.64 0 0
10.68 0 0
10.72 0 0
10.76 0 0
10.8 0 0
10.84 0 0
10.88 0 0
10.92 0 0
10.96 0 0
11 0 0
11.04 0 0
11.08 0 0
11.12 0 0
11.16 0 0
11.2 0 0
11.24 0 0
11.28 0 0
11.32 0 0
11.36 0 0
11.4 0 0
11.44 0 0
11.48 0 0
11.52 0 0
11.56 0 0
11.6 0 0
11.64 0 0
11.68 0 0
11.72 0 0
11.76 0 0
11.8 0 0
11.84 0 0
11.88 0 0
11.92 0 0
11.96 0 0
12 0 0
12.04 0 0
12.08 0 0
12.12 0 0
12.16 0 0
12.2 0 0
12.24 0 0
12.28 0 0
12.32 0 0
12.36 0 0
12.4 0 0
12.44 0 0
12.48 0 0
12.52 0 0
12.56 0 0
12.6 0 0
12.64 0 0
12.68 0 0
12.72 0 0
12.76 0 0
12.8 0 0
12.84 0 0
12.88 0 0
12.92 0 0
12.96 0 0
13 0 0
13.04 0 0
13.08 0 0
13.12 0 0
13.16 0 0
13.2 0 0
13.24 0 0
13.28 0 0
13.32 0 0
13.36 0 0
13.4 0 0
13.44 0 0
13.48 0 0
13.52 0 0
13.56 0 0
13.6 0 0
13.64 0 0
13.68 0 0
13.72 0 0
13.76 0 0
13.8 0 0
13.84 0 0
13.88 0 0
13.92 0 0
13.96 0 0
14 0 0
14.04 0 0
14.08 0 0
14.12 0 0
14.16 0 0
14.2 0 0
14.24 0 0
14.28 0 0
14.32 0 0
14.36 0 0
14.4 0 0
14.44 0 0
14.48 0 0
14.52 0 0
14.56 0 0
14.6 0 0
14.64 0 0
14.68 0 0
14.72 0 0
14.76 0 0
14.8 0 0
14.84 0 0
14.88 0 0
14.92 0 0
14.96 0 0
15 0 0
15.04 0 0
15.08 0 0
15.12 0 0
15.16 0 0
15.2 0 0
15.24 0 0
15.28 0 0
15.32 0 0
15.36 0 0
15.4 0 0
15.44 0 0
15.48 0 0
15.52 0 0
15.56 0 0
15.6 0 0
15.64 0 0
15.68 0 0
15.72 0 0
15.76 0 0
15.8 0 0
15.84 0 0
15.88 0 0
15.92 0 0
15.96 0 0
16 0 0
16.04 0 0
16.08 0 0
16.12 0 0
16.16 0 0
16.2 0 0
16.24 0 0
16.28 0 0
16.32 0 0
16.36 0 0
16.4 0 0
16.44 0 0
16.48 0 0
16.52 0 0
16.56 0 0
16.6 0 0
16.64 0 0
16.68 0 0
16.72 0 0
16.76 0 0
16.8 0 0
16.84 0 0
16.88 0 0
16.92 0 0
16.96 0 0
17 0 0
17.04 0 0
17.08 0 0
17.12 0 0
17.16 0 0
17.2 0 0
17.24 0 0
17.28 0 0
17.32 0 0
17.36 0 0
17.4 0 0
17.44 0 0
17.48 0 0
17.52 0 0
17.56 0 0
17.6 0 0
17.64 0 0
17.68 0 0
17.72 0 0
17.76 0 0
17.8 0 0
17.84 0 0
17.88 0 0
17.92 0 0
17.96 0 0
18 0 0
18.04 0 0
18.08 0 0
18.12 0 0
18.16 0 0
18.2 0 0
18.24 0 0
18.28 0 0
18.32 0 0
18.36 0 0
18.4 0 0
18.44 0 0
18.48 0 0
18.52 0 0
18.56 0 0
18.6 0 0
18.64 0 0
18.68 0 0
18.72 0 0
18.76 0 0
18.8 0 0
18.84 0 0
18.88 0 0
18.92 0 0
18.96 0 0
19 0 0
19.04 0 0
19.08 0 0
19.12 0 0
19.16 0 0
19.2 0 0
19.24 0 0
19.28 0 0
19.32 0 0
19.36 0 0
19.4 0 0
19.44 0 0
19.48 0 0
19.52 0 0
19.56 0 0
19.6 0 0
19.64 0 0
19.68 0 0
19.72 0 0
19.76 0 0
19.8 0 0
19.84 0 0
19.88 0 0
19.92 0 0
19.96 0 0
20 0 0
20.04 0 0
20.08 0 0
20.12 0 0
20.16 0 0
20.2 0 0
20.24 0 0
20.28 0 0
20.32 0 0
20.36 0 0
20.4 0 0
20.44 0 0
20.48 0 0
20.52 0 0
20.56 0 0
20.6 0 0
20.64 0 0
20.68 0 0
20.72 0 0
20.76 0 0
20.8 0 0
20.84 0 0
20.88 0 0
20.92 0 0
20.96 0 0
21 0 0
21.04 0 0
21.08 0 0
21.12 0 0
21.16 0 0
21.2 0 0
21.24 0 0
21.28 0 0
21.32 0 0
21.36 0 0
21.4 0 0
21.44 0 0
21.48 0 0
21.52 0 0
21.56 0 0
21.6 0 0
21.64 0 0
21.68 0 0
21.72 0 0
21.76 0 0
21.8 0 0
21.84 0 0
21.88 0 0
21.92 0 0
21.96 0 0
22 0 0
22.04 0 0
22.08 0 0
22.12 0 0
22.16 0 0
22.2 0 0
22.24 0 0
22.28 0 0
22.32 0 0
22.36 0 0
22.4 0 0
22.44 0 0
22.48 0 0
22.52 0 0
22.56 0 0
22.6 0 0
22.64 0 0
22.68 0 0
22.72 0 0
22.76 0 0
22.8 0 0
22.84 0 0
22.88 0 0
22.92 0 0
22.96 0 0
23 0 0
23.04 0 0
23.08 0 0
23.12 0 0
23.16 0 0
23.2 0 0
23.24 0 0
23.28 0 0
23.32 0 0
23.36 0 0
23.4 0 0
23.44 0 0
23.48 0 0
23.52 0 0
23.56 0 0
23.6 0 0
23.64 0 0
23.68 0 0
23.72 0 0
23.76 0 0
23.8 0 0
23.84 0 0
23.88 0 0
23.92 0 0
23.96 0 0
24 0 0
24.04 0 0
24.08 0 0
24.12 0 0
24.16 0 0
24.2 0 0
24.24 0 0
24.28 0 0
24.32 0 0
24.36 0 0
24.4 0 0
24.44 0 0
24.48 0 0
24.52 0 0
24.56 0 0
24.6 0 0
24.64 0 0
24.68 0 0
24.72 0 0
24.76 0 0
24.8 0 0
24.84 0 0
24.88 0 0
24.92 0 0
24.96 0 0
25 0 0
25.04 0 0
25.08 0 0
25.12 0 0
25.16 0 0
25.2 0 0
25.24 0 0
25.28 0 0
25.32 0 0
25.36 0 0
25.4 0 0
25.44 0 0
25.48 0 0
25.52 0 0
25.56 0 0
25.6 0 0
25.64 0 0
25.68 0 0
25.72 0 0
25.76 0 0
25.8 0 0
25.84 0 0
25.88 0 0
25.92 0 0
25.96 0 0
26 0 0
26.04 0 0
26.08 0 0
26.12 0 0
26.16 0 0
26.2 0 0
26.24 0 0
26.28 0 0
26.32 0 0
26.36 0 0
26.4 0 0
26.44 0 0
26.48 0 0
26.52 0 0
26.56 0 0
26.6 0 0
26.64 0 0
26.68 0 0
26.72 0 0
26.76 0 0
26.8 0 0
26.84 0 0
26.88 0 0
26.92 0 0
26.96 0 0
27 0 0
27.04 0 0
27.08 0 0
27.12 0 0
27.16 0 0
27.2 0 0
27.24 0 0
27.28 0 0
27.32 0 0
27.36 0 0
27.4 0 0
27.44 0 0
27.48 0 0
27.52 0 0
27.56 0 0
27.6 0 0
27.64 0 0
27.68 0 0
27.72 0 0
27.76 0 0
27.8 0 0
27.84 0 0
27.88 0 0
27.92 0 0
27.96 0 0
28 0 0
28.04 0 0
28.08 0 0
28.12 0 0
28.16 0 0
28.2 0 0
28.24 0 0
28.28 0 0
28.32 0 0
28.36 0 0
28.4 0 0
28.44 0 0
28.48 0 0
28.52 0 0
28.56 0 0
28.6 0 0
28.64 0 0
28.68 0 0
28.72 0 0
28.76 0 0
28.8 0 0
28.84 0 0
28.88 0 0
28.92 0 0
28.96 0 0
29 0 0
29.04 0 0
29.08 0 0
29.12 0 0
29.16 0 0
29.2 0 0
29.24 0 0
29.28 0 0
29.32 0 0
29.36 0 0
29.4 0 0
29.44 0 0
29.48 0 0
29.52 0 0
29.56 0 0
29.6 0 0
29.64 0 0
29.68 0 0
29.72 0 0
29.76 0 0
29.8 0 0
29.84 0 0
29.88 0 0
29.92 0 0
29.96 0 0
30 0 0
30.04 0 0
30.08 0 0
30.12 0 0
30.16 0 0
30.2 0 0
30.24 0 0
30.28 0 0
30.32 0 0
30.36 0 0
30.4 0 0
30.44 0 0
30.48 0 0
30.52 0 0
30.56 0 0
30.6 0 0
30.64 0 0
30.68 0 0
30.72 0 0
30.76 0 0
30.8 0 0
30.84 0 0
30.88 0 0
30.92 0 0
30.96 0 0
31 0 0
31.04 0 0
31.08 0 0
31.12 0 0
31.16 0 0
31.2 0 0
31.24 0 0
31.28 0 0
31.32 0 0
31.36 0 0
31.4 0 0
31.44 0 0
31.48 0 0
31.52 0 0
31.56 0 0
31.6 0 0
31.64 0 0
31.68 0 0
31.72 0 0
31.76 0 0
31.8 0 0
31.84 0 0
31.88 0 0
31.92 0 0
31.96 0 0
0 0.005 0
0.04 0.005 0
0.08 0.005 0
0.12 0.005 0
0.16 0.005 0
0.2 0.005 0
0.24 0.005 0
0.28 0.005 0
0.32 0.005 0
0.36 0.005 0
0.4 0.005 0
0.44 0.005 0
0.48 0.005 0
0.52 0.005 0
0.56 0.005 0
0.6 0.005 0
0.64 0.005 0
0.68 0.005 0
0.72 0.005 0
0.76 0.005 0
0.8 0.005 0
0.84 0.005 0
0.88 0.005 0
0.92 0.005 0
0.96 0.005 0
1 0.005 0
1.04 0.005 0
1.08 0.005 0
1.12 0.005 0
1.16 0.005 0
1.2 0.005 0
1.24 0.005 0
1.28 0.005 0
1.32 0.005 0
1.36 0.005 0
1.4 0.005 0
1.44 0.005 0
1.48 0.005 0
1.52 0.005 0
1.56 0.005 0
1.6 0.005 0
1.64 0.005 0
1.68 0.005 0
1.72 0.005 0
1.76 0.005 0
1.8 0.005 0
1.84 0.005 0
1.88 0.005 0
1.92 0.005 0
1.96 0.005 0
2 0.005 0
2.04 0.005 0
2.08 0.005 0
2.12 0.005 0
2.16 0.005 0
2.2 0.005 0
2.24 0.005 0
2.28 0.005 0
2.32 0.005 0
2.36 0.005 0
2.4 0.005 0
2.44 0.005 0
2.48 0.005 0
2.52 0.005 0
2.56 0.005 0
2.6 0.005 0
2.64 0.005 0
2.68 0.005 0
2.72 0.005 0
2.76 0.005 0
2.8 0.005 0
2.84 0.005 0
2.88 0.005 0
2.92 0.005 0
2.96 0.005 0
3 0.005 0
3.04 0.005 0
3.08 0.005 0
3.12 0.005 0
3.16 0.005 0
3.2 0.005 0
3.24 0.005 0
3.28 0.005 0
3.32 0.005 0
3.36 0.005 0
3.4 0.005 0
3.44 0.005 0
3.48 0.005 0
3.52 0.005 0
3.56 0.005 0
3.6 0.005 0
3.64 0.005 0
3.68 0.005 0
3.72 0.005 0
3.76 0.005 0
3.8 0.005 0
3.84 0.005 0
3.88 0.005 0
3.92 0.005 0
3.96 0.005 0
4 0.005 0
4.04 0.005 0
4.08 0.005 0
4.12 0.005 0
4.16 0.005 0
4.2 0.005 0
4.24 0.005 0
4.28 0.005 0
4.32 0.005 0
4.36 0.005 0
4.4 0.005 0
4.44 0.005 0
4.48 0.005 0
4.52 0.005 0
4.56 0.005 0
4.6 0.005 0
4.64 0.005 0
4.68 0.005 0
4.72 0.005 0
4.76 0.005 0
4.8 0.005 0
4.84 0.005 0
4.88 0.005 0
4.92 0.005 0
4.96 0.005 0
5 0.005 0
5.04 0.005 0
5.08 0.005 0
5.12 0.005 0
5.16 0.005 0
5.2 0.005 0
5.24 0.005 0
5.28 0.005 0
5.32 0.005 0
5.36 0.005 0
5.4 0.005 0
5.44 0.005 0
5.48 0.005 0
5.52 0.005 0
5.56 0.005 0
5.6 0.005 0
5.64 0.005 0
5.68 0.005 0
5.72 0.005 0
5.76 0.005 0
5.8 0.005 0
5.84 0.005 0
5.88 0.005 0
5.92 0.005 0
5.96 0.005 0
6 0.005 0
6.04 0.005 0
6.08 0.005 0
6.12 0.005 0
6.16 0.005 0
6.2 0.005 0
6.24 0.005 0
6.28 0.005 0
6.32 0.005 0
6.36 0.005 0
6.4 0.005 0
6.44 0.005 0
6.48 0.005 0
6.52 0.005 0
6.56 0.005 0
6.6 0.005 0
6.64 0.005 0
6.68 0.005 0
6.72 0.005 0
6.76 0.005 0
6.8 0.005 0
6.84 0.005 0
6.88 0.005 0
6.92 0.005 0
6.96 0.005 0
7 0.005 0
7.04 0.005 0
7.08 0.005 0
7.12 0.005 0
7.16 0.005 0
7.2 0.005 0
7.24 0.005 0
7.28 0.005 0
7.32 0.005 0
7.36 0.005 0
7.4 0.005 0
[...]
POINT_DATA 160000

SCALARS v float 1
LOOKUP_TABLE default
0
0
0
0
0
0
0
0
0
0
0
0
0
0
0
0
0
0
0
0
0
0
0
0
0
0
0
0
0
0
0
0
0
0
0
0
0
0
0
0
0
0
0
0
0
0
0
0
0
0
0
0
0
0
0
0
0
0
0
0
0
0
0
0
0
0
0
0
0
0
0
0
0
0
0
0
0
0
0
0
0
0
0
0
0
0
0
0
0
0
0
0
0
0
0
0
0
0
0
0
0
0
0
0
0
0
0
0
0
0
0
0
0
0
0
0
0
0
0
0
0
0
0
0
0
0
0
0
0
0
0
0
0
0
0
0
0
0
0
0
0
0
0
0
0
0
0
0
0
0
0
0
0
0
0
0
0
0
0
0
0
0
0
0
0
0
0
0
0
0
0
0
0
0
0
0
0
0
0
0
0
0
0
0
0
0
0
0
0
0
0
0
0
0
0
0
0
0
0
0
0
0
0
0
0
0
0
0
0
0
0
0
0
0
0
0
0
0
0
0
0
0
0
0
0
0
0
0
0
0
0
0
0
0
0
0
0
0
0
0
0
0
0
0
0
0
0
0
0
0
0
0
0
0
0
0
0
0
0
0
0
0
0
0
0
0
0
0
0
0
0
0
0
0
0
0
0
0
0
0
0
0
0
0
0
0
0
0
0
0
0
0
0
0
0
0
0
0
0
0
0
0
0
0
0
0
0
0
0
0
0
0
0
0
0
0
0
0
0
0
0
0
0
0
0
0
0
0
0
0
0
0
0
0
0
0
0
0
0
0
0
0
0
0
0
0
0
0
0
0
0
0
0
0
0
0
0
0
0
0
0
0
0
0
0
0
0
0
0
0
0
0
0
0
0
0
0
0
0
0
0
0
0
0
0
0
0
0
0
0
0
0
0
0
0
0
0
0
0
0
0
0
0
0
0
0
0
0
0
0
0
0
0
0
0
0
0
0
0
0
0
0
0
0
0
0
0
0
0
0
0
0
0
0
0
0
0
0
0
0
0
0
0
0
0
0
0
0
0
0
0
0
0
0
0
0
0
0
0
0
0
0
0
0
0
0
0
0
0
0
0
0
0
0
0
0
0
0
0
0
0
0
0
0
0
0
0
0
0
0
0
0
0
0
0
0
0
0
0
0
0
0
0
0
0
0
0
0
0
0
0
0
0
0
0
0
0
0
0
0
0
0
0
0
0
0
0
0
0
0
0
0
0
0
0
0
0
0
0
0
0
0
0
0
0
0
0
0
0
0
0
0
0
0
0
0
0
0
0
0
0
0
0
0
0
0
0
0
0
0
0
0
0
0
0
0
0
0
0
0
0
0
0
0
0
0
0
0
0
0
0
0
0
0
0
0
0
0
0
0
0
0
0
0
0
0
0
0
0
0
0
0
0
0
0
0
0
0
0
0
0
0
0
0
0
0
0
0
0
0
0
0
0
0
0
0
0
0
0
0
0
0
0
0
0
0
0
0
0
0
0
0
0
0
0
0
0
0
0
0
0
0
0
0
0
0
0
0
0
0
0
0
0
0
0
0
0
0
0
0
0
0
0
0
0
0
0
0
0
0
0
0
0
0
0
0
0
0
0
0
0
0
0
0
0
0
0
0
0
0
0
0
0
0
0
0
0
0
0
0
0
0
0
0
0
0
0
0
0
0
0
0
0
0
0
0
0
0
0
0
0
0
0
0
0
0
0
0
0
0
0
0
0
0
0
0
0
0
0
0
0
0
0
0
0
0
0
0
0
0
0
0
0
0
0
0
0
0
0
0
0
0
0
0
0
0
0
0
0
0
0
0
0
0
0
0
0
0
0
0
0
0
0.0374158
0.00938113
0.00346796
0.00176634
0.00108087
0.000737107
0.000538329
0.000411785
0.000325586
0.000263897
0.000218076
0.000183046
0.000155644
0.000133808
0.000116135
0.000101644
8.96253e-05
7.95575e-05
7.10477e-05
6.37957e-05
5.7569e-05
5.21849e-05
4.74984e-05
4.33938e-05
3.97775e-05
3.65735e-05
3.37196e-05
3.11648e-05
2.88667e-05
2.67901e-05
2.49057e-05
2.31888e-05
2.16186e-05
2.01775e-05
1.88505e-05
1.76247e-05
1.64892e-05
1.54345e-05
1.44524e-05
1.35357e-05
1.26783e-05
1.18746e-05
1.11199e-05
1.041e-05
9.74104e-06
9.10975e-06
8.51313e-06
7.94849e-06
7.41345e-06
6.90585e-06
6.42372e-06
5.96529e-06
5.52893e-06
5.1132e-06
4.71674e-06
4.33833e-06
3.97683e-06
3.6312e-06
3.30049e-06
2.98383e-06
2.68038e-06
2.3894e-06
2.11019e-06
1.84209e-06
1.58451e-06
1.33687e-06
1.09867e-06
8.69401e-07
6.48601e-07
4.35851e-07
2.30748e-07
3.2918e-08
-1.57988e-07
-3.42301e-07
-5.20337e-07
-6.92389e-07
-8.58731e-07
-1.01962e-06
-1.17531e-06
-1.32602e-06
-1.47197e-06
-1.61336e-06
-1.7504e-06
-1.88327e-06
-2.01215e-06
-2.13719e-06
-2.25855e-06
-2.37638e-06
-2.49083e-06
-2.60202e-06
-2.71009e-06
-2.81515e-06
-2.91733e-06
-3.01673e-06
-3.11345e-06
-3.2076e-06
-3.29927e-06
-3.38855e-06
-3.47552e-06
-3.56027e-06
-3.64288e-06
-3.72343e-06
-3.80198e-06
-3.8786e-06
-3.95336e-06
-4.02632e-06
-4.09755e-06
-4.16711e-06
-4.23503e-06
-4.30138e-06
-4.36622e-06
-4.42959e-06
-4.49153e-06
-4.55209e-06
-4.61131e-06
-4.66923e-06
-4.72591e-06
-4.78137e-06
-4.83565e-06
-4.88879e-06
-4.94082e-06
-4.99176e-06
-5.04167e-06
-5.09056e-06
-5.13847e-06
-5.1854e-06
-5.23142e-06
-5.27654e-06
-5.32078e-06
-5.36416e-06
-5.4067e-06
-5.44845e-06
-5.48941e-06
-5.5296e-06
-5.56905e-06
-5.60778e-06
-5.6458e-06
-5.68313e-06
-5.7198e-06
-5.75581e-06
-5.79119e-06
-5.82595e-06
-5.8601e-06
-5.89368e-06
-5.92667e-06
-5.95911e-06
-5.99101e-06
-6.02236e-06
-6.05321e-06
-6.08354e-06
-6.11338e-06
-6.14274e-06
-6.17162e-06
-6.20004e-06
-6.22801e-06
-6.25554e-06
-6.28264e-06
-6.30932e-06
-6.3356e-06
-6.36147e-06
-6.38694e-06
-6.41204e-06
-6.43676e-06
-6.46111e-06
-6.48509e-06
-6.50873e-06
-6.53202e-06
-6.55497e-06
-6.5776e-06
-6.5999e-06
-6.62188e-06
-6.64355e-06
-6.66492e-06
-6.68599e-06
-6.70677e-06
-6.72726e-06
-6.74747e-06
-6.76741e-06
-6.78707e-06
-6.80647e-06
-6.82561e-06
-6.84449e-06
-6.86312e-06
-6.88151e-06
-6.89966e-06
-6.91757e-06
-6.93524e-06
-6.9527e-06
-6.96992e-06
-6.98692e-06
-7.00371e-06
-7.02028e-06
-7.03665e-06
-7.05281e-06
-7.06877e-06
-7.08453e-06
-7.1001e-06
-7.11548e-06
-7.13066e-06
-7.14566e-06
-7.16048e-06
-7.17512e-06
-7.18958e-06
-7.20387e-06
-7.21798e-06
-7.23193e-06
-7.24571e-06
-7.25933e-06
-7.27279e-06
-7.28609e-06
-7.29924e-06
-7.31223e-06
-7.32507e-06
-7.33776e-06
-7.35031e-06
-7.36271e-06
-7.37497e-06
-7.38709e-06
-7.39907e-06
-7.41092e-06
-7.42263e-06
-7.4342e-06
-7.44564e-06
-7.45696e-06
-7.46816e-06
-7.47923e-06
-7.49017e-06
-7.501e-06
-7.5117e-06
-7.52228e-06
-7.53274e-06
-7.54309e-06
-7.55333e-06
-7.56346e-06
-7.57347e-06
-7.58338e-06
-7.59318e-06
-7.60287e-06
-7.61246e-06
-7.62194e-06
-7.63132e-06
-7.6406e-06
-7.64978e-06
-7.65886e-06
-7.66784e-06
-7.67672e-06
-7.68552e-06
-7.69422e-06
-7.70283e-06
-7.71134e-06
-7.71976e-06
-7.7281e-06
-7.73634e-06
-7.7445e-06
-7.75257e-06
-7.76056e-06
-7.76847e-06
-7.77629e-06
-7.78403e-06
-7.79168e-06
-7.79926e-06
-7.80676e-06
-7.81418e-06
-7.82152e-06
-7.82879e-06
-7.83598e-06
-7.8431e-06
-7.85014e-06
-7.85711e-06
-7.864e-06
-7.87083e-06
-7.87758e-06
-7.88426e-06
-7.89088e-06
-7.89742e-06
-7.90391e-06
-7.91033e-06
-7.91667e-06
-7.92294e-06
-7.92916e-06
-7.93531e-06
-7.94141e-06
-7.94743e-06
-7.9534e-06
-7.95931e-06
-7.96515e-06
-7.97093e-06
-7.97665e-06
-7.98232e-06
-7.98793e-06
-7.99348e-06
-7.99898e-06
-8.00442e-06
-8.0098e-06
-8.01513e-06
-8.0204e-06
-8.02561e-06
-8.03078e-06
-8.0359e-06
-8.04096e-06
-8.04597e-06
-8.05093e-06
-8.05584e-06
-8.0607e-06
-8.06551e-06
-8.07027e-06
-8.07499e-06
-8.07965e-06
-8.08426e-06
-8.08884e-06
-8.09336e-06
-8.09784e-06
-8.10227e-06
-8.10666e-06
-8.111e-06
-8.11531e-06
-8.11956e-06
-8.12378e-06
-8.12795e-06
-8.13207e-06
-8.13616e-06
-8.14021e-06
-8.14421e-06
-8.14818e-06
-8.1521e-06
-8.15599e-06
-8.15984e-06
-8.16365e-06
-8.16741e-06
-8.17114e-06
-8.17482e-06
-8.17849e-06
-8.18211e-06
-8.18569e-06
-8.18923e-06
-8.19274e-06
-8.19622e-06
-8.19966e-06
-8.20306e-06
-8.20643e-06
-8.20977e-06
-8.21307e-06
-8.21633e-06
-8.21957e-06
-8.22278e-06
-8.22595e-06
-8.22909e-06
-8.23219e-06
-8.23527e-06
-8.23832e-06
-8.24133e-06
-8.24432e-06
-8.24727e-06
-8.25019e-06
-8.25309e-06
-8.25596e-06
-8.2588e-06
-8.2616e-06
-8.26437e-06
-8.26713e-06
-8.26985e-06
-8.27255e-06
-8.27523e-06
-8.27787e-06
-8.28048e-06
-8.28306e-06
-8.28563e-06
-8.28817e-06
-8.29068e-06
-8.29316e-06
-8.29563e-06
-8.29807e-06
-8.30048e-06
-8.30287e-06
-8.30523e-06
-8.30756e-06
-8.30989e-06
-8.31218e-06
-8.31445e-06
-8.31669e-06
-8.31891e-06
-8.32111e-06
-8.32329e-06
-8.32546e-06
-8.32759e-06
-8.32971e-06
-8.3318e-06
-8.33387e-06
-8.33592e-06
-8.33795e-06
-8.33996e-06
-8.34195e-06
-8.34392e-06
-8.34586e-06
-8.34779e-06
-8.34971e-06
-8.3516e-06
-8.35347e-06
-8.35532e-06
-8.35716e-06
-8.35898e-06
-8.36077e-06
-8.36255e-06
-8.36431e-06
-8.36605e-06
-8.36778e-06
-8.36949e-06
-8.37118e-06
-8.37285e-06
-8.37451e-06
-8.37615e-06
-8.37777e-06
-8.37938e-06
-8.38098e-06
-8.38255e-06
-8.38411e-06
-8.38565e-06
-8.38718e-06
-8.38869e-06
-8.39018e-06
-8.39167e-06
-8.39314e-06
-8.39459e-06
-8.39603e-06
-8.39745e-06
-8.39886e-06
-8.40025e-06
-8.40163e-06
-8.403e-06
-8.40435e-06
-8.40569e-06
-8.40701e-06
-8.40833e-06
-8.40963e-06
-8.41091e-06
-8.41218e-06
-8.41344e-06
-8.41469e-06
-8.41592e-06
-8.41713e-06
-8.41834e-06
-8.41955e-06
-8.42074e-06
-8.42191e-06
-8.42306e-06
-8.42421e-06
-8.42535e-06
-8.42648e-06
-8.42759e-06
-8.42869e-06
-8.42978e-06
-8.43087e-06
-8.43194e-06
-8.433e-06
-8.43404e-06
-8.43508e-06
-8.43611e-06
-8.43713e-06
-8.43814e-06
-8.43913e-06
-8.44012e-06
-8.44109e-06
-8.44206e-06
-8.44302e-06
-8.44396e-06
-8.4449e-06
-8.44583e-06
-8.44675e-06
-8.44766e-06
-8.44855e-06
-8.44944e-06
-8.45033e-06
-8.45121e-06
-8.45207e-06
-8.45292e-06
-8.45377e-06
-8.4546e-06
-8.45543e-06
-8.45625e-06
-8.45706e-06
-8.45787e-06
-8.45867e-06
-8.45945e-06
-8.46023e-06
-8.461e-06
-8.46177e-06
-8.46253e-06
-8.46328e-06
-8.46402e-06
-8.46475e-06
-8.46547e-06
-8.4662e-06
-8.46691e-06
-8.46762e-06
-8.46831e-06
-8.469e-06
-8.46968e-06
-8.47036e-06
-8.47103e-06
-8.47169e-06
-8.47235e-06
-8.473e-06
-8.47364e-06
-8.47428e-06
-8.47491e-06
-8.47553e-06
-8.47615e-06
-8.47675e-06
-8.47736e-06
-8.47796e-06
-8.47855e-06
-8.47913e-06
-8.47972e-06
-8.48029e-06
-8.48086e-06
-8.48142e-06
-8.48198e-06
-8.48253e-06
-8.48307e-06
-8.48362e-06
-8.48416e-06
-8.48468e-06
-8.4852e-06
-8.48572e-06
-8.48624e-06
-8.48675e-06
-8.48725e-06
-8.48774e-06
-8.48824e-06
-8.48872e-06
-8.4892e-06
-8.48969e-06
-8.49016e-06
-8.49063e-06
-8.49109e-06
-8.49155e-06
-8.492e-06
-8.49245e-06
-8.4929e-06
-8.49334e-06
-8.49377e-06
-8.4942e-06
-8.49463e-06
-8.49505e-06
-8.49547e-06
-8.49589e-06
-8.4963e-06
-8.4967e-06
-8.4971e-06
-8.4975e-06
-8.49789e-06
-8.49828e-06
-8.49866e-06
-8.49905e-06
-8.49943e-06
-8.4998e-06
-8.50017e-06
-8.50054e-06
-8.5009e-06
-8.50125e-06
-8.50161e-06
-8.50197e-06
-8.50231e-06
-8.50266e-06
-8.503e-06
-8.50334e-06
-8.50367e-06
-8.50399e-06
-8.50432e-06
-8.50465e-06
-8.50497e-06
-8.50529e-06
-8.50561e-06
-8.50591e-06
-8.50622e-06
-8.50652e-06
-8.50683e-06
-8.50713e-06
-8.50742e-06
-8.50771e-06
-8.508e-06
-8.50828e-06
-8.50857e-06
-8.50885e-06
-8.50913e-06
-8.50941e-06
-8.50968e-06
-8.50995e-06
-8.51021e-06
-8.51047e-06
-8.51073e-06
-8.51099e-06
-8.51125e-06
-8.51151e-06
-8.51176e-06
-8.51201e-06
-8.51225e-06
-8.5125e-06
-8.51273e-06
-8.51297e-06
-8.51321e-06
-8.51344e-06
-8.51367e-06
-8.5139e-06
-8.51412e-06
-8.51435e-06
-8.51457e-06
-8.51479e-06
-8.51501e-06
-8.51523e-06
-8.51543e-06
-8.51564e-06
-8.51585e-06
-8.51606e-06
-8.51626e-06
-8.51646e-06
-8.51666e-06
-8.51686e-06
-8.51706e-06
-8.51726e-06
-8.51745e-06
-8.51764e-06
-8.51782e-06
-8.51801e-06
-8.51819e-06
-8.51838e-06
-8.51856e-06
-8.51874e-06
-8.51892e-06
-8.51909e-06
-8.51927e-06
-8.51944e-06
-8.51961e-06
-8.51979e-06
-8.51996e-06
-8.52011e-06
-8.52027e-06
-8.52044e-06
-8.5206e-06
-8.52076e-06
-8.52092e-06
-8.52107e-06
-8.52123e-06
-8.52139e-06
-8.52154e-06
-8.5217e-06
-8.52184e-06
-8.52199e-06
-8.52214e-06
-8.52229e-06
-8.52244e-06
-8.52258e-06
-8.52272e-06
-8.52286e-06
-8.523e-06
-8.52314e-06
-8.52328e-06
-8.52342e-06
-8.52356e-06
-8.52369e-06
-8.52382e-06
-8.52396e-06
-8.52409e-06
-8.52422e-06
-8.52435e-06
-8.52449e-06
-8.52462e-06
-8.52474e-06
-8.52487e-06
-8.525e-06
-8.52512e-06
-8.52525e-06
-8.52537e-06
-8.52549e-06
-8.52561e-06
-8.52573e-06
-8.52585e-06
-8.52597e-06
-8.52609e-06
-8.52621e-06
-8.52633e-06
-8.52645e-06
-8.52656e-06
-8.52668e-06
-8.52679e-06
-8.52691e-06
-8.52703e-06
-8.52715e-06
-8.52725e-06
-8.52737e-06
-8.52748e-06
-8.52759e-06
-8.5277e-06
-8.52781e-06
-8.52791e-06
-8.52802e-06
-8.52813e-06
-8.52824e-06
-8.52835e-06
-8.52846e-06
-8.52856e-06
-8.52866e-06
-8.52877e-06
-8.52887e-06
-8.52898e-06
-8.52908e-06
-8.52918e-06
-8.52929e-06
-8.52939e-06
-8.52949e-06
-8.52959e-06
-8.52969e-06
-8.52979e-06
-8.52989e-06
-8.52998e-06
-8.53008e-06
-8.53018e-06
-8.53028e-06
-8.53037e-06
-8.53046e-06
-8.53056e-06
-8.53065e-06
-8.53074e-06
-8.53084e-06
-8.53093e-06
-8.53102e-06
-8.53111e-06
-8.5312e-06
-8.53129e-06
-8.53137e-06
-8.53146e-06
-8.53154e-06
-8.53163e-06
-8.53172e-06
-8.5318e-06
-8.53188e-06
-8.53197e-06
-8.53205e-06
-8.53213e-06
-8.53221e-06
-8.53229e-06
-8.53237e-06
-8.53244e-06
-8.53251e-06
-8.53259e-06
-8.53267e-06
-8.53274e-06
-8.53281e-06
-8.53288e-06
-8.53295e-06
-8.53302e-06
-8.53309e-06
-8.53316e-06
-8.53323e-06
-8.53329e-06
-8.53336e-06
-8.53342e-06
-8.53349e-06
-8.53354e-06
-8.5336e-06
-8.53366e-06
-8.53371e-06
-8.53376e-06
-8.53382e-06
-8.53388e-06
-8.53392e-06
-8.53395e-06
-8.53399e-06
-8.53402e-06
-8.53404e-06
-8.53405e-06
-8.53406e-06
-8.53405e-06
-8.53402e-06
-8.53397e-06
-8.53389e-06
-8.53378e-06
-8.53363e-06
-8.53341e-06
-8.53314e-06
-8.53276e-06
-8.5323e-06
-8.53166e-06
-8.53089e-06
-8.52979e-06
-8.52854e-06
-8.52666e-06
-8.52467e-06
-8.52134e-06
-8.51831e-06
-8.51198e-06
-8.50795e-06
-8.49391e-06
-8.4928e-06
-8.45059e-06
-8.52236e-06
-6.02606e-06
-6.02606e-06
0
0
0.0966101
0.0320527
0.0130062
0.00682637
0.00423607
0.00291413
0.0021425
0.00164842
0.00131055
0.00106807
0.000887566
0.000749318
0.000641014
0.000554592
0.000484567
0.000427088
0.000379373
0.000339371
0.000305534
0.000276682
0.000251895
0.000230453
0.000211783
0.000195426
0.000181013
0.000168241
0.000156865
0.000146681
0.000137521
0.000129244
0.000121735
0.000114895
0.00010864
0.000102901
9.76174e-05
9.27382e-05
8.82195e-05
8.40233e-05
8.01169e-05
7.64718e-05
7.30629e-05
6.98687e-05
6.68697e-05
6.40492e-05
6.13921e-05
5.8885e-05
5.6516e-05
5.42745e-05
5.21508e-05
5.01362e-05
4.82231e-05
4.64042e-05
4.46731e-05
4.30241e-05
4.14517e-05
3.99509e-05
3.85174e-05
3.7147e-05
3.58359e-05
3.45805e-05
3.33776e-05
3.22242e-05
3.11175e-05
3.0055e-05
2.90342e-05
2.80528e-05
2.71089e-05
2.62004e-05
2.53256e-05
2.44826e-05
2.36701e-05
2.28863e-05
2.213e-05
2.13999e-05
2.06946e-05
2.00131e-05
1.93542e-05
1.87169e-05
1.81003e-05
1.75034e-05
1.69254e-05
1.63654e-05
1.58227e-05
1.52965e-05
1.47861e-05
1.4291e-05
1.38104e-05
1.33438e-05
1.28906e-05
1.24503e-05
1.20224e-05
1.16064e-05
1.12019e-05
1.08083e-05
1.04254e-05
1.00526e-05
9.68971e-06
9.33626e-06
8.99194e-06
8.65641e-06
8.32937e-06
8.01051e-06
7.69956e-06
7.39624e-06
7.10029e-06
6.81146e-06
6.52951e-06
6.2542e-06
5.98534e-06
5.72269e-06
5.46606e-06
5.21526e-06
4.9701e-06
4.73041e-06
4.49601e-06
4.26673e-06
4.04242e-06
3.82293e-06
3.60811e-06
3.39781e-06
3.19191e-06
2.99028e-06
2.79278e-06
2.59931e-06
2.40974e-06
2.22397e-06
2.04186e-06
1.86333e-06
1.68828e-06
1.51663e-06
1.34826e-06
1.18308e-06
1.02101e-06
8.61971e-07
7.05875e-07
5.52649e-07
4.02212e-07
2.54493e-07
1.09429e-07
-3.30594e-08
-1.73036e-07
-3.1056e-07
-4.457e-07
-5.78513e-07
-7.09055e-07
-8.37385e-07
-9.63552e-07
-1.08761e-06
-1.20962e-06
-1.32961e-06
-1.44765e-06
-1.56378e-06
-1.67803e-06
-1.79046e-06
-1.9011e-06
-2.01001e-06
-2.11722e-06
-2.22275e-06
-2.32667e-06
-2.429e-06
-2.52976e-06
-2.62901e-06
-2.72677e-06
-2.82308e-06
-2.91795e-06
-3.01144e-06
-3.10356e-06
-3.19434e-06
-3.28381e-06
-3.37201e-06
-3.45894e-06
-3.54465e-06
-3.62915e-06
-3.71247e-06
-3.79463e-06
-3.87566e-06
-3.95558e-06
-4.0344e-06
-4.11216e-06
-4.18887e-06
-4.26454e-06
-4.33921e-06
-4.41288e-06
-4.48559e-06
-4.55734e-06
-4.62815e-06
-4.69804e-06
-4.76703e-06
-4.83513e-06
-4.90235e-06
-4.96872e-06
-5.03425e-06
-5.09895e-06
-5.16284e-06
-5.22593e-06
-5.28823e-06
-5.34977e-06
-5.41055e-06
-5.47057e-06
-5.52986e-06
-5.58844e-06
-5.6463e-06
-5.70346e-06
-5.75994e-06
-5.81573e-06
-5.87087e-06
-5.92534e-06
-5.97917e-06
-6.03236e-06
-6.08494e-06
-6.13689e-06
-6.18823e-06
-6.23898e-06
-6.28915e-06
-6.33873e-06
-6.38774e-06
-6.43619e-06
-6.48408e-06
-6.53143e-06
-6.57824e-06
-6.62451e-06
-6.67026e-06
-6.71549e-06
-6.76022e-06
-6.80444e-06
-6.84818e-06
-6.89142e-06
-6.93418e-06
-6.97647e-06
-7.01828e-06
-7.05963e-06
-7.10053e-06
-7.14098e-06
-7.18099e-06
-7.22056e-06
-7.2597e-06
-7.2984e-06
-7.33669e-06
-7.37456e-06
-7.41203e-06
-7.44908e-06
-7.48574e-06
-7.522e-06
-7.55787e-06
-7.59336e-06
-7.62846e-06
-7.6632e-06
-7.69757e-06
-7.73156e-06
-7.76519e-06
-7.79846e-06
-7.83138e-06
-7.86395e-06
-7.89618e-06
-7.92807e-06
-7.95962e-06
-7.99085e-06
-8.02174e-06
-8.0523e-06
-8.08254e-06
-8.11247e-06
-8.14209e-06
-8.17139e-06
-8.20039e-06
-8.22909e-06
-8.25749e-06
-8.28559e-06
-8.3134e-06
-8.34092e-06
-8.36815e-06
-8.3951e-06
-8.42177e-06
-8.44817e-06
-8.47429e-06
-8.50015e-06
-8.52574e-06
-8.55106e-06
-8.57612e-06
-8.60092e-06
-8.62546e-06
-8.64976e-06
-8.67381e-06
-8.69761e-06
-8.72117e-06
-8.74448e-06
-8.76755e-06
-8.79038e-06
-8.81299e-06
-8.83536e-06
-8.8575e-06
-8.87942e-06
-8.90112e-06
-8.92259e-06
-8.94384e-06
-8.96488e-06
-8.98569e-06
-9.0063e-06
-9.0267e-06
-9.04689e-06
-9.06688e-06
-9.08666e-06
-9.10624e-06
-9.12562e-06
-9.14481e-06
-9.1638e-06
-9.1826e-06
-9.2012e-06
-9.21962e-06
-9.23784e-06
-9.25589e-06
-9.27376e-06
-9.29143e-06
-9.30893e-06
-9.32626e-06
-9.34341e-06
-9.36039e-06
-9.37719e-06
-9.39382e-06
-9.41028e-06
-9.42658e-06
-9.44272e-06
-9.45868e-06
-9.47449e-06
-9.49014e-06
-9.50563e-06
-9.52097e-06
-9.53615e-06
-9.55118e-06
-9.56605e-06
-9.58076e-06
-9.59534e-06
-9.60977e-06
-9.62406e-06
-9.63819e-06
-9.65218e-06
-9.66603e-06
-9.67975e-06
-9.69332e-06
-9.70676e-06
-9.72006e-06
-9.73323e-06
-9.74626e-06
-9.75916e-06
-9.77193e-06
-9.78458e-06
-9.7971e-06
-9.80948e-06
-9.82175e-06
-9.83389e-06
-9.84591e-06
-9.85781e-06
-9.86959e-06
-9.88125e-06
-9.89279e-06
-9.90421e-06
-9.91553e-06
-9.92672e-06
-9.93779e-06
-9.94876e-06
-9.95962e-06
-9.97038e-06
-9.98102e-06
-9.99156e-06
-1.0002e-05
-1.00123e-05
-1.00225e-05
-1.00326e-05
-1.00426e-05
-1.00526e-05
-1.00624e-05
-1.00721e-05
-1.00817e-05
-1.00912e-05
-1.01006e-05
-1.011e-05
-1.01192e-05
-1.01283e-05
-1.01374e-05
-1.01463e-05
-1.01552e-05
-1.0164e-05
-1.01727e-05
-1.01813e-05
-1.01898e-05
-1.01982e-05
-1.02066e-05
-1.02148e-05
-1.0223e-05
-1.02311e-05
-1.02391e-05
-1.0247e-05
-1.02549e-05
-1.02626e-05
-1.02703e-05
-1.02779e-05
-1.02855e-05
-1.02929e-05
-1.03003e-05
-1.03076e-05
-1.03149e-05
-1.0322e-05
-1.03291e-05
-1.03362e-05
-1.03431e-05
-1.035e-05
-1.03568e-05
-1.03635e-05
-1.03702e-05
-1.03768e-05
-1.03834e-05
-1.03898e-05
-1.03962e-05
-1.04026e-05
-1.04089e-05
-1.04151e-05
-1.04212e-05
-1.04273e-05
-1.04333e-05
-1.04393e-05
-1.04452e-05
-1.04511e-05
-1.04568e-05
-1.04626e-05
-1.04682e-05
-1.04739e-05
-1.04794e-05
-1.04849e-05
-1.04904e-05
-1.04957e-05
-1.05011e-05
-1.05064e-05
-1.05116e-05
-1.05168e-05
-1.05219e-05
-1.0527e-05
-1.0532e-05
-1.05369e-05
-1.05419e-05
-1.05467e-05
-1.05515e-05
-1.05563e-05
-1.0561e-05
-1.05657e-05
-1.05703e-05
-1.05749e-05
-1.05794e-05
-1.05839e-05
-1.05884e-05
-1.05928e-05
-1.05971e-05
-1.06014e-05
-1.06057e-05
-1.06099e-05
-1.06141e-05
-1.06182e-05
-1.06223e-05
-1.06264e-05
-1.06304e-05
-1.06344e-05
-1.06383e-05
-1.06422e-05
-1.0646e-05
-1.06499e-05
-1.06536e-05
-1.06574e-05
-1.06611e-05
-1.06647e-05
-1.06683e-05
-1.06719e-05
-1.06755e-05
-1.0679e-05
-1.06825e-05
-1.06859e-05
-1.06893e-05
-1.06927e-05
-1.0696e-05
-1.06993e-05
-1.07026e-05
-1.07058e-05
-1.0709e-05
-1.07122e-05
-1.07154e-05
-1.07185e-05
-1.07216e-05
-1.07246e-05
-1.07276e-05
-1.07306e-05
-1.07336e-05
-1.07365e-05
-1.07394e-05
-1.07422e-05
-1.07451e-05
-1.07479e-05
-1.07507e-05
-1.07534e-05
-1.07561e-05
-1.07588e-05
-1.07615e-05
-1.07641e-05
-1.07668e-05
-1.07693e-05
-1.07719e-05
-1.07744e-05
-1.07769e-05
-1.07794e-05
-1.07819e-05
-1.07843e-05
-1.07867e-05
-1.07891e-05
-1.07915e-05
-1.07938e-05
-1.07961e-05
-1.07984e-05
-1.08007e-05
-1.08029e-05
-1.08051e-05
-1.08073e-05
-1.08095e-05
-1.08117e-05
-1.08138e-05
-1.08159e-05
-1.0818e-05
-1.082e-05
-1.08221e-05
-1.08241e-05
-1.08261e-05
-1.08281e-05
-1.08301e-05
-1.0832e-05
-1.08339e-05
-1.08358e-05
-1.08377e-05
-1.08396e-05
-1.08414e-05
-1.08433e-05
-1.08451e-05
-1.08469e-05
-1.08486e-05
-1.08504e-05
-1.08521e-05
-1.08538e-05
-1.08555e-05
-1.08572e-05
-1.08589e-05
-1.08605e-05
-1.08622e-05
-1.08638e-05
-1.08654e-05
-1.0867e-05
-1.08685e-05
-1.08701e-05
-1.08716e-05
-1.08732e-05
-1.08747e-05
-1.08762e-05
-1.08776e-05
-1.08791e-05
-1.08805e-05
-1.0882e-05
-1.08834e-05
-1.08848e-05
-1.08862e-05
-1.08875e-05
-1.08889e-05
-1.08902e-05
-1.08916e-05
-1.08929e-05
-1.08942e-05
-1.08955e-05
-1.08968e-05
-1.0898e-05
-1.08993e-05
-1.09005e-05
-1.09017e-05
-1.09029e-05
-1.09042e-05
-1.09053e-05
-1.09065e-05
-1.09077e-05
-1.09088e-05
-1.091e-05
-1.09111e-05
-1.09122e-05
-1.09133e-05
-1.09144e-05
-1.09155e-05
-1.09166e-05
-1.09176e-05
-1.09187e-05
-1.09197e-05
-1.09208e-05
-1.09218e-05
-1.09228e-05
-1.09238e-05
-1.09248e-05
-1.09258e-05
-1.09267e-05
-1.09277e-05
-1.09286e-05
-1.09296e-05
-1.09305e-05
-1.09314e-05
-1.09323e-05
-1.09332e-05
-1.09341e-05
-1.0935e-05
-1.09359e-05
-1.09368e-05
-1.09376e-05
-1.09385e-05
-1.09393e-05
-1.09401e-05
-1.09409e-05
-1.09418e-05
-1.09426e-05
-1.09434e-05
-1.09441e-05
-1.09449e-05
-1.09457e-05
-1.09465e-05
-1.09472e-05
-1.0948e-05
-1.09487e-05
-1.09495e-05
-1.09502e-05
-1.09509e-05
-1.09516e-05
-1.09523e-05
-1.0953e-05
-1.09537e-05
-1.09544e-05
-1.09551e-05
-1.09558e-05
-1.09564e-05
-1.09571e-05
-1.09578e-05
-1.09584e-05
-1.0959e-05
-1.09597e-05
-1.09603e-05
-1.09609e-05