# vtk DataFile Version 2.0
FlowField
ASCII
DATASET STRUCTURED_GRID
DIMENSIONS 800 1 200
POINTS 160000 float
0 0 0
0.04 0 0
0.08 0 0
0.12 0 0
0.16 0 0
0.2 0 0
0.24 0 0
0.28 0 0
0.32 0 0
0.36 0 0
0.4 0 0
0.44 0 0
0.48 0 0
0.52 0 0
0.56 0 0
0.6 0 0
0.64 0 0
0.68 0 0
0.72 0 0
0.76 0 0
0.8 0 0
0.84 0 0
0.88 0 0
0.92 0 0
0.96 0 0
1 0 0
1.04 0 0
1.08 0 0
1.12 0 0
1.16 0 0
1.2 0 0
1.24 0 0
1.28 0 0
1.32 0 0
1.36 0 0
1.4 0 0
1.44 0 0
1.48 0 0
1.52 0 0
1.56 0 0
1.6 0 0
1.64 0 0
1.68 0 0
1.72 0 0
1.76 0 0
1.8 0 0
1.84 0 0
1.88 0 0
1.92 0 0
1.96 0 0
2 0 0
2.04 0 0
2.08 0 0
2.12 0 0
2.16 0 0
2.2 0 0
2.24 0 0
2.28 0 0
2.32 0 0
2.36 0 0
2.4 0 0
2.44 0 0
2.48 0 0
2.52 0 0
2.56 0 0
2.6 0 0
2.64 0 0
2.68 0 0
2.72 0 0
2.76 0 0
2.8 0 0
2.84 0 0
2.88 0 0
2.92 0 0
2.96 0 0
3 0 0
3.04 0 0
3.08 0 0
3.12 0 0
3.16 0 0
3.2 0 0
3.24 0 0
3.28 0 0
3.32 0 0
3.36 0 0
3.4 0 0
3.44 0 0
3.48 0 0
3.52 0 0
3.56 0 0
3.6 0 0
3.64 0 0
3.68 0 0
3.72 0 0
3.76 0 0
3.8 0 0
3.84 0 0
3.88 0 0
3.92 0 0
3.96 0 0
4 0 0
4.04 0 0
4.08 0 0
4.12 0 0
4.16 0 0
4.2 0 0
4.24 0 0
4.28 0 0
4.32 0 0
4.36 0 0
4.4 0 0
4.44 0 0
4.48 0 0
4.52 0 0
4.56 0 0
4.6 0 0
4.64 0 0
4.68 0 0
4.72 0 0
4.76 0 0
4.8 0 0
4.84 0 0
4.88 0 0
4.92 0 0
4.96 0 0
5 0 0
5.04 0 0
5.08 0 0
5.12 0 0
5.16 0 0
5.2 0 0
5.24 0 0
5.28 0 0
5.32 0 0
5.36 0 0
5.4 0 0
5.44 0 0
5.48 0 0
5.52 0 0
5.56 0 0
5.6 0 0
5.64 0 0
5.68 0 0
5.72 0 0
5.76 0 0
5.8 0 0
5.84 0 0
5.88 0 0
5.92 0 0
5.96 0 0
6 0 0
6.04 0 0
6.08 0 0
6.12 0 0
6.16 0 0
6.2 0 0
6.24 0 0
6.28 0 0
6.32 0 0
6.36 0 0
6.4 0 0
6.44 0 0
6.48 0 0
6.52 0 0
6.56 0 0
6.6 0 0
6.64 0 0
6.68 0 0
6.72 0 0
6.76 0 0
6.8 0 0
6.84 0 0
6.88 0 0
6.92 0 0
6.96 0 0
7 0 0
7.04 0 0
7.08 0 0
7.12 0 0
7.16 0 0
7.2 0 0
7.24 0 0
7.28 0 0
7.32 0 0
7.36 0 0
7.4 0 0
7.44 0 0
7.48 0 0
7.52 0 0
7.56 0 0
7.6 0 0
7.64 0 0
7.68 0 0
7.72 0 0
7.76 0 0
7.8 0 0
7.84 0 0
7.88 0 0
7.92 0 0
7.96 0 0
8 0 0
8.04 0 0
8.08 0 0
8.12 0 0
8.16 0 0
8.2 0 0
8.24 0 0
8.28 0 0
8.32 0 0
8.36 0 0
8.4 0 0
8.44 0 0
8.48 0 0
8.52 0 0
8.56 0 0
8.6 0 0
8.64 0 0
8.68 0 0
8.72 0 0
8.76 0 0
8.8 0 0
8.84 0 0
8.88 0 0
8.92 0 0
8.96 0 0
9 0 0
9.04 0 0
9.08 0 0
9.12 0 0
9.16 0 0
9.2 0 0
9.24 0 0
9.28 0 0
9.32 0 0
9.36 0 0
9.4 0 0
9.44 0 0
9.48 0 0
9.52 0 0
9.56 0 0
9.6 0 0
9.64 0 0
9.68 0 0
9.72 0 0
9.76 0 0
9.8 0 0
9.84 0 0
9.88 0 0
9.92 0 0
9.96 0 0
10 0 0
10.04 0 0
10.08 0 0
10.12 0 0
10.16 0 0
10.2 0 0
10.24 0 0
10.28 0 0
10.32 0 0
10.36 0 0
10.4 0 0
10.44 0 0
10.48 0 0
10.52 0 0
10.56 0 0
10.6 0 0
10.64 0 0
10.68 0 0
10.72 0 0
10.76 0 0
10.8 0 0
10.84 0 0
10.88 0 0
10.92 0 0
10.96 0 0
11 0 0
11.04 0 0
11.08 0 0
11.12 0 0
11.16 0 0
11.2 0 0
11.24 0 0
11.28 0 0
11.32 0 0
11.36 0 0
11.4 0 0
11.44 0 0
11.48 0 0
11.52 0 0
11.56 0 0
11.6 0 0
11.64 0 0
11.68 0 0
11.72 0 0
11.76 0 0
11.8 0 0
11.84 0 0
11.88 0 0
11.92 0 0
11.96 0 0
12 0 0
12.04 0 0
12.08 0 0
12.12 0 0
12.16 0 0
12.2 0 0
12.24 0 0
12.28 0 0
12.32 0 0
12.36 0 0
12.4 0 0
12.44 0 0
12.48 0 0
12.52 0 0
12.56 0 0
12.6 0 0
12.64 0 0
12.68 0 0
12.72 0 0
12.76 0 0
12.8 0 0
12.84 0 0
12.88 0 0
12.92 0 0
12.96 0 0
13 0 0
13.04 0 0
13.08 0 0
13.12 0 0
13.16 0 0
13.2 0 0
13.24 0 0
13.28 0 0
13.32 0 0
13.36 0 0
13.4 0 0
13.44 0 0
13.48 0 0
13.52 0 0
13.56 0 0
13.6 0 0
13.64 0 0
13.68 0 0
13.72 0 0
13.76 0 0
13.8 0 0
13.84 0 0
13.88 0 0
13.92 0 0
13.96 0 0
14 0 0
14.04 0 0
14.08 0 0
14.12 0 0
14.16 0 0
14.2 0 0
14.24 0 0
14.28 0 0
14.32 0 0
14.36 0 0
14.4 0 0
14.44 0 0
14.48 0 0
14.52 0 0
14.56 0 0
14.6 0 0
14.64 0 0
14.68 0 0
14.72 0 0
14.76 0 0
14.8 0 0
14.84 0 0
14.88 0 0
14.92 0 0
14.96 0 0
15 0 0
15.04 0 0
15.08 0 0
15.12 0 0
15.16 0 0
15.2 0 0
15.24 0 0
15.28 0 0
15.32 0 0
15.36 0 0
15.4 0 0
15.44 0 0
15.48 0 0
15.52 0 0
15.56 0 0
15.6 0 0
15.64 0 0
15.68 0 0
15.72 0 0
15.76 0 0
15.8 0 0
15.84 0 0
15.88 0 0
15.92 0 0
15.96 0 0
16 0 0
16.04 0 0
16.08 0 0
16.12 0 0
16.16 0 0
16.2 0 0
16.24 0 0
16.28 0 0
16.32 0 0
16.36 0 0
16.4 0 0
16.44 0 0
16.48 0 0
16.52 0 0
16.56 0 0
16.6 0 0
16.64 0 0
16.68 0 0
16.72 0 0
16.76 0 0
16.8 0 0
16.84 0 0
16.88 0 0
16.92 0 0
16.96 0 0
17 0 0
17.04 0 0
17.08 0 0
17.12 0 0
17.16 0 0
17.2 0 0
17.24 0 0
17.28 0 0
17.32 0 0
17.36 0 0
17.4 0 0
17.44 0 0
17.48 0 0
17.52 0 0
17.56 0 0
17.6 0 0
17.64 0 0
17.68 0 0
17.72 0 0
17.76 0 0
17.8 0 0
17.84 0 0
17.88 0 0
17.92 0 0
17.96 0 0
18 0 0
18.04 0 0
18.08 0 0
18.12 0 0
18.16 0 0
18.2 0 0
18.24 0 0
18.28 0 0
18.32 0 0
18.36 0 0
18.4 0 0
18.44 0 0
18.48 0 0
18.52 0 0
18.56 0 0
18.6 0 0
18.64 0 0
18.68 0 0
18.72 0 0
18.76 0 0
18.8 0 0
18.84 0 0
18.88 0 0
18.92 0 0
18.96 0 0
19 0 0
19.04 0 0
19.08 0 0
19.12 0 0
19.16 0 0
19.2 0 0
19.24 0 0
19.28 0 0
19.32 0 0
19.36 0 0
19.4 0 0
19.44 0 0
19.48 0 0
19.52 0 0
19.56 0 0
19.6 0 0
19.64 0 0
19.68 0 0
19.72 0 0
19.76 0 0
19.8 0 0
19.84 0 0
19.88 0 0
19.92 0 0
19.96 0 0
20 0 0
20.04 0 0
20.08 0 0
20.12 0 0
20.16 0 0
20.2 0 0
20.24 0 0
20.28 0 0
20.32 0 0
20.36 0 0
20.4 0 0
20.44 0 0
20.48 0 0
20.52 0 0
20.56 0 0
20.6 0 0
20.64 0 0
20.68 0 0
20.72 0 0
20.76 0 0
20.8 0 0
20.84 0 0
20.88 0 0
20.92 0 0
20.96 0 0
21 0 0
21.04 0 0
21.08 0 0
21.12 0 0
21.16 0 0
21.2 0 0
21.24 0 0
21.28 0 0
21.32 0 0
21.36 0 0
21.4 0 0
21.44 0 0
21.48 0 0
21.52 0 0
21.56 0 0
21.6 0 0
21.64 0 0
21.68 0 0
21.72 0 0
21.76 0 0
21.8 0 0
21.84 0 0
21.88 0 0
21.92 0 0
21.96 0 0
22 0 0
22.04 0 0
22.08 0 0
22.12 0 0
22.16 0 0
22.2 0 0
22.24 0 0
22.28 0 0
22.32 0 0
22.36 0 0
22.4 0 0
22.44 0 0
22.48 0 0
22.52 0 0
22.56 0 0
22.6 0 0
22.64 0 0
22.68 0 0
22.72 0 0
22.76 0 0
22.8 0 0
22.84 0 0
22.88 0 0
22.92 0 0
22.96 0 0
23 0 0
23.04 0 0
23.08 0 0
23.12 0 0
23.16 0 0
23.2 0 0
23.24 0 0
23.28 0 0
23.32 0 0
23.36 0 0
23.4 0 0
23.44 0 0
23.48 0 0
23.52 0 0
23.56 0 0
23.6 0 0
23.64 0 0
23.68 0 0
23.72 0 0
23.76 0 0
23.8 0 0
23.84 0 0
23.88 0 0
23.92 0 0
23.96 0 0
24 0 0
24.04 0 0
24.08 0 0
24.12 0 0
24.16 0 0
24.2 0 0
24.24 0 0
24.28 0 0
24.32 0 0
24.36 0 0
24.4 0 0
24.44 0 0
24.48 0 0
24.52 0 0
24.56 0 0
24.6 0 0
24.64 0 0
24.68 0 0
24.72 0 0
24.76 0 0
24.8 0 0
24.84 0 0
24.88 0 0
24.92 0 0
24.96 0 0
25 0 0
25.04 0 0
25.08 0 0
25.12 0 0
25.16 0 0
25.2 0 0
25.24 0 0
25.28 0 0
25.32 0 0
25.36 0 0
25.4 0 0
25.44 0 0
25.48 0 0
25.52 0 0
25.56 0 0
25.6 0 0
25.64 0 0
25.68 0 0
25.72 0 0
25.76 0 0
25.8 0 0
25.84 0 0
25.88 0 0
25.92 0 0
25.96 0 0
26 0 0
26.04 0 0
26.08 0 0
26.12 0 0
26.16 0 0
26.2 0 0
26.24 0 0
26.28 0 0
26.32 0 0
26.36 0 0
26.4 0 0
26.44 0 0
26.48 0 0
26.52 0 0
26.56 0 0
26.6 0 0
26.64 0 0
26.68 0 0
26.72 0 0
26.76 0 0
26.8 0 0
26.84 0 0
26.88 0 0
26.92 0 0
26.96 0 0
27 0 0
27.04 0 0
27.08 0 0
27.12 0 0
27.16 0 0
27.2 0 0
27.24 0 0
27.28 0 0
27.32 0 0
27.36 0 0
27.4 0 0
27.44 0 0
27.48 0 0
27.52 0 0
27.56 0 0
27.6 0 0
27.64 0 0
27.68 0 0
27.72 0 0
27.76 0 0
27.8 0 0
27.84 0 0
27.88 0 0
27.92 0 0
27.96 0 0
28 0 0
28.04 0 0
28.08 0 0
28.12 0 0
28.16 0 0
28.2 0 0
28.24 0 0
28.28 0 0
28.32 0 0
28.36 0 0
28.4 0 0
28.44 0 0
28.48 0 0
28.52 0 0
28.56 0 0
28.6 0 0
28.64 0 0
28.68 0 0
28.72 0 0
28.76 0 0
28.8 0 0
28.84 0 0
28.88 0 0
28.92 0 0
28.96 0 0
29 0 0
29.04 0 0
29.08 0 0
29.12 0 0
29.16 0 0
29.2 0 0
29.24 0 0
29.28 0 0
29.32 0 0
29.36 0 0
29.4 0 0
29.44 0 0
29.48 0 0
29.52 0 0
29.56 0 0
29.6 0 0
29.64 0 0
29.68 0 0
29.72 0 0
29.76 0 0
29.8 0 0
29.84 0 0
29.88 0 0
29.92 0 0
29.96 0 0
30 0 0
30.04 0 0
30.08 0 0
30.12 0 0
30.16 0 0
30.2 0 0
30.24 0 0
30.28 0 0
30.32 0 0
30.36 0 0
30.4 0 0
30.44 0 0
30.48 0 0
30.52 0 0
30.56 0 0
30.6 0 0
30.64 0 0
30.68 0 0
30.72 0 0
30.76 0 0
30.8 0 0
30.84 0 0
30.88 0 0
30.92 0 0
30.96 0 0
31 0 0
31.04 0 0
31.08 0 0
31.12 0 0
31.16 0 0
31.2 0 0
31.24 0 0
31.28 0 0
31.32 0 0
31.36 0 0
31.4 0 0
31.44 0 0
31.48 0 0
31.52 0 0
31.56 0 0
31.6 0 0
31.64 0 0
31.68 0 0
31.72 0 0
31.76 0 0
31.8 0 0
31.84 0 0
31.88 0 0
31.92 0 0
31.96 0 0
0 0.005 0
0.04 0.005 0
0.08 0.005 0
0.12 0.005 0
0.16 0.005 0
0.2 0.005 0
0.24 0.005 0
0.28 0.005 0
0.32 0.005 0
0.36 0.005 0
0.4 0.005 0
0.44 0.005 0
0.48 0.005 0
0.52 0.005 0
0.56 0.005 0
0.6 0.005 0
0.64 0.005 0
0.68 0.005 0
0.72 0.005 0
0.76 0.005 0
0.8 0.005 0
0.84 0.005 0
0.88 0.005 0
0.92 0.005 0
0.96 0.005 0
1 0.005 0
1.04 0.005 0
1.08 0.005 0
1.12 0.005 0
1.16 0.005 0
1.2 0.005 0
1.24 0.005 0
1.28 0.005 0
1.32 0.005 0
1.36 0.005 0
1.4 0.005 0
1.44 0.005 0
1.48 0.005 0
1.52 0.005 0
1.56 0.005 0
1.6 0.005 0
1.64 0.005 0
1.68 0.005 0
1.72 0.005 0
1.76 0.005 0
1.8 0.005 0
1.84 0.005 0
1.88 0.005 0
1.92 0.005 0
1.96 0.005 0
2 0.005 0
2.04 0.005 0
2.08 0.005 0
2.12 0.005 0
2.16 0.005 0
2.2 0.005 0
2.24 0.005 0
2.28 0.005 0
2.32 0.005 0
2.36 0.005 0
2.4 0.005 0
2.44 0.005 0
2.48 0.005 0
2.52 0.005 0
2.56 0.005 0
2.6 0.005 0
2.64 0.005 0
2.68 0.005 0
2.72 0.005 0
2.76 0.005 0
2.8 0.005 0
2.84 0.005 0
2.88 0.005 0
2.92 0.005 0
2.96 0.005 0
3 0.005 0
3.04 0.005 0
3.08 0.005 0
3.12 0.005 0
3.16 0.005 0
3.2 0.005 0
3.24 0.005 0
3.28 0.005 0
3.32 0.005 0
3.36 0.005 0
3.4 0.005 0
3.44 0.005 0
3.48 0.005 0
3.52 0.005 0
3.56 0.005 0
3.6 0.005 0
3.64 0.005 0
3.68 0.005 0
3.72 0.005 0
3.76 0.005 0
3.8 0.005 0
3.84 0.005 0
3.88 0.005 0
3.92 0.005 0
3.96 0.005 0
4 0.005 0
4.04 0.005 0
4.08 0.005 0
4.12 0.005 0
4.16 0.005 0
4.2 0.005 0
4.24 0.005 0
4.28 0.005 0
4.32 0.005 0
4.36 0.005 0
4.4 0.005 0
4.44 0.005 0
4.48 0.005 0
4.52 0.005 0
4.56 0.005 0
4.6 0.005 0
4.64 0.005 0
4.68 0.005 0
4.72 0.005 0
4.76 0.005 0
4.8 0.005 0
4.84 0.005 0
4.88 0.005 0
4.92 0.005 0
4.96 0.005 0
5 0.005 0
5.04 0.005 0
5.08 0.005 0
5.12 0.005 0
5.16 0.005 0
5.2 0.005 0
5.24 0.005 0
5.28 0.005 0
5.32 0.005 0
5.36 0.005 0
5.4 0.005 0
5.44 0.005 0
5.48 0.005 0
5.52 0.005 0
5.56 0.005 0
5.6 0.005 0
5.64 0.005 0
5.68 0.005 0
5.72 0.005 0
5.76 0.005 0
5.8 0.005 0
5.84 0.005 0
5.88 0.005 0
5.92 0.005 0
5.96 0.005 0
6 0.005 0
6.04 0.005 0
6.08 0.005 0
6.12 0.005 0
6.16 0.005 0
6.2 0.005 0
6.24 0.005 0
6.28 0.005 0
6.32 0.005 0
6.36 0.005 0
6.4 0.005 0
6.44 0.005 0
6.48 0.005 0
6.52 0.005 0
6.56 0.005 0
6.6 0.005 0
6.64 0.005 0
6.68 0.005 0
6.72 0.005 0
6.76 0.005 0
6.8 0.005 0
6.84 0.005 0
6.88 0.005 0
6.92 0.005 0
6.96 0.005 0
7 0.005 0
7.04 0.005 0
7.08 0.005 0
7.12 0.005 0
7.16 0.005 0
7.2 0.005 0
7.24 0.005 0
7.28 0.005 0
7.32 0.005 0
7.36 0.005 0
7.4 0.005 0
[...]
POINT_DATA 160000

SCALARS u float 1
LOOKUP_TABLE default
-1
-0.483344
-0.183954
-0.108837
-0.0810232
-0.0668228
-0.0581063
-0.0521399
-0.0477639
-0.0444003
-0.0417264
-0.0395461
-0.0377324
-0.0361991
-0.0348851
-0.0337459
-0.0327482
-0.0318667
-0.0310814
-0.0303769
-0.0297406
-0.0291626
-0.0286347
-0.0281502
-0.0277035
-0.02729
-0.0269059
-0.0265479
-0.0262133
-0.0258997
-0.0256052
-0.025328
-0.0250668
-0.0248201
-0.0245871
-0.0243667
-0.0241582
-0.0239608
-0.023774
-0.0235972
-0.0234301
-0.0232724
-0.0231238
-0.0229842
-0.0228536
-0.0227321
-0.0226198
-0.0225169
-0.0224236
-0.0223396
-0.0222648
-0.0221986
-0.0221404
-0.0220893
-0.0220446
-0.0220055
-0.0219712
-0.0219412
-0.0219147
-0.0218909
-0.0218691
-0.0218485
-0.0218283
-0.0218081
-0.0217875
-0.0217666
-0.0217455
-0.0217247
-0.0217048
-0.0216861
-0.0216693
-0.0216547
-0.0216424
-0.0216323
-0.0216245
-0.0216187
-0.0216145
-0.0216116
-0.0216097
-0.0216085
-0.0216078
-0.0216073
-0.0216069
-0.0216066
-0.0216061
-0.0216056
-0.021605
-0.0216043
-0.0216034
-0.0216025
-0.0216016
-0.0216005
-0.0215995
-0.0215984
-0.0215972
-0.0215961
-0.021595
-0.0215938
-0.0215927
-0.0215915
-0.0215904
-0.0215893
-0.0215881
-0.021587
-0.0215858
-0.0215847
-0.0215836
-0.0215825
-0.0215813
-0.0215802
-0.0215791
-0.021578
-0.0215769
-0.0215758
-0.0215747
-0.0215736
-0.0215725
-0.0215714
-0.0215703
-0.0215693
-0.0215682
-0.0215671
-0.0215661
-0.021565
-0.021564
-0.0215629
-0.0215619
-0.0215609
-0.0215599
-0.0215589
-0.0215579
-0.0215569
-0.0215559
-0.0215549
-0.021554
-0.021553
-0.0215521
-0.0215511
-0.0215502
-0.0215493
-0.0215483
-0.0215474
-0.0215465
-0.0215457
-0.0215448
-0.0215439
-0.021543
-0.0215422
-0.0215413
-0.0215405
-0.0215397
-0.0215389
-0.021538
-0.0215372
-0.0215365
-0.0215357
-0.0215349
-0.0215341
-0.0215334
-0.0215326
-0.0215319
-0.0215312
-0.0215305
-0.0215297
-0.021529
-0.0215283
-0.0215277
-0.021527
-0.0215263
-0.0215256
-0.021525
-0.0215243
-0.0215237
-0.0215231
-0.0215224
-0.0215218
-0.0215212
-0.0215206
-0.02152
-0.0215194
-0.0215188
-0.0215183
-0.0215177
-0.0215171
-0.0215166
-0.021516
-0.0215155
-0.0215149
-0.0215144
-0.0215139
-0.0215134
-0.0215128
-0.0215123
-0.0215118
-0.0215113
-0.0215108
-0.0215103
-0.0215098
-0.0215094
-0.0215089
-0.0215084
-0.0215079
-0.0215075
-0.021507
-0.0215065
-0.0215061
-0.0215056
-0.0215052
-0.0215047
-0.0215043
-0.0215038
-0.0215034
-0.021503
-0.0215025
-0.0215021
-0.0215017
-0.0215013
-0.0215008
-0.0215004
-0.0215
-0.0214996
-0.0214992
-0.0214988
-0.0214983
-0.0214979
-0.0214975
-0.0214971
-0.0214967
-0.0214963
-0.0214959
-0.0214955
-0.0214951
-0.0214947
-0.0214943
-0.0214939
-0.0214935
-0.0214932
-0.0214928
-0.0214924
-0.021492
-0.0214916
-0.0214912
-0.0214908
-0.0214904
-0.0214901
-0.0214897
-0.0214893
-0.0214889
-0.0214885
-0.0214881
-0.0214878
-0.0214874
-0.021487
-0.0214866
-0.0214862
-0.0214859
-0.0214855
-0.0214851
-0.0214847
-0.0214844
-0.021484
-0.0214836
-0.0214832
-0.0214828
-0.0214825
-0.0214821
-0.0214817
-0.0214813
-0.021481
-0.0214806
-0.0214802
-0.0214799
-0.0214795
-0.0214791
-0.0214787
-0.0214784
-0.021478
-0.0214776
-0.0214772
-0.0214769
-0.0214765
-0.0214761
-0.0214758
-0.0214754
-0.021475
-0.0214746
-0.0214743
-0.0214739
-0.0214735
-0.0214732
-0.0214728
-0.0214724
-0.021472
-0.0214717
-0.0214713
-0.0214709
-0.0214706
-0.0214702
-0.0214698
-0.0214694
-0.0214691
-0.0214687
-0.0214683
-0.021468
-0.0214676
-0.0214672
-0.0214669
-0.0214665
-0.0214661
-0.0214657
-0.0214654
-0.021465
-0.0214646
-0.0214643
-0.0214639
-0.0214635
-0.0214632
-0.0214628
-0.0214624
-0.021462
-0.0214617
-0.0214613
-0.0214609
-0.0214606
-0.0214602
-0.0214598
-0.0214595
-0.0214591
-0.0214587
-0.0214583
-0.021458
-0.0214576
-0.0214572
-0.0214569
-0.0214565
-0.0214561
-0.0214558
-0.0214554
-0.021455
-0.0214547
-0.0214543
-0.0214539
-0.0214536
-0.0214532
-0.0214528
-0.0214524
-0.0214521
-0.0214517
-0.0214513
-0.021451
-0.0214506
-0.0214502
-0.0214499
-0.0214495
-0.0214491
-0.0214488
-0.0214484
-0.021448
-0.0214477
-0.0214473
-0.0214469
-0.0214465
-0.0214462
-0.0214458
-0.0214454
-0.0214451
-0.0214447
-0.0214443
-0.021444
-0.0214436
-0.0214432
-0.0214429
-0.0214425
-0.0214421
-0.0214418
-0.0214414
-0.021441
-0.0214407
-0.0214403
-0.0214399
-0.0214395
-0.0214392
-0.0214388
-0.0214384
-0.0214381
-0.0214377
-0.0214373
-0.021437
-0.0214366
-0.0214362
-0.0214359
-0.0214355
-0.0214351
-0.0214348
-0.0214344
-0.021434
-0.0214337
-0.0214333
-0.0214329
-0.0214326
-0.0214322
-0.0214318
-0.0214314
-0.0214311
-0.0214307
-0.0214303
-0.02143
-0.0214296
-0.0214292
-0.0214289
-0.0214285
-0.0214281
-0.0214278
-0.0214274
-0.021427
-0.0214267
-0.0214263
-0.0214259
-0.0214256
-0.0214252
-0.0214248
-0.0214245
-0.0214241
-0.0214237
-0.0214234
-0.021423
-0.0214226
-0.0214223
-0.0214219
-0.0214215
-0.0214211
-0.0214208
-0.0214204
-0.02142
-0.0214197
-0.0214193
-0.0214189
-0.0214186
-0.0214182
-0.0214178
-0.0214175
-0.0214171
-0.0214167
-0.0214164
-0.021416
-0.0214156
-0.0214153
-0.0214149
-0.0214145
-0.0214142
-0.0214138
-0.0214134
-0.0214131
-0.0214127
-0.0214123
-0.021412
-0.0214116
-0.0214112
-0.0214108
-0.0214105
-0.0214101
-0.0214097
-0.0214094
-0.021409
-0.0214086
-0.0214083
-0.0214079
-0.0214075
-0.0214072
-0.0214068
-0.0214064
-0.0214061
-0.0214057
-0.0214053
-0.021405
-0.0214046
-0.0214042
-0.0214039
-0.0214035
-0.0214031
-0.0214028
-0.0214024
-0.021402
-0.0214016
-0.0214013
-0.0214009
-0.0214005
-0.0214002
-0.0213998
-0.0213994
-0.0213991
-0.0213987
-0.0213983
-0.021398
-0.0213976
-0.0213972
-0.0213969
-0.0213965
-0.0213961
-0.0213958
-0.0213954
-0.021395
-0.0213947
-0.0213943
-0.0213939
-0.0213936
-0.0213932
-0.0213928
-0.0213925
-0.0213921
-0.0213917
-0.0213913
-0.021391
-0.0213906
-0.0213902
-0.0213899
-0.0213895
-0.0213891
-0.0213888
-0.0213884
-0.021388
-0.0213877
-0.0213873
-0.0213869
-0.0213866
-0.0213862
-0.0213858
-0.0213855
-0.0213851
-0.0213847
-0.0213844
-0.021384
-0.0213836
-0.0213832
-0.0213829
-0.0213825
-0.0213821
-0.0213818
-0.0213814
-0.021381
-0.0213807
-0.0213803
-0.0213799
-0.0213796
-0.0213792
-0.0213788
-0.0213785
-0.0213781
-0.0213777
-0.0213774
-0.021377
-0.0213766
-0.0213763
-0.0213759
-0.0213755
-0.0213751
-0.0213748
-0.0213744
-0.021374
-0.0213737
-0.0213733
-0.0213729
-0.0213726
-0.0213722
-0.0213718
-0.0213715
-0.0213711
-0.0213707
-0.0213704
-0.02137
-0.0213696
-0.0213693
-0.0213689
-0.0213685
-0.0213681
-0.0213678
-0.0213674
-0.021367
-0.0213667
-0.0213663
-0.0213659
-0.0213656
-0.0213652
-0.0213648
-0.0213645
-0.0213641
-0.0213637
-0.0213634
-0.021363
-0.0213626
-0.0213622
-0.0213619
-0.0213615
-0.0213611
-0.0213608
-0.0213604
-0.02136
-0.0213597
-0.0213593
-0.0213589
-0.0213586
-0.0213582
-0.0213578
-0.0213575
-0.0213571
-0.0213567
-0.0213564
-0.021356
-0.0213556
-0.0213552
-0.0213549
-0.0213545
-0.0213541
-0.0213538
-0.0213534
-0.021353
-0.0213527
-0.0213523
-0.0213519
-0.0213516
-0.0213512
-0.0213508
-0.0213504
-0.0213501
-0.0213497
-0.0213493
-0.021349
-0.0213486
-0.0213482
-0.0213479
-0.0213475
-0.0213471
-0.0213468
-0.0213464
-0.021346
-0.0213457
-0.0213453
-0.0213449
-0.0213445
-0.0213442
-0.0213438
-0.0213434
-0.0213431
-0.0213427
-0.0213423
-0.021342
-0.0213416
-0.0213412
-0.0213409
-0.0213405
-0.0213401
-0.0213397
-0.0213394
-0.021339
-0.0213386
-0.0213383
-0.0213379
-0.0213375
-0.0213372
-0.0213368
-0.0213364
-0.0213361
-0.0213357
-0.0213353
-0.0213349
-0.0213346
-0.0213342
-0.0213338
-0.0213335
-0.0213331
-0.0213327
-0.0213324
-0.021332
-0.0213316
-0.0213313
-0.0213309
-0.0213305
-0.0213301
-0.0213298
-0.0213294
-0.021329
-0.0213287
-0.0213283
-0.0213279
-0.0213276
-0.0213272
-0.0213268
-0.0213265
-0.0213261
-0.0213257
-0.0213253
-0.021325
-0.0213246
-0.0213242
-0.0213239
-0.0213235
-0.0213231
-0.0213228
-0.0213224
-0.021322
-0.0213217
-0.0213213
-0.0213209
-0.0213205
-0.0213202
-0.0213198
-0.0213194
-0.0213191
-0.0213187
-0.0213183
-0.021318
-0.0213176
-0.0213172
-0.0213168
-0.0213165
-0.0213161
-0.0213157
-0.0213154
-0.021315
-0.0213146
-0.0213143
-0.0213139
-0.0213135
-0.0213132
-0.0213128
-0.0213124
-0.021312
-0.0213117
-0.0213113
-0.0213109
-0.0213106
-0.0213102
-0.0213098
-0.0213095
-0.0213091
-0.0213087
-0.0213083
-0.021308
-0.0213076
-0.0213072
-0.0213069
-0.0213065
-0.0213061
-0.0213058
-0.0213054
-0.021305
-0.0213046
-0.0213043
-0.0213039
-0.0213035
-0.0213032
-0.0213028
-0.0213024
-0.0213021
-0.0213017
-0.0213013
-0.021301
-0.0213006
-0.0213002
-0.0212998
-0.0212995
-0.0212991
-0.0212987
-0.0212984
-0.021298
-0.0212976
-0.0212972
-0.0212969
-0.0212965
-0.0212961
-0.0212958
-0.0212954
-0.021295
-0.0212946
-0.0212943
-0.0212939
-0.0212935
-0.0212931
-0.0212927
-0.0212923
-0.021292
-0.0212916
-0.0212911
-0.0212907
-0.0212903
-0.0212899
-0.0212894
-0.0212889
-0.0212884
-0.0212879
-0.0212873
-0.0212866
-0.0212859
-0.0212851
-0.0212841
-0.0212832
-0.0212815
-0.0212815
-0.0212815
-0.0212815
1
0.483344
0.183954
0.108837
0.0810232
0.0668228
0.0581063
0.0521399
0.0477639
0.0444003
0.0417264
0.0395461
0.0377324
0.0361991
0.0348851
0.0337459
0.0327482
0.0318667
0.0310814
0.0303769
0.0297406
0.0291626
0.0286347
0.0281502
0.0277035
0.02729
0.0269059
0.0265479
0.0262133
0.0258997
0.0256052
0.025328
0.0250668
0.0248201
0.0245871
0.0243667
0.0241582
0.0239608
0.023774
0.0235972
0.0234301
0.0232724
0.0231238
0.0229842
0.0228536
0.0227321
0.0226198
0.0225169
0.0224236
0.0223396
0.0222648
0.0221986
0.0221404
0.0220893
0.0220446
0.0220055
0.0219712
0.0219412
0.0219147
0.0218909
0.0218691
0.0218485
0.0218283
0.0218081
0.0217875
0.0217666
0.0217455
0.0217247
0.0217048
0.0216861
0.0216693
0.0216547
0.0216424
0.0216323
0.0216245
0.0216187
0.0216145
0.0216116
0.0216097
0.0216085
0.0216078
0.0216073
0.0216069
0.0216066
0.0216061
0.0216056
0.021605
0.0216043
0.0216034
0.0216025
0.0216016
0.0216005
0.0215995
0.0215984
0.0215972
0.0215961
0.021595
0.0215938
0.0215927
0.0215915
0.0215904
0.0215893
0.0215881
0.021587
0.0215858
0.0215847
0.0215836
0.0215825
0.0215813
0.0215802
0.0215791
0.021578
0.0215769
0.0215758
0.0215747
0.0215736
0.0215725
0.0215714
0.0215703
0.0215693
0.0215682
0.0215671
0.0215661
0.021565
0.021564
0.0215629
0.0215619
0.0215609
0.0215599
0.0215589
0.0215579
0.0215569
0.0215559
0.0215549
0.021554
0.021553
0.0215521
0.0215511
0.0215502
0.0215493
0.0215483
0.0215474
0.0215465
0.0215457
0.0215448
0.0215439
0.021543
0.0215422
0.0215413
0.0215405
0.0215397
0.0215389
0.021538
0.0215372
0.0215365
0.0215357
0.0215349
0.0215341
0.0215334
0.0215326
0.0215319
0.0215312
0.0215305
0.0215297
0.021529
0.0215283
0.0215277
0.021527
0.0215263
0.0215256
0.021525
0.0215243
0.0215237
0.0215231
0.0215224
0.0215218
0.0215212
0.0215206
0.02152
0.0215194
0.0215188
0.0215183
0.0215177
0.0215171
0.0215166
0.021516
0.0215155
0.0215149
0.0215144
0.0215139
0.0215134
0.0215128
0.0215123
0.0215118
0.0215113
0.0215108
0.0215103
0.0215098
0.0215094
0.0215089
0.0215084
0.0215079
0.0215075
0.021507
0.0215065
0.0215061
0.0215056
0.0215052
0.0215047
0.0215043
0.0215038
0.0215034
0.021503
0.0215025
0.0215021
0.0215017
0.0215013
0.0215008
0.0215004
0.0215
0.0214996
0.0214992
0.0214988
0.0214983
0.0214979
0.0214975
0.0214971
0.0214967
0.0214963
0.0214959
0.0214955
0.0214951
0.0214947
0.0214943
0.0214939
0.0214935
0.0214932
0.0214928
0.0214924
0.021492
0.0214916
0.0214912
0.0214908
0.0214904
0.0214901
0.0214897
0.0214893
0.0214889
0.0214885
0.0214881
0.0214878
0.0214874
0.021487
0.0214866
0.0214862
0.0214859
0.0214855
0.0214851
0.0214847
0.0214844
0.021484
0.0214836
0.0214832
0.0214828
0.0214825
0.0214821
0.0214817
0.0214813
0.021481
0.0214806
0.0214802
0.0214799
0.0214795
0.0214791
0.0214787
0.0214784
0.021478
0.0214776
0.0214772
0.0214769
0.0214765
0.0214761
0.0214758
0.0214754
0.021475
0.0214746
0.0214743
0.0214739
0.0214735
0.0214732
0.0214728
0.0214724
0.021472
0.0214717
0.0214713
0.0214709
0.0214706
0.0214702
0.0214698
0.0214694
0.0214691
0.0214687
0.0214683
0.021468
0.0214676
0.0214672
0.0214669
0.0214665
0.0214661
0.0214657
0.0214654
0.021465
0.0214646
0.0214643
0.0214639
0.0214635
0.0214632
0.0214628
0.0214624
0.021462
0.0214617
0.0214613
0.0214609
0.0214606
0.0214602
0.0214598
0.0214595
0.0214591
0.0214587
0.0214583
0.021458
0.0214576
0.0214572
0.0214569
0.0214565
0.0214561
0.0214558
0.0214554
0.021455
0.0214547
0.0214543
0.0214539
0.0214536
0.0214532
0.0214528
0.0214524
0.0214521
0.0214517
0.0214513
0.021451
0.0214506
0.0214502
0.0214499
0.0214495
0.0214491
0.0214488
0.0214484
0.021448
0.0214477
0.0214473
0.0214469
0.0214465
0.0214462
0.0214458
0.0214454
0.0214451
0.0214447
0.0214443
0.021444
0.0214436
0.0214432
0.0214429
0.0214425
0.0214421
0.0214418
0.0214414
0.021441
0.0214407
0.0214403
0.0214399
0.0214395
0.0214392
0.0214388
0.0214384
0.0214381
0.0214377
0.0214373
0.021437
0.0214366
0.0214362
0.0214359
0.0214355
0.0214351
0.0214348
0.0214344
0.021434
0.0214337
0.0214333
0.0214329
0.0214326
0.0214322
0.0214318
0.0214314
0.0214311
0.0214307
0.0214303
0.02143
0.0214296
0.0214292
0.0214289
0.0214285
0.0214281
0.0214278
0.0214274
0.021427
0.0214267
0.0214263
0.0214259
0.0214256
0.0214252
0.0214248
0.0214245
0.0214241
0.0214237
0.0214234
0.021423
0.0214226
0.0214223
0.0214219
0.0214215
0.0214211
0.0214208
0.0214204
0.02142
0.0214197
0.0214193
0.0214189
0.0214186
0.0214182
0.0214178
0.0214175
0.0214171
0.0214167
0.0214164
0.021416
0.0214156
0.0214153
0.0214149
0.0214145
0.0214142
0.0214138
0.0214134
0.0214131
0.0214127
0.0214123
0.021412
0.0214116
0.0214112
0.0214108
0.0214105
0.0214101
0.0214097
0.0214094
0.021409
0.0214086
0.0214083
0.0214079
0.0214075
0.0214072
0.0214068
0.0214064
0.0214061
0.0214057
0.0214053
0.021405
0.0214046
0.0214042
0.0214039
0.0214035
0.0214031
0.0214028
0.0214024
0.021402
0.0214016
0.0214013
0.0214009
0.0214005
0.0214002
0.0213998
0.0213994
0.0213991
0.0213987
0.0213983
0.021398
0.0213976
0.0213972
0.0213969
0.0213965
0.0213961
0.0213958
0.0213954
0.021395
0.0213947
0.0213943
0.0213939
0.0213936
0.0213932
0.0213928
0.0213925
0.0213921
0.0213917
0.0213913
0.021391
0.0213906
0.0213902
0.0213899
0.0213895
0.0213891
0.0213888
0.0213884
0.021388
0.0213877
0.0213873
0.0213869
0.0213866
0.0213862
0.0213858
0.0213855
0.0213851
0.0213847
0.0213844
0.021384
0.0213836
0.0213832
0.0213829
0.0213825
0.0213821
0.0213818
0.0213814
0.021381
0.0213807
0.0213803
0.0213799
0.0213796
0.0213792
0.0213788
0.0213785
0.0213781
0.0213777
0.0213774
0.021377
0.0213766
0.0213763
0.0213759
0.0213755
0.0213751
0.0213748
0.0213744
0.021374
0.0213737
0.0213733
0.0213729
0.0213726
0.0213722
0.0213718
0.0213715
0.0213711
0.0213707
0.0213704
0.02137
0.0213696
0.0213693
0.0213689
0.0213685
0.0213681
0.0213678
0.0213674
0.021367
0.0213667
0.0213663
0.0213659
0.0213656
0.0213652
0.0213648
0.0213645
0.0213641
0.0213637
0.0213634
0.021363
0.0213626
0.0213622
0.0213619
0.0213615
0.0213611
0.0213608
0.0213604
0.02136
0.0213597
0.0213593
0.0213589
0.0213586
0.0213582
0.0213578
0.0213575
0.0213571
0.0213567
0.0213564
0.021356
0.0213556
0.0213552
0.0213549
0.0213545
0.0213541
0.0213538
0.0213534
0.021353
0.0213527
0.0213523
0.0213519
0.0213516
0.0213512
0.0213508
0.0213504
0.0213501
0.0213497
0.0213493
0.021349
0.0213486
0.0213482
0.0213479
0.0213475
0.0213471
0.0213468
0.0213464
0.021346
0.0213457
0.0213453
0.0213449
0.0213445
0.0213442
0.0213438
0.0213434
0.0213431
0.0213427
0.0213423
0.021342
0.0213416
0.0213412
0.0213409
0.0213405
0.0213401
0.0213397
0.0213394
0.021339
0.0213386
0.0213383
0.0213379
0.0213375
0.0213372
0.0213368
0.0213364
0.0213361
0.0213357
0.0213353
0.0213349
0.0213346
0.0213342
0.0213338
0.0213335
0.0213331
0.0213327
0.0213324
0.021332
0.0213316
0.0213313
0.0213309
0.0213305
0.0213301
0.0213298
0.0213294
0.021329
0.0213287
0.0213283
0.0213279
0.0213276
0.0213272
0.0213268
0.0213265
0.0213261
0.0213257
0.0213253
0.021325
0.0213246
0.0213242
0.0213239
0.0213235
0.0213231
0.0213228
0.0213224
0.021322
0.0213217
0.0213213
0.0213209
0.0213205
0.0213202
0.0213198
0.0213194
0.0213191
0.0213187
0.0213183
0.021318
0.0213176
0.0213172
0.0213168
0.0213165
0.0213161
0.0213157
0.0213154
0.021315
0.0213146
0.0213143
0.0213139
0.0213135
0.0213132
0.0213128
0.0213124
0.021312
0.0213117
0.0213113
0.0213109
0.0213106
0.0213102
0.0213098
0.0213095
0.0213091
0.0213087
0.0213083
0.021308
0.0213076
0.0213072
0.0213069
0.0213065
0.0213061
0.0213058
0.0213054
0.021305
0.0213046
0.0213043
0.0213039
0.0213035
0.0213032
0.0213028
0.0213024
0.0213021
0.0213017
0.0213013
0.021301
0.0213006
0.0213002
0.0212998
0.0212995
0.0212991
0.0212987
0.0212984
0.021298
0.0212976
0.0212972
0.0212969
0.0212965
0.0212961
0.0212958
0.0212954
0.021295
0.0212946
0.0212943
0.0212939
0.0212935
0.0212931
0.0212927
0.0212923
0.021292
0.0212916
0.0212911
0.0212907
0.0212903
0.0212899
0.0212894
0.0212889
0.0212884
0.0212879
0.0212873
0.0212866
0.0212859
0.0212851
0.0212841
0.0212832
0.0212815
0.0212815
0.0212815
0.0212815
1
0.969169
0.495596
0.3142
0.237871
0.197366
0.172101
0.154661
0.141804
0.131888
0.123985
0.117529
0.112151
0.107598
0.103694
0.100306
0.0973377
0.0947136
0.0923756
0.0902777
0.0883831
0.086662
0.0850903
0.083648
0.0823186
0.0810884
0.079946
0.0788816
0.0778872
0.0769557
0.0760812
0.0752587
0.0744837
0.0737527
0.0730625
0.0724102
0.0717935
0.0712103
0.070659
0.070138
0.0696462
0.0691827
0.0687469
0.0683385
0.0679574
0.0676038
0.067278
0.0669805
0.0667111
0.0664696
0.0662547
0.0660648
0.0658978
0.0657513
0.0656229
0.0655103
0.0654113
0.065324
0.0652462
0.0651757
0.0651104
0.0650481
0.0649872
0.0649264
0.0648652
0.0648038
0.0647429
0.0646838
0.0646279
0.0645765
0.0645309
0.0644916
0.064459
0.0644329
0.0644127
0.0643978
0.0643873
0.0643801
0.0643755
0.0643726
0.0643708
0.0643696
0.0643685
0.0643674
0.0643662
0.0643646
0.0643628
0.0643606
0.0643582
0.0643556
0.0643529
0.06435
0.064347
0.0643439
0.0643408
0.0643377
0.0643346
0.0643314
0.0643283
0.0643251
0.064322
0.0643189
0.0643158
0.0643127
0.0643096
0.0643065
0.0643035
0.0643004
0.0642974
0.0642944
0.0642914
0.0642884
0.0642854
0.0642824
0.0642795
0.0642766
0.0642736
0.0642708
0.0642679
0.064265
0.0642622
0.0642594
0.0642566
0.0642538
0.064251
0.0642483
0.0642455
0.0642428
0.0642402
0.0642375
0.0642349
0.0642322
0.0642297
0.0642271
0.0642245
0.064222
0.0642195
0.064217
0.0642145
0.0642121
0.0642097
0.0642073
0.0642049
0.0642026
0.0642003
0.0641979
0.0641957
0.0641934
0.0641912
0.064189
0.0641868
0.0641846
0.0641825
0.0641803
0.0641782
0.0641762
0.0641741
0.0641721
0.0641701
0.0641681
0.0641661
0.0641641
0.0641622
0.0641603
0.0641584
0.0641565
0.0641547
0.0641528
0.064151
0.0641492
0.0641475
0.0641457
0.0641439
0.0641422
0.0641405
0.0641388
0.0641372
0.0641355
0.0641338
0.0641322
0.0641306
0.064129
0.0641274
0.0641259
0.0641243
0.0641228
0.0641212
0.0641197
0.0641182
0.0641167
0.0641153
0.0641138
0.0641123
0.0641109
0.0641095
0.064108
0.0641066
0.0641052
0.0641038
0.0641024
0.0641011
0.0640997
0.0640983
0.064097
0.0640957
0.0640943
0.064093
0.0640917
0.0640904
0.0640891
0.0640878
0.0640865
0.0640852
0.0640839
0.0640826
0.0640814
0.0640801
0.0640788
0.0640776
0.0640763
0.0640751
0.0640738
0.0640726
0.0640714
0.0640702
0.0640689
0.0640677
0.0640665
0.0640653
0.0640641
0.0640629
0.0640617
0.0640605
0.0640593
0.0640581
0.0640569
0.0640557
0.0640545
0.0640533
0.0640521
0.0640509
0.0640497
0.0640486
0.0640474
0.0640462
0.064045
0.0640439
0.0640427
0.0640415
0.0640404
0.0640392
0.064038
0.0640369
0.0640357
0.0640345
0.0640334
0.0640322
0.0640311
0.0640299
0.0640287
0.0640276
0.0640264
0.0640253
0.0640241
0.064023
0.0640218
0.0640207
0.0640195
0.0640184
0.0640172
0.0640161
0.0640149
0.0640138
0.0640126
0.0640115
0.0640103
0.0640092
0.064008
0.0640069
0.0640057
0.0640046
0.0640035
0.0640023
0.0640012
0.064
0.0639989
0.0639977
0.0639966
0.0639955
0.0639943
0.0639932
0.063992
0.0639909
0.0639897
0.0639886
0.0639875
0.0639863
0.0639852
0.0639841
0.0639829
0.0639818
0.0639806
0.0639795
0.0639784
0.0639772
0.0639761
0.063975
0.0639738
0.0639727
0.0639715
0.0639704
0.0639693
0.0639681
0.063967
0.0639659
0.0639647
0.0639636
0.0639625
0.0639613
0.0639602
0.0639591
0.0639579
0.0639568
0.0639557
0.0639545
0.0639534
0.0639523
0.0639511
0.06395
0.0639489
0.0639477
0.0639466
0.0639455
0.0639443
0.0639432
0.0639421
0.0639409
0.0639398
0.0639387