# vtk DataFile Version 2.0
FlowField
ASCII
DATASET STRUCTURED_GRID
DIMENSIONS 800 1 200
POINTS 160000 float
0 0 0
0.04 0 0
0.08 0 0
0.12 0 0
0.16 0 0
0.2 0 0
0.24 0 0
0.28 0 0
0.32 0 0
0.36 0 0
0.4 0 0
0.44 0 0
0.48 0 0
0.52 0 0
0.56 0 0
0.6 0 0
0.64 0 0
0.68 0 0
0.72 0 0
0.76 0 0
0.8 0 0
0.84 0 0
0.88 0 0
0.92 0 0
0.96 0 0
1 0 0
1.04 0 0
1.08 0 0
1.12 0 0
1.16 0 0
1.2 0 0
1.24 0 0
1.28 0 0
1.32 0 0
1.36 0 0
1.4 0 0
1.44 0 0
1.48 0 0
1.52 0 0
1.56 0 0
1.6 0 0
1.64 0 0
1.68 0 0
1.72 0 0
1.76 0 0
1.8 0 0
1.84 0 0
1.88 0 0
1.92 0 0
1.96 0 0
2 0 0
2.04 0 0
2.08 0 0
2.12 0 0
2.16 0 0
2.2 0 0
2.24 0 0
2.28 0 0
2.32 0 0
2.36 0 0
2.4 0 0
2.44 0 0
2.48 0 0
2.52 0 0
2.56 0 0
2.6 0 0
2.64 0 0
2.68 0 0
2.72 0 0
2.76 0 0
2.8 0 0
2.84 0 0
2.88 0 0
2.92 0 0
2.96 0 0
3 0 0
3.04 0 0
3.08 0 0
3.12 0 0
3.16 0 0
3.2 0 0
3.24 0 0
3.28 0 0
3.32 0 0
3.36 0 0
3.4 0 0
3.44 0 0
3.48 0 0
3.52 0 0
3.56 0 0
3.6 0 0
3.64 0 0
3.68 0 0
3.72 0 0
3.76 0 0
3.8 0 0
3.84 0 0
3.88 0 0
3.92 0 0
3.96 0 0
4 0 0
4.04 0 0
4.08 0 0
4.12 0 0
4.16 0 0
4.2 0 0
4.24 0 0
4.28 0 0
4.32 0 0
4.36 0 0
4.4 0 0
4.44 0 0
4.48 0 0
4.52 0 0
4.56 0 0
4.6 0 0
4.64 0 0
4.68 0 0
4.72 0 0
4.76 0 0
4.8 0 0
4.84 0 0
4.88 0 0
4.92 0 0
4.96 0 0
5 0 0
5.04 0 0
5.08 0 0
5.12 0 0
5.16 0 0
5.2 0 0
5.24 0 0
5.28 0 0
5.32 0 0
5.36 0 0
5.4 0 0
5.44 0 0
5.48 0 0
5.52 0 0
5.56 0 0
5.6 0 0
5.64 0 0
5.68 0 0
5.72 0 0
5.76 0 0
5.8 0 0
5.84 0 0
5.88 0 0
5.92 0 0
5.96 0 0
6 0 0
6.04 0 0
6.08 0 0
6.12 0 0
6.16 0 0
6.2 0 0
6.24 0 0
6.28 0 0
6.32 0 0
6.36 0 0
6.4 0 0
6.44 0 0
6.48 0 0
6.52 0 0
6.56 0 0
6.6 0 0
6.64 0 0
6.68 0 0
6.72 0 0
6.76 0 0
6.8 0 0
6.84 0 0
6.88 0 0
6.92 0 0
6.96 0 0
7 0 0
7.04 0 0
7.08 0 0
7.12 0 0
7.16 0 0
7.2 0 0
7.24 0 0
7.28 0 0
7.32 0 0
7.36 0 0
7.4 0 0
7.44 0 0
7.48 0 0
7.52 0 0
7.56 0 0
7.6 0 0
7.64 0 0
7.68 0 0
7.72 0 0
7.76 0 0
7.8 0 0
7.84 0 0
7.88 0 0
7.92 0 0
7.96 0 0
8 0 0
8.04 0 0
8.08 0 0
8.12 0 0
8.16 0 0
8.2 0 0
8.24 0 0
8.28 0 0
8.32 0 0
8.36 0 0
8.4 0 0
8.44 0 0
8.48 0 0
8.52 0 0
8.56 0 0
8.6 0 0
8.64 0 0
8.68 0 0
8.72 0 0
8.76 0 0
8.8 0 0
8.84 0 0
8.88 0 0
8.92 0 0
8.96 0 0
9 0 0
9.04 0 0
9.08 0 0
9.12 0 0
9.16 0 0
9.2 0 0
9.24 0 0
9.28 0 0
9.32 0 0
9.36 0 0
9.4 0 0
9.44 0 0
9.48 0 0
9.52 0 0
9.56 0 0
9.6 0 0
9.64 0 0
9.68 0 0
9.72 0 0
9.76 0 0
9.8 0 0
9.84 0 0
9.88 0 0
9.92 0 0
9.96 0 0
10 0 0
10.04 0 0
10.08 0 0
10.12 0 0
10.16 0 0
10.2 0 0
10.24 0 0
10.28 0 0
10.32 0 0
10.36 0 0
10.4 0 0
10.44 0 0
10.48 0 0
10.52 0 0
10.56 0 0
10.6 0 0
10.64 0 0
10.68 0 0
10.72 0 0
10.76 0 0
10.8 0 0
10.84 0 0
10.88 0 0
10.92 0 0
10.96 0 0
11 0 0
11.04 0 0
11.08 0 0
11.12 0 0
11.16 0 0
11.2 0 0
11.24 0 0
11.28 0 0
11.32 0 0
11.36 0 0
11.4 0 0
11.44 0 0
11.48 0 0
11.52 0 0
11.56 0 0
11.6 0 0
11.64 0 0
11.68 0 0
11.72 0 0
11.76 0 0
11.8 0 0
11.84 0 0
11.88 0 0
11.92 0 0
11.96 0 0
12 0 0
12.04 0 0
12.08 0 0
12.12 0 0
12.16 0 0
12.2 0 0
12.24 0 0
12.28 0 0
12.32 0 0
12.36 0 0
12.4 0 0
12.44 0 0
12.48 0 0
12.52 0 0
12.56 0 0
12.6 0 0
12.64 0 0
12.68 0 0
12.72 0 0
12.76 0 0
12.8 0 0
12.84 0 0
12.88 0 0
12.92 0 0
12.96 0 0
13 0 0
13.04 0 0
13.08 0 0
13.12 0 0
13.16 0 0
13.2 0 0
13.24 0 0
13.28 0 0
13.32 0 0
13.36 0 0
13.4 0 0
13.44 0 0
13.48 0 0
13.52 0 0
13.56 0 0
13.6 0 0
13.64 0 0
13.68 0 0
13.72 0 0
13.76 0 0
13.8 0 0
13.84 0 0
13.88 0 0
13.92 0 0
13.96 0 0
14 0 0
14.04 0 0
14.08 0 0
14.12 0 0
14.16 0 0
14.2 0 0
14.24 0 0
14.28 0 0
14.32 0 0
14.36 0 0
14.4 0 0
14.44 0 0
14.48 0 0
14.52 0 0
14.56 0 0
14.6 0 0
14.64 0 0
14.68 0 0
14.72 0 0
14.76 0 0
14.8 0 0
14.84 0 0
14.88 0 0
14.92 0 0
14.96 0 0
15 0 0
15.04 0 0
15.08 0 0
15.12 0 0
15.16 0 0
15.2 0 0
15.24 0 0
15.28 0 0
15.32 0 0
15.36 0 0
15.4 0 0
15.44 0 0
15.48 0 0
15.52 0 0
15.56 0 0
15.6 0 0
15.64 0 0
15.68 0 0
15.72 0 0
15.76 0 0
15.8 0 0
15.84 0 0
15.88 0 0
15.92 0 0
15.96 0 0
16 0 0
16.04 0 0
16.08 0 0
16.12 0 0
16.16 0 0
16.2 0 0
16.24 0 0
16.28 0 0
16.32 0 0
16.36 0 0
16.4 0 0
16.44 0 0
16.48 0 0
16.52 0 0
16.56 0 0
16.6 0 0
16.64 0 0
16.68 0 0
16.72 0 0
16.76 0 0
16.8 0 0
16.84 0 0
16.88 0 0
16.92 0 0
16.96 0 0
17 0 0
17.04 0 0
17.08 0 0
17.12 0 0
17.16 0 0
17.2 0 0
17.24 0 0
17.28 0 0
17.32 0 0
17.36 0 0
17.4 0 0
17.44 0 0
17.48 0 0
17.52 0 0
17.56 0 0
17.6 0 0
17.64 0 0
17.68 0 0
17.72 0 0
17.76 0 0
17.8 0 0
17.84 0 0
17.88 0 0
17.92 0 0
17.96 0 0
18 0 0
18.04 0 0
18.08 0 0
18.12 0 0
18.16 0 0
18.2 0 0
18.24 0 0
18.28 0 0
18.32 0 0
18.36 0 0
18.4 0 0
18.44 0 0
18.48 0 0
18.52 0 0
18.56 0 0
18.6 0 0
18.64 0 0
18.68 0 0
18.72 0 0
18.76 0 0
18.8 0 0
18.84 0 0
18.88 0 0
18.92 0 0
18.96 0 0
19 0 0
19.04 0 0
19.08 0 0
19.12 0 0
19.16 0 0
19.2 0 0
19.24 0 0
19.28 0 0
19.32 0 0
19.36 0 0
19.4 0 0
19.44 0 0
19.48 0 0
19.52 0 0
19.56 0 0
19.6 0 0
19.64 0 0
19.68 0 0
19.72 0 0
19.76 0 0
19.8 0 0
19.84 0 0
19.88 0 0
19.92 0 0
19.96 0 0
20 0 0
20.04 0 0
20.08 0 0
20.12 0 0
20.16 0 0
20.2 0 0
20.24 0 0
20.28 0 0
20.32 0 0
20.36 0 0
20.4 0 0
20.44 0 0
20.48 0 0
20.52 0 0
20.56 0 0
20.6 0 0
20.64 0 0
20.68 0 0
20.72 0 0
20.76 0 0
20.8 0 0
20.84 0 0
20.88 0 0
20.92 0 0
20.96 0 0
21 0 0
21.04 0 0
21.08 0 0
21.12 0 0
21.16 0 0
21.2 0 0
21.24 0 0
21.28 0 0
21.32 0 0
21.36 0 0
21.4 0 0
21.44 0 0
21.48 0 0
21.52 0 0
21.56 0 0
21.6 0 0
21.64 0 0
21.68 0 0
21.72 0 0
21.76 0 0
21.8 0 0
21.84 0 0
21.88 0 0
21.92 0 0
21.96 0 0
22 0 0
22.04 0 0
22.08 0 0
22.12 0 0
22.16 0 0
22.2 0 0
22.24 0 0
22.28 0 0
22.32 0 0
22.36 0 0
22.4 0 0
22.44 0 0
22.48 0 0
22.52 0 0
22.56 0 0
22.6 0 0
22.64 0 0
22.68 0 0
22.72 0 0
22.76 0 0
22.8 0 0
22.84 0 0
22.88 0 0
22.92 0 0
22.96 0 0
23 0 0
23.04 0 0
23.08 0 0
23.12 0 0
23.16 0 0
23.2 0 0
23.24 0 0
23.28 0 0
23.32 0 0
23.36 0 0
23.4 0 0
23.44 0 0
23.48 0 0
23.52 0 0
23.56 0 0
23.6 0 0
23.64 0 0
23.68 0 0
23.72 0 0
23.76 0 0
23.8 0 0
23.84 0 0
23.88 0 0
23.92 0 0
23.96 0 0
24 0 0
24.04 0 0
24.08 0 0
24.12 0 0
24.16 0 0
24.2 0 0
24.24 0 0
24.28 0 0
24.32 0 0
24.36 0 0
24.4 0 0
24.44 0 0
24.48 0 0
24.52 0 0
24.56 0 0
24.6 0 0
24.64 0 0
24.68 0 0
24.72 0 0
24.76 0 0
24.8 0 0
24.84 0 0
24.88 0 0
24.92 0 0
24.96 0 0
25 0 0
25.04 0 0
25.08 0 0
25.12 0 0
25.16 0 0
25.2 0 0
25.24 0 0
25.28 0 0
25.32 0 0
25.36 0 0
25.4 0 0
25.44 0 0
25.48 0 0
25.52 0 0
25.56 0 0
25.6 0 0
25.64 0 0
25.68 0 0
25.72 0 0
25.76 0 0
25.8 0 0
25.84 0 0
25.88 0 0
25.92 0 0
25.96 0 0
26 0 0
26.04 0 0
26.08 0 0
26.12 0 0
26.16 0 0
26.2 0 0
26.24 0 0
26.28 0 0
26.32 0 0
26.36 0 0
26.4 0 0
26.44 0 0
26.48 0 0
26.52 0 0
26.56 0 0
26.6 0 0
26.64 0 0
26.68 0 0
26.72 0 0
26.76 0 0
26.8 0 0
26.84 0 0
26.88 0 0
26.92 0 0
26.96 0 0
27 0 0
27.04 0 0
27.08 0 0
27.12 0 0
27.16 0 0
27.2 0 0
27.24 0 0
27.28 0 0
27.32 0 0
27.36 0 0
27.4 0 0
27.44 0 0
27.48 0 0
27.52 0 0
27.56 0 0
27.6 0 0
27.64 0 0
27.68 0 0
27.72 0 0
27.76 0 0
27.8 0 0
27.84 0 0
27.88 0 0
27.92 0 0
27.96 0 0
28 0 0
28.04 0 0
28.08 0 0
28.12 0 0
28.16 0 0
28.2 0 0
28.24 0 0
28.28 0 0
28.32 0 0
28.36 0 0
28.4 0 0
28.44 0 0
28.48 0 0
28.52 0 0
28.56 0 0
28.6 0 0
28.64 0 0
28.68 0 0
28.72 0 0
28.76 0 0
28.8 0 0
28.84 0 0
28.88 0 0
28.92 0 0
28.96 0 0
29 0 0
29.04 0 0
29.08 0 0
29.12 0 0
29.16 0 0
29.2 0 0
29.24 0 0
29.28 0 0
29.32 0 0
29.36 0 0
29.4 0 0
29.44 0 0
29.48 0 0
29.52 0 0
29.56 0 0
29.6 0 0
29.64 0 0
29.68 0 0
29.72 0 0
29.76 0 0
29.8 0 0
29.84 0 0
29.88 0 0
29.92 0 0
29.96 0 0
30 0 0
30.04 0 0
30.08 0 0
30.12 0 0
30.16 0 0
30.2 0 0
30.24 0 0
30.28 0 0
30.32 0 0
30.36 0 0
30.4 0 0
30.44 0 0
30.48 0 0
30.52 0 0
30.56 0 0
30.6 0 0
30.64 0 0
30.68 0 0
30.72 0 0
30.76 0 0
30.8 0 0
30.84 0 0
30.88 0 0
30.92 0 0
30.96 0 0
31 0 0
31.04 0 0
31.08 0 0
31.12 0 0
31.16 0 0
31.2 0 0
31.24 0 0
31.28 0 0
31.32 0 0
31.36 0 0
31.4 0 0
31.44 0 0
31.48 0 0
31.52 0 0
31.56 0 0
31.6 0 0
31.64 0 0
31.68 0 0
31.72 0 0
31.76 0 0
31.8 0 0
31.84 0 0
31.88 0 0
31.92 0 0
31.96 0 0
0 0.005 0
0.04 0.005 0
0.08 0.005 0
0.12 0.005 0
0.16 0.005 0
0.2 0.005 0
0.24 0.005 0
0.28 0.005 0
0.32 0.005 0
0.36 0.005 0
0.4 0.005 0
0.44 0.005 0
0.48 0.005 0
0.52 0.005 0
0.56 0.005 0
0.6 0.005 0
0.64 0.005 0
0.68 0.005 0
0.72 0.005 0
0.76 0.005 0
0.8 0.005 0
0.84 0.005 0
0.88 0.005 0
0.92 0.005 0
0.96 0.005 0
1 0.005 0
1.04 0.005 0
1.08 0.005 0
1.12 0.005 0
1.16 0.005 0
1.2 0.005 0
1.24 0.005 0
1.28 0.005 0
1.32 0.005 0
1.36 0.005 0
1.4 0.005 0
1.44 0.005 0
1.48 0.005 0
1.52 0.005 0
1.56 0.005 0
1.6 0.005 0
1.64 0.005 0
1.68 0.005 0
1.72 0.005 0
1.76 0.005 0
1.8 0.005 0
1.84 0.005 0
1.88 0.005 0
1.92 0.005 0
1.96 0.005 0
2 0.005 0
2.04 0.005 0
2.08 0.005 0
2.12 0.005 0
2.16 0.005 0
2.2 0.005 0
2.24 0.005 0
2.28 0.005 0
2.32 0.005 0
2.36 0.005 0
2.4 0.005 0
2.44 0.005 0
2.48 0.005 0
2.52 0.005 0
2.56 0.005 0
2.6 0.005 0
2.64 0.005 0
2.68 0.005 0
2.72 0.005 0
2.76 0.005 0
2.8 0.005 0
2.84 0.005 0
2.88 0.005 0
2.92 0.005 0
2.96 0.005 0
3 0.005 0
3.04 0.005 0
3.08 0.005 0
3.12 0.005 0
3.16 0.005 0
3.2 0.005 0
3.24 0.005 0
3.28 0.005 0
3.32 0.005 0
3.36 0.005 0
3.4 0.005 0
3.44 0.005 0
3.48 0.005 0
3.52 0.005 0
3.56 0.005 0
3.6 0.005 0
3.64 0.005 0
3.68 0.005 0
3.72 0.005 0
3.76 0.005 0
3.8 0.005 0
3.84 0.005 0
3.88 0.005 0
3.92 0.005 0
3.96 0.005 0
4 0.005 0
4.04 0.005 0
4.08 0.005 0
4.12 0.005 0
4.16 0.005 0
4.2 0.005 0
4.24 0.005 0
4.28 0.005 0
4.32 0.005 0
4.36 0.005 0
4.4 0.005 0
4.44 0.005 0
4.48 0.005 0
4.52 0.005 0
4.56 0.005 0
4.6 0.005 0
4.64 0.005 0
4.68 0.005 0
4.72 0.005 0
4.76 0.005 0
4.8 0.005 0
4.84 0.005 0
4.88 0.005 0
4.92 0.005 0
4.96 0.005 0
5 0.005 0
5.04 0.005 0
5.08 0.005 0
5.12 0.005 0
5.16 0.005 0
5.2 0.005 0
5.24 0.005 0
5.28 0.005 0
5.32 0.005 0
5.36 0.005 0
5.4 0.005 0
5.44 0.005 0
5.48 0.005 0
5.52 0.005 0
5.56 0.005 0
5.6 0.005 0
5.64 0.005 0
5.68 0.005 0
5.72 0.005 0
5.76 0.005 0
5.8 0.005 0
5.84 0.005 0
5.88 0.005 0
5.92 0.005 0
5.96 0.005 0
6 0.005 0
6.04 0.005 0
6.08 0.005 0
6.12 0.005 0
6.16 0.005 0
6.2 0.005 0
6.24 0.005 0
6.28 0.005 0
6.32 0.005 0
6.36 0.005 0
6.4 0.005 0
6.44 0.005 0
6.48 0.005 0
6.52 0.005 0
6.56 0.005 0
6.6 0.005 0
6.64 0.005 0
6.68 0.005 0
6.72 0.005 0
6.76 0.005 0
6.8 0.005 0
6.84 0.005 0
6.88 0.005 0
6.92 0.005 0
6.96 0.005 0
7 0.005 0
7.04 0.005 0
7.08 0.005 0
7.12 0.005 0
7.16 0.005 0
7.2 0.005 0
7.24 0.005 0
7.28 0.005 0
7.32 0.005 0
7.36 0.005 0
7.4 0.005 0
[...]
POINT_DATA 160000

SCALARS phi float 1
LOOKUP_TABLE default
1
1
1
1
1
1
1
1
1
1
1
1
1
1
1
1
1
1
1
1
1
1
1
1
1
1
1
1
1
1
1
1
1
1
1
0.999999
0.999999
0.999999
0.999999
0.999998
0.999997
0.999997
0.999995
0.999994
0.999992
0.99999
0.999988
0.999985
0.999982
0.999978
0.999973
0.999968
0.999961
0.999954
0.999946
0.999937
0.999926
0.999914
0.999901
0.999886
0.99987
0.999852
0.999832
0.99981
0.999786
0.99976
0.999731
0.9997
0.999667
0.999631
0.999592
0.99955
0.999505
0.999457
0.999406
0.999352
0.999294
0.999232
0.999167
0.999099
0.999026
0.998949
0.998869
0.998784
0.998695
0.998602
0.998504
0.998403
0.998296
0.998185
0.998069
0.997949
0.997824
0.997694
0.997559
0.997419
0.997275
0.997125
0.99697
0.99681
0.996645
0.996475
0.9963
0.996119
0.995933
0.995742
0.995546
0.995344
0.995137
0.994925
0.994707
0.994484
0.994256
0.994022
0.993783
0.993539
0.993289
0.993034
0.992774
0.992509
0.992238
0.991962
0.99168
0.991394
0.991102
0.990805
0.990502
0.990195
0.989883
0.989565
0.989242
0.988915
0.988582
0.988244
0.987901
0.987554
0.987201
0.986844
0.986482
0.986115
0.985743
0.985367
0.984986
0.984601
0.98421
0.983816
0.983416
0.983013
0.982604
0.982192
0.981775
0.981354
0.980928
0.980499
0.980065
0.979627
0.979185
0.978739
0.978289
0.977835
0.977377
0.976915
0.97645
0.975981
0.975508
0.975031
0.97455
0.974067
0.973579
0.973088
0.972594
0.972096
0.971595
0.97109
0.970582
0.970071
0.969557
0.96904
0.968519
0.967996
0.967469
0.966939
0.966407
0.965872
0.965333
0.964792
0.964249
0.963702
0.963153
0.962601
0.962047
0.96149
0.96093
0.960368
0.959804
0.959237
0.958668
0.958096
0.957523
0.956947
0.956368
0.955788
0.955205
0.954621
0.954034
0.953445
0.952854
0.952261
0.951667
0.95107
0.950472
0.949871
0.949269
0.948665
0.948059
0.947452
0.946843
0.946232
0.945619
0.945005
0.944389
0.943772
0.943153
0.942533
0.94191
0.941287
0.940662
0.940035
0.939407
0.938778
0.938147
0.937515
0.936881
0.936245
0.935609
0.934971
0.934331
0.93369
0.933048
0.932404
0.931759
0.931112
0.930464
0.929815
0.929164
0.928511
0.927857
0.927201
0.926544
0.925886
0.925225
0.924564
0.9239
0.923235
0.922568
0.9219
0.921229
0.920557
0.919883
0.919207
0.918529
0.917849
0.917167
0.916484
0.915797
0.915109
0.914419
0.913726
0.913031
0.912333
0.911633
0.910931
0.910226
0.909518
0.908807
0.908094
0.907378
0.906659
0.905936
0.905211
0.904483
0.903751
0.903016
0.902277
0.901536
0.90079
0.900041
0.899288
0.898531
0.897771
0.897006
0.896237
0.895464
0.894687
0.893906
0.89312
0.89233
0.891535
0.890735
0.889931
0.889121
0.888307
0.887488
0.886664
0.885834
0.884999
0.884159
0.883313
0.882462
0.881605
0.880742
0.879874
0.878999
0.878119
0.877233
0.87634
0.875441
0.874536
0.873625
0.872707
0.871783
0.870852
0.869915
0.86897
0.868019
0.867061
0.866097
0.865125
0.864146
0.86316
0.862167
0.861166
0.860159
0.859143
0.858121
0.857091
0.856054
0.855009
0.853956
0.852896
0.851828
0.850752
0.849669
0.848578
0.847478
0.846371
0.845257
0.844134
0.843003
0.841864
0.840717
0.839563
0.8384
0.837229
0.836049
0.834862
0.833667
0.832463
0.831252
0.830032
0.828804
0.827567
0.826323
0.825071
0.82381
0.822541
0.821264
0.819978
0.818685
0.817383
0.816074
0.814756
0.81343
0.812096
0.810754
0.809403
0.808045
0.806679
0.805305
0.803922
0.802532
0.801134
0.799728
0.798314
0.796893
0.795463
0.794026
0.792581
0.791129
0.789668
0.788201
0.786725
0.785242
0.783752
0.782254
0.780749
0.779237
0.777717
0.77619
0.774656
0.773115
0.771566
0.770011
0.768449
0.76688
0.765303
0.763721
0.762131
0.760535
0.758932
0.757322
0.755707
0.754084
0.752455
0.75082
0.749179
0.747532
0.745878
0.744219
0.742553
0.740882
0.739204
0.737521
0.735833
0.734138
0.732438
0.730733
0.729022
0.727306
0.725584
0.723857
0.722126
0.720389
0.718647
0.7169
0.715148
0.713392
0.711631
0.709865
0.708095
0.70632
0.704541
0.702757
0.700969
0.699178
0.697381
0.695581
0.693777
0.691969
0.690158
0.688342
0.686523
0.6847
0.682874
0.681045
0.679212
0.677375
0.675536
0.673693
0.671847
0.669999
0.668147
0.666293
0.664435
0.662575
0.660713
0.658848
0.65698
0.65511
0.653238
0.651363
0.649486
0.647607
0.645726
0.643843
0.641958
0.640071
0.638183
0.636293
0.634401
0.632507
0.630612
0.628716
0.626818
0.624919
0.623019
0.621117
0.619215
0.617311
0.615407
0.613501
0.611595
0.609688
0.60778
0.605871
0.603962
0.602053
0.600143
0.598232
0.596322
0.594411
0.592499
0.590588
0.588676
0.586765
0.584853
0.582942
0.58103
0.579119
0.577208
0.575297
0.573387
0.571477
0.569568
0.567659
0.56575
0.563843
0.561936
0.560029
0.558124
0.556219
0.554315
0.552412
0.550511
0.54861
0.54671
0.544811
0.542914
0.541017
0.539122
0.537229
0.535336
0.533445
0.531556
0.529668
0.527782
0.525897
0.524014
0.522132
0.520252
0.518374
0.516498
0.514623
0.512751
0.51088
0.509011
0.507145
0.50528
0.503417
0.501557
0.499698
0.497842
0.495988
0.494136
0.492287
0.49044
0.488595
0.486753
0.484913
0.483075
0.48124
0.479408
0.477578
0.47575
0.473925
0.472103
0.470284
0.468467
0.466653
0.464842
0.463033
0.461228
0.459425
0.457625
0.455828
0.454033
0.452242
0.450454
0.448669
0.446886
0.445107
0.443331
0.441558
0.439788
0.438021
0.436258
0.434497
0.43274
0.430986
0.429235
0.427488
0.425743
0.424002
0.422265
0.42053
0.418799
0.417072
0.415348
0.413627
0.411909
0.410195
0.408485
0.406778
0.405074
0.403374
0.401678
0.399985
0.398296
0.39661
0.394928
0.393249
0.391574
0.389902
0.388234
0.38657
0.38491
0.383253
0.3816
0.37995
0.378304
0.376662
0.375024
0.373389
0.371758
0.370131
0.368507
0.366888
0.365272
0.36366
0.362051
0.360447
0.358846
0.357249
0.355656
0.354066
0.352481
0.350899
0.349321
0.347747
0.346177
0.344611
0.343048
0.34149
0.339935
0.338384
0.336837
0.335294
0.333755
0.33222
0.330688
0.329161
0.327637
0.326117
0.324601
0.32309
0.321582
0.320077
0.318577
0.317081
0.315589
0.3141
0.312616
0.311135
0.309658
0.308185
0.306717
0.305252
0.303791
0.302333
0.30088
0.299431
0.297985
0.296544
0.295106
0.293673
0.292243
0.290817
0.289395
0.287977
0.286563
0.285153
0.283747
0.282344
0.280946
0.279551
0.27816
0.276773
0.27539
0.274011
0.272636
0.271265
0.269897
0.268534
0.267174
0.265818
0.264466
0.263118
0.261774
0.260433
0.259097
0.257764
0.256435
0.25511
0.253789
0.252471
0.251158
0.249848
0.248542
0.24724
0.245941
0.244647
0.243356
0.242069
0.240785
0.239506
0.23823
0.236958
0.23569
0.234426
0.233165
0.231908
0.230655
0.229405
0.228159
0.226917
0.225679
0.224444
0.223213
0.221986
0.220763
0.219543
0.218327
0.217114
0.215905
0.2147
0.213499
0.212301
0.211106
0.209916
0.208729
0.207546
0.206366
0.20519
0.204017
0.202848
0.201683
0.200521
0.199363
0.198209
0.197058
0.19591
0.194766
0.193626
0.192489
0.191356
0.190226
0.1891
0.187977
0.186858
0.185743
0.18463
0.183522
0.182417
0.181315
0.180217
0.179122
0.178031
0.176943
0.175859
0.174778
0.1737
0.172626
0.171555
0.170488
0.169424
0.168364
0.167307
0.166254
0.165203
0.164157
0.163113
0.162073
0.161036
0.160003
0.158973
0.157946
0.156923
0.155903
0.154886
0.153873
0.152863
0.151857
0.150853
0.149853
0.148855
0.147865
0.146872
0.145925
0.14505
0.14505
1
1
1
1
1
1
1
1
1
1
1
1
1
1
1
1
1
1
1
1
1
1
1
1
1
1
1
1
1
1
1
1
1
1
1
0.999999
0.999999
0.999999
0.999999
0.999998
0.999997
0.999997
0.999995
0.999994
0.999992
0.99999
0.999988
0.999985
0.999982
0.999978
0.999973
0.999968
0.999961
0.999954
0.999946
0.999937
0.999926
0.999914
0.999901
0.999886
0.99987
0.999852
0.999832
0.99981
0.999786
0.99976
0.999731
0.9997
0.999667
0.999631
0.999592
0.99955
0.999505
0.999457
0.999406
0.999352
0.999294
0.999232
0.999167
0.999099
0.999026
0.998949
0.998869
0.998784
0.998695
0.998602
0.998504
0.998403
0.998296
0.998185
0.998069
0.997949
0.997824
0.997694
0.997559
0.997419
0.997275
0.997125
0.99697
0.99681
0.996645
0.996475
0.9963
0.996119
0.995933
0.995742
0.995546
0.995344
0.995137
0.994925
0.994707
0.994484
0.994256
0.994022
0.993783
0.993539
0.993289
0.993034
0.992774
0.992509
0.992238
0.991962
0.99168
0.991394
0.991102
0.990805
0.990502
0.990195
0.989883
0.989565
0.989242
0.988915
0.988582
0.988244
0.987901
0.987554
0.987201
0.986844
0.986482
0.986115
0.985743
0.985367
0.984986
0.984601
0.98421
0.983816
0.983416
0.983013
0.982604
0.982192
0.981775
0.981354
0.980928
0.980499
0.980065
0.979627
0.979185
0.978739
0.978289
0.977835
0.977377
0.976915
0.97645
0.975981
0.975508
0.975031
0.97455
0.974067
0.973579
0.973088
0.972594
0.972096
0.971595
0.97109
0.970582
0.970071
0.969557
0.96904
0.968519
0.967996
0.967469
0.966939
0.966407
0.965872
0.965333
0.964792
0.964249
0.963702
0.963153
0.962601
0.962047
0.96149
0.96093
0.960368
0.959804
0.959237
0.958668
0.958096
0.957523
0.956947
0.956368
0.955788
0.955205
0.954621
0.954034
0.953445
0.952854
0.952261
0.951667
0.95107
0.950472
0.949871
0.949269
0.948665
0.948059
0.947452
0.946843
0.946232
0.945619
0.945005
0.944389
0.943772
0.943153
0.942533
0.94191
0.941287
0.940662
0.940035
0.939407
0.938778
0.938147
0.937515
0.936881
0.936245
0.935609
0.934971
0.934331
0.93369
0.933048
0.932404
0.931759
0.931112
0.930464
0.929815
0.929164
0.928511
0.927857
0.927201
0.926544
0.925886
0.925225
0.924564
0.9239
0.923235
0.922568
0.9219
0.921229
0.920557
0.919883
0.919207
0.918529
0.917849
0.917167
0.916484
0.915797
0.915109
0.914419
0.913726
0.913031
0.912333
0.911633
0.910931
0.910226
0.909518
0.908807
0.908094
0.907378
0.906659
0.905936
0.905211
0.904483
0.903751
0.903016
0.902277
0.901536
0.90079
0.900041
0.899288
0.898531
0.897771
0.897006
0.896237
0.895464
0.894687
0.893906
0.89312
0.89233
0.891535
0.890735
0.889931
0.889121
0.888307
0.887488
0.886664
0.885834
0.884999
0.884159
0.883313
0.882462
0.881605
0.880742
0.879874
0.878999
0.878119
0.877233
0.87634
0.875441
0.874536
0.873625
0.872707
0.871783
0.870852
0.869915
0.86897
0.868019
0.867061
0.866097
0.865125
0.864146
0.86316
0.862167
0.861166
0.860159
0.859143
0.858121
0.857091
0.856054
0.855009
0.853956
0.852896
0.851828
0.850752
0.849669
0.848578
0.847478
0.846371
0.845257
0.844134
0.843003
0.841864
0.840717
0.839563
0.8384
0.837229
0.836049
0.834862
0.833667
0.832463
0.831252
0.830032
0.828804
0.827567
0.826323
0.825071
0.82381
0.822541
0.821264
0.819978
0.818685
0.817383
0.816074
0.814756
0.81343
0.812096
0.810754
0.809403
0.808045
0.806679
0.805305
0.803922
0.802532
0.801134
0.799728
0.798314
0.796893
0.795463
0.794026
0.792581
0.791129
0.789668
0.788201
0.786725
0.785242
0.783752
0.782254
0.780749
0.779237
0.777717
0.77619
0.774656
0.773115
0.771566
0.770011
0.768449
0.76688
0.765303
0.763721
0.762131
0.760535
0.758932
0.757322
0.755707
0.754084
0.752455
0.75082
0.749179
0.747532
0.745878
0.744219
0.742553
0.740882
0.739204
0.737521
0.735833
0.734138
0.732438
0.730733
0.729022
0.727306
0.725584
0.723857
0.722126
0.720389
0.718647
0.7169
0.715148
0.713392
0.711631
0.709865
0.708095
0.70632
0.704541
0.702757
0.700969
0.699178
0.697381
0.695581
0.693777
0.691969
0.690158
0.688342
0.686523
0.6847
0.682874
0.681045
0.679212
0.677375
0.675536
0.673693
0.671847
0.669999
0.668147
0.666293
0.664435
0.662575
0.660713
0.658848
0.65698
0.65511
0.653238
0.651363
0.649486
0.647607
0.645726
0.643843
0.641958
0.640071
0.638183
0.636293
0.634401
0.632507
0.630612
0.628716
0.626818
0.624919
0.623019
0.621117
0.619215
0.617311
0.615407
0.613501
0.611595
0.609688
0.60778
0.605871
0.603962
0.602053
0.600143
0.598232
0.596322
0.594411
0.592499
0.590588
0.588676
0.586765
0.584853
0.582942
0.58103
0.579119
0.577208
0.575297
0.573387
0.571477
0.569568
0.567659
0.56575
0.563843
0.561936
0.560029
0.558124
0.556219
0.554315
0.552412
0.550511
0.54861
0.54671
0.544811
0.542914
0.541017
0.539122
0.537229
0.535336
0.533445
0.531556
0.529668
0.527782
0.525897
0.524014
0.522132
0.520252
0.518374
0.516498
0.514623
0.512751
0.51088
0.509011
0.507145
0.50528
0.503417
0.501557
0.499698
0.497842
0.495988
0.494136
0.492287
0.49044
0.488595
0.486753
0.484913
0.483075
0.48124
0.479408
0.477578
0.47575
0.473925
0.472103
0.470284
0.468467
0.466653
0.464842
0.463033
0.461228
0.459425
0.457625
0.455828
0.454033
0.452242
0.450454
0.448669
0.446886
0.445107
0.443331
0.441558
0.439788
0.438021
0.436258
0.434497
0.43274
0.430986
0.429235
0.427488
0.425743
0.424002
0.422265
0.42053
0.418799
0.417072
0.415348
0.413627
0.411909
0.410195
0.408485
0.406778
0.405074
0.403374
0.401678
0.399985
0.398296
0.39661
0.394928
0.393249
0.391574
0.389902
0.388234
0.38657
0.38491
0.383253
0.3816
0.37995
0.378304
0.376662
0.375024
0.373389
0.371758
0.370131
0.368507
0.366888
0.365272
0.36366
0.362051
0.360447
0.358846
0.357249
0.355656
0.354066
0.352481
0.350899
0.349321
0.347747
0.346177
0.344611
0.343048
0.34149
0.339935
0.338384
0.336837
0.335294
0.333755
0.33222
0.330688
0.329161
0.327637
0.326117
0.324601
0.32309
0.321582
0.320077
0.318577
0.317081
0.315589
0.3141
0.312616
0.311135
0.309658
0.308185
0.306717
0.305252
0.303791
0.302333
0.30088
0.299431
0.297985
0.296544
0.295106
0.293673
0.292243
0.290817
0.289395
0.287977
0.286563
0.285153
0.283747
0.282344
0.280946
0.279551
0.27816
0.276773
0.27539
0.274011
0.272636
0.271265
0.269897
0.268534
0.267174
0.265818
0.264466
0.263118
0.261774
0.260433
0.259097
0.257764
0.256435
0.25511
0.253789
0.252471
0.251158
0.249848
0.248542
0.24724
0.245941
0.244647
0.243356
0.242069
0.240785
0.239506
0.23823
0.236958
0.23569
0.234426
0.233165
0.231908
0.230655
0.229405
0.228159
0.226917
0.225679
0.224444
0.223213
0.221986
0.220763
0.219543
0.218327
0.217114
0.215905
0.2147
0.213499
0.212301
0.211106
0.209916
0.208729
0.207546
0.206366
0.20519
0.204017
0.202848
0.201683
0.200521
0.199363
0.198209
0.197058
0.19591
0.194766
0.193626
0.192489
0.191356
0.190226
0.1891
0.187977
0.186858
0.185743
0.18463
0.183522
0.182417
0.181315
0.180217
0.179122
0.178031
0.176943
0.175859
0.174778
0.1737
0.172626
0.171555
0.170488
0.169424
0.168364
0.167307
0.166254
0.165203
0.164157
0.163113
0.162073
0.161036
0.160003
0.158973
0.157946
0.156923
0.155903
0.154886
0.153873
0.152863
0.151857
0.150853
0.149853
0.148855
0.147865
0.146872
0.145925
0.14505
0.14505
1
1
1
1
1
1
1
1
1
1
1
1
1
1
1
1
1
1
1
1
1
1
1
1
1
1
1
1
1
1
1
1
1
1
1
0.999999
0.999999
0.999999
0.999999
0.999998
0.999997
0.999997
0.999995
0.999994
0.999992
0.99999
0.999988
0.999985
0.999982
0.999978
0.999973
0.999968
0.999961
0.999954
0.999946
0.999937
0.999926
0.999914
0.999901
0.999886
0.99987
0.999852
0.999832
0.99981
0.999786
0.99976
0.999731
0.9997
0.999667
0.999631
0.999592
0.99955
0.999505
0.999457
0.999406
0.999352
0.999294
0.999232
0.999167
0.999098
0.999026
0.998949
0.998869
0.998784
0.998695
0.998602
0.998504
0.998402
0.998296
0.998185
0.998069
0.997949
0.997824
0.997694
0.997559
0.997419
0.997274
0.997124
0.99697
0.99681
0.996645
0.996474
0.996299
0.996118
0.995933
0.995742
0.995545
0.995343
0.995136
0.994924
0.994706
0.994483
0.994255
0.994022
0.993783
0.993538
0.993289
0.993034
0.992773
0.992508
0.992237
0.991961
0.991679
0.991393
0.991101
0.990804
0.990501
0.990194
0.989882
0.989564
0.989241
0.988914
0.988581
0.988243
0.9879
0.987553
0.9872
0.986843
0.986481
0.986114
0.985742
0.985366
0.984985
0.984599
0.984209
0.983814
0.983415
0.983011
0.982603
0.982191
0.981774
0.981353
0.980927
0.980497
0.980064
0.979626
0.979184
0.978738
0.978288
0.977834
0.977376
0.976914
0.976448
0.975979
0.975506
0.975029
0.974549
0.974065
0.973578
0.973087
0.972592
0.972094
0.971593
0.971089
0.970581
0.97007
0.969555
0.969038
0.968518
0.967994
0.967467
0.966938
0.966405
0.96587
0.965332
0.964791
0.964247
0.963701
0.963151
0.9626
0.962045
0.961488
0.960929
0.960367
0.959802
0.959235
0.958666
0.958095
0.957521
0.956945
0.956367
0.955786
0.955204
0.954619
0.954032
0.953443
0.952853
0.95226
0.951665
0.951068
0.95047
0.949869
0.949267
0.948663
0.948058
0.94745
0.946841
0.94623
0.945618
0.945003
0.944388
0.94377
0.943151
0.942531
0.941909
0.941285
0.94066
0.940034
0.939406
0.938776
0.938145
0.937513
0.936879
0.936244
0.935607
0.934969
0.93433
0.933689
0.933046
0.932403
0.931758
0.931111
0.930463
0.929813
0.929162
0.92851
0.927856
0.9272
0.926543
0.925885
0.925225
0.924563
0.923899
0.923234
0.922568
0.921899
0.921229
0.920557
0.919883
0.919207
0.918529
0.91785
0.917168
0.916484
0.915798
0.91511
0.91442
0.913727
0.913032
0.912335
0.911635
0.910933
0.910228
0.90952
0.90881
0.908097
0.907381
0.906662
0.90594
0.905215
0.904487
0.903755
0.90302
0.902282
0.901541
0.900795
0.900047
0.899294
0.898538
0.897777
0.897013
0.896245
0.895472
0.894696
0.893915
0.893129
0.892339
0.891545
0.890746
0.889942
0.889133
0.888319
0.8875
0.886677
0.885847
0.885013
0.884173
0.883328
0.882477
0.881621
0.880759
0.879891
0.879018
0.878138
0.877252
0.87636
0.875462
0.874558
0.873647
0.87273
0.871807
0.870877
0.86994
0.868996
0.868046
0.867089
0.866125
0.865154
0.864176
0.863191
0.862198
0.861199
0.860192
0.859178
0.858156
0.857127
0.856091
0.855046
0.853995
0.852935
0.851868
0.850794
0.849711
0.848621
0.847523
0.846417
0.845303
0.844181
0.843052
0.841914
0.840768
0.839614
0.838452
0.837282
0.836104
0.834918
0.833724
0.832521
0.831311
0.830092
0.828865
0.82763
0.826387
0.825135
0.823876
0.822608
0.821332
0.820048
0.818756
0.817455
0.816147
0.81483
0.813505
0.812172
0.810832
0.809483
0.808125
0.80676
0.805387
0.804006
0.802617
0.801221
0.799816
0.798403
0.796983
0.795555
0.794119
0.792675
0.791224
0.789765
0.788298
0.786824
0.785342
0.783853
0.782357
0.780853
0.779342
0.777823
0.776297
0.774765
0.773225
0.771678
0.770123
0.768562
0.766994
0.76542
0.763838
0.76225
0.760655
0.759053
0.757445
0.75583
0.754209
0.752581
0.750948
0.749308
0.747661
0.746009
0.744351
0.742686
0.741016
0.73934
0.737658
0.735971
0.734277
0.732579
0.730874
0.729165
0.72745
0.725729
0.724004
0.722273
0.720537
0.718797
0.717051
0.7153
0.713545
0.711785
0.710021
0.708251
0.706478
0.7047
0.702917
0.701131
0.69934
0.697545
0.695746
0.693943
0.692136
0.690325
0.688511
0.686693
0.684871
0.683046
0.681217
0.679385
0.67755
0.675711
0.67387
0.672025
0.670177
0.668327
0.666473
0.664617
0.662758
0.660896
0.659032
0.657165
0.655296
0.653425
0.651551
0.649675
0.647797
0.645917
0.644035
0.642151
0.640265
0.638377
0.636488
0.634597
0.632704
0.63081
0.628915
0.627018
0.625119
0.62322
0.621319
0.619417
0.617515
0.615611
0.613706
0.611801
0.609894
0.607987
0.606079
0.604171
0.602262
0.600353
0.598443
0.596533
0.594623
0.592712
0.590801
0.58889
0.586979
0.585068
0.583158
0.581247
0.579336
0.577426
0.575516
0.573606
0.571697
0.569788
0.56788
0.565972
0.564065
0.562158
0.560252
0.558347
0.556443
0.55454
0.552638
0.550736
0.548836
0.546937
0.545038
0.543141
0.541245
0.539351
0.537458
0.535566
0.533675
0.531786
0.529899
0.528013
0.526128
0.524245
0.522364
0.520485
0.518607
0.516731
0.514857
0.512985
0.511115
0.509246
0.50738
0.505515
0.503653
0.501793
0.499935
0.498079
0.496225
0.494374
0.492525
0.490678
0.488833
0.486991
0.485151
0.483314
0.481479
0.479647
0.477817
0.47599
0.474166
0.472344
0.470524
0.468708
0.466894
0.465083
0.463275
0.461469
0.459666
0.457867
0.45607
0.454276
0.452485
0.450696
0.448911
0.447129
0.44535
0.443574
0.441801
0.440031
0.438265
0.436501
0.434741
0.432984
0.43123
0.429479
0.427731
0.425987
0.424246
0.422509
0.420774
0.419043
0.417316
0.415592
0.413871
0.412154
0.41044
0.408729
0.407022
0.405319
0.403619
0.401922
0.400229
0.39854
0.396854
0.395172
0.393493
0.391818
0.390146
0.388479
0.386814
0.385154
0.383497
0.381843
0.380194
0.378548
0.376906
0.375267
0.373633
0.372001
0.370374
0.368751
0.367131
0.365515
0.363902
0.362294
0.360689
0.359088
0.357491
0.355898
0.354309
0.352723
0.351141
0.349563
0.347989
0.346419
0.344852
0.34329
0.341731
0.340176
0.338625
0.337078
0.335535
0.333995
0.33246
0.330928
0.3294
0.327877
0.326357
0.324841
0.323329
0.32182
0.320316
0.318816
0.317319
0.315827
0.314338
0.312853
0.311372
0.309895
0.308422
0.306953
0.305488
0.304027
0.302569
0.301116
0.299666
0.298221
0.296779
0.295341
0.293907
0.292477
0.291051
0.289629
0.288211
0.286797
0.285386
0.28398
0.282577
0.281178
0.279783
0.278392
0.277005
0.275622
0.274242
0.272867
0.271495
0.270128
0.268764
0.267404
0.266048
0.264695
0.263347
0.262002
0.260661
0.259325
0.257992
0.256662
0.255337
0.254015
0.252698
0.251384
0.250073
0.248767
0.247465
0.246166
0.244871
0.24358
0.242292
0.241009
0.239729
0.238453
0.237181
0.235912
0.234647
0.233386
0.232129
0.230875
0.229626
0.22838
0.227137