# vtk DataFile Version 2.0
FlowField
ASCII
DATASET STRUCTURED_GRID
DIMENSIONS 800 1 200
POINTS 160000 float
0 0 0
0.04 0 0
0.08 0 0
0.12 0 0
0.16 0 0
0.2 0 0
0.24 0 0
0.28 0 0
0.32 0 0
0.36 0 0
0.4 0 0
0.44 0 0
0.48 0 0
0.52 0 0
0.56 0 0
0.6 0 0
0.64 0 0
0.68 0 0
0.72 0 0
0.76 0 0
0.8 0 0
0.84 0 0
0.88 0 0
0.92 0 0
0.96 0 0
1 0 0
1.04 0 0
1.08 0 0
1.12 0 0
1.16 0 0
1.2 0 0
1.24 0 0
1.28 0 0
1.32 0 0
1.36 0 0
1.4 0 0
1.44 0 0
1.48 0 0
1.52 0 0
1.56 0 0
1.6 0 0
1.64 0 0
1.68 0 0
1.72 0 0
1.76 0 0
1.8 0 0
1.84 0 0
1.88 0 0
1.92 0 0
1.96 0 0
2 0 0
2.04 0 0
2.08 0 0
2.12 0 0
2.16 0 0
2.2 0 0
2.24 0 0
2.28 0 0
2.32 0 0
2.36 0 0
2.4 0 0
2.44 0 0
2.48 0 0
2.52 0 0
2.56 0 0
2.6 0 0
2.64 0 0
2.68 0 0
2.72 0 0
2.76 0 0
2.8 0 0
2.84 0 0
2.88 0 0
2.92 0 0
2.96 0 0
3 0 0
3.04 0 0
3.08 0 0
3.12 0 0
3.16 0 0
3.2 0 0
3.24 0 0
3.28 0 0
3.32 0 0
3.36 0 0
3.4 0 0
3.44 0 0
3.48 0 0
3.52 0 0
3.56 0 0
3.6 0 0
3.64 0 0
3.68 0 0
3.72 0 0
3.76 0 0
3.8 0 0
3.84 0 0
3.88 0 0
3.92 0 0
3.96 0 0
4 0 0
4.04 0 0
4.08 0 0
4.12 0 0
4.16 0 0
4.2 0 0
4.24 0 0
4.28 0 0
4.32 0 0
4.36 0 0
4.4 0 0
4.44 0 0
4.48 0 0
4.52 0 0
4.56 0 0
4.6 0 0
4.64 0 0
4.68 0 0
4.72 0 0
4.76 0 0
4.8 0 0
4.84 0 0
4.88 0 0
4.92 0 0
4.96 0 0
5 0 0
5.04 0 0
5.08 0 0
5.12 0 0
5.16 0 0
5.2 0 0
5.24 0 0
5.28 0 0
5.32 0 0
5.36 0 0
5.4 0 0
5.44 0 0
5.48 0 0
5.52 0 0
5.56 0 0
5.6 0 0
5.64 0 0
5.68 0 0
5.72 0 0
5.76 0 0
5.8 0 0
5.84 0 0
5.88 0 0
5.92 0 0
5.96 0 0
6 0 0
6.04 0 0
6.08 0 0
6.12 0 0
6.16 0 0
6.2 0 0
6.24 0 0
6.28 0 0
6.32 0 0
6.36 0 0
6.4 0 0
6.44 0 0
6.48 0 0
6.52 0 0
6.56 0 0
6.6 0 0
6.64 0 0
6.68 0 0
6.72 0 0
6.76 0 0
6.8 0 0
6.84 0 0
6.88 0 0
6.92 0 0
6.96 0 0
7 0 0
7.04 0 0
7.08 0 0
7.12 0 0
7.16 0 0
7.2 0 0
7.24 0 0
7.28 0 0
7.32 0 0
7.36 0 0
7.4 0 0
7.44 0 0
7.48 0 0
7.52 0 0
7.56 0 0
7.6 0 0
7.64 0 0
7.68 0 0
7.72 0 0
7.76 0 0
7.8 0 0
7.84 0 0
7.88 0 0
7.92 0 0
7.96 0 0
8 0 0
8.04 0 0
8.08 0 0
8.12 0 0
8.16 0 0
8.2 0 0
8.24 0 0
8.28 0 0
8.32 0 0
8.36 0 0
8.4 0 0
8.44 0 0
8.48 0 0
8.52 0 0
8.56 0 0
8.6 0 0
8.64 0 0
8.68 0 0
8.72 0 0
8.76 0 0
8.8 0 0
8.84 0 0
8.88 0 0
8.92 0 0
8.96 0 0
9 0 0
9.04 0 0
9.08 0 0
9.12 0 0
9.16 0 0
9.2 0 0
9.24 0 0
9.28 0 0
9.32 0 0
9.36 0 0
9.4 0 0
9.44 0 0
9.48 0 0
9.52 0 0
9.56 0 0
9.6 0 0
9.64 0 0
9.68 0 0
9.72 0 0
9.76 0 0
9.8 0 0
9.84 0 0
9.88 0 0
9.92 0 0
9.96 0 0
10 0 0
10.04 0 0
10.08 0 0
10.12 0 0
10.16 0 0
10.2 0 0
10.24 0 0
10.28 0 0
10.32 0 0
10.36 0 0
10.4 0 0
10.44 0 0
10.48 0 0
10.52 0 0
10.56 0 0
10.6 0 0
10.64 0 0
10.68 0 0
10.72 0 0
10.76 0 0
10.8 0 0
10.84 0 0
10.88 0 0
10.92 0 0
10.96 0 0
11 0 0
11.04 0 0
11.08 0 0
11.12 0 0
11.16 0 0
11.2 0 0
11.24 0 0
11.28 0 0
11.32 0 0
11.36 0 0
11.4 0 0
11.44 0 0
11.48 0 0
11.52 0 0
11.56 0 0
11.6 0 0
11.64 0 0
11.68 0 0
11.72 0 0
11.76 0 0
11.8 0 0
11.84 0 0
11.88 0 0
11.92 0 0
11.96 0 0
12 0 0
12.04 0 0
12.08 0 0
12.12 0 0
12.16 0 0
12.2 0 0
12.24 0 0
12.28 0 0
12.32 0 0
12.36 0 0
12.4 0 0
12.44 0 0
12.48 0 0
12.52 0 0
12.56 0 0
12.6 0 0
12.64 0 0
12.68 0 0
12.72 0 0
12.76 0 0
12.8 0 0
12.84 0 0
12.88 0 0
12.92 0 0
12.96 0 0
13 0 0
13.04 0 0
13.08 0 0
13.12 0 0
13.16 0 0
13.2 0 0
13.24 0 0
13.28 0 0
13.32 0 0
13.36 0 0
13.4 0 0
13.44 0 0
13.48 0 0
13.52 0 0
13.56 0 0
13.6 0 0
13.64 0 0
13.68 0 0
13.72 0 0
13.76 0 0
13.8 0 0
13.84 0 0
13.88 0 0
13.92 0 0
13.96 0 0
14 0 0
14.04 0 0
14.08 0 0
14.12 0 0
14.16 0 0
14.2 0 0
14.24 0 0
14.28 0 0
14.32 0 0
14.36 0 0
14.4 0 0
14.44 0 0
14.48 0 0
14.52 0 0
14.56 0 0
14.6 0 0
14.64 0 0
14.68 0 0
14.72 0 0
14.76 0 0
14.8 0 0
14.84 0 0
14.88 0 0
14.92 0 0
14.96 0 0
15 0 0
15.04 0 0
15.08 0 0
15.12 0 0
15.16 0 0
15.2 0 0
15.24 0 0
15.28 0 0
15.32 0 0
15.36 0 0
15.4 0 0
15.44 0 0
15.48 0 0
15.52 0 0
15.56 0 0
15.6 0 0
15.64 0 0
15.68 0 0
15.72 0 0
15.76 0 0
15.8 0 0
15.84 0 0
15.88 0 0
15.92 0 0
15.96 0 0
16 0 0
16.04 0 0
16.08 0 0
16.12 0 0
16.16 0 0
16.2 0 0
16.24 0 0
16.28 0 0
16.32 0 0
16.36 0 0
16.4 0 0
16.44 0 0
16.48 0 0
16.52 0 0
16.56 0 0
16.6 0 0
16.64 0 0
16.68 0 0
16.72 0 0
16.76 0 0
16.8 0 0
16.84 0 0
16.88 0 0
16.92 0 0
16.96 0 0
17 0 0
17.04 0 0
17.08 0 0
17.12 0 0
17.16 0 0
17.2 0 0
17.24 0 0
17.28 0 0
17.32 0 0
17.36 0 0
17.4 0 0
17.44 0 0
17.48 0 0
17.52 0 0
17.56 0 0
17.6 0 0
17.64 0 0
17.68 0 0
17.72 0 0
17.76 0 0
17.8 0 0
17.84 0 0
17.88 0 0
17.92 0 0
17.96 0 0
18 0 0
18.04 0 0
18.08 0 0
18.12 0 0
18.16 0 0
18.2 0 0
18.24 0 0
18.28 0 0
18.32 0 0
18.36 0 0
18.4 0 0
18.44 0 0
18.48 0 0
18.52 0 0
18.56 0 0
18.6 0 0
18.64 0 0
18.68 0 0
18.72 0 0
18.76 0 0
18.8 0 0
18.84 0 0
18.88 0 0
18.92 0 0
18.96 0 0
19 0 0
19.04 0 0
19.08 0 0
19.12 0 0
19.16 0 0
19.2 0 0
19.24 0 0
19.28 0 0
19.32 0 0
19.36 0 0
19.4 0 0
19.44 0 0
19.48 0 0
19.52 0 0
19.56 0 0
19.6 0 0
19.64 0 0
19.68 0 0
19.72 0 0
19.76 0 0
19.8 0 0
19.84 0 0
19.88 0 0
19.92 0 0
19.96 0 0
20 0 0
20.04 0 0
20.08 0 0
20.12 0 0
20.16 0 0
20.2 0 0
20.24 0 0
20.28 0 0
20.32 0 0
20.36 0 0
20.4 0 0
20.44 0 0
20.48 0 0
20.52 0 0
20.56 0 0
20.6 0 0
20.64 0 0
20.68 0 0
20.72 0 0
20.76 0 0
20.8 0 0
20.84 0 0
20.88 0 0
20.92 0 0
20.96 0 0
21 0 0
21.04 0 0
21.08 0 0
21.12 0 0
21.16 0 0
21.2 0 0
21.24 0 0
21.28 0 0
21.32 0 0
21.36 0 0
21.4 0 0
21.44 0 0
21.48 0 0
21.52 0 0
21.56 0 0
21.6 0 0
21.64 0 0
21.68 0 0
21.72 0 0
21.76 0 0
21.8 0 0
21.84 0 0
21.88 0 0
21.92 0 0
21.96 0 0
22 0 0
22.04 0 0
22.08 0 0
22.12 0 0
22.16 0 0
22.2 0 0
22.24 0 0
22.28 0 0
22.32 0 0
22.36 0 0
22.4 0 0
22.44 0 0
22.48 0 0
22.52 0 0
22.56 0 0
22.6 0 0
22.64 0 0
22.68 0 0
22.72 0 0
22.76 0 0
22.8 0 0
22.84 0 0
22.88 0 0
22.92 0 0
22.96 0 0
23 0 0
23.04 0 0
23.08 0 0
23.12 0 0
23.16 0 0
23.2 0 0
23.24 0 0
23.28 0 0
23.32 0 0
23.36 0 0
23.4 0 0
23.44 0 0
23.48 0 0
23.52 0 0
23.56 0 0
23.6 0 0
23.64 0 0
23.68 0 0
23.72 0 0
23.76 0 0
23.8 0 0
23.84 0 0
23.88 0 0
23.92 0 0
23.96 0 0
24 0 0
24.04 0 0
24.08 0 0
24.12 0 0
24.16 0 0
24.2 0 0
24.24 0 0
24.28 0 0
24.32 0 0
24.36 0 0
24.4 0 0
24.44 0 0
24.48 0 0
24.52 0 0
24.56 0 0
24.6 0 0
24.64 0 0
24.68 0 0
24.72 0 0
24.76 0 0
24.8 0 0
24.84 0 0
24.88 0 0
24.92 0 0
24.96 0 0
25 0 0
25.04 0 0
25.08 0 0
25.12 0 0
25.16 0 0
25.2 0 0
25.24 0 0
25.28 0 0
25.32 0 0
25.36 0 0
25.4 0 0
25.44 0 0
25.48 0 0
25.52 0 0
25.56 0 0
25.6 0 0
25.64 0 0
25.68 0 0
25.72 0 0
25.76 0 0
25.8 0 0
25.84 0 0
25.88 0 0
25.92 0 0
25.96 0 0
26 0 0
26.04 0 0
26.08 0 0
26.12 0 0
26.16 0 0
26.2 0 0
26.24 0 0
26.28 0 0
26.32 0 0
26.36 0 0
26.4 0 0
26.44 0 0
26.48 0 0
26.52 0 0
26.56 0 0
26.6 0 0
26.64 0 0
26.68 0 0
26.72 0 0
26.76 0 0
26.8 0 0
26.84 0 0
26.88 0 0
26.92 0 0
26.96 0 0
27 0 0
27.04 0 0
27.08 0 0
27.12 0 0
27.16 0 0
27.2 0 0
27.24 0 0
27.28 0 0
27.32 0 0
27.36 0 0
27.4 0 0
27.44 0 0
27.48 0 0
27.52 0 0
27.56 0 0
27.6 0 0
27.64 0 0
27.68 0 0
27.72 0 0
27.76 0 0
27.8 0 0
27.84 0 0
27.88 0 0
27.92 0 0
27.96 0 0
28 0 0
28.04 0 0
28.08 0 0
28.12 0 0
28.16 0 0
28.2 0 0
28.24 0 0
28.28 0 0
28.32 0 0
28.36 0 0
28.4 0 0
28.44 0 0
28.48 0 0
28.52 0 0
28.56 0 0
28.6 0 0
28.64 0 0
28.68 0 0
28.72 0 0
28.76 0 0
28.8 0 0
28.84 0 0
28.88 0 0
28.92 0 0
28.96 0 0
29 0 0
29.04 0 0
29.08 0 0
29.12 0 0
29.16 0 0
29.2 0 0
29.24 0 0
29.28 0 0
29.32 0 0
29.36 0 0
29.4 0 0
29.44 0 0
29.48 0 0
29.52 0 0
29.56 0 0
29.6 0 0
29.64 0 0
29.68 0 0
29.72 0 0
29.76 0 0
29.8 0 0
29.84 0 0
29.88 0 0
29.92 0 0
29.96 0 0
30 0 0
30.04 0 0
30.08 0 0
30.12 0 0
30.16 0 0
30.2 0 0
30.24 0 0
30.28 0 0
30.32 0 0
30.36 0 0
30.4 0 0
30.44 0 0
30.48 0 0
30.52 0 0
30.56 0 0
30.6 0 0
30.64 0 0
30.68 0 0
30.72 0 0
30.76 0 0
30.8 0 0
30.84 0 0
30.88 0 0
30.92 0 0
30.96 0 0
31 0 0
31.04 0 0
31.08 0 0
31.12 0 0
31.16 0 0
31.2 0 0
31.24 0 0
31.28 0 0
31.32 0 0
31.36 0 0
31.4 0 0
31.44 0 0
31.48 0 0
31.52 0 0
31.56 0 0
31.6 0 0
31.64 0 0
31.68 0 0
31.72 0 0
31.76 0 0
31.8 0 0
31.84 0 0
31.88 0 0
31.92 0 0
31.96 0 0
0 0.005 0
0.04 0.005 0
0.08 0.005 0
0.12 0.005 0
0.16 0.005 0
0.2 0.005 0
0.24 0.005 0
0.28 0.005 0
0.32 0.005 0
0.36 0.005 0
0.4 0.005 0
0.44 0.005 0
0.48 0.005 0
0.52 0.005 0
0.56 0.005 0
0.6 0.005 0
0.64 0.005 0
0.68 0.005 0
0.72 0.005 0
0.76 0.005 0
0.8 0.005 0
0.84 0.005 0
0.88 0.005 0
0.92 0.005 0
0.96 0.005 0
1 0.005 0
1.04 0.005 0
1.08 0.005 0
1.12 0.005 0
1.16 0.005 0
1.2 0.005 0
1.24 0.005 0
1.28 0.005 0
1.32 0.005 0
1.36 0.005 0
1.4 0.005 0
1.44 0.005 0
1.48 0.005 0
1.52 0.005 0
1.56 0.005 0
1.6 0.005 0
1.64 0.005 0
1.68 0.005 0
1.72 0.005 0
1.76 0.005 0
1.8 0.005 0
1.84 0.005 0
1.88 0.005 0
1.92 0.005 0
1.96 0.005 0
2 0.005 0
2.04 0.005 0
2.08 0.005 0
2.12 0.005 0
2.16 0.005 0
2.2 0.005 0
2.24 0.005 0
2.28 0.005 0
2.32 0.005 0
2.36 0.005 0
2.4 0.005 0
2.44 0.005 0
2.48 0.005 0
2.52 0.005 0
2.56 0.005 0
2.6 0.005 0
2.64 0.005 0
2.68 0.005 0
2.72 0.005 0
2.76 0.005 0
2.8 0.005 0
2.84 0.005 0
2.88 0.005 0
2.92 0.005 0
2.96 0.005 0
3 0.005 0
3.04 0.005 0
3.08 0.005 0
3.12 0.005 0
3.16 0.005 0
3.2 0.005 0
3.24 0.005 0
3.28 0.005 0
3.32 0.005 0
3.36 0.005 0
3.4 0.005 0
3.44 0.005 0
3.48 0.005 0
3.52 0.005 0
3.56 0.005 0
3.6 0.005 0
3.64 0.005 0
3.68 0.005 0
3.72 0.005 0
3.76 0.005 0
3.8 0.005 0
3.84 0.005 0
3.88 0.005 0
3.92 0.005 0
3.96 0.005 0
4 0.005 0
4.04 0.005 0
4.08 0.005 0
4.12 0.005 0
4.16 0.005 0
4.2 0.005 0
4.24 0.005 0
4.28 0.005 0
4.32 0.005 0
4.36 0.005 0
4.4 0.005 0
4.44 0.005 0
4.48 0.005 0
4.52 0.005 0
4.56 0.005 0
4.6 0.005 0
4.64 0.005 0
4.68 0.005 0
4.72 0.005 0
4.76 0.005 0
4.8 0.005 0
4.84 0.005 0
4.88 0.005 0
4.92 0.005 0
4.96 0.005 0
5 0.005 0
5.04 0.005 0
5.08 0.005 0
5.12 0.005 0
5.16 0.005 0
5.2 0.005 0
5.24 0.005 0
5.28 0.005 0
5.32 0.005 0
5.36 0.005 0
5.4 0.005 0
5.44 0.005 0
5.48 0.005 0
5.52 0.005 0
5.56 0.005 0
5.6 0.005 0
5.64 0.005 0
5.68 0.005 0
5.72 0.005 0
5.76 0.005 0
5.8 0.005 0
5.84 0.005 0
5.88 0.005 0
5.92 0.005 0
5.96 0.005 0
6 0.005 0
6.04 0.005 0
6.08 0.005 0
6.12 0.005 0
6.16 0.005 0
6.2 0.005 0
6.24 0.005 0
6.28 0.005 0
6.32 0.005 0
6.36 0.005 0
6.4 0.005 0
6.44 0.005 0
6.48 0.005 0
6.52 0.005 0
6.56 0.005 0
6.6 0.005 0
6.64 0.005 0
6.68 0.005 0
6.72 0.005 0
6.76 0.005 0
6.8 0.005 0
6.84 0.005 0
6.88 0.005 0
6.92 0.005 0
6.96 0.005 0
7 0.005 0
7.04 0.005 0
7.08 0.005 0
7.12 0.005 0
7.16 0.005 0
7.2 0.005 0
7.24 0.005 0
7.28 0.005 0
7.32 0.005 0
7.36 0.005 0
7.4 0.005 0
[...]
POINT_DATA 160000

SCALARS p float 1
LOOKUP_TABLE default
1
57.2338
55.0183
54.7635
54.7033
54.6769
54.6609
54.6493
54.64
54.6322
54.6252
54.6189
54.613
54.6074
54.6021
54.597
54.5921
54.5872
54.5825
54.5779
54.5734
54.5689
54.5645
54.5602
54.5559
54.5517
54.5475
54.5434
54.5393
54.5353
54.5314
54.5274
54.5236
54.5197
54.5159
54.5122
54.5085
54.5048
54.5012
54.4976
54.494
54.4905
54.487
54.4835
54.4801
54.4767
54.4733
54.47
54.4667
54.4634
54.4602
54.4569
54.4537
54.4506
54.4474
54.4443
54.4412
54.4381
54.4351
54.432
54.429
54.426
54.4231
54.4201
54.4172
54.4143
54.4114
54.4085
54.4056
54.4028
54.4
54.3972
54.3944
54.3916
54.3888
54.3861
54.3834
54.3807
54.378
54.3753
54.3726
54.37
54.3673
54.3647
54.3621
54.3595
54.3569
54.3543
54.3517
54.3492
54.3466
54.3441
54.3416
54.3391
54.3366
54.3341
54.3316
54.3291
54.3267
54.3242
54.3218
54.3194
54.317
54.3146
54.3122
54.3098
54.3074
54.305
54.3027
54.3003
54.298
54.2956
54.2933
54.291
54.2887
54.2864
54.2841
54.2818
54.2795
54.2772
54.275
54.2727
54.2705
54.2682
54.266
54.2638
54.2616
54.2593
54.2571
54.2549
54.2527
54.2505
54.2484
54.2462
54.244
54.2419
54.2397
54.2376
54.2354
54.2333
54.2311
54.229
54.2269
54.2248
54.2227
54.2206
54.2185
54.2164
54.2143
54.2122
54.2101
54.2081
54.206
54.2039
54.2019
54.1998
54.1978
54.1957
54.1937
54.1917
54.1896
54.1876
54.1856
54.1836
54.1816
54.1796
54.1776
54.1756
54.1736
54.1716
54.1696
54.1676
54.1656
54.1637
54.1617
54.1597
54.1578
54.1558
54.1539
54.1519
54.15
54.148
54.1461
54.1442
54.1422
54.1403
54.1384
54.1365
54.1346
54.1327
54.1307
54.1288
54.1269
54.125
54.1231
54.1213
54.1194
54.1175
54.1156
54.1137
54.1118
54.11
54.1081
54.1062
54.1044
54.1025
54.1007
54.0988
54.0969
54.0951
54.0933
54.0914
54.0896
54.0877
54.0859
54.0841
54.0822
54.0804
54.0786
54.0768
54.0749
54.0731
54.0713
54.0695
54.0677
54.0659
54.0641
54.0623
54.0605
54.0587
54.0569
54.0551
54.0533
54.0515
54.0497
54.0479
54.0462
54.0444
54.0426
54.0408
54.0391
54.0373
54.0355
54.0338
54.032
54.0302
54.0285
54.0267
54.0249
54.0232
54.0214
54.0197
54.0179
54.0162
54.0144
54.0127
54.011
54.0092
54.0075
54.0057
54.004
54.0023
54.0006
53.9988
53.9971
53.9954
53.9936
53.9919
53.9902
53.9885
53.9868
53.985
53.9833
53.9816
53.9799
53.9782
53.9765
53.9748
53.9731
53.9714
53.9697
53.968
53.9663
53.9646
53.9629
53.9612
53.9595
53.9578
53.9561
53.9544
53.9527
53.951
53.9493
53.9476
53.946
53.9443
53.9426
53.9409
53.9392
53.9376
53.9359
53.9342
53.9325
53.9309
53.9292
53.9275
53.9258
53.9242
53.9225
53.9208
53.9192
53.9175
53.9158
53.9142
53.9125
53.9109
53.9092
53.9075
53.9059
53.9042
53.9026
53.9009
53.8993
53.8976
53.896
53.8943
53.8927
53.891
53.8894
53.8877
53.8861
53.8844
53.8828
53.8811
53.8795
53.8779
53.8762
53.8746
53.8729
53.8713
53.8697
53.868
53.8664
53.8648
53.8631
53.8615
53.8599
53.8582
53.8566
53.855
53.8533
53.8517
53.8501
53.8484
53.8468
53.8452
53.8436
53.8419
53.8403
53.8387
53.8371
53.8354
53.8338
53.8322
53.8306
53.829
53.8273
53.8257
53.8241
53.8225
53.8209
53.8193
53.8176
53.816
53.8144
53.8128
53.8112
53.8096
53.808
53.8064
53.8047
53.8031
53.8015
53.7999
53.7983
53.7967
53.7951
53.7935
53.7919
53.7903
53.7887
53.7871
53.7855
53.7839
53.7822
53.7806
53.779
53.7774
53.7758
53.7742
53.7726
53.771
53.7694
53.7678
53.7662
53.7646
53.763
53.7614
53.7598
53.7582
53.7567
53.7551
53.7535
53.7519
53.7503
53.7487
53.7471
53.7455
53.7439
53.7423
53.7407
53.7391
53.7375
53.7359
53.7343
53.7328
53.7312
53.7296
53.728
53.7264
53.7248
53.7232
53.7216
53.72
53.7185
53.7169
53.7153
53.7137
53.7121
53.7105
53.7089
53.7074
53.7058
53.7042
53.7026
53.701
53.6994
53.6979
53.6963
53.6947
53.6931
53.6915
53.6899
53.6884
53.6868
53.6852
53.6836
53.682
53.6805
53.6789
53.6773
53.6757
53.6741
53.6726
53.671
53.6694
53.6678
53.6662
53.6647
53.6631
53.6615
53.6599
53.6584
53.6568
53.6552
53.6536
53.6521
53.6505
53.6489
53.6473
53.6458
53.6442
53.6426
53.641
53.6395
53.6379
53.6363
53.6347
53.6332
53.6316
53.63
53.6284
53.6269
53.6253
53.6237
53.6222
53.6206
53.619
53.6174
53.6159
53.6143
53.6127
53.6112
53.6096
53.608
53.6065
53.6049
53.6033
53.6017
53.6002
53.5986
53.597
53.5955
53.5939
53.5923
53.5908
53.5892
53.5876
53.5861
53.5845
53.5829
53.5814
53.5798
53.5782
53.5767
53.5751
53.5735
53.572
53.5704
53.5688
53.5673
53.5657
53.5641
53.5626
53.561
53.5594
53.5579
53.5563
53.5547
53.5532
53.5516
53.55
53.5485
53.5469
53.5454
53.5438
53.5422
53.5407
53.5391
53.5375
53.536
53.5344
53.5328
53.5313
53.5297
53.5282
53.5266
53.525
53.5235
53.5219
53.5204
53.5188
53.5172
53.5157
53.5141
53.5125
53.511
53.5094
53.5079
53.5063
53.5047
53.5032
53.5016
53.5001
53.4985
53.4969
53.4954
53.4938
53.4923
53.4907
53.4891
53.4876
53.486
53.4845
53.4829
53.4813
53.4798
53.4782
53.4767
53.4751
53.4735
53.472
53.4704
53.4689
53.4673
53.4658
53.4642
53.4626
53.4611
53.4595
53.458
53.4564
53.4548
53.4533
53.4517
53.4502
53.4486
53.4471
53.4455
53.4439
53.4424
53.4408
53.4393
53.4377
53.4362
53.4346
53.433
53.4315
53.4299
53.4284
53.4268
53.4253
53.4237
53.4222
53.4206
53.419
53.4175
53.4159
53.4144
53.4128
53.4113
53.4097
53.4082
53.4066
53.405
53.4035
53.4019
53.4004
53.3988
53.3973
53.3957
53.3942
53.3926
53.3911
53.3895
53.3879
53.3864
53.3848
53.3833
53.3817
53.3802
53.3786
53.3771
53.3755
53.374
53.3724
53.3708
53.3693
53.3677
53.3662
53.3646
53.3631
53.3615
53.36
53.3584
53.3569
53.3553
53.3538
53.3522
53.3507
53.3491
53.3476
53.346
53.3444
53.3429
53.3413
53.3398
53.3382
53.3367
53.3351
53.3336
53.332
53.3305
53.3289
53.3274
53.3258
53.3243
53.3227
53.3212
53.3196
53.3181
53.3165
53.315
53.3134
53.3119
53.3103
53.3088
53.3072
53.3057
53.3041
53.3025
53.301
53.2994
53.2979
53.2963
53.2948
53.2932
53.2917
53.2901
53.2886
53.287
53.2855
53.2839
53.2824
53.2808
53.2793
53.2777
53.2762
53.2746
53.2731
53.2715
53.27
53.2684
53.2669
53.2653
53.2638
53.2622
53.2607
53.2591
53.2576
53.256
53.2545
53.2529
53.2514
53.2498
53.2483
53.2467
53.2452
53.2436
53.2421
53.2405
53.239
53.2374
53.2359
53.2343
53.2328
53.2313
53.2297
53.2282
53.2266
53.2251
53.2235
53.222
53.2204
53.2189
53.2173
53.2158
53.2142
53.2127
53.2111
53.2096
53.208
53.2065
53.2049
53.2034
53.2018
53.2003
53.1987
53.1972
53.1956
53.1941
53.1925
53.191
53.1894
53.1879
53.1864
53.1848
53.1833
53.1817
53.1802
53.1786
53.1771
53.1755
53.174
53.1724
53.1709
53.1693
53.1678
53.1662
53.1647
53.1631
53.1616
53.1601
53.1585
53.157
53.1554
53.1539
53.1523
53.1508
1
57.2338
57.2338
55.0183
54.7635
54.7033
54.6769
54.6609
54.6493
54.64
54.6322
54.6252
54.6189
54.613
54.6074
54.6021
54.597
54.5921
54.5872
54.5825
54.5779
54.5734
54.5689
54.5645
54.5602
54.5559
54.5517
54.5475
54.5434
54.5393
54.5353
54.5314
54.5274
54.5236
54.5197
54.5159
54.5122
54.5085
54.5048
54.5012
54.4976
54.494
54.4905
54.487
54.4835
54.4801
54.4767
54.4733
54.47
54.4667
54.4634
54.4602
54.4569
54.4537
54.4506
54.4474
54.4443
54.4412
54.4381
54.4351
54.432
54.429
54.426
54.4231
54.4201
54.4172
54.4143
54.4114
54.4085
54.4056
54.4028
54.4
54.3972
54.3944
54.3916
54.3888
54.3861
54.3834
54.3807
54.378
54.3753
54.3726
54.37
54.3673
54.3647
54.3621
54.3595
54.3569
54.3543
54.3517
54.3492
54.3466
54.3441
54.3416
54.3391
54.3366
54.3341
54.3316
54.3291
54.3267
54.3242
54.3218
54.3194
54.317
54.3146
54.3122
54.3098
54.3074
54.305
54.3027
54.3003
54.298
54.2956
54.2933
54.291
54.2887
54.2864
54.2841
54.2818
54.2795
54.2772
54.275
54.2727
54.2705
54.2682
54.266
54.2638
54.2616
54.2593
54.2571
54.2549
54.2527
54.2505
54.2484
54.2462
54.244
54.2419
54.2397
54.2376
54.2354
54.2333
54.2311
54.229
54.2269
54.2248
54.2227
54.2206
54.2185
54.2164
54.2143
54.2122
54.2101
54.2081
54.206
54.2039
54.2019
54.1998
54.1978
54.1957
54.1937
54.1917
54.1896
54.1876
54.1856
54.1836
54.1816
54.1796
54.1776
54.1756
54.1736
54.1716
54.1696
54.1676
54.1656
54.1637
54.1617
54.1597
54.1578
54.1558
54.1539
54.1519
54.15
54.148
54.1461
54.1442
54.1422
54.1403
54.1384
54.1365
54.1346
54.1327
54.1307
54.1288
54.1269
54.125
54.1231
54.1213
54.1194
54.1175
54.1156
54.1137
54.1118
54.11
54.1081
54.1062
54.1044
54.1025
54.1007
54.0988
54.0969
54.0951
54.0933
54.0914
54.0896
54.0877
54.0859
54.0841
54.0822
54.0804
54.0786
54.0768
54.0749
54.0731
54.0713
54.0695
54.0677
54.0659
54.0641
54.0623
54.0605
54.0587
54.0569
54.0551
54.0533
54.0515
54.0497
54.0479
54.0462
54.0444
54.0426
54.0408
54.0391
54.0373
54.0355
54.0338
54.032
54.0302
54.0285
54.0267
54.0249
54.0232
54.0214
54.0197
54.0179
54.0162
54.0144
54.0127
54.011
54.0092
54.0075
54.0057
54.004
54.0023
54.0006
53.9988
53.9971
53.9954
53.9936
53.9919
53.9902
53.9885
53.9868
53.985
53.9833
53.9816
53.9799
53.9782
53.9765
53.9748
53.9731
53.9714
53.9697
53.968
53.9663
53.9646
53.9629
53.9612
53.9595
53.9578
53.9561
53.9544
53.9527
53.951
53.9493
53.9476
53.946
53.9443
53.9426
53.9409
53.9392
53.9376
53.9359
53.9342
53.9325
53.9309
53.9292
53.9275
53.9258
53.9242
53.9225
53.9208
53.9192
53.9175
53.9158
53.9142
53.9125
53.9109
53.9092
53.9075
53.9059
53.9042
53.9026
53.9009
53.8993
53.8976
53.896
53.8943
53.8927
53.891
53.8894
53.8877
53.8861
53.8844
53.8828
53.8811
53.8795
53.8779
53.8762
53.8746
53.8729
53.8713
53.8697
53.868
53.8664
53.8648
53.8631
53.8615
53.8599
53.8582
53.8566
53.855
53.8533
53.8517
53.8501
53.8484
53.8468
53.8452
53.8436
53.8419
53.8403
53.8387
53.8371
53.8354
53.8338
53.8322
53.8306
53.829
53.8273
53.8257
53.8241
53.8225
53.8209
53.8193
53.8176
53.816
53.8144
53.8128
53.8112
53.8096
53.808
53.8064
53.8047
53.8031
53.8015
53.7999
53.7983
53.7967
53.7951
53.7935
53.7919
53.7903
53.7887
53.7871
53.7855
53.7839
53.7822
53.7806
53.779
53.7774
53.7758
53.7742
53.7726
53.771
53.7694
53.7678
53.7662
53.7646
53.763
53.7614
53.7598
53.7582
53.7567
53.7551
53.7535
53.7519
53.7503
53.7487
53.7471
53.7455
53.7439
53.7423
53.7407
53.7391
53.7375
53.7359
53.7343
53.7328
53.7312
53.7296
53.728
53.7264
53.7248
53.7232
53.7216
53.72
53.7185
53.7169
53.7153
53.7137
53.7121
53.7105
53.7089
53.7074
53.7058
53.7042
53.7026
53.701
53.6994
53.6979
53.6963
53.6947
53.6931
53.6915
53.6899
53.6884
53.6868
53.6852
53.6836
53.682
53.6805
53.6789
53.6773
53.6757
53.6741
53.6726
53.671
53.6694
53.6678
53.6662
53.6647
53.6631
53.6615
53.6599
53.6584
53.6568
53.6552
53.6536
53.6521
53.6505
53.6489
53.6473
53.6458
53.6442
53.6426
53.641
53.6395
53.6379
53.6363
53.6347
53.6332
53.6316
53.63
53.6284
53.6269
53.6253
53.6237
53.6222
53.6206
53.619
53.6174
53.6159
53.6143
53.6127
53.6112
53.6096
53.608
53.6065
53.6049
53.6033
53.6017
53.6002
53.5986
53.597
53.5955
53.5939
53.5923
53.5908
53.5892
53.5876
53.5861
53.5845
53.5829
53.5814
53.5798
53.5782
53.5767
53.5751
53.5735
53.572
53.5704
53.5688
53.5673
53.5657
53.5641
53.5626
53.561
53.5594
53.5579
53.5563
53.5547
53.5532
53.5516
53.55
53.5485
53.5469
53.5454
53.5438
53.5422
53.5407
53.5391
53.5375
53.536
53.5344
53.5328
53.5313
53.5297
53.5282
53.5266
53.525
53.5235
53.5219
53.5204
53.5188
53.5172
53.5157
53.5141
53.5125
53.511
53.5094
53.5079
53.5063
53.5047
53.5032
53.5016
53.5001
53.4985
53.4969
53.4954
53.4938
53.4923
53.4907
53.4891
53.4876
53.486
53.4845
53.4829
53.4813
53.4798
53.4782
53.4767
53.4751
53.4735
53.472
53.4704
53.4689
53.4673
53.4658
53.4642
53.4626
53.4611
53.4595
53.458
53.4564
53.4548
53.4533
53.4517
53.4502
53.4486
53.4471
53.4455
53.4439
53.4424
53.4408
53.4393
53.4377
53.4362
53.4346
53.433
53.4315
53.4299
53.4284
53.4268
53.4253
53.4237
53.4222
53.4206
53.419
53.4175
53.4159
53.4144
53.4128
53.4113
53.4097
53.4082
53.4066
53.405
53.4035
53.4019
53.4004
53.3988
53.3973
53.3957
53.3942
53.3926
53.3911
53.3895
53.3879
53.3864
53.3848
53.3833
53.3817
53.3802
53.3786
53.3771
53.3755
53.374
53.3724
53.3708
53.3693
53.3677
53.3662
53.3646
53.3631
53.3615
53.36
53.3584
53.3569
53.3553
53.3538
53.3522
53.3507
53.3491
53.3476
53.346
53.3444
53.3429
53.3413
53.3398
53.3382
53.3367
53.3351
53.3336
53.332
53.3305
53.3289
53.3274
53.3258
53.3243
53.3227
53.3212
53.3196
53.3181
53.3165
53.315
53.3134
53.3119
53.3103
53.3088
53.3072
53.3057
53.3041
53.3025
53.301
53.2994
53.2979
53.2963
53.2948
53.2932
53.2917
53.2901
53.2886
53.287
53.2855
53.2839
53.2824
53.2808
53.2793
53.2777
53.2762
53.2746
53.2731
53.2715
53.27
53.2684
53.2669
53.2653
53.2638
53.2622
53.2607
53.2591
53.2576
53.256
53.2545
53.2529
53.2514
53.2498
53.2483
53.2467
53.2452
53.2436
53.2421
53.2405
53.239
53.2374
53.2359
53.2343
53.2328
53.2313
53.2297
53.2282
53.2266
53.2251
53.2235
53.222
53.2204
53.2189
53.2173
53.2158
53.2142
53.2127
53.2111
53.2096
53.208
53.2065
53.2049
53.2034
53.2018
53.2003
53.1987
53.1972
53.1956
53.1941
53.1925
53.191
53.1894
53.1879
53.1864
53.1848
53.1833
53.1817
53.1802
53.1786
53.1771
53.1755
53.174
53.1724
53.1709
53.1693
53.1678
53.1662
53.1647
53.1631
53.1616
53.1601
53.1585
53.157
53.1554
53.1539
53.1523
53.1508
53.1508
56.5868
56.5868
55.0287
54.773
54.7074
54.6791
54.6622
54.6502
54.6407
54.6327
54.6257
54.6192
54.6133
54.6077
54.6023
54.5972
54.5922
54.5874
54.5826
54.578
54.5735
54.569
54.5646
54.5602
54.556
54.5517
54.5476
54.5435
54.5394
54.5354
54.5314
54.5275
54.5236
54.5198
54.516
54.5122
54.5085
54.5048
54.5012
54.4976
54.4941
54.4905
54.487
54.4836
54.4801
54.4767
54.4734
54.47
54.4667
54.4635
54.4602
54.457
54.4538
54.4506
54.4474
54.4443
54.4412
54.4381
54.4351
54.4321
54.429
54.426
54.4231
54.4201
54.4172
54.4143
54.4114
54.4085
54.4057
54.4028
54.4
54.3972
54.3944
54.3916
54.3889
54.3861
54.3834
54.3807
54.378
54.3753
54.3726
54.37
54.3673
54.3647
54.3621
54.3595
54.3569
54.3543
54.3517
54.3492
54.3466
54.3441
54.3416
54.3391
54.3366
54.3341
54.3316
54.3292
54.3267
54.3243
54.3218
54.3194
54.317
54.3146
54.3122
54.3098
54.3074
54.305
54.3027
54.3003
54.298
54.2956
54.2933
54.291
54.2887
54.2864
54.2841
54.2818
54.2795
54.2773
54.275
54.2727
54.2705
54.2682
54.266
54.2638
54.2616
54.2593
54.2571
54.2549
54.2527
54.2506
54.2484
54.2462
54.244
54.2419
54.2397
54.2376
54.2354
54.2333
54.2311
54.229
54.2269
54.2248
54.2227
54.2206
54.2185
54.2164
54.2143
54.2122
54.2101
54.2081
54.206
54.2039
54.2019
54.1998
54.1978
54.1957
54.1937
54.1917
54.1896
54.1876
54.1856
54.1836
54.1816
54.1796
54.1776
54.1756
54.1736
54.1716
54.1696
54.1676
54.1656
54.1637
54.1617
54.1597
54.1578
54.1558
54.1539
54.1519
54.15
54.148
54.1461
54.1442
54.1422
54.1403
54.1384
54.1365
54.1346
54.1327
54.1307
54.1288
54.1269
54.125
54.1232
54.1213
54.1194
54.1175
54.1156
54.1137
54.1118
54.11
54.1081
54.1062
54.1044
54.1025
54.1007
54.0988
54.097
54.0951
54.0933
54.0914
54.0896
54.0877
54.0859
54.0841
54.0822
54.0804
54.0786
54.0768
54.0749
54.0731
54.0713
54.0695
54.0677
54.0659
54.0641
54.0623
54.0605
54.0587
54.0569
54.0551
54.0533
54.0515
54.0497
54.048
54.0462
54.0444
54.0426
54.0408
54.0391
54.0373
54.0355
54.0338
54.032
54.0302
54.0285
54.0267
54.025
54.0232
54.0214
54.0197
54.0179
54.0162
54.0145
54.0127
54.011
54.0092
54.0075
54.0058
54.004
54.0023
54.0006
53.9988
53.9971
53.9954
53.9936
53.9919
53.9902
53.9885
53.9868
53.985
53.9833
53.9816
53.9799
53.9782
53.9765
53.9748
53.9731
53.9714
53.9697
53.968
53.9663
53.9646
53.9629
53.9612
53.9595
53.9578
53.9561
53.9544
53.9527
53.951
53.9493
53.9477
53.946
53.9443
53.9426
53.9409
53.9392
53.9376
53.9359
53.9342
53.9325
53.9309
53.9292
53.9275
53.9259
53.9242
53.9225
53.9208
53.9192
53.9175
53.9159
53.9142
53.9125
53.9109
53.9092
53.9076
53.9059
53.9042
53.9026
53.9009
53.8993
53.8976
53.896
53.8943
53.8927
53.891
53.8894
53.8877
53.8861
53.8844
53.8828
53.8811
53.8795
53.8779
53.8762
53.8746
53.8729
53.8713
53.8697
53.868
53.8664
53.8648
53.8631
53.8615
53.8599
53.8582
53.8566
53.855
53.8533
53.8517
53.8501
53.8484
53.8468
53.8452
53.8436
53.8419
53.8403
53.8387
53.8371
53.8355
53.8338
53.8322
53.8306
53.829
53.8273
53.8257
53.8241
53.8225
53.8209
53.8193
53.8176
53.816
53.8144
53.8128
53.8112
53.8096
53.808
53.8064
53.8047
53.8031
53.8015
53.7999
53.7983
53.7967
53.7951
53.7935
53.7919
53.7903
53.7887
53.7871
53.7855
53.7839
53.7823
53.7806
53.779
53.7774
53.7758
53.7742
53.7726
53.771
53.7694
53.7678
53.7662
53.7646
53.763
53.7614
53.7599
53.7583
53.7567
53.7551
53.7535
53.7519
53.7503
53.7487
53.7471
53.7455
53.7439
53.7423
53.7407
53.7391
53.7375
53.7359
53.7344
53.7328
53.7312
53.7296
53.728
53.7264
53.7248
53.7232
53.7216
53.72
53.7185
53.7169
53.7153
53.7137
53.7121
53.7105
53.7089
53.7074
53.7058
53.7042
53.7026
53.701
53.6994
53.6979
53.6963
53.6947
53.6931
53.6915
53.6899
53.6884
53.6868
53.6852
53.6836
53.682
53.6805
53.6789
53.6773
53.6757
53.6741
53.6726
53.671
53.6694
53.6678
53.6662
53.6647
53.6631
53.6615
53.6599
53.6584
53.6568
53.6552
53.6536
53.6521
53.6505
53.6489
53.6473
53.6458
53.6442
53.6426
53.641
53.6395
53.6379
53.6363
53.6347
53.6332
53.6316
53.63
53.6284
53.6269
53.6253
53.6237
53.6222
53.6206
53.619
53.6174
53.6159
53.6143
53.6127
53.6112
53.6096
53.608
53.6065
53.6049
53.6033
53.6017
53.6002
53.5986
53.597
53.5955
53.5939
53.5923
53.5908
53.5892
53.5876
53.5861
53.5845
53.5829
53.5814
53.5798
53.5782
53.5767
53.5751
53.5735
53.572
53.5704
53.5688
53.5673
53.5657
53.5641
53.5626
53.561
53.5594
53.5579
53.5563
53.5547
53.5532
53.5516
53.5501
53.5485
53.5469
53.5454
53.5438
53.5422
53.5407
53.5391
53.5375
53.536
53.5344
53.5329
53.5313
53.5297
53.5282
53.5266
53.525
53.5235
53.5219
53.5204
53.5188
53.5172
53.5157
53.5141
53.5125
53.511
53.5094
53.5079
53.5063
53.5047
53.5032
53.5016
53.5001
53.4985
53.4969
53.4954
53.4938
53.4923
53.4907
53.4891
53.4876
53.486
53.4845
53.4829
53.4813
53.4798
53.4782
53.4767
53.4751
53.4735
53.472
53.4704
53.4689
53.4673
53.4658
53.4642
53.4626
53.4611
53.4595
53.458
53.4564
53.4549
53.4533
53.4517
53.4502
53.4486
53.4471
53.4455
53.4439
53.4424
53.4408
53.4393
53.4377
53.4362
53.4346
53.4331
53.4315
53.4299
53.4284
53.4268
53.4253
53.4237
53.4222
53.4206
53.419
53.4175
53.4159
53.4144
53.4128
53.4113
53.4097
53.4082
53.4066
53.405
53.4035
53.4019
53.4004
53.3988
53.3973
53.3957
53.3942
53.3926
53.3911
53.3895
53.3879
53.3864
53.3848
53.3833
53.3817
53.3802
53.3786
53.3771
53.3755
53.374
53.3724
53.3709
53.3693
53.3677
53.3662
53.3646
53.3631
53.3615
53.36
53.3584
53.3569
53.3553
53.3538
53.3522
53.3507
53.3491
53.3476
53.346
53.3445
53.3429
53.3413
53.3398
53.3382
53.3367
53.3351
53.3336
53.332
53.3305
53.3289
53.3274
53.3258
53.3243
53.3227
53.3212
53.3196
53.3181
53.3165
53.315
53.3134
53.3119
53.3103
53.3088
53.3072
53.3057
53.3041
53.3026
53.301
53.2995
53.2979
53.2963
53.2948
53.2932
53.2917
53.2901
53.2886
53.287
53.2855
53.2839
53.2824
53.2808
53.2793
53.2777
53.2762
53.2746
53.2731
53.2715
53.27
53.2684
53.2669
53.2653
53.2638
53.2622
53.2607
53.2591
53.2576
53.256
53.2545
53.2529
53.2514
53.2498
53.2483
53.2467
53.2452
53.2436
53.2421
53.2405
53.239
53.2375
53.2359
53.2344
53.2328
53.2313
53.2297
53.2282
53.2266
53.2251
53.2235
53.222
53.2204
53.2189
53.2173
53.2158
53.2142
53.2127
53.2111
53.2096
53.208
53.2065
53.2049
53.2034
53.2018
53.2003
53.1987
53.1972
53.1956
53.1941
53.1925
53.191
53.1895
53.1879
53.1864
53.1848
53.1833
53.1817
53.1802
53.1786
53.1771
53.1755
53.174
53.1724
53.1709
53.1693
53.1678
53.1662
53.1647
53.1632
53.1616
53.1601
53.1585
53.157
53.1554
53.1539
53.1523
53.1508
53.1508
55.8973
55.8973
55.0129
54.7796
54.7111
54.6812
54.6636
54.6512
54.6414
54.6333
54.6261
54.6196
54.6136
54.6079
54.6026
54.5974
54.5924
54.5875
54.5828
54.5781
54.5736
54.5691
54.5647
54.5603
54.556
54.5518
54.5476
54.5435
54.5395
54.5354
54.5315
54.5275
54.5237
54.5198
54.516
54.5123
54.5086
54.5049
54.5012
54.4976
54.4941
54.4906
54.4871
54.4836
54.4802
54.4768
54.4734
54.4701
54.4668
54.4635
54.4602
54.457
54.4538
54.4506
54.4475
54.4443
54.4412
54.4382
54.4351
54.4321
54.4291
54.4261
54.4231
54.4201
54.4172
54.4143
54.4114
54.4085
54.4057
54.4028
54.4
54.3972
54.3944
54.3916
54.3889
54.3861
54.3834
54.3807
54.378
54.3753
54.3726
54.37
54.3673
54.3647
54.3621
54.3595
54.3569
54.3543
54.3517
54.3492
54.3467
54.3441
54.3416
54.3391
54.3366
54.3341
54.3316
54.3292
54.3267
54.3243
54.3218
54.3194
54.317
54.3146
54.3122
54.3098
54.3074
54.305
54.3027
54.3003
54.298
54.2956
54.2933
54.291
54.2887
54.2864
54.2841
54.2818
54.2795
54.2773
54.275
54.2727
54.2705
54.2682
54.266
54.2638
54.2616
54.2593
54.2571
54.2549