# vtk DataFile Version 2.0
FlowField
ASCII
DATASET STRUCTURED_GRID
DIMENSIONS 800 1 200
POINTS 160000 float
0 0 0
0.04 0 0
0.08 0 0
0.12 0 0
0.16 0 0
0.2 0 0
0.24 0 0
0.28 0 0
0.32 0 0
0.36 0 0
0.4 0 0
0.44 0 0
0.48 0 0
0.52 0 0
0.56 0 0
0.6 0 0
0.64 0 0
0.68 0 0
0.72 0 0
0.76 0 0
0.8 0 0
0.84 0 0
0.88 0 0
0.92 0 0
0.96 0 0
1 0 0
1.04 0 0
1.08 0 0
1.12 0 0
1.16 0 0
1.2 0 0
1.24 0 0
1.28 0 0
1.32 0 0
1.36 0 0
1.4 0 0
1.44 0 0
1.48 0 0
1.52 0 0
1.56 0 0
1.6 0 0
1.64 0 0
1.68 0 0
1.72 0 0
1.76 0 0
1.8 0 0
1.84 0 0
1.88 0 0
1.92 0 0
1.96 0 0
2 0 0
2.04 0 0
2.08 0 0
2.12 0 0
2.16 0 0
2.2 0 0
2.24 0 0
2.28 0 0
2.32 0 0
2.36 0 0
2.4 0 0
2.44 0 0
2.48 0 0
2.52 0 0
2.56 0 0
2.6 0 0
2.64 0 0
2.68 0 0
2.72 0 0
2.76 0 0
2.8 0 0
2.84 0 0
2.88 0 0
2.92 0 0
2.96 0 0
3 0 0
3.04 0 0
3.08 0 0
3.12 0 0
3.16 0 0
3.2 0 0
3.24 0 0
3.28 0 0
3.32 0 0
3.36 0 0
3.4 0 0
3.44 0 0
3.48 0 0
3.52 0 0
3.56 0 0
3.6 0 0
3.64 0 0
3.68 0 0
3.72 0 0
3.76 0 0
3.8 0 0
3.84 0 0
3.88 0 0
3.92 0 0
3.96 0 0
4 0 0
4.04 0 0
4.08 0 0
4.12 0 0
4.16 0 0
4.2 0 0
4.24 0 0
4.28 0 0
4.32 0 0
4.36 0 0
4.4 0 0
4.44 0 0
4.48 0 0
4.52 0 0
4.56 0 0
4.6 0 0
4.64 0 0
4.68 0 0
4.72 0 0
4.76 0 0
4.8 0 0
4.84 0 0
4.88 0 0
4.92 0 0
4.96 0 0
5 0 0
5.04 0 0
5.08 0 0
5.12 0 0
5.16 0 0
5.2 0 0
5.24 0 0
5.28 0 0
5.32 0 0
5.36 0 0
5.4 0 0
5.44 0 0
5.48 0 0
5.52 0 0
5.56 0 0
5.6 0 0
5.64 0 0
5.68 0 0
5.72 0 0
5.76 0 0
5.8 0 0
5.84 0 0
5.88 0 0
5.92 0 0
5.96 0 0
6 0 0
6.04 0 0
6.08 0 0
6.12 0 0
6.16 0 0
6.2 0 0
6.24 0 0
6.28 0 0
6.32 0 0
6.36 0 0
6.4 0 0
6.44 0 0
6.48 0 0
6.52 0 0
6.56 0 0
6.6 0 0
6.64 0 0
6.68 0 0
6.72 0 0
6.76 0 0
6.8 0 0
6.84 0 0
6.88 0 0
6.92 0 0
6.96 0 0
7 0 0
7.04 0 0
7.08 0 0
7.12 0 0
7.16 0 0
7.2 0 0
7.24 0 0
7.28 0 0
7.32 0 0
7.36 0 0
7.4 0 0
7.44 0 0
7.48 0 0
7.52 0 0
7.56 0 0
7.6 0 0
7.64 0 0
7.68 0 0
7.72 0 0
7.76 0 0
7.8 0 0
7.84 0 0
7.88 0 0
7.92 0 0
7.96 0 0
8 0 0
8.04 0 0
8.08 0 0
8.12 0 0
8.16 0 0
8.2 0 0
8.24 0 0
8.28 0 0
8.32 0 0
8.36 0 0
8.4 0 0
8.44 0 0
8.48 0 0
8.52 0 0
8.56 0 0
8.6 0 0
8.64 0 0
8.68 0 0
8.72 0 0
8.76 0 0
8.8 0 0
8.84 0 0
8.88 0 0
8.92 0 0
8.96 0 0
9 0 0
9.04 0 0
9.08 0 0
9.12 0 0
9.16 0 0
9.2 0 0
9.24 0 0
9.28 0 0
9.32 0 0
9.36 0 0
9.4 0 0
9.44 0 0
9.48 0 0
9.52 0 0
9.56 0 0
9.6 0 0
9.64 0 0
9.68 0 0
9.72 0 0
9.76 0 0
9.8 0 0
9.84 0 0
9.88 0 0
9.92 0 0
9.96 0 0
10 0 0
10.04 0 0
10.08 0 0
10.12 0 0
10.16 0 0
10.2 0 0
10.24 0 0
10.28 0 0
10.32 0 0
10.36 0 0
10.4 0 0
10.44 0 0
10.48 0 0
10.52 0 0
10.56 0 0
10.6 0 0
10.64 0 0
10.68 0 0
10.72 0 0
10.76 0 0
10.8 0 0
10.84 0 0
10.88 0 0
10.92 0 0
10.96 0 0
11 0 0
11.04 0 0
11.08 0 0
11.12 0 0
11.16 0 0
11.2 0 0
11.24 0 0
11.28 0 0
11.32 0 0
11.36 0 0
11.4 0 0
11.44 0 0
11.48 0 0
11.52 0 0
11.56 0 0
11.6 0 0
11.64 0 0
11.68 0 0
11.72 0 0
11.76 0 0
11.8 0 0
11.84 0 0
11.88 0 0
11.92 0 0
11.96 0 0
12 0 0
12.04 0 0
12.08 0 0
12.12 0 0
12.16 0 0
12.2 0 0
12.24 0 0
12.28 0 0
12.32 0 0
12.36 0 0
12.4 0 0
12.44 0 0
12.48 0 0
12.52 0 0
12.56 0 0
12.6 0 0
12.64 0 0
12.68 0 0
12.72 0 0
12.76 0 0
12.8 0 0
12.84 0 0
12.88 0 0
12.92 0 0
12.96 0 0
13 0 0
13.04 0 0
13.08 0 0
13.12 0 0
13.16 0 0
13.2 0 0
13.24 0 0
13.28 0 0
13.32 0 0
13.36 0 0
13.4 0 0
13.44 0 0
13.48 0 0
13.52 0 0
13.56 0 0
13.6 0 0
13.64 0 0
13.68 0 0
13.72 0 0
13.76 0 0
13.8 0 0
13.84 0 0
13.88 0 0
13.92 0 0
13.96 0 0
14 0 0
14.04 0 0
14.08 0 0
14.12 0 0
14.16 0 0
14.2 0 0
14.24 0 0
14.28 0 0
14.32 0 0
14.36 0 0
14.4 0 0
14.44 0 0
14.48 0 0
14.52 0 0
14.56 0 0
14.6 0 0
14.64 0 0
14.68 0 0
14.72 0 0
14.76 0 0
14.8 0 0
14.84 0 0
14.88 0 0
14.92 0 0
14.96 0 0
15 0 0
15.04 0 0
15.08 0 0
15.12 0 0
15.16 0 0
15.2 0 0
15.24 0 0
15.28 0 0
15.32 0 0
15.36 0 0
15.4 0 0
15.44 0 0
15.48 0 0
15.52 0 0
15.56 0 0
15.6 0 0
15.64 0 0
15.68 0 0
15.72 0 0
15.76 0 0
15.8 0 0
15.84 0 0
15.88 0 0
15.92 0 0
15.96 0 0
16 0 0
16.04 0 0
16.08 0 0
16.12 0 0
16.16 0 0
16.2 0 0
16.24 0 0
16.28 0 0
16.32 0 0
16.36 0 0
16.4 0 0
16.44 0 0
16.48 0 0
16.52 0 0
16.56 0 0
16.6 0 0
16.64 0 0
16.68 0 0
16.72 0 0
16.76 0 0
16.8 0 0
16.84 0 0
16.88 0 0
16.92 0 0
16.96 0 0
17 0 0
17.04 0 0
17.08 0 0
17.12 0 0
17.16 0 0
17.2 0 0
17.24 0 0
17.28 0 0
17.32 0 0
17.36 0 0
17.4 0 0
17.44 0 0
17.48 0 0
17.52 0 0
17.56 0 0
17.6 0 0
17.64 0 0
17.68 0 0
17.72 0 0
17.76 0 0
17.8 0 0
17.84 0 0
17.88 0 0
17.92 0 0
17.96 0 0
18 0 0
18.04 0 0
18.08 0 0
18.12 0 0
18.16 0 0
18.2 0 0
18.24 0 0
18.28 0 0
18.32 0 0
18.36 0 0
18.4 0 0
18.44 0 0
18.48 0 0
18.52 0 0
18.56 0 0
18.6 0 0
18.64 0 0
18.68 0 0
18.72 0 0
18.76 0 0
18.8 0 0
18.84 0 0
18.88 0 0
18.92 0 0
18.96 0 0
19 0 0
19.04 0 0
19.08 0 0
19.12 0 0
19.16 0 0
19.2 0 0
19.24 0 0
19.28 0 0
19.32 0 0
19.36 0 0
19.4 0 0
19.44 0 0
19.48 0 0
19.52 0 0
19.56 0 0
19.6 0 0
19.64 0 0
19.68 0 0
19.72 0 0
19.76 0 0
19.8 0 0
19.84 0 0
19.88 0 0
19.92 0 0
19.96 0 0
20 0 0
20.04 0 0
20.08 0 0
20.12 0 0
20.16 0 0
20.2 0 0
20.24 0 0
20.28 0 0
20.32 0 0
20.36 0 0
20.4 0 0
20.44 0 0
20.48 0 0
20.52 0 0
20.56 0 0
20.6 0 0
20.64 0 0
20.68 0 0
20.72 0 0
20.76 0 0
20.8 0 0
20.84 0 0
20.88 0 0
20.92 0 0
20.96 0 0
21 0 0
21.04 0 0
21.08 0 0
21.12 0 0
21.16 0 0
21.2 0 0
21.24 0 0
21.28 0 0
21.32 0 0
21.36 0 0
21.4 0 0
21.44 0 0
21.48 0 0
21.52 0 0
21.56 0 0
21.6 0 0
21.64 0 0
21.68 0 0
21.72 0 0
21.76 0 0
21.8 0 0
21.84 0 0
21.88 0 0
21.92 0 0
21.96 0 0
22 0 0
22.04 0 0
22.08 0 0
22.12 0 0
22.16 0 0
22.2 0 0
22.24 0 0
22.28 0 0
22.32 0 0
22.36 0 0
22.4 0 0
22.44 0 0
22.48 0 0
22.52 0 0
22.56 0 0
22.6 0 0
22.64 0 0
22.68 0 0
22.72 0 0
22.76 0 0
22.8 0 0
22.84 0 0
22.88 0 0
22.92 0 0
22.96 0 0
23 0 0
23.04 0 0
23.08 0 0
23.12 0 0
23.16 0 0
23.2 0 0
23.24 0 0
23.28 0 0
23.32 0 0
23.36 0 0
23.4 0 0
23.44 0 0
23.48 0 0
23.52 0 0
23.56 0 0
23.6 0 0
23.64 0 0
23.68 0 0
23.72 0 0
23.76 0 0
23.8 0 0
23.84 0 0
23.88 0 0
23.92 0 0
23.96 0 0
24 0 0
24.04 0 0
24.08 0 0
24.12 0 0
24.16 0 0
24.2 0 0
24.24 0 0
24.28 0 0
24.32 0 0
24.36 0 0
24.4 0 0
24.44 0 0
24.48 0 0
24.52 0 0
24.56 0 0
24.6 0 0
24.64 0 0
24.68 0 0
24.72 0 0
24.76 0 0
24.8 0 0
24.84 0 0
24.88 0 0
24.92 0 0
24.96 0 0
25 0 0
25.04 0 0
25.08 0 0
25.12 0 0
25.16 0 0
25.2 0 0
25.24 0 0
25.28 0 0
25.32 0 0
25.36 0 0
25.4 0 0
25.44 0 0
25.48 0 0
25.52 0 0
25.56 0 0
25.6 0 0
25.64 0 0
25.68 0 0
25.72 0 0
25.76 0 0
25.8 0 0
25.84 0 0
25.88 0 0
25.92 0 0
25.96 0 0
26 0 0
26.04 0 0
26.08 0 0
26.12 0 0
26.16 0 0
26.2 0 0
26.24 0 0
26.28 0 0
26.32 0 0
26.36 0 0
26.4 0 0
26.44 0 0
26.48 0 0
26.52 0 0
26.56 0 0
26.6 0 0
26.64 0 0
26.68 0 0
26.72 0 0
26.76 0 0
26.8 0 0
26.84 0 0
26.88 0 0
26.92 0 0
26.96 0 0
27 0 0
27.04 0 0
27.08 0 0
27.12 0 0
27.16 0 0
27.2 0 0
27.24 0 0
27.28 0 0
27.32 0 0
27.36 0 0
27.4 0 0
27.44 0 0
27.48 0 0
27.52 0 0
27.56 0 0
27.6 0 0
27.64 0 0
27.68 0 0
27.72 0 0
27.76 0 0
27.8 0 0
27.84 0 0
27.88 0 0
27.92 0 0
27.96 0 0
28 0 0
28.04 0 0
28.08 0 0
28.12 0 0
28.16 0 0
28.2 0 0
28.24 0 0
28.28 0 0
28.32 0 0
28.36 0 0
28.4 0 0
28.44 0 0
28.48 0 0
28.52 0 0
28.56 0 0
28.6 0 0
28.64 0 0
28.68 0 0
28.72 0 0
28.76 0 0
28.8 0 0
28.84 0 0
28.88 0 0
28.92 0 0
28.96 0 0
29 0 0
29.04 0 0
29.08 0 0
29.12 0 0
29.16 0 0
29.2 0 0
29.24 0 0
29.28 0 0
29.32 0 0
29.36 0 0
29.4 0 0
29.44 0 0
29.48 0 0
29.52 0 0
29.56 0 0
29.6 0 0
29.64 0 0
29.68 0 0
29.72 0 0
29.76 0 0
29.8 0 0
29.84 0 0
29.88 0 0
29.92 0 0
29.96 0 0
30 0 0
30.04 0 0
30.08 0 0
30.12 0 0
30.16 0 0
30.2 0 0
30.24 0 0
30.28 0 0
30.32 0 0
30.36 0 0
30.4 0 0
30.44 0 0
30.48 0 0
30.52 0 0
30.56 0 0
30.6 0 0
30.64 0 0
30.68 0 0
30.72 0 0
30.76 0 0
30.8 0 0
30.84 0 0
30.88 0 0
30.92 0 0
30.96 0 0
31 0 0
31.04 0 0
31.08 0 0
31.12 0 0
31.16 0 0
31.2 0 0
31.24 0 0
31.28 0 0
31.32 0 0
31.36 0 0
31.4 0 0
31.44 0 0
31.48 0 0
31.52 0 0
31.56 0 0
31.6 0 0
31.64 0 0
31.68 0 0
31.72 0 0
31.76 0 0
31.8 0 0
31.84 0 0
31.88 0 0
31.92 0 0
31.96 0 0
0 0.005 0
0.04 0.005 0
0.08 0.005 0
0.12 0.005 0
0.16 0.005 0
0.2 0.005 0
0.24 0.005 0
0.28 0.005 0
0.32 0.005 0
0.36 0.005 0
0.4 0.005 0
0.44 0.005 0
0.48 0.005 0
0.52 0.005 0
0.56 0.005 0
0.6 0.005 0
0.64 0.005 0
0.68 0.005 0
0.72 0.005 0
0.76 0.005 0
0.8 0.005 0
0.84 0.005 0
0.88 0.005 0
0.92 0.005 0
0.96 0.005 0
1 0.005 0
1.04 0.005 0
1.08 0.005 0
1.12 0.005 0
1.16 0.005 0
1.2 0.005 0
1.24 0.005 0
1.28 0.005 0
1.32 0.005 0
1.36 0.005 0
1.4 0.005 0
1.44 0.005 0
1.48 0.005 0
1.52 0.005 0
1.56 0.005 0
1.6 0.005 0
1.64 0.005 0
1.68 0.005 0
1.72 0.005 0
1.76 0.005 0
1.8 0.005 0
1.84 0.005 0
1.88 0.005 0
1.92 0.005 0
1.96 0.005 0
2 0.005 0
2.04 0.005 0
2.08 0.005 0
2.12 0.005 0
2.16 0.005 0
2.2 0.005 0
2.24 0.005 0
2.28 0.005 0
2.32 0.005 0
2.36 0.005 0
2.4 0.005 0
2.44 0.005 0
2.48 0.005 0
2.52 0.005 0
2.56 0.005 0
2.6 0.005 0
2.64 0.005 0
2.68 0.005 0
2.72 0.005 0
2.76 0.005 0
2.8 0.005 0
2.84 0.005 0
2.88 0.005 0
2.92 0.005 0
2.96 0.005 0
3 0.005 0
3.04 0.005 0
3.08 0.005 0
3.12 0.005 0
3.16 0.005 0
3.2 0.005 0
3.24 0.005 0
3.28 0.005 0
3.32 0.005 0
3.36 0.005 0
3.4 0.005 0
3.44 0.005 0
3.48 0.005 0
3.52 0.005 0
3.56 0.005 0
3.6 0.005 0
3.64 0.005 0
3.68 0.005 0
3.72 0.005 0
3.76 0.005 0
3.8 0.005 0
3.84 0.005 0
3.88 0.005 0
3.92 0.005 0
3.96 0.005 0
4 0.005 0
4.04 0.005 0
4.08 0.005 0
4.12 0.005 0
4.16 0.005 0
4.2 0.005 0
4.24 0.005 0
4.28 0.005 0
4.32 0.005 0
4.36 0.005 0
4.4 0.005 0
4.44 0.005 0
4.48 0.005 0
4.52 0.005 0
4.56 0.005 0
4.6 0.005 0
4.64 0.005 0
4.68 0.005 0
4.72 0.005 0
4.76 0.005 0
4.8 0.005 0
4.84 0.005 0
4.88 0.005 0
4.92 0.005 0
4.96 0.005 0
5 0.005 0
5.04 0.005 0
5.08 0.005 0
5.12 0.005 0
5.16 0.005 0
5.2 0.005 0
5.24 0.005 0
5.28 0.005 0
5.32 0.005 0
5.36 0.005 0
5.4 0.005 0
5.44 0.005 0
5.48 0.005 0
5.52 0.005 0
5.56 0.005 0
5.6 0.005 0
5.64 0.005 0
5.68 0.005 0
5.72 0.005 0
5.76 0.005 0
5.8 0.005 0
5.84 0.005 0
5.88 0.005 0
5.92 0.005 0
5.96 0.005 0
6 0.005 0
6.04 0.005 0
6.08 0.005 0
6.12 0.005 0
6.16 0.005 0
6.2 0.005 0
6.24 0.005 0
6.28 0.005 0
6.32 0.005 0
6.36 0.005 0
6.4 0.005 0
6.44 0.005 0
6.48 0.005 0
6.52 0.005 0
6.56 0.005 0
6.6 0.005 0
6.64 0.005 0
6.68 0.005 0
6.72 0.005 0
6.76 0.005 0
6.8 0.005 0
6.84 0.005 0
6.88 0.005 0
6.92 0.005 0
6.96 0.005 0
7 0.005 0
7.04 0.005 0
7.08 0.005 0
7.12 0.005 0
7.16 0.005 0
7.2 0.005 0
7.24 0.005 0
7.28 0.005 0
7.32 0.005 0
7.36 0.005 0
7.4 0.005 0
[...]
POINT_DATA 160000

SCALARS p float 1
LOOKUP_TABLE default
1
22.7337
20.5182
20.2634
20.2032
20.1768
20.1608
20.1492
20.14
20.1321
20.1252
20.1188
20.113
20.1074
20.1021
20.097
20.092
20.0872
20.0825
20.0779
20.0733
20.0689
20.0645
20.0601
20.0559
20.0517
20.0475
20.0434
20.0393
20.0353
20.0314
20.0275
20.0236
20.0198
20.016
20.0122
20.0085
20.0048
20.0012
19.9976
19.9941
19.9905
19.987
19.9836
19.9802
19.9768
19.9734
19.9701
19.9668
19.9635
19.9602
19.957
19.9538
19.9507
19.9475
19.9444
19.9413
19.9382
19.9352
19.9321
19.9291
19.9261
19.9232
19.9202
19.9173
19.9144
19.9115
19.9086
19.9058
19.9029
19.9001
19.8973
19.8945
19.8917
19.889
19.8862
19.8835
19.8808
19.8781
19.8754
19.8728
19.8701
19.8675
19.8648
19.8622
19.8596
19.857
19.8545
19.8519
19.8494
19.8468
19.8443
19.8418
19.8393
19.8368
19.8343
19.8318
19.8293
19.8269
19.8244
19.822
19.8196
19.8172
19.8148
19.8124
19.81
19.8076
19.8053
19.8029
19.8005
19.7982
19.7959
19.7935
19.7912
19.7889
19.7866
19.7843
19.7821
19.7798
19.7775
19.7752
19.773
19.7707
19.7685
19.7663
19.7641
19.7618
19.7596
19.7574
19.7552
19.753
19.7509
19.7487
19.7465
19.7443
19.7422
19.74
19.7379
19.7358
19.7336
19.7315
19.7294
19.7273
19.7252
19.7231
19.721
19.7189
19.7168
19.7148
19.7127
19.7106
19.7086
19.7065
19.7045
19.7025
19.7004
19.6984
19.6964
19.6944
19.6924
19.6904
19.6884
19.6864
19.6845
19.6825
19.6805
19.6786
19.6766
19.6747
19.6728
19.6708
19.6689
19.667
19.6651
19.6632
19.6613
19.6594
19.6575
19.6556
19.6537
19.6519
19.65
19.6481
19.6463
19.6444
19.6426
19.6407
19.6389
19.6371
19.6352
19.6334
19.6316
19.6298
19.628
19.6262
19.6244
19.6226
19.6208
19.619
19.6172
19.6154
19.6136
19.6118
19.6101
19.6083
19.6065
19.6048
19.603
19.6012
19.5995
19.5977
19.596
19.5942
19.5925
19.5907
19.589
19.5873
19.5855
19.5838
19.582
19.5803
19.5786
19.5769
19.5751
19.5734
19.5717
19.57
19.5683
19.5665
19.5648
19.5631
19.5614
19.5597
19.558
19.5563
19.5546
19.5529
19.5512
19.5495
19.5478
19.5461
19.5444
19.5427
19.541
19.5393
19.5376
19.5359
19.5342
19.5325
19.5308
19.5291
19.5275
19.5258
19.5241
19.5224
19.5207
19.519
19.5173
19.5156
19.5139
19.5123
19.5106
19.5089
19.5072
19.5055
19.5038
19.5021
19.5004
19.4988
19.4971
19.4954
19.4937
19.492
19.4903
19.4886
19.4869
19.4853
19.4836
19.4819
19.4802
19.4785
19.4768
19.4751
19.4734
19.4717
19.4701
19.4684
19.4667
19.465
19.4633
19.4616
19.4599
19.4582
19.4566
19.4549
19.4532
19.4515
19.4498
19.4481
19.4464
19.4447
19.4431
19.4414
19.4397
19.438
19.4363
19.4346
19.4329
19.4312
19.4296
19.4279
19.4262
19.4245
19.4228
19.4211
19.4194
19.4178
19.4161
19.4144
19.4127
19.411
19.4093
19.4076
19.4059
19.4043
19.4026
19.4009
19.3992
19.3975
19.3958
19.3941
19.3924
19.3908
19.3891
19.3874
19.3857
19.384
19.3823
19.3806
19.3789
19.3773
19.3756
19.3739
19.3722
19.3705
19.3688
19.3671
19.3655
19.3638
19.3621
19.3604
19.3587
19.357
19.3553
19.3536
19.352
19.3503
19.3486
19.3469
19.3452
19.3435
19.3418
19.3402
19.3385
19.3368
19.3351
19.3334
19.3317
19.33
19.3284
19.3267
19.325
19.3233
19.3216
19.3199
19.3182
19.3165
19.3149
19.3132
19.3115
19.3098
19.3081
19.3064
19.3047
19.3031
19.3014
19.2997
19.298
19.2963
19.2946
19.2929
19.2913
19.2896
19.2879
19.2862
19.2845
19.2828
19.2811
19.2795
19.2778
19.2761
19.2744
19.2727
19.271
19.2693
19.2677
19.266
19.2643
19.2626
19.2609
19.2592
19.2575
19.2559
19.2542
19.2525
19.2508
19.2491
19.2474
19.2457
19.2441
19.2424
19.2407
19.239
19.2373
19.2356
19.2339
19.2323
19.2306
19.2289
19.2272
19.2255
19.2238
19.2221
19.2205
19.2188
19.2171
19.2154
19.2137
19.212
19.2103
19.2087
19.207
19.2053
19.2036
19.2019
19.2002
19.1985
19.1969
19.1952
19.1935
19.1918
19.1901
19.1884
19.1867
19.1851
19.1834
19.1817
19.18
19.1783
19.1766
19.175
19.1733
19.1716
19.1699
19.1682
19.1665
19.1648
19.1632
19.1615
19.1598
19.1581
19.1564
19.1547
19.153
19.1514
19.1497
19.148
19.1463
19.1446
19.1429
19.1413
19.1396
19.1379
19.1362
19.1345
19.1328
19.1311
19.1295
19.1278
19.1261
19.1244
19.1227
19.121
19.1194
19.1177
19.116
19.1143
19.1126
19.1109
19.1092
19.1076
19.1059
19.1042
19.1025
19.1008
19.0991
19.0975
19.0958
19.0941
19.0924
19.0907
19.089
19.0873
19.0857
19.084
19.0823
19.0806
19.0789
19.0772
19.0756
19.0739
19.0722
19.0705
19.0688
19.0671
19.0655
19.0638
19.0621
19.0604
19.0587
19.057
19.0554
19.0537
19.052
19.0503
19.0486
19.0469
19.0452
19.0436
19.0419
19.0402
19.0385
19.0368
19.0351
19.0335
19.0318
19.0301
19.0284
19.0267
19.025
19.0234
19.0217
19.02
19.0183
19.0166
19.0149
19.0133
19.0116
19.0099
19.0082
19.0065
19.0048
19.0032
19.0015
18.9998
18.9981
18.9964
18.9947
18.9931
18.9914
18.9897
18.988
18.9863
18.9846
18.983
18.9813
18.9796
18.9779
18.9762
18.9745
18.9729
18.9712
18.9695
18.9678
18.9661
18.9644
18.9628
18.9611
18.9594
18.9577
18.956
18.9543
18.9527
18.951
18.9493
18.9476
18.9459
18.9442
18.9426
18.9409
18.9392
18.9375
18.9358
18.9341
18.9325
18.9308
18.9291
18.9274
18.9257
18.924
18.9224
18.9207
18.919
18.9173
18.9156
18.9139
18.9123
18.9106
18.9089
18.9072
18.9055
18.9038
18.9022
18.9005
18.8988
18.8971
18.8954
18.8937
18.8921
18.8904
18.8887
18.887
18.8853
18.8837
18.882
18.8803
18.8786
18.8769
18.8752
18.8736
18.8719
18.8702
18.8685
18.8668
18.8651
18.8635
18.8618
18.8601
18.8584
18.8567
18.855
18.8534
18.8517
18.85
18.8483
18.8466
18.845
18.8433
18.8416
18.8399
18.8382
18.8365
18.8349
18.8332
18.8315
18.8298
18.8281
18.8264
18.8248
18.8231
18.8214
18.8197
18.818
18.8164
18.8147
18.813
18.8113
18.8096
18.8079
18.8063
18.8046
18.8029
18.8012
18.7995
18.7979
18.7962
18.7945
18.7928
18.7911
18.7894
18.7878
18.7861
18.7844
18.7827
18.781
18.7794
18.7777
18.776
18.7743
18.7726
18.7709
18.7693
18.7676
18.7659
18.7642
18.7625
18.7609
18.7592
18.7575
18.7558
18.7541
18.7524
18.7508
18.7491
18.7474
18.7457
18.744
18.7424
18.7407
18.739
18.7373
18.7356
18.7339
18.7323
18.7306
18.7289
18.7272
18.7255
18.7239
18.7222
18.7205
18.7188
18.7171
18.7155
18.7138
18.7121
18.7104
18.7087
18.707
18.7054
18.7037
18.702
18.7003
18.6986
18.697
18.6953
18.6936
18.6919
18.6902
18.6886
18.6869
18.6852
18.6835
18.6818
18.6801
18.6785
18.6768
18.6751
18.6734
18.6717
18.6701
18.6684
18.6667
18.665
18.6633
18.6617
18.66
18.6583
18.6566
18.6549
18.6533
18.6516
18.6499
18.6482
18.6465
18.6448
18.6432
18.6415
18.6398
18.6381
18.6364
18.6348
18.6331
18.6314
18.6297
18.628
18.6264
18.6247
18.623
18.6213
18.6196
18.618
18.6163
18.6146
18.6129
18.6112
18.6096
18.6079
18.6062
1
22.7337
22.7337
20.5182
20.2634
20.2032
20.1768
20.1608
20.1492
20.14
20.1321
20.1252
20.1188
20.113
20.1074
20.1021
20.097
20.092
20.0872
20.0825
20.0779
20.0733
20.0689
20.0645
20.0601
20.0559
20.0517
20.0475
20.0434
20.0393
20.0353
20.0314
20.0275
20.0236
20.0198
20.016
20.0122
20.0085
20.0048
20.0012
19.9976
19.9941
19.9905
19.987
19.9836
19.9802
19.9768
19.9734
19.9701
19.9668
19.9635
19.9602
19.957
19.9538
19.9507
19.9475
19.9444
19.9413
19.9382
19.9352
19.9321
19.9291
19.9261
19.9232
19.9202
19.9173
19.9144
19.9115
19.9086
19.9058
19.9029
19.9001
19.8973
19.8945
19.8917
19.889
19.8862
19.8835
19.8808
19.8781
19.8754
19.8728
19.8701
19.8675
19.8648
19.8622
19.8596
19.857
19.8545
19.8519
19.8494
19.8468
19.8443
19.8418
19.8393
19.8368
19.8343
19.8318
19.8293
19.8269
19.8244
19.822
19.8196
19.8172
19.8148
19.8124
19.81
19.8076
19.8053
19.8029
19.8005
19.7982
19.7959
19.7935
19.7912
19.7889
19.7866
19.7843
19.7821
19.7798
19.7775
19.7752
19.773
19.7707
19.7685
19.7663
19.7641
19.7618
19.7596
19.7574
19.7552
19.753
19.7509
19.7487
19.7465
19.7443
19.7422
19.74
19.7379
19.7358
19.7336
19.7315
19.7294
19.7273
19.7252
19.7231
19.721
19.7189
19.7168
19.7148
19.7127
19.7106
19.7086
19.7065
19.7045
19.7025
19.7004
19.6984
19.6964
19.6944
19.6924
19.6904
19.6884
19.6864
19.6845
19.6825
19.6805
19.6786
19.6766
19.6747
19.6728
19.6708
19.6689
19.667
19.6651
19.6632
19.6613
19.6594
19.6575
19.6556
19.6537
19.6519
19.65
19.6481
19.6463
19.6444
19.6426
19.6407
19.6389
19.6371
19.6352
19.6334
19.6316
19.6298
19.628
19.6262
19.6244
19.6226
19.6208
19.619
19.6172
19.6154
19.6136
19.6118
19.6101
19.6083
19.6065
19.6048
19.603
19.6012
19.5995
19.5977
19.596
19.5942
19.5925
19.5907
19.589
19.5873
19.5855
19.5838
19.582
19.5803
19.5786
19.5769
19.5751
19.5734
19.5717
19.57
19.5683
19.5665
19.5648
19.5631
19.5614
19.5597
19.558
19.5563
19.5546
19.5529
19.5512
19.5495
19.5478
19.5461
19.5444
19.5427
19.541
19.5393
19.5376
19.5359
19.5342
19.5325
19.5308
19.5291
19.5275
19.5258
19.5241
19.5224
19.5207
19.519
19.5173
19.5156
19.5139
19.5123
19.5106
19.5089
19.5072
19.5055
19.5038
19.5021
19.5004
19.4988
19.4971
19.4954
19.4937
19.492
19.4903
19.4886
19.4869
19.4853
19.4836
19.4819
19.4802
19.4785
19.4768
19.4751
19.4734
19.4717
19.4701
19.4684
19.4667
19.465
19.4633
19.4616
19.4599
19.4582
19.4566
19.4549
19.4532
19.4515
19.4498
19.4481
19.4464
19.4447
19.4431
19.4414
19.4397
19.438
19.4363
19.4346
19.4329
19.4312
19.4296
19.4279
19.4262
19.4245
19.4228
19.4211
19.4194
19.4178
19.4161
19.4144
19.4127
19.411
19.4093
19.4076
19.4059
19.4043
19.4026
19.4009
19.3992
19.3975
19.3958
19.3941
19.3924
19.3908
19.3891
19.3874
19.3857
19.384
19.3823
19.3806
19.3789
19.3773
19.3756
19.3739
19.3722
19.3705
19.3688
19.3671
19.3655
19.3638
19.3621
19.3604
19.3587
19.357
19.3553
19.3536
19.352
19.3503
19.3486
19.3469
19.3452
19.3435
19.3418
19.3402
19.3385
19.3368
19.3351
19.3334
19.3317
19.33
19.3284
19.3267
19.325
19.3233
19.3216
19.3199
19.3182
19.3165
19.3149
19.3132
19.3115
19.3098
19.3081
19.3064
19.3047
19.3031
19.3014
19.2997
19.298
19.2963
19.2946
19.2929
19.2913
19.2896
19.2879
19.2862
19.2845
19.2828
19.2811
19.2795
19.2778
19.2761
19.2744
19.2727
19.271
19.2693
19.2677
19.266
19.2643
19.2626
19.2609
19.2592
19.2575
19.2559
19.2542
19.2525
19.2508
19.2491
19.2474
19.2457
19.2441
19.2424
19.2407
19.239
19.2373
19.2356
19.2339
19.2323
19.2306
19.2289
19.2272
19.2255
19.2238
19.2221
19.2205
19.2188
19.2171
19.2154
19.2137
19.212
19.2103
19.2087
19.207
19.2053
19.2036
19.2019
19.2002
19.1985
19.1969
19.1952
19.1935
19.1918
19.1901
19.1884
19.1867
19.1851
19.1834
19.1817
19.18
19.1783
19.1766
19.175
19.1733
19.1716
19.1699
19.1682
19.1665
19.1648
19.1632
19.1615
19.1598
19.1581
19.1564
19.1547
19.153
19.1514
19.1497
19.148
19.1463
19.1446
19.1429
19.1413
19.1396
19.1379
19.1362
19.1345
19.1328
19.1311
19.1295
19.1278
19.1261
19.1244
19.1227
19.121
19.1194
19.1177
19.116
19.1143
19.1126
19.1109
19.1092
19.1076
19.1059
19.1042
19.1025
19.1008
19.0991
19.0975
19.0958
19.0941
19.0924
19.0907
19.089
19.0873
19.0857
19.084
19.0823
19.0806
19.0789
19.0772
19.0756
19.0739
19.0722
19.0705
19.0688
19.0671
19.0655
19.0638
19.0621
19.0604
19.0587
19.057
19.0554
19.0537
19.052
19.0503
19.0486
19.0469
19.0452
19.0436
19.0419
19.0402
19.0385
19.0368
19.0351
19.0335
19.0318
19.0301
19.0284
19.0267
19.025
19.0234
19.0217
19.02
19.0183
19.0166
19.0149
19.0133
19.0116
19.0099
19.0082
19.0065
19.0048
19.0032
19.0015
18.9998
18.9981
18.9964
18.9947
18.9931
18.9914
18.9897
18.988
18.9863
18.9846
18.983
18.9813
18.9796
18.9779
18.9762
18.9745
18.9729
18.9712
18.9695
18.9678
18.9661
18.9644
18.9628
18.9611
18.9594
18.9577
18.956
18.9543
18.9527
18.951
18.9493
18.9476
18.9459
18.9442
18.9426
18.9409
18.9392
18.9375
18.9358
18.9341
18.9325
18.9308
18.9291
18.9274
18.9257
18.924
18.9224
18.9207
18.919
18.9173
18.9156
18.9139
18.9123
18.9106
18.9089
18.9072
18.9055
18.9038
18.9022
18.9005
18.8988
18.8971
18.8954
18.8937
18.8921
18.8904
18.8887
18.887
18.8853
18.8837
18.882
18.8803
18.8786
18.8769
18.8752
18.8736
18.8719
18.8702
18.8685
18.8668
18.8651
18.8635
18.8618
18.8601
18.8584
18.8567
18.855
18.8534
18.8517
18.85
18.8483
18.8466
18.845
18.8433
18.8416
18.8399
18.8382
18.8365
18.8349
18.8332
18.8315
18.8298
18.8281
18.8264
18.8248
18.8231
18.8214
18.8197
18.818
18.8164
18.8147
18.813
18.8113
18.8096
18.8079
18.8063
18.8046
18.8029
18.8012
18.7995
18.7979
18.7962
18.7945
18.7928
18.7911
18.7894
18.7878
18.7861
18.7844
18.7827
18.781
18.7794
18.7777
18.776
18.7743
18.7726
18.7709
18.7693
18.7676
18.7659
18.7642
18.7625
18.7609
18.7592
18.7575
18.7558
18.7541
18.7524
18.7508
18.7491
18.7474
18.7457
18.744
18.7424
18.7407
18.739
18.7373
18.7356
18.7339
18.7323
18.7306
18.7289
18.7272
18.7255
18.7239
18.7222
18.7205
18.7188
18.7171
18.7155
18.7138
18.7121
18.7104
18.7087
18.707
18.7054
18.7037
18.702
18.7003
18.6986
18.697
18.6953
18.6936
18.6919
18.6902
18.6886
18.6869
18.6852
18.6835
18.6818
18.6801
18.6785
18.6768
18.6751
18.6734
18.6717
18.6701
18.6684
18.6667
18.665
18.6633
18.6617
18.66
18.6583
18.6566
18.6549
18.6533
18.6516
18.6499
18.6482
18.6465
18.6448
18.6432
18.6415
18.6398
18.6381
18.6364
18.6348
18.6331
18.6314
18.6297
18.628
18.6264
18.6247
18.623
18.6213
18.6196
18.618
18.6163
18.6146
18.6129
18.6112
18.6096
18.6079
18.6062
18.6062
22.0867
22.0867
20.5286
20.2729
20.2074
20.179
20.1622
20.1502
20.1407
20.1327
20.1256
20.1192
20.1133
20.1077
20.1023
20.0972
20.0922
20.0873
20.0826
20.078
20.0734
20.069
20.0646
20.0602
20.056
20.0517
20.0476
20.0435
20.0394
20.0354
20.0314
20.0275
20.0236
20.0198
20.016
20.0123
20.0086
20.0049
20.0012
19.9977
19.9941
19.9906
19.9871
19.9836
19.9802
19.9768
19.9734
19.9701
19.9668
19.9635
19.9603
19.957
19.9539
19.9507
19.9475
19.9444
19.9413
19.9382
19.9352
19.9322
19.9291
19.9262
19.9232
19.9202
19.9173
19.9144
19.9115
19.9086
19.9058
19.9029
19.9001
19.8973
19.8945
19.8918
19.889
19.8863
19.8835
19.8808
19.8781
19.8754
19.8728
19.8701
19.8675
19.8649
19.8622
19.8596
19.8571
19.8545
19.8519
19.8494
19.8468
19.8443
19.8418
19.8393
19.8368
19.8343
19.8318
19.8294
19.8269
19.8245
19.822
19.8196
19.8172
19.8148
19.8124
19.81
19.8076
19.8053
19.8029
19.8006
19.7982
19.7959
19.7936
19.7912
19.7889
19.7866
19.7843
19.7821
19.7798
19.7775
19.7753
19.773
19.7708
19.7685
19.7663
19.7641
19.7618
19.7596
19.7574
19.7552
19.753
19.7509
19.7487
19.7465
19.7444
19.7422
19.7401
19.7379
19.7358
19.7336
19.7315
19.7294
19.7273
19.7252
19.7231
19.721
19.7189
19.7168
19.7148
19.7127
19.7106
19.7086
19.7065
19.7045
19.7025
19.7004
19.6984
19.6964
19.6944
19.6924
19.6904
19.6884
19.6865
19.6845
19.6825
19.6806
19.6786
19.6766
19.6747
19.6728
19.6708
19.6689
19.667
19.6651
19.6632
19.6613
19.6594
19.6575
19.6556
19.6537
19.6519
19.65
19.6481
19.6463
19.6444
19.6426
19.6407
19.6389
19.6371
19.6352
19.6334
19.6316
19.6298
19.628
19.6262
19.6244
19.6226
19.6208
19.619
19.6172
19.6154
19.6136
19.6118
19.6101
19.6083
19.6065
19.6048
19.603
19.6012
19.5995
19.5977
19.596
19.5942
19.5925
19.5907
19.589
19.5873
19.5855
19.5838
19.5821
19.5803
19.5786
19.5769
19.5751
19.5734
19.5717
19.57
19.5683
19.5666
19.5648
19.5631
19.5614
19.5597
19.558
19.5563
19.5546
19.5529
19.5512
19.5495
19.5478
19.5461
19.5444
19.5427
19.541
19.5393
19.5376
19.5359
19.5342
19.5325
19.5308
19.5291
19.5275
19.5258
19.5241
19.5224
19.5207
19.519
19.5173
19.5156
19.5139
19.5123
19.5106
19.5089
19.5072
19.5055
19.5038
19.5021
19.5004
19.4988
19.4971
19.4954
19.4937
19.492
19.4903
19.4886
19.4869
19.4853
19.4836
19.4819
19.4802
19.4785
19.4768
19.4751
19.4734
19.4718
19.4701
19.4684
19.4667
19.465
19.4633
19.4616
19.4599
19.4583
19.4566
19.4549
19.4532
19.4515
19.4498
19.4481
19.4464
19.4448
19.4431
19.4414
19.4397
19.438
19.4363
19.4346
19.4329
19.4313
19.4296
19.4279
19.4262
19.4245
19.4228
19.4211
19.4194
19.4178
19.4161
19.4144
19.4127
19.411
19.4093
19.4076
19.4059
19.4043
19.4026
19.4009
19.3992
19.3975
19.3958
19.3941
19.3924
19.3908
19.3891
19.3874
19.3857
19.384
19.3823
19.3806
19.379
19.3773
19.3756
19.3739
19.3722
19.3705
19.3688
19.3671
19.3655
19.3638
19.3621
19.3604
19.3587
19.357
19.3553
19.3537
19.352
19.3503
19.3486
19.3469
19.3452
19.3435
19.3418
19.3402
19.3385
19.3368
19.3351
19.3334
19.3317
19.33
19.3284
19.3267
19.325
19.3233
19.3216
19.3199
19.3182
19.3166
19.3149
19.3132
19.3115
19.3098
19.3081
19.3064
19.3047
19.3031
19.3014
19.2997
19.298
19.2963
19.2946
19.2929
19.2913
19.2896
19.2879
19.2862
19.2845
19.2828
19.2811
19.2795
19.2778
19.2761
19.2744
19.2727
19.271
19.2693
19.2677
19.266
19.2643
19.2626
19.2609
19.2592
19.2575
19.2559
19.2542
19.2525
19.2508
19.2491
19.2474
19.2457
19.2441
19.2424
19.2407
19.239
19.2373
19.2356
19.2339
19.2323
19.2306
19.2289
19.2272
19.2255
19.2238
19.2221
19.2205
19.2188
19.2171
19.2154
19.2137
19.212
19.2103
19.2087
19.207
19.2053
19.2036
19.2019
19.2002
19.1985
19.1969
19.1952
19.1935
19.1918
19.1901
19.1884
19.1868
19.1851
19.1834
19.1817
19.18
19.1783
19.1766
19.175
19.1733
19.1716
19.1699
19.1682
19.1665
19.1648
19.1632
19.1615
19.1598
19.1581
19.1564
19.1547
19.1531
19.1514
19.1497
19.148
19.1463
19.1446
19.1429
19.1413
19.1396
19.1379
19.1362
19.1345
19.1328
19.1312
19.1295
19.1278
19.1261
19.1244
19.1227
19.121
19.1194
19.1177
19.116
19.1143
19.1126
19.1109
19.1093
19.1076
19.1059
19.1042
19.1025
19.1008
19.0991
19.0975
19.0958
19.0941
19.0924
19.0907
19.089
19.0874
19.0857
19.084
19.0823
19.0806
19.0789
19.0772
19.0756
19.0739
19.0722
19.0705
19.0688
19.0671
19.0655
19.0638
19.0621
19.0604
19.0587
19.057
19.0554
19.0537
19.052
19.0503
19.0486
19.0469
19.0453
19.0436
19.0419
19.0402
19.0385
19.0368
19.0351
19.0335
19.0318
19.0301
19.0284
19.0267
19.025
19.0234
19.0217
19.02
19.0183
19.0166
19.0149
19.0133
19.0116
19.0099
19.0082
19.0065
19.0048
19.0032
19.0015
18.9998
18.9981
18.9964
18.9947
18.9931
18.9914
18.9897
18.988
18.9863
18.9846
18.983
18.9813
18.9796
18.9779
18.9762
18.9745
18.9729
18.9712
18.9695
18.9678
18.9661
18.9644
18.9628
18.9611
18.9594
18.9577
18.956
18.9543
18.9527
18.951
18.9493
18.9476
18.9459
18.9442
18.9426
18.9409
18.9392
18.9375
18.9358
18.9341
18.9325
18.9308
18.9291
18.9274
18.9257
18.924
18.9224
18.9207
18.919
18.9173
18.9156
18.9139
18.9123
18.9106
18.9089
18.9072
18.9055
18.9038
18.9022
18.9005
18.8988
18.8971
18.8954
18.8938
18.8921
18.8904
18.8887
18.887
18.8853
18.8837
18.882
18.8803
18.8786
18.8769
18.8752
18.8736
18.8719
18.8702
18.8685
18.8668
18.8651
18.8635
18.8618
18.8601
18.8584
18.8567
18.8551
18.8534
18.8517
18.85
18.8483
18.8466
18.845
18.8433
18.8416
18.8399
18.8382
18.8365
18.8349
18.8332
18.8315
18.8298
18.8281
18.8265
18.8248
18.8231
18.8214
18.8197
18.818
18.8164
18.8147
18.813
18.8113
18.8096
18.808
18.8063
18.8046
18.8029
18.8012
18.7995
18.7979
18.7962
18.7945
18.7928
18.7911
18.7894
18.7878
18.7861
18.7844
18.7827
18.781
18.7794
18.7777
18.776
18.7743
18.7726
18.7709
18.7693
18.7676
18.7659
18.7642
18.7625
18.7609
18.7592
18.7575
18.7558
18.7541
18.7525
18.7508
18.7491
18.7474
18.7457
18.744
18.7424
18.7407
18.739
18.7373
18.7356
18.734
18.7323
18.7306
18.7289
18.7272
18.7255
18.7239
18.7222
18.7205
18.7188
18.7171
18.7155
18.7138
18.7121
18.7104
18.7087
18.7071
18.7054
18.7037
18.702
18.7003
18.6986
18.697
18.6953
18.6936
18.6919
18.6902
18.6886
18.6869
18.6852
18.6835
18.6818
18.6802
18.6785
18.6768
18.6751
18.6734
18.6717
18.6701
18.6684
18.6667
18.665
18.6633
18.6617
18.66
18.6583
18.6566
18.6549
18.6533
18.6516
18.6499
18.6482
18.6465
18.6449
18.6432
18.6415
18.6398
18.6381
18.6365
18.6348
18.6331
18.6314
18.6297
18.628
18.6264
18.6247
18.623
18.6213
18.6196
18.618
18.6163
18.6146
18.6129
18.6112
18.6096
18.6079
18.6062
18.6062
21.3972
21.3972
20.5128
20.2796
20.211
20.1811
20.1635
20.1511
20.1414
20.1332
20.126
20.1195
20.1135
20.1079
20.1025
20.0974
20.0924
20.0875
20.0827
20.0781
20.0735
20.0691
20.0647
20.0603
20.056
20.0518
20.0476
20.0435
20.0395
20.0354
20.0315
20.0276
20.0237
20.0198
20.016
20.0123
20.0086
20.0049
20.0013
19.9977
19.9941
19.9906
19.9871
19.9836
19.9802
19.9768
19.9735
19.9701
19.9668
19.9635
19.9603
19.9571
19.9539
19.9507
19.9476
19.9444
19.9413
19.9383
19.9352
19.9322
19.9292
19.9262
19.9232
19.9203
19.9173
19.9144
19.9115
19.9086
19.9058
19.903
19.9001
19.8973
19.8945
19.8918
19.889
19.8863
19.8835
19.8808
19.8781
19.8755
19.8728
19.8701
19.8675
19.8649
19.8623
19.8597
19.8571
19.8545
19.8519
19.8494
19.8468
19.8443
19.8418
19.8393
19.8368
19.8343
19.8318
19.8294
19.8269
19.8245
19.822
19.8196
19.8172
19.8148
19.8124
19.81
19.8076
19.8053
19.8029
19.8006
19.7982
19.7959
19.7936
19.7912
19.7889
19.7866
19.7843
19.7821
19.7798
19.7775
19.7753
19.773
19.7708
19.7685
19.7663
19.7641
19.7618
19.7596