# vtk DataFile Version 2.0
FlowField
ASCII
DATASET STRUCTURED_GRID
DIMENSIONS 800 1 200
POINTS 160000 float
0 0 0
0.04 0 0
0.08 0 0
0.12 0 0
0.16 0 0
0.2 0 0
0.24 0 0
0.28 0 0
0.32 0 0
0.36 0 0
0.4 0 0
0.44 0 0
0.48 0 0
0.52 0 0
0.56 0 0
0.6 0 0
0.64 0 0
0.68 0 0
0.72 0 0
0.76 0 0
0.8 0 0
0.84 0 0
0.88 0 0
0.92 0 0
0.96 0 0
1 0 0
1.04 0 0
1.08 0 0
1.12 0 0
1.16 0 0
1.2 0 0
1.24 0 0
1.28 0 0
1.32 0 0
1.36 0 0
1.4 0 0
1.44 0 0
1.48 0 0
1.52 0 0
1.56 0 0
1.6 0 0
1.64 0 0
1.68 0 0
1.72 0 0
1.76 0 0
1.8 0 0
1.84 0 0
1.88 0 0
1.92 0 0
1.96 0 0
2 0 0
2.04 0 0
2.08 0 0
2.12 0 0
2.16 0 0
2.2 0 0
2.24 0 0
2.28 0 0
2.32 0 0
2.36 0 0
2.4 0 0
2.44 0 0
2.48 0 0
2.52 0 0
2.56 0 0
2.6 0 0
2.64 0 0
2.68 0 0
2.72 0 0
2.76 0 0
2.8 0 0
2.84 0 0
2.88 0 0
2.92 0 0
2.96 0 0
3 0 0
3.04 0 0
3.08 0 0
3.12 0 0
3.16 0 0
3.2 0 0
3.24 0 0
3.28 0 0
3.32 0 0
3.36 0 0
3.4 0 0
3.44 0 0
3.48 0 0
3.52 0 0
3.56 0 0
3.6 0 0
3.64 0 0
3.68 0 0
3.72 0 0
3.76 0 0
3.8 0 0
3.84 0 0
3.88 0 0
3.92 0 0
3.96 0 0
4 0 0
4.04 0 0
4.08 0 0
4.12 0 0
4.16 0 0
4.2 0 0
4.24 0 0
4.28 0 0
4.32 0 0
4.36 0 0
4.4 0 0
4.44 0 0
4.48 0 0
4.52 0 0
4.56 0 0
4.6 0 0
4.64 0 0
4.68 0 0
4.72 0 0
4.76 0 0
4.8 0 0
4.84 0 0
4.88 0 0
4.92 0 0
4.96 0 0
5 0 0
5.04 0 0
5.08 0 0
5.12 0 0
5.16 0 0
5.2 0 0
5.24 0 0
5.28 0 0
5.32 0 0
5.36 0 0
5.4 0 0
5.44 0 0
5.48 0 0
5.52 0 0
5.56 0 0
5.6 0 0
5.64 0 0
5.68 0 0
5.72 0 0
5.76 0 0
5.8 0 0
5.84 0 0
5.88 0 0
5.92 0 0
5.96 0 0
6 0 0
6.04 0 0
6.08 0 0
6.12 0 0
6.16 0 0
6.2 0 0
6.24 0 0
6.28 0 0
6.32 0 0
6.36 0 0
6.4 0 0
6.44 0 0
6.48 0 0
6.52 0 0
6.56 0 0
6.6 0 0
6.64 0 0
6.68 0 0
6.72 0 0
6.76 0 0
6.8 0 0
6.84 0 0
6.88 0 0
6.92 0 0
6.96 0 0
7 0 0
7.04 0 0
7.08 0 0
7.12 0 0
7.16 0 0
7.2 0 0
7.24 0 0
7.28 0 0
7.32 0 0
7.36 0 0
7.4 0 0
7.44 0 0
7.48 0 0
7.52 0 0
7.56 0 0
7.6 0 0
7.64 0 0
7.68 0 0
7.72 0 0
7.76 0 0
7.8 0 0
7.84 0 0
7.88 0 0
7.92 0 0
7.96 0 0
8 0 0
8.04 0 0
8.08 0 0
8.12 0 0
8.16 0 0
8.2 0 0
8.24 0 0
8.28 0 0
8.32 0 0
8.36 0 0
8.4 0 0
8.44 0 0
8.48 0 0
8.52 0 0
8.56 0 0
8.6 0 0
8.64 0 0
8.68 0 0
8.72 0 0
8.76 0 0
8.8 0 0
8.84 0 0
8.88 0 0
8.92 0 0
8.96 0 0
9 0 0
9.04 0 0
9.08 0 0
9.12 0 0
9.16 0 0
9.2 0 0
9.24 0 0
9.28 0 0
9.32 0 0
9.36 0 0
9.4 0 0
9.44 0 0
9.48 0 0
9.52 0 0
9.56 0 0
9.6 0 0
9.64 0 0
9.68 0 0
9.72 0 0
9.76 0 0
9.8 0 0
9.84 0 0
9.88 0 0
9.92 0 0
9.96 0 0
10 0 0
10.04 0 0
10.08 0 0
10.12 0 0
10.16 0 0
10.2 0 0
10.24 0 0
10.28 0 0
10.32 0 0
10.36 0 0
10.4 0 0
10.44 0 0
10.48 0 0
10.52 0 0
10.56 0 0
10.6 0 0
10.64 0 0
10.68 0 0
10.72 0 0
10.76 0 0
10.8 0 0
10.84 0 0
10.88 0 0
10.92 0 0
10.96 0 0
11 0 0
11.04 0 0
11.08 0 0
11.12 0 0
11.16 0 0
11.2 0 0
11.24 0 0
11.28 0 0
11.32 0 0
11.36 0 0
11.4 0 0
11.44 0 0
11.48 0 0
11.52 0 0
11.56 0 0
11.6 0 0
11.64 0 0
11.68 0 0
11.72 0 0
11.76 0 0
11.8 0 0
11.84 0 0
11.88 0 0
11.92 0 0
11.96 0 0
12 0 0
12.04 0 0
12.08 0 0
12.12 0 0
12.16 0 0
12.2 0 0
12.24 0 0
12.28 0 0
12.32 0 0
12.36 0 0
12.4 0 0
12.44 0 0
12.48 0 0
12.52 0 0
12.56 0 0
12.6 0 0
12.64 0 0
12.68 0 0
12.72 0 0
12.76 0 0
12.8 0 0
12.84 0 0
12.88 0 0
12.92 0 0
12.96 0 0
13 0 0
13.04 0 0
13.08 0 0
13.12 0 0
13.16 0 0
13.2 0 0
13.24 0 0
13.28 0 0
13.32 0 0
13.36 0 0
13.4 0 0
13.44 0 0
13.48 0 0
13.52 0 0
13.56 0 0
13.6 0 0
13.64 0 0
13.68 0 0
13.72 0 0
13.76 0 0
13.8 0 0
13.84 0 0
13.88 0 0
13.92 0 0
13.96 0 0
14 0 0
14.04 0 0
14.08 0 0
14.12 0 0
14.16 0 0
14.2 0 0
14.24 0 0
14.28 0 0
14.32 0 0
14.36 0 0
14.4 0 0
14.44 0 0
14.48 0 0
14.52 0 0
14.56 0 0
14.6 0 0
14.64 0 0
14.68 0 0
14.72 0 0
14.76 0 0
14.8 0 0
14.84 0 0
14.88 0 0
14.92 0 0
14.96 0 0
15 0 0
15.04 0 0
15.08 0 0
15.12 0 0
15.16 0 0
15.2 0 0
15.24 0 0
15.28 0 0
15.32 0 0
15.36 0 0
15.4 0 0
15.44 0 0
15.48 0 0
15.52 0 0
15.56 0 0
15.6 0 0
15.64 0 0
15.68 0 0
15.72 0 0
15.76 0 0
15.8 0 0
15.84 0 0
15.88 0 0
15.92 0 0
15.96 0 0
16 0 0
16.04 0 0
16.08 0 0
16.12 0 0
16.16 0 0
16.2 0 0
16.24 0 0
16.28 0 0
16.32 0 0
16.36 0 0
16.4 0 0
16.44 0 0
16.48 0 0
16.52 0 0
16.56 0 0
16.6 0 0
16.64 0 0
16.68 0 0
16.72 0 0
16.76 0 0
16.8 0 0
16.84 0 0
16.88 0 0
16.92 0 0
16.96 0 0
17 0 0
17.04 0 0
17.08 0 0
17.12 0 0
17.16 0 0
17.2 0 0
17.24 0 0
17.28 0 0
17.32 0 0
17.36 0 0
17.4 0 0
17.44 0 0
17.48 0 0
17.52 0 0
17.56 0 0
17.6 0 0
17.64 0 0
17.68 0 0
17.72 0 0
17.76 0 0
17.8 0 0
17.84 0 0
17.88 0 0
17.92 0 0
17.96 0 0
18 0 0
18.04 0 0
18.08 0 0
18.12 0 0
18.16 0 0
18.2 0 0
18.24 0 0
18.28 0 0
18.32 0 0
18.36 0 0
18.4 0 0
18.44 0 0
18.48 0 0
18.52 0 0
18.56 0 0
18.6 0 0
18.64 0 0
18.68 0 0
18.72 0 0
18.76 0 0
18.8 0 0
18.84 0 0
18.88 0 0
18.92 0 0
18.96 0 0
19 0 0
19.04 0 0
19.08 0 0
19.12 0 0
19.16 0 0
19.2 0 0
19.24 0 0
19.28 0 0
19.32 0 0
19.36 0 0
19.4 0 0
19.44 0 0
19.48 0 0
19.52 0 0
19.56 0 0
19.6 0 0
19.64 0 0
19.68 0 0
19.72 0 0
19.76 0 0
19.8 0 0
19.84 0 0
19.88 0 0
19.92 0 0
19.96 0 0
20 0 0
20.04 0 0
20.08 0 0
20.12 0 0
20.16 0 0
20.2 0 0
20.24 0 0
20.28 0 0
20.32 0 0
20.36 0 0
20.4 0 0
20.44 0 0
20.48 0 0
20.52 0 0
20.56 0 0
20.6 0 0
20.64 0 0
20.68 0 0
20.72 0 0
20.76 0 0
20.8 0 0
20.84 0 0
20.88 0 0
20.92 0 0
20.96 0 0
21 0 0
21.04 0 0
21.08 0 0
21.12 0 0
21.16 0 0
21.2 0 0
21.24 0 0
21.28 0 0
21.32 0 0
21.36 0 0
21.4 0 0
21.44 0 0
21.48 0 0
21.52 0 0
21.56 0 0
21.6 0 0
21.64 0 0
21.68 0 0
21.72 0 0
21.76 0 0
21.8 0 0
21.84 0 0
21.88 0 0
21.92 0 0
21.96 0 0
22 0 0
22.04 0 0
22.08 0 0
22.12 0 0
22.16 0 0
22.2 0 0
22.24 0 0
22.28 0 0
22.32 0 0
22.36 0 0
22.4 0 0
22.44 0 0
22.48 0 0
22.52 0 0
22.56 0 0
22.6 0 0
22.64 0 0
22.68 0 0
22.72 0 0
22.76 0 0
22.8 0 0
22.84 0 0
22.88 0 0
22.92 0 0
22.96 0 0
23 0 0
23.04 0 0
23.08 0 0
23.12 0 0
23.16 0 0
23.2 0 0
23.24 0 0
23.28 0 0
23.32 0 0
23.36 0 0
23.4 0 0
23.44 0 0
23.48 0 0
23.52 0 0
23.56 0 0
23.6 0 0
23.64 0 0
23.68 0 0
23.72 0 0
23.76 0 0
23.8 0 0
23.84 0 0
23.88 0 0
23.92 0 0
23.96 0 0
24 0 0
24.04 0 0
24.08 0 0
24.12 0 0
24.16 0 0
24.2 0 0
24.24 0 0
24.28 0 0
24.32 0 0
24.36 0 0
24.4 0 0
24.44 0 0
24.48 0 0
24.52 0 0
24.56 0 0
24.6 0 0
24.64 0 0
24.68 0 0
24.72 0 0
24.76 0 0
24.8 0 0
24.84 0 0
24.88 0 0
24.92 0 0
24.96 0 0
25 0 0
25.04 0 0
25.08 0 0
25.12 0 0
25.16 0 0
25.2 0 0
25.24 0 0
25.28 0 0
25.32 0 0
25.36 0 0
25.4 0 0
25.44 0 0
25.48 0 0
25.52 0 0
25.56 0 0
25.6 0 0
25.64 0 0
25.68 0 0
25.72 0 0
25.76 0 0
25.8 0 0
25.84 0 0
25.88 0 0
25.92 0 0
25.96 0 0
26 0 0
26.04 0 0
26.08 0 0
26.12 0 0
26.16 0 0
26.2 0 0
26.24 0 0
26.28 0 0
26.32 0 0
26.36 0 0
26.4 0 0
26.44 0 0
26.48 0 0
26.52 0 0
26.56 0 0
26.6 0 0
26.64 0 0
26.68 0 0
26.72 0 0
26.76 0 0
26.8 0 0
26.84 0 0
26.88 0 0
26.92 0 0
26.96 0 0
27 0 0
27.04 0 0
27.08 0 0
27.12 0 0
27.16 0 0
27.2 0 0
27.24 0 0
27.28 0 0
27.32 0 0
27.36 0 0
27.4 0 0
27.44 0 0
27.48 0 0
27.52 0 0
27.56 0 0
27.6 0 0
27.64 0 0
27.68 0 0
27.72 0 0
27.76 0 0
27.8 0 0
27.84 0 0
27.88 0 0
27.92 0 0
27.96 0 0
28 0 0
28.04 0 0
28.08 0 0
28.12 0 0
28.16 0 0
28.2 0 0
28.24 0 0
28.28 0 0
28.32 0 0
28.36 0 0
28.4 0 0
28.44 0 0
28.48 0 0
28.52 0 0
28.56 0 0
28.6 0 0
28.64 0 0
28.68 0 0
28.72 0 0
28.76 0 0
28.8 0 0
28.84 0 0
28.88 0 0
28.92 0 0
28.96 0 0
29 0 0
29.04 0 0
29.08 0 0
29.12 0 0
29.16 0 0
29.2 0 0
29.24 0 0
29.28 0 0
29.32 0 0
29.36 0 0
29.4 0 0
29.44 0 0
29.48 0 0
29.52 0 0
29.56 0 0
29.6 0 0
29.64 0 0
29.68 0 0
29.72 0 0
29.76 0 0
29.8 0 0
29.84 0 0
29.88 0 0
29.92 0 0
29.96 0 0
30 0 0
30.04 0 0
30.08 0 0
30.12 0 0
30.16 0 0
30.2 0 0
30.24 0 0
30.28 0 0
30.32 0 0
30.36 0 0
30.4 0 0
30.44 0 0
30.48 0 0
30.52 0 0
30.56 0 0
30.6 0 0
30.64 0 0
30.68 0 0
30.72 0 0
30.76 0 0
30.8 0 0
30.84 0 0
30.88 0 0
30.92 0 0
30.96 0 0
31 0 0
31.04 0 0
31.08 0 0
31.12 0 0
31.16 0 0
31.2 0 0
31.24 0 0
31.28 0 0
31.32 0 0
31.36 0 0
31.4 0 0
31.44 0 0
31.48 0 0
31.52 0 0
31.56 0 0
31.6 0 0
31.64 0 0
31.68 0 0
31.72 0 0
31.76 0 0
31.8 0 0
31.84 0 0
31.88 0 0
31.92 0 0
31.96 0 0
0 0.005 0
0.04 0.005 0
0.08 0.005 0
0.12 0.005 0
0.16 0.005 0
0.2 0.005 0
0.24 0.005 0
0.28 0.005 0
0.32 0.005 0
0.36 0.005 0
0.4 0.005 0
0.44 0.005 0
0.48 0.005 0
0.52 0.005 0
0.56 0.005 0
0.6 0.005 0
0.64 0.005 0
0.68 0.005 0
0.72 0.005 0
0.76 0.005 0
0.8 0.005 0
0.84 0.005 0
0.88 0.005 0
0.92 0.005 0
0.96 0.005 0
1 0.005 0
1.04 0.005 0
1.08 0.005 0
1.12 0.005 0
1.16 0.005 0
1.2 0.005 0
1.24 0.005 0
1.28 0.005 0
1.32 0.005 0
1.36 0.005 0
1.4 0.005 0
1.44 0.005 0
1.48 0.005 0
1.52 0.005 0
1.56 0.005 0
1.6 0.005 0
1.64 0.005 0
1.68 0.005 0
1.72 0.005 0
1.76 0.005 0
1.8 0.005 0
1.84 0.005 0
1.88 0.005 0
1.92 0.005 0
1.96 0.005 0
2 0.005 0
2.04 0.005 0
2.08 0.005 0
2.12 0.005 0
2.16 0.005 0
2.2 0.005 0
2.24 0.005 0
2.28 0.005 0
2.32 0.005 0
2.36 0.005 0
2.4 0.005 0
2.44 0.005 0
2.48 0.005 0
2.52 0.005 0
2.56 0.005 0
2.6 0.005 0
2.64 0.005 0
2.68 0.005 0
2.72 0.005 0
2.76 0.005 0
2.8 0.005 0
2.84 0.005 0
2.88 0.005 0
2.92 0.005 0
2.96 0.005 0
3 0.005 0
3.04 0.005 0
3.08 0.005 0
3.12 0.005 0
3.16 0.005 0
3.2 0.005 0
3.24 0.005 0
3.28 0.005 0
3.32 0.005 0
3.36 0.005 0
3.4 0.005 0
3.44 0.005 0
3.48 0.005 0
3.52 0.005 0
3.56 0.005 0
3.6 0.005 0
3.64 0.005 0
3.68 0.005 0
3.72 0.005 0
3.76 0.005 0
3.8 0.005 0
3.84 0.005 0
3.88 0.005 0
3.92 0.005 0
3.96 0.005 0
4 0.005 0
4.04 0.005 0
4.08 0.005 0
4.12 0.005 0
4.16 0.005 0
4.2 0.005 0
4.24 0.005 0
4.28 0.005 0
4.32 0.005 0
4.36 0.005 0
4.4 0.005 0
4.44 0.005 0
4.48 0.005 0
4.52 0.005 0
4.56 0.005 0
4.6 0.005 0
4.64 0.005 0
4.68 0.005 0
4.72 0.005 0
4.76 0.005 0
4.8 0.005 0
4.84 0.005 0
4.88 0.005 0
4.92 0.005 0
4.96 0.005 0
5 0.005 0
5.04 0.005 0
5.08 0.005 0
5.12 0.005 0
5.16 0.005 0
5.2 0.005 0
5.24 0.005 0
5.28 0.005 0
5.32 0.005 0
5.36 0.005 0
5.4 0.005 0
5.44 0.005 0
5.48 0.005 0
5.52 0.005 0
5.56 0.005 0
5.6 0.005 0
5.64 0.005 0
5.68 0.005 0
5.72 0.005 0
5.76 0.005 0
5.8 0.005 0
5.84 0.005 0
5.88 0.005 0
5.92 0.005 0
5.96 0.005 0
6 0.005 0
6.04 0.005 0
6.08 0.005 0
6.12 0.005 0
6.16 0.005 0
6.2 0.005 0
6.24 0.005 0
6.28 0.005 0
6.32 0.005 0
6.36 0.005 0
6.4 0.005 0
6.44 0.005 0
6.48 0.005 0
6.52 0.005 0
6.56 0.005 0
6.6 0.005 0
6.64 0.005 0
6.68 0.005 0
6.72 0.005 0
6.76 0.005 0
6.8 0.005 0
6.84 0.005 0
6.88 0.005 0
6.92 0.005 0
6.96 0.005 0
7 0.005 0
7.04 0.005 0
7.08 0.005 0
7.12 0.005 0
7.16 0.005 0
7.2 0.005 0
7.24 0.005 0
7.28 0.005 0
7.32 0.005 0
7.36 0.005 0
7.4 0.005 0
[...]
POINT_DATA 160000

SCALARS v float 1
LOOKUP_TABLE default
0
0
0
0
0
0
0
0
0
0
0
0
0
0
0
0
0
0
0
0
0
0
0
0
0
0
0
0
0
0
0
0
0
0
0
0
0
0
0
0
0
0
0
0
0
0
0
0
0
0
0
0
0
0
0
0
0
0
0
0
0
0
0
0
0
0
0
0
0
0
0
0
0
0
0
0
0
0
0
0
0
0
0
0
0
0
0
0
0
0
0
0
0
0
0
0
0
0
0
0
0
0
0
0
0
0
0
0
0
0
0
0
0
0
0
0
0
0
0
0
0
0
0
0
0
0
0
0
0
0
0
0
0
0
0
0
0
0
0
0
0
0
0
0
0
0
0
0
0
0
0
0
0
0
0
0
0
0
0
0
0
0
0
0
0
0
0
0
0
0
0
0
0
0
0
0
0
0
0
0
0
0
0
0
0
0
0
0
0
0
0
0
0
0
0
0
0
0
0
0
0
0
0
0
0
0
0
0
0
0
0
0
0
0
0
0
0
0
0
0
0
0
0
0
0
0
0
0
0
0
0
0
0
0
0
0
0
0
0
0
0
0
0
0
0
0
0
0
0
0
0
0
0
0
0
0
0
0
0
0
0
0
0
0
0
0
0
0
0
0
0
0
0
0
0
0
0
0
0
0
0
0
0
0
0
0
0
0
0
0
0
0
0
0
0
0
0
0
0
0
0
0
0
0
0
0
0
0
0
0
0
0
0
0
0
0
0
0
0
0
0
0
0
0
0
0
0
0
0
0
0
0
0
0
0
0
0
0
0
0
0
0
0
0
0
0
0
0
0
0
0
0
0
0
0
0
0
0
0
0
0
0
0
0
0
0
0
0
0
0
0
0
0
0
0
0
0
0
0
0
0
0
0
0
0
0
0
0
0
0
0
0
0
0
0
0
0
0
0
0
0
0
0
0
0
0
0
0
0
0
0
0
0
0
0
0
0
0
0
0
0
0
0
0
0
0
0
0
0
0
0
0
0
0
0
0
0
0
0
0
0
0
0
0
0
0
0
0
0
0
0
0
0
0
0
0
0
0
0
0
0
0
0
0
0
0
0
0
0
0
0
0
0
0
0
0
0
0
0
0
0
0
0
0
0
0
0
0
0
0
0
0
0
0
0
0
0
0
0
0
0
0
0
0
0
0
0
0
0
0
0
0
0
0
0
0
0
0
0
0
0
0
0
0
0
0
0
0
0
0
0
0
0
0
0
0
0
0
0
0
0
0
0
0
0
0
0
0
0
0
0
0
0
0
0
0
0
0
0
0
0
0
0
0
0
0
0
0
0
0
0
0
0
0
0
0
0
0
0
0
0
0
0
0
0
0
0
0
0
0
0
0
0
0
0
0
0
0
0
0
0
0
0
0
0
0
0
0
0
0
0
0
0
0
0
0
0
0
0
0
0
0
0
0
0
0
0
0
0
0
0
0
0
0
0
0
0
0
0
0
0
0
0
0
0
0
0
0
0
0
0
0
0
0
0
0
0
0
0
0
0
0
0
0
0
0
0
0
0
0
0
0
0
0
0
0
0
0
0
0
0
0
0
0
0
0
0
0
0
0
0
0
0
0
0
0
0
0
0
0
0
0
0
0
0
0
0
0
0
0
0
0
0
0
0
0
0
0
0
0
0
0
0
0
0
0
0
0
0
0
0
0
0
0
0
0
0
0
0
0
0
0
0
0
0
0
0
0
0
0
0
0
0
0
0
0
0
0
0
0
0
0
0
0
0
0
0
0
0
0
0
0
0
0
0
0
0
0
0
0
0
0
0
0
0
0
0
0
0
0
0
0
0
0
0
0
0
0
0
0
0
0
0.0374158
0.00938113
0.00346796
0.00176635
0.00108087
0.000737107
0.00053833
0.000411785
0.000325586
0.000263898
0.000218077
0.000183046
0.000155645
0.000133809
0.000116136
0.000101645
8.96261e-05
7.95582e-05
7.10484e-05
6.37965e-05
5.75698e-05
5.21856e-05
4.74992e-05
4.33946e-05
3.97782e-05
3.65742e-05
3.37204e-05
3.11655e-05
2.88674e-05
2.67909e-05
2.49065e-05
2.31896e-05
2.16194e-05
2.01783e-05
1.88513e-05
1.76255e-05
1.649e-05
1.54353e-05
1.44531e-05
1.35365e-05
1.2679e-05
1.18754e-05
1.11207e-05
1.04107e-05
9.7418e-06
9.1105e-06
8.51388e-06
7.94925e-06
7.4142e-06
6.9066e-06
6.42447e-06
5.96604e-06
5.5297e-06
5.11397e-06
4.71751e-06
4.33909e-06
3.97758e-06
3.63195e-06
3.30125e-06
2.98459e-06
2.68114e-06
2.39016e-06
2.11094e-06
1.84285e-06
1.58526e-06
1.33763e-06
1.09943e-06
8.7016e-07
6.49357e-07
4.36603e-07
2.31504e-07
3.36744e-08
-1.57229e-07
-3.41538e-07
-5.19576e-07
-6.91635e-07
-8.57981e-07
-1.01887e-06
-1.17455e-06
-1.32525e-06
-1.4712e-06
-1.61261e-06
-1.74965e-06
-1.88252e-06
-2.0114e-06
-2.13644e-06
-2.25779e-06
-2.37562e-06
-2.49005e-06
-2.60125e-06
-2.70932e-06
-2.81439e-06
-2.91657e-06
-3.01597e-06
-3.11269e-06
-3.20684e-06
-3.2985e-06
-3.38778e-06
-3.47476e-06
-3.55952e-06
-3.64213e-06
-3.72266e-06
-3.80122e-06
-3.87785e-06
-3.95261e-06
-4.02557e-06
-4.0968e-06
-4.16634e-06
-4.23427e-06
-4.30063e-06
-4.36547e-06
-4.42882e-06
-4.49076e-06
-4.55133e-06
-4.61055e-06
-4.66848e-06
-4.72516e-06
-4.78061e-06
-4.83489e-06
-4.88803e-06
-4.94006e-06
-4.99101e-06
-5.04092e-06
-5.08981e-06
-5.13771e-06
-5.18465e-06
-5.23067e-06
-5.27578e-06
-5.32001e-06
-5.36339e-06
-5.40595e-06
-5.44769e-06
-5.48865e-06
-5.52884e-06
-5.56829e-06
-5.60702e-06
-5.64504e-06
-5.68237e-06
-5.71903e-06
-5.75505e-06
-5.79044e-06
-5.82521e-06
-5.85937e-06
-5.89293e-06
-5.92592e-06
-5.95835e-06
-5.99024e-06
-6.02159e-06
-6.05243e-06
-6.08277e-06
-6.11262e-06
-6.14198e-06
-6.17086e-06
-6.19928e-06
-6.22724e-06
-6.25478e-06
-6.28188e-06
-6.30857e-06
-6.33484e-06
-6.36071e-06
-6.38618e-06
-6.41127e-06
-6.43599e-06
-6.46034e-06
-6.48433e-06
-6.50796e-06
-6.53126e-06
-6.55421e-06
-6.57683e-06
-6.59914e-06
-6.62113e-06
-6.6428e-06
-6.66416e-06
-6.68523e-06
-6.70601e-06
-6.72651e-06
-6.74671e-06
-6.76664e-06
-6.78631e-06
-6.80571e-06
-6.82485e-06
-6.84373e-06
-6.86236e-06
-6.88076e-06
-6.89891e-06
-6.91681e-06
-6.93448e-06
-6.95192e-06
-6.96915e-06
-6.98616e-06
-7.00295e-06
-7.01952e-06
-7.03589e-06
-7.05204e-06
-7.068e-06
-7.08377e-06
-7.09933e-06
-7.11471e-06
-7.12989e-06
-7.1449e-06
-7.15972e-06
-7.17435e-06
-7.18881e-06
-7.2031e-06
-7.21722e-06
-7.23117e-06
-7.24495e-06
-7.25857e-06
-7.27203e-06
-7.28533e-06
-7.29846e-06
-7.31145e-06
-7.32429e-06
-7.33699e-06
-7.34954e-06
-7.36195e-06
-7.37422e-06
-7.38633e-06
-7.39831e-06
-7.41015e-06
-7.42185e-06
-7.43342e-06
-7.44488e-06
-7.4562e-06
-7.46739e-06
-7.47846e-06
-7.4894e-06
-7.50022e-06
-7.51093e-06
-7.52152e-06
-7.53199e-06
-7.54234e-06
-7.55256e-06
-7.56268e-06
-7.5727e-06
-7.58262e-06
-7.59241e-06
-7.60209e-06
-7.61168e-06
-7.62117e-06
-7.63056e-06
-7.63983e-06
-7.649e-06
-7.65808e-06
-7.66707e-06
-7.67596e-06
-7.68475e-06
-7.69344e-06
-7.70205e-06
-7.71057e-06
-7.71899e-06
-7.72733e-06
-7.73556e-06
-7.74373e-06
-7.75181e-06
-7.75979e-06
-7.7677e-06
-7.77553e-06
-7.78326e-06
-7.79092e-06
-7.79849e-06
-7.80599e-06
-7.81341e-06
-7.82075e-06
-7.82802e-06
-7.83521e-06
-7.84232e-06
-7.84936e-06
-7.85634e-06
-7.86324e-06
-7.87006e-06
-7.87681e-06
-7.88349e-06
-7.89011e-06
-7.89666e-06
-7.90313e-06
-7.90955e-06
-7.91589e-06
-7.92217e-06
-7.92838e-06
-7.93453e-06
-7.94063e-06
-7.94665e-06
-7.95262e-06
-7.95853e-06
-7.96438e-06
-7.97015e-06
-7.97588e-06
-7.98154e-06
-7.98715e-06
-7.9927e-06
-7.9982e-06
-8.00364e-06
-8.00902e-06
-8.01435e-06
-8.01962e-06
-8.02484e-06
-8.03002e-06
-8.03514e-06
-8.04019e-06
-8.0452e-06
-8.05015e-06
-8.05506e-06
-8.05993e-06
-8.06474e-06
-8.0695e-06
-8.07421e-06
-8.07888e-06
-8.08349e-06
-8.08806e-06
-8.09258e-06
-8.09706e-06
-8.1015e-06
-8.10589e-06
-8.11023e-06
-8.11452e-06
-8.11879e-06
-8.123e-06
-8.12717e-06
-8.13129e-06
-8.13538e-06
-8.13943e-06
-8.14344e-06
-8.1474e-06
-8.15132e-06
-8.15522e-06
-8.15907e-06
-8.16287e-06
-8.16662e-06
-8.17036e-06
-8.17405e-06
-8.17771e-06
-8.18132e-06
-8.18489e-06
-8.18844e-06
-8.19195e-06
-8.19543e-06
-8.19887e-06
-8.20227e-06
-8.20565e-06
-8.20899e-06
-8.21229e-06
-8.21555e-06
-8.21879e-06
-8.22199e-06
-8.22517e-06
-8.22831e-06
-8.23141e-06
-8.23448e-06
-8.23753e-06
-8.24054e-06
-8.24352e-06
-8.24648e-06
-8.24942e-06
-8.25231e-06
-8.25517e-06
-8.258e-06
-8.26081e-06
-8.26359e-06
-8.26634e-06
-8.26907e-06
-8.27178e-06
-8.27445e-06
-8.27709e-06
-8.27971e-06
-8.28229e-06
-8.28484e-06
-8.28738e-06
-8.2899e-06
-8.29239e-06
-8.29484e-06
-8.29727e-06
-8.29969e-06
-8.30208e-06
-8.30445e-06
-8.3068e-06
-8.30911e-06
-8.3114e-06
-8.31366e-06
-8.31592e-06
-8.31815e-06
-8.32034e-06
-8.32251e-06
-8.32467e-06
-8.32682e-06
-8.32894e-06
-8.33103e-06
-8.33309e-06
-8.33514e-06
-8.33718e-06
-8.33918e-06
-8.34116e-06
-8.34313e-06
-8.34509e-06
-8.34703e-06
-8.34893e-06
-8.35082e-06
-8.35269e-06
-8.35454e-06
-8.35639e-06
-8.3582e-06
-8.35999e-06
-8.36177e-06
-8.36354e-06
-8.36528e-06
-8.367e-06
-8.36871e-06
-8.37041e-06
-8.37208e-06
-8.37373e-06
-8.37536e-06
-8.377e-06
-8.37862e-06
-8.38021e-06
-8.38178e-06
-8.38334e-06
-8.38488e-06
-8.38641e-06
-8.38792e-06
-8.38942e-06
-8.3909e-06
-8.39236e-06
-8.39381e-06
-8.39525e-06
-8.39667e-06
-8.39808e-06
-8.39948e-06
-8.40086e-06
-8.40223e-06
-8.40358e-06
-8.40492e-06
-8.40625e-06
-8.40756e-06
-8.40885e-06
-8.41013e-06
-8.41141e-06
-8.41268e-06
-8.41393e-06
-8.41516e-06
-8.41638e-06
-8.41758e-06
-8.41878e-06
-8.41997e-06
-8.42114e-06
-8.4223e-06
-8.42345e-06
-8.42459e-06
-8.4257e-06
-8.42682e-06
-8.42793e-06
-8.42902e-06
-8.4301e-06
-8.43116e-06
-8.43223e-06
-8.43328e-06
-8.43431e-06
-8.43533e-06
-8.43636e-06
-8.43737e-06
-8.43836e-06
-8.43934e-06
-8.44032e-06
-8.44129e-06
-8.44225e-06
-8.4432e-06
-8.44413e-06
-8.44506e-06
-8.44599e-06
-8.44689e-06
-8.44779e-06
-8.44868e-06
-8.44956e-06
-8.45043e-06
-8.4513e-06
-8.45216e-06
-8.45301e-06
-8.45384e-06
-8.45466e-06
-8.45548e-06
-8.4563e-06
-8.45712e-06
-8.45791e-06
-8.45869e-06
-8.45948e-06
-8.46025e-06
-8.46101e-06
-8.46176e-06
-8.46252e-06
-8.46326e-06
-8.46399e-06
-8.46472e-06
-8.46544e-06
-8.46615e-06
-8.46684e-06
-8.46754e-06
-8.46824e-06
-8.46892e-06
-8.4696e-06
-8.47027e-06
-8.47094e-06
-8.4716e-06
-8.47225e-06
-8.47288e-06
-8.47351e-06
-8.47414e-06
-8.47476e-06
-8.47537e-06
-8.47598e-06
-8.47659e-06
-8.4772e-06
-8.4778e-06
-8.47837e-06
-8.47896e-06
-8.47953e-06
-8.4801e-06
-8.48066e-06
-8.48122e-06
-8.48177e-06
-8.48231e-06
-8.48286e-06
-8.4834e-06
-8.48393e-06
-8.48445e-06
-8.48496e-06
-8.48548e-06
-8.48599e-06
-8.48649e-06
-8.48698e-06
-8.48747e-06
-8.48796e-06
-8.48844e-06
-8.48892e-06
-8.4894e-06
-8.48987e-06
-8.49033e-06
-8.49079e-06
-8.49124e-06
-8.49169e-06
-8.49213e-06
-8.49257e-06
-8.49301e-06
-8.49345e-06
-8.49388e-06
-8.4943e-06
-8.49471e-06
-8.49512e-06
-8.49554e-06
-8.49594e-06
-8.49634e-06
-8.49674e-06
-8.49714e-06
-8.49752e-06
-8.4979e-06
-8.49828e-06
-8.49866e-06
-8.49904e-06
-8.49941e-06
-8.49978e-06
-8.50013e-06
-8.50048e-06
-8.50084e-06
-8.5012e-06
-8.50155e-06
-8.5019e-06
-8.50224e-06
-8.50257e-06
-8.50291e-06
-8.50324e-06
-8.50357e-06
-8.50389e-06
-8.50421e-06
-8.50452e-06
-8.50483e-06
-8.50514e-06
-8.50545e-06
-8.50576e-06
-8.50607e-06
-8.50636e-06
-8.50665e-06
-8.50694e-06
-8.50723e-06
-8.50753e-06
-8.50781e-06
-8.50808e-06
-8.50836e-06
-8.50864e-06
-8.50891e-06
-8.50918e-06
-8.50945e-06
-8.50971e-06
-8.50997e-06
-8.51023e-06
-8.51049e-06
-8.51074e-06
-8.51099e-06
-8.51124e-06
-8.51148e-06
-8.51173e-06
-8.51197e-06
-8.5122e-06
-8.51244e-06
-8.51267e-06
-8.5129e-06
-8.51313e-06
-8.51336e-06
-8.51358e-06
-8.5138e-06
-8.51402e-06
-8.51424e-06
-8.51446e-06
-8.51467e-06
-8.51488e-06
-8.51509e-06
-8.5153e-06
-8.5155e-06
-8.5157e-06
-8.5159e-06
-8.5161e-06
-8.5163e-06
-8.51649e-06
-8.51667e-06
-8.51687e-06
-8.51706e-06
-8.51725e-06
-8.51743e-06
-8.51761e-06
-8.51778e-06
-8.51796e-06
-8.51814e-06
-8.51832e-06
-8.51849e-06
-8.51866e-06
-8.51883e-06
-8.519e-06
-8.51917e-06
-8.51933e-06
-8.51949e-06
-8.51965e-06
-8.51981e-06
-8.51997e-06
-8.52013e-06
-8.52029e-06
-8.52044e-06
-8.5206e-06
-8.52074e-06
-8.52088e-06
-8.52103e-06
-8.52118e-06
-8.52132e-06
-8.52146e-06
-8.52161e-06
-8.52175e-06
-8.52188e-06
-8.52202e-06
-8.52215e-06
-8.52228e-06
-8.52242e-06
-8.52256e-06
-8.52269e-06
-8.52281e-06
-8.52294e-06
-8.52306e-06
-8.52319e-06
-8.52331e-06
-8.52344e-06
-8.52356e-06
-8.52368e-06
-8.52379e-06
-8.52391e-06
-8.52402e-06
-8.52413e-06
-8.52426e-06
-8.52438e-06
-8.52449e-06
-8.52459e-06
-8.5247e-06
-8.52481e-06
-8.52492e-06
-8.52501e-06
-8.52511e-06
-8.52522e-06
-8.52533e-06
-8.52543e-06
-8.52552e-06
-8.52562e-06
-8.52573e-06
-8.52583e-06
-8.52592e-06
-8.52601e-06
-8.5261e-06
-8.5262e-06
-8.52629e-06
-8.52638e-06
-8.52648e-06
-8.52657e-06
-8.52666e-06
-8.52674e-06
-8.52682e-06
-8.52691e-06
-8.527e-06
-8.52709e-06
-8.52717e-06
-8.52725e-06
-8.52734e-06
-8.52743e-06
-8.5275e-06
-8.52758e-06
-8.52765e-06
-8.52774e-06
-8.52782e-06
-8.52789e-06
-8.52796e-06
-8.52804e-06
-8.52811e-06
-8.52818e-06
-8.52826e-06
-8.52833e-06
-8.5284e-06
-8.52847e-06
-8.52853e-06
-8.52859e-06
-8.52867e-06
-8.52875e-06
-8.5288e-06
-8.52886e-06
-8.52893e-06
-8.529e-06
-8.52907e-06
-8.52913e-06
-8.52919e-06
-8.52925e-06
-8.52931e-06
-8.52937e-06
-8.52943e-06
-8.52949e-06
-8.52955e-06
-8.52961e-06
-8.52966e-06
-8.52972e-06
-8.52979e-06
-8.52985e-06
-8.5299e-06
-8.52995e-06
-8.53001e-06
-8.53005e-06
-8.53011e-06
-8.53016e-06
-8.53021e-06
-8.53026e-06
-8.53031e-06
-8.53035e-06
-8.5304e-06
-8.53046e-06
-8.53051e-06
-8.53055e-06
-8.53061e-06
-8.53066e-06
-8.5307e-06
-8.53073e-06
-8.53078e-06
-8.53083e-06
-8.53088e-06
-8.53091e-06
-8.53094e-06
-8.53097e-06
-8.53101e-06
-8.53104e-06
-8.53106e-06
-8.53108e-06
-8.5311e-06
-8.53111e-06
-8.53111e-06
-8.53109e-06
-8.53105e-06
-8.53099e-06
-8.53091e-06
-8.5308e-06
-8.53066e-06
-8.53046e-06
-8.5302e-06
-8.52985e-06
-8.5294e-06
-8.52879e-06
-8.52806e-06
-8.52703e-06
-8.52586e-06
-8.52407e-06
-8.5222e-06
-8.51902e-06
-8.51617e-06
-8.51007e-06
-8.5063e-06
-8.49259e-06
-8.49181e-06
-8.44998e-06
-8.52198e-06
-6.02497e-06
-6.02497e-06
0
0
0.0966101
0.0320527
0.0130062
0.00682637
0.00423607
0.00291413
0.0021425
0.00164842
0.00131055
0.00106807
0.000887567
0.000749319
0.000641015
0.000554593
0.000484568
0.000427089
0.000379374
0.000339372
0.000305535
0.000276683
0.000251896
0.000230454
0.000211784
0.000195427
0.000181014
0.000168242
0.000156866
0.000146682
0.000137522
0.000129245
0.000121736
0.000114896
0.000108641
0.000102902
9.76184e-05
9.27392e-05
8.82205e-05
8.40243e-05
8.01179e-05
7.64727e-05
7.30639e-05
6.98696e-05
6.68707e-05
6.40502e-05
6.13931e-05
5.8886e-05
5.6517e-05
5.42754e-05
5.21517e-05
5.01372e-05
4.8224e-05
4.64052e-05
4.46741e-05
4.30251e-05
4.14526e-05
3.99519e-05
3.85184e-05
3.7148e-05
3.58368e-05
3.45814e-05
3.33786e-05
3.22252e-05
3.11185e-05
3.0056e-05
2.90351e-05
2.80538e-05
2.71099e-05
2.62014e-05
2.53265e-05
2.44836e-05
2.3671e-05
2.28873e-05
2.2131e-05
2.14009e-05
2.06956e-05
2.00141e-05
1.93552e-05
1.87179e-05
1.81013e-05
1.75044e-05
1.69264e-05
1.63664e-05
1.58236e-05
1.52974e-05
1.47871e-05
1.4292e-05
1.38114e-05
1.33448e-05
1.28916e-05
1.24513e-05
1.20234e-05
1.16074e-05
1.12029e-05
1.08093e-05
1.04264e-05
1.00536e-05
9.6907e-06
9.33725e-06
8.99292e-06
8.65739e-06
8.33035e-06
8.01151e-06
7.70055e-06
7.39722e-06
7.10128e-06
6.81245e-06
6.5305e-06
6.2552e-06
5.98633e-06
5.72367e-06
5.46705e-06
5.21626e-06
4.9711e-06
4.7314e-06
4.497e-06
4.26773e-06
4.04341e-06
3.82392e-06
3.6091e-06
3.39881e-06
3.19291e-06
2.99127e-06
2.79377e-06
2.6003e-06
2.41074e-06
2.22496e-06
2.04286e-06
1.86433e-06
1.68929e-06
1.51763e-06
1.34925e-06
1.18407e-06
1.02201e-06
8.6297e-07
7.06878e-07
5.53646e-07
4.03209e-07
2.55498e-07
1.10428e-07
-3.20686e-08
-1.72053e-07
-3.09583e-07
-4.44716e-07
-5.77515e-07
-7.08046e-07
-8.36373e-07
-9.62538e-07
-1.08659e-06
-1.2086e-06
-1.32861e-06
-1.44665e-06
-1.56277e-06
-1.67702e-06
-1.78945e-06
-1.9001e-06
-2.00901e-06
-2.11622e-06
-2.22176e-06
-2.32567e-06
-2.42799e-06
-2.52876e-06
-2.628e-06
-2.72577e-06
-2.82207e-06
-2.91695e-06
-3.01043e-06
-3.10255e-06
-3.19333e-06
-3.2828e-06
-3.37101e-06
-3.45794e-06
-3.54364e-06
-3.62814e-06
-3.71146e-06
-3.79363e-06
-3.87466e-06
-3.95457e-06
-4.03339e-06
-4.11115e-06
-4.18786e-06
-4.26354e-06
-4.3382e-06
-4.41187e-06
-4.48459e-06
-4.55634e-06
-4.62713e-06
-4.69701e-06
-4.76599e-06
-4.8341e-06
-4.90134e-06
-4.9677e-06
-5.03323e-06
-5.09793e-06
-5.16181e-06
-5.22491e-06
-5.28721e-06
-5.34875e-06
-5.40952e-06
-5.46955e-06
-5.52885e-06
-5.58742e-06
-5.64527e-06
-5.70243e-06
-5.75891e-06
-5.81471e-06
-5.86984e-06
-5.92432e-06
-5.97815e-06
-6.03135e-06
-6.08391e-06
-6.13585e-06
-6.1872e-06
-6.23796e-06
-6.28812e-06
-6.33771e-06
-6.38673e-06
-6.43518e-06
-6.48306e-06
-6.5304e-06
-6.5772e-06
-6.62347e-06
-6.66922e-06
-6.71446e-06
-6.7592e-06
-6.80342e-06
-6.84714e-06
-6.89038e-06
-6.93314e-06
-6.97544e-06
-7.01726e-06
-7.05861e-06
-7.0995e-06
-7.13994e-06
-7.17995e-06
-7.21953e-06
-7.25867e-06
-7.29737e-06
-7.33565e-06
-7.37353e-06
-7.411e-06
-7.44805e-06
-7.4847e-06
-7.52096e-06
-7.55684e-06
-7.59233e-06
-7.62743e-06
-7.66215e-06
-7.69651e-06
-7.73051e-06
-7.76415e-06
-7.79742e-06
-7.83034e-06
-7.86291e-06
-7.89514e-06
-7.92704e-06
-7.95858e-06
-7.9898e-06
-8.0207e-06
-8.05126e-06
-8.0815e-06
-8.11143e-06
-8.14104e-06
-8.17035e-06
-8.19935e-06
-8.22804e-06
-8.25643e-06
-8.28453e-06
-8.31235e-06
-8.33987e-06
-8.36711e-06
-8.39405e-06
-8.42072e-06
-8.44712e-06
-8.47325e-06
-8.4991e-06
-8.52468e-06
-8.55e-06
-8.57507e-06
-8.59987e-06
-8.62441e-06
-8.64871e-06
-8.67275e-06
-8.69655e-06
-8.72011e-06
-8.74343e-06
-8.7665e-06
-8.78933e-06
-8.81193e-06
-8.8343e-06
-8.85645e-06
-8.87836e-06
-8.90006e-06
-8.92153e-06
-8.94278e-06
-8.96382e-06
-8.98464e-06
-9.00525e-06
-9.02566e-06
-9.04585e-06
-9.06583e-06
-9.0856e-06
-9.10518e-06
-9.12456e-06
-9.14376e-06
-9.16275e-06
-9.18154e-06
-9.20014e-06
-9.21855e-06
-9.23678e-06
-9.25482e-06
-9.27269e-06
-9.29037e-06
-9.30787e-06
-9.3252e-06
-9.34234e-06
-9.35932e-06
-9.37613e-06
-9.39276e-06
-9.40922e-06
-9.42551e-06
-9.44165e-06
-9.45762e-06
-9.47343e-06
-9.48907e-06
-9.50457e-06
-9.51991e-06
-9.53509e-06
-9.5501e-06
-9.56497e-06
-9.57969e-06
-9.59427e-06
-9.6087e-06
-9.62297e-06
-9.6371e-06
-9.6511e-06
-9.66496e-06
-9.67867e-06
-9.69225e-06
-9.70568e-06
-9.71899e-06
-9.73216e-06
-9.74519e-06
-9.75809e-06
-9.77086e-06
-9.78351e-06
-9.79603e-06
-9.80841e-06
-9.82067e-06
-9.83281e-06
-9.84483e-06
-9.85673e-06
-9.8685e-06
-9.88017e-06
-9.89172e-06
-9.90314e-06
-9.91444e-06
-9.92564e-06
-9.93672e-06
-9.94769e-06
-9.95855e-06
-9.96931e-06
-9.97996e-06
-9.99049e-06
-1.00009e-05
-1.00112e-05
-1.00214e-05
-1.00316e-05
-1.00416e-05
-1.00515e-05
-1.00613e-05
-1.0071e-05
-1.00806e-05
-1.00902e-05
-1.00996e-05
-1.01089e-05
-1.01182e-05
-1.01273e-05
-1.01363e-05
-1.01453e-05
-1.01542e-05
-1.01629e-05
-1.01716e-05
-1.01802e-05
-1.01887e-05
-1.01972e-05
-1.02055e-05
-1.02138e-05
-1.02219e-05
-1.023e-05
-1.0238e-05
-1.0246e-05
-1.02538e-05
-1.02616e-05
-1.02693e-05
-1.02769e-05
-1.02844e-05
-1.02919e-05
-1.02993e-05
-1.03066e-05
-1.03138e-05
-1.0321e-05
-1.03281e-05
-1.03351e-05
-1.03421e-05
-1.03489e-05
-1.03557e-05
-1.03625e-05
-1.03692e-05
-1.03758e-05
-1.03823e-05
-1.03888e-05
-1.03952e-05
-1.04015e-05
-1.04078e-05
-1.0414e-05
-1.04202e-05
-1.04263e-05
-1.04323e-05
-1.04383e-05
-1.04442e-05
-1.045e-05
-1.04558e-05
-1.04615e-05
-1.04672e-05
-1.04728e-05
-1.04784e-05
-1.04839e-05
-1.04893e-05
-1.04947e-05
-1.05001e-05
-1.05053e-05
-1.05106e-05
-1.05157e-05
-1.05209e-05
-1.05259e-05
-1.0531e-05
-1.05359e-05
-1.05409e-05
-1.05457e-05
-1.05505e-05
-1.05553e-05
-1.056e-05
-1.05647e-05
-1.05693e-05
-1.05739e-05
-1.05784e-05
-1.05829e-05
-1.05874e-05
-1.05918e-05
-1.05961e-05
-1.06004e-05
-1.06047e-05
-1.06089e-05
-1.06131e-05
-1.06172e-05
-1.06213e-05
-1.06254e-05
-1.06294e-05
-1.06334e-05
-1.06373e-05
-1.06412e-05
-1.0645e-05
-1.06489e-05
-1.06526e-05
-1.06564e-05
-1.06601e-05
-1.06637e-05
-1.06674e-05
-1.06709e-05
-1.06745e-05
-1.0678e-05
-1.06815e-05
-1.06849e-05
-1.06883e-05
-1.06917e-05
-1.06951e-05
-1.06983e-05
-1.07016e-05
-1.07049e-05
-1.07081e-05
-1.07113e-05
-1.07144e-05
-1.07175e-05
-1.07206e-05
-1.07236e-05
-1.07266e-05
-1.07296e-05
-1.07326e-05
-1.07355e-05
-1.07384e-05
-1.07413e-05
-1.07441e-05
-1.07469e-05
-1.07497e-05
-1.07524e-05
-1.07552e-05
-1.07579e-05
-1.07605e-05
-1.07632e-05
-1.07658e-05
-1.07684e-05
-1.07709e-05
-1.07735e-05
-1.0776e-05
-1.07784e-05
-1.07809e-05
-1.07833e-05
-1.07857e-05
-1.07881e-05
-1.07905e-05
-1.07928e-05
-1.07951e-05
-1.07974e-05
-1.07997e-05
-1.08019e-05
-1.08042e-05
-1.08064e-05
-1.08085e-05
-1.08107e-05
-1.08128e-05
-1.08149e-05
-1.0817e-05
-1.08191e-05
-1.08211e-05
-1.08232e-05
-1.08252e-05
-1.08271e-05
-1.08291e-05
-1.0831e-05
-1.0833e-05
-1.08349e-05
-1.08368e-05
-1.08386e-05
-1.08405e-05
-1.08423e-05
-1.08441e-05
-1.08459e-05
-1.08477e-05
-1.08494e-05
-1.08512e-05
-1.08529e-05
-1.08546e-05
-1.08563e-05
-1.08579e-05
-1.08596e-05
-1.08612e-05
-1.08628e-05
-1.08644e-05
-1.0866e-05
-1.08676e-05
-1.08691e-05
-1.08707e-05
-1.08722e-05
-1.08737e-05
-1.08752e-05
-1.08767e-05
-1.08781e-05
-1.08796e-05
-1.0881e-05
-1.08824e-05
-1.08838e-05
-1.08852e-05
-1.08866e-05
-1.08879e-05
-1.08893e-05
-1.08906e-05
-1.08919e-05
-1.08932e-05
-1.08945e-05
-1.08958e-05
-1.0897e-05
-1.08983e-05
-1.08995e-05
-1.09008e-05
-1.0902e-05
-1.09032e-05
-1.09044e-05
-1.09055e-05
-1.09067e-05
-1.09078e-05
-1.0909e-05
-1.09101e-05
-1.09112e-05
-1.09123e-05
-1.09134e-05
-1.09145e-05
-1.09156e-05
-1.09167e-05
-1.09177e-05
-1.09188e-05
-1.09198e-05
-1.09208e-05
-1.09218e-05
-1.09228e-05
-1.09238e-05
-1.09248e-05
-1.09257e-05
-1.09267e-05
-1.09277e-05
-1.09286e-05
-1.09295e-05
-1.09304e-05
-1.09313e-05
-1.09322e-05
-1.09331e-05
-1.0934e-05
-1.09349e-05
-1.09358e-05
-1.09366e-05
-1.09375e-05
-1.09383e-05
-1.09391e-05
-1.094e-05
-1.09408e-05
-1.09416e-05
-1.09424e-05
-1.09432e-05
-1.09439e-05
-1.09447e-05
-1.09455e-05
-1.09462e-05
-1.0947e-05
-1.09477e-05
-1.09485e-05
-1.09492e-05
-1.09499e-05
-1.09506e-05
-1.09513e-05
-1.0952e-05
-1.09527e-05
-1.09534e-05
-1.09541e-05
-1.09547e-05
-1.09554e-05
-1.09561e-05
-1.09567e-05
-1.09573e-05
-1.0958e-05
-1.09586e-05
-1.09592e-05
-1.09598e-05
-1.09605e-05
-1.09611e-05