# vtk DataFile Version 2.0
FlowField
ASCII
DATASET STRUCTURED_GRID
DIMENSIONS 800 1 200
POINTS 160000 float
0 0 0
0.04 0 0
0.08 0 0
0.12 0 0
0.16 0 0
0.2 0 0
0.24 0 0
0.28 0 0
0.32 0 0
0.36 0 0
0.4 0 0
0.44 0 0
0.48 0 0
0.52 0 0
0.56 0 0
0.6 0 0
0.64 0 0
0.68 0 0
0.72 0 0
0.76 0 0
0.8 0 0
0.84 0 0
0.88 0 0
0.92 0 0
0.96 0 0
1 0 0
1.04 0 0
1.08 0 0
1.12 0 0
1.16 0 0
1.2 0 0
1.24 0 0
1.28 0 0
1.32 0 0
1.36 0 0
1.4 0 0
1.44 0 0
1.48 0 0
1.52 0 0
1.56 0 0
1.6 0 0
1.64 0 0
1.68 0 0
1.72 0 0
1.76 0 0
1.8 0 0
1.84 0 0
1.88 0 0
1.92 0 0
1.96 0 0
2 0 0
2.04 0 0
2.08 0 0
2.12 0 0
2.16 0 0
2.2 0 0
2.24 0 0
2.28 0 0
2.32 0 0
2.36 0 0
2.4 0 0
2.44 0 0
2.48 0 0
2.52 0 0
2.56 0 0
2.6 0 0
2.64 0 0
2.68 0 0
2.72 0 0
2.76 0 0
2.8 0 0
2.84 0 0
2.88 0 0
2.92 0 0
2.96 0 0
3 0 0
3.04 0 0
3.08 0 0
3.12 0 0
3.16 0 0
3.2 0 0
3.24 0 0
3.28 0 0
3.32 0 0
3.36 0 0
3.4 0 0
3.44 0 0
3.48 0 0
3.52 0 0
3.56 0 0
3.6 0 0
3.64 0 0
3.68 0 0
3.72 0 0
3.76 0 0
3.8 0 0
3.84 0 0
3.88 0 0
3.92 0 0
3.96 0 0
4 0 0
4.04 0 0
4.08 0 0
4.12 0 0
4.16 0 0
4.2 0 0
4.24 0 0
4.28 0 0
4.32 0 0
4.36 0 0
4.4 0 0
4.44 0 0
4.48 0 0
4.52 0 0
4.56 0 0
4.6 0 0
4.64 0 0
4.68 0 0
4.72 0 0
4.76 0 0
4.8 0 0
4.84 0 0
4.88 0 0
4.92 0 0
4.96 0 0
5 0 0
5.04 0 0
5.08 0 0
5.12 0 0
5.16 0 0
5.2 0 0
5.24 0 0
5.28 0 0
5.32 0 0
5.36 0 0
5.4 0 0
5.44 0 0
5.48 0 0
5.52 0 0
5.56 0 0
5.6 0 0
5.64 0 0
5.68 0 0
5.72 0 0
5.76 0 0
5.8 0 0
5.84 0 0
5.88 0 0
5.92 0 0
5.96 0 0
6 0 0
6.04 0 0
6.08 0 0
6.12 0 0
6.16 0 0
6.2 0 0
6.24 0 0
6.28 0 0
6.32 0 0
6.36 0 0
6.4 0 0
6.44 0 0
6.48 0 0
6.52 0 0
6.56 0 0
6.6 0 0
6.64 0 0
6.68 0 0
6.72 0 0
6.76 0 0
6.8 0 0
6.84 0 0
6.88 0 0
6.92 0 0
6.96 0 0
7 0 0
7.04 0 0
7.08 0 0
7.12 0 0
7.16 0 0
7.2 0 0
7.24 0 0
7.28 0 0
7.32 0 0
7.36 0 0
7.4 0 0
7.44 0 0
7.48 0 0
7.52 0 0
7.56 0 0
7.6 0 0
7.64 0 0
7.68 0 0
7.72 0 0
7.76 0 0
7.8 0 0
7.84 0 0
7.88 0 0
7.92 0 0
7.96 0 0
8 0 0
8.04 0 0
8.08 0 0
8.12 0 0
8.16 0 0
8.2 0 0
8.24 0 0
8.28 0 0
8.32 0 0
8.36 0 0
8.4 0 0
8.44 0 0
8.48 0 0
8.52 0 0
8.56 0 0
8.6 0 0
8.64 0 0
8.68 0 0
8.72 0 0
8.76 0 0
8.8 0 0
8.84 0 0
8.88 0 0
8.92 0 0
8.96 0 0
9 0 0
9.04 0 0
9.08 0 0
9.12 0 0
9.16 0 0
9.2 0 0
9.24 0 0
9.28 0 0
9.32 0 0
9.36 0 0
9.4 0 0
9.44 0 0
9.48 0 0
9.52 0 0
9.56 0 0
9.6 0 0
9.64 0 0
9.68 0 0
9.72 0 0
9.76 0 0
9.8 0 0
9.84 0 0
9.88 0 0
9.92 0 0
9.96 0 0
10 0 0
10.04 0 0
10.08 0 0
10.12 0 0
10.16 0 0
10.2 0 0
10.24 0 0
10.28 0 0
10.32 0 0
10.36 0 0
10.4 0 0
10.44 0 0
10.48 0 0
10.52 0 0
10.56 0 0
10.6 0 0
10.64 0 0
10.68 0 0
10.72 0 0
10.76 0 0
10.8 0 0
10.84 0 0
10.88 0 0
10.92 0 0
10.96 0 0
11 0 0
11.04 0 0
11.08 0 0
11.12 0 0
11.16 0 0
11.2 0 0
11.24 0 0
11.28 0 0
11.32 0 0
11.36 0 0
11.4 0 0
11.44 0 0
11.48 0 0
11.52 0 0
11.56 0 0
11.6 0 0
11.64 0 0
11.68 0 0
11.72 0 0
11.76 0 0
11.8 0 0
11.84 0 0
11.88 0 0
11.92 0 0
11.96 0 0
12 0 0
12.04 0 0
12.08 0 0
12.12 0 0
12.16 0 0
12.2 0 0
12.24 0 0
12.28 0 0
12.32 0 0
12.36 0 0
12.4 0 0
12.44 0 0
12.48 0 0
12.52 0 0
12.56 0 0
12.6 0 0
12.64 0 0
12.68 0 0
12.72 0 0
12.76 0 0
12.8 0 0
12.84 0 0
12.88 0 0
12.92 0 0
12.96 0 0
13 0 0
13.04 0 0
13.08 0 0
13.12 0 0
13.16 0 0
13.2 0 0
13.24 0 0
13.28 0 0
13.32 0 0
13.36 0 0
13.4 0 0
13.44 0 0
13.48 0 0
13.52 0 0
13.56 0 0
13.6 0 0
13.64 0 0
13.68 0 0
13.72 0 0
13.76 0 0
13.8 0 0
13.84 0 0
13.88 0 0
13.92 0 0
13.96 0 0
14 0 0
14.04 0 0
14.08 0 0
14.12 0 0
14.16 0 0
14.2 0 0
14.24 0 0
14.28 0 0
14.32 0 0
14.36 0 0
14.4 0 0
14.44 0 0
14.48 0 0
14.52 0 0
14.56 0 0
14.6 0 0
14.64 0 0
14.68 0 0
14.72 0 0
14.76 0 0
14.8 0 0
14.84 0 0
14.88 0 0
14.92 0 0
14.96 0 0
15 0 0
15.04 0 0
15.08 0 0
15.12 0 0
15.16 0 0
15.2 0 0
15.24 0 0
15.28 0 0
15.32 0 0
15.36 0 0
15.4 0 0
15.44 0 0
15.48 0 0
15.52 0 0
15.56 0 0
15.6 0 0
15.64 0 0
15.68 0 0
15.72 0 0
15.76 0 0
15.8 0 0
15.84 0 0
15.88 0 0
15.92 0 0
15.96 0 0
16 0 0
16.04 0 0
16.08 0 0
16.12 0 0
16.16 0 0
16.2 0 0
16.24 0 0
16.28 0 0
16.32 0 0
16.36 0 0
16.4 0 0
16.44 0 0
16.48 0 0
16.52 0 0
16.56 0 0
16.6 0 0
16.64 0 0
16.68 0 0
16.72 0 0
16.76 0 0
16.8 0 0
16.84 0 0
16.88 0 0
16.92 0 0
16.96 0 0
17 0 0
17.04 0 0
17.08 0 0
17.12 0 0
17.16 0 0
17.2 0 0
17.24 0 0
17.28 0 0
17.32 0 0
17.36 0 0
17.4 0 0
17.44 0 0
17.48 0 0
17.52 0 0
17.56 0 0
17.6 0 0
17.64 0 0
17.68 0 0
17.72 0 0
17.76 0 0
17.8 0 0
17.84 0 0
17.88 0 0
17.92 0 0
17.96 0 0
18 0 0
18.04 0 0
18.08 0 0
18.12 0 0
18.16 0 0
18.2 0 0
18.24 0 0
18.28 0 0
18.32 0 0
18.36 0 0
18.4 0 0
18.44 0 0
18.48 0 0
18.52 0 0
18.56 0 0
18.6 0 0
18.64 0 0
18.68 0 0
18.72 0 0
18.76 0 0
18.8 0 0
18.84 0 0
18.88 0 0
18.92 0 0
18.96 0 0
19 0 0
19.04 0 0
19.08 0 0
19.12 0 0
19.16 0 0
19.2 0 0
19.24 0 0
19.28 0 0
19.32 0 0
19.36 0 0
19.4 0 0
19.44 0 0
19.48 0 0
19.52 0 0
19.56 0 0
19.6 0 0
19.64 0 0
19.68 0 0
19.72 0 0
19.76 0 0
19.8 0 0
19.84 0 0
19.88 0 0
19.92 0 0
19.96 0 0
20 0 0
20.04 0 0
20.08 0 0
20.12 0 0
20.16 0 0
20.2 0 0
20.24 0 0
20.28 0 0
20.32 0 0
20.36 0 0
20.4 0 0
20.44 0 0
20.48 0 0
20.52 0 0
20.56 0 0
20.6 0 0
20.64 0 0
20.68 0 0
20.72 0 0
20.76 0 0
20.8 0 0
20.84 0 0
20.88 0 0
20.92 0 0
20.96 0 0
21 0 0
21.04 0 0
21.08 0 0
21.12 0 0
21.16 0 0
21.2 0 0
21.24 0 0
21.28 0 0
21.32 0 0
21.36 0 0
21.4 0 0
21.44 0 0
21.48 0 0
21.52 0 0
21.56 0 0
21.6 0 0
21.64 0 0
21.68 0 0
21.72 0 0
21.76 0 0
21.8 0 0
21.84 0 0
21.88 0 0
21.92 0 0
21.96 0 0
22 0 0
22.04 0 0
22.08 0 0
22.12 0 0
22.16 0 0
22.2 0 0
22.24 0 0
22.28 0 0
22.32 0 0
22.36 0 0
22.4 0 0
22.44 0 0
22.48 0 0
22.52 0 0
22.56 0 0
22.6 0 0
22.64 0 0
22.68 0 0
22.72 0 0
22.76 0 0
22.8 0 0
22.84 0 0
22.88 0 0
22.92 0 0
22.96 0 0
23 0 0
23.04 0 0
23.08 0 0
23.12 0 0
23.16 0 0
23.2 0 0
23.24 0 0
23.28 0 0
23.32 0 0
23.36 0 0
23.4 0 0
23.44 0 0
23.48 0 0
23.52 0 0
23.56 0 0
23.6 0 0
23.64 0 0
23.68 0 0
23.72 0 0
23.76 0 0
23.8 0 0
23.84 0 0
23.88 0 0
23.92 0 0
23.96 0 0
24 0 0
24.04 0 0
24.08 0 0
24.12 0 0
24.16 0 0
24.2 0 0
24.24 0 0
24.28 0 0
24.32 0 0
24.36 0 0
24.4 0 0
24.44 0 0
24.48 0 0
24.52 0 0
24.56 0 0
24.6 0 0
24.64 0 0
24.68 0 0
24.72 0 0
24.76 0 0
24.8 0 0
24.84 0 0
24.88 0 0
24.92 0 0
24.96 0 0
25 0 0
25.04 0 0
25.08 0 0
25.12 0 0
25.16 0 0
25.2 0 0
25.24 0 0
25.28 0 0
25.32 0 0
25.36 0 0
25.4 0 0
25.44 0 0
25.48 0 0
25.52 0 0
25.56 0 0
25.6 0 0
25.64 0 0
25.68 0 0
25.72 0 0
25.76 0 0
25.8 0 0
25.84 0 0
25.88 0 0
25.92 0 0
25.96 0 0
26 0 0
26.04 0 0
26.08 0 0
26.12 0 0
26.16 0 0
26.2 0 0
26.24 0 0
26.28 0 0
26.32 0 0
26.36 0 0
26.4 0 0
26.44 0 0
26.48 0 0
26.52 0 0
26.56 0 0
26.6 0 0
26.64 0 0
26.68 0 0
26.72 0 0
26.76 0 0
26.8 0 0
26.84 0 0
26.88 0 0
26.92 0 0
26.96 0 0
27 0 0
27.04 0 0
27.08 0 0
27.12 0 0
27.16 0 0
27.2 0 0
27.24 0 0
27.28 0 0
27.32 0 0
27.36 0 0
27.4 0 0
27.44 0 0
27.48 0 0
27.52 0 0
27.56 0 0
27.6 0 0
27.64 0 0
27.68 0 0
27.72 0 0
27.76 0 0
27.8 0 0
27.84 0 0
27.88 0 0
27.92 0 0
27.96 0 0
28 0 0
28.04 0 0
28.08 0 0
28.12 0 0
28.16 0 0
28.2 0 0
28.24 0 0
28.28 0 0
28.32 0 0
28.36 0 0
28.4 0 0
28.44 0 0
28.48 0 0
28.52 0 0
28.56 0 0
28.6 0 0
28.64 0 0
28.68 0 0
28.72 0 0
28.76 0 0
28.8 0 0
28.84 0 0
28.88 0 0
28.92 0 0
28.96 0 0
29 0 0
29.04 0 0
29.08 0 0
29.12 0 0
29.16 0 0
29.2 0 0
29.24 0 0
29.28 0 0
29.32 0 0
29.36 0 0
29.4 0 0
29.44 0 0
29.48 0 0
29.52 0 0
29.56 0 0
29.6 0 0
29.64 0 0
29.68 0 0
29.72 0 0
29.76 0 0
29.8 0 0
29.84 0 0
29.88 0 0
29.92 0 0
29.96 0 0
30 0 0
30.04 0 0
30.08 0 0
30.12 0 0
30.16 0 0
30.2 0 0
30.24 0 0
30.28 0 0
30.32 0 0
30.36 0 0
30.4 0 0
30.44 0 0
30.48 0 0
30.52 0 0
30.56 0 0
30.6 0 0
30.64 0 0
30.68 0 0
30.72 0 0
30.76 0 0
30.8 0 0
30.84 0 0
30.88 0 0
30.92 0 0
30.96 0 0
31 0 0
31.04 0 0
31.08 0 0
31.12 0 0
31.16 0 0
31.2 0 0
31.24 0 0
31.28 0 0
31.32 0 0
31.36 0 0
31.4 0 0
31.44 0 0
31.48 0 0
31.52 0 0
31.56 0 0
31.6 0 0
31.64 0 0
31.68 0 0
31.72 0 0
31.76 0 0
31.8 0 0
31.84 0 0
31.88 0 0
31.92 0 0
31.96 0 0
0 0.005 0
0.04 0.005 0
0.08 0.005 0
0.12 0.005 0
0.16 0.005 0
0.2 0.005 0
0.24 0.005 0
0.28 0.005 0
0.32 0.005 0
0.36 0.005 0
0.4 0.005 0
0.44 0.005 0
0.48 0.005 0
0.52 0.005 0
0.56 0.005 0
0.6 0.005 0
0.64 0.005 0
0.68 0.005 0
0.72 0.005 0
0.76 0.005 0
0.8 0.005 0
0.84 0.005 0
0.88 0.005 0
0.92 0.005 0
0.96 0.005 0
1 0.005 0
1.04 0.005 0
1.08 0.005 0
1.12 0.005 0
1.16 0.005 0
1.2 0.005 0
1.24 0.005 0
1.28 0.005 0
1.32 0.005 0
1.36 0.005 0
1.4 0.005 0
1.44 0.005 0
1.48 0.005 0
1.52 0.005 0
1.56 0.005 0
1.6 0.005 0
1.64 0.005 0
1.68 0.005 0
1.72 0.005 0
1.76 0.005 0
1.8 0.005 0
1.84 0.005 0
1.88 0.005 0
1.92 0.005 0
1.96 0.005 0
2 0.005 0
2.04 0.005 0
2.08 0.005 0
2.12 0.005 0
2.16 0.005 0
2.2 0.005 0
2.24 0.005 0
2.28 0.005 0
2.32 0.005 0
2.36 0.005 0
2.4 0.005 0
2.44 0.005 0
2.48 0.005 0
2.52 0.005 0
2.56 0.005 0
2.6 0.005 0
2.64 0.005 0
2.68 0.005 0
2.72 0.005 0
2.76 0.005 0
2.8 0.005 0
2.84 0.005 0
2.88 0.005 0
2.92 0.005 0
2.96 0.005 0
3 0.005 0
3.04 0.005 0
3.08 0.005 0
3.12 0.005 0
3.16 0.005 0
3.2 0.005 0
3.24 0.005 0
3.28 0.005 0
3.32 0.005 0
3.36 0.005 0
3.4 0.005 0
3.44 0.005 0
3.48 0.005 0
3.52 0.005 0
3.56 0.005 0
3.6 0.005 0
3.64 0.005 0
3.68 0.005 0
3.72 0.005 0
3.76 0.005 0
3.8 0.005 0
3.84 0.005 0
3.88 0.005 0
3.92 0.005 0
3.96 0.005 0
4 0.005 0
4.04 0.005 0
4.08 0.005 0
4.12 0.005 0
4.16 0.005 0
4.2 0.005 0
4.24 0.005 0
4.28 0.005 0
4.32 0.005 0
4.36 0.005 0
4.4 0.005 0
4.44 0.005 0
4.48 0.005 0
4.52 0.005 0
4.56 0.005 0
4.6 0.005 0
4.64 0.005 0
4.68 0.005 0
4.72 0.005 0
4.76 0.005 0
4.8 0.005 0
4.84 0.005 0
4.88 0.005 0
4.92 0.005 0
4.96 0.005 0
5 0.005 0
5.04 0.005 0
5.08 0.005 0
5.12 0.005 0
5.16 0.005 0
5.2 0.005 0
5.24 0.005 0
5.28 0.005 0
5.32 0.005 0
5.36 0.005 0
5.4 0.005 0
5.44 0.005 0
5.48 0.005 0
5.52 0.005 0
5.56 0.005 0
5.6 0.005 0
5.64 0.005 0
5.68 0.005 0
5.72 0.005 0
5.76 0.005 0
5.8 0.005 0
5.84 0.005 0
5.88 0.005 0
5.92 0.005 0
5.96 0.005 0
6 0.005 0
6.04 0.005 0
6.08 0.005 0
6.12 0.005 0
6.16 0.005 0
6.2 0.005 0
6.24 0.005 0
6.28 0.005 0
6.32 0.005 0
6.36 0.005 0
6.4 0.005 0
6.44 0.005 0
6.48 0.005 0
6.52 0.005 0
6.56 0.005 0
6.6 0.005 0
6.64 0.005 0
6.68 0.005 0
6.72 0.005 0
6.76 0.005 0
6.8 0.005 0
6.84 0.005 0
6.88 0.005 0
6.92 0.005 0
6.96 0.005 0
7 0.005 0
7.04 0.005 0
7.08 0.005 0
7.12 0.005 0
7.16 0.005 0
7.2 0.005 0
7.24 0.005 0
7.28 0.005 0
7.32 0.005 0
7.36 0.005 0
7.4 0.005 0
[...]
POINT_DATA 160000

SCALARS phi float 1
LOOKUP_TABLE default
1
1
1
1
1
1
1
1
1
1
1
1
1
1
1
1
1
1
1
1
1
1
1
1
1
1
1
1
1
1
1
1
1
1
1
0.999999
0.999999
0.999999
0.999999
0.999998
0.999997
0.999997
0.999995
0.999994
0.999992
0.99999
0.999988
0.999985
0.999982
0.999978
0.999973
0.999968
0.999961
0.999954
0.999946
0.999937
0.999926
0.999914
0.999901
0.999886
0.99987
0.999852
0.999832
0.99981
0.999786
0.99976
0.999731
0.9997
0.999667
0.999631
0.999592
0.99955
0.999505
0.999457
0.999406
0.999352
0.999294
0.999232
0.999167
0.999099
0.999026
0.998949
0.998869
0.998784
0.998695
0.998602
0.998504
0.998403
0.998296
0.998185
0.998069
0.997949
0.997824
0.997694
0.997559
0.997419
0.997275
0.997125
0.99697
0.99681
0.996645
0.996475
0.9963
0.996119
0.995933
0.995742
0.995546
0.995344
0.995137
0.994925
0.994707
0.994484
0.994256
0.994022
0.993783
0.993539
0.993289
0.993034
0.992774
0.992509
0.992238
0.991962
0.99168
0.991394
0.991102
0.990805
0.990502
0.990195
0.989883
0.989565
0.989242
0.988915
0.988582
0.988244
0.987901
0.987554
0.987201
0.986844
0.986482
0.986115
0.985743
0.985367
0.984986
0.984601
0.98421
0.983816
0.983416
0.983013
0.982604
0.982192
0.981775
0.981354
0.980928
0.980499
0.980065
0.979627
0.979185
0.978739
0.978289
0.977835
0.977377
0.976915
0.97645
0.975981
0.975508
0.975031
0.97455
0.974067
0.973579
0.973088
0.972594
0.972096
0.971595
0.97109
0.970582
0.970071
0.969557
0.96904
0.968519
0.967996
0.967469
0.96694
0.966407
0.965872
0.965334
0.964793
0.964249
0.963702
0.963153
0.962601
0.962047
0.96149
0.960931
0.960369
0.959804
0.959237
0.958668
0.958097
0.957523
0.956947
0.956369
0.955789
0.955206
0.954622
0.954035
0.953446
0.952856
0.952263
0.951669
0.951073
0.950474
0.949874
0.949273
0.948669
0.948064
0.947457
0.946849
0.946239
0.945627
0.945014
0.944399
0.943783
0.943165
0.942546
0.941926
0.941304
0.940681
0.940057
0.939431
0.938805
0.938177
0.937547
0.936917
0.936285
0.935653
0.935019
0.934385
0.933749
0.933112
0.932475
0.931836
0.931197
0.930557
0.929915
0.929273
0.928631
0.927987
0.927343
0.926698
0.926052
0.925406
0.924758
0.924111
0.923462
0.922813
0.922164
0.921514
0.920863
0.920212
0.91956
0.918908
0.918256
0.917603
0.91695
0.916296
0.915642
0.914987
0.914333
0.913677
0.913022
0.912366
0.911711
0.911054
0.910398
0.909741
0.909085
0.908428
0.907771
0.907114
0.906456
0.905799
0.905141
0.904484
0.903826
0.903168
0.902511
0.901853
0.901195
0.900537
0.89988
0.899222
0.898565
0.897907
0.89725
0.896592
0.895935
0.895278
0.894621
0.893964
0.893308
0.892651
0.891995
0.891339
0.890683
0.890027
0.889372
0.888717
0.888062
0.887407
0.886752
0.886098
0.885445
0.884791
0.884138
0.883485
0.882832
0.88218
0.881528
0.880876
0.880225
0.879574
0.878924
0.878274
0.877624
0.876975
0.876326
0.875677
0.875029
0.874381
0.873734
0.873087
0.872441
0.871795
0.871149
0.870504
0.86986
0.869215
0.868572
0.867928
0.867286
0.866643
0.866001
0.86536
0.864719
0.864078
0.863438
0.862799
0.86216
0.861521
0.860883
0.860245
0.859608
0.858971
0.858335
0.857699
0.857064
0.856429
0.855794
0.85516
0.854527
0.853894
0.853261
0.852629
0.851997
0.851365
0.850734
0.850104
0.849474
0.848844
0.848214
0.847585
0.846957
0.846328
0.8457
0.845073
0.844445
0.843818
0.843192
0.842565
0.841939
0.841313
0.840688
0.840063
0.839437
0.838813
0.838188
0.837564
0.836939
0.836315
0.835691
0.835068
0.834444
0.83382
0.833197
0.832573
0.83195
0.831327
0.830704
0.83008
0.829457
0.828834
0.82821
0.827587
0.826963
0.82634
0.825716
0.825092
0.824468
0.823844
0.823219
0.822594
0.821969
0.821344
0.820719
0.820093
0.819467
0.81884
0.818213
0.817586
0.816958
0.816329
0.815701
0.815071
0.814441
0.813811
0.81318
0.812548
0.811916
0.811283
0.81065
0.810015
0.80938
0.808745
0.808108
0.807471
0.806833
0.806193
0.805553
0.804913
0.804271
0.803628
0.802984
0.802339
0.801694
0.801047
0.800399
0.79975
0.799099
0.798448
0.797795
0.797141
0.796486
0.79583
0.795172
0.794513
0.793853
0.793191
0.792528
0.791863
0.791197
0.79053
0.78986
0.78919
0.788518
0.787844
0.787169
0.786492
0.785813
0.785133
0.784451
0.783767
0.783082
0.782394
0.781705
0.781014
0.780322
0.779627
0.778931
0.778232
0.777532
0.77683
0.776125
0.775419
0.774711
0.774001
0.773288
0.772574
0.771857
0.771139
0.770418
0.769695
0.76897
0.768242
0.767513
0.766781
0.766047
0.765311
0.764572
0.763831
0.763088
0.762343
0.761595
0.760845
0.760092
0.759337
0.75858
0.75782
0.757058
0.756293
0.755526
0.754756
0.753984
0.753209
0.752432
0.751652
0.75087
0.750085
0.749298
0.748508
0.747716
0.746921
0.746123
0.745323
0.74452
0.743714
0.742906
0.742095
0.741282
0.740466
0.739647
0.738826
0.738001
0.737175
0.736345
0.735513
0.734678
0.733841
0.733
0.732157
0.731312
0.730463
0.729612
0.728758
0.727902
0.727042
0.72618
0.725316
0.724448
0.723578
0.722705
0.721829
0.720951
0.72007
0.719186
0.718299
0.71741
0.716518
0.715623
0.714726
0.713826
0.712923
0.712017
0.711109
0.710198
0.709284
0.708368
0.707449
0.706527
0.705603
0.704676
0.703746
0.702814
0.701878
0.700941
0.7
0.699057
0.698112
0.697164
0.696213
0.695259
0.694303
0.693345
0.692384
0.69142
0.690454
0.689485
0.688514
0.68754
0.686563
0.685584
0.684603
0.683619
0.682633
0.681644
0.680653
0.679659
0.678663
0.677664
0.676663
0.67566
0.674654
0.673646
0.672636
0.671623
0.670608
0.66959
0.668571
0.667549
0.666524
0.665498
0.664469
0.663438
0.662405
0.661369
0.660332
0.659292
0.65825
0.657206
0.65616
0.655112
0.654061
0.653009
0.651954
0.650898
0.649839
0.648779
0.647716
0.646651
0.645585
0.644516
0.643446
0.642374
0.641299
0.640223
0.639145
0.638065
0.636984
0.6359
0.634815
0.633728
0.632639
0.631549
0.630456
0.629362
0.628267
0.627169
0.62607
0.62497
0.623867
0.622764
0.621658
0.620551
0.619443
0.618333
0.617221
0.616108
0.614993
0.613877
0.61276
0.611641
0.610521
0.609399
0.608276
0.607152
0.606026
0.604899
0.603771
0.602641
0.60151
0.600378
0.599245
0.59811
0.596975
0.595838
0.5947
0.593561
0.59242
0.591279
0.590137
0.588993
0.587849
0.586703
0.585557
0.584409
0.583261
0.582111
0.580961
0.57981
0.578658
0.577505
0.576351
0.575196
0.574041
0.572884
0.571727
0.57057
0.569411
0.568252
0.567092
0.565931
0.564769
0.563607
0.562445
0.561281
0.560117
0.558953
0.557788
0.556622
0.555456
0.554289
0.553122
0.551954
0.550786
0.549617
0.548448
0.547279
0.546109
0.544939
0.543768
0.542597
0.541426
0.540254
0.539082
0.53791
0.536737
0.535564
0.534391
0.533218
0.532044
0.530871
0.529697
0.528523
0.527349
0.526175
0.525
0.523826
0.522651
0.521476
0.520302
0.519127
0.517952
0.516777
0.515603
0.514428
0.513253
0.512078
0.510904
0.509729
0.508555
0.50738
0.506206
0.505032
0.503858
0.502684
0.501511
0.500337
0.499164
0.497991
0.496818
0.495646
0.494474
0.493302
0.49213
0.490958
0.489787
0.488616
0.487446
0.486276
0.485106
0.483937
0.482768
0.481599
0.480431
0.479263
0.478095
0.476928
0.475762
0.474596
0.47343
0.472265
0.471101
0.469937
0.468773
0.46761
0.466448
0.465286
0.464124
0.462963
0.461803
0.460644
0.459484
0.458326
0.457168
0.456012
0.454853
0.453701
0.452544
0.451436
0.450415
0.450415
1
1
1
1
1
1
1
1
1
1
1
1
1
1
1
1
1
1
1
1
1
1
1
1
1
1
1
1
1
1
1
1
1
1
1
0.999999
0.999999
0.999999
0.999999
0.999998
0.999997
0.999997
0.999995
0.999994
0.999992
0.99999
0.999988
0.999985
0.999982
0.999978
0.999973
0.999968
0.999961
0.999954
0.999946
0.999937
0.999926
0.999914
0.999901
0.999886
0.99987
0.999852
0.999832
0.99981
0.999786
0.99976
0.999731
0.9997
0.999667
0.999631
0.999592
0.99955
0.999505
0.999457
0.999406
0.999352
0.999294
0.999232
0.999167
0.999099
0.999026
0.998949
0.998869
0.998784
0.998695
0.998602
0.998504
0.998403
0.998296
0.998185
0.998069
0.997949
0.997824
0.997694
0.997559
0.997419
0.997275
0.997125
0.99697
0.99681
0.996645
0.996475
0.9963
0.996119
0.995933
0.995742
0.995546
0.995344
0.995137
0.994925
0.994707
0.994484
0.994256
0.994022
0.993783
0.993539
0.993289
0.993034
0.992774
0.992509
0.992238
0.991962
0.99168
0.991394
0.991102
0.990805
0.990502
0.990195
0.989883
0.989565
0.989242
0.988915
0.988582
0.988244
0.987901
0.987554
0.987201
0.986844
0.986482
0.986115
0.985743
0.985367
0.984986
0.984601
0.98421
0.983816
0.983416
0.983013
0.982604
0.982192
0.981775
0.981354
0.980928
0.980499
0.980065
0.979627
0.979185
0.978739
0.978289
0.977835
0.977377
0.976915
0.97645
0.975981
0.975508
0.975031
0.97455
0.974067
0.973579
0.973088
0.972594
0.972096
0.971595
0.97109
0.970582
0.970071
0.969557
0.96904
0.968519
0.967996
0.967469
0.96694
0.966407
0.965872
0.965334
0.964793
0.964249
0.963702
0.963153
0.962601
0.962047
0.96149
0.960931
0.960369
0.959804
0.959237
0.958668
0.958097
0.957523
0.956947
0.956369
0.955789
0.955206
0.954622
0.954035
0.953446
0.952856
0.952263
0.951669
0.951073
0.950474
0.949874
0.949273
0.948669
0.948064
0.947457
0.946849
0.946239
0.945627
0.945014
0.944399
0.943783
0.943165
0.942546
0.941926
0.941304
0.940681
0.940057
0.939431
0.938805
0.938177
0.937547
0.936917
0.936285
0.935653
0.935019
0.934385
0.933749
0.933112
0.932475
0.931836
0.931197
0.930557
0.929915
0.929273
0.928631
0.927987
0.927343
0.926698
0.926052
0.925406
0.924758
0.924111
0.923462
0.922813
0.922164
0.921514
0.920863
0.920212
0.91956
0.918908
0.918256
0.917603
0.91695
0.916296
0.915642
0.914987
0.914333
0.913677
0.913022
0.912366
0.911711
0.911054
0.910398
0.909741
0.909085
0.908428
0.907771
0.907114
0.906456
0.905799
0.905141
0.904484
0.903826
0.903168
0.902511
0.901853
0.901195
0.900537
0.89988
0.899222
0.898565
0.897907
0.89725
0.896592
0.895935
0.895278
0.894621
0.893964
0.893308
0.892651
0.891995
0.891339
0.890683
0.890027
0.889372
0.888717
0.888062
0.887407
0.886752
0.886098
0.885445
0.884791
0.884138
0.883485
0.882832
0.88218
0.881528
0.880876
0.880225
0.879574
0.878924
0.878274
0.877624
0.876975
0.876326
0.875677
0.875029
0.874381
0.873734
0.873087
0.872441
0.871795
0.871149
0.870504
0.86986
0.869215
0.868572
0.867928
0.867286
0.866643
0.866001
0.86536
0.864719
0.864078
0.863438
0.862799
0.86216
0.861521
0.860883
0.860245
0.859608
0.858971
0.858335
0.857699
0.857064
0.856429
0.855794
0.85516
0.854527
0.853894
0.853261
0.852629
0.851997
0.851365
0.850734
0.850104
0.849474
0.848844
0.848214
0.847585
0.846957
0.846328
0.8457
0.845073
0.844445
0.843818
0.843192
0.842565
0.841939
0.841313
0.840688
0.840063
0.839437
0.838813
0.838188
0.837564
0.836939
0.836315
0.835691
0.835068
0.834444
0.83382
0.833197
0.832573
0.83195
0.831327
0.830704
0.83008
0.829457
0.828834
0.82821
0.827587
0.826963
0.82634
0.825716
0.825092
0.824468
0.823844
0.823219
0.822594
0.821969
0.821344
0.820719
0.820093
0.819467
0.81884
0.818213
0.817586
0.816958
0.816329
0.815701
0.815071
0.814441
0.813811
0.81318
0.812548
0.811916
0.811283
0.81065
0.810015
0.80938
0.808745
0.808108
0.807471
0.806833
0.806193
0.805553
0.804913
0.804271
0.803628
0.802984
0.802339
0.801694
0.801047
0.800399
0.79975
0.799099
0.798448
0.797795
0.797141
0.796486
0.79583
0.795172
0.794513
0.793853
0.793191
0.792528
0.791863
0.791197
0.79053
0.78986
0.78919
0.788518
0.787844
0.787169
0.786492
0.785813
0.785133
0.784451
0.783767
0.783082
0.782394
0.781705
0.781014
0.780322
0.779627
0.778931
0.778232
0.777532
0.77683
0.776125
0.775419
0.774711
0.774001
0.773288
0.772574
0.771857
0.771139
0.770418
0.769695
0.76897
0.768242
0.767513
0.766781
0.766047
0.765311
0.764572
0.763831
0.763088
0.762343
0.761595
0.760845
0.760092
0.759337
0.75858
0.75782
0.757058
0.756293
0.755526
0.754756
0.753984
0.753209
0.752432
0.751652
0.75087
0.750085
0.749298
0.748508
0.747716
0.746921
0.746123
0.745323
0.74452
0.743714
0.742906
0.742095
0.741282
0.740466
0.739647
0.738826
0.738001
0.737175
0.736345
0.735513
0.734678
0.733841
0.733
0.732157
0.731312
0.730463
0.729612
0.728758
0.727902
0.727042
0.72618
0.725316
0.724448
0.723578
0.722705
0.721829
0.720951
0.72007
0.719186
0.718299
0.71741
0.716518
0.715623
0.714726
0.713826
0.712923
0.712017
0.711109
0.710198
0.709284
0.708368
0.707449
0.706527
0.705603
0.704676
0.703746
0.702814
0.701878
0.700941
0.7
0.699057
0.698112
0.697164
0.696213
0.695259
0.694303
0.693345
0.692384
0.69142
0.690454
0.689485
0.688514
0.68754
0.686563
0.685584
0.684603
0.683619
0.682633
0.681644
0.680653
0.679659
0.678663
0.677664
0.676663
0.67566
0.674654
0.673646
0.672636
0.671623
0.670608
0.66959
0.668571
0.667549
0.666524
0.665498
0.664469
0.663438
0.662405
0.661369
0.660332
0.659292
0.65825
0.657206
0.65616
0.655112
0.654061
0.653009
0.651954
0.650898
0.649839
0.648779
0.647716
0.646651
0.645585
0.644516
0.643446
0.642374
0.641299
0.640223
0.639145
0.638065
0.636984
0.6359
0.634815
0.633728
0.632639
0.631549
0.630456
0.629362
0.628267
0.627169
0.62607
0.62497
0.623867
0.622764
0.621658
0.620551
0.619443
0.618333
0.617221
0.616108
0.614993
0.613877
0.61276
0.611641
0.610521
0.609399
0.608276
0.607152
0.606026
0.604899
0.603771
0.602641
0.60151
0.600378
0.599245
0.59811
0.596975
0.595838
0.5947
0.593561
0.59242
0.591279
0.590137
0.588993
0.587849
0.586703
0.585557
0.584409
0.583261
0.582111
0.580961
0.57981
0.578658
0.577505
0.576351
0.575196
0.574041
0.572884
0.571727
0.57057
0.569411
0.568252
0.567092
0.565931
0.564769
0.563607
0.562445
0.561281
0.560117
0.558953
0.557788
0.556622
0.555456
0.554289
0.553122
0.551954
0.550786
0.549617
0.548448
0.547279
0.546109
0.544939
0.543768
0.542597
0.541426
0.540254
0.539082
0.53791
0.536737
0.535564
0.534391
0.533218
0.532044
0.530871
0.529697
0.528523
0.527349
0.526175
0.525
0.523826
0.522651
0.521476
0.520302
0.519127
0.517952
0.516777
0.515603
0.514428
0.513253
0.512078
0.510904
0.509729
0.508555
0.50738
0.506206
0.505032
0.503858
0.502684
0.501511
0.500337
0.499164
0.497991
0.496818
0.495646
0.494474
0.493302
0.49213
0.490958
0.489787
0.488616
0.487446
0.486276
0.485106
0.483937
0.482768
0.481599
0.480431
0.479263
0.478095
0.476928
0.475762
0.474596
0.47343
0.472265
0.471101
0.469937
0.468773
0.46761
0.466448
0.465286
0.464124
0.462963
0.461803
0.460644
0.459484
0.458326
0.457168
0.456012
0.454853
0.453701
0.452544
0.451436
0.450415
0.450415
1
1
1
1
1
1
1
1
1
1
1
1
1
1
1
1
1
1
1
1
1
1
1
1
1
1
1
1
1
1
1
1
1
1
1
0.999999
0.999999
0.999999
0.999999
0.999998
0.999997
0.999997
0.999995
0.999994
0.999992
0.99999
0.999988
0.999985
0.999982
0.999978
0.999973
0.999968
0.999961
0.999954
0.999946
0.999937
0.999926
0.999914
0.999901
0.999886
0.99987
0.999852
0.999832
0.99981
0.999786
0.99976
0.999731
0.9997
0.999667
0.999631
0.999592
0.99955
0.999505
0.999457
0.999406
0.999352
0.999294
0.999232
0.999167
0.999098
0.999026
0.998949
0.998869
0.998784
0.998695
0.998602
0.998504
0.998402
0.998296
0.998185
0.998069
0.997949
0.997824
0.997694
0.997559
0.997419
0.997274
0.997124
0.99697
0.99681
0.996645
0.996474
0.996299
0.996118
0.995933
0.995742
0.995545
0.995343
0.995136
0.994924
0.994706
0.994483
0.994255
0.994022
0.993783
0.993538
0.993289
0.993034
0.992773
0.992508
0.992237
0.991961
0.991679
0.991393
0.991101
0.990804
0.990501
0.990194
0.989882
0.989564
0.989241
0.988914
0.988581
0.988243
0.9879
0.987553
0.9872
0.986843
0.986481
0.986114
0.985742
0.985366
0.984985
0.984599
0.984209
0.983814
0.983415
0.983011
0.982603
0.982191
0.981774
0.981353
0.980927
0.980497
0.980064
0.979626
0.979184
0.978738
0.978288
0.977834
0.977376
0.976914
0.976448
0.975979
0.975506
0.975029
0.974549
0.974065
0.973578
0.973087
0.972592
0.972094
0.971593
0.971089
0.970581
0.97007
0.969555
0.969038
0.968518
0.967994
0.967467
0.966938
0.966405
0.96587
0.965332
0.964791
0.964247
0.963701
0.963152
0.9626
0.962045
0.961488
0.960929
0.960367
0.959803
0.959236
0.958667
0.958095
0.957521
0.956946
0.956367
0.955787
0.955205
0.95462
0.954033
0.953445
0.952854
0.952262
0.951667
0.951071
0.950473
0.949873
0.949271
0.948667
0.948062
0.947455
0.946847
0.946237
0.945625
0.945012
0.944397
0.943781
0.943164
0.942545
0.941924
0.941303
0.940679
0.940055
0.93943
0.938803
0.938175
0.937545
0.936915
0.936284
0.935651
0.935017
0.934383
0.933747
0.933111
0.932473
0.931834
0.931195
0.930555
0.929914
0.929272
0.928629
0.927985
0.927341
0.926696
0.92605
0.925404
0.924757
0.924109
0.92346
0.922811
0.922162
0.921512
0.920861
0.92021
0.919559
0.918906
0.918254
0.917601
0.916948
0.916294
0.91564
0.914985
0.914331
0.913676
0.91302
0.912365
0.911709
0.911052
0.910396
0.90974
0.909083
0.908426
0.907769
0.907112
0.906454
0.905797
0.905139
0.904482
0.903824
0.903166
0.902509
0.901851
0.901193
0.900536
0.899878
0.89922
0.898563
0.897905
0.897248
0.89659
0.895933
0.895276
0.894619
0.893962
0.893306
0.892649
0.891993
0.891337
0.890681
0.890025
0.88937
0.888715
0.88806
0.887405
0.886751
0.886096
0.885443
0.884789
0.884136
0.883483
0.88283
0.882178
0.881526
0.880875
0.880223
0.879572
0.878922
0.878272
0.877622
0.876973
0.876324
0.875675
0.875027
0.87438
0.873732
0.873086
0.872439
0.871793
0.871148
0.870503
0.869858
0.869214
0.86857
0.867927
0.867284
0.866642
0.866
0.865358
0.864717
0.864077
0.863437
0.862797
0.862158
0.86152
0.860881
0.860244
0.859607
0.85897
0.858334
0.857698
0.857062
0.856427
0.855793
0.855159
0.854525
0.853892
0.85326
0.852627
0.851996
0.851364
0.850733
0.850103
0.849472
0.848843
0.848213
0.847584
0.846955
0.846327
0.845699
0.845072
0.844444
0.843817
0.843191
0.842564
0.841938
0.841313
0.840687
0.840062
0.839437
0.838812
0.838187
0.837563
0.836939
0.836315
0.835691
0.835067
0.834444
0.83382
0.833197
0.832573
0.83195
0.831327
0.830704
0.830081
0.829457
0.828834
0.828211
0.827588
0.826964
0.826341
0.825717
0.825093
0.824469
0.823845
0.823221
0.822596
0.821971
0.821346
0.82072
0.820095
0.819469
0.818842
0.818215
0.817588
0.81696
0.816332
0.815703
0.815074
0.814444
0.813814
0.813183
0.812552
0.81192
0.811287
0.810654
0.81002
0.809385
0.808749
0.808113
0.807476
0.806837
0.806199
0.805559
0.804918
0.804277
0.803634
0.80299
0.802346
0.8017
0.801053
0.800406
0.799757
0.799107
0.798456
0.797803
0.797149
0.796495
0.795838
0.795181
0.794522
0.793862
0.7932
0.792538
0.791873
0.791207
0.79054
0.789871
0.789201
0.788529
0.787856
0.787181
0.786504
0.785826
0.785146
0.784464
0.78378
0.783095
0.782408
0.78172
0.781029
0.780337
0.779642
0.778946
0.778248
0.777548
0.776846
0.776142
0.775436
0.774729
0.774019
0.773307
0.772593
0.771876
0.771158
0.770438
0.769715
0.76899
0.768263
0.767534
0.766803
0.766069
0.765333
0.764595
0.763855
0.763112
0.762367
0.76162
0.76087
0.760118
0.759363
0.758606
0.757847
0.757085
0.756321
0.755554
0.754785
0.754013
0.753239
0.752462
0.751683
0.750901
0.750117
0.74933
0.74854
0.747748
0.746954
0.746156
0.745357
0.744554
0.743749
0.742941
0.742131
0.741318
0.740503
0.739684
0.738863
0.73804
0.737213
0.736384
0.735553
0.734718
0.733881
0.733042
0.732199
0.731354
0.730506
0.729655
0.728802
0.727946
0.727087
0.726226
0.725361
0.724494
0.723625
0.722752
0.721877
0.720999
0.720119
0.719236
0.718349
0.717461
0.716569
0.715675
0.714778
0.713879
0.712976
0.712071
0.711163
0.710253
0.70934
0.708424
0.707506
0.706584
0.705661
0.704734
0.703805
0.702873
0.701938
0.701001
0.700062
0.699119
0.698174
0.697226
0.696276
0.695323
0.694368
0.69341
0.692449
0.691486
0.69052
0.689552
0.688581
0.687608
0.686632
0.685654
0.684673
0.68369
0.682704
0.681716
0.680725
0.679732
0.678736
0.677738
0.676738
0.675735
0.67473
0.673722
0.672712
0.6717
0.670686
0.669669
0.66865
0.667628
0.666605
0.665579
0.66455
0.66352
0.662487
0.661452
0.660415
0.659376
0.658335
0.657291
0.656246
0.655198
0.654148
0.653096
0.652042
0.650986
0.649928
0.648868
0.647806
0.646742
0.645676
0.644608
0.643538
0.642466
0.641393
0.640317
0.63924
0.63816
0.637079
0.635996
0.634912
0.633825
0.632737
0.631647
0.630555
0.629462
0.628366
0.62727
0.626171
0.625071
0.623969
0.622866
0.621761
0.620654
0.619546
0.618437
0.617326
0.616213
0.615099
0.613984
0.612867
0.611748
0.610628
0.609507
0.608385
0.607261
0.606136
0.605009
0.603881
0.602752
0.601622
0.60049
0.599357
0.598223
0.597088
0.595952
0.594814
0.593676
0.592536
0.591395
0.590253
0.58911
0.587966
0.586821
0.585675
0.584528
0.58338
0.582231
0.581081
0.57993
0.578779
0.577626
0.576473
0.575319
0.574163
0.573008
0.571851
0.570694
0.569535
0.568376
0.567217
0.566057
0.564896
0.563734
0.562572
0.561409
0.560245
0.559081
0.557916
0.556751
0.555585
0.554419
0.553252
0.552085
0.550917
0.549749
0.54858
0.547411
0.546241
0.545071
0.543901
0.54273
0.541559
0.540388
0.539217
0.538045
0.536872