# vtk DataFile Version 2.0
FlowField
ASCII
DATASET STRUCTURED_GRID
DIMENSIONS 800 1 200
POINTS 160000 float
0 0 0
0.04 0 0
0.08 0 0
0.12 0 0
0.16 0 0
0.2 0 0
0.24 0 0
0.28 0 0
0.32 0 0
0.36 0 0
0.4 0 0
0.44 0 0
0.48 0 0
0.52 0 0
0.56 0 0
0.6 0 0
0.64 0 0
0.68 0 0
0.72 0 0
0.76 0 0
0.8 0 0
0.84 0 0
0.88 0 0
0.92 0 0
0.96 0 0
1 0 0
1.04 0 0
1.08 0 0
1.12 0 0
1.16 0 0
1.2 0 0
1.24 0 0
1.28 0 0
1.32 0 0
1.36 0 0
1.4 0 0
1.44 0 0
1.48 0 0
1.52 0 0
1.56 0 0
1.6 0 0
1.64 0 0
1.68 0 0
1.72 0 0
1.76 0 0
1.8 0 0
1.84 0 0
1.88 0 0
1.92 0 0
1.96 0 0
2 0 0
2.04 0 0
2.08 0 0
2.12 0 0
2.16 0 0
2.2 0 0
2.24 0 0
2.28 0 0
2.32 0 0
2.36 0 0
2.4 0 0
2.44 0 0
2.48 0 0
2.52 0 0
2.56 0 0
2.6 0 0
2.64 0 0
2.68 0 0
2.72 0 0
2.76 0 0
2.8 0 0
2.84 0 0
2.88 0 0
2.92 0 0
2.96 0 0
3 0 0
3.04 0 0
3.08 0 0
3.12 0 0
3.16 0 0
3.2 0 0
3.24 0 0
3.28 0 0
3.32 0 0
3.36 0 0
3.4 0 0
3.44 0 0
3.48 0 0
3.52 0 0
3.56 0 0
3.6 0 0
3.64 0 0
3.68 0 0
3.72 0 0
3.76 0 0
3.8 0 0
3.84 0 0
3.88 0 0
3.92 0 0
3.96 0 0
4 0 0
4.04 0 0
4.08 0 0
4.12 0 0
4.16 0 0
4.2 0 0
4.24 0 0
4.28 0 0
4.32 0 0
4.36 0 0
4.4 0 0
4.44 0 0
4.48 0 0
4.52 0 0
4.56 0 0
4.6 0 0
4.64 0 0
4.68 0 0
4.72 0 0
4.76 0 0
4.8 0 0
4.84 0 0
4.88 0 0
4.92 0 0
4.96 0 0
5 0 0
5.04 0 0
5.08 0 0
5.12 0 0
5.16 0 0
5.2 0 0
5.24 0 0
5.28 0 0
5.32 0 0
5.36 0 0
5.4 0 0
5.44 0 0
5.48 0 0
5.52 0 0
5.56 0 0
5.6 0 0
5.64 0 0
5.68 0 0
5.72 0 0
5.76 0 0
5.8 0 0
5.84 0 0
5.88 0 0
5.92 0 0
5.96 0 0
6 0 0
6.04 0 0
6.08 0 0
6.12 0 0
6.16 0 0
6.2 0 0
6.24 0 0
6.28 0 0
6.32 0 0
6.36 0 0
6.4 0 0
6.44 0 0
6.48 0 0
6.52 0 0
6.56 0 0
6.6 0 0
6.64 0 0
6.68 0 0
6.72 0 0
6.76 0 0
6.8 0 0
6.84 0 0
6.88 0 0
6.92 0 0
6.96 0 0
7 0 0
7.04 0 0
7.08 0 0
7.12 0 0
7.16 0 0
7.2 0 0
7.24 0 0
7.28 0 0
7.32 0 0
7.36 0 0
7.4 0 0
7.44 0 0
7.48 0 0
7.52 0 0
7.56 0 0
7.6 0 0
7.64 0 0
7.68 0 0
7.72 0 0
7.76 0 0
7.8 0 0
7.84 0 0
7.88 0 0
7.92 0 0
7.96 0 0
8 0 0
8.04 0 0
8.08 0 0
8.12 0 0
8.16 0 0
8.2 0 0
8.24 0 0
8.28 0 0
8.32 0 0
8.36 0 0
8.4 0 0
8.44 0 0
8.48 0 0
8.52 0 0
8.56 0 0
8.6 0 0
8.64 0 0
8.68 0 0
8.72 0 0
8.76 0 0
8.8 0 0
8.84 0 0
8.88 0 0
8.92 0 0
8.96 0 0
9 0 0
9.04 0 0
9.08 0 0
9.12 0 0
9.16 0 0
9.2 0 0
9.24 0 0
9.28 0 0
9.32 0 0
9.36 0 0
9.4 0 0
9.44 0 0
9.48 0 0
9.52 0 0
9.56 0 0
9.6 0 0
9.64 0 0
9.68 0 0
9.72 0 0
9.76 0 0
9.8 0 0
9.84 0 0
9.88 0 0
9.92 0 0
9.96 0 0
10 0 0
10.04 0 0
10.08 0 0
10.12 0 0
10.16 0 0
10.2 0 0
10.24 0 0
10.28 0 0
10.32 0 0
10.36 0 0
10.4 0 0
10.44 0 0
10.48 0 0
10.52 0 0
10.56 0 0
10.6 0 0
10.64 0 0
10.68 0 0
10.72 0 0
10.76 0 0
10.8 0 0
10.84 0 0
10.88 0 0
10.92 0 0
10.96 0 0
11 0 0
11.04 0 0
11.08 0 0
11.12 0 0
11.16 0 0
11.2 0 0
11.24 0 0
11.28 0 0
11.32 0 0
11.36 0 0
11.4 0 0
11.44 0 0
11.48 0 0
11.52 0 0
11.56 0 0
11.6 0 0
11.64 0 0
11.68 0 0
11.72 0 0
11.76 0 0
11.8 0 0
11.84 0 0
11.88 0 0
11.92 0 0
11.96 0 0
12 0 0
12.04 0 0
12.08 0 0
12.12 0 0
12.16 0 0
12.2 0 0
12.24 0 0
12.28 0 0
12.32 0 0
12.36 0 0
12.4 0 0
12.44 0 0
12.48 0 0
12.52 0 0
12.56 0 0
12.6 0 0
12.64 0 0
12.68 0 0
12.72 0 0
12.76 0 0
12.8 0 0
12.84 0 0
12.88 0 0
12.92 0 0
12.96 0 0
13 0 0
13.04 0 0
13.08 0 0
13.12 0 0
13.16 0 0
13.2 0 0
13.24 0 0
13.28 0 0
13.32 0 0
13.36 0 0
13.4 0 0
13.44 0 0
13.48 0 0
13.52 0 0
13.56 0 0
13.6 0 0
13.64 0 0
13.68 0 0
13.72 0 0
13.76 0 0
13.8 0 0
13.84 0 0
13.88 0 0
13.92 0 0
13.96 0 0
14 0 0
14.04 0 0
14.08 0 0
14.12 0 0
14.16 0 0
14.2 0 0
14.24 0 0
14.28 0 0
14.32 0 0
14.36 0 0
14.4 0 0
14.44 0 0
14.48 0 0
14.52 0 0
14.56 0 0
14.6 0 0
14.64 0 0
14.68 0 0
14.72 0 0
14.76 0 0
14.8 0 0
14.84 0 0
14.88 0 0
14.92 0 0
14.96 0 0
15 0 0
15.04 0 0
15.08 0 0
15.12 0 0
15.16 0 0
15.2 0 0
15.24 0 0
15.28 0 0
15.32 0 0
15.36 0 0
15.4 0 0
15.44 0 0
15.48 0 0
15.52 0 0
15.56 0 0
15.6 0 0
15.64 0 0
15.68 0 0
15.72 0 0
15.76 0 0
15.8 0 0
15.84 0 0
15.88 0 0
15.92 0 0
15.96 0 0
16 0 0
16.04 0 0
16.08 0 0
16.12 0 0
16.16 0 0
16.2 0 0
16.24 0 0
16.28 0 0
16.32 0 0
16.36 0 0
16.4 0 0
16.44 0 0
16.48 0 0
16.52 0 0
16.56 0 0
16.6 0 0
16.64 0 0
16.68 0 0
16.72 0 0
16.76 0 0
16.8 0 0
16.84 0 0
16.88 0 0
16.92 0 0
16.96 0 0
17 0 0
17.04 0 0
17.08 0 0
17.12 0 0
17.16 0 0
17.2 0 0
17.24 0 0
17.28 0 0
17.32 0 0
17.36 0 0
17.4 0 0
17.44 0 0
17.48 0 0
17.52 0 0
17.56 0 0
17.6 0 0
17.64 0 0
17.68 0 0
17.72 0 0
17.76 0 0
17.8 0 0
17.84 0 0
17.88 0 0
17.92 0 0
17.96 0 0
18 0 0
18.04 0 0
18.08 0 0
18.12 0 0
18.16 0 0
18.2 0 0
18.24 0 0
18.28 0 0
18.32 0 0
18.36 0 0
18.4 0 0
18.44 0 0
18.48 0 0
18.52 0 0
18.56 0 0
18.6 0 0
18.64 0 0
18.68 0 0
18.72 0 0
18.76 0 0
18.8 0 0
18.84 0 0
18.88 0 0
18.92 0 0
18.96 0 0
19 0 0
19.04 0 0
19.08 0 0
19.12 0 0
19.16 0 0
19.2 0 0
19.24 0 0
19.28 0 0
19.32 0 0
19.36 0 0
19.4 0 0
19.44 0 0
19.48 0 0
19.52 0 0
19.56 0 0
19.6 0 0
19.64 0 0
19.68 0 0
19.72 0 0
19.76 0 0
19.8 0 0
19.84 0 0
19.88 0 0
19.92 0 0
19.96 0 0
20 0 0
20.04 0 0
20.08 0 0
20.12 0 0
20.16 0 0
20.2 0 0
20.24 0 0
20.28 0 0
20.32 0 0
20.36 0 0
20.4 0 0
20.44 0 0
20.48 0 0
20.52 0 0
20.56 0 0
20.6 0 0
20.64 0 0
20.68 0 0
20.72 0 0
20.76 0 0
20.8 0 0
20.84 0 0
20.88 0 0
20.92 0 0
20.96 0 0
21 0 0
21.04 0 0
21.08 0 0
21.12 0 0
21.16 0 0
21.2 0 0
21.24 0 0
21.28 0 0
21.32 0 0
21.36 0 0
21.4 0 0
21.44 0 0
21.48 0 0
21.52 0 0
21.56 0 0
21.6 0 0
21.64 0 0
21.68 0 0
21.72 0 0
21.76 0 0
21.8 0 0
21.84 0 0
21.88 0 0
21.92 0 0
21.96 0 0
22 0 0
22.04 0 0
22.08 0 0
22.12 0 0
22.16 0 0
22.2 0 0
22.24 0 0
22.28 0 0
22.32 0 0
22.36 0 0
22.4 0 0
22.44 0 0
22.48 0 0
22.52 0 0
22.56 0 0
22.6 0 0
22.64 0 0
22.68 0 0
22.72 0 0
22.76 0 0
22.8 0 0
22.84 0 0
22.88 0 0
22.92 0 0
22.96 0 0
23 0 0
23.04 0 0
23.08 0 0
23.12 0 0
23.16 0 0
23.2 0 0
23.24 0 0
23.28 0 0
23.32 0 0
23.36 0 0
23.4 0 0
23.44 0 0
23.48 0 0
23.52 0 0
23.56 0 0
23.6 0 0
23.64 0 0
23.68 0 0
23.72 0 0
23.76 0 0
23.8 0 0
23.84 0 0
23.88 0 0
23.92 0 0
23.96 0 0
24 0 0
24.04 0 0
24.08 0 0
24.12 0 0
24.16 0 0
24.2 0 0
24.24 0 0
24.28 0 0
24.32 0 0
24.36 0 0
24.4 0 0
24.44 0 0
24.48 0 0
24.52 0 0
24.56 0 0
24.6 0 0
24.64 0 0
24.68 0 0
24.72 0 0
24.76 0 0
24.8 0 0
24.84 0 0
24.88 0 0
24.92 0 0
24.96 0 0
25 0 0
25.04 0 0
25.08 0 0
25.12 0 0
25.16 0 0
25.2 0 0
25.24 0 0
25.28 0 0
25.32 0 0
25.36 0 0
25.4 0 0
25.44 0 0
25.48 0 0
25.52 0 0
25.56 0 0
25.6 0 0
25.64 0 0
25.68 0 0
25.72 0 0
25.76 0 0
25.8 0 0
25.84 0 0
25.88 0 0
25.92 0 0
25.96 0 0
26 0 0
26.04 0 0
26.08 0 0
26.12 0 0
26.16 0 0
26.2 0 0
26.24 0 0
26.28 0 0
26.32 0 0
26.36 0 0
26.4 0 0
26.44 0 0
26.48 0 0
26.52 0 0
26.56 0 0
26.6 0 0
26.64 0 0
26.68 0 0
26.72 0 0
26.76 0 0
26.8 0 0
26.84 0 0
26.88 0 0
26.92 0 0
26.96 0 0
27 0 0
27.04 0 0
27.08 0 0
27.12 0 0
27.16 0 0
27.2 0 0
27.24 0 0
27.28 0 0
27.32 0 0
27.36 0 0
27.4 0 0
27.44 0 0
27.48 0 0
27.52 0 0
27.56 0 0
27.6 0 0
27.64 0 0
27.68 0 0
27.72 0 0
27.76 0 0
27.8 0 0
27.84 0 0
27.88 0 0
27.92 0 0
27.96 0 0
28 0 0
28.04 0 0
28.08 0 0
28.12 0 0
28.16 0 0
28.2 0 0
28.24 0 0
28.28 0 0
28.32 0 0
28.36 0 0
28.4 0 0
28.44 0 0
28.48 0 0
28.52 0 0
28.56 0 0
28.6 0 0
28.64 0 0
28.68 0 0
28.72 0 0
28.76 0 0
28.8 0 0
28.84 0 0
28.88 0 0
28.92 0 0
28.96 0 0
29 0 0
29.04 0 0
29.08 0 0
29.12 0 0
29.16 0 0
29.2 0 0
29.24 0 0
29.28 0 0
29.32 0 0
29.36 0 0
29.4 0 0
29.44 0 0
29.48 0 0
29.52 0 0
29.56 0 0
29.6 0 0
29.64 0 0
29.68 0 0
29.72 0 0
29.76 0 0
29.8 0 0
29.84 0 0
29.88 0 0
29.92 0 0
29.96 0 0
30 0 0
30.04 0 0
30.08 0 0
30.12 0 0
30.16 0 0
30.2 0 0
30.24 0 0
30.28 0 0
30.32 0 0
30.36 0 0
30.4 0 0
30.44 0 0
30.48 0 0
30.52 0 0
30.56 0 0
30.6 0 0
30.64 0 0
30.68 0 0
30.72 0 0
30.76 0 0
30.8 0 0
30.84 0 0
30.88 0 0
30.92 0 0
30.96 0 0
31 0 0
31.04 0 0
31.08 0 0
31.12 0 0
31.16 0 0
31.2 0 0
31.24 0 0
31.28 0 0
31.32 0 0
31.36 0 0
31.4 0 0
31.44 0 0
31.48 0 0
31.52 0 0
31.56 0 0
31.6 0 0
31.64 0 0
31.68 0 0
31.72 0 0
31.76 0 0
31.8 0 0
31.84 0 0
31.88 0 0
31.92 0 0
31.96 0 0
0 0.005 0
0.04 0.005 0
0.08 0.005 0
0.12 0.005 0
0.16 0.005 0
0.2 0.005 0
0.24 0.005 0
0.28 0.005 0
0.32 0.005 0
0.36 0.005 0
0.4 0.005 0
0.44 0.005 0
0.48 0.005 0
0.52 0.005 0
0.56 0.005 0
0.6 0.005 0
0.64 0.005 0
0.68 0.005 0
0.72 0.005 0
0.76 0.005 0
0.8 0.005 0
0.84 0.005 0
0.88 0.005 0
0.92 0.005 0
0.96 0.005 0
1 0.005 0
1.04 0.005 0
1.08 0.005 0
1.12 0.005 0
1.16 0.005 0
1.2 0.005 0
1.24 0.005 0
1.28 0.005 0
1.32 0.005 0
1.36 0.005 0
1.4 0.005 0
1.44 0.005 0
1.48 0.005 0
1.52 0.005 0
1.56 0.005 0
1.6 0.005 0
1.64 0.005 0
1.68 0.005 0
1.72 0.005 0
1.76 0.005 0
1.8 0.005 0
1.84 0.005 0
1.88 0.005 0
1.92 0.005 0
1.96 0.005 0
2 0.005 0
2.04 0.005 0
2.08 0.005 0
2.12 0.005 0
2.16 0.005 0
2.2 0.005 0
2.24 0.005 0
2.28 0.005 0
2.32 0.005 0
2.36 0.005 0
2.4 0.005 0
2.44 0.005 0
2.48 0.005 0
2.52 0.005 0
2.56 0.005 0
2.6 0.005 0
2.64 0.005 0
2.68 0.005 0
2.72 0.005 0
2.76 0.005 0
2.8 0.005 0
2.84 0.005 0
2.88 0.005 0
2.92 0.005 0
2.96 0.005 0
3 0.005 0
3.04 0.005 0
3.08 0.005 0
3.12 0.005 0
3.16 0.005 0
3.2 0.005 0
3.24 0.005 0
3.28 0.005 0
3.32 0.005 0
3.36 0.005 0
3.4 0.005 0
3.44 0.005 0
3.48 0.005 0
3.52 0.005 0
3.56 0.005 0
3.6 0.005 0
3.64 0.005 0
3.68 0.005 0
3.72 0.005 0
3.76 0.005 0
3.8 0.005 0
3.84 0.005 0
3.88 0.005 0
3.92 0.005 0
3.96 0.005 0
4 0.005 0
4.04 0.005 0
4.08 0.005 0
4.12 0.005 0
4.16 0.005 0
4.2 0.005 0
4.24 0.005 0
4.28 0.005 0
4.32 0.005 0
4.36 0.005 0
4.4 0.005 0
4.44 0.005 0
4.48 0.005 0
4.52 0.005 0
4.56 0.005 0
4.6 0.005 0
4.64 0.005 0
4.68 0.005 0
4.72 0.005 0
4.76 0.005 0
4.8 0.005 0
4.84 0.005 0
4.88 0.005 0
4.92 0.005 0
4.96 0.005 0
5 0.005 0
5.04 0.005 0
5.08 0.005 0
5.12 0.005 0
5.16 0.005 0
5.2 0.005 0
5.24 0.005 0
5.28 0.005 0
5.32 0.005 0
5.36 0.005 0
5.4 0.005 0
5.44 0.005 0
5.48 0.005 0
5.52 0.005 0
5.56 0.005 0
5.6 0.005 0
5.64 0.005 0
5.68 0.005 0
5.72 0.005 0
5.76 0.005 0
5.8 0.005 0
5.84 0.005 0
5.88 0.005 0
5.92 0.005 0
5.96 0.005 0
6 0.005 0
6.04 0.005 0
6.08 0.005 0
6.12 0.005 0
6.16 0.005 0
6.2 0.005 0
6.24 0.005 0
6.28 0.005 0
6.32 0.005 0
6.36 0.005 0
6.4 0.005 0
6.44 0.005 0
6.48 0.005 0
6.52 0.005 0
6.56 0.005 0
6.6 0.005 0
6.64 0.005 0
6.68 0.005 0
6.72 0.005 0
6.76 0.005 0
6.8 0.005 0
6.84 0.005 0
6.88 0.005 0
6.92 0.005 0
6.96 0.005 0
7 0.005 0
7.04 0.005 0
7.08 0.005 0
7.12 0.005 0
7.16 0.005 0
7.2 0.005 0
7.24 0.005 0
7.28 0.005 0
7.32 0.005 0
7.36 0.005 0
7.4 0.005 0
[...]
POINT_DATA 160000

SCALARS u float 1
LOOKUP_TABLE default
-1
-0.483358
-0.183963
-0.108845
-0.0810331
-0.0668337
-0.0581182
-0.0521527
-0.0477775
-0.0444146
-0.0417413
-0.0395615
-0.0377483
-0.0362153
-0.0349016
-0.0337625
-0.0327648
-0.0318831
-0.0310975
-0.0303924
-0.0297554
-0.0291764
-0.0286473
-0.0281612
-0.0277126
-0.0272969
-0.02691
-0.0265489
-0.0262105
-0.0258926
-0.025593
-0.0253101
-0.0250423
-0.0247882
-0.0245466
-0.0243166
-0.0240972
-0.0238876
-0.0236871
-0.023495
-0.0233108
-0.0231339
-0.0229638
-0.0228002
-0.0226427
-0.0224908
-0.0223443
-0.0222028
-0.0220661
-0.0219339
-0.021806
-0.0216821
-0.0215622
-0.0214458
-0.021333
-0.0212235
-0.0211172
-0.0210138
-0.0209134
-0.0208158
-0.0207208
-0.0206283
-0.0205383
-0.0204505
-0.0203651
-0.0202817
-0.0202004
-0.0201211
-0.0200438
-0.0199682
-0.0198944
-0.0198223
-0.0197519
-0.019683
-0.0196157
-0.0195498
-0.0194854
-0.0194223
-0.0193606
-0.0193001
-0.0192409
-0.0191829
-0.0191261
-0.0190704
-0.0190158
-0.0189623
-0.0189098
-0.0188583
-0.0188078
-0.0187582
-0.0187095
-0.0186617
-0.0186148
-0.0185687
-0.0185234
-0.018479
-0.0184353
-0.0183923
-0.0183501
-0.0183086
-0.0182679
-0.0182277
-0.0181883
-0.0181495
-0.0181113
-0.0180737
-0.0180367
-0.0180003
-0.0179645
-0.0179293
-0.0178945
-0.0178603
-0.0178267
-0.0177935
-0.0177608
-0.0177287
-0.017697
-0.0176657
-0.0176349
-0.0176046
-0.0175746
-0.0175452
-0.0175161
-0.0174874
-0.0174592
-0.0174313
-0.0174038
-0.0173767
-0.0173499
-0.0173235
-0.0172975
-0.0172718
-0.0172465
-0.0172214
-0.0171968
-0.0171724
-0.0171484
-0.0171246
-0.0171012
-0.017078
-0.0170552
-0.0170326
-0.0170104
-0.0169884
-0.0169667
-0.0169452
-0.016924
-0.0169031
-0.0168824
-0.016862
-0.0168418
-0.0168219
-0.0168022
-0.0167828
-0.0167635
-0.0167445
-0.0167257
-0.0167072
-0.0166889
-0.0166707
-0.0166528
-0.0166351
-0.0166176
-0.0166003
-0.0165832
-0.0165663
-0.0165496
-0.016533
-0.0165167
-0.0165005
-0.0164845
-0.0164687
-0.0164531
-0.0164377
-0.0164224
-0.0164073
-0.0163923
-0.0163776
-0.0163629
-0.0163485
-0.0163342
-0.01632
-0.016306
-0.0162922
-0.0162785
-0.0162649
-0.0162515
-0.0162383
-0.0162252
-0.0162122
-0.0161993
-0.0161866
-0.0161741
-0.0161616
-0.0161493
-0.0161371
-0.0161251
-0.0161132
-0.0161014
-0.0160897
-0.0160781
-0.0160667
-0.0160554
-0.0160442
-0.0160331
-0.0160221
-0.0160113
-0.0160005
-0.0159899
-0.0159794
-0.015969
-0.0159587
-0.0159484
-0.0159383
-0.0159283
-0.0159185
-0.0159087
-0.015899
-0.0158894
-0.0158799
-0.0158704
-0.0158611
-0.0158519
-0.0158428
-0.0158338
-0.0158248
-0.015816
-0.0158072
-0.0157985
-0.0157899
-0.0157814
-0.015773
-0.0157647
-0.0157564
-0.0157482
-0.0157401
-0.0157321
-0.0157242
-0.0157163
-0.0157086
-0.0157009
-0.0156932
-0.0156857
-0.0156782
-0.0156708
-0.0156635
-0.0156562
-0.015649
-0.0156419
-0.0156349
-0.0156279
-0.015621
-0.0156142
-0.0156074
-0.0156007
-0.015594
-0.0155874
-0.0155809
-0.0155745
-0.0155681
-0.0155618
-0.0155555
-0.0155493
-0.0155431
-0.0155371
-0.015531
-0.0155251
-0.0155192
-0.0155133
-0.0155075
-0.0155018
-0.0154961
-0.0154904
-0.0154849
-0.0154793
-0.0154739
-0.0154684
-0.0154631
-0.0154578
-0.0154525
-0.0154473
-0.0154421
-0.015437
-0.0154319
-0.0154269
-0.0154219
-0.015417
-0.0154121
-0.0154073
-0.0154025
-0.0153978
-0.0153931
-0.0153884
-0.0153838
-0.0153792
-0.0153747
-0.0153702
-0.0153658
-0.0153614
-0.0153571
-0.0153527
-0.0153485
-0.0153442
-0.0153401
-0.0153359
-0.0153318
-0.0153277
-0.0153237
-0.0153197
-0.0153157
-0.0153118
-0.0153079
-0.015304
-0.0153002
-0.0152964
-0.0152927
-0.015289
-0.0152853
-0.0152817
-0.0152781
-0.0152745
-0.0152709
-0.0152674
-0.0152639
-0.0152605
-0.0152571
-0.0152537
-0.0152504
-0.015247
-0.0152437
-0.0152405
-0.0152372
-0.015234
-0.0152309
-0.0152277
-0.0152246
-0.0152215
-0.0152185
-0.0152154
-0.0152124
-0.0152095
-0.0152065
-0.0152036
-0.0152007
-0.0151978
-0.015195
-0.0151922
-0.0151894
-0.0151866
-0.0151839
-0.0151811
-0.0151785
-0.0151758
-0.0151731
-0.0151705
-0.0151679
-0.0151653
-0.0151628
-0.0151603
-0.0151578
-0.0151553
-0.0151528
-0.0151504
-0.0151479
-0.0151456
-0.0151432
-0.0151408
-0.0151385
-0.0151362
-0.0151339
-0.0151316
-0.0151293
-0.0151271
-0.0151249
-0.0151227
-0.0151205
-0.0151184
-0.0151162
-0.0151141
-0.015112
-0.0151099
-0.0151078
-0.0151058
-0.0151038
-0.0151017
-0.0150998
-0.0150978
-0.0150958
-0.0150939
-0.0150919
-0.01509
-0.0150881
-0.0150862
-0.0150844
-0.0150825
-0.0150807
-0.0150789
-0.0150771
-0.0150753
-0.0150735
-0.0150718
-0.01507
-0.0150683
-0.0150666
-0.0150649
-0.0150632
-0.0150615
-0.0150599
-0.0150582
-0.0150566
-0.015055
-0.0150534
-0.0150518
-0.0150502
-0.0150487
-0.0150471
-0.0150456
-0.0150441
-0.0150425
-0.0150411
-0.0150396
-0.0150381
-0.0150366
-0.0150352
-0.0150338
-0.0150324
-0.0150309
-0.0150295
-0.0150282
-0.0150268
-0.0150254
-0.0150241
-0.0150228
-0.0150214
-0.0150201
-0.0150188
-0.0150176
-0.0150163
-0.015015
-0.0150138
-0.0150125
-0.0150113
-0.0150101
-0.0150089
-0.0150077
-0.0150065
-0.0150053
-0.0150042
-0.015003
-0.0150019
-0.0150008
-0.0149997
-0.0149986
-0.0149975
-0.0149964
-0.0149953
-0.0149943
-0.0149932
-0.0149922
-0.0149912
-0.0149902
-0.0149892
-0.0149882
-0.0149872
-0.0149862
-0.0149853
-0.0149843
-0.0149834
-0.0149825
-0.0149816
-0.0149807
-0.0149798
-0.0149789
-0.014978
-0.0149772
-0.0149763
-0.0149755
-0.0149746
-0.0149738
-0.014973
-0.0149722
-0.0149714
-0.0149706
-0.0149698
-0.0149691
-0.0149683
-0.0149676
-0.0149669
-0.0149661
-0.0149654
-0.0149647
-0.014964
-0.0149633
-0.0149626
-0.014962
-0.0149613
-0.0149606
-0.01496
-0.0149594
-0.0149587
-0.0149581
-0.0149575
-0.0149569
-0.0149563
-0.0149557
-0.0149551
-0.0149545
-0.014954
-0.0149534
-0.0149528
-0.0149523
-0.0149518
-0.0149512
-0.0149507
-0.0149502
-0.0149497
-0.0149492
-0.0149487
-0.0149482
-0.0149477
-0.0149472
-0.0149467
-0.0149462
-0.0149458
-0.0149453
-0.0149448
-0.0149444
-0.0149439
-0.0149435
-0.0149431
-0.0149426
-0.0149422
-0.0149418
-0.0149414
-0.0149409
-0.0149405
-0.0149401
-0.0149397
-0.0149393
-0.0149389
-0.0149385
-0.0149381
-0.0149378
-0.0149374
-0.014937
-0.0149366
-0.0149363
-0.0149359
-0.0149355
-0.0149351
-0.0149348
-0.0149344
-0.0149341
-0.0149337
-0.0149334
-0.014933
-0.0149327
-0.0149323
-0.014932
-0.0149316
-0.0149313
-0.0149309
-0.0149306
-0.0149303
-0.0149299
-0.0149296
-0.0149293
-0.0149289
-0.0149286
-0.0149283
-0.014928
-0.0149276
-0.0149273
-0.014927
-0.0149267
-0.0149263
-0.014926
-0.0149257
-0.0149254
-0.0149251
-0.0149247
-0.0149244
-0.0149241
-0.0149238
-0.0149235
-0.0149232
-0.0149228
-0.0149225
-0.0149222
-0.0149219
-0.0149216
-0.0149213
-0.014921
-0.0149207
-0.0149203
-0.01492
-0.0149197
-0.0149194
-0.0149191
-0.0149188
-0.0149185
-0.0149182
-0.0149179
-0.0149175
-0.0149172
-0.0149169
-0.0149166
-0.0149163
-0.014916
-0.0149157
-0.0149154
-0.0149151
-0.0149148
-0.0149144
-0.0149141
-0.0149138
-0.0149135
-0.0149132
-0.0149129
-0.0149126
-0.0149123
-0.014912
-0.0149117
-0.0149114
-0.014911
-0.0149107
-0.0149104
-0.0149101
-0.0149098
-0.0149095
-0.0149092
-0.0149089
-0.0149086
-0.0149083
-0.014908
-0.0149076
-0.0149073
-0.014907
-0.0149067
-0.0149064
-0.0149061
-0.0149058
-0.0149055
-0.0149052
-0.0149049
-0.0149046
-0.0149042
-0.0149039
-0.0149036
-0.0149033
-0.014903
-0.0149027
-0.0149024
-0.0149021
-0.0149018
-0.0149015
-0.0149012
-0.0149008
-0.0149005
-0.0149002
-0.0148999
-0.0148996
-0.0148993
-0.014899
-0.0148987
-0.0148984
-0.0148981
-0.0148978
-0.0148974
-0.0148971
-0.0148968
-0.0148965
-0.0148962
-0.0148959
-0.0148956
-0.0148953
-0.014895
-0.0148947
-0.0148944
-0.014894
-0.0148937
-0.0148934
-0.0148931
-0.0148928
-0.0148925
-0.0148922
-0.0148919
-0.0148916
-0.0148913
-0.014891
-0.0148906
-0.0148903
-0.01489
-0.0148897
-0.0148894
-0.0148891
-0.0148888
-0.0148885
-0.0148882
-0.0148879
-0.0148876
-0.0148872
-0.0148869
-0.0148866
-0.0148863
-0.014886
-0.0148857
-0.0148854
-0.0148851
-0.0148848
-0.0148845
-0.0148842
-0.0148838
-0.0148835
-0.0148832
-0.0148829
-0.0148826
-0.0148823
-0.014882
-0.0148817
-0.0148814
-0.0148811
-0.0148808
-0.0148805
-0.0148801
-0.0148798
-0.0148795
-0.0148792
-0.0148789
-0.0148786
-0.0148783
-0.014878
-0.0148777
-0.0148774
-0.0148771
-0.0148767
-0.0148764
-0.0148761
-0.0148758
-0.0148755
-0.0148752
-0.0148749
-0.0148746
-0.0148743
-0.014874
-0.0148737
-0.0148733
-0.014873
-0.0148727
-0.0148724
-0.0148721
-0.0148718
-0.0148715
-0.0148712
-0.0148709
-0.0148706
-0.0148703
-0.0148699
-0.0148696
-0.0148693
-0.014869
-0.0148687
-0.0148684
-0.0148681
-0.0148678
-0.0148675
-0.0148672
-0.0148669
-0.0148665
-0.0148662
-0.0148659
-0.0148656
-0.0148653
-0.014865
-0.0148647
-0.0148644
-0.0148641
-0.0148637
-0.0148634
-0.0148631
-0.0148628
-0.0148625
-0.0148621
-0.0148618
-0.0148615
-0.0148611
-0.0148608
-0.0148604
-0.01486
-0.0148597
-0.0148592
-0.0148588
-0.0148583
-0.0148578
-0.0148571
-0.0148564
-0.0148554
-0.014855
-0.014855
-0.014855
1
0.483358
0.183963
0.108845
0.0810331
0.0668337
0.0581182
0.0521527
0.0477775
0.0444146
0.0417413
0.0395615
0.0377483
0.0362153
0.0349016
0.0337625
0.0327648
0.0318831
0.0310975
0.0303924
0.0297554
0.0291764
0.0286473
0.0281612
0.0277126
0.0272969
0.02691
0.0265489
0.0262105
0.0258926
0.025593
0.0253101
0.0250423
0.0247882
0.0245466
0.0243166
0.0240972
0.0238876
0.0236871
0.023495
0.0233108
0.0231339
0.0229638
0.0228002
0.0226427
0.0224908
0.0223443
0.0222028
0.0220661
0.0219339
0.021806
0.0216821
0.0215622
0.0214458
0.021333
0.0212235
0.0211172
0.0210138
0.0209134
0.0208158
0.0207208
0.0206283
0.0205383
0.0204505
0.0203651
0.0202817
0.0202004
0.0201211
0.0200438
0.0199682
0.0198944
0.0198223
0.0197519
0.019683
0.0196157
0.0195498
0.0194854
0.0194223
0.0193606
0.0193001
0.0192409
0.0191829
0.0191261
0.0190704
0.0190158
0.0189623
0.0189098
0.0188583
0.0188078
0.0187582
0.0187095
0.0186617
0.0186148
0.0185687
0.0185234
0.018479
0.0184353
0.0183923
0.0183501
0.0183086
0.0182679
0.0182277
0.0181883
0.0181495
0.0181113
0.0180737
0.0180367
0.0180003
0.0179645
0.0179293
0.0178945
0.0178603
0.0178267
0.0177935
0.0177608
0.0177287
0.017697
0.0176657
0.0176349
0.0176046
0.0175746
0.0175452
0.0175161
0.0174874
0.0174592
0.0174313
0.0174038
0.0173767
0.0173499
0.0173235
0.0172975
0.0172718
0.0172465
0.0172214
0.0171968
0.0171724
0.0171484
0.0171246
0.0171012
0.017078
0.0170552
0.0170326
0.0170104
0.0169884
0.0169667
0.0169452
0.016924
0.0169031
0.0168824
0.016862
0.0168418
0.0168219
0.0168022
0.0167828
0.0167635
0.0167445
0.0167257
0.0167072
0.0166889
0.0166707
0.0166528
0.0166351
0.0166176
0.0166003
0.0165832
0.0165663
0.0165496
0.016533
0.0165167
0.0165005
0.0164845
0.0164687
0.0164531
0.0164377
0.0164224
0.0164073
0.0163923
0.0163776
0.0163629
0.0163485
0.0163342
0.01632
0.016306
0.0162922
0.0162785
0.0162649
0.0162515
0.0162383
0.0162252
0.0162122
0.0161993
0.0161866
0.0161741
0.0161616
0.0161493
0.0161371
0.0161251
0.0161132
0.0161014
0.0160897
0.0160781
0.0160667
0.0160554
0.0160442
0.0160331
0.0160221
0.0160113
0.0160005
0.0159899
0.0159794
0.015969
0.0159587
0.0159484
0.0159383
0.0159283
0.0159185
0.0159087
0.015899
0.0158894
0.0158799
0.0158704
0.0158611
0.0158519
0.0158428
0.0158338
0.0158248
0.015816
0.0158072
0.0157985
0.0157899
0.0157814
0.015773
0.0157647
0.0157564
0.0157482
0.0157401
0.0157321
0.0157242
0.0157163
0.0157086
0.0157009
0.0156932
0.0156857
0.0156782
0.0156708
0.0156635
0.0156562
0.015649
0.0156419
0.0156349
0.0156279
0.015621
0.0156142
0.0156074
0.0156007
0.015594
0.0155874
0.0155809
0.0155745
0.0155681
0.0155618
0.0155555
0.0155493
0.0155431
0.0155371
0.015531
0.0155251
0.0155192
0.0155133
0.0155075
0.0155018
0.0154961
0.0154904
0.0154849
0.0154793
0.0154739
0.0154684
0.0154631
0.0154578
0.0154525
0.0154473
0.0154421
0.015437
0.0154319
0.0154269
0.0154219
0.015417
0.0154121
0.0154073
0.0154025
0.0153978
0.0153931
0.0153884
0.0153838
0.0153792
0.0153747
0.0153702
0.0153658
0.0153614
0.0153571
0.0153527
0.0153485
0.0153442
0.0153401
0.0153359
0.0153318
0.0153277
0.0153237
0.0153197
0.0153157
0.0153118
0.0153079
0.015304
0.0153002
0.0152964
0.0152927
0.015289
0.0152853
0.0152817
0.0152781
0.0152745
0.0152709
0.0152674
0.0152639
0.0152605
0.0152571
0.0152537
0.0152504
0.015247
0.0152437
0.0152405
0.0152372
0.015234
0.0152309
0.0152277
0.0152246
0.0152215
0.0152185
0.0152154
0.0152124
0.0152095
0.0152065
0.0152036
0.0152007
0.0151978
0.015195
0.0151922
0.0151894
0.0151866
0.0151839
0.0151811
0.0151785
0.0151758
0.0151731
0.0151705
0.0151679
0.0151653
0.0151628
0.0151603
0.0151578
0.0151553
0.0151528
0.0151504
0.0151479
0.0151456
0.0151432
0.0151408
0.0151385
0.0151362
0.0151339
0.0151316
0.0151293
0.0151271
0.0151249
0.0151227
0.0151205
0.0151184
0.0151162
0.0151141
0.015112
0.0151099
0.0151078
0.0151058
0.0151038
0.0151017
0.0150998
0.0150978
0.0150958
0.0150939
0.0150919
0.01509
0.0150881
0.0150862
0.0150844
0.0150825
0.0150807
0.0150789
0.0150771
0.0150753
0.0150735
0.0150718
0.01507
0.0150683
0.0150666
0.0150649
0.0150632
0.0150615
0.0150599
0.0150582
0.0150566
0.015055
0.0150534
0.0150518
0.0150502
0.0150487
0.0150471
0.0150456
0.0150441
0.0150425
0.0150411
0.0150396
0.0150381
0.0150366
0.0150352
0.0150338
0.0150324
0.0150309
0.0150295
0.0150282
0.0150268
0.0150254
0.0150241
0.0150228
0.0150214
0.0150201
0.0150188
0.0150176
0.0150163
0.015015
0.0150138
0.0150125
0.0150113
0.0150101
0.0150089
0.0150077
0.0150065
0.0150053
0.0150042
0.015003
0.0150019
0.0150008
0.0149997
0.0149986
0.0149975
0.0149964
0.0149953
0.0149943
0.0149932
0.0149922
0.0149912
0.0149902
0.0149892
0.0149882
0.0149872
0.0149862
0.0149853
0.0149843
0.0149834
0.0149825
0.0149816
0.0149807
0.0149798
0.0149789
0.014978
0.0149772
0.0149763
0.0149755
0.0149746
0.0149738
0.014973
0.0149722
0.0149714
0.0149706
0.0149698
0.0149691
0.0149683
0.0149676
0.0149669
0.0149661
0.0149654
0.0149647
0.014964
0.0149633
0.0149626
0.014962
0.0149613
0.0149606
0.01496
0.0149594
0.0149587
0.0149581
0.0149575
0.0149569
0.0149563
0.0149557
0.0149551
0.0149545
0.014954
0.0149534
0.0149528
0.0149523
0.0149518
0.0149512
0.0149507
0.0149502
0.0149497
0.0149492
0.0149487
0.0149482
0.0149477
0.0149472
0.0149467
0.0149462
0.0149458
0.0149453
0.0149448
0.0149444
0.0149439
0.0149435
0.0149431
0.0149426
0.0149422
0.0149418
0.0149414
0.0149409
0.0149405
0.0149401
0.0149397
0.0149393
0.0149389
0.0149385
0.0149381
0.0149378
0.0149374
0.014937
0.0149366
0.0149363
0.0149359
0.0149355
0.0149351
0.0149348
0.0149344
0.0149341
0.0149337
0.0149334
0.014933
0.0149327
0.0149323
0.014932
0.0149316
0.0149313
0.0149309
0.0149306
0.0149303
0.0149299
0.0149296
0.0149293
0.0149289
0.0149286
0.0149283
0.014928
0.0149276
0.0149273
0.014927
0.0149267
0.0149263
0.014926
0.0149257
0.0149254
0.0149251
0.0149247
0.0149244
0.0149241
0.0149238
0.0149235
0.0149232
0.0149228
0.0149225
0.0149222
0.0149219
0.0149216
0.0149213
0.014921
0.0149207
0.0149203
0.01492
0.0149197
0.0149194
0.0149191
0.0149188
0.0149185
0.0149182
0.0149179
0.0149175
0.0149172
0.0149169
0.0149166
0.0149163
0.014916
0.0149157
0.0149154
0.0149151
0.0149148
0.0149144
0.0149141
0.0149138
0.0149135
0.0149132
0.0149129
0.0149126
0.0149123
0.014912
0.0149117
0.0149114
0.014911
0.0149107
0.0149104
0.0149101
0.0149098
0.0149095
0.0149092
0.0149089
0.0149086
0.0149083
0.014908
0.0149076
0.0149073
0.014907
0.0149067
0.0149064
0.0149061
0.0149058
0.0149055
0.0149052
0.0149049
0.0149046
0.0149042
0.0149039
0.0149036
0.0149033
0.014903
0.0149027
0.0149024
0.0149021
0.0149018
0.0149015
0.0149012
0.0149008
0.0149005
0.0149002
0.0148999
0.0148996
0.0148993
0.014899
0.0148987
0.0148984
0.0148981
0.0148978
0.0148974
0.0148971
0.0148968
0.0148965
0.0148962
0.0148959
0.0148956
0.0148953
0.014895
0.0148947
0.0148944
0.014894
0.0148937
0.0148934
0.0148931
0.0148928
0.0148925
0.0148922
0.0148919
0.0148916
0.0148913
0.014891
0.0148906
0.0148903
0.01489
0.0148897
0.0148894
0.0148891
0.0148888
0.0148885
0.0148882
0.0148879
0.0148876
0.0148872
0.0148869
0.0148866
0.0148863
0.014886
0.0148857
0.0148854
0.0148851
0.0148848
0.0148845
0.0148842
0.0148838
0.0148835
0.0148832
0.0148829
0.0148826
0.0148823
0.014882
0.0148817
0.0148814
0.0148811
0.0148808
0.0148805
0.0148801
0.0148798
0.0148795
0.0148792
0.0148789
0.0148786
0.0148783
0.014878
0.0148777
0.0148774
0.0148771
0.0148767
0.0148764
0.0148761
0.0148758
0.0148755
0.0148752
0.0148749
0.0148746
0.0148743
0.014874
0.0148737
0.0148733
0.014873
0.0148727
0.0148724
0.0148721
0.0148718
0.0148715
0.0148712
0.0148709
0.0148706
0.0148703
0.0148699
0.0148696
0.0148693
0.014869
0.0148687
0.0148684
0.0148681
0.0148678
0.0148675
0.0148672
0.0148669
0.0148665
0.0148662
0.0148659
0.0148656
0.0148653
0.014865
0.0148647
0.0148644
0.0148641
0.0148637
0.0148634
0.0148631
0.0148628
0.0148625
0.0148621
0.0148618
0.0148615
0.0148611
0.0148608
0.0148604
0.01486
0.0148597
0.0148592
0.0148588
0.0148583
0.0148578
0.0148571
0.0148564
0.0148554
0.014855
0.014855
0.014855
1
0.969192
0.495616
0.314223
0.237897
0.197396
0.172133
0.154696
0.141842
0.131928
0.124028
0.117574
0.112197
0.107646
0.103742
0.100355
0.0973867
0.0947623
0.0924235
0.0903242
0.0884275
0.0867036
0.0851282
0.0836812
0.0823461
0.0811091
0.0799584
0.0788842
0.0778782
0.0769333
0.0760432
0.0752028
0.0744074
0.0736529
0.0729359
0.0722533
0.0716024
0.0709806
0.070386
0.0698165
0.0692703
0.068746
0.0682422
0.0677574
0.0672906
0.0668407
0.0664066
0.0659876
0.0655828
0.0651914
0.0648127
0.064446
0.0640908
0.0637465
0.0634125
0.0630884
0.0627737
0.062468
0.0621709
0.061882
0.0616009
0.0613273
0.0610609
0.0608014
0.0605485
0.060302
0.0600616
0.0598271
0.0595982
0.0593747
0.0591565
0.0589433
0.058735
0.0585314
0.0583323
0.0581375
0.057947
0.0577605
0.057578
0.0573993
0.0572243
0.0570529
0.0568849
0.0567203
0.0565589
0.0564006
0.0562454
0.0560932
0.0559438
0.0557973
0.0556534
0.0555122
0.0553735
0.0552373
0.0551036
0.0549722
0.054843
0.0547161
0.0545914
0.0544688
0.0543483
0.0542297
0.0541131
0.0539985
0.0538857
0.0537746
0.0536654
0.0535579
0.0534521
0.0533479
0.0532453
0.0531443
0.0530449
0.0529469
0.0528504
0.0527553
0.0526617
0.0525694
0.0524784
0.0523888
0.0523004
0.0522133
0.0521275
0.0520428
0.0519593
0.051877
0.0517958
0.0517157
0.0516367
0.0515588
0.0514819
0.0514061
0.0513312
0.0512574
0.0511845
0.0511125
0.0510415
0.0509714
0.0509022
0.0508339
0.0507665
0.0506999
0.0506342
0.0505692
0.0505051
0.0504418
0.0503792
0.0503175
0.0502564
0.0501961
0.0501366
0.0500777
0.0500196
0.0499622
0.0499054
0.0498493
0.0497939
0.0497392
0.049685
0.0496315
0.0495786
0.0495264
0.0494747
0.0494237
0.0493732
0.0493233
0.0492739
0.0492251
0.0491769
0.0491292
0.0490821
0.0490354
0.0489893
0.0489437
0.0488986
0.048854
0.0488099
0.0487663
0.0487232
0.0486805
0.0486383
0.0485966
0.0485553
0.0485144
0.048474
0.048434
0.0483945
0.0483554
0.0483167
0.0482784
0.0482405
0.048203
0.0481659
0.0481292
0.0480929
0.048057
0.0480215
0.0479863
0.0479515
0.047917
0.0478829
0.0478492
0.0478158
0.0477828
0.0477501
0.0477177
0.0476857
0.047654
0.0476227
0.0475916
0.0475609
0.0475305
0.0475004
0.0474706
0.0474411
0.0474119
0.047383
0.0473544
0.0473261
0.047298
0.0472703
0.0472428
0.0472156
0.0471887
0.0471621
0.0471357
0.0471096
0.0470837
0.0470581
0.0470328
0.0470077
0.0469829
0.0469583
0.046934
0.0469099
0.046886
0.0468624
0.046839
0.0468158
0.0467929
0.0467702
0.0467477
0.0467254
0.0467034
0.0466815
0.0466599
0.0466385
0.0466173
0.0465964
0.0465756
0.046555
0.0465346
0.0465145
0.0464945
0.0464747
0.0464551
0.0464357
0.0464165
0.0463975
0.0463786
0.04636
0.0463415
0.0463232
0.0463051
0.0462871
0.0462694
0.0462518
0.0462343
0.0462171
0.0462
0.046183
0.0461663
0.0461496
0.0461332
0.0461169
0.0461008
0.0460848
0.046069
0.0460533
0.0460377
0.0460224
0.0460071
0.045992
0.0459771
0.0459623
0.0459476
0.0459331
0.0459187
0.0459045
0.0458904
0.0458764
0.0458625
0.0458488
0.0458352
0.0458218
0.0458084
0.0457952
0.0457822
0.0457692
0.0457564
0.0457436
0.045731
0.0457186
0.0457062
0.045694
0.0456818
0.0456698
0.0456579
0.0456461
0.0456344
0.0456228
0.0456114
0.0456
0.0455888
0.0455776
0.0455666
0.0455556
0.0455448
0.045534
0.0455234
0.0455128
0.0455024
0.045492
0.0454818
0.0454716
0.0454615
0.0454516
0.0454417
0.0454319
0.0454222
0.0454126
0.045403
0.0453936
0.0453842
0.045375
0.0453658
0.0453567
0.0453477