# vtk DataFile Version 2.0
FlowField
ASCII
DATASET STRUCTURED_GRID
DIMENSIONS 800 1 200
POINTS 160000 float
0 0 0
0.04 0 0
0.08 0 0
0.12 0 0
0.16 0 0
0.2 0 0
0.24 0 0
0.28 0 0
0.32 0 0
0.36 0 0
0.4 0 0
0.44 0 0
0.48 0 0
0.52 0 0
0.56 0 0
0.6 0 0
0.64 0 0
0.68 0 0
0.72 0 0
0.76 0 0
0.8 0 0
0.84 0 0
0.88 0 0
0.92 0 0
0.96 0 0
1 0 0
1.04 0 0
1.08 0 0
1.12 0 0
1.16 0 0
1.2 0 0
1.24 0 0
1.28 0 0
1.32 0 0
1.36 0 0
1.4 0 0
1.44 0 0
1.48 0 0
1.52 0 0
1.56 0 0
1.6 0 0
1.64 0 0
1.68 0 0
1.72 0 0
1.76 0 0
1.8 0 0
1.84 0 0
1.88 0 0
1.92 0 0
1.96 0 0
2 0 0
2.04 0 0
2.08 0 0
2.12 0 0
2.16 0 0
2.2 0 0
2.24 0 0
2.28 0 0
2.32 0 0
2.36 0 0
2.4 0 0
2.44 0 0
2.48 0 0
2.52 0 0
2.56 0 0
2.6 0 0
2.64 0 0
2.68 0 0
2.72 0 0
2.76 0 0
2.8 0 0
2.84 0 0
2.88 0 0
2.92 0 0
2.96 0 0
3 0 0
3.04 0 0
3.08 0 0
3.12 0 0
3.16 0 0
3.2 0 0
3.24 0 0
3.28 0 0
3.32 0 0
3.36 0 0
3.4 0 0
3.44 0 0
3.48 0 0
3.52 0 0
3.56 0 0
3.6 0 0
3.64 0 0
3.68 0 0
3.72 0 0
3.76 0 0
3.8 0 0
3.84 0 0
3.88 0 0
3.92 0 0
3.96 0 0
4 0 0
4.04 0 0
4.08 0 0
4.12 0 0
4.16 0 0
4.2 0 0
4.24 0 0
4.28 0 0
4.32 0 0
4.36 0 0
4.4 0 0
4.44 0 0
4.48 0 0
4.52 0 0
4.56 0 0
4.6 0 0
4.64 0 0
4.68 0 0
4.72 0 0
4.76 0 0
4.8 0 0
4.84 0 0
4.88 0 0
4.92 0 0
4.96 0 0
5 0 0
5.04 0 0
5.08 0 0
5.12 0 0
5.16 0 0
5.2 0 0
5.24 0 0
5.28 0 0
5.32 0 0
5.36 0 0
5.4 0 0
5.44 0 0
5.48 0 0
5.52 0 0
5.56 0 0
5.6 0 0
5.64 0 0
5.68 0 0
5.72 0 0
5.76 0 0
5.8 0 0
5.84 0 0
5.88 0 0
5.92 0 0
5.96 0 0
6 0 0
6.04 0 0
6.08 0 0
6.12 0 0
6.16 0 0
6.2 0 0
6.24 0 0
6.28 0 0
6.32 0 0
6.36 0 0
6.4 0 0
6.44 0 0
6.48 0 0
6.52 0 0
6.56 0 0
6.6 0 0
6.64 0 0
6.68 0 0
6.72 0 0
6.76 0 0
6.8 0 0
6.84 0 0
6.88 0 0
6.92 0 0
6.96 0 0
7 0 0
7.04 0 0
7.08 0 0
7.12 0 0
7.16 0 0
7.2 0 0
7.24 0 0
7.28 0 0
7.32 0 0
7.36 0 0
7.4 0 0
7.44 0 0
7.48 0 0
7.52 0 0
7.56 0 0
7.6 0 0
7.64 0 0
7.68 0 0
7.72 0 0
7.76 0 0
7.8 0 0
7.84 0 0
7.88 0 0
7.92 0 0
7.96 0 0
8 0 0
8.04 0 0
8.08 0 0
8.12 0 0
8.16 0 0
8.2 0 0
8.24 0 0
8.28 0 0
8.32 0 0
8.36 0 0
8.4 0 0
8.44 0 0
8.48 0 0
8.52 0 0
8.56 0 0
8.6 0 0
8.64 0 0
8.68 0 0
8.72 0 0
8.76 0 0
8.8 0 0
8.84 0 0
8.88 0 0
8.92 0 0
8.96 0 0
9 0 0
9.04 0 0
9.08 0 0
9.12 0 0
9.16 0 0
9.2 0 0
9.24 0 0
9.28 0 0
9.32 0 0
9.36 0 0
9.4 0 0
9.44 0 0
9.48 0 0
9.52 0 0
9.56 0 0
9.6 0 0
9.64 0 0
9.68 0 0
9.72 0 0
9.76 0 0
9.8 0 0
9.84 0 0
9.88 0 0
9.92 0 0
9.96 0 0
10 0 0
10.04 0 0
10.08 0 0
10.12 0 0
10.16 0 0
10.2 0 0
10.24 0 0
10.28 0 0
10.32 0 0
10.36 0 0
10.4 0 0
10.44 0 0
10.48 0 0
10.52 0 0
10.56 0 0
10.6 0 0
10.64 0 0
10.68 0 0
10.72 0 0
10.76 0 0
10.8 0 0
10.84 0 0
10.88 0 0
10.92 0 0
10.96 0 0
11 0 0
11.04 0 0
11.08 0 0
11.12 0 0
11.16 0 0
11.2 0 0
11.24 0 0
11.28 0 0
11.32 0 0
11.36 0 0
11.4 0 0
11.44 0 0
11.48 0 0
11.52 0 0
11.56 0 0
11.6 0 0
11.64 0 0
11.68 0 0
11.72 0 0
11.76 0 0
11.8 0 0
11.84 0 0
11.88 0 0
11.92 0 0
11.96 0 0
12 0 0
12.04 0 0
12.08 0 0
12.12 0 0
12.16 0 0
12.2 0 0
12.24 0 0
12.28 0 0
12.32 0 0
12.36 0 0
12.4 0 0
12.44 0 0
12.48 0 0
12.52 0 0
12.56 0 0
12.6 0 0
12.64 0 0
12.68 0 0
12.72 0 0
12.76 0 0
12.8 0 0
12.84 0 0
12.88 0 0
12.92 0 0
12.96 0 0
13 0 0
13.04 0 0
13.08 0 0
13.12 0 0
13.16 0 0
13.2 0 0
13.24 0 0
13.28 0 0
13.32 0 0
13.36 0 0
13.4 0 0
13.44 0 0
13.48 0 0
13.52 0 0
13.56 0 0
13.6 0 0
13.64 0 0
13.68 0 0
13.72 0 0
13.76 0 0
13.8 0 0
13.84 0 0
13.88 0 0
13.92 0 0
13.96 0 0
14 0 0
14.04 0 0
14.08 0 0
14.12 0 0
14.16 0 0
14.2 0 0
14.24 0 0
14.28 0 0
14.32 0 0
14.36 0 0
14.4 0 0
14.44 0 0
14.48 0 0
14.52 0 0
14.56 0 0
14.6 0 0
14.64 0 0
14.68 0 0
14.72 0 0
14.76 0 0
14.8 0 0
14.84 0 0
14.88 0 0
14.92 0 0
14.96 0 0
15 0 0
15.04 0 0
15.08 0 0
15.12 0 0
15.16 0 0
15.2 0 0
15.24 0 0
15.28 0 0
15.32 0 0
15.36 0 0
15.4 0 0
15.44 0 0
15.48 0 0
15.52 0 0
15.56 0 0
15.6 0 0
15.64 0 0
15.68 0 0
15.72 0 0
15.76 0 0
15.8 0 0
15.84 0 0
15.88 0 0
15.92 0 0
15.96 0 0
16 0 0
16.04 0 0
16.08 0 0
16.12 0 0
16.16 0 0
16.2 0 0
16.24 0 0
16.28 0 0
16.32 0 0
16.36 0 0
16.4 0 0
16.44 0 0
16.48 0 0
16.52 0 0
16.56 0 0
16.6 0 0
16.64 0 0
16.68 0 0
16.72 0 0
16.76 0 0
16.8 0 0
16.84 0 0
16.88 0 0
16.92 0 0
16.96 0 0
17 0 0
17.04 0 0
17.08 0 0
17.12 0 0
17.16 0 0
17.2 0 0
17.24 0 0
17.28 0 0
17.32 0 0
17.36 0 0
17.4 0 0
17.44 0 0
17.48 0 0
17.52 0 0
17.56 0 0
17.6 0 0
17.64 0 0
17.68 0 0
17.72 0 0
17.76 0 0
17.8 0 0
17.84 0 0
17.88 0 0
17.92 0 0
17.96 0 0
18 0 0
18.04 0 0
18.08 0 0
18.12 0 0
18.16 0 0
18.2 0 0
18.24 0 0
18.28 0 0
18.32 0 0
18.36 0 0
18.4 0 0
18.44 0 0
18.48 0 0
18.52 0 0
18.56 0 0
18.6 0 0
18.64 0 0
18.68 0 0
18.72 0 0
18.76 0 0
18.8 0 0
18.84 0 0
18.88 0 0
18.92 0 0
18.96 0 0
19 0 0
19.04 0 0
19.08 0 0
19.12 0 0
19.16 0 0
19.2 0 0
19.24 0 0
19.28 0 0
19.32 0 0
19.36 0 0
19.4 0 0
19.44 0 0
19.48 0 0
19.52 0 0
19.56 0 0
19.6 0 0
19.64 0 0
19.68 0 0
19.72 0 0
19.76 0 0
19.8 0 0
19.84 0 0
19.88 0 0
19.92 0 0
19.96 0 0
20 0 0
20.04 0 0
20.08 0 0
20.12 0 0
20.16 0 0
20.2 0 0
20.24 0 0
20.28 0 0
20.32 0 0
20.36 0 0
20.4 0 0
20.44 0 0
20.48 0 0
20.52 0 0
20.56 0 0
20.6 0 0
20.64 0 0
20.68 0 0
20.72 0 0
20.76 0 0
20.8 0 0
20.84 0 0
20.88 0 0
20.92 0 0
20.96 0 0
21 0 0
21.04 0 0
21.08 0 0
21.12 0 0
21.16 0 0
21.2 0 0
21.24 0 0
21.28 0 0
21.32 0 0
21.36 0 0
21.4 0 0
21.44 0 0
21.48 0 0
21.52 0 0
21.56 0 0
21.6 0 0
21.64 0 0
21.68 0 0
21.72 0 0
21.76 0 0
21.8 0 0
21.84 0 0
21.88 0 0
21.92 0 0
21.96 0 0
22 0 0
22.04 0 0
22.08 0 0
22.12 0 0
22.16 0 0
22.2 0 0
22.24 0 0
22.28 0 0
22.32 0 0
22.36 0 0
22.4 0 0
22.44 0 0
22.48 0 0
22.52 0 0
22.56 0 0
22.6 0 0
22.64 0 0
22.68 0 0
22.72 0 0
22.76 0 0
22.8 0 0
22.84 0 0
22.88 0 0
22.92 0 0
22.96 0 0
23 0 0
23.04 0 0
23.08 0 0
23.12 0 0
23.16 0 0
23.2 0 0
23.24 0 0
23.28 0 0
23.32 0 0
23.36 0 0
23.4 0 0
23.44 0 0
23.48 0 0
23.52 0 0
23.56 0 0
23.6 0 0
23.64 0 0
23.68 0 0
23.72 0 0
23.76 0 0
23.8 0 0
23.84 0 0
23.88 0 0
23.92 0 0
23.96 0 0
24 0 0
24.04 0 0
24.08 0 0
24.12 0 0
24.16 0 0
24.2 0 0
24.24 0 0
24.28 0 0
24.32 0 0
24.36 0 0
24.4 0 0
24.44 0 0
24.48 0 0
24.52 0 0
24.56 0 0
24.6 0 0
24.64 0 0
24.68 0 0
24.72 0 0
24.76 0 0
24.8 0 0
24.84 0 0
24.88 0 0
24.92 0 0
24.96 0 0
25 0 0
25.04 0 0
25.08 0 0
25.12 0 0
25.16 0 0
25.2 0 0
25.24 0 0
25.28 0 0
25.32 0 0
25.36 0 0
25.4 0 0
25.44 0 0
25.48 0 0
25.52 0 0
25.56 0 0
25.6 0 0
25.64 0 0
25.68 0 0
25.72 0 0
25.76 0 0
25.8 0 0
25.84 0 0
25.88 0 0
25.92 0 0
25.96 0 0
26 0 0
26.04 0 0
26.08 0 0
26.12 0 0
26.16 0 0
26.2 0 0
26.24 0 0
26.28 0 0
26.32 0 0
26.36 0 0
26.4 0 0
26.44 0 0
26.48 0 0
26.52 0 0
26.56 0 0
26.6 0 0
26.64 0 0
26.68 0 0
26.72 0 0
26.76 0 0
26.8 0 0
26.84 0 0
26.88 0 0
26.92 0 0
26.96 0 0
27 0 0
27.04 0 0
27.08 0 0
27.12 0 0
27.16 0 0
27.2 0 0
27.24 0 0
27.28 0 0
27.32 0 0
27.36 0 0
27.4 0 0
27.44 0 0
27.48 0 0
27.52 0 0
27.56 0 0
27.6 0 0
27.64 0 0
27.68 0 0
27.72 0 0
27.76 0 0
27.8 0 0
27.84 0 0
27.88 0 0
27.92 0 0
27.96 0 0
28 0 0
28.04 0 0
28.08 0 0
28.12 0 0
28.16 0 0
28.2 0 0
28.24 0 0
28.28 0 0
28.32 0 0
28.36 0 0
28.4 0 0
28.44 0 0
28.48 0 0
28.52 0 0
28.56 0 0
28.6 0 0
28.64 0 0
28.68 0 0
28.72 0 0
28.76 0 0
28.8 0 0
28.84 0 0
28.88 0 0
28.92 0 0
28.96 0 0
29 0 0
29.04 0 0
29.08 0 0
29.12 0 0
29.16 0 0
29.2 0 0
29.24 0 0
29.28 0 0
29.32 0 0
29.36 0 0
29.4 0 0
29.44 0 0
29.48 0 0
29.52 0 0
29.56 0 0
29.6 0 0
29.64 0 0
29.68 0 0
29.72 0 0
29.76 0 0
29.8 0 0
29.84 0 0
29.88 0 0
29.92 0 0
29.96 0 0
30 0 0
30.04 0 0
30.08 0 0
30.12 0 0
30.16 0 0
30.2 0 0
30.24 0 0
30.28 0 0
30.32 0 0
30.36 0 0
30.4 0 0
30.44 0 0
30.48 0 0
30.52 0 0
30.56 0 0
30.6 0 0
30.64 0 0
30.68 0 0
30.72 0 0
30.76 0 0
30.8 0 0
30.84 0 0
30.88 0 0
30.92 0 0
30.96 0 0
31 0 0
31.04 0 0
31.08 0 0
31.12 0 0
31.16 0 0
31.2 0 0
31.24 0 0
31.28 0 0
31.32 0 0
31.36 0 0
31.4 0 0
31.44 0 0
31.48 0 0
31.52 0 0
31.56 0 0
31.6 0 0
31.64 0 0
31.68 0 0
31.72 0 0
31.76 0 0
31.8 0 0
31.84 0 0
31.88 0 0
31.92 0 0
31.96 0 0
0 0.005 0
0.04 0.005 0
0.08 0.005 0
0.12 0.005 0
0.16 0.005 0
0.2 0.005 0
0.24 0.005 0
0.28 0.005 0
0.32 0.005 0
0.36 0.005 0
0.4 0.005 0
0.44 0.005 0
0.48 0.005 0
0.52 0.005 0
0.56 0.005 0
0.6 0.005 0
0.64 0.005 0
0.68 0.005 0
0.72 0.005 0
0.76 0.005 0
0.8 0.005 0
0.84 0.005 0
0.88 0.005 0
0.92 0.005 0
0.96 0.005 0
1 0.005 0
1.04 0.005 0
1.08 0.005 0
1.12 0.005 0
1.16 0.005 0
1.2 0.005 0
1.24 0.005 0
1.28 0.005 0
1.32 0.005 0
1.36 0.005 0
1.4 0.005 0
1.44 0.005 0
1.48 0.005 0
1.52 0.005 0
1.56 0.005 0
1.6 0.005 0
1.64 0.005 0
1.68 0.005 0
1.72 0.005 0
1.76 0.005 0
1.8 0.005 0
1.84 0.005 0
1.88 0.005 0
1.92 0.005 0
1.96 0.005 0
2 0.005 0
2.04 0.005 0
2.08 0.005 0
2.12 0.005 0
2.16 0.005 0
2.2 0.005 0
2.24 0.005 0
2.28 0.005 0
2.32 0.005 0
2.36 0.005 0
2.4 0.005 0
2.44 0.005 0
2.48 0.005 0
2.52 0.005 0
2.56 0.005 0
2.6 0.005 0
2.64 0.005 0
2.68 0.005 0
2.72 0.005 0
2.76 0.005 0
2.8 0.005 0
2.84 0.005 0
2.88 0.005 0
2.92 0.005 0
2.96 0.005 0
3 0.005 0
3.04 0.005 0
3.08 0.005 0
3.12 0.005 0
3.16 0.005 0
3.2 0.005 0
3.24 0.005 0
3.28 0.005 0
3.32 0.005 0
3.36 0.005 0
3.4 0.005 0
3.44 0.005 0
3.48 0.005 0
3.52 0.005 0
3.56 0.005 0
3.6 0.005 0
3.64 0.005 0
3.68 0.005 0
3.72 0.005 0
3.76 0.005 0
3.8 0.005 0
3.84 0.005 0
3.88 0.005 0
3.92 0.005 0
3.96 0.005 0
4 0.005 0
4.04 0.005 0
4.08 0.005 0
4.12 0.005 0
4.16 0.005 0
4.2 0.005 0
4.24 0.005 0
4.28 0.005 0
4.32 0.005 0
4.36 0.005 0
4.4 0.005 0
4.44 0.005 0
4.48 0.005 0
4.52 0.005 0
4.56 0.005 0
4.6 0.005 0
4.64 0.005 0
4.68 0.005 0
4.72 0.005 0
4.76 0.005 0
4.8 0.005 0
4.84 0.005 0
4.88 0.005 0
4.92 0.005 0
4.96 0.005 0
5 0.005 0
5.04 0.005 0
5.08 0.005 0
5.12 0.005 0
5.16 0.005 0
5.2 0.005 0
5.24 0.005 0
5.28 0.005 0
5.32 0.005 0
5.36 0.005 0
5.4 0.005 0
5.44 0.005 0
5.48 0.005 0
5.52 0.005 0
5.56 0.005 0
5.6 0.005 0
5.64 0.005 0
5.68 0.005 0
5.72 0.005 0
5.76 0.005 0
5.8 0.005 0
5.84 0.005 0
5.88 0.005 0
5.92 0.005 0
5.96 0.005 0
6 0.005 0
6.04 0.005 0
6.08 0.005 0
6.12 0.005 0
6.16 0.005 0
6.2 0.005 0
6.24 0.005 0
6.28 0.005 0
6.32 0.005 0
6.36 0.005 0
6.4 0.005 0
6.44 0.005 0
6.48 0.005 0
6.52 0.005 0
6.56 0.005 0
6.6 0.005 0
6.64 0.005 0
6.68 0.005 0
6.72 0.005 0
6.76 0.005 0
6.8 0.005 0
6.84 0.005 0
6.88 0.005 0
6.92 0.005 0
6.96 0.005 0
7 0.005 0
7.04 0.005 0
7.08 0.005 0
7.12 0.005 0
7.16 0.005 0
7.2 0.005 0
7.24 0.005 0
7.28 0.005 0
7.32 0.005 0
7.36 0.005 0
7.4 0.005 0
[...]
POINT_DATA 160000

SCALARS p float 1
LOOKUP_TABLE default
1
66.6641
64.4486
64.1937
64.1336
64.1072
64.0911
64.0795
64.0703
64.0624
64.0555
64.0492
64.0433
64.0377
64.0324
64.0273
64.0223
64.0175
64.0128
64.0082
64.0036
63.9992
63.9948
63.9904
63.9862
63.9819
63.9778
63.9737
63.9696
63.9656
63.9616
63.9577
63.9538
63.95
63.9462
63.9425
63.9387
63.9351
63.9314
63.9278
63.9243
63.9208
63.9173
63.9138
63.9104
63.907
63.9036
63.9003
63.897
63.8937
63.8904
63.8872
63.884
63.8808
63.8777
63.8746
63.8715
63.8684
63.8653
63.8623
63.8593
63.8563
63.8533
63.8504
63.8474
63.8445
63.8416
63.8388
63.8359
63.8331
63.8302
63.8274
63.8246
63.8219
63.8191
63.8164
63.8136
63.8109
63.8082
63.8055
63.8029
63.8002
63.7976
63.7949
63.7923
63.7897
63.7871
63.7846
63.782
63.7794
63.7769
63.7744
63.7718
63.7693
63.7668
63.7644
63.7619
63.7594
63.757
63.7545
63.7521
63.7496
63.7472
63.7448
63.7424
63.74
63.7377
63.7353
63.7329
63.7306
63.7282
63.7259
63.7236
63.7213
63.7189
63.7166
63.7143
63.7121
63.7098
63.7075
63.7052
63.703
63.7007
63.6985
63.6963
63.694
63.6918
63.6896
63.6874
63.6852
63.683
63.6808
63.6786
63.6765
63.6743
63.6721
63.67
63.6678
63.6657
63.6635
63.6614
63.6593
63.6572
63.655
63.6529
63.6508
63.6487
63.6466
63.6446
63.6425
63.6404
63.6383
63.6363
63.6342
63.6321
63.6301
63.628
63.626
63.624
63.6219
63.6199
63.6179
63.6159
63.6138
63.6118
63.6098
63.6078
63.6058
63.6038
63.6018
63.5999
63.5979
63.5959
63.5939
63.592
63.59
63.588
63.5861
63.5841
63.5822
63.5802
63.5783
63.5764
63.5744
63.5725
63.5706
63.5687
63.5667
63.5648
63.5629
63.561
63.5591
63.5572
63.5553
63.5534
63.5515
63.5496
63.5477
63.5459
63.544
63.5421
63.5402
63.5384
63.5365
63.5346
63.5328
63.5309
63.5291
63.5272
63.5254
63.5235
63.5217
63.5198
63.518
63.5162
63.5143
63.5125
63.5107
63.5088
63.507
63.5052
63.5034
63.5016
63.4998
63.498
63.4961
63.4943
63.4925
63.4907
63.4889
63.4872
63.4854
63.4836
63.4818
63.48
63.4782
63.4764
63.4746
63.4729
63.4711
63.4693
63.4676
63.4658
63.464
63.4623
63.4605
63.4587
63.457
63.4552
63.4535
63.4517
63.45
63.4482
63.4465
63.4447
63.443
63.4412
63.4395
63.4378
63.436
63.4343
63.4325
63.4308
63.4291
63.4274
63.4256
63.4239
63.4222
63.4205
63.4187
63.417
63.4153
63.4136
63.4119
63.4102
63.4085
63.4067
63.405
63.4033
63.4016
63.3999
63.3982
63.3965
63.3948
63.3931
63.3914
63.3897
63.388
63.3864
63.3847
63.383
63.3813
63.3796
63.3779
63.3762
63.3745
63.3729
63.3712
63.3695
63.3678
63.3661
63.3645
63.3628
63.3611
63.3595
63.3578
63.3561
63.3544
63.3528
63.3511
63.3494
63.3478
63.3461
63.3445
63.3428
63.3411
63.3395
63.3378
63.3362
63.3345
63.3328
63.3312
63.3295
63.3279
63.3262
63.3246
63.3229
63.3213
63.3196
63.318
63.3163
63.3147
63.3131
63.3114
63.3098
63.3081
63.3065
63.3048
63.3032
63.3016
63.2999
63.2983
63.2967
63.295
63.2934
63.2918
63.2901
63.2885
63.2869
63.2852
63.2836
63.282
63.2803
63.2787
63.2771
63.2755
63.2738
63.2722
63.2706
63.269
63.2673
63.2657
63.2641
63.2625
63.2608
63.2592
63.2576
63.256
63.2544
63.2528
63.2511
63.2495
63.2479
63.2463
63.2447
63.2431
63.2415
63.2398
63.2382
63.2366
63.235
63.2334
63.2318
63.2302
63.2286
63.227
63.2254
63.2237
63.2221
63.2205
63.2189
63.2173
63.2157
63.2141
63.2125
63.2109
63.2093
63.2077
63.2061
63.2045
63.2029
63.2013
63.1997
63.1981
63.1965
63.1949
63.1933
63.1917
63.1901
63.1885
63.1869
63.1853
63.1837
63.1821
63.1805
63.1789
63.1773
63.1758
63.1742
63.1726
63.171
63.1694
63.1678
63.1662
63.1646
63.163
63.1614
63.1598
63.1583
63.1567
63.1551
63.1535
63.1519
63.1503
63.1487
63.1471
63.1455
63.144
63.1424
63.1408
63.1392
63.1376
63.136
63.1345
63.1329
63.1313
63.1297
63.1281
63.1265
63.125
63.1234
63.1218
63.1202
63.1186
63.117
63.1155
63.1139
63.1123
63.1107
63.1091
63.1076
63.106
63.1044
63.1028
63.1012
63.0997
63.0981
63.0965
63.0949
63.0934
63.0918
63.0902
63.0886
63.087
63.0855
63.0839
63.0823
63.0807
63.0792
63.0776
63.076
63.0744
63.0729
63.0713
63.0697
63.0681
63.0666
63.065
63.0634
63.0619
63.0603
63.0587
63.0571
63.0556
63.054
63.0524
63.0509
63.0493
63.0477
63.0461
63.0446
63.043
63.0414
63.0399
63.0383
63.0367
63.0351
63.0336
63.032
63.0304
63.0289
63.0273
63.0257
63.0242
63.0226
63.021
63.0195
63.0179
63.0163
63.0148
63.0132
63.0116
63.0101
63.0085
63.0069
63.0054
63.0038
63.0022
63.0007
62.9991
62.9975
62.996
62.9944
62.9928
62.9913
62.9897
62.9881
62.9866
62.985
62.9834
62.9819
62.9803
62.9787
62.9772
62.9756
62.9741
62.9725
62.9709
62.9694
62.9678
62.9662
62.9647
62.9631
62.9616
62.96
62.9584
62.9569
62.9553
62.9537
62.9522
62.9506
62.9491
62.9475
62.9459
62.9444
62.9428
62.9412
62.9397
62.9381
62.9366
62.935
62.9334
62.9319
62.9303
62.9288
62.9272
62.9256
62.9241
62.9225
62.921
62.9194
62.9178
62.9163
62.9147
62.9132
62.9116
62.91
62.9085
62.9069
62.9054
62.9038
62.9023
62.9007
62.8991
62.8976
62.896
62.8945
62.8929
62.8913
62.8898
62.8882
62.8867
62.8851
62.8836
62.882
62.8804
62.8789
62.8773
62.8758
62.8742
62.8727
62.8711
62.8695
62.868
62.8664
62.8649
62.8633
62.8618
62.8602
62.8586
62.8571
62.8555
62.854
62.8524
62.8509
62.8493
62.8478
62.8462
62.8446
62.8431
62.8415
62.84
62.8384
62.8369
62.8353
62.8338
62.8322
62.8306
62.8291
62.8275
62.826
62.8244
62.8229
62.8213
62.8198
62.8182
62.8167
62.8151
62.8135
62.812
62.8104
62.8089
62.8073
62.8058
62.8042
62.8027
62.8011
62.7996
62.798
62.7965
62.7949
62.7933
62.7918
62.7902
62.7887
62.7871
62.7856
62.784
62.7825
62.7809
62.7794
62.7778
62.7763
62.7747
62.7732
62.7716
62.7701
62.7685
62.767
62.7654
62.7638
62.7623
62.7607
62.7592
62.7576
62.7561
62.7545
62.753
62.7514
62.7499
62.7483
62.7468
62.7452
62.7437
62.7421
62.7406
62.739
62.7375
62.7359
62.7344
62.7328
62.7313
62.7297
62.7282
62.7266
62.7251
62.7235
62.722
62.7204
62.7189
62.7173
62.7158
62.7142
62.7127
62.7111
62.7096
62.708
62.7065
62.7049
62.7034
62.7018
62.7003
62.6987
62.6972
62.6956
62.6941
62.6925
62.691
62.6894
62.6879
62.6863
62.6848
62.6832
62.6817
62.6801
62.6786
62.677
62.6755
62.6739
62.6724
62.6708
62.6693
62.6677
62.6662
62.6646
62.6631
62.6615
62.66
62.6584
62.6569
62.6553
62.6538
62.6522
62.6507
62.6491
62.6476
62.646
62.6445
62.6429
62.6414
62.6398
62.6383
62.6367
62.6352
62.6336
62.6321
62.6305
62.629
62.6275
62.6259
62.6244
62.6228
62.6213
62.6197
62.6182
62.6166
62.6151
62.6135
62.612
62.6104
62.6089
62.6073
62.6058
62.6042
62.6027
62.6011
62.5996
62.5981
62.5965
62.595
62.5934
62.5919
62.5903
62.5888
62.5872
62.5857
62.5841
62.5826
62.581
1
66.6641
66.6641
64.4486
64.1937
64.1336
64.1072
64.0911
64.0795
64.0703
64.0624
64.0555
64.0492
64.0433
64.0377
64.0324
64.0273
64.0223
64.0175
64.0128
64.0082
64.0036
63.9992
63.9948
63.9904
63.9862
63.9819
63.9778
63.9737
63.9696
63.9656
63.9616
63.9577
63.9538
63.95
63.9462
63.9425
63.9387
63.9351
63.9314
63.9278
63.9243
63.9208
63.9173
63.9138
63.9104
63.907
63.9036
63.9003
63.897
63.8937
63.8904
63.8872
63.884
63.8808
63.8777
63.8746
63.8715
63.8684
63.8653
63.8623
63.8593
63.8563
63.8533
63.8504
63.8474
63.8445
63.8416
63.8388
63.8359
63.8331
63.8302
63.8274
63.8246
63.8219
63.8191
63.8164
63.8136
63.8109
63.8082
63.8055
63.8029
63.8002
63.7976
63.7949
63.7923
63.7897
63.7871
63.7846
63.782
63.7794
63.7769
63.7744
63.7718
63.7693
63.7668
63.7644
63.7619
63.7594
63.757
63.7545
63.7521
63.7496
63.7472
63.7448
63.7424
63.74
63.7377
63.7353
63.7329
63.7306
63.7282
63.7259
63.7236
63.7213
63.7189
63.7166
63.7143
63.7121
63.7098
63.7075
63.7052
63.703
63.7007
63.6985
63.6963
63.694
63.6918
63.6896
63.6874
63.6852
63.683
63.6808
63.6786
63.6765
63.6743
63.6721
63.67
63.6678
63.6657
63.6635
63.6614
63.6593
63.6572
63.655
63.6529
63.6508
63.6487
63.6466
63.6446
63.6425
63.6404
63.6383
63.6363
63.6342
63.6321
63.6301
63.628
63.626
63.624
63.6219
63.6199
63.6179
63.6159
63.6138
63.6118
63.6098
63.6078
63.6058
63.6038
63.6018
63.5999
63.5979
63.5959
63.5939
63.592
63.59
63.588
63.5861
63.5841
63.5822
63.5802
63.5783
63.5764
63.5744
63.5725
63.5706
63.5687
63.5667
63.5648
63.5629
63.561
63.5591
63.5572
63.5553
63.5534
63.5515
63.5496
63.5477
63.5459
63.544
63.5421
63.5402
63.5384
63.5365
63.5346
63.5328
63.5309
63.5291
63.5272
63.5254
63.5235
63.5217
63.5198
63.518
63.5162
63.5143
63.5125
63.5107
63.5088
63.507
63.5052
63.5034
63.5016
63.4998
63.498
63.4961
63.4943
63.4925
63.4907
63.4889
63.4872
63.4854
63.4836
63.4818
63.48
63.4782
63.4764
63.4746
63.4729
63.4711
63.4693
63.4676
63.4658
63.464
63.4623
63.4605
63.4587
63.457
63.4552
63.4535
63.4517
63.45
63.4482
63.4465
63.4447
63.443
63.4412
63.4395
63.4378
63.436
63.4343
63.4325
63.4308
63.4291
63.4274
63.4256
63.4239
63.4222
63.4205
63.4187
63.417
63.4153
63.4136
63.4119
63.4102
63.4085
63.4067
63.405
63.4033
63.4016
63.3999
63.3982
63.3965
63.3948
63.3931
63.3914
63.3897
63.388
63.3864
63.3847
63.383
63.3813
63.3796
63.3779
63.3762
63.3745
63.3729
63.3712
63.3695
63.3678
63.3661
63.3645
63.3628
63.3611
63.3595
63.3578
63.3561
63.3544
63.3528
63.3511
63.3494
63.3478
63.3461
63.3445
63.3428
63.3411
63.3395
63.3378
63.3362
63.3345
63.3328
63.3312
63.3295
63.3279
63.3262
63.3246
63.3229
63.3213
63.3196
63.318
63.3163
63.3147
63.3131
63.3114
63.3098
63.3081
63.3065
63.3048
63.3032
63.3016
63.2999
63.2983
63.2967
63.295
63.2934
63.2918
63.2901
63.2885
63.2869
63.2852
63.2836
63.282
63.2803
63.2787
63.2771
63.2755
63.2738
63.2722
63.2706
63.269
63.2673
63.2657
63.2641
63.2625
63.2608
63.2592
63.2576
63.256
63.2544
63.2528
63.2511
63.2495
63.2479
63.2463
63.2447
63.2431
63.2415
63.2398
63.2382
63.2366
63.235
63.2334
63.2318
63.2302
63.2286
63.227
63.2254
63.2237
63.2221
63.2205
63.2189
63.2173
63.2157
63.2141
63.2125
63.2109
63.2093
63.2077
63.2061
63.2045
63.2029
63.2013
63.1997
63.1981
63.1965
63.1949
63.1933
63.1917
63.1901
63.1885
63.1869
63.1853
63.1837
63.1821
63.1805
63.1789
63.1773
63.1758
63.1742
63.1726
63.171
63.1694
63.1678
63.1662
63.1646
63.163
63.1614
63.1598
63.1583
63.1567
63.1551
63.1535
63.1519
63.1503
63.1487
63.1471
63.1455
63.144
63.1424
63.1408
63.1392
63.1376
63.136
63.1345
63.1329
63.1313
63.1297
63.1281
63.1265
63.125
63.1234
63.1218
63.1202
63.1186
63.117
63.1155
63.1139
63.1123
63.1107
63.1091
63.1076
63.106
63.1044
63.1028
63.1012
63.0997
63.0981
63.0965
63.0949
63.0934
63.0918
63.0902
63.0886
63.087
63.0855
63.0839
63.0823
63.0807
63.0792
63.0776
63.076
63.0744
63.0729
63.0713
63.0697
63.0681
63.0666
63.065
63.0634
63.0619
63.0603
63.0587
63.0571
63.0556
63.054
63.0524
63.0509
63.0493
63.0477
63.0461
63.0446
63.043
63.0414
63.0399
63.0383
63.0367
63.0351
63.0336
63.032
63.0304
63.0289
63.0273
63.0257
63.0242
63.0226
63.021
63.0195
63.0179
63.0163
63.0148
63.0132
63.0116
63.0101
63.0085
63.0069
63.0054
63.0038
63.0022
63.0007
62.9991
62.9975
62.996
62.9944
62.9928
62.9913
62.9897
62.9881
62.9866
62.985
62.9834
62.9819
62.9803
62.9787
62.9772
62.9756
62.9741
62.9725
62.9709
62.9694
62.9678
62.9662
62.9647
62.9631
62.9616
62.96
62.9584
62.9569
62.9553
62.9537
62.9522
62.9506
62.9491
62.9475
62.9459
62.9444
62.9428
62.9412
62.9397
62.9381
62.9366
62.935
62.9334
62.9319
62.9303
62.9288
62.9272
62.9256
62.9241
62.9225
62.921
62.9194
62.9178
62.9163
62.9147
62.9132
62.9116
62.91
62.9085
62.9069
62.9054
62.9038
62.9023
62.9007
62.8991
62.8976
62.896
62.8945
62.8929
62.8913
62.8898
62.8882
62.8867
62.8851
62.8836
62.882
62.8804
62.8789
62.8773
62.8758
62.8742
62.8727
62.8711
62.8695
62.868
62.8664
62.8649
62.8633
62.8618
62.8602
62.8586
62.8571
62.8555
62.854
62.8524
62.8509
62.8493
62.8478
62.8462
62.8446
62.8431
62.8415
62.84
62.8384
62.8369
62.8353
62.8338
62.8322
62.8306
62.8291
62.8275
62.826
62.8244
62.8229
62.8213
62.8198
62.8182
62.8167
62.8151
62.8135
62.812
62.8104
62.8089
62.8073
62.8058
62.8042
62.8027
62.8011
62.7996
62.798
62.7965
62.7949
62.7933
62.7918
62.7902
62.7887
62.7871
62.7856
62.784
62.7825
62.7809
62.7794
62.7778
62.7763
62.7747
62.7732
62.7716
62.7701
62.7685
62.767
62.7654
62.7638
62.7623
62.7607
62.7592
62.7576
62.7561
62.7545
62.753
62.7514
62.7499
62.7483
62.7468
62.7452
62.7437
62.7421
62.7406
62.739
62.7375
62.7359
62.7344
62.7328
62.7313
62.7297
62.7282
62.7266
62.7251
62.7235
62.722
62.7204
62.7189
62.7173
62.7158
62.7142
62.7127
62.7111
62.7096
62.708
62.7065
62.7049
62.7034
62.7018
62.7003
62.6987
62.6972
62.6956
62.6941
62.6925
62.691
62.6894
62.6879
62.6863
62.6848
62.6832
62.6817
62.6801
62.6786
62.677
62.6755
62.6739
62.6724
62.6708
62.6693
62.6677
62.6662
62.6646
62.6631
62.6615
62.66
62.6584
62.6569
62.6553
62.6538
62.6522
62.6507
62.6491
62.6476
62.646
62.6445
62.6429
62.6414
62.6398
62.6383
62.6367
62.6352
62.6336
62.6321
62.6305
62.629
62.6275
62.6259
62.6244
62.6228
62.6213
62.6197
62.6182
62.6166
62.6151
62.6135
62.612
62.6104
62.6089
62.6073
62.6058
62.6042
62.6027
62.6011
62.5996
62.5981
62.5965
62.595
62.5934
62.5919
62.5903
62.5888
62.5872
62.5857
62.5841
62.5826
62.581
62.581
66.017
66.017
64.459
64.2032
64.1377
64.1094
64.0925
64.0805
64.071
64.063
64.0559
64.0495
64.0436
64.038
64.0326
64.0275
64.0225
64.0176
64.0129
64.0083
64.0037
63.9993
63.9948
63.9905
63.9862
63.982
63.9778
63.9737
63.9697
63.9656
63.9617
63.9578
63.9539
63.95
63.9462
63.9425
63.9388
63.9351
63.9315
63.9279
63.9243
63.9208
63.9173
63.9138
63.9104
63.907
63.9036
63.9003
63.897
63.8937
63.8905
63.8872
63.884
63.8809
63.8777
63.8746
63.8715
63.8684
63.8654
63.8623
63.8593
63.8563
63.8533
63.8504
63.8475
63.8445
63.8417
63.8388
63.8359
63.8331
63.8303
63.8274
63.8247
63.8219
63.8191
63.8164
63.8137
63.8109
63.8082
63.8056
63.8029
63.8002
63.7976
63.795
63.7923
63.7897
63.7872
63.7846
63.782
63.7795
63.7769
63.7744
63.7719
63.7693
63.7668
63.7644
63.7619
63.7594
63.757
63.7545
63.7521
63.7497
63.7472
63.7448
63.7424
63.74
63.7377
63.7353
63.7329
63.7306
63.7282
63.7259
63.7236
63.7213
63.719
63.7167
63.7144
63.7121
63.7098
63.7075
63.7053
63.703
63.7007
63.6985
63.6963
63.694
63.6918
63.6896
63.6874
63.6852
63.683
63.6808
63.6786
63.6765
63.6743
63.6721
63.67
63.6678
63.6657
63.6635
63.6614
63.6593
63.6572
63.6551
63.6529
63.6508
63.6487
63.6466
63.6446
63.6425
63.6404
63.6383
63.6363
63.6342
63.6321
63.6301
63.628
63.626
63.624
63.6219
63.6199
63.6179
63.6159
63.6138
63.6118
63.6098
63.6078
63.6058
63.6038
63.6019
63.5999
63.5979
63.5959
63.5939
63.592
63.59
63.5881
63.5861
63.5841
63.5822
63.5803
63.5783
63.5764
63.5744
63.5725
63.5706
63.5687
63.5667
63.5648
63.5629
63.561
63.5591
63.5572
63.5553
63.5534
63.5515
63.5496
63.5478
63.5459
63.544
63.5421
63.5402
63.5384
63.5365
63.5346
63.5328
63.5309
63.5291
63.5272
63.5254
63.5235
63.5217
63.5198
63.518
63.5162
63.5143
63.5125
63.5107
63.5089
63.507
63.5052
63.5034
63.5016
63.4998
63.498
63.4962
63.4944
63.4925
63.4907
63.489
63.4872
63.4854
63.4836
63.4818
63.48
63.4782
63.4764
63.4747
63.4729
63.4711
63.4693
63.4676
63.4658
63.464
63.4623
63.4605
63.4587
63.457
63.4552
63.4535
63.4517
63.45
63.4482
63.4465
63.4447
63.443
63.4412
63.4395
63.4378
63.436
63.4343
63.4326
63.4308
63.4291
63.4274
63.4256
63.4239
63.4222
63.4205
63.4187
63.417
63.4153
63.4136
63.4119
63.4102
63.4085
63.4068
63.405
63.4033
63.4016
63.3999
63.3982
63.3965
63.3948
63.3931
63.3914
63.3897
63.3881
63.3864
63.3847
63.383
63.3813
63.3796
63.3779
63.3762
63.3746
63.3729
63.3712
63.3695
63.3678
63.3662
63.3645
63.3628
63.3611
63.3595
63.3578
63.3561
63.3544
63.3528
63.3511
63.3494
63.3478
63.3461
63.3445
63.3428
63.3411
63.3395
63.3378
63.3362
63.3345
63.3328
63.3312
63.3295
63.3279
63.3262
63.3246
63.3229
63.3213
63.3196
63.318
63.3163
63.3147
63.3131
63.3114
63.3098
63.3081
63.3065
63.3048
63.3032
63.3016
63.2999
63.2983
63.2967
63.295
63.2934
63.2918
63.2901
63.2885
63.2869
63.2852
63.2836
63.282
63.2803
63.2787
63.2771
63.2755
63.2738
63.2722
63.2706
63.269
63.2673
63.2657
63.2641
63.2625
63.2609
63.2592
63.2576
63.256
63.2544
63.2528
63.2511
63.2495
63.2479
63.2463
63.2447
63.2431
63.2415
63.2398
63.2382
63.2366
63.235
63.2334
63.2318
63.2302
63.2286
63.227
63.2254
63.2238
63.2221
63.2205
63.2189
63.2173
63.2157
63.2141
63.2125
63.2109
63.2093
63.2077
63.2061
63.2045
63.2029
63.2013
63.1997
63.1981
63.1965
63.1949
63.1933
63.1917
63.1901
63.1885
63.1869
63.1853
63.1837
63.1821
63.1805
63.1789
63.1774
63.1758
63.1742
63.1726
63.171
63.1694
63.1678
63.1662
63.1646
63.163
63.1614
63.1598
63.1583
63.1567
63.1551
63.1535
63.1519
63.1503
63.1487
63.1471
63.1456
63.144
63.1424
63.1408
63.1392
63.1376
63.136
63.1345
63.1329
63.1313
63.1297
63.1281
63.1265
63.125
63.1234
63.1218
63.1202
63.1186
63.117
63.1155
63.1139
63.1123
63.1107
63.1091
63.1076
63.106
63.1044
63.1028
63.1012
63.0997
63.0981
63.0965
63.0949
63.0934
63.0918
63.0902
63.0886
63.0871
63.0855
63.0839
63.0823
63.0807
63.0792
63.0776
63.076
63.0744
63.0729
63.0713
63.0697
63.0682
63.0666
63.065
63.0634
63.0619
63.0603
63.0587
63.0571
63.0556
63.054
63.0524
63.0509
63.0493
63.0477
63.0461
63.0446
63.043
63.0414
63.0399
63.0383
63.0367
63.0352
63.0336
63.032
63.0304
63.0289
63.0273
63.0257
63.0242
63.0226
63.021
63.0195
63.0179
63.0163
63.0148
63.0132
63.0116
63.0101
63.0085
63.0069
63.0054
63.0038
63.0022
63.0007
62.9991
62.9975
62.996
62.9944
62.9928
62.9913
62.9897
62.9881
62.9866
62.985
62.9834
62.9819
62.9803
62.9788
62.9772
62.9756
62.9741
62.9725
62.9709
62.9694
62.9678
62.9662
62.9647
62.9631
62.9616
62.96
62.9584
62.9569
62.9553
62.9537
62.9522
62.9506
62.9491
62.9475
62.9459
62.9444
62.9428
62.9413
62.9397
62.9381
62.9366
62.935
62.9334
62.9319
62.9303
62.9288
62.9272
62.9256
62.9241
62.9225
62.921
62.9194
62.9178
62.9163
62.9147
62.9132
62.9116
62.9101
62.9085
62.9069
62.9054
62.9038
62.9023
62.9007
62.8991
62.8976
62.896
62.8945
62.8929
62.8913
62.8898
62.8882
62.8867
62.8851
62.8836
62.882
62.8804
62.8789
62.8773
62.8758
62.8742
62.8727
62.8711
62.8695
62.868
62.8664
62.8649
62.8633
62.8618
62.8602
62.8587
62.8571
62.8555
62.854
62.8524
62.8509
62.8493
62.8478
62.8462
62.8446
62.8431
62.8415
62.84
62.8384
62.8369
62.8353
62.8338
62.8322
62.8307
62.8291
62.8275
62.826
62.8244
62.8229
62.8213
62.8198
62.8182
62.8167
62.8151
62.8136
62.812
62.8104
62.8089
62.8073
62.8058
62.8042
62.8027
62.8011
62.7996
62.798
62.7965
62.7949
62.7934
62.7918
62.7902
62.7887
62.7871
62.7856
62.784
62.7825
62.7809
62.7794
62.7778
62.7763
62.7747
62.7732
62.7716
62.7701
62.7685
62.767
62.7654
62.7639
62.7623
62.7607
62.7592
62.7576
62.7561
62.7545
62.753
62.7514
62.7499
62.7483
62.7468
62.7452
62.7437
62.7421
62.7406
62.739
62.7375
62.7359
62.7344
62.7328
62.7313
62.7297
62.7282
62.7266
62.7251
62.7235
62.722
62.7204
62.7189
62.7173
62.7158
62.7142
62.7127
62.7111
62.7096
62.708
62.7065
62.7049
62.7034
62.7018
62.7003
62.6987
62.6972
62.6956
62.6941
62.6925
62.691
62.6894
62.6879
62.6863
62.6848
62.6832
62.6817
62.6801
62.6786
62.677
62.6755
62.6739
62.6724
62.6708
62.6693
62.6677
62.6662
62.6646
62.6631
62.6615
62.66
62.6584
62.6569
62.6553
62.6538
62.6522
62.6507
62.6491
62.6476
62.646
62.6445
62.6429
62.6414
62.6398
62.6383
62.6367
62.6352
62.6336
62.6321
62.6306
62.629
62.6275
62.6259
62.6244
62.6228
62.6213
62.6197
62.6182
62.6166
62.6151
62.6135
62.612
62.6104
62.6089
62.6073
62.6058
62.6042
62.6027
62.6011
62.5996
62.5981
62.5965
62.595
62.5934
62.5919
62.5903
62.5888
62.5872
62.5857
62.5841
62.5826
62.581
62.581
65.3275
65.3275
64.4432
64.2099
64.1414
64.1115
64.0938
64.0814
64.0717
64.0635
64.0563
64.0499
64.0439
64.0382
64.0328
64.0277
64.0227
64.0178
64.013
64.0084
64.0038
63.9993
63.9949
63.9906
63.9863
63.9821
63.9779
63.9738
63.9697
63.9657
63.9617
63.9578
63.9539
63.9501
63.9463
63.9425
63.9388
63.9351
63.9315
63.9279
63.9243
63.9208
63.9173
63.9139
63.9104
63.907
63.9037
63.9003
63.897
63.8937
63.8905
63.8873
63.8841
63.8809
63.8777
63.8746
63.8715
63.8684
63.8654
63.8623
63.8593
63.8563
63.8534
63.8504
63.8475
63.8446
63.8417
63.8388
63.8359
63.8331
63.8303
63.8275
63.8247
63.8219
63.8191
63.8164
63.8137
63.811
63.8083
63.8056
63.8029
63.8002
63.7976
63.795
63.7924
63.7898
63.7872
63.7846
63.782
63.7795
63.7769
63.7744
63.7719
63.7694
63.7669
63.7644
63.7619
63.7594
63.757
63.7545
63.7521
63.7497
63.7472
63.7448
63.7424
63.7401
63.7377
63.7353
63.7329
63.7306
63.7282
63.7259
63.7236
63.7213
63.719
63.7167
63.7144
63.7121
63.7098
63.7075
63.7053
63.703
63.7008
63.6985
63.6963
63.694
63.6918
63.6896
63.6874
63.6852