# vtk DataFile Version 2.0
FlowField
ASCII
DATASET STRUCTURED_GRID
DIMENSIONS 800 1 200
POINTS 160000 float
0 0 0
0.04 0 0
0.08 0 0
0.12 0 0
0.16 0 0
0.2 0 0
0.24 0 0
0.28 0 0
0.32 0 0
0.36 0 0
0.4 0 0
0.44 0 0
0.48 0 0
0.52 0 0
0.56 0 0
0.6 0 0
0.64 0 0
0.68 0 0
0.72 0 0
0.76 0 0
0.8 0 0
0.84 0 0
0.88 0 0
0.92 0 0
0.96 0 0
1 0 0
1.04 0 0
1.08 0 0
1.12 0 0
1.16 0 0
1.2 0 0
1.24 0 0
1.28 0 0
1.32 0 0
1.36 0 0
1.4 0 0
1.44 0 0
1.48 0 0
1.52 0 0
1.56 0 0
1.6 0 0
1.64 0 0
1.68 0 0
1.72 0 0
1.76 0 0
1.8 0 0
1.84 0 0
1.88 0 0
1.92 0 0
1.96 0 0
2 0 0
2.04 0 0
2.08 0 0
2.12 0 0
2.16 0 0
2.2 0 0
2.24 0 0
2.28 0 0
2.32 0 0
2.36 0 0
2.4 0 0
2.44 0 0
2.48 0 0
2.52 0 0
2.56 0 0
2.6 0 0
2.64 0 0
2.68 0 0
2.72 0 0
2.76 0 0
2.8 0 0
2.84 0 0
2.88 0 0
2.92 0 0
2.96 0 0
3 0 0
3.04 0 0
3.08 0 0
3.12 0 0
3.16 0 0
3.2 0 0
3.24 0 0
3.28 0 0
3.32 0 0
3.36 0 0
3.4 0 0
3.44 0 0
3.48 0 0
3.52 0 0
3.56 0 0
3.6 0 0
3.64 0 0
3.68 0 0
3.72 0 0
3.76 0 0
3.8 0 0
3.84 0 0
3.88 0 0
3.92 0 0
3.96 0 0
4 0 0
4.04 0 0
4.08 0 0
4.12 0 0
4.16 0 0
4.2 0 0
4.24 0 0
4.28 0 0
4.32 0 0
4.36 0 0
4.4 0 0
4.44 0 0
4.48 0 0
4.52 0 0
4.56 0 0
4.6 0 0
4.64 0 0
4.68 0 0
4.72 0 0
4.76 0 0
4.8 0 0
4.84 0 0
4.88 0 0
4.92 0 0
4.96 0 0
5 0 0
5.04 0 0
5.08 0 0
5.12 0 0
5.16 0 0
5.2 0 0
5.24 0 0
5.28 0 0
5.32 0 0
5.36 0 0
5.4 0 0
5.44 0 0
5.48 0 0
5.52 0 0
5.56 0 0
5.6 0 0
5.64 0 0
5.68 0 0
5.72 0 0
5.76 0 0
5.8 0 0
5.84 0 0
5.88 0 0
5.92 0 0
5.96 0 0
6 0 0
6.04 0 0
6.08 0 0
6.12 0 0
6.16 0 0
6.2 0 0
6.24 0 0
6.28 0 0
6.32 0 0
6.36 0 0
6.4 0 0
6.44 0 0
6.48 0 0
6.52 0 0
6.56 0 0
6.6 0 0
6.64 0 0
6.68 0 0
6.72 0 0
6.76 0 0
6.8 0 0
6.84 0 0
6.88 0 0
6.92 0 0
6.96 0 0
7 0 0
7.04 0 0
7.08 0 0
7.12 0 0
7.16 0 0
7.2 0 0
7.24 0 0
7.28 0 0
7.32 0 0
7.36 0 0
7.4 0 0
7.44 0 0
7.48 0 0
7.52 0 0
7.56 0 0
7.6 0 0
7.64 0 0
7.68 0 0
7.72 0 0
7.76 0 0
7.8 0 0
7.84 0 0
7.88 0 0
7.92 0 0
7.96 0 0
8 0 0
8.04 0 0
8.08 0 0
8.12 0 0
8.16 0 0
8.2 0 0
8.24 0 0
8.28 0 0
8.32 0 0
8.36 0 0
8.4 0 0
8.44 0 0
8.48 0 0
8.52 0 0
8.56 0 0
8.6 0 0
8.64 0 0
8.68 0 0
8.72 0 0
8.76 0 0
8.8 0 0
8.84 0 0
8.88 0 0
8.92 0 0
8.96 0 0
9 0 0
9.04 0 0
9.08 0 0
9.12 0 0
9.16 0 0
9.2 0 0
9.24 0 0
9.28 0 0
9.32 0 0
9.36 0 0
9.4 0 0
9.44 0 0
9.48 0 0
9.52 0 0
9.56 0 0
9.6 0 0
9.64 0 0
9.68 0 0
9.72 0 0
9.76 0 0
9.8 0 0
9.84 0 0
9.88 0 0
9.92 0 0
9.96 0 0
10 0 0
10.04 0 0
10.08 0 0
10.12 0 0
10.16 0 0
10.2 0 0
10.24 0 0
10.28 0 0
10.32 0 0
10.36 0 0
10.4 0 0
10.44 0 0
10.48 0 0
10.52 0 0
10.56 0 0
10.6 0 0
10.64 0 0
10.68 0 0
10.72 0 0
10.76 0 0
10.8 0 0
10.84 0 0
10.88 0 0
10.92 0 0
10.96 0 0
11 0 0
11.04 0 0
11.08 0 0
11.12 0 0
11.16 0 0
11.2 0 0
11.24 0 0
11.28 0 0
11.32 0 0
11.36 0 0
11.4 0 0
11.44 0 0
11.48 0 0
11.52 0 0
11.56 0 0
11.6 0 0
11.64 0 0
11.68 0 0
11.72 0 0
11.76 0 0
11.8 0 0
11.84 0 0
11.88 0 0
11.92 0 0
11.96 0 0
12 0 0
12.04 0 0
12.08 0 0
12.12 0 0
12.16 0 0
12.2 0 0
12.24 0 0
12.28 0 0
12.32 0 0
12.36 0 0
12.4 0 0
12.44 0 0
12.48 0 0
12.52 0 0
12.56 0 0
12.6 0 0
12.64 0 0
12.68 0 0
12.72 0 0
12.76 0 0
12.8 0 0
12.84 0 0
12.88 0 0
12.92 0 0
12.96 0 0
13 0 0
13.04 0 0
13.08 0 0
13.12 0 0
13.16 0 0
13.2 0 0
13.24 0 0
13.28 0 0
13.32 0 0
13.36 0 0
13.4 0 0
13.44 0 0
13.48 0 0
13.52 0 0
13.56 0 0
13.6 0 0
13.64 0 0
13.68 0 0
13.72 0 0
13.76 0 0
13.8 0 0
13.84 0 0
13.88 0 0
13.92 0 0
13.96 0 0
14 0 0
14.04 0 0
14.08 0 0
14.12 0 0
14.16 0 0
14.2 0 0
14.24 0 0
14.28 0 0
14.32 0 0
14.36 0 0
14.4 0 0
14.44 0 0
14.48 0 0
14.52 0 0
14.56 0 0
14.6 0 0
14.64 0 0
14.68 0 0
14.72 0 0
14.76 0 0
14.8 0 0
14.84 0 0
14.88 0 0
14.92 0 0
14.96 0 0
15 0 0
15.04 0 0
15.08 0 0
15.12 0 0
15.16 0 0
15.2 0 0
15.24 0 0
15.28 0 0
15.32 0 0
15.36 0 0
15.4 0 0
15.44 0 0
15.48 0 0
15.52 0 0
15.56 0 0
15.6 0 0
15.64 0 0
15.68 0 0
15.72 0 0
15.76 0 0
15.8 0 0
15.84 0 0
15.88 0 0
15.92 0 0
15.96 0 0
16 0 0
16.04 0 0
16.08 0 0
16.12 0 0
16.16 0 0
16.2 0 0
16.24 0 0
16.28 0 0
16.32 0 0
16.36 0 0
16.4 0 0
16.44 0 0
16.48 0 0
16.52 0 0
16.56 0 0
16.6 0 0
16.64 0 0
16.68 0 0
16.72 0 0
16.76 0 0
16.8 0 0
16.84 0 0
16.88 0 0
16.92 0 0
16.96 0 0
17 0 0
17.04 0 0
17.08 0 0
17.12 0 0
17.16 0 0
17.2 0 0
17.24 0 0
17.28 0 0
17.32 0 0
17.36 0 0
17.4 0 0
17.44 0 0
17.48 0 0
17.52 0 0
17.56 0 0
17.6 0 0
17.64 0 0
17.68 0 0
17.72 0 0
17.76 0 0
17.8 0 0
17.84 0 0
17.88 0 0
17.92 0 0
17.96 0 0
18 0 0
18.04 0 0
18.08 0 0
18.12 0 0
18.16 0 0
18.2 0 0
18.24 0 0
18.28 0 0
18.32 0 0
18.36 0 0
18.4 0 0
18.44 0 0
18.48 0 0
18.52 0 0
18.56 0 0
18.6 0 0
18.64 0 0
18.68 0 0
18.72 0 0
18.76 0 0
18.8 0 0
18.84 0 0
18.88 0 0
18.92 0 0
18.96 0 0
19 0 0
19.04 0 0
19.08 0 0
19.12 0 0
19.16 0 0
19.2 0 0
19.24 0 0
19.28 0 0
19.32 0 0
19.36 0 0
19.4 0 0
19.44 0 0
19.48 0 0
19.52 0 0
19.56 0 0
19.6 0 0
19.64 0 0
19.68 0 0
19.72 0 0
19.76 0 0
19.8 0 0
19.84 0 0
19.88 0 0
19.92 0 0
19.96 0 0
20 0 0
20.04 0 0
20.08 0 0
20.12 0 0
20.16 0 0
20.2 0 0
20.24 0 0
20.28 0 0
20.32 0 0
20.36 0 0
20.4 0 0
20.44 0 0
20.48 0 0
20.52 0 0
20.56 0 0
20.6 0 0
20.64 0 0
20.68 0 0
20.72 0 0
20.76 0 0
20.8 0 0
20.84 0 0
20.88 0 0
20.92 0 0
20.96 0 0
21 0 0
21.04 0 0
21.08 0 0
21.12 0 0
21.16 0 0
21.2 0 0
21.24 0 0
21.28 0 0
21.32 0 0
21.36 0 0
21.4 0 0
21.44 0 0
21.48 0 0
21.52 0 0
21.56 0 0
21.6 0 0
21.64 0 0
21.68 0 0
21.72 0 0
21.76 0 0
21.8 0 0
21.84 0 0
21.88 0 0
21.92 0 0
21.96 0 0
22 0 0
22.04 0 0
22.08 0 0
22.12 0 0
22.16 0 0
22.2 0 0
22.24 0 0
22.28 0 0
22.32 0 0
22.36 0 0
22.4 0 0
22.44 0 0
22.48 0 0
22.52 0 0
22.56 0 0
22.6 0 0
22.64 0 0
22.68 0 0
22.72 0 0
22.76 0 0
22.8 0 0
22.84 0 0
22.88 0 0
22.92 0 0
22.96 0 0
23 0 0
23.04 0 0
23.08 0 0
23.12 0 0
23.16 0 0
23.2 0 0
23.24 0 0
23.28 0 0
23.32 0 0
23.36 0 0
23.4 0 0
23.44 0 0
23.48 0 0
23.52 0 0
23.56 0 0
23.6 0 0
23.64 0 0
23.68 0 0
23.72 0 0
23.76 0 0
23.8 0 0
23.84 0 0
23.88 0 0
23.92 0 0
23.96 0 0
24 0 0
24.04 0 0
24.08 0 0
24.12 0 0
24.16 0 0
24.2 0 0
24.24 0 0
24.28 0 0
24.32 0 0
24.36 0 0
24.4 0 0
24.44 0 0
24.48 0 0
24.52 0 0
24.56 0 0
24.6 0 0
24.64 0 0
24.68 0 0
24.72 0 0
24.76 0 0
24.8 0 0
24.84 0 0
24.88 0 0
24.92 0 0
24.96 0 0
25 0 0
25.04 0 0
25.08 0 0
25.12 0 0
25.16 0 0
25.2 0 0
25.24 0 0
25.28 0 0
25.32 0 0
25.36 0 0
25.4 0 0
25.44 0 0
25.48 0 0
25.52 0 0
25.56 0 0
25.6 0 0
25.64 0 0
25.68 0 0
25.72 0 0
25.76 0 0
25.8 0 0
25.84 0 0
25.88 0 0
25.92 0 0
25.96 0 0
26 0 0
26.04 0 0
26.08 0 0
26.12 0 0
26.16 0 0
26.2 0 0
26.24 0 0
26.28 0 0
26.32 0 0
26.36 0 0
26.4 0 0
26.44 0 0
26.48 0 0
26.52 0 0
26.56 0 0
26.6 0 0
26.64 0 0
26.68 0 0
26.72 0 0
26.76 0 0
26.8 0 0
26.84 0 0
26.88 0 0
26.92 0 0
26.96 0 0
27 0 0
27.04 0 0
27.08 0 0
27.12 0 0
27.16 0 0
27.2 0 0
27.24 0 0
27.28 0 0
27.32 0 0
27.36 0 0
27.4 0 0
27.44 0 0
27.48 0 0
27.52 0 0
27.56 0 0
27.6 0 0
27.64 0 0
27.68 0 0
27.72 0 0
27.76 0 0
27.8 0 0
27.84 0 0
27.88 0 0
27.92 0 0
27.96 0 0
28 0 0
28.04 0 0
28.08 0 0
28.12 0 0
28.16 0 0
28.2 0 0
28.24 0 0
28.28 0 0
28.32 0 0
28.36 0 0
28.4 0 0
28.44 0 0
28.48 0 0
28.52 0 0
28.56 0 0
28.6 0 0
28.64 0 0
28.68 0 0
28.72 0 0
28.76 0 0
28.8 0 0
28.84 0 0
28.88 0 0
28.92 0 0
28.96 0 0
29 0 0
29.04 0 0
29.08 0 0
29.12 0 0
29.16 0 0
29.2 0 0
29.24 0 0
29.28 0 0
29.32 0 0
29.36 0 0
29.4 0 0
29.44 0 0
29.48 0 0
29.52 0 0
29.56 0 0
29.6 0 0
29.64 0 0
29.68 0 0
29.72 0 0
29.76 0 0
29.8 0 0
29.84 0 0
29.88 0 0
29.92 0 0
29.96 0 0
30 0 0
30.04 0 0
30.08 0 0
30.12 0 0
30.16 0 0
30.2 0 0
30.24 0 0
30.28 0 0
30.32 0 0
30.36 0 0
30.4 0 0
30.44 0 0
30.48 0 0
30.52 0 0
30.56 0 0
30.6 0 0
30.64 0 0
30.68 0 0
30.72 0 0
30.76 0 0
30.8 0 0
30.84 0 0
30.88 0 0
30.92 0 0
30.96 0 0
31 0 0
31.04 0 0
31.08 0 0
31.12 0 0
31.16 0 0
31.2 0 0
31.24 0 0
31.28 0 0
31.32 0 0
31.36 0 0
31.4 0 0
31.44 0 0
31.48 0 0
31.52 0 0
31.56 0 0
31.6 0 0
31.64 0 0
31.68 0 0
31.72 0 0
31.76 0 0
31.8 0 0
31.84 0 0
31.88 0 0
31.92 0 0
31.96 0 0
0 0.005 0
0.04 0.005 0
0.08 0.005 0
0.12 0.005 0
0.16 0.005 0
0.2 0.005 0
0.24 0.005 0
0.28 0.005 0
0.32 0.005 0
0.36 0.005 0
0.4 0.005 0
0.44 0.005 0
0.48 0.005 0
0.52 0.005 0
0.56 0.005 0
0.6 0.005 0
0.64 0.005 0
0.68 0.005 0
0.72 0.005 0
0.76 0.005 0
0.8 0.005 0
0.84 0.005 0
0.88 0.005 0
0.92 0.005 0
0.96 0.005 0
1 0.005 0
1.04 0.005 0
1.08 0.005 0
1.12 0.005 0
1.16 0.005 0
1.2 0.005 0
1.24 0.005 0
1.28 0.005 0
1.32 0.005 0
1.36 0.005 0
1.4 0.005 0
1.44 0.005 0
1.48 0.005 0
1.52 0.005 0
1.56 0.005 0
1.6 0.005 0
1.64 0.005 0
1.68 0.005 0
1.72 0.005 0
1.76 0.005 0
1.8 0.005 0
1.84 0.005 0
1.88 0.005 0
1.92 0.005 0
1.96 0.005 0
2 0.005 0
2.04 0.005 0
2.08 0.005 0
2.12 0.005 0
2.16 0.005 0
2.2 0.005 0
2.24 0.005 0
2.28 0.005 0
2.32 0.005 0
2.36 0.005 0
2.4 0.005 0
2.44 0.005 0
2.48 0.005 0
2.52 0.005 0
2.56 0.005 0
2.6 0.005 0
2.64 0.005 0
2.68 0.005 0
2.72 0.005 0
2.76 0.005 0
2.8 0.005 0
2.84 0.005 0
2.88 0.005 0
2.92 0.005 0
2.96 0.005 0
3 0.005 0
3.04 0.005 0
3.08 0.005 0
3.12 0.005 0
3.16 0.005 0
3.2 0.005 0
3.24 0.005 0
3.28 0.005 0
3.32 0.005 0
3.36 0.005 0
3.4 0.005 0
3.44 0.005 0
3.48 0.005 0
3.52 0.005 0
3.56 0.005 0
3.6 0.005 0
3.64 0.005 0
3.68 0.005 0
3.72 0.005 0
3.76 0.005 0
3.8 0.005 0
3.84 0.005 0
3.88 0.005 0
3.92 0.005 0
3.96 0.005 0
4 0.005 0
4.04 0.005 0
4.08 0.005 0
4.12 0.005 0
4.16 0.005 0
4.2 0.005 0
4.24 0.005 0
4.28 0.005 0
4.32 0.005 0
4.36 0.005 0
4.4 0.005 0
4.44 0.005 0
4.48 0.005 0
4.52 0.005 0
4.56 0.005 0
4.6 0.005 0
4.64 0.005 0
4.68 0.005 0
4.72 0.005 0
4.76 0.005 0
4.8 0.005 0
4.84 0.005 0
4.88 0.005 0
4.92 0.005 0
4.96 0.005 0
5 0.005 0
5.04 0.005 0
5.08 0.005 0
5.12 0.005 0
5.16 0.005 0
5.2 0.005 0
5.24 0.005 0
5.28 0.005 0
5.32 0.005 0
5.36 0.005 0
5.4 0.005 0
5.44 0.005 0
5.48 0.005 0
5.52 0.005 0
5.56 0.005 0
5.6 0.005 0
5.64 0.005 0
5.68 0.005 0
5.72 0.005 0
5.76 0.005 0
5.8 0.005 0
5.84 0.005 0
5.88 0.005 0
5.92 0.005 0
5.96 0.005 0
6 0.005 0
6.04 0.005 0
6.08 0.005 0
6.12 0.005 0
6.16 0.005 0
6.2 0.005 0
6.24 0.005 0
6.28 0.005 0
6.32 0.005 0
6.36 0.005 0
6.4 0.005 0
6.44 0.005 0
6.48 0.005 0
6.52 0.005 0
6.56 0.005 0
6.6 0.005 0
6.64 0.005 0
6.68 0.005 0
6.72 0.005 0
6.76 0.005 0
6.8 0.005 0
6.84 0.005 0
6.88 0.005 0
6.92 0.005 0
6.96 0.005 0
7 0.005 0
7.04 0.005 0
7.08 0.005 0
7.12 0.005 0
7.16 0.005 0
7.2 0.005 0
7.24 0.005 0
7.28 0.005 0
7.32 0.005 0
7.36 0.005 0
7.4 0.005 0
[...]
POINT_DATA 160000

SCALARS phi float 1
LOOKUP_TABLE default
1
1
1
1
1
1
1
1
1
1
1
1
1
1
1
1
1
1
1
1
1
1
1
1
1
1
1
1
1
1
1
1
1
1
1
0.999999
0.999999
0.999999
0.999999
0.999998
0.999997
0.999997
0.999995
0.999994
0.999992
0.99999
0.999988
0.999985
0.999982
0.999978
0.999973
0.999968
0.999961
0.999954
0.999946
0.999937
0.999926
0.999914
0.999901
0.999886
0.99987
0.999852
0.999832
0.99981
0.999786
0.99976
0.999731
0.9997
0.999667
0.999631
0.999592
0.99955
0.999505
0.999457
0.999406
0.999352
0.999294
0.999232
0.999167
0.999099
0.999026
0.998949
0.998869
0.998784
0.998695
0.998602
0.998504
0.998403
0.998296
0.998185
0.998069
0.997949
0.997824
0.997694
0.997559
0.997419
0.997275
0.997125
0.99697
0.99681
0.996645
0.996475
0.9963
0.996119
0.995933
0.995742
0.995546
0.995344
0.995137
0.994925
0.994707
0.994484
0.994256
0.994022
0.993783
0.993539
0.993289
0.993034
0.992774
0.992509
0.992238
0.991962
0.99168
0.991394
0.991102
0.990805
0.990502
0.990195
0.989883
0.989565
0.989242
0.988915
0.988582
0.988244
0.987901
0.987554
0.987201
0.986844
0.986482
0.986115
0.985743
0.985367
0.984986
0.984601
0.98421
0.983816
0.983416
0.983013
0.982604
0.982192
0.981775
0.981354
0.980928
0.980499
0.980065
0.979627
0.979185
0.978739
0.978289
0.977835
0.977377
0.976915
0.97645
0.975981
0.975508
0.975031
0.97455
0.974067
0.973579
0.973088
0.972594
0.972096
0.971595
0.97109
0.970582
0.970071
0.969557
0.96904
0.968519
0.967996
0.967469
0.96694
0.966407
0.965872
0.965334
0.964793
0.964249
0.963702
0.963153
0.962601
0.962047
0.96149
0.960931
0.960369
0.959804
0.959237
0.958668
0.958097
0.957523
0.956947
0.956369
0.955789
0.955206
0.954622
0.954035
0.953446
0.952856
0.952263
0.951669
0.951073
0.950474
0.949874
0.949273
0.948669
0.948064
0.947457
0.946849
0.946239
0.945627
0.945014
0.944399
0.943783
0.943165
0.942546
0.941926
0.941304
0.940681
0.940057
0.939431
0.938805
0.938176
0.937547
0.936917
0.936285
0.935653
0.935019
0.934385
0.933749
0.933112
0.932475
0.931836
0.931197
0.930556
0.929915
0.929273
0.92863
0.927987
0.927342
0.926697
0.926051
0.925405
0.924757
0.92411
0.923461
0.922812
0.922162
0.921512
0.920861
0.92021
0.919558
0.918906
0.918253
0.9176
0.916946
0.916292
0.915637
0.914982
0.914327
0.913671
0.913015
0.912359
0.911702
0.911045
0.910388
0.909731
0.909073
0.908415
0.907757
0.907098
0.906439
0.90578
0.905121
0.904462
0.903802
0.903142
0.902482
0.901822
0.901162
0.900501
0.899841
0.89918
0.898519
0.897857
0.897196
0.896535
0.895873
0.895211
0.894549
0.893887
0.893225
0.892562
0.891899
0.891236
0.890573
0.88991
0.889246
0.888582
0.887918
0.887254
0.886589
0.885925
0.885259
0.884594
0.883928
0.883262
0.882595
0.881929
0.881261
0.880594
0.879925
0.879257
0.878588
0.877918
0.877248
0.876578
0.875906
0.875234
0.874562
0.873889
0.873215
0.872541
0.871865
0.871189
0.870512
0.869835
0.869156
0.868477
0.867796
0.867115
0.866433
0.865749
0.865065
0.864379
0.863692
0.863004
0.862315
0.861625
0.860933
0.86024
0.859545
0.858849
0.858152
0.857453
0.856753
0.856051
0.855347
0.854641
0.853934
0.853225
0.852515
0.851802
0.851088
0.850371
0.849653
0.848932
0.84821
0.847485
0.846758
0.846029
0.845298
0.844565
0.843829
0.84309
0.84235
0.841606
0.84086
0.840112
0.839361
0.838607
0.837851
0.837092
0.83633
0.835565
0.834798
0.834027
0.833254
0.832477
0.831698
0.830915
0.830129
0.82934
0.828548
0.827752
0.826954
0.826151
0.825346
0.824537
0.823725
0.822909
0.82209
0.821267
0.82044
0.81961
0.818776
0.817939
0.817097
0.816252
0.815404
0.814551
0.813694
0.812834
0.81197
0.811101
0.810229
0.809353
0.808472
0.807588
0.806699
0.805807
0.80491
0.804009
0.803104
0.802194
0.801281
0.800363
0.799441
0.798514
0.797584
0.796648
0.795709
0.794765
0.793817
0.792864
0.791907
0.790946
0.78998
0.78901
0.788035
0.787056
0.786072
0.785084
0.784091
0.783094
0.782092
0.781086
0.780075
0.779059
0.77804
0.777015
0.775986
0.774952
0.773914
0.772872
0.771824
0.770773
0.769716
0.768655
0.76759
0.76652
0.765446
0.764366
0.763283
0.762195
0.761102
0.760005
0.758904
0.757797
0.756687
0.755572
0.754452
0.753328
0.7522
0.751067
0.74993
0.748788
0.747642
0.746492
0.745337
0.744178
0.743014
0.741846
0.740674
0.739498
0.738318
0.737133
0.735944
0.73475
0.733553
0.732351
0.731146
0.729936
0.728722
0.727504
0.726282
0.725056
0.723826
0.722592
0.721354
0.720112
0.718866
0.717616
0.716363
0.715106
0.713844
0.712579
0.711311
0.710038
0.708762
0.707483
0.706199
0.704912
0.703622
0.702328
0.70103
0.699729
0.698425
0.697117
0.695805
0.694491
0.693173
0.691851
0.690527
0.689199
0.687868
0.686534
0.685197
0.683856
0.682513
0.681166
0.679817
0.678465
0.677109
0.675751
0.67439
0.673026
0.671659
0.67029
0.668917
0.667542
0.666165
0.664785
0.663402
0.662016
0.660629
0.659238
0.657845
0.65645
0.655052
0.653653
0.65225
0.650846
0.649439
0.64803
0.646619
0.645206
0.64379
0.642373
0.640953
0.639532
0.638108
0.636683
0.635256
0.633827
0.632396
0.630963
0.629529
0.628093
0.626655
0.625216
0.623775
0.622332
0.620888
0.619442
0.617995
0.616547
0.615097
0.613646
0.612193
0.610739
0.609284
0.607828
0.60637
0.604912
0.603452
0.601991
0.600529
0.599066
0.597602
0.596137
0.594671
0.593205
0.591737
0.590269
0.5888
0.58733
0.585859
0.584388
0.582916
0.581443
0.57997
0.578496
0.577022
0.575547
0.574072
0.572596
0.57112
0.569643
0.568167
0.566689
0.565212
0.563734
0.562256
0.560778
0.5593
0.557822
0.556343
0.554865
0.553386
0.551907
0.550429
0.54895
0.547472
0.545993
0.544515
0.543037
0.541559
0.540081
0.538604
0.537126
0.535649
0.534173
0.532696
0.53122
0.529745
0.52827
0.526795
0.525321
0.523847
0.522374
0.520901
0.519429
0.517957
0.516486
0.515016
0.513546
0.512077
0.510609
0.509142
0.507675
0.506209
0.504744
0.50328
0.501816
0.500354
0.498892
0.497431
0.495971
0.494512
0.493054
0.491597
0.490142
0.488687
0.487233
0.48578
0.484329
0.482878
0.481429
0.47998
0.478533
0.477088
0.475643
0.4742
0.472757
0.471317
0.469877
0.468439
0.467002
0.465566
0.464132
0.462699
0.461268
0.459837
0.458409
0.456982
0.455556
0.454132
0.452709
0.451288
0.449868
0.44845
0.447033
0.445618
0.444204
0.442792
0.441382
0.439973
0.438566
0.437161
0.435757
0.434355
0.432955
0.431556
0.430159
0.428764
0.42737
0.425978
0.424588
0.4232
0.421814
0.420429
0.419046
0.417665
0.416286
0.414909
0.413533
0.41216
0.410788
0.409418
0.40805
0.406684
0.40532
0.403958
0.402598
0.40124
0.399883
0.398529
0.397176
0.395826
0.394478
0.393131
0.391787
0.390444
0.389104
0.387766
0.386429
0.385095
0.383763
0.382433
0.381105
0.379779
0.378455
0.377133
0.375813
0.374496
0.37318
0.371867
0.370556
0.369247
0.36794
0.366635
0.365332
0.364031
0.362733
0.361437
0.360143
0.358851
0.357561
0.356274
0.354988
0.353705
0.352424
0.351145
0.349869
0.348594
0.347322
0.346052
0.344785
0.343519
0.342256
0.340995
0.339736
0.33848
0.337225
0.335973
0.334723
0.333476
0.332231
0.330987
0.329747
0.328508
0.327272
0.326038
0.324806
0.323577
0.322349
0.321125
0.319902
0.318682
0.317463
0.316248
0.315034
0.313823
0.312613
0.311407
0.310201
0.309003
0.307801
0.306651
0.305591
0.305591
1
1
1
1
1
1
1
1
1
1
1
1
1
1
1
1
1
1
1
1
1
1
1
1
1
1
1
1
1
1
1
1
1
1
1
0.999999
0.999999
0.999999
0.999999
0.999998
0.999997
0.999997
0.999995
0.999994
0.999992
0.99999
0.999988
0.999985
0.999982
0.999978
0.999973
0.999968
0.999961
0.999954
0.999946
0.999937
0.999926
0.999914
0.999901
0.999886
0.99987
0.999852
0.999832
0.99981
0.999786
0.99976
0.999731
0.9997
0.999667
0.999631
0.999592
0.99955
0.999505
0.999457
0.999406
0.999352
0.999294
0.999232
0.999167
0.999099
0.999026
0.998949
0.998869
0.998784
0.998695
0.998602
0.998504
0.998403
0.998296
0.998185
0.998069
0.997949
0.997824
0.997694
0.997559
0.997419
0.997275
0.997125
0.99697
0.99681
0.996645
0.996475
0.9963
0.996119
0.995933
0.995742
0.995546
0.995344
0.995137
0.994925
0.994707
0.994484
0.994256
0.994022
0.993783
0.993539
0.993289
0.993034
0.992774
0.992509
0.992238
0.991962
0.99168
0.991394
0.991102
0.990805
0.990502
0.990195
0.989883
0.989565
0.989242
0.988915
0.988582
0.988244
0.987901
0.987554
0.987201
0.986844
0.986482
0.986115
0.985743
0.985367
0.984986
0.984601
0.98421
0.983816
0.983416
0.983013
0.982604
0.982192
0.981775
0.981354
0.980928
0.980499
0.980065
0.979627
0.979185
0.978739
0.978289
0.977835
0.977377
0.976915
0.97645
0.975981
0.975508
0.975031
0.97455
0.974067
0.973579
0.973088
0.972594
0.972096
0.971595
0.97109
0.970582
0.970071
0.969557
0.96904
0.968519
0.967996
0.967469
0.96694
0.966407
0.965872
0.965334
0.964793
0.964249
0.963702
0.963153
0.962601
0.962047
0.96149
0.960931
0.960369
0.959804
0.959237
0.958668
0.958097
0.957523
0.956947
0.956369
0.955789
0.955206
0.954622
0.954035
0.953446
0.952856
0.952263
0.951669
0.951073
0.950474
0.949874
0.949273
0.948669
0.948064
0.947457
0.946849
0.946239
0.945627
0.945014
0.944399
0.943783
0.943165
0.942546
0.941926
0.941304
0.940681
0.940057
0.939431
0.938805
0.938176
0.937547
0.936917
0.936285
0.935653
0.935019
0.934385
0.933749
0.933112
0.932475
0.931836
0.931197
0.930556
0.929915
0.929273
0.92863
0.927987
0.927342
0.926697
0.926051
0.925405
0.924757
0.92411
0.923461
0.922812
0.922162
0.921512
0.920861
0.92021
0.919558
0.918906
0.918253
0.9176
0.916946
0.916292
0.915637
0.914982
0.914327
0.913671
0.913015
0.912359
0.911702
0.911045
0.910388
0.909731
0.909073
0.908415
0.907757
0.907098
0.906439
0.90578
0.905121
0.904462
0.903802
0.903142
0.902482
0.901822
0.901162
0.900501
0.899841
0.89918
0.898519
0.897857
0.897196
0.896535
0.895873
0.895211
0.894549
0.893887
0.893225
0.892562
0.891899
0.891236
0.890573
0.88991
0.889246
0.888582
0.887918
0.887254
0.886589
0.885925
0.885259
0.884594
0.883928
0.883262
0.882595
0.881929
0.881261
0.880594
0.879925
0.879257
0.878588
0.877918
0.877248
0.876578
0.875906
0.875234
0.874562
0.873889
0.873215
0.872541
0.871865
0.871189
0.870512
0.869835
0.869156
0.868477
0.867796
0.867115
0.866433
0.865749
0.865065
0.864379
0.863692
0.863004
0.862315
0.861625
0.860933
0.86024
0.859545
0.858849
0.858152
0.857453
0.856753
0.856051
0.855347
0.854641
0.853934
0.853225
0.852515
0.851802
0.851088
0.850371
0.849653
0.848932
0.84821
0.847485
0.846758
0.846029
0.845298
0.844565
0.843829
0.84309
0.84235
0.841606
0.84086
0.840112
0.839361
0.838607
0.837851
0.837092
0.83633
0.835565
0.834798
0.834027
0.833254
0.832477
0.831698
0.830915
0.830129
0.82934
0.828548
0.827752
0.826954
0.826151
0.825346
0.824537
0.823725
0.822909
0.82209
0.821267
0.82044
0.81961
0.818776
0.817939
0.817097
0.816252
0.815404
0.814551
0.813694
0.812834
0.81197
0.811101
0.810229
0.809353
0.808472
0.807588
0.806699
0.805807
0.80491
0.804009
0.803104
0.802194
0.801281
0.800363
0.799441
0.798514
0.797584
0.796648
0.795709
0.794765
0.793817
0.792864
0.791907
0.790946
0.78998
0.78901
0.788035
0.787056
0.786072
0.785084
0.784091
0.783094
0.782092
0.781086
0.780075
0.779059
0.77804
0.777015
0.775986
0.774952
0.773914
0.772872
0.771824
0.770773
0.769716
0.768655
0.76759
0.76652
0.765446
0.764366
0.763283
0.762195
0.761102
0.760005
0.758904
0.757797
0.756687
0.755572
0.754452
0.753328
0.7522
0.751067
0.74993
0.748788
0.747642
0.746492
0.745337
0.744178
0.743014
0.741846
0.740674
0.739498
0.738318
0.737133
0.735944
0.73475
0.733553
0.732351
0.731146
0.729936
0.728722
0.727504
0.726282
0.725056
0.723826
0.722592
0.721354
0.720112
0.718866
0.717616
0.716363
0.715106
0.713844
0.712579
0.711311
0.710038
0.708762
0.707483
0.706199
0.704912
0.703622
0.702328
0.70103
0.699729
0.698425
0.697117
0.695805
0.694491
0.693173
0.691851
0.690527
0.689199
0.687868
0.686534
0.685197
0.683856
0.682513
0.681166
0.679817
0.678465
0.677109
0.675751
0.67439
0.673026
0.671659
0.67029
0.668917
0.667542
0.666165
0.664785
0.663402
0.662016
0.660629
0.659238
0.657845
0.65645
0.655052
0.653653
0.65225
0.650846
0.649439
0.64803
0.646619
0.645206
0.64379
0.642373
0.640953
0.639532
0.638108
0.636683
0.635256
0.633827
0.632396
0.630963
0.629529
0.628093
0.626655
0.625216
0.623775
0.622332
0.620888
0.619442
0.617995
0.616547
0.615097
0.613646
0.612193
0.610739
0.609284
0.607828
0.60637
0.604912
0.603452
0.601991
0.600529
0.599066
0.597602
0.596137
0.594671
0.593205
0.591737
0.590269
0.5888
0.58733
0.585859
0.584388
0.582916
0.581443
0.57997
0.578496
0.577022
0.575547
0.574072
0.572596
0.57112
0.569643
0.568167
0.566689
0.565212
0.563734
0.562256
0.560778
0.5593
0.557822
0.556343
0.554865
0.553386
0.551907
0.550429
0.54895
0.547472
0.545993
0.544515
0.543037
0.541559
0.540081
0.538604
0.537126
0.535649
0.534173
0.532696
0.53122
0.529745
0.52827
0.526795
0.525321
0.523847
0.522374
0.520901
0.519429
0.517957
0.516486
0.515016
0.513546
0.512077
0.510609
0.509142
0.507675
0.506209
0.504744
0.50328
0.501816
0.500354
0.498892
0.497431
0.495971
0.494512
0.493054
0.491597
0.490142
0.488687
0.487233
0.48578
0.484329
0.482878
0.481429
0.47998
0.478533
0.477088
0.475643
0.4742
0.472757
0.471317
0.469877
0.468439
0.467002
0.465566
0.464132
0.462699
0.461268
0.459837
0.458409
0.456982
0.455556
0.454132
0.452709
0.451288
0.449868
0.44845
0.447033
0.445618
0.444204
0.442792
0.441382
0.439973
0.438566
0.437161
0.435757
0.434355
0.432955
0.431556
0.430159
0.428764
0.42737
0.425978
0.424588
0.4232
0.421814
0.420429
0.419046
0.417665
0.416286
0.414909
0.413533
0.41216
0.410788
0.409418
0.40805
0.406684
0.40532
0.403958
0.402598
0.40124
0.399883
0.398529
0.397176
0.395826
0.394478
0.393131
0.391787
0.390444
0.389104
0.387766
0.386429
0.385095
0.383763
0.382433
0.381105
0.379779
0.378455
0.377133
0.375813
0.374496
0.37318
0.371867
0.370556
0.369247
0.36794
0.366635
0.365332
0.364031
0.362733
0.361437
0.360143
0.358851
0.357561
0.356274
0.354988
0.353705
0.352424
0.351145
0.349869
0.348594
0.347322
0.346052
0.344785
0.343519
0.342256
0.340995
0.339736
0.33848
0.337225
0.335973
0.334723
0.333476
0.332231
0.330987
0.329747
0.328508
0.327272
0.326038
0.324806
0.323577
0.322349
0.321125
0.319902
0.318682
0.317463
0.316248
0.315034
0.313823
0.312613
0.311407
0.310201
0.309003
0.307801
0.306651
0.305591
0.305591
1
1
1
1
1
1
1
1
1
1
1
1
1
1
1
1
1
1
1
1
1
1
1
1
1
1
1
1
1
1
1
1
1
1
1
0.999999
0.999999
0.999999
0.999999
0.999998
0.999997
0.999997
0.999995
0.999994
0.999992
0.99999
0.999988
0.999985
0.999982
0.999978
0.999973
0.999968
0.999961
0.999954
0.999946
0.999937
0.999926
0.999914
0.999901
0.999886
0.99987
0.999852
0.999832
0.99981
0.999786
0.99976
0.999731
0.9997
0.999667
0.999631
0.999592
0.99955
0.999505
0.999457
0.999406
0.999352
0.999294
0.999232
0.999167
0.999098
0.999026
0.998949
0.998869
0.998784
0.998695
0.998602
0.998504
0.998402
0.998296
0.998185
0.998069
0.997949
0.997824
0.997694
0.997559
0.997419
0.997274
0.997124
0.99697
0.99681
0.996645
0.996474
0.996299
0.996118
0.995933
0.995742
0.995545
0.995343
0.995136
0.994924
0.994706
0.994483
0.994255
0.994022
0.993783
0.993538
0.993289
0.993034
0.992773
0.992508
0.992237
0.991961
0.991679
0.991393
0.991101
0.990804
0.990501
0.990194
0.989882
0.989564
0.989241
0.988914
0.988581
0.988243
0.9879
0.987553
0.9872
0.986843
0.986481
0.986114
0.985742
0.985366
0.984985
0.984599
0.984209
0.983814
0.983415
0.983011
0.982603
0.982191
0.981774
0.981353
0.980927
0.980497
0.980064
0.979626
0.979184
0.978738
0.978288
0.977834
0.977376
0.976914
0.976448
0.975979
0.975506
0.975029
0.974549
0.974065
0.973578
0.973087
0.972592
0.972094
0.971593
0.971089
0.970581
0.97007
0.969555
0.969038
0.968518
0.967994
0.967467
0.966938
0.966405
0.96587
0.965332
0.964791
0.964247
0.963701
0.963152
0.9626
0.962045
0.961488
0.960929
0.960367
0.959803
0.959236
0.958667
0.958095
0.957521
0.956946
0.956367
0.955787
0.955205
0.95462
0.954033
0.953445
0.952854
0.952262
0.951667
0.951071
0.950473
0.949873
0.949271
0.948667
0.948062
0.947455
0.946847
0.946237
0.945625
0.945012
0.944397
0.943781
0.943164
0.942545
0.941924
0.941303
0.940679
0.940055
0.93943
0.938803
0.938175
0.937545
0.936915
0.936284
0.935651
0.935017
0.934383
0.933747
0.93311
0.932473
0.931834
0.931195
0.930554
0.929913
0.929271
0.928628
0.927985
0.92734
0.926695
0.926049
0.925403
0.924756
0.924108
0.923459
0.92281
0.92216
0.92151
0.920859
0.920208
0.919556
0.918904
0.918251
0.917598
0.916944
0.91629
0.915635
0.914981
0.914325
0.91367
0.913014
0.912357
0.911701
0.911044
0.910386
0.909729
0.909071
0.908413
0.907755
0.907096
0.906437
0.905778
0.905119
0.90446
0.9038
0.90314
0.90248
0.90182
0.90116
0.9005
0.899839
0.899178
0.898517
0.897856
0.897195
0.896533
0.895871
0.89521
0.894548
0.893885
0.893223
0.892561
0.891898
0.891235
0.890572
0.889908
0.889245
0.888581
0.887917
0.887253
0.886588
0.885923
0.885258
0.884593
0.883927
0.883261
0.882595
0.881928
0.881261
0.880593
0.879925
0.879256
0.878587
0.877918
0.877248
0.876577
0.875906
0.875235
0.874562
0.873889
0.873215
0.872541
0.871866
0.87119
0.870513
0.869836
0.869157
0.868478
0.867798
0.867117
0.866434
0.865751
0.865067
0.864381
0.863695
0.863007
0.862318
0.861628
0.860936
0.860243
0.859549
0.858853
0.858156
0.857457
0.856757
0.856055
0.855351
0.854646
0.853939
0.853231
0.85252
0.851808
0.851094
0.850378
0.849659
0.848939
0.848217
0.847493
0.846766
0.846037
0.845306
0.844573
0.843838
0.843099
0.842359
0.841616
0.840871
0.840123
0.839372
0.838619
0.837863
0.837104
0.836342
0.835578
0.834811
0.834041
0.833268
0.832491
0.831712
0.83093
0.830145
0.829356
0.828564
0.827769
0.826971
0.826169
0.825364
0.824556
0.823744
0.822929
0.82211
0.821287
0.820461
0.819632
0.818798
0.817961
0.817121
0.816276
0.815428
0.814576
0.81372
0.81286
0.811996
0.811128
0.810257
0.809381
0.808501
0.807617
0.806729
0.805837
0.804941
0.804041
0.803136
0.802228
0.801315
0.800397
0.799476
0.79855
0.79762
0.796686
0.795747
0.794804
0.793856
0.792904
0.791948
0.790987
0.790022
0.789052
0.788078
0.7871
0.786117
0.785129
0.784137
0.78314
0.782139
0.781134
0.780124
0.779109
0.77809
0.777066
0.776038
0.775005
0.773968
0.772926
0.771879
0.770828
0.769773
0.768713
0.767648
0.766579
0.765505
0.764427
0.763344
0.762257
0.761165
0.760068
0.758968
0.757862
0.756752
0.755638
0.754519
0.753396
0.752269
0.751137
0.75
0.748859
0.747714
0.746564
0.74541
0.744252
0.743089
0.741923
0.740751
0.739576
0.738396
0.737212
0.736024
0.734831
0.733635
0.732434
0.731229
0.73002
0.728807
0.72759
0.726369
0.725143
0.723914
0.722681
0.721444
0.720203
0.718958
0.717709
0.716456
0.715199
0.713939
0.712675
0.711407
0.710136
0.70886
0.707581
0.706299
0.705013
0.703723
0.70243
0.701133
0.699833
0.698529
0.697222
0.695911
0.694597
0.69328
0.69196
0.690636
0.689309
0.687979
0.686645
0.685309
0.683969
0.682627
0.681281
0.679932
0.678581
0.677226
0.675868
0.674508
0.673145
0.671779
0.67041
0.669039
0.667664
0.666288
0.664908
0.663526
0.662141
0.660754
0.659365
0.657973
0.656578
0.655181
0.653782
0.65238
0.650977
0.64957
0.648162
0.646752
0.645339
0.643924
0.642508
0.641089
0.639668
0.638245
0.636821
0.635394
0.633966
0.632536
0.631104
0.62967
0.628235
0.626797
0.625359
0.623918
0.622476
0.621033
0.619588
0.618141
0.616694
0.615244
0.613794
0.612342
0.610888
0.609434
0.607978
0.606521
0.605063
0.603604
0.602144
0.600682
0.59922
0.597757
0.596292
0.594827
0.593361
0.591894
0.590426
0.588957
0.587488
0.586018
0.584547
0.583076
0.581604
0.580131
0.578658
0.577184
0.57571
0.574235
0.57276
0.571284
0.569808
0.568332
0.566855
0.565378
0.563901
0.562424
0.560946
0.559468
0.55799
0.556512
0.555034
0.553556
0.552078
0.5506
0.549122
0.547643
0.546165
0.544688
0.54321
0.541732
0.540255
0.538778
0.537301
0.535824
0.534348
0.532872
0.531397
0.529921
0.528447
0.526972
0.525498
0.524025
0.522552
0.52108
0.519608
0.518137
0.516666
0.515196
0.513727
0.512258
0.510791
0.509323
0.507857
0.506391
0.504927
0.503463
0.501999
0.500537
0.499076
0.497615
0.496156
0.494697
0.493239
0.491783
0.490327
0.488873
0.487419
0.485967
0.484515
0.483065
0.481616
0.480168
0.478721
0.477276
0.475831
0.474388
0.472946
0.471505
0.470066
0.468628
0.467191
0.465756
0.464322
0.462889
0.461458
0.460028
0.4586
0.457173
0.455747
0.454323
0.4529
0.451479
0.45006
0.448642
0.447225
0.44581
0.444397
0.442985
0.441575
0.440166
0.438759
0.437354
0.435951
0.434549
0.433148
0.43175
0.430353
0.428958
0.427564
0.426173
0.424783
0.423395
0.422009
0.420624
0.419241
0.41786
0.416481
0.415104
0.413729
0.412355
0.410984
0.409614
0.408246
0.40688
0.405516
0.404154
0.402794
0.401436