# vtk DataFile Version 2.0
FlowField
ASCII
DATASET STRUCTURED_GRID
DIMENSIONS 800 1 200
POINTS 160000 float
0 0 0
0.04 0 0
0.08 0 0
0.12 0 0
0.16 0 0
0.2 0 0
0.24 0 0
0.28 0 0
0.32 0 0
0.36 0 0
0.4 0 0
0.44 0 0
0.48 0 0
0.52 0 0
0.56 0 0
0.6 0 0
0.64 0 0
0.68 0 0
0.72 0 0
0.76 0 0
0.8 0 0
0.84 0 0
0.88 0 0
0.92 0 0
0.96 0 0
1 0 0
1.04 0 0
1.08 0 0
1.12 0 0
1.16 0 0
1.2 0 0
1.24 0 0
1.28 0 0
1.32 0 0
1.36 0 0
1.4 0 0
1.44 0 0
1.48 0 0
1.52 0 0
1.56 0 0
1.6 0 0
1.64 0 0
1.68 0 0
1.72 0 0
1.76 0 0
1.8 0 0
1.84 0 0
1.88 0 0
1.92 0 0
1.96 0 0
2 0 0
2.04 0 0
2.08 0 0
2.12 0 0
2.16 0 0
2.2 0 0
2.24 0 0
2.28 0 0
2.32 0 0
2.36 0 0
2.4 0 0
2.44 0 0
2.48 0 0
2.52 0 0
2.56 0 0
2.6 0 0
2.64 0 0
2.68 0 0
2.72 0 0
2.76 0 0
2.8 0 0
2.84 0 0
2.88 0 0
2.92 0 0
2.96 0 0
3 0 0
3.04 0 0
3.08 0 0
3.12 0 0
3.16 0 0
3.2 0 0
3.24 0 0
3.28 0 0
3.32 0 0
3.36 0 0
3.4 0 0
3.44 0 0
3.48 0 0
3.52 0 0
3.56 0 0
3.6 0 0
3.64 0 0
3.68 0 0
3.72 0 0
3.76 0 0
3.8 0 0
3.84 0 0
3.88 0 0
3.92 0 0
3.96 0 0
4 0 0
4.04 0 0
4.08 0 0
4.12 0 0
4.16 0 0
4.2 0 0
4.24 0 0
4.28 0 0
4.32 0 0
4.36 0 0
4.4 0 0
4.44 0 0
4.48 0 0
4.52 0 0
4.56 0 0
4.6 0 0
4.64 0 0
4.68 0 0
4.72 0 0
4.76 0 0
4.8 0 0
4.84 0 0
4.88 0 0
4.92 0 0
4.96 0 0
5 0 0
5.04 0 0
5.08 0 0
5.12 0 0
5.16 0 0
5.2 0 0
5.24 0 0
5.28 0 0
5.32 0 0
5.36 0 0
5.4 0 0
5.44 0 0
5.48 0 0
5.52 0 0
5.56 0 0
5.6 0 0
5.64 0 0
5.68 0 0
5.72 0 0
5.76 0 0
5.8 0 0
5.84 0 0
5.88 0 0
5.92 0 0
5.96 0 0
6 0 0
6.04 0 0
6.08 0 0
6.12 0 0
6.16 0 0
6.2 0 0
6.24 0 0
6.28 0 0
6.32 0 0
6.36 0 0
6.4 0 0
6.44 0 0
6.48 0 0
6.52 0 0
6.56 0 0
6.6 0 0
6.64 0 0
6.68 0 0
6.72 0 0
6.76 0 0
6.8 0 0
6.84 0 0
6.88 0 0
6.92 0 0
6.96 0 0
7 0 0
7.04 0 0
7.08 0 0
7.12 0 0
7.16 0 0
7.2 0 0
7.24 0 0
7.28 0 0
7.32 0 0
7.36 0 0
7.4 0 0
7.44 0 0
7.48 0 0
7.52 0 0
7.56 0 0
7.6 0 0
7.64 0 0
7.68 0 0
7.72 0 0
7.76 0 0
7.8 0 0
7.84 0 0
7.88 0 0
7.92 0 0
7.96 0 0
8 0 0
8.04 0 0
8.08 0 0
8.12 0 0
8.16 0 0
8.2 0 0
8.24 0 0
8.28 0 0
8.32 0 0
8.36 0 0
8.4 0 0
8.44 0 0
8.48 0 0
8.52 0 0
8.56 0 0
8.6 0 0
8.64 0 0
8.68 0 0
8.72 0 0
8.76 0 0
8.8 0 0
8.84 0 0
8.88 0 0
8.92 0 0
8.96 0 0
9 0 0
9.04 0 0
9.08 0 0
9.12 0 0
9.16 0 0
9.2 0 0
9.24 0 0
9.28 0 0
9.32 0 0
9.36 0 0
9.4 0 0
9.44 0 0
9.48 0 0
9.52 0 0
9.56 0 0
9.6 0 0
9.64 0 0
9.68 0 0
9.72 0 0
9.76 0 0
9.8 0 0
9.84 0 0
9.88 0 0
9.92 0 0
9.96 0 0
10 0 0
10.04 0 0
10.08 0 0
10.12 0 0
10.16 0 0
10.2 0 0
10.24 0 0
10.28 0 0
10.32 0 0
10.36 0 0
10.4 0 0
10.44 0 0
10.48 0 0
10.52 0 0
10.56 0 0
10.6 0 0
10.64 0 0
10.68 0 0
10.72 0 0
10.76 0 0
10.8 0 0
10.84 0 0
10.88 0 0
10.92 0 0
10.96 0 0
11 0 0
11.04 0 0
11.08 0 0
11.12 0 0
11.16 0 0
11.2 0 0
11.24 0 0
11.28 0 0
11.32 0 0
11.36 0 0
11.4 0 0
11.44 0 0
11.48 0 0
11.52 0 0
11.56 0 0
11.6 0 0
11.64 0 0
11.68 0 0
11.72 0 0
11.76 0 0
11.8 0 0
11.84 0 0
11.88 0 0
11.92 0 0
11.96 0 0
12 0 0
12.04 0 0
12.08 0 0
12.12 0 0
12.16 0 0
12.2 0 0
12.24 0 0
12.28 0 0
12.32 0 0
12.36 0 0
12.4 0 0
12.44 0 0
12.48 0 0
12.52 0 0
12.56 0 0
12.6 0 0
12.64 0 0
12.68 0 0
12.72 0 0
12.76 0 0
12.8 0 0
12.84 0 0
12.88 0 0
12.92 0 0
12.96 0 0
13 0 0
13.04 0 0
13.08 0 0
13.12 0 0
13.16 0 0
13.2 0 0
13.24 0 0
13.28 0 0
13.32 0 0
13.36 0 0
13.4 0 0
13.44 0 0
13.48 0 0
13.52 0 0
13.56 0 0
13.6 0 0
13.64 0 0
13.68 0 0
13.72 0 0
13.76 0 0
13.8 0 0
13.84 0 0
13.88 0 0
13.92 0 0
13.96 0 0
14 0 0
14.04 0 0
14.08 0 0
14.12 0 0
14.16 0 0
14.2 0 0
14.24 0 0
14.28 0 0
14.32 0 0
14.36 0 0
14.4 0 0
14.44 0 0
14.48 0 0
14.52 0 0
14.56 0 0
14.6 0 0
14.64 0 0
14.68 0 0
14.72 0 0
14.76 0 0
14.8 0 0
14.84 0 0
14.88 0 0
14.92 0 0
14.96 0 0
15 0 0
15.04 0 0
15.08 0 0
15.12 0 0
15.16 0 0
15.2 0 0
15.24 0 0
15.28 0 0
15.32 0 0
15.36 0 0
15.4 0 0
15.44 0 0
15.48 0 0
15.52 0 0
15.56 0 0
15.6 0 0
15.64 0 0
15.68 0 0
15.72 0 0
15.76 0 0
15.8 0 0
15.84 0 0
15.88 0 0
15.92 0 0
15.96 0 0
16 0 0
16.04 0 0
16.08 0 0
16.12 0 0
16.16 0 0
16.2 0 0
16.24 0 0
16.28 0 0
16.32 0 0
16.36 0 0
16.4 0 0
16.44 0 0
16.48 0 0
16.52 0 0
16.56 0 0
16.6 0 0
16.64 0 0
16.68 0 0
16.72 0 0
16.76 0 0
16.8 0 0
16.84 0 0
16.88 0 0
16.92 0 0
16.96 0 0
17 0 0
17.04 0 0
17.08 0 0
17.12 0 0
17.16 0 0
17.2 0 0
17.24 0 0
17.28 0 0
17.32 0 0
17.36 0 0
17.4 0 0
17.44 0 0
17.48 0 0
17.52 0 0
17.56 0 0
17.6 0 0
17.64 0 0
17.68 0 0
17.72 0 0
17.76 0 0
17.8 0 0
17.84 0 0
17.88 0 0
17.92 0 0
17.96 0 0
18 0 0
18.04 0 0
18.08 0 0
18.12 0 0
18.16 0 0
18.2 0 0
18.24 0 0
18.28 0 0
18.32 0 0
18.36 0 0
18.4 0 0
18.44 0 0
18.48 0 0
18.52 0 0
18.56 0 0
18.6 0 0
18.64 0 0
18.68 0 0
18.72 0 0
18.76 0 0
18.8 0 0
18.84 0 0
18.88 0 0
18.92 0 0
18.96 0 0
19 0 0
19.04 0 0
19.08 0 0
19.12 0 0
19.16 0 0
19.2 0 0
19.24 0 0
19.28 0 0
19.32 0 0
19.36 0 0
19.4 0 0
19.44 0 0
19.48 0 0
19.52 0 0
19.56 0 0
19.6 0 0
19.64 0 0
19.68 0 0
19.72 0 0
19.76 0 0
19.8 0 0
19.84 0 0
19.88 0 0
19.92 0 0
19.96 0 0
20 0 0
20.04 0 0
20.08 0 0
20.12 0 0
20.16 0 0
20.2 0 0
20.24 0 0
20.28 0 0
20.32 0 0
20.36 0 0
20.4 0 0
20.44 0 0
20.48 0 0
20.52 0 0
20.56 0 0
20.6 0 0
20.64 0 0
20.68 0 0
20.72 0 0
20.76 0 0
20.8 0 0
20.84 0 0
20.88 0 0
20.92 0 0
20.96 0 0
21 0 0
21.04 0 0
21.08 0 0
21.12 0 0
21.16 0 0
21.2 0 0
21.24 0 0
21.28 0 0
21.32 0 0
21.36 0 0
21.4 0 0
21.44 0 0
21.48 0 0
21.52 0 0
21.56 0 0
21.6 0 0
21.64 0 0
21.68 0 0
21.72 0 0
21.76 0 0
21.8 0 0
21.84 0 0
21.88 0 0
21.92 0 0
21.96 0 0
22 0 0
22.04 0 0
22.08 0 0
22.12 0 0
22.16 0 0
22.2 0 0
22.24 0 0
22.28 0 0
22.32 0 0
22.36 0 0
22.4 0 0
22.44 0 0
22.48 0 0
22.52 0 0
22.56 0 0
22.6 0 0
22.64 0 0
22.68 0 0
22.72 0 0
22.76 0 0
22.8 0 0
22.84 0 0
22.88 0 0
22.92 0 0
22.96 0 0
23 0 0
23.04 0 0
23.08 0 0
23.12 0 0
23.16 0 0
23.2 0 0
23.24 0 0
23.28 0 0
23.32 0 0
23.36 0 0
23.4 0 0
23.44 0 0
23.48 0 0
23.52 0 0
23.56 0 0
23.6 0 0
23.64 0 0
23.68 0 0
23.72 0 0
23.76 0 0
23.8 0 0
23.84 0 0
23.88 0 0
23.92 0 0
23.96 0 0
24 0 0
24.04 0 0
24.08 0 0
24.12 0 0
24.16 0 0
24.2 0 0
24.24 0 0
24.28 0 0
24.32 0 0
24.36 0 0
24.4 0 0
24.44 0 0
24.48 0 0
24.52 0 0
24.56 0 0
24.6 0 0
24.64 0 0
24.68 0 0
24.72 0 0
24.76 0 0
24.8 0 0
24.84 0 0
24.88 0 0
24.92 0 0
24.96 0 0
25 0 0
25.04 0 0
25.08 0 0
25.12 0 0
25.16 0 0
25.2 0 0
25.24 0 0
25.28 0 0
25.32 0 0
25.36 0 0
25.4 0 0
25.44 0 0
25.48 0 0
25.52 0 0
25.56 0 0
25.6 0 0
25.64 0 0
25.68 0 0
25.72 0 0
25.76 0 0
25.8 0 0
25.84 0 0
25.88 0 0
25.92 0 0
25.96 0 0
26 0 0
26.04 0 0
26.08 0 0
26.12 0 0
26.16 0 0
26.2 0 0
26.24 0 0
26.28 0 0
26.32 0 0
26.36 0 0
26.4 0 0
26.44 0 0
26.48 0 0
26.52 0 0
26.56 0 0
26.6 0 0
26.64 0 0
26.68 0 0
26.72 0 0
26.76 0 0
26.8 0 0
26.84 0 0
26.88 0 0
26.92 0 0
26.96 0 0
27 0 0
27.04 0 0
27.08 0 0
27.12 0 0
27.16 0 0
27.2 0 0
27.24 0 0
27.28 0 0
27.32 0 0
27.36 0 0
27.4 0 0
27.44 0 0
27.48 0 0
27.52 0 0
27.56 0 0
27.6 0 0
27.64 0 0
27.68 0 0
27.72 0 0
27.76 0 0
27.8 0 0
27.84 0 0
27.88 0 0
27.92 0 0
27.96 0 0
28 0 0
28.04 0 0
28.08 0 0
28.12 0 0
28.16 0 0
28.2 0 0
28.24 0 0
28.28 0 0
28.32 0 0
28.36 0 0
28.4 0 0
28.44 0 0
28.48 0 0
28.52 0 0
28.56 0 0
28.6 0 0
28.64 0 0
28.68 0 0
28.72 0 0
28.76 0 0
28.8 0 0
28.84 0 0
28.88 0 0
28.92 0 0
28.96 0 0
29 0 0
29.04 0 0
29.08 0 0
29.12 0 0
29.16 0 0
29.2 0 0
29.24 0 0
29.28 0 0
29.32 0 0
29.36 0 0
29.4 0 0
29.44 0 0
29.48 0 0
29.52 0 0
29.56 0 0
29.6 0 0
29.64 0 0
29.68 0 0
29.72 0 0
29.76 0 0
29.8 0 0
29.84 0 0
29.88 0 0
29.92 0 0
29.96 0 0
30 0 0
30.04 0 0
30.08 0 0
30.12 0 0
30.16 0 0
30.2 0 0
30.24 0 0
30.28 0 0
30.32 0 0
30.36 0 0
30.4 0 0
30.44 0 0
30.48 0 0
30.52 0 0
30.56 0 0
30.6 0 0
30.64 0 0
30.68 0 0
30.72 0 0
30.76 0 0
30.8 0 0
30.84 0 0
30.88 0 0
30.92 0 0
30.96 0 0
31 0 0
31.04 0 0
31.08 0 0
31.12 0 0
31.16 0 0
31.2 0 0
31.24 0 0
31.28 0 0
31.32 0 0
31.36 0 0
31.4 0 0
31.44 0 0
31.48 0 0
31.52 0 0
31.56 0 0
31.6 0 0
31.64 0 0
31.68 0 0
31.72 0 0
31.76 0 0
31.8 0 0
31.84 0 0
31.88 0 0
31.92 0 0
31.96 0 0
0 0.005 0
0.04 0.005 0
0.08 0.005 0
0.12 0.005 0
0.16 0.005 0
0.2 0.005 0
0.24 0.005 0
0.28 0.005 0
0.32 0.005 0
0.36 0.005 0
0.4 0.005 0
0.44 0.005 0
0.48 0.005 0
0.52 0.005 0
0.56 0.005 0
0.6 0.005 0
0.64 0.005 0
0.68 0.005 0
0.72 0.005 0
0.76 0.005 0
0.8 0.005 0
0.84 0.005 0
0.88 0.005 0
0.92 0.005 0
0.96 0.005 0
1 0.005 0
1.04 0.005 0
1.08 0.005 0
1.12 0.005 0
1.16 0.005 0
1.2 0.005 0
1.24 0.005 0
1.28 0.005 0
1.32 0.005 0
1.36 0.005 0
1.4 0.005 0
1.44 0.005 0
1.48 0.005 0
1.52 0.005 0
1.56 0.005 0
1.6 0.005 0
1.64 0.005 0
1.68 0.005 0
1.72 0.005 0
1.76 0.005 0
1.8 0.005 0
1.84 0.005 0
1.88 0.005 0
1.92 0.005 0
1.96 0.005 0
2 0.005 0
2.04 0.005 0
2.08 0.005 0
2.12 0.005 0
2.16 0.005 0
2.2 0.005 0
2.24 0.005 0
2.28 0.005 0
2.32 0.005 0
2.36 0.005 0
2.4 0.005 0
2.44 0.005 0
2.48 0.005 0
2.52 0.005 0
2.56 0.005 0
2.6 0.005 0
2.64 0.005 0
2.68 0.005 0
2.72 0.005 0
2.76 0.005 0
2.8 0.005 0
2.84 0.005 0
2.88 0.005 0
2.92 0.005 0
2.96 0.005 0
3 0.005 0
3.04 0.005 0
3.08 0.005 0
3.12 0.005 0
3.16 0.005 0
3.2 0.005 0
3.24 0.005 0
3.28 0.005 0
3.32 0.005 0
3.36 0.005 0
3.4 0.005 0
3.44 0.005 0
3.48 0.005 0
3.52 0.005 0
3.56 0.005 0
3.6 0.005 0
3.64 0.005 0
3.68 0.005 0
3.72 0.005 0
3.76 0.005 0
3.8 0.005 0
3.84 0.005 0
3.88 0.005 0
3.92 0.005 0
3.96 0.005 0
4 0.005 0
4.04 0.005 0
4.08 0.005 0
4.12 0.005 0
4.16 0.005 0
4.2 0.005 0
4.24 0.005 0
4.28 0.005 0
4.32 0.005 0
4.36 0.005 0
4.4 0.005 0
4.44 0.005 0
4.48 0.005 0
4.52 0.005 0
4.56 0.005 0
4.6 0.005 0
4.64 0.005 0
4.68 0.005 0
4.72 0.005 0
4.76 0.005 0
4.8 0.005 0
4.84 0.005 0
4.88 0.005 0
4.92 0.005 0
4.96 0.005 0
5 0.005 0
5.04 0.005 0
5.08 0.005 0
5.12 0.005 0
5.16 0.005 0
5.2 0.005 0
5.24 0.005 0
5.28 0.005 0
5.32 0.005 0
5.36 0.005 0
5.4 0.005 0
5.44 0.005 0
5.48 0.005 0
5.52 0.005 0
5.56 0.005 0
5.6 0.005 0
5.64 0.005 0
5.68 0.005 0
5.72 0.005 0
5.76 0.005 0
5.8 0.005 0
5.84 0.005 0
5.88 0.005 0
5.92 0.005 0
5.96 0.005 0
6 0.005 0
6.04 0.005 0
6.08 0.005 0
6.12 0.005 0
6.16 0.005 0
6.2 0.005 0
6.24 0.005 0
6.28 0.005 0
6.32 0.005 0
6.36 0.005 0
6.4 0.005 0
6.44 0.005 0
6.48 0.005 0
6.52 0.005 0
6.56 0.005 0
6.6 0.005 0
6.64 0.005 0
6.68 0.005 0
6.72 0.005 0
6.76 0.005 0
6.8 0.005 0
6.84 0.005 0
6.88 0.005 0
6.92 0.005 0
6.96 0.005 0
7 0.005 0
7.04 0.005 0
7.08 0.005 0
7.12 0.005 0
7.16 0.005 0
7.2 0.005 0
7.24 0.005 0
7.28 0.005 0
7.32 0.005 0
7.36 0.005 0
7.4 0.005 0
[...]
POINT_DATA 160000

SCALARS phi float 1
LOOKUP_TABLE default
1
1
1
1
1
1
1
1
1
1
1
1
1
1
1
1
1
1
1
1
1
1
1
1
1
1
1
1
1
1
1
1
1
1
1
0.999999
0.999999
0.999999
0.999999
0.999998
0.999997
0.999997
0.999995
0.999994
0.999992
0.99999
0.999988
0.999985
0.999982
0.999978
0.999973
0.999968
0.999961
0.999954
0.999946
0.999937
0.999926
0.999914
0.999901
0.999886
0.99987
0.999852
0.999832
0.99981
0.999786
0.99976
0.999731
0.9997
0.999667
0.999631
0.999592
0.99955
0.999505
0.999457
0.999406
0.999352
0.999294
0.999232
0.999167
0.999099
0.999026
0.998949
0.998869
0.998784
0.998695
0.998602
0.998504
0.998403
0.998296
0.998185
0.998069
0.997949
0.997824
0.997694
0.997559
0.997419
0.997275
0.997125
0.99697
0.99681
0.996645
0.996475
0.9963
0.996119
0.995933
0.995742
0.995546
0.995344
0.995137
0.994925
0.994707
0.994484
0.994256
0.994022
0.993783
0.993539
0.993289
0.993034
0.992774
0.992509
0.992238
0.991962
0.99168
0.991394
0.991102
0.990805
0.990502
0.990195
0.989883
0.989565
0.989242
0.988915
0.988582
0.988244
0.987901
0.987554
0.987201
0.986844
0.986482
0.986115
0.985743
0.985367
0.984986
0.984601
0.98421
0.983816
0.983416
0.983013
0.982604
0.982192
0.981775
0.981354
0.980928
0.980499
0.980065
0.979627
0.979185
0.978739
0.978289
0.977835
0.977377
0.976915
0.97645
0.975981
0.975508
0.975031
0.97455
0.974067
0.973579
0.973088
0.972594
0.972096
0.971595
0.97109
0.970582
0.970071
0.969557
0.96904
0.968519
0.967996
0.967469
0.96694
0.966407
0.965872
0.965334
0.964793
0.964249
0.963702
0.963153
0.962601
0.962047
0.96149
0.960931
0.960369
0.959804
0.959237
0.958668
0.958097
0.957523
0.956947
0.956369
0.955789
0.955206
0.954622
0.954035
0.953446
0.952856
0.952263
0.951669
0.951073
0.950474
0.949874
0.949273
0.948669
0.948064
0.947457
0.946849
0.946239
0.945627
0.945014
0.944399
0.943783
0.943165
0.942546
0.941926
0.941304
0.940681
0.940057
0.939431
0.938805
0.938177
0.937547
0.936917
0.936285
0.935653
0.935019
0.934385
0.933749
0.933112
0.932475
0.931836
0.931197
0.930557
0.929915
0.929273
0.928631
0.927987
0.927343
0.926698
0.926052
0.925406
0.924758
0.924111
0.923462
0.922813
0.922164
0.921514
0.920863
0.920212
0.91956
0.918908
0.918256
0.917603
0.91695
0.916296
0.915642
0.914987
0.914333
0.913677
0.913022
0.912366
0.911711
0.911054
0.910398
0.909741
0.909085
0.908428
0.907771
0.907114
0.906456
0.905799
0.905141
0.904484
0.903826
0.903168
0.902511
0.901853
0.901195
0.900538
0.89988
0.899222
0.898565
0.897907
0.89725
0.896593
0.895935
0.895278
0.894622
0.893965
0.893308
0.892652
0.891996
0.89134
0.890684
0.890028
0.889373
0.888718
0.888063
0.887408
0.886754
0.8861
0.885447
0.884793
0.88414
0.883488
0.882835
0.882183
0.881532
0.88088
0.880229
0.879579
0.878929
0.878279
0.87763
0.876981
0.876333
0.875685
0.875037
0.87439
0.873744
0.873098
0.872452
0.871807
0.871163
0.870518
0.869875
0.869232
0.868589
0.867947
0.867306
0.866665
0.866025
0.865385
0.864746
0.864107
0.863469
0.862832
0.862195
0.861559
0.860923
0.860288
0.859654
0.85902
0.858387
0.857755
0.857123
0.856492
0.855861
0.855231
0.854602
0.853973
0.853345
0.852718
0.852092
0.851466
0.850841
0.850216
0.849592
0.848969
0.848347
0.847725
0.847104
0.846484
0.845864
0.845245
0.844627
0.84401
0.843393
0.842777
0.842162
0.841547
0.840934
0.84032
0.839708
0.839097
0.838486
0.837876
0.837266
0.836658
0.83605
0.835443
0.834836
0.834231
0.833626
0.833022
0.832419
0.831816
0.831214
0.830613
0.830013
0.829413
0.828814
0.828216
0.827619
0.827022
0.826426
0.825831
0.825237
0.824643
0.82405
0.823458
0.822867
0.822276
0.821686
0.821097
0.820508
0.81992
0.819333
0.818747
0.818161
0.817576
0.816992
0.816408
0.815826
0.815244
0.814662
0.814081
0.813501
0.812922
0.812343
0.811765
0.811188
0.810611
0.810035
0.809459
0.808884
0.80831
0.807737
0.807164
0.806591
0.806019
0.805448
0.804878
0.804308
0.803738
0.803169
0.802601
0.802033
0.801466
0.800899
0.800333
0.799768
0.799202
0.798638
0.798074
0.79751
0.796947
0.796384
0.795822
0.79526
0.794698
0.794137
0.793577
0.793016
0.792456
0.791897
0.791338
0.790779
0.79022
0.789662
0.789104
0.788547
0.78799
0.787433
0.786876
0.786319
0.785763
0.785207
0.784651
0.784096
0.78354
0.782985
0.78243
0.781875
0.78132
0.780765
0.780211
0.779656
0.779102
0.778547
0.777993
0.777438
0.776884
0.77633
0.775775
0.775221
0.774666
0.774112
0.773557
0.773003
0.772448
0.771893
0.771338
0.770783
0.770227
0.769671
0.769116
0.76856
0.768003
0.767447
0.76689
0.766333
0.765775
0.765218
0.76466
0.764101
0.763543
0.762983
0.762424
0.761864
0.761303
0.760743
0.760181
0.759619
0.759057
0.758494
0.757931
0.757367
0.756803
0.756238
0.755672
0.755106
0.754539
0.753971
0.753403
0.752834
0.752265
0.751694
0.751123
0.750552
0.749979
0.749406
0.748832
0.748257
0.747681
0.747105
0.746527
0.745949
0.74537
0.74479
0.744209
0.743627
0.743044
0.74246
0.741876
0.74129
0.740703
0.740116
0.739527
0.738937
0.738346
0.737754
0.737161
0.736567
0.735972
0.735375
0.734778
0.734179
0.733579
0.732978
0.732376
0.731772
0.731167
0.730562
0.729954
0.729346
0.728736
0.728125
0.727513
0.726899
0.726284
0.725668
0.72505
0.724431
0.723811
0.723189
0.722566
0.721942
0.721316
0.720689
0.72006
0.71943
0.718798
0.718165
0.71753
0.716894
0.716257
0.715618
0.714977
0.714335
0.713691
0.713046
0.712399
0.711751
0.711101
0.71045
0.709797
0.709143
0.708486
0.707829
0.707169
0.706508
0.705846
0.705182
0.704516
0.703849
0.703179
0.702509
0.701836
0.701162
0.700487
0.699809
0.69913
0.69845
0.697767
0.697083
0.696397
0.69571
0.695021
0.69433
0.693637
0.692943
0.692247
0.691549
0.690849
0.690148
0.689445
0.688741
0.688034
0.687326
0.686616
0.685905
0.685191
0.684476
0.683759
0.683041
0.68232
0.681598
0.680875
0.680149
0.679422
0.678693
0.677962
0.677229
0.676495
0.675759
0.675021
0.674282
0.67354
0.672797
0.672052
0.671306
0.670558
0.669808
0.669056
0.668302
0.667547
0.66679
0.666032
0.665271
0.664509
0.663745
0.66298
0.662212
0.661443
0.660673
0.6599
0.659126
0.65835
0.657573
0.656793
0.656012
0.65523
0.654446
0.65366
0.652872
0.652083
0.651292
0.650499
0.649705
0.648909
0.648111
0.647312
0.646511
0.645709
0.644905
0.644099
0.643292
0.642483
0.641672
0.64086
0.640046
0.639231
0.638414
0.637596
0.636776
0.635954
0.635131
0.634306
0.63348
0.632652
0.631823
0.630992
0.63016
0.629326
0.628491
0.627654
0.626816
0.625976
0.625135
0.624293
0.623449
0.622603
0.621756
0.620908
0.620058
0.619207
0.618354
0.6175
0.616645
0.615788
0.61493
0.614071
0.61321
0.612348
0.611484
0.61062
0.609754
0.608886
0.608017
0.607147
0.606276
0.605404
0.60453
0.603655
0.602779
0.601901
0.601022
0.600142
0.599261
0.598379
0.597495
0.596611
0.595725
0.594838
0.59395
0.59306
0.59217
0.591278
0.590386
0.589492
0.588597
0.587701
0.586804
0.585906
0.585007
0.584107
0.583205
0.582303
0.5814
0.580496
0.579591
0.578684
0.577777
0.576869
0.57596
0.57505
0.574139
0.573227
0.572314
0.571401
0.570486
0.56957
0.568654
0.567737
0.566819
0.5659
0.56498
0.56406
0.563138
0.562216
0.561293
0.560369
0.559445
0.558518
0.557596
0.556667
0.555777
0.554957
0.554957
1
1
1
1
1
1
1
1
1
1
1
1
1
1
1
1
1
1
1
1
1
1
1
1
1
1
1
1
1
1
1
1
1
1
1
0.999999
0.999999
0.999999
0.999999
0.999998
0.999997
0.999997
0.999995
0.999994
0.999992
0.99999
0.999988
0.999985
0.999982
0.999978
0.999973
0.999968
0.999961
0.999954
0.999946
0.999937
0.999926
0.999914
0.999901
0.999886
0.99987
0.999852
0.999832
0.99981
0.999786
0.99976
0.999731
0.9997
0.999667
0.999631
0.999592
0.99955
0.999505
0.999457
0.999406
0.999352
0.999294
0.999232
0.999167
0.999099
0.999026
0.998949
0.998869
0.998784
0.998695
0.998602
0.998504
0.998403
0.998296
0.998185
0.998069
0.997949
0.997824
0.997694
0.997559
0.997419
0.997275
0.997125
0.99697
0.99681
0.996645
0.996475
0.9963
0.996119
0.995933
0.995742
0.995546
0.995344
0.995137
0.994925
0.994707
0.994484
0.994256
0.994022
0.993783
0.993539
0.993289
0.993034
0.992774
0.992509
0.992238
0.991962
0.99168
0.991394
0.991102
0.990805
0.990502
0.990195
0.989883
0.989565
0.989242
0.988915
0.988582
0.988244
0.987901
0.987554
0.987201
0.986844
0.986482
0.986115
0.985743
0.985367
0.984986
0.984601
0.98421
0.983816
0.983416
0.983013
0.982604
0.982192
0.981775
0.981354
0.980928
0.980499
0.980065
0.979627
0.979185
0.978739
0.978289
0.977835
0.977377
0.976915
0.97645
0.975981
0.975508
0.975031
0.97455
0.974067
0.973579
0.973088
0.972594
0.972096
0.971595
0.97109
0.970582
0.970071
0.969557
0.96904
0.968519
0.967996
0.967469
0.96694
0.966407
0.965872
0.965334
0.964793
0.964249
0.963702
0.963153
0.962601
0.962047
0.96149
0.960931
0.960369
0.959804
0.959237
0.958668
0.958097
0.957523
0.956947
0.956369
0.955789
0.955206
0.954622
0.954035
0.953446
0.952856
0.952263
0.951669
0.951073
0.950474
0.949874
0.949273
0.948669
0.948064
0.947457
0.946849
0.946239
0.945627
0.945014
0.944399
0.943783
0.943165
0.942546
0.941926
0.941304
0.940681
0.940057
0.939431
0.938805
0.938177
0.937547
0.936917
0.936285
0.935653
0.935019
0.934385
0.933749
0.933112
0.932475
0.931836
0.931197
0.930557
0.929915
0.929273
0.928631
0.927987
0.927343
0.926698
0.926052
0.925406
0.924758
0.924111
0.923462
0.922813
0.922164
0.921514
0.920863
0.920212
0.91956
0.918908
0.918256
0.917603
0.91695
0.916296
0.915642
0.914987
0.914333
0.913677
0.913022
0.912366
0.911711
0.911054
0.910398
0.909741
0.909085
0.908428
0.907771
0.907114
0.906456
0.905799
0.905141
0.904484
0.903826
0.903168
0.902511
0.901853
0.901195
0.900538
0.89988
0.899222
0.898565
0.897907
0.89725
0.896593
0.895935
0.895278
0.894622
0.893965
0.893308
0.892652
0.891996
0.89134
0.890684
0.890028
0.889373
0.888718
0.888063
0.887408
0.886754
0.8861
0.885447
0.884793
0.88414
0.883488
0.882835
0.882183
0.881532
0.88088
0.880229
0.879579
0.878929
0.878279
0.87763
0.876981
0.876333
0.875685
0.875037
0.87439
0.873744
0.873098
0.872452
0.871807
0.871163
0.870518
0.869875
0.869232
0.868589
0.867947
0.867306
0.866665
0.866025
0.865385
0.864746
0.864107
0.863469
0.862832
0.862195
0.861559
0.860923
0.860288
0.859654
0.85902
0.858387
0.857755
0.857123
0.856492
0.855861
0.855231
0.854602
0.853973
0.853345
0.852718
0.852092
0.851466
0.850841
0.850216
0.849592
0.848969
0.848347
0.847725
0.847104
0.846484
0.845864
0.845245
0.844627
0.84401
0.843393
0.842777
0.842162
0.841547
0.840934
0.84032
0.839708
0.839097
0.838486
0.837876
0.837266
0.836658
0.83605
0.835443
0.834836
0.834231
0.833626
0.833022
0.832419
0.831816
0.831214
0.830613
0.830013
0.829413
0.828814
0.828216
0.827619
0.827022
0.826426
0.825831
0.825237
0.824643
0.82405
0.823458
0.822867
0.822276
0.821686
0.821097
0.820508
0.81992
0.819333
0.818747
0.818161
0.817576
0.816992
0.816408
0.815826
0.815244
0.814662
0.814081
0.813501
0.812922
0.812343
0.811765
0.811188
0.810611
0.810035
0.809459
0.808884
0.80831
0.807737
0.807164
0.806591
0.806019
0.805448
0.804878
0.804308
0.803738
0.803169
0.802601
0.802033
0.801466
0.800899
0.800333
0.799768
0.799202
0.798638
0.798074
0.79751
0.796947
0.796384
0.795822
0.79526
0.794698
0.794137
0.793577
0.793016
0.792456
0.791897
0.791338
0.790779
0.79022
0.789662
0.789104
0.788547
0.78799
0.787433
0.786876
0.786319
0.785763
0.785207
0.784651
0.784096
0.78354
0.782985
0.78243
0.781875
0.78132
0.780765
0.780211
0.779656
0.779102
0.778547
0.777993
0.777438
0.776884
0.77633
0.775775
0.775221
0.774666
0.774112
0.773557
0.773003
0.772448
0.771893
0.771338
0.770783
0.770227
0.769671
0.769116
0.76856
0.768003
0.767447
0.76689
0.766333
0.765775
0.765218
0.76466
0.764101
0.763543
0.762983
0.762424
0.761864
0.761303
0.760743
0.760181
0.759619
0.759057
0.758494
0.757931
0.757367
0.756803
0.756238
0.755672
0.755106
0.754539
0.753971
0.753403
0.752834
0.752265
0.751694
0.751123
0.750552
0.749979
0.749406
0.748832
0.748257
0.747681
0.747105
0.746527
0.745949
0.74537
0.74479
0.744209
0.743627
0.743044
0.74246
0.741876
0.74129
0.740703
0.740116
0.739527
0.738937
0.738346
0.737754
0.737161
0.736567
0.735972
0.735375
0.734778
0.734179
0.733579
0.732978
0.732376
0.731772
0.731167
0.730562
0.729954
0.729346
0.728736
0.728125
0.727513
0.726899
0.726284
0.725668
0.72505
0.724431
0.723811
0.723189
0.722566
0.721942
0.721316
0.720689
0.72006
0.71943
0.718798
0.718165
0.71753
0.716894
0.716257
0.715618
0.714977
0.714335
0.713691
0.713046
0.712399
0.711751
0.711101
0.71045
0.709797
0.709143
0.708486
0.707829
0.707169
0.706508
0.705846
0.705182
0.704516
0.703849
0.703179
0.702509
0.701836
0.701162
0.700487
0.699809
0.69913
0.69845
0.697767
0.697083
0.696397
0.69571
0.695021
0.69433
0.693637
0.692943
0.692247
0.691549
0.690849
0.690148
0.689445
0.688741
0.688034
0.687326
0.686616
0.685905
0.685191
0.684476
0.683759
0.683041
0.68232
0.681598
0.680875
0.680149
0.679422
0.678693
0.677962
0.677229
0.676495
0.675759
0.675021
0.674282
0.67354
0.672797
0.672052
0.671306
0.670558
0.669808
0.669056
0.668302
0.667547
0.66679
0.666032
0.665271
0.664509
0.663745
0.66298
0.662212
0.661443
0.660673
0.6599
0.659126
0.65835
0.657573
0.656793
0.656012
0.65523
0.654446
0.65366
0.652872
0.652083
0.651292
0.650499
0.649705
0.648909
0.648111
0.647312
0.646511
0.645709
0.644905
0.644099
0.643292
0.642483
0.641672
0.64086
0.640046
0.639231
0.638414
0.637596
0.636776
0.635954
0.635131
0.634306
0.63348
0.632652
0.631823
0.630992
0.63016
0.629326
0.628491
0.627654
0.626816
0.625976
0.625135
0.624293
0.623449
0.622603
0.621756
0.620908
0.620058
0.619207
0.618354
0.6175
0.616645
0.615788
0.61493
0.614071
0.61321
0.612348
0.611484
0.61062
0.609754
0.608886
0.608017
0.607147
0.606276
0.605404
0.60453
0.603655
0.602779
0.601901
0.601022
0.600142
0.599261
0.598379
0.597495
0.596611
0.595725
0.594838
0.59395
0.59306
0.59217
0.591278
0.590386
0.589492
0.588597
0.587701
0.586804
0.585906
0.585007
0.584107
0.583205
0.582303
0.5814
0.580496
0.579591
0.578684
0.577777
0.576869
0.57596
0.57505
0.574139
0.573227
0.572314
0.571401
0.570486
0.56957
0.568654
0.567737
0.566819
0.5659
0.56498
0.56406
0.563138
0.562216
0.561293
0.560369
0.559445
0.558518
0.557596
0.556667
0.555777
0.554957
0.554957
1
1
1
1
1
1
1
1
1
1
1
1
1
1
1
1
1
1
1
1
1
1
1
1
1
1
1
1
1
1
1
1
1
1
1
0.999999
0.999999
0.999999
0.999999
0.999998
0.999997
0.999997
0.999995
0.999994
0.999992
0.99999
0.999988
0.999985
0.999982
0.999978
0.999973
0.999968
0.999961
0.999954
0.999946
0.999937
0.999926
0.999914
0.999901
0.999886
0.99987
0.999852
0.999832
0.99981
0.999786
0.99976
0.999731
0.9997
0.999667
0.999631
0.999592
0.99955
0.999505
0.999457
0.999406
0.999352
0.999294
0.999232
0.999167
0.999098
0.999026
0.998949
0.998869
0.998784
0.998695
0.998602
0.998504
0.998402
0.998296
0.998185
0.998069
0.997949
0.997824
0.997694
0.997559
0.997419
0.997274
0.997124
0.99697
0.99681
0.996645
0.996474
0.996299
0.996118
0.995933
0.995742
0.995545
0.995343
0.995136
0.994924
0.994706
0.994483
0.994255
0.994022
0.993783
0.993538
0.993289
0.993034
0.992773
0.992508
0.992237
0.991961
0.991679
0.991393
0.991101
0.990804
0.990501
0.990194
0.989882
0.989564
0.989241
0.988914
0.988581
0.988243
0.9879
0.987553
0.9872
0.986843
0.986481
0.986114
0.985742
0.985366
0.984985
0.984599
0.984209
0.983814
0.983415
0.983011
0.982603
0.982191
0.981774
0.981353
0.980927
0.980497
0.980064
0.979626
0.979184
0.978738
0.978288
0.977834
0.977376
0.976914
0.976448
0.975979
0.975506
0.975029
0.974549
0.974065
0.973578
0.973087
0.972592
0.972094
0.971593
0.971089
0.970581
0.97007
0.969555
0.969038
0.968518
0.967994
0.967467
0.966938
0.966405
0.96587
0.965332
0.964791
0.964247
0.963701
0.963152
0.9626
0.962045
0.961488
0.960929
0.960367
0.959803
0.959236
0.958667
0.958095
0.957521
0.956946
0.956367
0.955787
0.955205
0.95462
0.954033
0.953445
0.952854
0.952262
0.951667
0.951071
0.950473
0.949873
0.949271
0.948667
0.948062
0.947455
0.946847
0.946237
0.945625
0.945012
0.944397
0.943781
0.943164
0.942545
0.941924
0.941303
0.940679
0.940055
0.93943
0.938803
0.938175
0.937545
0.936915
0.936284
0.935651
0.935017
0.934383
0.933747
0.933111
0.932473
0.931834
0.931195
0.930555
0.929914
0.929272
0.928629
0.927985
0.927341
0.926696
0.92605
0.925404
0.924757
0.924109
0.92346
0.922811
0.922162
0.921512
0.920861
0.92021
0.919559
0.918906
0.918254
0.917601
0.916948
0.916294
0.91564
0.914985
0.914331
0.913676
0.91302
0.912365
0.911709
0.911053
0.910396
0.90974
0.909083
0.908426
0.907769
0.907112
0.906454
0.905797
0.905139
0.904482
0.903824
0.903167
0.902509
0.901851
0.901193
0.900536
0.899878
0.89922
0.898563
0.897905
0.897248
0.896591
0.895934
0.895277
0.89462
0.893963
0.893306
0.89265
0.891994
0.891338
0.890682
0.890026
0.889371
0.888716
0.888061
0.887407
0.886752
0.886098
0.885445
0.884791
0.884138
0.883486
0.882833
0.882181
0.88153
0.880878
0.880228
0.879577
0.878927
0.878277
0.877628
0.876979
0.876331
0.875683
0.875036
0.874389
0.873742
0.873096
0.87245
0.871805
0.871161
0.870517
0.869873
0.86923
0.868588
0.867946
0.867304
0.866663
0.866023
0.865383
0.864744
0.864106
0.863468
0.86283
0.862193
0.861557
0.860922
0.860287
0.859652
0.859018
0.858385
0.857753
0.857121
0.85649
0.855859
0.855229
0.8546
0.853972
0.853344
0.852716
0.85209
0.851464
0.850839
0.850214
0.84959
0.848967
0.848345
0.847723
0.847102
0.846482
0.845862
0.845244
0.844625
0.844008
0.843391
0.842775
0.84216
0.841546
0.840932
0.840319
0.839706
0.839095
0.838484
0.837874
0.837265
0.836656
0.836048
0.835441
0.834835
0.834229
0.833624
0.83302
0.832417
0.831814
0.831212
0.830611
0.830011
0.829411
0.828813
0.828214
0.827617
0.82702
0.826425
0.82583
0.825235
0.824641
0.824049
0.823456
0.822865
0.822274
0.821684
0.821095
0.820507
0.819919
0.819332
0.818745
0.81816
0.817575
0.816991
0.816407
0.815824
0.815242
0.814661
0.81408
0.8135
0.812921
0.812342
0.811764
0.811186
0.81061
0.810034
0.809458
0.808883
0.808309
0.807735
0.807163
0.80659
0.806018
0.805447
0.804877
0.804307
0.803737
0.803169
0.8026
0.802033
0.801465
0.800899
0.800333
0.799767
0.799202
0.798637
0.798073
0.797509
0.796946
0.796384
0.795821
0.795259
0.794698
0.794137
0.793576
0.793016
0.792456
0.791897
0.791338
0.790779
0.790221
0.789662
0.789105
0.788547
0.78799
0.787433
0.786876
0.78632
0.785764
0.785208
0.784652
0.784097
0.783541
0.782986
0.782431
0.781876
0.781321
0.780767
0.780212
0.779658
0.779103
0.778549
0.777995
0.77744
0.776886
0.776332
0.775777
0.775223
0.774669
0.774114
0.77356
0.773005
0.772451
0.771896
0.771341
0.770786
0.77023
0.769675
0.769119
0.768563
0.768007
0.767451
0.766894
0.766337
0.76578
0.765222
0.764664
0.764106
0.763547
0.762988
0.762429
0.761869
0.761309
0.760748
0.760187
0.759625
0.759063
0.7585
0.757937
0.757373
0.756809
0.756244
0.755679
0.755113
0.754546
0.753979
0.753411
0.752842
0.752272
0.751702
0.751132
0.75056
0.749988
0.749415
0.748841
0.748266
0.747691
0.747114
0.746537
0.745959
0.74538
0.7448
0.74422
0.743638
0.743055
0.742472
0.741887
0.741302
0.740715
0.740128
0.739539
0.73895
0.738359
0.737767
0.737174
0.73658
0.735985
0.735389
0.734792
0.734193
0.733594
0.732993
0.732391
0.731788
0.731183
0.730578
0.729971
0.729363
0.728753
0.728142
0.72753
0.726917
0.726302
0.725686
0.725069
0.72445
0.72383
0.723209
0.722586
0.721962
0.721336
0.720709
0.720081
0.719451
0.718819
0.718187
0.717552
0.716917
0.716279
0.715641
0.715
0.714358
0.713715
0.71307
0.712424
0.711776
0.711127
0.710476
0.709823
0.709169
0.708513
0.707856
0.707197
0.706536
0.705874
0.70521
0.704545
0.703877
0.703209
0.702538
0.701866
0.701193
0.700517
0.69984
0.699162
0.698481
0.697799
0.697115
0.69643
0.695743
0.695054
0.694363
0.693671
0.692977
0.692282
0.691584
0.690885
0.690184
0.689482
0.688777
0.688071
0.687364
0.686654
0.685943
0.68523
0.684515
0.683799
0.683081
0.682361
0.681639
0.680916
0.68019
0.679463
0.678735
0.678004
0.677272
0.676538
0.675803
0.675065
0.674326
0.673585
0.672843
0.672098
0.671352
0.670604
0.669855
0.669103
0.66835
0.667595
0.666839
0.66608
0.66532
0.664559
0.663795
0.66303
0.662263
0.661495
0.660724
0.659952
0.659178
0.658403
0.657626
0.656847
0.656067
0.655284
0.6545
0.653715
0.652928
0.652139
0.651348
0.650556
0.649762
0.648967
0.648169
0.647371
0.64657
0.645768
0.644964
0.644159
0.643352
0.642544
0.641733
0.640922
0.640108
0.639294
0.638477
0.637659
0.636839
0.636018
0.635196
0.634371
0.633546
0.632718
0.631889
0.631059
0.630227
0.629394
0.628559
0.627723
0.626885
0.626046
0.625205
0.624363
0.623519
0.622674
0.621827
0.620979
0.62013