# vtk DataFile Version 2.0
FlowField
ASCII
DATASET STRUCTURED_GRID
DIMENSIONS 800 1 200
POINTS 160000 float
0 0 0
0.04 0 0
0.08 0 0
0.12 0 0
0.16 0 0
0.2 0 0
0.24 0 0
0.28 0 0
0.32 0 0
0.36 0 0
0.4 0 0
0.44 0 0
0.48 0 0
0.52 0 0
0.56 0 0
0.6 0 0
0.64 0 0
0.68 0 0
0.72 0 0
0.76 0 0
0.8 0 0
0.84 0 0
0.88 0 0
0.92 0 0
0.96 0 0
1 0 0
1.04 0 0
1.08 0 0
1.12 0 0
1.16 0 0
1.2 0 0
1.24 0 0
1.28 0 0
1.32 0 0
1.36 0 0
1.4 0 0
1.44 0 0
1.48 0 0
1.52 0 0
1.56 0 0
1.6 0 0
1.64 0 0
1.68 0 0
1.72 0 0
1.76 0 0
1.8 0 0
1.84 0 0
1.88 0 0
1.92 0 0
1.96 0 0
2 0 0
2.04 0 0
2.08 0 0
2.12 0 0
2.16 0 0
2.2 0 0
2.24 0 0
2.28 0 0
2.32 0 0
2.36 0 0
2.4 0 0
2.44 0 0
2.48 0 0
2.52 0 0
2.56 0 0
2.6 0 0
2.64 0 0
2.68 0 0
2.72 0 0
2.76 0 0
2.8 0 0
2.84 0 0
2.88 0 0
2.92 0 0
2.96 0 0
3 0 0
3.04 0 0
3.08 0 0
3.12 0 0
3.16 0 0
3.2 0 0
3.24 0 0
3.28 0 0
3.32 0 0
3.36 0 0
3.4 0 0
3.44 0 0
3.48 0 0
3.52 0 0
3.56 0 0
3.6 0 0
3.64 0 0
3.68 0 0
3.72 0 0
3.76 0 0
3.8 0 0
3.84 0 0
3.88 0 0
3.92 0 0
3.96 0 0
4 0 0
4.04 0 0
4.08 0 0
4.12 0 0
4.16 0 0
4.2 0 0
4.24 0 0
4.28 0 0
4.32 0 0
4.36 0 0
4.4 0 0
4.44 0 0
4.48 0 0
4.52 0 0
4.56 0 0
4.6 0 0
4.64 0 0
4.68 0 0
4.72 0 0
4.76 0 0
4.8 0 0
4.84 0 0
4.88 0 0
4.92 0 0
4.96 0 0
5 0 0
5.04 0 0
5.08 0 0
5.12 0 0
5.16 0 0
5.2 0 0
5.24 0 0
5.28 0 0
5.32 0 0
5.36 0 0
5.4 0 0
5.44 0 0
5.48 0 0
5.52 0 0
5.56 0 0
5.6 0 0
5.64 0 0
5.68 0 0
5.72 0 0
5.76 0 0
5.8 0 0
5.84 0 0
5.88 0 0
5.92 0 0
5.96 0 0
6 0 0
6.04 0 0
6.08 0 0
6.12 0 0
6.16 0 0
6.2 0 0
6.24 0 0
6.28 0 0
6.32 0 0
6.36 0 0
6.4 0 0
6.44 0 0
6.48 0 0
6.52 0 0
6.56 0 0
6.6 0 0
6.64 0 0
6.68 0 0
6.72 0 0
6.76 0 0
6.8 0 0
6.84 0 0
6.88 0 0
6.92 0 0
6.96 0 0
7 0 0
7.04 0 0
7.08 0 0
7.12 0 0
7.16 0 0
7.2 0 0
7.24 0 0
7.28 0 0
7.32 0 0
7.36 0 0
7.4 0 0
7.44 0 0
7.48 0 0
7.52 0 0
7.56 0 0
7.6 0 0
7.64 0 0
7.68 0 0
7.72 0 0
7.76 0 0
7.8 0 0
7.84 0 0
7.88 0 0
7.92 0 0
7.96 0 0
8 0 0
8.04 0 0
8.08 0 0
8.12 0 0
8.16 0 0
8.2 0 0
8.24 0 0
8.28 0 0
8.32 0 0
8.36 0 0
8.4 0 0
8.44 0 0
8.48 0 0
8.52 0 0
8.56 0 0
8.6 0 0
8.64 0 0
8.68 0 0
8.72 0 0
8.76 0 0
8.8 0 0
8.84 0 0
8.88 0 0
8.92 0 0
8.96 0 0
9 0 0
9.04 0 0
9.08 0 0
9.12 0 0
9.16 0 0
9.2 0 0
9.24 0 0
9.28 0 0
9.32 0 0
9.36 0 0
9.4 0 0
9.44 0 0
9.48 0 0
9.52 0 0
9.56 0 0
9.6 0 0
9.64 0 0
9.68 0 0
9.72 0 0
9.76 0 0
9.8 0 0
9.84 0 0
9.88 0 0
9.92 0 0
9.96 0 0
10 0 0
10.04 0 0
10.08 0 0
10.12 0 0
10.16 0 0
10.2 0 0
10.24 0 0
10.28 0 0
10.32 0 0
10.36 0 0
10.4 0 0
10.44 0 0
10.48 0 0
10.52 0 0
10.56 0 0
10.6 0 0
10.64 0 0
10.68 0 0
10.72 0 0
10.76 0 0
10.8 0 0
10.84 0 0
10.88 0 0
10.92 0 0
10.96 0 0
11 0 0
11.04 0 0
11.08 0 0
11.12 0 0
11.16 0 0
11.2 0 0
11.24 0 0
11.28 0 0
11.32 0 0
11.36 0 0
11.4 0 0
11.44 0 0
11.48 0 0
11.52 0 0
11.56 0 0
11.6 0 0
11.64 0 0
11.68 0 0
11.72 0 0
11.76 0 0
11.8 0 0
11.84 0 0
11.88 0 0
11.92 0 0
11.96 0 0
12 0 0
12.04 0 0
12.08 0 0
12.12 0 0
12.16 0 0
12.2 0 0
12.24 0 0
12.28 0 0
12.32 0 0
12.36 0 0
12.4 0 0
12.44 0 0
12.48 0 0
12.52 0 0
12.56 0 0
12.6 0 0
12.64 0 0
12.68 0 0
12.72 0 0
12.76 0 0
12.8 0 0
12.84 0 0
12.88 0 0
12.92 0 0
12.96 0 0
13 0 0
13.04 0 0
13.08 0 0
13.12 0 0
13.16 0 0
13.2 0 0
13.24 0 0
13.28 0 0
13.32 0 0
13.36 0 0
13.4 0 0
13.44 0 0
13.48 0 0
13.52 0 0
13.56 0 0
13.6 0 0
13.64 0 0
13.68 0 0
13.72 0 0
13.76 0 0
13.8 0 0
13.84 0 0
13.88 0 0
13.92 0 0
13.96 0 0
14 0 0
14.04 0 0
14.08 0 0
14.12 0 0
14.16 0 0
14.2 0 0
14.24 0 0
14.28 0 0
14.32 0 0
14.36 0 0
14.4 0 0
14.44 0 0
14.48 0 0
14.52 0 0
14.56 0 0
14.6 0 0
14.64 0 0
14.68 0 0
14.72 0 0
14.76 0 0
14.8 0 0
14.84 0 0
14.88 0 0
14.92 0 0
14.96 0 0
15 0 0
15.04 0 0
15.08 0 0
15.12 0 0
15.16 0 0
15.2 0 0
15.24 0 0
15.28 0 0
15.32 0 0
15.36 0 0
15.4 0 0
15.44 0 0
15.48 0 0
15.52 0 0
15.56 0 0
15.6 0 0
15.64 0 0
15.68 0 0
15.72 0 0
15.76 0 0
15.8 0 0
15.84 0 0
15.88 0 0
15.92 0 0
15.96 0 0
16 0 0
16.04 0 0
16.08 0 0
16.12 0 0
16.16 0 0
16.2 0 0
16.24 0 0
16.28 0 0
16.32 0 0
16.36 0 0
16.4 0 0
16.44 0 0
16.48 0 0
16.52 0 0
16.56 0 0
16.6 0 0
16.64 0 0
16.68 0 0
16.72 0 0
16.76 0 0
16.8 0 0
16.84 0 0
16.88 0 0
16.92 0 0
16.96 0 0
17 0 0
17.04 0 0
17.08 0 0
17.12 0 0
17.16 0 0
17.2 0 0
17.24 0 0
17.28 0 0
17.32 0 0
17.36 0 0
17.4 0 0
17.44 0 0
17.48 0 0
17.52 0 0
17.56 0 0
17.6 0 0
17.64 0 0
17.68 0 0
17.72 0 0
17.76 0 0
17.8 0 0
17.84 0 0
17.88 0 0
17.92 0 0
17.96 0 0
18 0 0
18.04 0 0
18.08 0 0
18.12 0 0
18.16 0 0
18.2 0 0
18.24 0 0
18.28 0 0
18.32 0 0
18.36 0 0
18.4 0 0
18.44 0 0
18.48 0 0
18.52 0 0
18.56 0 0
18.6 0 0
18.64 0 0
18.68 0 0
18.72 0 0
18.76 0 0
18.8 0 0
18.84 0 0
18.88 0 0
18.92 0 0
18.96 0 0
19 0 0
19.04 0 0
19.08 0 0
19.12 0 0
19.16 0 0
19.2 0 0
19.24 0 0
19.28 0 0
19.32 0 0
19.36 0 0
19.4 0 0
19.44 0 0
19.48 0 0
19.52 0 0
19.56 0 0
19.6 0 0
19.64 0 0
19.68 0 0
19.72 0 0
19.76 0 0
19.8 0 0
19.84 0 0
19.88 0 0
19.92 0 0
19.96 0 0
20 0 0
20.04 0 0
20.08 0 0
20.12 0 0
20.16 0 0
20.2 0 0
20.24 0 0
20.28 0 0
20.32 0 0
20.36 0 0
20.4 0 0
20.44 0 0
20.48 0 0
20.52 0 0
20.56 0 0
20.6 0 0
20.64 0 0
20.68 0 0
20.72 0 0
20.76 0 0
20.8 0 0
20.84 0 0
20.88 0 0
20.92 0 0
20.96 0 0
21 0 0
21.04 0 0
21.08 0 0
21.12 0 0
21.16 0 0
21.2 0 0
21.24 0 0
21.28 0 0
21.32 0 0
21.36 0 0
21.4 0 0
21.44 0 0
21.48 0 0
21.52 0 0
21.56 0 0
21.6 0 0
21.64 0 0
21.68 0 0
21.72 0 0
21.76 0 0
21.8 0 0
21.84 0 0
21.88 0 0
21.92 0 0
21.96 0 0
22 0 0
22.04 0 0
22.08 0 0
22.12 0 0
22.16 0 0
22.2 0 0
22.24 0 0
22.28 0 0
22.32 0 0
22.36 0 0
22.4 0 0
22.44 0 0
22.48 0 0
22.52 0 0
22.56 0 0
22.6 0 0
22.64 0 0
22.68 0 0
22.72 0 0
22.76 0 0
22.8 0 0
22.84 0 0
22.88 0 0
22.92 0 0
22.96 0 0
23 0 0
23.04 0 0
23.08 0 0
23.12 0 0
23.16 0 0
23.2 0 0
23.24 0 0
23.28 0 0
23.32 0 0
23.36 0 0
23.4 0 0
23.44 0 0
23.48 0 0
23.52 0 0
23.56 0 0
23.6 0 0
23.64 0 0
23.68 0 0
23.72 0 0
23.76 0 0
23.8 0 0
23.84 0 0
23.88 0 0
23.92 0 0
23.96 0 0
24 0 0
24.04 0 0
24.08 0 0
24.12 0 0
24.16 0 0
24.2 0 0
24.24 0 0
24.28 0 0
24.32 0 0
24.36 0 0
24.4 0 0
24.44 0 0
24.48 0 0
24.52 0 0
24.56 0 0
24.6 0 0
24.64 0 0
24.68 0 0
24.72 0 0
24.76 0 0
24.8 0 0
24.84 0 0
24.88 0 0
24.92 0 0
24.96 0 0
25 0 0
25.04 0 0
25.08 0 0
25.12 0 0
25.16 0 0
25.2 0 0
25.24 0 0
25.28 0 0
25.32 0 0
25.36 0 0
25.4 0 0
25.44 0 0
25.48 0 0
25.52 0 0
25.56 0 0
25.6 0 0
25.64 0 0
25.68 0 0
25.72 0 0
25.76 0 0
25.8 0 0
25.84 0 0
25.88 0 0
25.92 0 0
25.96 0 0
26 0 0
26.04 0 0
26.08 0 0
26.12 0 0
26.16 0 0
26.2 0 0
26.24 0 0
26.28 0 0
26.32 0 0
26.36 0 0
26.4 0 0
26.44 0 0
26.48 0 0
26.52 0 0
26.56 0 0
26.6 0 0
26.64 0 0
26.68 0 0
26.72 0 0
26.76 0 0
26.8 0 0
26.84 0 0
26.88 0 0
26.92 0 0
26.96 0 0
27 0 0
27.04 0 0
27.08 0 0
27.12 0 0
27.16 0 0
27.2 0 0
27.24 0 0
27.28 0 0
27.32 0 0
27.36 0 0
27.4 0 0
27.44 0 0
27.48 0 0
27.52 0 0
27.56 0 0
27.6 0 0
27.64 0 0
27.68 0 0
27.72 0 0
27.76 0 0
27.8 0 0
27.84 0 0
27.88 0 0
27.92 0 0
27.96 0 0
28 0 0
28.04 0 0
28.08 0 0
28.12 0 0
28.16 0 0
28.2 0 0
28.24 0 0
28.28 0 0
28.32 0 0
28.36 0 0
28.4 0 0
28.44 0 0
28.48 0 0
28.52 0 0
28.56 0 0
28.6 0 0
28.64 0 0
28.68 0 0
28.72 0 0
28.76 0 0
28.8 0 0
28.84 0 0
28.88 0 0
28.92 0 0
28.96 0 0
29 0 0
29.04 0 0
29.08 0 0
29.12 0 0
29.16 0 0
29.2 0 0
29.24 0 0
29.28 0 0
29.32 0 0
29.36 0 0
29.4 0 0
29.44 0 0
29.48 0 0
29.52 0 0
29.56 0 0
29.6 0 0
29.64 0 0
29.68 0 0
29.72 0 0
29.76 0 0
29.8 0 0
29.84 0 0
29.88 0 0
29.92 0 0
29.96 0 0
30 0 0
30.04 0 0
30.08 0 0
30.12 0 0
30.16 0 0
30.2 0 0
30.24 0 0
30.28 0 0
30.32 0 0
30.36 0 0
30.4 0 0
30.44 0 0
30.48 0 0
30.52 0 0
30.56 0 0
30.6 0 0
30.64 0 0
30.68 0 0
30.72 0 0
30.76 0 0
30.8 0 0
30.84 0 0
30.88 0 0
30.92 0 0
30.96 0 0
31 0 0
31.04 0 0
31.08 0 0
31.12 0 0
31.16 0 0
31.2 0 0
31.24 0 0
31.28 0 0
31.32 0 0
31.36 0 0
31.4 0 0
31.44 0 0
31.48 0 0
31.52 0 0
31.56 0 0
31.6 0 0
31.64 0 0
31.68 0 0
31.72 0 0
31.76 0 0
31.8 0 0
31.84 0 0
31.88 0 0
31.92 0 0
31.96 0 0
0 0.005 0
0.04 0.005 0
0.08 0.005 0
0.12 0.005 0
0.16 0.005 0
0.2 0.005 0
0.24 0.005 0
0.28 0.005 0
0.32 0.005 0
0.36 0.005 0
0.4 0.005 0
0.44 0.005 0
0.48 0.005 0
0.52 0.005 0
0.56 0.005 0
0.6 0.005 0
0.64 0.005 0
0.68 0.005 0
0.72 0.005 0
0.76 0.005 0
0.8 0.005 0
0.84 0.005 0
0.88 0.005 0
0.92 0.005 0
0.96 0.005 0
1 0.005 0
1.04 0.005 0
1.08 0.005 0
1.12 0.005 0
1.16 0.005 0
1.2 0.005 0
1.24 0.005 0
1.28 0.005 0
1.32 0.005 0
1.36 0.005 0
1.4 0.005 0
1.44 0.005 0
1.48 0.005 0
1.52 0.005 0
1.56 0.005 0
1.6 0.005 0
1.64 0.005 0
1.68 0.005 0
1.72 0.005 0
1.76 0.005 0
1.8 0.005 0
1.84 0.005 0
1.88 0.005 0
1.92 0.005 0
1.96 0.005 0
2 0.005 0
2.04 0.005 0
2.08 0.005 0
2.12 0.005 0
2.16 0.005 0
2.2 0.005 0
2.24 0.005 0
2.28 0.005 0
2.32 0.005 0
2.36 0.005 0
2.4 0.005 0
2.44 0.005 0
2.48 0.005 0
2.52 0.005 0
2.56 0.005 0
2.6 0.005 0
2.64 0.005 0
2.68 0.005 0
2.72 0.005 0
2.76 0.005 0
2.8 0.005 0
2.84 0.005 0
2.88 0.005 0
2.92 0.005 0
2.96 0.005 0
3 0.005 0
3.04 0.005 0
3.08 0.005 0
3.12 0.005 0
3.16 0.005 0
3.2 0.005 0
3.24 0.005 0
3.28 0.005 0
3.32 0.005 0
3.36 0.005 0
3.4 0.005 0
3.44 0.005 0
3.48 0.005 0
3.52 0.005 0
3.56 0.005 0
3.6 0.005 0
3.64 0.005 0
3.68 0.005 0
3.72 0.005 0
3.76 0.005 0
3.8 0.005 0
3.84 0.005 0
3.88 0.005 0
3.92 0.005 0
3.96 0.005 0
4 0.005 0
4.04 0.005 0
4.08 0.005 0
4.12 0.005 0
4.16 0.005 0
4.2 0.005 0
4.24 0.005 0
4.28 0.005 0
4.32 0.005 0
4.36 0.005 0
4.4 0.005 0
4.44 0.005 0
4.48 0.005 0
4.52 0.005 0
4.56 0.005 0
4.6 0.005 0
4.64 0.005 0
4.68 0.005 0
4.72 0.005 0
4.76 0.005 0
4.8 0.005 0
4.84 0.005 0
4.88 0.005 0
4.92 0.005 0
4.96 0.005 0
5 0.005 0
5.04 0.005 0
5.08 0.005 0
5.12 0.005 0
5.16 0.005 0
5.2 0.005 0
5.24 0.005 0
5.28 0.005 0
5.32 0.005 0
5.36 0.005 0
5.4 0.005 0
5.44 0.005 0
5.48 0.005 0
5.52 0.005 0
5.56 0.005 0
5.6 0.005 0
5.64 0.005 0
5.68 0.005 0
5.72 0.005 0
5.76 0.005 0
5.8 0.005 0
5.84 0.005 0
5.88 0.005 0
5.92 0.005 0
5.96 0.005 0
6 0.005 0
6.04 0.005 0
6.08 0.005 0
6.12 0.005 0
6.16 0.005 0
6.2 0.005 0
6.24 0.005 0
6.28 0.005 0
6.32 0.005 0
6.36 0.005 0
6.4 0.005 0
6.44 0.005 0
6.48 0.005 0
6.52 0.005 0
6.56 0.005 0
6.6 0.005 0
6.64 0.005 0
6.68 0.005 0
6.72 0.005 0
6.76 0.005 0
6.8 0.005 0
6.84 0.005 0
6.88 0.005 0
6.92 0.005 0
6.96 0.005 0
7 0.005 0
7.04 0.005 0
7.08 0.005 0
7.12 0.005 0
7.16 0.005 0
7.2 0.005 0
7.24 0.005 0
7.28 0.005 0
7.32 0.005 0
7.36 0.005 0
7.4 0.005 0
[...]
POINT_DATA 160000

SCALARS p float 1
LOOKUP_TABLE default
1
21.9498
19.7343
19.4795
19.4193
19.3929
19.3769
19.3653
19.356
19.3482
19.3413
19.3349
19.329
19.3235
19.3182
19.3131
19.3081
19.3033
19.2986
19.294
19.2894
19.285
19.2806
19.2762
19.272
19.2678
19.2636
19.2595
19.2554
19.2514
19.2475
19.2436
19.2397
19.2359
19.2321
19.2283
19.2246
19.2209
19.2173
19.2137
19.2102
19.2066
19.2031
19.1997
19.1963
19.1929
19.1895
19.1862
19.1829
19.1796
19.1764
19.1731
19.1699
19.1668
19.1636
19.1605
19.1574
19.1543
19.1513
19.1482
19.1452
19.1422
19.1393
19.1363
19.1334
19.1305
19.1276
19.1247
19.1219
19.119
19.1162
19.1134
19.1106
19.1079
19.1051
19.1024
19.0996
19.0969
19.0942
19.0916
19.0889
19.0862
19.0836
19.081
19.0784
19.0758
19.0732
19.0706
19.068
19.0655
19.0629
19.0604
19.0579
19.0554
19.0529
19.0504
19.0479
19.0455
19.043
19.0406
19.0381
19.0357
19.0333
19.0309
19.0285
19.0261
19.0238
19.0214
19.019
19.0167
19.0143
19.012
19.0097
19.0074
19.0051
19.0028
19.0005
18.9982
18.9959
18.9937
18.9914
18.9891
18.9869
18.9847
18.9824
18.9802
18.978
18.9758
18.9736
18.9714
18.9692
18.9671
18.9649
18.9627
18.9606
18.9584
18.9563
18.9542
18.952
18.9499
18.9478
18.9457
18.9436
18.9415
18.9395
18.9374
18.9353
18.9333
18.9312
18.9292
18.9272
18.9251
18.9231
18.9211
18.9191
18.9171
18.9151
18.9131
18.9112
18.9092
18.9072
18.9053
18.9033
18.9014
18.8995
18.8975
18.8956
18.8937
18.8918
18.8899
18.888
18.8861
18.8842
18.8823
18.8805
18.8786
18.8767
18.8749
18.873
18.8712
18.8693
18.8675
18.8657
18.8638
18.862
18.8602
18.8584
18.8565
18.8547
18.8529
18.8511
18.8493
18.8475
18.8457
18.8439
18.8422
18.8404
18.8386
18.8368
18.835
18.8333
18.8315
18.8297
18.828
18.8262
18.8245
18.8227
18.8209
18.8192
18.8175
18.8157
18.814
18.8122
18.8105
18.8087
18.807
18.8053
18.8035
18.8018
18.8001
18.7984
18.7966
18.7949
18.7932
18.7915
18.7897
18.788
18.7863
18.7846
18.7829
18.7812
18.7794
18.7777
18.776
18.7743
18.7726
18.7709
18.7692
18.7675
18.7658
18.7641
18.7624
18.7606
18.7589
18.7572
18.7555
18.7538
18.7521
18.7504
18.7487
18.747
18.7453
18.7436
18.7419
18.7402
18.7385
18.7367
18.735
18.7333
18.7316
18.7299
18.7282
18.7265
18.7248
18.7231
18.7214
18.7197
18.718
18.7163
18.7146
18.7128
18.7111
18.7094
18.7077
18.706
18.7043
18.7026
18.7009
18.6992
18.6975
18.6958
18.6941
18.6924
18.6907
18.689
18.6872
18.6855
18.6838
18.6821
18.6804
18.6787
18.677
18.6753
18.6736
18.6719
18.6702
18.6685
18.6668
18.6651
18.6634
18.6616
18.6599
18.6582
18.6565
18.6548
18.6531
18.6514
18.6497
18.648
18.6463
18.6446
18.6429
18.6412
18.6395
18.6378
18.6361
18.6343
18.6326
18.6309
18.6292
18.6275
18.6258
18.6241
18.6224
18.6207
18.619
18.6173
18.6156
18.6139
18.6122
18.6105
18.6088
18.607
18.6053
18.6036
18.6019
18.6002
18.5985
18.5968
18.5951
18.5934
18.5917
18.59
18.5883
18.5866
18.5849
18.5832
18.5815
18.5798
18.578
18.5763
18.5746
18.5729
18.5712
18.5695
18.5678
18.5661
18.5644
18.5627
18.561
18.5593
18.5576
18.5559
18.5542
18.5525
18.5508
18.5491
18.5473
18.5456
18.5439
18.5422
18.5405
18.5388
18.5371
18.5354
18.5337
18.532
18.5303
18.5286
18.5269
18.5252
18.5235
18.5218
18.5201
18.5184
18.5166
18.5149
18.5132
18.5115
18.5098
18.5081
18.5064
18.5047
18.503
18.5013
18.4996
18.4979
18.4962
18.4945
18.4928
18.4911
18.4894
18.4877
18.486
18.4843
18.4825
18.4808
18.4791
18.4774
18.4757
18.474
18.4723
18.4706
18.4689
18.4672
18.4655
18.4638
18.4621
18.4604
18.4587
18.457
18.4553
18.4536
18.4519
18.4502
18.4484
18.4467
18.445
18.4433
18.4416
18.4399
18.4382
18.4365
18.4348
18.4331
18.4314
18.4297
18.428
18.4263
18.4246
18.4229
18.4212
18.4195
18.4178
18.4161
18.4144
18.4126
18.4109
18.4092
18.4075
18.4058
18.4041
18.4024
18.4007
18.399
18.3973
18.3956
18.3939
18.3922
18.3905
18.3888
18.3871
18.3854
18.3837
18.382
18.3803
18.3786
18.3769
18.3752
18.3734
18.3717
18.37
18.3683
18.3666
18.3649
18.3632
18.3615
18.3598
18.3581
18.3564
18.3547
18.353
18.3513
18.3496
18.3479
18.3462
18.3445
18.3428
18.3411
18.3394
18.3377
18.336
18.3343
18.3325
18.3308
18.3291
18.3274
18.3257
18.324
18.3223
18.3206
18.3189
18.3172
18.3155
18.3138
18.3121
18.3104
18.3087
18.307
18.3053
18.3036
18.3019
18.3002
18.2985
18.2968
18.2951
18.2934
18.2917
18.29
18.2882
18.2865
18.2848
18.2831
18.2814
18.2797
18.278
18.2763
18.2746
18.2729
18.2712
18.2695
18.2678
18.2661
18.2644
18.2627
18.261
18.2593
18.2576
18.2559
18.2542
18.2525
18.2508
18.2491
18.2474
18.2457
18.244
18.2423
18.2405
18.2388
18.2371
18.2354
18.2337
18.232
18.2303
18.2286
18.2269
18.2252
18.2235
18.2218
18.2201
18.2184
18.2167
18.215
18.2133
18.2116
18.2099
18.2082
18.2065
18.2048
18.2031
18.2014
18.1997
18.198
18.1963
18.1946
18.1929
18.1912
18.1895
18.1877
18.186
18.1843
18.1826
18.1809
18.1792
18.1775
18.1758
18.1741
18.1724
18.1707
18.169
18.1673
18.1656
18.1639
18.1622
18.1605
18.1588
18.1571
18.1554
18.1537
18.152
18.1503
18.1486
18.1469
18.1452
18.1435
18.1418
18.1401
18.1384
18.1367
18.135
18.1333
18.1316
18.1299
18.1282
18.1264
18.1247
18.123
18.1213
18.1196
18.1179
18.1162
18.1145
18.1128
18.1111
18.1094
18.1077
18.106
18.1043
18.1026
18.1009
18.0992
18.0975
18.0958
18.0941
18.0924
18.0907
18.089
18.0873
18.0856
18.0839
18.0822
18.0805
18.0788
18.0771
18.0754
18.0737
18.072
18.0703
18.0686
18.0669
18.0652
18.0635
18.0618
18.0601
18.0584
18.0566
18.0549
18.0532
18.0515
18.0498
18.0481
18.0464
18.0447
18.043
18.0413
18.0396
18.0379
18.0362
18.0345
18.0328
18.0311
18.0294
18.0277
18.026
18.0243
18.0226
18.0209
18.0192
18.0175
18.0158
18.0141
18.0124
18.0107
18.009
18.0073
18.0056
18.0039
18.0022
18.0005
17.9988
17.9971
17.9954
17.9937
17.992
17.9903
17.9886
17.9869
17.9852
17.9835
17.9818
17.9801
17.9784
17.9767
17.975
17.9733
17.9716
17.9699
17.9682
17.9664
17.9647
17.963
17.9613
17.9596
17.9579
17.9562
17.9545
17.9528
17.9511
17.9494
17.9477
17.946
17.9443
17.9426
17.9409
17.9392
17.9375
17.9358
17.9341
17.9324
17.9307
17.929
17.9273
17.9256
17.9239
17.9222
17.9205
17.9188
17.9171
17.9154
17.9137
17.912
17.9103
17.9086
17.9069
17.9052
17.9035
17.9018
17.9001
17.8984
17.8967
17.895
17.8933
17.8916
17.8899
17.8882
17.8865
17.8848
17.8831
17.8814
17.8797
17.878
17.8763
17.8746
17.8729
17.8712
17.8695
17.8678
17.8661
17.8644
17.8627
17.861
17.8593
17.8576
17.8559
17.8542
17.8525
17.8508
17.8491
17.8474
17.8457
17.844
17.8423
17.8406
17.8389
17.8372
17.8355
17.8338
17.8321
17.8304
17.8287
17.827
17.8253
17.8236
17.8219
17.8202
17.8185
17.8168
17.8151
17.8134
1
21.9498
21.9498
19.7343
19.4795
19.4193
19.3929
19.3769
19.3653
19.356
19.3482
19.3413
19.3349
19.329
19.3235
19.3182
19.3131
19.3081
19.3033
19.2986
19.294
19.2894
19.285
19.2806
19.2762
19.272
19.2678
19.2636
19.2595
19.2554
19.2514
19.2475
19.2436
19.2397
19.2359
19.2321
19.2283
19.2246
19.2209
19.2173
19.2137
19.2102
19.2066
19.2031
19.1997
19.1963
19.1929
19.1895
19.1862
19.1829
19.1796
19.1764
19.1731
19.1699
19.1668
19.1636
19.1605
19.1574
19.1543
19.1513
19.1482
19.1452
19.1422
19.1393
19.1363
19.1334
19.1305
19.1276
19.1247
19.1219
19.119
19.1162
19.1134
19.1106
19.1079
19.1051
19.1024
19.0996
19.0969
19.0942
19.0916
19.0889
19.0862
19.0836
19.081
19.0784
19.0758
19.0732
19.0706
19.068
19.0655
19.0629
19.0604
19.0579
19.0554
19.0529
19.0504
19.0479
19.0455
19.043
19.0406
19.0381
19.0357
19.0333
19.0309
19.0285
19.0261
19.0238
19.0214
19.019
19.0167
19.0143
19.012
19.0097
19.0074
19.0051
19.0028
19.0005
18.9982
18.9959
18.9937
18.9914
18.9891
18.9869
18.9847
18.9824
18.9802
18.978
18.9758
18.9736
18.9714
18.9692
18.9671
18.9649
18.9627
18.9606
18.9584
18.9563
18.9542
18.952
18.9499
18.9478
18.9457
18.9436
18.9415
18.9395
18.9374
18.9353
18.9333
18.9312
18.9292
18.9272
18.9251
18.9231
18.9211
18.9191
18.9171
18.9151
18.9131
18.9112
18.9092
18.9072
18.9053
18.9033
18.9014
18.8995
18.8975
18.8956
18.8937
18.8918
18.8899
18.888
18.8861
18.8842
18.8823
18.8805
18.8786
18.8767
18.8749
18.873
18.8712
18.8693
18.8675
18.8657
18.8638
18.862
18.8602
18.8584
18.8565
18.8547
18.8529
18.8511
18.8493
18.8475
18.8457
18.8439
18.8422
18.8404
18.8386
18.8368
18.835
18.8333
18.8315
18.8297
18.828
18.8262
18.8245
18.8227
18.8209
18.8192
18.8175
18.8157
18.814
18.8122
18.8105
18.8087
18.807
18.8053
18.8035
18.8018
18.8001
18.7984
18.7966
18.7949
18.7932
18.7915
18.7897
18.788
18.7863
18.7846
18.7829
18.7812
18.7794
18.7777
18.776
18.7743
18.7726
18.7709
18.7692
18.7675
18.7658
18.7641
18.7624
18.7606
18.7589
18.7572
18.7555
18.7538
18.7521
18.7504
18.7487
18.747
18.7453
18.7436
18.7419
18.7402
18.7385
18.7367
18.735
18.7333
18.7316
18.7299
18.7282
18.7265
18.7248
18.7231
18.7214
18.7197
18.718
18.7163
18.7146
18.7128
18.7111
18.7094
18.7077
18.706
18.7043
18.7026
18.7009
18.6992
18.6975
18.6958
18.6941
18.6924
18.6907
18.689
18.6872
18.6855
18.6838
18.6821
18.6804
18.6787
18.677
18.6753
18.6736
18.6719
18.6702
18.6685
18.6668
18.6651
18.6634
18.6616
18.6599
18.6582
18.6565
18.6548
18.6531
18.6514
18.6497
18.648
18.6463
18.6446
18.6429
18.6412
18.6395
18.6378
18.6361
18.6343
18.6326
18.6309
18.6292
18.6275
18.6258
18.6241
18.6224
18.6207
18.619
18.6173
18.6156
18.6139
18.6122
18.6105
18.6088
18.607
18.6053
18.6036
18.6019
18.6002
18.5985
18.5968
18.5951
18.5934
18.5917
18.59
18.5883
18.5866
18.5849
18.5832
18.5815
18.5798
18.578
18.5763
18.5746
18.5729
18.5712
18.5695
18.5678
18.5661
18.5644
18.5627
18.561
18.5593
18.5576
18.5559
18.5542
18.5525
18.5508
18.5491
18.5473
18.5456
18.5439
18.5422
18.5405
18.5388
18.5371
18.5354
18.5337
18.532
18.5303
18.5286
18.5269
18.5252
18.5235
18.5218
18.5201
18.5184
18.5166
18.5149
18.5132
18.5115
18.5098
18.5081
18.5064
18.5047
18.503
18.5013
18.4996
18.4979
18.4962
18.4945
18.4928
18.4911
18.4894
18.4877
18.486
18.4843
18.4825
18.4808
18.4791
18.4774
18.4757
18.474
18.4723
18.4706
18.4689
18.4672
18.4655
18.4638
18.4621
18.4604
18.4587
18.457
18.4553
18.4536
18.4519
18.4502
18.4484
18.4467
18.445
18.4433
18.4416
18.4399
18.4382
18.4365
18.4348
18.4331
18.4314
18.4297
18.428
18.4263
18.4246
18.4229
18.4212
18.4195
18.4178
18.4161
18.4144
18.4126
18.4109
18.4092
18.4075
18.4058
18.4041
18.4024
18.4007
18.399
18.3973
18.3956
18.3939
18.3922
18.3905
18.3888
18.3871
18.3854
18.3837
18.382
18.3803
18.3786
18.3769
18.3752
18.3734
18.3717
18.37
18.3683
18.3666
18.3649
18.3632
18.3615
18.3598
18.3581
18.3564
18.3547
18.353
18.3513
18.3496
18.3479
18.3462
18.3445
18.3428
18.3411
18.3394
18.3377
18.336
18.3343
18.3325
18.3308
18.3291
18.3274
18.3257
18.324
18.3223
18.3206
18.3189
18.3172
18.3155
18.3138
18.3121
18.3104
18.3087
18.307
18.3053
18.3036
18.3019
18.3002
18.2985
18.2968
18.2951
18.2934
18.2917
18.29
18.2882
18.2865
18.2848
18.2831
18.2814
18.2797
18.278
18.2763
18.2746
18.2729
18.2712
18.2695
18.2678
18.2661
18.2644
18.2627
18.261
18.2593
18.2576
18.2559
18.2542
18.2525
18.2508
18.2491
18.2474
18.2457
18.244
18.2423
18.2405
18.2388
18.2371
18.2354
18.2337
18.232
18.2303
18.2286
18.2269
18.2252
18.2235
18.2218
18.2201
18.2184
18.2167
18.215
18.2133
18.2116
18.2099
18.2082
18.2065
18.2048
18.2031
18.2014
18.1997
18.198
18.1963
18.1946
18.1929
18.1912
18.1895
18.1877
18.186
18.1843
18.1826
18.1809
18.1792
18.1775
18.1758
18.1741
18.1724
18.1707
18.169
18.1673
18.1656
18.1639
18.1622
18.1605
18.1588
18.1571
18.1554
18.1537
18.152
18.1503
18.1486
18.1469
18.1452
18.1435
18.1418
18.1401
18.1384
18.1367
18.135
18.1333
18.1316
18.1299
18.1282
18.1264
18.1247
18.123
18.1213
18.1196
18.1179
18.1162
18.1145
18.1128
18.1111
18.1094
18.1077
18.106
18.1043
18.1026
18.1009
18.0992
18.0975
18.0958
18.0941
18.0924
18.0907
18.089
18.0873
18.0856
18.0839
18.0822
18.0805
18.0788
18.0771
18.0754
18.0737
18.072
18.0703
18.0686
18.0669
18.0652
18.0635
18.0618
18.0601
18.0584
18.0566
18.0549
18.0532
18.0515
18.0498
18.0481
18.0464
18.0447
18.043
18.0413
18.0396
18.0379
18.0362
18.0345
18.0328
18.0311
18.0294
18.0277
18.026
18.0243
18.0226
18.0209
18.0192
18.0175
18.0158
18.0141
18.0124
18.0107
18.009
18.0073
18.0056
18.0039
18.0022
18.0005
17.9988
17.9971
17.9954
17.9937
17.992
17.9903
17.9886
17.9869
17.9852
17.9835
17.9818
17.9801
17.9784
17.9767
17.975
17.9733
17.9716
17.9699
17.9682
17.9664
17.9647
17.963
17.9613
17.9596
17.9579
17.9562
17.9545
17.9528
17.9511
17.9494
17.9477
17.946
17.9443
17.9426
17.9409
17.9392
17.9375
17.9358
17.9341
17.9324
17.9307
17.929
17.9273
17.9256
17.9239
17.9222
17.9205
17.9188
17.9171
17.9154
17.9137
17.912
17.9103
17.9086
17.9069
17.9052
17.9035
17.9018
17.9001
17.8984
17.8967
17.895
17.8933
17.8916
17.8899
17.8882
17.8865
17.8848
17.8831
17.8814
17.8797
17.878
17.8763
17.8746
17.8729
17.8712
17.8695
17.8678
17.8661
17.8644
17.8627
17.861
17.8593
17.8576
17.8559
17.8542
17.8525
17.8508
17.8491
17.8474
17.8457
17.844
17.8423
17.8406
17.8389
17.8372
17.8355
17.8338
17.8321
17.8304
17.8287
17.827
17.8253
17.8236
17.8219
17.8202
17.8185
17.8168
17.8151
17.8134
17.8134
21.3028
21.3028
19.7447
19.489
19.4235
19.3951
19.3783
19.3663
19.3568
19.3487
19.3417
19.3353
19.3293
19.3237
19.3184
19.3133
19.3083
19.3034
19.2987
19.2941
19.2895
19.2851
19.2807
19.2763
19.2721
19.2678
19.2637
19.2596
19.2555
19.2515
19.2475
19.2436
19.2397
19.2359
19.2321
19.2284
19.2247
19.221
19.2173
19.2138
19.2102
19.2067
19.2032
19.1997
19.1963
19.1929
19.1895
19.1862
19.1829
19.1796
19.1764
19.1732
19.17
19.1668
19.1636
19.1605
19.1574
19.1543
19.1513
19.1483
19.1453
19.1423
19.1393
19.1363
19.1334
19.1305
19.1276
19.1247
19.1219
19.1191
19.1162
19.1134
19.1106
19.1079
19.1051
19.1024
19.0997
19.0969
19.0942
19.0916
19.0889
19.0862
19.0836
19.081
19.0784
19.0758
19.0732
19.0706
19.068
19.0655
19.0629
19.0604
19.0579
19.0554
19.0529
19.0504
19.0479
19.0455
19.043
19.0406
19.0382
19.0357
19.0333
19.0309
19.0285
19.0261
19.0238
19.0214
19.019
19.0167
19.0143
19.012
19.0097
19.0074
19.0051
19.0028
19.0005
18.9982
18.9959
18.9937
18.9914
18.9892
18.9869
18.9847
18.9825
18.9802
18.978
18.9758
18.9736
18.9714
18.9692
18.9671
18.9649
18.9627
18.9606
18.9584
18.9563
18.9542
18.9521
18.9499
18.9478
18.9457
18.9436
18.9415
18.9395
18.9374
18.9353
18.9333
18.9312
18.9292
18.9272
18.9251
18.9231
18.9211
18.9191
18.9171
18.9151
18.9131
18.9112
18.9092
18.9072
18.9053
18.9033
18.9014
18.8995
18.8975
18.8956
18.8937
18.8918
18.8899
18.888
18.8861
18.8842
18.8823
18.8805
18.8786
18.8767
18.8749
18.873
18.8712
18.8693
18.8675
18.8657
18.8638
18.862
18.8602
18.8584
18.8565
18.8547
18.8529
18.8511
18.8493
18.8475
18.8457
18.8439
18.8422
18.8404
18.8386
18.8368
18.835
18.8333
18.8315
18.8297
18.828
18.8262
18.8245
18.8227
18.821
18.8192
18.8175
18.8157
18.814
18.8122
18.8105
18.8087
18.807
18.8053
18.8035
18.8018
18.8001
18.7984
18.7966
18.7949
18.7932
18.7915
18.7897
18.788
18.7863
18.7846
18.7829
18.7812
18.7794
18.7777
18.776
18.7743
18.7726
18.7709
18.7692
18.7675
18.7658
18.7641
18.7624
18.7606
18.7589
18.7572
18.7555
18.7538
18.7521
18.7504
18.7487
18.747
18.7453
18.7436
18.7419
18.7402
18.7385
18.7367
18.735
18.7333
18.7316
18.7299
18.7282
18.7265
18.7248
18.7231
18.7214
18.7197
18.718
18.7163
18.7146
18.7129
18.7111
18.7094
18.7077
18.706
18.7043
18.7026
18.7009
18.6992
18.6975
18.6958
18.6941
18.6924
18.6907
18.689
18.6873
18.6855
18.6838
18.6821
18.6804
18.6787
18.677
18.6753
18.6736
18.6719
18.6702
18.6685
18.6668
18.6651
18.6634
18.6617
18.6599
18.6582
18.6565
18.6548
18.6531
18.6514
18.6497
18.648
18.6463
18.6446
18.6429
18.6412
18.6395
18.6378
18.6361
18.6344
18.6326
18.6309
18.6292
18.6275
18.6258
18.6241
18.6224
18.6207
18.619
18.6173
18.6156
18.6139
18.6122
18.6105
18.6088
18.6071
18.6053
18.6036
18.6019
18.6002
18.5985
18.5968
18.5951
18.5934
18.5917
18.59
18.5883
18.5866
18.5849
18.5832
18.5815
18.5798
18.5781
18.5763
18.5746
18.5729
18.5712
18.5695
18.5678
18.5661
18.5644
18.5627
18.561
18.5593
18.5576
18.5559
18.5542
18.5525
18.5508
18.5491
18.5474
18.5456
18.5439
18.5422
18.5405
18.5388
18.5371
18.5354
18.5337
18.532
18.5303
18.5286
18.5269
18.5252
18.5235
18.5218
18.5201
18.5184
18.5167
18.5149
18.5132
18.5115
18.5098
18.5081
18.5064
18.5047
18.503
18.5013
18.4996
18.4979
18.4962
18.4945
18.4928
18.4911
18.4894
18.4877
18.486
18.4843
18.4826
18.4808
18.4791
18.4774
18.4757
18.474
18.4723
18.4706
18.4689
18.4672
18.4655
18.4638
18.4621
18.4604
18.4587
18.457
18.4553
18.4536
18.4519
18.4502
18.4485
18.4467
18.445
18.4433
18.4416
18.4399
18.4382
18.4365
18.4348
18.4331
18.4314
18.4297
18.428
18.4263
18.4246
18.4229
18.4212
18.4195
18.4178
18.4161
18.4144
18.4127
18.4109
18.4092
18.4075
18.4058
18.4041
18.4024
18.4007
18.399
18.3973
18.3956
18.3939
18.3922
18.3905
18.3888
18.3871
18.3854
18.3837
18.382
18.3803
18.3786
18.3769
18.3752
18.3735
18.3717
18.37
18.3683
18.3666
18.3649
18.3632
18.3615
18.3598
18.3581
18.3564
18.3547
18.353
18.3513
18.3496
18.3479
18.3462
18.3445
18.3428
18.3411
18.3394
18.3377
18.336
18.3343
18.3326
18.3308
18.3291
18.3274
18.3257
18.324
18.3223
18.3206
18.3189
18.3172
18.3155
18.3138
18.3121
18.3104
18.3087
18.307
18.3053
18.3036
18.3019
18.3002
18.2985
18.2968
18.2951
18.2934
18.2917
18.29
18.2883
18.2865
18.2848
18.2831
18.2814
18.2797
18.278
18.2763
18.2746
18.2729
18.2712
18.2695
18.2678
18.2661
18.2644
18.2627
18.261
18.2593
18.2576
18.2559
18.2542
18.2525
18.2508
18.2491
18.2474
18.2457
18.244
18.2423
18.2406
18.2388
18.2371
18.2354
18.2337
18.232
18.2303
18.2286
18.2269
18.2252
18.2235
18.2218
18.2201
18.2184
18.2167
18.215
18.2133
18.2116
18.2099
18.2082
18.2065
18.2048
18.2031
18.2014
18.1997
18.198
18.1963
18.1946
18.1929
18.1912
18.1895
18.1878
18.1861
18.1843
18.1826
18.1809
18.1792
18.1775
18.1758
18.1741
18.1724
18.1707
18.169
18.1673
18.1656
18.1639
18.1622
18.1605
18.1588
18.1571
18.1554
18.1537
18.152
18.1503
18.1486
18.1469
18.1452
18.1435
18.1418
18.1401
18.1384
18.1367
18.135
18.1333
18.1316
18.1299
18.1282
18.1265
18.1247
18.123
18.1213
18.1196
18.1179
18.1162
18.1145
18.1128
18.1111
18.1094
18.1077
18.106
18.1043
18.1026
18.1009
18.0992
18.0975
18.0958
18.0941
18.0924
18.0907
18.089
18.0873
18.0856
18.0839
18.0822
18.0805
18.0788
18.0771
18.0754
18.0737
18.072
18.0703
18.0686
18.0669
18.0652
18.0635
18.0618
18.0601
18.0584
18.0567
18.055
18.0532
18.0515
18.0498
18.0481
18.0464
18.0447
18.043
18.0413
18.0396
18.0379
18.0362
18.0345
18.0328
18.0311
18.0294
18.0277
18.026
18.0243
18.0226
18.0209
18.0192
18.0175
18.0158
18.0141
18.0124
18.0107
18.009
18.0073
18.0056
18.0039
18.0022
18.0005
17.9988
17.9971
17.9954
17.9937
17.992
17.9903
17.9886
17.9869
17.9852
17.9835
17.9818
17.9801
17.9784
17.9767
17.975
17.9733
17.9716
17.9699
17.9682
17.9665
17.9648
17.963
17.9613
17.9596
17.9579
17.9562
17.9545
17.9528
17.9511
17.9494
17.9477
17.946
17.9443
17.9426
17.9409
17.9392
17.9375
17.9358
17.9341
17.9324
17.9307
17.929
17.9273
17.9256
17.9239
17.9222
17.9205
17.9188
17.9171
17.9154
17.9137
17.912
17.9103
17.9086
17.9069
17.9052
17.9035
17.9018
17.9001
17.8984
17.8967
17.895
17.8933
17.8916
17.8899
17.8882
17.8865
17.8848
17.8831
17.8814
17.8797
17.878
17.8763
17.8746
17.8729
17.8712
17.8695
17.8678
17.8661
17.8644
17.8627
17.861
17.8593
17.8576
17.8559
17.8542
17.8525
17.8508
17.8491
17.8474
17.8457
17.844
17.8423
17.8406
17.8389
17.8372
17.8355
17.8338
17.8321
17.8304
17.8287
17.827
17.8253
17.8236
17.8219
17.8202
17.8185
17.8168
17.8151
17.8134
17.8134
20.6133
20.6133
19.7289
19.4957
19.4271
19.3972
19.3796
19.3672
19.3574
19.3493
19.3421
19.3356
19.3296
19.324
19.3186
19.3134
19.3084
19.3036
19.2988
19.2942
19.2896
19.2852
19.2807
19.2764
19.2721
19.2679
19.2637
19.2596
19.2556
19.2515
19.2476
19.2436
19.2398
19.2359
19.2321
19.2284
19.2247
19.221
19.2174
19.2138
19.2102
19.2067
19.2032
19.1997
19.1963
19.1929
19.1896
19.1862
19.1829
19.1796
19.1764
19.1732
19.17
19.1668
19.1637
19.1605
19.1574
19.1544
19.1513
19.1483
19.1453
19.1423
19.1393
19.1364
19.1334
19.1305
19.1276
19.1248
19.1219
19.1191
19.1162
19.1134
19.1107
19.1079
19.1051
19.1024
19.0997
19.097
19.0943
19.0916
19.0889
19.0863
19.0836
19.081
19.0784
19.0758
19.0732
19.0706
19.068
19.0655
19.063
19.0604
19.0579
19.0554
19.0529
19.0504
19.048
19.0455
19.043
19.0406
19.0382
19.0357
19.0333
19.0309
19.0285
19.0261
19.0238
19.0214
19.019
19.0167
19.0144
19.012
19.0097
19.0074
19.0051
19.0028
19.0005
18.9982
18.9959
18.9937
18.9914
18.9892
18.9869
18.9847
18.9825