# vtk DataFile Version 2.0
FlowField
ASCII
DATASET STRUCTURED_GRID
DIMENSIONS 800 1 200
POINTS 160000 float
0 0 0
0.04 0 0
0.08 0 0
0.12 0 0
0.16 0 0
0.2 0 0
0.24 0 0
0.28 0 0
0.32 0 0
0.36 0 0
0.4 0 0
0.44 0 0
0.48 0 0
0.52 0 0
0.56 0 0
0.6 0 0
0.64 0 0
0.68 0 0
0.72 0 0
0.76 0 0
0.8 0 0
0.84 0 0
0.88 0 0
0.92 0 0
0.96 0 0
1 0 0
1.04 0 0
1.08 0 0
1.12 0 0
1.16 0 0
1.2 0 0
1.24 0 0
1.28 0 0
1.32 0 0
1.36 0 0
1.4 0 0
1.44 0 0
1.48 0 0
1.52 0 0
1.56 0 0
1.6 0 0
1.64 0 0
1.68 0 0
1.72 0 0
1.76 0 0
1.8 0 0
1.84 0 0
1.88 0 0
1.92 0 0
1.96 0 0
2 0 0
2.04 0 0
2.08 0 0
2.12 0 0
2.16 0 0
2.2 0 0
2.24 0 0
2.28 0 0
2.32 0 0
2.36 0 0
2.4 0 0
2.44 0 0
2.48 0 0
2.52 0 0
2.56 0 0
2.6 0 0
2.64 0 0
2.68 0 0
2.72 0 0
2.76 0 0
2.8 0 0
2.84 0 0
2.88 0 0
2.92 0 0
2.96 0 0
3 0 0
3.04 0 0
3.08 0 0
3.12 0 0
3.16 0 0
3.2 0 0
3.24 0 0
3.28 0 0
3.32 0 0
3.36 0 0
3.4 0 0
3.44 0 0
3.48 0 0
3.52 0 0
3.56 0 0
3.6 0 0
3.64 0 0
3.68 0 0
3.72 0 0
3.76 0 0
3.8 0 0
3.84 0 0
3.88 0 0
3.92 0 0
3.96 0 0
4 0 0
4.04 0 0
4.08 0 0
4.12 0 0
4.16 0 0
4.2 0 0
4.24 0 0
4.28 0 0
4.32 0 0
4.36 0 0
4.4 0 0
4.44 0 0
4.48 0 0
4.52 0 0
4.56 0 0
4.6 0 0
4.64 0 0
4.68 0 0
4.72 0 0
4.76 0 0
4.8 0 0
4.84 0 0
4.88 0 0
4.92 0 0
4.96 0 0
5 0 0
5.04 0 0
5.08 0 0
5.12 0 0
5.16 0 0
5.2 0 0
5.24 0 0
5.28 0 0
5.32 0 0
5.36 0 0
5.4 0 0
5.44 0 0
5.48 0 0
5.52 0 0
5.56 0 0
5.6 0 0
5.64 0 0
5.68 0 0
5.72 0 0
5.76 0 0
5.8 0 0
5.84 0 0
5.88 0 0
5.92 0 0
5.96 0 0
6 0 0
6.04 0 0
6.08 0 0
6.12 0 0
6.16 0 0
6.2 0 0
6.24 0 0
6.28 0 0
6.32 0 0
6.36 0 0
6.4 0 0
6.44 0 0
6.48 0 0
6.52 0 0
6.56 0 0
6.6 0 0
6.64 0 0
6.68 0 0
6.72 0 0
6.76 0 0
6.8 0 0
6.84 0 0
6.88 0 0
6.92 0 0
6.96 0 0
7 0 0
7.04 0 0
7.08 0 0
7.12 0 0
7.16 0 0
7.2 0 0
7.24 0 0
7.28 0 0
7.32 0 0
7.36 0 0
7.4 0 0
7.44 0 0
7.48 0 0
7.52 0 0
7.56 0 0
7.6 0 0
7.64 0 0
7.68 0 0
7.72 0 0
7.76 0 0
7.8 0 0
7.84 0 0
7.88 0 0
7.92 0 0
7.96 0 0
8 0 0
8.04 0 0
8.08 0 0
8.12 0 0
8.16 0 0
8.2 0 0
8.24 0 0
8.28 0 0
8.32 0 0
8.36 0 0
8.4 0 0
8.44 0 0
8.48 0 0
8.52 0 0
8.56 0 0
8.6 0 0
8.64 0 0
8.68 0 0
8.72 0 0
8.76 0 0
8.8 0 0
8.84 0 0
8.88 0 0
8.92 0 0
8.96 0 0
9 0 0
9.04 0 0
9.08 0 0
9.12 0 0
9.16 0 0
9.2 0 0
9.24 0 0
9.28 0 0
9.32 0 0
9.36 0 0
9.4 0 0
9.44 0 0
9.48 0 0
9.52 0 0
9.56 0 0
9.6 0 0
9.64 0 0
9.68 0 0
9.72 0 0
9.76 0 0
9.8 0 0
9.84 0 0
9.88 0 0
9.92 0 0
9.96 0 0
10 0 0
10.04 0 0
10.08 0 0
10.12 0 0
10.16 0 0
10.2 0 0
10.24 0 0
10.28 0 0
10.32 0 0
10.36 0 0
10.4 0 0
10.44 0 0
10.48 0 0
10.52 0 0
10.56 0 0
10.6 0 0
10.64 0 0
10.68 0 0
10.72 0 0
10.76 0 0
10.8 0 0
10.84 0 0
10.88 0 0
10.92 0 0
10.96 0 0
11 0 0
11.04 0 0
11.08 0 0
11.12 0 0
11.16 0 0
11.2 0 0
11.24 0 0
11.28 0 0
11.32 0 0
11.36 0 0
11.4 0 0
11.44 0 0
11.48 0 0
11.52 0 0
11.56 0 0
11.6 0 0
11.64 0 0
11.68 0 0
11.72 0 0
11.76 0 0
11.8 0 0
11.84 0 0
11.88 0 0
11.92 0 0
11.96 0 0
12 0 0
12.04 0 0
12.08 0 0
12.12 0 0
12.16 0 0
12.2 0 0
12.24 0 0
12.28 0 0
12.32 0 0
12.36 0 0
12.4 0 0
12.44 0 0
12.48 0 0
12.52 0 0
12.56 0 0
12.6 0 0
12.64 0 0
12.68 0 0
12.72 0 0
12.76 0 0
12.8 0 0
12.84 0 0
12.88 0 0
12.92 0 0
12.96 0 0
13 0 0
13.04 0 0
13.08 0 0
13.12 0 0
13.16 0 0
13.2 0 0
13.24 0 0
13.28 0 0
13.32 0 0
13.36 0 0
13.4 0 0
13.44 0 0
13.48 0 0
13.52 0 0
13.56 0 0
13.6 0 0
13.64 0 0
13.68 0 0
13.72 0 0
13.76 0 0
13.8 0 0
13.84 0 0
13.88 0 0
13.92 0 0
13.96 0 0
14 0 0
14.04 0 0
14.08 0 0
14.12 0 0
14.16 0 0
14.2 0 0
14.24 0 0
14.28 0 0
14.32 0 0
14.36 0 0
14.4 0 0
14.44 0 0
14.48 0 0
14.52 0 0
14.56 0 0
14.6 0 0
14.64 0 0
14.68 0 0
14.72 0 0
14.76 0 0
14.8 0 0
14.84 0 0
14.88 0 0
14.92 0 0
14.96 0 0
15 0 0
15.04 0 0
15.08 0 0
15.12 0 0
15.16 0 0
15.2 0 0
15.24 0 0
15.28 0 0
15.32 0 0
15.36 0 0
15.4 0 0
15.44 0 0
15.48 0 0
15.52 0 0
15.56 0 0
15.6 0 0
15.64 0 0
15.68 0 0
15.72 0 0
15.76 0 0
15.8 0 0
15.84 0 0
15.88 0 0
15.92 0 0
15.96 0 0
16 0 0
16.04 0 0
16.08 0 0
16.12 0 0
16.16 0 0
16.2 0 0
16.24 0 0
16.28 0 0
16.32 0 0
16.36 0 0
16.4 0 0
16.44 0 0
16.48 0 0
16.52 0 0
16.56 0 0
16.6 0 0
16.64 0 0
16.68 0 0
16.72 0 0
16.76 0 0
16.8 0 0
16.84 0 0
16.88 0 0
16.92 0 0
16.96 0 0
17 0 0
17.04 0 0
17.08 0 0
17.12 0 0
17.16 0 0
17.2 0 0
17.24 0 0
17.28 0 0
17.32 0 0
17.36 0 0
17.4 0 0
17.44 0 0
17.48 0 0
17.52 0 0
17.56 0 0
17.6 0 0
17.64 0 0
17.68 0 0
17.72 0 0
17.76 0 0
17.8 0 0
17.84 0 0
17.88 0 0
17.92 0 0
17.96 0 0
18 0 0
18.04 0 0
18.08 0 0
18.12 0 0
18.16 0 0
18.2 0 0
18.24 0 0
18.28 0 0
18.32 0 0
18.36 0 0
18.4 0 0
18.44 0 0
18.48 0 0
18.52 0 0
18.56 0 0
18.6 0 0
18.64 0 0
18.68 0 0
18.72 0 0
18.76 0 0
18.8 0 0
18.84 0 0
18.88 0 0
18.92 0 0
18.96 0 0
19 0 0
19.04 0 0
19.08 0 0
19.12 0 0
19.16 0 0
19.2 0 0
19.24 0 0
19.28 0 0
19.32 0 0
19.36 0 0
19.4 0 0
19.44 0 0
19.48 0 0
19.52 0 0
19.56 0 0
19.6 0 0
19.64 0 0
19.68 0 0
19.72 0 0
19.76 0 0
19.8 0 0
19.84 0 0
19.88 0 0
19.92 0 0
19.96 0 0
20 0 0
20.04 0 0
20.08 0 0
20.12 0 0
20.16 0 0
20.2 0 0
20.24 0 0
20.28 0 0
20.32 0 0
20.36 0 0
20.4 0 0
20.44 0 0
20.48 0 0
20.52 0 0
20.56 0 0
20.6 0 0
20.64 0 0
20.68 0 0
20.72 0 0
20.76 0 0
20.8 0 0
20.84 0 0
20.88 0 0
20.92 0 0
20.96 0 0
21 0 0
21.04 0 0
21.08 0 0
21.12 0 0
21.16 0 0
21.2 0 0
21.24 0 0
21.28 0 0
21.32 0 0
21.36 0 0
21.4 0 0
21.44 0 0
21.48 0 0
21.52 0 0
21.56 0 0
21.6 0 0
21.64 0 0
21.68 0 0
21.72 0 0
21.76 0 0
21.8 0 0
21.84 0 0
21.88 0 0
21.92 0 0
21.96 0 0
22 0 0
22.04 0 0
22.08 0 0
22.12 0 0
22.16 0 0
22.2 0 0
22.24 0 0
22.28 0 0
22.32 0 0
22.36 0 0
22.4 0 0
22.44 0 0
22.48 0 0
22.52 0 0
22.56 0 0
22.6 0 0
22.64 0 0
22.68 0 0
22.72 0 0
22.76 0 0
22.8 0 0
22.84 0 0
22.88 0 0
22.92 0 0
22.96 0 0
23 0 0
23.04 0 0
23.08 0 0
23.12 0 0
23.16 0 0
23.2 0 0
23.24 0 0
23.28 0 0
23.32 0 0
23.36 0 0
23.4 0 0
23.44 0 0
23.48 0 0
23.52 0 0
23.56 0 0
23.6 0 0
23.64 0 0
23.68 0 0
23.72 0 0
23.76 0 0
23.8 0 0
23.84 0 0
23.88 0 0
23.92 0 0
23.96 0 0
24 0 0
24.04 0 0
24.08 0 0
24.12 0 0
24.16 0 0
24.2 0 0
24.24 0 0
24.28 0 0
24.32 0 0
24.36 0 0
24.4 0 0
24.44 0 0
24.48 0 0
24.52 0 0
24.56 0 0
24.6 0 0
24.64 0 0
24.68 0 0
24.72 0 0
24.76 0 0
24.8 0 0
24.84 0 0
24.88 0 0
24.92 0 0
24.96 0 0
25 0 0
25.04 0 0
25.08 0 0
25.12 0 0
25.16 0 0
25.2 0 0
25.24 0 0
25.28 0 0
25.32 0 0
25.36 0 0
25.4 0 0
25.44 0 0
25.48 0 0
25.52 0 0
25.56 0 0
25.6 0 0
25.64 0 0
25.68 0 0
25.72 0 0
25.76 0 0
25.8 0 0
25.84 0 0
25.88 0 0
25.92 0 0
25.96 0 0
26 0 0
26.04 0 0
26.08 0 0
26.12 0 0
26.16 0 0
26.2 0 0
26.24 0 0
26.28 0 0
26.32 0 0
26.36 0 0
26.4 0 0
26.44 0 0
26.48 0 0
26.52 0 0
26.56 0 0
26.6 0 0
26.64 0 0
26.68 0 0
26.72 0 0
26.76 0 0
26.8 0 0
26.84 0 0
26.88 0 0
26.92 0 0
26.96 0 0
27 0 0
27.04 0 0
27.08 0 0
27.12 0 0
27.16 0 0
27.2 0 0
27.24 0 0
27.28 0 0
27.32 0 0
27.36 0 0
27.4 0 0
27.44 0 0
27.48 0 0
27.52 0 0
27.56 0 0
27.6 0 0
27.64 0 0
27.68 0 0
27.72 0 0
27.76 0 0
27.8 0 0
27.84 0 0
27.88 0 0
27.92 0 0
27.96 0 0
28 0 0
28.04 0 0
28.08 0 0
28.12 0 0
28.16 0 0
28.2 0 0
28.24 0 0
28.28 0 0
28.32 0 0
28.36 0 0
28.4 0 0
28.44 0 0
28.48 0 0
28.52 0 0
28.56 0 0
28.6 0 0
28.64 0 0
28.68 0 0
28.72 0 0
28.76 0 0
28.8 0 0
28.84 0 0
28.88 0 0
28.92 0 0
28.96 0 0
29 0 0
29.04 0 0
29.08 0 0
29.12 0 0
29.16 0 0
29.2 0 0
29.24 0 0
29.28 0 0
29.32 0 0
29.36 0 0
29.4 0 0
29.44 0 0
29.48 0 0
29.52 0 0
29.56 0 0
29.6 0 0
29.64 0 0
29.68 0 0
29.72 0 0
29.76 0 0
29.8 0 0
29.84 0 0
29.88 0 0
29.92 0 0
29.96 0 0
30 0 0
30.04 0 0
30.08 0 0
30.12 0 0
30.16 0 0
30.2 0 0
30.24 0 0
30.28 0 0
30.32 0 0
30.36 0 0
30.4 0 0
30.44 0 0
30.48 0 0
30.52 0 0
30.56 0 0
30.6 0 0
30.64 0 0
30.68 0 0
30.72 0 0
30.76 0 0
30.8 0 0
30.84 0 0
30.88 0 0
30.92 0 0
30.96 0 0
31 0 0
31.04 0 0
31.08 0 0
31.12 0 0
31.16 0 0
31.2 0 0
31.24 0 0
31.28 0 0
31.32 0 0
31.36 0 0
31.4 0 0
31.44 0 0
31.48 0 0
31.52 0 0
31.56 0 0
31.6 0 0
31.64 0 0
31.68 0 0
31.72 0 0
31.76 0 0
31.8 0 0
31.84 0 0
31.88 0 0
31.92 0 0
31.96 0 0
0 0.005 0
0.04 0.005 0
0.08 0.005 0
0.12 0.005 0
0.16 0.005 0
0.2 0.005 0
0.24 0.005 0
0.28 0.005 0
0.32 0.005 0
0.36 0.005 0
0.4 0.005 0
0.44 0.005 0
0.48 0.005 0
0.52 0.005 0
0.56 0.005 0
0.6 0.005 0
0.64 0.005 0
0.68 0.005 0
0.72 0.005 0
0.76 0.005 0
0.8 0.005 0
0.84 0.005 0
0.88 0.005 0
0.92 0.005 0
0.96 0.005 0
1 0.005 0
1.04 0.005 0
1.08 0.005 0
1.12 0.005 0
1.16 0.005 0
1.2 0.005 0
1.24 0.005 0
1.28 0.005 0
1.32 0.005 0
1.36 0.005 0
1.4 0.005 0
1.44 0.005 0
1.48 0.005 0
1.52 0.005 0
1.56 0.005 0
1.6 0.005 0
1.64 0.005 0
1.68 0.005 0
1.72 0.005 0
1.76 0.005 0
1.8 0.005 0
1.84 0.005 0
1.88 0.005 0
1.92 0.005 0
1.96 0.005 0
2 0.005 0
2.04 0.005 0
2.08 0.005 0
2.12 0.005 0
2.16 0.005 0
2.2 0.005 0
2.24 0.005 0
2.28 0.005 0
2.32 0.005 0
2.36 0.005 0
2.4 0.005 0
2.44 0.005 0
2.48 0.005 0
2.52 0.005 0
2.56 0.005 0
2.6 0.005 0
2.64 0.005 0
2.68 0.005 0
2.72 0.005 0
2.76 0.005 0
2.8 0.005 0
2.84 0.005 0
2.88 0.005 0
2.92 0.005 0
2.96 0.005 0
3 0.005 0
3.04 0.005 0
3.08 0.005 0
3.12 0.005 0
3.16 0.005 0
3.2 0.005 0
3.24 0.005 0
3.28 0.005 0
3.32 0.005 0
3.36 0.005 0
3.4 0.005 0
3.44 0.005 0
3.48 0.005 0
3.52 0.005 0
3.56 0.005 0
3.6 0.005 0
3.64 0.005 0
3.68 0.005 0
3.72 0.005 0
3.76 0.005 0
3.8 0.005 0
3.84 0.005 0
3.88 0.005 0
3.92 0.005 0
3.96 0.005 0
4 0.005 0
4.04 0.005 0
4.08 0.005 0
4.12 0.005 0
4.16 0.005 0
4.2 0.005 0
4.24 0.005 0
4.28 0.005 0
4.32 0.005 0
4.36 0.005 0
4.4 0.005 0
4.44 0.005 0
4.48 0.005 0
4.52 0.005 0
4.56 0.005 0
4.6 0.005 0
4.64 0.005 0
4.68 0.005 0
4.72 0.005 0
4.76 0.005 0
4.8 0.005 0
4.84 0.005 0
4.88 0.005 0
4.92 0.005 0
4.96 0.005 0
5 0.005 0
5.04 0.005 0
5.08 0.005 0
5.12 0.005 0
5.16 0.005 0
5.2 0.005 0
5.24 0.005 0
5.28 0.005 0
5.32 0.005 0
5.36 0.005 0
5.4 0.005 0
5.44 0.005 0
5.48 0.005 0
5.52 0.005 0
5.56 0.005 0
5.6 0.005 0
5.64 0.005 0
5.68 0.005 0
5.72 0.005 0
5.76 0.005 0
5.8 0.005 0
5.84 0.005 0
5.88 0.005 0
5.92 0.005 0
5.96 0.005 0
6 0.005 0
6.04 0.005 0
6.08 0.005 0
6.12 0.005 0
6.16 0.005 0
6.2 0.005 0
6.24 0.005 0
6.28 0.005 0
6.32 0.005 0
6.36 0.005 0
6.4 0.005 0
6.44 0.005 0
6.48 0.005 0
6.52 0.005 0
6.56 0.005 0
6.6 0.005 0
6.64 0.005 0
6.68 0.005 0
6.72 0.005 0
6.76 0.005 0
6.8 0.005 0
6.84 0.005 0
6.88 0.005 0
6.92 0.005 0
6.96 0.005 0
7 0.005 0
7.04 0.005 0
7.08 0.005 0
7.12 0.005 0
7.16 0.005 0
7.2 0.005 0
7.24 0.005 0
7.28 0.005 0
7.32 0.005 0
7.36 0.005 0
7.4 0.005 0
[...]
POINT_DATA 160000

SCALARS p float 1
LOOKUP_TABLE default
1
79.7213
77.5059
77.251
77.1908
77.1644
77.1484
77.1368
77.1276
77.1197
77.1128
77.1064
77.1005
77.095
77.0897
77.0846
77.0796
77.0748
77.0701
77.0654
77.0609
77.0564
77.052
77.0477
77.0434
77.0392
77.0351
77.0309
77.0269
77.0229
77.0189
77.015
77.0111
77.0073
77.0035
76.9997
76.996
76.9924
76.9887
76.9851
76.9816
76.978
76.9745
76.9711
76.9677
76.9643
76.9609
76.9576
76.9543
76.951
76.9477
76.9445
76.9413
76.9381
76.935
76.9319
76.9287
76.9257
76.9226
76.9196
76.9166
76.9136
76.9106
76.9077
76.9047
76.9018
76.8989
76.896
76.8932
76.8903
76.8875
76.8847
76.8819
76.8792
76.8764
76.8737
76.8709
76.8682
76.8655
76.8628
76.8602
76.8575
76.8549
76.8522
76.8496
76.847
76.8444
76.8418
76.8393
76.8367
76.8342
76.8316
76.8291
76.8266
76.8241
76.8216
76.8192
76.8167
76.8142
76.8118
76.8094
76.8069
76.8045
76.8021
76.7997
76.7973
76.7949
76.7926
76.7902
76.7879
76.7855
76.7832
76.7809
76.7785
76.7762
76.7739
76.7716
76.7693
76.7671
76.7648
76.7625
76.7603
76.758
76.7558
76.7535
76.7513
76.7491
76.7469
76.7447
76.7425
76.7403
76.7381
76.7359
76.7337
76.7316
76.7294
76.7273
76.7251
76.723
76.7208
76.7187
76.7166
76.7144
76.7123
76.7102
76.7081
76.706
76.7039
76.7018
76.6998
76.6977
76.6956
76.6935
76.6915
76.6894
76.6874
76.6853
76.6833
76.6812
76.6792
76.6772
76.6752
76.6731
76.6711
76.6691
76.6671
76.6651
76.6631
76.6611
76.6591
76.6571
76.6552
76.6532
76.6512
76.6493
76.6473
76.6453
76.6434
76.6414
76.6395
76.6375
76.6356
76.6337
76.6317
76.6298
76.6279
76.6259
76.624
76.6221
76.6202
76.6183
76.6164
76.6145
76.6126
76.6107
76.6088
76.6069
76.605
76.6031
76.6013
76.5994
76.5975
76.5957
76.5938
76.5919
76.5901
76.5882
76.5863
76.5845
76.5826
76.5808
76.579
76.5771
76.5753
76.5734
76.5716
76.5698
76.568
76.5661
76.5643
76.5625
76.5607
76.5589
76.557
76.5552
76.5534
76.5516
76.5498
76.548
76.5462
76.5444
76.5426
76.5409
76.5391
76.5373
76.5355
76.5337
76.5319
76.5302
76.5284
76.5266
76.5248
76.5231
76.5213
76.5195
76.5178
76.516
76.5143
76.5125
76.5107
76.509
76.5072
76.5055
76.5037
76.502
76.5003
76.4985
76.4968
76.495
76.4933
76.4916
76.4898
76.4881
76.4864
76.4846
76.4829
76.4812
76.4795
76.4777
76.476
76.4743
76.4726
76.4709
76.4692
76.4675
76.4657
76.464
76.4623
76.4606
76.4589
76.4572
76.4555
76.4538
76.4521
76.4504
76.4487
76.447
76.4453
76.4436
76.4419
76.4403
76.4386
76.4369
76.4352
76.4335
76.4318
76.4301
76.4285
76.4268
76.4251
76.4234
76.4218
76.4201
76.4184
76.4167
76.4151
76.4134
76.4117
76.4101
76.4084
76.4067
76.4051
76.4034
76.4017
76.4001
76.3984
76.3968
76.3951
76.3934
76.3918
76.3901
76.3885
76.3868
76.3852
76.3835
76.3819
76.3802
76.3786
76.3769
76.3753
76.3736
76.372
76.3703
76.3687
76.367
76.3654
76.3638
76.3621
76.3605
76.3588
76.3572
76.3556
76.3539
76.3523
76.3507
76.349
76.3474
76.3458
76.3441
76.3425
76.3409
76.3392
76.3376
76.336
76.3344
76.3327
76.3311
76.3295
76.3279
76.3262
76.3246
76.323
76.3214
76.3198
76.3181
76.3165
76.3149
76.3133
76.3117
76.31
76.3084
76.3068
76.3052
76.3036
76.302
76.3004
76.2987
76.2971
76.2955
76.2939
76.2923
76.2907
76.2891
76.2875
76.2859
76.2842
76.2826
76.281
76.2794
76.2778
76.2762
76.2746
76.273
76.2714
76.2698
76.2682
76.2666
76.265
76.2634
76.2618
76.2602
76.2586
76.257
76.2554
76.2538
76.2522
76.2506
76.249
76.2474
76.2458
76.2442
76.2426
76.241
76.2394
76.2378
76.2362
76.2346
76.233
76.2314
76.2299
76.2283
76.2267
76.2251
76.2235
76.2219
76.2203
76.2187
76.2171
76.2155
76.2139
76.2124
76.2108
76.2092
76.2076
76.206
76.2044
76.2028
76.2012
76.1997
76.1981
76.1965
76.1949
76.1933
76.1917
76.1902
76.1886
76.187
76.1854
76.1838
76.1822
76.1807
76.1791
76.1775
76.1759
76.1743
76.1727
76.1712
76.1696
76.168
76.1664
76.1648
76.1633
76.1617
76.1601
76.1585
76.1569
76.1554
76.1538
76.1522
76.1506
76.1491
76.1475
76.1459
76.1443
76.1428
76.1412
76.1396
76.138
76.1365
76.1349
76.1333
76.1317
76.1302
76.1286
76.127
76.1254
76.1239
76.1223
76.1207
76.1191
76.1176
76.116
76.1144
76.1129
76.1113
76.1097
76.1081
76.1066
76.105
76.1034
76.1019
76.1003
76.0987
76.0971
76.0956
76.094
76.0924
76.0909
76.0893
76.0877
76.0862
76.0846
76.083
76.0814
76.0799
76.0783
76.0767
76.0752
76.0736
76.072
76.0705
76.0689
76.0673
76.0658
76.0642
76.0626
76.0611
76.0595
76.0579
76.0564
76.0548
76.0532
76.0517
76.0501
76.0485
76.047
76.0454
76.0439
76.0423
76.0407
76.0392
76.0376
76.036
76.0345
76.0329
76.0313
76.0298
76.0282
76.0266
76.0251
76.0235
76.022
76.0204
76.0188
76.0173
76.0157
76.0141
76.0126
76.011
76.0095
76.0079
76.0063
76.0048
76.0032
76.0017
76.0001
75.9985
75.997
75.9954
75.9938
75.9923
75.9907
75.9892
75.9876
75.986
75.9845
75.9829
75.9814
75.9798
75.9782
75.9767
75.9751
75.9736
75.972
75.9704
75.9689
75.9673
75.9658
75.9642
75.9627
75.9611
75.9595
75.958
75.9564
75.9549
75.9533
75.9517
75.9502
75.9486
75.9471
75.9455
75.944
75.9424
75.9408
75.9393
75.9377
75.9362
75.9346
75.9331
75.9315
75.9299
75.9284
75.9268
75.9253
75.9237
75.9222
75.9206
75.919
75.9175
75.9159
75.9144
75.9128
75.9113
75.9097
75.9081
75.9066
75.905
75.9035
75.9019
75.9004
75.8988
75.8973
75.8957
75.8942
75.8926
75.891
75.8895
75.8879
75.8864
75.8848
75.8833
75.8817
75.8802
75.8786
75.877
75.8755
75.8739
75.8724
75.8708
75.8693
75.8677
75.8662
75.8646
75.8631
75.8615
75.86
75.8584
75.8568
75.8553
75.8537
75.8522
75.8506
75.8491
75.8475
75.846
75.8444
75.8429
75.8413
75.8398
75.8382
75.8367
75.8351
75.8335
75.832
75.8304
75.8289
75.8273
75.8258
75.8242
75.8227
75.8211
75.8196
75.818
75.8165
75.8149
75.8134
75.8118
75.8103
75.8087
75.8072
75.8056
75.8041
75.8025
75.801
75.7994
75.7979
75.7963
75.7948
75.7932
75.7916
75.7901
75.7885
75.787
75.7854
75.7839
75.7823
75.7808
75.7792
75.7777
75.7761
75.7746
75.773
75.7715
75.7699
75.7684
75.7668
75.7653
75.7637
75.7622
75.7606
75.7591
75.7575
75.756
75.7544
75.7529
75.7513
75.7498
75.7482
75.7467
75.7451
75.7436
75.742
75.7405
75.7389
75.7374
75.7358
75.7343
75.7327
75.7312
75.7296
75.7281
75.7265
75.725
75.7234
75.7219
75.7203
75.7188
75.7173
75.7157
75.7142
75.7126
75.7111
75.7095
75.708
75.7064
75.7049
75.7033
75.7018
75.7002
75.6987
75.6971
75.6956
75.694
75.6925
75.6909
75.6894
75.6878
75.6863
75.6847
75.6832
75.6816
75.6801
75.6785
75.677
75.6755
75.6739
75.6724
75.6708
75.6693
75.6677
75.6662
75.6646
75.6631
75.6615
75.66
75.6584
75.6569
75.6553
75.6538
75.6522
75.6507
75.6491
75.6476
75.6461
75.6445
75.643
75.6414
75.6399
75.6383
1
79.7213
79.7213
77.5059
77.251
77.1908
77.1644
77.1484
77.1368
77.1276
77.1197
77.1128
77.1064
77.1005
77.095
77.0897
77.0846
77.0796
77.0748
77.0701
77.0654
77.0609
77.0564
77.052
77.0477
77.0434
77.0392
77.0351
77.0309
77.0269
77.0229
77.0189
77.015
77.0111
77.0073
77.0035
76.9997
76.996
76.9924
76.9887
76.9851
76.9816
76.978
76.9745
76.9711
76.9677
76.9643
76.9609
76.9576
76.9543
76.951
76.9477
76.9445
76.9413
76.9381
76.935
76.9319
76.9287
76.9257
76.9226
76.9196
76.9166
76.9136
76.9106
76.9077
76.9047
76.9018
76.8989
76.896
76.8932
76.8903
76.8875
76.8847
76.8819
76.8792
76.8764
76.8737
76.8709
76.8682
76.8655
76.8628
76.8602
76.8575
76.8549
76.8522
76.8496
76.847
76.8444
76.8418
76.8393
76.8367
76.8342
76.8316
76.8291
76.8266
76.8241
76.8216
76.8192
76.8167
76.8142
76.8118
76.8094
76.8069
76.8045
76.8021
76.7997
76.7973
76.7949
76.7926
76.7902
76.7879
76.7855
76.7832
76.7809
76.7785
76.7762
76.7739
76.7716
76.7693
76.7671
76.7648
76.7625
76.7603
76.758
76.7558
76.7535
76.7513
76.7491
76.7469
76.7447
76.7425
76.7403
76.7381
76.7359
76.7337
76.7316
76.7294
76.7273
76.7251
76.723
76.7208
76.7187
76.7166
76.7144
76.7123
76.7102
76.7081
76.706
76.7039
76.7018
76.6998
76.6977
76.6956
76.6935
76.6915
76.6894
76.6874
76.6853
76.6833
76.6812
76.6792
76.6772
76.6752
76.6731
76.6711
76.6691
76.6671
76.6651
76.6631
76.6611
76.6591
76.6571
76.6552
76.6532
76.6512
76.6493
76.6473
76.6453
76.6434
76.6414
76.6395
76.6375
76.6356
76.6337
76.6317
76.6298
76.6279
76.6259
76.624
76.6221
76.6202
76.6183
76.6164
76.6145
76.6126
76.6107
76.6088
76.6069
76.605
76.6031
76.6013
76.5994
76.5975
76.5957
76.5938
76.5919
76.5901
76.5882
76.5863
76.5845
76.5826
76.5808
76.579
76.5771
76.5753
76.5734
76.5716
76.5698
76.568
76.5661
76.5643
76.5625
76.5607
76.5589
76.557
76.5552
76.5534
76.5516
76.5498
76.548
76.5462
76.5444
76.5426
76.5409
76.5391
76.5373
76.5355
76.5337
76.5319
76.5302
76.5284
76.5266
76.5248
76.5231
76.5213
76.5195
76.5178
76.516
76.5143
76.5125
76.5107
76.509
76.5072
76.5055
76.5037
76.502
76.5003
76.4985
76.4968
76.495
76.4933
76.4916
76.4898
76.4881
76.4864
76.4846
76.4829
76.4812
76.4795
76.4777
76.476
76.4743
76.4726
76.4709
76.4692
76.4675
76.4657
76.464
76.4623
76.4606
76.4589
76.4572
76.4555
76.4538
76.4521
76.4504
76.4487
76.447
76.4453
76.4436
76.4419
76.4403
76.4386
76.4369
76.4352
76.4335
76.4318
76.4301
76.4285
76.4268
76.4251
76.4234
76.4218
76.4201
76.4184
76.4167
76.4151
76.4134
76.4117
76.4101
76.4084
76.4067
76.4051
76.4034
76.4017
76.4001
76.3984
76.3968
76.3951
76.3934
76.3918
76.3901
76.3885
76.3868
76.3852
76.3835
76.3819
76.3802
76.3786
76.3769
76.3753
76.3736
76.372
76.3703
76.3687
76.367
76.3654
76.3638
76.3621
76.3605
76.3588
76.3572
76.3556
76.3539
76.3523
76.3507
76.349
76.3474
76.3458
76.3441
76.3425
76.3409
76.3392
76.3376
76.336
76.3344
76.3327
76.3311
76.3295
76.3279
76.3262
76.3246
76.323
76.3214
76.3198
76.3181
76.3165
76.3149
76.3133
76.3117
76.31
76.3084
76.3068
76.3052
76.3036
76.302
76.3004
76.2987
76.2971
76.2955
76.2939
76.2923
76.2907
76.2891
76.2875
76.2859
76.2842
76.2826
76.281
76.2794
76.2778
76.2762
76.2746
76.273
76.2714
76.2698
76.2682
76.2666
76.265
76.2634
76.2618
76.2602
76.2586
76.257
76.2554
76.2538
76.2522
76.2506
76.249
76.2474
76.2458
76.2442
76.2426
76.241
76.2394
76.2378
76.2362
76.2346
76.233
76.2314
76.2299
76.2283
76.2267
76.2251
76.2235
76.2219
76.2203
76.2187
76.2171
76.2155
76.2139
76.2124
76.2108
76.2092
76.2076
76.206
76.2044
76.2028
76.2012
76.1997
76.1981
76.1965
76.1949
76.1933
76.1917
76.1902
76.1886
76.187
76.1854
76.1838
76.1822
76.1807
76.1791
76.1775
76.1759
76.1743
76.1727
76.1712
76.1696
76.168
76.1664
76.1648
76.1633
76.1617
76.1601
76.1585
76.1569
76.1554
76.1538
76.1522
76.1506
76.1491
76.1475
76.1459
76.1443
76.1428
76.1412
76.1396
76.138
76.1365
76.1349
76.1333
76.1317
76.1302
76.1286
76.127
76.1254
76.1239
76.1223
76.1207
76.1191
76.1176
76.116
76.1144
76.1129
76.1113
76.1097
76.1081
76.1066
76.105
76.1034
76.1019
76.1003
76.0987
76.0971
76.0956
76.094
76.0924
76.0909
76.0893
76.0877
76.0862
76.0846
76.083
76.0814
76.0799
76.0783
76.0767
76.0752
76.0736
76.072
76.0705
76.0689
76.0673
76.0658
76.0642
76.0626
76.0611
76.0595
76.0579
76.0564
76.0548
76.0532
76.0517
76.0501
76.0485
76.047
76.0454
76.0439
76.0423
76.0407
76.0392
76.0376
76.036
76.0345
76.0329
76.0313
76.0298
76.0282
76.0266
76.0251
76.0235
76.022
76.0204
76.0188
76.0173
76.0157
76.0141
76.0126
76.011
76.0095
76.0079
76.0063
76.0048
76.0032
76.0017
76.0001
75.9985
75.997
75.9954
75.9938
75.9923
75.9907
75.9892
75.9876
75.986
75.9845
75.9829
75.9814
75.9798
75.9782
75.9767
75.9751
75.9736
75.972
75.9704
75.9689
75.9673
75.9658
75.9642
75.9627
75.9611
75.9595
75.958
75.9564
75.9549
75.9533
75.9517
75.9502
75.9486
75.9471
75.9455
75.944
75.9424
75.9408
75.9393
75.9377
75.9362
75.9346
75.9331
75.9315
75.9299
75.9284
75.9268
75.9253
75.9237
75.9222
75.9206
75.919
75.9175
75.9159
75.9144
75.9128
75.9113
75.9097
75.9081
75.9066
75.905
75.9035
75.9019
75.9004
75.8988
75.8973
75.8957
75.8942
75.8926
75.891
75.8895
75.8879
75.8864
75.8848
75.8833
75.8817
75.8802
75.8786
75.877
75.8755
75.8739
75.8724
75.8708
75.8693
75.8677
75.8662
75.8646
75.8631
75.8615
75.86
75.8584
75.8568
75.8553
75.8537
75.8522
75.8506
75.8491
75.8475
75.846
75.8444
75.8429
75.8413
75.8398
75.8382
75.8367
75.8351
75.8335
75.832
75.8304
75.8289
75.8273
75.8258
75.8242
75.8227
75.8211
75.8196
75.818
75.8165
75.8149
75.8134
75.8118
75.8103
75.8087
75.8072
75.8056
75.8041
75.8025
75.801
75.7994
75.7979
75.7963
75.7948
75.7932
75.7916
75.7901
75.7885
75.787
75.7854
75.7839
75.7823
75.7808
75.7792
75.7777
75.7761
75.7746
75.773
75.7715
75.7699
75.7684
75.7668
75.7653
75.7637
75.7622
75.7606
75.7591
75.7575
75.756
75.7544
75.7529
75.7513
75.7498
75.7482
75.7467
75.7451
75.7436
75.742
75.7405
75.7389
75.7374
75.7358
75.7343
75.7327
75.7312
75.7296
75.7281
75.7265
75.725
75.7234
75.7219
75.7203
75.7188
75.7173
75.7157
75.7142
75.7126
75.7111
75.7095
75.708
75.7064
75.7049
75.7033
75.7018
75.7002
75.6987
75.6971
75.6956
75.694
75.6925
75.6909
75.6894
75.6878
75.6863
75.6847
75.6832
75.6816
75.6801
75.6785
75.677
75.6755
75.6739
75.6724
75.6708
75.6693
75.6677
75.6662
75.6646
75.6631
75.6615
75.66
75.6584
75.6569
75.6553
75.6538
75.6522
75.6507
75.6491
75.6476
75.6461
75.6445
75.643
75.6414
75.6399
75.6383
75.6383
79.0743
79.0743
77.5163
77.2605
77.195
77.1667
77.1498
77.1378
77.1283
77.1203
77.1132
77.1068
77.1008
77.0952
77.0899
77.0848
77.0798
77.0749
77.0702
77.0656
77.061
77.0565
77.0521
77.0478
77.0435
77.0393
77.0351
77.031
77.0269
77.0229
77.019
77.015
77.0112
77.0073
77.0035
76.9998
76.9961
76.9924
76.9888
76.9852
76.9816
76.9781
76.9746
76.9711
76.9677
76.9643
76.9609
76.9576
76.9543
76.951
76.9477
76.9445
76.9413
76.9381
76.935
76.9319
76.9288
76.9257
76.9226
76.9196
76.9166
76.9136
76.9106
76.9077
76.9047
76.9018
76.8989
76.8961
76.8932
76.8904
76.8875
76.8847
76.8819
76.8792
76.8764
76.8737
76.8709
76.8682
76.8655
76.8628
76.8602
76.8575
76.8549
76.8522
76.8496
76.847
76.8444
76.8419
76.8393
76.8367
76.8342
76.8317
76.8291
76.8266
76.8241
76.8216
76.8192
76.8167
76.8142
76.8118
76.8094
76.8069
76.8045
76.8021
76.7997
76.7973
76.795
76.7926
76.7902
76.7879
76.7855
76.7832
76.7809
76.7785
76.7762
76.7739
76.7716
76.7694
76.7671
76.7648
76.7625
76.7603
76.758
76.7558
76.7536
76.7513
76.7491
76.7469
76.7447
76.7425
76.7403
76.7381
76.7359
76.7337
76.7316
76.7294
76.7273
76.7251
76.723
76.7208
76.7187
76.7166
76.7145
76.7123
76.7102
76.7081
76.706
76.7039
76.7018
76.6998
76.6977
76.6956
76.6935
76.6915
76.6894
76.6874
76.6853
76.6833
76.6812
76.6792
76.6772
76.6752
76.6731
76.6711
76.6691
76.6671
76.6651
76.6631
76.6611
76.6591
76.6572
76.6552
76.6532
76.6512
76.6493
76.6473
76.6453
76.6434
76.6414
76.6395
76.6375
76.6356
76.6337
76.6317
76.6298
76.6279
76.626
76.624
76.6221
76.6202
76.6183
76.6164
76.6145
76.6126
76.6107
76.6088
76.6069
76.605
76.6032
76.6013
76.5994
76.5975
76.5957
76.5938
76.5919
76.5901
76.5882
76.5864
76.5845
76.5827
76.5808
76.579
76.5771
76.5753
76.5735
76.5716
76.5698
76.568
76.5661
76.5643
76.5625
76.5607
76.5589
76.5571
76.5552
76.5534
76.5516
76.5498
76.548
76.5462
76.5444
76.5426
76.5409
76.5391
76.5373
76.5355
76.5337
76.5319
76.5302
76.5284
76.5266
76.5248
76.5231
76.5213
76.5195
76.5178
76.516
76.5143
76.5125
76.5107
76.509
76.5072
76.5055
76.5037
76.502
76.5003
76.4985
76.4968
76.495
76.4933
76.4916
76.4898
76.4881
76.4864
76.4846
76.4829
76.4812
76.4795
76.4778
76.476
76.4743
76.4726
76.4709
76.4692
76.4675
76.4657
76.464
76.4623
76.4606
76.4589
76.4572
76.4555
76.4538
76.4521
76.4504
76.4487
76.447
76.4453
76.4436
76.442
76.4403
76.4386
76.4369
76.4352
76.4335
76.4318
76.4302
76.4285
76.4268
76.4251
76.4234
76.4218
76.4201
76.4184
76.4167
76.4151
76.4134
76.4117
76.4101
76.4084
76.4067
76.4051
76.4034
76.4017
76.4001
76.3984
76.3968
76.3951
76.3934
76.3918
76.3901
76.3885
76.3868
76.3852
76.3835
76.3819
76.3802
76.3786
76.3769
76.3753
76.3736
76.372
76.3703
76.3687
76.3671
76.3654
76.3638
76.3621
76.3605
76.3589
76.3572
76.3556
76.3539
76.3523
76.3507
76.349
76.3474
76.3458
76.3441
76.3425
76.3409
76.3393
76.3376
76.336
76.3344
76.3327
76.3311
76.3295
76.3279
76.3262
76.3246
76.323
76.3214
76.3198
76.3181
76.3165
76.3149
76.3133
76.3117
76.31
76.3084
76.3068
76.3052
76.3036
76.302
76.3004
76.2987
76.2971
76.2955
76.2939
76.2923
76.2907
76.2891
76.2875
76.2859
76.2842
76.2826
76.281
76.2794
76.2778
76.2762
76.2746
76.273
76.2714
76.2698
76.2682
76.2666
76.265
76.2634
76.2618
76.2602
76.2586
76.257
76.2554
76.2538
76.2522
76.2506
76.249
76.2474
76.2458
76.2442
76.2426
76.241
76.2394
76.2378
76.2362
76.2346
76.233
76.2315
76.2299
76.2283
76.2267
76.2251
76.2235
76.2219
76.2203
76.2187
76.2171
76.2155
76.214
76.2124
76.2108
76.2092
76.2076
76.206
76.2044
76.2028
76.2013
76.1997
76.1981
76.1965
76.1949
76.1933
76.1917
76.1902
76.1886
76.187
76.1854
76.1838
76.1822
76.1807
76.1791
76.1775
76.1759
76.1743
76.1727
76.1712
76.1696
76.168
76.1664
76.1648
76.1633
76.1617
76.1601
76.1585
76.157
76.1554
76.1538
76.1522
76.1506
76.1491
76.1475
76.1459
76.1443
76.1428
76.1412
76.1396
76.138
76.1365
76.1349
76.1333
76.1317
76.1302
76.1286
76.127
76.1254
76.1239
76.1223
76.1207
76.1191
76.1176
76.116
76.1144
76.1129
76.1113
76.1097
76.1081
76.1066
76.105
76.1034
76.1019
76.1003
76.0987
76.0971
76.0956
76.094
76.0924
76.0909
76.0893
76.0877
76.0862
76.0846
76.083
76.0815
76.0799
76.0783
76.0767
76.0752
76.0736
76.072
76.0705
76.0689
76.0673
76.0658
76.0642
76.0626
76.0611
76.0595
76.0579
76.0564
76.0548
76.0532
76.0517
76.0501
76.0486
76.047
76.0454
76.0439
76.0423
76.0407
76.0392
76.0376
76.036
76.0345
76.0329
76.0313
76.0298
76.0282
76.0267
76.0251
76.0235
76.022
76.0204
76.0188
76.0173
76.0157
76.0142
76.0126
76.011
76.0095
76.0079
76.0063
76.0048
76.0032
76.0017
76.0001
75.9985
75.997
75.9954
75.9939
75.9923
75.9907
75.9892
75.9876
75.986
75.9845
75.9829
75.9814
75.9798
75.9782
75.9767
75.9751
75.9736
75.972
75.9705
75.9689
75.9673
75.9658
75.9642
75.9627
75.9611
75.9595
75.958
75.9564
75.9549
75.9533
75.9517
75.9502
75.9486
75.9471
75.9455
75.944
75.9424
75.9408
75.9393
75.9377
75.9362
75.9346
75.9331
75.9315
75.9299
75.9284
75.9268
75.9253
75.9237
75.9222
75.9206
75.919
75.9175
75.9159
75.9144
75.9128
75.9113
75.9097
75.9082
75.9066
75.905
75.9035
75.9019
75.9004
75.8988
75.8973
75.8957
75.8942
75.8926
75.891
75.8895
75.8879
75.8864
75.8848
75.8833
75.8817
75.8802
75.8786
75.8771
75.8755
75.8739
75.8724
75.8708
75.8693
75.8677
75.8662
75.8646
75.8631
75.8615
75.86
75.8584
75.8569
75.8553
75.8537
75.8522
75.8506
75.8491
75.8475
75.846
75.8444
75.8429
75.8413
75.8398
75.8382
75.8367
75.8351
75.8336
75.832
75.8304
75.8289
75.8273
75.8258
75.8242
75.8227
75.8211
75.8196
75.818
75.8165
75.8149
75.8134
75.8118
75.8103
75.8087
75.8072
75.8056
75.8041
75.8025
75.801
75.7994
75.7979
75.7963
75.7948
75.7932
75.7917
75.7901
75.7886
75.787
75.7854
75.7839
75.7823
75.7808
75.7792
75.7777
75.7761
75.7746
75.773
75.7715
75.7699
75.7684
75.7668
75.7653
75.7637
75.7622
75.7606
75.7591
75.7575
75.756
75.7544
75.7529
75.7513
75.7498
75.7482
75.7467
75.7451
75.7436
75.742
75.7405
75.7389
75.7374
75.7358
75.7343
75.7327
75.7312
75.7296
75.7281
75.7265
75.725
75.7235
75.7219
75.7204
75.7188
75.7173
75.7157
75.7142
75.7126
75.7111
75.7095
75.708
75.7064
75.7049
75.7033
75.7018
75.7002
75.6987
75.6971
75.6956
75.694
75.6925
75.6909
75.6894
75.6878
75.6863
75.6847
75.6832
75.6816
75.6801
75.6785
75.677
75.6755
75.6739
75.6724
75.6708
75.6693
75.6677
75.6662
75.6646
75.6631
75.6615
75.66
75.6584
75.6569
75.6553
75.6538
75.6522
75.6507
75.6492
75.6476
75.6461
75.6445
75.643
75.6414
75.6399
75.6383
75.6383
78.3848
78.3848
77.5004
77.2672
77.1986
77.1687
77.1511
77.1387
77.129
77.1208
77.1136
77.1071
77.1011
77.0955
77.0901
77.0849
77.0799
77.0751
77.0703
77.0657
77.0611
77.0566
77.0522
77.0479
77.0436
77.0394
77.0352
77.0311
77.027
77.023
77.019
77.0151
77.0112
77.0074
77.0036
76.9998
76.9961
76.9924
76.9888
76.9852
76.9816
76.9781
76.9746
76.9711
76.9677
76.9643
76.9609
76.9576
76.9543
76.951
76.9478
76.9445
76.9413
76.9382
76.935
76.9319
76.9288
76.9257
76.9227
76.9196
76.9166
76.9136
76.9106
76.9077
76.9048
76.9018
76.8989
76.8961
76.8932
76.8904
76.8876
76.8847
76.882
76.8792
76.8764
76.8737
76.8709
76.8682
76.8655
76.8629
76.8602
76.8575
76.8549
76.8523
76.8496
76.847
76.8444
76.8419
76.8393
76.8367
76.8342
76.8317
76.8291
76.8266
76.8241
76.8217
76.8192
76.8167
76.8143
76.8118
76.8094
76.8069
76.8045
76.8021
76.7997
76.7973
76.795
76.7926
76.7902
76.7879
76.7855
76.7832
76.7809
76.7786
76.7762
76.7739
76.7716
76.7694
76.7671
76.7648
76.7625
76.7603
76.758
76.7558
76.7536