# vtk DataFile Version 2.0
FlowField
ASCII
DATASET STRUCTURED_GRID
DIMENSIONS 800 1 200
POINTS 160000 float
0 0 0
0.04 0 0
0.08 0 0
0.12 0 0
0.16 0 0
0.2 0 0
0.24 0 0
0.28 0 0
0.32 0 0
0.36 0 0
0.4 0 0
0.44 0 0
0.48 0 0
0.52 0 0
0.56 0 0
0.6 0 0
0.64 0 0
0.68 0 0
0.72 0 0
0.76 0 0
0.8 0 0
0.84 0 0
0.88 0 0
0.92 0 0
0.96 0 0
1 0 0
1.04 0 0
1.08 0 0
1.12 0 0
1.16 0 0
1.2 0 0
1.24 0 0
1.28 0 0
1.32 0 0
1.36 0 0
1.4 0 0
1.44 0 0
1.48 0 0
1.52 0 0
1.56 0 0
1.6 0 0
1.64 0 0
1.68 0 0
1.72 0 0
1.76 0 0
1.8 0 0
1.84 0 0
1.88 0 0
1.92 0 0
1.96 0 0
2 0 0
2.04 0 0
2.08 0 0
2.12 0 0
2.16 0 0
2.2 0 0
2.24 0 0
2.28 0 0
2.32 0 0
2.36 0 0
2.4 0 0
2.44 0 0
2.48 0 0
2.52 0 0
2.56 0 0
2.6 0 0
2.64 0 0
2.68 0 0
2.72 0 0
2.76 0 0
2.8 0 0
2.84 0 0
2.88 0 0
2.92 0 0
2.96 0 0
3 0 0
3.04 0 0
3.08 0 0
3.12 0 0
3.16 0 0
3.2 0 0
3.24 0 0
3.28 0 0
3.32 0 0
3.36 0 0
3.4 0 0
3.44 0 0
3.48 0 0
3.52 0 0
3.56 0 0
3.6 0 0
3.64 0 0
3.68 0 0
3.72 0 0
3.76 0 0
3.8 0 0
3.84 0 0
3.88 0 0
3.92 0 0
3.96 0 0
4 0 0
4.04 0 0
4.08 0 0
4.12 0 0
4.16 0 0
4.2 0 0
4.24 0 0
4.28 0 0
4.32 0 0
4.36 0 0
4.4 0 0
4.44 0 0
4.48 0 0
4.52 0 0
4.56 0 0
4.6 0 0
4.64 0 0
4.68 0 0
4.72 0 0
4.76 0 0
4.8 0 0
4.84 0 0
4.88 0 0
4.92 0 0
4.96 0 0
5 0 0
5.04 0 0
5.08 0 0
5.12 0 0
5.16 0 0
5.2 0 0
5.24 0 0
5.28 0 0
5.32 0 0
5.36 0 0
5.4 0 0
5.44 0 0
5.48 0 0
5.52 0 0
5.56 0 0
5.6 0 0
5.64 0 0
5.68 0 0
5.72 0 0
5.76 0 0
5.8 0 0
5.84 0 0
5.88 0 0
5.92 0 0
5.96 0 0
6 0 0
6.04 0 0
6.08 0 0
6.12 0 0
6.16 0 0
6.2 0 0
6.24 0 0
6.28 0 0
6.32 0 0
6.36 0 0
6.4 0 0
6.44 0 0
6.48 0 0
6.52 0 0
6.56 0 0
6.6 0 0
6.64 0 0
6.68 0 0
6.72 0 0
6.76 0 0
6.8 0 0
6.84 0 0
6.88 0 0
6.92 0 0
6.96 0 0
7 0 0
7.04 0 0
7.08 0 0
7.12 0 0
7.16 0 0
7.2 0 0
7.24 0 0
7.28 0 0
7.32 0 0
7.36 0 0
7.4 0 0
7.44 0 0
7.48 0 0
7.52 0 0
7.56 0 0
7.6 0 0
7.64 0 0
7.68 0 0
7.72 0 0
7.76 0 0
7.8 0 0
7.84 0 0
7.88 0 0
7.92 0 0
7.96 0 0
8 0 0
8.04 0 0
8.08 0 0
8.12 0 0
8.16 0 0
8.2 0 0
8.24 0 0
8.28 0 0
8.32 0 0
8.36 0 0
8.4 0 0
8.44 0 0
8.48 0 0
8.52 0 0
8.56 0 0
8.6 0 0
8.64 0 0
8.68 0 0
8.72 0 0
8.76 0 0
8.8 0 0
8.84 0 0
8.88 0 0
8.92 0 0
8.96 0 0
9 0 0
9.04 0 0
9.08 0 0
9.12 0 0
9.16 0 0
9.2 0 0
9.24 0 0
9.28 0 0
9.32 0 0
9.36 0 0
9.4 0 0
9.44 0 0
9.48 0 0
9.52 0 0
9.56 0 0
9.6 0 0
9.64 0 0
9.68 0 0
9.72 0 0
9.76 0 0
9.8 0 0
9.84 0 0
9.88 0 0
9.92 0 0
9.96 0 0
10 0 0
10.04 0 0
10.08 0 0
10.12 0 0
10.16 0 0
10.2 0 0
10.24 0 0
10.28 0 0
10.32 0 0
10.36 0 0
10.4 0 0
10.44 0 0
10.48 0 0
10.52 0 0
10.56 0 0
10.6 0 0
10.64 0 0
10.68 0 0
10.72 0 0
10.76 0 0
10.8 0 0
10.84 0 0
10.88 0 0
10.92 0 0
10.96 0 0
11 0 0
11.04 0 0
11.08 0 0
11.12 0 0
11.16 0 0
11.2 0 0
11.24 0 0
11.28 0 0
11.32 0 0
11.36 0 0
11.4 0 0
11.44 0 0
11.48 0 0
11.52 0 0
11.56 0 0
11.6 0 0
11.64 0 0
11.68 0 0
11.72 0 0
11.76 0 0
11.8 0 0
11.84 0 0
11.88 0 0
11.92 0 0
11.96 0 0
12 0 0
12.04 0 0
12.08 0 0
12.12 0 0
12.16 0 0
12.2 0 0
12.24 0 0
12.28 0 0
12.32 0 0
12.36 0 0
12.4 0 0
12.44 0 0
12.48 0 0
12.52 0 0
12.56 0 0
12.6 0 0
12.64 0 0
12.68 0 0
12.72 0 0
12.76 0 0
12.8 0 0
12.84 0 0
12.88 0 0
12.92 0 0
12.96 0 0
13 0 0
13.04 0 0
13.08 0 0
13.12 0 0
13.16 0 0
13.2 0 0
13.24 0 0
13.28 0 0
13.32 0 0
13.36 0 0
13.4 0 0
13.44 0 0
13.48 0 0
13.52 0 0
13.56 0 0
13.6 0 0
13.64 0 0
13.68 0 0
13.72 0 0
13.76 0 0
13.8 0 0
13.84 0 0
13.88 0 0
13.92 0 0
13.96 0 0
14 0 0
14.04 0 0
14.08 0 0
14.12 0 0
14.16 0 0
14.2 0 0
14.24 0 0
14.28 0 0
14.32 0 0
14.36 0 0
14.4 0 0
14.44 0 0
14.48 0 0
14.52 0 0
14.56 0 0
14.6 0 0
14.64 0 0
14.68 0 0
14.72 0 0
14.76 0 0
14.8 0 0
14.84 0 0
14.88 0 0
14.92 0 0
14.96 0 0
15 0 0
15.04 0 0
15.08 0 0
15.12 0 0
15.16 0 0
15.2 0 0
15.24 0 0
15.28 0 0
15.32 0 0
15.36 0 0
15.4 0 0
15.44 0 0
15.48 0 0
15.52 0 0
15.56 0 0
15.6 0 0
15.64 0 0
15.68 0 0
15.72 0 0
15.76 0 0
15.8 0 0
15.84 0 0
15.88 0 0
15.92 0 0
15.96 0 0
16 0 0
16.04 0 0
16.08 0 0
16.12 0 0
16.16 0 0
16.2 0 0
16.24 0 0
16.28 0 0
16.32 0 0
16.36 0 0
16.4 0 0
16.44 0 0
16.48 0 0
16.52 0 0
16.56 0 0
16.6 0 0
16.64 0 0
16.68 0 0
16.72 0 0
16.76 0 0
16.8 0 0
16.84 0 0
16.88 0 0
16.92 0 0
16.96 0 0
17 0 0
17.04 0 0
17.08 0 0
17.12 0 0
17.16 0 0
17.2 0 0
17.24 0 0
17.28 0 0
17.32 0 0
17.36 0 0
17.4 0 0
17.44 0 0
17.48 0 0
17.52 0 0
17.56 0 0
17.6 0 0
17.64 0 0
17.68 0 0
17.72 0 0
17.76 0 0
17.8 0 0
17.84 0 0
17.88 0 0
17.92 0 0
17.96 0 0
18 0 0
18.04 0 0
18.08 0 0
18.12 0 0
18.16 0 0
18.2 0 0
18.24 0 0
18.28 0 0
18.32 0 0
18.36 0 0
18.4 0 0
18.44 0 0
18.48 0 0
18.52 0 0
18.56 0 0
18.6 0 0
18.64 0 0
18.68 0 0
18.72 0 0
18.76 0 0
18.8 0 0
18.84 0 0
18.88 0 0
18.92 0 0
18.96 0 0
19 0 0
19.04 0 0
19.08 0 0
19.12 0 0
19.16 0 0
19.2 0 0
19.24 0 0
19.28 0 0
19.32 0 0
19.36 0 0
19.4 0 0
19.44 0 0
19.48 0 0
19.52 0 0
19.56 0 0
19.6 0 0
19.64 0 0
19.68 0 0
19.72 0 0
19.76 0 0
19.8 0 0
19.84 0 0
19.88 0 0
19.92 0 0
19.96 0 0
20 0 0
20.04 0 0
20.08 0 0
20.12 0 0
20.16 0 0
20.2 0 0
20.24 0 0
20.28 0 0
20.32 0 0
20.36 0 0
20.4 0 0
20.44 0 0
20.48 0 0
20.52 0 0
20.56 0 0
20.6 0 0
20.64 0 0
20.68 0 0
20.72 0 0
20.76 0 0
20.8 0 0
20.84 0 0
20.88 0 0
20.92 0 0
20.96 0 0
21 0 0
21.04 0 0
21.08 0 0
21.12 0 0
21.16 0 0
21.2 0 0
21.24 0 0
21.28 0 0
21.32 0 0
21.36 0 0
21.4 0 0
21.44 0 0
21.48 0 0
21.52 0 0
21.56 0 0
21.6 0 0
21.64 0 0
21.68 0 0
21.72 0 0
21.76 0 0
21.8 0 0
21.84 0 0
21.88 0 0
21.92 0 0
21.96 0 0
22 0 0
22.04 0 0
22.08 0 0
22.12 0 0
22.16 0 0
22.2 0 0
22.24 0 0
22.28 0 0
22.32 0 0
22.36 0 0
22.4 0 0
22.44 0 0
22.48 0 0
22.52 0 0
22.56 0 0
22.6 0 0
22.64 0 0
22.68 0 0
22.72 0 0
22.76 0 0
22.8 0 0
22.84 0 0
22.88 0 0
22.92 0 0
22.96 0 0
23 0 0
23.04 0 0
23.08 0 0
23.12 0 0
23.16 0 0
23.2 0 0
23.24 0 0
23.28 0 0
23.32 0 0
23.36 0 0
23.4 0 0
23.44 0 0
23.48 0 0
23.52 0 0
23.56 0 0
23.6 0 0
23.64 0 0
23.68 0 0
23.72 0 0
23.76 0 0
23.8 0 0
23.84 0 0
23.88 0 0
23.92 0 0
23.96 0 0
24 0 0
24.04 0 0
24.08 0 0
24.12 0 0
24.16 0 0
24.2 0 0
24.24 0 0
24.28 0 0
24.32 0 0
24.36 0 0
24.4 0 0
24.44 0 0
24.48 0 0
24.52 0 0
24.56 0 0
24.6 0 0
24.64 0 0
24.68 0 0
24.72 0 0
24.76 0 0
24.8 0 0
24.84 0 0
24.88 0 0
24.92 0 0
24.96 0 0
25 0 0
25.04 0 0
25.08 0 0
25.12 0 0
25.16 0 0
25.2 0 0
25.24 0 0
25.28 0 0
25.32 0 0
25.36 0 0
25.4 0 0
25.44 0 0
25.48 0 0
25.52 0 0
25.56 0 0
25.6 0 0
25.64 0 0
25.68 0 0
25.72 0 0
25.76 0 0
25.8 0 0
25.84 0 0
25.88 0 0
25.92 0 0
25.96 0 0
26 0 0
26.04 0 0
26.08 0 0
26.12 0 0
26.16 0 0
26.2 0 0
26.24 0 0
26.28 0 0
26.32 0 0
26.36 0 0
26.4 0 0
26.44 0 0
26.48 0 0
26.52 0 0
26.56 0 0
26.6 0 0
26.64 0 0
26.68 0 0
26.72 0 0
26.76 0 0
26.8 0 0
26.84 0 0
26.88 0 0
26.92 0 0
26.96 0 0
27 0 0
27.04 0 0
27.08 0 0
27.12 0 0
27.16 0 0
27.2 0 0
27.24 0 0
27.28 0 0
27.32 0 0
27.36 0 0
27.4 0 0
27.44 0 0
27.48 0 0
27.52 0 0
27.56 0 0
27.6 0 0
27.64 0 0
27.68 0 0
27.72 0 0
27.76 0 0
27.8 0 0
27.84 0 0
27.88 0 0
27.92 0 0
27.96 0 0
28 0 0
28.04 0 0
28.08 0 0
28.12 0 0
28.16 0 0
28.2 0 0
28.24 0 0
28.28 0 0
28.32 0 0
28.36 0 0
28.4 0 0
28.44 0 0
28.48 0 0
28.52 0 0
28.56 0 0
28.6 0 0
28.64 0 0
28.68 0 0
28.72 0 0
28.76 0 0
28.8 0 0
28.84 0 0
28.88 0 0
28.92 0 0
28.96 0 0
29 0 0
29.04 0 0
29.08 0 0
29.12 0 0
29.16 0 0
29.2 0 0
29.24 0 0
29.28 0 0
29.32 0 0
29.36 0 0
29.4 0 0
29.44 0 0
29.48 0 0
29.52 0 0
29.56 0 0
29.6 0 0
29.64 0 0
29.68 0 0
29.72 0 0
29.76 0 0
29.8 0 0
29.84 0 0
29.88 0 0
29.92 0 0
29.96 0 0
30 0 0
30.04 0 0
30.08 0 0
30.12 0 0
30.16 0 0
30.2 0 0
30.24 0 0
30.28 0 0
30.32 0 0
30.36 0 0
30.4 0 0
30.44 0 0
30.48 0 0
30.52 0 0
30.56 0 0
30.6 0 0
30.64 0 0
30.68 0 0
30.72 0 0
30.76 0 0
30.8 0 0
30.84 0 0
30.88 0 0
30.92 0 0
30.96 0 0
31 0 0
31.04 0 0
31.08 0 0
31.12 0 0
31.16 0 0
31.2 0 0
31.24 0 0
31.28 0 0
31.32 0 0
31.36 0 0
31.4 0 0
31.44 0 0
31.48 0 0
31.52 0 0
31.56 0 0
31.6 0 0
31.64 0 0
31.68 0 0
31.72 0 0
31.76 0 0
31.8 0 0
31.84 0 0
31.88 0 0
31.92 0 0
31.96 0 0
0 0.005 0
0.04 0.005 0
0.08 0.005 0
0.12 0.005 0
0.16 0.005 0
0.2 0.005 0
0.24 0.005 0
0.28 0.005 0
0.32 0.005 0
0.36 0.005 0
0.4 0.005 0
0.44 0.005 0
0.48 0.005 0
0.52 0.005 0
0.56 0.005 0
0.6 0.005 0
0.64 0.005 0
0.68 0.005 0
0.72 0.005 0
0.76 0.005 0
0.8 0.005 0
0.84 0.005 0
0.88 0.005 0
0.92 0.005 0
0.96 0.005 0
1 0.005 0
1.04 0.005 0
1.08 0.005 0
1.12 0.005 0
1.16 0.005 0
1.2 0.005 0
1.24 0.005 0
1.28 0.005 0
1.32 0.005 0
1.36 0.005 0
1.4 0.005 0
1.44 0.005 0
1.48 0.005 0
1.52 0.005 0
1.56 0.005 0
1.6 0.005 0
1.64 0.005 0
1.68 0.005 0
1.72 0.005 0
1.76 0.005 0
1.8 0.005 0
1.84 0.005 0
1.88 0.005 0
1.92 0.005 0
1.96 0.005 0
2 0.005 0
2.04 0.005 0
2.08 0.005 0
2.12 0.005 0
2.16 0.005 0
2.2 0.005 0
2.24 0.005 0
2.28 0.005 0
2.32 0.005 0
2.36 0.005 0
2.4 0.005 0
2.44 0.005 0
2.48 0.005 0
2.52 0.005 0
2.56 0.005 0
2.6 0.005 0
2.64 0.005 0
2.68 0.005 0
2.72 0.005 0
2.76 0.005 0
2.8 0.005 0
2.84 0.005 0
2.88 0.005 0
2.92 0.005 0
2.96 0.005 0
3 0.005 0
3.04 0.005 0
3.08 0.005 0
3.12 0.005 0
3.16 0.005 0
3.2 0.005 0
3.24 0.005 0
3.28 0.005 0
3.32 0.005 0
3.36 0.005 0
3.4 0.005 0
3.44 0.005 0
3.48 0.005 0
3.52 0.005 0
3.56 0.005 0
3.6 0.005 0
3.64 0.005 0
3.68 0.005 0
3.72 0.005 0
3.76 0.005 0
3.8 0.005 0
3.84 0.005 0
3.88 0.005 0
3.92 0.005 0
3.96 0.005 0
4 0.005 0
4.04 0.005 0
4.08 0.005 0
4.12 0.005 0
4.16 0.005 0
4.2 0.005 0
4.24 0.005 0
4.28 0.005 0
4.32 0.005 0
4.36 0.005 0
4.4 0.005 0
4.44 0.005 0
4.48 0.005 0
4.52 0.005 0
4.56 0.005 0
4.6 0.005 0
4.64 0.005 0
4.68 0.005 0
4.72 0.005 0
4.76 0.005 0
4.8 0.005 0
4.84 0.005 0
4.88 0.005 0
4.92 0.005 0
4.96 0.005 0
5 0.005 0
5.04 0.005 0
5.08 0.005 0
5.12 0.005 0
5.16 0.005 0
5.2 0.005 0
5.24 0.005 0
5.28 0.005 0
5.32 0.005 0
5.36 0.005 0
5.4 0.005 0
5.44 0.005 0
5.48 0.005 0
5.52 0.005 0
5.56 0.005 0
5.6 0.005 0
5.64 0.005 0
5.68 0.005 0
5.72 0.005 0
5.76 0.005 0
5.8 0.005 0
5.84 0.005 0
5.88 0.005 0
5.92 0.005 0
5.96 0.005 0
6 0.005 0
6.04 0.005 0
6.08 0.005 0
6.12 0.005 0
6.16 0.005 0
6.2 0.005 0
6.24 0.005 0
6.28 0.005 0
6.32 0.005 0
6.36 0.005 0
6.4 0.005 0
6.44 0.005 0
6.48 0.005 0
6.52 0.005 0
6.56 0.005 0
6.6 0.005 0
6.64 0.005 0
6.68 0.005 0
6.72 0.005 0
6.76 0.005 0
6.8 0.005 0
6.84 0.005 0
6.88 0.005 0
6.92 0.005 0
6.96 0.005 0
7 0.005 0
7.04 0.005 0
7.08 0.005 0
7.12 0.005 0
7.16 0.005 0
7.2 0.005 0
7.24 0.005 0
7.28 0.005 0
7.32 0.005 0
7.36 0.005 0
7.4 0.005 0
[...]
POINT_DATA 160000

SCALARS p float 1
LOOKUP_TABLE default
1
36.1639
33.9485
33.6936
33.6334
33.607
33.591
33.5794
33.5702
33.5623
33.5554
33.549
33.5431
33.5376
33.5323
33.5272
33.5222
33.5174
33.5127
33.508
33.5035
33.499
33.4946
33.4903
33.486
33.4818
33.4777
33.4735
33.4695
33.4655
33.4615
33.4576
33.4537
33.4499
33.4461
33.4423
33.4386
33.435
33.4313
33.4277
33.4242
33.4206
33.4171
33.4137
33.4103
33.4069
33.4035
33.4002
33.3969
33.3936
33.3903
33.3871
33.3839
33.3807
33.3776
33.3745
33.3714
33.3683
33.3652
33.3622
33.3592
33.3562
33.3532
33.3503
33.3473
33.3444
33.3415
33.3387
33.3358
33.333
33.3301
33.3273
33.3245
33.3218
33.319
33.3163
33.3135
33.3108
33.3081
33.3054
33.3028
33.3001
33.2975
33.2948
33.2922
33.2896
33.287
33.2845
33.2819
33.2793
33.2768
33.2743
33.2717
33.2692
33.2667
33.2642
33.2618
33.2593
33.2569
33.2544
33.252
33.2495
33.2471
33.2447
33.2423
33.2399
33.2376
33.2352
33.2328
33.2305
33.2281
33.2258
33.2235
33.2212
33.2188
33.2165
33.2142
33.212
33.2097
33.2074
33.2051
33.2029
33.2006
33.1984
33.1962
33.1939
33.1917
33.1895
33.1873
33.1851
33.1829
33.1807
33.1785
33.1764
33.1742
33.172
33.1699
33.1677
33.1656
33.1634
33.1613
33.1592
33.1571
33.155
33.1528
33.1507
33.1486
33.1465
33.1445
33.1424
33.1403
33.1382
33.1362
33.1341
33.132
33.13
33.1279
33.1259
33.1239
33.1218
33.1198
33.1178
33.1158
33.1138
33.1117
33.1097
33.1077
33.1057
33.1037
33.1018
33.0998
33.0978
33.0958
33.0938
33.0919
33.0899
33.088
33.086
33.0841
33.0821
33.0802
33.0782
33.0763
33.0744
33.0724
33.0705
33.0686
33.0667
33.0647
33.0628
33.0609
33.059
33.0571
33.0552
33.0533
33.0514
33.0495
33.0477
33.0458
33.0439
33.042
33.0402
33.0383
33.0364
33.0346
33.0327
33.0308
33.029
33.0271
33.0253
33.0234
33.0216
33.0198
33.0179
33.0161
33.0142
33.0124
33.0106
33.0088
33.0069
33.0051
33.0033
33.0015
32.9997
32.9979
32.9961
32.9943
32.9925
32.9907
32.9889
32.9871
32.9853
32.9835
32.9817
32.9799
32.9781
32.9763
32.9746
32.9728
32.971
32.9692
32.9675
32.9657
32.9639
32.9622
32.9604
32.9586
32.9569
32.9551
32.9534
32.9516
32.9499
32.9481
32.9464
32.9446
32.9429
32.9411
32.9394
32.9377
32.9359
32.9342
32.9325
32.9307
32.929
32.9273
32.9256
32.9238
32.9221
32.9204
32.9187
32.9169
32.9152
32.9135
32.9118
32.9101
32.9084
32.9067
32.905
32.9033
32.9016
32.8998
32.8981
32.8964
32.8947
32.8931
32.8914
32.8897
32.888
32.8863
32.8846
32.8829
32.8812
32.8795
32.8778
32.8762
32.8745
32.8728
32.8711
32.8694
32.8677
32.8661
32.8644
32.8627
32.861
32.8594
32.8577
32.856
32.8544
32.8527
32.851
32.8494
32.8477
32.846
32.8444
32.8427
32.8411
32.8394
32.8377
32.8361
32.8344
32.8328
32.8311
32.8295
32.8278
32.8262
32.8245
32.8229
32.8212
32.8196
32.8179
32.8163
32.8146
32.813
32.8113
32.8097
32.808
32.8064
32.8048
32.8031
32.8015
32.7998
32.7982
32.7966
32.7949
32.7933
32.7917
32.79
32.7884
32.7868
32.7851
32.7835
32.7819
32.7803
32.7786
32.777
32.7754
32.7738
32.7721
32.7705
32.7689
32.7673
32.7656
32.764
32.7624
32.7608
32.7592
32.7575
32.7559
32.7543
32.7527
32.7511
32.7495
32.7478
32.7462
32.7446
32.743
32.7414
32.7398
32.7382
32.7366
32.735
32.7334
32.7317
32.7301
32.7285
32.7269
32.7253
32.7237
32.7221
32.7205
32.7189
32.7173
32.7157
32.7141
32.7125
32.7109
32.7093
32.7077
32.7061
32.7045
32.7029
32.7013
32.6997
32.6981
32.6965
32.6949
32.6933
32.6918
32.6902
32.6886
32.687
32.6854
32.6838
32.6822
32.6806
32.679
32.6774
32.6759
32.6743
32.6727
32.6711
32.6695
32.6679
32.6663
32.6648
32.6632
32.6616
32.66
32.6584
32.6568
32.6553
32.6537
32.6521
32.6505
32.6489
32.6473
32.6458
32.6442
32.6426
32.641
32.6395
32.6379
32.6363
32.6347
32.6331
32.6316
32.63
32.6284
32.6268
32.6253
32.6237
32.6221
32.6205
32.619
32.6174
32.6158
32.6142
32.6127
32.6111
32.6095
32.608
32.6064
32.6048
32.6032
32.6017
32.6001
32.5985
32.5969
32.5954
32.5938
32.5922
32.5907
32.5891
32.5875
32.586
32.5844
32.5828
32.5812
32.5797
32.5781
32.5765
32.575
32.5734
32.5718
32.5703
32.5687
32.5671
32.5656
32.564
32.5624
32.5609
32.5593
32.5577
32.5562
32.5546
32.553
32.5514
32.5499
32.5483
32.5467
32.5452
32.5436
32.542
32.5405
32.5389
32.5373
32.5358
32.5342
32.5326
32.5311
32.5295
32.5279
32.5264
32.5248
32.5232
32.5217
32.5201
32.5185
32.517
32.5154
32.5139
32.5123
32.5107
32.5092
32.5076
32.506
32.5045
32.5029
32.5013
32.4998
32.4982
32.4966
32.4951
32.4935
32.4919
32.4904
32.4888
32.4872
32.4857
32.4841
32.4825
32.481
32.4794
32.4778
32.4763
32.4747
32.4731
32.4716
32.47
32.4685
32.4669
32.4653
32.4638
32.4622
32.4606
32.4591
32.4575
32.4559
32.4544
32.4528
32.4512
32.4497
32.4481
32.4465
32.445
32.4434
32.4419
32.4403
32.4387
32.4372
32.4356
32.434
32.4325
32.4309
32.4293
32.4278
32.4262
32.4246
32.4231
32.4215
32.42
32.4184
32.4168
32.4153
32.4137
32.4121
32.4106
32.409
32.4074
32.4059
32.4043
32.4027
32.4012
32.3996
32.3981
32.3965
32.3949
32.3934
32.3918
32.3902
32.3887
32.3871
32.3855
32.384
32.3824
32.3809
32.3793
32.3777
32.3762
32.3746
32.373
32.3715
32.3699
32.3684
32.3668
32.3652
32.3637
32.3621
32.3605
32.359
32.3574
32.3558
32.3543
32.3527
32.3512
32.3496
32.348
32.3465
32.3449
32.3433
32.3418
32.3402
32.3387
32.3371
32.3355
32.334
32.3324
32.3308
32.3293
32.3277
32.3262
32.3246
32.323
32.3215
32.3199
32.3184
32.3168
32.3152
32.3137
32.3121
32.3105
32.309
32.3074
32.3059
32.3043
32.3027
32.3012
32.2996
32.298
32.2965
32.2949
32.2934
32.2918
32.2902
32.2887
32.2871
32.2856
32.284
32.2824
32.2809
32.2793
32.2777
32.2762
32.2746
32.2731
32.2715
32.2699
32.2684
32.2668
32.2653
32.2637
32.2621
32.2606
32.259
32.2575
32.2559
32.2543
32.2528
32.2512
32.2496
32.2481
32.2465
32.245
32.2434
32.2418
32.2403
32.2387
32.2372
32.2356
32.234
32.2325
32.2309
32.2294
32.2278
32.2262
32.2247
32.2231
32.2216
32.22
32.2184
32.2169
32.2153
32.2138
32.2122
32.2106
32.2091
32.2075
32.206
32.2044
32.2028
32.2013
32.1997
32.1982
32.1966
32.195
32.1935
32.1919
32.1904
32.1888
32.1872
32.1857
32.1841
32.1826
32.181
32.1794
32.1779
32.1763
32.1748
32.1732
32.1717
32.1701
32.1685
32.167
32.1654
32.1639
32.1623
32.1607
32.1592
32.1576
32.1561
32.1545
32.1529
32.1514
32.1498
32.1483
32.1467
32.1451
32.1436
32.142
32.1405
32.1389
32.1374
32.1358
32.1342
32.1327
32.1311
32.1296
32.128
32.1264
32.1249
32.1233
32.1218
32.1202
32.1187
32.1171
32.1155
32.114
32.1124
32.1109
32.1093
32.1077
32.1062
32.1046
32.1031
32.1015
32.1
32.0984
32.0968
32.0953
32.0937
32.0922
32.0906
32.0891
32.0875
32.0859
32.0844
32.0828
32.0813
32.0797
1
36.1639
36.1639
33.9485
33.6936
33.6334
33.607
33.591
33.5794
33.5702
33.5623
33.5554
33.549
33.5431
33.5376
33.5323
33.5272
33.5222
33.5174
33.5127
33.508
33.5035
33.499
33.4946
33.4903
33.486
33.4818
33.4777
33.4735
33.4695
33.4655
33.4615
33.4576
33.4537
33.4499
33.4461
33.4423
33.4386
33.435
33.4313
33.4277
33.4242
33.4206
33.4171
33.4137
33.4103
33.4069
33.4035
33.4002
33.3969
33.3936
33.3903
33.3871
33.3839
33.3807
33.3776
33.3745
33.3714
33.3683
33.3652
33.3622
33.3592
33.3562
33.3532
33.3503
33.3473
33.3444
33.3415
33.3387
33.3358
33.333
33.3301
33.3273
33.3245
33.3218
33.319
33.3163
33.3135
33.3108
33.3081
33.3054
33.3028
33.3001
33.2975
33.2948
33.2922
33.2896
33.287
33.2845
33.2819
33.2793
33.2768
33.2743
33.2717
33.2692
33.2667
33.2642
33.2618
33.2593
33.2569
33.2544
33.252
33.2495
33.2471
33.2447
33.2423
33.2399
33.2376
33.2352
33.2328
33.2305
33.2281
33.2258
33.2235
33.2212
33.2188
33.2165
33.2142
33.212
33.2097
33.2074
33.2051
33.2029
33.2006
33.1984
33.1962
33.1939
33.1917
33.1895
33.1873
33.1851
33.1829
33.1807
33.1785
33.1764
33.1742
33.172
33.1699
33.1677
33.1656
33.1634
33.1613
33.1592
33.1571
33.155
33.1528
33.1507
33.1486
33.1465
33.1445
33.1424
33.1403
33.1382
33.1362
33.1341
33.132
33.13
33.1279
33.1259
33.1239
33.1218
33.1198
33.1178
33.1158
33.1138
33.1117
33.1097
33.1077
33.1057
33.1037
33.1018
33.0998
33.0978
33.0958
33.0938
33.0919
33.0899
33.088
33.086
33.0841
33.0821
33.0802
33.0782
33.0763
33.0744
33.0724
33.0705
33.0686
33.0667
33.0647
33.0628
33.0609
33.059
33.0571
33.0552
33.0533
33.0514
33.0495
33.0477
33.0458
33.0439
33.042
33.0402
33.0383
33.0364
33.0346
33.0327
33.0308
33.029
33.0271
33.0253
33.0234
33.0216
33.0198
33.0179
33.0161
33.0142
33.0124
33.0106
33.0088
33.0069
33.0051
33.0033
33.0015
32.9997
32.9979
32.9961
32.9943
32.9925
32.9907
32.9889
32.9871
32.9853
32.9835
32.9817
32.9799
32.9781
32.9763
32.9746
32.9728
32.971
32.9692
32.9675
32.9657
32.9639
32.9622
32.9604
32.9586
32.9569
32.9551
32.9534
32.9516
32.9499
32.9481
32.9464
32.9446
32.9429
32.9411
32.9394
32.9377
32.9359
32.9342
32.9325
32.9307
32.929
32.9273
32.9256
32.9238
32.9221
32.9204
32.9187
32.9169
32.9152
32.9135
32.9118
32.9101
32.9084
32.9067
32.905
32.9033
32.9016
32.8998
32.8981
32.8964
32.8947
32.8931
32.8914
32.8897
32.888
32.8863
32.8846
32.8829
32.8812
32.8795
32.8778
32.8762
32.8745
32.8728
32.8711
32.8694
32.8677
32.8661
32.8644
32.8627
32.861
32.8594
32.8577
32.856
32.8544
32.8527
32.851
32.8494
32.8477
32.846
32.8444
32.8427
32.8411
32.8394
32.8377
32.8361
32.8344
32.8328
32.8311
32.8295
32.8278
32.8262
32.8245
32.8229
32.8212
32.8196
32.8179
32.8163
32.8146
32.813
32.8113
32.8097
32.808
32.8064
32.8048
32.8031
32.8015
32.7998
32.7982
32.7966
32.7949
32.7933
32.7917
32.79
32.7884
32.7868
32.7851
32.7835
32.7819
32.7803
32.7786
32.777
32.7754
32.7738
32.7721
32.7705
32.7689
32.7673
32.7656
32.764
32.7624
32.7608
32.7592
32.7575
32.7559
32.7543
32.7527
32.7511
32.7495
32.7478
32.7462
32.7446
32.743
32.7414
32.7398
32.7382
32.7366
32.735
32.7334
32.7317
32.7301
32.7285
32.7269
32.7253
32.7237
32.7221
32.7205
32.7189
32.7173
32.7157
32.7141
32.7125
32.7109
32.7093
32.7077
32.7061
32.7045
32.7029
32.7013
32.6997
32.6981
32.6965
32.6949
32.6933
32.6918
32.6902
32.6886
32.687
32.6854
32.6838
32.6822
32.6806
32.679
32.6774
32.6759
32.6743
32.6727
32.6711
32.6695
32.6679
32.6663
32.6648
32.6632
32.6616
32.66
32.6584
32.6568
32.6553
32.6537
32.6521
32.6505
32.6489
32.6473
32.6458
32.6442
32.6426
32.641
32.6395
32.6379
32.6363
32.6347
32.6331
32.6316
32.63
32.6284
32.6268
32.6253
32.6237
32.6221
32.6205
32.619
32.6174
32.6158
32.6142
32.6127
32.6111
32.6095
32.608
32.6064
32.6048
32.6032
32.6017
32.6001
32.5985
32.5969
32.5954
32.5938
32.5922
32.5907
32.5891
32.5875
32.586
32.5844
32.5828
32.5812
32.5797
32.5781
32.5765
32.575
32.5734
32.5718
32.5703
32.5687
32.5671
32.5656
32.564
32.5624
32.5609
32.5593
32.5577
32.5562
32.5546
32.553
32.5514
32.5499
32.5483
32.5467
32.5452
32.5436
32.542
32.5405
32.5389
32.5373
32.5358
32.5342
32.5326
32.5311
32.5295
32.5279
32.5264
32.5248
32.5232
32.5217
32.5201
32.5185
32.517
32.5154
32.5139
32.5123
32.5107
32.5092
32.5076
32.506
32.5045
32.5029
32.5013
32.4998
32.4982
32.4966
32.4951
32.4935
32.4919
32.4904
32.4888
32.4872
32.4857
32.4841
32.4825
32.481
32.4794
32.4778
32.4763
32.4747
32.4731
32.4716
32.47
32.4685
32.4669
32.4653
32.4638
32.4622
32.4606
32.4591
32.4575
32.4559
32.4544
32.4528
32.4512
32.4497
32.4481
32.4465
32.445
32.4434
32.4419
32.4403
32.4387
32.4372
32.4356
32.434
32.4325
32.4309
32.4293
32.4278
32.4262
32.4246
32.4231
32.4215
32.42
32.4184
32.4168
32.4153
32.4137
32.4121
32.4106
32.409
32.4074
32.4059
32.4043
32.4027
32.4012
32.3996
32.3981
32.3965
32.3949
32.3934
32.3918
32.3902
32.3887
32.3871
32.3855
32.384
32.3824
32.3809
32.3793
32.3777
32.3762
32.3746
32.373
32.3715
32.3699
32.3684
32.3668
32.3652
32.3637
32.3621
32.3605
32.359
32.3574
32.3558
32.3543
32.3527
32.3512
32.3496
32.348
32.3465
32.3449
32.3433
32.3418
32.3402
32.3387
32.3371
32.3355
32.334
32.3324
32.3308
32.3293
32.3277
32.3262
32.3246
32.323
32.3215
32.3199
32.3184
32.3168
32.3152
32.3137
32.3121
32.3105
32.309
32.3074
32.3059
32.3043
32.3027
32.3012
32.2996
32.298
32.2965
32.2949
32.2934
32.2918
32.2902
32.2887
32.2871
32.2856
32.284
32.2824
32.2809
32.2793
32.2777
32.2762
32.2746
32.2731
32.2715
32.2699
32.2684
32.2668
32.2653
32.2637
32.2621
32.2606
32.259
32.2575
32.2559
32.2543
32.2528
32.2512
32.2496
32.2481
32.2465
32.245
32.2434
32.2418
32.2403
32.2387
32.2372
32.2356
32.234
32.2325
32.2309
32.2294
32.2278
32.2262
32.2247
32.2231
32.2216
32.22
32.2184
32.2169
32.2153
32.2138
32.2122
32.2106
32.2091
32.2075
32.206
32.2044
32.2028
32.2013
32.1997
32.1982
32.1966
32.195
32.1935
32.1919
32.1904
32.1888
32.1872
32.1857
32.1841
32.1826
32.181
32.1794
32.1779
32.1763
32.1748
32.1732
32.1717
32.1701
32.1685
32.167
32.1654
32.1639
32.1623
32.1607
32.1592
32.1576
32.1561
32.1545
32.1529
32.1514
32.1498
32.1483
32.1467
32.1451
32.1436
32.142
32.1405
32.1389
32.1374
32.1358
32.1342
32.1327
32.1311
32.1296
32.128
32.1264
32.1249
32.1233
32.1218
32.1202
32.1187
32.1171
32.1155
32.114
32.1124
32.1109
32.1093
32.1077
32.1062
32.1046
32.1031
32.1015
32.1
32.0984
32.0968
32.0953
32.0937
32.0922
32.0906
32.0891
32.0875
32.0859
32.0844
32.0828
32.0813
32.0797
32.0797
35.5169
35.5169
33.9589
33.7031
33.6376
33.6093
33.5924
33.5804
33.5709
33.5629
33.5558
33.5494
33.5434
33.5378
33.5325
33.5273
33.5224
33.5175
33.5128
33.5082
33.5036
33.4991
33.4947
33.4904
33.4861
33.4819
33.4777
33.4736
33.4695
33.4655
33.4616
33.4576
33.4538
33.4499
33.4461
33.4424
33.4387
33.435
33.4314
33.4278
33.4242
33.4207
33.4172
33.4137
33.4103
33.4069
33.4035
33.4002
33.3969
33.3936
33.3904
33.3871
33.3839
33.3808
33.3776
33.3745
33.3714
33.3683
33.3652
33.3622
33.3592
33.3562
33.3532
33.3503
33.3474
33.3444
33.3415
33.3387
33.3358
33.333
33.3301
33.3273
33.3246
33.3218
33.319
33.3163
33.3135
33.3108
33.3081
33.3055
33.3028
33.3001
33.2975
33.2949
33.2922
33.2896
33.287
33.2845
33.2819
33.2793
33.2768
33.2743
33.2718
33.2692
33.2667
33.2643
33.2618
33.2593
33.2569
33.2544
33.252
33.2496
33.2471
33.2447
33.2423
33.24
33.2376
33.2352
33.2328
33.2305
33.2281
33.2258
33.2235
33.2212
33.2189
33.2166
33.2143
33.212
33.2097
33.2074
33.2052
33.2029
33.2007
33.1984
33.1962
33.1939
33.1917
33.1895
33.1873
33.1851
33.1829
33.1807
33.1785
33.1764
33.1742
33.172
33.1699
33.1677
33.1656
33.1635
33.1613
33.1592
33.1571
33.155
33.1529
33.1507
33.1486
33.1466
33.1445
33.1424
33.1403
33.1382
33.1362
33.1341
33.1321
33.13
33.128
33.1259
33.1239
33.1218
33.1198
33.1178
33.1158
33.1138
33.1117
33.1097
33.1077
33.1057
33.1038
33.1018
33.0998
33.0978
33.0958
33.0939
33.0919
33.0899
33.088
33.086
33.0841
33.0821
33.0802
33.0782
33.0763
33.0744
33.0724
33.0705
33.0686
33.0667
33.0647
33.0628
33.0609
33.059
33.0571
33.0552
33.0533
33.0514
33.0496
33.0477
33.0458
33.0439
33.042
33.0402
33.0383
33.0364
33.0346
33.0327
33.0308
33.029
33.0271
33.0253
33.0234
33.0216
33.0198
33.0179
33.0161
33.0143
33.0124
33.0106
33.0088
33.007
33.0051
33.0033
33.0015
32.9997
32.9979
32.9961
32.9943
32.9925
32.9907
32.9889
32.9871
32.9853
32.9835
32.9817
32.9799
32.9781
32.9764
32.9746
32.9728
32.971
32.9692
32.9675
32.9657
32.9639
32.9622
32.9604
32.9587
32.9569
32.9551
32.9534
32.9516
32.9499
32.9481
32.9464
32.9446
32.9429
32.9412
32.9394
32.9377
32.9359
32.9342
32.9325
32.9307
32.929
32.9273
32.9256
32.9238
32.9221
32.9204
32.9187
32.917
32.9152
32.9135
32.9118
32.9101
32.9084
32.9067
32.905
32.9033
32.9016
32.8999
32.8982
32.8965
32.8948
32.8931
32.8914
32.8897
32.888
32.8863
32.8846
32.8829
32.8812
32.8795
32.8778
32.8762
32.8745
32.8728
32.8711
32.8694
32.8678
32.8661
32.8644
32.8627
32.8611
32.8594
32.8577
32.856
32.8544
32.8527
32.851
32.8494
32.8477
32.846
32.8444
32.8427
32.8411
32.8394
32.8377
32.8361
32.8344
32.8328
32.8311
32.8295
32.8278
32.8262
32.8245
32.8229
32.8212
32.8196
32.8179
32.8163
32.8146
32.813
32.8113
32.8097
32.808
32.8064
32.8048
32.8031
32.8015
32.7999
32.7982
32.7966
32.7949
32.7933
32.7917
32.79
32.7884
32.7868
32.7852
32.7835
32.7819
32.7803
32.7786
32.777
32.7754
32.7738
32.7721
32.7705
32.7689
32.7673
32.7656
32.764
32.7624
32.7608
32.7592
32.7575
32.7559
32.7543
32.7527
32.7511
32.7495
32.7479
32.7462
32.7446
32.743
32.7414
32.7398
32.7382
32.7366
32.735
32.7334
32.7318
32.7301
32.7285
32.7269
32.7253
32.7237
32.7221
32.7205
32.7189
32.7173
32.7157
32.7141
32.7125
32.7109
32.7093
32.7077
32.7061
32.7045
32.7029
32.7013
32.6997
32.6981
32.6965
32.6949
32.6934
32.6918
32.6902
32.6886
32.687
32.6854
32.6838
32.6822
32.6806
32.679
32.6774
32.6759
32.6743
32.6727
32.6711
32.6695
32.6679
32.6663
32.6648
32.6632
32.6616
32.66
32.6584
32.6568
32.6553
32.6537
32.6521
32.6505
32.6489
32.6474
32.6458
32.6442
32.6426
32.641
32.6395
32.6379
32.6363
32.6347
32.6331
32.6316
32.63
32.6284
32.6268
32.6253
32.6237
32.6221
32.6205
32.619
32.6174
32.6158
32.6142
32.6127
32.6111
32.6095
32.608
32.6064
32.6048
32.6032
32.6017
32.6001
32.5985
32.597
32.5954
32.5938
32.5922
32.5907
32.5891
32.5875
32.586
32.5844
32.5828
32.5813
32.5797
32.5781
32.5765
32.575
32.5734
32.5718
32.5703
32.5687
32.5671
32.5656
32.564
32.5624
32.5609
32.5593
32.5577
32.5562
32.5546
32.553
32.5515
32.5499
32.5483
32.5468
32.5452
32.5436
32.5421
32.5405
32.5389
32.5373
32.5358
32.5342
32.5326
32.5311
32.5295
32.528
32.5264
32.5248
32.5233
32.5217
32.5201
32.5186
32.517
32.5154
32.5139
32.5123
32.5107
32.5092
32.5076
32.506
32.5045
32.5029
32.5013
32.4998
32.4982
32.4966
32.4951
32.4935
32.4919
32.4904
32.4888
32.4872
32.4857
32.4841
32.4825
32.481
32.4794
32.4778
32.4763
32.4747
32.4732
32.4716
32.47
32.4685
32.4669
32.4653
32.4638
32.4622
32.4606
32.4591
32.4575
32.4559
32.4544
32.4528
32.4512
32.4497
32.4481
32.4465
32.445
32.4434
32.4419
32.4403
32.4387
32.4372
32.4356
32.434
32.4325
32.4309
32.4293
32.4278
32.4262
32.4246
32.4231
32.4215
32.42
32.4184
32.4168
32.4153
32.4137
32.4121
32.4106
32.409
32.4074
32.4059
32.4043
32.4028
32.4012
32.3996
32.3981
32.3965
32.3949
32.3934
32.3918
32.3902
32.3887
32.3871
32.3856
32.384
32.3824
32.3809
32.3793
32.3777
32.3762
32.3746
32.373
32.3715
32.3699
32.3684
32.3668
32.3652
32.3637
32.3621
32.3605
32.359
32.3574
32.3559
32.3543
32.3527
32.3512
32.3496
32.348
32.3465
32.3449
32.3434
32.3418
32.3402
32.3387
32.3371
32.3355
32.334
32.3324
32.3309
32.3293
32.3277
32.3262
32.3246
32.323
32.3215
32.3199
32.3184
32.3168
32.3152
32.3137
32.3121
32.3105
32.309
32.3074
32.3059
32.3043
32.3027
32.3012
32.2996
32.2981
32.2965
32.2949
32.2934
32.2918
32.2902
32.2887
32.2871
32.2856
32.284
32.2824
32.2809
32.2793
32.2778
32.2762
32.2746
32.2731
32.2715
32.2699
32.2684
32.2668
32.2653
32.2637
32.2621
32.2606
32.259
32.2575
32.2559
32.2543
32.2528
32.2512
32.2497
32.2481
32.2465
32.245
32.2434
32.2418
32.2403
32.2387
32.2372
32.2356
32.234
32.2325
32.2309
32.2294
32.2278
32.2262
32.2247
32.2231
32.2216
32.22
32.2184
32.2169
32.2153
32.2138
32.2122
32.2106
32.2091
32.2075
32.206
32.2044
32.2028
32.2013
32.1997
32.1982
32.1966
32.195
32.1935
32.1919
32.1904
32.1888
32.1872
32.1857
32.1841
32.1826
32.181
32.1795
32.1779
32.1763
32.1748
32.1732
32.1717
32.1701
32.1685
32.167
32.1654
32.1639
32.1623
32.1607
32.1592
32.1576
32.1561
32.1545
32.1529
32.1514
32.1498
32.1483
32.1467
32.1452
32.1436
32.142
32.1405
32.1389
32.1374
32.1358
32.1342
32.1327
32.1311
32.1296
32.128
32.1265
32.1249
32.1233
32.1218
32.1202
32.1187
32.1171
32.1155
32.114
32.1124
32.1109
32.1093
32.1078
32.1062
32.1046
32.1031
32.1015
32.1
32.0984
32.0968
32.0953
32.0937
32.0922
32.0906
32.0891
32.0875
32.0859
32.0844
32.0828
32.0813
32.0797
32.0797
34.8274
34.8274
33.943
33.7098
33.6412
33.6113
33.5937
33.5813
33.5716
33.5634
33.5562
33.5497
33.5437
33.5381
33.5327
33.5275
33.5225
33.5177
33.5129
33.5083
33.5037
33.4992
33.4948
33.4905
33.4862
33.482
33.4778
33.4737
33.4696
33.4656
33.4616
33.4577
33.4538
33.45
33.4462
33.4424
33.4387
33.435
33.4314
33.4278
33.4242
33.4207
33.4172
33.4137
33.4103
33.4069
33.4036
33.4002
33.3969
33.3936
33.3904
33.3871
33.3839
33.3808
33.3776
33.3745
33.3714
33.3683
33.3653
33.3622
33.3592
33.3562
33.3532
33.3503
33.3474
33.3445
33.3416
33.3387
33.3358
33.333
33.3302
33.3274
33.3246
33.3218
33.319
33.3163
33.3136
33.3108
33.3081
33.3055
33.3028
33.3001
33.2975
33.2949
33.2922
33.2896
33.2871
33.2845
33.2819
33.2794
33.2768
33.2743
33.2718
33.2693
33.2668
33.2643
33.2618
33.2593
33.2569
33.2544
33.252
33.2496
33.2471
33.2447
33.2423
33.24
33.2376
33.2352
33.2328
33.2305
33.2282
33.2258
33.2235
33.2212
33.2189
33.2166
33.2143
33.212
33.2097
33.2074
33.2052
33.2029
33.2007
33.1984
33.1962
33.194
33.1917