# vtk DataFile Version 2.0
FlowField
ASCII
DATASET STRUCTURED_GRID
DIMENSIONS 800 1 200
POINTS 160000 float
0 0 0
0.04 0 0
0.08 0 0
0.12 0 0
0.16 0 0
0.2 0 0
0.24 0 0
0.28 0 0
0.32 0 0
0.36 0 0
0.4 0 0
0.44 0 0
0.48 0 0
0.52 0 0
0.56 0 0
0.6 0 0
0.64 0 0
0.68 0 0
0.72 0 0
0.76 0 0
0.8 0 0
0.84 0 0
0.88 0 0
0.92 0 0
0.96 0 0
1 0 0
1.04 0 0
1.08 0 0
1.12 0 0
1.16 0 0
1.2 0 0
1.24 0 0
1.28 0 0
1.32 0 0
1.36 0 0
1.4 0 0
1.44 0 0
1.48 0 0
1.52 0 0
1.56 0 0
1.6 0 0
1.64 0 0
1.68 0 0
1.72 0 0
1.76 0 0
1.8 0 0
1.84 0 0
1.88 0 0
1.92 0 0
1.96 0 0
2 0 0
2.04 0 0
2.08 0 0
2.12 0 0
2.16 0 0
2.2 0 0
2.24 0 0
2.28 0 0
2.32 0 0
2.36 0 0
2.4 0 0
2.44 0 0
2.48 0 0
2.52 0 0
2.56 0 0
2.6 0 0
2.64 0 0
2.68 0 0
2.72 0 0
2.76 0 0
2.8 0 0
2.84 0 0
2.88 0 0
2.92 0 0
2.96 0 0
3 0 0
3.04 0 0
3.08 0 0
3.12 0 0
3.16 0 0
3.2 0 0
3.24 0 0
3.28 0 0
3.32 0 0
3.36 0 0
3.4 0 0
3.44 0 0
3.48 0 0
3.52 0 0
3.56 0 0
3.6 0 0
3.64 0 0
3.68 0 0
3.72 0 0
3.76 0 0
3.8 0 0
3.84 0 0
3.88 0 0
3.92 0 0
3.96 0 0
4 0 0
4.04 0 0
4.08 0 0
4.12 0 0
4.16 0 0
4.2 0 0
4.24 0 0
4.28 0 0
4.32 0 0
4.36 0 0
4.4 0 0
4.44 0 0
4.48 0 0
4.52 0 0
4.56 0 0
4.6 0 0
4.64 0 0
4.68 0 0
4.72 0 0
4.76 0 0
4.8 0 0
4.84 0 0
4.88 0 0
4.92 0 0
4.96 0 0
5 0 0
5.04 0 0
5.08 0 0
5.12 0 0
5.16 0 0
5.2 0 0
5.24 0 0
5.28 0 0
5.32 0 0
5.36 0 0
5.4 0 0
5.44 0 0
5.48 0 0
5.52 0 0
5.56 0 0
5.6 0 0
5.64 0 0
5.68 0 0
5.72 0 0
5.76 0 0
5.8 0 0
5.84 0 0
5.88 0 0
5.92 0 0
5.96 0 0
6 0 0
6.04 0 0
6.08 0 0
6.12 0 0
6.16 0 0
6.2 0 0
6.24 0 0
6.28 0 0
6.32 0 0
6.36 0 0
6.4 0 0
6.44 0 0
6.48 0 0
6.52 0 0
6.56 0 0
6.6 0 0
6.64 0 0
6.68 0 0
6.72 0 0
6.76 0 0
6.8 0 0
6.84 0 0
6.88 0 0
6.92 0 0
6.96 0 0
7 0 0
7.04 0 0
7.08 0 0
7.12 0 0
7.16 0 0
7.2 0 0
7.24 0 0
7.28 0 0
7.32 0 0
7.36 0 0
7.4 0 0
7.44 0 0
7.48 0 0
7.52 0 0
7.56 0 0
7.6 0 0
7.64 0 0
7.68 0 0
7.72 0 0
7.76 0 0
7.8 0 0
7.84 0 0
7.88 0 0
7.92 0 0
7.96 0 0
8 0 0
8.04 0 0
8.08 0 0
8.12 0 0
8.16 0 0
8.2 0 0
8.24 0 0
8.28 0 0
8.32 0 0
8.36 0 0
8.4 0 0
8.44 0 0
8.48 0 0
8.52 0 0
8.56 0 0
8.6 0 0
8.64 0 0
8.68 0 0
8.72 0 0
8.76 0 0
8.8 0 0
8.84 0 0
8.88 0 0
8.92 0 0
8.96 0 0
9 0 0
9.04 0 0
9.08 0 0
9.12 0 0
9.16 0 0
9.2 0 0
9.24 0 0
9.28 0 0
9.32 0 0
9.36 0 0
9.4 0 0
9.44 0 0
9.48 0 0
9.52 0 0
9.56 0 0
9.6 0 0
9.64 0 0
9.68 0 0
9.72 0 0
9.76 0 0
9.8 0 0
9.84 0 0
9.88 0 0
9.92 0 0
9.96 0 0
10 0 0
10.04 0 0
10.08 0 0
10.12 0 0
10.16 0 0
10.2 0 0
10.24 0 0
10.28 0 0
10.32 0 0
10.36 0 0
10.4 0 0
10.44 0 0
10.48 0 0
10.52 0 0
10.56 0 0
10.6 0 0
10.64 0 0
10.68 0 0
10.72 0 0
10.76 0 0
10.8 0 0
10.84 0 0
10.88 0 0
10.92 0 0
10.96 0 0
11 0 0
11.04 0 0
11.08 0 0
11.12 0 0
11.16 0 0
11.2 0 0
11.24 0 0
11.28 0 0
11.32 0 0
11.36 0 0
11.4 0 0
11.44 0 0
11.48 0 0
11.52 0 0
11.56 0 0
11.6 0 0
11.64 0 0
11.68 0 0
11.72 0 0
11.76 0 0
11.8 0 0
11.84 0 0
11.88 0 0
11.92 0 0
11.96 0 0
12 0 0
12.04 0 0
12.08 0 0
12.12 0 0
12.16 0 0
12.2 0 0
12.24 0 0
12.28 0 0
12.32 0 0
12.36 0 0
12.4 0 0
12.44 0 0
12.48 0 0
12.52 0 0
12.56 0 0
12.6 0 0
12.64 0 0
12.68 0 0
12.72 0 0
12.76 0 0
12.8 0 0
12.84 0 0
12.88 0 0
12.92 0 0
12.96 0 0
13 0 0
13.04 0 0
13.08 0 0
13.12 0 0
13.16 0 0
13.2 0 0
13.24 0 0
13.28 0 0
13.32 0 0
13.36 0 0
13.4 0 0
13.44 0 0
13.48 0 0
13.52 0 0
13.56 0 0
13.6 0 0
13.64 0 0
13.68 0 0
13.72 0 0
13.76 0 0
13.8 0 0
13.84 0 0
13.88 0 0
13.92 0 0
13.96 0 0
14 0 0
14.04 0 0
14.08 0 0
14.12 0 0
14.16 0 0
14.2 0 0
14.24 0 0
14.28 0 0
14.32 0 0
14.36 0 0
14.4 0 0
14.44 0 0
14.48 0 0
14.52 0 0
14.56 0 0
14.6 0 0
14.64 0 0
14.68 0 0
14.72 0 0
14.76 0 0
14.8 0 0
14.84 0 0
14.88 0 0
14.92 0 0
14.96 0 0
15 0 0
15.04 0 0
15.08 0 0
15.12 0 0
15.16 0 0
15.2 0 0
15.24 0 0
15.28 0 0
15.32 0 0
15.36 0 0
15.4 0 0
15.44 0 0
15.48 0 0
15.52 0 0
15.56 0 0
15.6 0 0
15.64 0 0
15.68 0 0
15.72 0 0
15.76 0 0
15.8 0 0
15.84 0 0
15.88 0 0
15.92 0 0
15.96 0 0
16 0 0
16.04 0 0
16.08 0 0
16.12 0 0
16.16 0 0
16.2 0 0
16.24 0 0
16.28 0 0
16.32 0 0
16.36 0 0
16.4 0 0
16.44 0 0
16.48 0 0
16.52 0 0
16.56 0 0
16.6 0 0
16.64 0 0
16.68 0 0
16.72 0 0
16.76 0 0
16.8 0 0
16.84 0 0
16.88 0 0
16.92 0 0
16.96 0 0
17 0 0
17.04 0 0
17.08 0 0
17.12 0 0
17.16 0 0
17.2 0 0
17.24 0 0
17.28 0 0
17.32 0 0
17.36 0 0
17.4 0 0
17.44 0 0
17.48 0 0
17.52 0 0
17.56 0 0
17.6 0 0
17.64 0 0
17.68 0 0
17.72 0 0
17.76 0 0
17.8 0 0
17.84 0 0
17.88 0 0
17.92 0 0
17.96 0 0
18 0 0
18.04 0 0
18.08 0 0
18.12 0 0
18.16 0 0
18.2 0 0
18.24 0 0
18.28 0 0
18.32 0 0
18.36 0 0
18.4 0 0
18.44 0 0
18.48 0 0
18.52 0 0
18.56 0 0
18.6 0 0
18.64 0 0
18.68 0 0
18.72 0 0
18.76 0 0
18.8 0 0
18.84 0 0
18.88 0 0
18.92 0 0
18.96 0 0
19 0 0
19.04 0 0
19.08 0 0
19.12 0 0
19.16 0 0
19.2 0 0
19.24 0 0
19.28 0 0
19.32 0 0
19.36 0 0
19.4 0 0
19.44 0 0
19.48 0 0
19.52 0 0
19.56 0 0
19.6 0 0
19.64 0 0
19.68 0 0
19.72 0 0
19.76 0 0
19.8 0 0
19.84 0 0
19.88 0 0
19.92 0 0
19.96 0 0
20 0 0
20.04 0 0
20.08 0 0
20.12 0 0
20.16 0 0
20.2 0 0
20.24 0 0
20.28 0 0
20.32 0 0
20.36 0 0
20.4 0 0
20.44 0 0
20.48 0 0
20.52 0 0
20.56 0 0
20.6 0 0
20.64 0 0
20.68 0 0
20.72 0 0
20.76 0 0
20.8 0 0
20.84 0 0
20.88 0 0
20.92 0 0
20.96 0 0
21 0 0
21.04 0 0
21.08 0 0
21.12 0 0
21.16 0 0
21.2 0 0
21.24 0 0
21.28 0 0
21.32 0 0
21.36 0 0
21.4 0 0
21.44 0 0
21.48 0 0
21.52 0 0
21.56 0 0
21.6 0 0
21.64 0 0
21.68 0 0
21.72 0 0
21.76 0 0
21.8 0 0
21.84 0 0
21.88 0 0
21.92 0 0
21.96 0 0
22 0 0
22.04 0 0
22.08 0 0
22.12 0 0
22.16 0 0
22.2 0 0
22.24 0 0
22.28 0 0
22.32 0 0
22.36 0 0
22.4 0 0
22.44 0 0
22.48 0 0
22.52 0 0
22.56 0 0
22.6 0 0
22.64 0 0
22.68 0 0
22.72 0 0
22.76 0 0
22.8 0 0
22.84 0 0
22.88 0 0
22.92 0 0
22.96 0 0
23 0 0
23.04 0 0
23.08 0 0
23.12 0 0
23.16 0 0
23.2 0 0
23.24 0 0
23.28 0 0
23.32 0 0
23.36 0 0
23.4 0 0
23.44 0 0
23.48 0 0
23.52 0 0
23.56 0 0
23.6 0 0
23.64 0 0
23.68 0 0
23.72 0 0
23.76 0 0
23.8 0 0
23.84 0 0
23.88 0 0
23.92 0 0
23.96 0 0
24 0 0
24.04 0 0
24.08 0 0
24.12 0 0
24.16 0 0
24.2 0 0
24.24 0 0
24.28 0 0
24.32 0 0
24.36 0 0
24.4 0 0
24.44 0 0
24.48 0 0
24.52 0 0
24.56 0 0
24.6 0 0
24.64 0 0
24.68 0 0
24.72 0 0
24.76 0 0
24.8 0 0
24.84 0 0
24.88 0 0
24.92 0 0
24.96 0 0
25 0 0
25.04 0 0
25.08 0 0
25.12 0 0
25.16 0 0
25.2 0 0
25.24 0 0
25.28 0 0
25.32 0 0
25.36 0 0
25.4 0 0
25.44 0 0
25.48 0 0
25.52 0 0
25.56 0 0
25.6 0 0
25.64 0 0
25.68 0 0
25.72 0 0
25.76 0 0
25.8 0 0
25.84 0 0
25.88 0 0
25.92 0 0
25.96 0 0
26 0 0
26.04 0 0
26.08 0 0
26.12 0 0
26.16 0 0
26.2 0 0
26.24 0 0
26.28 0 0
26.32 0 0
26.36 0 0
26.4 0 0
26.44 0 0
26.48 0 0
26.52 0 0
26.56 0 0
26.6 0 0
26.64 0 0
26.68 0 0
26.72 0 0
26.76 0 0
26.8 0 0
26.84 0 0
26.88 0 0
26.92 0 0
26.96 0 0
27 0 0
27.04 0 0
27.08 0 0
27.12 0 0
27.16 0 0
27.2 0 0
27.24 0 0
27.28 0 0
27.32 0 0
27.36 0 0
27.4 0 0
27.44 0 0
27.48 0 0
27.52 0 0
27.56 0 0
27.6 0 0
27.64 0 0
27.68 0 0
27.72 0 0
27.76 0 0
27.8 0 0
27.84 0 0
27.88 0 0
27.92 0 0
27.96 0 0
28 0 0
28.04 0 0
28.08 0 0
28.12 0 0
28.16 0 0
28.2 0 0
28.24 0 0
28.28 0 0
28.32 0 0
28.36 0 0
28.4 0 0
28.44 0 0
28.48 0 0
28.52 0 0
28.56 0 0
28.6 0 0
28.64 0 0
28.68 0 0
28.72 0 0
28.76 0 0
28.8 0 0
28.84 0 0
28.88 0 0
28.92 0 0
28.96 0 0
29 0 0
29.04 0 0
29.08 0 0
29.12 0 0
29.16 0 0
29.2 0 0
29.24 0 0
29.28 0 0
29.32 0 0
29.36 0 0
29.4 0 0
29.44 0 0
29.48 0 0
29.52 0 0
29.56 0 0
29.6 0 0
29.64 0 0
29.68 0 0
29.72 0 0
29.76 0 0
29.8 0 0
29.84 0 0
29.88 0 0
29.92 0 0
29.96 0 0
30 0 0
30.04 0 0
30.08 0 0
30.12 0 0
30.16 0 0
30.2 0 0
30.24 0 0
30.28 0 0
30.32 0 0
30.36 0 0
30.4 0 0
30.44 0 0
30.48 0 0
30.52 0 0
30.56 0 0
30.6 0 0
30.64 0 0
30.68 0 0
30.72 0 0
30.76 0 0
30.8 0 0
30.84 0 0
30.88 0 0
30.92 0 0
30.96 0 0
31 0 0
31.04 0 0
31.08 0 0
31.12 0 0
31.16 0 0
31.2 0 0
31.24 0 0
31.28 0 0
31.32 0 0
31.36 0 0
31.4 0 0
31.44 0 0
31.48 0 0
31.52 0 0
31.56 0 0
31.6 0 0
31.64 0 0
31.68 0 0
31.72 0 0
31.76 0 0
31.8 0 0
31.84 0 0
31.88 0 0
31.92 0 0
31.96 0 0
0 0.005 0
0.04 0.005 0
0.08 0.005 0
0.12 0.005 0
0.16 0.005 0
0.2 0.005 0
0.24 0.005 0
0.28 0.005 0
0.32 0.005 0
0.36 0.005 0
0.4 0.005 0
0.44 0.005 0
0.48 0.005 0
0.52 0.005 0
0.56 0.005 0
0.6 0.005 0
0.64 0.005 0
0.68 0.005 0
0.72 0.005 0
0.76 0.005 0
0.8 0.005 0
0.84 0.005 0
0.88 0.005 0
0.92 0.005 0
0.96 0.005 0
1 0.005 0
1.04 0.005 0
1.08 0.005 0
1.12 0.005 0
1.16 0.005 0
1.2 0.005 0
1.24 0.005 0
1.28 0.005 0
1.32 0.005 0
1.36 0.005 0
1.4 0.005 0
1.44 0.005 0
1.48 0.005 0
1.52 0.005 0
1.56 0.005 0
1.6 0.005 0
1.64 0.005 0
1.68 0.005 0
1.72 0.005 0
1.76 0.005 0
1.8 0.005 0
1.84 0.005 0
1.88 0.005 0
1.92 0.005 0
1.96 0.005 0
2 0.005 0
2.04 0.005 0
2.08 0.005 0
2.12 0.005 0
2.16 0.005 0
2.2 0.005 0
2.24 0.005 0
2.28 0.005 0
2.32 0.005 0
2.36 0.005 0
2.4 0.005 0
2.44 0.005 0
2.48 0.005 0
2.52 0.005 0
2.56 0.005 0
2.6 0.005 0
2.64 0.005 0
2.68 0.005 0
2.72 0.005 0
2.76 0.005 0
2.8 0.005 0
2.84 0.005 0
2.88 0.005 0
2.92 0.005 0
2.96 0.005 0
3 0.005 0
3.04 0.005 0
3.08 0.005 0
3.12 0.005 0
3.16 0.005 0
3.2 0.005 0
3.24 0.005 0
3.28 0.005 0
3.32 0.005 0
3.36 0.005 0
3.4 0.005 0
3.44 0.005 0
3.48 0.005 0
3.52 0.005 0
3.56 0.005 0
3.6 0.005 0
3.64 0.005 0
3.68 0.005 0
3.72 0.005 0
3.76 0.005 0
3.8 0.005 0
3.84 0.005 0
3.88 0.005 0
3.92 0.005 0
3.96 0.005 0
4 0.005 0
4.04 0.005 0
4.08 0.005 0
4.12 0.005 0
4.16 0.005 0
4.2 0.005 0
4.24 0.005 0
4.28 0.005 0
4.32 0.005 0
4.36 0.005 0
4.4 0.005 0
4.44 0.005 0
4.48 0.005 0
4.52 0.005 0
4.56 0.005 0
4.6 0.005 0
4.64 0.005 0
4.68 0.005 0
4.72 0.005 0
4.76 0.005 0
4.8 0.005 0
4.84 0.005 0
4.88 0.005 0
4.92 0.005 0
4.96 0.005 0
5 0.005 0
5.04 0.005 0
5.08 0.005 0
5.12 0.005 0
5.16 0.005 0
5.2 0.005 0
5.24 0.005 0
5.28 0.005 0
5.32 0.005 0
5.36 0.005 0
5.4 0.005 0
5.44 0.005 0
5.48 0.005 0
5.52 0.005 0
5.56 0.005 0
5.6 0.005 0
5.64 0.005 0
5.68 0.005 0
5.72 0.005 0
5.76 0.005 0
5.8 0.005 0
5.84 0.005 0
5.88 0.005 0
5.92 0.005 0
5.96 0.005 0
6 0.005 0
6.04 0.005 0
6.08 0.005 0
6.12 0.005 0
6.16 0.005 0
6.2 0.005 0
6.24 0.005 0
6.28 0.005 0
6.32 0.005 0
6.36 0.005 0
6.4 0.005 0
6.44 0.005 0
6.48 0.005 0
6.52 0.005 0
6.56 0.005 0
6.6 0.005 0
6.64 0.005 0
6.68 0.005 0
6.72 0.005 0
6.76 0.005 0
6.8 0.005 0
6.84 0.005 0
6.88 0.005 0
6.92 0.005 0
6.96 0.005 0
7 0.005 0
7.04 0.005 0
7.08 0.005 0
7.12 0.005 0
7.16 0.005 0
7.2 0.005 0
7.24 0.005 0
7.28 0.005 0
7.32 0.005 0
7.36 0.005 0
7.4 0.005 0
[...]
POINT_DATA 160000

SCALARS u float 1
LOOKUP_TABLE default
-1
-0.483357
-0.183962
-0.108845
-0.0810322
-0.0668327
-0.0581171
-0.0521515
-0.0477762
-0.0444132
-0.0417398
-0.03956
-0.0377467
-0.0362137
-0.0348998
-0.0337607
-0.0327629
-0.0318811
-0.0310955
-0.0303903
-0.0297533
-0.0291743
-0.0286451
-0.0281589
-0.0277103
-0.0272945
-0.0269076
-0.0265464
-0.026208
-0.02589
-0.0255904
-0.0253075
-0.0250396
-0.0247854
-0.0245438
-0.0243138
-0.0240943
-0.0238847
-0.0236841
-0.023492
-0.0233078
-0.0231308
-0.0229608
-0.0227971
-0.0226395
-0.0224876
-0.0223411
-0.0221995
-0.0220628
-0.0219306
-0.0218026
-0.0216788
-0.0215587
-0.0214424
-0.0213295
-0.02122
-0.0211136
-0.0210103
-0.0209098
-0.0208121
-0.0207171
-0.0206246
-0.0205345
-0.0204468
-0.0203613
-0.0202779
-0.0201966
-0.0201173
-0.0200399
-0.0199643
-0.0198905
-0.0198184
-0.0197479
-0.019679
-0.0196116
-0.0195458
-0.0194813
-0.0194182
-0.0193565
-0.019296
-0.0192368
-0.0191788
-0.0191219
-0.0190662
-0.0190116
-0.018958
-0.0189055
-0.018854
-0.0188034
-0.0187538
-0.0187051
-0.0186573
-0.0186104
-0.0185643
-0.018519
-0.0184745
-0.0184308
-0.0183878
-0.0183456
-0.0183041
-0.0182633
-0.0182231
-0.0181836
-0.0181448
-0.0181066
-0.018069
-0.018032
-0.0179956
-0.0179598
-0.0179245
-0.0178898
-0.0178555
-0.0178219
-0.0177887
-0.017756
-0.0177238
-0.0176921
-0.0176608
-0.01763
-0.0175996
-0.0175697
-0.0175402
-0.0175111
-0.0174824
-0.0174541
-0.0174262
-0.0173987
-0.0173716
-0.0173448
-0.0173184
-0.0172924
-0.0172667
-0.0172413
-0.0172163
-0.0171916
-0.0171673
-0.0171432
-0.0171195
-0.017096
-0.0170729
-0.01705
-0.0170275
-0.0170052
-0.0169832
-0.0169615
-0.0169401
-0.0169189
-0.016898
-0.0168773
-0.0168569
-0.0168367
-0.0168168
-0.0167972
-0.0167777
-0.0167586
-0.0167396
-0.0167209
-0.0167024
-0.0166841
-0.0166661
-0.0166482
-0.0166306
-0.0166132
-0.0165961
-0.0165791
-0.0165624
-0.0165459
-0.0165296
-0.0165135
-0.0164976
-0.0164819
-0.0164665
-0.0164513
-0.0164362
-0.0164215
-0.0164069
-0.0163925
-0.0163784
-0.0163645
-0.0163508
-0.0163373
-0.0163241
-0.016311
-0.0162982
-0.0162857
-0.0162733
-0.0162612
-0.0162493
-0.0162377
-0.0162262
-0.016215
-0.016204
-0.0161932
-0.0161827
-0.0161723
-0.0161622
-0.0161523
-0.0161426
-0.0161332
-0.0161239
-0.0161148
-0.016106
-0.0160973
-0.0160889
-0.0160806
-0.0160726
-0.0160647
-0.016057
-0.0160495
-0.0160422
-0.0160351
-0.0160282
-0.0160214
-0.0160148
-0.0160084
-0.0160021
-0.0159961
-0.0159901
-0.0159844
-0.0159788
-0.0159733
-0.015968
-0.0159629
-0.0159579
-0.015953
-0.0159483
-0.0159438
-0.0159393
-0.015935
-0.0159309
-0.0159268
-0.0159229
-0.0159191
-0.0159155
-0.0159119
-0.0159085
-0.0159052
-0.015902
-0.0158989
-0.0158959
-0.015893
-0.0158902
-0.0158875
-0.0158849
-0.0158825
-0.0158801
-0.0158777
-0.0158755
-0.0158734
-0.0158713
-0.0158693
-0.0158674
-0.0158656
-0.0158639
-0.0158622
-0.0158606
-0.015859
-0.0158576
-0.0158562
-0.0158548
-0.0158535
-0.0158523
-0.0158511
-0.01585
-0.0158489
-0.0158479
-0.0158469
-0.015846
-0.0158451
-0.0158443
-0.0158435
-0.0158427
-0.015842
-0.0158413
-0.0158407
-0.0158401
-0.0158395
-0.015839
-0.0158385
-0.015838
-0.0158376
-0.0158371
-0.0158367
-0.0158363
-0.015836
-0.0158356
-0.0158353
-0.0158349
-0.0158346
-0.0158343
-0.015834
-0.0158336
-0.0158333
-0.015833
-0.0158327
-0.0158324
-0.0158321
-0.0158318
-0.0158315
-0.0158312
-0.0158309
-0.0158306
-0.0158303
-0.01583
-0.0158297
-0.0158294
-0.0158291
-0.0158288
-0.0158285
-0.0158282
-0.0158279
-0.0158276
-0.0158273
-0.015827
-0.0158267
-0.0158264
-0.0158261
-0.0158258
-0.0158255
-0.0158252
-0.0158249
-0.0158246
-0.0158243
-0.015824
-0.0158237
-0.0158234
-0.0158231
-0.0158228
-0.0158225
-0.0158222
-0.0158219
-0.0158216
-0.0158213
-0.015821
-0.0158207
-0.0158204
-0.0158201
-0.0158198
-0.0158195
-0.0158192
-0.0158189
-0.0158186
-0.0158183
-0.015818
-0.0158176
-0.0158173
-0.015817
-0.0158167
-0.0158164
-0.0158161
-0.0158158
-0.0158155
-0.0158152
-0.0158149
-0.0158146
-0.0158143
-0.015814
-0.0158137
-0.0158134
-0.0158131
-0.0158128
-0.0158125
-0.0158122
-0.0158119
-0.0158116
-0.0158113
-0.015811
-0.0158107
-0.0158104
-0.0158101
-0.0158098
-0.0158095
-0.0158092
-0.0158089
-0.0158086
-0.0158083
-0.015808
-0.0158077
-0.0158074
-0.0158071
-0.0158068
-0.0158065
-0.0158062
-0.0158059
-0.0158056
-0.0158053
-0.015805
-0.0158047
-0.0158044
-0.0158041
-0.0158038
-0.0158035
-0.0158032
-0.0158029
-0.0158026
-0.0158023
-0.015802
-0.0158017
-0.0158014
-0.0158011
-0.0158008
-0.0158005
-0.0158002
-0.0157999
-0.0157996
-0.0157993
-0.015799
-0.0157987
-0.0157984
-0.0157981
-0.0157978
-0.0157975
-0.0157972
-0.0157969
-0.0157966
-0.0157963
-0.015796
-0.0157957
-0.0157953
-0.015795
-0.0157947
-0.0157944
-0.0157941
-0.0157938
-0.0157935
-0.0157932
-0.0157929
-0.0157926
-0.0157923
-0.015792
-0.0157917
-0.0157914
-0.0157911
-0.0157908
-0.0157905
-0.0157902
-0.0157899
-0.0157896
-0.0157893
-0.015789
-0.0157887
-0.0157884
-0.0157881
-0.0157878
-0.0157875
-0.0157872
-0.0157869
-0.0157866
-0.0157863
-0.015786
-0.0157857
-0.0157854
-0.0157851
-0.0157848
-0.0157845
-0.0157842
-0.0157839
-0.0157836
-0.0157833
-0.015783
-0.0157827
-0.0157824
-0.0157821
-0.0157818
-0.0157815
-0.0157812
-0.0157809
-0.0157806
-0.0157803
-0.01578
-0.0157797
-0.0157794
-0.0157791
-0.0157788
-0.0157785
-0.0157782
-0.0157779
-0.0157776
-0.0157773
-0.015777
-0.0157767
-0.0157764
-0.0157761
-0.0157758
-0.0157755
-0.0157752
-0.0157749
-0.0157746
-0.0157743
-0.015774
-0.0157737
-0.0157733
-0.015773
-0.0157727
-0.0157724
-0.0157721
-0.0157718
-0.0157715
-0.0157712
-0.0157709
-0.0157706
-0.0157703
-0.01577
-0.0157697
-0.0157694
-0.0157691
-0.0157688
-0.0157685
-0.0157682
-0.0157679
-0.0157676
-0.0157673
-0.015767
-0.0157667
-0.0157664
-0.0157661
-0.0157658
-0.0157655
-0.0157652
-0.0157649
-0.0157646
-0.0157643
-0.015764
-0.0157637
-0.0157634
-0.0157631
-0.0157628
-0.0157625
-0.0157622
-0.0157619
-0.0157616
-0.0157613
-0.015761
-0.0157607
-0.0157604
-0.0157601
-0.0157598
-0.0157595
-0.0157592
-0.0157589
-0.0157586
-0.0157583
-0.015758
-0.0157577
-0.0157574
-0.0157571
-0.0157568
-0.0157565
-0.0157562
-0.0157559
-0.0157556
-0.0157553
-0.015755
-0.0157547
-0.0157544
-0.0157541
-0.0157538
-0.0157535
-0.0157532
-0.0157529
-0.0157526
-0.0157523
-0.015752
-0.0157516
-0.0157513
-0.015751
-0.0157507
-0.0157504
-0.0157501
-0.0157498
-0.0157495
-0.0157492
-0.0157489
-0.0157486
-0.0157483
-0.015748
-0.0157477
-0.0157474
-0.0157471
-0.0157468
-0.0157465
-0.0157462
-0.0157459
-0.0157456
-0.0157453
-0.015745
-0.0157447
-0.0157444
-0.0157441
-0.0157438
-0.0157435
-0.0157432
-0.0157429
-0.0157426
-0.0157423
-0.015742
-0.0157417
-0.0157414
-0.0157411
-0.0157408
-0.0157405
-0.0157402
-0.0157399
-0.0157396
-0.0157393
-0.015739
-0.0157387
-0.0157384
-0.0157381
-0.0157378
-0.0157375
-0.0157372
-0.0157369
-0.0157366
-0.0157363
-0.015736
-0.0157357
-0.0157354
-0.0157351
-0.0157348
-0.0157345
-0.0157342
-0.0157339
-0.0157336
-0.0157333
-0.015733
-0.0157327
-0.0157324
-0.0157321
-0.0157318
-0.0157315
-0.0157312
-0.0157309
-0.0157306
-0.0157303
-0.0157299
-0.0157296
-0.0157293
-0.015729
-0.0157287
-0.0157284
-0.0157281
-0.0157278
-0.0157275
-0.0157272
-0.0157269
-0.0157266
-0.0157263
-0.015726
-0.0157257
-0.0157254
-0.0157251
-0.0157248
-0.0157245
-0.0157242
-0.0157239
-0.0157236
-0.0157233
-0.015723
-0.0157227
-0.0157224
-0.0157221
-0.0157218
-0.0157215
-0.0157212
-0.0157209
-0.0157206
-0.0157203
-0.01572
-0.0157197
-0.0157194
-0.0157191
-0.0157188
-0.0157185
-0.0157182
-0.0157179
-0.0157176
-0.0157173
-0.015717
-0.0157167
-0.0157164
-0.0157161
-0.0157158
-0.0157155
-0.0157152
-0.0157149
-0.0157146
-0.0157143
-0.015714
-0.0157137
-0.0157134
-0.0157131
-0.0157128
-0.0157125
-0.0157122
-0.0157119
-0.0157116
-0.0157113
-0.015711
-0.0157107
-0.0157104
-0.0157101
-0.0157098
-0.0157095
-0.0157092
-0.0157088
-0.0157085
-0.0157082
-0.0157079
-0.0157076
-0.0157073
-0.015707
-0.0157067
-0.0157064
-0.0157061
-0.0157058
-0.0157055
-0.0157052
-0.0157049
-0.0157046
-0.0157043
-0.015704
-0.0157037
-0.0157034
-0.0157031
-0.0157028
-0.0157025
-0.0157022
-0.0157019
-0.0157016
-0.0157013
-0.015701
-0.0157007
-0.0157004
-0.0157001
-0.0156998
-0.0156995
-0.0156992
-0.0156989
-0.0156986
-0.0156983
-0.015698
-0.0156977
-0.0156974
-0.0156971
-0.0156968
-0.0156965
-0.0156962
-0.0156959
-0.0156956
-0.0156953
-0.015695
-0.0156947
-0.0156944
-0.0156941
-0.0156938
-0.0156935
-0.0156932
-0.0156929
-0.0156926
-0.0156923
-0.015692
-0.0156917
-0.0156914
-0.0156911
-0.0156908
-0.0156905
-0.0156902
-0.0156899
-0.0156896
-0.0156893
-0.0156889
-0.0156886
-0.0156883
-0.015688
-0.0156877
-0.0156874
-0.0156871
-0.0156868
-0.0156865
-0.0156862
-0.0156859
-0.0156855
-0.0156852
-0.0156849
-0.0156845
-0.0156842
-0.0156838
-0.0156834
-0.015683
-0.0156826
-0.0156821
-0.0156816
-0.0156811
-0.0156804
-0.0156797
-0.0156786
-0.0156782
-0.0156782
-0.0156782
1
0.483357
0.183962
0.108845
0.0810322
0.0668327
0.0581171
0.0521515
0.0477762
0.0444132
0.0417398
0.03956
0.0377467
0.0362137
0.0348998
0.0337607
0.0327629
0.0318811
0.0310955
0.0303903
0.0297533
0.0291743
0.0286451
0.0281589
0.0277103
0.0272945
0.0269076
0.0265464
0.026208
0.02589
0.0255904
0.0253075
0.0250396
0.0247854
0.0245438
0.0243138
0.0240943
0.0238847
0.0236841
0.023492
0.0233078
0.0231308
0.0229608
0.0227971
0.0226395
0.0224876
0.0223411
0.0221995
0.0220628
0.0219306
0.0218026
0.0216788
0.0215587
0.0214424
0.0213295
0.02122
0.0211136
0.0210103
0.0209098
0.0208121
0.0207171
0.0206246
0.0205345
0.0204468
0.0203613
0.0202779
0.0201966
0.0201173
0.0200399
0.0199643
0.0198905
0.0198184
0.0197479
0.019679
0.0196116
0.0195458
0.0194813
0.0194182
0.0193565
0.019296
0.0192368
0.0191788
0.0191219
0.0190662
0.0190116
0.018958
0.0189055
0.018854
0.0188034
0.0187538
0.0187051
0.0186573
0.0186104
0.0185643
0.018519
0.0184745
0.0184308
0.0183878
0.0183456
0.0183041
0.0182633
0.0182231
0.0181836
0.0181448
0.0181066
0.018069
0.018032
0.0179956
0.0179598
0.0179245
0.0178898
0.0178555
0.0178219
0.0177887
0.017756
0.0177238
0.0176921
0.0176608
0.01763
0.0175996
0.0175697
0.0175402
0.0175111
0.0174824
0.0174541
0.0174262
0.0173987
0.0173716
0.0173448
0.0173184
0.0172924
0.0172667
0.0172413
0.0172163
0.0171916
0.0171673
0.0171432
0.0171195
0.017096
0.0170729
0.01705
0.0170275
0.0170052
0.0169832
0.0169615
0.0169401
0.0169189
0.016898
0.0168773
0.0168569
0.0168367
0.0168168
0.0167972
0.0167777
0.0167586
0.0167396
0.0167209
0.0167024
0.0166841
0.0166661
0.0166482
0.0166306
0.0166132
0.0165961
0.0165791
0.0165624
0.0165459
0.0165296
0.0165135
0.0164976
0.0164819
0.0164665
0.0164513
0.0164362
0.0164215
0.0164069
0.0163925
0.0163784
0.0163645
0.0163508
0.0163373
0.0163241
0.016311
0.0162982
0.0162857
0.0162733
0.0162612
0.0162493
0.0162377
0.0162262
0.016215
0.016204
0.0161932
0.0161827
0.0161723
0.0161622
0.0161523
0.0161426
0.0161332
0.0161239
0.0161148
0.016106
0.0160973
0.0160889
0.0160806
0.0160726
0.0160647
0.016057
0.0160495
0.0160422
0.0160351
0.0160282
0.0160214
0.0160148
0.0160084
0.0160021
0.0159961
0.0159901
0.0159844
0.0159788
0.0159733
0.015968
0.0159629
0.0159579
0.015953
0.0159483
0.0159438
0.0159393
0.015935
0.0159309
0.0159268
0.0159229
0.0159191
0.0159155
0.0159119
0.0159085
0.0159052
0.015902
0.0158989
0.0158959
0.015893
0.0158902
0.0158875
0.0158849
0.0158825
0.0158801
0.0158777
0.0158755
0.0158734
0.0158713
0.0158693
0.0158674
0.0158656
0.0158639
0.0158622
0.0158606
0.015859
0.0158576
0.0158562
0.0158548
0.0158535
0.0158523
0.0158511
0.01585
0.0158489
0.0158479
0.0158469
0.015846
0.0158451
0.0158443
0.0158435
0.0158427
0.015842
0.0158413
0.0158407
0.0158401
0.0158395
0.015839
0.0158385
0.015838
0.0158376
0.0158371
0.0158367
0.0158363
0.015836
0.0158356
0.0158353
0.0158349
0.0158346
0.0158343
0.015834
0.0158336
0.0158333
0.015833
0.0158327
0.0158324
0.0158321
0.0158318
0.0158315
0.0158312
0.0158309
0.0158306
0.0158303
0.01583
0.0158297
0.0158294
0.0158291
0.0158288
0.0158285
0.0158282
0.0158279
0.0158276
0.0158273
0.015827
0.0158267
0.0158264
0.0158261
0.0158258
0.0158255
0.0158252
0.0158249
0.0158246
0.0158243
0.015824
0.0158237
0.0158234
0.0158231
0.0158228
0.0158225
0.0158222
0.0158219
0.0158216
0.0158213
0.015821
0.0158207
0.0158204
0.0158201
0.0158198
0.0158195
0.0158192
0.0158189
0.0158186
0.0158183
0.015818
0.0158176
0.0158173
0.015817
0.0158167
0.0158164
0.0158161
0.0158158
0.0158155
0.0158152
0.0158149
0.0158146
0.0158143
0.015814
0.0158137
0.0158134
0.0158131
0.0158128
0.0158125
0.0158122
0.0158119
0.0158116
0.0158113
0.015811
0.0158107
0.0158104
0.0158101
0.0158098
0.0158095
0.0158092
0.0158089
0.0158086
0.0158083
0.015808
0.0158077
0.0158074
0.0158071
0.0158068
0.0158065
0.0158062
0.0158059
0.0158056
0.0158053
0.015805
0.0158047
0.0158044
0.0158041
0.0158038
0.0158035
0.0158032
0.0158029
0.0158026
0.0158023
0.015802
0.0158017
0.0158014
0.0158011
0.0158008
0.0158005
0.0158002
0.0157999
0.0157996
0.0157993
0.015799
0.0157987
0.0157984
0.0157981
0.0157978
0.0157975
0.0157972
0.0157969
0.0157966
0.0157963
0.015796
0.0157957
0.0157953
0.015795
0.0157947
0.0157944
0.0157941
0.0157938
0.0157935
0.0157932
0.0157929
0.0157926
0.0157923
0.015792
0.0157917
0.0157914
0.0157911
0.0157908
0.0157905
0.0157902
0.0157899
0.0157896
0.0157893
0.015789
0.0157887
0.0157884
0.0157881
0.0157878
0.0157875
0.0157872
0.0157869
0.0157866
0.0157863
0.015786
0.0157857
0.0157854
0.0157851
0.0157848
0.0157845
0.0157842
0.0157839
0.0157836
0.0157833
0.015783
0.0157827
0.0157824
0.0157821
0.0157818
0.0157815
0.0157812
0.0157809
0.0157806
0.0157803
0.01578
0.0157797
0.0157794
0.0157791
0.0157788
0.0157785
0.0157782
0.0157779
0.0157776
0.0157773
0.015777
0.0157767
0.0157764
0.0157761
0.0157758
0.0157755
0.0157752
0.0157749
0.0157746
0.0157743
0.015774
0.0157737
0.0157733
0.015773
0.0157727
0.0157724
0.0157721
0.0157718
0.0157715
0.0157712
0.0157709
0.0157706
0.0157703
0.01577
0.0157697
0.0157694
0.0157691
0.0157688
0.0157685
0.0157682
0.0157679
0.0157676
0.0157673
0.015767
0.0157667
0.0157664
0.0157661
0.0157658
0.0157655
0.0157652
0.0157649
0.0157646
0.0157643
0.015764
0.0157637
0.0157634
0.0157631
0.0157628
0.0157625
0.0157622
0.0157619
0.0157616
0.0157613
0.015761
0.0157607
0.0157604
0.0157601
0.0157598
0.0157595
0.0157592
0.0157589
0.0157586
0.0157583
0.015758
0.0157577
0.0157574
0.0157571
0.0157568
0.0157565
0.0157562
0.0157559
0.0157556
0.0157553
0.015755
0.0157547
0.0157544
0.0157541
0.0157538
0.0157535
0.0157532
0.0157529
0.0157526
0.0157523
0.015752
0.0157516
0.0157513
0.015751
0.0157507
0.0157504
0.0157501
0.0157498
0.0157495
0.0157492
0.0157489
0.0157486
0.0157483
0.015748
0.0157477
0.0157474
0.0157471
0.0157468
0.0157465
0.0157462
0.0157459
0.0157456
0.0157453
0.015745
0.0157447
0.0157444
0.0157441
0.0157438
0.0157435
0.0157432
0.0157429
0.0157426
0.0157423
0.015742
0.0157417
0.0157414
0.0157411
0.0157408
0.0157405
0.0157402
0.0157399
0.0157396
0.0157393
0.015739
0.0157387
0.0157384
0.0157381
0.0157378
0.0157375
0.0157372
0.0157369
0.0157366
0.0157363
0.015736
0.0157357
0.0157354
0.0157351
0.0157348
0.0157345
0.0157342
0.0157339
0.0157336
0.0157333
0.015733
0.0157327
0.0157324
0.0157321
0.0157318
0.0157315
0.0157312
0.0157309
0.0157306
0.0157303
0.0157299
0.0157296
0.0157293
0.015729
0.0157287
0.0157284
0.0157281
0.0157278
0.0157275
0.0157272
0.0157269
0.0157266
0.0157263
0.015726
0.0157257
0.0157254
0.0157251
0.0157248
0.0157245
0.0157242
0.0157239
0.0157236
0.0157233
0.015723
0.0157227
0.0157224
0.0157221
0.0157218
0.0157215
0.0157212
0.0157209
0.0157206
0.0157203
0.01572
0.0157197
0.0157194
0.0157191
0.0157188
0.0157185
0.0157182
0.0157179
0.0157176
0.0157173
0.015717
0.0157167
0.0157164
0.0157161
0.0157158
0.0157155
0.0157152
0.0157149
0.0157146
0.0157143
0.015714
0.0157137
0.0157134
0.0157131
0.0157128
0.0157125
0.0157122
0.0157119
0.0157116
0.0157113
0.015711
0.0157107
0.0157104
0.0157101
0.0157098
0.0157095
0.0157092
0.0157088
0.0157085
0.0157082
0.0157079
0.0157076
0.0157073
0.015707
0.0157067
0.0157064
0.0157061
0.0157058
0.0157055
0.0157052
0.0157049
0.0157046
0.0157043
0.015704
0.0157037
0.0157034
0.0157031
0.0157028
0.0157025
0.0157022
0.0157019
0.0157016
0.0157013
0.015701
0.0157007
0.0157004
0.0157001
0.0156998
0.0156995
0.0156992
0.0156989
0.0156986
0.0156983
0.015698
0.0156977
0.0156974
0.0156971
0.0156968
0.0156965
0.0156962
0.0156959
0.0156956
0.0156953
0.015695
0.0156947
0.0156944
0.0156941
0.0156938
0.0156935
0.0156932
0.0156929
0.0156926
0.0156923
0.015692
0.0156917
0.0156914
0.0156911
0.0156908
0.0156905
0.0156902
0.0156899
0.0156896
0.0156893
0.0156889
0.0156886
0.0156883
0.015688
0.0156877
0.0156874
0.0156871
0.0156868
0.0156865
0.0156862
0.0156859
0.0156855
0.0156852
0.0156849
0.0156845
0.0156842
0.0156838
0.0156834
0.015683
0.0156826
0.0156821
0.0156816
0.0156811
0.0156804
0.0156797
0.0156786
0.0156782
0.0156782
0.0156782
1
0.96919
0.495615
0.314221
0.237895
0.197393
0.17213
0.154693
0.141839
0.131925
0.124024
0.117569
0.112192
0.107641
0.103737
0.10035
0.0973815
0.0947569
0.0924179
0.0903184
0.0884216
0.0866975
0.0851219
0.0836748
0.0823396
0.0811023
0.0799515
0.0788772
0.0778711
0.076926
0.0760358
0.0751952
0.0743997
0.0736451
0.072928
0.0722452
0.0715942
0.0709723
0.0703776
0.0698079
0.0692617
0.0687373
0.0682333
0.0677484
0.0672815
0.0668315
0.0663974
0.0659782
0.0655733
0.0651818
0.064803
0.0644362
0.0640809
0.0637365
0.0634025
0.0630783
0.0627635
0.0624577
0.0621605
0.0618714
0.0615903
0.0613166
0.0610501
0.0607906
0.0605376
0.060291
0.0600505
0.0598159
0.0595869
0.0593634
0.0591451
0.0589318
0.0587234
0.0585197
0.0583205
0.0581257
0.0579351
0.0577486
0.057566
0.0573872
0.0572121
0.0570406
0.0568726
0.0567079
0.0565464
0.0563881
0.0562328
0.0560805
0.0559311
0.0557845
0.0556406
0.0554993
0.0553605
0.0552243
0.0550905
0.054959
0.0548298
0.0547029
0.0545781
0.0544554
0.0543348
0.0542162
0.0540996
0.0539848
0.0538719
0.0537609
0.0536516
0.053544
0.0534381
0.0533339
0.0532313
0.0531302
0.0530307
0.0529327
0.0528361
0.052741
0.0526473
0.052555
0.052464
0.0523743
0.0522859
0.0521987
0.0521128
0.0520281
0.0519446
0.0518622
0.051781
0.0517009
0.0516218
0.0515439
0.0514669
0.0513911
0.0513162
0.0512423
0.0511694
0.0510974
0.0510264
0.0509563
0.0508871
0.0508188
0.0507514
0.0506848
0.050619
0.0505541
0.05049
0.0504267
0.0503642
0.0503025
0.0502415
0.0501813
0.0501219
0.0500631
0.0500051
0.0499478
0.0498912
0.0498353
0.0497801
0.0497256
0.0496717
0.0496185
0.049566
0.0495141
0.0494629
0.0494123
0.0493624
0.0493131
0.0492645
0.0492165
0.0491691
0.0491224
0.0490764
0.049031
0.0489862
0.0489421
0.0488986
0.0488558
0.0488137
0.0487722
0.0487313
0.0486912
0.0486517
0.0486129
0.0485747
0.0485373
0.0485004
0.0484643
0.0484289
0.0483941
0.04836
0.0483265
0.0482937
0.0482616
0.0482302
0.0481993
0.0481692
0.0481397
0.0481108
0.0480825
0.0480549
0.0480279
0.0480015
0.0479757
0.0479505
0.0479259
0.0479019
0.0478785
0.0478556
0.0478333
0.0478115
0.0477903
0.0477696
0.0477494
0.0477298
0.0477106
0.047692
0.0476738
0.0476562
0.047639
0.0476223
0.0476061
0.0475903
0.047575
0.0475601
0.0475456
0.0475316
0.0475179
0.0475047
0.0474919
0.0474795
0.0474674
0.0474558
0.0474445
0.0474336
0.047423
0.0474128
0.0474029
0.0473933
0.0473841
0.0473752
0.0473665
0.0473582
0.0473502
0.0473425
0.0473351
0.0473279
0.047321
0.0473144
0.047308
0.0473018
0.0472959
0.0472902
0.0472848
0.0472796
0.0472746
0.0472698
0.0472652
0.0472608
0.0472565
0.0472525
0.0472486
0.047245
0.0472414
0.0472381
0.0472349
0.0472318
0.0472289
0.0472261
0.0472235
0.047221
0.0472186
0.0472163
0.0472142
0.0472121
0.0472102
0.0472084
0.0472067
0.0472051
0.0472036
0.0472021
0.0472008
0.0471995
0.0471982
0.047197
0.0471959
0.0471948
0.0471938
0.0471928
0.0471918
0.0471908
0.0471898
0.0471889
0.047188
0.0471871
0.0471861
0.0471852
0.0471843
0.0471834
0.0471825
0.0471816
0.0471807
0.0471798
0.0471789
0.047178
0.0471771
0.0471762
0.0471753
0.0471744
0.0471735
0.0471726
0.0471717
0.0471708
0.0471699
0.047169
0.0471681
0.0471672
0.0471663
0.0471654
0.0471645
0.0471636
0.0471627
0.0471618
0.0471609
0.04716
0.0471591
0.0471582
0.0471573
0.0471564
0.0471555
0.0471546
0.0471537
0.0471528
0.0471519
0.047151
0.0471501
0.0471492
0.0471483
0.0471474
0.0471465
0.0471456
0.0471447
0.0471438