# vtk DataFile Version 2.0
FlowField
ASCII
DATASET STRUCTURED_GRID
DIMENSIONS 800 1 200
POINTS 160000 float
0 0 0
0.04 0 0
0.08 0 0
0.12 0 0
0.16 0 0
0.2 0 0
0.24 0 0
0.28 0 0
0.32 0 0
0.36 0 0
0.4 0 0
0.44 0 0
0.48 0 0
0.52 0 0
0.56 0 0
0.6 0 0
0.64 0 0
0.68 0 0
0.72 0 0
0.76 0 0
0.8 0 0
0.84 0 0
0.88 0 0
0.92 0 0
0.96 0 0
1 0 0
1.04 0 0
1.08 0 0
1.12 0 0
1.16 0 0
1.2 0 0
1.24 0 0
1.28 0 0
1.32 0 0
1.36 0 0
1.4 0 0
1.44 0 0
1.48 0 0
1.52 0 0
1.56 0 0
1.6 0 0
1.64 0 0
1.68 0 0
1.72 0 0
1.76 0 0
1.8 0 0
1.84 0 0
1.88 0 0
1.92 0 0
1.96 0 0
2 0 0
2.04 0 0
2.08 0 0
2.12 0 0
2.16 0 0
2.2 0 0
2.24 0 0
2.28 0 0
2.32 0 0
2.36 0 0
2.4 0 0
2.44 0 0
2.48 0 0
2.52 0 0
2.56 0 0
2.6 0 0
2.64 0 0
2.68 0 0
2.72 0 0
2.76 0 0
2.8 0 0
2.84 0 0
2.88 0 0
2.92 0 0
2.96 0 0
3 0 0
3.04 0 0
3.08 0 0
3.12 0 0
3.16 0 0
3.2 0 0
3.24 0 0
3.28 0 0
3.32 0 0
3.36 0 0
3.4 0 0
3.44 0 0
3.48 0 0
3.52 0 0
3.56 0 0
3.6 0 0
3.64 0 0
3.68 0 0
3.72 0 0
3.76 0 0
3.8 0 0
3.84 0 0
3.88 0 0
3.92 0 0
3.96 0 0
4 0 0
4.04 0 0
4.08 0 0
4.12 0 0
4.16 0 0
4.2 0 0
4.24 0 0
4.28 0 0
4.32 0 0
4.36 0 0
4.4 0 0
4.44 0 0
4.48 0 0
4.52 0 0
4.56 0 0
4.6 0 0
4.64 0 0
4.68 0 0
4.72 0 0
4.76 0 0
4.8 0 0
4.84 0 0
4.88 0 0
4.92 0 0
4.96 0 0
5 0 0
5.04 0 0
5.08 0 0
5.12 0 0
5.16 0 0
5.2 0 0
5.24 0 0
5.28 0 0
5.32 0 0
5.36 0 0
5.4 0 0
5.44 0 0
5.48 0 0
5.52 0 0
5.56 0 0
5.6 0 0
5.64 0 0
5.68 0 0
5.72 0 0
5.76 0 0
5.8 0 0
5.84 0 0
5.88 0 0
5.92 0 0
5.96 0 0
6 0 0
6.04 0 0
6.08 0 0
6.12 0 0
6.16 0 0
6.2 0 0
6.24 0 0
6.28 0 0
6.32 0 0
6.36 0 0
6.4 0 0
6.44 0 0
6.48 0 0
6.52 0 0
6.56 0 0
6.6 0 0
6.64 0 0
6.68 0 0
6.72 0 0
6.76 0 0
6.8 0 0
6.84 0 0
6.88 0 0
6.92 0 0
6.96 0 0
7 0 0
7.04 0 0
7.08 0 0
7.12 0 0
7.16 0 0
7.2 0 0
7.24 0 0
7.28 0 0
7.32 0 0
7.36 0 0
7.4 0 0
7.44 0 0
7.48 0 0
7.52 0 0
7.56 0 0
7.6 0 0
7.64 0 0
7.68 0 0
7.72 0 0
7.76 0 0
7.8 0 0
7.84 0 0
7.88 0 0
7.92 0 0
7.96 0 0
8 0 0
8.04 0 0
8.08 0 0
8.12 0 0
8.16 0 0
8.2 0 0
8.24 0 0
8.28 0 0
8.32 0 0
8.36 0 0
8.4 0 0
8.44 0 0
8.48 0 0
8.52 0 0
8.56 0 0
8.6 0 0
8.64 0 0
8.68 0 0
8.72 0 0
8.76 0 0
8.8 0 0
8.84 0 0
8.88 0 0
8.92 0 0
8.96 0 0
9 0 0
9.04 0 0
9.08 0 0
9.12 0 0
9.16 0 0
9.2 0 0
9.24 0 0
9.28 0 0
9.32 0 0
9.36 0 0
9.4 0 0
9.44 0 0
9.48 0 0
9.52 0 0
9.56 0 0
9.6 0 0
9.64 0 0
9.68 0 0
9.72 0 0
9.76 0 0
9.8 0 0
9.84 0 0
9.88 0 0
9.92 0 0
9.96 0 0
10 0 0
10.04 0 0
10.08 0 0
10.12 0 0
10.16 0 0
10.2 0 0
10.24 0 0
10.28 0 0
10.32 0 0
10.36 0 0
10.4 0 0
10.44 0 0
10.48 0 0
10.52 0 0
10.56 0 0
10.6 0 0
10.64 0 0
10.68 0 0
10.72 0 0
10.76 0 0
10.8 0 0
10.84 0 0
10.88 0 0
10.92 0 0
10.96 0 0
11 0 0
11.04 0 0
11.08 0 0
11.12 0 0
11.16 0 0
11.2 0 0
11.24 0 0
11.28 0 0
11.32 0 0
11.36 0 0
11.4 0 0
11.44 0 0
11.48 0 0
11.52 0 0
11.56 0 0
11.6 0 0
11.64 0 0
11.68 0 0
11.72 0 0
11.76 0 0
11.8 0 0
11.84 0 0
11.88 0 0
11.92 0 0
11.96 0 0
12 0 0
12.04 0 0
12.08 0 0
12.12 0 0
12.16 0 0
12.2 0 0
12.24 0 0
12.28 0 0
12.32 0 0
12.36 0 0
12.4 0 0
12.44 0 0
12.48 0 0
12.52 0 0
12.56 0 0
12.6 0 0
12.64 0 0
12.68 0 0
12.72 0 0
12.76 0 0
12.8 0 0
12.84 0 0
12.88 0 0
12.92 0 0
12.96 0 0
13 0 0
13.04 0 0
13.08 0 0
13.12 0 0
13.16 0 0
13.2 0 0
13.24 0 0
13.28 0 0
13.32 0 0
13.36 0 0
13.4 0 0
13.44 0 0
13.48 0 0
13.52 0 0
13.56 0 0
13.6 0 0
13.64 0 0
13.68 0 0
13.72 0 0
13.76 0 0
13.8 0 0
13.84 0 0
13.88 0 0
13.92 0 0
13.96 0 0
14 0 0
14.04 0 0
14.08 0 0
14.12 0 0
14.16 0 0
14.2 0 0
14.24 0 0
14.28 0 0
14.32 0 0
14.36 0 0
14.4 0 0
14.44 0 0
14.48 0 0
14.52 0 0
14.56 0 0
14.6 0 0
14.64 0 0
14.68 0 0
14.72 0 0
14.76 0 0
14.8 0 0
14.84 0 0
14.88 0 0
14.92 0 0
14.96 0 0
15 0 0
15.04 0 0
15.08 0 0
15.12 0 0
15.16 0 0
15.2 0 0
15.24 0 0
15.28 0 0
15.32 0 0
15.36 0 0
15.4 0 0
15.44 0 0
15.48 0 0
15.52 0 0
15.56 0 0
15.6 0 0
15.64 0 0
15.68 0 0
15.72 0 0
15.76 0 0
15.8 0 0
15.84 0 0
15.88 0 0
15.92 0 0
15.96 0 0
16 0 0
16.04 0 0
16.08 0 0
16.12 0 0
16.16 0 0
16.2 0 0
16.24 0 0
16.28 0 0
16.32 0 0
16.36 0 0
16.4 0 0
16.44 0 0
16.48 0 0
16.52 0 0
16.56 0 0
16.6 0 0
16.64 0 0
16.68 0 0
16.72 0 0
16.76 0 0
16.8 0 0
16.84 0 0
16.88 0 0
16.92 0 0
16.96 0 0
17 0 0
17.04 0 0
17.08 0 0
17.12 0 0
17.16 0 0
17.2 0 0
17.24 0 0
17.28 0 0
17.32 0 0
17.36 0 0
17.4 0 0
17.44 0 0
17.48 0 0
17.52 0 0
17.56 0 0
17.6 0 0
17.64 0 0
17.68 0 0
17.72 0 0
17.76 0 0
17.8 0 0
17.84 0 0
17.88 0 0
17.92 0 0
17.96 0 0
18 0 0
18.04 0 0
18.08 0 0
18.12 0 0
18.16 0 0
18.2 0 0
18.24 0 0
18.28 0 0
18.32 0 0
18.36 0 0
18.4 0 0
18.44 0 0
18.48 0 0
18.52 0 0
18.56 0 0
18.6 0 0
18.64 0 0
18.68 0 0
18.72 0 0
18.76 0 0
18.8 0 0
18.84 0 0
18.88 0 0
18.92 0 0
18.96 0 0
19 0 0
19.04 0 0
19.08 0 0
19.12 0 0
19.16 0 0
19.2 0 0
19.24 0 0
19.28 0 0
19.32 0 0
19.36 0 0
19.4 0 0
19.44 0 0
19.48 0 0
19.52 0 0
19.56 0 0
19.6 0 0
19.64 0 0
19.68 0 0
19.72 0 0
19.76 0 0
19.8 0 0
19.84 0 0
19.88 0 0
19.92 0 0
19.96 0 0
20 0 0
20.04 0 0
20.08 0 0
20.12 0 0
20.16 0 0
20.2 0 0
20.24 0 0
20.28 0 0
20.32 0 0
20.36 0 0
20.4 0 0
20.44 0 0
20.48 0 0
20.52 0 0
20.56 0 0
20.6 0 0
20.64 0 0
20.68 0 0
20.72 0 0
20.76 0 0
20.8 0 0
20.84 0 0
20.88 0 0
20.92 0 0
20.96 0 0
21 0 0
21.04 0 0
21.08 0 0
21.12 0 0
21.16 0 0
21.2 0 0
21.24 0 0
21.28 0 0
21.32 0 0
21.36 0 0
21.4 0 0
21.44 0 0
21.48 0 0
21.52 0 0
21.56 0 0
21.6 0 0
21.64 0 0
21.68 0 0
21.72 0 0
21.76 0 0
21.8 0 0
21.84 0 0
21.88 0 0
21.92 0 0
21.96 0 0
22 0 0
22.04 0 0
22.08 0 0
22.12 0 0
22.16 0 0
22.2 0 0
22.24 0 0
22.28 0 0
22.32 0 0
22.36 0 0
22.4 0 0
22.44 0 0
22.48 0 0
22.52 0 0
22.56 0 0
22.6 0 0
22.64 0 0
22.68 0 0
22.72 0 0
22.76 0 0
22.8 0 0
22.84 0 0
22.88 0 0
22.92 0 0
22.96 0 0
23 0 0
23.04 0 0
23.08 0 0
23.12 0 0
23.16 0 0
23.2 0 0
23.24 0 0
23.28 0 0
23.32 0 0
23.36 0 0
23.4 0 0
23.44 0 0
23.48 0 0
23.52 0 0
23.56 0 0
23.6 0 0
23.64 0 0
23.68 0 0
23.72 0 0
23.76 0 0
23.8 0 0
23.84 0 0
23.88 0 0
23.92 0 0
23.96 0 0
24 0 0
24.04 0 0
24.08 0 0
24.12 0 0
24.16 0 0
24.2 0 0
24.24 0 0
24.28 0 0
24.32 0 0
24.36 0 0
24.4 0 0
24.44 0 0
24.48 0 0
24.52 0 0
24.56 0 0
24.6 0 0
24.64 0 0
24.68 0 0
24.72 0 0
24.76 0 0
24.8 0 0
24.84 0 0
24.88 0 0
24.92 0 0
24.96 0 0
25 0 0
25.04 0 0
25.08 0 0
25.12 0 0
25.16 0 0
25.2 0 0
25.24 0 0
25.28 0 0
25.32 0 0
25.36 0 0
25.4 0 0
25.44 0 0
25.48 0 0
25.52 0 0
25.56 0 0
25.6 0 0
25.64 0 0
25.68 0 0
25.72 0 0
25.76 0 0
25.8 0 0
25.84 0 0
25.88 0 0
25.92 0 0
25.96 0 0
26 0 0
26.04 0 0
26.08 0 0
26.12 0 0
26.16 0 0
26.2 0 0
26.24 0 0
26.28 0 0
26.32 0 0
26.36 0 0
26.4 0 0
26.44 0 0
26.48 0 0
26.52 0 0
26.56 0 0
26.6 0 0
26.64 0 0
26.68 0 0
26.72 0 0
26.76 0 0
26.8 0 0
26.84 0 0
26.88 0 0
26.92 0 0
26.96 0 0
27 0 0
27.04 0 0
27.08 0 0
27.12 0 0
27.16 0 0
27.2 0 0
27.24 0 0
27.28 0 0
27.32 0 0
27.36 0 0
27.4 0 0
27.44 0 0
27.48 0 0
27.52 0 0
27.56 0 0
27.6 0 0
27.64 0 0
27.68 0 0
27.72 0 0
27.76 0 0
27.8 0 0
27.84 0 0
27.88 0 0
27.92 0 0
27.96 0 0
28 0 0
28.04 0 0
28.08 0 0
28.12 0 0
28.16 0 0
28.2 0 0
28.24 0 0
28.28 0 0
28.32 0 0
28.36 0 0
28.4 0 0
28.44 0 0
28.48 0 0
28.52 0 0
28.56 0 0
28.6 0 0
28.64 0 0
28.68 0 0
28.72 0 0
28.76 0 0
28.8 0 0
28.84 0 0
28.88 0 0
28.92 0 0
28.96 0 0
29 0 0
29.04 0 0
29.08 0 0
29.12 0 0
29.16 0 0
29.2 0 0
29.24 0 0
29.28 0 0
29.32 0 0
29.36 0 0
29.4 0 0
29.44 0 0
29.48 0 0
29.52 0 0
29.56 0 0
29.6 0 0
29.64 0 0
29.68 0 0
29.72 0 0
29.76 0 0
29.8 0 0
29.84 0 0
29.88 0 0
29.92 0 0
29.96 0 0
30 0 0
30.04 0 0
30.08 0 0
30.12 0 0
30.16 0 0
30.2 0 0
30.24 0 0
30.28 0 0
30.32 0 0
30.36 0 0
30.4 0 0
30.44 0 0
30.48 0 0
30.52 0 0
30.56 0 0
30.6 0 0
30.64 0 0
30.68 0 0
30.72 0 0
30.76 0 0
30.8 0 0
30.84 0 0
30.88 0 0
30.92 0 0
30.96 0 0
31 0 0
31.04 0 0
31.08 0 0
31.12 0 0
31.16 0 0
31.2 0 0
31.24 0 0
31.28 0 0
31.32 0 0
31.36 0 0
31.4 0 0
31.44 0 0
31.48 0 0
31.52 0 0
31.56 0 0
31.6 0 0
31.64 0 0
31.68 0 0
31.72 0 0
31.76 0 0
31.8 0 0
31.84 0 0
31.88 0 0
31.92 0 0
31.96 0 0
0 0.005 0
0.04 0.005 0
0.08 0.005 0
0.12 0.005 0
0.16 0.005 0
0.2 0.005 0
0.24 0.005 0
0.28 0.005 0
0.32 0.005 0
0.36 0.005 0
0.4 0.005 0
0.44 0.005 0
0.48 0.005 0
0.52 0.005 0
0.56 0.005 0
0.6 0.005 0
0.64 0.005 0
0.68 0.005 0
0.72 0.005 0
0.76 0.005 0
0.8 0.005 0
0.84 0.005 0
0.88 0.005 0
0.92 0.005 0
0.96 0.005 0
1 0.005 0
1.04 0.005 0
1.08 0.005 0
1.12 0.005 0
1.16 0.005 0
1.2 0.005 0
1.24 0.005 0
1.28 0.005 0
1.32 0.005 0
1.36 0.005 0
1.4 0.005 0
1.44 0.005 0
1.48 0.005 0
1.52 0.005 0
1.56 0.005 0
1.6 0.005 0
1.64 0.005 0
1.68 0.005 0
1.72 0.005 0
1.76 0.005 0
1.8 0.005 0
1.84 0.005 0
1.88 0.005 0
1.92 0.005 0
1.96 0.005 0
2 0.005 0
2.04 0.005 0
2.08 0.005 0
2.12 0.005 0
2.16 0.005 0
2.2 0.005 0
2.24 0.005 0
2.28 0.005 0
2.32 0.005 0
2.36 0.005 0
2.4 0.005 0
2.44 0.005 0
2.48 0.005 0
2.52 0.005 0
2.56 0.005 0
2.6 0.005 0
2.64 0.005 0
2.68 0.005 0
2.72 0.005 0
2.76 0.005 0
2.8 0.005 0
2.84 0.005 0
2.88 0.005 0
2.92 0.005 0
2.96 0.005 0
3 0.005 0
3.04 0.005 0
3.08 0.005 0
3.12 0.005 0
3.16 0.005 0
3.2 0.005 0
3.24 0.005 0
3.28 0.005 0
3.32 0.005 0
3.36 0.005 0
3.4 0.005 0
3.44 0.005 0
3.48 0.005 0
3.52 0.005 0
3.56 0.005 0
3.6 0.005 0
3.64 0.005 0
3.68 0.005 0
3.72 0.005 0
3.76 0.005 0
3.8 0.005 0
3.84 0.005 0
3.88 0.005 0
3.92 0.005 0
3.96 0.005 0
4 0.005 0
4.04 0.005 0
4.08 0.005 0
4.12 0.005 0
4.16 0.005 0
4.2 0.005 0
4.24 0.005 0
4.28 0.005 0
4.32 0.005 0
4.36 0.005 0
4.4 0.005 0
4.44 0.005 0
4.48 0.005 0
4.52 0.005 0
4.56 0.005 0
4.6 0.005 0
4.64 0.005 0
4.68 0.005 0
4.72 0.005 0
4.76 0.005 0
4.8 0.005 0
4.84 0.005 0
4.88 0.005 0
4.92 0.005 0
4.96 0.005 0
5 0.005 0
5.04 0.005 0
5.08 0.005 0
5.12 0.005 0
5.16 0.005 0
5.2 0.005 0
5.24 0.005 0
5.28 0.005 0
5.32 0.005 0
5.36 0.005 0
5.4 0.005 0
5.44 0.005 0
5.48 0.005 0
5.52 0.005 0
5.56 0.005 0
5.6 0.005 0
5.64 0.005 0
5.68 0.005 0
5.72 0.005 0
5.76 0.005 0
5.8 0.005 0
5.84 0.005 0
5.88 0.005 0
5.92 0.005 0
5.96 0.005 0
6 0.005 0
6.04 0.005 0
6.08 0.005 0
6.12 0.005 0
6.16 0.005 0
6.2 0.005 0
6.24 0.005 0
6.28 0.005 0
6.32 0.005 0
6.36 0.005 0
6.4 0.005 0
6.44 0.005 0
6.48 0.005 0
6.52 0.005 0
6.56 0.005 0
6.6 0.005 0
6.64 0.005 0
6.68 0.005 0
6.72 0.005 0
6.76 0.005 0
6.8 0.005 0
6.84 0.005 0
6.88 0.005 0
6.92 0.005 0
6.96 0.005 0
7 0.005 0
7.04 0.005 0
7.08 0.005 0
7.12 0.005 0
7.16 0.005 0
7.2 0.005 0
7.24 0.005 0
7.28 0.005 0
7.32 0.005 0
7.36 0.005 0
7.4 0.005 0
[...]
POINT_DATA 160000

SCALARS phi float 1
LOOKUP_TABLE default
1
1
1
1
1
1
1
1
1
1
1
1
1
1
1
1
1
1
1
1
1
1
1
1
1
1
1
1
1
1
1
1
1
1
1
0.999999
0.999999
0.999999
0.999999
0.999998
0.999997
0.999997
0.999995
0.999994
0.999992
0.99999
0.999988
0.999985
0.999982
0.999978
0.999973
0.999968
0.999961
0.999954
0.999946
0.999937
0.999926
0.999914
0.999901
0.999886
0.99987
0.999852
0.999832
0.99981
0.999786
0.99976
0.999731
0.9997
0.999667
0.999631
0.999592
0.99955
0.999505
0.999457
0.999406
0.999352
0.999294
0.999232
0.999167
0.999099
0.999026
0.998949
0.998869
0.998784
0.998695
0.998602
0.998504
0.998403
0.998296
0.998185
0.998069
0.997949
0.997824
0.997694
0.997559
0.997419
0.997275
0.997125
0.99697
0.99681
0.996645
0.996475
0.9963
0.996119
0.995933
0.995742
0.995546
0.995344
0.995137
0.994925
0.994707
0.994484
0.994256
0.994022
0.993783
0.993539
0.993289
0.993034
0.992774
0.992509
0.992238
0.991962
0.99168
0.991394
0.991102
0.990805
0.990502
0.990195
0.989883
0.989565
0.989242
0.988915
0.988582
0.988244
0.987901
0.987554
0.987201
0.986844
0.986482
0.986115
0.985743
0.985367
0.984986
0.984601
0.98421
0.983816
0.983416
0.983013
0.982604
0.982192
0.981775
0.981354
0.980928
0.980499
0.980065
0.979627
0.979185
0.978739
0.978289
0.977835
0.977377
0.976915
0.97645
0.975981
0.975508
0.975031
0.97455
0.974067
0.973579
0.973088
0.972594
0.972096
0.971595
0.97109
0.970582
0.970071
0.969557
0.96904
0.968519
0.967996
0.967469
0.96694
0.966407
0.965872
0.965334
0.964793
0.964249
0.963702
0.963153
0.962601
0.962047
0.96149
0.960931
0.960369
0.959804
0.959237
0.958668
0.958097
0.957523
0.956947
0.956369
0.955789
0.955206
0.954622
0.954035
0.953446
0.952856
0.952263
0.951669
0.951072
0.950474
0.949874
0.949272
0.948669
0.948064
0.947457
0.946848
0.946238
0.945626
0.945013
0.944398
0.943782
0.943164
0.942545
0.941924
0.941302
0.940679
0.940054
0.939428
0.938801
0.938172
0.937542
0.936912
0.936279
0.935646
0.935012
0.934376
0.933739
0.933102
0.932463
0.931823
0.931182
0.93054
0.929897
0.929254
0.928609
0.927963
0.927316
0.926668
0.92602
0.92537
0.92472
0.924068
0.923416
0.922763
0.922108
0.921453
0.920797
0.92014
0.919483
0.918824
0.918164
0.917503
0.916842
0.916179
0.915516
0.914851
0.914185
0.913519
0.912851
0.912183
0.911513
0.910842
0.91017
0.909497
0.908823
0.908147
0.90747
0.906792
0.906113
0.905432
0.90475
0.904067
0.903382
0.902696
0.902008
0.901318
0.900627
0.899934
0.89924
0.898544
0.897846
0.897146
0.896444
0.895741
0.895035
0.894327
0.893618
0.892905
0.892191
0.891475
0.890756
0.890035
0.889311
0.888585
0.887856
0.887124
0.88639
0.885653
0.884913
0.88417
0.883425
0.882676
0.881924
0.881169
0.88041
0.879649
0.878884
0.878115
0.877343
0.876567
0.875788
0.875005
0.874218
0.873427
0.872633
0.871834
0.871031
0.870225
0.869414
0.868598
0.867778
0.866954
0.866126
0.865293
0.864455
0.863612
0.862765
0.861913
0.861056
0.860194
0.859328
0.858456
0.857579
0.856697
0.855809
0.854917
0.854019
0.853115
0.852206
0.851292
0.850372
0.849447
0.848515
0.847578
0.846636
0.845687
0.844733
0.843772
0.842806
0.841834
0.840856
0.839871
0.838881
0.837884
0.836882
0.835873
0.834857
0.833836
0.832808
0.831774
0.830733
0.829686
0.828633
0.827573
0.826507
0.825434
0.824355
0.823269
0.822176
0.821077
0.819972
0.818859
0.817741
0.816615
0.815483
0.814344
0.813199
0.812047
0.810888
0.809723
0.80855
0.807372
0.806186
0.804994
0.803795
0.80259
0.801378
0.800159
0.798934
0.797702
0.796463
0.795218
0.793966
0.792708
0.791443
0.790171
0.788893
0.787609
0.786317
0.78502
0.783716
0.782405
0.781088
0.779765
0.778436
0.7771
0.775757
0.774409
0.773054
0.771693
0.770326
0.768953
0.767573
0.766188
0.764796
0.763399
0.761995
0.760585
0.75917
0.757749
0.756322
0.754889
0.75345
0.752006
0.750556
0.7491
0.747639
0.746172
0.7447
0.743223
0.74174
0.740251
0.738758
0.737259
0.735755
0.734246
0.732731
0.731212
0.729688
0.728158
0.726624
0.725085
0.723541
0.721992
0.720439
0.718881
0.717319
0.715752
0.71418
0.712604
0.711024
0.709439
0.70785
0.706257
0.70466
0.703059
0.701453
0.699844
0.698231
0.696614
0.694993
0.693368
0.69174
0.690108
0.688472
0.686833
0.68519
0.683544
0.681895
0.680243
0.678587
0.676928
0.675265
0.6736
0.671932
0.670261
0.668587
0.66691
0.66523
0.663548
0.661862
0.660175
0.658484
0.656792
0.655097
0.653399
0.651699
0.649997
0.648293
0.646586
0.644878
0.643167
0.641454
0.63974
0.638023
0.636305
0.634585
0.632863
0.63114
0.629415
0.627688
0.62596
0.624231
0.6225
0.620768
0.619034
0.6173
0.615564
0.613827
0.612089
0.61035
0.60861
0.606869
0.605127
0.603384
0.601641
0.599897
0.598152
0.596407
0.594661
0.592915
0.591168
0.58942
0.587673
0.585925
0.584176
0.582428
0.580679
0.578931
0.577182
0.575433
0.573684
0.571935
0.570186
0.568438
0.566689
0.564941
0.563193
0.561445
0.559698
0.557951
0.556205
0.554459
0.552714
0.550969
0.549225
0.547481
0.545738
0.543996
0.542255
0.540514
0.538774
0.537035
0.535297
0.533561
0.531825
0.53009
0.528356
0.526623
0.524892
0.523161
0.521432
0.519704
0.517977
0.516252
0.514528
0.512805
0.511084
0.509364
0.507646
0.50593
0.504214
0.502501
0.500789
0.499078
0.49737
0.495663
0.493958
0.492254
0.490552
0.488853
0.487154
0.485458
0.483764
0.482072
0.480381
0.478693
0.477007
0.475322
0.47364
0.47196
0.470282
0.468606
0.466932
0.465261
0.463591
0.461924
0.460259
0.458597
0.456936
0.455278
0.453623
0.451969
0.450319
0.44867
0.447024
0.445381
0.443739
0.442101
0.440465
0.438831
0.4372
0.435571
0.433946
0.432322
0.430702
0.429084
0.427468
0.425855
0.424245
0.422638
0.421033
0.419431
0.417832
0.416236
0.414642
0.413052
0.411464
0.409878
0.408296
0.406717
0.40514
0.403566
0.401995
0.400427
0.398862
0.3973
0.395741
0.394185
0.392632
0.391081
0.389534
0.38799
0.386448
0.38491
0.383375
0.381842
0.380313
0.378787
0.377264
0.375744
0.374227
0.372713
0.371202
0.369695
0.36819
0.366689
0.36519
0.363695
0.362203
0.360714
0.359229
0.357746
0.356267
0.35479
0.353317
0.351847
0.350381
0.348917
0.347457
0.346
0.344546
0.343095
0.341648
0.340204
0.338763
0.337325
0.33589
0.334459
0.333031
0.331606
0.330184
0.328766
0.327351
0.325939
0.32453
0.323125
0.321723
0.320324
0.318929
0.317536
0.316147
0.314762
0.313379
0.312
0.310624
0.309251
0.307882
0.306516
0.305153
0.303793
0.302437
0.301084
0.299734
0.298388
0.297045
0.295705
0.294368
0.293035
0.291704
0.290378
0.289054
0.287734
0.286417
0.285103
0.283793
0.282485
0.281181
0.279881
0.278583
0.277289
0.275998
0.274711
0.273426
0.272145
0.270867
0.269593
0.268321
0.267053
0.265788
0.264526
0.263268
0.262013
0.260761
0.259512
0.258267
0.257024
0.255785
0.254549
0.253317
0.252087
0.250861
0.249638
0.248418
0.247202
0.245988
0.244778
0.243571
0.242367
0.241166
0.239969
0.238775
0.237583
0.236395
0.235211
0.234029
0.23285
0.231675
0.230503
0.229334
0.228168
0.227005
0.225845
0.224689
0.223536
0.222385
0.221238
0.220094
0.218953
0.217815
0.216681
0.215549
0.21442
0.213295
0.212172
0.211053
0.209937
0.208824
0.207714
0.206606
0.205503
0.204401
0.203304
0.202207
0.20112
0.200028
0.198986
0.198023
0.198023
1
1
1
1
1
1
1
1
1
1
1
1
1
1
1
1
1
1
1
1
1
1
1
1
1
1
1
1
1
1
1
1
1
1
1
0.999999
0.999999
0.999999
0.999999
0.999998
0.999997
0.999997
0.999995
0.999994
0.999992
0.99999
0.999988
0.999985
0.999982
0.999978
0.999973
0.999968
0.999961
0.999954
0.999946
0.999937
0.999926
0.999914
0.999901
0.999886
0.99987
0.999852
0.999832
0.99981
0.999786
0.99976
0.999731
0.9997
0.999667
0.999631
0.999592
0.99955
0.999505
0.999457
0.999406
0.999352
0.999294
0.999232
0.999167
0.999099
0.999026
0.998949
0.998869
0.998784
0.998695
0.998602
0.998504
0.998403
0.998296
0.998185
0.998069
0.997949
0.997824
0.997694
0.997559
0.997419
0.997275
0.997125
0.99697
0.99681
0.996645
0.996475
0.9963
0.996119
0.995933
0.995742
0.995546
0.995344
0.995137
0.994925
0.994707
0.994484
0.994256
0.994022
0.993783
0.993539
0.993289
0.993034
0.992774
0.992509
0.992238
0.991962
0.99168
0.991394
0.991102
0.990805
0.990502
0.990195
0.989883
0.989565
0.989242
0.988915
0.988582
0.988244
0.987901
0.987554
0.987201
0.986844
0.986482
0.986115
0.985743
0.985367
0.984986
0.984601
0.98421
0.983816
0.983416
0.983013
0.982604
0.982192
0.981775
0.981354
0.980928
0.980499
0.980065
0.979627
0.979185
0.978739
0.978289
0.977835
0.977377
0.976915
0.97645
0.975981
0.975508
0.975031
0.97455
0.974067
0.973579
0.973088
0.972594
0.972096
0.971595
0.97109
0.970582
0.970071
0.969557
0.96904
0.968519
0.967996
0.967469
0.96694
0.966407
0.965872
0.965334
0.964793
0.964249
0.963702
0.963153
0.962601
0.962047
0.96149
0.960931
0.960369
0.959804
0.959237
0.958668
0.958097
0.957523
0.956947
0.956369
0.955789
0.955206
0.954622
0.954035
0.953446
0.952856
0.952263
0.951669
0.951072
0.950474
0.949874
0.949272
0.948669
0.948064
0.947457
0.946848
0.946238
0.945626
0.945013
0.944398
0.943782
0.943164
0.942545
0.941924
0.941302
0.940679
0.940054
0.939428
0.938801
0.938172
0.937542
0.936912
0.936279
0.935646
0.935012
0.934376
0.933739
0.933102
0.932463
0.931823
0.931182
0.93054
0.929897
0.929254
0.928609
0.927963
0.927316
0.926668
0.92602
0.92537
0.92472
0.924068
0.923416
0.922763
0.922108
0.921453
0.920797
0.92014
0.919483
0.918824
0.918164
0.917503
0.916842
0.916179
0.915516
0.914851
0.914185
0.913519
0.912851
0.912183
0.911513
0.910842
0.91017
0.909497
0.908823
0.908147
0.90747
0.906792
0.906113
0.905432
0.90475
0.904067
0.903382
0.902696
0.902008
0.901318
0.900627
0.899934
0.89924
0.898544
0.897846
0.897146
0.896444
0.895741
0.895035
0.894327
0.893618
0.892905
0.892191
0.891475
0.890756
0.890035
0.889311
0.888585
0.887856
0.887124
0.88639
0.885653
0.884913
0.88417
0.883425
0.882676
0.881924
0.881169
0.88041
0.879649
0.878884
0.878115
0.877343
0.876567
0.875788
0.875005
0.874218
0.873427
0.872633
0.871834
0.871031
0.870225
0.869414
0.868598
0.867778
0.866954
0.866126
0.865293
0.864455
0.863612
0.862765
0.861913
0.861056
0.860194
0.859328
0.858456
0.857579
0.856697
0.855809
0.854917
0.854019
0.853115
0.852206
0.851292
0.850372
0.849447
0.848515
0.847578
0.846636
0.845687
0.844733
0.843772
0.842806
0.841834
0.840856
0.839871
0.838881
0.837884
0.836882
0.835873
0.834857
0.833836
0.832808
0.831774
0.830733
0.829686
0.828633
0.827573
0.826507
0.825434
0.824355
0.823269
0.822176
0.821077
0.819972
0.818859
0.817741
0.816615
0.815483
0.814344
0.813199
0.812047
0.810888
0.809723
0.80855
0.807372
0.806186
0.804994
0.803795
0.80259
0.801378
0.800159
0.798934
0.797702
0.796463
0.795218
0.793966
0.792708
0.791443
0.790171
0.788893
0.787609
0.786317
0.78502
0.783716
0.782405
0.781088
0.779765
0.778436
0.7771
0.775757
0.774409
0.773054
0.771693
0.770326
0.768953
0.767573
0.766188
0.764796
0.763399
0.761995
0.760585
0.75917
0.757749
0.756322
0.754889
0.75345
0.752006
0.750556
0.7491
0.747639
0.746172
0.7447
0.743223
0.74174
0.740251
0.738758
0.737259
0.735755
0.734246
0.732731
0.731212
0.729688
0.728158
0.726624
0.725085
0.723541
0.721992
0.720439
0.718881
0.717319
0.715752
0.71418
0.712604
0.711024
0.709439
0.70785
0.706257
0.70466
0.703059
0.701453
0.699844
0.698231
0.696614
0.694993
0.693368
0.69174
0.690108
0.688472
0.686833
0.68519
0.683544
0.681895
0.680243
0.678587
0.676928
0.675265
0.6736
0.671932
0.670261
0.668587
0.66691
0.66523
0.663548
0.661862
0.660175
0.658484
0.656792
0.655097
0.653399
0.651699
0.649997
0.648293
0.646586
0.644878
0.643167
0.641454
0.63974
0.638023
0.636305
0.634585
0.632863
0.63114
0.629415
0.627688
0.62596
0.624231
0.6225
0.620768
0.619034
0.6173
0.615564
0.613827
0.612089
0.61035
0.60861
0.606869
0.605127
0.603384
0.601641
0.599897
0.598152
0.596407
0.594661
0.592915
0.591168
0.58942
0.587673
0.585925
0.584176
0.582428
0.580679
0.578931
0.577182
0.575433
0.573684
0.571935
0.570186
0.568438
0.566689
0.564941
0.563193
0.561445
0.559698
0.557951
0.556205
0.554459
0.552714
0.550969
0.549225
0.547481
0.545738
0.543996
0.542255
0.540514
0.538774
0.537035
0.535297
0.533561
0.531825
0.53009
0.528356
0.526623
0.524892
0.523161
0.521432
0.519704
0.517977
0.516252
0.514528
0.512805
0.511084
0.509364
0.507646
0.50593
0.504214
0.502501
0.500789
0.499078
0.49737
0.495663
0.493958
0.492254
0.490552
0.488853
0.487154
0.485458
0.483764
0.482072
0.480381
0.478693
0.477007
0.475322
0.47364
0.47196
0.470282
0.468606
0.466932
0.465261
0.463591
0.461924
0.460259
0.458597
0.456936
0.455278
0.453623
0.451969
0.450319
0.44867
0.447024
0.445381
0.443739
0.442101
0.440465
0.438831
0.4372
0.435571
0.433946
0.432322
0.430702
0.429084
0.427468
0.425855
0.424245
0.422638
0.421033
0.419431
0.417832
0.416236
0.414642
0.413052
0.411464
0.409878
0.408296
0.406717
0.40514
0.403566
0.401995
0.400427
0.398862
0.3973
0.395741
0.394185
0.392632
0.391081
0.389534
0.38799
0.386448
0.38491
0.383375
0.381842
0.380313
0.378787
0.377264
0.375744
0.374227
0.372713
0.371202
0.369695
0.36819
0.366689
0.36519
0.363695
0.362203
0.360714
0.359229
0.357746
0.356267
0.35479
0.353317
0.351847
0.350381
0.348917
0.347457
0.346
0.344546
0.343095
0.341648
0.340204
0.338763
0.337325
0.33589
0.334459
0.333031
0.331606
0.330184
0.328766
0.327351
0.325939
0.32453
0.323125
0.321723
0.320324
0.318929
0.317536
0.316147
0.314762
0.313379
0.312
0.310624
0.309251
0.307882
0.306516
0.305153
0.303793
0.302437
0.301084
0.299734
0.298388
0.297045
0.295705
0.294368
0.293035
0.291704
0.290378
0.289054
0.287734
0.286417
0.285103
0.283793
0.282485
0.281181
0.279881
0.278583
0.277289
0.275998
0.274711
0.273426
0.272145
0.270867
0.269593
0.268321
0.267053
0.265788
0.264526
0.263268
0.262013
0.260761
0.259512
0.258267
0.257024
0.255785
0.254549
0.253317
0.252087
0.250861
0.249638
0.248418
0.247202
0.245988
0.244778
0.243571
0.242367
0.241166
0.239969
0.238775
0.237583
0.236395
0.235211
0.234029
0.23285
0.231675
0.230503
0.229334
0.228168
0.227005
0.225845
0.224689
0.223536
0.222385
0.221238
0.220094
0.218953
0.217815
0.216681
0.215549
0.21442
0.213295
0.212172
0.211053
0.209937
0.208824
0.207714
0.206606
0.205503
0.204401
0.203304
0.202207
0.20112
0.200028
0.198986
0.198023
0.198023
1
1
1
1
1
1
1
1
1
1
1
1
1
1
1
1
1
1
1
1
1
1
1
1
1
1
1
1
1
1
1
1
1
1
1
0.999999
0.999999
0.999999
0.999999
0.999998
0.999997
0.999997
0.999995
0.999994
0.999992
0.99999
0.999988
0.999985
0.999982
0.999978
0.999973
0.999968
0.999961
0.999954
0.999946
0.999937
0.999926
0.999914
0.999901
0.999886
0.99987
0.999852
0.999832
0.99981
0.999786
0.99976
0.999731
0.9997
0.999667
0.999631
0.999592
0.99955
0.999505
0.999457
0.999406
0.999352
0.999294
0.999232
0.999167
0.999098
0.999026
0.998949
0.998869
0.998784
0.998695
0.998602
0.998504
0.998402
0.998296
0.998185
0.998069
0.997949
0.997824
0.997694
0.997559
0.997419
0.997274
0.997124
0.99697
0.99681
0.996645
0.996474
0.996299
0.996118
0.995933
0.995742
0.995545
0.995343
0.995136
0.994924
0.994706
0.994483
0.994255
0.994022
0.993783
0.993538
0.993289
0.993034
0.992773
0.992508
0.992237
0.991961
0.991679
0.991393
0.991101
0.990804
0.990501
0.990194
0.989882
0.989564
0.989241
0.988914
0.988581
0.988243
0.9879
0.987553
0.9872
0.986843
0.986481
0.986114
0.985742
0.985366
0.984985
0.984599
0.984209
0.983814
0.983415
0.983011
0.982603
0.982191
0.981774
0.981353
0.980927
0.980497
0.980064
0.979626
0.979184
0.978738
0.978288
0.977834
0.977376
0.976914
0.976448
0.975979
0.975506
0.975029
0.974549
0.974065
0.973578
0.973087
0.972592
0.972094
0.971593
0.971089
0.970581
0.97007
0.969555
0.969038
0.968518
0.967994
0.967467
0.966938
0.966405
0.96587
0.965332
0.964791
0.964247
0.963701
0.963151
0.9626
0.962045
0.961488
0.960929
0.960367
0.959803
0.959236
0.958667
0.958095
0.957521
0.956945
0.956367
0.955787
0.955204
0.95462
0.954033
0.953445
0.952854
0.952261
0.951667
0.951071
0.950472
0.949872
0.949271
0.948667
0.948062
0.947455
0.946846
0.946236
0.945624
0.945011
0.944396
0.94378
0.943162
0.942543
0.941922
0.9413
0.940677
0.940052
0.939426
0.938799
0.93817
0.937541
0.93691
0.936278
0.935644
0.93501
0.934374
0.933738
0.9331
0.932461
0.931821
0.93118
0.930539
0.929896
0.929252
0.928607
0.927961
0.927314
0.926667
0.926018
0.925369
0.924718
0.924067
0.923414
0.922761
0.922107
0.921452
0.920796
0.920139
0.919481
0.918822
0.918163
0.917502
0.91684
0.916178
0.915514
0.91485
0.914184
0.913518
0.91285
0.912182
0.911512
0.910841
0.910169
0.909496
0.908822
0.908147
0.90747
0.906792
0.906113
0.905432
0.90475
0.904067
0.903382
0.902696
0.902008
0.901319
0.900628
0.899935
0.899241
0.898545
0.897847
0.897148
0.896446
0.895743
0.895037
0.89433
0.89362
0.892908
0.892194
0.891478
0.890759
0.890038
0.889315
0.888589
0.88786
0.887129
0.886395
0.885658
0.884919
0.884176
0.883431
0.882682
0.88193
0.881176
0.880418
0.879656
0.878892
0.878123
0.877352
0.876577
0.875798
0.875015
0.874229
0.873438
0.872644
0.871846
0.871044
0.870237
0.869427
0.868612
0.867792
0.866969
0.866141
0.865308
0.864471
0.863629
0.862782
0.861931
0.861075
0.860213
0.859347
0.858476
0.8576
0.856718
0.855831
0.854939
0.854042
0.853139
0.852231
0.851317
0.850398
0.849473
0.848543
0.847606
0.846664
0.845717
0.844763
0.843803
0.842838
0.841866
0.840889
0.839905
0.838916
0.83792
0.836918
0.83591
0.834896
0.833875
0.832848
0.831814
0.830775
0.829729
0.828676
0.827617
0.826552
0.82548
0.824401
0.823316
0.822225
0.821127
0.820022
0.818911
0.817793
0.816668
0.815537
0.814399
0.813255
0.812104
0.810946
0.809781
0.80861
0.807433
0.806248
0.805057
0.803859
0.802655
0.801444
0.800226
0.799002
0.797771
0.796533
0.795289
0.794038
0.792781
0.791517
0.790246
0.788969
0.787686
0.786396
0.785099
0.783796
0.782487
0.781171
0.779849
0.77852
0.777185
0.775844
0.774497
0.773143
0.771783
0.770417
0.769045
0.767666
0.766282
0.764891
0.763495
0.762092
0.760684
0.75927
0.757849
0.756423
0.754992
0.753554
0.752111
0.750662
0.749207
0.747747
0.746282
0.744811
0.743334
0.741852
0.740365
0.738872
0.737374
0.735871
0.734363
0.73285
0.731332
0.729808
0.72828
0.726747
0.725209
0.723666
0.722118
0.720566
0.719009
0.717448
0.715882
0.714311
0.712736
0.711157
0.709573
0.707986
0.706393
0.704797
0.703197
0.701593
0.699984
0.698372
0.696756
0.695136
0.693512
0.691885
0.690254
0.688619
0.686981
0.685339
0.683694
0.682046
0.680394
0.678739
0.677081
0.67542
0.673755
0.672088
0.670418
0.668745
0.667069
0.66539
0.663708
0.662024
0.660337
0.658648
0.656956
0.655262
0.653565
0.651866
0.650164
0.648461
0.646755
0.645047
0.643338
0.641626
0.639912
0.638196
0.636479
0.63476
0.633039
0.631316
0.629592
0.627866
0.626139
0.62441
0.62268
0.620949
0.619216
0.617482
0.615747
0.614011
0.612273
0.610535
0.608796
0.607055
0.605314
0.603572
0.60183
0.600086
0.598342
0.596597
0.594852
0.593106
0.59136
0.589613
0.587866
0.586119
0.584371
0.582623
0.580875
0.579127
0.577379
0.57563
0.573882
0.572134
0.570386
0.568638
0.56689
0.565142
0.563395
0.561648
0.559901
0.558154
0.556409
0.554663
0.552918
0.551174
0.54943
0.547687
0.545945
0.544203
0.542462
0.540722
0.538983
0.537244
0.535507
0.53377
0.532035
0.5303
0.528567
0.526834
0.525103
0.523373
0.521644
0.519917
0.518191
0.516466
0.514742
0.51302
0.511299
0.509579
0.507862
0.506145
0.50443
0.502717
0.501005
0.499295
0.497587
0.49588
0.494175
0.492472
0.490771
0.489071
0.487373
0.485678
0.483984
0.482292
0.480601
0.478913
0.477227
0.475543
0.473861
0.472181
0.470503
0.468828
0.467154
0.465483
0.463813
0.462147
0.460482
0.458819
0.457159
0.455501
0.453846
0.452193
0.450542
0.448894
0.447248
0.445605
0.443964
0.442325
0.440689
0.439056
0.437425
0.435796
0.43417
0.432547
0.430927
0.429309
0.427693
0.426081
0.424471
0.422864
0.421259
0.419657
0.418058
0.416462
0.414868
0.413278
0.41169
0.410104
0.408522
0.406943
0.405366
0.403792
0.402222
0.400654
0.399089
0.397527
0.395967
0.394411
0.392858
0.391308
0.38976
0.388216
0.386675
0.385136
0.383601
0.382069
0.38054
0.379013
0.37749
0.37597
0.374453
0.372939
0.371428
0.369921
0.368416
0.366915
0.365416
0.363921
0.362429
0.36094
0.359454
0.357972
0.356492
0.355016
0.353543
0.352073
0.350606
0.349142
0.347682
0.346225
0.344771
0.34332
0.341872
0.340428
0.338987
0.337549
0.336114
0.334683
0.333254
0.331829
0.330408
0.328989
0.327574
0.326162
0.324753
0.323348
0.321946
0.320547
0.319151
0.317758
0.316369
0.314983
0.313601
0.312221
0.310845
0.309472
0.308103
0.306737
0.305374
0.304014
0.302657
0.301304
0.299954
0.298608
0.297264
0.295924
0.294587
0.293254
0.291923
0.290596
0.289273
0.287952