# vtk DataFile Version 2.0
FlowField
ASCII
DATASET STRUCTURED_GRID
DIMENSIONS 800 1 200
POINTS 160000 float
0 0 0
0.04 0 0
0.08 0 0
0.12 0 0
0.16 0 0
0.2 0 0
0.24 0 0
0.28 0 0
0.32 0 0
0.36 0 0
0.4 0 0
0.44 0 0
0.48 0 0
0.52 0 0
0.56 0 0
0.6 0 0
0.64 0 0
0.68 0 0
0.72 0 0
0.76 0 0
0.8 0 0
0.84 0 0
0.88 0 0
0.92 0 0
0.96 0 0
1 0 0
1.04 0 0
1.08 0 0
1.12 0 0
1.16 0 0
1.2 0 0
1.24 0 0
1.28 0 0
1.32 0 0
1.36 0 0
1.4 0 0
1.44 0 0
1.48 0 0
1.52 0 0
1.56 0 0
1.6 0 0
1.64 0 0
1.68 0 0
1.72 0 0
1.76 0 0
1.8 0 0
1.84 0 0
1.88 0 0
1.92 0 0
1.96 0 0
2 0 0
2.04 0 0
2.08 0 0
2.12 0 0
2.16 0 0
2.2 0 0
2.24 0 0
2.28 0 0
2.32 0 0
2.36 0 0
2.4 0 0
2.44 0 0
2.48 0 0
2.52 0 0
2.56 0 0
2.6 0 0
2.64 0 0
2.68 0 0
2.72 0 0
2.76 0 0
2.8 0 0
2.84 0 0
2.88 0 0
2.92 0 0
2.96 0 0
3 0 0
3.04 0 0
3.08 0 0
3.12 0 0
3.16 0 0
3.2 0 0
3.24 0 0
3.28 0 0
3.32 0 0
3.36 0 0
3.4 0 0
3.44 0 0
3.48 0 0
3.52 0 0
3.56 0 0
3.6 0 0
3.64 0 0
3.68 0 0
3.72 0 0
3.76 0 0
3.8 0 0
3.84 0 0
3.88 0 0
3.92 0 0
3.96 0 0
4 0 0
4.04 0 0
4.08 0 0
4.12 0 0
4.16 0 0
4.2 0 0
4.24 0 0
4.28 0 0
4.32 0 0
4.36 0 0
4.4 0 0
4.44 0 0
4.48 0 0
4.52 0 0
4.56 0 0
4.6 0 0
4.64 0 0
4.68 0 0
4.72 0 0
4.76 0 0
4.8 0 0
4.84 0 0
4.88 0 0
4.92 0 0
4.96 0 0
5 0 0
5.04 0 0
5.08 0 0
5.12 0 0
5.16 0 0
5.2 0 0
5.24 0 0
5.28 0 0
5.32 0 0
5.36 0 0
5.4 0 0
5.44 0 0
5.48 0 0
5.52 0 0
5.56 0 0
5.6 0 0
5.64 0 0
5.68 0 0
5.72 0 0
5.76 0 0
5.8 0 0
5.84 0 0
5.88 0 0
5.92 0 0
5.96 0 0
6 0 0
6.04 0 0
6.08 0 0
6.12 0 0
6.16 0 0
6.2 0 0
6.24 0 0
6.28 0 0
6.32 0 0
6.36 0 0
6.4 0 0
6.44 0 0
6.48 0 0
6.52 0 0
6.56 0 0
6.6 0 0
6.64 0 0
6.68 0 0
6.72 0 0
6.76 0 0
6.8 0 0
6.84 0 0
6.88 0 0
6.92 0 0
6.96 0 0
7 0 0
7.04 0 0
7.08 0 0
7.12 0 0
7.16 0 0
7.2 0 0
7.24 0 0
7.28 0 0
7.32 0 0
7.36 0 0
7.4 0 0
7.44 0 0
7.48 0 0
7.52 0 0
7.56 0 0
7.6 0 0
7.64 0 0
7.68 0 0
7.72 0 0
7.76 0 0
7.8 0 0
7.84 0 0
7.88 0 0
7.92 0 0
7.96 0 0
8 0 0
8.04 0 0
8.08 0 0
8.12 0 0
8.16 0 0
8.2 0 0
8.24 0 0
8.28 0 0
8.32 0 0
8.36 0 0
8.4 0 0
8.44 0 0
8.48 0 0
8.52 0 0
8.56 0 0
8.6 0 0
8.64 0 0
8.68 0 0
8.72 0 0
8.76 0 0
8.8 0 0
8.84 0 0
8.88 0 0
8.92 0 0
8.96 0 0
9 0 0
9.04 0 0
9.08 0 0
9.12 0 0
9.16 0 0
9.2 0 0
9.24 0 0
9.28 0 0
9.32 0 0
9.36 0 0
9.4 0 0
9.44 0 0
9.48 0 0
9.52 0 0
9.56 0 0
9.6 0 0
9.64 0 0
9.68 0 0
9.72 0 0
9.76 0 0
9.8 0 0
9.84 0 0
9.88 0 0
9.92 0 0
9.96 0 0
10 0 0
10.04 0 0
10.08 0 0
10.12 0 0
10.16 0 0
10.2 0 0
10.24 0 0
10.28 0 0
10.32 0 0
10.36 0 0
10.4 0 0
10.44 0 0
10.48 0 0
10.52 0 0
10.56 0 0
10.6 0 0
10.64 0 0
10.68 0 0
10.72 0 0
10.76 0 0
10.8 0 0
10.84 0 0
10.88 0 0
10.92 0 0
10.96 0 0
11 0 0
11.04 0 0
11.08 0 0
11.12 0 0
11.16 0 0
11.2 0 0
11.24 0 0
11.28 0 0
11.32 0 0
11.36 0 0
11.4 0 0
11.44 0 0
11.48 0 0
11.52 0 0
11.56 0 0
11.6 0 0
11.64 0 0
11.68 0 0
11.72 0 0
11.76 0 0
11.8 0 0
11.84 0 0
11.88 0 0
11.92 0 0
11.96 0 0
12 0 0
12.04 0 0
12.08 0 0
12.12 0 0
12.16 0 0
12.2 0 0
12.24 0 0
12.28 0 0
12.32 0 0
12.36 0 0
12.4 0 0
12.44 0 0
12.48 0 0
12.52 0 0
12.56 0 0
12.6 0 0
12.64 0 0
12.68 0 0
12.72 0 0
12.76 0 0
12.8 0 0
12.84 0 0
12.88 0 0
12.92 0 0
12.96 0 0
13 0 0
13.04 0 0
13.08 0 0
13.12 0 0
13.16 0 0
13.2 0 0
13.24 0 0
13.28 0 0
13.32 0 0
13.36 0 0
13.4 0 0
13.44 0 0
13.48 0 0
13.52 0 0
13.56 0 0
13.6 0 0
13.64 0 0
13.68 0 0
13.72 0 0
13.76 0 0
13.8 0 0
13.84 0 0
13.88 0 0
13.92 0 0
13.96 0 0
14 0 0
14.04 0 0
14.08 0 0
14.12 0 0
14.16 0 0
14.2 0 0
14.24 0 0
14.28 0 0
14.32 0 0
14.36 0 0
14.4 0 0
14.44 0 0
14.48 0 0
14.52 0 0
14.56 0 0
14.6 0 0
14.64 0 0
14.68 0 0
14.72 0 0
14.76 0 0
14.8 0 0
14.84 0 0
14.88 0 0
14.92 0 0
14.96 0 0
15 0 0
15.04 0 0
15.08 0 0
15.12 0 0
15.16 0 0
15.2 0 0
15.24 0 0
15.28 0 0
15.32 0 0
15.36 0 0
15.4 0 0
15.44 0 0
15.48 0 0
15.52 0 0
15.56 0 0
15.6 0 0
15.64 0 0
15.68 0 0
15.72 0 0
15.76 0 0
15.8 0 0
15.84 0 0
15.88 0 0
15.92 0 0
15.96 0 0
16 0 0
16.04 0 0
16.08 0 0
16.12 0 0
16.16 0 0
16.2 0 0
16.24 0 0
16.28 0 0
16.32 0 0
16.36 0 0
16.4 0 0
16.44 0 0
16.48 0 0
16.52 0 0
16.56 0 0
16.6 0 0
16.64 0 0
16.68 0 0
16.72 0 0
16.76 0 0
16.8 0 0
16.84 0 0
16.88 0 0
16.92 0 0
16.96 0 0
17 0 0
17.04 0 0
17.08 0 0
17.12 0 0
17.16 0 0
17.2 0 0
17.24 0 0
17.28 0 0
17.32 0 0
17.36 0 0
17.4 0 0
17.44 0 0
17.48 0 0
17.52 0 0
17.56 0 0
17.6 0 0
17.64 0 0
17.68 0 0
17.72 0 0
17.76 0 0
17.8 0 0
17.84 0 0
17.88 0 0
17.92 0 0
17.96 0 0
18 0 0
18.04 0 0
18.08 0 0
18.12 0 0
18.16 0 0
18.2 0 0
18.24 0 0
18.28 0 0
18.32 0 0
18.36 0 0
18.4 0 0
18.44 0 0
18.48 0 0
18.52 0 0
18.56 0 0
18.6 0 0
18.64 0 0
18.68 0 0
18.72 0 0
18.76 0 0
18.8 0 0
18.84 0 0
18.88 0 0
18.92 0 0
18.96 0 0
19 0 0
19.04 0 0
19.08 0 0
19.12 0 0
19.16 0 0
19.2 0 0
19.24 0 0
19.28 0 0
19.32 0 0
19.36 0 0
19.4 0 0
19.44 0 0
19.48 0 0
19.52 0 0
19.56 0 0
19.6 0 0
19.64 0 0
19.68 0 0
19.72 0 0
19.76 0 0
19.8 0 0
19.84 0 0
19.88 0 0
19.92 0 0
19.96 0 0
20 0 0
20.04 0 0
20.08 0 0
20.12 0 0
20.16 0 0
20.2 0 0
20.24 0 0
20.28 0 0
20.32 0 0
20.36 0 0
20.4 0 0
20.44 0 0
20.48 0 0
20.52 0 0
20.56 0 0
20.6 0 0
20.64 0 0
20.68 0 0
20.72 0 0
20.76 0 0
20.8 0 0
20.84 0 0
20.88 0 0
20.92 0 0
20.96 0 0
21 0 0
21.04 0 0
21.08 0 0
21.12 0 0
21.16 0 0
21.2 0 0
21.24 0 0
21.28 0 0
21.32 0 0
21.36 0 0
21.4 0 0
21.44 0 0
21.48 0 0
21.52 0 0
21.56 0 0
21.6 0 0
21.64 0 0
21.68 0 0
21.72 0 0
21.76 0 0
21.8 0 0
21.84 0 0
21.88 0 0
21.92 0 0
21.96 0 0
22 0 0
22.04 0 0
22.08 0 0
22.12 0 0
22.16 0 0
22.2 0 0
22.24 0 0
22.28 0 0
22.32 0 0
22.36 0 0
22.4 0 0
22.44 0 0
22.48 0 0
22.52 0 0
22.56 0 0
22.6 0 0
22.64 0 0
22.68 0 0
22.72 0 0
22.76 0 0
22.8 0 0
22.84 0 0
22.88 0 0
22.92 0 0
22.96 0 0
23 0 0
23.04 0 0
23.08 0 0
23.12 0 0
23.16 0 0
23.2 0 0
23.24 0 0
23.28 0 0
23.32 0 0
23.36 0 0
23.4 0 0
23.44 0 0
23.48 0 0
23.52 0 0
23.56 0 0
23.6 0 0
23.64 0 0
23.68 0 0
23.72 0 0
23.76 0 0
23.8 0 0
23.84 0 0
23.88 0 0
23.92 0 0
23.96 0 0
24 0 0
24.04 0 0
24.08 0 0
24.12 0 0
24.16 0 0
24.2 0 0
24.24 0 0
24.28 0 0
24.32 0 0
24.36 0 0
24.4 0 0
24.44 0 0
24.48 0 0
24.52 0 0
24.56 0 0
24.6 0 0
24.64 0 0
24.68 0 0
24.72 0 0
24.76 0 0
24.8 0 0
24.84 0 0
24.88 0 0
24.92 0 0
24.96 0 0
25 0 0
25.04 0 0
25.08 0 0
25.12 0 0
25.16 0 0
25.2 0 0
25.24 0 0
25.28 0 0
25.32 0 0
25.36 0 0
25.4 0 0
25.44 0 0
25.48 0 0
25.52 0 0
25.56 0 0
25.6 0 0
25.64 0 0
25.68 0 0
25.72 0 0
25.76 0 0
25.8 0 0
25.84 0 0
25.88 0 0
25.92 0 0
25.96 0 0
26 0 0
26.04 0 0
26.08 0 0
26.12 0 0
26.16 0 0
26.2 0 0
26.24 0 0
26.28 0 0
26.32 0 0
26.36 0 0
26.4 0 0
26.44 0 0
26.48 0 0
26.52 0 0
26.56 0 0
26.6 0 0
26.64 0 0
26.68 0 0
26.72 0 0
26.76 0 0
26.8 0 0
26.84 0 0
26.88 0 0
26.92 0 0
26.96 0 0
27 0 0
27.04 0 0
27.08 0 0
27.12 0 0
27.16 0 0
27.2 0 0
27.24 0 0
27.28 0 0
27.32 0 0
27.36 0 0
27.4 0 0
27.44 0 0
27.48 0 0
27.52 0 0
27.56 0 0
27.6 0 0
27.64 0 0
27.68 0 0
27.72 0 0
27.76 0 0
27.8 0 0
27.84 0 0
27.88 0 0
27.92 0 0
27.96 0 0
28 0 0
28.04 0 0
28.08 0 0
28.12 0 0
28.16 0 0
28.2 0 0
28.24 0 0
28.28 0 0
28.32 0 0
28.36 0 0
28.4 0 0
28.44 0 0
28.48 0 0
28.52 0 0
28.56 0 0
28.6 0 0
28.64 0 0
28.68 0 0
28.72 0 0
28.76 0 0
28.8 0 0
28.84 0 0
28.88 0 0
28.92 0 0
28.96 0 0
29 0 0
29.04 0 0
29.08 0 0
29.12 0 0
29.16 0 0
29.2 0 0
29.24 0 0
29.28 0 0
29.32 0 0
29.36 0 0
29.4 0 0
29.44 0 0
29.48 0 0
29.52 0 0
29.56 0 0
29.6 0 0
29.64 0 0
29.68 0 0
29.72 0 0
29.76 0 0
29.8 0 0
29.84 0 0
29.88 0 0
29.92 0 0
29.96 0 0
30 0 0
30.04 0 0
30.08 0 0
30.12 0 0
30.16 0 0
30.2 0 0
30.24 0 0
30.28 0 0
30.32 0 0
30.36 0 0
30.4 0 0
30.44 0 0
30.48 0 0
30.52 0 0
30.56 0 0
30.6 0 0
30.64 0 0
30.68 0 0
30.72 0 0
30.76 0 0
30.8 0 0
30.84 0 0
30.88 0 0
30.92 0 0
30.96 0 0
31 0 0
31.04 0 0
31.08 0 0
31.12 0 0
31.16 0 0
31.2 0 0
31.24 0 0
31.28 0 0
31.32 0 0
31.36 0 0
31.4 0 0
31.44 0 0
31.48 0 0
31.52 0 0
31.56 0 0
31.6 0 0
31.64 0 0
31.68 0 0
31.72 0 0
31.76 0 0
31.8 0 0
31.84 0 0
31.88 0 0
31.92 0 0
31.96 0 0
0 0.005 0
0.04 0.005 0
0.08 0.005 0
0.12 0.005 0
0.16 0.005 0
0.2 0.005 0
0.24 0.005 0
0.28 0.005 0
0.32 0.005 0
0.36 0.005 0
0.4 0.005 0
0.44 0.005 0
0.48 0.005 0
0.52 0.005 0
0.56 0.005 0
0.6 0.005 0
0.64 0.005 0
0.68 0.005 0
0.72 0.005 0
0.76 0.005 0
0.8 0.005 0
0.84 0.005 0
0.88 0.005 0
0.92 0.005 0
0.96 0.005 0
1 0.005 0
1.04 0.005 0
1.08 0.005 0
1.12 0.005 0
1.16 0.005 0
1.2 0.005 0
1.24 0.005 0
1.28 0.005 0
1.32 0.005 0
1.36 0.005 0
1.4 0.005 0
1.44 0.005 0
1.48 0.005 0
1.52 0.005 0
1.56 0.005 0
1.6 0.005 0
1.64 0.005 0
1.68 0.005 0
1.72 0.005 0
1.76 0.005 0
1.8 0.005 0
1.84 0.005 0
1.88 0.005 0
1.92 0.005 0
1.96 0.005 0
2 0.005 0
2.04 0.005 0
2.08 0.005 0
2.12 0.005 0
2.16 0.005 0
2.2 0.005 0
2.24 0.005 0
2.28 0.005 0
2.32 0.005 0
2.36 0.005 0
2.4 0.005 0
2.44 0.005 0
2.48 0.005 0
2.52 0.005 0
2.56 0.005 0
2.6 0.005 0
2.64 0.005 0
2.68 0.005 0
2.72 0.005 0
2.76 0.005 0
2.8 0.005 0
2.84 0.005 0
2.88 0.005 0
2.92 0.005 0
2.96 0.005 0
3 0.005 0
3.04 0.005 0
3.08 0.005 0
3.12 0.005 0
3.16 0.005 0
3.2 0.005 0
3.24 0.005 0
3.28 0.005 0
3.32 0.005 0
3.36 0.005 0
3.4 0.005 0
3.44 0.005 0
3.48 0.005 0
3.52 0.005 0
3.56 0.005 0
3.6 0.005 0
3.64 0.005 0
3.68 0.005 0
3.72 0.005 0
3.76 0.005 0
3.8 0.005 0
3.84 0.005 0
3.88 0.005 0
3.92 0.005 0
3.96 0.005 0
4 0.005 0
4.04 0.005 0
4.08 0.005 0
4.12 0.005 0
4.16 0.005 0
4.2 0.005 0
4.24 0.005 0
4.28 0.005 0
4.32 0.005 0
4.36 0.005 0
4.4 0.005 0
4.44 0.005 0
4.48 0.005 0
4.52 0.005 0
4.56 0.005 0
4.6 0.005 0
4.64 0.005 0
4.68 0.005 0
4.72 0.005 0
4.76 0.005 0
4.8 0.005 0
4.84 0.005 0
4.88 0.005 0
4.92 0.005 0
4.96 0.005 0
5 0.005 0
5.04 0.005 0
5.08 0.005 0
5.12 0.005 0
5.16 0.005 0
5.2 0.005 0
5.24 0.005 0
5.28 0.005 0
5.32 0.005 0
5.36 0.005 0
5.4 0.005 0
5.44 0.005 0
5.48 0.005 0
5.52 0.005 0
5.56 0.005 0
5.6 0.005 0
5.64 0.005 0
5.68 0.005 0
5.72 0.005 0
5.76 0.005 0
5.8 0.005 0
5.84 0.005 0
5.88 0.005 0
5.92 0.005 0
5.96 0.005 0
6 0.005 0
6.04 0.005 0
6.08 0.005 0
6.12 0.005 0
6.16 0.005 0
6.2 0.005 0
6.24 0.005 0
6.28 0.005 0
6.32 0.005 0
6.36 0.005 0
6.4 0.005 0
6.44 0.005 0
6.48 0.005 0
6.52 0.005 0
6.56 0.005 0
6.6 0.005 0
6.64 0.005 0
6.68 0.005 0
6.72 0.005 0
6.76 0.005 0
6.8 0.005 0
6.84 0.005 0
6.88 0.005 0
6.92 0.005 0
6.96 0.005 0
7 0.005 0
7.04 0.005 0
7.08 0.005 0
7.12 0.005 0
7.16 0.005 0
7.2 0.005 0
7.24 0.005 0
7.28 0.005 0
7.32 0.005 0
7.36 0.005 0
7.4 0.005 0
[...]
POINT_DATA 160000

SCALARS v float 1
LOOKUP_TABLE default
0
0
0
0
0
0
0
0
0
0
0
0
0
0
0
0
0
0
0
0
0
0
0
0
0
0
0
0
0
0
0
0
0
0
0
0
0
0
0
0
0
0
0
0
0
0
0
0
0
0
0
0
0
0
0
0
0
0
0
0
0
0
0
0
0
0
0
0
0
0
0
0
0
0
0
0
0
0
0
0
0
0
0
0
0
0
0
0
0
0
0
0
0
0
0
0
0
0
0
0
0
0
0
0
0
0
0
0
0
0
0
0
0
0
0
0
0
0
0
0
0
0
0
0
0
0
0
0
0
0
0
0
0
0
0
0
0
0
0
0
0
0
0
0
0
0
0
0
0
0
0
0
0
0
0
0
0
0
0
0
0
0
0
0
0
0
0
0
0
0
0
0
0
0
0
0
0
0
0
0
0
0
0
0
0
0
0
0
0
0
0
0
0
0
0
0
0
0
0
0
0
0
0
0
0
0
0
0
0
0
0
0
0
0
0
0
0
0
0
0
0
0
0
0
0
0
0
0
0
0
0
0
0
0
0
0
0
0
0
0
0
0
0
0
0
0
0
0
0
0
0
0
0
0
0
0
0
0
0
0
0
0
0
0
0
0
0
0
0
0
0
0
0
0
0
0
0
0
0
0
0
0
0
0
0
0
0
0
0
0
0
0
0
0
0
0
0
0
0
0
0
0
0
0
0
0
0
0
0
0
0
0
0
0
0
0
0
0
0
0
0
0
0
0
0
0
0
0
0
0
0
0
0
0
0
0
0
0
0
0
0
0
0
0
0
0
0
0
0
0
0
0
0
0
0
0
0
0
0
0
0
0
0
0
0
0
0
0
0
0
0
0
0
0
0
0
0
0
0
0
0
0
0
0
0
0
0
0
0
0
0
0
0
0
0
0
0
0
0
0
0
0
0
0
0
0
0
0
0
0
0
0
0
0
0
0
0
0
0
0
0
0
0
0
0
0
0
0
0
0
0
0
0
0
0
0
0
0
0
0
0
0
0
0
0
0
0
0
0
0
0
0
0
0
0
0
0
0
0
0
0
0
0
0
0
0
0
0
0
0
0
0
0
0
0
0
0
0
0
0
0
0
0
0
0
0
0
0
0
0
0
0
0
0
0
0
0
0
0
0
0
0
0
0
0
0
0
0
0
0
0
0
0
0
0
0
0
0
0
0
0
0
0
0
0
0
0
0
0
0
0
0
0
0
0
0
0
0
0
0
0
0
0
0
0
0
0
0
0
0
0
0
0
0
0
0
0
0
0
0
0
0
0
0
0
0
0
0
0
0
0
0
0
0
0
0
0
0
0
0
0
0
0
0
0
0
0
0
0
0
0
0
0
0
0
0
0
0
0
0
0
0
0
0
0
0
0
0
0
0
0
0
0
0
0
0
0
0
0
0
0
0
0
0
0
0
0
0
0
0
0
0
0
0
0
0
0
0
0
0
0
0
0
0
0
0
0
0
0
0
0
0
0
0
0
0
0
0
0
0
0
0
0
0
0
0
0
0
0
0
0
0
0
0
0
0
0
0
0
0
0
0
0
0
0
0
0
0
0
0
0
0
0
0
0
0
0
0
0
0
0
0
0
0
0
0
0
0
0
0
0
0
0
0
0
0
0
0
0
0
0
0
0
0
0
0
0
0
0
0
0
0
0
0
0
0
0
0
0
0
0
0
0
0
0
0
0
0
0
0
0
0
0
0
0
0
0
0
0
0
0
0
0
0
0
0
0
0
0
0
0
0
0
0
0
0
0
0
0
0
0
0
0
0
0
0
0
0
0
0
0
0
0
0
0
0
0
0
0
0
0
0
0.0374158
0.00938113
0.00346796
0.00176635
0.00108087
0.000737107
0.00053833
0.000411785
0.000325586
0.000263898
0.000218077
0.000183046
0.000155645
0.000133809
0.000116136
0.000101645
8.96261e-05
7.95582e-05
7.10484e-05
6.37965e-05
5.75698e-05
5.21856e-05
4.74992e-05
4.33946e-05
3.97783e-05
3.65742e-05
3.37204e-05
3.11655e-05
2.88674e-05
2.67909e-05
2.49065e-05
2.31896e-05
2.16194e-05
2.01783e-05
1.88513e-05
1.76255e-05
1.649e-05
1.54353e-05
1.44532e-05
1.35365e-05
1.2679e-05
1.18754e-05
1.11207e-05
1.04108e-05
9.74181e-06
9.11051e-06
8.51389e-06
7.94926e-06
7.41422e-06
6.9066e-06
6.42446e-06
5.96603e-06
5.52968e-06
5.11396e-06
4.7175e-06
4.33909e-06
3.97759e-06
3.63196e-06
3.30125e-06
2.98459e-06
2.68114e-06
2.39016e-06
2.11095e-06
1.84285e-06
1.58527e-06
1.33764e-06
1.09943e-06
8.70152e-07
6.49354e-07
4.36607e-07
2.31508e-07
3.36802e-08
-1.57228e-07
-3.41545e-07
-5.19579e-07
-6.9163e-07
-8.57974e-07
-1.01886e-06
-1.17454e-06
-1.32525e-06
-1.47121e-06
-1.61261e-06
-1.74965e-06
-1.88253e-06
-2.01139e-06
-2.13643e-06
-2.25779e-06
-2.37563e-06
-2.49007e-06
-2.60126e-06
-2.70933e-06
-2.81439e-06
-2.91657e-06
-3.01597e-06
-3.11269e-06
-3.20684e-06
-3.29851e-06
-3.38779e-06
-3.47475e-06
-3.55951e-06
-3.64212e-06
-3.72267e-06
-3.80122e-06
-3.87784e-06
-3.9526e-06
-4.02557e-06
-4.0968e-06
-4.16635e-06
-4.23428e-06
-4.30063e-06
-4.36546e-06
-4.42882e-06
-4.49077e-06
-4.55132e-06
-4.61054e-06
-4.66848e-06
-4.72516e-06
-4.78061e-06
-4.83489e-06
-4.88802e-06
-4.94005e-06
-4.991e-06
-5.04091e-06
-5.0898e-06
-5.13771e-06
-5.18465e-06
-5.23066e-06
-5.27578e-06
-5.32001e-06
-5.36339e-06
-5.40594e-06
-5.44769e-06
-5.48866e-06
-5.52885e-06
-5.56829e-06
-5.60701e-06
-5.64504e-06
-5.68237e-06
-5.71903e-06
-5.75505e-06
-5.79043e-06
-5.82519e-06
-5.85935e-06
-5.89292e-06
-5.92591e-06
-5.95835e-06
-5.99024e-06
-6.0216e-06
-6.05243e-06
-6.08277e-06
-6.11261e-06
-6.14198e-06
-6.17086e-06
-6.19928e-06
-6.22725e-06
-6.25478e-06
-6.28188e-06
-6.30856e-06
-6.33483e-06
-6.3607e-06
-6.38618e-06
-6.41128e-06
-6.43599e-06
-6.46034e-06
-6.48432e-06
-6.50795e-06
-6.53124e-06
-6.55421e-06
-6.57683e-06
-6.59913e-06
-6.62112e-06
-6.64281e-06
-6.66417e-06
-6.68523e-06
-6.70601e-06
-6.7265e-06
-6.74671e-06
-6.76664e-06
-6.7863e-06
-6.8057e-06
-6.82484e-06
-6.84373e-06
-6.86237e-06
-6.88075e-06
-6.89889e-06
-6.9168e-06
-6.93447e-06
-6.95192e-06
-6.96916e-06
-6.98616e-06
-7.00294e-06
-7.01951e-06
-7.03588e-06
-7.05205e-06
-7.06801e-06
-7.08376e-06
-7.09933e-06
-7.1147e-06
-7.12989e-06
-7.14489e-06
-7.15972e-06
-7.17435e-06
-7.18881e-06
-7.2031e-06
-7.21722e-06
-7.23117e-06
-7.24494e-06
-7.25856e-06
-7.27202e-06
-7.28533e-06
-7.29848e-06
-7.31147e-06
-7.3243e-06
-7.33699e-06
-7.34953e-06
-7.36194e-06
-7.3742e-06
-7.38632e-06
-7.3983e-06
-7.41014e-06
-7.42185e-06
-7.43344e-06
-7.44489e-06
-7.45621e-06
-7.4674e-06
-7.47846e-06
-7.4894e-06
-7.50023e-06
-7.51094e-06
-7.52151e-06
-7.53197e-06
-7.54232e-06
-7.55256e-06
-7.56269e-06
-7.5727e-06
-7.58261e-06
-7.59241e-06
-7.6021e-06
-7.61169e-06
-7.62118e-06
-7.63055e-06
-7.63983e-06
-7.64901e-06
-7.65809e-06
-7.66707e-06
-7.67596e-06
-7.68475e-06
-7.69345e-06
-7.70205e-06
-7.71057e-06
-7.71899e-06
-7.72732e-06
-7.73557e-06
-7.74373e-06
-7.7518e-06
-7.75979e-06
-7.7677e-06
-7.77553e-06
-7.78326e-06
-7.79092e-06
-7.79849e-06
-7.80599e-06
-7.81341e-06
-7.82075e-06
-7.82802e-06
-7.83521e-06
-7.84233e-06
-7.84936e-06
-7.85633e-06
-7.86323e-06
-7.87006e-06
-7.87681e-06
-7.8835e-06
-7.89011e-06
-7.89666e-06
-7.90313e-06
-7.90955e-06
-7.9159e-06
-7.92218e-06
-7.92839e-06
-7.93455e-06
-7.94063e-06
-7.94665e-06
-7.95262e-06
-7.95853e-06
-7.96437e-06
-7.97016e-06
-7.97589e-06
-7.98155e-06
-7.98715e-06
-7.9927e-06
-7.9982e-06
-8.00364e-06
-8.00902e-06
-8.01435e-06
-8.01961e-06
-8.02484e-06
-8.03001e-06
-8.03512e-06
-8.04018e-06
-8.04519e-06
-8.05016e-06
-8.05506e-06
-8.05992e-06
-8.06473e-06
-8.06949e-06
-8.0742e-06
-8.07887e-06
-8.08348e-06
-8.08806e-06
-8.09258e-06
-8.09706e-06
-8.1015e-06
-8.10589e-06
-8.11023e-06
-8.11453e-06
-8.11878e-06
-8.12299e-06
-8.12717e-06
-8.1313e-06
-8.13539e-06
-8.13943e-06
-8.14343e-06
-8.1474e-06
-8.15133e-06
-8.15522e-06
-8.15906e-06
-8.16286e-06
-8.16663e-06
-8.17036e-06
-8.17405e-06
-8.1777e-06
-8.18132e-06
-8.18491e-06
-8.18845e-06
-8.19197e-06
-8.19544e-06
-8.19889e-06
-8.20229e-06
-8.20566e-06
-8.20899e-06
-8.21228e-06
-8.21555e-06
-8.2188e-06
-8.222e-06
-8.22517e-06
-8.22831e-06
-8.23142e-06
-8.23449e-06
-8.23754e-06
-8.24056e-06
-8.24354e-06
-8.24649e-06
-8.24941e-06
-8.2523e-06
-8.25518e-06
-8.25803e-06
-8.26083e-06
-8.2636e-06
-8.26635e-06
-8.26908e-06
-8.27178e-06
-8.27445e-06
-8.27708e-06
-8.2797e-06
-8.28229e-06
-8.28485e-06
-8.28739e-06
-8.2899e-06
-8.2924e-06
-8.29486e-06
-8.29728e-06
-8.2997e-06
-8.30209e-06
-8.30446e-06
-8.30679e-06
-8.30911e-06
-8.3114e-06
-8.31367e-06
-8.31591e-06
-8.31814e-06
-8.32035e-06
-8.32252e-06
-8.32468e-06
-8.32682e-06
-8.32893e-06
-8.33102e-06
-8.33309e-06
-8.33515e-06
-8.33718e-06
-8.33919e-06
-8.34118e-06
-8.34314e-06
-8.3451e-06
-8.34703e-06
-8.34893e-06
-8.35083e-06
-8.35271e-06
-8.35456e-06
-8.35639e-06
-8.3582e-06
-8.35999e-06
-8.36178e-06
-8.36354e-06
-8.36529e-06
-8.367e-06
-8.36871e-06
-8.3704e-06
-8.37208e-06
-8.37374e-06
-8.37538e-06
-8.377e-06
-8.37861e-06
-8.3802e-06
-8.38178e-06
-8.38334e-06
-8.38489e-06
-8.38641e-06
-8.38792e-06
-8.38942e-06
-8.3909e-06
-8.39236e-06
-8.39382e-06
-8.39527e-06
-8.39669e-06
-8.39809e-06
-8.39949e-06
-8.40086e-06
-8.40222e-06
-8.40357e-06
-8.40492e-06
-8.40625e-06
-8.40756e-06
-8.40886e-06
-8.41015e-06
-8.41141e-06
-8.41267e-06
-8.41392e-06
-8.41517e-06
-8.41639e-06
-8.41758e-06
-8.41878e-06
-8.41996e-06
-8.42114e-06
-8.4223e-06
-8.42344e-06
-8.42458e-06
-8.42571e-06
-8.42683e-06
-8.42793e-06
-8.42902e-06
-8.43011e-06
-8.43118e-06
-8.43223e-06
-8.43328e-06
-8.43431e-06
-8.43534e-06
-8.43637e-06
-8.43738e-06
-8.43837e-06
-8.43936e-06
-8.44033e-06
-8.4413e-06
-8.44226e-06
-8.4432e-06
-8.44413e-06
-8.44505e-06
-8.44597e-06
-8.4469e-06
-8.4478e-06
-8.44869e-06
-8.44956e-06
-8.45043e-06
-8.4513e-06
-8.45216e-06
-8.453e-06
-8.45384e-06
-8.45467e-06
-8.45549e-06
-8.45631e-06
-8.45711e-06
-8.4579e-06
-8.45869e-06
-8.45948e-06
-8.46025e-06
-8.46101e-06
-8.46177e-06
-8.46252e-06
-8.46326e-06
-8.46399e-06
-8.46471e-06
-8.46543e-06
-8.46615e-06
-8.46686e-06
-8.46755e-06
-8.46824e-06
-8.46892e-06
-8.4696e-06
-8.47027e-06
-8.47093e-06
-8.47159e-06
-8.47224e-06
-8.47288e-06
-8.47351e-06
-8.47414e-06
-8.47476e-06
-8.47538e-06
-8.476e-06
-8.4766e-06
-8.47719e-06
-8.47778e-06
-8.47837e-06
-8.47895e-06
-8.47952e-06
-8.48009e-06
-8.48066e-06
-8.48122e-06
-8.48176e-06
-8.4823e-06
-8.48285e-06
-8.48339e-06
-8.48392e-06
-8.48444e-06
-8.48496e-06
-8.48547e-06
-8.48598e-06
-8.48649e-06
-8.48698e-06
-8.48748e-06
-8.48796e-06
-8.48844e-06
-8.48891e-06
-8.48939e-06
-8.48986e-06
-8.49032e-06
-8.49078e-06
-8.49123e-06
-8.49168e-06
-8.49212e-06
-8.49257e-06
-8.49301e-06
-8.49344e-06
-8.49386e-06
-8.49428e-06
-8.4947e-06
-8.49512e-06
-8.49553e-06
-8.49594e-06
-8.49633e-06
-8.49673e-06
-8.49712e-06
-8.49751e-06
-8.49789e-06
-8.49828e-06
-8.49866e-06
-8.49903e-06
-8.49941e-06
-8.49977e-06
-8.50014e-06
-8.50049e-06
-8.50084e-06
-8.50119e-06
-8.50154e-06
-8.50188e-06
-8.50222e-06
-8.50256e-06
-8.5029e-06
-8.50323e-06
-8.50355e-06
-8.50387e-06
-8.5042e-06
-8.50451e-06
-8.50483e-06
-8.50514e-06
-8.50545e-06
-8.50575e-06
-8.50605e-06
-8.50635e-06
-8.50664e-06
-8.50693e-06
-8.50722e-06
-8.50752e-06
-8.5078e-06
-8.50808e-06
-8.50835e-06
-8.50863e-06
-8.5089e-06
-8.50917e-06
-8.50944e-06
-8.5097e-06
-8.50996e-06
-8.51022e-06
-8.51048e-06
-8.51073e-06
-8.51098e-06
-8.51123e-06
-8.51148e-06
-8.51172e-06
-8.51196e-06
-8.5122e-06
-8.51243e-06
-8.51266e-06
-8.51289e-06
-8.51312e-06
-8.51335e-06
-8.51358e-06
-8.51379e-06
-8.51402e-06
-8.51424e-06
-8.51445e-06
-8.51466e-06
-8.51487e-06
-8.51508e-06
-8.51529e-06
-8.51549e-06
-8.51569e-06
-8.51588e-06
-8.51608e-06
-8.51628e-06
-8.51648e-06
-8.51667e-06
-8.51686e-06
-8.51704e-06
-8.51723e-06
-8.51741e-06
-8.51759e-06
-8.51778e-06
-8.51796e-06
-8.51814e-06
-8.51831e-06
-8.51849e-06
-8.51866e-06
-8.51882e-06
-8.51899e-06
-8.51915e-06
-8.51932e-06
-8.51948e-06
-8.51965e-06
-8.51981e-06
-8.51997e-06
-8.52012e-06
-8.52027e-06
-8.52043e-06
-8.52058e-06
-8.52072e-06
-8.52088e-06
-8.52103e-06
-8.52116e-06
-8.52131e-06
-8.52145e-06
-8.52159e-06
-8.52174e-06
-8.52188e-06
-8.52202e-06
-8.52214e-06
-8.52227e-06
-8.5224e-06
-8.52254e-06
-8.52269e-06
-8.52281e-06
-8.52293e-06
-8.52306e-06
-8.52318e-06
-8.5233e-06
-8.52342e-06
-8.52354e-06
-8.52366e-06
-8.52379e-06
-8.52392e-06
-8.52403e-06
-8.52414e-06
-8.52425e-06
-8.52436e-06
-8.52447e-06
-8.52458e-06
-8.52468e-06
-8.52479e-06
-8.52491e-06
-8.52501e-06
-8.52512e-06
-8.52522e-06
-8.52532e-06
-8.52543e-06
-8.52552e-06
-8.52561e-06
-8.52572e-06
-8.52582e-06
-8.52592e-06
-8.52602e-06
-8.52611e-06
-8.5262e-06
-8.52629e-06
-8.52638e-06
-8.52647e-06
-8.52656e-06
-8.52666e-06
-8.52675e-06
-8.52683e-06
-8.52692e-06
-8.52701e-06
-8.52709e-06
-8.52717e-06
-8.52724e-06
-8.52732e-06
-8.52741e-06
-8.52749e-06
-8.52757e-06
-8.52765e-06
-8.52773e-06
-8.52781e-06
-8.52789e-06
-8.52796e-06
-8.52803e-06
-8.5281e-06
-8.52818e-06
-8.52826e-06
-8.52833e-06
-8.52839e-06
-8.52846e-06
-8.52852e-06
-8.5286e-06
-8.52866e-06
-8.52873e-06
-8.5288e-06
-8.52887e-06
-8.52894e-06
-8.52901e-06
-8.52907e-06
-8.52912e-06
-8.52918e-06
-8.52925e-06
-8.52931e-06
-8.52938e-06
-8.52944e-06
-8.52949e-06
-8.52954e-06
-8.5296e-06
-8.52966e-06
-8.52972e-06
-8.52979e-06
-8.52984e-06
-8.5299e-06
-8.52995e-06
-8.53e-06
-8.53005e-06
-8.53011e-06
-8.53017e-06
-8.53022e-06
-8.53027e-06
-8.53032e-06
-8.53036e-06
-8.53041e-06
-8.53047e-06
-8.53052e-06
-8.53057e-06
-8.53061e-06
-8.53066e-06
-8.53071e-06
-8.53075e-06
-8.5308e-06
-8.53084e-06
-8.53088e-06
-8.53092e-06
-8.53096e-06
-8.53099e-06
-8.53103e-06
-8.53106e-06
-8.53109e-06
-8.53112e-06
-8.53113e-06
-8.53113e-06
-8.53113e-06
-8.53112e-06
-8.53109e-06
-8.53104e-06
-8.53097e-06
-8.53086e-06
-8.5307e-06
-8.53049e-06
-8.53024e-06
-8.52988e-06
-8.52944e-06
-8.52884e-06
-8.52812e-06
-8.52708e-06
-8.5259e-06
-8.52412e-06
-8.52225e-06
-8.51907e-06
-8.51621e-06
-8.5101e-06
-8.50631e-06
-8.49259e-06
-8.49179e-06
-8.44995e-06
-8.52193e-06
-6.025e-06
-6.025e-06
0
0
0.0966101
0.0320527
0.0130062
0.00682637
0.00423607
0.00291413
0.0021425
0.00164842
0.00131055
0.00106807
0.000887567
0.000749319
0.000641015
0.000554593
0.000484568
0.000427089
0.000379374
0.000339372
0.000305535
0.000276683
0.000251896
0.000230454
0.000211784
0.000195427
0.000181014
0.000168242
0.000156866
0.000146682
0.000137522
0.000129245
0.000121736
0.000114896
0.000108641
0.000102902
9.76184e-05
9.27392e-05
8.82205e-05
8.40243e-05
8.01179e-05
7.64727e-05
7.30639e-05
6.98696e-05
6.68707e-05
6.40502e-05
6.13931e-05
5.8886e-05
5.6517e-05
5.42755e-05
5.21517e-05
5.01372e-05
4.8224e-05
4.64051e-05
4.46741e-05
4.30251e-05
4.14526e-05
3.99519e-05
3.85184e-05
3.7148e-05
3.58368e-05
3.45814e-05
3.33786e-05
3.22252e-05
3.11185e-05
3.0056e-05
2.90351e-05
2.80538e-05
2.71099e-05
2.62014e-05
2.53265e-05
2.44836e-05
2.3671e-05
2.28873e-05
2.2131e-05
2.14009e-05
2.06956e-05
2.00141e-05
1.93552e-05
1.87179e-05
1.81013e-05
1.75044e-05
1.69264e-05
1.63664e-05
1.58236e-05
1.52974e-05
1.47871e-05
1.4292e-05
1.38114e-05
1.33448e-05
1.28916e-05
1.24513e-05
1.20234e-05
1.16074e-05
1.12029e-05
1.08093e-05
1.04264e-05
1.00536e-05
9.6907e-06
9.33725e-06
8.99293e-06
8.6574e-06
8.33036e-06
8.0115e-06
7.70055e-06
7.39724e-06
7.10128e-06
6.81245e-06
6.5305e-06
6.2552e-06
5.98633e-06
5.72369e-06
5.46706e-06
5.21626e-06
4.9711e-06
4.73141e-06
4.49701e-06
4.26772e-06
4.04341e-06
3.82392e-06
3.6091e-06
3.39881e-06
3.19291e-06
2.99128e-06
2.79378e-06
2.6003e-06
2.41073e-06
2.22495e-06
2.04286e-06
1.86434e-06
1.68929e-06
1.51763e-06
1.34925e-06
1.18407e-06
1.02199e-06
8.62962e-07
7.0688e-07
5.5365e-07
4.0321e-07
2.55498e-07
1.10431e-07
-3.20631e-08
-1.72038e-07
-3.09565e-07
-4.44709e-07
-5.77512e-07
-7.08047e-07
-8.36377e-07
-9.62547e-07
-1.0866e-06
-1.2086e-06
-1.3286e-06
-1.44665e-06
-1.56278e-06
-1.67703e-06
-1.78946e-06
-1.9001e-06
-2.00901e-06
-2.11621e-06
-2.22174e-06
-2.32566e-06
-2.42799e-06
-2.52876e-06
-2.62801e-06
-2.72577e-06
-2.82206e-06
-2.91693e-06
-3.01041e-06
-3.10253e-06
-3.19333e-06
-3.2828e-06
-3.37099e-06
-3.45794e-06
-3.54366e-06
-3.62815e-06
-3.71146e-06
-3.79363e-06
-3.87465e-06
-3.95457e-06
-4.0334e-06
-4.11115e-06
-4.18786e-06
-4.26354e-06
-4.33821e-06
-4.41188e-06
-4.48458e-06
-4.55632e-06
-4.62713e-06
-4.69702e-06
-4.76601e-06
-4.83411e-06
-4.90134e-06
-4.9677e-06
-5.03323e-06
-5.09793e-06
-5.16183e-06
-5.22492e-06
-5.28721e-06
-5.34874e-06
-5.40952e-06
-5.46955e-06
-5.52885e-06
-5.58743e-06
-5.64528e-06
-5.70244e-06
-5.75892e-06
-5.81472e-06
-5.86985e-06
-5.92432e-06
-5.97815e-06
-6.03135e-06
-6.08392e-06
-6.13588e-06
-6.18722e-06
-6.23796e-06
-6.28812e-06
-6.3377e-06
-6.38671e-06
-6.43516e-06
-6.48305e-06
-6.5304e-06
-6.5772e-06
-6.62348e-06
-6.66924e-06
-6.71448e-06
-6.75921e-06
-6.80342e-06
-6.84714e-06
-6.89038e-06
-6.93315e-06
-6.97544e-06
-7.01725e-06
-7.0586e-06
-7.0995e-06
-7.13996e-06
-7.17996e-06
-7.21953e-06
-7.25866e-06
-7.29737e-06
-7.33566e-06
-7.37354e-06
-7.411e-06
-7.44806e-06
-7.48471e-06
-7.52097e-06
-7.55684e-06
-7.59233e-06
-7.62743e-06
-7.66217e-06
-7.69653e-06
-7.73052e-06
-7.76415e-06
-7.79743e-06
-7.83034e-06
-7.86292e-06
-7.89515e-06
-7.92704e-06
-7.95859e-06
-7.98981e-06
-8.02071e-06
-8.05127e-06
-8.08151e-06
-8.11144e-06
-8.14105e-06
-8.17036e-06
-8.19936e-06
-8.22805e-06
-8.25645e-06
-8.28455e-06
-8.31235e-06
-8.33987e-06
-8.36711e-06
-8.39407e-06
-8.42074e-06
-8.44713e-06
-8.47326e-06
-8.49911e-06
-8.52469e-06
-8.55002e-06
-8.57508e-06
-8.59988e-06
-8.62443e-06
-8.64872e-06
-8.67276e-06
-8.69656e-06
-8.72011e-06
-8.74343e-06
-8.76651e-06
-8.78935e-06
-8.81195e-06
-8.83432e-06
-8.85645e-06
-8.87837e-06
-8.90007e-06
-8.92155e-06
-8.9428e-06
-8.96383e-06
-8.98464e-06
-9.00526e-06
-9.02566e-06
-9.04585e-06
-9.06583e-06
-9.08561e-06
-9.10519e-06
-9.12457e-06
-9.14376e-06
-9.16275e-06
-9.18154e-06
-9.20015e-06
-9.21856e-06
-9.23679e-06
-9.25484e-06
-9.2727e-06
-9.29038e-06
-9.30789e-06
-9.32521e-06
-9.34236e-06
-9.35933e-06
-9.37613e-06
-9.39277e-06
-9.40924e-06
-9.42554e-06
-9.44166e-06
-9.45763e-06
-9.47344e-06
-9.48909e-06
-9.50459e-06
-9.51992e-06
-9.53509e-06
-9.55011e-06
-9.56498e-06
-9.57971e-06
-9.59428e-06
-9.60871e-06
-9.62299e-06
-9.63713e-06
-9.65113e-06
-9.66499e-06
-9.6787e-06
-9.69228e-06
-9.70571e-06
-9.71901e-06
-9.73217e-06
-9.7452e-06
-9.75811e-06
-9.77089e-06
-9.78353e-06
-9.79604e-06
-9.80843e-06
-9.8207e-06
-9.83284e-06
-9.84486e-06
-9.85676e-06
-9.86853e-06
-9.88019e-06
-9.89173e-06
-9.90316e-06
-9.91448e-06
-9.92568e-06
-9.93675e-06
-9.94771e-06
-9.95857e-06
-9.96933e-06
-9.97998e-06
-9.9905e-06
-1.00009e-05
-1.00112e-05
-1.00215e-05
-1.00316e-05
-1.00416e-05
-1.00515e-05
-1.00613e-05
-1.0071e-05
-1.00807e-05
-1.00902e-05
-1.00996e-05
-1.01089e-05
-1.01182e-05
-1.01273e-05
-1.01363e-05
-1.01453e-05
-1.01542e-05
-1.01629e-05
-1.01716e-05
-1.01802e-05
-1.01888e-05
-1.01972e-05
-1.02055e-05
-1.02138e-05
-1.0222e-05
-1.02301e-05
-1.02381e-05
-1.0246e-05
-1.02538e-05
-1.02616e-05
-1.02693e-05
-1.02769e-05
-1.02845e-05
-1.02919e-05
-1.02993e-05
-1.03066e-05
-1.03139e-05
-1.0321e-05
-1.03281e-05
-1.03351e-05
-1.03421e-05
-1.0349e-05
-1.03558e-05
-1.03625e-05
-1.03692e-05
-1.03758e-05
-1.03823e-05
-1.03888e-05
-1.03952e-05
-1.04015e-05
-1.04078e-05
-1.0414e-05
-1.04202e-05
-1.04263e-05
-1.04323e-05
-1.04383e-05
-1.04442e-05
-1.045e-05
-1.04558e-05
-1.04616e-05
-1.04672e-05
-1.04728e-05
-1.04784e-05
-1.04839e-05
-1.04893e-05
-1.04947e-05
-1.05001e-05
-1.05053e-05
-1.05106e-05
-1.05158e-05
-1.05209e-05
-1.05259e-05
-1.0531e-05
-1.05359e-05
-1.05409e-05
-1.05457e-05
-1.05505e-05
-1.05553e-05
-1.056e-05
-1.05647e-05
-1.05693e-05
-1.05739e-05
-1.05784e-05
-1.05829e-05
-1.05874e-05
-1.05918e-05
-1.05961e-05
-1.06004e-05
-1.06047e-05
-1.06089e-05
-1.06131e-05
-1.06172e-05
-1.06213e-05
-1.06254e-05
-1.06294e-05
-1.06334e-05
-1.06373e-05
-1.06412e-05
-1.06451e-05
-1.06489e-05
-1.06526e-05
-1.06564e-05
-1.06601e-05
-1.06637e-05
-1.06673e-05
-1.06709e-05
-1.06745e-05
-1.0678e-05
-1.06815e-05
-1.06849e-05
-1.06883e-05
-1.06917e-05
-1.0695e-05
-1.06984e-05
-1.07016e-05
-1.07049e-05
-1.07081e-05
-1.07112e-05
-1.07144e-05
-1.07175e-05
-1.07206e-05
-1.07236e-05
-1.07266e-05
-1.07296e-05
-1.07326e-05
-1.07355e-05
-1.07384e-05
-1.07413e-05
-1.07441e-05
-1.07469e-05
-1.07497e-05
-1.07524e-05
-1.07552e-05
-1.07578e-05
-1.07605e-05
-1.07632e-05
-1.07658e-05
-1.07684e-05
-1.07709e-05
-1.07734e-05
-1.0776e-05
-1.07784e-05
-1.07809e-05
-1.07833e-05
-1.07857e-05
-1.07881e-05
-1.07905e-05
-1.07928e-05
-1.07951e-05
-1.07974e-05
-1.07997e-05
-1.08019e-05
-1.08042e-05
-1.08063e-05
-1.08085e-05
-1.08107e-05
-1.08128e-05
-1.08149e-05
-1.0817e-05
-1.08191e-05
-1.08211e-05
-1.08231e-05
-1.08251e-05
-1.08271e-05
-1.08291e-05
-1.0831e-05
-1.08329e-05
-1.08348e-05
-1.08367e-05
-1.08386e-05
-1.08404e-05
-1.08423e-05
-1.08441e-05
-1.08459e-05
-1.08476e-05
-1.08494e-05
-1.08511e-05
-1.08529e-05
-1.08546e-05
-1.08562e-05
-1.08579e-05
-1.08596e-05
-1.08612e-05
-1.08628e-05
-1.08644e-05
-1.0866e-05
-1.08675e-05
-1.08691e-05
-1.08706e-05
-1.08722e-05
-1.08737e-05
-1.08752e-05
-1.08766e-05
-1.08781e-05
-1.08795e-05
-1.0881e-05
-1.08824e-05
-1.08838e-05
-1.08852e-05
-1.08865e-05
-1.08879e-05
-1.08892e-05
-1.08906e-05
-1.08919e-05
-1.08932e-05
-1.08945e-05
-1.08957e-05
-1.0897e-05
-1.08983e-05
-1.08995e-05
-1.09007e-05
-1.09019e-05
-1.09031e-05
-1.09043e-05
-1.09055e-05
-1.09067e-05
-1.09078e-05
-1.0909e-05
-1.09101e-05
-1.09112e-05
-1.09123e-05
-1.09134e-05
-1.09145e-05
-1.09156e-05
-1.09166e-05
-1.09177e-05
-1.09187e-05
-1.09197e-05
-1.09208e-05
-1.09218e-05
-1.09228e-05
-1.09238e-05
-1.09247e-05
-1.09257e-05
-1.09267e-05
-1.09276e-05
-1.09286e-05
-1.09295e-05
-1.09304e-05
-1.09313e-05
-1.09322e-05
-1.09331e-05
-1.0934e-05
-1.09349e-05
-1.09357e-05
-1.09366e-05
-1.09374e-05
-1.09383e-05
-1.09391e-05
-1.09399e-05
-1.09407e-05
-1.09415e-05
-1.09423e-05
-1.09431e-05
-1.09439e-05
-1.09447e-05
-1.09454e-05
-1.09462e-05
-1.09469e-05
-1.09477e-05
-1.09484e-05
-1.09491e-05
-1.09499e-05
-1.09506e-05
-1.09513e-05
-1.0952e-05
-1.09527e-05
-1.09534e-05
-1.0954e-05
-1.09547e-05
-1.09554e-05
-1.0956e-05
-1.09567e-05
-1.09573e-05
-1.09579e-05
-1.09586e-05
-1.09592e-05
-1.09598e-05
-1.09604e-05