# vtk DataFile Version 2.0
FlowField
ASCII
DATASET STRUCTURED_GRID
DIMENSIONS 800 1 200
POINTS 160000 float
0 0 0
0.04 0 0
0.08 0 0
0.12 0 0
0.16 0 0
0.2 0 0
0.24 0 0
0.28 0 0
0.32 0 0
0.36 0 0
0.4 0 0
0.44 0 0
0.48 0 0
0.52 0 0
0.56 0 0
0.6 0 0
0.64 0 0
0.68 0 0
0.72 0 0
0.76 0 0
0.8 0 0
0.84 0 0
0.88 0 0
0.92 0 0
0.96 0 0
1 0 0
1.04 0 0
1.08 0 0
1.12 0 0
1.16 0 0
1.2 0 0
1.24 0 0
1.28 0 0
1.32 0 0
1.36 0 0
1.4 0 0
1.44 0 0
1.48 0 0
1.52 0 0
1.56 0 0
1.6 0 0
1.64 0 0
1.68 0 0
1.72 0 0
1.76 0 0
1.8 0 0
1.84 0 0
1.88 0 0
1.92 0 0
1.96 0 0
2 0 0
2.04 0 0
2.08 0 0
2.12 0 0
2.16 0 0
2.2 0 0
2.24 0 0
2.28 0 0
2.32 0 0
2.36 0 0
2.4 0 0
2.44 0 0
2.48 0 0
2.52 0 0
2.56 0 0
2.6 0 0
2.64 0 0
2.68 0 0
2.72 0 0
2.76 0 0
2.8 0 0
2.84 0 0
2.88 0 0
2.92 0 0
2.96 0 0
3 0 0
3.04 0 0
3.08 0 0
3.12 0 0
3.16 0 0
3.2 0 0
3.24 0 0
3.28 0 0
3.32 0 0
3.36 0 0
3.4 0 0
3.44 0 0
3.48 0 0
3.52 0 0
3.56 0 0
3.6 0 0
3.64 0 0
3.68 0 0
3.72 0 0
3.76 0 0
3.8 0 0
3.84 0 0
3.88 0 0
3.92 0 0
3.96 0 0
4 0 0
4.04 0 0
4.08 0 0
4.12 0 0
4.16 0 0
4.2 0 0
4.24 0 0
4.28 0 0
4.32 0 0
4.36 0 0
4.4 0 0
4.44 0 0
4.48 0 0
4.52 0 0
4.56 0 0
4.6 0 0
4.64 0 0
4.68 0 0
4.72 0 0
4.76 0 0
4.8 0 0
4.84 0 0
4.88 0 0
4.92 0 0
4.96 0 0
5 0 0
5.04 0 0
5.08 0 0
5.12 0 0
5.16 0 0
5.2 0 0
5.24 0 0
5.28 0 0
5.32 0 0
5.36 0 0
5.4 0 0
5.44 0 0
5.48 0 0
5.52 0 0
5.56 0 0
5.6 0 0
5.64 0 0
5.68 0 0
5.72 0 0
5.76 0 0
5.8 0 0
5.84 0 0
5.88 0 0
5.92 0 0
5.96 0 0
6 0 0
6.04 0 0
6.08 0 0
6.12 0 0
6.16 0 0
6.2 0 0
6.24 0 0
6.28 0 0
6.32 0 0
6.36 0 0
6.4 0 0
6.44 0 0
6.48 0 0
6.52 0 0
6.56 0 0
6.6 0 0
6.64 0 0
6.68 0 0
6.72 0 0
6.76 0 0
6.8 0 0
6.84 0 0
6.88 0 0
6.92 0 0
6.96 0 0
7 0 0
7.04 0 0
7.08 0 0
7.12 0 0
7.16 0 0
7.2 0 0
7.24 0 0
7.28 0 0
7.32 0 0
7.36 0 0
7.4 0 0
7.44 0 0
7.48 0 0
7.52 0 0
7.56 0 0
7.6 0 0
7.64 0 0
7.68 0 0
7.72 0 0
7.76 0 0
7.8 0 0
7.84 0 0
7.88 0 0
7.92 0 0
7.96 0 0
8 0 0
8.04 0 0
8.08 0 0
8.12 0 0
8.16 0 0
8.2 0 0
8.24 0 0
8.28 0 0
8.32 0 0
8.36 0 0
8.4 0 0
8.44 0 0
8.48 0 0
8.52 0 0
8.56 0 0
8.6 0 0
8.64 0 0
8.68 0 0
8.72 0 0
8.76 0 0
8.8 0 0
8.84 0 0
8.88 0 0
8.92 0 0
8.96 0 0
9 0 0
9.04 0 0
9.08 0 0
9.12 0 0
9.16 0 0
9.2 0 0
9.24 0 0
9.28 0 0
9.32 0 0
9.36 0 0
9.4 0 0
9.44 0 0
9.48 0 0
9.52 0 0
9.56 0 0
9.6 0 0
9.64 0 0
9.68 0 0
9.72 0 0
9.76 0 0
9.8 0 0
9.84 0 0
9.88 0 0
9.92 0 0
9.96 0 0
10 0 0
10.04 0 0
10.08 0 0
10.12 0 0
10.16 0 0
10.2 0 0
10.24 0 0
10.28 0 0
10.32 0 0
10.36 0 0
10.4 0 0
10.44 0 0
10.48 0 0
10.52 0 0
10.56 0 0
10.6 0 0
10.64 0 0
10.68 0 0
10.72 0 0
10.76 0 0
10.8 0 0
10.84 0 0
10.88 0 0
10.92 0 0
10.96 0 0
11 0 0
11.04 0 0
11.08 0 0
11.12 0 0
11.16 0 0
11.2 0 0
11.24 0 0
11.28 0 0
11.32 0 0
11.36 0 0
11.4 0 0
11.44 0 0
11.48 0 0
11.52 0 0
11.56 0 0
11.6 0 0
11.64 0 0
11.68 0 0
11.72 0 0
11.76 0 0
11.8 0 0
11.84 0 0
11.88 0 0
11.92 0 0
11.96 0 0
12 0 0
12.04 0 0
12.08 0 0
12.12 0 0
12.16 0 0
12.2 0 0
12.24 0 0
12.28 0 0
12.32 0 0
12.36 0 0
12.4 0 0
12.44 0 0
12.48 0 0
12.52 0 0
12.56 0 0
12.6 0 0
12.64 0 0
12.68 0 0
12.72 0 0
12.76 0 0
12.8 0 0
12.84 0 0
12.88 0 0
12.92 0 0
12.96 0 0
13 0 0
13.04 0 0
13.08 0 0
13.12 0 0
13.16 0 0
13.2 0 0
13.24 0 0
13.28 0 0
13.32 0 0
13.36 0 0
13.4 0 0
13.44 0 0
13.48 0 0
13.52 0 0
13.56 0 0
13.6 0 0
13.64 0 0
13.68 0 0
13.72 0 0
13.76 0 0
13.8 0 0
13.84 0 0
13.88 0 0
13.92 0 0
13.96 0 0
14 0 0
14.04 0 0
14.08 0 0
14.12 0 0
14.16 0 0
14.2 0 0
14.24 0 0
14.28 0 0
14.32 0 0
14.36 0 0
14.4 0 0
14.44 0 0
14.48 0 0
14.52 0 0
14.56 0 0
14.6 0 0
14.64 0 0
14.68 0 0
14.72 0 0
14.76 0 0
14.8 0 0
14.84 0 0
14.88 0 0
14.92 0 0
14.96 0 0
15 0 0
15.04 0 0
15.08 0 0
15.12 0 0
15.16 0 0
15.2 0 0
15.24 0 0
15.28 0 0
15.32 0 0
15.36 0 0
15.4 0 0
15.44 0 0
15.48 0 0
15.52 0 0
15.56 0 0
15.6 0 0
15.64 0 0
15.68 0 0
15.72 0 0
15.76 0 0
15.8 0 0
15.84 0 0
15.88 0 0
15.92 0 0
15.96 0 0
16 0 0
16.04 0 0
16.08 0 0
16.12 0 0
16.16 0 0
16.2 0 0
16.24 0 0
16.28 0 0
16.32 0 0
16.36 0 0
16.4 0 0
16.44 0 0
16.48 0 0
16.52 0 0
16.56 0 0
16.6 0 0
16.64 0 0
16.68 0 0
16.72 0 0
16.76 0 0
16.8 0 0
16.84 0 0
16.88 0 0
16.92 0 0
16.96 0 0
17 0 0
17.04 0 0
17.08 0 0
17.12 0 0
17.16 0 0
17.2 0 0
17.24 0 0
17.28 0 0
17.32 0 0
17.36 0 0
17.4 0 0
17.44 0 0
17.48 0 0
17.52 0 0
17.56 0 0
17.6 0 0
17.64 0 0
17.68 0 0
17.72 0 0
17.76 0 0
17.8 0 0
17.84 0 0
17.88 0 0
17.92 0 0
17.96 0 0
18 0 0
18.04 0 0
18.08 0 0
18.12 0 0
18.16 0 0
18.2 0 0
18.24 0 0
18.28 0 0
18.32 0 0
18.36 0 0
18.4 0 0
18.44 0 0
18.48 0 0
18.52 0 0
18.56 0 0
18.6 0 0
18.64 0 0
18.68 0 0
18.72 0 0
18.76 0 0
18.8 0 0
18.84 0 0
18.88 0 0
18.92 0 0
18.96 0 0
19 0 0
19.04 0 0
19.08 0 0
19.12 0 0
19.16 0 0
19.2 0 0
19.24 0 0
19.28 0 0
19.32 0 0
19.36 0 0
19.4 0 0
19.44 0 0
19.48 0 0
19.52 0 0
19.56 0 0
19.6 0 0
19.64 0 0
19.68 0 0
19.72 0 0
19.76 0 0
19.8 0 0
19.84 0 0
19.88 0 0
19.92 0 0
19.96 0 0
20 0 0
20.04 0 0
20.08 0 0
20.12 0 0
20.16 0 0
20.2 0 0
20.24 0 0
20.28 0 0
20.32 0 0
20.36 0 0
20.4 0 0
20.44 0 0
20.48 0 0
20.52 0 0
20.56 0 0
20.6 0 0
20.64 0 0
20.68 0 0
20.72 0 0
20.76 0 0
20.8 0 0
20.84 0 0
20.88 0 0
20.92 0 0
20.96 0 0
21 0 0
21.04 0 0
21.08 0 0
21.12 0 0
21.16 0 0
21.2 0 0
21.24 0 0
21.28 0 0
21.32 0 0
21.36 0 0
21.4 0 0
21.44 0 0
21.48 0 0
21.52 0 0
21.56 0 0
21.6 0 0
21.64 0 0
21.68 0 0
21.72 0 0
21.76 0 0
21.8 0 0
21.84 0 0
21.88 0 0
21.92 0 0
21.96 0 0
22 0 0
22.04 0 0
22.08 0 0
22.12 0 0
22.16 0 0
22.2 0 0
22.24 0 0
22.28 0 0
22.32 0 0
22.36 0 0
22.4 0 0
22.44 0 0
22.48 0 0
22.52 0 0
22.56 0 0
22.6 0 0
22.64 0 0
22.68 0 0
22.72 0 0
22.76 0 0
22.8 0 0
22.84 0 0
22.88 0 0
22.92 0 0
22.96 0 0
23 0 0
23.04 0 0
23.08 0 0
23.12 0 0
23.16 0 0
23.2 0 0
23.24 0 0
23.28 0 0
23.32 0 0
23.36 0 0
23.4 0 0
23.44 0 0
23.48 0 0
23.52 0 0
23.56 0 0
23.6 0 0
23.64 0 0
23.68 0 0
23.72 0 0
23.76 0 0
23.8 0 0
23.84 0 0
23.88 0 0
23.92 0 0
23.96 0 0
24 0 0
24.04 0 0
24.08 0 0
24.12 0 0
24.16 0 0
24.2 0 0
24.24 0 0
24.28 0 0
24.32 0 0
24.36 0 0
24.4 0 0
24.44 0 0
24.48 0 0
24.52 0 0
24.56 0 0
24.6 0 0
24.64 0 0
24.68 0 0
24.72 0 0
24.76 0 0
24.8 0 0
24.84 0 0
24.88 0 0
24.92 0 0
24.96 0 0
25 0 0
25.04 0 0
25.08 0 0
25.12 0 0
25.16 0 0
25.2 0 0
25.24 0 0
25.28 0 0
25.32 0 0
25.36 0 0
25.4 0 0
25.44 0 0
25.48 0 0
25.52 0 0
25.56 0 0
25.6 0 0
25.64 0 0
25.68 0 0
25.72 0 0
25.76 0 0
25.8 0 0
25.84 0 0
25.88 0 0
25.92 0 0
25.96 0 0
26 0 0
26.04 0 0
26.08 0 0
26.12 0 0
26.16 0 0
26.2 0 0
26.24 0 0
26.28 0 0
26.32 0 0
26.36 0 0
26.4 0 0
26.44 0 0
26.48 0 0
26.52 0 0
26.56 0 0
26.6 0 0
26.64 0 0
26.68 0 0
26.72 0 0
26.76 0 0
26.8 0 0
26.84 0 0
26.88 0 0
26.92 0 0
26.96 0 0
27 0 0
27.04 0 0
27.08 0 0
27.12 0 0
27.16 0 0
27.2 0 0
27.24 0 0
27.28 0 0
27.32 0 0
27.36 0 0
27.4 0 0
27.44 0 0
27.48 0 0
27.52 0 0
27.56 0 0
27.6 0 0
27.64 0 0
27.68 0 0
27.72 0 0
27.76 0 0
27.8 0 0
27.84 0 0
27.88 0 0
27.92 0 0
27.96 0 0
28 0 0
28.04 0 0
28.08 0 0
28.12 0 0
28.16 0 0
28.2 0 0
28.24 0 0
28.28 0 0
28.32 0 0
28.36 0 0
28.4 0 0
28.44 0 0
28.48 0 0
28.52 0 0
28.56 0 0
28.6 0 0
28.64 0 0
28.68 0 0
28.72 0 0
28.76 0 0
28.8 0 0
28.84 0 0
28.88 0 0
28.92 0 0
28.96 0 0
29 0 0
29.04 0 0
29.08 0 0
29.12 0 0
29.16 0 0
29.2 0 0
29.24 0 0
29.28 0 0
29.32 0 0
29.36 0 0
29.4 0 0
29.44 0 0
29.48 0 0
29.52 0 0
29.56 0 0
29.6 0 0
29.64 0 0
29.68 0 0
29.72 0 0
29.76 0 0
29.8 0 0
29.84 0 0
29.88 0 0
29.92 0 0
29.96 0 0
30 0 0
30.04 0 0
30.08 0 0
30.12 0 0
30.16 0 0
30.2 0 0
30.24 0 0
30.28 0 0
30.32 0 0
30.36 0 0
30.4 0 0
30.44 0 0
30.48 0 0
30.52 0 0
30.56 0 0
30.6 0 0
30.64 0 0
30.68 0 0
30.72 0 0
30.76 0 0
30.8 0 0
30.84 0 0
30.88 0 0
30.92 0 0
30.96 0 0
31 0 0
31.04 0 0
31.08 0 0
31.12 0 0
31.16 0 0
31.2 0 0
31.24 0 0
31.28 0 0
31.32 0 0
31.36 0 0
31.4 0 0
31.44 0 0
31.48 0 0
31.52 0 0
31.56 0 0
31.6 0 0
31.64 0 0
31.68 0 0
31.72 0 0
31.76 0 0
31.8 0 0
31.84 0 0
31.88 0 0
31.92 0 0
31.96 0 0
0 0.005 0
0.04 0.005 0
0.08 0.005 0
0.12 0.005 0
0.16 0.005 0
0.2 0.005 0
0.24 0.005 0
0.28 0.005 0
0.32 0.005 0
0.36 0.005 0
0.4 0.005 0
0.44 0.005 0
0.48 0.005 0
0.52 0.005 0
0.56 0.005 0
0.6 0.005 0
0.64 0.005 0
0.68 0.005 0
0.72 0.005 0
0.76 0.005 0
0.8 0.005 0
0.84 0.005 0
0.88 0.005 0
0.92 0.005 0
0.96 0.005 0
1 0.005 0
1.04 0.005 0
1.08 0.005 0
1.12 0.005 0
1.16 0.005 0
1.2 0.005 0
1.24 0.005 0
1.28 0.005 0
1.32 0.005 0
1.36 0.005 0
1.4 0.005 0
1.44 0.005 0
1.48 0.005 0
1.52 0.005 0
1.56 0.005 0
1.6 0.005 0
1.64 0.005 0
1.68 0.005 0
1.72 0.005 0
1.76 0.005 0
1.8 0.005 0
1.84 0.005 0
1.88 0.005 0
1.92 0.005 0
1.96 0.005 0
2 0.005 0
2.04 0.005 0
2.08 0.005 0
2.12 0.005 0
2.16 0.005 0
2.2 0.005 0
2.24 0.005 0
2.28 0.005 0
2.32 0.005 0
2.36 0.005 0
2.4 0.005 0
2.44 0.005 0
2.48 0.005 0
2.52 0.005 0
2.56 0.005 0
2.6 0.005 0
2.64 0.005 0
2.68 0.005 0
2.72 0.005 0
2.76 0.005 0
2.8 0.005 0
2.84 0.005 0
2.88 0.005 0
2.92 0.005 0
2.96 0.005 0
3 0.005 0
3.04 0.005 0
3.08 0.005 0
3.12 0.005 0
3.16 0.005 0
3.2 0.005 0
3.24 0.005 0
3.28 0.005 0
3.32 0.005 0
3.36 0.005 0
3.4 0.005 0
3.44 0.005 0
3.48 0.005 0
3.52 0.005 0
3.56 0.005 0
3.6 0.005 0
3.64 0.005 0
3.68 0.005 0
3.72 0.005 0
3.76 0.005 0
3.8 0.005 0
3.84 0.005 0
3.88 0.005 0
3.92 0.005 0
3.96 0.005 0
4 0.005 0
4.04 0.005 0
4.08 0.005 0
4.12 0.005 0
4.16 0.005 0
4.2 0.005 0
4.24 0.005 0
4.28 0.005 0
4.32 0.005 0
4.36 0.005 0
4.4 0.005 0
4.44 0.005 0
4.48 0.005 0
4.52 0.005 0
4.56 0.005 0
4.6 0.005 0
4.64 0.005 0
4.68 0.005 0
4.72 0.005 0
4.76 0.005 0
4.8 0.005 0
4.84 0.005 0
4.88 0.005 0
4.92 0.005 0
4.96 0.005 0
5 0.005 0
5.04 0.005 0
5.08 0.005 0
5.12 0.005 0
5.16 0.005 0
5.2 0.005 0
5.24 0.005 0
5.28 0.005 0
5.32 0.005 0
5.36 0.005 0
5.4 0.005 0
5.44 0.005 0
5.48 0.005 0
5.52 0.005 0
5.56 0.005 0
5.6 0.005 0
5.64 0.005 0
5.68 0.005 0
5.72 0.005 0
5.76 0.005 0
5.8 0.005 0
5.84 0.005 0
5.88 0.005 0
5.92 0.005 0
5.96 0.005 0
6 0.005 0
6.04 0.005 0
6.08 0.005 0
6.12 0.005 0
6.16 0.005 0
6.2 0.005 0
6.24 0.005 0
6.28 0.005 0
6.32 0.005 0
6.36 0.005 0
6.4 0.005 0
6.44 0.005 0
6.48 0.005 0
6.52 0.005 0
6.56 0.005 0
6.6 0.005 0
6.64 0.005 0
6.68 0.005 0
6.72 0.005 0
6.76 0.005 0
6.8 0.005 0
6.84 0.005 0
6.88 0.005 0
6.92 0.005 0
6.96 0.005 0
7 0.005 0
7.04 0.005 0
7.08 0.005 0
7.12 0.005 0
7.16 0.005 0
7.2 0.005 0
7.24 0.005 0
7.28 0.005 0
7.32 0.005 0
7.36 0.005 0
7.4 0.005 0
[...]
POINT_DATA 160000

SCALARS p float 1
LOOKUP_TABLE default
1
24.2804
22.065
21.8101
21.75
21.7236
21.7075
21.6959
21.6867
21.6788
21.6719
21.6656
21.6597
21.6541
21.6488
21.6437
21.6387
21.6339
21.6292
21.6246
21.6201
21.6156
21.6112
21.6069
21.6026
21.5984
21.5942
21.5901
21.5861
21.582
21.5781
21.5742
21.5703
21.5665
21.5627
21.5589
21.5552
21.5516
21.5479
21.5443
21.5408
21.5372
21.5338
21.5303
21.5269
21.5235
21.5201
21.5168
21.5135
21.5102
21.5069
21.5037
21.5005
21.4974
21.4942
21.4911
21.488
21.4849
21.4819
21.4788
21.4758
21.4728
21.4699
21.4669
21.464
21.4611
21.4582
21.4553
21.4524
21.4496
21.4468
21.444
21.4412
21.4384
21.4357
21.4329
21.4302
21.4275
21.4248
21.4221
21.4194
21.4168
21.4142
21.4115
21.4089
21.4063
21.4037
21.4011
21.3986
21.396
21.3935
21.391
21.3884
21.3859
21.3834
21.381
21.3785
21.376
21.3736
21.3711
21.3687
21.3663
21.3638
21.3614
21.359
21.3567
21.3543
21.3519
21.3496
21.3472
21.3449
21.3425
21.3402
21.3379
21.3356
21.3333
21.331
21.3287
21.3264
21.3242
21.3219
21.3196
21.3174
21.3152
21.3129
21.3107
21.3085
21.3063
21.3041
21.3019
21.2997
21.2975
21.2953
21.2931
21.291
21.2888
21.2866
21.2845
21.2824
21.2802
21.2781
21.276
21.2738
21.2717
21.2696
21.2675
21.2654
21.2633
21.2613
21.2592
21.2571
21.255
21.253
21.2509
21.2489
21.2468
21.2448
21.2427
21.2407
21.2387
21.2366
21.2346
21.2326
21.2306
21.2286
21.2266
21.2246
21.2226
21.2206
21.2187
21.2167
21.2147
21.2128
21.2108
21.2089
21.2069
21.205
21.203
21.2011
21.1992
21.1972
21.1953
21.1934
21.1915
21.1896
21.1877
21.1858
21.1839
21.182
21.1802
21.1783
21.1764
21.1746
21.1727
21.1708
21.169
21.1671
21.1653
21.1635
21.1616
21.1598
21.158
21.1562
21.1543
21.1525
21.1507
21.1489
21.1471
21.1453
21.1435
21.1418
21.14
21.1382
21.1364
21.1346
21.1329
21.1311
21.1293
21.1276
21.1258
21.1241
21.1223
21.1206
21.1188
21.1171
21.1153
21.1136
21.1119
21.1101
21.1084
21.1067
21.105
21.1032
21.1015
21.0998
21.0981
21.0964
21.0947
21.093
21.0913
21.0896
21.0879
21.0862
21.0845
21.0828
21.0811
21.0794
21.0777
21.076
21.0743
21.0726
21.0709
21.0693
21.0676
21.0659
21.0642
21.0625
21.0609
21.0592
21.0575
21.0558
21.0542
21.0525
21.0508
21.0492
21.0475
21.0458
21.0442
21.0425
21.0408
21.0392
21.0375
21.0358
21.0342
21.0325
21.0308
21.0292
21.0275
21.0259
21.0242
21.0226
21.0209
21.0192
21.0176
21.0159
21.0143
21.0126
21.0109
21.0093
21.0076
21.006
21.0043
21.0027
21.001
20.9993
20.9977
20.996
20.9944
20.9927
20.9911
20.9894
20.9877
20.9861
20.9844
20.9828
20.9811
20.9795
20.9778
20.9761
20.9745
20.9728
20.9712
20.9695
20.9679
20.9662
20.9646
20.9629
20.9612
20.9596
20.9579
20.9563
20.9546
20.953
20.9513
20.9496
20.948
20.9463
20.9447
20.943
20.9414
20.9397
20.9381
20.9364
20.9347
20.9331
20.9314
20.9298
20.9281
20.9265
20.9248
20.9231
20.9215
20.9198
20.9182
20.9165
20.9149
20.9132
20.9116
20.9099
20.9082
20.9066
20.9049
20.9033
20.9016
20.9
20.8983
20.8967
20.895
20.8933
20.8917
20.89
20.8884
20.8867
20.8851
20.8834
20.8817
20.8801
20.8784
20.8768
20.8751
20.8735
20.8718
20.8702
20.8685
20.8668
20.8652
20.8635
20.8619
20.8602
20.8586
20.8569
20.8553
20.8536
20.852
20.8503
20.8486
20.847
20.8453
20.8437
20.842
20.8404
20.8387
20.8371
20.8354
20.8337
20.8321
20.8304
20.8288
20.8271
20.8255
20.8238
20.8222
20.8205
20.8189
20.8172
20.8155
20.8139
20.8122
20.8106
20.8089
20.8073
20.8056
20.804
20.8023
20.8006
20.799
20.7973
20.7957
20.794
20.7924
20.7907
20.7891
20.7874
20.7858
20.7841
20.7824
20.7808
20.7791
20.7775
20.7758
20.7742
20.7725
20.7709
20.7692
20.7676
20.7659
20.7643
20.7626
20.7609
20.7593
20.7576
20.756
20.7543
20.7527
20.751
20.7494
20.7477
20.7461
20.7444
20.7427
20.7411
20.7394
20.7378
20.7361
20.7345
20.7328
20.7312
20.7295
20.7279
20.7262
20.7246
20.7229
20.7212
20.7196
20.7179
20.7163
20.7146
20.713
20.7113
20.7097
20.708
20.7064
20.7047
20.7031
20.7014
20.6997
20.6981
20.6964
20.6948
20.6931
20.6915
20.6898
20.6882
20.6865
20.6849
20.6832
20.6816
20.6799
20.6783
20.6766
20.6749
20.6733
20.6716
20.67
20.6683
20.6667
20.665
20.6634
20.6617
20.6601
20.6584
20.6568
20.6551
20.6535
20.6518
20.6502
20.6485
20.6468
20.6452
20.6435
20.6419
20.6402
20.6386
20.6369
20.6353
20.6336
20.632
20.6303
20.6287
20.627
20.6254
20.6237
20.6221
20.6204
20.6187
20.6171
20.6154
20.6138
20.6121
20.6105
20.6088
20.6072
20.6055
20.6039
20.6022
20.6006
20.5989
20.5973
20.5956
20.594
20.5923
20.5907
20.589
20.5874
20.5857
20.584
20.5824
20.5807
20.5791
20.5774
20.5758
20.5741
20.5725
20.5708
20.5692
20.5675
20.5659
20.5642
20.5626
20.5609
20.5593
20.5576
20.556
20.5543
20.5527
20.551
20.5494
20.5477
20.5461
20.5444
20.5427
20.5411
20.5394
20.5378
20.5361
20.5345
20.5328
20.5312
20.5295
20.5279
20.5262
20.5246
20.5229
20.5213
20.5196
20.518
20.5163
20.5147
20.513
20.5114
20.5097
20.5081
20.5064
20.5048
20.5031
20.5015
20.4998
20.4982
20.4965
20.4949
20.4932
20.4916
20.4899
20.4883
20.4866
20.4849
20.4833
20.4816
20.48
20.4783
20.4767
20.475
20.4734
20.4717
20.4701
20.4684
20.4668
20.4651
20.4635
20.4618
20.4602
20.4585
20.4569
20.4552
20.4536
20.4519
20.4503
20.4486
20.447
20.4453
20.4437
20.442
20.4404
20.4387
20.4371
20.4354
20.4338
20.4321
20.4305
20.4288
20.4272
20.4255
20.4239
20.4222
20.4206
20.4189
20.4173
20.4156
20.414
20.4123
20.4107
20.409
20.4074
20.4057
20.4041
20.4024
20.4008
20.3991
20.3975
20.3958
20.3942
20.3925
20.3909
20.3892
20.3876
20.3859
20.3843
20.3826
20.381
20.3793
20.3777
20.376
20.3744
20.3727
20.3711
20.3694
20.3678
20.3661
20.3645
20.3628
20.3612
20.3595
20.3579
20.3562
20.3546
20.3529
20.3513
20.3496
20.348
20.3463
20.3447
20.343
20.3414
20.3397
20.3381
20.3364
20.3348
20.3331
20.3315
20.3298
20.3282
20.3265
20.3249
20.3232
20.3216
20.3199
20.3183
20.3166
20.315
20.3133
20.3117
20.31
20.3084
20.3067
20.3051
20.3034
20.3018
20.3001
20.2985
20.2968
20.2952
20.2935
20.2919
20.2902
20.2886
20.2869
20.2853
20.2836
20.282
20.2803
20.2787
20.277
20.2754
20.2738
20.2721
20.2705
20.2688
20.2672
20.2655
20.2639
20.2622
20.2606
20.2589
20.2573
20.2556
20.254
20.2523
20.2507
20.249
20.2474
20.2457
20.2441
20.2424
20.2408
20.2391
20.2375
20.2358
20.2342
20.2325
20.2309
20.2292
20.2276
20.2259
20.2243
20.2226
20.221
20.2193
20.2177
20.2161
20.2144
20.2128
20.2111
20.2095
20.2078
20.2062
20.2045
20.2029
20.2012
20.1996
20.1979
20.1963
20.1946
20.193
20.1913
20.1897
20.188
20.1864
20.1847
20.1831
20.1814
20.1798
20.1782
20.1765
20.1749
20.1732
20.1716
20.1699
20.1683
20.1666
1
24.2804
24.2804
22.065
21.8101
21.75
21.7236
21.7075
21.6959
21.6867
21.6788
21.6719
21.6656
21.6597
21.6541
21.6488
21.6437
21.6387
21.6339
21.6292
21.6246
21.6201
21.6156
21.6112
21.6069
21.6026
21.5984
21.5942
21.5901
21.5861
21.582
21.5781
21.5742
21.5703
21.5665
21.5627
21.5589
21.5552
21.5516
21.5479
21.5443
21.5408
21.5372
21.5338
21.5303
21.5269
21.5235
21.5201
21.5168
21.5135
21.5102
21.5069
21.5037
21.5005
21.4974
21.4942
21.4911
21.488
21.4849
21.4819
21.4788
21.4758
21.4728
21.4699
21.4669
21.464
21.4611
21.4582
21.4553
21.4524
21.4496
21.4468
21.444
21.4412
21.4384
21.4357
21.4329
21.4302
21.4275
21.4248
21.4221
21.4194
21.4168
21.4142
21.4115
21.4089
21.4063
21.4037
21.4011
21.3986
21.396
21.3935
21.391
21.3884
21.3859
21.3834
21.381
21.3785
21.376
21.3736
21.3711
21.3687
21.3663
21.3638
21.3614
21.359
21.3567
21.3543
21.3519
21.3496
21.3472
21.3449
21.3425
21.3402
21.3379
21.3356
21.3333
21.331
21.3287
21.3264
21.3242
21.3219
21.3196
21.3174
21.3152
21.3129
21.3107
21.3085
21.3063
21.3041
21.3019
21.2997
21.2975
21.2953
21.2931
21.291
21.2888
21.2866
21.2845
21.2824
21.2802
21.2781
21.276
21.2738
21.2717
21.2696
21.2675
21.2654
21.2633
21.2613
21.2592
21.2571
21.255
21.253
21.2509
21.2489
21.2468
21.2448
21.2427
21.2407
21.2387
21.2366
21.2346
21.2326
21.2306
21.2286
21.2266
21.2246
21.2226
21.2206
21.2187
21.2167
21.2147
21.2128
21.2108
21.2089
21.2069
21.205
21.203
21.2011
21.1992
21.1972
21.1953
21.1934
21.1915
21.1896
21.1877
21.1858
21.1839
21.182
21.1802
21.1783
21.1764
21.1746
21.1727
21.1708
21.169
21.1671
21.1653
21.1635
21.1616
21.1598
21.158
21.1562
21.1543
21.1525
21.1507
21.1489
21.1471
21.1453
21.1435
21.1418
21.14
21.1382
21.1364
21.1346
21.1329
21.1311
21.1293
21.1276
21.1258
21.1241
21.1223
21.1206
21.1188
21.1171
21.1153
21.1136
21.1119
21.1101
21.1084
21.1067
21.105
21.1032
21.1015
21.0998
21.0981
21.0964
21.0947
21.093
21.0913
21.0896
21.0879
21.0862
21.0845
21.0828
21.0811
21.0794
21.0777
21.076
21.0743
21.0726
21.0709
21.0693
21.0676
21.0659
21.0642
21.0625
21.0609
21.0592
21.0575
21.0558
21.0542
21.0525
21.0508
21.0492
21.0475
21.0458
21.0442
21.0425
21.0408
21.0392
21.0375
21.0358
21.0342
21.0325
21.0308
21.0292
21.0275
21.0259
21.0242
21.0226
21.0209
21.0192
21.0176
21.0159
21.0143
21.0126
21.0109
21.0093
21.0076
21.006
21.0043
21.0027
21.001
20.9993
20.9977
20.996
20.9944
20.9927
20.9911
20.9894
20.9877
20.9861
20.9844
20.9828
20.9811
20.9795
20.9778
20.9761
20.9745
20.9728
20.9712
20.9695
20.9679
20.9662
20.9646
20.9629
20.9612
20.9596
20.9579
20.9563
20.9546
20.953
20.9513
20.9496
20.948
20.9463
20.9447
20.943
20.9414
20.9397
20.9381
20.9364
20.9347
20.9331
20.9314
20.9298
20.9281
20.9265
20.9248
20.9231
20.9215
20.9198
20.9182
20.9165
20.9149
20.9132
20.9116
20.9099
20.9082
20.9066
20.9049
20.9033
20.9016
20.9
20.8983
20.8967
20.895
20.8933
20.8917
20.89
20.8884
20.8867
20.8851
20.8834
20.8817
20.8801
20.8784
20.8768
20.8751
20.8735
20.8718
20.8702
20.8685
20.8668
20.8652
20.8635
20.8619
20.8602
20.8586
20.8569
20.8553
20.8536
20.852
20.8503
20.8486
20.847
20.8453
20.8437
20.842
20.8404
20.8387
20.8371
20.8354
20.8337
20.8321
20.8304
20.8288
20.8271
20.8255
20.8238
20.8222
20.8205
20.8189
20.8172
20.8155
20.8139
20.8122
20.8106
20.8089
20.8073
20.8056
20.804
20.8023
20.8006
20.799
20.7973
20.7957
20.794
20.7924
20.7907
20.7891
20.7874
20.7858
20.7841
20.7824
20.7808
20.7791
20.7775
20.7758
20.7742
20.7725
20.7709
20.7692
20.7676
20.7659
20.7643
20.7626
20.7609
20.7593
20.7576
20.756
20.7543
20.7527
20.751
20.7494
20.7477
20.7461
20.7444
20.7427
20.7411
20.7394
20.7378
20.7361
20.7345
20.7328
20.7312
20.7295
20.7279
20.7262
20.7246
20.7229
20.7212
20.7196
20.7179
20.7163
20.7146
20.713
20.7113
20.7097
20.708
20.7064
20.7047
20.7031
20.7014
20.6997
20.6981
20.6964
20.6948
20.6931
20.6915
20.6898
20.6882
20.6865
20.6849
20.6832
20.6816
20.6799
20.6783
20.6766
20.6749
20.6733
20.6716
20.67
20.6683
20.6667
20.665
20.6634
20.6617
20.6601
20.6584
20.6568
20.6551
20.6535
20.6518
20.6502
20.6485
20.6468
20.6452
20.6435
20.6419
20.6402
20.6386
20.6369
20.6353
20.6336
20.632
20.6303
20.6287
20.627
20.6254
20.6237
20.6221
20.6204
20.6187
20.6171
20.6154
20.6138
20.6121
20.6105
20.6088
20.6072
20.6055
20.6039
20.6022
20.6006
20.5989
20.5973
20.5956
20.594
20.5923
20.5907
20.589
20.5874
20.5857
20.584
20.5824
20.5807
20.5791
20.5774
20.5758
20.5741
20.5725
20.5708
20.5692
20.5675
20.5659
20.5642
20.5626
20.5609
20.5593
20.5576
20.556
20.5543
20.5527
20.551
20.5494
20.5477
20.5461
20.5444
20.5427
20.5411
20.5394
20.5378
20.5361
20.5345
20.5328
20.5312
20.5295
20.5279
20.5262
20.5246
20.5229
20.5213
20.5196
20.518
20.5163
20.5147
20.513
20.5114
20.5097
20.5081
20.5064
20.5048
20.5031
20.5015
20.4998
20.4982
20.4965
20.4949
20.4932
20.4916
20.4899
20.4883
20.4866
20.4849
20.4833
20.4816
20.48
20.4783
20.4767
20.475
20.4734
20.4717
20.4701
20.4684
20.4668
20.4651
20.4635
20.4618
20.4602
20.4585
20.4569
20.4552
20.4536
20.4519
20.4503
20.4486
20.447
20.4453
20.4437
20.442
20.4404
20.4387
20.4371
20.4354
20.4338
20.4321
20.4305
20.4288
20.4272
20.4255
20.4239
20.4222
20.4206
20.4189
20.4173
20.4156
20.414
20.4123
20.4107
20.409
20.4074
20.4057
20.4041
20.4024
20.4008
20.3991
20.3975
20.3958
20.3942
20.3925
20.3909
20.3892
20.3876
20.3859
20.3843
20.3826
20.381
20.3793
20.3777
20.376
20.3744
20.3727
20.3711
20.3694
20.3678
20.3661
20.3645
20.3628
20.3612
20.3595
20.3579
20.3562
20.3546
20.3529
20.3513
20.3496
20.348
20.3463
20.3447
20.343
20.3414
20.3397
20.3381
20.3364
20.3348
20.3331
20.3315
20.3298
20.3282
20.3265
20.3249
20.3232
20.3216
20.3199
20.3183
20.3166
20.315
20.3133
20.3117
20.31
20.3084
20.3067
20.3051
20.3034
20.3018
20.3001
20.2985
20.2968
20.2952
20.2935
20.2919
20.2902
20.2886
20.2869
20.2853
20.2836
20.282
20.2803
20.2787
20.277
20.2754
20.2738
20.2721
20.2705
20.2688
20.2672
20.2655
20.2639
20.2622
20.2606
20.2589
20.2573
20.2556
20.254
20.2523
20.2507
20.249
20.2474
20.2457
20.2441
20.2424
20.2408
20.2391
20.2375
20.2358
20.2342
20.2325
20.2309
20.2292
20.2276
20.2259
20.2243
20.2226
20.221
20.2193
20.2177
20.2161
20.2144
20.2128
20.2111
20.2095
20.2078
20.2062
20.2045
20.2029
20.2012
20.1996
20.1979
20.1963
20.1946
20.193
20.1913
20.1897
20.188
20.1864
20.1847
20.1831
20.1814
20.1798
20.1782
20.1765
20.1749
20.1732
20.1716
20.1699
20.1683
20.1666
20.1666
23.6334
23.6334
22.0754
21.8196
21.7541
21.7258
21.7089
21.6969
21.6874
21.6794
21.6723
21.6659
21.66
21.6544
21.649
21.6439
21.6389
21.6341
21.6293
21.6247
21.6202
21.6157
21.6113
21.607
21.6027
21.5985
21.5943
21.5902
21.5861
21.5821
21.5781
21.5742
21.5703
21.5665
21.5627
21.559
21.5553
21.5516
21.548
21.5444
21.5408
21.5373
21.5338
21.5303
21.5269
21.5235
21.5201
21.5168
21.5135
21.5102
21.507
21.5037
21.5005
21.4974
21.4942
21.4911
21.488
21.4849
21.4819
21.4788
21.4758
21.4728
21.4699
21.4669
21.464
21.4611
21.4582
21.4553
21.4525
21.4496
21.4468
21.444
21.4412
21.4384
21.4357
21.4329
21.4302
21.4275
21.4248
21.4221
21.4195
21.4168
21.4142
21.4115
21.4089
21.4063
21.4037
21.4012
21.3986
21.396
21.3935
21.391
21.3885
21.3859
21.3834
21.381
21.3785
21.376
21.3736
21.3711
21.3687
21.3663
21.3639
21.3615
21.3591
21.3567
21.3543
21.3519
21.3496
21.3472
21.3449
21.3425
21.3402
21.3379
21.3356
21.3333
21.331
21.3287
21.3264
21.3242
21.3219
21.3196
21.3174
21.3152
21.3129
21.3107
21.3085
21.3063
21.3041
21.3019
21.2997
21.2975
21.2953
21.2931
21.291
21.2888
21.2867
21.2845
21.2824
21.2802
21.2781
21.276
21.2739
21.2717
21.2696
21.2675
21.2654
21.2633
21.2613
21.2592
21.2571
21.255
21.253
21.2509
21.2489
21.2468
21.2448
21.2427
21.2407
21.2387
21.2367
21.2346
21.2326
21.2306
21.2286
21.2266
21.2246
21.2226
21.2207
21.2187
21.2167
21.2147
21.2128
21.2108
21.2089
21.2069
21.205
21.203
21.2011
21.1992
21.1973
21.1953
21.1934
21.1915
21.1896
21.1877
21.1858
21.1839
21.182
21.1802
21.1783
21.1764
21.1746
21.1727
21.1708
21.169
21.1672
21.1653
21.1635
21.1616
21.1598
21.158
21.1562
21.1544
21.1525
21.1507
21.1489
21.1471
21.1453
21.1435
21.1418
21.14
21.1382
21.1364
21.1346
21.1329
21.1311
21.1293
21.1276
21.1258
21.1241
21.1223
21.1206
21.1188
21.1171
21.1153
21.1136
21.1119
21.1101
21.1084
21.1067
21.105
21.1032
21.1015
21.0998
21.0981
21.0964
21.0947
21.093
21.0913
21.0896
21.0879
21.0862
21.0845
21.0828
21.0811
21.0794
21.0777
21.076
21.0743
21.0726
21.0709
21.0693
21.0676
21.0659
21.0642
21.0625
21.0609
21.0592
21.0575
21.0558
21.0542
21.0525
21.0508
21.0492
21.0475
21.0458
21.0442
21.0425
21.0408
21.0392
21.0375
21.0358
21.0342
21.0325
21.0309
21.0292
21.0275
21.0259
21.0242
21.0226
21.0209
21.0192
21.0176
21.0159
21.0143
21.0126
21.0109
21.0093
21.0076
21.006
21.0043
21.0027
21.001
20.9993
20.9977
20.996
20.9944
20.9927
20.9911
20.9894
20.9878
20.9861
20.9844
20.9828
20.9811
20.9795
20.9778
20.9762
20.9745
20.9728
20.9712
20.9695
20.9679
20.9662
20.9646
20.9629
20.9612
20.9596
20.9579
20.9563
20.9546
20.953
20.9513
20.9496
20.948
20.9463
20.9447
20.943
20.9414
20.9397
20.9381
20.9364
20.9347
20.9331
20.9314
20.9298
20.9281
20.9265
20.9248
20.9231
20.9215
20.9198
20.9182
20.9165
20.9149
20.9132
20.9116
20.9099
20.9082
20.9066
20.9049
20.9033
20.9016
20.9
20.8983
20.8967
20.895
20.8933
20.8917
20.89
20.8884
20.8867
20.8851
20.8834
20.8818
20.8801
20.8784
20.8768
20.8751
20.8735
20.8718
20.8702
20.8685
20.8669
20.8652
20.8635
20.8619
20.8602
20.8586
20.8569
20.8553
20.8536
20.852
20.8503
20.8486
20.847
20.8453
20.8437
20.842
20.8404
20.8387
20.8371
20.8354
20.8337
20.8321
20.8304
20.8288
20.8271
20.8255
20.8238
20.8222
20.8205
20.8189
20.8172
20.8155
20.8139
20.8122
20.8106
20.8089
20.8073
20.8056
20.804
20.8023
20.8007
20.799
20.7973
20.7957
20.794
20.7924
20.7907
20.7891
20.7874
20.7858
20.7841
20.7825
20.7808
20.7791
20.7775
20.7758
20.7742
20.7725
20.7709
20.7692
20.7676
20.7659
20.7643
20.7626
20.7609
20.7593
20.7576
20.756
20.7543
20.7527
20.751
20.7494
20.7477
20.7461
20.7444
20.7428
20.7411
20.7394
20.7378
20.7361
20.7345
20.7328
20.7312
20.7295
20.7279
20.7262
20.7246
20.7229
20.7213
20.7196
20.7179
20.7163
20.7146
20.713
20.7113
20.7097
20.708
20.7064
20.7047
20.7031
20.7014
20.6998
20.6981
20.6964
20.6948
20.6931
20.6915
20.6898
20.6882
20.6865
20.6849
20.6832
20.6816
20.6799
20.6783
20.6766
20.675
20.6733
20.6716
20.67
20.6683
20.6667
20.665
20.6634
20.6617
20.6601
20.6584
20.6568
20.6551
20.6535
20.6518
20.6502
20.6485
20.6469
20.6452
20.6435
20.6419
20.6402
20.6386
20.6369
20.6353
20.6336
20.632
20.6303
20.6287
20.627
20.6254
20.6237
20.6221
20.6204
20.6188
20.6171
20.6154
20.6138
20.6121
20.6105
20.6088
20.6072
20.6055
20.6039
20.6022
20.6006
20.5989
20.5973
20.5956
20.594
20.5923
20.5907
20.589
20.5874
20.5857
20.5841
20.5824
20.5807
20.5791
20.5774
20.5758
20.5741
20.5725
20.5708
20.5692
20.5675
20.5659
20.5642
20.5626
20.5609
20.5593
20.5576
20.556
20.5543
20.5527
20.551
20.5494
20.5477
20.5461
20.5444
20.5428
20.5411
20.5395
20.5378
20.5361
20.5345
20.5328
20.5312
20.5295
20.5279
20.5262
20.5246
20.5229
20.5213
20.5196
20.518
20.5163
20.5147
20.513
20.5114
20.5097
20.5081
20.5064
20.5048
20.5031
20.5015
20.4998
20.4982
20.4965
20.4949
20.4932
20.4916
20.4899
20.4883
20.4866
20.485
20.4833
20.4817
20.48
20.4783
20.4767
20.475
20.4734
20.4717
20.4701
20.4684
20.4668
20.4651
20.4635
20.4618
20.4602
20.4585
20.4569
20.4552
20.4536
20.4519
20.4503
20.4486
20.447
20.4453
20.4437
20.442
20.4404
20.4387
20.4371
20.4354
20.4338
20.4321
20.4305
20.4288
20.4272
20.4255
20.4239
20.4222
20.4206
20.4189
20.4173
20.4156
20.414
20.4123
20.4107
20.409
20.4074
20.4057
20.4041
20.4024
20.4008
20.3991
20.3975
20.3958
20.3942
20.3925
20.3909
20.3892
20.3876
20.3859
20.3843
20.3826
20.381
20.3793
20.3777
20.376
20.3744
20.3727
20.3711
20.3694
20.3678
20.3661
20.3645
20.3628
20.3612
20.3595
20.3579
20.3562
20.3546
20.3529
20.3513
20.3496
20.348
20.3463
20.3447
20.343
20.3414
20.3397
20.3381
20.3364
20.3348
20.3331
20.3315
20.3298
20.3282
20.3265
20.3249
20.3232
20.3216
20.3199
20.3183
20.3166
20.315
20.3133
20.3117
20.31
20.3084
20.3067
20.3051
20.3034
20.3018
20.3001
20.2985
20.2968
20.2952
20.2935
20.2919
20.2902
20.2886
20.2869
20.2853
20.2836
20.282
20.2804
20.2787
20.2771
20.2754
20.2738
20.2721
20.2705
20.2688
20.2672
20.2655
20.2639
20.2622
20.2606
20.2589
20.2573
20.2556
20.254
20.2523
20.2507
20.249
20.2474
20.2457
20.2441
20.2424
20.2408
20.2391
20.2375
20.2358
20.2342
20.2325
20.2309
20.2292
20.2276
20.2259
20.2243
20.2227
20.221
20.2194
20.2177
20.2161
20.2144
20.2128
20.2111
20.2095
20.2078
20.2062
20.2045
20.2029
20.2012
20.1996
20.1979
20.1963
20.1946
20.193
20.1913
20.1897
20.188
20.1864
20.1847
20.1831
20.1814
20.1798
20.1782
20.1765
20.1749
20.1732
20.1716
20.1699
20.1683
20.1666
20.1666
22.9439
22.9439
22.0596
21.8263
21.7578
21.7278
21.7102
21.6978
21.6881
21.6799
21.6728
21.6663
21.6603
21.6546
21.6492
21.6441
21.6391
21.6342
21.6295
21.6248
21.6203
21.6158
21.6114
21.607
21.6027
21.5985
21.5944
21.5902
21.5862
21.5822
21.5782
21.5743
21.5704
21.5666
21.5628
21.559
21.5553
21.5516
21.548
21.5444
21.5408
21.5373
21.5338
21.5304
21.5269
21.5235
21.5202
21.5168
21.5135
21.5102
21.507
21.5038
21.5006
21.4974
21.4942
21.4911
21.488
21.4849
21.4819
21.4789
21.4759
21.4729
21.4699
21.4669
21.464
21.4611
21.4582
21.4553
21.4525
21.4496
21.4468
21.444
21.4412
21.4385
21.4357
21.433
21.4302
21.4275
21.4248
21.4221
21.4195
21.4168
21.4142
21.4115
21.4089
21.4063
21.4037
21.4012
21.3986
21.396
21.3935
21.391
21.3885
21.386
21.3835
21.381
21.3785
21.376
21.3736
21.3711
21.3687
21.3663
21.3639
21.3615
21.3591
21.3567
21.3543
21.3519
21.3496
21.3472
21.3449
21.3425
21.3402
21.3379
21.3356
21.3333
21.331
21.3287
21.3264
21.3242
21.3219
21.3197
21.3174
21.3152
21.3129
21.3107
21.3085