# vtk DataFile Version 2.0
FlowField
ASCII
DATASET STRUCTURED_GRID
DIMENSIONS 800 1 200
POINTS 160000 float
0 0 0
0.04 0 0
0.08 0 0
0.12 0 0
0.16 0 0
0.2 0 0
0.24 0 0
0.28 0 0
0.32 0 0
0.36 0 0
0.4 0 0
0.44 0 0
0.48 0 0
0.52 0 0
0.56 0 0
0.6 0 0
0.64 0 0
0.68 0 0
0.72 0 0
0.76 0 0
0.8 0 0
0.84 0 0
0.88 0 0
0.92 0 0
0.96 0 0
1 0 0
1.04 0 0
1.08 0 0
1.12 0 0
1.16 0 0
1.2 0 0
1.24 0 0
1.28 0 0
1.32 0 0
1.36 0 0
1.4 0 0
1.44 0 0
1.48 0 0
1.52 0 0
1.56 0 0
1.6 0 0
1.64 0 0
1.68 0 0
1.72 0 0
1.76 0 0
1.8 0 0
1.84 0 0
1.88 0 0
1.92 0 0
1.96 0 0
2 0 0
2.04 0 0
2.08 0 0
2.12 0 0
2.16 0 0
2.2 0 0
2.24 0 0
2.28 0 0
2.32 0 0
2.36 0 0
2.4 0 0
2.44 0 0
2.48 0 0
2.52 0 0
2.56 0 0
2.6 0 0
2.64 0 0
2.68 0 0
2.72 0 0
2.76 0 0
2.8 0 0
2.84 0 0
2.88 0 0
2.92 0 0
2.96 0 0
3 0 0
3.04 0 0
3.08 0 0
3.12 0 0
3.16 0 0
3.2 0 0
3.24 0 0
3.28 0 0
3.32 0 0
3.36 0 0
3.4 0 0
3.44 0 0
3.48 0 0
3.52 0 0
3.56 0 0
3.6 0 0
3.64 0 0
3.68 0 0
3.72 0 0
3.76 0 0
3.8 0 0
3.84 0 0
3.88 0 0
3.92 0 0
3.96 0 0
4 0 0
4.04 0 0
4.08 0 0
4.12 0 0
4.16 0 0
4.2 0 0
4.24 0 0
4.28 0 0
4.32 0 0
4.36 0 0
4.4 0 0
4.44 0 0
4.48 0 0
4.52 0 0
4.56 0 0
4.6 0 0
4.64 0 0
4.68 0 0
4.72 0 0
4.76 0 0
4.8 0 0
4.84 0 0
4.88 0 0
4.92 0 0
4.96 0 0
5 0 0
5.04 0 0
5.08 0 0
5.12 0 0
5.16 0 0
5.2 0 0
5.24 0 0
5.28 0 0
5.32 0 0
5.36 0 0
5.4 0 0
5.44 0 0
5.48 0 0
5.52 0 0
5.56 0 0
5.6 0 0
5.64 0 0
5.68 0 0
5.72 0 0
5.76 0 0
5.8 0 0
5.84 0 0
5.88 0 0
5.92 0 0
5.96 0 0
6 0 0
6.04 0 0
6.08 0 0
6.12 0 0
6.16 0 0
6.2 0 0
6.24 0 0
6.28 0 0
6.32 0 0
6.36 0 0
6.4 0 0
6.44 0 0
6.48 0 0
6.52 0 0
6.56 0 0
6.6 0 0
6.64 0 0
6.68 0 0
6.72 0 0
6.76 0 0
6.8 0 0
6.84 0 0
6.88 0 0
6.92 0 0
6.96 0 0
7 0 0
7.04 0 0
7.08 0 0
7.12 0 0
7.16 0 0
7.2 0 0
7.24 0 0
7.28 0 0
7.32 0 0
7.36 0 0
7.4 0 0
7.44 0 0
7.48 0 0
7.52 0 0
7.56 0 0
7.6 0 0
7.64 0 0
7.68 0 0
7.72 0 0
7.76 0 0
7.8 0 0
7.84 0 0
7.88 0 0
7.92 0 0
7.96 0 0
8 0 0
8.04 0 0
8.08 0 0
8.12 0 0
8.16 0 0
8.2 0 0
8.24 0 0
8.28 0 0
8.32 0 0
8.36 0 0
8.4 0 0
8.44 0 0
8.48 0 0
8.52 0 0
8.56 0 0
8.6 0 0
8.64 0 0
8.68 0 0
8.72 0 0
8.76 0 0
8.8 0 0
8.84 0 0
8.88 0 0
8.92 0 0
8.96 0 0
9 0 0
9.04 0 0
9.08 0 0
9.12 0 0
9.16 0 0
9.2 0 0
9.24 0 0
9.28 0 0
9.32 0 0
9.36 0 0
9.4 0 0
9.44 0 0
9.48 0 0
9.52 0 0
9.56 0 0
9.6 0 0
9.64 0 0
9.68 0 0
9.72 0 0
9.76 0 0
9.8 0 0
9.84 0 0
9.88 0 0
9.92 0 0
9.96 0 0
10 0 0
10.04 0 0
10.08 0 0
10.12 0 0
10.16 0 0
10.2 0 0
10.24 0 0
10.28 0 0
10.32 0 0
10.36 0 0
10.4 0 0
10.44 0 0
10.48 0 0
10.52 0 0
10.56 0 0
10.6 0 0
10.64 0 0
10.68 0 0
10.72 0 0
10.76 0 0
10.8 0 0
10.84 0 0
10.88 0 0
10.92 0 0
10.96 0 0
11 0 0
11.04 0 0
11.08 0 0
11.12 0 0
11.16 0 0
11.2 0 0
11.24 0 0
11.28 0 0
11.32 0 0
11.36 0 0
11.4 0 0
11.44 0 0
11.48 0 0
11.52 0 0
11.56 0 0
11.6 0 0
11.64 0 0
11.68 0 0
11.72 0 0
11.76 0 0
11.8 0 0
11.84 0 0
11.88 0 0
11.92 0 0
11.96 0 0
12 0 0
12.04 0 0
12.08 0 0
12.12 0 0
12.16 0 0
12.2 0 0
12.24 0 0
12.28 0 0
12.32 0 0
12.36 0 0
12.4 0 0
12.44 0 0
12.48 0 0
12.52 0 0
12.56 0 0
12.6 0 0
12.64 0 0
12.68 0 0
12.72 0 0
12.76 0 0
12.8 0 0
12.84 0 0
12.88 0 0
12.92 0 0
12.96 0 0
13 0 0
13.04 0 0
13.08 0 0
13.12 0 0
13.16 0 0
13.2 0 0
13.24 0 0
13.28 0 0
13.32 0 0
13.36 0 0
13.4 0 0
13.44 0 0
13.48 0 0
13.52 0 0
13.56 0 0
13.6 0 0
13.64 0 0
13.68 0 0
13.72 0 0
13.76 0 0
13.8 0 0
13.84 0 0
13.88 0 0
13.92 0 0
13.96 0 0
14 0 0
14.04 0 0
14.08 0 0
14.12 0 0
14.16 0 0
14.2 0 0
14.24 0 0
14.28 0 0
14.32 0 0
14.36 0 0
14.4 0 0
14.44 0 0
14.48 0 0
14.52 0 0
14.56 0 0
14.6 0 0
14.64 0 0
14.68 0 0
14.72 0 0
14.76 0 0
14.8 0 0
14.84 0 0
14.88 0 0
14.92 0 0
14.96 0 0
15 0 0
15.04 0 0
15.08 0 0
15.12 0 0
15.16 0 0
15.2 0 0
15.24 0 0
15.28 0 0
15.32 0 0
15.36 0 0
15.4 0 0
15.44 0 0
15.48 0 0
15.52 0 0
15.56 0 0
15.6 0 0
15.64 0 0
15.68 0 0
15.72 0 0
15.76 0 0
15.8 0 0
15.84 0 0
15.88 0 0
15.92 0 0
15.96 0 0
16 0 0
16.04 0 0
16.08 0 0
16.12 0 0
16.16 0 0
16.2 0 0
16.24 0 0
16.28 0 0
16.32 0 0
16.36 0 0
16.4 0 0
16.44 0 0
16.48 0 0
16.52 0 0
16.56 0 0
16.6 0 0
16.64 0 0
16.68 0 0
16.72 0 0
16.76 0 0
16.8 0 0
16.84 0 0
16.88 0 0
16.92 0 0
16.96 0 0
17 0 0
17.04 0 0
17.08 0 0
17.12 0 0
17.16 0 0
17.2 0 0
17.24 0 0
17.28 0 0
17.32 0 0
17.36 0 0
17.4 0 0
17.44 0 0
17.48 0 0
17.52 0 0
17.56 0 0
17.6 0 0
17.64 0 0
17.68 0 0
17.72 0 0
17.76 0 0
17.8 0 0
17.84 0 0
17.88 0 0
17.92 0 0
17.96 0 0
18 0 0
18.04 0 0
18.08 0 0
18.12 0 0
18.16 0 0
18.2 0 0
18.24 0 0
18.28 0 0
18.32 0 0
18.36 0 0
18.4 0 0
18.44 0 0
18.48 0 0
18.52 0 0
18.56 0 0
18.6 0 0
18.64 0 0
18.68 0 0
18.72 0 0
18.76 0 0
18.8 0 0
18.84 0 0
18.88 0 0
18.92 0 0
18.96 0 0
19 0 0
19.04 0 0
19.08 0 0
19.12 0 0
19.16 0 0
19.2 0 0
19.24 0 0
19.28 0 0
19.32 0 0
19.36 0 0
19.4 0 0
19.44 0 0
19.48 0 0
19.52 0 0
19.56 0 0
19.6 0 0
19.64 0 0
19.68 0 0
19.72 0 0
19.76 0 0
19.8 0 0
19.84 0 0
19.88 0 0
19.92 0 0
19.96 0 0
20 0 0
20.04 0 0
20.08 0 0
20.12 0 0
20.16 0 0
20.2 0 0
20.24 0 0
20.28 0 0
20.32 0 0
20.36 0 0
20.4 0 0
20.44 0 0
20.48 0 0
20.52 0 0
20.56 0 0
20.6 0 0
20.64 0 0
20.68 0 0
20.72 0 0
20.76 0 0
20.8 0 0
20.84 0 0
20.88 0 0
20.92 0 0
20.96 0 0
21 0 0
21.04 0 0
21.08 0 0
21.12 0 0
21.16 0 0
21.2 0 0
21.24 0 0
21.28 0 0
21.32 0 0
21.36 0 0
21.4 0 0
21.44 0 0
21.48 0 0
21.52 0 0
21.56 0 0
21.6 0 0
21.64 0 0
21.68 0 0
21.72 0 0
21.76 0 0
21.8 0 0
21.84 0 0
21.88 0 0
21.92 0 0
21.96 0 0
22 0 0
22.04 0 0
22.08 0 0
22.12 0 0
22.16 0 0
22.2 0 0
22.24 0 0
22.28 0 0
22.32 0 0
22.36 0 0
22.4 0 0
22.44 0 0
22.48 0 0
22.52 0 0
22.56 0 0
22.6 0 0
22.64 0 0
22.68 0 0
22.72 0 0
22.76 0 0
22.8 0 0
22.84 0 0
22.88 0 0
22.92 0 0
22.96 0 0
23 0 0
23.04 0 0
23.08 0 0
23.12 0 0
23.16 0 0
23.2 0 0
23.24 0 0
23.28 0 0
23.32 0 0
23.36 0 0
23.4 0 0
23.44 0 0
23.48 0 0
23.52 0 0
23.56 0 0
23.6 0 0
23.64 0 0
23.68 0 0
23.72 0 0
23.76 0 0
23.8 0 0
23.84 0 0
23.88 0 0
23.92 0 0
23.96 0 0
24 0 0
24.04 0 0
24.08 0 0
24.12 0 0
24.16 0 0
24.2 0 0
24.24 0 0
24.28 0 0
24.32 0 0
24.36 0 0
24.4 0 0
24.44 0 0
24.48 0 0
24.52 0 0
24.56 0 0
24.6 0 0
24.64 0 0
24.68 0 0
24.72 0 0
24.76 0 0
24.8 0 0
24.84 0 0
24.88 0 0
24.92 0 0
24.96 0 0
25 0 0
25.04 0 0
25.08 0 0
25.12 0 0
25.16 0 0
25.2 0 0
25.24 0 0
25.28 0 0
25.32 0 0
25.36 0 0
25.4 0 0
25.44 0 0
25.48 0 0
25.52 0 0
25.56 0 0
25.6 0 0
25.64 0 0
25.68 0 0
25.72 0 0
25.76 0 0
25.8 0 0
25.84 0 0
25.88 0 0
25.92 0 0
25.96 0 0
26 0 0
26.04 0 0
26.08 0 0
26.12 0 0
26.16 0 0
26.2 0 0
26.24 0 0
26.28 0 0
26.32 0 0
26.36 0 0
26.4 0 0
26.44 0 0
26.48 0 0
26.52 0 0
26.56 0 0
26.6 0 0
26.64 0 0
26.68 0 0
26.72 0 0
26.76 0 0
26.8 0 0
26.84 0 0
26.88 0 0
26.92 0 0
26.96 0 0
27 0 0
27.04 0 0
27.08 0 0
27.12 0 0
27.16 0 0
27.2 0 0
27.24 0 0
27.28 0 0
27.32 0 0
27.36 0 0
27.4 0 0
27.44 0 0
27.48 0 0
27.52 0 0
27.56 0 0
27.6 0 0
27.64 0 0
27.68 0 0
27.72 0 0
27.76 0 0
27.8 0 0
27.84 0 0
27.88 0 0
27.92 0 0
27.96 0 0
28 0 0
28.04 0 0
28.08 0 0
28.12 0 0
28.16 0 0
28.2 0 0
28.24 0 0
28.28 0 0
28.32 0 0
28.36 0 0
28.4 0 0
28.44 0 0
28.48 0 0
28.52 0 0
28.56 0 0
28.6 0 0
28.64 0 0
28.68 0 0
28.72 0 0
28.76 0 0
28.8 0 0
28.84 0 0
28.88 0 0
28.92 0 0
28.96 0 0
29 0 0
29.04 0 0
29.08 0 0
29.12 0 0
29.16 0 0
29.2 0 0
29.24 0 0
29.28 0 0
29.32 0 0
29.36 0 0
29.4 0 0
29.44 0 0
29.48 0 0
29.52 0 0
29.56 0 0
29.6 0 0
29.64 0 0
29.68 0 0
29.72 0 0
29.76 0 0
29.8 0 0
29.84 0 0
29.88 0 0
29.92 0 0
29.96 0 0
30 0 0
30.04 0 0
30.08 0 0
30.12 0 0
30.16 0 0
30.2 0 0
30.24 0 0
30.28 0 0
30.32 0 0
30.36 0 0
30.4 0 0
30.44 0 0
30.48 0 0
30.52 0 0
30.56 0 0
30.6 0 0
30.64 0 0
30.68 0 0
30.72 0 0
30.76 0 0
30.8 0 0
30.84 0 0
30.88 0 0
30.92 0 0
30.96 0 0
31 0 0
31.04 0 0
31.08 0 0
31.12 0 0
31.16 0 0
31.2 0 0
31.24 0 0
31.28 0 0
31.32 0 0
31.36 0 0
31.4 0 0
31.44 0 0
31.48 0 0
31.52 0 0
31.56 0 0
31.6 0 0
31.64 0 0
31.68 0 0
31.72 0 0
31.76 0 0
31.8 0 0
31.84 0 0
31.88 0 0
31.92 0 0
31.96 0 0
0 0.005 0
0.04 0.005 0
0.08 0.005 0
0.12 0.005 0
0.16 0.005 0
0.2 0.005 0
0.24 0.005 0
0.28 0.005 0
0.32 0.005 0
0.36 0.005 0
0.4 0.005 0
0.44 0.005 0
0.48 0.005 0
0.52 0.005 0
0.56 0.005 0
0.6 0.005 0
0.64 0.005 0
0.68 0.005 0
0.72 0.005 0
0.76 0.005 0
0.8 0.005 0
0.84 0.005 0
0.88 0.005 0
0.92 0.005 0
0.96 0.005 0
1 0.005 0
1.04 0.005 0
1.08 0.005 0
1.12 0.005 0
1.16 0.005 0
1.2 0.005 0
1.24 0.005 0
1.28 0.005 0
1.32 0.005 0
1.36 0.005 0
1.4 0.005 0
1.44 0.005 0
1.48 0.005 0
1.52 0.005 0
1.56 0.005 0
1.6 0.005 0
1.64 0.005 0
1.68 0.005 0
1.72 0.005 0
1.76 0.005 0
1.8 0.005 0
1.84 0.005 0
1.88 0.005 0
1.92 0.005 0
1.96 0.005 0
2 0.005 0
2.04 0.005 0
2.08 0.005 0
2.12 0.005 0
2.16 0.005 0
2.2 0.005 0
2.24 0.005 0
2.28 0.005 0
2.32 0.005 0
2.36 0.005 0
2.4 0.005 0
2.44 0.005 0
2.48 0.005 0
2.52 0.005 0
2.56 0.005 0
2.6 0.005 0
2.64 0.005 0
2.68 0.005 0
2.72 0.005 0
2.76 0.005 0
2.8 0.005 0
2.84 0.005 0
2.88 0.005 0
2.92 0.005 0
2.96 0.005 0
3 0.005 0
3.04 0.005 0
3.08 0.005 0
3.12 0.005 0
3.16 0.005 0
3.2 0.005 0
3.24 0.005 0
3.28 0.005 0
3.32 0.005 0
3.36 0.005 0
3.4 0.005 0
3.44 0.005 0
3.48 0.005 0
3.52 0.005 0
3.56 0.005 0
3.6 0.005 0
3.64 0.005 0
3.68 0.005 0
3.72 0.005 0
3.76 0.005 0
3.8 0.005 0
3.84 0.005 0
3.88 0.005 0
3.92 0.005 0
3.96 0.005 0
4 0.005 0
4.04 0.005 0
4.08 0.005 0
4.12 0.005 0
4.16 0.005 0
4.2 0.005 0
4.24 0.005 0
4.28 0.005 0
4.32 0.005 0
4.36 0.005 0
4.4 0.005 0
4.44 0.005 0
4.48 0.005 0
4.52 0.005 0
4.56 0.005 0
4.6 0.005 0
4.64 0.005 0
4.68 0.005 0
4.72 0.005 0
4.76 0.005 0
4.8 0.005 0
4.84 0.005 0
4.88 0.005 0
4.92 0.005 0
4.96 0.005 0
5 0.005 0
5.04 0.005 0
5.08 0.005 0
5.12 0.005 0
5.16 0.005 0
5.2 0.005 0
5.24 0.005 0
5.28 0.005 0
5.32 0.005 0
5.36 0.005 0
5.4 0.005 0
5.44 0.005 0
5.48 0.005 0
5.52 0.005 0
5.56 0.005 0
5.6 0.005 0
5.64 0.005 0
5.68 0.005 0
5.72 0.005 0
5.76 0.005 0
5.8 0.005 0
5.84 0.005 0
5.88 0.005 0
5.92 0.005 0
5.96 0.005 0
6 0.005 0
6.04 0.005 0
6.08 0.005 0
6.12 0.005 0
6.16 0.005 0
6.2 0.005 0
6.24 0.005 0
6.28 0.005 0
6.32 0.005 0
6.36 0.005 0
6.4 0.005 0
6.44 0.005 0
6.48 0.005 0
6.52 0.005 0
6.56 0.005 0
6.6 0.005 0
6.64 0.005 0
6.68 0.005 0
6.72 0.005 0
6.76 0.005 0
6.8 0.005 0
6.84 0.005 0
6.88 0.005 0
6.92 0.005 0
6.96 0.005 0
7 0.005 0
7.04 0.005 0
7.08 0.005 0
7.12 0.005 0
7.16 0.005 0
7.2 0.005 0
7.24 0.005 0
7.28 0.005 0
7.32 0.005 0
7.36 0.005 0
7.4 0.005 0
[...]
POINT_DATA 160000

SCALARS v float 1
LOOKUP_TABLE default
0
0
0
0
0
0
0
0
0
0
0
0
0
0
0
0
0
0
0
0
0
0
0
0
0
0
0
0
0
0
0
0
0
0
0
0
0
0
0
0
0
0
0
0
0
0
0
0
0
0
0
0
0
0
0
0
0
0
0
0
0
0
0
0
0
0
0
0
0
0
0
0
0
0
0
0
0
0
0
0
0
0
0
0
0
0
0
0
0
0
0
0
0
0
0
0
0
0
0
0
0
0
0
0
0
0
0
0
0
0
0
0
0
0
0
0
0
0
0
0
0
0
0
0
0
0
0
0
0
0
0
0
0
0
0
0
0
0
0
0
0
0
0
0
0
0
0
0
0
0
0
0
0
0
0
0
0
0
0
0
0
0
0
0
0
0
0
0
0
0
0
0
0
0
0
0
0
0
0
0
0
0
0
0
0
0
0
0
0
0
0
0
0
0
0
0
0
0
0
0
0
0
0
0
0
0
0
0
0
0
0
0
0
0
0
0
0
0
0
0
0
0
0
0
0
0
0
0
0
0
0
0
0
0
0
0
0
0
0
0
0
0
0
0
0
0
0
0
0
0
0
0
0
0
0
0
0
0
0
0
0
0
0
0
0
0
0
0
0
0
0
0
0
0
0
0
0
0
0
0
0
0
0
0
0
0
0
0
0
0
0
0
0
0
0
0
0
0
0
0
0
0
0
0
0
0
0
0
0
0
0
0
0
0
0
0
0
0
0
0
0
0
0
0
0
0
0
0
0
0
0
0
0
0
0
0
0
0
0
0
0
0
0
0
0
0
0
0
0
0
0
0
0
0
0
0
0
0
0
0
0
0
0
0
0
0
0
0
0
0
0
0
0
0
0
0
0
0
0
0
0
0
0
0
0
0
0
0
0
0
0
0
0
0
0
0
0
0
0
0
0
0
0
0
0
0
0
0
0
0
0
0
0
0
0
0
0
0
0
0
0
0
0
0
0
0
0
0
0
0
0
0
0
0
0
0
0
0
0
0
0
0
0
0
0
0
0
0
0
0
0
0
0
0
0
0
0
0
0
0
0
0
0
0
0
0
0
0
0
0
0
0
0
0
0
0
0
0
0
0
0
0
0
0
0
0
0
0
0
0
0
0
0
0
0
0
0
0
0
0
0
0
0
0
0
0
0
0
0
0
0
0
0
0
0
0
0
0
0
0
0
0
0
0
0
0
0
0
0
0
0
0
0
0
0
0
0
0
0
0
0
0
0
0
0
0
0
0
0
0
0
0
0
0
0
0
0
0
0
0
0
0
0
0
0
0
0
0
0
0
0
0
0
0
0
0
0
0
0
0
0
0
0
0
0
0
0
0
0
0
0
0
0
0
0
0
0
0
0
0
0
0
0
0
0
0
0
0
0
0
0
0
0
0
0
0
0
0
0
0
0
0
0
0
0
0
0
0
0
0
0
0
0
0
0
0
0
0
0
0
0
0
0
0
0
0
0
0
0
0
0
0
0
0
0
0
0
0
0
0
0
0
0
0
0
0
0
0
0
0
0
0
0
0
0
0
0
0
0
0
0
0
0
0
0
0
0
0
0
0
0
0
0
0
0
0
0
0
0
0
0
0
0
0
0
0
0
0
0
0
0
0
0
0
0
0
0
0
0
0
0
0
0
0
0
0
0
0
0
0
0
0
0
0
0
0
0
0
0
0
0
0
0
0
0
0
0
0
0
0
0
0
0
0
0
0
0
0
0
0
0
0
0
0
0
0
0
0
0
0
0
0
0
0
0
0
0
0
0
0
0
0
0
0
0
0
0
0
0
0
0
0
0
0
0
0
0
0
0
0
0
0
0.0374158
0.00938113
0.00346796
0.00176634
0.00108087
0.000737107
0.00053833
0.000411785
0.000325586
0.000263898
0.000218077
0.000183046
0.000155645
0.000133808
0.000116136
0.000101644
8.96257e-05
7.95579e-05
7.10481e-05
6.37962e-05
5.75695e-05
5.21853e-05
4.74989e-05
4.33943e-05
3.97779e-05
3.65739e-05
3.37201e-05
3.11652e-05
2.88671e-05
2.67905e-05
2.49061e-05
2.31892e-05
2.16191e-05
2.0178e-05
1.88509e-05
1.76252e-05
1.64897e-05
1.5435e-05
1.44528e-05
1.35361e-05
1.26787e-05
1.1875e-05
1.11204e-05
1.04104e-05
9.74148e-06
9.11018e-06
8.51355e-06
7.94892e-06
7.41388e-06
6.90627e-06
6.42414e-06
5.96571e-06
5.52936e-06
5.11363e-06
4.71717e-06
4.33876e-06
3.97726e-06
3.63163e-06
3.30093e-06
2.98425e-06
2.6808e-06
2.38982e-06
2.11061e-06
1.84252e-06
1.58494e-06
1.3373e-06
1.09909e-06
8.69819e-07
6.49021e-07
4.36274e-07
2.31174e-07
3.33425e-08
-1.57563e-07
-3.41877e-07
-5.19911e-07
-6.91962e-07
-8.58306e-07
-1.0192e-06
-1.17488e-06
-1.3256e-06
-1.47154e-06
-1.61293e-06
-1.74997e-06
-1.88284e-06
-2.01171e-06
-2.13675e-06
-2.25812e-06
-2.37596e-06
-2.4904e-06
-2.60159e-06
-2.70966e-06
-2.81473e-06
-2.91691e-06
-3.01631e-06
-3.11303e-06
-3.20717e-06
-3.29884e-06
-3.38812e-06
-3.47509e-06
-3.55985e-06
-3.64246e-06
-3.723e-06
-3.80155e-06
-3.87817e-06
-3.95293e-06
-4.0259e-06
-4.09713e-06
-4.16668e-06
-4.23461e-06
-4.30096e-06
-4.36579e-06
-4.42916e-06
-4.4911e-06
-4.55166e-06
-4.61088e-06
-4.66881e-06
-4.72548e-06
-4.78095e-06
-4.83523e-06
-4.88836e-06
-4.94039e-06
-4.99134e-06
-5.04124e-06
-5.09013e-06
-5.13804e-06
-5.18498e-06
-5.23099e-06
-5.2761e-06
-5.32034e-06
-5.36373e-06
-5.40628e-06
-5.44802e-06
-5.48898e-06
-5.52917e-06
-5.56863e-06
-5.60735e-06
-5.64537e-06
-5.6827e-06
-5.71937e-06
-5.75539e-06
-5.79076e-06
-5.82552e-06
-5.85968e-06
-5.89325e-06
-5.92625e-06
-5.95868e-06
-5.99057e-06
-6.02193e-06
-6.05277e-06
-6.08311e-06
-6.11295e-06
-6.1423e-06
-6.17118e-06
-6.19961e-06
-6.22759e-06
-6.25511e-06
-6.28221e-06
-6.30889e-06
-6.33517e-06
-6.36104e-06
-6.38652e-06
-6.41162e-06
-6.43633e-06
-6.46067e-06
-6.48466e-06
-6.5083e-06
-6.53159e-06
-6.55455e-06
-6.57717e-06
-6.59947e-06
-6.62146e-06
-6.64312e-06
-6.66449e-06
-6.68556e-06
-6.70634e-06
-6.72683e-06
-6.74704e-06
-6.76697e-06
-6.78664e-06
-6.80603e-06
-6.82517e-06
-6.84406e-06
-6.8627e-06
-6.88109e-06
-6.89923e-06
-6.91714e-06
-6.93482e-06
-6.95227e-06
-6.96949e-06
-6.98649e-06
-7.00328e-06
-7.01986e-06
-7.03622e-06
-7.05238e-06
-7.06835e-06
-7.08411e-06
-7.09967e-06
-7.11505e-06
-7.13023e-06
-7.14523e-06
-7.16005e-06
-7.17469e-06
-7.18914e-06
-7.20343e-06
-7.21755e-06
-7.23151e-06
-7.24528e-06
-7.2589e-06
-7.27236e-06
-7.28566e-06
-7.2988e-06
-7.31179e-06
-7.32464e-06
-7.33733e-06
-7.34988e-06
-7.36229e-06
-7.37454e-06
-7.38665e-06
-7.39863e-06
-7.41048e-06
-7.4222e-06
-7.43377e-06
-7.44522e-06
-7.45653e-06
-7.46772e-06
-7.4788e-06
-7.48974e-06
-7.50056e-06
-7.51126e-06
-7.52185e-06
-7.53232e-06
-7.54267e-06
-7.5529e-06
-7.56303e-06
-7.57304e-06
-7.58294e-06
-7.59274e-06
-7.60244e-06
-7.61202e-06
-7.62151e-06
-7.63089e-06
-7.64017e-06
-7.64935e-06
-7.65843e-06
-7.66741e-06
-7.6763e-06
-7.68509e-06
-7.69379e-06
-7.70239e-06
-7.71091e-06
-7.71933e-06
-7.72767e-06
-7.73592e-06
-7.74407e-06
-7.75214e-06
-7.76013e-06
-7.76804e-06
-7.77587e-06
-7.78361e-06
-7.79125e-06
-7.79883e-06
-7.80633e-06
-7.81375e-06
-7.8211e-06
-7.82836e-06
-7.83555e-06
-7.84266e-06
-7.84971e-06
-7.85668e-06
-7.86357e-06
-7.87039e-06
-7.87714e-06
-7.88383e-06
-7.89045e-06
-7.897e-06
-7.90347e-06
-7.90989e-06
-7.91624e-06
-7.92253e-06
-7.92874e-06
-7.93488e-06
-7.94097e-06
-7.947e-06
-7.95296e-06
-7.95886e-06
-7.96472e-06
-7.97051e-06
-7.97624e-06
-7.98189e-06
-7.98749e-06
-7.99304e-06
-7.99854e-06
-8.00398e-06
-8.00937e-06
-8.0147e-06
-8.01997e-06
-8.02519e-06
-8.03035e-06
-8.03546e-06
-8.04053e-06
-8.04554e-06
-8.05049e-06
-8.05541e-06
-8.06028e-06
-8.06509e-06
-8.06984e-06
-8.07455e-06
-8.07922e-06
-8.08383e-06
-8.0884e-06
-8.09294e-06
-8.09742e-06
-8.10185e-06
-8.10623e-06
-8.11058e-06
-8.11488e-06
-8.11913e-06
-8.12334e-06
-8.12752e-06
-8.13165e-06
-8.13573e-06
-8.13977e-06
-8.14378e-06
-8.14775e-06
-8.15167e-06
-8.15555e-06
-8.1594e-06
-8.16321e-06
-8.16698e-06
-8.17071e-06
-8.1744e-06
-8.17806e-06
-8.18168e-06
-8.18526e-06
-8.1888e-06
-8.19231e-06
-8.19578e-06
-8.19923e-06
-8.20263e-06
-8.20599e-06
-8.20932e-06
-8.21263e-06
-8.21591e-06
-8.21915e-06
-8.22235e-06
-8.22552e-06
-8.22866e-06
-8.23177e-06
-8.23485e-06
-8.23789e-06
-8.2409e-06
-8.24388e-06
-8.24684e-06
-8.24976e-06
-8.25265e-06
-8.25552e-06
-8.25836e-06
-8.26117e-06
-8.26395e-06
-8.2667e-06
-8.26943e-06
-8.27212e-06
-8.27479e-06
-8.27744e-06
-8.28005e-06
-8.28264e-06
-8.2852e-06
-8.28773e-06
-8.29025e-06
-8.29274e-06
-8.2952e-06
-8.29763e-06
-8.30005e-06
-8.30244e-06
-8.3048e-06
-8.30714e-06
-8.30945e-06
-8.31175e-06
-8.31402e-06
-8.31627e-06
-8.31849e-06
-8.32069e-06
-8.32287e-06
-8.32503e-06
-8.32716e-06
-8.32928e-06
-8.33138e-06
-8.33345e-06
-8.33549e-06
-8.33752e-06
-8.33953e-06
-8.34152e-06
-8.34349e-06
-8.34544e-06
-8.34736e-06
-8.34927e-06
-8.35117e-06
-8.35304e-06
-8.3549e-06
-8.35673e-06
-8.35855e-06
-8.36034e-06
-8.36212e-06
-8.36388e-06
-8.36562e-06
-8.36735e-06
-8.36906e-06
-8.37076e-06
-8.37243e-06
-8.37408e-06
-8.37572e-06
-8.37735e-06
-8.37895e-06
-8.38055e-06
-8.38213e-06
-8.38368e-06
-8.38522e-06
-8.38675e-06
-8.38826e-06
-8.38976e-06
-8.39124e-06
-8.39271e-06
-8.39416e-06
-8.39559e-06
-8.39702e-06
-8.39843e-06
-8.39982e-06
-8.4012e-06
-8.40257e-06
-8.40392e-06
-8.40525e-06
-8.40658e-06
-8.4079e-06
-8.4092e-06
-8.41048e-06
-8.41175e-06
-8.41301e-06
-8.41426e-06
-8.4155e-06
-8.41672e-06
-8.41793e-06
-8.41912e-06
-8.4203e-06
-8.42147e-06
-8.42263e-06
-8.42379e-06
-8.42493e-06
-8.42605e-06
-8.42716e-06
-8.42827e-06
-8.42936e-06
-8.43044e-06
-8.43151e-06
-8.43257e-06
-8.43362e-06
-8.43466e-06
-8.43568e-06
-8.4367e-06
-8.43771e-06
-8.4387e-06
-8.43969e-06
-8.44067e-06
-8.44164e-06
-8.44259e-06
-8.44354e-06
-8.44448e-06
-8.44541e-06
-8.44632e-06
-8.44723e-06
-8.44813e-06
-8.44902e-06
-8.4499e-06
-8.45077e-06
-8.45164e-06
-8.4525e-06
-8.45334e-06
-8.45418e-06
-8.455e-06
-8.45583e-06
-8.45664e-06
-8.45744e-06
-8.45824e-06
-8.45903e-06
-8.45981e-06
-8.46058e-06
-8.46134e-06
-8.4621e-06
-8.46285e-06
-8.46359e-06
-8.46433e-06
-8.46505e-06
-8.46578e-06
-8.46649e-06
-8.46719e-06
-8.46788e-06
-8.46857e-06
-8.46926e-06
-8.46994e-06
-8.4706e-06
-8.47127e-06
-8.47192e-06
-8.47257e-06
-8.47321e-06
-8.47385e-06
-8.47447e-06
-8.4751e-06
-8.47572e-06
-8.47633e-06
-8.47694e-06
-8.47754e-06
-8.47813e-06
-8.47871e-06
-8.47929e-06
-8.47987e-06
-8.48044e-06
-8.481e-06
-8.48156e-06
-8.4821e-06
-8.48265e-06
-8.48319e-06
-8.48372e-06
-8.48425e-06
-8.48478e-06
-8.48529e-06
-8.4858e-06
-8.48632e-06
-8.48682e-06
-8.48732e-06
-8.48781e-06
-8.4883e-06
-8.48878e-06
-8.48926e-06
-8.48973e-06
-8.4902e-06
-8.49067e-06
-8.49112e-06
-8.49158e-06
-8.49203e-06
-8.49247e-06
-8.49291e-06
-8.49334e-06
-8.49378e-06
-8.4942e-06
-8.49463e-06
-8.49504e-06
-8.49545e-06
-8.49587e-06
-8.49627e-06
-8.49667e-06
-8.49707e-06
-8.49746e-06
-8.49785e-06
-8.49824e-06
-8.49862e-06
-8.499e-06
-8.49937e-06
-8.49974e-06
-8.50011e-06
-8.50047e-06
-8.50082e-06
-8.50118e-06
-8.50153e-06
-8.50188e-06
-8.50222e-06
-8.50257e-06
-8.50291e-06
-8.50325e-06
-8.50357e-06
-8.5039e-06
-8.50422e-06
-8.50454e-06
-8.50486e-06
-8.50517e-06
-8.50549e-06
-8.5058e-06
-8.50611e-06
-8.5064e-06
-8.5067e-06
-8.50699e-06
-8.50729e-06
-8.50758e-06
-8.50786e-06
-8.50814e-06
-8.50842e-06
-8.5087e-06
-8.50898e-06
-8.50925e-06
-8.50952e-06
-8.50978e-06
-8.51005e-06
-8.51031e-06
-8.51056e-06
-8.51081e-06
-8.51107e-06
-8.51133e-06
-8.51158e-06
-8.51183e-06
-8.51207e-06
-8.51231e-06
-8.51254e-06
-8.51277e-06
-8.51301e-06
-8.51324e-06
-8.51347e-06
-8.5137e-06
-8.51392e-06
-8.51413e-06
-8.51436e-06
-8.51458e-06
-8.51479e-06
-8.51501e-06
-8.51522e-06
-8.51543e-06
-8.51563e-06
-8.51583e-06
-8.51604e-06
-8.51624e-06
-8.51643e-06
-8.51663e-06
-8.51683e-06
-8.51702e-06
-8.5172e-06
-8.5174e-06
-8.51758e-06
-8.51777e-06
-8.51795e-06
-8.51813e-06
-8.51831e-06
-8.51849e-06
-8.51866e-06
-8.51883e-06
-8.519e-06
-8.51917e-06
-8.51934e-06
-8.51951e-06
-8.51968e-06
-8.51983e-06
-8.52e-06
-8.52016e-06
-8.52031e-06
-8.52047e-06
-8.52062e-06
-8.52078e-06
-8.52093e-06
-8.52108e-06
-8.52123e-06
-8.52137e-06
-8.52152e-06
-8.52167e-06
-8.52181e-06
-8.52195e-06
-8.52209e-06
-8.52223e-06
-8.52236e-06
-8.5225e-06
-8.52264e-06
-8.52278e-06
-8.52291e-06
-8.52304e-06
-8.52317e-06
-8.52329e-06
-8.52342e-06
-8.52355e-06
-8.52367e-06
-8.5238e-06
-8.52392e-06
-8.52405e-06
-8.52416e-06
-8.52428e-06
-8.5244e-06
-8.52452e-06
-8.52463e-06
-8.52475e-06
-8.52487e-06
-8.52498e-06
-8.52509e-06
-8.5252e-06
-8.52531e-06
-8.52542e-06
-8.52553e-06
-8.52564e-06
-8.52574e-06
-8.52585e-06
-8.52595e-06
-8.52606e-06
-8.52616e-06
-8.52626e-06
-8.52637e-06
-8.52647e-06
-8.52657e-06
-8.52667e-06
-8.52677e-06
-8.52686e-06
-8.52696e-06
-8.52706e-06
-8.52716e-06
-8.52726e-06
-8.52735e-06
-8.52744e-06
-8.52753e-06
-8.52763e-06
-8.52773e-06
-8.52782e-06
-8.52791e-06
-8.528e-06
-8.52809e-06
-8.52819e-06
-8.52828e-06
-8.52836e-06
-8.52845e-06
-8.52855e-06
-8.52864e-06
-8.52872e-06
-8.5288e-06
-8.52888e-06
-8.52897e-06
-8.52906e-06
-8.52914e-06
-8.52922e-06
-8.5293e-06
-8.5294e-06
-8.52949e-06
-8.52957e-06
-8.52965e-06
-8.52973e-06
-8.52981e-06
-8.52989e-06
-8.52997e-06
-8.53005e-06
-8.53013e-06
-8.53021e-06
-8.53029e-06
-8.53037e-06
-8.53044e-06
-8.53052e-06
-8.53059e-06
-8.53067e-06
-8.53075e-06
-8.53083e-06
-8.5309e-06
-8.53097e-06
-8.53104e-06
-8.53112e-06
-8.53119e-06
-8.53126e-06
-8.53133e-06
-8.53141e-06
-8.53148e-06
-8.53154e-06
-8.53161e-06
-8.53169e-06
-8.53176e-06
-8.53183e-06
-8.5319e-06
-8.53196e-06
-8.53202e-06
-8.53208e-06
-8.53215e-06
-8.53221e-06
-8.53227e-06
-8.53234e-06
-8.5324e-06
-8.53245e-06
-8.53251e-06
-8.53256e-06
-8.53262e-06
-8.53266e-06
-8.5327e-06
-8.53273e-06
-8.53276e-06
-8.53278e-06
-8.53279e-06
-8.53279e-06
-8.53277e-06
-8.53273e-06
-8.53266e-06
-8.53256e-06
-8.53241e-06
-8.53221e-06
-8.53195e-06
-8.53159e-06
-8.53115e-06
-8.53052e-06
-8.52977e-06
-8.52869e-06
-8.52748e-06
-8.52564e-06
-8.5237e-06
-8.52041e-06
-8.51744e-06
-8.51118e-06
-8.50722e-06
-8.49328e-06
-8.49227e-06
-8.45017e-06
-8.52199e-06
-6.02561e-06
-6.02561e-06
0
0
0.0966101
0.0320527
0.0130062
0.00682637
0.00423607
0.00291413
0.0021425
0.00164842
0.00131055
0.00106807
0.000887567
0.000749319
0.000641015
0.000554592
0.000484568
0.000427089
0.000379374
0.000339371
0.000305535
0.000276682
0.000251896
0.000230453
0.000211783
0.000195427
0.000181014
0.000168242
0.000156866
0.000146681
0.000137521
0.000129245
0.000121736
0.000114895
0.000108641
0.000102902
9.7618e-05
9.27388e-05
8.82201e-05
8.40239e-05
8.01175e-05
7.64723e-05
7.30635e-05
6.98692e-05
6.68703e-05
6.40498e-05
6.13927e-05
5.88856e-05
5.65166e-05
5.4275e-05
5.21513e-05
5.01368e-05
4.82236e-05
4.64047e-05
4.46737e-05
4.30246e-05
4.14522e-05
3.99515e-05
3.8518e-05
3.71476e-05
3.58364e-05
3.4581e-05
3.33781e-05
3.22247e-05
3.11181e-05
3.00555e-05
2.90347e-05
2.80534e-05
2.71094e-05
2.6201e-05
2.53261e-05
2.44832e-05
2.36706e-05
2.28869e-05
2.21306e-05
2.14004e-05
2.06952e-05
2.00137e-05
1.93548e-05
1.87175e-05
1.81009e-05
1.7504e-05
1.69259e-05
1.63659e-05
1.58232e-05
1.5297e-05
1.47867e-05
1.42915e-05
1.38109e-05
1.33443e-05
1.28912e-05
1.24509e-05
1.2023e-05
1.1607e-05
1.12024e-05
1.08089e-05
1.04259e-05
1.00532e-05
9.69027e-06
9.33681e-06
8.99249e-06
8.65696e-06
8.32992e-06
8.01107e-06
7.70012e-06
7.3968e-06
7.10085e-06
6.81201e-06
6.53006e-06
6.25476e-06
5.9859e-06
5.72325e-06
5.46662e-06
5.21582e-06
4.97066e-06
4.73097e-06
4.49657e-06
4.26729e-06
4.04298e-06
3.82348e-06
3.60866e-06
3.39837e-06
3.19247e-06
2.99084e-06
2.79335e-06
2.59987e-06
2.41029e-06
2.22452e-06
2.04242e-06
1.8639e-06
1.68885e-06
1.51718e-06
1.34881e-06
1.18364e-06
1.02157e-06
8.62528e-07
7.0643e-07
5.53202e-07
4.02772e-07
2.55055e-07
1.09982e-07
-3.25048e-08
-1.72473e-07
-3.09998e-07
-4.45143e-07
-5.77959e-07
-7.08495e-07
-8.36817e-07
-9.62983e-07
-1.08704e-06
-1.20905e-06
-1.32906e-06
-1.44709e-06
-1.5632e-06
-1.67747e-06
-1.78991e-06
-1.90055e-06
-2.00945e-06
-2.11666e-06
-2.2222e-06
-2.32611e-06
-2.42845e-06
-2.52922e-06
-2.62846e-06
-2.72621e-06
-2.82252e-06
-2.91739e-06
-3.01088e-06
-3.103e-06
-3.19379e-06
-3.28325e-06
-3.37145e-06
-3.45838e-06
-3.54408e-06
-3.62858e-06
-3.71191e-06
-3.79407e-06
-3.8751e-06
-3.95501e-06
-4.03384e-06
-4.1116e-06
-4.1883e-06
-4.26397e-06
-4.33865e-06
-4.41234e-06
-4.48504e-06
-4.55678e-06
-4.62759e-06
-4.69748e-06
-4.76646e-06
-4.83456e-06
-4.90178e-06
-4.96816e-06
-5.03369e-06
-5.09839e-06
-5.16228e-06
-5.22537e-06
-5.28768e-06
-5.34921e-06
-5.40998e-06
-5.47e-06
-5.5293e-06
-5.58787e-06
-5.64573e-06
-5.70289e-06
-5.75937e-06
-5.81517e-06
-5.8703e-06
-5.92477e-06
-5.9786e-06
-6.03181e-06
-6.08437e-06
-6.13632e-06
-6.18767e-06
-6.23843e-06
-6.28858e-06
-6.33816e-06
-6.38718e-06
-6.43562e-06
-6.48351e-06
-6.53085e-06
-6.57766e-06
-6.62394e-06
-6.66969e-06
-6.71492e-06
-6.75964e-06
-6.80387e-06
-6.84761e-06
-6.89085e-06
-6.9336e-06
-6.97589e-06
-7.01772e-06
-7.05908e-06
-7.09997e-06
-7.14041e-06
-7.18042e-06
-7.21999e-06
-7.25912e-06
-7.29783e-06
-7.33612e-06
-7.374e-06
-7.41146e-06
-7.44852e-06
-7.48517e-06
-7.52143e-06
-7.55731e-06
-7.59279e-06
-7.6279e-06
-7.66263e-06
-7.69699e-06
-7.73099e-06
-7.76462e-06
-7.79789e-06
-7.83082e-06
-7.86339e-06
-7.89561e-06
-7.9275e-06
-7.95905e-06
-7.99028e-06
-8.02118e-06
-8.05174e-06
-8.08197e-06
-8.1119e-06
-8.14152e-06
-8.17083e-06
-8.19983e-06
-8.22852e-06
-8.25691e-06
-8.28502e-06
-8.31283e-06
-8.34035e-06
-8.36758e-06
-8.39453e-06
-8.4212e-06
-8.4476e-06
-8.47373e-06
-8.49958e-06
-8.52516e-06
-8.55049e-06
-8.57556e-06
-8.60036e-06
-8.6249e-06
-8.64919e-06
-8.67324e-06
-8.69704e-06
-8.72059e-06
-8.7439e-06
-8.76699e-06
-8.78983e-06
-8.81243e-06
-8.83479e-06
-8.85693e-06
-8.87884e-06
-8.90054e-06
-8.92201e-06
-8.94327e-06
-8.96431e-06
-8.98513e-06
-9.00573e-06
-9.02613e-06
-9.04632e-06
-9.06631e-06
-9.08609e-06
-9.10567e-06
-9.12506e-06
-9.14425e-06
-9.16323e-06
-9.18202e-06
-9.20063e-06
-9.21904e-06
-9.23727e-06
-9.25532e-06
-9.27319e-06
-9.29087e-06
-9.30837e-06
-9.32569e-06
-9.34284e-06
-9.35981e-06
-9.37662e-06
-9.39325e-06
-9.40971e-06
-9.42601e-06
-9.44214e-06
-9.45811e-06
-9.47392e-06
-9.48957e-06
-9.50506e-06
-9.52039e-06
-9.53557e-06
-9.5506e-06
-9.56548e-06
-9.58019e-06
-9.59477e-06
-9.6092e-06
-9.62348e-06
-9.63762e-06
-9.65161e-06
-9.66546e-06
-9.67917e-06
-9.69275e-06
-9.70618e-06
-9.71947e-06
-9.73264e-06
-9.74569e-06
-9.7586e-06
-9.77138e-06
-9.78402e-06
-9.79653e-06
-9.80892e-06
-9.82118e-06
-9.83333e-06
-9.84535e-06
-9.85724e-06
-9.86901e-06
-9.88067e-06
-9.89221e-06
-9.90364e-06
-9.91495e-06
-9.92615e-06
-9.93723e-06
-9.94819e-06
-9.95906e-06
-9.96981e-06
-9.98045e-06
-9.99099e-06
-1.00014e-05
-1.00117e-05
-1.0022e-05
-1.00321e-05
-1.00421e-05
-1.0052e-05
-1.00618e-05
-1.00715e-05
-1.00811e-05
-1.00907e-05
-1.01001e-05
-1.01094e-05
-1.01186e-05
-1.01278e-05
-1.01368e-05
-1.01458e-05
-1.01546e-05
-1.01634e-05
-1.01721e-05
-1.01807e-05
-1.01892e-05
-1.01977e-05
-1.0206e-05
-1.02143e-05
-1.02224e-05
-1.02305e-05
-1.02385e-05
-1.02465e-05
-1.02543e-05
-1.02621e-05
-1.02698e-05
-1.02774e-05
-1.02849e-05
-1.02924e-05
-1.02998e-05
-1.03071e-05
-1.03143e-05
-1.03215e-05
-1.03286e-05
-1.03356e-05
-1.03425e-05
-1.03494e-05
-1.03562e-05
-1.0363e-05
-1.03697e-05
-1.03763e-05
-1.03828e-05
-1.03893e-05
-1.03957e-05
-1.0402e-05
-1.04083e-05
-1.04145e-05
-1.04207e-05
-1.04267e-05
-1.04328e-05
-1.04387e-05
-1.04446e-05
-1.04505e-05
-1.04563e-05
-1.0462e-05
-1.04677e-05
-1.04733e-05
-1.04789e-05
-1.04844e-05
-1.04898e-05
-1.04952e-05
-1.05005e-05
-1.05058e-05
-1.0511e-05
-1.05162e-05
-1.05213e-05
-1.05264e-05
-1.05314e-05
-1.05364e-05
-1.05413e-05
-1.05462e-05
-1.0551e-05
-1.05558e-05
-1.05605e-05
-1.05652e-05
-1.05698e-05
-1.05744e-05
-1.05789e-05
-1.05834e-05
-1.05878e-05
-1.05922e-05
-1.05966e-05
-1.06009e-05
-1.06051e-05
-1.06094e-05
-1.06136e-05
-1.06177e-05
-1.06218e-05
-1.06258e-05
-1.06298e-05
-1.06338e-05
-1.06377e-05
-1.06416e-05
-1.06455e-05
-1.06493e-05
-1.06531e-05
-1.06568e-05
-1.06605e-05
-1.06642e-05
-1.06678e-05
-1.06714e-05
-1.06749e-05
-1.06784e-05
-1.06819e-05
-1.06854e-05
-1.06888e-05
-1.06921e-05
-1.06955e-05
-1.06988e-05
-1.07021e-05
-1.07053e-05
-1.07085e-05
-1.07117e-05
-1.07148e-05
-1.07179e-05
-1.0721e-05
-1.0724e-05
-1.07271e-05
-1.073e-05
-1.0733e-05
-1.07359e-05
-1.07388e-05
-1.07417e-05
-1.07445e-05
-1.07473e-05
-1.07501e-05
-1.07529e-05
-1.07556e-05
-1.07583e-05
-1.07609e-05
-1.07636e-05
-1.07662e-05
-1.07688e-05
-1.07713e-05
-1.07739e-05
-1.07764e-05
-1.07789e-05
-1.07813e-05
-1.07838e-05
-1.07862e-05
-1.07886e-05
-1.07909e-05
-1.07933e-05
-1.07956e-05
-1.07979e-05
-1.08001e-05
-1.08024e-05
-1.08046e-05
-1.08068e-05
-1.0809e-05
-1.08111e-05
-1.08132e-05
-1.08153e-05
-1.08174e-05
-1.08195e-05
-1.08215e-05
-1.08236e-05
-1.08256e-05
-1.08276e-05
-1.08295e-05
-1.08315e-05
-1.08334e-05
-1.08353e-05
-1.08372e-05
-1.0839e-05
-1.08409e-05
-1.08427e-05
-1.08445e-05
-1.08463e-05
-1.08481e-05
-1.08498e-05
-1.08516e-05
-1.08533e-05
-1.0855e-05
-1.08567e-05
-1.08583e-05
-1.086e-05
-1.08616e-05
-1.08632e-05
-1.08648e-05
-1.08664e-05
-1.0868e-05
-1.08695e-05
-1.08711e-05
-1.08726e-05
-1.08741e-05
-1.08756e-05
-1.08771e-05
-1.08785e-05
-1.088e-05
-1.08814e-05
-1.08828e-05
-1.08842e-05
-1.08856e-05
-1.0887e-05
-1.08883e-05
-1.08897e-05
-1.0891e-05
-1.08923e-05
-1.08936e-05
-1.08949e-05
-1.08962e-05
-1.08975e-05
-1.08987e-05
-1.08999e-05
-1.09012e-05
-1.09024e-05
-1.09036e-05
-1.09048e-05
-1.0906e-05
-1.09071e-05
-1.09083e-05
-1.09094e-05
-1.09105e-05
-1.09117e-05
-1.09128e-05
-1.09139e-05
-1.09149e-05
-1.0916e-05
-1.09171e-05
-1.09181e-05
-1.09192e-05
-1.09202e-05
-1.09212e-05
-1.09222e-05
-1.09232e-05
-1.09242e-05
-1.09252e-05
-1.09262e-05
-1.09271e-05
-1.09281e-05
-1.0929e-05
-1.09299e-05
-1.09309e-05
-1.09318e-05
-1.09327e-05
-1.09336e-05
-1.09344e-05
-1.09353e-05
-1.09362e-05
-1.0937e-05
-1.09379e-05
-1.09387e-05
-1.09396e-05
-1.09404e-05
-1.09412e-05
-1.0942e-05
-1.09428e-05
-1.09436e-05
-1.09444e-05
-1.09451e-05
-1.09459e-05
-1.09467e-05
-1.09474e-05
-1.09482e-05
-1.09489e-05
-1.09496e-05
-1.09503e-05
-1.0951e-05
-1.09517e-05
-1.09524e-05
-1.09531e-05
-1.09538e-05
-1.09545e-05
-1.09552e-05
-1.09558e-05
-1.09565e-05
-1.09571e-05
-1.09578e-05
-1.09584e-05
-1.0959e-05
-1.09597e-05
-1.09603e-05
-1.09609e-05