# vtk DataFile Version 2.0
FlowField
ASCII
DATASET STRUCTURED_GRID
DIMENSIONS 800 1 200
POINTS 160000 float
0 0 0
0.04 0 0
0.08 0 0
0.12 0 0
0.16 0 0
0.2 0 0
0.24 0 0
0.28 0 0
0.32 0 0
0.36 0 0
0.4 0 0
0.44 0 0
0.48 0 0
0.52 0 0
0.56 0 0
0.6 0 0
0.64 0 0
0.68 0 0
0.72 0 0
0.76 0 0
0.8 0 0
0.84 0 0
0.88 0 0
0.92 0 0
0.96 0 0
1 0 0
1.04 0 0
1.08 0 0
1.12 0 0
1.16 0 0
1.2 0 0
1.24 0 0
1.28 0 0
1.32 0 0
1.36 0 0
1.4 0 0
1.44 0 0
1.48 0 0
1.52 0 0
1.56 0 0
1.6 0 0
1.64 0 0
1.68 0 0
1.72 0 0
1.76 0 0
1.8 0 0
1.84 0 0
1.88 0 0
1.92 0 0
1.96 0 0
2 0 0
2.04 0 0
2.08 0 0
2.12 0 0
2.16 0 0
2.2 0 0
2.24 0 0
2.28 0 0
2.32 0 0
2.36 0 0
2.4 0 0
2.44 0 0
2.48 0 0
2.52 0 0
2.56 0 0
2.6 0 0
2.64 0 0
2.68 0 0
2.72 0 0
2.76 0 0
2.8 0 0
2.84 0 0
2.88 0 0
2.92 0 0
2.96 0 0
3 0 0
3.04 0 0
3.08 0 0
3.12 0 0
3.16 0 0
3.2 0 0
3.24 0 0
3.28 0 0
3.32 0 0
3.36 0 0
3.4 0 0
3.44 0 0
3.48 0 0
3.52 0 0
3.56 0 0
3.6 0 0
3.64 0 0
3.68 0 0
3.72 0 0
3.76 0 0
3.8 0 0
3.84 0 0
3.88 0 0
3.92 0 0
3.96 0 0
4 0 0
4.04 0 0
4.08 0 0
4.12 0 0
4.16 0 0
4.2 0 0
4.24 0 0
4.28 0 0
4.32 0 0
4.36 0 0
4.4 0 0
4.44 0 0
4.48 0 0
4.52 0 0
4.56 0 0
4.6 0 0
4.64 0 0
4.68 0 0
4.72 0 0
4.76 0 0
4.8 0 0
4.84 0 0
4.88 0 0
4.92 0 0
4.96 0 0
5 0 0
5.04 0 0
5.08 0 0
5.12 0 0
5.16 0 0
5.2 0 0
5.24 0 0
5.28 0 0
5.32 0 0
5.36 0 0
5.4 0 0
5.44 0 0
5.48 0 0
5.52 0 0
5.56 0 0
5.6 0 0
5.64 0 0
5.68 0 0
5.72 0 0
5.76 0 0
5.8 0 0
5.84 0 0
5.88 0 0
5.92 0 0
5.96 0 0
6 0 0
6.04 0 0
6.08 0 0
6.12 0 0
6.16 0 0
6.2 0 0
6.24 0 0
6.28 0 0
6.32 0 0
6.36 0 0
6.4 0 0
6.44 0 0
6.48 0 0
6.52 0 0
6.56 0 0
6.6 0 0
6.64 0 0
6.68 0 0
6.72 0 0
6.76 0 0
6.8 0 0
6.84 0 0
6.88 0 0
6.92 0 0
6.96 0 0
7 0 0
7.04 0 0
7.08 0 0
7.12 0 0
7.16 0 0
7.2 0 0
7.24 0 0
7.28 0 0
7.32 0 0
7.36 0 0
7.4 0 0
7.44 0 0
7.48 0 0
7.52 0 0
7.56 0 0
7.6 0 0
7.64 0 0
7.68 0 0
7.72 0 0
7.76 0 0
7.8 0 0
7.84 0 0
7.88 0 0
7.92 0 0
7.96 0 0
8 0 0
8.04 0 0
8.08 0 0
8.12 0 0
8.16 0 0
8.2 0 0
8.24 0 0
8.28 0 0
8.32 0 0
8.36 0 0
8.4 0 0
8.44 0 0
8.48 0 0
8.52 0 0
8.56 0 0
8.6 0 0
8.64 0 0
8.68 0 0
8.72 0 0
8.76 0 0
8.8 0 0
8.84 0 0
8.88 0 0
8.92 0 0
8.96 0 0
9 0 0
9.04 0 0
9.08 0 0
9.12 0 0
9.16 0 0
9.2 0 0
9.24 0 0
9.28 0 0
9.32 0 0
9.36 0 0
9.4 0 0
9.44 0 0
9.48 0 0
9.52 0 0
9.56 0 0
9.6 0 0
9.64 0 0
9.68 0 0
9.72 0 0
9.76 0 0
9.8 0 0
9.84 0 0
9.88 0 0
9.92 0 0
9.96 0 0
10 0 0
10.04 0 0
10.08 0 0
10.12 0 0
10.16 0 0
10.2 0 0
10.24 0 0
10.28 0 0
10.32 0 0
10.36 0 0
10.4 0 0
10.44 0 0
10.48 0 0
10.52 0 0
10.56 0 0
10.6 0 0
10.64 0 0
10.68 0 0
10.72 0 0
10.76 0 0
10.8 0 0
10.84 0 0
10.88 0 0
10.92 0 0
10.96 0 0
11 0 0
11.04 0 0
11.08 0 0
11.12 0 0
11.16 0 0
11.2 0 0
11.24 0 0
11.28 0 0
11.32 0 0
11.36 0 0
11.4 0 0
11.44 0 0
11.48 0 0
11.52 0 0
11.56 0 0
11.6 0 0
11.64 0 0
11.68 0 0
11.72 0 0
11.76 0 0
11.8 0 0
11.84 0 0
11.88 0 0
11.92 0 0
11.96 0 0
12 0 0
12.04 0 0
12.08 0 0
12.12 0 0
12.16 0 0
12.2 0 0
12.24 0 0
12.28 0 0
12.32 0 0
12.36 0 0
12.4 0 0
12.44 0 0
12.48 0 0
12.52 0 0
12.56 0 0
12.6 0 0
12.64 0 0
12.68 0 0
12.72 0 0
12.76 0 0
12.8 0 0
12.84 0 0
12.88 0 0
12.92 0 0
12.96 0 0
13 0 0
13.04 0 0
13.08 0 0
13.12 0 0
13.16 0 0
13.2 0 0
13.24 0 0
13.28 0 0
13.32 0 0
13.36 0 0
13.4 0 0
13.44 0 0
13.48 0 0
13.52 0 0
13.56 0 0
13.6 0 0
13.64 0 0
13.68 0 0
13.72 0 0
13.76 0 0
13.8 0 0
13.84 0 0
13.88 0 0
13.92 0 0
13.96 0 0
14 0 0
14.04 0 0
14.08 0 0
14.12 0 0
14.16 0 0
14.2 0 0
14.24 0 0
14.28 0 0
14.32 0 0
14.36 0 0
14.4 0 0
14.44 0 0
14.48 0 0
14.52 0 0
14.56 0 0
14.6 0 0
14.64 0 0
14.68 0 0
14.72 0 0
14.76 0 0
14.8 0 0
14.84 0 0
14.88 0 0
14.92 0 0
14.96 0 0
15 0 0
15.04 0 0
15.08 0 0
15.12 0 0
15.16 0 0
15.2 0 0
15.24 0 0
15.28 0 0
15.32 0 0
15.36 0 0
15.4 0 0
15.44 0 0
15.48 0 0
15.52 0 0
15.56 0 0
15.6 0 0
15.64 0 0
15.68 0 0
15.72 0 0
15.76 0 0
15.8 0 0
15.84 0 0
15.88 0 0
15.92 0 0
15.96 0 0
16 0 0
16.04 0 0
16.08 0 0
16.12 0 0
16.16 0 0
16.2 0 0
16.24 0 0
16.28 0 0
16.32 0 0
16.36 0 0
16.4 0 0
16.44 0 0
16.48 0 0
16.52 0 0
16.56 0 0
16.6 0 0
16.64 0 0
16.68 0 0
16.72 0 0
16.76 0 0
16.8 0 0
16.84 0 0
16.88 0 0
16.92 0 0
16.96 0 0
17 0 0
17.04 0 0
17.08 0 0
17.12 0 0
17.16 0 0
17.2 0 0
17.24 0 0
17.28 0 0
17.32 0 0
17.36 0 0
17.4 0 0
17.44 0 0
17.48 0 0
17.52 0 0
17.56 0 0
17.6 0 0
17.64 0 0
17.68 0 0
17.72 0 0
17.76 0 0
17.8 0 0
17.84 0 0
17.88 0 0
17.92 0 0
17.96 0 0
18 0 0
18.04 0 0
18.08 0 0
18.12 0 0
18.16 0 0
18.2 0 0
18.24 0 0
18.28 0 0
18.32 0 0
18.36 0 0
18.4 0 0
18.44 0 0
18.48 0 0
18.52 0 0
18.56 0 0
18.6 0 0
18.64 0 0
18.68 0 0
18.72 0 0
18.76 0 0
18.8 0 0
18.84 0 0
18.88 0 0
18.92 0 0
18.96 0 0
19 0 0
19.04 0 0
19.08 0 0
19.12 0 0
19.16 0 0
19.2 0 0
19.24 0 0
19.28 0 0
19.32 0 0
19.36 0 0
19.4 0 0
19.44 0 0
19.48 0 0
19.52 0 0
19.56 0 0
19.6 0 0
19.64 0 0
19.68 0 0
19.72 0 0
19.76 0 0
19.8 0 0
19.84 0 0
19.88 0 0
19.92 0 0
19.96 0 0
20 0 0
20.04 0 0
20.08 0 0
20.12 0 0
20.16 0 0
20.2 0 0
20.24 0 0
20.28 0 0
20.32 0 0
20.36 0 0
20.4 0 0
20.44 0 0
20.48 0 0
20.52 0 0
20.56 0 0
20.6 0 0
20.64 0 0
20.68 0 0
20.72 0 0
20.76 0 0
20.8 0 0
20.84 0 0
20.88 0 0
20.92 0 0
20.96 0 0
21 0 0
21.04 0 0
21.08 0 0
21.12 0 0
21.16 0 0
21.2 0 0
21.24 0 0
21.28 0 0
21.32 0 0
21.36 0 0
21.4 0 0
21.44 0 0
21.48 0 0
21.52 0 0
21.56 0 0
21.6 0 0
21.64 0 0
21.68 0 0
21.72 0 0
21.76 0 0
21.8 0 0
21.84 0 0
21.88 0 0
21.92 0 0
21.96 0 0
22 0 0
22.04 0 0
22.08 0 0
22.12 0 0
22.16 0 0
22.2 0 0
22.24 0 0
22.28 0 0
22.32 0 0
22.36 0 0
22.4 0 0
22.44 0 0
22.48 0 0
22.52 0 0
22.56 0 0
22.6 0 0
22.64 0 0
22.68 0 0
22.72 0 0
22.76 0 0
22.8 0 0
22.84 0 0
22.88 0 0
22.92 0 0
22.96 0 0
23 0 0
23.04 0 0
23.08 0 0
23.12 0 0
23.16 0 0
23.2 0 0
23.24 0 0
23.28 0 0
23.32 0 0
23.36 0 0
23.4 0 0
23.44 0 0
23.48 0 0
23.52 0 0
23.56 0 0
23.6 0 0
23.64 0 0
23.68 0 0
23.72 0 0
23.76 0 0
23.8 0 0
23.84 0 0
23.88 0 0
23.92 0 0
23.96 0 0
24 0 0
24.04 0 0
24.08 0 0
24.12 0 0
24.16 0 0
24.2 0 0
24.24 0 0
24.28 0 0
24.32 0 0
24.36 0 0
24.4 0 0
24.44 0 0
24.48 0 0
24.52 0 0
24.56 0 0
24.6 0 0
24.64 0 0
24.68 0 0
24.72 0 0
24.76 0 0
24.8 0 0
24.84 0 0
24.88 0 0
24.92 0 0
24.96 0 0
25 0 0
25.04 0 0
25.08 0 0
25.12 0 0
25.16 0 0
25.2 0 0
25.24 0 0
25.28 0 0
25.32 0 0
25.36 0 0
25.4 0 0
25.44 0 0
25.48 0 0
25.52 0 0
25.56 0 0
25.6 0 0
25.64 0 0
25.68 0 0
25.72 0 0
25.76 0 0
25.8 0 0
25.84 0 0
25.88 0 0
25.92 0 0
25.96 0 0
26 0 0
26.04 0 0
26.08 0 0
26.12 0 0
26.16 0 0
26.2 0 0
26.24 0 0
26.28 0 0
26.32 0 0
26.36 0 0
26.4 0 0
26.44 0 0
26.48 0 0
26.52 0 0
26.56 0 0
26.6 0 0
26.64 0 0
26.68 0 0
26.72 0 0
26.76 0 0
26.8 0 0
26.84 0 0
26.88 0 0
26.92 0 0
26.96 0 0
27 0 0
27.04 0 0
27.08 0 0
27.12 0 0
27.16 0 0
27.2 0 0
27.24 0 0
27.28 0 0
27.32 0 0
27.36 0 0
27.4 0 0
27.44 0 0
27.48 0 0
27.52 0 0
27.56 0 0
27.6 0 0
27.64 0 0
27.68 0 0
27.72 0 0
27.76 0 0
27.8 0 0
27.84 0 0
27.88 0 0
27.92 0 0
27.96 0 0
28 0 0
28.04 0 0
28.08 0 0
28.12 0 0
28.16 0 0
28.2 0 0
28.24 0 0
28.28 0 0
28.32 0 0
28.36 0 0
28.4 0 0
28.44 0 0
28.48 0 0
28.52 0 0
28.56 0 0
28.6 0 0
28.64 0 0
28.68 0 0
28.72 0 0
28.76 0 0
28.8 0 0
28.84 0 0
28.88 0 0
28.92 0 0
28.96 0 0
29 0 0
29.04 0 0
29.08 0 0
29.12 0 0
29.16 0 0
29.2 0 0
29.24 0 0
29.28 0 0
29.32 0 0
29.36 0 0
29.4 0 0
29.44 0 0
29.48 0 0
29.52 0 0
29.56 0 0
29.6 0 0
29.64 0 0
29.68 0 0
29.72 0 0
29.76 0 0
29.8 0 0
29.84 0 0
29.88 0 0
29.92 0 0
29.96 0 0
30 0 0
30.04 0 0
30.08 0 0
30.12 0 0
30.16 0 0
30.2 0 0
30.24 0 0
30.28 0 0
30.32 0 0
30.36 0 0
30.4 0 0
30.44 0 0
30.48 0 0
30.52 0 0
30.56 0 0
30.6 0 0
30.64 0 0
30.68 0 0
30.72 0 0
30.76 0 0
30.8 0 0
30.84 0 0
30.88 0 0
30.92 0 0
30.96 0 0
31 0 0
31.04 0 0
31.08 0 0
31.12 0 0
31.16 0 0
31.2 0 0
31.24 0 0
31.28 0 0
31.32 0 0
31.36 0 0
31.4 0 0
31.44 0 0
31.48 0 0
31.52 0 0
31.56 0 0
31.6 0 0
31.64 0 0
31.68 0 0
31.72 0 0
31.76 0 0
31.8 0 0
31.84 0 0
31.88 0 0
31.92 0 0
31.96 0 0
0 0.005 0
0.04 0.005 0
0.08 0.005 0
0.12 0.005 0
0.16 0.005 0
0.2 0.005 0
0.24 0.005 0
0.28 0.005 0
0.32 0.005 0
0.36 0.005 0
0.4 0.005 0
0.44 0.005 0
0.48 0.005 0
0.52 0.005 0
0.56 0.005 0
0.6 0.005 0
0.64 0.005 0
0.68 0.005 0
0.72 0.005 0
0.76 0.005 0
0.8 0.005 0
0.84 0.005 0
0.88 0.005 0
0.92 0.005 0
0.96 0.005 0
1 0.005 0
1.04 0.005 0
1.08 0.005 0
1.12 0.005 0
1.16 0.005 0
1.2 0.005 0
1.24 0.005 0
1.28 0.005 0
1.32 0.005 0
1.36 0.005 0
1.4 0.005 0
1.44 0.005 0
1.48 0.005 0
1.52 0.005 0
1.56 0.005 0
1.6 0.005 0
1.64 0.005 0
1.68 0.005 0
1.72 0.005 0
1.76 0.005 0
1.8 0.005 0
1.84 0.005 0
1.88 0.005 0
1.92 0.005 0
1.96 0.005 0
2 0.005 0
2.04 0.005 0
2.08 0.005 0
2.12 0.005 0
2.16 0.005 0
2.2 0.005 0
2.24 0.005 0
2.28 0.005 0
2.32 0.005 0
2.36 0.005 0
2.4 0.005 0
2.44 0.005 0
2.48 0.005 0
2.52 0.005 0
2.56 0.005 0
2.6 0.005 0
2.64 0.005 0
2.68 0.005 0
2.72 0.005 0
2.76 0.005 0
2.8 0.005 0
2.84 0.005 0
2.88 0.005 0
2.92 0.005 0
2.96 0.005 0
3 0.005 0
3.04 0.005 0
3.08 0.005 0
3.12 0.005 0
3.16 0.005 0
3.2 0.005 0
3.24 0.005 0
3.28 0.005 0
3.32 0.005 0
3.36 0.005 0
3.4 0.005 0
3.44 0.005 0
3.48 0.005 0
3.52 0.005 0
3.56 0.005 0
3.6 0.005 0
3.64 0.005 0
3.68 0.005 0
3.72 0.005 0
3.76 0.005 0
3.8 0.005 0
3.84 0.005 0
3.88 0.005 0
3.92 0.005 0
3.96 0.005 0
4 0.005 0
4.04 0.005 0
4.08 0.005 0
4.12 0.005 0
4.16 0.005 0
4.2 0.005 0
4.24 0.005 0
4.28 0.005 0
4.32 0.005 0
4.36 0.005 0
4.4 0.005 0
4.44 0.005 0
4.48 0.005 0
4.52 0.005 0
4.56 0.005 0
4.6 0.005 0
4.64 0.005 0
4.68 0.005 0
4.72 0.005 0
4.76 0.005 0
4.8 0.005 0
4.84 0.005 0
4.88 0.005 0
4.92 0.005 0
4.96 0.005 0
5 0.005 0
5.04 0.005 0
5.08 0.005 0
5.12 0.005 0
5.16 0.005 0
5.2 0.005 0
5.24 0.005 0
5.28 0.005 0
5.32 0.005 0
5.36 0.005 0
5.4 0.005 0
5.44 0.005 0
5.48 0.005 0
5.52 0.005 0
5.56 0.005 0
5.6 0.005 0
5.64 0.005 0
5.68 0.005 0
5.72 0.005 0
5.76 0.005 0
5.8 0.005 0
5.84 0.005 0
5.88 0.005 0
5.92 0.005 0
5.96 0.005 0
6 0.005 0
6.04 0.005 0
6.08 0.005 0
6.12 0.005 0
6.16 0.005 0
6.2 0.005 0
6.24 0.005 0
6.28 0.005 0
6.32 0.005 0
6.36 0.005 0
6.4 0.005 0
6.44 0.005 0
6.48 0.005 0
6.52 0.005 0
6.56 0.005 0
6.6 0.005 0
6.64 0.005 0
6.68 0.005 0
6.72 0.005 0
6.76 0.005 0
6.8 0.005 0
6.84 0.005 0
6.88 0.005 0
6.92 0.005 0
6.96 0.005 0
7 0.005 0
7.04 0.005 0
7.08 0.005 0
7.12 0.005 0
7.16 0.005 0
7.2 0.005 0
7.24 0.005 0
7.28 0.005 0
7.32 0.005 0
7.36 0.005 0
7.4 0.005 0
[...]
POINT_DATA 160000

SCALARS phi float 1
LOOKUP_TABLE default
1
1
1
1
1
1
1
1
1
1
1
1
1
1
1
1
1
1
1
1
1
1
1
1
1
1
1
0.999999
0.999997
0.999994
0.999988
0.999977
0.999957
0.999922
0.999866
0.999776
0.99964
0.999437
0.999146
0.99874
0.998185
0.997447
0.996486
0.99526
0.993725
0.99184
0.989559
0.986844
0.983655
0.979961
0.975732
0.970947
0.965587
0.959642
0.953109
0.945987
0.938283
0.93001
0.921184
0.911824
0.901956
0.891606
0.880803
0.869577
0.85796
0.845986
0.833685
0.821092
0.808238
0.795155
0.781873
0.768423
0.754832
0.741127
0.727334
0.713478
0.699579
0.685661
0.671741
0.65784
0.643973
0.630155
0.616402
0.602726
0.589139
0.575651
0.562272
0.54901
0.535874
0.52287
0.510004
0.497281
0.484706
0.472283
0.460015
0.447905
0.435955
0.424167
0.412543
0.401084
0.38979
0.378662
0.3677
0.356904
0.346274
0.33581
0.32551
0.315374
0.305402
0.295592
0.285943
0.276455
0.267126
0.257956
0.248943
0.240087
0.231387
0.222841
0.21445
0.206212
0.198127
0.190195
0.182415
0.174788
0.167314
0.159992
0.152824
0.145809
0.138949
0.132245
0.125697
0.119307
0.113076
0.107006
0.101099
0.0953551
0.0897772
0.084367
0.0791263
0.0740571
0.0691611
0.0644403
0.0598963
0.0555309
0.0513455
0.0473414
0.0435197
0.0398812
0.0364263
0.0331553
0.0300679
0.0271633
0.0244403
0.0218974
0.0195322
0.0173417
0.0153224
0.01347
0.0117796
0.0102453
0.00886077
0.00761888
0.0065119
0.00553162
0.00466937
0.0039162
0.003263
0.00270063
0.00222005
0.00181248
0.00146947
0.00118303
0.000945706
0.000750619
0.000591522
0.000462806
0.000359497
0.00027724
0.000212265
0.000161348
0.000121764
9.12321e-05
6.78671e-05
5.0126e-05
3.67597e-05
2.6767e-05
1.93535e-05
1.38953e-05
9.90698e-06
7.01453e-06
4.93239e-06
3.44458e-06
2.38922e-06
1.64602e-06
1.1264e-06
7.65691e-07
5.17052e-07
3.46863e-07
2.31177e-07
1.53079e-07
1.00714e-07
6.58402e-08
4.27699e-08
2.76092e-08
1.77116e-08
1.12919e-08
7.15498e-09
4.50606e-09
2.82068e-09
1.75509e-09
1.08556e-09
6.67472e-10
4.07999e-10
2.47942e-10
1.49804e-10
8.99909e-11
5.37518e-11
3.19245e-11
1.88543e-11
1.10731e-11
6.46718e-12
3.75636e-12
2.16991e-12
1.24668e-12
7.12395e-13
4.04909e-13
2.28918e-13
1.28737e-13
7.20182e-14
4.00785e-14
2.21884e-14
1.22209e-14
6.69653e-15
3.65079e-15
1.98027e-15
1.06875e-15
5.73929e-16
3.06677e-16
1.63064e-16
8.62784e-17
4.54282e-17
2.38036e-17
1.24126e-17
6.44167e-18
3.32708e-18
1.71028e-18
8.75029e-19
4.45595e-19
2.25856e-19
1.13949e-19
5.72244e-20
2.86062e-20
1.42349e-20
7.05145e-21
3.47727e-21
1.70705e-21
8.34283e-22
4.05927e-22
1.96634e-22
9.48327e-23
4.55358e-23
2.17698e-23
1.03627e-23
4.91148e-24
2.31786e-24
1.08919e-24
5.09652e-25
2.37466e-25
1.10179e-25
5.09066e-26
2.34225e-26
1.07322e-26
4.89715e-27
2.22541e-27
1.00715e-27
4.53947e-28
2.03774e-28
9.11037e-29
4.05669e-29
1.79914e-29
7.94736e-30
3.49666e-30
1.53236e-30
6.68895e-31
2.90836e-31
1.25962e-31
5.43423e-32
2.33535e-32
9.99741e-33
4.26336e-33
1.81114e-33
7.6647e-34
3.23137e-34
1.35717e-34
5.67862e-35
2.36712e-35
9.83043e-36
4.0673e-36
1.67659e-36
6.88559e-37
2.81744e-37
1.14862e-37
4.6656e-38
1.88824e-38
7.61433e-39
3.05939e-39
1.22482e-39
4.88601e-40
1.94215e-40
7.6924e-41
3.03599e-41
1.19399e-41
4.67922e-42
1.82734e-42
7.11127e-43
2.75778e-43
1.06577e-43
4.10453e-44
1.57531e-44
6.02522e-45
2.29664e-45
8.7243e-46
3.30286e-46
1.24617e-46
4.68593e-47
1.75611e-47
6.5592e-48
2.44172e-48
9.05927e-49
3.35002e-49
1.2347e-49
4.5357e-50
1.66072e-50
6.06073e-51
2.20462e-51
7.9933e-52
2.88874e-52
1.0406e-52
3.73645e-53
1.33732e-53
4.77113e-54
1.69675e-54
6.01493e-55
2.12551e-55
7.48723e-56
2.6291e-56
9.20295e-57
3.21133e-57
1.11708e-57
3.87371e-58
1.33913e-58
4.61498e-59
1.58554e-59
5.43057e-60
1.8543e-60
6.31225e-61
2.14222e-61
7.24803e-62
2.44489e-62
8.22211e-63
2.75675e-63
9.21521e-64
3.07121e-64
1.02051e-64
3.38086e-65
1.11672e-65
3.67771e-66
1.20761e-66
3.9536e-67
1.29057e-67
4.20049e-68
1.36316e-68
4.41093e-69
1.42315e-69
4.57836e-70
1.46864e-70
4.69752e-71
1.49821e-71
4.76467e-72
1.51095e-72
4.77784e-73
1.50653e-73
4.73686e-74
1.48517e-74
4.64341e-75
1.44769e-75
4.50089e-76
1.39542e-76
4.31419e-77
1.3301e-77
4.08946e-78
1.25385e-78
3.83375e-79
1.16898e-79
3.55467e-80
1.07796e-80
3.25999e-81
9.83213e-82
2.95733e-82
8.87102e-83
2.65383e-83
7.91776e-84
2.35593e-84
6.99129e-85
2.06914e-85
6.1075e-86
1.79796e-86
5.27891e-87
1.54581e-87
4.51462e-88
1.31505e-88
3.82049e-89
1.10703e-89
3.19933e-90
9.22206e-91
2.65134e-91
7.60283e-92
2.1745e-92
6.20327e-93
1.76507e-93
5.00942e-94
1.41807e-94
4.00401e-95
1.12768e-95
3.16787e-96
8.87659e-97
2.48098e-97
6.91677e-98
1.92347e-98
5.33551e-99
1.4763e-99
4.07461e-100
1.12179e-100
3.08073e-101
8.43945e-102
2.3062e-102
6.28644e-103
1.70938e-103
4.63664e-104
1.25458e-104
3.38632e-105
9.11791e-106
2.44907e-106
6.56218e-107
1.75404e-107
4.6771e-108
1.24412e-108
3.30141e-109
8.73957e-110
2.308e-110
6.08052e-111
1.59811e-111
4.19019e-112
1.09604e-112
2.86013e-113
7.44587e-114
1.93382e-114
5.01063e-115
1.29522e-115
3.34022e-116
8.59381e-117
2.20587e-117
5.64885e-118
1.4432e-118
3.67861e-119
9.35474e-120
2.37342e-120
6.00776e-121
1.51722e-121
3.82284e-122
9.61006e-123
2.4103e-123
6.03145e-124
1.50585e-124
3.75104e-125
9.32258e-126
2.31172e-126
5.71941e-127
1.41184e-127
3.4773e-128
8.5452e-129
2.09521e-129
5.12577e-130
1.25118e-130
3.04729e-131
7.40525e-132
1.79556e-132
4.3441e-133
1.04867e-133
2.5259e-134
6.07069e-135
1.45581e-135
3.48353e-136
8.31729e-137
1.98151e-137
4.71044e-138
1.11733e-138
2.6446e-139
6.24591e-140
1.47195e-140
3.46138e-141
8.12216e-142
1.90178e-142
4.44339e-143
1.03595e-143
2.4101e-144
5.59506e-145
1.29613e-145
2.99619e-146
6.91145e-147
1.59092e-147
3.65435e-148
8.37637e-149
1.91596e-149
4.37326e-150
9.96124e-151
2.26419e-151
5.13574e-152
1.16249e-152
2.62585e-153
5.91902e-154
1.33146e-154
2.98888e-155
6.69563e-156
1.49685e-156
3.33943e-157
7.43489e-158
1.65191e-158
3.66276e-159
8.10483e-160
1.78976e-160
3.94421e-161
8.6745e-162
1.90392e-162
4.17035e-163
9.11633e-164
1.9888e-164
4.33002e-165
9.40838e-166
2.04018e-166
4.41524e-167
9.53611e-168
2.05552e-168
4.4219e-169
9.49364e-170
2.03421e-170
4.35008e-171
9.28413e-172
1.97755e-172
4.20398e-173
8.91946e-174
1.88871e-174
3.99153e-175
8.41909e-176
1.77233e-176
3.72371e-177
7.80841e-178
1.63421e-178
3.41357e-179
7.11658e-180
1.48079e-180
3.07525e-181
6.37427e-182
1.3187e-182
2.72288e-183
5.61151e-184
1.15425e-184
2.3697e-185
4.85577e-186
9.9311e-187
2.02727e-187
4.13052e-188
8.39991e-189
1.705e-189
3.45427e-190
6.98506e-191
1.40983e-191
2.84022e-192
5.71113e-193
1.14625e-193
2.2963e-194
4.59163e-195
9.16426e-196
1.82567e-196
3.63029e-197
7.20538e-198
1.42748e-198
2.82282e-199
5.57179e-200
1.09776e-200
2.15887e-201
4.23787e-202
8.30375e-203
1.62408e-203
3.17066e-204
6.17875e-205
1.20188e-205
2.33365e-206
4.52297e-207
8.75036e-208
1.68983e-208
3.25745e-209
6.26804e-210
1.20394e-210
2.30833e-211
4.41788e-212
8.44021e-213
1.6096e-213
3.06413e-214
5.8227e-215
1.10451e-215
2.09144e-216
3.95322e-217
7.45914e-218
1.40495e-218
2.64159e-219
4.958e-220
9.28933e-221
1.7374e-221
3.24382e-222
6.04578e-223
1.12484e-223
2.08915e-224
3.87342e-225
7.16909e-226
1.32459e-226
2.44311e-227
4.49837e-228
8.26832e-229
1.51716e-229
2.77904e-230
5.08176e-231
9.27656e-232
1.6905e-232
3.07539e-233
5.58526e-234
1.01262e-234
1.83277e-235
3.31155e-236
5.97333e-237
1.07564e-237
1.93366e-238
3.47023e-239
6.21735e-240
1.11204e-240
1.98565e-241
3.53961e-242
6.29912e-243
1.11912e-243
1.98494e-244
3.51472e-245
6.21314e-246
1.0965e-246
1.93189e-247
3.39809e-248
5.96715e-249
1.04612e-249
1.83095e-250
3.19929e-251
5.58106e-252
9.71994e-253
1.69004e-253
2.93371e-254
5.08424e-255
8.79679e-256
1.51954e-256
2.62055e-257
4.51194e-258
7.75583e-259
1.33103e-259
2.28056e-260
3.90115e-261
6.66257e-262
1.13603e-262
1.9339e-263
3.28685e-264
5.57735e-265
9.44883e-266
1.5982e-266
2.69892e-267
4.55043e-268
7.65988e-269
1.28735e-269
2.16015e-270
3.6189e-271
6.05315e-272
1.01087e-272
1.68548e-273
2.80585e-274
4.66358e-275
7.73907e-276
1.28225e-276
2.12118e-277
3.50346e-278
5.77745e-279
9.5125e-280
1.56377e-280
2.5667e-281
4.20628e-282
6.88249e-283
1.12439e-283
1.83406e-284
2.98701e-285
4.8572e-286
7.88613e-287
1.27841e-287
2.06923e-288
3.34407e-289
5.39604e-290
8.69374e-291
1.39853e-291
2.24632e-292
3.60253e-293
5.76871e-294
9.22331e-295
1.47242e-295
2.34703e-296
3.73545e-297
5.9362e-298
9.41924e-299
1.49233e-299
2.36079e-300
3.72902e-301
5.88133e-302
9.26197e-303
1.45639e-303
2.28665e-304
3.58483e-305
5.61162e-306
8.77118e-307
1.36892e-307
2.13329e-308
3.31952e-309
5.15767e-310
8.00178e-311
1.23958e-311
1.91742e-312
2.96155e-313
4.56749e-314
7.03387e-315
1.08161e-315
1.66076e-316
2.54627e-317
3.89821e-318
5.95917e-319
9.09822e-320
1.38585e-320
2.12448e-321
3.26083e-322
5.43472e-323
0
0
0
0
0
0
0
0
0
0
0
0
0
0
0
0
0
0
0
0
0
0
0
0
0
0
0
0
0
0
0
0
0
0
0
0
0
0
0
0
0
0
0
0
0
0
0
0
0
0
1
1
1
1
1
1
1
1
1
1
1
1
1
1
1
1
1
1
1
1
1
1
1
1
1
1
1
0.999999
0.999997
0.999994
0.999988
0.999977
0.999957
0.999922
0.999866
0.999776
0.99964
0.999437
0.999146
0.99874
0.998185
0.997447
0.996486
0.99526
0.993725
0.99184
0.989559
0.986844
0.983655
0.979961
0.975732
0.970947
0.965587
0.959642
0.953109
0.945987
0.938283
0.93001
0.921184
0.911824
0.901956
0.891606
0.880803
0.869577
0.85796
0.845986
0.833685
0.821092
0.808238
0.795155
0.781873
0.768423
0.754832
0.741127
0.727334
0.713478
0.699579
0.685661
0.671741
0.65784
0.643973
0.630155
0.616402
0.602726
0.589139
0.575651
0.562272
0.54901
0.535874
0.52287
0.510004
0.497281
0.484706
0.472283
0.460015
0.447905
0.435955
0.424167
0.412543
0.401084
0.38979
0.378662
0.3677
0.356904
0.346274
0.33581
0.32551
0.315374
0.305402
0.295592
0.285943
0.276455
0.267126
0.257956
0.248943
0.240087
0.231387
0.222841
0.21445
0.206212
0.198127
0.190195
0.182415
0.174788
0.167314
0.159992
0.152824
0.145809
0.138949
0.132245
0.125697
0.119307
0.113076
0.107006
0.101099
0.0953551
0.0897772
0.084367
0.0791263
0.0740571
0.0691611
0.0644403
0.0598963
0.0555309
0.0513455
0.0473414
0.0435197
0.0398812
0.0364263
0.0331553
0.0300679
0.0271633
0.0244403
0.0218974
0.0195322
0.0173417
0.0153224
0.01347
0.0117796
0.0102453
0.00886077
0.00761888
0.0065119
0.00553162
0.00466937
0.0039162
0.003263
0.00270063
0.00222005
0.00181248
0.00146947
0.00118303
0.000945706
0.000750619
0.000591522
0.000462806
0.000359497
0.00027724
0.000212265
0.000161348
0.000121764
9.12321e-05
6.78671e-05
5.0126e-05
3.67597e-05
2.6767e-05
1.93535e-05
1.38953e-05
9.90698e-06
7.01453e-06
4.93239e-06
3.44458e-06
2.38922e-06
1.64602e-06
1.1264e-06
7.65691e-07
5.17052e-07
3.46863e-07
2.31177e-07
1.53079e-07
1.00714e-07
6.58402e-08
4.27699e-08
2.76092e-08
1.77116e-08
1.12919e-08
7.15498e-09
4.50606e-09
2.82068e-09
1.75509e-09
1.08556e-09
6.67472e-10
4.07999e-10
2.47942e-10
1.49804e-10
8.99909e-11
5.37518e-11
3.19245e-11
1.88543e-11
1.10731e-11
6.46718e-12
3.75636e-12
2.16991e-12
1.24668e-12
7.12395e-13
4.04909e-13
2.28918e-13
1.28737e-13
7.20182e-14
4.00785e-14
2.21884e-14
1.22209e-14
6.69653e-15
3.65079e-15
1.98027e-15
1.06875e-15
5.73929e-16
3.06677e-16
1.63064e-16
8.62784e-17
4.54282e-17
2.38036e-17
1.24126e-17
6.44167e-18
3.32708e-18
1.71028e-18
8.75029e-19
4.45595e-19
2.25856e-19
1.13949e-19
5.72244e-20
2.86062e-20
1.42349e-20
7.05145e-21
3.47727e-21
1.70705e-21
8.34283e-22
4.05927e-22
1.96634e-22
9.48327e-23
4.55358e-23
2.17698e-23
1.03627e-23
4.91148e-24
2.31786e-24
1.08919e-24
5.09652e-25
2.37466e-25
1.10179e-25
5.09066e-26
2.34225e-26
1.07322e-26
4.89715e-27
2.22541e-27
1.00715e-27
4.53947e-28
2.03774e-28
9.11037e-29
4.05669e-29
1.79914e-29
7.94736e-30
3.49666e-30
1.53236e-30
6.68895e-31
2.90836e-31
1.25962e-31
5.43423e-32
2.33535e-32
9.99741e-33
4.26336e-33
1.81114e-33
7.6647e-34
3.23137e-34
1.35717e-34
5.67862e-35
2.36712e-35
9.83043e-36
4.0673e-36
1.67659e-36
6.88559e-37
2.81744e-37
1.14862e-37
4.6656e-38
1.88824e-38
7.61433e-39
3.05939e-39
1.22482e-39
4.88601e-40
1.94215e-40
7.6924e-41
3.03599e-41
1.19399e-41
4.67922e-42
1.82734e-42
7.11127e-43
2.75778e-43
1.06577e-43
4.10453e-44
1.57531e-44
6.02522e-45
2.29664e-45
8.7243e-46
3.30286e-46
1.24617e-46
4.68593e-47
1.75611e-47
6.5592e-48
2.44172e-48
9.05927e-49
3.35002e-49
1.2347e-49
4.5357e-50
1.66072e-50
6.06073e-51
2.20462e-51
7.9933e-52
2.88874e-52
1.0406e-52
3.73645e-53
1.33732e-53
4.77113e-54
1.69675e-54
6.01493e-55
2.12551e-55
7.48723e-56
2.6291e-56
9.20295e-57
3.21133e-57
1.11708e-57
3.87371e-58
1.33913e-58
4.61498e-59
1.58554e-59
5.43057e-60
1.8543e-60
6.31225e-61
2.14222e-61
7.24803e-62
2.44489e-62
8.22211e-63
2.75675e-63
9.21521e-64
3.07121e-64
1.02051e-64
3.38086e-65
1.11672e-65
3.67771e-66
1.20761e-66
3.9536e-67
1.29057e-67
4.20049e-68
1.36316e-68
4.41093e-69
1.42315e-69
4.57836e-70
1.46864e-70
4.69752e-71
1.49821e-71
4.76467e-72
1.51095e-72
4.77784e-73
1.50653e-73
4.73686e-74
1.48517e-74
4.64341e-75
1.44769e-75
4.50089e-76
1.39542e-76
4.31419e-77
1.3301e-77
4.08946e-78
1.25385e-78
3.83375e-79
1.16898e-79
3.55467e-80
1.07796e-80
3.25999e-81
9.83213e-82
2.95733e-82
8.87102e-83
2.65383e-83
7.91776e-84
2.35593e-84
6.99129e-85
2.06914e-85
6.1075e-86
1.79796e-86
5.27891e-87
1.54581e-87
4.51462e-88
1.31505e-88
3.82049e-89
1.10703e-89
3.19933e-90
9.22206e-91
2.65134e-91
7.60283e-92
2.1745e-92
6.20327e-93
1.76507e-93
5.00942e-94
1.41807e-94
4.00401e-95
1.12768e-95
3.16787e-96
8.87659e-97
2.48098e-97
6.91677e-98
1.92347e-98
5.33551e-99
1.4763e-99
4.07461e-100
1.12179e-100
3.08073e-101
8.43945e-102
2.3062e-102
6.28644e-103
1.70938e-103
4.63664e-104
1.25458e-104
3.38632e-105
9.11791e-106
2.44907e-106
6.56218e-107
1.75404e-107
4.6771e-108
1.24412e-108
3.30141e-109
8.73957e-110
2.308e-110
6.08052e-111
1.59811e-111
4.19019e-112
1.09604e-112
2.86013e-113
7.44587e-114
1.93382e-114
5.01063e-115
1.29522e-115
3.34022e-116
8.59381e-117
2.20587e-117
5.64885e-118
1.4432e-118
3.67861e-119
9.35474e-120
2.37342e-120
6.00776e-121
1.51722e-121
3.82284e-122
9.61006e-123
2.4103e-123
6.03145e-124
1.50585e-124
3.75104e-125
9.32258e-126
2.31172e-126
5.71941e-127
1.41184e-127
3.4773e-128
8.5452e-129
2.09521e-129
5.12577e-130
1.25118e-130
3.04729e-131
7.40525e-132
1.79556e-132
4.3441e-133
1.04867e-133
2.5259e-134
6.07069e-135
1.45581e-135
3.48353e-136
8.31729e-137
1.98151e-137
4.71044e-138
1.11733e-138
2.6446e-139
6.24591e-140
1.47195e-140
3.46138e-141
8.12216e-142
1.90178e-142
4.44339e-143
1.03595e-143
2.4101e-144
5.59506e-145
1.29613e-145
2.99619e-146
6.91145e-147
1.59092e-147
3.65435e-148
8.37637e-149
1.91596e-149
4.37326e-150
9.96124e-151
2.26419e-151
5.13574e-152
1.16249e-152
2.62585e-153
5.91902e-154
1.33146e-154
2.98888e-155
6.69563e-156
1.49685e-156
3.33943e-157
7.43489e-158
1.65191e-158
3.66276e-159
8.10483e-160
1.78976e-160
3.94421e-161
8.6745e-162
1.90392e-162
4.17035e-163
9.11633e-164
1.9888e-164
4.33002e-165
9.40838e-166
2.04018e-166
4.41524e-167
9.53611e-168
2.05552e-168
4.4219e-169
9.49364e-170
2.03421e-170
4.35008e-171
9.28413e-172
1.97755e-172
4.20398e-173
8.91946e-174
1.88871e-174
3.99153e-175
8.41909e-176
1.77233e-176
3.72371e-177
7.80841e-178
1.63421e-178
3.41357e-179
7.11658e-180
1.48079e-180
3.07525e-181
6.37427e-182
1.3187e-182
2.72288e-183
5.61151e-184
1.15425e-184
2.3697e-185
4.85577e-186
9.9311e-187
2.02727e-187
4.13052e-188
8.39991e-189
1.705e-189
3.45427e-190
6.98506e-191
1.40983e-191
2.84022e-192
5.71113e-193
1.14625e-193
2.2963e-194
4.59163e-195
9.16426e-196
1.82567e-196
3.63029e-197
7.20538e-198
1.42748e-198
2.82282e-199
5.57179e-200
1.09776e-200
2.15887e-201
4.23787e-202
8.30375e-203
1.62408e-203
3.17066e-204
6.17875e-205
1.20188e-205
2.33365e-206
4.52297e-207
8.75036e-208
1.68983e-208
3.25745e-209
6.26804e-210
1.20394e-210
2.30833e-211
4.41788e-212
8.44021e-213
1.6096e-213
3.06413e-214
5.8227e-215
1.10451e-215
2.09144e-216
3.95322e-217
7.45914e-218
1.40495e-218
2.64159e-219
4.958e-220
9.28933e-221
1.7374e-221
3.24382e-222
6.04578e-223
1.12484e-223
2.08915e-224
3.87342e-225
7.16909e-226
1.32459e-226
2.44311e-227
4.49837e-228
8.26832e-229
1.51716e-229
2.77904e-230
5.08176e-231
9.27656e-232
1.6905e-232
3.07539e-233
5.58526e-234
1.01262e-234
1.83277e-235
3.31155e-236
5.97333e-237
1.07564e-237
1.93366e-238
3.47023e-239
6.21735e-240
1.11204e-240
1.98565e-241
3.53961e-242
6.29912e-243
1.11912e-243
1.98494e-244
3.51472e-245
6.21314e-246
1.0965e-246
1.93189e-247
3.39809e-248
5.96715e-249
1.04612e-249
1.83095e-250
3.19929e-251
5.58106e-252
9.71994e-253
1.69004e-253
2.93371e-254
5.08424e-255
8.79679e-256
1.51954e-256
2.62055e-257
4.51194e-258
7.75583e-259
1.33103e-259
2.28056e-260
3.90115e-261
6.66257e-262
1.13603e-262
1.9339e-263
3.28685e-264
5.57735e-265
9.44883e-266
1.5982e-266
2.69892e-267
4.55043e-268
7.65988e-269
1.28735e-269
2.16015e-270
3.6189e-271
6.05315e-272
1.01087e-272
1.68548e-273
2.80585e-274
4.66358e-275
7.73907e-276
1.28225e-276
2.12118e-277
3.50346e-278
5.77745e-279
9.5125e-280
1.56377e-280
2.5667e-281
4.20628e-282
6.88249e-283
1.12439e-283
1.83406e-284
2.98701e-285
4.8572e-286
7.88613e-287
1.27841e-287
2.06923e-288
3.34407e-289
5.39604e-290
8.69374e-291
1.39853e-291
2.24632e-292
3.60253e-293
5.76871e-294
9.22331e-295
1.47242e-295
2.34703e-296
3.73545e-297
5.9362e-298
9.41924e-299
1.49233e-299
2.36079e-300
3.72902e-301
5.88133e-302
9.26197e-303
1.45639e-303
2.28665e-304
3.58483e-305
5.61162e-306
8.77118e-307
1.36892e-307
2.13329e-308
3.31952e-309
5.15767e-310
8.00178e-311
1.23958e-311
1.91742e-312
2.96155e-313
4.56749e-314
7.03387e-315
1.08161e-315
1.66076e-316
2.54627e-317
3.89821e-318
5.95917e-319
9.09822e-320
1.38585e-320
2.12448e-321
3.26083e-322
5.43472e-323
0
0
0
0
0
0
0
0
0
0
0
0
0
0
0
0
0
0
0
0
0
0
0
0
0
0
0
0
0
0
0
0
0
0
0
0
0
0
0
0
0
0
0
0
0
0
0
0
0
0
1
1
1
1
1
1
1
1
1
1
1
1
1
1
1
1
1
1
1
1
1
1
1
1
1
1
1
0.999999
0.999997
0.999994
0.999989
0.999978
0.999958
0.999924
0.999869
0.999782
0.999648
0.99945
0.999165
0.998766
0.998221
0.997494
0.996548
0.99534
0.993827
0.991966
0.989714
0.987029
0.983876
0.98022
0.976032
0.971291
0.965977
0.960081
0.953598
0.946527
0.938876
0.930656
0.921882
0.912576
0.90276
0.892461
0.881708
0.870532
0.858962
0.847033
0.834777
0.822225
0.809411
0.796366
0.78312
0.769703
0.756143
0.742467
0.728701
0.714869
0.700994
0.687096
0.673196
0.659311
0.645459
0.631655
0.617914
0.604248
0.590669
0.577188
0.563815
0.550558
0.537425
0.524423
0.511558
0.498835
0.48626
0.473835
0.461564
0.449451
0.437497
0.425704
0.414075
0.402609
0.391309
0.380174
0.369204
0.3584
0.347762
0.337288
0.326979
0.316834
0.306852
0.297031
0.287372
0.277873
0.268533
0.259351
0.250327
0.241458
0.232746
0.224187
0.215783
0.207531
0.199433
0.191487
0.183693
0.176051
0.168561
0.161223
0.154039
0.147007
0.14013
0.133407
0.126841
0.120432
0.114181
0.10809
0.102161
0.0963949
0.0907939
0.0853598
0.0800945
0.0749997
0.0700773
0.0653293
0.0607574
0.0563632
0.0521482
0.0481138
0.044261
0.0405909
0.0371038
0.0338
0.0306794
0.0277414
0.0249848
0.0224081
0.0200091
0.0177851
0.0157327
0.0138477
0.0121253
0.0105599
0.00914542
0.00787479
0.00674049
0.00573441
0.00484802
0.00407246
0.00339867
0.00281755
0.00232004
0.00189732
0.0015409
0.0012427
0.000995145
0.000791257
0.000624659
0.000489608
0.000381001
0.000294355
0.000225777
0.000171931
0.000129986
9.75696e-05
7.27133e-05
5.38029e-05
3.95276e-05
2.88345e-05
2.0886e-05
1.50226e-05
1.07299e-05
7.6108e-06
5.3612e-06
3.75069e-06
2.60614e-06
1.79862e-06
1.23299e-06
8.39607e-07
5.67951e-07
3.81666e-07
2.5481e-07
1.69017e-07
1.11389e-07
7.29423e-08
4.74634e-08
3.06903e-08
1.9721e-08
1.25939e-08
7.99313e-09
5.04218e-09
3.16144e-09
1.97032e-09
1.22065e-09
7.51745e-10
4.60248e-10
2.80139e-10
1.69526e-10
1.01999e-10
6.10198e-11
3.62978e-11
2.14704e-11
1.2629e-11
7.38727e-12
4.29735e-12
2.48621e-12
1.43057e-12
8.1871e-13
4.66036e-13
2.63871e-13
1.48614e-13
8.32614e-14
4.64038e-14
2.5728e-14
1.41911e-14
7.78748e-15
4.2517e-15
2.30955e-15
1.24826e-15
6.71286e-16
3.5921e-16
1.91268e-16
1.01345e-16
5.34362e-17
2.80389e-17
1.46415e-17
7.609e-18
3.93544e-18
2.0258e-18
1.03789e-18
5.29252e-19
2.68625e-19
1.35711e-19
6.82456e-20
3.41617e-20
1.70223e-20
8.44352e-21
4.16931e-21
2.04951e-21
1.00298e-21
4.88652e-22
2.37019e-22
1.14459e-22
5.50319e-23
2.6344e-23
1.25563e-23
5.95891e-24
2.8158e-24
1.32488e-24
6.2073e-25
2.89592e-25
1.34536e-25
6.22391e-26
2.8673e-26