# vtk DataFile Version 2.0
FlowField
ASCII
DATASET STRUCTURED_GRID
DIMENSIONS 800 1 200
POINTS 160000 float
0 0 0
0.04 0 0
0.08 0 0
0.12 0 0
0.16 0 0
0.2 0 0
0.24 0 0
0.28 0 0
0.32 0 0
0.36 0 0
0.4 0 0
0.44 0 0
0.48 0 0
0.52 0 0
0.56 0 0
0.6 0 0
0.64 0 0
0.68 0 0
0.72 0 0
0.76 0 0
0.8 0 0
0.84 0 0
0.88 0 0
0.92 0 0
0.96 0 0
1 0 0
1.04 0 0
1.08 0 0
1.12 0 0
1.16 0 0
1.2 0 0
1.24 0 0
1.28 0 0
1.32 0 0
1.36 0 0
1.4 0 0
1.44 0 0
1.48 0 0
1.52 0 0
1.56 0 0
1.6 0 0
1.64 0 0
1.68 0 0
1.72 0 0
1.76 0 0
1.8 0 0
1.84 0 0
1.88 0 0
1.92 0 0
1.96 0 0
2 0 0
2.04 0 0
2.08 0 0
2.12 0 0
2.16 0 0
2.2 0 0
2.24 0 0
2.28 0 0
2.32 0 0
2.36 0 0
2.4 0 0
2.44 0 0
2.48 0 0
2.52 0 0
2.56 0 0
2.6 0 0
2.64 0 0
2.68 0 0
2.72 0 0
2.76 0 0
2.8 0 0
2.84 0 0
2.88 0 0
2.92 0 0
2.96 0 0
3 0 0
3.04 0 0
3.08 0 0
3.12 0 0
3.16 0 0
3.2 0 0
3.24 0 0
3.28 0 0
3.32 0 0
3.36 0 0
3.4 0 0
3.44 0 0
3.48 0 0
3.52 0 0
3.56 0 0
3.6 0 0
3.64 0 0
3.68 0 0
3.72 0 0
3.76 0 0
3.8 0 0
3.84 0 0
3.88 0 0
3.92 0 0
3.96 0 0
4 0 0
4.04 0 0
4.08 0 0
4.12 0 0
4.16 0 0
4.2 0 0
4.24 0 0
4.28 0 0
4.32 0 0
4.36 0 0
4.4 0 0
4.44 0 0
4.48 0 0
4.52 0 0
4.56 0 0
4.6 0 0
4.64 0 0
4.68 0 0
4.72 0 0
4.76 0 0
4.8 0 0
4.84 0 0
4.88 0 0
4.92 0 0
4.96 0 0
5 0 0
5.04 0 0
5.08 0 0
5.12 0 0
5.16 0 0
5.2 0 0
5.24 0 0
5.28 0 0
5.32 0 0
5.36 0 0
5.4 0 0
5.44 0 0
5.48 0 0
5.52 0 0
5.56 0 0
5.6 0 0
5.64 0 0
5.68 0 0
5.72 0 0
5.76 0 0
5.8 0 0
5.84 0 0
5.88 0 0
5.92 0 0
5.96 0 0
6 0 0
6.04 0 0
6.08 0 0
6.12 0 0
6.16 0 0
6.2 0 0
6.24 0 0
6.28 0 0
6.32 0 0
6.36 0 0
6.4 0 0
6.44 0 0
6.48 0 0
6.52 0 0
6.56 0 0
6.6 0 0
6.64 0 0
6.68 0 0
6.72 0 0
6.76 0 0
6.8 0 0
6.84 0 0
6.88 0 0
6.92 0 0
6.96 0 0
7 0 0
7.04 0 0
7.08 0 0
7.12 0 0
7.16 0 0
7.2 0 0
7.24 0 0
7.28 0 0
7.32 0 0
7.36 0 0
7.4 0 0
7.44 0 0
7.48 0 0
7.52 0 0
7.56 0 0
7.6 0 0
7.64 0 0
7.68 0 0
7.72 0 0
7.76 0 0
7.8 0 0
7.84 0 0
7.88 0 0
7.92 0 0
7.96 0 0
8 0 0
8.04 0 0
8.08 0 0
8.12 0 0
8.16 0 0
8.2 0 0
8.24 0 0
8.28 0 0
8.32 0 0
8.36 0 0
8.4 0 0
8.44 0 0
8.48 0 0
8.52 0 0
8.56 0 0
8.6 0 0
8.64 0 0
8.68 0 0
8.72 0 0
8.76 0 0
8.8 0 0
8.84 0 0
8.88 0 0
8.92 0 0
8.96 0 0
9 0 0
9.04 0 0
9.08 0 0
9.12 0 0
9.16 0 0
9.2 0 0
9.24 0 0
9.28 0 0
9.32 0 0
9.36 0 0
9.4 0 0
9.44 0 0
9.48 0 0
9.52 0 0
9.56 0 0
9.6 0 0
9.64 0 0
9.68 0 0
9.72 0 0
9.76 0 0
9.8 0 0
9.84 0 0
9.88 0 0
9.92 0 0
9.96 0 0
10 0 0
10.04 0 0
10.08 0 0
10.12 0 0
10.16 0 0
10.2 0 0
10.24 0 0
10.28 0 0
10.32 0 0
10.36 0 0
10.4 0 0
10.44 0 0
10.48 0 0
10.52 0 0
10.56 0 0
10.6 0 0
10.64 0 0
10.68 0 0
10.72 0 0
10.76 0 0
10.8 0 0
10.84 0 0
10.88 0 0
10.92 0 0
10.96 0 0
11 0 0
11.04 0 0
11.08 0 0
11.12 0 0
11.16 0 0
11.2 0 0
11.24 0 0
11.28 0 0
11.32 0 0
11.36 0 0
11.4 0 0
11.44 0 0
11.48 0 0
11.52 0 0
11.56 0 0
11.6 0 0
11.64 0 0
11.68 0 0
11.72 0 0
11.76 0 0
11.8 0 0
11.84 0 0
11.88 0 0
11.92 0 0
11.96 0 0
12 0 0
12.04 0 0
12.08 0 0
12.12 0 0
12.16 0 0
12.2 0 0
12.24 0 0
12.28 0 0
12.32 0 0
12.36 0 0
12.4 0 0
12.44 0 0
12.48 0 0
12.52 0 0
12.56 0 0
12.6 0 0
12.64 0 0
12.68 0 0
12.72 0 0
12.76 0 0
12.8 0 0
12.84 0 0
12.88 0 0
12.92 0 0
12.96 0 0
13 0 0
13.04 0 0
13.08 0 0
13.12 0 0
13.16 0 0
13.2 0 0
13.24 0 0
13.28 0 0
13.32 0 0
13.36 0 0
13.4 0 0
13.44 0 0
13.48 0 0
13.52 0 0
13.56 0 0
13.6 0 0
13.64 0 0
13.68 0 0
13.72 0 0
13.76 0 0
13.8 0 0
13.84 0 0
13.88 0 0
13.92 0 0
13.96 0 0
14 0 0
14.04 0 0
14.08 0 0
14.12 0 0
14.16 0 0
14.2 0 0
14.24 0 0
14.28 0 0
14.32 0 0
14.36 0 0
14.4 0 0
14.44 0 0
14.48 0 0
14.52 0 0
14.56 0 0
14.6 0 0
14.64 0 0
14.68 0 0
14.72 0 0
14.76 0 0
14.8 0 0
14.84 0 0
14.88 0 0
14.92 0 0
14.96 0 0
15 0 0
15.04 0 0
15.08 0 0
15.12 0 0
15.16 0 0
15.2 0 0
15.24 0 0
15.28 0 0
15.32 0 0
15.36 0 0
15.4 0 0
15.44 0 0
15.48 0 0
15.52 0 0
15.56 0 0
15.6 0 0
15.64 0 0
15.68 0 0
15.72 0 0
15.76 0 0
15.8 0 0
15.84 0 0
15.88 0 0
15.92 0 0
15.96 0 0
16 0 0
16.04 0 0
16.08 0 0
16.12 0 0
16.16 0 0
16.2 0 0
16.24 0 0
16.28 0 0
16.32 0 0
16.36 0 0
16.4 0 0
16.44 0 0
16.48 0 0
16.52 0 0
16.56 0 0
16.6 0 0
16.64 0 0
16.68 0 0
16.72 0 0
16.76 0 0
16.8 0 0
16.84 0 0
16.88 0 0
16.92 0 0
16.96 0 0
17 0 0
17.04 0 0
17.08 0 0
17.12 0 0
17.16 0 0
17.2 0 0
17.24 0 0
17.28 0 0
17.32 0 0
17.36 0 0
17.4 0 0
17.44 0 0
17.48 0 0
17.52 0 0
17.56 0 0
17.6 0 0
17.64 0 0
17.68 0 0
17.72 0 0
17.76 0 0
17.8 0 0
17.84 0 0
17.88 0 0
17.92 0 0
17.96 0 0
18 0 0
18.04 0 0
18.08 0 0
18.12 0 0
18.16 0 0
18.2 0 0
18.24 0 0
18.28 0 0
18.32 0 0
18.36 0 0
18.4 0 0
18.44 0 0
18.48 0 0
18.52 0 0
18.56 0 0
18.6 0 0
18.64 0 0
18.68 0 0
18.72 0 0
18.76 0 0
18.8 0 0
18.84 0 0
18.88 0 0
18.92 0 0
18.96 0 0
19 0 0
19.04 0 0
19.08 0 0
19.12 0 0
19.16 0 0
19.2 0 0
19.24 0 0
19.28 0 0
19.32 0 0
19.36 0 0
19.4 0 0
19.44 0 0
19.48 0 0
19.52 0 0
19.56 0 0
19.6 0 0
19.64 0 0
19.68 0 0
19.72 0 0
19.76 0 0
19.8 0 0
19.84 0 0
19.88 0 0
19.92 0 0
19.96 0 0
20 0 0
20.04 0 0
20.08 0 0
20.12 0 0
20.16 0 0
20.2 0 0
20.24 0 0
20.28 0 0
20.32 0 0
20.36 0 0
20.4 0 0
20.44 0 0
20.48 0 0
20.52 0 0
20.56 0 0
20.6 0 0
20.64 0 0
20.68 0 0
20.72 0 0
20.76 0 0
20.8 0 0
20.84 0 0
20.88 0 0
20.92 0 0
20.96 0 0
21 0 0
21.04 0 0
21.08 0 0
21.12 0 0
21.16 0 0
21.2 0 0
21.24 0 0
21.28 0 0
21.32 0 0
21.36 0 0
21.4 0 0
21.44 0 0
21.48 0 0
21.52 0 0
21.56 0 0
21.6 0 0
21.64 0 0
21.68 0 0
21.72 0 0
21.76 0 0
21.8 0 0
21.84 0 0
21.88 0 0
21.92 0 0
21.96 0 0
22 0 0
22.04 0 0
22.08 0 0
22.12 0 0
22.16 0 0
22.2 0 0
22.24 0 0
22.28 0 0
22.32 0 0
22.36 0 0
22.4 0 0
22.44 0 0
22.48 0 0
22.52 0 0
22.56 0 0
22.6 0 0
22.64 0 0
22.68 0 0
22.72 0 0
22.76 0 0
22.8 0 0
22.84 0 0
22.88 0 0
22.92 0 0
22.96 0 0
23 0 0
23.04 0 0
23.08 0 0
23.12 0 0
23.16 0 0
23.2 0 0
23.24 0 0
23.28 0 0
23.32 0 0
23.36 0 0
23.4 0 0
23.44 0 0
23.48 0 0
23.52 0 0
23.56 0 0
23.6 0 0
23.64 0 0
23.68 0 0
23.72 0 0
23.76 0 0
23.8 0 0
23.84 0 0
23.88 0 0
23.92 0 0
23.96 0 0
24 0 0
24.04 0 0
24.08 0 0
24.12 0 0
24.16 0 0
24.2 0 0
24.24 0 0
24.28 0 0
24.32 0 0
24.36 0 0
24.4 0 0
24.44 0 0
24.48 0 0
24.52 0 0
24.56 0 0
24.6 0 0
24.64 0 0
24.68 0 0
24.72 0 0
24.76 0 0
24.8 0 0
24.84 0 0
24.88 0 0
24.92 0 0
24.96 0 0
25 0 0
25.04 0 0
25.08 0 0
25.12 0 0
25.16 0 0
25.2 0 0
25.24 0 0
25.28 0 0
25.32 0 0
25.36 0 0
25.4 0 0
25.44 0 0
25.48 0 0
25.52 0 0
25.56 0 0
25.6 0 0
25.64 0 0
25.68 0 0
25.72 0 0
25.76 0 0
25.8 0 0
25.84 0 0
25.88 0 0
25.92 0 0
25.96 0 0
26 0 0
26.04 0 0
26.08 0 0
26.12 0 0
26.16 0 0
26.2 0 0
26.24 0 0
26.28 0 0
26.32 0 0
26.36 0 0
26.4 0 0
26.44 0 0
26.48 0 0
26.52 0 0
26.56 0 0
26.6 0 0
26.64 0 0
26.68 0 0
26.72 0 0
26.76 0 0
26.8 0 0
26.84 0 0
26.88 0 0
26.92 0 0
26.96 0 0
27 0 0
27.04 0 0
27.08 0 0
27.12 0 0
27.16 0 0
27.2 0 0
27.24 0 0
27.28 0 0
27.32 0 0
27.36 0 0
27.4 0 0
27.44 0 0
27.48 0 0
27.52 0 0
27.56 0 0
27.6 0 0
27.64 0 0
27.68 0 0
27.72 0 0
27.76 0 0
27.8 0 0
27.84 0 0
27.88 0 0
27.92 0 0
27.96 0 0
28 0 0
28.04 0 0
28.08 0 0
28.12 0 0
28.16 0 0
28.2 0 0
28.24 0 0
28.28 0 0
28.32 0 0
28.36 0 0
28.4 0 0
28.44 0 0
28.48 0 0
28.52 0 0
28.56 0 0
28.6 0 0
28.64 0 0
28.68 0 0
28.72 0 0
28.76 0 0
28.8 0 0
28.84 0 0
28.88 0 0
28.92 0 0
28.96 0 0
29 0 0
29.04 0 0
29.08 0 0
29.12 0 0
29.16 0 0
29.2 0 0
29.24 0 0
29.28 0 0
29.32 0 0
29.36 0 0
29.4 0 0
29.44 0 0
29.48 0 0
29.52 0 0
29.56 0 0
29.6 0 0
29.64 0 0
29.68 0 0
29.72 0 0
29.76 0 0
29.8 0 0
29.84 0 0
29.88 0 0
29.92 0 0
29.96 0 0
30 0 0
30.04 0 0
30.08 0 0
30.12 0 0
30.16 0 0
30.2 0 0
30.24 0 0
30.28 0 0
30.32 0 0
30.36 0 0
30.4 0 0
30.44 0 0
30.48 0 0
30.52 0 0
30.56 0 0
30.6 0 0
30.64 0 0
30.68 0 0
30.72 0 0
30.76 0 0
30.8 0 0
30.84 0 0
30.88 0 0
30.92 0 0
30.96 0 0
31 0 0
31.04 0 0
31.08 0 0
31.12 0 0
31.16 0 0
31.2 0 0
31.24 0 0
31.28 0 0
31.32 0 0
31.36 0 0
31.4 0 0
31.44 0 0
31.48 0 0
31.52 0 0
31.56 0 0
31.6 0 0
31.64 0 0
31.68 0 0
31.72 0 0
31.76 0 0
31.8 0 0
31.84 0 0
31.88 0 0
31.92 0 0
31.96 0 0
0 0.005 0
0.04 0.005 0
0.08 0.005 0
0.12 0.005 0
0.16 0.005 0
0.2 0.005 0
0.24 0.005 0
0.28 0.005 0
0.32 0.005 0
0.36 0.005 0
0.4 0.005 0
0.44 0.005 0
0.48 0.005 0
0.52 0.005 0
0.56 0.005 0
0.6 0.005 0
0.64 0.005 0
0.68 0.005 0
0.72 0.005 0
0.76 0.005 0
0.8 0.005 0
0.84 0.005 0
0.88 0.005 0
0.92 0.005 0
0.96 0.005 0
1 0.005 0
1.04 0.005 0
1.08 0.005 0
1.12 0.005 0
1.16 0.005 0
1.2 0.005 0
1.24 0.005 0
1.28 0.005 0
1.32 0.005 0
1.36 0.005 0
1.4 0.005 0
1.44 0.005 0
1.48 0.005 0
1.52 0.005 0
1.56 0.005 0
1.6 0.005 0
1.64 0.005 0
1.68 0.005 0
1.72 0.005 0
1.76 0.005 0
1.8 0.005 0
1.84 0.005 0
1.88 0.005 0
1.92 0.005 0
1.96 0.005 0
2 0.005 0
2.04 0.005 0
2.08 0.005 0
2.12 0.005 0
2.16 0.005 0
2.2 0.005 0
2.24 0.005 0
2.28 0.005 0
2.32 0.005 0
2.36 0.005 0
2.4 0.005 0
2.44 0.005 0
2.48 0.005 0
2.52 0.005 0
2.56 0.005 0
2.6 0.005 0
2.64 0.005 0
2.68 0.005 0
2.72 0.005 0
2.76 0.005 0
2.8 0.005 0
2.84 0.005 0
2.88 0.005 0
2.92 0.005 0
2.96 0.005 0
3 0.005 0
3.04 0.005 0
3.08 0.005 0
3.12 0.005 0
3.16 0.005 0
3.2 0.005 0
3.24 0.005 0
3.28 0.005 0
3.32 0.005 0
3.36 0.005 0
3.4 0.005 0
3.44 0.005 0
3.48 0.005 0
3.52 0.005 0
3.56 0.005 0
3.6 0.005 0
3.64 0.005 0
3.68 0.005 0
3.72 0.005 0
3.76 0.005 0
3.8 0.005 0
3.84 0.005 0
3.88 0.005 0
3.92 0.005 0
3.96 0.005 0
4 0.005 0
4.04 0.005 0
4.08 0.005 0
4.12 0.005 0
4.16 0.005 0
4.2 0.005 0
4.24 0.005 0
4.28 0.005 0
4.32 0.005 0
4.36 0.005 0
4.4 0.005 0
4.44 0.005 0
4.48 0.005 0
4.52 0.005 0
4.56 0.005 0
4.6 0.005 0
4.64 0.005 0
4.68 0.005 0
4.72 0.005 0
4.76 0.005 0
4.8 0.005 0
4.84 0.005 0
4.88 0.005 0
4.92 0.005 0
4.96 0.005 0
5 0.005 0
5.04 0.005 0
5.08 0.005 0
5.12 0.005 0
5.16 0.005 0
5.2 0.005 0
5.24 0.005 0
5.28 0.005 0
5.32 0.005 0
5.36 0.005 0
5.4 0.005 0
5.44 0.005 0
5.48 0.005 0
5.52 0.005 0
5.56 0.005 0
5.6 0.005 0
5.64 0.005 0
5.68 0.005 0
5.72 0.005 0
5.76 0.005 0
5.8 0.005 0
5.84 0.005 0
5.88 0.005 0
5.92 0.005 0
5.96 0.005 0
6 0.005 0
6.04 0.005 0
6.08 0.005 0
6.12 0.005 0
6.16 0.005 0
6.2 0.005 0
6.24 0.005 0
6.28 0.005 0
6.32 0.005 0
6.36 0.005 0
6.4 0.005 0
6.44 0.005 0
6.48 0.005 0
6.52 0.005 0
6.56 0.005 0
6.6 0.005 0
6.64 0.005 0
6.68 0.005 0
6.72 0.005 0
6.76 0.005 0
6.8 0.005 0
6.84 0.005 0
6.88 0.005 0
6.92 0.005 0
6.96 0.005 0
7 0.005 0
7.04 0.005 0
7.08 0.005 0
7.12 0.005 0
7.16 0.005 0
7.2 0.005 0
7.24 0.005 0
7.28 0.005 0
7.32 0.005 0
7.36 0.005 0
7.4 0.005 0
[...]
POINT_DATA 160000

SCALARS v float 1
LOOKUP_TABLE default
0
0
0
0
0
0
0
0
0
0
0
0
0
0
0
0
0
0
0
0
0
0
0
0
0
0
0
0
0
0
0
0
0
0
0
0
0
0
0
0
0
0
0
0
0
0
0
0
0
0
0
0
0
0
0
0
0
0
0
0
0
0
0
0
0
0
0
0
0
0
0
0
0
0
0
0
0
0
0
0
0
0
0
0
0
0
0
0
0
0
0
0
0
0
0
0
0
0
0
0
0
0
0
0
0
0
0
0
0
0
0
0
0
0
0
0
0
0
0
0
0
0
0
0
0
0
0
0
0
0
0
0
0
0
0
0
0
0
0
0
0
0
0
0
0
0
0
0
0
0
0
0
0
0
0
0
0
0
0
0
0
0
0
0
0
0
0
0
0
0
0
0
0
0
0
0
0
0
0
0
0
0
0
0
0
0
0
0
0
0
0
0
0
0
0
0
0
0
0
0
0
0
0
0
0
0
0
0
0
0
0
0
0
0
0
0
0
0
0
0
0
0
0
0
0
0
0
0
0
0
0
0
0
0
0
0
0
0
0
0
0
0
0
0
0
0
0
0
0
0
0
0
0
0
0
0
0
0
0
0
0
0
0
0
0
0
0
0
0
0
0
0
0
0
0
0
0
0
0
0
0
0
0
0
0
0
0
0
0
0
0
0
0
0
0
0
0
0
0
0
0
0
0
0
0
0
0
0
0
0
0
0
0
0
0
0
0
0
0
0
0
0
0
0
0
0
0
0
0
0
0
0
0
0
0
0
0
0
0
0
0
0
0
0
0
0
0
0
0
0
0
0
0
0
0
0
0
0
0
0
0
0
0
0
0
0
0
0
0
0
0
0
0
0
0
0
0
0
0
0
0
0
0
0
0
0
0
0
0
0
0
0
0
0
0
0
0
0
0
0
0
0
0
0
0
0
0
0
0
0
0
0
0
0
0
0
0
0
0
0
0
0
0
0
0
0
0
0
0
0
0
0
0
0
0
0
0
0
0
0
0
0
0
0
0
0
0
0
0
0
0
0
0
0
0
0
0
0
0
0
0
0
0
0
0
0
0
0
0
0
0
0
0
0
0
0
0
0
0
0
0
0
0
0
0
0
0
0
0
0
0
0
0
0
0
0
0
0
0
0
0
0
0
0
0
0
0
0
0
0
0
0
0
0
0
0
0
0
0
0
0
0
0
0
0
0
0
0
0
0
0
0
0
0
0
0
0
0
0
0
0
0
0
0
0
0
0
0
0
0
0
0
0
0
0
0
0
0
0
0
0
0
0
0
0
0
0
0
0
0
0
0
0
0
0
0
0
0
0
0
0
0
0
0
0
0
0
0
0
0
0
0
0
0
0
0
0
0
0
0
0
0
0
0
0
0
0
0
0
0
0
0
0
0
0
0
0
0
0
0
0
0
0
0
0
0
0
0
0
0
0
0
0
0
0
0
0
0
0
0
0
0
0
0
0
0
0
0
0
0
0
0
0
0
0
0
0
0
0
0
0
0
0
0
0
0
0
0
0
0
0
0
0
0
0
0
0
0
0
0
0
0
0
0
0
0
0
0
0
0
0
0
0
0
0
0
0
0
0
0
0
0
0
0
0
0
0
0
0
0
0
0
0
0
0
0
0
0
0
0
0
0
0
0
0
0
0
0
0
0
0
0
0
0
0
0
0
0
0
0
0
0
0
0
0
0
0
0
0
0
0
0
0
0
0
0
0
0
0
0
0
0
0
0
0
0
0
0
0
0
0
0
0
0
0
0
0
0
0
0
0
0
0
0
0
0
0
0
0
0
0
0
0
0
0
0
0
0
0
0
0
0
0.0374158
0.00938112
0.00346796
0.00176634
0.00108086
0.000737101
0.000538324
0.000411779
0.00032558
0.000263892
0.000218071
0.00018304
0.000155639
0.000133802
0.00011613
0.000101638
8.96198e-05
7.95519e-05
7.10421e-05
6.37902e-05
5.75635e-05
5.21793e-05
4.74929e-05
4.33883e-05
3.9772e-05
3.65679e-05
3.37141e-05
3.11592e-05
2.88611e-05
2.67845e-05
2.49002e-05
2.31833e-05
2.16131e-05
2.0172e-05
1.88449e-05
1.76192e-05
1.64837e-05
1.5429e-05
1.44468e-05
1.35302e-05
1.26727e-05
1.1869e-05
1.11144e-05
1.04044e-05
9.73548e-06
9.10418e-06
8.50755e-06
7.94292e-06
7.40788e-06
6.90028e-06
6.41814e-06
5.95971e-06
5.52336e-06
5.10764e-06
4.71118e-06
4.33276e-06
3.97125e-06
3.62562e-06
3.29492e-06
2.97825e-06
2.6748e-06
2.38382e-06
2.1046e-06
1.83651e-06
1.57893e-06
1.3313e-06
1.09309e-06
8.63815e-07
6.43015e-07
4.30265e-07
2.25167e-07
2.73442e-08
-1.63561e-07
-3.47882e-07
-5.25925e-07
-6.97975e-07
-8.64317e-07
-1.02521e-06
-1.1809e-06
-1.3316e-06
-1.47755e-06
-1.61895e-06
-1.756e-06
-1.88886e-06
-2.01773e-06
-2.14277e-06
-2.26413e-06
-2.38197e-06
-2.49642e-06
-2.60761e-06
-2.71568e-06
-2.82075e-06
-2.92292e-06
-3.02232e-06
-3.11904e-06
-3.21319e-06
-3.30486e-06
-3.39414e-06
-3.48111e-06
-3.56587e-06
-3.64848e-06
-3.72902e-06
-3.80757e-06
-3.8842e-06
-3.95896e-06
-4.03192e-06
-4.10315e-06
-4.1727e-06
-4.24063e-06
-4.30698e-06
-4.37182e-06
-4.43518e-06
-4.49711e-06
-4.55767e-06
-4.6169e-06
-4.67483e-06
-4.73152e-06
-4.78698e-06
-4.84125e-06
-4.89439e-06
-4.94641e-06
-4.99736e-06
-5.04726e-06
-5.09615e-06
-5.14406e-06
-5.19101e-06
-5.23703e-06
-5.28214e-06
-5.32637e-06
-5.36975e-06
-5.41231e-06
-5.45405e-06
-5.49501e-06
-5.5352e-06
-5.57466e-06
-5.61338e-06
-5.6514e-06
-5.68873e-06
-5.7254e-06
-5.76141e-06
-5.79679e-06
-5.83155e-06
-5.86571e-06
-5.89928e-06
-5.93228e-06
-5.96471e-06
-5.99661e-06
-6.02797e-06
-6.05881e-06
-6.08914e-06
-6.11898e-06
-6.14834e-06
-6.17722e-06
-6.20564e-06
-6.23361e-06
-6.26115e-06
-6.28825e-06
-6.31493e-06
-6.3412e-06
-6.36707e-06
-6.39255e-06
-6.41764e-06
-6.44236e-06
-6.46671e-06
-6.4907e-06
-6.51433e-06
-6.53762e-06
-6.56059e-06
-6.58321e-06
-6.60551e-06
-6.62749e-06
-6.64916e-06
-6.67053e-06
-6.6916e-06
-6.71238e-06
-6.73287e-06
-6.75308e-06
-6.77301e-06
-6.79268e-06
-6.81208e-06
-6.83122e-06
-6.85011e-06
-6.86874e-06
-6.88712e-06
-6.90527e-06
-6.92318e-06
-6.94086e-06
-6.95831e-06
-6.97553e-06
-6.99253e-06
-7.00932e-06
-7.0259e-06
-7.04227e-06
-7.05843e-06
-7.07438e-06
-7.09014e-06
-7.10571e-06
-7.12109e-06
-7.13628e-06
-7.15127e-06
-7.16608e-06
-7.18072e-06
-7.19519e-06
-7.20948e-06
-7.2236e-06
-7.23754e-06
-7.25132e-06
-7.26495e-06
-7.27841e-06
-7.29171e-06
-7.30486e-06
-7.31785e-06
-7.33068e-06
-7.34337e-06
-7.35592e-06
-7.36832e-06
-7.38058e-06
-7.3927e-06
-7.40469e-06
-7.41653e-06
-7.42824e-06
-7.43982e-06
-7.45126e-06
-7.46258e-06
-7.47378e-06
-7.48485e-06
-7.49579e-06
-7.50662e-06
-7.51732e-06
-7.5279e-06
-7.53836e-06
-7.54872e-06
-7.55896e-06
-7.56908e-06
-7.5791e-06
-7.589e-06
-7.5988e-06
-7.60849e-06
-7.61808e-06
-7.62756e-06
-7.63694e-06
-7.64622e-06
-7.6554e-06
-7.66448e-06
-7.67346e-06
-7.68235e-06
-7.69114e-06
-7.69984e-06
-7.70845e-06
-7.71696e-06
-7.72538e-06
-7.73372e-06
-7.74197e-06
-7.75013e-06
-7.75821e-06
-7.76619e-06
-7.77409e-06
-7.78191e-06
-7.78965e-06
-7.79731e-06
-7.80488e-06
-7.81239e-06
-7.81981e-06
-7.82715e-06
-7.83442e-06
-7.8416e-06
-7.84872e-06
-7.85576e-06
-7.86273e-06
-7.86963e-06
-7.87645e-06
-7.88321e-06
-7.8899e-06
-7.89651e-06
-7.90306e-06
-7.90953e-06
-7.91594e-06
-7.92229e-06
-7.92857e-06
-7.93479e-06
-7.94094e-06
-7.94703e-06
-7.95306e-06
-7.95903e-06
-7.96493e-06
-7.97078e-06
-7.97656e-06
-7.98228e-06
-7.98794e-06
-7.99355e-06
-7.9991e-06
-8.0046e-06
-8.01004e-06
-8.01542e-06
-8.02075e-06
-8.02603e-06
-8.03124e-06
-8.03641e-06
-8.04152e-06
-8.04658e-06
-8.05159e-06
-8.05655e-06
-8.06146e-06
-8.06632e-06
-8.07113e-06
-8.07589e-06
-8.08061e-06
-8.08528e-06
-8.08989e-06
-8.09446e-06
-8.09898e-06
-8.10346e-06
-8.1079e-06
-8.11228e-06
-8.11663e-06
-8.12093e-06
-8.12518e-06
-8.1294e-06
-8.13357e-06
-8.1377e-06
-8.14179e-06
-8.14583e-06
-8.14983e-06
-8.1538e-06
-8.15772e-06
-8.16161e-06
-8.16545e-06
-8.16926e-06
-8.17303e-06
-8.17676e-06
-8.18045e-06
-8.18411e-06
-8.18772e-06
-8.1913e-06
-8.19485e-06
-8.19836e-06
-8.20183e-06
-8.20527e-06
-8.20868e-06
-8.21204e-06
-8.21538e-06
-8.21868e-06
-8.22195e-06
-8.22519e-06
-8.22839e-06
-8.23155e-06
-8.2347e-06
-8.23781e-06
-8.24089e-06
-8.24393e-06
-8.24695e-06
-8.24993e-06
-8.25288e-06
-8.25581e-06
-8.2587e-06
-8.26156e-06
-8.2644e-06
-8.26721e-06
-8.26999e-06
-8.27274e-06
-8.27547e-06
-8.27816e-06
-8.28082e-06
-8.28347e-06
-8.28609e-06
-8.28868e-06
-8.29124e-06
-8.29377e-06
-8.29628e-06
-8.29877e-06
-8.30123e-06
-8.30366e-06
-8.30608e-06
-8.30847e-06
-8.31084e-06
-8.31317e-06
-8.31549e-06
-8.31778e-06
-8.32005e-06
-8.3223e-06
-8.32452e-06
-8.32672e-06
-8.3289e-06
-8.33105e-06
-8.33319e-06
-8.33531e-06
-8.3374e-06
-8.33947e-06
-8.34152e-06
-8.34355e-06
-8.34556e-06
-8.34755e-06
-8.34952e-06
-8.35146e-06
-8.3534e-06
-8.35531e-06
-8.3572e-06
-8.35907e-06
-8.36092e-06
-8.36276e-06
-8.36457e-06
-8.36636e-06
-8.36815e-06
-8.36991e-06
-8.37165e-06
-8.37337e-06
-8.37508e-06
-8.37678e-06
-8.37846e-06
-8.38011e-06
-8.38175e-06
-8.38337e-06
-8.38497e-06
-8.38657e-06
-8.38815e-06
-8.3897e-06
-8.39124e-06
-8.39278e-06
-8.3943e-06
-8.39579e-06
-8.39726e-06
-8.39873e-06
-8.40019e-06
-8.40163e-06
-8.40305e-06
-8.40445e-06
-8.40585e-06
-8.40723e-06
-8.40859e-06
-8.40994e-06
-8.41129e-06
-8.41261e-06
-8.41392e-06
-8.41522e-06
-8.41651e-06
-8.41778e-06
-8.41904e-06
-8.42029e-06
-8.42152e-06
-8.42273e-06
-8.42394e-06
-8.42514e-06
-8.42633e-06
-8.4275e-06
-8.42866e-06
-8.42981e-06
-8.43095e-06
-8.43208e-06
-8.43319e-06
-8.43429e-06
-8.43538e-06
-8.43647e-06
-8.43754e-06
-8.4386e-06
-8.43965e-06
-8.44068e-06
-8.4417e-06
-8.44273e-06
-8.44373e-06
-8.44473e-06
-8.44572e-06
-8.44669e-06
-8.44766e-06
-8.44861e-06
-8.44957e-06
-8.45051e-06
-8.45143e-06
-8.45235e-06
-8.45325e-06
-8.45416e-06
-8.45506e-06
-8.45593e-06
-8.4568e-06
-8.45766e-06
-8.45852e-06
-8.45936e-06
-8.4602e-06
-8.46103e-06
-8.46186e-06
-8.46267e-06
-8.46347e-06
-8.46427e-06
-8.46506e-06
-8.46583e-06
-8.4666e-06
-8.46737e-06
-8.46813e-06
-8.46888e-06
-8.46962e-06
-8.47035e-06
-8.47108e-06
-8.4718e-06
-8.47251e-06
-8.47321e-06
-8.4739e-06
-8.4746e-06
-8.47528e-06
-8.47596e-06
-8.47663e-06
-8.47729e-06
-8.47794e-06
-8.47859e-06
-8.47923e-06
-8.47987e-06
-8.4805e-06
-8.48112e-06
-8.48173e-06
-8.48235e-06
-8.48296e-06
-8.48355e-06
-8.48414e-06
-8.48473e-06
-8.48532e-06
-8.48589e-06
-8.48645e-06
-8.48702e-06
-8.48759e-06
-8.48814e-06
-8.48868e-06
-8.48923e-06
-8.48977e-06
-8.49029e-06
-8.49082e-06
-8.49135e-06
-8.49187e-06
-8.49238e-06
-8.49289e-06
-8.4934e-06
-8.4939e-06
-8.4944e-06
-8.49489e-06
-8.49538e-06
-8.49586e-06
-8.49633e-06
-8.49681e-06
-8.49729e-06
-8.49776e-06
-8.49822e-06
-8.49868e-06
-8.49913e-06
-8.49959e-06
-8.50004e-06
-8.50049e-06
-8.50093e-06
-8.50137e-06
-8.50181e-06
-8.50224e-06
-8.50268e-06
-8.50311e-06
-8.50353e-06
-8.50395e-06
-8.50437e-06
-8.50479e-06
-8.5052e-06
-8.50562e-06
-8.50603e-06
-8.50644e-06
-8.50685e-06
-8.50725e-06
-8.50765e-06
-8.50805e-06
-8.50845e-06
-8.50884e-06
-8.50923e-06
-8.50963e-06
-8.51002e-06
-8.51041e-06
-8.51079e-06
-8.51118e-06
-8.51156e-06
-8.51194e-06
-8.51232e-06
-8.51269e-06
-8.51307e-06
-8.51344e-06
-8.51382e-06
-8.51419e-06
-8.51455e-06
-8.51492e-06
-8.51529e-06
-8.51565e-06
-8.51601e-06
-8.51637e-06
-8.51673e-06
-8.51709e-06
-8.51744e-06
-8.51779e-06
-8.51814e-06
-8.51849e-06
-8.51885e-06
-8.5192e-06
-8.51954e-06
-8.51988e-06
-8.52022e-06
-8.52055e-06
-8.52089e-06
-8.52123e-06
-8.52157e-06
-8.5219e-06
-8.52223e-06
-8.52256e-06
-8.52288e-06
-8.5232e-06
-8.52352e-06
-8.52384e-06
-8.52416e-06
-8.52448e-06
-8.52479e-06
-8.5251e-06
-8.52541e-06
-8.52572e-06
-8.52602e-06
-8.52632e-06
-8.52662e-06
-8.52691e-06
-8.5272e-06
-8.52749e-06
-8.52778e-06
-8.52807e-06
-8.52834e-06
-8.52862e-06
-8.5289e-06
-8.52918e-06
-8.52944e-06
-8.52971e-06
-8.52998e-06
-8.53024e-06
-8.53049e-06
-8.53075e-06
-8.531e-06
-8.53125e-06
-8.5315e-06
-8.53174e-06
-8.53198e-06
-8.53221e-06
-8.53244e-06
-8.53268e-06
-8.53291e-06
-8.53313e-06
-8.53334e-06
-8.53356e-06
-8.53378e-06
-8.53399e-06
-8.53419e-06
-8.53439e-06
-8.53459e-06
-8.53479e-06
-8.53498e-06
-8.53517e-06
-8.53535e-06
-8.53554e-06
-8.53572e-06
-8.53589e-06
-8.53606e-06
-8.53623e-06
-8.5364e-06
-8.53656e-06
-8.53671e-06
-8.53686e-06
-8.53702e-06
-8.53717e-06
-8.53731e-06
-8.53745e-06
-8.53758e-06
-8.53772e-06
-8.53786e-06
-8.53799e-06
-8.53811e-06
-8.53823e-06
-8.53835e-06
-8.53847e-06
-8.53859e-06
-8.5387e-06
-8.5388e-06
-8.53891e-06
-8.53901e-06
-8.53911e-06
-8.5392e-06
-8.5393e-06
-8.53939e-06
-8.53947e-06
-8.53956e-06
-8.53964e-06
-8.53972e-06
-8.5398e-06
-8.53987e-06
-8.53994e-06
-8.54001e-06
-8.54009e-06
-8.54016e-06
-8.54022e-06
-8.54028e-06
-8.54033e-06
-8.54039e-06
-8.54044e-06
-8.5405e-06
-8.54055e-06
-8.5406e-06
-8.54065e-06
-8.5407e-06
-8.54074e-06
-8.54078e-06
-8.54082e-06
-8.54086e-06
-8.5409e-06
-8.54093e-06
-8.54097e-06
-8.541e-06
-8.54103e-06
-8.54106e-06
-8.54109e-06
-8.54112e-06
-8.54114e-06
-8.54117e-06
-8.54119e-06
-8.54122e-06
-8.54124e-06
-8.54126e-06
-8.54128e-06
-8.5413e-06
-8.54132e-06
-8.54134e-06
-8.54136e-06
-8.54137e-06
-8.54138e-06
-8.5414e-06
-8.54141e-06
-8.54143e-06
-8.54144e-06
-8.54145e-06
-8.54146e-06
-8.54147e-06
-8.54148e-06
-8.54149e-06
-8.5415e-06
-8.54151e-06
-8.54152e-06
-8.54152e-06
-8.54153e-06
-8.54154e-06
-8.54155e-06
-8.54156e-06
-8.54157e-06
-8.54157e-06
-8.54157e-06
-8.54158e-06
-8.54159e-06
-8.54159e-06
-8.54159e-06
-8.5416e-06
-8.54161e-06
-8.54161e-06
-8.54161e-06
-8.54161e-06
-8.54162e-06
-8.54162e-06
-8.54162e-06
-8.54162e-06
-8.54162e-06
-8.54162e-06
-8.54163e-06
-8.54163e-06
-8.54162e-06
-8.54162e-06
-8.54161e-06
-8.5416e-06
-8.54159e-06
-8.54157e-06
-8.54155e-06
-8.54153e-06
-8.54149e-06
-8.54144e-06
-8.54138e-06
-8.5413e-06
-8.54121e-06
-8.54109e-06
-8.54093e-06
-8.54073e-06
-8.54047e-06
-8.54016e-06
-8.53973e-06
-8.53921e-06
-8.5385e-06
-8.53768e-06
-8.53652e-06
-8.53521e-06
-8.53327e-06
-8.53121e-06
-8.52779e-06
-8.52466e-06
-8.5182e-06
-8.51405e-06
-8.49986e-06
-8.49864e-06
-8.45622e-06
-8.52805e-06
-6.03024e-06
-6.03024e-06
0
0
0.0966101
0.0320527
0.0130062
0.00682636
0.00423606
0.00291413
0.00214249
0.00164841
0.00131055
0.00106807
0.000887559
0.000749311
0.000641007
0.000554585
0.000484561
0.000427081
0.000379366
0.000339364
0.000305527
0.000276675
0.000251888
0.000230446
0.000211776
0.000195419
0.000181006
0.000168234
0.000156858
0.000146674
0.000137514
0.000129237
0.000121728
0.000114888
0.000108633
0.000102894
9.76103e-05
9.27311e-05
8.82124e-05
8.40162e-05
8.01098e-05
7.64646e-05
7.30558e-05
6.98616e-05
6.68626e-05
6.40421e-05
6.1385e-05
5.88779e-05
5.65089e-05
5.42673e-05
5.21436e-05
5.01291e-05
4.82159e-05
4.6397e-05
4.4666e-05
4.3017e-05
4.14445e-05
3.99438e-05
3.85103e-05
3.71399e-05
3.58287e-05
3.45733e-05
3.33704e-05
3.2217e-05
3.11103e-05
3.00478e-05
2.9027e-05
2.80457e-05
2.71017e-05
2.61932e-05
2.53184e-05
2.44755e-05
2.36629e-05
2.28792e-05
2.21229e-05
2.13927e-05
2.06874e-05
2.00059e-05
1.9347e-05
1.87098e-05
1.80931e-05
1.74962e-05
1.69182e-05
1.63582e-05
1.58155e-05
1.52893e-05
1.47789e-05
1.42838e-05
1.38032e-05
1.33366e-05
1.28834e-05
1.24431e-05
1.20152e-05
1.15992e-05
1.11947e-05
1.08011e-05
1.04182e-05
1.00454e-05
9.6825e-06
9.32905e-06
8.98472e-06
8.64919e-06
8.32215e-06
8.00329e-06
7.69234e-06
7.38901e-06
7.09306e-06
6.80424e-06
6.52228e-06
6.24698e-06
5.97812e-06
5.71547e-06
5.45884e-06
5.20804e-06
4.96289e-06
4.72319e-06
4.48878e-06
4.25949e-06
4.03518e-06
3.81569e-06
3.60087e-06
3.39058e-06
3.18468e-06
2.98304e-06
2.78555e-06
2.59208e-06
2.4025e-06
2.21671e-06
2.03461e-06
1.85609e-06
1.68105e-06
1.50938e-06
1.34101e-06
1.17583e-06
1.01376e-06
8.54717e-07
6.98619e-07
5.45392e-07
3.94959e-07
2.47245e-07
1.02176e-07
-4.03174e-08
-1.80292e-07
-3.17819e-07
-4.52964e-07
-5.85775e-07
-7.16311e-07
-8.44639e-07
-9.70812e-07
-1.09488e-06
-1.21688e-06
-1.33687e-06
-1.45491e-06
-1.57104e-06
-1.68529e-06
-1.79772e-06
-1.90837e-06
-2.01728e-06
-2.12449e-06
-2.23003e-06
-2.33394e-06
-2.43627e-06
-2.53704e-06
-2.63629e-06
-2.73405e-06
-2.83035e-06
-2.92523e-06
-3.01871e-06
-3.11084e-06
-3.20163e-06
-3.2911e-06
-3.37929e-06
-3.46623e-06
-3.55193e-06
-3.63644e-06
-3.71976e-06
-3.80193e-06
-3.88295e-06
-3.96287e-06
-4.04169e-06
-4.11945e-06
-4.19616e-06
-4.27184e-06
-4.34651e-06
-4.42018e-06
-4.49288e-06
-4.56463e-06
-4.63545e-06
-4.70534e-06
-4.77432e-06
-4.84242e-06
-4.90964e-06
-4.97602e-06
-5.04155e-06
-5.10625e-06
-5.17014e-06
-5.23323e-06
-5.29553e-06
-5.35707e-06
-5.41785e-06
-5.47788e-06
-5.53717e-06
-5.59574e-06
-5.6536e-06
-5.71077e-06
-5.76725e-06
-5.82304e-06
-5.87818e-06
-5.93265e-06
-5.98649e-06
-6.03969e-06
-6.09226e-06
-6.14421e-06
-6.19556e-06
-6.2463e-06
-6.29646e-06
-6.34605e-06
-6.39506e-06
-6.44351e-06
-6.4914e-06
-6.53875e-06
-6.58556e-06
-6.63183e-06
-6.67758e-06
-6.72282e-06
-6.76755e-06
-6.81178e-06
-6.85551e-06
-6.89875e-06
-6.94152e-06
-6.9838e-06
-7.02561e-06
-7.06697e-06
-7.10788e-06
-7.14833e-06
-7.18833e-06
-7.2279e-06
-7.26704e-06
-7.30574e-06
-7.34403e-06
-7.3819e-06
-7.41937e-06
-7.45643e-06
-7.49308e-06
-7.52935e-06
-7.56522e-06
-7.60071e-06
-7.63582e-06
-7.67055e-06
-7.70491e-06
-7.73891e-06
-7.77254e-06
-7.80581e-06
-7.83874e-06
-7.87132e-06
-7.90355e-06
-7.93543e-06
-7.96698e-06
-7.99819e-06
-8.02908e-06
-8.05965e-06
-8.0899e-06
-8.11983e-06
-8.14945e-06
-8.17876e-06
-8.20775e-06
-8.23645e-06
-8.26484e-06
-8.29294e-06
-8.32076e-06
-8.34828e-06
-8.37551e-06
-8.40246e-06
-8.42914e-06
-8.45554e-06
-8.48166e-06
-8.50751e-06
-8.53309e-06
-8.55841e-06
-8.58348e-06
-8.60828e-06
-8.63283e-06
-8.65713e-06
-8.68117e-06
-8.70498e-06
-8.72854e-06
-8.75185e-06
-8.77492e-06
-8.79775e-06
-8.82035e-06
-8.84272e-06
-8.86486e-06
-8.88679e-06
-8.90848e-06
-8.92995e-06
-8.95121e-06
-8.97224e-06
-8.99306e-06
-9.01366e-06
-9.03406e-06
-9.05425e-06
-9.07424e-06
-9.09402e-06
-9.1136e-06
-9.13298e-06
-9.15216e-06
-9.17115e-06
-9.18995e-06
-9.20856e-06
-9.22698e-06
-9.24521e-06
-9.26324e-06
-9.2811e-06
-9.29879e-06
-9.31629e-06
-9.33361e-06
-9.35076e-06
-9.36774e-06
-9.38454e-06
-9.40117e-06
-9.41764e-06
-9.43393e-06
-9.45007e-06
-9.46603e-06
-9.48183e-06
-9.49748e-06
-9.51298e-06
-9.52831e-06
-9.54348e-06
-9.55851e-06
-9.57338e-06
-9.58811e-06
-9.60268e-06
-9.6171e-06
-9.63138e-06
-9.64551e-06
-9.65951e-06
-9.67336e-06
-9.68708e-06
-9.70065e-06
-9.71409e-06
-9.72738e-06
-9.74055e-06
-9.75359e-06
-9.76649e-06
-9.77926e-06
-9.79189e-06
-9.80441e-06
-9.8168e-06
-9.82907e-06
-9.84121e-06
-9.85323e-06
-9.86512e-06
-9.87689e-06
-9.88855e-06
-9.90009e-06
-9.91151e-06
-9.92282e-06
-9.93402e-06
-9.9451e-06
-9.95607e-06
-9.96693e-06
-9.97768e-06
-9.98831e-06
-9.99884e-06
-1.00093e-05
-1.00196e-05
-1.00298e-05
-1.00399e-05
-1.00499e-05
-1.00598e-05
-1.00697e-05
-1.00794e-05
-1.0089e-05
-1.00985e-05
-1.01079e-05
-1.01173e-05
-1.01265e-05
-1.01356e-05
-1.01447e-05
-1.01536e-05
-1.01625e-05
-1.01713e-05
-1.01799e-05
-1.01885e-05
-1.01971e-05
-1.02055e-05
-1.02138e-05
-1.02221e-05
-1.02303e-05
-1.02384e-05
-1.02464e-05
-1.02543e-05
-1.02621e-05
-1.02699e-05
-1.02776e-05
-1.02852e-05
-1.02927e-05
-1.03002e-05
-1.03076e-05
-1.03149e-05
-1.03221e-05
-1.03293e-05
-1.03364e-05
-1.03434e-05
-1.03504e-05
-1.03572e-05
-1.0364e-05
-1.03708e-05
-1.03775e-05
-1.03841e-05
-1.03906e-05
-1.03971e-05
-1.04035e-05
-1.04098e-05
-1.04161e-05
-1.04223e-05
-1.04285e-05
-1.04346e-05
-1.04406e-05
-1.04466e-05
-1.04525e-05
-1.04583e-05
-1.04641e-05
-1.04698e-05
-1.04755e-05
-1.04811e-05
-1.04867e-05
-1.04922e-05
-1.04976e-05
-1.0503e-05
-1.05083e-05
-1.05136e-05
-1.05188e-05
-1.0524e-05
-1.05291e-05
-1.05342e-05
-1.05392e-05
-1.05442e-05
-1.05491e-05
-1.0554e-05
-1.05588e-05
-1.05636e-05
-1.05683e-05
-1.0573e-05
-1.05776e-05
-1.05822e-05
-1.05867e-05
-1.05912e-05
-1.05956e-05
-1.06e-05
-1.06044e-05
-1.06087e-05
-1.0613e-05
-1.06172e-05
-1.06214e-05
-1.06255e-05
-1.06296e-05
-1.06336e-05
-1.06377e-05
-1.06416e-05
-1.06456e-05
-1.06495e-05
-1.06533e-05
-1.06571e-05
-1.06609e-05
-1.06646e-05
-1.06683e-05
-1.0672e-05
-1.06756e-05
-1.06792e-05
-1.06828e-05
-1.06863e-05
-1.06897e-05
-1.06932e-05
-1.06966e-05
-1.07e-05
-1.07033e-05
-1.07066e-05
-1.07099e-05
-1.07131e-05
-1.07163e-05
-1.07195e-05
-1.07226e-05
-1.07257e-05
-1.07288e-05
-1.07319e-05
-1.07349e-05
-1.07379e-05
-1.07408e-05
-1.07437e-05
-1.07466e-05
-1.07495e-05
-1.07523e-05
-1.07551e-05
-1.07579e-05
-1.07607e-05
-1.07634e-05
-1.07661e-05
-1.07687e-05
-1.07714e-05
-1.0774e-05
-1.07766e-05
-1.07791e-05
-1.07817e-05
-1.07842e-05
-1.07867e-05
-1.07891e-05
-1.07916e-05
-1.0794e-05
-1.07964e-05
-1.07987e-05
-1.08011e-05
-1.08034e-05
-1.08057e-05
-1.08079e-05
-1.08102e-05
-1.08124e-05
-1.08146e-05
-1.08168e-05
-1.0819e-05
-1.08211e-05
-1.08233e-05
-1.08254e-05
-1.08275e-05
-1.08295e-05
-1.08316e-05
-1.08336e-05
-1.08356e-05
-1.08376e-05
-1.08396e-05
-1.08416e-05
-1.08435e-05
-1.08454e-05
-1.08473e-05
-1.08492e-05
-1.08511e-05
-1.0853e-05
-1.08548e-05
-1.08567e-05
-1.08585e-05
-1.08603e-05
-1.08621e-05
-1.08639e-05
-1.08657e-05
-1.08674e-05
-1.08692e-05
-1.08709e-05
-1.08726e-05
-1.08743e-05
-1.0876e-05
-1.08777e-05
-1.08794e-05
-1.08811e-05
-1.08827e-05
-1.08844e-05
-1.0886e-05
-1.08876e-05
-1.08893e-05
-1.08909e-05
-1.08925e-05
-1.08941e-05
-1.08957e-05
-1.08972e-05
-1.08988e-05
-1.09004e-05
-1.09019e-05
-1.09035e-05
-1.0905e-05
-1.09065e-05
-1.09081e-05
-1.09096e-05
-1.09111e-05
-1.09126e-05
-1.09141e-05
-1.09156e-05
-1.09171e-05
-1.09186e-05
-1.092e-05
-1.09215e-05
-1.09229e-05
-1.09244e-05
-1.09258e-05
-1.09273e-05
-1.09287e-05
-1.09301e-05
-1.09316e-05
-1.0933e-05
-1.09344e-05
-1.09358e-05
-1.09372e-05
-1.09386e-05
-1.09399e-05
-1.09413e-05
-1.09427e-05
-1.0944e-05
-1.09454e-05
-1.09467e-05
-1.09481e-05
-1.09494e-05
-1.09507e-05
-1.0952e-05
-1.09533e-05
-1.09546e-05
-1.09559e-05
-1.09572e-05
-1.09584e-05
-1.09597e-05
-1.09609e-05
-1.09622e-05
-1.09634e-05
-1.09646e-05
-1.09659e-05
-1.09671e-05
-1.09682e-05
-1.09694e-05
-1.09706e-05
-1.09718e-05
-1.09729e-05
-1.09741e-05
-1.09752e-05
-1.09763e-05
-1.09774e-05
-1.09785e-05
-1.09796e-05
-1.09807e-05
-1.09817e-05
-1.09828e-05
-1.09838e-05
-1.09848e-05
-1.09858e-05
-1.09868e-05
-1.09878e-05
-1.09888e-05
-1.09897e-05
-1.09907e-05
-1.09916e-05
-1.09925e-05
-1.09934e-05
-1.09943e-05
-1.09952e-05
-1.09961e-05