# vtk DataFile Version 2.0
FlowField
ASCII
DATASET STRUCTURED_GRID
DIMENSIONS 800 1 200
POINTS 160000 float
0 0 0
0.04 0 0
0.08 0 0
0.12 0 0
0.16 0 0
0.2 0 0
0.24 0 0
0.28 0 0
0.32 0 0
0.36 0 0
0.4 0 0
0.44 0 0
0.48 0 0
0.52 0 0
0.56 0 0
0.6 0 0
0.64 0 0
0.68 0 0
0.72 0 0
0.76 0 0
0.8 0 0
0.84 0 0
0.88 0 0
0.92 0 0
0.96 0 0
1 0 0
1.04 0 0
1.08 0 0
1.12 0 0
1.16 0 0
1.2 0 0
1.24 0 0
1.28 0 0
1.32 0 0
1.36 0 0
1.4 0 0
1.44 0 0
1.48 0 0
1.52 0 0
1.56 0 0
1.6 0 0
1.64 0 0
1.68 0 0
1.72 0 0
1.76 0 0
1.8 0 0
1.84 0 0
1.88 0 0
1.92 0 0
1.96 0 0
2 0 0
2.04 0 0
2.08 0 0
2.12 0 0
2.16 0 0
2.2 0 0
2.24 0 0
2.28 0 0
2.32 0 0
2.36 0 0
2.4 0 0
2.44 0 0
2.48 0 0
2.52 0 0
2.56 0 0
2.6 0 0
2.64 0 0
2.68 0 0
2.72 0 0
2.76 0 0
2.8 0 0
2.84 0 0
2.88 0 0
2.92 0 0
2.96 0 0
3 0 0
3.04 0 0
3.08 0 0
3.12 0 0
3.16 0 0
3.2 0 0
3.24 0 0
3.28 0 0
3.32 0 0
3.36 0 0
3.4 0 0
3.44 0 0
3.48 0 0
3.52 0 0
3.56 0 0
3.6 0 0
3.64 0 0
3.68 0 0
3.72 0 0
3.76 0 0
3.8 0 0
3.84 0 0
3.88 0 0
3.92 0 0
3.96 0 0
4 0 0
4.04 0 0
4.08 0 0
4.12 0 0
4.16 0 0
4.2 0 0
4.24 0 0
4.28 0 0
4.32 0 0
4.36 0 0
4.4 0 0
4.44 0 0
4.48 0 0
4.52 0 0
4.56 0 0
4.6 0 0
4.64 0 0
4.68 0 0
4.72 0 0
4.76 0 0
4.8 0 0
4.84 0 0
4.88 0 0
4.92 0 0
4.96 0 0
5 0 0
5.04 0 0
5.08 0 0
5.12 0 0
5.16 0 0
5.2 0 0
5.24 0 0
5.28 0 0
5.32 0 0
5.36 0 0
5.4 0 0
5.44 0 0
5.48 0 0
5.52 0 0
5.56 0 0
5.6 0 0
5.64 0 0
5.68 0 0
5.72 0 0
5.76 0 0
5.8 0 0
5.84 0 0
5.88 0 0
5.92 0 0
5.96 0 0
6 0 0
6.04 0 0
6.08 0 0
6.12 0 0
6.16 0 0
6.2 0 0
6.24 0 0
6.28 0 0
6.32 0 0
6.36 0 0
6.4 0 0
6.44 0 0
6.48 0 0
6.52 0 0
6.56 0 0
6.6 0 0
6.64 0 0
6.68 0 0
6.72 0 0
6.76 0 0
6.8 0 0
6.84 0 0
6.88 0 0
6.92 0 0
6.96 0 0
7 0 0
7.04 0 0
7.08 0 0
7.12 0 0
7.16 0 0
7.2 0 0
7.24 0 0
7.28 0 0
7.32 0 0
7.36 0 0
7.4 0 0
7.44 0 0
7.48 0 0
7.52 0 0
7.56 0 0
7.6 0 0
7.64 0 0
7.68 0 0
7.72 0 0
7.76 0 0
7.8 0 0
7.84 0 0
7.88 0 0
7.92 0 0
7.96 0 0
8 0 0
8.04 0 0
8.08 0 0
8.12 0 0
8.16 0 0
8.2 0 0
8.24 0 0
8.28 0 0
8.32 0 0
8.36 0 0
8.4 0 0
8.44 0 0
8.48 0 0
8.52 0 0
8.56 0 0
8.6 0 0
8.64 0 0
8.68 0 0
8.72 0 0
8.76 0 0
8.8 0 0
8.84 0 0
8.88 0 0
8.92 0 0
8.96 0 0
9 0 0
9.04 0 0
9.08 0 0
9.12 0 0
9.16 0 0
9.2 0 0
9.24 0 0
9.28 0 0
9.32 0 0
9.36 0 0
9.4 0 0
9.44 0 0
9.48 0 0
9.52 0 0
9.56 0 0
9.6 0 0
9.64 0 0
9.68 0 0
9.72 0 0
9.76 0 0
9.8 0 0
9.84 0 0
9.88 0 0
9.92 0 0
9.96 0 0
10 0 0
10.04 0 0
10.08 0 0
10.12 0 0
10.16 0 0
10.2 0 0
10.24 0 0
10.28 0 0
10.32 0 0
10.36 0 0
10.4 0 0
10.44 0 0
10.48 0 0
10.52 0 0
10.56 0 0
10.6 0 0
10.64 0 0
10.68 0 0
10.72 0 0
10.76 0 0
10.8 0 0
10.84 0 0
10.88 0 0
10.92 0 0
10.96 0 0
11 0 0
11.04 0 0
11.08 0 0
11.12 0 0
11.16 0 0
11.2 0 0
11.24 0 0
11.28 0 0
11.32 0 0
11.36 0 0
11.4 0 0
11.44 0 0
11.48 0 0
11.52 0 0
11.56 0 0
11.6 0 0
11.64 0 0
11.68 0 0
11.72 0 0
11.76 0 0
11.8 0 0
11.84 0 0
11.88 0 0
11.92 0 0
11.96 0 0
12 0 0
12.04 0 0
12.08 0 0
12.12 0 0
12.16 0 0
12.2 0 0
12.24 0 0
12.28 0 0
12.32 0 0
12.36 0 0
12.4 0 0
12.44 0 0
12.48 0 0
12.52 0 0
12.56 0 0
12.6 0 0
12.64 0 0
12.68 0 0
12.72 0 0
12.76 0 0
12.8 0 0
12.84 0 0
12.88 0 0
12.92 0 0
12.96 0 0
13 0 0
13.04 0 0
13.08 0 0
13.12 0 0
13.16 0 0
13.2 0 0
13.24 0 0
13.28 0 0
13.32 0 0
13.36 0 0
13.4 0 0
13.44 0 0
13.48 0 0
13.52 0 0
13.56 0 0
13.6 0 0
13.64 0 0
13.68 0 0
13.72 0 0
13.76 0 0
13.8 0 0
13.84 0 0
13.88 0 0
13.92 0 0
13.96 0 0
14 0 0
14.04 0 0
14.08 0 0
14.12 0 0
14.16 0 0
14.2 0 0
14.24 0 0
14.28 0 0
14.32 0 0
14.36 0 0
14.4 0 0
14.44 0 0
14.48 0 0
14.52 0 0
14.56 0 0
14.6 0 0
14.64 0 0
14.68 0 0
14.72 0 0
14.76 0 0
14.8 0 0
14.84 0 0
14.88 0 0
14.92 0 0
14.96 0 0
15 0 0
15.04 0 0
15.08 0 0
15.12 0 0
15.16 0 0
15.2 0 0
15.24 0 0
15.28 0 0
15.32 0 0
15.36 0 0
15.4 0 0
15.44 0 0
15.48 0 0
15.52 0 0
15.56 0 0
15.6 0 0
15.64 0 0
15.68 0 0
15.72 0 0
15.76 0 0
15.8 0 0
15.84 0 0
15.88 0 0
15.92 0 0
15.96 0 0
16 0 0
16.04 0 0
16.08 0 0
16.12 0 0
16.16 0 0
16.2 0 0
16.24 0 0
16.28 0 0
16.32 0 0
16.36 0 0
16.4 0 0
16.44 0 0
16.48 0 0
16.52 0 0
16.56 0 0
16.6 0 0
16.64 0 0
16.68 0 0
16.72 0 0
16.76 0 0
16.8 0 0
16.84 0 0
16.88 0 0
16.92 0 0
16.96 0 0
17 0 0
17.04 0 0
17.08 0 0
17.12 0 0
17.16 0 0
17.2 0 0
17.24 0 0
17.28 0 0
17.32 0 0
17.36 0 0
17.4 0 0
17.44 0 0
17.48 0 0
17.52 0 0
17.56 0 0
17.6 0 0
17.64 0 0
17.68 0 0
17.72 0 0
17.76 0 0
17.8 0 0
17.84 0 0
17.88 0 0
17.92 0 0
17.96 0 0
18 0 0
18.04 0 0
18.08 0 0
18.12 0 0
18.16 0 0
18.2 0 0
18.24 0 0
18.28 0 0
18.32 0 0
18.36 0 0
18.4 0 0
18.44 0 0
18.48 0 0
18.52 0 0
18.56 0 0
18.6 0 0
18.64 0 0
18.68 0 0
18.72 0 0
18.76 0 0
18.8 0 0
18.84 0 0
18.88 0 0
18.92 0 0
18.96 0 0
19 0 0
19.04 0 0
19.08 0 0
19.12 0 0
19.16 0 0
19.2 0 0
19.24 0 0
19.28 0 0
19.32 0 0
19.36 0 0
19.4 0 0
19.44 0 0
19.48 0 0
19.52 0 0
19.56 0 0
19.6 0 0
19.64 0 0
19.68 0 0
19.72 0 0
19.76 0 0
19.8 0 0
19.84 0 0
19.88 0 0
19.92 0 0
19.96 0 0
20 0 0
20.04 0 0
20.08 0 0
20.12 0 0
20.16 0 0
20.2 0 0
20.24 0 0
20.28 0 0
20.32 0 0
20.36 0 0
20.4 0 0
20.44 0 0
20.48 0 0
20.52 0 0
20.56 0 0
20.6 0 0
20.64 0 0
20.68 0 0
20.72 0 0
20.76 0 0
20.8 0 0
20.84 0 0
20.88 0 0
20.92 0 0
20.96 0 0
21 0 0
21.04 0 0
21.08 0 0
21.12 0 0
21.16 0 0
21.2 0 0
21.24 0 0
21.28 0 0
21.32 0 0
21.36 0 0
21.4 0 0
21.44 0 0
21.48 0 0
21.52 0 0
21.56 0 0
21.6 0 0
21.64 0 0
21.68 0 0
21.72 0 0
21.76 0 0
21.8 0 0
21.84 0 0
21.88 0 0
21.92 0 0
21.96 0 0
22 0 0
22.04 0 0
22.08 0 0
22.12 0 0
22.16 0 0
22.2 0 0
22.24 0 0
22.28 0 0
22.32 0 0
22.36 0 0
22.4 0 0
22.44 0 0
22.48 0 0
22.52 0 0
22.56 0 0
22.6 0 0
22.64 0 0
22.68 0 0
22.72 0 0
22.76 0 0
22.8 0 0
22.84 0 0
22.88 0 0
22.92 0 0
22.96 0 0
23 0 0
23.04 0 0
23.08 0 0
23.12 0 0
23.16 0 0
23.2 0 0
23.24 0 0
23.28 0 0
23.32 0 0
23.36 0 0
23.4 0 0
23.44 0 0
23.48 0 0
23.52 0 0
23.56 0 0
23.6 0 0
23.64 0 0
23.68 0 0
23.72 0 0
23.76 0 0
23.8 0 0
23.84 0 0
23.88 0 0
23.92 0 0
23.96 0 0
24 0 0
24.04 0 0
24.08 0 0
24.12 0 0
24.16 0 0
24.2 0 0
24.24 0 0
24.28 0 0
24.32 0 0
24.36 0 0
24.4 0 0
24.44 0 0
24.48 0 0
24.52 0 0
24.56 0 0
24.6 0 0
24.64 0 0
24.68 0 0
24.72 0 0
24.76 0 0
24.8 0 0
24.84 0 0
24.88 0 0
24.92 0 0
24.96 0 0
25 0 0
25.04 0 0
25.08 0 0
25.12 0 0
25.16 0 0
25.2 0 0
25.24 0 0
25.28 0 0
25.32 0 0
25.36 0 0
25.4 0 0
25.44 0 0
25.48 0 0
25.52 0 0
25.56 0 0
25.6 0 0
25.64 0 0
25.68 0 0
25.72 0 0
25.76 0 0
25.8 0 0
25.84 0 0
25.88 0 0
25.92 0 0
25.96 0 0
26 0 0
26.04 0 0
26.08 0 0
26.12 0 0
26.16 0 0
26.2 0 0
26.24 0 0
26.28 0 0
26.32 0 0
26.36 0 0
26.4 0 0
26.44 0 0
26.48 0 0
26.52 0 0
26.56 0 0
26.6 0 0
26.64 0 0
26.68 0 0
26.72 0 0
26.76 0 0
26.8 0 0
26.84 0 0
26.88 0 0
26.92 0 0
26.96 0 0
27 0 0
27.04 0 0
27.08 0 0
27.12 0 0
27.16 0 0
27.2 0 0
27.24 0 0
27.28 0 0
27.32 0 0
27.36 0 0
27.4 0 0
27.44 0 0
27.48 0 0
27.52 0 0
27.56 0 0
27.6 0 0
27.64 0 0
27.68 0 0
27.72 0 0
27.76 0 0
27.8 0 0
27.84 0 0
27.88 0 0
27.92 0 0
27.96 0 0
28 0 0
28.04 0 0
28.08 0 0
28.12 0 0
28.16 0 0
28.2 0 0
28.24 0 0
28.28 0 0
28.32 0 0
28.36 0 0
28.4 0 0
28.44 0 0
28.48 0 0
28.52 0 0
28.56 0 0
28.6 0 0
28.64 0 0
28.68 0 0
28.72 0 0
28.76 0 0
28.8 0 0
28.84 0 0
28.88 0 0
28.92 0 0
28.96 0 0
29 0 0
29.04 0 0
29.08 0 0
29.12 0 0
29.16 0 0
29.2 0 0
29.24 0 0
29.28 0 0
29.32 0 0
29.36 0 0
29.4 0 0
29.44 0 0
29.48 0 0
29.52 0 0
29.56 0 0
29.6 0 0
29.64 0 0
29.68 0 0
29.72 0 0
29.76 0 0
29.8 0 0
29.84 0 0
29.88 0 0
29.92 0 0
29.96 0 0
30 0 0
30.04 0 0
30.08 0 0
30.12 0 0
30.16 0 0
30.2 0 0
30.24 0 0
30.28 0 0
30.32 0 0
30.36 0 0
30.4 0 0
30.44 0 0
30.48 0 0
30.52 0 0
30.56 0 0
30.6 0 0
30.64 0 0
30.68 0 0
30.72 0 0
30.76 0 0
30.8 0 0
30.84 0 0
30.88 0 0
30.92 0 0
30.96 0 0
31 0 0
31.04 0 0
31.08 0 0
31.12 0 0
31.16 0 0
31.2 0 0
31.24 0 0
31.28 0 0
31.32 0 0
31.36 0 0
31.4 0 0
31.44 0 0
31.48 0 0
31.52 0 0
31.56 0 0
31.6 0 0
31.64 0 0
31.68 0 0
31.72 0 0
31.76 0 0
31.8 0 0
31.84 0 0
31.88 0 0
31.92 0 0
31.96 0 0
0 0.005 0
0.04 0.005 0
0.08 0.005 0
0.12 0.005 0
0.16 0.005 0
0.2 0.005 0
0.24 0.005 0
0.28 0.005 0
0.32 0.005 0
0.36 0.005 0
0.4 0.005 0
0.44 0.005 0
0.48 0.005 0
0.52 0.005 0
0.56 0.005 0
0.6 0.005 0
0.64 0.005 0
0.68 0.005 0
0.72 0.005 0
0.76 0.005 0
0.8 0.005 0
0.84 0.005 0
0.88 0.005 0
0.92 0.005 0
0.96 0.005 0
1 0.005 0
1.04 0.005 0
1.08 0.005 0
1.12 0.005 0
1.16 0.005 0
1.2 0.005 0
1.24 0.005 0
1.28 0.005 0
1.32 0.005 0
1.36 0.005 0
1.4 0.005 0
1.44 0.005 0
1.48 0.005 0
1.52 0.005 0
1.56 0.005 0
1.6 0.005 0
1.64 0.005 0
1.68 0.005 0
1.72 0.005 0
1.76 0.005 0
1.8 0.005 0
1.84 0.005 0
1.88 0.005 0
1.92 0.005 0
1.96 0.005 0
2 0.005 0
2.04 0.005 0
2.08 0.005 0
2.12 0.005 0
2.16 0.005 0
2.2 0.005 0
2.24 0.005 0
2.28 0.005 0
2.32 0.005 0
2.36 0.005 0
2.4 0.005 0
2.44 0.005 0
2.48 0.005 0
2.52 0.005 0
2.56 0.005 0
2.6 0.005 0
2.64 0.005 0
2.68 0.005 0
2.72 0.005 0
2.76 0.005 0
2.8 0.005 0
2.84 0.005 0
2.88 0.005 0
2.92 0.005 0
2.96 0.005 0
3 0.005 0
3.04 0.005 0
3.08 0.005 0
3.12 0.005 0
3.16 0.005 0
3.2 0.005 0
3.24 0.005 0
3.28 0.005 0
3.32 0.005 0
3.36 0.005 0
3.4 0.005 0
3.44 0.005 0
3.48 0.005 0
3.52 0.005 0
3.56 0.005 0
3.6 0.005 0
3.64 0.005 0
3.68 0.005 0
3.72 0.005 0
3.76 0.005 0
3.8 0.005 0
3.84 0.005 0
3.88 0.005 0
3.92 0.005 0
3.96 0.005 0
4 0.005 0
4.04 0.005 0
4.08 0.005 0
4.12 0.005 0
4.16 0.005 0
4.2 0.005 0
4.24 0.005 0
4.28 0.005 0
4.32 0.005 0
4.36 0.005 0
4.4 0.005 0
4.44 0.005 0
4.48 0.005 0
4.52 0.005 0
4.56 0.005 0
4.6 0.005 0
4.64 0.005 0
4.68 0.005 0
4.72 0.005 0
4.76 0.005 0
4.8 0.005 0
4.84 0.005 0
4.88 0.005 0
4.92 0.005 0
4.96 0.005 0
5 0.005 0
5.04 0.005 0
5.08 0.005 0
5.12 0.005 0
5.16 0.005 0
5.2 0.005 0
5.24 0.005 0
5.28 0.005 0
5.32 0.005 0
5.36 0.005 0
5.4 0.005 0
5.44 0.005 0
5.48 0.005 0
5.52 0.005 0
5.56 0.005 0
5.6 0.005 0
5.64 0.005 0
5.68 0.005 0
5.72 0.005 0
5.76 0.005 0
5.8 0.005 0
5.84 0.005 0
5.88 0.005 0
5.92 0.005 0
5.96 0.005 0
6 0.005 0
6.04 0.005 0
6.08 0.005 0
6.12 0.005 0
6.16 0.005 0
6.2 0.005 0
6.24 0.005 0
6.28 0.005 0
6.32 0.005 0
6.36 0.005 0
6.4 0.005 0
6.44 0.005 0
6.48 0.005 0
6.52 0.005 0
6.56 0.005 0
6.6 0.005 0
6.64 0.005 0
6.68 0.005 0
6.72 0.005 0
6.76 0.005 0
6.8 0.005 0
6.84 0.005 0
6.88 0.005 0
6.92 0.005 0
6.96 0.005 0
7 0.005 0
7.04 0.005 0
7.08 0.005 0
7.12 0.005 0
7.16 0.005 0
7.2 0.005 0
7.24 0.005 0
7.28 0.005 0
7.32 0.005 0
7.36 0.005 0
7.4 0.005 0
[...]
POINT_DATA 160000

SCALARS v float 1
LOOKUP_TABLE default
0
0
0
0
0
0
0
0
0
0
0
0
0
0
0
0
0
0
0
0
0
0
0
0
0
0
0
0
0
0
0
0
0
0
0
0
0
0
0
0
0
0
0
0
0
0
0
0
0
0
0
0
0
0
0
0
0
0
0
0
0
0
0
0
0
0
0
0
0
0
0
0
0
0
0
0
0
0
0
0
0
0
0
0
0
0
0
0
0
0
0
0
0
0
0
0
0
0
0
0
0
0
0
0
0
0
0
0
0
0
0
0
0
0
0
0
0
0
0
0
0
0
0
0
0
0
0
0
0
0
0
0
0
0
0
0
0
0
0
0
0
0
0
0
0
0
0
0
0
0
0
0
0
0
0
0
0
0
0
0
0
0
0
0
0
0
0
0
0
0
0
0
0
0
0
0
0
0
0
0
0
0
0
0
0
0
0
0
0
0
0
0
0
0
0
0
0
0
0
0
0
0
0
0
0
0
0
0
0
0
0
0
0
0
0
0
0
0
0
0
0
0
0
0
0
0
0
0
0
0
0
0
0
0
0
0
0
0
0
0
0
0
0
0
0
0
0
0
0
0
0
0
0
0
0
0
0
0
0
0
0
0
0
0
0
0
0
0
0
0
0
0
0
0
0
0
0
0
0
0
0
0
0
0
0
0
0
0
0
0
0
0
0
0
0
0
0
0
0
0
0
0
0
0
0
0
0
0
0
0
0
0
0
0
0
0
0
0
0
0
0
0
0
0
0
0
0
0
0
0
0
0
0
0
0
0
0
0
0
0
0
0
0
0
0
0
0
0
0
0
0
0
0
0
0
0
0
0
0
0
0
0
0
0
0
0
0
0
0
0
0
0
0
0
0
0
0
0
0
0
0
0
0
0
0
0
0
0
0
0
0
0
0
0
0
0
0
0
0
0
0
0
0
0
0
0
0
0
0
0
0
0
0
0
0
0
0
0
0
0
0
0
0
0
0
0
0
0
0
0
0
0
0
0
0
0
0
0
0
0
0
0
0
0
0
0
0
0
0
0
0
0
0
0
0
0
0
0
0
0
0
0
0
0
0
0
0
0
0
0
0
0
0
0
0
0
0
0
0
0
0
0
0
0
0
0
0
0
0
0
0
0
0
0
0
0
0
0
0
0
0
0
0
0
0
0
0
0
0
0
0
0
0
0
0
0
0
0
0
0
0
0
0
0
0
0
0
0
0
0
0
0
0
0
0
0
0
0
0
0
0
0
0
0
0
0
0
0
0
0
0
0
0
0
0
0
0
0
0
0
0
0
0
0
0
0
0
0
0
0
0
0
0
0
0
0
0
0
0
0
0
0
0
0
0
0
0
0
0
0
0
0
0
0
0
0
0
0
0
0
0
0
0
0
0
0
0
0
0
0
0
0
0
0
0
0
0
0
0
0
0
0
0
0
0
0
0
0
0
0
0
0
0
0
0
0
0
0
0
0
0
0
0
0
0
0
0
0
0
0
0
0
0
0
0
0
0
0
0
0
0
0
0
0
0
0
0
0
0
0
0
0
0
0
0
0
0
0
0
0
0
0
0
0
0
0
0
0
0
0
0
0
0
0
0
0
0
0
0
0
0
0
0
0
0
0
0
0
0
0
0
0
0
0
0
0
0
0
0
0
0
0
0
0
0
0
0
0
0
0
0
0
0
0
0
0
0
0
0
0
0
0
0
0
0
0
0
0
0
0
0
0
0
0
0
0
0
0
0
0
0
0
0
0
0
0
0
0
0
0
0
0
0
0
0
0
0
0
0
0
0
0
0
0
0
0
0
0
0
0
0
0
0
0
0
0
0
0
0
0
0
0
0.0374155
0.00938088
0.00346771
0.0017661
0.00108062
0.000736859
0.000538082
0.000411537
0.000325337
0.000263649
0.000217828
0.000182797
0.000155395
0.000133559
0.000115886
0.000101394
8.93756e-05
7.93077e-05
7.07977e-05
6.35457e-05
5.73189e-05
5.19347e-05
4.72482e-05
4.31435e-05
3.95271e-05
3.6323e-05
3.3469e-05
3.09141e-05
2.8616e-05
2.65393e-05
2.46549e-05
2.2938e-05
2.13677e-05
1.99266e-05
1.85995e-05
1.73737e-05
1.62381e-05
1.51834e-05
1.42012e-05
1.32845e-05
1.2427e-05
1.16233e-05
1.08686e-05
1.01587e-05
9.48967e-06
8.85835e-06
8.26169e-06
7.69703e-06
7.16196e-06
6.65433e-06
6.17217e-06
5.71371e-06
5.27734e-06
4.86158e-06
4.4651e-06
4.08666e-06
3.72514e-06
3.37949e-06
3.04876e-06
2.73207e-06
2.4286e-06
2.1376e-06
1.85837e-06
1.59026e-06
1.33265e-06
1.085e-06
8.46776e-07
6.17483e-07
3.96668e-07
1.83905e-07
-2.12112e-08
-2.19054e-07
-4.09976e-07
-5.94311e-07
-7.72368e-07
-9.44435e-07
-1.11079e-06
-1.2717e-06
-1.42739e-06
-1.57812e-06
-1.72408e-06
-1.8655e-06
-2.00255e-06
-2.13543e-06
-2.26431e-06
-2.38937e-06
-2.51074e-06
-2.62859e-06
-2.74305e-06
-2.85425e-06
-2.96233e-06
-3.06741e-06
-3.1696e-06
-3.26901e-06
-3.36574e-06
-3.4599e-06
-3.55158e-06
-3.64086e-06
-3.72785e-06
-3.81261e-06
-3.89523e-06
-3.97578e-06
-4.05434e-06
-4.13098e-06
-4.20575e-06
-4.27873e-06
-4.34996e-06
-4.41952e-06
-4.48745e-06
-4.55382e-06
-4.61866e-06
-4.68203e-06
-4.74398e-06
-4.80455e-06
-4.86378e-06
-4.92172e-06
-4.9784e-06
-5.03386e-06
-5.08815e-06
-5.14129e-06
-5.19333e-06
-5.24428e-06
-5.29419e-06
-5.34309e-06
-5.391e-06
-5.43795e-06
-5.48397e-06
-5.52909e-06
-5.57333e-06
-5.61672e-06
-5.65927e-06
-5.70102e-06
-5.74198e-06
-5.78218e-06
-5.82163e-06
-5.86036e-06
-5.89839e-06
-5.93572e-06
-5.97239e-06
-6.00841e-06
-6.04379e-06
-6.07856e-06
-6.11271e-06
-6.14629e-06
-6.17929e-06
-6.21173e-06
-6.24362e-06
-6.27498e-06
-6.30582e-06
-6.33616e-06
-6.366e-06
-6.39535e-06
-6.42424e-06
-6.45266e-06
-6.48064e-06
-6.50817e-06
-6.53527e-06
-6.56195e-06
-6.58823e-06
-6.6141e-06
-6.63958e-06
-6.66467e-06
-6.68938e-06
-6.71373e-06
-6.73772e-06
-6.76136e-06
-6.78465e-06
-6.80761e-06
-6.83023e-06
-6.85253e-06
-6.87452e-06
-6.89619e-06
-6.91756e-06
-6.93863e-06
-6.9594e-06
-6.97989e-06
-7.00011e-06
-7.02004e-06
-7.0397e-06
-7.0591e-06
-7.07824e-06
-7.09712e-06
-7.11576e-06
-7.13414e-06
-7.15229e-06
-7.1702e-06
-7.18788e-06
-7.20533e-06
-7.22256e-06
-7.23956e-06
-7.25635e-06
-7.27293e-06
-7.28931e-06
-7.30548e-06
-7.32145e-06
-7.33722e-06
-7.3528e-06
-7.36819e-06
-7.38341e-06
-7.39844e-06
-7.4133e-06
-7.428e-06
-7.44252e-06
-7.45688e-06
-7.4711e-06
-7.48517e-06
-7.49909e-06
-7.51287e-06
-7.52653e-06
-7.54006e-06
-7.55348e-06
-7.56678e-06
-7.57998e-06
-7.59308e-06
-7.6061e-06
-7.61904e-06
-7.6319e-06
-7.6447e-06
-7.65743e-06
-7.67012e-06
-7.68276e-06
-7.69536e-06
-7.70793e-06
-7.72048e-06
-7.73301e-06
-7.74552e-06
-7.75803e-06
-7.77054e-06
-7.78304e-06
-7.79555e-06
-7.80806e-06
-7.82058e-06
-7.83312e-06
-7.84567e-06
-7.85823e-06
-7.8708e-06
-7.88339e-06
-7.89599e-06
-7.9086e-06
-7.92122e-06
-7.93384e-06
-7.94648e-06
-7.95911e-06
-7.97173e-06
-7.98436e-06
-7.99697e-06
-8.00958e-06
-8.02216e-06
-8.03473e-06
-8.04727e-06
-8.05979e-06
-8.07227e-06
-8.08471e-06
-8.09712e-06
-8.10948e-06
-8.12179e-06
-8.13404e-06
-8.14624e-06
-8.15838e-06
-8.17046e-06
-8.18247e-06
-8.19441e-06
-8.20626e-06
-8.21804e-06
-8.22974e-06
-8.24136e-06
-8.25289e-06
-8.26433e-06
-8.27567e-06
-8.28691e-06
-8.29806e-06
-8.30911e-06
-8.32004e-06
-8.33087e-06
-8.34159e-06
-8.3522e-06
-8.36269e-06
-8.37307e-06
-8.38332e-06
-8.39346e-06
-8.40347e-06
-8.41335e-06
-8.42311e-06
-8.43274e-06
-8.44224e-06
-8.4516e-06
-8.46083e-06
-8.46992e-06
-8.47888e-06
-8.4877e-06
-8.49638e-06
-8.50492e-06
-8.51332e-06
-8.52157e-06
-8.52969e-06
-8.53767e-06
-8.5455e-06
-8.55318e-06
-8.56072e-06
-8.56812e-06
-8.57538e-06
-8.58249e-06
-8.58946e-06
-8.59628e-06
-8.60296e-06
-8.60949e-06
-8.61589e-06
-8.62213e-06
-8.62824e-06
-8.63421e-06
-8.64004e-06
-8.64572e-06
-8.65127e-06
-8.65667e-06
-8.66194e-06
-8.66707e-06
-8.67207e-06
-8.67694e-06
-8.68166e-06
-8.68626e-06
-8.69072e-06
-8.69506e-06
-8.69927e-06
-8.70335e-06
-8.7073e-06
-8.71113e-06
-8.71484e-06
-8.71842e-06
-8.72189e-06
-8.72523e-06
-8.72846e-06
-8.73158e-06
-8.73458e-06
-8.73747e-06
-8.74025e-06
-8.74292e-06
-8.74549e-06
-8.74795e-06
-8.75031e-06
-8.75256e-06
-8.75473e-06
-8.75679e-06
-8.75876e-06
-8.76064e-06
-8.76243e-06
-8.76414e-06
-8.76575e-06
-8.76729e-06
-8.76875e-06
-8.77013e-06
-8.77143e-06
-8.77265e-06
-8.77379e-06
-8.77487e-06
-8.77587e-06
-8.7768e-06
-8.77765e-06
-8.77844e-06
-8.77916e-06
-8.77982e-06
-8.78041e-06
-8.78095e-06
-8.78143e-06
-8.78186e-06
-8.78223e-06
-8.78256e-06
-8.78286e-06
-8.78312e-06
-8.78334e-06
-8.78354e-06
-8.78371e-06
-8.78387e-06
-8.78401e-06
-8.78414e-06
-8.78425e-06
-8.78436e-06
-8.78446e-06
-8.78455e-06
-8.78464e-06
-8.78472e-06
-8.7848e-06
-8.78488e-06
-8.78496e-06
-8.78504e-06
-8.78512e-06
-8.78519e-06
-8.78527e-06
-8.78534e-06
-8.78542e-06
-8.78549e-06
-8.78557e-06
-8.78565e-06
-8.78573e-06
-8.78581e-06
-8.78588e-06
-8.78596e-06
-8.78604e-06
-8.78612e-06
-8.7862e-06
-8.78628e-06
-8.78636e-06
-8.78644e-06
-8.78652e-06
-8.7866e-06
-8.78667e-06
-8.78675e-06
-8.78683e-06
-8.78691e-06
-8.78699e-06
-8.78706e-06
-8.78714e-06
-8.78722e-06
-8.7873e-06
-8.78738e-06
-8.78745e-06
-8.78753e-06
-8.78761e-06
-8.78769e-06
-8.78777e-06
-8.78785e-06
-8.78792e-06
-8.788e-06
-8.78808e-06
-8.78816e-06
-8.78824e-06
-8.78832e-06
-8.7884e-06
-8.78847e-06
-8.78855e-06
-8.78863e-06
-8.78871e-06
-8.78879e-06
-8.78887e-06
-8.78895e-06
-8.78903e-06
-8.7891e-06
-8.78918e-06
-8.78926e-06
-8.78934e-06
-8.78942e-06
-8.7895e-06
-8.78958e-06
-8.78965e-06
-8.78973e-06
-8.78981e-06
-8.78989e-06
-8.78997e-06
-8.79005e-06
-8.79013e-06
-8.79021e-06
-8.79029e-06
-8.79036e-06
-8.79044e-06
-8.79052e-06
-8.7906e-06
-8.79068e-06
-8.79076e-06
-8.79084e-06
-8.79092e-06
-8.791e-06
-8.79107e-06
-8.79115e-06
-8.79123e-06
-8.79131e-06
-8.79139e-06
-8.79147e-06
-8.79155e-06
-8.79163e-06
-8.79171e-06
-8.79179e-06
-8.79187e-06
-8.79194e-06
-8.79202e-06
-8.7921e-06
-8.79218e-06
-8.79226e-06
-8.79234e-06
-8.79242e-06
-8.7925e-06
-8.79258e-06
-8.79266e-06
-8.79274e-06
-8.79282e-06
-8.79289e-06
-8.79297e-06
-8.79305e-06
-8.79313e-06
-8.79321e-06
-8.79329e-06
-8.79337e-06
-8.79345e-06
-8.79353e-06
-8.79361e-06
-8.79369e-06
-8.79377e-06
-8.79385e-06
-8.79392e-06
-8.794e-06
-8.79409e-06
-8.79417e-06
-8.79424e-06
-8.79432e-06
-8.7944e-06
-8.79448e-06
-8.79456e-06
-8.79464e-06
-8.79472e-06
-8.7948e-06
-8.79488e-06
-8.79496e-06
-8.79504e-06
-8.79512e-06
-8.7952e-06
-8.79528e-06
-8.79536e-06
-8.79544e-06
-8.79552e-06
-8.7956e-06
-8.79567e-06
-8.79575e-06
-8.79583e-06
-8.79591e-06
-8.79599e-06
-8.79607e-06
-8.79615e-06
-8.79623e-06
-8.79631e-06
-8.79639e-06
-8.79647e-06
-8.79655e-06
-8.79663e-06
-8.79671e-06
-8.79679e-06
-8.79687e-06
-8.79695e-06
-8.79703e-06
-8.79711e-06
-8.79719e-06
-8.79727e-06
-8.79735e-06
-8.79743e-06
-8.79751e-06
-8.79759e-06
-8.79767e-06
-8.79775e-06
-8.79783e-06
-8.79791e-06
-8.79799e-06
-8.79807e-06
-8.79815e-06
-8.79823e-06
-8.79831e-06
-8.79839e-06
-8.79847e-06
-8.79855e-06
-8.79863e-06
-8.79871e-06
-8.79879e-06
-8.79887e-06
-8.79895e-06
-8.79903e-06
-8.79911e-06
-8.79919e-06
-8.79927e-06
-8.79935e-06
-8.79943e-06
-8.79951e-06
-8.79959e-06
-8.79967e-06
-8.79975e-06
-8.79983e-06
-8.79991e-06
-8.79999e-06
-8.80007e-06
-8.80015e-06
-8.80023e-06
-8.80031e-06
-8.80039e-06
-8.80047e-06
-8.80055e-06
-8.80063e-06
-8.80071e-06
-8.80079e-06
-8.80087e-06
-8.80095e-06
-8.80103e-06
-8.80111e-06
-8.80119e-06
-8.80128e-06
-8.80136e-06
-8.80144e-06
-8.80151e-06
-8.80159e-06
-8.80168e-06
-8.80176e-06
-8.80184e-06
-8.80192e-06
-8.802e-06
-8.80208e-06
-8.80216e-06
-8.80224e-06
-8.80232e-06
-8.8024e-06
-8.80248e-06
-8.80256e-06
-8.80265e-06
-8.80273e-06
-8.8028e-06
-8.80288e-06
-8.80296e-06
-8.80305e-06
-8.80313e-06
-8.80321e-06
-8.80329e-06
-8.80337e-06
-8.80345e-06
-8.80353e-06
-8.80361e-06
-8.80369e-06
-8.80377e-06
-8.80385e-06
-8.80393e-06
-8.80401e-06
-8.8041e-06
-8.80418e-06
-8.80426e-06
-8.80434e-06
-8.80442e-06
-8.8045e-06
-8.80458e-06
-8.80465e-06
-8.80474e-06
-8.80482e-06
-8.80491e-06
-8.80499e-06
-8.80507e-06
-8.80515e-06
-8.80523e-06
-8.80531e-06
-8.80539e-06
-8.80547e-06
-8.80555e-06
-8.80563e-06
-8.80571e-06
-8.80579e-06
-8.80587e-06
-8.80596e-06
-8.80604e-06
-8.80612e-06
-8.8062e-06
-8.80628e-06
-8.80636e-06
-8.80645e-06
-8.80653e-06
-8.80661e-06
-8.80669e-06
-8.80677e-06
-8.80685e-06
-8.80693e-06
-8.80701e-06
-8.80709e-06
-8.80718e-06
-8.80726e-06
-8.80734e-06
-8.80742e-06
-8.8075e-06
-8.80758e-06
-8.80766e-06
-8.80774e-06
-8.80783e-06
-8.80791e-06
-8.80799e-06
-8.80807e-06
-8.80815e-06
-8.80823e-06
-8.80831e-06
-8.8084e-06
-8.80848e-06
-8.80856e-06
-8.80864e-06
-8.80872e-06
-8.8088e-06
-8.80888e-06
-8.80897e-06
-8.80905e-06
-8.80912e-06
-8.80921e-06
-8.80929e-06
-8.80937e-06
-8.80946e-06
-8.80954e-06
-8.80962e-06
-8.8097e-06
-8.80978e-06
-8.80986e-06
-8.80995e-06
-8.81002e-06
-8.81011e-06
-8.81019e-06
-8.81027e-06
-8.81035e-06
-8.81043e-06
-8.81052e-06
-8.8106e-06
-8.81068e-06
-8.81076e-06
-8.81084e-06
-8.81093e-06
-8.81101e-06
-8.81109e-06
-8.81117e-06
-8.81125e-06
-8.81133e-06
-8.81141e-06
-8.81149e-06
-8.81158e-06
-8.81166e-06
-8.81174e-06
-8.81183e-06
-8.81191e-06
-8.81199e-06
-8.81207e-06
-8.81215e-06
-8.81223e-06
-8.81232e-06
-8.8124e-06
-8.81248e-06
-8.81256e-06
-8.81264e-06
-8.81273e-06
-8.81281e-06
-8.81289e-06
-8.81297e-06
-8.81306e-06
-8.81314e-06
-8.81322e-06
-8.8133e-06
-8.81338e-06
-8.81347e-06
-8.81355e-06
-8.81363e-06
-8.81371e-06
-8.81379e-06
-8.81388e-06
-8.81396e-06
-8.81404e-06
-8.81412e-06
-8.81421e-06
-8.81429e-06
-8.81437e-06
-8.81445e-06
-8.81453e-06
-8.81462e-06
-8.8147e-06
-8.81478e-06
-8.81486e-06
-8.81494e-06
-8.81502e-06
-8.8151e-06
-8.81518e-06
-8.81525e-06
-8.81533e-06
-8.81541e-06
-8.81548e-06
-8.81555e-06
-8.81562e-06
-8.81569e-06
-8.81575e-06
-8.8158e-06
-8.81585e-06
-8.81589e-06
-8.81591e-06
-8.81592e-06
-8.81592e-06
-8.81589e-06
-8.81583e-06
-8.81572e-06
-8.81558e-06
-8.81536e-06
-8.81508e-06
-8.81468e-06
-8.81418e-06
-8.81348e-06
-8.81265e-06
-8.81144e-06
-8.81007e-06
-8.80799e-06
-8.80581e-06
-8.80213e-06
-8.79884e-06
-8.79185e-06
-8.78759e-06
-8.77221e-06
-8.77155e-06
-8.72558e-06
-8.80606e-06
-6.22386e-06
-6.22386e-06
0
0
0.0966097
0.0320524
0.0130059
0.00682607
0.00423577
0.00291383
0.00214219
0.00164811
0.00131024
0.00106776
0.000887255
0.000749007
0.000640702
0.000554279
0.000484254
0.000426774
0.000379059
0.000339056
0.000305219
0.000276366
0.000251579
0.000230136
0.000211466
0.000195109
0.000180696
0.000167924
0.000156547
0.000146363
0.000137202
0.000128926
0.000121416
0.000114576
0.000108321
0.000102581
9.72977e-05
9.24183e-05
8.78994e-05
8.37031e-05
7.97965e-05
7.61512e-05
7.27422e-05
6.95478e-05
6.65487e-05
6.37281e-05
6.10708e-05
5.85636e-05
5.61945e-05
5.39528e-05
5.1829e-05
4.98144e-05
4.79011e-05
4.60821e-05
4.4351e-05
4.27018e-05
4.11293e-05
3.96285e-05
3.81949e-05
3.68243e-05
3.55131e-05
3.42576e-05
3.30546e-05
3.19012e-05
3.07944e-05
2.97318e-05
2.87109e-05
2.77295e-05
2.67855e-05
2.58769e-05
2.5002e-05
2.4159e-05
2.33463e-05
2.25625e-05
2.18062e-05
2.1076e-05
2.03706e-05
1.9689e-05
1.90301e-05
1.83928e-05
1.77761e-05
1.71791e-05
1.6601e-05
1.6041e-05
1.54982e-05
1.49719e-05
1.44615e-05
1.39663e-05
1.34857e-05
1.3019e-05
1.25658e-05
1.21255e-05
1.16975e-05
1.12815e-05
1.08769e-05
1.04833e-05
1.01003e-05
9.72747e-06
9.3645e-06
9.01101e-06
8.66664e-06
8.33106e-06
8.00398e-06
7.68509e-06
7.37409e-06
7.07073e-06
6.77474e-06
6.48586e-06
6.20387e-06
5.92854e-06
5.65963e-06
5.39695e-06
5.14029e-06
4.88945e-06
4.64426e-06
4.40453e-06
4.17009e-06
3.94078e-06
3.71644e-06
3.49692e-06
3.28206e-06
3.07174e-06
2.86581e-06
2.66415e-06
2.46663e-06
2.27313e-06
2.08353e-06
1.89773e-06
1.7156e-06
1.53705e-06
1.36199e-06
1.1903e-06
1.02191e-06
8.56709e-07
6.94623e-07
5.35564e-07
3.79448e-07
2.26202e-07
7.57486e-08
-7.19835e-08
-2.17066e-07
-3.59572e-07
-4.99567e-07
-6.37108e-07
-7.72258e-07
-9.05083e-07
-1.03564e-06
-1.16398e-06
-1.29016e-06
-1.41423e-06
-1.53624e-06
-1.65625e-06
-1.7743e-06
-1.89043e-06
-2.0047e-06
-2.11714e-06
-2.22779e-06
-2.33671e-06
-2.44392e-06
-2.54947e-06
-2.65339e-06
-2.75572e-06
-2.8565e-06
-2.95575e-06
-3.05351e-06
-3.14983e-06
-3.24471e-06
-3.3382e-06
-3.43033e-06
-3.52112e-06
-3.6106e-06
-3.6988e-06
-3.78575e-06
-3.87146e-06
-3.95597e-06
-4.03931e-06
-4.12148e-06
-4.20252e-06
-4.28245e-06
-4.36129e-06
-4.43906e-06
-4.51578e-06
-4.59148e-06
-4.66617e-06
-4.73987e-06
-4.8126e-06
-4.88438e-06
-4.95522e-06
-5.02514e-06
-5.09417e-06
-5.16232e-06
-5.22959e-06
-5.29602e-06
-5.36162e-06
-5.42641e-06
-5.49039e-06
-5.55359e-06
-5.61602e-06
-5.6777e-06
-5.73865e-06
-5.79888e-06
-5.85842e-06
-5.91728e-06
-5.97549e-06
-6.03305e-06
-6.08999e-06
-6.14634e-06
-6.20212e-06
-6.25735e-06
-6.31206e-06
-6.36626e-06
-6.41999e-06
-6.47328e-06
-6.52615e-06
-6.57863e-06
-6.63075e-06
-6.68253e-06
-6.73402e-06
-6.78524e-06
-6.83621e-06
-6.88697e-06
-6.93754e-06
-6.98796e-06
-7.03824e-06
-7.08842e-06
-7.13852e-06
-7.18856e-06
-7.23856e-06
-7.28854e-06
-7.33852e-06
-7.38851e-06
-7.43852e-06
-7.48857e-06
-7.53867e-06
-7.58881e-06
-7.63901e-06
-7.68926e-06
-7.73956e-06
-7.78992e-06
-7.84032e-06
-7.89076e-06
-7.94123e-06
-7.99173e-06
-8.04224e-06
-8.09275e-06
-8.14324e-06
-8.1937e-06
-8.24413e-06
-8.2945e-06
-8.34479e-06
-8.39499e-06
-8.44509e-06
-8.49506e-06
-8.54489e-06
-8.59456e-06
-8.64407e-06
-8.69338e-06
-8.74248e-06
-8.79136e-06
-8.84e-06
-8.8884e-06
-8.93652e-06
-8.98437e-06
-9.03191e-06
-9.07915e-06
-9.12605e-06
-9.17263e-06
-9.21886e-06
-9.26472e-06
-9.31021e-06
-9.35532e-06
-9.40002e-06
-9.44432e-06
-9.4882e-06
-9.53165e-06
-9.57466e-06
-9.61722e-06
-9.65932e-06
-9.70095e-06
-9.7421e-06
-9.78277e-06
-9.82294e-06
-9.86262e-06
-9.90178e-06
-9.94042e-06
-9.97854e-06
-1.00161e-05
-1.00532e-05
-1.00897e-05
-1.01256e-05
-1.0161e-05
-1.01959e-05
-1.02302e-05
-1.02639e-05
-1.02971e-05
-1.03297e-05
-1.03617e-05
-1.03931e-05
-1.0424e-05
-1.04543e-05
-1.0484e-05
-1.05131e-05
-1.05416e-05
-1.05696e-05
-1.0597e-05
-1.06238e-05
-1.06501e-05
-1.06757e-05
-1.07008e-05
-1.07253e-05
-1.07493e-05
-1.07727e-05
-1.07955e-05
-1.08177e-05
-1.08394e-05
-1.08606e-05
-1.08812e-05
-1.09012e-05
-1.09207e-05
-1.09397e-05
-1.09581e-05
-1.0976e-05
-1.09934e-05
-1.10103e-05
-1.10266e-05
-1.10425e-05
-1.10578e-05
-1.10726e-05
-1.1087e-05
-1.11009e-05
-1.11143e-05
-1.11272e-05
-1.11396e-05
-1.11516e-05
-1.11632e-05
-1.11743e-05
-1.1185e-05
-1.11952e-05
-1.1205e-05
-1.12144e-05
-1.12234e-05
-1.1232e-05
-1.12402e-05
-1.1248e-05
-1.12555e-05
-1.12626e-05
-1.12693e-05
-1.12757e-05
-1.12818e-05
-1.12875e-05
-1.12929e-05
-1.1298e-05
-1.13028e-05
-1.13073e-05
-1.13115e-05
-1.13154e-05
-1.1319e-05
-1.13224e-05
-1.13254e-05
-1.13282e-05
-1.13307e-05
-1.1333e-05
-1.13351e-05
-1.13369e-05
-1.13385e-05
-1.13399e-05
-1.13411e-05
-1.13421e-05
-1.1343e-05
-1.13438e-05
-1.13444e-05
-1.1345e-05
-1.13454e-05
-1.13458e-05
-1.13461e-05
-1.13464e-05
-1.13466e-05
-1.13468e-05
-1.1347e-05
-1.13472e-05
-1.13473e-05
-1.13474e-05
-1.13475e-05
-1.13476e-05
-1.13477e-05
-1.13478e-05
-1.13479e-05
-1.1348e-05
-1.13481e-05
-1.13482e-05
-1.13483e-05
-1.13484e-05
-1.13485e-05
-1.13486e-05
-1.13487e-05
-1.13488e-05
-1.13489e-05
-1.1349e-05
-1.13491e-05
-1.13492e-05
-1.13493e-05
-1.13494e-05
-1.13495e-05
-1.13496e-05
-1.13497e-05
-1.13498e-05
-1.13499e-05
-1.135e-05
-1.13502e-05
-1.13503e-05
-1.13504e-05
-1.13505e-05
-1.13506e-05
-1.13507e-05
-1.13508e-05
-1.13509e-05
-1.1351e-05
-1.13511e-05
-1.13512e-05
-1.13513e-05
-1.13514e-05
-1.13515e-05
-1.13516e-05
-1.13517e-05
-1.13518e-05
-1.13519e-05
-1.1352e-05
-1.13521e-05
-1.13522e-05
-1.13523e-05
-1.13524e-05
-1.13525e-05
-1.13526e-05
-1.13527e-05
-1.13528e-05
-1.13529e-05
-1.1353e-05
-1.13531e-05
-1.13532e-05
-1.13533e-05
-1.13534e-05
-1.13535e-05
-1.13536e-05
-1.13537e-05
-1.13538e-05
-1.13539e-05
-1.1354e-05
-1.13542e-05
-1.13543e-05
-1.13544e-05
-1.13545e-05
-1.13546e-05
-1.13547e-05
-1.13548e-05
-1.13549e-05
-1.1355e-05
-1.13551e-05
-1.13552e-05
-1.13553e-05
-1.13554e-05
-1.13555e-05
-1.13556e-05
-1.13557e-05
-1.13558e-05
-1.13559e-05
-1.1356e-05
-1.13561e-05
-1.13562e-05
-1.13563e-05
-1.13564e-05
-1.13565e-05
-1.13566e-05
-1.13567e-05
-1.13568e-05
-1.13569e-05
-1.1357e-05
-1.13571e-05
-1.13572e-05
-1.13573e-05
-1.13575e-05
-1.13576e-05
-1.13577e-05
-1.13578e-05
-1.13579e-05
-1.1358e-05
-1.13581e-05
-1.13582e-05
-1.13583e-05
-1.13584e-05
-1.13585e-05
-1.13586e-05
-1.13587e-05
-1.13588e-05
-1.13589e-05
-1.1359e-05
-1.13591e-05
-1.13592e-05
-1.13593e-05
-1.13594e-05
-1.13595e-05
-1.13596e-05
-1.13597e-05
-1.13598e-05
-1.13599e-05
-1.136e-05
-1.13601e-05
-1.13602e-05
-1.13604e-05
-1.13605e-05
-1.13606e-05
-1.13607e-05
-1.13608e-05
-1.13609e-05
-1.1361e-05
-1.13611e-05
-1.13612e-05
-1.13613e-05
-1.13614e-05
-1.13615e-05
-1.13616e-05
-1.13617e-05
-1.13618e-05
-1.13619e-05
-1.1362e-05
-1.13621e-05
-1.13622e-05
-1.13623e-05
-1.13624e-05
-1.13625e-05
-1.13626e-05
-1.13627e-05
-1.13629e-05
-1.1363e-05
-1.13631e-05
-1.13632e-05
-1.13633e-05
-1.13634e-05
-1.13635e-05
-1.13636e-05
-1.13637e-05
-1.13638e-05
-1.13639e-05
-1.1364e-05
-1.13641e-05
-1.13642e-05
-1.13643e-05
-1.13644e-05
-1.13645e-05
-1.13646e-05
-1.13647e-05
-1.13648e-05
-1.13649e-05
-1.1365e-05
-1.13651e-05
-1.13653e-05
-1.13654e-05
-1.13655e-05
-1.13656e-05
-1.13657e-05
-1.13658e-05
-1.13659e-05
-1.1366e-05
-1.13661e-05
-1.13662e-05
-1.13663e-05
-1.13664e-05
-1.13665e-05
-1.13666e-05
-1.13667e-05
-1.13668e-05
-1.13669e-05
-1.1367e-05
-1.13671e-05
-1.13672e-05
-1.13673e-05
-1.13675e-05
-1.13676e-05
-1.13677e-05
-1.13678e-05
-1.13679e-05
-1.1368e-05
-1.13681e-05
-1.13682e-05
-1.13683e-05
-1.13684e-05
-1.13685e-05
-1.13686e-05
-1.13687e-05
-1.13688e-05
-1.13689e-05
-1.1369e-05
-1.13691e-05
-1.13692e-05
-1.13693e-05
-1.13694e-05
-1.13695e-05
-1.13697e-05
-1.13698e-05
-1.13699e-05
-1.137e-05
-1.13701e-05
-1.13702e-05
-1.13703e-05
-1.13704e-05
-1.13705e-05
-1.13706e-05
-1.13707e-05
-1.13708e-05
-1.13709e-05
-1.1371e-05
-1.13711e-05
-1.13712e-05
-1.13713e-05
-1.13714e-05
-1.13715e-05
-1.13717e-05
-1.13718e-05
-1.13719e-05
-1.1372e-05
-1.13721e-05
-1.13722e-05
-1.13723e-05
-1.13724e-05
-1.13725e-05
-1.13726e-05
-1.13727e-05
-1.13728e-05
-1.13729e-05
-1.1373e-05
-1.13731e-05
-1.13732e-05
-1.13733e-05
-1.13734e-05
-1.13736e-05
-1.13737e-05
-1.13738e-05
-1.13739e-05
-1.1374e-05
-1.13741e-05
-1.13742e-05
-1.13743e-05
-1.13744e-05
-1.13745e-05