# vtk DataFile Version 2.0
FlowField
ASCII
DATASET STRUCTURED_GRID
DIMENSIONS 800 1 200
POINTS 160000 float
0 0 0
0.04 0 0
0.08 0 0
0.12 0 0
0.16 0 0
0.2 0 0
0.24 0 0
0.28 0 0
0.32 0 0
0.36 0 0
0.4 0 0
0.44 0 0
0.48 0 0
0.52 0 0
0.56 0 0
0.6 0 0
0.64 0 0
0.68 0 0
0.72 0 0
0.76 0 0
0.8 0 0
0.84 0 0
0.88 0 0
0.92 0 0
0.96 0 0
1 0 0
1.04 0 0
1.08 0 0
1.12 0 0
1.16 0 0
1.2 0 0
1.24 0 0
1.28 0 0
1.32 0 0
1.36 0 0
1.4 0 0
1.44 0 0
1.48 0 0
1.52 0 0
1.56 0 0
1.6 0 0
1.64 0 0
1.68 0 0
1.72 0 0
1.76 0 0
1.8 0 0
1.84 0 0
1.88 0 0
1.92 0 0
1.96 0 0
2 0 0
2.04 0 0
2.08 0 0
2.12 0 0
2.16 0 0
2.2 0 0
2.24 0 0
2.28 0 0
2.32 0 0
2.36 0 0
2.4 0 0
2.44 0 0
2.48 0 0
2.52 0 0
2.56 0 0
2.6 0 0
2.64 0 0
2.68 0 0
2.72 0 0
2.76 0 0
2.8 0 0
2.84 0 0
2.88 0 0
2.92 0 0
2.96 0 0
3 0 0
3.04 0 0
3.08 0 0
3.12 0 0
3.16 0 0
3.2 0 0
3.24 0 0
3.28 0 0
3.32 0 0
3.36 0 0
3.4 0 0
3.44 0 0
3.48 0 0
3.52 0 0
3.56 0 0
3.6 0 0
3.64 0 0
3.68 0 0
3.72 0 0
3.76 0 0
3.8 0 0
3.84 0 0
3.88 0 0
3.92 0 0
3.96 0 0
4 0 0
4.04 0 0
4.08 0 0
4.12 0 0
4.16 0 0
4.2 0 0
4.24 0 0
4.28 0 0
4.32 0 0
4.36 0 0
4.4 0 0
4.44 0 0
4.48 0 0
4.52 0 0
4.56 0 0
4.6 0 0
4.64 0 0
4.68 0 0
4.72 0 0
4.76 0 0
4.8 0 0
4.84 0 0
4.88 0 0
4.92 0 0
4.96 0 0
5 0 0
5.04 0 0
5.08 0 0
5.12 0 0
5.16 0 0
5.2 0 0
5.24 0 0
5.28 0 0
5.32 0 0
5.36 0 0
5.4 0 0
5.44 0 0
5.48 0 0
5.52 0 0
5.56 0 0
5.6 0 0
5.64 0 0
5.68 0 0
5.72 0 0
5.76 0 0
5.8 0 0
5.84 0 0
5.88 0 0
5.92 0 0
5.96 0 0
6 0 0
6.04 0 0
6.08 0 0
6.12 0 0
6.16 0 0
6.2 0 0
6.24 0 0
6.28 0 0
6.32 0 0
6.36 0 0
6.4 0 0
6.44 0 0
6.48 0 0
6.52 0 0
6.56 0 0
6.6 0 0
6.64 0 0
6.68 0 0
6.72 0 0
6.76 0 0
6.8 0 0
6.84 0 0
6.88 0 0
6.92 0 0
6.96 0 0
7 0 0
7.04 0 0
7.08 0 0
7.12 0 0
7.16 0 0
7.2 0 0
7.24 0 0
7.28 0 0
7.32 0 0
7.36 0 0
7.4 0 0
7.44 0 0
7.48 0 0
7.52 0 0
7.56 0 0
7.6 0 0
7.64 0 0
7.68 0 0
7.72 0 0
7.76 0 0
7.8 0 0
7.84 0 0
7.88 0 0
7.92 0 0
7.96 0 0
8 0 0
8.04 0 0
8.08 0 0
8.12 0 0
8.16 0 0
8.2 0 0
8.24 0 0
8.28 0 0
8.32 0 0
8.36 0 0
8.4 0 0
8.44 0 0
8.48 0 0
8.52 0 0
8.56 0 0
8.6 0 0
8.64 0 0
8.68 0 0
8.72 0 0
8.76 0 0
8.8 0 0
8.84 0 0
8.88 0 0
8.92 0 0
8.96 0 0
9 0 0
9.04 0 0
9.08 0 0
9.12 0 0
9.16 0 0
9.2 0 0
9.24 0 0
9.28 0 0
9.32 0 0
9.36 0 0
9.4 0 0
9.44 0 0
9.48 0 0
9.52 0 0
9.56 0 0
9.6 0 0
9.64 0 0
9.68 0 0
9.72 0 0
9.76 0 0
9.8 0 0
9.84 0 0
9.88 0 0
9.92 0 0
9.96 0 0
10 0 0
10.04 0 0
10.08 0 0
10.12 0 0
10.16 0 0
10.2 0 0
10.24 0 0
10.28 0 0
10.32 0 0
10.36 0 0
10.4 0 0
10.44 0 0
10.48 0 0
10.52 0 0
10.56 0 0
10.6 0 0
10.64 0 0
10.68 0 0
10.72 0 0
10.76 0 0
10.8 0 0
10.84 0 0
10.88 0 0
10.92 0 0
10.96 0 0
11 0 0
11.04 0 0
11.08 0 0
11.12 0 0
11.16 0 0
11.2 0 0
11.24 0 0
11.28 0 0
11.32 0 0
11.36 0 0
11.4 0 0
11.44 0 0
11.48 0 0
11.52 0 0
11.56 0 0
11.6 0 0
11.64 0 0
11.68 0 0
11.72 0 0
11.76 0 0
11.8 0 0
11.84 0 0
11.88 0 0
11.92 0 0
11.96 0 0
12 0 0
12.04 0 0
12.08 0 0
12.12 0 0
12.16 0 0
12.2 0 0
12.24 0 0
12.28 0 0
12.32 0 0
12.36 0 0
12.4 0 0
12.44 0 0
12.48 0 0
12.52 0 0
12.56 0 0
12.6 0 0
12.64 0 0
12.68 0 0
12.72 0 0
12.76 0 0
12.8 0 0
12.84 0 0
12.88 0 0
12.92 0 0
12.96 0 0
13 0 0
13.04 0 0
13.08 0 0
13.12 0 0
13.16 0 0
13.2 0 0
13.24 0 0
13.28 0 0
13.32 0 0
13.36 0 0
13.4 0 0
13.44 0 0
13.48 0 0
13.52 0 0
13.56 0 0
13.6 0 0
13.64 0 0
13.68 0 0
13.72 0 0
13.76 0 0
13.8 0 0
13.84 0 0
13.88 0 0
13.92 0 0
13.96 0 0
14 0 0
14.04 0 0
14.08 0 0
14.12 0 0
14.16 0 0
14.2 0 0
14.24 0 0
14.28 0 0
14.32 0 0
14.36 0 0
14.4 0 0
14.44 0 0
14.48 0 0
14.52 0 0
14.56 0 0
14.6 0 0
14.64 0 0
14.68 0 0
14.72 0 0
14.76 0 0
14.8 0 0
14.84 0 0
14.88 0 0
14.92 0 0
14.96 0 0
15 0 0
15.04 0 0
15.08 0 0
15.12 0 0
15.16 0 0
15.2 0 0
15.24 0 0
15.28 0 0
15.32 0 0
15.36 0 0
15.4 0 0
15.44 0 0
15.48 0 0
15.52 0 0
15.56 0 0
15.6 0 0
15.64 0 0
15.68 0 0
15.72 0 0
15.76 0 0
15.8 0 0
15.84 0 0
15.88 0 0
15.92 0 0
15.96 0 0
16 0 0
16.04 0 0
16.08 0 0
16.12 0 0
16.16 0 0
16.2 0 0
16.24 0 0
16.28 0 0
16.32 0 0
16.36 0 0
16.4 0 0
16.44 0 0
16.48 0 0
16.52 0 0
16.56 0 0
16.6 0 0
16.64 0 0
16.68 0 0
16.72 0 0
16.76 0 0
16.8 0 0
16.84 0 0
16.88 0 0
16.92 0 0
16.96 0 0
17 0 0
17.04 0 0
17.08 0 0
17.12 0 0
17.16 0 0
17.2 0 0
17.24 0 0
17.28 0 0
17.32 0 0
17.36 0 0
17.4 0 0
17.44 0 0
17.48 0 0
17.52 0 0
17.56 0 0
17.6 0 0
17.64 0 0
17.68 0 0
17.72 0 0
17.76 0 0
17.8 0 0
17.84 0 0
17.88 0 0
17.92 0 0
17.96 0 0
18 0 0
18.04 0 0
18.08 0 0
18.12 0 0
18.16 0 0
18.2 0 0
18.24 0 0
18.28 0 0
18.32 0 0
18.36 0 0
18.4 0 0
18.44 0 0
18.48 0 0
18.52 0 0
18.56 0 0
18.6 0 0
18.64 0 0
18.68 0 0
18.72 0 0
18.76 0 0
18.8 0 0
18.84 0 0
18.88 0 0
18.92 0 0
18.96 0 0
19 0 0
19.04 0 0
19.08 0 0
19.12 0 0
19.16 0 0
19.2 0 0
19.24 0 0
19.28 0 0
19.32 0 0
19.36 0 0
19.4 0 0
19.44 0 0
19.48 0 0
19.52 0 0
19.56 0 0
19.6 0 0
19.64 0 0
19.68 0 0
19.72 0 0
19.76 0 0
19.8 0 0
19.84 0 0
19.88 0 0
19.92 0 0
19.96 0 0
20 0 0
20.04 0 0
20.08 0 0
20.12 0 0
20.16 0 0
20.2 0 0
20.24 0 0
20.28 0 0
20.32 0 0
20.36 0 0
20.4 0 0
20.44 0 0
20.48 0 0
20.52 0 0
20.56 0 0
20.6 0 0
20.64 0 0
20.68 0 0
20.72 0 0
20.76 0 0
20.8 0 0
20.84 0 0
20.88 0 0
20.92 0 0
20.96 0 0
21 0 0
21.04 0 0
21.08 0 0
21.12 0 0
21.16 0 0
21.2 0 0
21.24 0 0
21.28 0 0
21.32 0 0
21.36 0 0
21.4 0 0
21.44 0 0
21.48 0 0
21.52 0 0
21.56 0 0
21.6 0 0
21.64 0 0
21.68 0 0
21.72 0 0
21.76 0 0
21.8 0 0
21.84 0 0
21.88 0 0
21.92 0 0
21.96 0 0
22 0 0
22.04 0 0
22.08 0 0
22.12 0 0
22.16 0 0
22.2 0 0
22.24 0 0
22.28 0 0
22.32 0 0
22.36 0 0
22.4 0 0
22.44 0 0
22.48 0 0
22.52 0 0
22.56 0 0
22.6 0 0
22.64 0 0
22.68 0 0
22.72 0 0
22.76 0 0
22.8 0 0
22.84 0 0
22.88 0 0
22.92 0 0
22.96 0 0
23 0 0
23.04 0 0
23.08 0 0
23.12 0 0
23.16 0 0
23.2 0 0
23.24 0 0
23.28 0 0
23.32 0 0
23.36 0 0
23.4 0 0
23.44 0 0
23.48 0 0
23.52 0 0
23.56 0 0
23.6 0 0
23.64 0 0
23.68 0 0
23.72 0 0
23.76 0 0
23.8 0 0
23.84 0 0
23.88 0 0
23.92 0 0
23.96 0 0
24 0 0
24.04 0 0
24.08 0 0
24.12 0 0
24.16 0 0
24.2 0 0
24.24 0 0
24.28 0 0
24.32 0 0
24.36 0 0
24.4 0 0
24.44 0 0
24.48 0 0
24.52 0 0
24.56 0 0
24.6 0 0
24.64 0 0
24.68 0 0
24.72 0 0
24.76 0 0
24.8 0 0
24.84 0 0
24.88 0 0
24.92 0 0
24.96 0 0
25 0 0
25.04 0 0
25.08 0 0
25.12 0 0
25.16 0 0
25.2 0 0
25.24 0 0
25.28 0 0
25.32 0 0
25.36 0 0
25.4 0 0
25.44 0 0
25.48 0 0
25.52 0 0
25.56 0 0
25.6 0 0
25.64 0 0
25.68 0 0
25.72 0 0
25.76 0 0
25.8 0 0
25.84 0 0
25.88 0 0
25.92 0 0
25.96 0 0
26 0 0
26.04 0 0
26.08 0 0
26.12 0 0
26.16 0 0
26.2 0 0
26.24 0 0
26.28 0 0
26.32 0 0
26.36 0 0
26.4 0 0
26.44 0 0
26.48 0 0
26.52 0 0
26.56 0 0
26.6 0 0
26.64 0 0
26.68 0 0
26.72 0 0
26.76 0 0
26.8 0 0
26.84 0 0
26.88 0 0
26.92 0 0
26.96 0 0
27 0 0
27.04 0 0
27.08 0 0
27.12 0 0
27.16 0 0
27.2 0 0
27.24 0 0
27.28 0 0
27.32 0 0
27.36 0 0
27.4 0 0
27.44 0 0
27.48 0 0
27.52 0 0
27.56 0 0
27.6 0 0
27.64 0 0
27.68 0 0
27.72 0 0
27.76 0 0
27.8 0 0
27.84 0 0
27.88 0 0
27.92 0 0
27.96 0 0
28 0 0
28.04 0 0
28.08 0 0
28.12 0 0
28.16 0 0
28.2 0 0
28.24 0 0
28.28 0 0
28.32 0 0
28.36 0 0
28.4 0 0
28.44 0 0
28.48 0 0
28.52 0 0
28.56 0 0
28.6 0 0
28.64 0 0
28.68 0 0
28.72 0 0
28.76 0 0
28.8 0 0
28.84 0 0
28.88 0 0
28.92 0 0
28.96 0 0
29 0 0
29.04 0 0
29.08 0 0
29.12 0 0
29.16 0 0
29.2 0 0
29.24 0 0
29.28 0 0
29.32 0 0
29.36 0 0
29.4 0 0
29.44 0 0
29.48 0 0
29.52 0 0
29.56 0 0
29.6 0 0
29.64 0 0
29.68 0 0
29.72 0 0
29.76 0 0
29.8 0 0
29.84 0 0
29.88 0 0
29.92 0 0
29.96 0 0
30 0 0
30.04 0 0
30.08 0 0
30.12 0 0
30.16 0 0
30.2 0 0
30.24 0 0
30.28 0 0
30.32 0 0
30.36 0 0
30.4 0 0
30.44 0 0
30.48 0 0
30.52 0 0
30.56 0 0
30.6 0 0
30.64 0 0
30.68 0 0
30.72 0 0
30.76 0 0
30.8 0 0
30.84 0 0
30.88 0 0
30.92 0 0
30.96 0 0
31 0 0
31.04 0 0
31.08 0 0
31.12 0 0
31.16 0 0
31.2 0 0
31.24 0 0
31.28 0 0
31.32 0 0
31.36 0 0
31.4 0 0
31.44 0 0
31.48 0 0
31.52 0 0
31.56 0 0
31.6 0 0
31.64 0 0
31.68 0 0
31.72 0 0
31.76 0 0
31.8 0 0
31.84 0 0
31.88 0 0
31.92 0 0
31.96 0 0
0 0.005 0
0.04 0.005 0
0.08 0.005 0
0.12 0.005 0
0.16 0.005 0
0.2 0.005 0
0.24 0.005 0
0.28 0.005 0
0.32 0.005 0
0.36 0.005 0
0.4 0.005 0
0.44 0.005 0
0.48 0.005 0
0.52 0.005 0
0.56 0.005 0
0.6 0.005 0
0.64 0.005 0
0.68 0.005 0
0.72 0.005 0
0.76 0.005 0
0.8 0.005 0
0.84 0.005 0
0.88 0.005 0
0.92 0.005 0
0.96 0.005 0
1 0.005 0
1.04 0.005 0
1.08 0.005 0
1.12 0.005 0
1.16 0.005 0
1.2 0.005 0
1.24 0.005 0
1.28 0.005 0
1.32 0.005 0
1.36 0.005 0
1.4 0.005 0
1.44 0.005 0
1.48 0.005 0
1.52 0.005 0
1.56 0.005 0
1.6 0.005 0
1.64 0.005 0
1.68 0.005 0
1.72 0.005 0
1.76 0.005 0
1.8 0.005 0
1.84 0.005 0
1.88 0.005 0
1.92 0.005 0
1.96 0.005 0
2 0.005 0
2.04 0.005 0
2.08 0.005 0
2.12 0.005 0
2.16 0.005 0
2.2 0.005 0
2.24 0.005 0
2.28 0.005 0
2.32 0.005 0
2.36 0.005 0
2.4 0.005 0
2.44 0.005 0
2.48 0.005 0
2.52 0.005 0
2.56 0.005 0
2.6 0.005 0
2.64 0.005 0
2.68 0.005 0
2.72 0.005 0
2.76 0.005 0
2.8 0.005 0
2.84 0.005 0
2.88 0.005 0
2.92 0.005 0
2.96 0.005 0
3 0.005 0
3.04 0.005 0
3.08 0.005 0
3.12 0.005 0
3.16 0.005 0
3.2 0.005 0
3.24 0.005 0
3.28 0.005 0
3.32 0.005 0
3.36 0.005 0
3.4 0.005 0
3.44 0.005 0
3.48 0.005 0
3.52 0.005 0
3.56 0.005 0
3.6 0.005 0
3.64 0.005 0
3.68 0.005 0
3.72 0.005 0
3.76 0.005 0
3.8 0.005 0
3.84 0.005 0
3.88 0.005 0
3.92 0.005 0
3.96 0.005 0
4 0.005 0
4.04 0.005 0
4.08 0.005 0
4.12 0.005 0
4.16 0.005 0
4.2 0.005 0
4.24 0.005 0
4.28 0.005 0
4.32 0.005 0
4.36 0.005 0
4.4 0.005 0
4.44 0.005 0
4.48 0.005 0
4.52 0.005 0
4.56 0.005 0
4.6 0.005 0
4.64 0.005 0
4.68 0.005 0
4.72 0.005 0
4.76 0.005 0
4.8 0.005 0
4.84 0.005 0
4.88 0.005 0
4.92 0.005 0
4.96 0.005 0
5 0.005 0
5.04 0.005 0
5.08 0.005 0
5.12 0.005 0
5.16 0.005 0
5.2 0.005 0
5.24 0.005 0
5.28 0.005 0
5.32 0.005 0
5.36 0.005 0
5.4 0.005 0
5.44 0.005 0
5.48 0.005 0
5.52 0.005 0
5.56 0.005 0
5.6 0.005 0
5.64 0.005 0
5.68 0.005 0
5.72 0.005 0
5.76 0.005 0
5.8 0.005 0
5.84 0.005 0
5.88 0.005 0
5.92 0.005 0
5.96 0.005 0
6 0.005 0
6.04 0.005 0
6.08 0.005 0
6.12 0.005 0
6.16 0.005 0
6.2 0.005 0
6.24 0.005 0
6.28 0.005 0
6.32 0.005 0
6.36 0.005 0
6.4 0.005 0
6.44 0.005 0
6.48 0.005 0
6.52 0.005 0
6.56 0.005 0
6.6 0.005 0
6.64 0.005 0
6.68 0.005 0
6.72 0.005 0
6.76 0.005 0
6.8 0.005 0
6.84 0.005 0
6.88 0.005 0
6.92 0.005 0
6.96 0.005 0
7 0.005 0
7.04 0.005 0
7.08 0.005 0
7.12 0.005 0
7.16 0.005 0
7.2 0.005 0
7.24 0.005 0
7.28 0.005 0
7.32 0.005 0
7.36 0.005 0
7.4 0.005 0
[...]
POINT_DATA 160000

SCALARS p float 1
LOOKUP_TABLE default
1
76.8197
74.6043
74.3494
74.2892
74.2628
74.2468
74.2352
74.2259
74.2181
74.2111
74.2048
74.1989
74.1934
74.1881
74.1829
74.178
74.1732
74.1684
74.1638
74.1593
74.1548
74.1504
74.1461
74.1418
74.1376
74.1334
74.1293
74.1253
74.1213
74.1173
74.1134
74.1095
74.1057
74.1019
74.0981
74.0944
74.0907
74.0871
74.0835
74.0799
74.0764
74.0729
74.0695
74.066
74.0626
74.0593
74.0559
74.0526
74.0494
74.0461
74.0429
74.0397
74.0365
74.0334
74.0302
74.0271
74.0241
74.021
74.018
74.015
74.012
74.009
74.006
74.0031
74.0002
73.9973
73.9944
73.9916
73.9887
73.9859
73.9831
73.9803
73.9775
73.9748
73.972
73.9693
73.9666
73.9639
73.9612
73.9585
73.9559
73.9532
73.9506
73.948
73.9454
73.9428
73.9402
73.9377
73.9351
73.9326
73.93
73.9275
73.925
73.9225
73.92
73.9175
73.9151
73.9126
73.9102
73.9077
73.9053
73.9029
73.9005
73.8981
73.8957
73.8933
73.891
73.8886
73.8862
73.8839
73.8816
73.8792
73.8769
73.8746
73.8723
73.87
73.8677
73.8654
73.8632
73.8609
73.8587
73.8564
73.8542
73.8519
73.8497
73.8475
73.8453
73.8431
73.8409
73.8387
73.8365
73.8343
73.8321
73.83
73.8278
73.8256
73.8235
73.8213
73.8192
73.8171
73.8149
73.8128
73.8107
73.8086
73.8065
73.8044
73.8023
73.8002
73.7981
73.7961
73.794
73.7919
73.7899
73.7878
73.7857
73.7837
73.7817
73.7796
73.7776
73.7756
73.7735
73.7715
73.7695
73.7675
73.7655
73.7635
73.7615
73.7595
73.7575
73.7555
73.7535
73.7516
73.7496
73.7476
73.7457
73.7437
73.7418
73.7398
73.7379
73.7359
73.734
73.732
73.7301
73.7282
73.7262
73.7243
73.7224
73.7205
73.7186
73.7167
73.7148
73.7129
73.711
73.7091
73.7072
73.7053
73.7034
73.7015
73.6996
73.6978
73.6959
73.694
73.6922
73.6903
73.6884
73.6866
73.6847
73.6829
73.681
73.6792
73.6773
73.6755
73.6737
73.6718
73.67
73.6682
73.6663
73.6645
73.6627
73.6609
73.6591
73.6572
73.6554
73.6536
73.6518
73.65
73.6482
73.6464
73.6446
73.6428
73.641
73.6392
73.6374
73.6357
73.6339
73.6321
73.6303
73.6285
73.6268
73.625
73.6232
73.6214
73.6197
73.6179
73.6162
73.6144
73.6126
73.6109
73.6091
73.6074
73.6056
73.6039
73.6021
73.6004
73.5986
73.5969
73.5952
73.5934
73.5917
73.5899
73.5882
73.5865
73.5848
73.583
73.5813
73.5796
73.5778
73.5761
73.5744
73.5727
73.571
73.5693
73.5675
73.5658
73.5641
73.5624
73.5607
73.559
73.5573
73.5556
73.5539
73.5522
73.5505
73.5488
73.5471
73.5454
73.5437
73.542
73.5403
73.5386
73.537
73.5353
73.5336
73.5319
73.5302
73.5285
73.5268
73.5252
73.5235
73.5218
73.5201
73.5185
73.5168
73.5151
73.5134
73.5118
73.5101
73.5084
73.5068
73.5051
73.5034
73.5018
73.5001
73.4985
73.4968
73.4951
73.4935
73.4918
73.4902
73.4885
73.4869
73.4852
73.4835
73.4819
73.4802
73.4786
73.4769
73.4753
73.4737
73.472
73.4704
73.4687
73.4671
73.4654
73.4638
73.4621
73.4605
73.4589
73.4572
73.4556
73.454
73.4523
73.4507
73.4491
73.4474
73.4458
73.4442
73.4425
73.4409
73.4393
73.4376
73.436
73.4344
73.4327
73.4311
73.4295
73.4279
73.4262
73.4246
73.423
73.4214
73.4198
73.4181
73.4165
73.4149
73.4133
73.4117
73.41
73.4084
73.4068
73.4052
73.4036
73.402
73.4003
73.3987
73.3971
73.3955
73.3939
73.3923
73.3907
73.3891
73.3875
73.3858
73.3842
73.3826
73.381
73.3794
73.3778
73.3762
73.3746
73.373
73.3714
73.3698
73.3682
73.3666
73.365
73.3634
73.3618
73.3602
73.3586
73.357
73.3554
73.3538
73.3522
73.3506
73.349
73.3474
73.3458
73.3442
73.3426
73.341
73.3394
73.3378
73.3362
73.3346
73.333
73.3314
73.3298
73.3282
73.3266
73.3251
73.3235
73.3219
73.3203
73.3187
73.3171
73.3155
73.3139
73.3123
73.3107
73.3092
73.3076
73.306
73.3044
73.3028
73.3012
73.2996
73.298
73.2965
73.2949
73.2933
73.2917
73.2901
73.2885
73.2869
73.2854
73.2838
73.2822
73.2806
73.279
73.2775
73.2759
73.2743
73.2727
73.2711
73.2695
73.268
73.2664
73.2648
73.2632
73.2616
73.2601
73.2585
73.2569
73.2553
73.2538
73.2522
73.2506
73.249
73.2474
73.2459
73.2443
73.2427
73.2411
73.2396
73.238
73.2364
73.2348
73.2333
73.2317
73.2301
73.2285
73.227
73.2254
73.2238
73.2222
73.2207
73.2191
73.2175
73.2159
73.2144
73.2128
73.2112
73.2097
73.2081
73.2065
73.2049
73.2034
73.2018
73.2002
73.1987
73.1971
73.1955
73.194
73.1924
73.1908
73.1892
73.1877
73.1861
73.1845
73.183
73.1814
73.1798
73.1783
73.1767
73.1751
73.1736
73.172
73.1704
73.1689
73.1673
73.1657
73.1642
73.1626
73.161
73.1595
73.1579
73.1563
73.1548
73.1532
73.1516
73.1501
73.1485
73.1469
73.1454
73.1438
73.1422
73.1407
73.1391
73.1375
73.136
73.1344
73.1328
73.1313
73.1297
73.1282
73.1266
73.125
73.1235
73.1219
73.1203
73.1188
73.1172
73.1157
73.1141
73.1125
73.111
73.1094
73.1078
73.1063
73.1047
73.1032
73.1016
73.1
73.0985
73.0969
73.0954
73.0938
73.0922
73.0907
73.0891
73.0875
73.086
73.0844
73.0829
73.0813
73.0797
73.0782
73.0766
73.0751
73.0735
73.0719
73.0704
73.0688
73.0673
73.0657
73.0642
73.0626
73.061
73.0595
73.0579
73.0564
73.0548
73.0532
73.0517
73.0501
73.0486
73.047
73.0455
73.0439
73.0423
73.0408
73.0392
73.0377
73.0361
73.0345
73.033
73.0314
73.0299
73.0283
73.0268
73.0252
73.0236
73.0221
73.0205
73.019
73.0174
73.0159
73.0143
73.0128
73.0112
73.0096
73.0081
73.0065
73.005
73.0034
73.0019
73.0003
72.9988
72.9972
72.9956
72.9941
72.9925
72.991
72.9894
72.9879
72.9863
72.9848
72.9832
72.9816
72.9801
72.9785
72.977
72.9754
72.9739
72.9723
72.9708
72.9692
72.9677
72.9661
72.9646
72.963
72.9614
72.9599
72.9583
72.9568
72.9552
72.9537
72.9521
72.9506
72.949
72.9475
72.9459
72.9444
72.9428
72.9412
72.9397
72.9381
72.9366
72.935
72.9335
72.9319
72.9304
72.9288
72.9273
72.9257
72.9242
72.9226
72.9211
72.9195
72.918
72.9164
72.9149
72.9133
72.9118
72.9102
72.9086
72.9071
72.9055
72.904
72.9024
72.9009
72.8993
72.8978
72.8962
72.8947
72.8931
72.8916
72.89
72.8885
72.8869
72.8854
72.8838
72.8823
72.8807
72.8792
72.8776
72.8761
72.8745
72.873
72.8714
72.8699
72.8683
72.8668
72.8652
72.8637
72.8621
72.8606
72.859
72.8575
72.8559
72.8544
72.8528
72.8513
72.8497
72.8482
72.8466
72.8451
72.8435
72.842
72.8404
72.8389
72.8373
72.8358
72.8342
72.8327
72.8311
72.8296
72.828
72.8265
72.8249
72.8234
72.8218
72.8203
72.8187
72.8172
72.8156
72.8141
72.8125
72.811
72.8094
72.8079
72.8063
72.8048
72.8032
72.8017
72.8001
72.7986
72.7971
72.7955
72.794
72.7924
72.7909
72.7893
72.7878
72.7862
72.7847
72.7831
72.7816
72.78
72.7785
72.7769
72.7754
72.7738
72.7723
72.7707
72.7692
72.7676
72.7661
72.7645
72.763
72.7615
72.7599
72.7584
72.7568
72.7553
72.7537
72.7522
72.7506
72.7491
72.7475
72.746
72.7444
72.7429
72.7413
72.7398
72.7383
72.7367
1
76.8197
76.8197
74.6043
74.3494
74.2892
74.2628
74.2468
74.2352
74.2259
74.2181
74.2111
74.2048
74.1989
74.1934
74.1881
74.1829
74.178
74.1732
74.1684
74.1638
74.1593
74.1548
74.1504
74.1461
74.1418
74.1376
74.1334
74.1293
74.1253
74.1213
74.1173
74.1134
74.1095
74.1057
74.1019
74.0981
74.0944
74.0907
74.0871
74.0835
74.0799
74.0764
74.0729
74.0695
74.066
74.0626
74.0593
74.0559
74.0526
74.0494
74.0461
74.0429
74.0397
74.0365
74.0334
74.0302
74.0271
74.0241
74.021
74.018
74.015
74.012
74.009
74.006
74.0031
74.0002
73.9973
73.9944
73.9916
73.9887
73.9859
73.9831
73.9803
73.9775
73.9748
73.972
73.9693
73.9666
73.9639
73.9612
73.9585
73.9559
73.9532
73.9506
73.948
73.9454
73.9428
73.9402
73.9377
73.9351
73.9326
73.93
73.9275
73.925
73.9225
73.92
73.9175
73.9151
73.9126
73.9102
73.9077
73.9053
73.9029
73.9005
73.8981
73.8957
73.8933
73.891
73.8886
73.8862
73.8839
73.8816
73.8792
73.8769
73.8746
73.8723
73.87
73.8677
73.8654
73.8632
73.8609
73.8587
73.8564
73.8542
73.8519
73.8497
73.8475
73.8453
73.8431
73.8409
73.8387
73.8365
73.8343
73.8321
73.83
73.8278
73.8256
73.8235
73.8213
73.8192
73.8171
73.8149
73.8128
73.8107
73.8086
73.8065
73.8044
73.8023
73.8002
73.7981
73.7961
73.794
73.7919
73.7899
73.7878
73.7857
73.7837
73.7817
73.7796
73.7776
73.7756
73.7735
73.7715
73.7695
73.7675
73.7655
73.7635
73.7615
73.7595
73.7575
73.7555
73.7535
73.7516
73.7496
73.7476
73.7457
73.7437
73.7418
73.7398
73.7379
73.7359
73.734
73.732
73.7301
73.7282
73.7262
73.7243
73.7224
73.7205
73.7186
73.7167
73.7148
73.7129
73.711
73.7091
73.7072
73.7053
73.7034
73.7015
73.6996
73.6978
73.6959
73.694
73.6922
73.6903
73.6884
73.6866
73.6847
73.6829
73.681
73.6792
73.6773
73.6755
73.6737
73.6718
73.67
73.6682
73.6663
73.6645
73.6627
73.6609
73.6591
73.6572
73.6554
73.6536
73.6518
73.65
73.6482
73.6464
73.6446
73.6428
73.641
73.6392
73.6374
73.6357
73.6339
73.6321
73.6303
73.6285
73.6268
73.625
73.6232
73.6214
73.6197
73.6179
73.6162
73.6144
73.6126
73.6109
73.6091
73.6074
73.6056
73.6039
73.6021
73.6004
73.5986
73.5969
73.5952
73.5934
73.5917
73.5899
73.5882
73.5865
73.5848
73.583
73.5813
73.5796
73.5778
73.5761
73.5744
73.5727
73.571
73.5693
73.5675
73.5658
73.5641
73.5624
73.5607
73.559
73.5573
73.5556
73.5539
73.5522
73.5505
73.5488
73.5471
73.5454
73.5437
73.542
73.5403
73.5386
73.537
73.5353
73.5336
73.5319
73.5302
73.5285
73.5268
73.5252
73.5235
73.5218
73.5201
73.5185
73.5168
73.5151
73.5134
73.5118
73.5101
73.5084
73.5068
73.5051
73.5034
73.5018
73.5001
73.4985
73.4968
73.4951
73.4935
73.4918
73.4902
73.4885
73.4869
73.4852
73.4835
73.4819
73.4802
73.4786
73.4769
73.4753
73.4737
73.472
73.4704
73.4687
73.4671
73.4654
73.4638
73.4621
73.4605
73.4589
73.4572
73.4556
73.454
73.4523
73.4507
73.4491
73.4474
73.4458
73.4442
73.4425
73.4409
73.4393
73.4376
73.436
73.4344
73.4327
73.4311
73.4295
73.4279
73.4262
73.4246
73.423
73.4214
73.4198
73.4181
73.4165
73.4149
73.4133
73.4117
73.41
73.4084
73.4068
73.4052
73.4036
73.402
73.4003
73.3987
73.3971
73.3955
73.3939
73.3923
73.3907
73.3891
73.3875
73.3858
73.3842
73.3826
73.381
73.3794
73.3778
73.3762
73.3746
73.373
73.3714
73.3698
73.3682
73.3666
73.365
73.3634
73.3618
73.3602
73.3586
73.357
73.3554
73.3538
73.3522
73.3506
73.349
73.3474
73.3458
73.3442
73.3426
73.341
73.3394
73.3378
73.3362
73.3346
73.333
73.3314
73.3298
73.3282
73.3266
73.3251
73.3235
73.3219
73.3203
73.3187
73.3171
73.3155
73.3139
73.3123
73.3107
73.3092
73.3076
73.306
73.3044
73.3028
73.3012
73.2996
73.298
73.2965
73.2949
73.2933
73.2917
73.2901
73.2885
73.2869
73.2854
73.2838
73.2822
73.2806
73.279
73.2775
73.2759
73.2743
73.2727
73.2711
73.2695
73.268
73.2664
73.2648
73.2632
73.2616
73.2601
73.2585
73.2569
73.2553
73.2538
73.2522
73.2506
73.249
73.2474
73.2459
73.2443
73.2427
73.2411
73.2396
73.238
73.2364
73.2348
73.2333
73.2317
73.2301
73.2285
73.227
73.2254
73.2238
73.2222
73.2207
73.2191
73.2175
73.2159
73.2144
73.2128
73.2112
73.2097
73.2081
73.2065
73.2049
73.2034
73.2018
73.2002
73.1987
73.1971
73.1955
73.194
73.1924
73.1908
73.1892
73.1877
73.1861
73.1845
73.183
73.1814
73.1798
73.1783
73.1767
73.1751
73.1736
73.172
73.1704
73.1689
73.1673
73.1657
73.1642
73.1626
73.161
73.1595
73.1579
73.1563
73.1548
73.1532
73.1516
73.1501
73.1485
73.1469
73.1454
73.1438
73.1422
73.1407
73.1391
73.1375
73.136
73.1344
73.1328
73.1313
73.1297
73.1282
73.1266
73.125
73.1235
73.1219
73.1203
73.1188
73.1172
73.1157
73.1141
73.1125
73.111
73.1094
73.1078
73.1063
73.1047
73.1032
73.1016
73.1
73.0985
73.0969
73.0954
73.0938
73.0922
73.0907
73.0891
73.0875
73.086
73.0844
73.0829
73.0813
73.0797
73.0782
73.0766
73.0751
73.0735
73.0719
73.0704
73.0688
73.0673
73.0657
73.0642
73.0626
73.061
73.0595
73.0579
73.0564
73.0548
73.0532
73.0517
73.0501
73.0486
73.047
73.0455
73.0439
73.0423
73.0408
73.0392
73.0377
73.0361
73.0345
73.033
73.0314
73.0299
73.0283
73.0268
73.0252
73.0236
73.0221
73.0205
73.019
73.0174
73.0159
73.0143
73.0128
73.0112
73.0096
73.0081
73.0065
73.005
73.0034
73.0019
73.0003
72.9988
72.9972
72.9956
72.9941
72.9925
72.991
72.9894
72.9879
72.9863
72.9848
72.9832
72.9816
72.9801
72.9785
72.977
72.9754
72.9739
72.9723
72.9708
72.9692
72.9677
72.9661
72.9646
72.963
72.9614
72.9599
72.9583
72.9568
72.9552
72.9537
72.9521
72.9506
72.949
72.9475
72.9459
72.9444
72.9428
72.9412
72.9397
72.9381
72.9366
72.935
72.9335
72.9319
72.9304
72.9288
72.9273
72.9257
72.9242
72.9226
72.9211
72.9195
72.918
72.9164
72.9149
72.9133
72.9118
72.9102
72.9086
72.9071
72.9055
72.904
72.9024
72.9009
72.8993
72.8978
72.8962
72.8947
72.8931
72.8916
72.89
72.8885
72.8869
72.8854
72.8838
72.8823
72.8807
72.8792
72.8776
72.8761
72.8745
72.873
72.8714
72.8699
72.8683
72.8668
72.8652
72.8637
72.8621
72.8606
72.859
72.8575
72.8559
72.8544
72.8528
72.8513
72.8497
72.8482
72.8466
72.8451
72.8435
72.842
72.8404
72.8389
72.8373
72.8358
72.8342
72.8327
72.8311
72.8296
72.828
72.8265
72.8249
72.8234
72.8218
72.8203
72.8187
72.8172
72.8156
72.8141
72.8125
72.811
72.8094
72.8079
72.8063
72.8048
72.8032
72.8017
72.8001
72.7986
72.7971
72.7955
72.794
72.7924
72.7909
72.7893
72.7878
72.7862
72.7847
72.7831
72.7816
72.78
72.7785
72.7769
72.7754
72.7738
72.7723
72.7707
72.7692
72.7676
72.7661
72.7645
72.763
72.7615
72.7599
72.7584
72.7568
72.7553
72.7537
72.7522
72.7506
72.7491
72.7475
72.746
72.7444
72.7429
72.7413
72.7398
72.7383
72.7367
72.7367
76.1727
76.1727
74.6147
74.3589
74.2934
74.265
74.2482
74.2362
74.2267
74.2186
74.2116
74.2052
74.1992
74.1936
74.1883
74.1831
74.1782
74.1733
74.1686
74.1639
74.1594
74.1549
74.1505
74.1462
74.1419
74.1377
74.1335
74.1294
74.1253
74.1213
74.1173
74.1134
74.1095
74.1057
74.1019
74.0982
74.0945
74.0908
74.0871
74.0835
74.08
74.0765
74.073
74.0695
74.0661
74.0627
74.0593
74.056
74.0527
74.0494
74.0461
74.0429
74.0397
74.0365
74.0334
74.0303
74.0272
74.0241
74.021
74.018
74.015
74.012
74.009
74.0061
74.0031
74.0002
73.9973
73.9944
73.9916
73.9887
73.9859
73.9831
73.9803
73.9775
73.9748
73.972
73.9693
73.9666
73.9639
73.9612
73.9586
73.9559
73.9533
73.9506
73.948
73.9454
73.9428
73.9402
73.9377
73.9351
73.9326
73.93
73.9275
73.925
73.9225
73.92
73.9176
73.9151
73.9126
73.9102
73.9077
73.9053
73.9029
73.9005
73.8981
73.8957
73.8933
73.891
73.8886
73.8863
73.8839
73.8816
73.8792
73.8769
73.8746
73.8723
73.87
73.8677
73.8655
73.8632
73.8609
73.8587
73.8564
73.8542
73.8519
73.8497
73.8475
73.8453
73.8431
73.8409
73.8387
73.8365
73.8343
73.8321
73.83
73.8278
73.8256
73.8235
73.8213
73.8192
73.8171
73.815
73.8128
73.8107
73.8086
73.8065
73.8044
73.8023
73.8002
73.7981
73.7961
73.794
73.7919
73.7899
73.7878
73.7858
73.7837
73.7817
73.7796
73.7776
73.7756
73.7735
73.7715
73.7695
73.7675
73.7655
73.7635
73.7615
73.7595
73.7575
73.7555
73.7536
73.7516
73.7496
73.7476
73.7457
73.7437
73.7418
73.7398
73.7379
73.7359
73.734
73.732
73.7301
73.7282
73.7263
73.7243
73.7224
73.7205
73.7186
73.7167
73.7148
73.7129
73.711
73.7091
73.7072
73.7053
73.7034
73.7015
73.6997
73.6978
73.6959
73.694
73.6922
73.6903
73.6884
73.6866
73.6847
73.6829
73.681
73.6792
73.6773
73.6755
73.6737
73.6718
73.67
73.6682
73.6663
73.6645
73.6627
73.6609
73.6591
73.6572
73.6554
73.6536
73.6518
73.65
73.6482
73.6464
73.6446
73.6428
73.641
73.6392
73.6374
73.6357
73.6339
73.6321
73.6303
73.6285
73.6268
73.625
73.6232
73.6215
73.6197
73.6179
73.6162
73.6144
73.6126
73.6109
73.6091
73.6074
73.6056
73.6039
73.6021
73.6004
73.5986
73.5969
73.5952
73.5934
73.5917
73.5899
73.5882
73.5865
73.5848
73.583
73.5813
73.5796
73.5779
73.5761
73.5744
73.5727
73.571
73.5693
73.5676
73.5658
73.5641
73.5624
73.5607
73.559
73.5573
73.5556
73.5539
73.5522
73.5505
73.5488
73.5471
73.5454
73.5437
73.542
73.5403
73.5386
73.537
73.5353
73.5336
73.5319
73.5302
73.5285
73.5269
73.5252
73.5235
73.5218
73.5201
73.5185
73.5168
73.5151
73.5135
73.5118
73.5101
73.5084
73.5068
73.5051
73.5034
73.5018
73.5001
73.4985
73.4968
73.4951
73.4935
73.4918
73.4902
73.4885
73.4869
73.4852
73.4836
73.4819
73.4803
73.4786
73.477
73.4753
73.4737
73.472
73.4704
73.4687
73.4671
73.4654
73.4638
73.4622
73.4605
73.4589
73.4572
73.4556
73.454
73.4523
73.4507
73.4491
73.4474
73.4458
73.4442
73.4425
73.4409
73.4393
73.4376
73.436
73.4344
73.4328
73.4311
73.4295
73.4279
73.4263
73.4246
73.423
73.4214
73.4198
73.4181
73.4165
73.4149
73.4133
73.4117
73.41
73.4084
73.4068
73.4052
73.4036
73.402
73.4003
73.3987
73.3971
73.3955
73.3939
73.3923
73.3907
73.3891
73.3875
73.3858
73.3842
73.3826
73.381
73.3794
73.3778
73.3762
73.3746
73.373
73.3714
73.3698
73.3682
73.3666
73.365
73.3634
73.3618
73.3602
73.3586
73.357
73.3554
73.3538
73.3522
73.3506
73.349
73.3474
73.3458
73.3442
73.3426
73.341
73.3394
73.3378
73.3362
73.3346
73.333
73.3314
73.3298
73.3282
73.3266
73.3251
73.3235
73.3219
73.3203
73.3187
73.3171
73.3155
73.3139
73.3123
73.3107
73.3092
73.3076
73.306
73.3044
73.3028
73.3012
73.2996
73.298
73.2965
73.2949
73.2933
73.2917
73.2901
73.2885
73.287
73.2854
73.2838
73.2822
73.2806
73.279
73.2775
73.2759
73.2743
73.2727
73.2711
73.2695
73.268
73.2664
73.2648
73.2632
73.2616
73.2601
73.2585
73.2569
73.2553
73.2538
73.2522
73.2506
73.249
73.2474
73.2459
73.2443
73.2427
73.2411
73.2396
73.238
73.2364
73.2348
73.2333
73.2317
73.2301
73.2285
73.227
73.2254
73.2238
73.2222
73.2207
73.2191
73.2175
73.216
73.2144
73.2128
73.2112
73.2097
73.2081
73.2065
73.2049
73.2034
73.2018
73.2002
73.1987
73.1971
73.1955
73.194
73.1924
73.1908
73.1892
73.1877
73.1861
73.1845
73.183
73.1814
73.1798
73.1783
73.1767
73.1751
73.1736
73.172
73.1704
73.1689
73.1673
73.1657
73.1642
73.1626
73.161
73.1595
73.1579
73.1563
73.1548
73.1532
73.1516
73.1501
73.1485
73.1469
73.1454
73.1438
73.1422
73.1407
73.1391
73.1375
73.136
73.1344
73.1329
73.1313
73.1297
73.1282
73.1266
73.125
73.1235
73.1219
73.1203
73.1188
73.1172
73.1157
73.1141
73.1125
73.111
73.1094
73.1078
73.1063
73.1047
73.1032
73.1016
73.1
73.0985
73.0969
73.0954
73.0938
73.0922
73.0907
73.0891
73.0876
73.086
73.0844
73.0829
73.0813
73.0798
73.0782
73.0766
73.0751
73.0735
73.072
73.0704
73.0688
73.0673
73.0657
73.0642
73.0626
73.061
73.0595
73.0579
73.0564
73.0548
73.0532
73.0517
73.0501
73.0486
73.047
73.0455
73.0439
73.0423
73.0408
73.0392
73.0377
73.0361
73.0346
73.033
73.0314
73.0299
73.0283
73.0268
73.0252
73.0237
73.0221
73.0205
73.019
73.0174
73.0159
73.0143
73.0128
73.0112
73.0096
73.0081
73.0065
73.005
73.0034
73.0019
73.0003
72.9988
72.9972
72.9956
72.9941
72.9925
72.991
72.9894
72.9879
72.9863
72.9848
72.9832
72.9817
72.9801
72.9785
72.977
72.9754
72.9739
72.9723
72.9708
72.9692
72.9677
72.9661
72.9646
72.963
72.9614
72.9599
72.9583
72.9568
72.9552
72.9537
72.9521
72.9506
72.949
72.9475
72.9459
72.9444
72.9428
72.9413
72.9397
72.9381
72.9366
72.935
72.9335
72.9319
72.9304
72.9288
72.9273
72.9257
72.9242
72.9226
72.9211
72.9195
72.918
72.9164
72.9149
72.9133
72.9118
72.9102
72.9087
72.9071
72.9055
72.904
72.9024
72.9009
72.8993
72.8978
72.8962
72.8947
72.8931
72.8916
72.89
72.8885
72.8869
72.8854
72.8838
72.8823
72.8807
72.8792
72.8776
72.8761
72.8745
72.873
72.8714
72.8699
72.8683
72.8668
72.8652
72.8637
72.8621
72.8606
72.859
72.8575
72.8559
72.8544
72.8528
72.8513
72.8497
72.8482
72.8466
72.8451
72.8435
72.842
72.8404
72.8389
72.8373
72.8358
72.8342
72.8327
72.8311
72.8296
72.828
72.8265
72.8249
72.8234
72.8218
72.8203
72.8187
72.8172
72.8156
72.8141
72.8125
72.811
72.8094
72.8079
72.8063
72.8048
72.8032
72.8017
72.8002
72.7986
72.7971
72.7955
72.794
72.7924
72.7909
72.7893
72.7878
72.7862
72.7847
72.7831
72.7816
72.78
72.7785
72.7769
72.7754
72.7738
72.7723
72.7707
72.7692
72.7676
72.7661
72.7646
72.763
72.7615
72.7599
72.7584
72.7568
72.7553
72.7537
72.7522
72.7506
72.7491
72.7475
72.746
72.7444
72.7429
72.7413
72.7398
72.7383
72.7367
72.7367
75.4832
75.4832
74.5988
74.3656
74.297
74.2671
74.2495
74.2371
74.2273
74.2192
74.212
74.2055
74.1995
74.1939
74.1885
74.1833
74.1783
74.1735
74.1687
74.1641
74.1595
74.155
74.1506
74.1463
74.142
74.1377
74.1336
74.1294
74.1254
74.1214
74.1174
74.1135
74.1096
74.1057
74.102
74.0982
74.0945
74.0908
74.0872
74.0836
74.08
74.0765
74.073
74.0695
74.0661
74.0627
74.0593
74.056
74.0527
74.0494
74.0461
74.0429
74.0397
74.0365
74.0334
74.0303
74.0272
74.0241
74.021
74.018
74.015
74.012
74.009
74.0061
74.0031
74.0002
73.9973
73.9945
73.9916
73.9888
73.9859
73.9831
73.9803
73.9776
73.9748
73.9721
73.9693
73.9666
73.9639
73.9612
73.9586
73.9559
73.9533
73.9506
73.948
73.9454
73.9428
73.9402
73.9377
73.9351
73.9326
73.93
73.9275
73.925
73.9225
73.92
73.9176
73.9151
73.9126
73.9102
73.9078
73.9053
73.9029
73.9005
73.8981
73.8957
73.8933
73.891
73.8886
73.8863
73.8839
73.8816
73.8793
73.8769
73.8746
73.8723
73.87
73.8677
73.8655
73.8632
73.8609
73.8587
73.8564
73.8542
73.8519
73.8497
73.8475
73.8453
73.8431
73.8409
73.8387
73.8365