# vtk DataFile Version 2.0
FlowField
ASCII
DATASET STRUCTURED_GRID
DIMENSIONS 800 1 200
POINTS 160000 float
0 0 0
0.04 0 0
0.08 0 0
0.12 0 0
0.16 0 0
0.2 0 0
0.24 0 0
0.28 0 0
0.32 0 0
0.36 0 0
0.4 0 0
0.44 0 0
0.48 0 0
0.52 0 0
0.56 0 0
0.6 0 0
0.64 0 0
0.68 0 0
0.72 0 0
0.76 0 0
0.8 0 0
0.84 0 0
0.88 0 0
0.92 0 0
0.96 0 0
1 0 0
1.04 0 0
1.08 0 0
1.12 0 0
1.16 0 0
1.2 0 0
1.24 0 0
1.28 0 0
1.32 0 0
1.36 0 0
1.4 0 0
1.44 0 0
1.48 0 0
1.52 0 0
1.56 0 0
1.6 0 0
1.64 0 0
1.68 0 0
1.72 0 0
1.76 0 0
1.8 0 0
1.84 0 0
1.88 0 0
1.92 0 0
1.96 0 0
2 0 0
2.04 0 0
2.08 0 0
2.12 0 0
2.16 0 0
2.2 0 0
2.24 0 0
2.28 0 0
2.32 0 0
2.36 0 0
2.4 0 0
2.44 0 0
2.48 0 0
2.52 0 0
2.56 0 0
2.6 0 0
2.64 0 0
2.68 0 0
2.72 0 0
2.76 0 0
2.8 0 0
2.84 0 0
2.88 0 0
2.92 0 0
2.96 0 0
3 0 0
3.04 0 0
3.08 0 0
3.12 0 0
3.16 0 0
3.2 0 0
3.24 0 0
3.28 0 0
3.32 0 0
3.36 0 0
3.4 0 0
3.44 0 0
3.48 0 0
3.52 0 0
3.56 0 0
3.6 0 0
3.64 0 0
3.68 0 0
3.72 0 0
3.76 0 0
3.8 0 0
3.84 0 0
3.88 0 0
3.92 0 0
3.96 0 0
4 0 0
4.04 0 0
4.08 0 0
4.12 0 0
4.16 0 0
4.2 0 0
4.24 0 0
4.28 0 0
4.32 0 0
4.36 0 0
4.4 0 0
4.44 0 0
4.48 0 0
4.52 0 0
4.56 0 0
4.6 0 0
4.64 0 0
4.68 0 0
4.72 0 0
4.76 0 0
4.8 0 0
4.84 0 0
4.88 0 0
4.92 0 0
4.96 0 0
5 0 0
5.04 0 0
5.08 0 0
5.12 0 0
5.16 0 0
5.2 0 0
5.24 0 0
5.28 0 0
5.32 0 0
5.36 0 0
5.4 0 0
5.44 0 0
5.48 0 0
5.52 0 0
5.56 0 0
5.6 0 0
5.64 0 0
5.68 0 0
5.72 0 0
5.76 0 0
5.8 0 0
5.84 0 0
5.88 0 0
5.92 0 0
5.96 0 0
6 0 0
6.04 0 0
6.08 0 0
6.12 0 0
6.16 0 0
6.2 0 0
6.24 0 0
6.28 0 0
6.32 0 0
6.36 0 0
6.4 0 0
6.44 0 0
6.48 0 0
6.52 0 0
6.56 0 0
6.6 0 0
6.64 0 0
6.68 0 0
6.72 0 0
6.76 0 0
6.8 0 0
6.84 0 0
6.88 0 0
6.92 0 0
6.96 0 0
7 0 0
7.04 0 0
7.08 0 0
7.12 0 0
7.16 0 0
7.2 0 0
7.24 0 0
7.28 0 0
7.32 0 0
7.36 0 0
7.4 0 0
7.44 0 0
7.48 0 0
7.52 0 0
7.56 0 0
7.6 0 0
7.64 0 0
7.68 0 0
7.72 0 0
7.76 0 0
7.8 0 0
7.84 0 0
7.88 0 0
7.92 0 0
7.96 0 0
8 0 0
8.04 0 0
8.08 0 0
8.12 0 0
8.16 0 0
8.2 0 0
8.24 0 0
8.28 0 0
8.32 0 0
8.36 0 0
8.4 0 0
8.44 0 0
8.48 0 0
8.52 0 0
8.56 0 0
8.6 0 0
8.64 0 0
8.68 0 0
8.72 0 0
8.76 0 0
8.8 0 0
8.84 0 0
8.88 0 0
8.92 0 0
8.96 0 0
9 0 0
9.04 0 0
9.08 0 0
9.12 0 0
9.16 0 0
9.2 0 0
9.24 0 0
9.28 0 0
9.32 0 0
9.36 0 0
9.4 0 0
9.44 0 0
9.48 0 0
9.52 0 0
9.56 0 0
9.6 0 0
9.64 0 0
9.68 0 0
9.72 0 0
9.76 0 0
9.8 0 0
9.84 0 0
9.88 0 0
9.92 0 0
9.96 0 0
10 0 0
10.04 0 0
10.08 0 0
10.12 0 0
10.16 0 0
10.2 0 0
10.24 0 0
10.28 0 0
10.32 0 0
10.36 0 0
10.4 0 0
10.44 0 0
10.48 0 0
10.52 0 0
10.56 0 0
10.6 0 0
10.64 0 0
10.68 0 0
10.72 0 0
10.76 0 0
10.8 0 0
10.84 0 0
10.88 0 0
10.92 0 0
10.96 0 0
11 0 0
11.04 0 0
11.08 0 0
11.12 0 0
11.16 0 0
11.2 0 0
11.24 0 0
11.28 0 0
11.32 0 0
11.36 0 0
11.4 0 0
11.44 0 0
11.48 0 0
11.52 0 0
11.56 0 0
11.6 0 0
11.64 0 0
11.68 0 0
11.72 0 0
11.76 0 0
11.8 0 0
11.84 0 0
11.88 0 0
11.92 0 0
11.96 0 0
12 0 0
12.04 0 0
12.08 0 0
12.12 0 0
12.16 0 0
12.2 0 0
12.24 0 0
12.28 0 0
12.32 0 0
12.36 0 0
12.4 0 0
12.44 0 0
12.48 0 0
12.52 0 0
12.56 0 0
12.6 0 0
12.64 0 0
12.68 0 0
12.72 0 0
12.76 0 0
12.8 0 0
12.84 0 0
12.88 0 0
12.92 0 0
12.96 0 0
13 0 0
13.04 0 0
13.08 0 0
13.12 0 0
13.16 0 0
13.2 0 0
13.24 0 0
13.28 0 0
13.32 0 0
13.36 0 0
13.4 0 0
13.44 0 0
13.48 0 0
13.52 0 0
13.56 0 0
13.6 0 0
13.64 0 0
13.68 0 0
13.72 0 0
13.76 0 0
13.8 0 0
13.84 0 0
13.88 0 0
13.92 0 0
13.96 0 0
14 0 0
14.04 0 0
14.08 0 0
14.12 0 0
14.16 0 0
14.2 0 0
14.24 0 0
14.28 0 0
14.32 0 0
14.36 0 0
14.4 0 0
14.44 0 0
14.48 0 0
14.52 0 0
14.56 0 0
14.6 0 0
14.64 0 0
14.68 0 0
14.72 0 0
14.76 0 0
14.8 0 0
14.84 0 0
14.88 0 0
14.92 0 0
14.96 0 0
15 0 0
15.04 0 0
15.08 0 0
15.12 0 0
15.16 0 0
15.2 0 0
15.24 0 0
15.28 0 0
15.32 0 0
15.36 0 0
15.4 0 0
15.44 0 0
15.48 0 0
15.52 0 0
15.56 0 0
15.6 0 0
15.64 0 0
15.68 0 0
15.72 0 0
15.76 0 0
15.8 0 0
15.84 0 0
15.88 0 0
15.92 0 0
15.96 0 0
16 0 0
16.04 0 0
16.08 0 0
16.12 0 0
16.16 0 0
16.2 0 0
16.24 0 0
16.28 0 0
16.32 0 0
16.36 0 0
16.4 0 0
16.44 0 0
16.48 0 0
16.52 0 0
16.56 0 0
16.6 0 0
16.64 0 0
16.68 0 0
16.72 0 0
16.76 0 0
16.8 0 0
16.84 0 0
16.88 0 0
16.92 0 0
16.96 0 0
17 0 0
17.04 0 0
17.08 0 0
17.12 0 0
17.16 0 0
17.2 0 0
17.24 0 0
17.28 0 0
17.32 0 0
17.36 0 0
17.4 0 0
17.44 0 0
17.48 0 0
17.52 0 0
17.56 0 0
17.6 0 0
17.64 0 0
17.68 0 0
17.72 0 0
17.76 0 0
17.8 0 0
17.84 0 0
17.88 0 0
17.92 0 0
17.96 0 0
18 0 0
18.04 0 0
18.08 0 0
18.12 0 0
18.16 0 0
18.2 0 0
18.24 0 0
18.28 0 0
18.32 0 0
18.36 0 0
18.4 0 0
18.44 0 0
18.48 0 0
18.52 0 0
18.56 0 0
18.6 0 0
18.64 0 0
18.68 0 0
18.72 0 0
18.76 0 0
18.8 0 0
18.84 0 0
18.88 0 0
18.92 0 0
18.96 0 0
19 0 0
19.04 0 0
19.08 0 0
19.12 0 0
19.16 0 0
19.2 0 0
19.24 0 0
19.28 0 0
19.32 0 0
19.36 0 0
19.4 0 0
19.44 0 0
19.48 0 0
19.52 0 0
19.56 0 0
19.6 0 0
19.64 0 0
19.68 0 0
19.72 0 0
19.76 0 0
19.8 0 0
19.84 0 0
19.88 0 0
19.92 0 0
19.96 0 0
20 0 0
20.04 0 0
20.08 0 0
20.12 0 0
20.16 0 0
20.2 0 0
20.24 0 0
20.28 0 0
20.32 0 0
20.36 0 0
20.4 0 0
20.44 0 0
20.48 0 0
20.52 0 0
20.56 0 0
20.6 0 0
20.64 0 0
20.68 0 0
20.72 0 0
20.76 0 0
20.8 0 0
20.84 0 0
20.88 0 0
20.92 0 0
20.96 0 0
21 0 0
21.04 0 0
21.08 0 0
21.12 0 0
21.16 0 0
21.2 0 0
21.24 0 0
21.28 0 0
21.32 0 0
21.36 0 0
21.4 0 0
21.44 0 0
21.48 0 0
21.52 0 0
21.56 0 0
21.6 0 0
21.64 0 0
21.68 0 0
21.72 0 0
21.76 0 0
21.8 0 0
21.84 0 0
21.88 0 0
21.92 0 0
21.96 0 0
22 0 0
22.04 0 0
22.08 0 0
22.12 0 0
22.16 0 0
22.2 0 0
22.24 0 0
22.28 0 0
22.32 0 0
22.36 0 0
22.4 0 0
22.44 0 0
22.48 0 0
22.52 0 0
22.56 0 0
22.6 0 0
22.64 0 0
22.68 0 0
22.72 0 0
22.76 0 0
22.8 0 0
22.84 0 0
22.88 0 0
22.92 0 0
22.96 0 0
23 0 0
23.04 0 0
23.08 0 0
23.12 0 0
23.16 0 0
23.2 0 0
23.24 0 0
23.28 0 0
23.32 0 0
23.36 0 0
23.4 0 0
23.44 0 0
23.48 0 0
23.52 0 0
23.56 0 0
23.6 0 0
23.64 0 0
23.68 0 0
23.72 0 0
23.76 0 0
23.8 0 0
23.84 0 0
23.88 0 0
23.92 0 0
23.96 0 0
24 0 0
24.04 0 0
24.08 0 0
24.12 0 0
24.16 0 0
24.2 0 0
24.24 0 0
24.28 0 0
24.32 0 0
24.36 0 0
24.4 0 0
24.44 0 0
24.48 0 0
24.52 0 0
24.56 0 0
24.6 0 0
24.64 0 0
24.68 0 0
24.72 0 0
24.76 0 0
24.8 0 0
24.84 0 0
24.88 0 0
24.92 0 0
24.96 0 0
25 0 0
25.04 0 0
25.08 0 0
25.12 0 0
25.16 0 0
25.2 0 0
25.24 0 0
25.28 0 0
25.32 0 0
25.36 0 0
25.4 0 0
25.44 0 0
25.48 0 0
25.52 0 0
25.56 0 0
25.6 0 0
25.64 0 0
25.68 0 0
25.72 0 0
25.76 0 0
25.8 0 0
25.84 0 0
25.88 0 0
25.92 0 0
25.96 0 0
26 0 0
26.04 0 0
26.08 0 0
26.12 0 0
26.16 0 0
26.2 0 0
26.24 0 0
26.28 0 0
26.32 0 0
26.36 0 0
26.4 0 0
26.44 0 0
26.48 0 0
26.52 0 0
26.56 0 0
26.6 0 0
26.64 0 0
26.68 0 0
26.72 0 0
26.76 0 0
26.8 0 0
26.84 0 0
26.88 0 0
26.92 0 0
26.96 0 0
27 0 0
27.04 0 0
27.08 0 0
27.12 0 0
27.16 0 0
27.2 0 0
27.24 0 0
27.28 0 0
27.32 0 0
27.36 0 0
27.4 0 0
27.44 0 0
27.48 0 0
27.52 0 0
27.56 0 0
27.6 0 0
27.64 0 0
27.68 0 0
27.72 0 0
27.76 0 0
27.8 0 0
27.84 0 0
27.88 0 0
27.92 0 0
27.96 0 0
28 0 0
28.04 0 0
28.08 0 0
28.12 0 0
28.16 0 0
28.2 0 0
28.24 0 0
28.28 0 0
28.32 0 0
28.36 0 0
28.4 0 0
28.44 0 0
28.48 0 0
28.52 0 0
28.56 0 0
28.6 0 0
28.64 0 0
28.68 0 0
28.72 0 0
28.76 0 0
28.8 0 0
28.84 0 0
28.88 0 0
28.92 0 0
28.96 0 0
29 0 0
29.04 0 0
29.08 0 0
29.12 0 0
29.16 0 0
29.2 0 0
29.24 0 0
29.28 0 0
29.32 0 0
29.36 0 0
29.4 0 0
29.44 0 0
29.48 0 0
29.52 0 0
29.56 0 0
29.6 0 0
29.64 0 0
29.68 0 0
29.72 0 0
29.76 0 0
29.8 0 0
29.84 0 0
29.88 0 0
29.92 0 0
29.96 0 0
30 0 0
30.04 0 0
30.08 0 0
30.12 0 0
30.16 0 0
30.2 0 0
30.24 0 0
30.28 0 0
30.32 0 0
30.36 0 0
30.4 0 0
30.44 0 0
30.48 0 0
30.52 0 0
30.56 0 0
30.6 0 0
30.64 0 0
30.68 0 0
30.72 0 0
30.76 0 0
30.8 0 0
30.84 0 0
30.88 0 0
30.92 0 0
30.96 0 0
31 0 0
31.04 0 0
31.08 0 0
31.12 0 0
31.16 0 0
31.2 0 0
31.24 0 0
31.28 0 0
31.32 0 0
31.36 0 0
31.4 0 0
31.44 0 0
31.48 0 0
31.52 0 0
31.56 0 0
31.6 0 0
31.64 0 0
31.68 0 0
31.72 0 0
31.76 0 0
31.8 0 0
31.84 0 0
31.88 0 0
31.92 0 0
31.96 0 0
0 0.005 0
0.04 0.005 0
0.08 0.005 0
0.12 0.005 0
0.16 0.005 0
0.2 0.005 0
0.24 0.005 0
0.28 0.005 0
0.32 0.005 0
0.36 0.005 0
0.4 0.005 0
0.44 0.005 0
0.48 0.005 0
0.52 0.005 0
0.56 0.005 0
0.6 0.005 0
0.64 0.005 0
0.68 0.005 0
0.72 0.005 0
0.76 0.005 0
0.8 0.005 0
0.84 0.005 0
0.88 0.005 0
0.92 0.005 0
0.96 0.005 0
1 0.005 0
1.04 0.005 0
1.08 0.005 0
1.12 0.005 0
1.16 0.005 0
1.2 0.005 0
1.24 0.005 0
1.28 0.005 0
1.32 0.005 0
1.36 0.005 0
1.4 0.005 0
1.44 0.005 0
1.48 0.005 0
1.52 0.005 0
1.56 0.005 0
1.6 0.005 0
1.64 0.005 0
1.68 0.005 0
1.72 0.005 0
1.76 0.005 0
1.8 0.005 0
1.84 0.005 0
1.88 0.005 0
1.92 0.005 0
1.96 0.005 0
2 0.005 0
2.04 0.005 0
2.08 0.005 0
2.12 0.005 0
2.16 0.005 0
2.2 0.005 0
2.24 0.005 0
2.28 0.005 0
2.32 0.005 0
2.36 0.005 0
2.4 0.005 0
2.44 0.005 0
2.48 0.005 0
2.52 0.005 0
2.56 0.005 0
2.6 0.005 0
2.64 0.005 0
2.68 0.005 0
2.72 0.005 0
2.76 0.005 0
2.8 0.005 0
2.84 0.005 0
2.88 0.005 0
2.92 0.005 0
2.96 0.005 0
3 0.005 0
3.04 0.005 0
3.08 0.005 0
3.12 0.005 0
3.16 0.005 0
3.2 0.005 0
3.24 0.005 0
3.28 0.005 0
3.32 0.005 0
3.36 0.005 0
3.4 0.005 0
3.44 0.005 0
3.48 0.005 0
3.52 0.005 0
3.56 0.005 0
3.6 0.005 0
3.64 0.005 0
3.68 0.005 0
3.72 0.005 0
3.76 0.005 0
3.8 0.005 0
3.84 0.005 0
3.88 0.005 0
3.92 0.005 0
3.96 0.005 0
4 0.005 0
4.04 0.005 0
4.08 0.005 0
4.12 0.005 0
4.16 0.005 0
4.2 0.005 0
4.24 0.005 0
4.28 0.005 0
4.32 0.005 0
4.36 0.005 0
4.4 0.005 0
4.44 0.005 0
4.48 0.005 0
4.52 0.005 0
4.56 0.005 0
4.6 0.005 0
4.64 0.005 0
4.68 0.005 0
4.72 0.005 0
4.76 0.005 0
4.8 0.005 0
4.84 0.005 0
4.88 0.005 0
4.92 0.005 0
4.96 0.005 0
5 0.005 0
5.04 0.005 0
5.08 0.005 0
5.12 0.005 0
5.16 0.005 0
5.2 0.005 0
5.24 0.005 0
5.28 0.005 0
5.32 0.005 0
5.36 0.005 0
5.4 0.005 0
5.44 0.005 0
5.48 0.005 0
5.52 0.005 0
5.56 0.005 0
5.6 0.005 0
5.64 0.005 0
5.68 0.005 0
5.72 0.005 0
5.76 0.005 0
5.8 0.005 0
5.84 0.005 0
5.88 0.005 0
5.92 0.005 0
5.96 0.005 0
6 0.005 0
6.04 0.005 0
6.08 0.005 0
6.12 0.005 0
6.16 0.005 0
6.2 0.005 0
6.24 0.005 0
6.28 0.005 0
6.32 0.005 0
6.36 0.005 0
6.4 0.005 0
6.44 0.005 0
6.48 0.005 0
6.52 0.005 0
6.56 0.005 0
6.6 0.005 0
6.64 0.005 0
6.68 0.005 0
6.72 0.005 0
6.76 0.005 0
6.8 0.005 0
6.84 0.005 0
6.88 0.005 0
6.92 0.005 0
6.96 0.005 0
7 0.005 0
7.04 0.005 0
7.08 0.005 0
7.12 0.005 0
7.16 0.005 0
7.2 0.005 0
7.24 0.005 0
7.28 0.005 0
7.32 0.005 0
7.36 0.005 0
7.4 0.005 0
[...]
POINT_DATA 160000

SCALARS p float 1
LOOKUP_TABLE default
1
73.9181
71.7026
71.4478
71.3876
71.3612
71.3452
71.3336
71.3243
71.3165
71.3095
71.3032
71.2973
71.2917
71.2864
71.2813
71.2764
71.2715
71.2668
71.2622
71.2577
71.2532
71.2488
71.2445
71.2402
71.236
71.2318
71.2277
71.2236
71.2196
71.2157
71.2118
71.2079
71.204
71.2003
71.1965
71.1928
71.1891
71.1855
71.1819
71.1783
71.1748
71.1713
71.1678
71.1644
71.161
71.1577
71.1543
71.151
71.1477
71.1445
71.1413
71.1381
71.1349
71.1317
71.1286
71.1255
71.1224
71.1194
71.1163
71.1133
71.1103
71.1074
71.1044
71.1015
71.0986
71.0957
71.0928
71.0899
71.0871
71.0843
71.0815
71.0787
71.0759
71.0732
71.0704
71.0677
71.065
71.0623
71.0596
71.0569
71.0543
71.0516
71.049
71.0464
71.0438
71.0412
71.0386
71.036
71.0335
71.0309
71.0284
71.0259
71.0234
71.0209
71.0184
71.0159
71.0135
71.011
71.0086
71.0061
71.0037
71.0013
70.9989
70.9965
70.9941
70.9917
70.9893
70.987
70.9846
70.9823
70.9799
70.9776
70.9753
70.973
70.9707
70.9684
70.9661
70.9638
70.9616
70.9593
70.957
70.9548
70.9525
70.9503
70.9481
70.9459
70.9436
70.9414
70.9392
70.937
70.9349
70.9327
70.9305
70.9283
70.9262
70.924
70.9219
70.9197
70.9176
70.9155
70.9133
70.9112
70.9091
70.907
70.9049
70.9028
70.9007
70.8986
70.8965
70.8944
70.8924
70.8903
70.8882
70.8862
70.8841
70.8821
70.88
70.878
70.876
70.8739
70.8719
70.8699
70.8679
70.8659
70.8639
70.8619
70.8599
70.8579
70.8559
70.8539
70.8519
70.85
70.848
70.846
70.8441
70.8421
70.8401
70.8382
70.8362
70.8343
70.8324
70.8304
70.8285
70.8266
70.8246
70.8227
70.8208
70.8189
70.817
70.8151
70.8131
70.8112
70.8094
70.8075
70.8056
70.8037
70.8018
70.7999
70.798
70.7962
70.7943
70.7924
70.7905
70.7887
70.7868
70.785
70.7831
70.7813
70.7794
70.7776
70.7757
70.7739
70.772
70.7702
70.7684
70.7665
70.7647
70.7629
70.7611
70.7593
70.7574
70.7556
70.7538
70.752
70.7502
70.7484
70.7466
70.7448
70.743
70.7412
70.7394
70.7376
70.7358
70.734
70.7323
70.7305
70.7287
70.7269
70.7251
70.7234
70.7216
70.7198
70.7181
70.7163
70.7145
70.7128
70.711
70.7093
70.7075
70.7058
70.704
70.7023
70.7005
70.6988
70.697
70.6953
70.6935
70.6918
70.6901
70.6883
70.6866
70.6849
70.6831
70.6814
70.6797
70.678
70.6762
70.6745
70.6728
70.6711
70.6694
70.6676
70.6659
70.6642
70.6625
70.6608
70.6591
70.6574
70.6557
70.654
70.6523
70.6506
70.6489
70.6472
70.6455
70.6438
70.6421
70.6404
70.6387
70.637
70.6353
70.6336
70.632
70.6303
70.6286
70.6269
70.6252
70.6236
70.6219
70.6202
70.6185
70.6168
70.6152
70.6135
70.6118
70.6102
70.6085
70.6068
70.6052
70.6035
70.6018
70.6002
70.5985
70.5968
70.5952
70.5935
70.5919
70.5902
70.5885
70.5869
70.5852
70.5836
70.5819
70.5803
70.5786
70.577
70.5753
70.5737
70.572
70.5704
70.5687
70.5671
70.5655
70.5638
70.5622
70.5605
70.5589
70.5573
70.5556
70.554
70.5523
70.5507
70.5491
70.5474
70.5458
70.5442
70.5425
70.5409
70.5393
70.5376
70.536
70.5344
70.5328
70.5311
70.5295
70.5279
70.5263
70.5246
70.523
70.5214
70.5198
70.5181
70.5165
70.5149
70.5133
70.5117
70.51
70.5084
70.5068
70.5052
70.5036
70.502
70.5003
70.4987
70.4971
70.4955
70.4939
70.4923
70.4907
70.4891
70.4874
70.4858
70.4842
70.4826
70.481
70.4794
70.4778
70.4762
70.4746
70.473
70.4714
70.4698
70.4682
70.4666
70.465
70.4634
70.4618
70.4601
70.4585
70.4569
70.4553
70.4537
70.4521
70.4505
70.449
70.4474
70.4458
70.4442
70.4426
70.441
70.4394
70.4378
70.4362
70.4346
70.433
70.4314
70.4298
70.4282
70.4266
70.425
70.4234
70.4218
70.4202
70.4187
70.4171
70.4155
70.4139
70.4123
70.4107
70.4091
70.4075
70.4059
70.4044
70.4028
70.4012
70.3996
70.398
70.3964
70.3948
70.3933
70.3917
70.3901
70.3885
70.3869
70.3853
70.3837
70.3822
70.3806
70.379
70.3774
70.3758
70.3743
70.3727
70.3711
70.3695
70.3679
70.3663
70.3648
70.3632
70.3616
70.36
70.3584
70.3569
70.3553
70.3537
70.3521
70.3506
70.349
70.3474
70.3458
70.3442
70.3427
70.3411
70.3395
70.3379
70.3364
70.3348
70.3332
70.3316
70.3301
70.3285
70.3269
70.3253
70.3238
70.3222
70.3206
70.319
70.3175
70.3159
70.3143
70.3128
70.3112
70.3096
70.308
70.3065
70.3049
70.3033
70.3018
70.3002
70.2986
70.297
70.2955
70.2939
70.2923
70.2908
70.2892
70.2876
70.2861
70.2845
70.2829
70.2813
70.2798
70.2782
70.2766
70.2751
70.2735
70.2719
70.2704
70.2688
70.2672
70.2657
70.2641
70.2625
70.261
70.2594
70.2578
70.2563
70.2547
70.2531
70.2516
70.25
70.2484
70.2469
70.2453
70.2437
70.2422
70.2406
70.2391
70.2375
70.2359
70.2344
70.2328
70.2312
70.2297
70.2281
70.2265
70.225
70.2234
70.2218
70.2203
70.2187
70.2172
70.2156
70.214
70.2125
70.2109
70.2093
70.2078
70.2062
70.2047
70.2031
70.2015
70.2
70.1984
70.1969
70.1953
70.1937
70.1922
70.1906
70.1891
70.1875
70.1859
70.1844
70.1828
70.1812
70.1797
70.1781
70.1766
70.175
70.1734
70.1719
70.1703
70.1688
70.1672
70.1657
70.1641
70.1625
70.161
70.1594
70.1579
70.1563
70.1547
70.1532
70.1516
70.1501
70.1485
70.1469
70.1454
70.1438
70.1423
70.1407
70.1392
70.1376
70.136
70.1345
70.1329
70.1314
70.1298
70.1283
70.1267
70.1251
70.1236
70.122
70.1205
70.1189
70.1174
70.1158
70.1142
70.1127
70.1111
70.1096
70.108
70.1065
70.1049
70.1034
70.1018
70.1002
70.0987
70.0971
70.0956
70.094
70.0925
70.0909
70.0894
70.0878
70.0862
70.0847
70.0831
70.0816
70.08
70.0785
70.0769
70.0754
70.0738
70.0723
70.0707
70.0691
70.0676
70.066
70.0645
70.0629
70.0614
70.0598
70.0583
70.0567
70.0552
70.0536
70.0521
70.0505
70.0489
70.0474
70.0458
70.0443
70.0427
70.0412
70.0396
70.0381
70.0365
70.035
70.0334
70.0319
70.0303
70.0288
70.0272
70.0257
70.0241
70.0226
70.021
70.0194
70.0179
70.0163
70.0148
70.0132
70.0117
70.0101
70.0086
70.007
70.0055
70.0039
70.0024
70.0008
69.9993
69.9977
69.9962
69.9946
69.9931
69.9915
69.99
69.9884
69.9869
69.9853
69.9838
69.9822
69.9807
69.9791
69.9776
69.976
69.9745
69.9729
69.9714
69.9698
69.9683
69.9667
69.9652
69.9636
69.9621
69.9605
69.959
69.9574
69.9559
69.9543
69.9528
69.9512
69.9497
69.9481
69.9466
69.945
69.9435
69.9419
69.9404
69.9388
69.9373
69.9357
69.9342
69.9326
69.9311
69.9295
69.928
69.9264
69.9249
69.9233
69.9218
69.9202
69.9187
69.9171
69.9156
69.914
69.9125
69.9109
69.9094
69.9078
69.9063
69.9047
69.9032
69.9016
69.9001
69.8985
69.897
69.8954
69.8939
69.8923
69.8908
69.8892
69.8877
69.8861
69.8846
69.883
69.8815
69.88
69.8784
69.8769
69.8753
69.8738
69.8722
69.8707
69.8691
69.8676
69.866
69.8645
69.8629
69.8614
69.8598
69.8583
69.8567
69.8552
69.8536
69.8521
69.8506
69.849
69.8475
69.8459
69.8444
69.8428
69.8413
69.8397
69.8382
69.8366
69.8351
1
73.9181
73.9181
71.7026
71.4478
71.3876
71.3612
71.3452
71.3336
71.3243
71.3165
71.3095
71.3032
71.2973
71.2917
71.2864
71.2813
71.2764
71.2715
71.2668
71.2622
71.2577
71.2532
71.2488
71.2445
71.2402
71.236
71.2318
71.2277
71.2236
71.2196
71.2157
71.2118
71.2079
71.204
71.2003
71.1965
71.1928
71.1891
71.1855
71.1819
71.1783
71.1748
71.1713
71.1678
71.1644
71.161
71.1577
71.1543
71.151
71.1477
71.1445
71.1413
71.1381
71.1349
71.1317
71.1286
71.1255
71.1224
71.1194
71.1163
71.1133
71.1103
71.1074
71.1044
71.1015
71.0986
71.0957
71.0928
71.0899
71.0871
71.0843
71.0815
71.0787
71.0759
71.0732
71.0704
71.0677
71.065
71.0623
71.0596
71.0569
71.0543
71.0516
71.049
71.0464
71.0438
71.0412
71.0386
71.036
71.0335
71.0309
71.0284
71.0259
71.0234
71.0209
71.0184
71.0159
71.0135
71.011
71.0086
71.0061
71.0037
71.0013
70.9989
70.9965
70.9941
70.9917
70.9893
70.987
70.9846
70.9823
70.9799
70.9776
70.9753
70.973
70.9707
70.9684
70.9661
70.9638
70.9616
70.9593
70.957
70.9548
70.9525
70.9503
70.9481
70.9459
70.9436
70.9414
70.9392
70.937
70.9349
70.9327
70.9305
70.9283
70.9262
70.924
70.9219
70.9197
70.9176
70.9155
70.9133
70.9112
70.9091
70.907
70.9049
70.9028
70.9007
70.8986
70.8965
70.8944
70.8924
70.8903
70.8882
70.8862
70.8841
70.8821
70.88
70.878
70.876
70.8739
70.8719
70.8699
70.8679
70.8659
70.8639
70.8619
70.8599
70.8579
70.8559
70.8539
70.8519
70.85
70.848
70.846
70.8441
70.8421
70.8401
70.8382
70.8362
70.8343
70.8324
70.8304
70.8285
70.8266
70.8246
70.8227
70.8208
70.8189
70.817
70.8151
70.8131
70.8112
70.8094
70.8075
70.8056
70.8037
70.8018
70.7999
70.798
70.7962
70.7943
70.7924
70.7905
70.7887
70.7868
70.785
70.7831
70.7813
70.7794
70.7776
70.7757
70.7739
70.772
70.7702
70.7684
70.7665
70.7647
70.7629
70.7611
70.7593
70.7574
70.7556
70.7538
70.752
70.7502
70.7484
70.7466
70.7448
70.743
70.7412
70.7394
70.7376
70.7358
70.734
70.7323
70.7305
70.7287
70.7269
70.7251
70.7234
70.7216
70.7198
70.7181
70.7163
70.7145
70.7128
70.711
70.7093
70.7075
70.7058
70.704
70.7023
70.7005
70.6988
70.697
70.6953
70.6935
70.6918
70.6901
70.6883
70.6866
70.6849
70.6831
70.6814
70.6797
70.678
70.6762
70.6745
70.6728
70.6711
70.6694
70.6676
70.6659
70.6642
70.6625
70.6608
70.6591
70.6574
70.6557
70.654
70.6523
70.6506
70.6489
70.6472
70.6455
70.6438
70.6421
70.6404
70.6387
70.637
70.6353
70.6336
70.632
70.6303
70.6286
70.6269
70.6252
70.6236
70.6219
70.6202
70.6185
70.6168
70.6152
70.6135
70.6118
70.6102
70.6085
70.6068
70.6052
70.6035
70.6018
70.6002
70.5985
70.5968
70.5952
70.5935
70.5919
70.5902
70.5885
70.5869
70.5852
70.5836
70.5819
70.5803
70.5786
70.577
70.5753
70.5737
70.572
70.5704
70.5687
70.5671
70.5655
70.5638
70.5622
70.5605
70.5589
70.5573
70.5556
70.554
70.5523
70.5507
70.5491
70.5474
70.5458
70.5442
70.5425
70.5409
70.5393
70.5376
70.536
70.5344
70.5328
70.5311
70.5295
70.5279
70.5263
70.5246
70.523
70.5214
70.5198
70.5181
70.5165
70.5149
70.5133
70.5117
70.51
70.5084
70.5068
70.5052
70.5036
70.502
70.5003
70.4987
70.4971
70.4955
70.4939
70.4923
70.4907
70.4891
70.4874
70.4858
70.4842
70.4826
70.481
70.4794
70.4778
70.4762
70.4746
70.473
70.4714
70.4698
70.4682
70.4666
70.465
70.4634
70.4618
70.4601
70.4585
70.4569
70.4553
70.4537
70.4521
70.4505
70.449
70.4474
70.4458
70.4442
70.4426
70.441
70.4394
70.4378
70.4362
70.4346
70.433
70.4314
70.4298
70.4282
70.4266
70.425
70.4234
70.4218
70.4202
70.4187
70.4171
70.4155
70.4139
70.4123
70.4107
70.4091
70.4075
70.4059
70.4044
70.4028
70.4012
70.3996
70.398
70.3964
70.3948
70.3933
70.3917
70.3901
70.3885
70.3869
70.3853
70.3837
70.3822
70.3806
70.379
70.3774
70.3758
70.3743
70.3727
70.3711
70.3695
70.3679
70.3663
70.3648
70.3632
70.3616
70.36
70.3584
70.3569
70.3553
70.3537
70.3521
70.3506
70.349
70.3474
70.3458
70.3442
70.3427
70.3411
70.3395
70.3379
70.3364
70.3348
70.3332
70.3316
70.3301
70.3285
70.3269
70.3253
70.3238
70.3222
70.3206
70.319
70.3175
70.3159
70.3143
70.3128
70.3112
70.3096
70.308
70.3065
70.3049
70.3033
70.3018
70.3002
70.2986
70.297
70.2955
70.2939
70.2923
70.2908
70.2892
70.2876
70.2861
70.2845
70.2829
70.2813
70.2798
70.2782
70.2766
70.2751
70.2735
70.2719
70.2704
70.2688
70.2672
70.2657
70.2641
70.2625
70.261
70.2594
70.2578
70.2563
70.2547
70.2531
70.2516
70.25
70.2484
70.2469
70.2453
70.2437
70.2422
70.2406
70.2391
70.2375
70.2359
70.2344
70.2328
70.2312
70.2297
70.2281
70.2265
70.225
70.2234
70.2218
70.2203
70.2187
70.2172
70.2156
70.214
70.2125
70.2109
70.2093
70.2078
70.2062
70.2047
70.2031
70.2015
70.2
70.1984
70.1969
70.1953
70.1937
70.1922
70.1906
70.1891
70.1875
70.1859
70.1844
70.1828
70.1812
70.1797
70.1781
70.1766
70.175
70.1734
70.1719
70.1703
70.1688
70.1672
70.1657
70.1641
70.1625
70.161
70.1594
70.1579
70.1563
70.1547
70.1532
70.1516
70.1501
70.1485
70.1469
70.1454
70.1438
70.1423
70.1407
70.1392
70.1376
70.136
70.1345
70.1329
70.1314
70.1298
70.1283
70.1267
70.1251
70.1236
70.122
70.1205
70.1189
70.1174
70.1158
70.1142
70.1127
70.1111
70.1096
70.108
70.1065
70.1049
70.1034
70.1018
70.1002
70.0987
70.0971
70.0956
70.094
70.0925
70.0909
70.0894
70.0878
70.0862
70.0847
70.0831
70.0816
70.08
70.0785
70.0769
70.0754
70.0738
70.0723
70.0707
70.0691
70.0676
70.066
70.0645
70.0629
70.0614
70.0598
70.0583
70.0567
70.0552
70.0536
70.0521
70.0505
70.0489
70.0474
70.0458
70.0443
70.0427
70.0412
70.0396
70.0381
70.0365
70.035
70.0334
70.0319
70.0303
70.0288
70.0272
70.0257
70.0241
70.0226
70.021
70.0194
70.0179
70.0163
70.0148
70.0132
70.0117
70.0101
70.0086
70.007
70.0055
70.0039
70.0024
70.0008
69.9993
69.9977
69.9962
69.9946
69.9931
69.9915
69.99
69.9884
69.9869
69.9853
69.9838
69.9822
69.9807
69.9791
69.9776
69.976
69.9745
69.9729
69.9714
69.9698
69.9683
69.9667
69.9652
69.9636
69.9621
69.9605
69.959
69.9574
69.9559
69.9543
69.9528
69.9512
69.9497
69.9481
69.9466
69.945
69.9435
69.9419
69.9404
69.9388
69.9373
69.9357
69.9342
69.9326
69.9311
69.9295
69.928
69.9264
69.9249
69.9233
69.9218
69.9202
69.9187
69.9171
69.9156
69.914
69.9125
69.9109
69.9094
69.9078
69.9063
69.9047
69.9032
69.9016
69.9001
69.8985
69.897
69.8954
69.8939
69.8923
69.8908
69.8892
69.8877
69.8861
69.8846
69.883
69.8815
69.88
69.8784
69.8769
69.8753
69.8738
69.8722
69.8707
69.8691
69.8676
69.866
69.8645
69.8629
69.8614
69.8598
69.8583
69.8567
69.8552
69.8536
69.8521
69.8506
69.849
69.8475
69.8459
69.8444
69.8428
69.8413
69.8397
69.8382
69.8366
69.8351
69.8351
73.2711
73.2711
71.713
71.4573
71.3918
71.3634
71.3466
71.3345
71.325
71.317
71.31
71.3036
71.2976
71.292
71.2867
71.2815
71.2765
71.2717
71.267
71.2623
71.2578
71.2533
71.2489
71.2446
71.2403
71.2361
71.2319
71.2278
71.2237
71.2197
71.2157
71.2118
71.2079
71.2041
71.2003
71.1965
71.1928
71.1892
71.1855
71.1819
71.1784
71.1748
71.1713
71.1679
71.1645
71.1611
71.1577
71.1544
71.151
71.1478
71.1445
71.1413
71.1381
71.1349
71.1318
71.1286
71.1255
71.1225
71.1194
71.1164
71.1134
71.1104
71.1074
71.1044
71.1015
71.0986
71.0957
71.0928
71.09
71.0871
71.0843
71.0815
71.0787
71.0759
71.0732
71.0704
71.0677
71.065
71.0623
71.0596
71.0569
71.0543
71.0516
71.049
71.0464
71.0438
71.0412
71.0386
71.0361
71.0335
71.031
71.0284
71.0259
71.0234
71.0209
71.0184
71.0159
71.0135
71.011
71.0086
71.0061
71.0037
71.0013
70.9989
70.9965
70.9941
70.9917
70.9893
70.987
70.9846
70.9823
70.98
70.9776
70.9753
70.973
70.9707
70.9684
70.9661
70.9638
70.9616
70.9593
70.957
70.9548
70.9526
70.9503
70.9481
70.9459
70.9437
70.9414
70.9392
70.9371
70.9349
70.9327
70.9305
70.9283
70.9262
70.924
70.9219
70.9197
70.9176
70.9155
70.9133
70.9112
70.9091
70.907
70.9049
70.9028
70.9007
70.8986
70.8965
70.8944
70.8924
70.8903
70.8882
70.8862
70.8841
70.8821
70.88
70.878
70.876
70.8739
70.8719
70.8699
70.8679
70.8659
70.8639
70.8619
70.8599
70.8579
70.8559
70.8539
70.8519
70.85
70.848
70.846
70.8441
70.8421
70.8401
70.8382
70.8362
70.8343
70.8324
70.8304
70.8285
70.8266
70.8246
70.8227
70.8208
70.8189
70.817
70.8151
70.8132
70.8113
70.8094
70.8075
70.8056
70.8037
70.8018
70.7999
70.798
70.7962
70.7943
70.7924
70.7906
70.7887
70.7868
70.785
70.7831
70.7813
70.7794
70.7776
70.7757
70.7739
70.772
70.7702
70.7684
70.7666
70.7647
70.7629
70.7611
70.7593
70.7574
70.7556
70.7538
70.752
70.7502
70.7484
70.7466
70.7448
70.743
70.7412
70.7394
70.7376
70.7358
70.734
70.7323
70.7305
70.7287
70.7269
70.7251
70.7234
70.7216
70.7198
70.7181
70.7163
70.7145
70.7128
70.711
70.7093
70.7075
70.7058
70.704
70.7023
70.7005
70.6988
70.697
70.6953
70.6935
70.6918
70.6901
70.6883
70.6866
70.6849
70.6831
70.6814
70.6797
70.678
70.6762
70.6745
70.6728
70.6711
70.6694
70.6676
70.6659
70.6642
70.6625
70.6608
70.6591
70.6574
70.6557
70.654
70.6523
70.6506
70.6489
70.6472
70.6455
70.6438
70.6421
70.6404
70.6387
70.637
70.6353
70.6337
70.632
70.6303
70.6286
70.6269
70.6252
70.6236
70.6219
70.6202
70.6185
70.6169
70.6152
70.6135
70.6118
70.6102
70.6085
70.6068
70.6052
70.6035
70.6018
70.6002
70.5985
70.5968
70.5952
70.5935
70.5919
70.5902
70.5886
70.5869
70.5852
70.5836
70.5819
70.5803
70.5786
70.577
70.5753
70.5737
70.572
70.5704
70.5687
70.5671
70.5655
70.5638
70.5622
70.5605
70.5589
70.5573
70.5556
70.554
70.5523
70.5507
70.5491
70.5474
70.5458
70.5442
70.5425
70.5409
70.5393
70.5376
70.536
70.5344
70.5328
70.5311
70.5295
70.5279
70.5263
70.5246
70.523
70.5214
70.5198
70.5181
70.5165
70.5149
70.5133
70.5117
70.51
70.5084
70.5068
70.5052
70.5036
70.502
70.5003
70.4987
70.4971
70.4955
70.4939
70.4923
70.4907
70.4891
70.4874
70.4858
70.4842
70.4826
70.481
70.4794
70.4778
70.4762
70.4746
70.473
70.4714
70.4698
70.4682
70.4666
70.465
70.4634
70.4618
70.4602
70.4586
70.457
70.4554
70.4538
70.4522
70.4506
70.449
70.4474
70.4458
70.4442
70.4426
70.441
70.4394
70.4378
70.4362
70.4346
70.433
70.4314
70.4298
70.4282
70.4266
70.425
70.4234
70.4218
70.4203
70.4187
70.4171
70.4155
70.4139
70.4123
70.4107
70.4091
70.4075
70.4059
70.4044
70.4028
70.4012
70.3996
70.398
70.3964
70.3948
70.3933
70.3917
70.3901
70.3885
70.3869
70.3853
70.3838
70.3822
70.3806
70.379
70.3774
70.3758
70.3743
70.3727
70.3711
70.3695
70.3679
70.3664
70.3648
70.3632
70.3616
70.36
70.3585
70.3569
70.3553
70.3537
70.3521
70.3506
70.349
70.3474
70.3458
70.3443
70.3427
70.3411
70.3395
70.3379
70.3364
70.3348
70.3332
70.3316
70.3301
70.3285
70.3269
70.3253
70.3238
70.3222
70.3206
70.3191
70.3175
70.3159
70.3143
70.3128
70.3112
70.3096
70.308
70.3065
70.3049
70.3033
70.3018
70.3002
70.2986
70.297
70.2955
70.2939
70.2923
70.2908
70.2892
70.2876
70.2861
70.2845
70.2829
70.2814
70.2798
70.2782
70.2766
70.2751
70.2735
70.2719
70.2704
70.2688
70.2672
70.2657
70.2641
70.2625
70.261
70.2594
70.2578
70.2563
70.2547
70.2531
70.2516
70.25
70.2484
70.2469
70.2453
70.2438
70.2422
70.2406
70.2391
70.2375
70.2359
70.2344
70.2328
70.2312
70.2297
70.2281
70.2265
70.225
70.2234
70.2219
70.2203
70.2187
70.2172
70.2156
70.214
70.2125
70.2109
70.2094
70.2078
70.2062
70.2047
70.2031
70.2015
70.2
70.1984
70.1969
70.1953
70.1937
70.1922
70.1906
70.1891
70.1875
70.1859
70.1844
70.1828
70.1813
70.1797
70.1781
70.1766
70.175
70.1735
70.1719
70.1703
70.1688
70.1672
70.1657
70.1641
70.1625
70.161
70.1594
70.1579
70.1563
70.1547
70.1532
70.1516
70.1501
70.1485
70.147
70.1454
70.1438
70.1423
70.1407
70.1392
70.1376
70.136
70.1345
70.1329
70.1314
70.1298
70.1283
70.1267
70.1251
70.1236
70.122
70.1205
70.1189
70.1174
70.1158
70.1143
70.1127
70.1111
70.1096
70.108
70.1065
70.1049
70.1034
70.1018
70.1002
70.0987
70.0971
70.0956
70.094
70.0925
70.0909
70.0894
70.0878
70.0863
70.0847
70.0831
70.0816
70.08
70.0785
70.0769
70.0754
70.0738
70.0723
70.0707
70.0692
70.0676
70.066
70.0645
70.0629
70.0614
70.0598
70.0583
70.0567
70.0552
70.0536
70.0521
70.0505
70.049
70.0474
70.0458
70.0443
70.0427
70.0412
70.0396
70.0381
70.0365
70.035
70.0334
70.0319
70.0303
70.0288
70.0272
70.0257
70.0241
70.0226
70.021
70.0195
70.0179
70.0163
70.0148
70.0132
70.0117
70.0101
70.0086
70.007
70.0055
70.0039
70.0024
70.0008
69.9993
69.9977
69.9962
69.9946
69.9931
69.9915
69.99
69.9884
69.9869
69.9853
69.9838
69.9822
69.9807
69.9791
69.9776
69.976
69.9745
69.9729
69.9714
69.9698
69.9683
69.9667
69.9652
69.9636
69.9621
69.9605
69.959
69.9574
69.9559
69.9543
69.9528
69.9512
69.9497
69.9481
69.9466
69.945
69.9435
69.9419
69.9404
69.9388
69.9373
69.9357
69.9342
69.9326
69.9311
69.9295
69.928
69.9264
69.9249
69.9233
69.9218
69.9202
69.9187
69.9171
69.9156
69.914
69.9125
69.9109
69.9094
69.9078
69.9063
69.9047
69.9032
69.9016
69.9001
69.8985
69.897
69.8954
69.8939
69.8923
69.8908
69.8892
69.8877
69.8861
69.8846
69.8831
69.8815
69.88
69.8784
69.8769
69.8753
69.8738
69.8722
69.8707
69.8691
69.8676
69.866
69.8645
69.8629
69.8614
69.8598
69.8583
69.8567
69.8552
69.8536
69.8521
69.8506
69.849
69.8475
69.8459
69.8444
69.8428
69.8413
69.8397
69.8382
69.8366
69.8351
69.8351
72.5816
72.5816
71.6972
71.464
71.3954
71.3655
71.3479
71.3355
71.3257
71.3176
71.3104
71.3039
71.2979
71.2923
71.2869
71.2817
71.2767
71.2718
71.2671
71.2624
71.2579
71.2534
71.249
71.2446
71.2403
71.2361
71.2319
71.2278
71.2238
71.2197
71.2158
71.2118
71.208
71.2041
71.2003
71.1966
71.1929
71.1892
71.1856
71.182
71.1784
71.1749
71.1714
71.1679
71.1645
71.1611
71.1577
71.1544
71.1511
71.1478
71.1445
71.1413
71.1381
71.1349
71.1318
71.1287
71.1256
71.1225
71.1194
71.1164
71.1134
71.1104
71.1074
71.1045
71.1015
71.0986
71.0957
71.0928
71.09
71.0871
71.0843
71.0815
71.0787
71.0759
71.0732
71.0704
71.0677
71.065
71.0623
71.0596
71.0569
71.0543
71.0516
71.049
71.0464
71.0438
71.0412
71.0386
71.0361
71.0335
71.031
71.0284
71.0259
71.0234
71.0209
71.0184
71.0159
71.0135
71.011
71.0086
71.0061
71.0037
71.0013
70.9989
70.9965
70.9941
70.9917
70.9894
70.987
70.9846
70.9823
70.98
70.9776
70.9753
70.973
70.9707
70.9684
70.9661
70.9638
70.9616
70.9593
70.957
70.9548
70.9526
70.9503
70.9481
70.9459
70.9437
70.9415
70.9393
70.9371