# vtk DataFile Version 2.0
FlowField
ASCII
DATASET STRUCTURED_GRID
DIMENSIONS 800 1 200
POINTS 160000 float
0 0 0
0.04 0 0
0.08 0 0
0.12 0 0
0.16 0 0
0.2 0 0
0.24 0 0
0.28 0 0
0.32 0 0
0.36 0 0
0.4 0 0
0.44 0 0
0.48 0 0
0.52 0 0
0.56 0 0
0.6 0 0
0.64 0 0
0.68 0 0
0.72 0 0
0.76 0 0
0.8 0 0
0.84 0 0
0.88 0 0
0.92 0 0
0.96 0 0
1 0 0
1.04 0 0
1.08 0 0
1.12 0 0
1.16 0 0
1.2 0 0
1.24 0 0
1.28 0 0
1.32 0 0
1.36 0 0
1.4 0 0
1.44 0 0
1.48 0 0
1.52 0 0
1.56 0 0
1.6 0 0
1.64 0 0
1.68 0 0
1.72 0 0
1.76 0 0
1.8 0 0
1.84 0 0
1.88 0 0
1.92 0 0
1.96 0 0
2 0 0
2.04 0 0
2.08 0 0
2.12 0 0
2.16 0 0
2.2 0 0
2.24 0 0
2.28 0 0
2.32 0 0
2.36 0 0
2.4 0 0
2.44 0 0
2.48 0 0
2.52 0 0
2.56 0 0
2.6 0 0
2.64 0 0
2.68 0 0
2.72 0 0
2.76 0 0
2.8 0 0
2.84 0 0
2.88 0 0
2.92 0 0
2.96 0 0
3 0 0
3.04 0 0
3.08 0 0
3.12 0 0
3.16 0 0
3.2 0 0
3.24 0 0
3.28 0 0
3.32 0 0
3.36 0 0
3.4 0 0
3.44 0 0
3.48 0 0
3.52 0 0
3.56 0 0
3.6 0 0
3.64 0 0
3.68 0 0
3.72 0 0
3.76 0 0
3.8 0 0
3.84 0 0
3.88 0 0
3.92 0 0
3.96 0 0
4 0 0
4.04 0 0
4.08 0 0
4.12 0 0
4.16 0 0
4.2 0 0
4.24 0 0
4.28 0 0
4.32 0 0
4.36 0 0
4.4 0 0
4.44 0 0
4.48 0 0
4.52 0 0
4.56 0 0
4.6 0 0
4.64 0 0
4.68 0 0
4.72 0 0
4.76 0 0
4.8 0 0
4.84 0 0
4.88 0 0
4.92 0 0
4.96 0 0
5 0 0
5.04 0 0
5.08 0 0
5.12 0 0
5.16 0 0
5.2 0 0
5.24 0 0
5.28 0 0
5.32 0 0
5.36 0 0
5.4 0 0
5.44 0 0
5.48 0 0
5.52 0 0
5.56 0 0
5.6 0 0
5.64 0 0
5.68 0 0
5.72 0 0
5.76 0 0
5.8 0 0
5.84 0 0
5.88 0 0
5.92 0 0
5.96 0 0
6 0 0
6.04 0 0
6.08 0 0
6.12 0 0
6.16 0 0
6.2 0 0
6.24 0 0
6.28 0 0
6.32 0 0
6.36 0 0
6.4 0 0
6.44 0 0
6.48 0 0
6.52 0 0
6.56 0 0
6.6 0 0
6.64 0 0
6.68 0 0
6.72 0 0
6.76 0 0
6.8 0 0
6.84 0 0
6.88 0 0
6.92 0 0
6.96 0 0
7 0 0
7.04 0 0
7.08 0 0
7.12 0 0
7.16 0 0
7.2 0 0
7.24 0 0
7.28 0 0
7.32 0 0
7.36 0 0
7.4 0 0
7.44 0 0
7.48 0 0
7.52 0 0
7.56 0 0
7.6 0 0
7.64 0 0
7.68 0 0
7.72 0 0
7.76 0 0
7.8 0 0
7.84 0 0
7.88 0 0
7.92 0 0
7.96 0 0
8 0 0
8.04 0 0
8.08 0 0
8.12 0 0
8.16 0 0
8.2 0 0
8.24 0 0
8.28 0 0
8.32 0 0
8.36 0 0
8.4 0 0
8.44 0 0
8.48 0 0
8.52 0 0
8.56 0 0
8.6 0 0
8.64 0 0
8.68 0 0
8.72 0 0
8.76 0 0
8.8 0 0
8.84 0 0
8.88 0 0
8.92 0 0
8.96 0 0
9 0 0
9.04 0 0
9.08 0 0
9.12 0 0
9.16 0 0
9.2 0 0
9.24 0 0
9.28 0 0
9.32 0 0
9.36 0 0
9.4 0 0
9.44 0 0
9.48 0 0
9.52 0 0
9.56 0 0
9.6 0 0
9.64 0 0
9.68 0 0
9.72 0 0
9.76 0 0
9.8 0 0
9.84 0 0
9.88 0 0
9.92 0 0
9.96 0 0
10 0 0
10.04 0 0
10.08 0 0
10.12 0 0
10.16 0 0
10.2 0 0
10.24 0 0
10.28 0 0
10.32 0 0
10.36 0 0
10.4 0 0
10.44 0 0
10.48 0 0
10.52 0 0
10.56 0 0
10.6 0 0
10.64 0 0
10.68 0 0
10.72 0 0
10.76 0 0
10.8 0 0
10.84 0 0
10.88 0 0
10.92 0 0
10.96 0 0
11 0 0
11.04 0 0
11.08 0 0
11.12 0 0
11.16 0 0
11.2 0 0
11.24 0 0
11.28 0 0
11.32 0 0
11.36 0 0
11.4 0 0
11.44 0 0
11.48 0 0
11.52 0 0
11.56 0 0
11.6 0 0
11.64 0 0
11.68 0 0
11.72 0 0
11.76 0 0
11.8 0 0
11.84 0 0
11.88 0 0
11.92 0 0
11.96 0 0
12 0 0
12.04 0 0
12.08 0 0
12.12 0 0
12.16 0 0
12.2 0 0
12.24 0 0
12.28 0 0
12.32 0 0
12.36 0 0
12.4 0 0
12.44 0 0
12.48 0 0
12.52 0 0
12.56 0 0
12.6 0 0
12.64 0 0
12.68 0 0
12.72 0 0
12.76 0 0
12.8 0 0
12.84 0 0
12.88 0 0
12.92 0 0
12.96 0 0
13 0 0
13.04 0 0
13.08 0 0
13.12 0 0
13.16 0 0
13.2 0 0
13.24 0 0
13.28 0 0
13.32 0 0
13.36 0 0
13.4 0 0
13.44 0 0
13.48 0 0
13.52 0 0
13.56 0 0
13.6 0 0
13.64 0 0
13.68 0 0
13.72 0 0
13.76 0 0
13.8 0 0
13.84 0 0
13.88 0 0
13.92 0 0
13.96 0 0
14 0 0
14.04 0 0
14.08 0 0
14.12 0 0
14.16 0 0
14.2 0 0
14.24 0 0
14.28 0 0
14.32 0 0
14.36 0 0
14.4 0 0
14.44 0 0
14.48 0 0
14.52 0 0
14.56 0 0
14.6 0 0
14.64 0 0
14.68 0 0
14.72 0 0
14.76 0 0
14.8 0 0
14.84 0 0
14.88 0 0
14.92 0 0
14.96 0 0
15 0 0
15.04 0 0
15.08 0 0
15.12 0 0
15.16 0 0
15.2 0 0
15.24 0 0
15.28 0 0
15.32 0 0
15.36 0 0
15.4 0 0
15.44 0 0
15.48 0 0
15.52 0 0
15.56 0 0
15.6 0 0
15.64 0 0
15.68 0 0
15.72 0 0
15.76 0 0
15.8 0 0
15.84 0 0
15.88 0 0
15.92 0 0
15.96 0 0
16 0 0
16.04 0 0
16.08 0 0
16.12 0 0
16.16 0 0
16.2 0 0
16.24 0 0
16.28 0 0
16.32 0 0
16.36 0 0
16.4 0 0
16.44 0 0
16.48 0 0
16.52 0 0
16.56 0 0
16.6 0 0
16.64 0 0
16.68 0 0
16.72 0 0
16.76 0 0
16.8 0 0
16.84 0 0
16.88 0 0
16.92 0 0
16.96 0 0
17 0 0
17.04 0 0
17.08 0 0
17.12 0 0
17.16 0 0
17.2 0 0
17.24 0 0
17.28 0 0
17.32 0 0
17.36 0 0
17.4 0 0
17.44 0 0
17.48 0 0
17.52 0 0
17.56 0 0
17.6 0 0
17.64 0 0
17.68 0 0
17.72 0 0
17.76 0 0
17.8 0 0
17.84 0 0
17.88 0 0
17.92 0 0
17.96 0 0
18 0 0
18.04 0 0
18.08 0 0
18.12 0 0
18.16 0 0
18.2 0 0
18.24 0 0
18.28 0 0
18.32 0 0
18.36 0 0
18.4 0 0
18.44 0 0
18.48 0 0
18.52 0 0
18.56 0 0
18.6 0 0
18.64 0 0
18.68 0 0
18.72 0 0
18.76 0 0
18.8 0 0
18.84 0 0
18.88 0 0
18.92 0 0
18.96 0 0
19 0 0
19.04 0 0
19.08 0 0
19.12 0 0
19.16 0 0
19.2 0 0
19.24 0 0
19.28 0 0
19.32 0 0
19.36 0 0
19.4 0 0
19.44 0 0
19.48 0 0
19.52 0 0
19.56 0 0
19.6 0 0
19.64 0 0
19.68 0 0
19.72 0 0
19.76 0 0
19.8 0 0
19.84 0 0
19.88 0 0
19.92 0 0
19.96 0 0
20 0 0
20.04 0 0
20.08 0 0
20.12 0 0
20.16 0 0
20.2 0 0
20.24 0 0
20.28 0 0
20.32 0 0
20.36 0 0
20.4 0 0
20.44 0 0
20.48 0 0
20.52 0 0
20.56 0 0
20.6 0 0
20.64 0 0
20.68 0 0
20.72 0 0
20.76 0 0
20.8 0 0
20.84 0 0
20.88 0 0
20.92 0 0
20.96 0 0
21 0 0
21.04 0 0
21.08 0 0
21.12 0 0
21.16 0 0
21.2 0 0
21.24 0 0
21.28 0 0
21.32 0 0
21.36 0 0
21.4 0 0
21.44 0 0
21.48 0 0
21.52 0 0
21.56 0 0
21.6 0 0
21.64 0 0
21.68 0 0
21.72 0 0
21.76 0 0
21.8 0 0
21.84 0 0
21.88 0 0
21.92 0 0
21.96 0 0
22 0 0
22.04 0 0
22.08 0 0
22.12 0 0
22.16 0 0
22.2 0 0
22.24 0 0
22.28 0 0
22.32 0 0
22.36 0 0
22.4 0 0
22.44 0 0
22.48 0 0
22.52 0 0
22.56 0 0
22.6 0 0
22.64 0 0
22.68 0 0
22.72 0 0
22.76 0 0
22.8 0 0
22.84 0 0
22.88 0 0
22.92 0 0
22.96 0 0
23 0 0
23.04 0 0
23.08 0 0
23.12 0 0
23.16 0 0
23.2 0 0
23.24 0 0
23.28 0 0
23.32 0 0
23.36 0 0
23.4 0 0
23.44 0 0
23.48 0 0
23.52 0 0
23.56 0 0
23.6 0 0
23.64 0 0
23.68 0 0
23.72 0 0
23.76 0 0
23.8 0 0
23.84 0 0
23.88 0 0
23.92 0 0
23.96 0 0
24 0 0
24.04 0 0
24.08 0 0
24.12 0 0
24.16 0 0
24.2 0 0
24.24 0 0
24.28 0 0
24.32 0 0
24.36 0 0
24.4 0 0
24.44 0 0
24.48 0 0
24.52 0 0
24.56 0 0
24.6 0 0
24.64 0 0
24.68 0 0
24.72 0 0
24.76 0 0
24.8 0 0
24.84 0 0
24.88 0 0
24.92 0 0
24.96 0 0
25 0 0
25.04 0 0
25.08 0 0
25.12 0 0
25.16 0 0
25.2 0 0
25.24 0 0
25.28 0 0
25.32 0 0
25.36 0 0
25.4 0 0
25.44 0 0
25.48 0 0
25.52 0 0
25.56 0 0
25.6 0 0
25.64 0 0
25.68 0 0
25.72 0 0
25.76 0 0
25.8 0 0
25.84 0 0
25.88 0 0
25.92 0 0
25.96 0 0
26 0 0
26.04 0 0
26.08 0 0
26.12 0 0
26.16 0 0
26.2 0 0
26.24 0 0
26.28 0 0
26.32 0 0
26.36 0 0
26.4 0 0
26.44 0 0
26.48 0 0
26.52 0 0
26.56 0 0
26.6 0 0
26.64 0 0
26.68 0 0
26.72 0 0
26.76 0 0
26.8 0 0
26.84 0 0
26.88 0 0
26.92 0 0
26.96 0 0
27 0 0
27.04 0 0
27.08 0 0
27.12 0 0
27.16 0 0
27.2 0 0
27.24 0 0
27.28 0 0
27.32 0 0
27.36 0 0
27.4 0 0
27.44 0 0
27.48 0 0
27.52 0 0
27.56 0 0
27.6 0 0
27.64 0 0
27.68 0 0
27.72 0 0
27.76 0 0
27.8 0 0
27.84 0 0
27.88 0 0
27.92 0 0
27.96 0 0
28 0 0
28.04 0 0
28.08 0 0
28.12 0 0
28.16 0 0
28.2 0 0
28.24 0 0
28.28 0 0
28.32 0 0
28.36 0 0
28.4 0 0
28.44 0 0
28.48 0 0
28.52 0 0
28.56 0 0
28.6 0 0
28.64 0 0
28.68 0 0
28.72 0 0
28.76 0 0
28.8 0 0
28.84 0 0
28.88 0 0
28.92 0 0
28.96 0 0
29 0 0
29.04 0 0
29.08 0 0
29.12 0 0
29.16 0 0
29.2 0 0
29.24 0 0
29.28 0 0
29.32 0 0
29.36 0 0
29.4 0 0
29.44 0 0
29.48 0 0
29.52 0 0
29.56 0 0
29.6 0 0
29.64 0 0
29.68 0 0
29.72 0 0
29.76 0 0
29.8 0 0
29.84 0 0
29.88 0 0
29.92 0 0
29.96 0 0
30 0 0
30.04 0 0
30.08 0 0
30.12 0 0
30.16 0 0
30.2 0 0
30.24 0 0
30.28 0 0
30.32 0 0
30.36 0 0
30.4 0 0
30.44 0 0
30.48 0 0
30.52 0 0
30.56 0 0
30.6 0 0
30.64 0 0
30.68 0 0
30.72 0 0
30.76 0 0
30.8 0 0
30.84 0 0
30.88 0 0
30.92 0 0
30.96 0 0
31 0 0
31.04 0 0
31.08 0 0
31.12 0 0
31.16 0 0
31.2 0 0
31.24 0 0
31.28 0 0
31.32 0 0
31.36 0 0
31.4 0 0
31.44 0 0
31.48 0 0
31.52 0 0
31.56 0 0
31.6 0 0
31.64 0 0
31.68 0 0
31.72 0 0
31.76 0 0
31.8 0 0
31.84 0 0
31.88 0 0
31.92 0 0
31.96 0 0
0 0.005 0
0.04 0.005 0
0.08 0.005 0
0.12 0.005 0
0.16 0.005 0
0.2 0.005 0
0.24 0.005 0
0.28 0.005 0
0.32 0.005 0
0.36 0.005 0
0.4 0.005 0
0.44 0.005 0
0.48 0.005 0
0.52 0.005 0
0.56 0.005 0
0.6 0.005 0
0.64 0.005 0
0.68 0.005 0
0.72 0.005 0
0.76 0.005 0
0.8 0.005 0
0.84 0.005 0
0.88 0.005 0
0.92 0.005 0
0.96 0.005 0
1 0.005 0
1.04 0.005 0
1.08 0.005 0
1.12 0.005 0
1.16 0.005 0
1.2 0.005 0
1.24 0.005 0
1.28 0.005 0
1.32 0.005 0
1.36 0.005 0
1.4 0.005 0
1.44 0.005 0
1.48 0.005 0
1.52 0.005 0
1.56 0.005 0
1.6 0.005 0
1.64 0.005 0
1.68 0.005 0
1.72 0.005 0
1.76 0.005 0
1.8 0.005 0
1.84 0.005 0
1.88 0.005 0
1.92 0.005 0
1.96 0.005 0
2 0.005 0
2.04 0.005 0
2.08 0.005 0
2.12 0.005 0
2.16 0.005 0
2.2 0.005 0
2.24 0.005 0
2.28 0.005 0
2.32 0.005 0
2.36 0.005 0
2.4 0.005 0
2.44 0.005 0
2.48 0.005 0
2.52 0.005 0
2.56 0.005 0
2.6 0.005 0
2.64 0.005 0
2.68 0.005 0
2.72 0.005 0
2.76 0.005 0
2.8 0.005 0
2.84 0.005 0
2.88 0.005 0
2.92 0.005 0
2.96 0.005 0
3 0.005 0
3.04 0.005 0
3.08 0.005 0
3.12 0.005 0
3.16 0.005 0
3.2 0.005 0
3.24 0.005 0
3.28 0.005 0
3.32 0.005 0
3.36 0.005 0
3.4 0.005 0
3.44 0.005 0
3.48 0.005 0
3.52 0.005 0
3.56 0.005 0
3.6 0.005 0
3.64 0.005 0
3.68 0.005 0
3.72 0.005 0
3.76 0.005 0
3.8 0.005 0
3.84 0.005 0
3.88 0.005 0
3.92 0.005 0
3.96 0.005 0
4 0.005 0
4.04 0.005 0
4.08 0.005 0
4.12 0.005 0
4.16 0.005 0
4.2 0.005 0
4.24 0.005 0
4.28 0.005 0
4.32 0.005 0
4.36 0.005 0
4.4 0.005 0
4.44 0.005 0
4.48 0.005 0
4.52 0.005 0
4.56 0.005 0
4.6 0.005 0
4.64 0.005 0
4.68 0.005 0
4.72 0.005 0
4.76 0.005 0
4.8 0.005 0
4.84 0.005 0
4.88 0.005 0
4.92 0.005 0
4.96 0.005 0
5 0.005 0
5.04 0.005 0
5.08 0.005 0
5.12 0.005 0
5.16 0.005 0
5.2 0.005 0
5.24 0.005 0
5.28 0.005 0
5.32 0.005 0
5.36 0.005 0
5.4 0.005 0
5.44 0.005 0
5.48 0.005 0
5.52 0.005 0
5.56 0.005 0
5.6 0.005 0
5.64 0.005 0
5.68 0.005 0
5.72 0.005 0
5.76 0.005 0
5.8 0.005 0
5.84 0.005 0
5.88 0.005 0
5.92 0.005 0
5.96 0.005 0
6 0.005 0
6.04 0.005 0
6.08 0.005 0
6.12 0.005 0
6.16 0.005 0
6.2 0.005 0
6.24 0.005 0
6.28 0.005 0
6.32 0.005 0
6.36 0.005 0
6.4 0.005 0
6.44 0.005 0
6.48 0.005 0
6.52 0.005 0
6.56 0.005 0
6.6 0.005 0
6.64 0.005 0
6.68 0.005 0
6.72 0.005 0
6.76 0.005 0
6.8 0.005 0
6.84 0.005 0
6.88 0.005 0
6.92 0.005 0
6.96 0.005 0
7 0.005 0
7.04 0.005 0
7.08 0.005 0
7.12 0.005 0
7.16 0.005 0
7.2 0.005 0
7.24 0.005 0
7.28 0.005 0
7.32 0.005 0
7.36 0.005 0
7.4 0.005 0
[...]
POINT_DATA 160000

SCALARS p float 1
LOOKUP_TABLE default
1
65.2132
62.9978
62.7429
62.6828
62.6564
62.6403
62.6287
62.6195
62.6116
62.6047
62.5983
62.5925
62.5869
62.5816
62.5765
62.5715
62.5667
62.562
62.5573
62.5528
62.5483
62.5439
62.5396
62.5353
62.5311
62.527
62.5229
62.5188
62.5148
62.5108
62.5069
62.503
62.4992
62.4954
62.4916
62.4879
62.4843
62.4806
62.477
62.4735
62.4699
62.4665
62.463
62.4596
62.4562
62.4528
62.4495
62.4462
62.4429
62.4396
62.4364
62.4332
62.43
62.4269
62.4238
62.4207
62.4176
62.4145
62.4115
62.4085
62.4055
62.4025
62.3996
62.3966
62.3937
62.3908
62.388
62.3851
62.3823
62.3794
62.3766
62.3738
62.3711
62.3683
62.3656
62.3628
62.3601
62.3574
62.3547
62.3521
62.3494
62.3468
62.3441
62.3415
62.3389
62.3363
62.3338
62.3312
62.3286
62.3261
62.3236
62.321
62.3185
62.316
62.3135
62.3111
62.3086
62.3061
62.3037
62.3013
62.2988
62.2964
62.294
62.2916
62.2892
62.2869
62.2845
62.2821
62.2798
62.2774
62.2751
62.2728
62.2704
62.2681
62.2658
62.2635
62.2613
62.259
62.2567
62.2544
62.2522
62.2499
62.2477
62.2455
62.2432
62.241
62.2388
62.2366
62.2344
62.2322
62.23
62.2278
62.2256
62.2235
62.2213
62.2192
62.217
62.2149
62.2127
62.2106
62.2085
62.2063
62.2042
62.2021
62.2
62.1979
62.1958
62.1937
62.1917
62.1896
62.1875
62.1854
62.1834
62.1813
62.1793
62.1772
62.1752
62.1731
62.1711
62.1691
62.1671
62.165
62.163
62.161
62.159
62.157
62.155
62.153
62.151
62.1491
62.1471
62.1451
62.1431
62.1412
62.1392
62.1372
62.1353
62.1333
62.1314
62.1294
62.1275
62.1256
62.1236
62.1217
62.1198
62.1179
62.1159
62.114
62.1121
62.1102
62.1083
62.1064
62.1045
62.1026
62.1007
62.0988
62.0969
62.0951
62.0932
62.0913
62.0894
62.0876
62.0857
62.0838
62.082
62.0801
62.0783
62.0764
62.0746
62.0727
62.0709
62.069
62.0672
62.0654
62.0635
62.0617
62.0599
62.058
62.0562
62.0544
62.0526
62.0508
62.049
62.0471
62.0453
62.0435
62.0417
62.0399
62.0381
62.0363
62.0345
62.0328
62.031
62.0292
62.0274
62.0256
62.0238
62.0221
62.0203
62.0185
62.0167
62.015
62.0132
62.0114
62.0097
62.0079
62.0062
62.0044
62.0027
62.0009
61.9991
61.9974
61.9957
61.9939
61.9922
61.9904
61.9887
61.9869
61.9852
61.9835
61.9817
61.98
61.9783
61.9765
61.9748
61.9731
61.9714
61.9697
61.9679
61.9662
61.9645
61.9628
61.9611
61.9594
61.9576
61.9559
61.9542
61.9525
61.9508
61.9491
61.9474
61.9457
61.944
61.9423
61.9406
61.9389
61.9372
61.9355
61.9339
61.9322
61.9305
61.9288
61.9271
61.9254
61.9237
61.9221
61.9204
61.9187
61.917
61.9153
61.9137
61.912
61.9103
61.9086
61.907
61.9053
61.9036
61.902
61.9003
61.8986
61.897
61.8953
61.8936
61.892
61.8903
61.8887
61.887
61.8853
61.8837
61.882
61.8804
61.8787
61.8771
61.8754
61.8738
61.8721
61.8705
61.8688
61.8672
61.8655
61.8639
61.8622
61.8606
61.859
61.8573
61.8557
61.854
61.8524
61.8508
61.8491
61.8475
61.8458
61.8442
61.8426
61.8409
61.8393
61.8377
61.836
61.8344
61.8328
61.8312
61.8295
61.8279
61.8263
61.8246
61.823
61.8214
61.8198
61.8181
61.8165
61.8149
61.8133
61.8117
61.81
61.8084
61.8068
61.8052
61.8036
61.8019
61.8003
61.7987
61.7971
61.7955
61.7939
61.7923
61.7906
61.789
61.7874
61.7858
61.7842
61.7826
61.781
61.7794
61.7778
61.7762
61.7745
61.7729
61.7713
61.7697
61.7681
61.7665
61.7649
61.7633
61.7617
61.7601
61.7585
61.7569
61.7553
61.7537
61.7521
61.7505
61.7489
61.7473
61.7457
61.7441
61.7425
61.7409
61.7393
61.7377
61.7361
61.7345
61.7329
61.7313
61.7297
61.7281
61.7265
61.7249
61.7234
61.7218
61.7202
61.7186
61.717
61.7154
61.7138
61.7122
61.7106
61.709
61.7074
61.7059
61.7043
61.7027
61.7011
61.6995
61.6979
61.6963
61.6947
61.6932
61.6916
61.69
61.6884
61.6868
61.6852
61.6836
61.6821
61.6805
61.6789
61.6773
61.6757
61.6741
61.6726
61.671
61.6694
61.6678
61.6662
61.6647
61.6631
61.6615
61.6599
61.6583
61.6568
61.6552
61.6536
61.652
61.6504
61.6489
61.6473
61.6457
61.6441
61.6425
61.641
61.6394
61.6378
61.6362
61.6347
61.6331
61.6315
61.6299
61.6284
61.6268
61.6252
61.6236
61.6221
61.6205
61.6189
61.6173
61.6158
61.6142
61.6126
61.611
61.6095
61.6079
61.6063
61.6048
61.6032
61.6016
61.6
61.5985
61.5969
61.5953
61.5938
61.5922
61.5906
61.589
61.5875
61.5859
61.5843
61.5828
61.5812
61.5796
61.5781
61.5765
61.5749
61.5734
61.5718
61.5702
61.5687
61.5671
61.5655
61.5639
61.5624
61.5608
61.5592
61.5577
61.5561
61.5545
61.553
61.5514
61.5498
61.5483
61.5467
61.5452
61.5436
61.542
61.5405
61.5389
61.5373
61.5358
61.5342
61.5326
61.5311
61.5295
61.5279
61.5264
61.5248
61.5232
61.5217
61.5201
61.5186
61.517
61.5154
61.5139
61.5123
61.5107
61.5092
61.5076
61.5061
61.5045
61.5029
61.5014
61.4998
61.4982
61.4967
61.4951
61.4936
61.492
61.4904
61.4889
61.4873
61.4858
61.4842
61.4826
61.4811
61.4795
61.478
61.4764
61.4748
61.4733
61.4717
61.4702
61.4686
61.467
61.4655
61.4639
61.4624
61.4608
61.4592
61.4577
61.4561
61.4546
61.453
61.4514
61.4499
61.4483
61.4468
61.4452
61.4437
61.4421
61.4405
61.439
61.4374
61.4359
61.4343
61.4327
61.4312
61.4296
61.4281
61.4265
61.425
61.4234
61.4218
61.4203
61.4187
61.4172
61.4156
61.4141
61.4125
61.4109
61.4094
61.4078
61.4063
61.4047
61.4032
61.4016
61.4001
61.3985
61.3969
61.3954
61.3938
61.3923
61.3907
61.3892
61.3876
61.3861
61.3845
61.3829
61.3814
61.3798
61.3783
61.3767
61.3752
61.3736
61.3721
61.3705
61.369
61.3674
61.3658
61.3643
61.3627
61.3612
61.3596
61.3581
61.3565
61.355
61.3534
61.3519
61.3503
61.3488
61.3472
61.3456
61.3441
61.3425
61.341
61.3394
61.3379
61.3363
61.3348
61.3332
61.3317
61.3301
61.3286
61.327
61.3255
61.3239
61.3224
61.3208
61.3192
61.3177
61.3161
61.3146
61.313
61.3115
61.3099
61.3084
61.3068
61.3053
61.3037
61.3022
61.3006
61.2991
61.2975
61.296
61.2944
61.2929
61.2913
61.2898
61.2882
61.2867
61.2851
61.2836
61.282
61.2805
61.2789
61.2774
61.2758
61.2743
61.2727
61.2711
61.2696
61.268
61.2665
61.2649
61.2634
61.2618
61.2603
61.2587
61.2572
61.2556
61.2541
61.2525
61.251
61.2494
61.2479
61.2463
61.2448
61.2432
61.2417
61.2401
61.2386
61.237
61.2355
61.2339
61.2324
61.2308
61.2293
61.2277
61.2262
61.2246
61.2231
61.2216
61.22
61.2185
61.2169
61.2154
61.2138
61.2123
61.2107
61.2092
61.2076
61.2061
61.2045
61.203
61.2014
61.1999
61.1983
61.1968
61.1952
61.1937
61.1921
61.1906
61.189
61.1875
61.1859
61.1844
61.1828
61.1813
61.1797
61.1782
61.1766
61.1751
61.1735
61.172
61.1705
61.1689
61.1674
61.1658
61.1643
61.1627
61.1612
61.1596
61.1581
61.1565
61.155
61.1534
61.1519
61.1503
61.1488
61.1472
61.1457
61.1441
61.1426
61.1411
61.1395
61.138
61.1364
61.1349
61.1333
61.1318
61.1302
1
65.2132
65.2132
62.9978
62.7429
62.6828
62.6564
62.6403
62.6287
62.6195
62.6116
62.6047
62.5983
62.5925
62.5869
62.5816
62.5765
62.5715
62.5667
62.562
62.5573
62.5528
62.5483
62.5439
62.5396
62.5353
62.5311
62.527
62.5229
62.5188
62.5148
62.5108
62.5069
62.503
62.4992
62.4954
62.4916
62.4879
62.4843
62.4806
62.477
62.4735
62.4699
62.4665
62.463
62.4596
62.4562
62.4528
62.4495
62.4462
62.4429
62.4396
62.4364
62.4332
62.43
62.4269
62.4238
62.4207
62.4176
62.4145
62.4115
62.4085
62.4055
62.4025
62.3996
62.3966
62.3937
62.3908
62.388
62.3851
62.3823
62.3794
62.3766
62.3738
62.3711
62.3683
62.3656
62.3628
62.3601
62.3574
62.3547
62.3521
62.3494
62.3468
62.3441
62.3415
62.3389
62.3363
62.3338
62.3312
62.3286
62.3261
62.3236
62.321
62.3185
62.316
62.3135
62.3111
62.3086
62.3061
62.3037
62.3013
62.2988
62.2964
62.294
62.2916
62.2892
62.2869
62.2845
62.2821
62.2798
62.2774
62.2751
62.2728
62.2704
62.2681
62.2658
62.2635
62.2613
62.259
62.2567
62.2544
62.2522
62.2499
62.2477
62.2455
62.2432
62.241
62.2388
62.2366
62.2344
62.2322
62.23
62.2278
62.2256
62.2235
62.2213
62.2192
62.217
62.2149
62.2127
62.2106
62.2085
62.2063
62.2042
62.2021
62.2
62.1979
62.1958
62.1937
62.1917
62.1896
62.1875
62.1854
62.1834
62.1813
62.1793
62.1772
62.1752
62.1731
62.1711
62.1691
62.1671
62.165
62.163
62.161
62.159
62.157
62.155
62.153
62.151
62.1491
62.1471
62.1451
62.1431
62.1412
62.1392
62.1372
62.1353
62.1333
62.1314
62.1294
62.1275
62.1256
62.1236
62.1217
62.1198
62.1179
62.1159
62.114
62.1121
62.1102
62.1083
62.1064
62.1045
62.1026
62.1007
62.0988
62.0969
62.0951
62.0932
62.0913
62.0894
62.0876
62.0857
62.0838
62.082
62.0801
62.0783
62.0764
62.0746
62.0727
62.0709
62.069
62.0672
62.0654
62.0635
62.0617
62.0599
62.058
62.0562
62.0544
62.0526
62.0508
62.049
62.0471
62.0453
62.0435
62.0417
62.0399
62.0381
62.0363
62.0345
62.0328
62.031
62.0292
62.0274
62.0256
62.0238
62.0221
62.0203
62.0185
62.0167
62.015
62.0132
62.0114
62.0097
62.0079
62.0062
62.0044
62.0027
62.0009
61.9991
61.9974
61.9957
61.9939
61.9922
61.9904
61.9887
61.9869
61.9852
61.9835
61.9817
61.98
61.9783
61.9765
61.9748
61.9731
61.9714
61.9697
61.9679
61.9662
61.9645
61.9628
61.9611
61.9594
61.9576
61.9559
61.9542
61.9525
61.9508
61.9491
61.9474
61.9457
61.944
61.9423
61.9406
61.9389
61.9372
61.9355
61.9339
61.9322
61.9305
61.9288
61.9271
61.9254
61.9237
61.9221
61.9204
61.9187
61.917
61.9153
61.9137
61.912
61.9103
61.9086
61.907
61.9053
61.9036
61.902
61.9003
61.8986
61.897
61.8953
61.8936
61.892
61.8903
61.8887
61.887
61.8853
61.8837
61.882
61.8804
61.8787
61.8771
61.8754
61.8738
61.8721
61.8705
61.8688
61.8672
61.8655
61.8639
61.8622
61.8606
61.859
61.8573
61.8557
61.854
61.8524
61.8508
61.8491
61.8475
61.8458
61.8442
61.8426
61.8409
61.8393
61.8377
61.836
61.8344
61.8328
61.8312
61.8295
61.8279
61.8263
61.8246
61.823
61.8214
61.8198
61.8181
61.8165
61.8149
61.8133
61.8117
61.81
61.8084
61.8068
61.8052
61.8036
61.8019
61.8003
61.7987
61.7971
61.7955
61.7939
61.7923
61.7906
61.789
61.7874
61.7858
61.7842
61.7826
61.781
61.7794
61.7778
61.7762
61.7745
61.7729
61.7713
61.7697
61.7681
61.7665
61.7649
61.7633
61.7617
61.7601
61.7585
61.7569
61.7553
61.7537
61.7521
61.7505
61.7489
61.7473
61.7457
61.7441
61.7425
61.7409
61.7393
61.7377
61.7361
61.7345
61.7329
61.7313
61.7297
61.7281
61.7265
61.7249
61.7234
61.7218
61.7202
61.7186
61.717
61.7154
61.7138
61.7122
61.7106
61.709
61.7074
61.7059
61.7043
61.7027
61.7011
61.6995
61.6979
61.6963
61.6947
61.6932
61.6916
61.69
61.6884
61.6868
61.6852
61.6836
61.6821
61.6805
61.6789
61.6773
61.6757
61.6741
61.6726
61.671
61.6694
61.6678
61.6662
61.6647
61.6631
61.6615
61.6599
61.6583
61.6568
61.6552
61.6536
61.652
61.6504
61.6489
61.6473
61.6457
61.6441
61.6425
61.641
61.6394
61.6378
61.6362
61.6347
61.6331
61.6315
61.6299
61.6284
61.6268
61.6252
61.6236
61.6221
61.6205
61.6189
61.6173
61.6158
61.6142
61.6126
61.611
61.6095
61.6079
61.6063
61.6048
61.6032
61.6016
61.6
61.5985
61.5969
61.5953
61.5938
61.5922
61.5906
61.589
61.5875
61.5859
61.5843
61.5828
61.5812
61.5796
61.5781
61.5765
61.5749
61.5734
61.5718
61.5702
61.5687
61.5671
61.5655
61.5639
61.5624
61.5608
61.5592
61.5577
61.5561
61.5545
61.553
61.5514
61.5498
61.5483
61.5467
61.5452
61.5436
61.542
61.5405
61.5389
61.5373
61.5358
61.5342
61.5326
61.5311
61.5295
61.5279
61.5264
61.5248
61.5232
61.5217
61.5201
61.5186
61.517
61.5154
61.5139
61.5123
61.5107
61.5092
61.5076
61.5061
61.5045
61.5029
61.5014
61.4998
61.4982
61.4967
61.4951
61.4936
61.492
61.4904
61.4889
61.4873
61.4858
61.4842
61.4826
61.4811
61.4795
61.478
61.4764
61.4748
61.4733
61.4717
61.4702
61.4686
61.467
61.4655
61.4639
61.4624
61.4608
61.4592
61.4577
61.4561
61.4546
61.453
61.4514
61.4499
61.4483
61.4468
61.4452
61.4437
61.4421
61.4405
61.439
61.4374
61.4359
61.4343
61.4327
61.4312
61.4296
61.4281
61.4265
61.425
61.4234
61.4218
61.4203
61.4187
61.4172
61.4156
61.4141
61.4125
61.4109
61.4094
61.4078
61.4063
61.4047
61.4032
61.4016
61.4001
61.3985
61.3969
61.3954
61.3938
61.3923
61.3907
61.3892
61.3876
61.3861
61.3845
61.3829
61.3814
61.3798
61.3783
61.3767
61.3752
61.3736
61.3721
61.3705
61.369
61.3674
61.3658
61.3643
61.3627
61.3612
61.3596
61.3581
61.3565
61.355
61.3534
61.3519
61.3503
61.3488
61.3472
61.3456
61.3441
61.3425
61.341
61.3394
61.3379
61.3363
61.3348
61.3332
61.3317
61.3301
61.3286
61.327
61.3255
61.3239
61.3224
61.3208
61.3192
61.3177
61.3161
61.3146
61.313
61.3115
61.3099
61.3084
61.3068
61.3053
61.3037
61.3022
61.3006
61.2991
61.2975
61.296
61.2944
61.2929
61.2913
61.2898
61.2882
61.2867
61.2851
61.2836
61.282
61.2805
61.2789
61.2774
61.2758
61.2743
61.2727
61.2711
61.2696
61.268
61.2665
61.2649
61.2634
61.2618
61.2603
61.2587
61.2572
61.2556
61.2541
61.2525
61.251
61.2494
61.2479
61.2463
61.2448
61.2432
61.2417
61.2401
61.2386
61.237
61.2355
61.2339
61.2324
61.2308
61.2293
61.2277
61.2262
61.2246
61.2231
61.2216
61.22
61.2185
61.2169
61.2154
61.2138
61.2123
61.2107
61.2092
61.2076
61.2061
61.2045
61.203
61.2014
61.1999
61.1983
61.1968
61.1952
61.1937
61.1921
61.1906
61.189
61.1875
61.1859
61.1844
61.1828
61.1813
61.1797
61.1782
61.1766
61.1751
61.1735
61.172
61.1705
61.1689
61.1674
61.1658
61.1643
61.1627
61.1612
61.1596
61.1581
61.1565
61.155
61.1534
61.1519
61.1503
61.1488
61.1472
61.1457
61.1441
61.1426
61.1411
61.1395
61.138
61.1364
61.1349
61.1333
61.1318
61.1302
61.1302
64.5662
64.5662
63.0082
62.7524
62.6869
62.6586
62.6417
62.6297
62.6202
62.6122
62.6051
62.5987
62.5928
62.5871
62.5818
62.5767
62.5717
62.5668
62.5621
62.5575
62.5529
62.5484
62.544
62.5397
62.5354
62.5312
62.527
62.5229
62.5189
62.5148
62.5109
62.5069
62.5031
62.4992
62.4954
62.4917
62.488
62.4843
62.4807
62.4771
62.4735
62.47
62.4665
62.463
62.4596
62.4562
62.4528
62.4495
62.4462
62.4429
62.4397
62.4364
62.4332
62.4301
62.4269
62.4238
62.4207
62.4176
62.4145
62.4115
62.4085
62.4055
62.4025
62.3996
62.3967
62.3937
62.3908
62.388
62.3851
62.3823
62.3794
62.3766
62.3738
62.3711
62.3683
62.3656
62.3628
62.3601
62.3574
62.3548
62.3521
62.3494
62.3468
62.3442
62.3415
62.3389
62.3363
62.3338
62.3312
62.3286
62.3261
62.3236
62.321
62.3185
62.316
62.3136
62.3111
62.3086
62.3062
62.3037
62.3013
62.2988
62.2964
62.294
62.2916
62.2892
62.2869
62.2845
62.2821
62.2798
62.2774
62.2751
62.2728
62.2705
62.2681
62.2658
62.2635
62.2613
62.259
62.2567
62.2544
62.2522
62.2499
62.2477
62.2455
62.2432
62.241
62.2388
62.2366
62.2344
62.2322
62.23
62.2278
62.2257
62.2235
62.2213
62.2192
62.217
62.2149
62.2127
62.2106
62.2085
62.2064
62.2042
62.2021
62.2
62.1979
62.1958
62.1937
62.1917
62.1896
62.1875
62.1855
62.1834
62.1813
62.1793
62.1772
62.1752
62.1732
62.1711
62.1691
62.1671
62.1651
62.163
62.161
62.159
62.157
62.155
62.153
62.151
62.1491
62.1471
62.1451
62.1431
62.1412
62.1392
62.1372
62.1353
62.1333
62.1314
62.1294
62.1275
62.1256
62.1236
62.1217
62.1198
62.1179
62.1159
62.114
62.1121
62.1102
62.1083
62.1064
62.1045
62.1026
62.1007
62.0988
62.0969
62.0951
62.0932
62.0913
62.0894
62.0876
62.0857
62.0838
62.082
62.0801
62.0783
62.0764
62.0746
62.0727
62.0709
62.069
62.0672
62.0654
62.0635
62.0617
62.0599
62.058
62.0562
62.0544
62.0526
62.0508
62.049
62.0472
62.0453
62.0435
62.0417
62.0399
62.0381
62.0363
62.0346
62.0328
62.031
62.0292
62.0274
62.0256
62.0238
62.0221
62.0203
62.0185
62.0167
62.015
62.0132
62.0114
62.0097
62.0079
62.0062
62.0044
62.0027
62.0009
61.9992
61.9974
61.9957
61.9939
61.9922
61.9904
61.9887
61.9869
61.9852
61.9835
61.9817
61.98
61.9783
61.9766
61.9748
61.9731
61.9714
61.9697
61.9679
61.9662
61.9645
61.9628
61.9611
61.9594
61.9577
61.9559
61.9542
61.9525
61.9508
61.9491
61.9474
61.9457
61.944
61.9423
61.9406
61.9389
61.9372
61.9355
61.9339
61.9322
61.9305
61.9288
61.9271
61.9254
61.9237
61.9221
61.9204
61.9187
61.917
61.9153
61.9137
61.912
61.9103
61.9086
61.907
61.9053
61.9036
61.902
61.9003
61.8986
61.897
61.8953
61.8936
61.892
61.8903
61.8887
61.887
61.8854
61.8837
61.882
61.8804
61.8787
61.8771
61.8754
61.8738
61.8721
61.8705
61.8688
61.8672
61.8655
61.8639
61.8622
61.8606
61.859
61.8573
61.8557
61.854
61.8524
61.8508
61.8491
61.8475
61.8458
61.8442
61.8426
61.8409
61.8393
61.8377
61.836
61.8344
61.8328
61.8312
61.8295
61.8279
61.8263
61.8247
61.823
61.8214
61.8198
61.8182
61.8165
61.8149
61.8133
61.8117
61.81
61.8084
61.8068
61.8052
61.8036
61.802
61.8003
61.7987
61.7971
61.7955
61.7939
61.7923
61.7906
61.789
61.7874
61.7858
61.7842
61.7826
61.781
61.7794
61.7778
61.7762
61.7745
61.7729
61.7713
61.7697
61.7681
61.7665
61.7649
61.7633
61.7617
61.7601
61.7585
61.7569
61.7553
61.7537
61.7521
61.7505
61.7489
61.7473
61.7457
61.7441
61.7425
61.7409
61.7393
61.7377
61.7361
61.7345
61.7329
61.7313
61.7297
61.7281
61.7265
61.725
61.7234
61.7218
61.7202
61.7186
61.717
61.7154
61.7138
61.7122
61.7106
61.709
61.7074
61.7059
61.7043
61.7027
61.7011
61.6995
61.6979
61.6963
61.6947
61.6932
61.6916
61.69
61.6884
61.6868
61.6852
61.6836
61.6821
61.6805
61.6789
61.6773
61.6757
61.6741
61.6726
61.671
61.6694
61.6678
61.6662
61.6647
61.6631
61.6615
61.6599
61.6583
61.6568
61.6552
61.6536
61.652
61.6504
61.6489
61.6473
61.6457
61.6441
61.6425
61.641
61.6394
61.6378
61.6362
61.6347
61.6331
61.6315
61.6299
61.6284
61.6268
61.6252
61.6236
61.6221
61.6205
61.6189
61.6173
61.6158
61.6142
61.6126
61.6111
61.6095
61.6079
61.6063
61.6048
61.6032
61.6016
61.6
61.5985
61.5969
61.5953
61.5938
61.5922
61.5906
61.5891
61.5875
61.5859
61.5843
61.5828
61.5812
61.5796
61.5781
61.5765
61.5749
61.5734
61.5718
61.5702
61.5687
61.5671
61.5655
61.564
61.5624
61.5608
61.5593
61.5577
61.5561
61.5546
61.553
61.5514
61.5499
61.5483
61.5467
61.5452
61.5436
61.542
61.5405
61.5389
61.5373
61.5358
61.5342
61.5326
61.5311
61.5295
61.5279
61.5264
61.5248
61.5233
61.5217
61.5201
61.5186
61.517
61.5154
61.5139
61.5123
61.5107
61.5092
61.5076
61.5061
61.5045
61.5029
61.5014
61.4998
61.4982
61.4967
61.4951
61.4936
61.492
61.4904
61.4889
61.4873
61.4858
61.4842
61.4826
61.4811
61.4795
61.478
61.4764
61.4748
61.4733
61.4717
61.4702
61.4686
61.467
61.4655
61.4639
61.4624
61.4608
61.4592
61.4577
61.4561
61.4546
61.453
61.4514
61.4499
61.4483
61.4468
61.4452
61.4437
61.4421
61.4405
61.439
61.4374
61.4359
61.4343
61.4328
61.4312
61.4296
61.4281
61.4265
61.425
61.4234
61.4218
61.4203
61.4187
61.4172
61.4156
61.4141
61.4125
61.411
61.4094
61.4078
61.4063
61.4047
61.4032
61.4016
61.4001
61.3985
61.3969
61.3954
61.3938
61.3923
61.3907
61.3892
61.3876
61.3861
61.3845
61.383
61.3814
61.3798
61.3783
61.3767
61.3752
61.3736
61.3721
61.3705
61.369
61.3674
61.3659
61.3643
61.3627
61.3612
61.3596
61.3581
61.3565
61.355
61.3534
61.3519
61.3503
61.3488
61.3472
61.3457
61.3441
61.3425
61.341
61.3394
61.3379
61.3363
61.3348
61.3332
61.3317
61.3301
61.3286
61.327
61.3255
61.3239
61.3224
61.3208
61.3193
61.3177
61.3161
61.3146
61.313
61.3115
61.3099
61.3084
61.3068
61.3053
61.3037
61.3022
61.3006
61.2991
61.2975
61.296
61.2944
61.2929
61.2913
61.2898
61.2882
61.2867
61.2851
61.2836
61.282
61.2805
61.2789
61.2774
61.2758
61.2743
61.2727
61.2712
61.2696
61.2681
61.2665
61.265
61.2634
61.2618
61.2603
61.2587
61.2572
61.2556
61.2541
61.2525
61.251
61.2494
61.2479
61.2463
61.2448
61.2432
61.2417
61.2401
61.2386
61.237
61.2355
61.234
61.2324
61.2309
61.2293
61.2278
61.2262
61.2247
61.2231
61.2216
61.22
61.2185
61.2169
61.2154
61.2138
61.2123
61.2107
61.2092
61.2076
61.2061
61.2045
61.203
61.2014
61.1999
61.1983
61.1968
61.1952
61.1937
61.1921
61.1906
61.189
61.1875
61.1859
61.1844
61.1828
61.1813
61.1797
61.1782
61.1766
61.1751
61.1736
61.172
61.1705
61.1689
61.1674
61.1658
61.1643
61.1627
61.1612
61.1596
61.1581
61.1565
61.155
61.1534
61.1519
61.1503
61.1488
61.1472
61.1457
61.1442
61.1426
61.1411
61.1395
61.138
61.1364
61.1349
61.1333
61.1318
61.1302
61.1302
63.8767
63.8767
62.9924
62.7591
62.6906
62.6606
62.643
62.6306
62.6209
62.6127
62.6055
62.5991
62.593
62.5874
62.582
62.5768
62.5718
62.567
62.5622
62.5576
62.553
62.5485
62.5441
62.5398
62.5355
62.5313
62.5271
62.523
62.5189
62.5149
62.5109
62.507
62.5031
62.4993
62.4955
62.4917
62.488
62.4843
62.4807
62.4771
62.4735
62.47
62.4665
62.4631
62.4596
62.4562
62.4529
62.4495
62.4462
62.4429
62.4397
62.4364
62.4332
62.4301
62.4269
62.4238
62.4207
62.4176
62.4146
62.4115
62.4085
62.4055
62.4025
62.3996
62.3967
62.3938
62.3909
62.388
62.3851
62.3823
62.3795
62.3767
62.3739
62.3711
62.3683
62.3656
62.3629
62.3601
62.3574
62.3548
62.3521
62.3494
62.3468
62.3442
62.3415
62.3389
62.3363
62.3338
62.3312
62.3286
62.3261
62.3236
62.3211
62.3185
62.316
62.3136
62.3111
62.3086
62.3062
62.3037
62.3013
62.2989
62.2964
62.294
62.2916
62.2892
62.2869
62.2845
62.2821
62.2798
62.2774
62.2751
62.2728
62.2705
62.2681
62.2658
62.2636
62.2613
62.259
62.2567
62.2545
62.2522
62.2499
62.2477
62.2455
62.2432
62.241
62.2388
62.2366
62.2344