# vtk DataFile Version 2.0
FlowField
ASCII
DATASET STRUCTURED_GRID
DIMENSIONS 800 1 200
POINTS 160000 float
0 0 0
0.04 0 0
0.08 0 0
0.12 0 0
0.16 0 0
0.2 0 0
0.24 0 0
0.28 0 0
0.32 0 0
0.36 0 0
0.4 0 0
0.44 0 0
0.48 0 0
0.52 0 0
0.56 0 0
0.6 0 0
0.64 0 0
0.68 0 0
0.72 0 0
0.76 0 0
0.8 0 0
0.84 0 0
0.88 0 0
0.92 0 0
0.96 0 0
1 0 0
1.04 0 0
1.08 0 0
1.12 0 0
1.16 0 0
1.2 0 0
1.24 0 0
1.28 0 0
1.32 0 0
1.36 0 0
1.4 0 0
1.44 0 0
1.48 0 0
1.52 0 0
1.56 0 0
1.6 0 0
1.64 0 0
1.68 0 0
1.72 0 0
1.76 0 0
1.8 0 0
1.84 0 0
1.88 0 0
1.92 0 0
1.96 0 0
2 0 0
2.04 0 0
2.08 0 0
2.12 0 0
2.16 0 0
2.2 0 0
2.24 0 0
2.28 0 0
2.32 0 0
2.36 0 0
2.4 0 0
2.44 0 0
2.48 0 0
2.52 0 0
2.56 0 0
2.6 0 0
2.64 0 0
2.68 0 0
2.72 0 0
2.76 0 0
2.8 0 0
2.84 0 0
2.88 0 0
2.92 0 0
2.96 0 0
3 0 0
3.04 0 0
3.08 0 0
3.12 0 0
3.16 0 0
3.2 0 0
3.24 0 0
3.28 0 0
3.32 0 0
3.36 0 0
3.4 0 0
3.44 0 0
3.48 0 0
3.52 0 0
3.56 0 0
3.6 0 0
3.64 0 0
3.68 0 0
3.72 0 0
3.76 0 0
3.8 0 0
3.84 0 0
3.88 0 0
3.92 0 0
3.96 0 0
4 0 0
4.04 0 0
4.08 0 0
4.12 0 0
4.16 0 0
4.2 0 0
4.24 0 0
4.28 0 0
4.32 0 0
4.36 0 0
4.4 0 0
4.44 0 0
4.48 0 0
4.52 0 0
4.56 0 0
4.6 0 0
4.64 0 0
4.68 0 0
4.72 0 0
4.76 0 0
4.8 0 0
4.84 0 0
4.88 0 0
4.92 0 0
4.96 0 0
5 0 0
5.04 0 0
5.08 0 0
5.12 0 0
5.16 0 0
5.2 0 0
5.24 0 0
5.28 0 0
5.32 0 0
5.36 0 0
5.4 0 0
5.44 0 0
5.48 0 0
5.52 0 0
5.56 0 0
5.6 0 0
5.64 0 0
5.68 0 0
5.72 0 0
5.76 0 0
5.8 0 0
5.84 0 0
5.88 0 0
5.92 0 0
5.96 0 0
6 0 0
6.04 0 0
6.08 0 0
6.12 0 0
6.16 0 0
6.2 0 0
6.24 0 0
6.28 0 0
6.32 0 0
6.36 0 0
6.4 0 0
6.44 0 0
6.48 0 0
6.52 0 0
6.56 0 0
6.6 0 0
6.64 0 0
6.68 0 0
6.72 0 0
6.76 0 0
6.8 0 0
6.84 0 0
6.88 0 0
6.92 0 0
6.96 0 0
7 0 0
7.04 0 0
7.08 0 0
7.12 0 0
7.16 0 0
7.2 0 0
7.24 0 0
7.28 0 0
7.32 0 0
7.36 0 0
7.4 0 0
7.44 0 0
7.48 0 0
7.52 0 0
7.56 0 0
7.6 0 0
7.64 0 0
7.68 0 0
7.72 0 0
7.76 0 0
7.8 0 0
7.84 0 0
7.88 0 0
7.92 0 0
7.96 0 0
8 0 0
8.04 0 0
8.08 0 0
8.12 0 0
8.16 0 0
8.2 0 0
8.24 0 0
8.28 0 0
8.32 0 0
8.36 0 0
8.4 0 0
8.44 0 0
8.48 0 0
8.52 0 0
8.56 0 0
8.6 0 0
8.64 0 0
8.68 0 0
8.72 0 0
8.76 0 0
8.8 0 0
8.84 0 0
8.88 0 0
8.92 0 0
8.96 0 0
9 0 0
9.04 0 0
9.08 0 0
9.12 0 0
9.16 0 0
9.2 0 0
9.24 0 0
9.28 0 0
9.32 0 0
9.36 0 0
9.4 0 0
9.44 0 0
9.48 0 0
9.52 0 0
9.56 0 0
9.6 0 0
9.64 0 0
9.68 0 0
9.72 0 0
9.76 0 0
9.8 0 0
9.84 0 0
9.88 0 0
9.92 0 0
9.96 0 0
10 0 0
10.04 0 0
10.08 0 0
10.12 0 0
10.16 0 0
10.2 0 0
10.24 0 0
10.28 0 0
10.32 0 0
10.36 0 0
10.4 0 0
10.44 0 0
10.48 0 0
10.52 0 0
10.56 0 0
10.6 0 0
10.64 0 0
10.68 0 0
10.72 0 0
10.76 0 0
10.8 0 0
10.84 0 0
10.88 0 0
10.92 0 0
10.96 0 0
11 0 0
11.04 0 0
11.08 0 0
11.12 0 0
11.16 0 0
11.2 0 0
11.24 0 0
11.28 0 0
11.32 0 0
11.36 0 0
11.4 0 0
11.44 0 0
11.48 0 0
11.52 0 0
11.56 0 0
11.6 0 0
11.64 0 0
11.68 0 0
11.72 0 0
11.76 0 0
11.8 0 0
11.84 0 0
11.88 0 0
11.92 0 0
11.96 0 0
12 0 0
12.04 0 0
12.08 0 0
12.12 0 0
12.16 0 0
12.2 0 0
12.24 0 0
12.28 0 0
12.32 0 0
12.36 0 0
12.4 0 0
12.44 0 0
12.48 0 0
12.52 0 0
12.56 0 0
12.6 0 0
12.64 0 0
12.68 0 0
12.72 0 0
12.76 0 0
12.8 0 0
12.84 0 0
12.88 0 0
12.92 0 0
12.96 0 0
13 0 0
13.04 0 0
13.08 0 0
13.12 0 0
13.16 0 0
13.2 0 0
13.24 0 0
13.28 0 0
13.32 0 0
13.36 0 0
13.4 0 0
13.44 0 0
13.48 0 0
13.52 0 0
13.56 0 0
13.6 0 0
13.64 0 0
13.68 0 0
13.72 0 0
13.76 0 0
13.8 0 0
13.84 0 0
13.88 0 0
13.92 0 0
13.96 0 0
14 0 0
14.04 0 0
14.08 0 0
14.12 0 0
14.16 0 0
14.2 0 0
14.24 0 0
14.28 0 0
14.32 0 0
14.36 0 0
14.4 0 0
14.44 0 0
14.48 0 0
14.52 0 0
14.56 0 0
14.6 0 0
14.64 0 0
14.68 0 0
14.72 0 0
14.76 0 0
14.8 0 0
14.84 0 0
14.88 0 0
14.92 0 0
14.96 0 0
15 0 0
15.04 0 0
15.08 0 0
15.12 0 0
15.16 0 0
15.2 0 0
15.24 0 0
15.28 0 0
15.32 0 0
15.36 0 0
15.4 0 0
15.44 0 0
15.48 0 0
15.52 0 0
15.56 0 0
15.6 0 0
15.64 0 0
15.68 0 0
15.72 0 0
15.76 0 0
15.8 0 0
15.84 0 0
15.88 0 0
15.92 0 0
15.96 0 0
16 0 0
16.04 0 0
16.08 0 0
16.12 0 0
16.16 0 0
16.2 0 0
16.24 0 0
16.28 0 0
16.32 0 0
16.36 0 0
16.4 0 0
16.44 0 0
16.48 0 0
16.52 0 0
16.56 0 0
16.6 0 0
16.64 0 0
16.68 0 0
16.72 0 0
16.76 0 0
16.8 0 0
16.84 0 0
16.88 0 0
16.92 0 0
16.96 0 0
17 0 0
17.04 0 0
17.08 0 0
17.12 0 0
17.16 0 0
17.2 0 0
17.24 0 0
17.28 0 0
17.32 0 0
17.36 0 0
17.4 0 0
17.44 0 0
17.48 0 0
17.52 0 0
17.56 0 0
17.6 0 0
17.64 0 0
17.68 0 0
17.72 0 0
17.76 0 0
17.8 0 0
17.84 0 0
17.88 0 0
17.92 0 0
17.96 0 0
18 0 0
18.04 0 0
18.08 0 0
18.12 0 0
18.16 0 0
18.2 0 0
18.24 0 0
18.28 0 0
18.32 0 0
18.36 0 0
18.4 0 0
18.44 0 0
18.48 0 0
18.52 0 0
18.56 0 0
18.6 0 0
18.64 0 0
18.68 0 0
18.72 0 0
18.76 0 0
18.8 0 0
18.84 0 0
18.88 0 0
18.92 0 0
18.96 0 0
19 0 0
19.04 0 0
19.08 0 0
19.12 0 0
19.16 0 0
19.2 0 0
19.24 0 0
19.28 0 0
19.32 0 0
19.36 0 0
19.4 0 0
19.44 0 0
19.48 0 0
19.52 0 0
19.56 0 0
19.6 0 0
19.64 0 0
19.68 0 0
19.72 0 0
19.76 0 0
19.8 0 0
19.84 0 0
19.88 0 0
19.92 0 0
19.96 0 0
20 0 0
20.04 0 0
20.08 0 0
20.12 0 0
20.16 0 0
20.2 0 0
20.24 0 0
20.28 0 0
20.32 0 0
20.36 0 0
20.4 0 0
20.44 0 0
20.48 0 0
20.52 0 0
20.56 0 0
20.6 0 0
20.64 0 0
20.68 0 0
20.72 0 0
20.76 0 0
20.8 0 0
20.84 0 0
20.88 0 0
20.92 0 0
20.96 0 0
21 0 0
21.04 0 0
21.08 0 0
21.12 0 0
21.16 0 0
21.2 0 0
21.24 0 0
21.28 0 0
21.32 0 0
21.36 0 0
21.4 0 0
21.44 0 0
21.48 0 0
21.52 0 0
21.56 0 0
21.6 0 0
21.64 0 0
21.68 0 0
21.72 0 0
21.76 0 0
21.8 0 0
21.84 0 0
21.88 0 0
21.92 0 0
21.96 0 0
22 0 0
22.04 0 0
22.08 0 0
22.12 0 0
22.16 0 0
22.2 0 0
22.24 0 0
22.28 0 0
22.32 0 0
22.36 0 0
22.4 0 0
22.44 0 0
22.48 0 0
22.52 0 0
22.56 0 0
22.6 0 0
22.64 0 0
22.68 0 0
22.72 0 0
22.76 0 0
22.8 0 0
22.84 0 0
22.88 0 0
22.92 0 0
22.96 0 0
23 0 0
23.04 0 0
23.08 0 0
23.12 0 0
23.16 0 0
23.2 0 0
23.24 0 0
23.28 0 0
23.32 0 0
23.36 0 0
23.4 0 0
23.44 0 0
23.48 0 0
23.52 0 0
23.56 0 0
23.6 0 0
23.64 0 0
23.68 0 0
23.72 0 0
23.76 0 0
23.8 0 0
23.84 0 0
23.88 0 0
23.92 0 0
23.96 0 0
24 0 0
24.04 0 0
24.08 0 0
24.12 0 0
24.16 0 0
24.2 0 0
24.24 0 0
24.28 0 0
24.32 0 0
24.36 0 0
24.4 0 0
24.44 0 0
24.48 0 0
24.52 0 0
24.56 0 0
24.6 0 0
24.64 0 0
24.68 0 0
24.72 0 0
24.76 0 0
24.8 0 0
24.84 0 0
24.88 0 0
24.92 0 0
24.96 0 0
25 0 0
25.04 0 0
25.08 0 0
25.12 0 0
25.16 0 0
25.2 0 0
25.24 0 0
25.28 0 0
25.32 0 0
25.36 0 0
25.4 0 0
25.44 0 0
25.48 0 0
25.52 0 0
25.56 0 0
25.6 0 0
25.64 0 0
25.68 0 0
25.72 0 0
25.76 0 0
25.8 0 0
25.84 0 0
25.88 0 0
25.92 0 0
25.96 0 0
26 0 0
26.04 0 0
26.08 0 0
26.12 0 0
26.16 0 0
26.2 0 0
26.24 0 0
26.28 0 0
26.32 0 0
26.36 0 0
26.4 0 0
26.44 0 0
26.48 0 0
26.52 0 0
26.56 0 0
26.6 0 0
26.64 0 0
26.68 0 0
26.72 0 0
26.76 0 0
26.8 0 0
26.84 0 0
26.88 0 0
26.92 0 0
26.96 0 0
27 0 0
27.04 0 0
27.08 0 0
27.12 0 0
27.16 0 0
27.2 0 0
27.24 0 0
27.28 0 0
27.32 0 0
27.36 0 0
27.4 0 0
27.44 0 0
27.48 0 0
27.52 0 0
27.56 0 0
27.6 0 0
27.64 0 0
27.68 0 0
27.72 0 0
27.76 0 0
27.8 0 0
27.84 0 0
27.88 0 0
27.92 0 0
27.96 0 0
28 0 0
28.04 0 0
28.08 0 0
28.12 0 0
28.16 0 0
28.2 0 0
28.24 0 0
28.28 0 0
28.32 0 0
28.36 0 0
28.4 0 0
28.44 0 0
28.48 0 0
28.52 0 0
28.56 0 0
28.6 0 0
28.64 0 0
28.68 0 0
28.72 0 0
28.76 0 0
28.8 0 0
28.84 0 0
28.88 0 0
28.92 0 0
28.96 0 0
29 0 0
29.04 0 0
29.08 0 0
29.12 0 0
29.16 0 0
29.2 0 0
29.24 0 0
29.28 0 0
29.32 0 0
29.36 0 0
29.4 0 0
29.44 0 0
29.48 0 0
29.52 0 0
29.56 0 0
29.6 0 0
29.64 0 0
29.68 0 0
29.72 0 0
29.76 0 0
29.8 0 0
29.84 0 0
29.88 0 0
29.92 0 0
29.96 0 0
30 0 0
30.04 0 0
30.08 0 0
30.12 0 0
30.16 0 0
30.2 0 0
30.24 0 0
30.28 0 0
30.32 0 0
30.36 0 0
30.4 0 0
30.44 0 0
30.48 0 0
30.52 0 0
30.56 0 0
30.6 0 0
30.64 0 0
30.68 0 0
30.72 0 0
30.76 0 0
30.8 0 0
30.84 0 0
30.88 0 0
30.92 0 0
30.96 0 0
31 0 0
31.04 0 0
31.08 0 0
31.12 0 0
31.16 0 0
31.2 0 0
31.24 0 0
31.28 0 0
31.32 0 0
31.36 0 0
31.4 0 0
31.44 0 0
31.48 0 0
31.52 0 0
31.56 0 0
31.6 0 0
31.64 0 0
31.68 0 0
31.72 0 0
31.76 0 0
31.8 0 0
31.84 0 0
31.88 0 0
31.92 0 0
31.96 0 0
0 0.005 0
0.04 0.005 0
0.08 0.005 0
0.12 0.005 0
0.16 0.005 0
0.2 0.005 0
0.24 0.005 0
0.28 0.005 0
0.32 0.005 0
0.36 0.005 0
0.4 0.005 0
0.44 0.005 0
0.48 0.005 0
0.52 0.005 0
0.56 0.005 0
0.6 0.005 0
0.64 0.005 0
0.68 0.005 0
0.72 0.005 0
0.76 0.005 0
0.8 0.005 0
0.84 0.005 0
0.88 0.005 0
0.92 0.005 0
0.96 0.005 0
1 0.005 0
1.04 0.005 0
1.08 0.005 0
1.12 0.005 0
1.16 0.005 0
1.2 0.005 0
1.24 0.005 0
1.28 0.005 0
1.32 0.005 0
1.36 0.005 0
1.4 0.005 0
1.44 0.005 0
1.48 0.005 0
1.52 0.005 0
1.56 0.005 0
1.6 0.005 0
1.64 0.005 0
1.68 0.005 0
1.72 0.005 0
1.76 0.005 0
1.8 0.005 0
1.84 0.005 0
1.88 0.005 0
1.92 0.005 0
1.96 0.005 0
2 0.005 0
2.04 0.005 0
2.08 0.005 0
2.12 0.005 0
2.16 0.005 0
2.2 0.005 0
2.24 0.005 0
2.28 0.005 0
2.32 0.005 0
2.36 0.005 0
2.4 0.005 0
2.44 0.005 0
2.48 0.005 0
2.52 0.005 0
2.56 0.005 0
2.6 0.005 0
2.64 0.005 0
2.68 0.005 0
2.72 0.005 0
2.76 0.005 0
2.8 0.005 0
2.84 0.005 0
2.88 0.005 0
2.92 0.005 0
2.96 0.005 0
3 0.005 0
3.04 0.005 0
3.08 0.005 0
3.12 0.005 0
3.16 0.005 0
3.2 0.005 0
3.24 0.005 0
3.28 0.005 0
3.32 0.005 0
3.36 0.005 0
3.4 0.005 0
3.44 0.005 0
3.48 0.005 0
3.52 0.005 0
3.56 0.005 0
3.6 0.005 0
3.64 0.005 0
3.68 0.005 0
3.72 0.005 0
3.76 0.005 0
3.8 0.005 0
3.84 0.005 0
3.88 0.005 0
3.92 0.005 0
3.96 0.005 0
4 0.005 0
4.04 0.005 0
4.08 0.005 0
4.12 0.005 0
4.16 0.005 0
4.2 0.005 0
4.24 0.005 0
4.28 0.005 0
4.32 0.005 0
4.36 0.005 0
4.4 0.005 0
4.44 0.005 0
4.48 0.005 0
4.52 0.005 0
4.56 0.005 0
4.6 0.005 0
4.64 0.005 0
4.68 0.005 0
4.72 0.005 0
4.76 0.005 0
4.8 0.005 0
4.84 0.005 0
4.88 0.005 0
4.92 0.005 0
4.96 0.005 0
5 0.005 0
5.04 0.005 0
5.08 0.005 0
5.12 0.005 0
5.16 0.005 0
5.2 0.005 0
5.24 0.005 0
5.28 0.005 0
5.32 0.005 0
5.36 0.005 0
5.4 0.005 0
5.44 0.005 0
5.48 0.005 0
5.52 0.005 0
5.56 0.005 0
5.6 0.005 0
5.64 0.005 0
5.68 0.005 0
5.72 0.005 0
5.76 0.005 0
5.8 0.005 0
5.84 0.005 0
5.88 0.005 0
5.92 0.005 0
5.96 0.005 0
6 0.005 0
6.04 0.005 0
6.08 0.005 0
6.12 0.005 0
6.16 0.005 0
6.2 0.005 0
6.24 0.005 0
6.28 0.005 0
6.32 0.005 0
6.36 0.005 0
6.4 0.005 0
6.44 0.005 0
6.48 0.005 0
6.52 0.005 0
6.56 0.005 0
6.6 0.005 0
6.64 0.005 0
6.68 0.005 0
6.72 0.005 0
6.76 0.005 0
6.8 0.005 0
6.84 0.005 0
6.88 0.005 0
6.92 0.005 0
6.96 0.005 0
7 0.005 0
7.04 0.005 0
7.08 0.005 0
7.12 0.005 0
7.16 0.005 0
7.2 0.005 0
7.24 0.005 0
7.28 0.005 0
7.32 0.005 0
7.36 0.005 0
7.4 0.005 0
[...]
POINT_DATA 160000

SCALARS phi float 1
LOOKUP_TABLE default
1
1
1
1
1
1
1
1
1
1
1
1
1
1
1
1
1
1
1
1
1
1
1
1
1
1
1
1
1
1
1
1
1
1
1
0.999999
0.999999
0.999999
0.999999
0.999998
0.999997
0.999997
0.999995
0.999994
0.999992
0.99999
0.999988
0.999985
0.999982
0.999978
0.999973
0.999968
0.999961
0.999954
0.999946
0.999937
0.999926
0.999914
0.999901
0.999886
0.99987
0.999852
0.999832
0.99981
0.999786
0.99976
0.999731
0.9997
0.999667
0.999631
0.999592
0.99955
0.999505
0.999457
0.999406
0.999352
0.999294
0.999232
0.999167
0.999099
0.999026
0.998949
0.998869
0.998784
0.998695
0.998602
0.998504
0.998403
0.998296
0.998185
0.998069
0.997949
0.997824
0.997694
0.997559
0.997419
0.997275
0.997125
0.99697
0.99681
0.996645
0.996475
0.9963
0.996119
0.995933
0.995742
0.995546
0.995344
0.995137
0.994925
0.994707
0.994484
0.994256
0.994022
0.993783
0.993539
0.993289
0.993034
0.992774
0.992508
0.992237
0.991961
0.99168
0.991393
0.991101
0.990804
0.990502
0.990194
0.989881
0.989564
0.98924
0.988912
0.988579
0.988241
0.987897
0.987549
0.987195
0.986837
0.986473
0.986105
0.985731
0.985352
0.984968
0.984579
0.984185
0.983786
0.983382
0.982972
0.982557
0.982137
0.981712
0.981281
0.980844
0.980402
0.979954
0.979501
0.979041
0.978575
0.978103
0.977625
0.97714
0.976648
0.976149
0.975644
0.97513
0.97461
0.974081
0.973545
0.973
0.972446
0.971884
0.971312
0.970731
0.97014
0.969539
0.968928
0.968306
0.967672
0.967028
0.966371
0.965702
0.96502
0.964326
0.963618
0.962896
0.96216
0.961409
0.960644
0.959863
0.959066
0.958253
0.957423
0.956576
0.955712
0.95483
0.95393
0.953011
0.952074
0.951116
0.95014
0.949142
0.948125
0.947087
0.946027
0.944946
0.943843
0.942718
0.941571
0.940401
0.939207
0.937991
0.93675
0.935486
0.934198
0.932886
0.931549
0.930187
0.928801
0.927389
0.925952
0.92449
0.923002
0.921488
0.919949
0.918384
0.916793
0.915176
0.913532
0.911863
0.910168
0.908446
0.906698
0.904925
0.903124
0.901298
0.899446
0.897568
0.895664
0.893734
0.891779
0.889797
0.88779
0.885758
0.883701
0.881618
0.879511
0.877378
0.875222
0.87304
0.870835
0.868605
0.866352
0.864075
0.861774
0.859451
0.857104
0.854735
0.852344
0.84993
0.847495
0.845037
0.842559
0.84006
0.837539
0.834999
0.832438
0.829857
0.827257
0.824638
0.821999
0.819342
0.816667
0.813974
0.811263
0.808535
0.80579
0.803028
0.80025
0.797455
0.794645
0.79182
0.78898
0.786125
0.783256
0.780373
0.777476
0.774566
0.771643
0.768707
0.76576
0.7628
0.759828
0.756845
0.753852
0.750847
0.747833
0.744808
0.741774
0.73873
0.735678
0.732616
0.729547
0.726469
0.723384
0.720292
0.717192
0.714086
0.710973
0.707854
0.704729
0.701599
0.698463
0.695323
0.692177
0.689028
0.685874
0.682717
0.679556
0.676392
0.673225
0.670055
0.666883
0.663709
0.660533
0.657355
0.654176
0.650995
0.647814
0.644633
0.641451
0.638268
0.635086
0.631905
0.628724
0.625543
0.622364
0.619186
0.616009
0.612834
0.609662
0.606491
0.603322
0.600156
0.596993
0.593833
0.590675
0.587521
0.584371
0.581224
0.578081
0.574942
0.571807
0.568677
0.565551
0.56243
0.559314
0.556203
0.553097
0.549996
0.546901
0.543811
0.540728
0.53765
0.534578
0.531512
0.528453
0.5254
0.522354
0.519315
0.516282
0.513256
0.510238
0.507226
0.504222
0.501226
0.498236
0.495255
0.492281
0.489315
0.486357
0.483407
0.480465
0.477531
0.474606
0.471689
0.46878
0.46588
0.462989
0.460106
0.457232
0.454367
0.45151
0.448663
0.445825
0.442996
0.440176
0.437365
0.434564
0.431772
0.428989
0.426216
0.423452
0.420698
0.417954
0.415219
0.412494
0.409779
0.407073
0.404377
0.401692
0.399016
0.39635
0.393694
0.391048
0.388412
0.385786
0.38317
0.380564
0.377968
0.375383
0.372808
0.370243
0.367688
0.365143
0.362609
0.360085
0.357571
0.355068
0.352575
0.350092
0.347619
0.345157
0.342706
0.340264
0.337833
0.335413
0.333002
0.330602
0.328213
0.325834
0.323465
0.321107
0.318759
0.316421
0.314094
0.311777
0.30947
0.307174
0.304889
0.302613
0.300348
0.298093
0.295849
0.293614
0.291391
0.289177
0.286974
0.28478
0.282598
0.280425
0.278263
0.27611
0.273968
0.271836
0.269715
0.267603
0.265501
0.26341
0.261329
0.259257
0.257196
0.255145
0.253103
0.251072
0.249051
0.247039
0.245037
0.243046
0.241064
0.239092
0.237129
0.235177
0.233234
0.231301
0.229378
0.227464
0.22556
0.223666
0.221781
0.219906
0.21804
0.216184
0.214337
0.2125
0.210672
0.208853
0.207044
0.205244
0.203454
0.201673
0.199901
0.198138
0.196385
0.19464
0.192905
0.191179
0.189462
0.187754
0.186055
0.184365
0.182684
0.181012
0.179349
0.177694
0.176049
0.174412
0.172784
0.171165
0.169554
0.167952
0.166359
0.164775
0.163199
0.161631
0.160072
0.158522
0.15698
0.155447
0.153922
0.152405
0.150897
0.149397
0.147905
0.146422
0.144947
0.14348
0.142021
0.140571
0.139128
0.137694
0.136268
0.13485
0.13344
0.132037
0.130643
0.129257
0.127879
0.126508
0.125146
0.123791
0.122444
0.121105
0.119774
0.11845
0.117135
0.115826
0.114526
0.113233
0.111948
0.11067
0.109401
0.108138
0.106883
0.105636
0.104396
0.103164
0.101939
0.100722
0.0995117
0.0983091
0.097114
0.0959262
0.0947458
0.0935727
0.0924069
0.0912485
0.0900974
0.0889535
0.0878169
0.0866876
0.0855655
0.0844506
0.0833429
0.0822425
0.0811492
0.0800631
0.0789842
0.0779124
0.0768478
0.0757903
0.07474
0.0736967
0.0726606
0.0716316
0.0706097
0.0695949
0.0685871
0.0675865
0.0665929
0.0656064
0.0646269
0.0636545
0.0626892
0.061731
0.0607798
0.0598356
0.0588985
0.0579685
0.0570455
0.0561296
0.0552208
0.054319
0.0534243
0.0525366
0.0516561
0.0507826
0.0499162
0.0490569
0.0482046
0.0473595
0.0465215
0.0456906
0.0448669
0.0440503
0.0432408
0.0424385
0.0416433
0.0408554
0.0400746
0.0393011
0.0385347
0.0377756
0.0370238
0.0362792
0.0355419
0.0348118
0.0340891
0.0333738
0.0326657
0.0319651
0.0312718
0.030586
0.0299075
0.0292365
0.028573
0.0279169
0.0272684
0.0266274
0.0259939
0.025368
0.0247497
0.0241391
0.023536
0.0229407
0.022353
0.021773
0.0212008
0.0206363
0.0200797
0.0195308
0.0189898
0.0184566
0.0179313
0.0174138
0.0169044
0.0164028
0.0159092
0.0154236
0.0149461
0.0144765
0.014015
0.0135616
0.0131162
0.0126789
0.0122498
0.0118288
0.0114159
0.0110112
0.0106146
0.0102262
0.00984595
0.00947389
0.00911
0.00875429
0.00840676
0.00806739
0.00773618
0.00741312
0.00709819
0.00679138
0.00649266
0.00620202
0.00591942
0.00564484
0.00537824
0.00511958
0.00486881
0.0046259
0.00439078
0.00416341
0.00394371
0.00373163
0.0035271
0.00333003
0.00314035
0.00295796
0.00278278
0.00261472
0.00245365
0.00229949
0.00215211
0.00201139
0.00187721
0.00174943
0.00162793
0.00151255
0.00140316
0.0012996
0.00120172
0.00110934
0.00102232
0.000940478
0.000863642
0.000791639
0.00072429
0.000661414
0.000602829
0.000548351
0.000497798
0.000450983
0.000407723
0.000367837
0.000331142
0.00029746
0.000266616
0.000238435
0.000212751
0.000189398
0.000168218
0.000149055
0.000131762
0.000116197
0.000102222
8.9708e-05
7.85323e-05
6.85781e-05
5.97357e-05
5.19023e-05
4.49817e-05
3.88844e-05
3.35272e-05
2.88334e-05
2.47325e-05
2.11594e-05
1.80552e-05
1.53659e-05
1.30427e-05
1.10415e-05
9.32248e-06
7.85019e-06
6.5928e-06
5.52202e-06
4.61279e-06
3.84294e-06
3.193e-06
2.64586e-06
2.18658e-06
1.80218e-06
1.48136e-06
1.21439e-06
9.9285e-07
8.09549e-07
6.58318e-07
5.33902e-07
4.3184e-07
3.48353e-07
2.80255e-07
2.24868e-07
1.79945e-07
1.43614e-07
1.14313e-07
9.07495e-08
7.18521e-08
5.67395e-08
4.46873e-08
3.51025e-08
2.75012e-08
2.14894e-08
1.67479e-08
1.30186e-08
1.00932e-08
7.80513e-09
6.01968e-09
4.63149e-09
3.55261e-09
2.72135e-09
2.07235e-09
1.59068e-09
1.19375e-09
1.19375e-09
1
1
1
1
1
1
1
1
1
1
1
1
1
1
1
1
1
1
1
1
1
1
1
1
1
1
1
1
1
1
1
1
1
1
1
0.999999
0.999999
0.999999
0.999999
0.999998
0.999997
0.999997
0.999995
0.999994
0.999992
0.99999
0.999988
0.999985
0.999982
0.999978
0.999973
0.999968
0.999961
0.999954
0.999946
0.999937
0.999926
0.999914
0.999901
0.999886
0.99987
0.999852
0.999832
0.99981
0.999786
0.99976
0.999731
0.9997
0.999667
0.999631
0.999592
0.99955
0.999505
0.999457
0.999406
0.999352
0.999294
0.999232
0.999167
0.999099
0.999026
0.998949
0.998869
0.998784
0.998695
0.998602
0.998504
0.998403
0.998296
0.998185
0.998069
0.997949
0.997824
0.997694
0.997559
0.997419
0.997275
0.997125
0.99697
0.99681
0.996645
0.996475
0.9963
0.996119
0.995933
0.995742
0.995546
0.995344
0.995137
0.994925
0.994707
0.994484
0.994256
0.994022
0.993783
0.993539
0.993289
0.993034
0.992774
0.992508
0.992237
0.991961
0.99168
0.991393
0.991101
0.990804
0.990502
0.990194
0.989881
0.989564
0.98924
0.988912
0.988579
0.988241
0.987897
0.987549
0.987195
0.986837
0.986473
0.986105
0.985731
0.985352
0.984968
0.984579
0.984185
0.983786
0.983382
0.982972
0.982557
0.982137
0.981712
0.981281
0.980844
0.980402
0.979954
0.979501
0.979041
0.978575
0.978103
0.977625
0.97714
0.976648
0.976149
0.975644
0.97513
0.97461
0.974081
0.973545
0.973
0.972446
0.971884
0.971312
0.970731
0.97014
0.969539
0.968928
0.968306
0.967672
0.967028
0.966371
0.965702
0.96502
0.964326
0.963618
0.962896
0.96216
0.961409
0.960644
0.959863
0.959066
0.958253
0.957423
0.956576
0.955712
0.95483
0.95393
0.953011
0.952074
0.951116
0.95014
0.949142
0.948125
0.947087
0.946027
0.944946
0.943843
0.942718
0.941571
0.940401
0.939207
0.937991
0.93675
0.935486
0.934198
0.932886
0.931549
0.930187
0.928801
0.927389
0.925952
0.92449
0.923002
0.921488
0.919949
0.918384
0.916793
0.915176
0.913532
0.911863
0.910168
0.908446
0.906698
0.904925
0.903124
0.901298
0.899446
0.897568
0.895664
0.893734
0.891779
0.889797
0.88779
0.885758
0.883701
0.881618
0.879511
0.877378
0.875222
0.87304
0.870835
0.868605
0.866352
0.864075
0.861774
0.859451
0.857104
0.854735
0.852344
0.84993
0.847495
0.845037
0.842559
0.84006
0.837539
0.834999
0.832438
0.829857
0.827257
0.824638
0.821999
0.819342
0.816667
0.813974
0.811263
0.808535
0.80579
0.803028
0.80025
0.797455
0.794645
0.79182
0.78898
0.786125
0.783256
0.780373
0.777476
0.774566
0.771643
0.768707
0.76576
0.7628
0.759828
0.756845
0.753852
0.750847
0.747833
0.744808
0.741774
0.73873
0.735678
0.732616
0.729547
0.726469
0.723384
0.720292
0.717192
0.714086
0.710973
0.707854
0.704729
0.701599
0.698463
0.695323
0.692177
0.689028
0.685874
0.682717
0.679556
0.676392
0.673225
0.670055
0.666883
0.663709
0.660533
0.657355
0.654176
0.650995
0.647814
0.644633
0.641451
0.638268
0.635086
0.631905
0.628724
0.625543
0.622364
0.619186
0.616009
0.612834
0.609662
0.606491
0.603322
0.600156
0.596993
0.593833
0.590675
0.587521
0.584371
0.581224
0.578081
0.574942
0.571807
0.568677
0.565551
0.56243
0.559314
0.556203
0.553097
0.549996
0.546901
0.543811
0.540728
0.53765
0.534578
0.531512
0.528453
0.5254
0.522354
0.519315
0.516282
0.513256
0.510238
0.507226
0.504222
0.501226
0.498236
0.495255
0.492281
0.489315
0.486357
0.483407
0.480465
0.477531
0.474606
0.471689
0.46878
0.46588
0.462989
0.460106
0.457232
0.454367
0.45151
0.448663
0.445825
0.442996
0.440176
0.437365
0.434564
0.431772
0.428989
0.426216
0.423452
0.420698
0.417954
0.415219
0.412494
0.409779
0.407073
0.404377
0.401692
0.399016
0.39635
0.393694
0.391048
0.388412
0.385786
0.38317
0.380564
0.377968
0.375383
0.372808
0.370243
0.367688
0.365143
0.362609
0.360085
0.357571
0.355068
0.352575
0.350092
0.347619
0.345157
0.342706
0.340264
0.337833
0.335413
0.333002
0.330602
0.328213
0.325834
0.323465
0.321107
0.318759
0.316421
0.314094
0.311777
0.30947
0.307174
0.304889
0.302613
0.300348
0.298093
0.295849
0.293614
0.291391
0.289177
0.286974
0.28478
0.282598
0.280425
0.278263
0.27611
0.273968
0.271836
0.269715
0.267603
0.265501
0.26341
0.261329
0.259257
0.257196
0.255145
0.253103
0.251072
0.249051
0.247039
0.245037
0.243046
0.241064
0.239092
0.237129
0.235177
0.233234
0.231301
0.229378
0.227464
0.22556
0.223666
0.221781
0.219906
0.21804
0.216184
0.214337
0.2125
0.210672
0.208853
0.207044
0.205244
0.203454
0.201673
0.199901
0.198138
0.196385
0.19464
0.192905
0.191179
0.189462
0.187754
0.186055
0.184365
0.182684
0.181012
0.179349
0.177694
0.176049
0.174412
0.172784
0.171165
0.169554
0.167952
0.166359
0.164775
0.163199
0.161631
0.160072
0.158522
0.15698
0.155447
0.153922
0.152405
0.150897
0.149397
0.147905
0.146422
0.144947
0.14348
0.142021
0.140571
0.139128
0.137694
0.136268
0.13485
0.13344
0.132037
0.130643
0.129257
0.127879
0.126508
0.125146
0.123791
0.122444
0.121105
0.119774
0.11845
0.117135
0.115826
0.114526
0.113233
0.111948
0.11067
0.109401
0.108138
0.106883
0.105636
0.104396
0.103164
0.101939
0.100722
0.0995117
0.0983091
0.097114
0.0959262
0.0947458
0.0935727
0.0924069
0.0912485
0.0900974
0.0889535
0.0878169
0.0866876
0.0855655
0.0844506
0.0833429
0.0822425
0.0811492
0.0800631
0.0789842
0.0779124
0.0768478
0.0757903
0.07474
0.0736967
0.0726606
0.0716316
0.0706097
0.0695949
0.0685871
0.0675865
0.0665929
0.0656064
0.0646269
0.0636545
0.0626892
0.061731
0.0607798
0.0598356
0.0588985
0.0579685
0.0570455
0.0561296
0.0552208
0.054319
0.0534243
0.0525366
0.0516561
0.0507826
0.0499162
0.0490569
0.0482046
0.0473595
0.0465215
0.0456906
0.0448669
0.0440503
0.0432408
0.0424385
0.0416433
0.0408554
0.0400746
0.0393011
0.0385347
0.0377756
0.0370238
0.0362792
0.0355419
0.0348118
0.0340891
0.0333738
0.0326657
0.0319651
0.0312718
0.030586
0.0299075
0.0292365
0.028573
0.0279169
0.0272684
0.0266274
0.0259939
0.025368
0.0247497
0.0241391
0.023536
0.0229407
0.022353
0.021773
0.0212008
0.0206363
0.0200797
0.0195308
0.0189898
0.0184566
0.0179313
0.0174138
0.0169044
0.0164028
0.0159092
0.0154236
0.0149461
0.0144765
0.014015
0.0135616
0.0131162
0.0126789
0.0122498
0.0118288
0.0114159
0.0110112
0.0106146
0.0102262
0.00984595
0.00947389
0.00911
0.00875429
0.00840676
0.00806739
0.00773618
0.00741312
0.00709819
0.00679138
0.00649266
0.00620202
0.00591942
0.00564484
0.00537824
0.00511958
0.00486881
0.0046259
0.00439078
0.00416341
0.00394371
0.00373163
0.0035271
0.00333003
0.00314035
0.00295796
0.00278278
0.00261472
0.00245365
0.00229949
0.00215211
0.00201139
0.00187721
0.00174943
0.00162793
0.00151255
0.00140316
0.0012996
0.00120172
0.00110934
0.00102232
0.000940478
0.000863642
0.000791639
0.00072429
0.000661414
0.000602829
0.000548351
0.000497798
0.000450983
0.000407723
0.000367837
0.000331142
0.00029746
0.000266616
0.000238435
0.000212751
0.000189398
0.000168218
0.000149055
0.000131762
0.000116197
0.000102222
8.9708e-05
7.85323e-05
6.85781e-05
5.97357e-05
5.19023e-05
4.49817e-05
3.88844e-05
3.35272e-05
2.88334e-05
2.47325e-05
2.11594e-05
1.80552e-05
1.53659e-05
1.30427e-05
1.10415e-05
9.32248e-06
7.85019e-06
6.5928e-06
5.52202e-06
4.61279e-06
3.84294e-06
3.193e-06
2.64586e-06
2.18658e-06
1.80218e-06
1.48136e-06
1.21439e-06
9.9285e-07
8.09549e-07
6.58318e-07
5.33902e-07
4.3184e-07
3.48353e-07
2.80255e-07
2.24868e-07
1.79945e-07
1.43614e-07
1.14313e-07
9.07495e-08
7.18521e-08
5.67395e-08
4.46873e-08
3.51025e-08
2.75012e-08
2.14894e-08
1.67479e-08
1.30186e-08
1.00932e-08
7.80513e-09
6.01968e-09
4.63149e-09
3.55261e-09
2.72135e-09
2.07235e-09
1.59068e-09
1.19375e-09
1.19375e-09
1
1
1
1
1
1
1
1
1
1
1
1
1
1
1
1
1
1
1
1
1
1
1
1
1
1
1
1
1
1
1
1
1
1
1
0.999999
0.999999
0.999999
0.999999
0.999998
0.999997
0.999997
0.999995
0.999994
0.999992
0.99999
0.999988
0.999985
0.999982
0.999978
0.999973
0.999968
0.999961
0.999954
0.999946
0.999937
0.999926
0.999914
0.999901
0.999886
0.99987
0.999852
0.999832
0.99981
0.999786
0.99976
0.999731
0.9997
0.999667
0.999631
0.999592
0.99955
0.999505
0.999457
0.999406
0.999352
0.999294
0.999232
0.999167
0.999098
0.999026
0.998949
0.998869
0.998784
0.998695
0.998602
0.998504
0.998402
0.998296
0.998185
0.998069
0.997949
0.997824
0.997694
0.997559
0.997419
0.997274
0.997124
0.99697
0.99681
0.996645
0.996474
0.996299
0.996118
0.995933
0.995742
0.995545
0.995343
0.995136
0.994924
0.994706
0.994483
0.994255
0.994021
0.993782
0.993538
0.993288
0.993033
0.992773
0.992508
0.992237
0.99196
0.991679
0.991392
0.9911
0.990803
0.990501
0.990193
0.98988
0.989563
0.98924
0.988911
0.988578
0.98824
0.987896
0.987548
0.987194
0.986836
0.986472
0.986104
0.98573
0.985351
0.984967
0.984578
0.984184
0.983785
0.983381
0.982971
0.982557
0.982136
0.981711
0.98128
0.980844
0.980402
0.979954
0.9795
0.979041
0.978575
0.978103
0.977625
0.97714
0.976649
0.97615
0.975645
0.975132
0.974611
0.974083
0.973547
0.973002
0.972449
0.971887
0.971316
0.970735
0.970145
0.969545
0.968934
0.968312
0.967679
0.967035
0.966379
0.965711
0.96503
0.964336
0.963629
0.962908
0.962173
0.961423
0.960659
0.959879
0.959083
0.958271
0.957443
0.956597
0.955735
0.954854
0.953955
0.953038
0.952102
0.951146
0.950171
0.949175
0.948159
0.947123
0.946065
0.944986
0.943885
0.942762
0.941616
0.940448
0.939257
0.938042
0.936804
0.935542
0.934256
0.932946
0.931611
0.930252
0.928868
0.927458
0.926024
0.924564
0.923079
0.921568
0.920031
0.918469
0.91688
0.915266
0.913625
0.911959
0.910266
0.908547
0.906803
0.905031
0.903234
0.901411
0.899562
0.897687
0.895786
0.893859
0.891906
0.889928
0.887924
0.885895
0.88384
0.881761
0.879656
0.877527
0.875373
0.873195
0.870993
0.868766
0.866516
0.864242
0.861944
0.859624
0.857281
0.854915
0.852526
0.850116
0.847683
0.845229
0.842754
0.840257
0.83774
0.835203
0.832645
0.830067
0.82747
0.824854
0.822218
0.819564
0.816892
0.814201
0.811493
0.808768
0.806026
0.803267
0.800491
0.7977
0.794893
0.792071
0.789233
0.786381
0.783515
0.780634
0.77774
0.774833
0.771912
0.768979
0.766034
0.763076
0.760107
0.757127
0.754136
0.751134
0.748121
0.745099
0.742067
0.739026
0.735976
0.732917
0.72985
0.726774
0.723691
0.720601
0.717503
0.714399
0.711288
0.708171
0.705048
0.70192
0.698786
0.695648
0.692505
0.689357
0.686205
0.68305
0.67989
0.676728
0.673563
0.670395
0.667224
0.664051
0.660877
0.657701
0.654523
0.651344
0.648165
0.644984
0.641804
0.638623
0.635442
0.632262
0.629082
0.625903
0.622725
0.619548
0.616373
0.613199
0.610027
0.606857
0.60369
0.600525
0.597363
0.594203
0.591047
0.587894
0.584744
0.581599
0.578456
0.575318
0.572184
0.569055
0.56593
0.562809
0.559694
0.556583
0.553478
0.550378
0.547283
0.544194
0.541111
0.538034
0.534963
0.531898
0.528839
0.525786
0.522741
0.519702
0.516669
0.513644
0.510626
0.507615
0.504611
0.501614
0.498625
0.495644
0.49267
0.489705
0.486747
0.483797
0.480855
0.477921
0.474996
0.472079
0.46917
0.46627
0.463379
0.460496
0.457622
0.454757
0.451901
0.449053
0.446215
0.443386
0.440566
0.437755
0.434953
0.432161
0.429378
0.426605
0.423841
0.421087
0.418342
0.415607
0.412882
0.410166
0.40746
0.404764
0.402078
0.399402
0.396735
0.394079
0.391433
0.388796
0.38617
0.383553
0.380947
0.378351
0.375765
0.37319
0.370624
0.368069
0.365524
0.362989
0.360464
0.35795
0.355446
0.352952
0.350469
0.347996
0.345533
0.343081
0.340639
0.338207
0.335786
0.333375
0.330975
0.328585
0.326205
0.323835
0.321476
0.319128
0.316789
0.314461
0.312144
0.309837
0.30754
0.305253
0.302977
0.300711
0.298456
0.29621
0.293975
0.291751
0.289536
0.287332
0.285138
0.282955
0.280781
0.278618
0.276465
0.274322
0.272189
0.270067
0.267954
0.265852
0.26376
0.261677
0.259605
0.257543
0.255491
0.253449
0.251416
0.249394
0.247382
0.245379
0.243387
0.241404
0.239431
0.237468
0.235514
0.233571
0.231637
0.229712
0.227798
0.225893
0.223998
0.222112
0.220236
0.218369
0.216512
0.214664
0.212826
0.210997
0.209178
0.207368
0.205567
0.203776
0.201993
0.200221
0.198457
0.196702
0.194957
0.193221
0.191494
0.189776
0.188067
0.186367
0.184676
0.182994
0.181321
0.179657
0.178001
0.176355
0.174717
0.173088
0.171468
0.169856
0.168253
0.166659
0.165074
0.163497
0.161928
0.160369
0.158817
0.157274
0.15574
0.154214
0.152696
0.151187
0.149686
0.148193
0.146709
0.145233
0.143765
0.142305
0.140854
0.13941
0.137975
0.136548
0.135129
0.133717
0.132314
0.130919
0.129532
0.128153
0.126781
0.125418
0.124062
0.122714
0.121374
0.120041
0.118717
0.1174
0.116091
0.114789
0.113496
0.112209
0.110931
0.10966
0.108396
0.10714
0.105892
0.104651
0.103418
0.102192
0.100973
0.0997623
0.0985587
0.0973625
0.0961736
0.0949921
0.093818
0.0926511
0.0914916
0.0903394
0.0891944
0.0880567
0.0869263
0.0858031
0.0846871
0.0835783
0.0824767
0.0813823
0.0802951
0.079215
0.0781421
0.0770764
0.0760178
0.0749663
0.0739219
0.0728846
0.0718544
0.0708313
0.0698153
0.0688064
0.0678046
0.0668098
0.0658221
0.0648415
0.0638679
0.0629014
0.0619419
0.0609895
0.0600441
0.0591058
0.0581745
0.0572503
0.0563332
0.0554231
0.05452
0.0536241
0.0527351
0.0518533
0.0509785
0.0501108
0.0492502
0.0483967
0.0475502
0.0467109