# vtk DataFile Version 2.0
FlowField
ASCII
DATASET STRUCTURED_GRID
DIMENSIONS 800 1 200
POINTS 160000 float
0 0 0
0.04 0 0
0.08 0 0
0.12 0 0
0.16 0 0
0.2 0 0
0.24 0 0
0.28 0 0
0.32 0 0
0.36 0 0
0.4 0 0
0.44 0 0
0.48 0 0
0.52 0 0
0.56 0 0
0.6 0 0
0.64 0 0
0.68 0 0
0.72 0 0
0.76 0 0
0.8 0 0
0.84 0 0
0.88 0 0
0.92 0 0
0.96 0 0
1 0 0
1.04 0 0
1.08 0 0
1.12 0 0
1.16 0 0
1.2 0 0
1.24 0 0
1.28 0 0
1.32 0 0
1.36 0 0
1.4 0 0
1.44 0 0
1.48 0 0
1.52 0 0
1.56 0 0
1.6 0 0
1.64 0 0
1.68 0 0
1.72 0 0
1.76 0 0
1.8 0 0
1.84 0 0
1.88 0 0
1.92 0 0
1.96 0 0
2 0 0
2.04 0 0
2.08 0 0
2.12 0 0
2.16 0 0
2.2 0 0
2.24 0 0
2.28 0 0
2.32 0 0
2.36 0 0
2.4 0 0
2.44 0 0
2.48 0 0
2.52 0 0
2.56 0 0
2.6 0 0
2.64 0 0
2.68 0 0
2.72 0 0
2.76 0 0
2.8 0 0
2.84 0 0
2.88 0 0
2.92 0 0
2.96 0 0
3 0 0
3.04 0 0
3.08 0 0
3.12 0 0
3.16 0 0
3.2 0 0
3.24 0 0
3.28 0 0
3.32 0 0
3.36 0 0
3.4 0 0
3.44 0 0
3.48 0 0
3.52 0 0
3.56 0 0
3.6 0 0
3.64 0 0
3.68 0 0
3.72 0 0
3.76 0 0
3.8 0 0
3.84 0 0
3.88 0 0
3.92 0 0
3.96 0 0
4 0 0
4.04 0 0
4.08 0 0
4.12 0 0
4.16 0 0
4.2 0 0
4.24 0 0
4.28 0 0
4.32 0 0
4.36 0 0
4.4 0 0
4.44 0 0
4.48 0 0
4.52 0 0
4.56 0 0
4.6 0 0
4.64 0 0
4.68 0 0
4.72 0 0
4.76 0 0
4.8 0 0
4.84 0 0
4.88 0 0
4.92 0 0
4.96 0 0
5 0 0
5.04 0 0
5.08 0 0
5.12 0 0
5.16 0 0
5.2 0 0
5.24 0 0
5.28 0 0
5.32 0 0
5.36 0 0
5.4 0 0
5.44 0 0
5.48 0 0
5.52 0 0
5.56 0 0
5.6 0 0
5.64 0 0
5.68 0 0
5.72 0 0
5.76 0 0
5.8 0 0
5.84 0 0
5.88 0 0
5.92 0 0
5.96 0 0
6 0 0
6.04 0 0
6.08 0 0
6.12 0 0
6.16 0 0
6.2 0 0
6.24 0 0
6.28 0 0
6.32 0 0
6.36 0 0
6.4 0 0
6.44 0 0
6.48 0 0
6.52 0 0
6.56 0 0
6.6 0 0
6.64 0 0
6.68 0 0
6.72 0 0
6.76 0 0
6.8 0 0
6.84 0 0
6.88 0 0
6.92 0 0
6.96 0 0
7 0 0
7.04 0 0
7.08 0 0
7.12 0 0
7.16 0 0
7.2 0 0
7.24 0 0
7.28 0 0
7.32 0 0
7.36 0 0
7.4 0 0
7.44 0 0
7.48 0 0
7.52 0 0
7.56 0 0
7.6 0 0
7.64 0 0
7.68 0 0
7.72 0 0
7.76 0 0
7.8 0 0
7.84 0 0
7.88 0 0
7.92 0 0
7.96 0 0
8 0 0
8.04 0 0
8.08 0 0
8.12 0 0
8.16 0 0
8.2 0 0
8.24 0 0
8.28 0 0
8.32 0 0
8.36 0 0
8.4 0 0
8.44 0 0
8.48 0 0
8.52 0 0
8.56 0 0
8.6 0 0
8.64 0 0
8.68 0 0
8.72 0 0
8.76 0 0
8.8 0 0
8.84 0 0
8.88 0 0
8.92 0 0
8.96 0 0
9 0 0
9.04 0 0
9.08 0 0
9.12 0 0
9.16 0 0
9.2 0 0
9.24 0 0
9.28 0 0
9.32 0 0
9.36 0 0
9.4 0 0
9.44 0 0
9.48 0 0
9.52 0 0
9.56 0 0
9.6 0 0
9.64 0 0
9.68 0 0
9.72 0 0
9.76 0 0
9.8 0 0
9.84 0 0
9.88 0 0
9.92 0 0
9.96 0 0
10 0 0
10.04 0 0
10.08 0 0
10.12 0 0
10.16 0 0
10.2 0 0
10.24 0 0
10.28 0 0
10.32 0 0
10.36 0 0
10.4 0 0
10.44 0 0
10.48 0 0
10.52 0 0
10.56 0 0
10.6 0 0
10.64 0 0
10.68 0 0
10.72 0 0
10.76 0 0
10.8 0 0
10.84 0 0
10.88 0 0
10.92 0 0
10.96 0 0
11 0 0
11.04 0 0
11.08 0 0
11.12 0 0
11.16 0 0
11.2 0 0
11.24 0 0
11.28 0 0
11.32 0 0
11.36 0 0
11.4 0 0
11.44 0 0
11.48 0 0
11.52 0 0
11.56 0 0
11.6 0 0
11.64 0 0
11.68 0 0
11.72 0 0
11.76 0 0
11.8 0 0
11.84 0 0
11.88 0 0
11.92 0 0
11.96 0 0
12 0 0
12.04 0 0
12.08 0 0
12.12 0 0
12.16 0 0
12.2 0 0
12.24 0 0
12.28 0 0
12.32 0 0
12.36 0 0
12.4 0 0
12.44 0 0
12.48 0 0
12.52 0 0
12.56 0 0
12.6 0 0
12.64 0 0
12.68 0 0
12.72 0 0
12.76 0 0
12.8 0 0
12.84 0 0
12.88 0 0
12.92 0 0
12.96 0 0
13 0 0
13.04 0 0
13.08 0 0
13.12 0 0
13.16 0 0
13.2 0 0
13.24 0 0
13.28 0 0
13.32 0 0
13.36 0 0
13.4 0 0
13.44 0 0
13.48 0 0
13.52 0 0
13.56 0 0
13.6 0 0
13.64 0 0
13.68 0 0
13.72 0 0
13.76 0 0
13.8 0 0
13.84 0 0
13.88 0 0
13.92 0 0
13.96 0 0
14 0 0
14.04 0 0
14.08 0 0
14.12 0 0
14.16 0 0
14.2 0 0
14.24 0 0
14.28 0 0
14.32 0 0
14.36 0 0
14.4 0 0
14.44 0 0
14.48 0 0
14.52 0 0
14.56 0 0
14.6 0 0
14.64 0 0
14.68 0 0
14.72 0 0
14.76 0 0
14.8 0 0
14.84 0 0
14.88 0 0
14.92 0 0
14.96 0 0
15 0 0
15.04 0 0
15.08 0 0
15.12 0 0
15.16 0 0
15.2 0 0
15.24 0 0
15.28 0 0
15.32 0 0
15.36 0 0
15.4 0 0
15.44 0 0
15.48 0 0
15.52 0 0
15.56 0 0
15.6 0 0
15.64 0 0
15.68 0 0
15.72 0 0
15.76 0 0
15.8 0 0
15.84 0 0
15.88 0 0
15.92 0 0
15.96 0 0
16 0 0
16.04 0 0
16.08 0 0
16.12 0 0
16.16 0 0
16.2 0 0
16.24 0 0
16.28 0 0
16.32 0 0
16.36 0 0
16.4 0 0
16.44 0 0
16.48 0 0
16.52 0 0
16.56 0 0
16.6 0 0
16.64 0 0
16.68 0 0
16.72 0 0
16.76 0 0
16.8 0 0
16.84 0 0
16.88 0 0
16.92 0 0
16.96 0 0
17 0 0
17.04 0 0
17.08 0 0
17.12 0 0
17.16 0 0
17.2 0 0
17.24 0 0
17.28 0 0
17.32 0 0
17.36 0 0
17.4 0 0
17.44 0 0
17.48 0 0
17.52 0 0
17.56 0 0
17.6 0 0
17.64 0 0
17.68 0 0
17.72 0 0
17.76 0 0
17.8 0 0
17.84 0 0
17.88 0 0
17.92 0 0
17.96 0 0
18 0 0
18.04 0 0
18.08 0 0
18.12 0 0
18.16 0 0
18.2 0 0
18.24 0 0
18.28 0 0
18.32 0 0
18.36 0 0
18.4 0 0
18.44 0 0
18.48 0 0
18.52 0 0
18.56 0 0
18.6 0 0
18.64 0 0
18.68 0 0
18.72 0 0
18.76 0 0
18.8 0 0
18.84 0 0
18.88 0 0
18.92 0 0
18.96 0 0
19 0 0
19.04 0 0
19.08 0 0
19.12 0 0
19.16 0 0
19.2 0 0
19.24 0 0
19.28 0 0
19.32 0 0
19.36 0 0
19.4 0 0
19.44 0 0
19.48 0 0
19.52 0 0
19.56 0 0
19.6 0 0
19.64 0 0
19.68 0 0
19.72 0 0
19.76 0 0
19.8 0 0
19.84 0 0
19.88 0 0
19.92 0 0
19.96 0 0
20 0 0
20.04 0 0
20.08 0 0
20.12 0 0
20.16 0 0
20.2 0 0
20.24 0 0
20.28 0 0
20.32 0 0
20.36 0 0
20.4 0 0
20.44 0 0
20.48 0 0
20.52 0 0
20.56 0 0
20.6 0 0
20.64 0 0
20.68 0 0
20.72 0 0
20.76 0 0
20.8 0 0
20.84 0 0
20.88 0 0
20.92 0 0
20.96 0 0
21 0 0
21.04 0 0
21.08 0 0
21.12 0 0
21.16 0 0
21.2 0 0
21.24 0 0
21.28 0 0
21.32 0 0
21.36 0 0
21.4 0 0
21.44 0 0
21.48 0 0
21.52 0 0
21.56 0 0
21.6 0 0
21.64 0 0
21.68 0 0
21.72 0 0
21.76 0 0
21.8 0 0
21.84 0 0
21.88 0 0
21.92 0 0
21.96 0 0
22 0 0
22.04 0 0
22.08 0 0
22.12 0 0
22.16 0 0
22.2 0 0
22.24 0 0
22.28 0 0
22.32 0 0
22.36 0 0
22.4 0 0
22.44 0 0
22.48 0 0
22.52 0 0
22.56 0 0
22.6 0 0
22.64 0 0
22.68 0 0
22.72 0 0
22.76 0 0
22.8 0 0
22.84 0 0
22.88 0 0
22.92 0 0
22.96 0 0
23 0 0
23.04 0 0
23.08 0 0
23.12 0 0
23.16 0 0
23.2 0 0
23.24 0 0
23.28 0 0
23.32 0 0
23.36 0 0
23.4 0 0
23.44 0 0
23.48 0 0
23.52 0 0
23.56 0 0
23.6 0 0
23.64 0 0
23.68 0 0
23.72 0 0
23.76 0 0
23.8 0 0
23.84 0 0
23.88 0 0
23.92 0 0
23.96 0 0
24 0 0
24.04 0 0
24.08 0 0
24.12 0 0
24.16 0 0
24.2 0 0
24.24 0 0
24.28 0 0
24.32 0 0
24.36 0 0
24.4 0 0
24.44 0 0
24.48 0 0
24.52 0 0
24.56 0 0
24.6 0 0
24.64 0 0
24.68 0 0
24.72 0 0
24.76 0 0
24.8 0 0
24.84 0 0
24.88 0 0
24.92 0 0
24.96 0 0
25 0 0
25.04 0 0
25.08 0 0
25.12 0 0
25.16 0 0
25.2 0 0
25.24 0 0
25.28 0 0
25.32 0 0
25.36 0 0
25.4 0 0
25.44 0 0
25.48 0 0
25.52 0 0
25.56 0 0
25.6 0 0
25.64 0 0
25.68 0 0
25.72 0 0
25.76 0 0
25.8 0 0
25.84 0 0
25.88 0 0
25.92 0 0
25.96 0 0
26 0 0
26.04 0 0
26.08 0 0
26.12 0 0
26.16 0 0
26.2 0 0
26.24 0 0
26.28 0 0
26.32 0 0
26.36 0 0
26.4 0 0
26.44 0 0
26.48 0 0
26.52 0 0
26.56 0 0
26.6 0 0
26.64 0 0
26.68 0 0
26.72 0 0
26.76 0 0
26.8 0 0
26.84 0 0
26.88 0 0
26.92 0 0
26.96 0 0
27 0 0
27.04 0 0
27.08 0 0
27.12 0 0
27.16 0 0
27.2 0 0
27.24 0 0
27.28 0 0
27.32 0 0
27.36 0 0
27.4 0 0
27.44 0 0
27.48 0 0
27.52 0 0
27.56 0 0
27.6 0 0
27.64 0 0
27.68 0 0
27.72 0 0
27.76 0 0
27.8 0 0
27.84 0 0
27.88 0 0
27.92 0 0
27.96 0 0
28 0 0
28.04 0 0
28.08 0 0
28.12 0 0
28.16 0 0
28.2 0 0
28.24 0 0
28.28 0 0
28.32 0 0
28.36 0 0
28.4 0 0
28.44 0 0
28.48 0 0
28.52 0 0
28.56 0 0
28.6 0 0
28.64 0 0
28.68 0 0
28.72 0 0
28.76 0 0
28.8 0 0
28.84 0 0
28.88 0 0
28.92 0 0
28.96 0 0
29 0 0
29.04 0 0
29.08 0 0
29.12 0 0
29.16 0 0
29.2 0 0
29.24 0 0
29.28 0 0
29.32 0 0
29.36 0 0
29.4 0 0
29.44 0 0
29.48 0 0
29.52 0 0
29.56 0 0
29.6 0 0
29.64 0 0
29.68 0 0
29.72 0 0
29.76 0 0
29.8 0 0
29.84 0 0
29.88 0 0
29.92 0 0
29.96 0 0
30 0 0
30.04 0 0
30.08 0 0
30.12 0 0
30.16 0 0
30.2 0 0
30.24 0 0
30.28 0 0
30.32 0 0
30.36 0 0
30.4 0 0
30.44 0 0
30.48 0 0
30.52 0 0
30.56 0 0
30.6 0 0
30.64 0 0
30.68 0 0
30.72 0 0
30.76 0 0
30.8 0 0
30.84 0 0
30.88 0 0
30.92 0 0
30.96 0 0
31 0 0
31.04 0 0
31.08 0 0
31.12 0 0
31.16 0 0
31.2 0 0
31.24 0 0
31.28 0 0
31.32 0 0
31.36 0 0
31.4 0 0
31.44 0 0
31.48 0 0
31.52 0 0
31.56 0 0
31.6 0 0
31.64 0 0
31.68 0 0
31.72 0 0
31.76 0 0
31.8 0 0
31.84 0 0
31.88 0 0
31.92 0 0
31.96 0 0
0 0.005 0
0.04 0.005 0
0.08 0.005 0
0.12 0.005 0
0.16 0.005 0
0.2 0.005 0
0.24 0.005 0
0.28 0.005 0
0.32 0.005 0
0.36 0.005 0
0.4 0.005 0
0.44 0.005 0
0.48 0.005 0
0.52 0.005 0
0.56 0.005 0
0.6 0.005 0
0.64 0.005 0
0.68 0.005 0
0.72 0.005 0
0.76 0.005 0
0.8 0.005 0
0.84 0.005 0
0.88 0.005 0
0.92 0.005 0
0.96 0.005 0
1 0.005 0
1.04 0.005 0
1.08 0.005 0
1.12 0.005 0
1.16 0.005 0
1.2 0.005 0
1.24 0.005 0
1.28 0.005 0
1.32 0.005 0
1.36 0.005 0
1.4 0.005 0
1.44 0.005 0
1.48 0.005 0
1.52 0.005 0
1.56 0.005 0
1.6 0.005 0
1.64 0.005 0
1.68 0.005 0
1.72 0.005 0
1.76 0.005 0
1.8 0.005 0
1.84 0.005 0
1.88 0.005 0
1.92 0.005 0
1.96 0.005 0
2 0.005 0
2.04 0.005 0
2.08 0.005 0
2.12 0.005 0
2.16 0.005 0
2.2 0.005 0
2.24 0.005 0
2.28 0.005 0
2.32 0.005 0
2.36 0.005 0
2.4 0.005 0
2.44 0.005 0
2.48 0.005 0
2.52 0.005 0
2.56 0.005 0
2.6 0.005 0
2.64 0.005 0
2.68 0.005 0
2.72 0.005 0
2.76 0.005 0
2.8 0.005 0
2.84 0.005 0
2.88 0.005 0
2.92 0.005 0
2.96 0.005 0
3 0.005 0
3.04 0.005 0
3.08 0.005 0
3.12 0.005 0
3.16 0.005 0
3.2 0.005 0
3.24 0.005 0
3.28 0.005 0
3.32 0.005 0
3.36 0.005 0
3.4 0.005 0
3.44 0.005 0
3.48 0.005 0
3.52 0.005 0
3.56 0.005 0
3.6 0.005 0
3.64 0.005 0
3.68 0.005 0
3.72 0.005 0
3.76 0.005 0
3.8 0.005 0
3.84 0.005 0
3.88 0.005 0
3.92 0.005 0
3.96 0.005 0
4 0.005 0
4.04 0.005 0
4.08 0.005 0
4.12 0.005 0
4.16 0.005 0
4.2 0.005 0
4.24 0.005 0
4.28 0.005 0
4.32 0.005 0
4.36 0.005 0
4.4 0.005 0
4.44 0.005 0
4.48 0.005 0
4.52 0.005 0
4.56 0.005 0
4.6 0.005 0
4.64 0.005 0
4.68 0.005 0
4.72 0.005 0
4.76 0.005 0
4.8 0.005 0
4.84 0.005 0
4.88 0.005 0
4.92 0.005 0
4.96 0.005 0
5 0.005 0
5.04 0.005 0
5.08 0.005 0
5.12 0.005 0
5.16 0.005 0
5.2 0.005 0
5.24 0.005 0
5.28 0.005 0
5.32 0.005 0
5.36 0.005 0
5.4 0.005 0
5.44 0.005 0
5.48 0.005 0
5.52 0.005 0
5.56 0.005 0
5.6 0.005 0
5.64 0.005 0
5.68 0.005 0
5.72 0.005 0
5.76 0.005 0
5.8 0.005 0
5.84 0.005 0
5.88 0.005 0
5.92 0.005 0
5.96 0.005 0
6 0.005 0
6.04 0.005 0
6.08 0.005 0
6.12 0.005 0
6.16 0.005 0
6.2 0.005 0
6.24 0.005 0
6.28 0.005 0
6.32 0.005 0
6.36 0.005 0
6.4 0.005 0
6.44 0.005 0
6.48 0.005 0
6.52 0.005 0
6.56 0.005 0
6.6 0.005 0
6.64 0.005 0
6.68 0.005 0
6.72 0.005 0
6.76 0.005 0
6.8 0.005 0
6.84 0.005 0
6.88 0.005 0
6.92 0.005 0
6.96 0.005 0
7 0.005 0
7.04 0.005 0
7.08 0.005 0
7.12 0.005 0
7.16 0.005 0
7.2 0.005 0
7.24 0.005 0
7.28 0.005 0
7.32 0.005 0
7.36 0.005 0
7.4 0.005 0
[...]
POINT_DATA 160000

SCALARS v float 1
LOOKUP_TABLE default
0
0
0
0
0
0
0
0
0
0
0
0
0
0
0
0
0
0
0
0
0
0
0
0
0
0
0
0
0
0
0
0
0
0
0
0
0
0
0
0
0
0
0
0
0
0
0
0
0
0
0
0
0
0
0
0
0
0
0
0
0
0
0
0
0
0
0
0
0
0
0
0
0
0
0
0
0
0
0
0
0
0
0
0
0
0
0
0
0
0
0
0
0
0
0
0
0
0
0
0
0
0
0
0
0
0
0
0
0
0
0
0
0
0
0
0
0
0
0
0
0
0
0
0
0
0
0
0
0
0
0
0
0
0
0
0
0
0
0
0
0
0
0
0
0
0
0
0
0
0
0
0
0
0
0
0
0
0
0
0
0
0
0
0
0
0
0
0
0
0
0
0
0
0
0
0
0
0
0
0
0
0
0
0
0
0
0
0
0
0
0
0
0
0
0
0
0
0
0
0
0
0
0
0
0
0
0
0
0
0
0
0
0
0
0
0
0
0
0
0
0
0
0
0
0
0
0
0
0
0
0
0
0
0
0
0
0
0
0
0
0
0
0
0
0
0
0
0
0
0
0
0
0
0
0
0
0
0
0
0
0
0
0
0
0
0
0
0
0
0
0
0
0
0
0
0
0
0
0
0
0
0
0
0
0
0
0
0
0
0
0
0
0
0
0
0
0
0
0
0
0
0
0
0
0
0
0
0
0
0
0
0
0
0
0
0
0
0
0
0
0
0
0
0
0
0
0
0
0
0
0
0
0
0
0
0
0
0
0
0
0
0
0
0
0
0
0
0
0
0
0
0
0
0
0
0
0
0
0
0
0
0
0
0
0
0
0
0
0
0
0
0
0
0
0
0
0
0
0
0
0
0
0
0
0
0
0
0
0
0
0
0
0
0
0
0
0
0
0
0
0
0
0
0
0
0
0
0
0
0
0
0
0
0
0
0
0
0
0
0
0
0
0
0
0
0
0
0
0
0
0
0
0
0
0
0
0
0
0
0
0
0
0
0
0
0
0
0
0
0
0
0
0
0
0
0
0
0
0
0
0
0
0
0
0
0
0
0
0
0
0
0
0
0
0
0
0
0
0
0
0
0
0
0
0
0
0
0
0
0
0
0
0
0
0
0
0
0
0
0
0
0
0
0
0
0
0
0
0
0
0
0
0
0
0
0
0
0
0
0
0
0
0
0
0
0
0
0
0
0
0
0
0
0
0
0
0
0
0
0
0
0
0
0
0
0
0
0
0
0
0
0
0
0
0
0
0
0
0
0
0
0
0
0
0
0
0
0
0
0
0
0
0
0
0
0
0
0
0
0
0
0
0
0
0
0
0
0
0
0
0
0
0
0
0
0
0
0
0
0
0
0
0
0
0
0
0
0
0
0
0
0
0
0
0
0
0
0
0
0
0
0
0
0
0
0
0
0
0
0
0
0
0
0
0
0
0
0
0
0
0
0
0
0
0
0
0
0
0
0
0
0
0
0
0
0
0
0
0
0
0
0
0
0
0
0
0
0
0
0
0
0
0
0
0
0
0
0
0
0
0
0
0
0
0
0
0
0
0
0
0
0
0
0
0
0
0
0
0
0
0
0
0
0
0
0
0
0
0
0
0
0
0
0
0
0
0
0
0
0
0
0
0
0
0
0
0
0
0
0
0
0
0
0
0
0
0
0
0
0
0
0
0
0
0
0
0
0
0
0
0
0
0
0
0
0
0
0
0
0
0
0
0
0
0
0
0
0
0
0
0
0
0
0
0
0
0
0
0
0
0
0
0
0
0
0
0
0
0
0
0
0
0
0
0
0
0
0
0
0
0
0
0.0374158
0.00938111
0.00346795
0.00176633
0.00108085
0.000737094
0.000538316
0.000411772
0.000325573
0.000263884
0.000218063
0.000183033
0.000155631
0.000133795
0.000116122
0.000101631
8.96122e-05
7.95443e-05
7.10345e-05
6.37826e-05
5.75559e-05
5.21717e-05
4.74853e-05
4.33807e-05
3.97643e-05
3.65603e-05
3.37064e-05
3.11516e-05
2.88535e-05
2.67769e-05
2.48925e-05
2.31756e-05
2.16054e-05
2.01643e-05
1.88373e-05
1.76115e-05
1.6476e-05
1.54213e-05
1.44392e-05
1.35225e-05
1.26651e-05
1.18614e-05
1.11067e-05
1.03968e-05
9.72782e-06
9.09652e-06
8.49989e-06
7.93526e-06
7.40022e-06
6.89261e-06
6.41047e-06
5.95204e-06
5.5157e-06
5.09996e-06
4.70351e-06
4.32509e-06
3.96358e-06
3.61795e-06
3.28724e-06
2.97057e-06
2.66713e-06
2.37615e-06
2.09694e-06
1.82884e-06
1.57125e-06
1.32362e-06
1.08541e-06
8.56132e-07
6.35336e-07
4.2259e-07
2.17491e-07
1.96668e-08
-1.7124e-07
-3.55563e-07
-5.33607e-07
-7.05658e-07
-8.71995e-07
-1.03289e-06
-1.18857e-06
-1.33928e-06
-1.48523e-06
-1.62664e-06
-1.76368e-06
-1.89655e-06
-2.02542e-06
-2.15046e-06
-2.27182e-06
-2.38966e-06
-2.50411e-06
-2.6153e-06
-2.72337e-06
-2.82844e-06
-2.93061e-06
-3.03e-06
-3.12673e-06
-3.22088e-06
-3.31255e-06
-3.40183e-06
-3.4888e-06
-3.57355e-06
-3.65616e-06
-3.73671e-06
-3.81526e-06
-3.89189e-06
-3.96665e-06
-4.03962e-06
-4.11085e-06
-4.18039e-06
-4.24832e-06
-4.31467e-06
-4.37951e-06
-4.44288e-06
-4.50482e-06
-4.56538e-06
-4.6246e-06
-4.68253e-06
-4.73921e-06
-4.79467e-06
-4.84894e-06
-4.90208e-06
-4.95411e-06
-5.00506e-06
-5.05497e-06
-5.10385e-06
-5.15176e-06
-5.19871e-06
-5.24473e-06
-5.28984e-06
-5.33407e-06
-5.37745e-06
-5.42001e-06
-5.46175e-06
-5.50271e-06
-5.54291e-06
-5.58236e-06
-5.62108e-06
-5.6591e-06
-5.69644e-06
-5.7331e-06
-5.76912e-06
-5.8045e-06
-5.83926e-06
-5.87342e-06
-5.90698e-06
-5.93998e-06
-5.97242e-06
-6.00432e-06
-6.03567e-06
-6.06651e-06
-6.09684e-06
-6.12668e-06
-6.15604e-06
-6.18493e-06
-6.21335e-06
-6.24133e-06
-6.26886e-06
-6.29596e-06
-6.32264e-06
-6.3489e-06
-6.37478e-06
-6.40026e-06
-6.42536e-06
-6.45008e-06
-6.47442e-06
-6.49841e-06
-6.52204e-06
-6.54533e-06
-6.56829e-06
-6.59092e-06
-6.61322e-06
-6.6352e-06
-6.65687e-06
-6.67825e-06
-6.69932e-06
-6.72009e-06
-6.74059e-06
-6.7608e-06
-6.78073e-06
-6.8004e-06
-6.8198e-06
-6.83894e-06
-6.85782e-06
-6.87645e-06
-6.89484e-06
-6.91298e-06
-6.93089e-06
-6.94857e-06
-6.96602e-06
-6.98325e-06
-7.00025e-06
-7.01704e-06
-7.03361e-06
-7.04998e-06
-7.06614e-06
-7.08211e-06
-7.09786e-06
-7.11343e-06
-7.1288e-06
-7.14399e-06
-7.159e-06
-7.17381e-06
-7.18845e-06
-7.20291e-06
-7.21719e-06
-7.23131e-06
-7.24526e-06
-7.25905e-06
-7.27267e-06
-7.28612e-06
-7.29943e-06
-7.31257e-06
-7.32557e-06
-7.33841e-06
-7.3511e-06
-7.36364e-06
-7.37604e-06
-7.38831e-06
-7.40043e-06
-7.41241e-06
-7.42425e-06
-7.43596e-06
-7.44754e-06
-7.45899e-06
-7.47031e-06
-7.48151e-06
-7.49257e-06
-7.50351e-06
-7.51433e-06
-7.52504e-06
-7.53563e-06
-7.54609e-06
-7.55645e-06
-7.56669e-06
-7.57681e-06
-7.58682e-06
-7.59672e-06
-7.60652e-06
-7.61622e-06
-7.62581e-06
-7.63529e-06
-7.64467e-06
-7.65395e-06
-7.66313e-06
-7.67221e-06
-7.68119e-06
-7.69007e-06
-7.69887e-06
-7.70757e-06
-7.71618e-06
-7.72469e-06
-7.73311e-06
-7.74145e-06
-7.7497e-06
-7.75786e-06
-7.76593e-06
-7.77392e-06
-7.78182e-06
-7.78964e-06
-7.79738e-06
-7.80503e-06
-7.81261e-06
-7.82011e-06
-7.82753e-06
-7.83487e-06
-7.84214e-06
-7.84933e-06
-7.85644e-06
-7.86349e-06
-7.87046e-06
-7.87736e-06
-7.88418e-06
-7.89094e-06
-7.89762e-06
-7.90423e-06
-7.91078e-06
-7.91726e-06
-7.92367e-06
-7.93002e-06
-7.9363e-06
-7.94251e-06
-7.94866e-06
-7.95475e-06
-7.96078e-06
-7.96674e-06
-7.97265e-06
-7.9785e-06
-7.98428e-06
-7.99001e-06
-7.99566e-06
-8.00127e-06
-8.00683e-06
-8.01232e-06
-8.01775e-06
-8.02314e-06
-8.02847e-06
-8.03374e-06
-8.03896e-06
-8.04413e-06
-8.04924e-06
-8.0543e-06
-8.05931e-06
-8.06427e-06
-8.06918e-06
-8.07404e-06
-8.07885e-06
-8.08361e-06
-8.08833e-06
-8.09299e-06
-8.09761e-06
-8.10217e-06
-8.1067e-06
-8.11118e-06
-8.11561e-06
-8.12e-06
-8.12434e-06
-8.12864e-06
-8.1329e-06
-8.13711e-06
-8.14128e-06
-8.14541e-06
-8.14949e-06
-8.15353e-06
-8.15754e-06
-8.16151e-06
-8.16543e-06
-8.16931e-06
-8.17316e-06
-8.17696e-06
-8.18073e-06
-8.18446e-06
-8.18816e-06
-8.19182e-06
-8.19543e-06
-8.19901e-06
-8.20255e-06
-8.20607e-06
-8.20954e-06
-8.21297e-06
-8.21637e-06
-8.21975e-06
-8.22309e-06
-8.22639e-06
-8.22966e-06
-8.23289e-06
-8.23609e-06
-8.23926e-06
-8.24241e-06
-8.24552e-06
-8.24859e-06
-8.25163e-06
-8.25464e-06
-8.25763e-06
-8.26059e-06
-8.26351e-06
-8.2664e-06
-8.26926e-06
-8.2721e-06
-8.27492e-06
-8.27769e-06
-8.28044e-06
-8.28317e-06
-8.28587e-06
-8.28853e-06
-8.29117e-06
-8.29378e-06
-8.29638e-06
-8.29895e-06
-8.30149e-06
-8.30399e-06
-8.30648e-06
-8.30894e-06
-8.31138e-06
-8.31378e-06
-8.31617e-06
-8.31854e-06
-8.32088e-06
-8.3232e-06
-8.32549e-06
-8.32776e-06
-8.33e-06
-8.33223e-06
-8.33443e-06
-8.33661e-06
-8.33876e-06
-8.3409e-06
-8.34301e-06
-8.3451e-06
-8.34718e-06
-8.34923e-06
-8.35126e-06
-8.35327e-06
-8.35526e-06
-8.35723e-06
-8.35918e-06
-8.36111e-06
-8.36302e-06
-8.36491e-06
-8.36678e-06
-8.36863e-06
-8.37046e-06
-8.37228e-06
-8.37408e-06
-8.37586e-06
-8.37762e-06
-8.37937e-06
-8.38109e-06
-8.3828e-06
-8.38449e-06
-8.38616e-06
-8.38782e-06
-8.38946e-06
-8.39108e-06
-8.39269e-06
-8.39429e-06
-8.39586e-06
-8.39741e-06
-8.39896e-06
-8.40049e-06
-8.402e-06
-8.40349e-06
-8.40497e-06
-8.40644e-06
-8.40789e-06
-8.40932e-06
-8.41075e-06
-8.41216e-06
-8.41355e-06
-8.41493e-06
-8.4163e-06
-8.41765e-06
-8.41898e-06
-8.42031e-06
-8.42162e-06
-8.42292e-06
-8.4242e-06
-8.42547e-06
-8.42673e-06
-8.42798e-06
-8.42921e-06
-8.43043e-06
-8.43164e-06
-8.43283e-06
-8.43401e-06
-8.43519e-06
-8.43635e-06
-8.4375e-06
-8.43863e-06
-8.43976e-06
-8.44088e-06
-8.44198e-06
-8.44307e-06
-8.44415e-06
-8.44523e-06
-8.44629e-06
-8.44734e-06
-8.44838e-06
-8.44942e-06
-8.45044e-06
-8.45145e-06
-8.45246e-06
-8.45345e-06
-8.45443e-06
-8.45541e-06
-8.45638e-06
-8.45734e-06
-8.4583e-06
-8.45924e-06
-8.46017e-06
-8.46109e-06
-8.46201e-06
-8.46293e-06
-8.46384e-06
-8.46474e-06
-8.46563e-06
-8.46651e-06
-8.46739e-06
-8.46826e-06
-8.46912e-06
-8.46998e-06
-8.47084e-06
-8.47168e-06
-8.47252e-06
-8.47336e-06
-8.47419e-06
-8.47502e-06
-8.47584e-06
-8.47666e-06
-8.47747e-06
-8.47827e-06
-8.47908e-06
-8.47988e-06
-8.48067e-06
-8.48145e-06
-8.48223e-06
-8.48302e-06
-8.4838e-06
-8.48457e-06
-8.48534e-06
-8.4861e-06
-8.48687e-06
-8.48763e-06
-8.48838e-06
-8.48913e-06
-8.48988e-06
-8.49063e-06
-8.49138e-06
-8.49212e-06
-8.49286e-06
-8.49359e-06
-8.49432e-06
-8.49505e-06
-8.49578e-06
-8.4965e-06
-8.49722e-06
-8.49793e-06
-8.49864e-06
-8.49935e-06
-8.50007e-06
-8.50078e-06
-8.50148e-06
-8.50218e-06
-8.50287e-06
-8.50357e-06
-8.50425e-06
-8.50494e-06
-8.50563e-06
-8.50631e-06
-8.50699e-06
-8.50766e-06
-8.50833e-06
-8.509e-06
-8.50967e-06
-8.51033e-06
-8.51098e-06
-8.51164e-06
-8.51228e-06
-8.51293e-06
-8.51357e-06
-8.51421e-06
-8.51484e-06
-8.51547e-06
-8.51609e-06
-8.51671e-06
-8.51733e-06
-8.51794e-06
-8.51855e-06
-8.51915e-06
-8.51975e-06
-8.52034e-06
-8.52093e-06
-8.5215e-06
-8.52208e-06
-8.52265e-06
-8.52321e-06
-8.52377e-06
-8.52433e-06
-8.52488e-06
-8.52542e-06
-8.52595e-06
-8.52648e-06
-8.52701e-06
-8.52753e-06
-8.52804e-06
-8.52854e-06
-8.52904e-06
-8.52954e-06
-8.53002e-06
-8.5305e-06
-8.53097e-06
-8.53143e-06
-8.53189e-06
-8.53235e-06
-8.5328e-06
-8.53324e-06
-8.53367e-06
-8.53409e-06
-8.53451e-06
-8.53492e-06
-8.53532e-06
-8.53573e-06
-8.53612e-06
-8.5365e-06
-8.53687e-06
-8.53724e-06
-8.53761e-06
-8.53796e-06
-8.53831e-06
-8.53865e-06
-8.53898e-06
-8.53931e-06
-8.53963e-06
-8.53995e-06
-8.54025e-06
-8.54055e-06
-8.54085e-06
-8.54114e-06
-8.54141e-06
-8.54168e-06
-8.54195e-06
-8.54221e-06
-8.54247e-06
-8.54272e-06
-8.54295e-06
-8.54319e-06
-8.54342e-06
-8.54363e-06
-8.54385e-06
-8.54406e-06
-8.54427e-06
-8.54447e-06
-8.54466e-06
-8.54485e-06
-8.54502e-06
-8.54519e-06
-8.54536e-06
-8.54553e-06
-8.54569e-06
-8.54585e-06
-8.546e-06
-8.54614e-06
-8.54628e-06
-8.54641e-06
-8.54654e-06
-8.54666e-06
-8.54678e-06
-8.5469e-06
-8.54702e-06
-8.54712e-06
-8.54722e-06
-8.54732e-06
-8.54742e-06
-8.54752e-06
-8.54761e-06
-8.54769e-06
-8.54777e-06
-8.54784e-06
-8.54792e-06
-8.548e-06
-8.54807e-06
-8.54813e-06
-8.5482e-06
-8.54825e-06
-8.54831e-06
-8.54836e-06
-8.54842e-06
-8.54847e-06
-8.54852e-06
-8.54856e-06
-8.5486e-06
-8.54864e-06
-8.54868e-06
-8.54873e-06
-8.54876e-06
-8.54879e-06
-8.54882e-06
-8.54885e-06
-8.54888e-06
-8.54891e-06
-8.54894e-06
-8.54896e-06
-8.54898e-06
-8.549e-06
-8.54903e-06
-8.54906e-06
-8.54907e-06
-8.54908e-06
-8.54911e-06
-8.54913e-06
-8.54913e-06
-8.54915e-06
-8.54916e-06
-8.54918e-06
-8.54919e-06
-8.5492e-06
-8.54921e-06
-8.54922e-06
-8.54923e-06
-8.54924e-06
-8.54925e-06
-8.54926e-06
-8.54927e-06
-8.54927e-06
-8.54928e-06
-8.54929e-06
-8.5493e-06
-8.54931e-06
-8.54931e-06
-8.54932e-06
-8.54933e-06
-8.54933e-06
-8.54934e-06
-8.54935e-06
-8.54935e-06
-8.54935e-06
-8.54936e-06
-8.54937e-06
-8.54937e-06
-8.54937e-06
-8.54938e-06
-8.54939e-06
-8.54939e-06
-8.54939e-06
-8.5494e-06
-8.54941e-06
-8.54941e-06
-8.54941e-06
-8.54942e-06
-8.54942e-06
-8.54943e-06
-8.54943e-06
-8.54944e-06
-8.54944e-06
-8.54945e-06
-8.54946e-06
-8.54946e-06
-8.54947e-06
-8.54947e-06
-8.54948e-06
-8.54948e-06
-8.54948e-06
-8.54948e-06
-8.54949e-06
-8.54949e-06
-8.5495e-06
-8.54951e-06
-8.54951e-06
-8.54951e-06
-8.54951e-06
-8.54952e-06
-8.54953e-06
-8.54954e-06
-8.54954e-06
-8.54955e-06
-8.54955e-06
-8.54955e-06
-8.54955e-06
-8.54956e-06
-8.54957e-06
-8.54957e-06
-8.54958e-06
-8.54958e-06
-8.54959e-06
-8.54959e-06
-8.54959e-06
-8.5496e-06
-8.5496e-06
-8.54961e-06
-8.54962e-06
-8.54962e-06
-8.54962e-06
-8.54963e-06
-8.54963e-06
-8.54963e-06
-8.54964e-06
-8.54965e-06
-8.54965e-06
-8.54965e-06
-8.54965e-06
-8.54965e-06
-8.54966e-06
-8.54966e-06
-8.54966e-06
-8.54965e-06
-8.54965e-06
-8.54965e-06
-8.54965e-06
-8.54963e-06
-8.54961e-06
-8.5496e-06
-8.54958e-06
-8.54954e-06
-8.54949e-06
-8.54944e-06
-8.54937e-06
-8.54927e-06
-8.54915e-06
-8.54898e-06
-8.54879e-06
-8.54853e-06
-8.54821e-06
-8.54779e-06
-8.54727e-06
-8.54657e-06
-8.54575e-06
-8.54459e-06
-8.54327e-06
-8.54131e-06
-8.53924e-06
-8.53582e-06
-8.53268e-06
-8.52621e-06
-8.52204e-06
-8.50781e-06
-8.5066e-06
-8.46407e-06
-8.53614e-06
-6.03589e-06
-6.03589e-06
0
0
0.09661
0.0320527
0.0130061
0.00682635
0.00423605
0.00291412
0.00214248
0.0016484
0.00131054
0.00106806
0.00088755
0.000749302
0.000640998
0.000554576
0.000484551
0.000427072
0.000379357
0.000339354
0.000305518
0.000276665
0.000251878
0.000230436
0.000211766
0.00019541
0.000180996
0.000168225
0.000156848
0.000146664
0.000137504
0.000129228
0.000121718
0.000114878
0.000108623
0.000102884
9.76006e-05
9.27214e-05
8.82027e-05
8.40065e-05
8.01001e-05
7.64549e-05
7.30461e-05
6.98518e-05
6.68528e-05
6.40323e-05
6.13752e-05
5.88681e-05
5.64991e-05
5.42575e-05
5.21338e-05
5.01193e-05
4.82061e-05
4.63872e-05
4.46562e-05
4.30071e-05
4.14347e-05
3.9934e-05
3.85005e-05
3.713e-05
3.58189e-05
3.45635e-05
3.33606e-05
3.22072e-05
3.11005e-05
3.0038e-05
2.90171e-05
2.80358e-05
2.70919e-05
2.61834e-05
2.53085e-05
2.44656e-05
2.3653e-05
2.28693e-05
2.2113e-05
2.13828e-05
2.06776e-05
1.9996e-05
1.93372e-05
1.86999e-05
1.80832e-05
1.74863e-05
1.69083e-05
1.63483e-05
1.58056e-05
1.52794e-05
1.4769e-05
1.42739e-05
1.37933e-05
1.33267e-05
1.28735e-05
1.24332e-05
1.20053e-05
1.15893e-05
1.11848e-05
1.07912e-05
1.04083e-05
1.00355e-05
9.67259e-06
9.31914e-06
8.97481e-06
8.63928e-06
8.31223e-06
7.99337e-06
7.68242e-06
7.37909e-06
7.08313e-06
6.7943e-06
6.51236e-06
6.23706e-06
5.96818e-06
5.70553e-06
5.4489e-06
5.1981e-06
4.95294e-06
4.71324e-06
4.47883e-06
4.24955e-06
4.02524e-06
3.80575e-06
3.59093e-06
3.38063e-06
3.17473e-06
2.97309e-06
2.77559e-06
2.58212e-06
2.39254e-06
2.20675e-06
2.02466e-06
1.84614e-06
1.67109e-06
1.49942e-06
1.33104e-06
1.16586e-06
1.00379e-06
8.4475e-07
6.88655e-07
5.35428e-07
3.8499e-07
2.37275e-07
9.22055e-08
-5.02919e-08
-1.90275e-07
-3.27801e-07
-4.62936e-07
-5.95746e-07
-7.26291e-07
-8.54625e-07
-9.80797e-07
-1.10485e-06
-1.22686e-06
-1.34686e-06
-1.4649e-06
-1.58103e-06
-1.69529e-06
-1.80772e-06
-1.91837e-06
-2.02728e-06
-2.13448e-06
-2.24002e-06
-2.34394e-06
-2.44627e-06
-2.54704e-06
-2.64629e-06
-2.74405e-06
-2.84035e-06
-2.93523e-06
-3.02872e-06
-3.12084e-06
-3.21163e-06
-3.3011e-06
-3.3893e-06
-3.47623e-06
-3.56194e-06
-3.64645e-06
-3.72978e-06
-3.81194e-06
-3.89297e-06
-3.97289e-06
-4.05172e-06
-4.12947e-06
-4.20618e-06
-4.28186e-06
-4.35653e-06
-4.4302e-06
-4.50291e-06
-4.57466e-06
-4.64547e-06
-4.71536e-06
-4.78435e-06
-4.85245e-06
-4.91968e-06
-4.98605e-06
-5.05158e-06
-5.11629e-06
-5.18018e-06
-5.24327e-06
-5.30558e-06
-5.36711e-06
-5.42789e-06
-5.48792e-06
-5.54722e-06
-5.60579e-06
-5.66365e-06
-5.72081e-06
-5.77729e-06
-5.83309e-06
-5.88822e-06
-5.9427e-06
-5.99653e-06
-6.04973e-06
-6.1023e-06
-6.15426e-06
-6.20561e-06
-6.25636e-06
-6.30652e-06
-6.3561e-06
-6.40511e-06
-6.45357e-06
-6.50146e-06
-6.54881e-06
-6.59561e-06
-6.64189e-06
-6.68765e-06
-6.73289e-06
-6.77762e-06
-6.82184e-06
-6.86557e-06
-6.90881e-06
-6.95157e-06
-6.99387e-06
-7.03569e-06
-7.07704e-06
-7.11794e-06
-7.1584e-06
-7.1984e-06
-7.23796e-06
-7.2771e-06
-7.31581e-06
-7.35411e-06
-7.39198e-06
-7.42945e-06
-7.4665e-06
-7.50315e-06
-7.53942e-06
-7.57529e-06
-7.61078e-06
-7.64589e-06
-7.68062e-06
-7.71498e-06
-7.74898e-06
-7.78261e-06
-7.81588e-06
-7.84881e-06
-7.88138e-06
-7.91361e-06
-7.9455e-06
-7.97705e-06
-8.00827e-06
-8.03916e-06
-8.06972e-06
-8.09997e-06
-8.1299e-06
-8.15952e-06
-8.18882e-06
-8.21782e-06
-8.24652e-06
-8.27491e-06
-8.30301e-06
-8.33082e-06
-8.35835e-06
-8.38558e-06
-8.41253e-06
-8.43921e-06
-8.4656e-06
-8.49172e-06
-8.51757e-06
-8.54316e-06
-8.56849e-06
-8.59355e-06
-8.61835e-06
-8.64289e-06
-8.66719e-06
-8.69123e-06
-8.71503e-06
-8.73858e-06
-8.7619e-06
-8.78497e-06
-8.80781e-06
-8.83041e-06
-8.85277e-06
-8.87492e-06
-8.89684e-06
-8.91852e-06
-8.93999e-06
-8.96125e-06
-8.98229e-06
-9.00311e-06
-9.02371e-06
-9.04411e-06
-9.0643e-06
-9.08428e-06
-9.10406e-06
-9.12364e-06
-9.14302e-06
-9.16221e-06
-9.18119e-06
-9.19999e-06
-9.2186e-06
-9.23701e-06
-9.25523e-06
-9.27328e-06
-9.29114e-06
-9.30882e-06
-9.32632e-06
-9.34364e-06
-9.36078e-06
-9.37776e-06
-9.39456e-06
-9.41119e-06
-9.42765e-06
-9.44394e-06
-9.46007e-06
-9.47604e-06
-9.49185e-06
-9.5075e-06
-9.52299e-06
-9.53831e-06
-9.55349e-06
-9.56851e-06
-9.58338e-06
-9.59811e-06
-9.61269e-06
-9.62711e-06
-9.64138e-06
-9.65551e-06
-9.66951e-06
-9.68336e-06
-9.69707e-06
-9.71064e-06
-9.72408e-06
-9.73738e-06
-9.75055e-06
-9.76358e-06
-9.77648e-06
-9.78925e-06
-9.80189e-06
-9.8144e-06
-9.8268e-06
-9.83907e-06
-9.8512e-06
-9.86321e-06
-9.87511e-06
-9.88689e-06
-9.89855e-06
-9.91008e-06
-9.9215e-06
-9.93281e-06
-9.94401e-06
-9.95509e-06
-9.96606e-06
-9.97691e-06
-9.98767e-06
-9.99831e-06
-1.00088e-05
-1.00193e-05
-1.00296e-05
-1.00398e-05
-1.00499e-05
-1.00599e-05
-1.00698e-05
-1.00797e-05
-1.00894e-05
-1.0099e-05
-1.01085e-05
-1.01179e-05
-1.01272e-05
-1.01365e-05
-1.01456e-05
-1.01547e-05
-1.01636e-05
-1.01725e-05
-1.01813e-05
-1.01899e-05
-1.01985e-05
-1.02071e-05
-1.02155e-05
-1.02238e-05
-1.02321e-05
-1.02403e-05
-1.02483e-05
-1.02564e-05
-1.02643e-05
-1.02721e-05
-1.02799e-05
-1.02876e-05
-1.02952e-05
-1.03028e-05
-1.03102e-05
-1.03176e-05
-1.03249e-05
-1.03321e-05
-1.03393e-05
-1.03464e-05
-1.03534e-05
-1.03604e-05
-1.03673e-05
-1.03741e-05
-1.03808e-05
-1.03875e-05
-1.03941e-05
-1.04006e-05
-1.04071e-05
-1.04135e-05
-1.04198e-05
-1.04261e-05
-1.04323e-05
-1.04385e-05
-1.04446e-05
-1.04506e-05
-1.04565e-05
-1.04625e-05
-1.04683e-05
-1.04741e-05
-1.04798e-05
-1.04855e-05
-1.04911e-05
-1.04966e-05
-1.05021e-05
-1.05076e-05
-1.0513e-05
-1.05183e-05
-1.05236e-05
-1.05288e-05
-1.0534e-05
-1.05391e-05
-1.05442e-05
-1.05492e-05
-1.05541e-05
-1.0559e-05
-1.05639e-05
-1.05687e-05
-1.05735e-05
-1.05782e-05
-1.05829e-05
-1.05875e-05
-1.05921e-05
-1.05966e-05
-1.06011e-05
-1.06056e-05
-1.061e-05
-1.06143e-05
-1.06186e-05
-1.06229e-05
-1.06272e-05
-1.06313e-05
-1.06355e-05
-1.06396e-05
-1.06437e-05
-1.06477e-05
-1.06517e-05
-1.06557e-05
-1.06596e-05
-1.06635e-05
-1.06674e-05
-1.06712e-05
-1.0675e-05
-1.06788e-05
-1.06825e-05
-1.06862e-05
-1.06899e-05
-1.06935e-05
-1.06971e-05
-1.07007e-05
-1.07043e-05
-1.07078e-05
-1.07113e-05
-1.07148e-05
-1.07182e-05
-1.07216e-05
-1.07251e-05
-1.07284e-05
-1.07318e-05
-1.07351e-05
-1.07384e-05
-1.07417e-05
-1.0745e-05
-1.07483e-05
-1.07515e-05
-1.07547e-05
-1.07579e-05
-1.07611e-05
-1.07643e-05
-1.07674e-05
-1.07705e-05
-1.07737e-05
-1.07768e-05
-1.07799e-05
-1.07829e-05
-1.0786e-05
-1.0789e-05
-1.07921e-05
-1.07951e-05
-1.07981e-05
-1.08011e-05
-1.08041e-05
-1.0807e-05
-1.081e-05
-1.08129e-05
-1.08159e-05
-1.08188e-05
-1.08217e-05
-1.08246e-05
-1.08275e-05
-1.08304e-05
-1.08332e-05
-1.08361e-05
-1.08389e-05
-1.08417e-05
-1.08446e-05
-1.08474e-05
-1.08502e-05
-1.0853e-05
-1.08557e-05
-1.08585e-05
-1.08612e-05
-1.0864e-05
-1.08667e-05
-1.08694e-05
-1.08721e-05
-1.08748e-05
-1.08775e-05
-1.08801e-05
-1.08827e-05
-1.08854e-05
-1.0888e-05
-1.08906e-05
-1.08932e-05
-1.08957e-05
-1.08983e-05
-1.09008e-05
-1.09033e-05
-1.09058e-05
-1.09083e-05
-1.09108e-05
-1.09132e-05
-1.09156e-05
-1.09181e-05
-1.09204e-05
-1.09228e-05
-1.09252e-05
-1.09275e-05
-1.09298e-05
-1.09321e-05
-1.09343e-05
-1.09366e-05
-1.09388e-05
-1.0941e-05
-1.09431e-05
-1.09453e-05
-1.09474e-05
-1.09495e-05
-1.09516e-05
-1.09536e-05
-1.09557e-05
-1.09577e-05
-1.09596e-05
-1.09616e-05
-1.09635e-05
-1.09654e-05
-1.09673e-05
-1.09691e-05
-1.09709e-05
-1.09727e-05
-1.09745e-05
-1.09762e-05
-1.09779e-05
-1.09796e-05
-1.09812e-05
-1.09828e-05
-1.09844e-05
-1.0986e-05
-1.09875e-05
-1.0989e-05
-1.09905e-05
-1.0992e-05
-1.09934e-05
-1.09948e-05
-1.09962e-05
-1.09975e-05
-1.09988e-05
-1.10001e-05
-1.10013e-05
-1.10026e-05
-1.10038e-05
-1.1005e-05
-1.10061e-05
-1.10072e-05
-1.10083e-05
-1.10094e-05
-1.10104e-05
-1.10114e-05
-1.10124e-05
-1.10134e-05
-1.10143e-05
-1.10152e-05
-1.10161e-05
-1.1017e-05
-1.10178e-05
-1.10186e-05
-1.10194e-05
-1.10202e-05
-1.10209e-05
-1.10217e-05
-1.10223e-05
-1.1023e-05
-1.10237e-05
-1.10243e-05
-1.10249e-05
-1.10255e-05
-1.10261e-05
-1.10266e-05
-1.10272e-05
-1.10277e-05
-1.10282e-05
-1.10287e-05
-1.10291e-05
-1.10296e-05
-1.103e-05
-1.10304e-05
-1.10308e-05
-1.10312e-05
-1.10316e-05
-1.10319e-05
-1.10322e-05
-1.10325e-05
-1.10329e-05
-1.10331e-05
-1.10334e-05
-1.10337e-05
-1.1034e-05
-1.10342e-05