# vtk DataFile Version 2.0
FlowField
ASCII
DATASET STRUCTURED_GRID
DIMENSIONS 800 1 200
POINTS 160000 float
0 0 0
0.04 0 0
0.08 0 0
0.12 0 0
0.16 0 0
0.2 0 0
0.24 0 0
0.28 0 0
0.32 0 0
0.36 0 0
0.4 0 0
0.44 0 0
0.48 0 0
0.52 0 0
0.56 0 0
0.6 0 0
0.64 0 0
0.68 0 0
0.72 0 0
0.76 0 0
0.8 0 0
0.84 0 0
0.88 0 0
0.92 0 0
0.96 0 0
1 0 0
1.04 0 0
1.08 0 0
1.12 0 0
1.16 0 0
1.2 0 0
1.24 0 0
1.28 0 0
1.32 0 0
1.36 0 0
1.4 0 0
1.44 0 0
1.48 0 0
1.52 0 0
1.56 0 0
1.6 0 0
1.64 0 0
1.68 0 0
1.72 0 0
1.76 0 0
1.8 0 0
1.84 0 0
1.88 0 0
1.92 0 0
1.96 0 0
2 0 0
2.04 0 0
2.08 0 0
2.12 0 0
2.16 0 0
2.2 0 0
2.24 0 0
2.28 0 0
2.32 0 0
2.36 0 0
2.4 0 0
2.44 0 0
2.48 0 0
2.52 0 0
2.56 0 0
2.6 0 0
2.64 0 0
2.68 0 0
2.72 0 0
2.76 0 0
2.8 0 0
2.84 0 0
2.88 0 0
2.92 0 0
2.96 0 0
3 0 0
3.04 0 0
3.08 0 0
3.12 0 0
3.16 0 0
3.2 0 0
3.24 0 0
3.28 0 0
3.32 0 0
3.36 0 0
3.4 0 0
3.44 0 0
3.48 0 0
3.52 0 0
3.56 0 0
3.6 0 0
3.64 0 0
3.68 0 0
3.72 0 0
3.76 0 0
3.8 0 0
3.84 0 0
3.88 0 0
3.92 0 0
3.96 0 0
4 0 0
4.04 0 0
4.08 0 0
4.12 0 0
4.16 0 0
4.2 0 0
4.24 0 0
4.28 0 0
4.32 0 0
4.36 0 0
4.4 0 0
4.44 0 0
4.48 0 0
4.52 0 0
4.56 0 0
4.6 0 0
4.64 0 0
4.68 0 0
4.72 0 0
4.76 0 0
4.8 0 0
4.84 0 0
4.88 0 0
4.92 0 0
4.96 0 0
5 0 0
5.04 0 0
5.08 0 0
5.12 0 0
5.16 0 0
5.2 0 0
5.24 0 0
5.28 0 0
5.32 0 0
5.36 0 0
5.4 0 0
5.44 0 0
5.48 0 0
5.52 0 0
5.56 0 0
5.6 0 0
5.64 0 0
5.68 0 0
5.72 0 0
5.76 0 0
5.8 0 0
5.84 0 0
5.88 0 0
5.92 0 0
5.96 0 0
6 0 0
6.04 0 0
6.08 0 0
6.12 0 0
6.16 0 0
6.2 0 0
6.24 0 0
6.28 0 0
6.32 0 0
6.36 0 0
6.4 0 0
6.44 0 0
6.48 0 0
6.52 0 0
6.56 0 0
6.6 0 0
6.64 0 0
6.68 0 0
6.72 0 0
6.76 0 0
6.8 0 0
6.84 0 0
6.88 0 0
6.92 0 0
6.96 0 0
7 0 0
7.04 0 0
7.08 0 0
7.12 0 0
7.16 0 0
7.2 0 0
7.24 0 0
7.28 0 0
7.32 0 0
7.36 0 0
7.4 0 0
7.44 0 0
7.48 0 0
7.52 0 0
7.56 0 0
7.6 0 0
7.64 0 0
7.68 0 0
7.72 0 0
7.76 0 0
7.8 0 0
7.84 0 0
7.88 0 0
7.92 0 0
7.96 0 0
8 0 0
8.04 0 0
8.08 0 0
8.12 0 0
8.16 0 0
8.2 0 0
8.24 0 0
8.28 0 0
8.32 0 0
8.36 0 0
8.4 0 0
8.44 0 0
8.48 0 0
8.52 0 0
8.56 0 0
8.6 0 0
8.64 0 0
8.68 0 0
8.72 0 0
8.76 0 0
8.8 0 0
8.84 0 0
8.88 0 0
8.92 0 0
8.96 0 0
9 0 0
9.04 0 0
9.08 0 0
9.12 0 0
9.16 0 0
9.2 0 0
9.24 0 0
9.28 0 0
9.32 0 0
9.36 0 0
9.4 0 0
9.44 0 0
9.48 0 0
9.52 0 0
9.56 0 0
9.6 0 0
9.64 0 0
9.68 0 0
9.72 0 0
9.76 0 0
9.8 0 0
9.84 0 0
9.88 0 0
9.92 0 0
9.96 0 0
10 0 0
10.04 0 0
10.08 0 0
10.12 0 0
10.16 0 0
10.2 0 0
10.24 0 0
10.28 0 0
10.32 0 0
10.36 0 0
10.4 0 0
10.44 0 0
10.48 0 0
10.52 0 0
10.56 0 0
10.6 0 0
10.64 0 0
10.68 0 0
10.72 0 0
10.76 0 0
10.8 0 0
10.84 0 0
10.88 0 0
10.92 0 0
10.96 0 0
11 0 0
11.04 0 0
11.08 0 0
11.12 0 0
11.16 0 0
11.2 0 0
11.24 0 0
11.28 0 0
11.32 0 0
11.36 0 0
11.4 0 0
11.44 0 0
11.48 0 0
11.52 0 0
11.56 0 0
11.6 0 0
11.64 0 0
11.68 0 0
11.72 0 0
11.76 0 0
11.8 0 0
11.84 0 0
11.88 0 0
11.92 0 0
11.96 0 0
12 0 0
12.04 0 0
12.08 0 0
12.12 0 0
12.16 0 0
12.2 0 0
12.24 0 0
12.28 0 0
12.32 0 0
12.36 0 0
12.4 0 0
12.44 0 0
12.48 0 0
12.52 0 0
12.56 0 0
12.6 0 0
12.64 0 0
12.68 0 0
12.72 0 0
12.76 0 0
12.8 0 0
12.84 0 0
12.88 0 0
12.92 0 0
12.96 0 0
13 0 0
13.04 0 0
13.08 0 0
13.12 0 0
13.16 0 0
13.2 0 0
13.24 0 0
13.28 0 0
13.32 0 0
13.36 0 0
13.4 0 0
13.44 0 0
13.48 0 0
13.52 0 0
13.56 0 0
13.6 0 0
13.64 0 0
13.68 0 0
13.72 0 0
13.76 0 0
13.8 0 0
13.84 0 0
13.88 0 0
13.92 0 0
13.96 0 0
14 0 0
14.04 0 0
14.08 0 0
14.12 0 0
14.16 0 0
14.2 0 0
14.24 0 0
14.28 0 0
14.32 0 0
14.36 0 0
14.4 0 0
14.44 0 0
14.48 0 0
14.52 0 0
14.56 0 0
14.6 0 0
14.64 0 0
14.68 0 0
14.72 0 0
14.76 0 0
14.8 0 0
14.84 0 0
14.88 0 0
14.92 0 0
14.96 0 0
15 0 0
15.04 0 0
15.08 0 0
15.12 0 0
15.16 0 0
15.2 0 0
15.24 0 0
15.28 0 0
15.32 0 0
15.36 0 0
15.4 0 0
15.44 0 0
15.48 0 0
15.52 0 0
15.56 0 0
15.6 0 0
15.64 0 0
15.68 0 0
15.72 0 0
15.76 0 0
15.8 0 0
15.84 0 0
15.88 0 0
15.92 0 0
15.96 0 0
16 0 0
16.04 0 0
16.08 0 0
16.12 0 0
16.16 0 0
16.2 0 0
16.24 0 0
16.28 0 0
16.32 0 0
16.36 0 0
16.4 0 0
16.44 0 0
16.48 0 0
16.52 0 0
16.56 0 0
16.6 0 0
16.64 0 0
16.68 0 0
16.72 0 0
16.76 0 0
16.8 0 0
16.84 0 0
16.88 0 0
16.92 0 0
16.96 0 0
17 0 0
17.04 0 0
17.08 0 0
17.12 0 0
17.16 0 0
17.2 0 0
17.24 0 0
17.28 0 0
17.32 0 0
17.36 0 0
17.4 0 0
17.44 0 0
17.48 0 0
17.52 0 0
17.56 0 0
17.6 0 0
17.64 0 0
17.68 0 0
17.72 0 0
17.76 0 0
17.8 0 0
17.84 0 0
17.88 0 0
17.92 0 0
17.96 0 0
18 0 0
18.04 0 0
18.08 0 0
18.12 0 0
18.16 0 0
18.2 0 0
18.24 0 0
18.28 0 0
18.32 0 0
18.36 0 0
18.4 0 0
18.44 0 0
18.48 0 0
18.52 0 0
18.56 0 0
18.6 0 0
18.64 0 0
18.68 0 0
18.72 0 0
18.76 0 0
18.8 0 0
18.84 0 0
18.88 0 0
18.92 0 0
18.96 0 0
19 0 0
19.04 0 0
19.08 0 0
19.12 0 0
19.16 0 0
19.2 0 0
19.24 0 0
19.28 0 0
19.32 0 0
19.36 0 0
19.4 0 0
19.44 0 0
19.48 0 0
19.52 0 0
19.56 0 0
19.6 0 0
19.64 0 0
19.68 0 0
19.72 0 0
19.76 0 0
19.8 0 0
19.84 0 0
19.88 0 0
19.92 0 0
19.96 0 0
20 0 0
20.04 0 0
20.08 0 0
20.12 0 0
20.16 0 0
20.2 0 0
20.24 0 0
20.28 0 0
20.32 0 0
20.36 0 0
20.4 0 0
20.44 0 0
20.48 0 0
20.52 0 0
20.56 0 0
20.6 0 0
20.64 0 0
20.68 0 0
20.72 0 0
20.76 0 0
20.8 0 0
20.84 0 0
20.88 0 0
20.92 0 0
20.96 0 0
21 0 0
21.04 0 0
21.08 0 0
21.12 0 0
21.16 0 0
21.2 0 0
21.24 0 0
21.28 0 0
21.32 0 0
21.36 0 0
21.4 0 0
21.44 0 0
21.48 0 0
21.52 0 0
21.56 0 0
21.6 0 0
21.64 0 0
21.68 0 0
21.72 0 0
21.76 0 0
21.8 0 0
21.84 0 0
21.88 0 0
21.92 0 0
21.96 0 0
22 0 0
22.04 0 0
22.08 0 0
22.12 0 0
22.16 0 0
22.2 0 0
22.24 0 0
22.28 0 0
22.32 0 0
22.36 0 0
22.4 0 0
22.44 0 0
22.48 0 0
22.52 0 0
22.56 0 0
22.6 0 0
22.64 0 0
22.68 0 0
22.72 0 0
22.76 0 0
22.8 0 0
22.84 0 0
22.88 0 0
22.92 0 0
22.96 0 0
23 0 0
23.04 0 0
23.08 0 0
23.12 0 0
23.16 0 0
23.2 0 0
23.24 0 0
23.28 0 0
23.32 0 0
23.36 0 0
23.4 0 0
23.44 0 0
23.48 0 0
23.52 0 0
23.56 0 0
23.6 0 0
23.64 0 0
23.68 0 0
23.72 0 0
23.76 0 0
23.8 0 0
23.84 0 0
23.88 0 0
23.92 0 0
23.96 0 0
24 0 0
24.04 0 0
24.08 0 0
24.12 0 0
24.16 0 0
24.2 0 0
24.24 0 0
24.28 0 0
24.32 0 0
24.36 0 0
24.4 0 0
24.44 0 0
24.48 0 0
24.52 0 0
24.56 0 0
24.6 0 0
24.64 0 0
24.68 0 0
24.72 0 0
24.76 0 0
24.8 0 0
24.84 0 0
24.88 0 0
24.92 0 0
24.96 0 0
25 0 0
25.04 0 0
25.08 0 0
25.12 0 0
25.16 0 0
25.2 0 0
25.24 0 0
25.28 0 0
25.32 0 0
25.36 0 0
25.4 0 0
25.44 0 0
25.48 0 0
25.52 0 0
25.56 0 0
25.6 0 0
25.64 0 0
25.68 0 0
25.72 0 0
25.76 0 0
25.8 0 0
25.84 0 0
25.88 0 0
25.92 0 0
25.96 0 0
26 0 0
26.04 0 0
26.08 0 0
26.12 0 0
26.16 0 0
26.2 0 0
26.24 0 0
26.28 0 0
26.32 0 0
26.36 0 0
26.4 0 0
26.44 0 0
26.48 0 0
26.52 0 0
26.56 0 0
26.6 0 0
26.64 0 0
26.68 0 0
26.72 0 0
26.76 0 0
26.8 0 0
26.84 0 0
26.88 0 0
26.92 0 0
26.96 0 0
27 0 0
27.04 0 0
27.08 0 0
27.12 0 0
27.16 0 0
27.2 0 0
27.24 0 0
27.28 0 0
27.32 0 0
27.36 0 0
27.4 0 0
27.44 0 0
27.48 0 0
27.52 0 0
27.56 0 0
27.6 0 0
27.64 0 0
27.68 0 0
27.72 0 0
27.76 0 0
27.8 0 0
27.84 0 0
27.88 0 0
27.92 0 0
27.96 0 0
28 0 0
28.04 0 0
28.08 0 0
28.12 0 0
28.16 0 0
28.2 0 0
28.24 0 0
28.28 0 0
28.32 0 0
28.36 0 0
28.4 0 0
28.44 0 0
28.48 0 0
28.52 0 0
28.56 0 0
28.6 0 0
28.64 0 0
28.68 0 0
28.72 0 0
28.76 0 0
28.8 0 0
28.84 0 0
28.88 0 0
28.92 0 0
28.96 0 0
29 0 0
29.04 0 0
29.08 0 0
29.12 0 0
29.16 0 0
29.2 0 0
29.24 0 0
29.28 0 0
29.32 0 0
29.36 0 0
29.4 0 0
29.44 0 0
29.48 0 0
29.52 0 0
29.56 0 0
29.6 0 0
29.64 0 0
29.68 0 0
29.72 0 0
29.76 0 0
29.8 0 0
29.84 0 0
29.88 0 0
29.92 0 0
29.96 0 0
30 0 0
30.04 0 0
30.08 0 0
30.12 0 0
30.16 0 0
30.2 0 0
30.24 0 0
30.28 0 0
30.32 0 0
30.36 0 0
30.4 0 0
30.44 0 0
30.48 0 0
30.52 0 0
30.56 0 0
30.6 0 0
30.64 0 0
30.68 0 0
30.72 0 0
30.76 0 0
30.8 0 0
30.84 0 0
30.88 0 0
30.92 0 0
30.96 0 0
31 0 0
31.04 0 0
31.08 0 0
31.12 0 0
31.16 0 0
31.2 0 0
31.24 0 0
31.28 0 0
31.32 0 0
31.36 0 0
31.4 0 0
31.44 0 0
31.48 0 0
31.52 0 0
31.56 0 0
31.6 0 0
31.64 0 0
31.68 0 0
31.72 0 0
31.76 0 0
31.8 0 0
31.84 0 0
31.88 0 0
31.92 0 0
31.96 0 0
0 0.005 0
0.04 0.005 0
0.08 0.005 0
0.12 0.005 0
0.16 0.005 0
0.2 0.005 0
0.24 0.005 0
0.28 0.005 0
0.32 0.005 0
0.36 0.005 0
0.4 0.005 0
0.44 0.005 0
0.48 0.005 0
0.52 0.005 0
0.56 0.005 0
0.6 0.005 0
0.64 0.005 0
0.68 0.005 0
0.72 0.005 0
0.76 0.005 0
0.8 0.005 0
0.84 0.005 0
0.88 0.005 0
0.92 0.005 0
0.96 0.005 0
1 0.005 0
1.04 0.005 0
1.08 0.005 0
1.12 0.005 0
1.16 0.005 0
1.2 0.005 0
1.24 0.005 0
1.28 0.005 0
1.32 0.005 0
1.36 0.005 0
1.4 0.005 0
1.44 0.005 0
1.48 0.005 0
1.52 0.005 0
1.56 0.005 0
1.6 0.005 0
1.64 0.005 0
1.68 0.005 0
1.72 0.005 0
1.76 0.005 0
1.8 0.005 0
1.84 0.005 0
1.88 0.005 0
1.92 0.005 0
1.96 0.005 0
2 0.005 0
2.04 0.005 0
2.08 0.005 0
2.12 0.005 0
2.16 0.005 0
2.2 0.005 0
2.24 0.005 0
2.28 0.005 0
2.32 0.005 0
2.36 0.005 0
2.4 0.005 0
2.44 0.005 0
2.48 0.005 0
2.52 0.005 0
2.56 0.005 0
2.6 0.005 0
2.64 0.005 0
2.68 0.005 0
2.72 0.005 0
2.76 0.005 0
2.8 0.005 0
2.84 0.005 0
2.88 0.005 0
2.92 0.005 0
2.96 0.005 0
3 0.005 0
3.04 0.005 0
3.08 0.005 0
3.12 0.005 0
3.16 0.005 0
3.2 0.005 0
3.24 0.005 0
3.28 0.005 0
3.32 0.005 0
3.36 0.005 0
3.4 0.005 0
3.44 0.005 0
3.48 0.005 0
3.52 0.005 0
3.56 0.005 0
3.6 0.005 0
3.64 0.005 0
3.68 0.005 0
3.72 0.005 0
3.76 0.005 0
3.8 0.005 0
3.84 0.005 0
3.88 0.005 0
3.92 0.005 0
3.96 0.005 0
4 0.005 0
4.04 0.005 0
4.08 0.005 0
4.12 0.005 0
4.16 0.005 0
4.2 0.005 0
4.24 0.005 0
4.28 0.005 0
4.32 0.005 0
4.36 0.005 0
4.4 0.005 0
4.44 0.005 0
4.48 0.005 0
4.52 0.005 0
4.56 0.005 0
4.6 0.005 0
4.64 0.005 0
4.68 0.005 0
4.72 0.005 0
4.76 0.005 0
4.8 0.005 0
4.84 0.005 0
4.88 0.005 0
4.92 0.005 0
4.96 0.005 0
5 0.005 0
5.04 0.005 0
5.08 0.005 0
5.12 0.005 0
5.16 0.005 0
5.2 0.005 0
5.24 0.005 0
5.28 0.005 0
5.32 0.005 0
5.36 0.005 0
5.4 0.005 0
5.44 0.005 0
5.48 0.005 0
5.52 0.005 0
5.56 0.005 0
5.6 0.005 0
5.64 0.005 0
5.68 0.005 0
5.72 0.005 0
5.76 0.005 0
5.8 0.005 0
5.84 0.005 0
5.88 0.005 0
5.92 0.005 0
5.96 0.005 0
6 0.005 0
6.04 0.005 0
6.08 0.005 0
6.12 0.005 0
6.16 0.005 0
6.2 0.005 0
6.24 0.005 0
6.28 0.005 0
6.32 0.005 0
6.36 0.005 0
6.4 0.005 0
6.44 0.005 0
6.48 0.005 0
6.52 0.005 0
6.56 0.005 0
6.6 0.005 0
6.64 0.005 0
6.68 0.005 0
6.72 0.005 0
6.76 0.005 0
6.8 0.005 0
6.84 0.005 0
6.88 0.005 0
6.92 0.005 0
6.96 0.005 0
7 0.005 0
7.04 0.005 0
7.08 0.005 0
7.12 0.005 0
7.16 0.005 0
7.2 0.005 0
7.24 0.005 0
7.28 0.005 0
7.32 0.005 0
7.36 0.005 0
7.4 0.005 0
[...]
POINT_DATA 160000

SCALARS phi float 1
LOOKUP_TABLE default
1
1
1
0.999999
1
1
1
1
1
0.999996
0.999966
0.999777
0.999049
0.997029
0.992596
0.984428
0.971279
0.952255
0.926987
0.895669
0.858971
0.817881
0.773542
0.727105
0.679625
0.632002
0.584962
0.539061
0.494701
0.452151
0.411572
0.373046
0.336594
0.302202
0.269833
0.239439
0.210965
0.184359
0.159578
0.136605
0.115453
0.0961663
0.0788072
0.0634354
0.0500842
0.0387394
0.0293277
0.0217152
0.0157183
0.0111192
0.00768622
0.00519201
0.00342762
0.00221197
0.00139577
0.000861465
0.000520249
0.000307539
0.000178025
0.000100955
5.61083e-05
3.05741e-05
1.63412e-05
8.57029e-06
4.41223e-06
2.23069e-06
1.1079e-06
5.40759e-07
2.59478e-07
1.22444e-07
5.68412e-08
2.59666e-08
1.16769e-08
5.17048e-09
2.25503e-09
9.68981e-10
4.10332e-10
1.71288e-10
7.0502e-11
2.86197e-11
1.14609e-11
4.52862e-12
1.76604e-12
6.79859e-13
2.5841e-13
9.69971e-14
3.59629e-14
1.31728e-14
4.76772e-15
1.70541e-15
6.02986e-16
2.10776e-16
7.28516e-17
2.49019e-17
8.41911e-18
2.81584e-18
9.31793e-19
3.05115e-19
9.8878e-20
3.17166e-20
1.00712e-20
3.16621e-21
9.85636e-22
3.03853e-22
9.27753e-23
2.80591e-23
8.4069e-24
2.49556e-24
7.34032e-25
2.13956e-25
6.18073e-26
1.76972e-26
5.02299e-27
1.41336e-27
3.94293e-28
1.09069e-28
2.99181e-29
8.13878e-30
2.19591e-30
5.87671e-31
1.56011e-31
4.10879e-32
1.0736e-32
2.7834e-33
7.16054e-34
1.82804e-34
4.63156e-35
1.16467e-35
2.90696e-36
7.20225e-37
1.77142e-37
4.32538e-38
1.04859e-38
2.52404e-39
6.03284e-40
1.43188e-40
3.37505e-41
7.90072e-42
1.83693e-42
4.24209e-43
9.73099e-44
2.21741e-44
5.01962e-45
1.1289e-45
2.52243e-46
5.60002e-47
1.23534e-47
2.70789e-48
5.89856e-49
1.27688e-49
2.74706e-50
5.87376e-51
1.24829e-51
2.63687e-52
5.53671e-53
1.15565e-53
2.39787e-54
4.94625e-55
1.01436e-55
2.06818e-56
4.19266e-57
8.451e-58
1.6938e-58
3.37574e-59
6.69031e-60
1.31859e-60
2.58448e-61
5.03796e-62
9.76721e-63
1.88337e-63
3.61213e-64
6.89083e-65
1.30759e-65
2.46821e-66
4.63464e-67
8.65736e-68
1.60882e-68
2.97435e-69
5.47085e-70
1.00117e-70
1.82293e-71
3.30253e-72
5.95325e-73
1.06784e-73
1.90595e-74
3.3852e-75
5.98326e-76
1.05241e-76
1.84218e-77
3.2092e-78
5.56399e-79
9.60097e-80
1.64889e-80
2.81857e-81
4.79553e-82
8.12131e-83
1.36901e-83
2.29716e-84
3.83695e-85
6.37977e-86
1.05598e-86
1.74e-87
2.85427e-88
4.66125e-89
7.57846e-90
1.2267e-90
1.97692e-91
3.17202e-92
5.06747e-93
8.06052e-94
1.27661e-94
2.01322e-95
3.16128e-96
4.94296e-97
7.69609e-98
1.19322e-98
1.84224e-99
2.83239e-100
4.33664e-101
6.61228e-102
1.00405e-102
1.51836e-103
2.28673e-104
3.42992e-105
5.12376e-106
7.62319e-107
1.12963e-107
1.66722e-108
2.45082e-109
3.58842e-110
5.23327e-111
7.60198e-112
1.09995e-112
1.58531e-113
2.27594e-114
3.25476e-115
4.63652e-116
6.57944e-117
9.30068e-118
1.30971e-118
1.83729e-119
2.5676e-120
3.57461e-121
4.95779e-122
6.85036e-123
9.42991e-124
1.29324e-124
1.76697e-125
2.40529e-126
3.26209e-127
4.40781e-128
5.93407e-129
7.95957e-130
1.06375e-130
1.41647e-131
1.87931e-132
2.48438e-133
3.27243e-134
4.29498e-135
5.61687e-136
7.31939e-137
9.50404e-138
1.2297e-138
1.58544e-139
2.03689e-140
2.6077e-141
3.32676e-142
4.22928e-143
5.3579e-144
6.76413e-145
8.50986e-146
1.06692e-146
1.33303e-147
1.6598e-148
2.05959e-149
2.54694e-150
3.1389e-151
3.85529e-152
4.71915e-153
5.75706e-154
6.99958e-155
8.48168e-156
1.02432e-156
1.23291e-157
1.47904e-158
1.76841e-159
2.10737e-160
2.50301e-161
2.96311e-162
3.49625e-163
4.11178e-164
4.81984e-165
5.63138e-166
6.55814e-167
7.6126e-168
8.80797e-169
1.01581e-169
1.16774e-170
1.33807e-171
1.52834e-172
1.74006e-173
1.97479e-174
2.23405e-175
2.51931e-176
2.83198e-177
3.17339e-178
3.54474e-179
3.94708e-180
4.38128e-181
4.84801e-182
5.34769e-183
5.88047e-184
6.44621e-185
7.04444e-186
7.67434e-187
8.33472e-188
9.02403e-189
9.74028e-190
1.04811e-190
1.12438e-191
1.2025e-192
1.28214e-193
1.36289e-194
1.44433e-195
1.52599e-196
1.60741e-197
1.68806e-198
1.76742e-199
1.84496e-200
1.92013e-201
1.99239e-202
2.06121e-203
2.12605e-204
2.18642e-205
2.24184e-206
2.29186e-207
2.33609e-208
2.37416e-209
2.40576e-210
2.43063e-211
2.44857e-212
2.45943e-213
2.46315e-214
2.4597e-215
2.44913e-216
2.43153e-217
2.40709e-218
2.37602e-219
2.3386e-220
2.29516e-221
2.24607e-222
2.19174e-223
2.13261e-224
2.06917e-225
2.00191e-226
1.93134e-227
1.85798e-228
1.78235e-229
1.70498e-230
1.62638e-231
1.54704e-232
1.46745e-233
1.38805e-234
1.30929e-235
1.23155e-236
1.1552e-237
1.08058e-238
1.00798e-239
9.37651e-241
8.69825e-242
8.04682e-243
7.42371e-244
6.83006e-245
6.26667e-246
5.73403e-247
5.23234e-248
4.76155e-249
4.32134e-250
3.91119e-251
3.53038e-252
3.17804e-253
2.85314e-254
2.55456e-255
2.28108e-256
2.03142e-257
1.80424e-258
1.59818e-259
1.41188e-260
1.24397e-261
1.09312e-262
9.58019e-264
8.3739e-265
7.30015e-266
6.34731e-267
5.5043e-268
4.7607e-269
4.10677e-270
3.53338e-271
3.0321e-272
2.59515e-273
2.21538e-274
1.88627e-275
1.60189e-276
1.35686e-277
1.14633e-278
9.65976e-280
8.11897e-281
6.8064e-282
5.69138e-283
4.74683e-284
3.94891e-285
3.27673e-286
2.71204e-287
2.23895e-288
1.8437e-289
1.51437e-290
1.24072e-291
1.01395e-292
8.2654e-294
6.72072e-295
5.45099e-296
4.41005e-297
3.55896e-298
2.86494e-299
2.3005e-300
1.84267e-301
1.47228e-302
1.17342e-303
9.32906e-305
7.39856e-306
5.85306e-307
4.61898e-308
3.63613e-309
2.85538e-310
2.23677e-311
1.74789e-312
1.36253e-313
1.05953e-314
8.21908e-316
6.36026e-317
4.90988e-318
3.78113e-319
2.90511e-320
2.23812e-321
1.77864e-322
4.94066e-324
0
0
0
0
0
0
0
0
0
0
0
0
0
0
0
0
0
0
0
0
0
0
0
0
0
0
0
0
0
0
0
0
0
0
0
0
0
0
0
0
0
0
0
0
0
0
0
0
0
0
0
0
0
0
0
0
0
0
0
0
0
0
0
0
0
0
0
0
0
0
0
0
0
0
0
0
0
0
0
0
0
0
0
0
0
0
0
0
0
0
0
0
0
0
0
0
0
0
0
0
0
0
0
0
0
0
0
0
0
0
0
0
0
0
0
0
0
0
0
0
0
0
0
0
0
0
0
0
0
0
0
0
0
0
0
0
0
0
0
0
0
0
0
0
0
0
0
0
0
0
0
0
0
0
0
0
0
0
0
0
0
0
0
0
0
0
0
0
0
0
0
0
0
0
0
0
0
0
0
0
0
0
0
0
0
0
0
0
0
0
0
0
0
0
0
0
0
0
0
0
0
0
0
0
0
0
0
0
0
0
0
0
0
0
0
0
0
0
0
0
0
0
0
0
0
0
0
0
0
0
0
0
0
0
0
0
0
0
0
0
0
0
0
0
0
0
0
0
0
0
0
0
0
0
0
0
0
0
0
0
0
0
0
0
0
0
0
0
0
0
0
0
0
0
0
0
0
0
0
0
0
0
0
0
0
0
0
0
0
0
0
0
0
0
0
0
0
0
0
0
0
0
0
0
0
0
0
0
0
0
0
0
0
0
0
0
0
0
0
0
0
0
0
0
0
0
0
0
0
0
0
0
0
0
0
0
0
0
0
0
0
0
0
0
0
0
0
0
0
0
0
0
0
0
1
1
1
0.999999
1
1
1
1
1
0.999996
0.999966
0.999777
0.999049
0.997029
0.992596
0.984428
0.971279
0.952255
0.926987
0.895669
0.858971
0.817881
0.773542
0.727105
0.679625
0.632002
0.584962
0.539061
0.494701
0.452151
0.411572
0.373046
0.336594
0.302202
0.269833
0.239439
0.210965
0.184359
0.159578
0.136605
0.115453
0.0961663
0.0788072
0.0634354
0.0500842
0.0387394
0.0293277
0.0217152
0.0157183
0.0111192
0.00768622
0.00519201
0.00342762
0.00221197
0.00139577
0.000861465
0.000520249
0.000307539
0.000178025
0.000100955
5.61083e-05
3.05741e-05
1.63412e-05
8.57029e-06
4.41223e-06
2.23069e-06
1.1079e-06
5.40759e-07
2.59478e-07
1.22444e-07
5.68412e-08
2.59666e-08
1.16769e-08
5.17048e-09
2.25503e-09
9.68981e-10
4.10332e-10
1.71288e-10
7.0502e-11
2.86197e-11
1.14609e-11
4.52862e-12
1.76604e-12
6.79859e-13
2.5841e-13
9.69971e-14
3.59629e-14
1.31728e-14
4.76772e-15
1.70541e-15
6.02986e-16
2.10776e-16
7.28516e-17
2.49019e-17
8.41911e-18
2.81584e-18
9.31793e-19
3.05115e-19
9.8878e-20
3.17166e-20
1.00712e-20
3.16621e-21
9.85636e-22
3.03853e-22
9.27753e-23
2.80591e-23
8.4069e-24
2.49556e-24
7.34032e-25
2.13956e-25
6.18073e-26
1.76972e-26
5.02299e-27
1.41336e-27
3.94293e-28
1.09069e-28
2.99181e-29
8.13878e-30
2.19591e-30
5.87671e-31
1.56011e-31
4.10879e-32
1.0736e-32
2.7834e-33
7.16054e-34
1.82804e-34
4.63156e-35
1.16467e-35
2.90696e-36
7.20225e-37
1.77142e-37
4.32538e-38
1.04859e-38
2.52404e-39
6.03284e-40
1.43188e-40
3.37505e-41
7.90072e-42
1.83693e-42
4.24209e-43
9.73099e-44
2.21741e-44
5.01962e-45
1.1289e-45
2.52243e-46
5.60002e-47
1.23534e-47
2.70789e-48
5.89856e-49
1.27688e-49
2.74706e-50
5.87376e-51
1.24829e-51
2.63687e-52
5.53671e-53
1.15565e-53
2.39787e-54
4.94625e-55
1.01436e-55
2.06818e-56
4.19266e-57
8.451e-58
1.6938e-58
3.37574e-59
6.69031e-60
1.31859e-60
2.58448e-61
5.03796e-62
9.76721e-63
1.88337e-63
3.61213e-64
6.89083e-65
1.30759e-65
2.46821e-66
4.63464e-67
8.65736e-68
1.60882e-68
2.97435e-69
5.47085e-70
1.00117e-70
1.82293e-71
3.30253e-72
5.95325e-73
1.06784e-73
1.90595e-74
3.3852e-75
5.98326e-76
1.05241e-76
1.84218e-77
3.2092e-78
5.56399e-79
9.60097e-80
1.64889e-80
2.81857e-81
4.79553e-82
8.12131e-83
1.36901e-83
2.29716e-84
3.83695e-85
6.37977e-86
1.05598e-86
1.74e-87
2.85427e-88
4.66125e-89
7.57846e-90
1.2267e-90
1.97692e-91
3.17202e-92
5.06747e-93
8.06052e-94
1.27661e-94
2.01322e-95
3.16128e-96
4.94296e-97
7.69609e-98
1.19322e-98
1.84224e-99
2.83239e-100
4.33664e-101
6.61228e-102
1.00405e-102
1.51836e-103
2.28673e-104
3.42992e-105
5.12376e-106
7.62319e-107
1.12963e-107
1.66722e-108
2.45082e-109
3.58842e-110
5.23327e-111
7.60198e-112
1.09995e-112
1.58531e-113
2.27594e-114
3.25476e-115
4.63652e-116
6.57944e-117
9.30068e-118
1.30971e-118
1.83729e-119
2.5676e-120
3.57461e-121
4.95779e-122
6.85036e-123
9.42991e-124
1.29324e-124
1.76697e-125
2.40529e-126
3.26209e-127
4.40781e-128
5.93407e-129
7.95957e-130
1.06375e-130
1.41647e-131
1.87931e-132
2.48438e-133
3.27243e-134
4.29498e-135
5.61687e-136
7.31939e-137
9.50404e-138
1.2297e-138
1.58544e-139
2.03689e-140
2.6077e-141
3.32676e-142
4.22928e-143
5.3579e-144
6.76413e-145
8.50986e-146
1.06692e-146
1.33303e-147
1.6598e-148
2.05959e-149
2.54694e-150
3.1389e-151
3.85529e-152
4.71915e-153
5.75706e-154
6.99958e-155
8.48168e-156
1.02432e-156
1.23291e-157
1.47904e-158
1.76841e-159
2.10737e-160
2.50301e-161
2.96311e-162
3.49625e-163
4.11178e-164
4.81984e-165
5.63138e-166
6.55814e-167
7.6126e-168
8.80797e-169
1.01581e-169
1.16774e-170
1.33807e-171
1.52834e-172
1.74006e-173
1.97479e-174
2.23405e-175
2.51931e-176
2.83198e-177
3.17339e-178
3.54474e-179
3.94708e-180
4.38128e-181
4.84801e-182
5.34769e-183
5.88047e-184
6.44621e-185
7.04444e-186
7.67434e-187
8.33472e-188
9.02403e-189
9.74028e-190
1.04811e-190
1.12438e-191
1.2025e-192
1.28214e-193
1.36289e-194
1.44433e-195
1.52599e-196
1.60741e-197
1.68806e-198
1.76742e-199
1.84496e-200
1.92013e-201
1.99239e-202
2.06121e-203
2.12605e-204
2.18642e-205
2.24184e-206
2.29186e-207
2.33609e-208
2.37416e-209
2.40576e-210
2.43063e-211
2.44857e-212
2.45943e-213
2.46315e-214
2.4597e-215
2.44913e-216
2.43153e-217
2.40709e-218
2.37602e-219
2.3386e-220
2.29516e-221
2.24607e-222
2.19174e-223
2.13261e-224
2.06917e-225
2.00191e-226
1.93134e-227
1.85798e-228
1.78235e-229
1.70498e-230
1.62638e-231
1.54704e-232
1.46745e-233
1.38805e-234
1.30929e-235
1.23155e-236
1.1552e-237
1.08058e-238
1.00798e-239
9.37651e-241
8.69825e-242
8.04682e-243
7.42371e-244
6.83006e-245
6.26667e-246
5.73403e-247
5.23234e-248
4.76155e-249
4.32134e-250
3.91119e-251
3.53038e-252
3.17804e-253
2.85314e-254
2.55456e-255
2.28108e-256
2.03142e-257
1.80424e-258
1.59818e-259
1.41188e-260
1.24397e-261
1.09312e-262
9.58019e-264
8.3739e-265
7.30015e-266
6.34731e-267
5.5043e-268
4.7607e-269
4.10677e-270
3.53338e-271
3.0321e-272
2.59515e-273
2.21538e-274
1.88627e-275
1.60189e-276
1.35686e-277
1.14633e-278
9.65976e-280
8.11897e-281
6.8064e-282
5.69138e-283
4.74683e-284
3.94891e-285
3.27673e-286
2.71204e-287
2.23895e-288
1.8437e-289
1.51437e-290
1.24072e-291
1.01395e-292
8.2654e-294
6.72072e-295
5.45099e-296
4.41005e-297
3.55896e-298
2.86494e-299
2.3005e-300
1.84267e-301
1.47228e-302
1.17342e-303
9.32906e-305
7.39856e-306
5.85306e-307
4.61898e-308
3.63613e-309
2.85538e-310
2.23677e-311
1.74789e-312
1.36253e-313
1.05953e-314
8.21908e-316
6.36026e-317
4.90988e-318
3.78113e-319
2.90511e-320
2.23812e-321
1.77864e-322
4.94066e-324
0
0
0
0
0
0
0
0
0
0
0
0
0
0
0
0
0
0
0
0
0
0
0
0
0
0
0
0
0
0
0
0
0
0
0
0
0
0
0
0
0
0
0
0
0
0
0
0
0
0
0
0
0
0
0
0
0
0
0
0
0
0
0
0
0
0
0
0
0
0
0
0
0
0
0
0
0
0
0
0
0
0
0
0
0
0
0
0
0
0
0
0
0
0
0
0
0
0
0
0
0
0
0
0
0
0
0
0
0
0
0
0
0
0
0
0
0
0
0
0
0
0
0
0
0
0
0
0
0
0
0
0
0
0
0
0
0
0
0
0
0
0
0
0
0
0
0
0
0
0
0
0
0
0
0
0
0
0
0
0
0
0
0
0
0
0
0
0
0
0
0
0
0
0
0
0
0
0
0
0
0
0
0
0
0
0
0
0
0
0
0
0
0
0
0
0
0
0
0
0
0
0
0
0
0
0
0
0
0
0
0
0
0
0
0
0
0
0
0
0
0
0
0
0
0
0
0
0
0
0
0
0
0
0
0
0
0
0
0
0
0
0
0
0
0
0
0
0
0
0
0
0
0
0
0
0
0
0
0
0
0
0
0
0
0
0
0
0
0
0
0
0
0
0
0
0
0
0
0
0
0
0
0
0
0
0
0
0
0
0
0
0
0
0
0
0
0
0
0
0
0
0
0
0
0
0
0
0
0
0
0
0
0
0
0
0
0
0
0
0
0
0
0
0
0
0
0
0
0
0
0
0
0
0
0
0
0
0
0
0
0
0
0
0
0
0
0
0
0
0
0
0
0
0
1
1
1
0.999999
1
1
1
1
1
0.999997
0.99997
0.999796
0.999112
0.997189
0.99293
0.985026
0.97223
0.953633
0.928837
0.898005
0.861773
0.821108
0.777135
0.730997
0.683746
0.636288
0.589354
0.543508
0.499159
0.456585
0.415955
0.377355
0.340813
0.306316
0.27383
0.243308
0.214698
0.187946
0.163009
0.139863
0.118519
0.0990137
0.081409
0.0657667
0.0521268
0.0404857
0.0307819
0.0228938
0.0166472
0.0118311
0.00821688
0.00557675
0.00369908
0.00239846
0.00152059
0.000942911
0.000572088
0.000339747
0.000197569
0.000112547
6.28316e-05
3.43898e-05
1.84615e-05
9.72442e-06
5.02797e-06
2.55282e-06
1.27324e-06
6.24053e-07
3.00682e-07
1.42469e-07
6.64049e-08
3.04573e-08
1.37508e-08
6.11277e-09
2.67641e-09
1.1545e-09
4.90768e-10
2.05645e-10
8.49628e-11
3.46191e-11
1.39149e-11
5.51858e-12
2.15998e-12
8.34531e-13
3.18344e-13
1.19923e-13
4.46212e-14
1.64021e-14
5.95736e-15
2.13838e-15
7.58698e-16
2.6612e-16
9.22959e-17
3.16558e-17
1.07389e-17
3.6038e-18
1.19654e-18
3.93111e-19
1.27817e-19
4.11347e-20
1.31047e-20
4.13334e-21
1.29088e-21
3.99243e-22
1.22293e-22
3.7105e-23
1.11527e-23
3.32114e-24
9.79953e-25
2.86536e-25
8.30336e-26
2.38491e-26
6.79012e-27
1.91651e-27
5.36307e-28
1.48808e-28
4.09435e-29
1.1172e-29
3.02345e-30
8.11583e-31
2.16103e-31
5.70847e-32
1.49604e-32
3.89017e-33
1.00375e-33
2.57009e-34
6.53083e-35
1.64709e-35
4.12309e-36
1.02451e-36
2.52715e-37
6.18858e-38
1.50462e-38
3.63216e-39
8.70631e-40
2.07234e-40
4.89858e-41
1.14998e-41
2.68129e-42
6.20951e-43
1.42842e-43
3.26409e-44
7.40971e-45
1.67107e-45
3.74428e-46
8.3357e-47
1.84391e-47
4.05304e-48
8.85296e-49
1.92169e-49
4.1456e-50
8.88832e-51
1.89409e-51
4.01189e-52
8.44667e-53
1.76778e-53
3.67789e-54
7.60699e-55
1.56419e-55
3.19776e-56
6.49982e-57
1.31363e-57
2.63983e-58
5.27509e-59
1.04821e-59
2.07135e-60
4.07057e-61
7.95559e-62
1.54639e-62
2.98961e-63
5.74869e-64
1.09951e-64
2.09182e-65
3.95869e-66
7.45248e-67
1.39567e-67
2.60025e-68
4.81956e-69
8.88743e-70
1.63055e-70
2.97641e-71
5.4059e-72
9.76945e-73
1.75676e-73
3.14347e-74
5.5972e-75
9.91766e-76
1.74879e-76
3.06878e-77
5.35929e-78
9.31478e-79
1.61129e-79
2.77409e-80
4.75364e-81
8.10774e-82
1.37642e-82
2.32592e-83
3.91233e-84
6.5507e-85
1.09184e-85
1.8116e-86
2.99231e-87
4.92038e-88
8.05473e-89
1.31272e-89
2.12996e-90
3.44079e-91
5.53404e-92
8.86198e-93
1.41297e-93
2.24316e-94
3.54583e-95
5.58105e-96
8.74708e-97
1.36511e-97
2.12146e-98
3.28304e-99
5.05941e-100
7.76446e-101
1.18664e-101
1.80606e-102
2.73752e-103
4.13239e-104
6.21258e-105
9.302e-106
1.38715e-106
2.06024e-107
3.04766e-108
4.49034e-109
6.58961e-110
9.63201e-111
1.40235e-111
2.03369e-112
2.93772e-113
4.22704e-114
6.05859e-115
8.6501e-116
1.23025e-116
1.74297e-117
2.45992e-118
3.45852e-119
4.84401e-120
6.75883e-121
9.39494e-122
1.30101e-122
1.79487e-123
2.46694e-124
3.37804e-125
4.60846e-126
6.26378e-127
8.48228e-128
1.14443e-128
1.53841e-129
2.06047e-130
2.74964e-131
3.65601e-132
4.84357e-133
6.39373e-134
8.40968e-135
1.10216e-135
1.43932e-136
1.87292e-137
2.4285e-138
3.13773e-139
4.03978e-140
5.18285e-141
6.62604e-142
8.44145e-143
1.07167e-143
1.3558e-144
1.70931e-145
2.14753e-146
2.68881e-147
3.35493e-148
4.17173e-149
5.16964e-150
6.38443e-151
7.85786e-152
9.63854e-153
1.17828e-153
1.43554e-154
1.74309e-155
2.10944e-156
2.54423e-157
3.05841e-158
3.66426e-159
4.37556e-160
5.20763e-161
6.17746e-162
7.30377e-163
8.60707e-164
1.01097e-164
1.18358e-165
1.38115e-166
1.60645e-167
1.86244e-168
2.15224e-169
2.47911e-170
2.84642e-171
3.25765e-172
3.71634e-173
4.22607e-174
4.79039e-175
5.41278e-176
6.09662e-177
6.84512e-178
7.66123e-179
8.54762e-180
9.50659e-181
1.054e-181
1.16491e-182
1.28348e-183
1.40971e-184
1.54354e-185
1.68483e-186
1.83338e-187
1.98885e-188
2.15087e-189
2.31895e-190
2.49249e-191
2.67082e-192
2.85318e-193
3.0387e-194
3.22646e-195
3.41543e-196
3.60453e-197
3.79261e-198
3.9785e-199
4.16095e-200
4.33871e-201
4.51053e-202
4.67516e-203
4.83136e-204
4.97793e-205
5.11373e-206
5.23768e-207
5.34879e-208
5.44615e-209
5.52898e-210
5.59658e-211
5.64842e-212
5.68407e-213
5.70326e-214
5.70586e-215
5.69188e-216
5.66147e-217
5.61493e-218
5.5527e-219
5.47533e-220
5.38352e-221
5.27806e-222
5.15985e-223
5.02986e-224
4.88917e-225
4.73889e-226
4.58018e-227
4.41424e-228
4.24227e-229
4.0655e-230
3.88511e-231
3.70228e-232
3.51815e-233
3.33382e-234
3.15031e-235
2.9686e-236
2.78958e-237
2.61407e-238
2.44281e-239
2.27645e-240
2.11556e-241
1.96061e-242
1.81202e-243
1.67008e-244
1.53505e-245
1.40707e-246
1.28624e-247
1.17258e-248
1.06606e-249
9.66577e-251
8.74005e-252
7.88162e-253
7.08831e-254
6.35767e-255
5.68701e-256
5.07343e-257
4.51392e-258
4.00538e-259
3.54464e-260
3.12854e-261
2.75394e-262
2.41776e-263
2.117e-264
1.84874e-265
1.61021e-266
1.39877e-267
1.21189e-268
1.04723e-269
9.02561e-271
7.75846e-272
6.6518e-273
5.68813e-274
4.85141e-275
4.12703e-276
3.50171e-277
2.96344e-278
2.50144e-279
2.10602e-280
1.76854e-281
1.48133e-282
1.23758e-283
1.03129e-284
8.57191e-286
7.10665e-287
5.87686e-288
4.84753e-289
3.98834e-290
3.27312e-291
2.67937e-292
2.18779e-293
1.7819e-294
1.44766e-295
1.17317e-296
9.48336e-298
7.64675e-299
6.15042e-300
4.93457e-301
3.94922e-302
3.15277e-303
2.5107e-304
1.99444e-305
1.58042e-306
1.24926e-307
9.85051e-309
7.74813e-310
6.07949e-311
4.75852e-312
3.71546e-313
2.89395e-314
2.24859e-315
1.74289e-316
1.34764e-317
1.0395e-318
7.99892e-320
6.15112e-321
4.79244e-322
3.95253e-323
0
0
0
0
0
0
0
0
0
0
0
0
0
0
0
0
0
0
0
0
0
0
0
0
0
0
0
0
0
0
0
0
0
0
0
0
0
0
0
0
0
0
0
0
0
0
0
0
0
0
0
0
0
0
0
0
0
0
0
0
0
0
0
0
0
0
0
0
0
0
0
0
0
0
0
0
0
0
0
0
0
0
0
0
0
0
0
0
0
0
0
0
0
0
0
0
0
0
0
0
0
0
0
0
0
0
0
0
0
0
0
0
0
0
0
0
0
0
0
0
0
0
0
0
0
0
0
0
0
0
0
0
0
0
0
0
0
0
0
0
0
0
0
0
0
0
0
0
0
0
0
0
0
0
0
0
0
0
0
0
0
0
0
0
0
0
0
0
0
0
0
0
0
0
0
0
0
0
0
0
0
0
0
0
0
0
0
0
0
0
0
0
0
0
0
0
0
0
0
0
0
0
0
0
0
0
0
0
0
0
0
0
0
0
0
0
0
0
0
0
0
0
0
0
0
0
0
0
0
0
0
0
0
0
0
0
0
0
0
0
0
0
0
0
0
0
0
0
0
0
0
0
0
0
0
0
0
0
0
0
0
0
0
0
0
0
0
0
0
0
0
0
0
0
0
0
0
0
0
0
0
0
0
0
0
0
0
0
0
0
0
0
0
0
0
0
0
0
0
0
0
0
0
0
0
0
0
0
0
0
0
0
0
0
0
0
0
0
0
0
0
0
0
0
0
0
0
0
0
0
0
0
0
0
0
0
0
0
0
0
0
0
0
0
0
0
0
0
0
0
0
0
0
0
1
1
1
0.999999
1
1
1
1
1
0.999998
0.999976
0.999827
0.999217
0.997461
0.993506
0.986072
0.973917
0.956102
0.932183
0.902261
0.866917
0.827068
0.783808
0.73826
0.691475
0.644359
0.597657
0.551942
0.507641
0.465045
0.424338
0.385618
0.348919
0.314236
0.28154
0.250786
0.221925
0.194902
0.169672
0.146204
0.124496
0.104578
0.0865055
0.0703456
0.0561503
0.0439356
0.0336639
0.0252367
0.0184997
0.0132554
0.0092818
0.00635124
0.00424722
0.00277617
0.00177415
0.00110884
0.000678004
0.000405738
0.000237727
0.000136429
7.67207e-05
4.22934e-05
2.28647e-05
1.21274e-05
6.31323e-06
3.22691e-06
1.62008e-06
7.99211e-07
3.87541e-07
1.84781e-07
8.6661e-08
3.99908e-08
1.81637e-08
8.12242e-09
3.57713e-09
1.55194e-09
6.63475e-10
2.79576e-10
1.16148e-10
4.75853e-11
1.92301e-11
7.6673e-12
3.01684e-12
1.17167e-12
4.49259e-13
1.70103e-13
6.36116e-14
2.34994e-14
8.57733e-15
3.09386e-15
1.10301e-15
3.88745e-16
1.35464e-16
4.668e-17
1.59093e-17
5.36354e-18
1.78894e-18
5.904e-19
1.92825e-19
6.23316e-20
1.99451e-20
6.31839e-21
1.98185e-21
6.15577e-22
1.89363e-22
5.76977e-23
1.7415e-23
5.20758e-24
1.54293e-24
4.52998e-25
1.31806e-25
3.80105e-26
1.08654e-26
3.07898e-27
8.65013e-28
2.40955e-28
6.65559e-29
1.8231e-29
4.95278e-30
1.33455e-30
3.56705e-31
9.45807e-32
2.48801e-32
6.49366e-33
1.68171e-33
4.32182e-34
1.10223e-34
2.78993e-35
7.00912e-36
1.74789e-36
4.32687e-37
1.06334e-37
2.59439e-38
6.28483e-39
1.51173e-39
3.61079e-40
8.56458e-41
2.01749e-41
4.72002e-42
1.0968e-42
2.53156e-43
5.80429e-44
1.32201e-44
2.99136e-45
6.7247e-46
1.502e-46
3.33338e-47
7.35083e-48
1.61082e-48
3.50783e-49
7.59157e-50
1.63285e-50
3.49062e-51
7.41687e-52
1.56646e-52
3.28867e-53
6.86339e-54
1.42396e-54
2.93704e-55
6.0228e-56
1.22794e-56
2.48925e-57
5.01749e-58
1.00565e-58
2.00433e-59
3.97254e-60
7.82998e-61