# vtk DataFile Version 2.0
FlowField
ASCII
DATASET STRUCTURED_GRID
DIMENSIONS 800 1 200
POINTS 160000 float
0 0 0
0.04 0 0
0.08 0 0
0.12 0 0
0.16 0 0
0.2 0 0
0.24 0 0
0.28 0 0
0.32 0 0
0.36 0 0
0.4 0 0
0.44 0 0
0.48 0 0
0.52 0 0
0.56 0 0
0.6 0 0
0.64 0 0
0.68 0 0
0.72 0 0
0.76 0 0
0.8 0 0
0.84 0 0
0.88 0 0
0.92 0 0
0.96 0 0
1 0 0
1.04 0 0
1.08 0 0
1.12 0 0
1.16 0 0
1.2 0 0
1.24 0 0
1.28 0 0
1.32 0 0
1.36 0 0
1.4 0 0
1.44 0 0
1.48 0 0
1.52 0 0
1.56 0 0
1.6 0 0
1.64 0 0
1.68 0 0
1.72 0 0
1.76 0 0
1.8 0 0
1.84 0 0
1.88 0 0
1.92 0 0
1.96 0 0
2 0 0
2.04 0 0
2.08 0 0
2.12 0 0
2.16 0 0
2.2 0 0
2.24 0 0
2.28 0 0
2.32 0 0
2.36 0 0
2.4 0 0
2.44 0 0
2.48 0 0
2.52 0 0
2.56 0 0
2.6 0 0
2.64 0 0
2.68 0 0
2.72 0 0
2.76 0 0
2.8 0 0
2.84 0 0
2.88 0 0
2.92 0 0
2.96 0 0
3 0 0
3.04 0 0
3.08 0 0
3.12 0 0
3.16 0 0
3.2 0 0
3.24 0 0
3.28 0 0
3.32 0 0
3.36 0 0
3.4 0 0
3.44 0 0
3.48 0 0
3.52 0 0
3.56 0 0
3.6 0 0
3.64 0 0
3.68 0 0
3.72 0 0
3.76 0 0
3.8 0 0
3.84 0 0
3.88 0 0
3.92 0 0
3.96 0 0
4 0 0
4.04 0 0
4.08 0 0
4.12 0 0
4.16 0 0
4.2 0 0
4.24 0 0
4.28 0 0
4.32 0 0
4.36 0 0
4.4 0 0
4.44 0 0
4.48 0 0
4.52 0 0
4.56 0 0
4.6 0 0
4.64 0 0
4.68 0 0
4.72 0 0
4.76 0 0
4.8 0 0
4.84 0 0
4.88 0 0
4.92 0 0
4.96 0 0
5 0 0
5.04 0 0
5.08 0 0
5.12 0 0
5.16 0 0
5.2 0 0
5.24 0 0
5.28 0 0
5.32 0 0
5.36 0 0
5.4 0 0
5.44 0 0
5.48 0 0
5.52 0 0
5.56 0 0
5.6 0 0
5.64 0 0
5.68 0 0
5.72 0 0
5.76 0 0
5.8 0 0
5.84 0 0
5.88 0 0
5.92 0 0
5.96 0 0
6 0 0
6.04 0 0
6.08 0 0
6.12 0 0
6.16 0 0
6.2 0 0
6.24 0 0
6.28 0 0
6.32 0 0
6.36 0 0
6.4 0 0
6.44 0 0
6.48 0 0
6.52 0 0
6.56 0 0
6.6 0 0
6.64 0 0
6.68 0 0
6.72 0 0
6.76 0 0
6.8 0 0
6.84 0 0
6.88 0 0
6.92 0 0
6.96 0 0
7 0 0
7.04 0 0
7.08 0 0
7.12 0 0
7.16 0 0
7.2 0 0
7.24 0 0
7.28 0 0
7.32 0 0
7.36 0 0
7.4 0 0
7.44 0 0
7.48 0 0
7.52 0 0
7.56 0 0
7.6 0 0
7.64 0 0
7.68 0 0
7.72 0 0
7.76 0 0
7.8 0 0
7.84 0 0
7.88 0 0
7.92 0 0
7.96 0 0
8 0 0
8.04 0 0
8.08 0 0
8.12 0 0
8.16 0 0
8.2 0 0
8.24 0 0
8.28 0 0
8.32 0 0
8.36 0 0
8.4 0 0
8.44 0 0
8.48 0 0
8.52 0 0
8.56 0 0
8.6 0 0
8.64 0 0
8.68 0 0
8.72 0 0
8.76 0 0
8.8 0 0
8.84 0 0
8.88 0 0
8.92 0 0
8.96 0 0
9 0 0
9.04 0 0
9.08 0 0
9.12 0 0
9.16 0 0
9.2 0 0
9.24 0 0
9.28 0 0
9.32 0 0
9.36 0 0
9.4 0 0
9.44 0 0
9.48 0 0
9.52 0 0
9.56 0 0
9.6 0 0
9.64 0 0
9.68 0 0
9.72 0 0
9.76 0 0
9.8 0 0
9.84 0 0
9.88 0 0
9.92 0 0
9.96 0 0
10 0 0
10.04 0 0
10.08 0 0
10.12 0 0
10.16 0 0
10.2 0 0
10.24 0 0
10.28 0 0
10.32 0 0
10.36 0 0
10.4 0 0
10.44 0 0
10.48 0 0
10.52 0 0
10.56 0 0
10.6 0 0
10.64 0 0
10.68 0 0
10.72 0 0
10.76 0 0
10.8 0 0
10.84 0 0
10.88 0 0
10.92 0 0
10.96 0 0
11 0 0
11.04 0 0
11.08 0 0
11.12 0 0
11.16 0 0
11.2 0 0
11.24 0 0
11.28 0 0
11.32 0 0
11.36 0 0
11.4 0 0
11.44 0 0
11.48 0 0
11.52 0 0
11.56 0 0
11.6 0 0
11.64 0 0
11.68 0 0
11.72 0 0
11.76 0 0
11.8 0 0
11.84 0 0
11.88 0 0
11.92 0 0
11.96 0 0
12 0 0
12.04 0 0
12.08 0 0
12.12 0 0
12.16 0 0
12.2 0 0
12.24 0 0
12.28 0 0
12.32 0 0
12.36 0 0
12.4 0 0
12.44 0 0
12.48 0 0
12.52 0 0
12.56 0 0
12.6 0 0
12.64 0 0
12.68 0 0
12.72 0 0
12.76 0 0
12.8 0 0
12.84 0 0
12.88 0 0
12.92 0 0
12.96 0 0
13 0 0
13.04 0 0
13.08 0 0
13.12 0 0
13.16 0 0
13.2 0 0
13.24 0 0
13.28 0 0
13.32 0 0
13.36 0 0
13.4 0 0
13.44 0 0
13.48 0 0
13.52 0 0
13.56 0 0
13.6 0 0
13.64 0 0
13.68 0 0
13.72 0 0
13.76 0 0
13.8 0 0
13.84 0 0
13.88 0 0
13.92 0 0
13.96 0 0
14 0 0
14.04 0 0
14.08 0 0
14.12 0 0
14.16 0 0
14.2 0 0
14.24 0 0
14.28 0 0
14.32 0 0
14.36 0 0
14.4 0 0
14.44 0 0
14.48 0 0
14.52 0 0
14.56 0 0
14.6 0 0
14.64 0 0
14.68 0 0
14.72 0 0
14.76 0 0
14.8 0 0
14.84 0 0
14.88 0 0
14.92 0 0
14.96 0 0
15 0 0
15.04 0 0
15.08 0 0
15.12 0 0
15.16 0 0
15.2 0 0
15.24 0 0
15.28 0 0
15.32 0 0
15.36 0 0
15.4 0 0
15.44 0 0
15.48 0 0
15.52 0 0
15.56 0 0
15.6 0 0
15.64 0 0
15.68 0 0
15.72 0 0
15.76 0 0
15.8 0 0
15.84 0 0
15.88 0 0
15.92 0 0
15.96 0 0
16 0 0
16.04 0 0
16.08 0 0
16.12 0 0
16.16 0 0
16.2 0 0
16.24 0 0
16.28 0 0
16.32 0 0
16.36 0 0
16.4 0 0
16.44 0 0
16.48 0 0
16.52 0 0
16.56 0 0
16.6 0 0
16.64 0 0
16.68 0 0
16.72 0 0
16.76 0 0
16.8 0 0
16.84 0 0
16.88 0 0
16.92 0 0
16.96 0 0
17 0 0
17.04 0 0
17.08 0 0
17.12 0 0
17.16 0 0
17.2 0 0
17.24 0 0
17.28 0 0
17.32 0 0
17.36 0 0
17.4 0 0
17.44 0 0
17.48 0 0
17.52 0 0
17.56 0 0
17.6 0 0
17.64 0 0
17.68 0 0
17.72 0 0
17.76 0 0
17.8 0 0
17.84 0 0
17.88 0 0
17.92 0 0
17.96 0 0
18 0 0
18.04 0 0
18.08 0 0
18.12 0 0
18.16 0 0
18.2 0 0
18.24 0 0
18.28 0 0
18.32 0 0
18.36 0 0
18.4 0 0
18.44 0 0
18.48 0 0
18.52 0 0
18.56 0 0
18.6 0 0
18.64 0 0
18.68 0 0
18.72 0 0
18.76 0 0
18.8 0 0
18.84 0 0
18.88 0 0
18.92 0 0
18.96 0 0
19 0 0
19.04 0 0
19.08 0 0
19.12 0 0
19.16 0 0
19.2 0 0
19.24 0 0
19.28 0 0
19.32 0 0
19.36 0 0
19.4 0 0
19.44 0 0
19.48 0 0
19.52 0 0
19.56 0 0
19.6 0 0
19.64 0 0
19.68 0 0
19.72 0 0
19.76 0 0
19.8 0 0
19.84 0 0
19.88 0 0
19.92 0 0
19.96 0 0
20 0 0
20.04 0 0
20.08 0 0
20.12 0 0
20.16 0 0
20.2 0 0
20.24 0 0
20.28 0 0
20.32 0 0
20.36 0 0
20.4 0 0
20.44 0 0
20.48 0 0
20.52 0 0
20.56 0 0
20.6 0 0
20.64 0 0
20.68 0 0
20.72 0 0
20.76 0 0
20.8 0 0
20.84 0 0
20.88 0 0
20.92 0 0
20.96 0 0
21 0 0
21.04 0 0
21.08 0 0
21.12 0 0
21.16 0 0
21.2 0 0
21.24 0 0
21.28 0 0
21.32 0 0
21.36 0 0
21.4 0 0
21.44 0 0
21.48 0 0
21.52 0 0
21.56 0 0
21.6 0 0
21.64 0 0
21.68 0 0
21.72 0 0
21.76 0 0
21.8 0 0
21.84 0 0
21.88 0 0
21.92 0 0
21.96 0 0
22 0 0
22.04 0 0
22.08 0 0
22.12 0 0
22.16 0 0
22.2 0 0
22.24 0 0
22.28 0 0
22.32 0 0
22.36 0 0
22.4 0 0
22.44 0 0
22.48 0 0
22.52 0 0
22.56 0 0
22.6 0 0
22.64 0 0
22.68 0 0
22.72 0 0
22.76 0 0
22.8 0 0
22.84 0 0
22.88 0 0
22.92 0 0
22.96 0 0
23 0 0
23.04 0 0
23.08 0 0
23.12 0 0
23.16 0 0
23.2 0 0
23.24 0 0
23.28 0 0
23.32 0 0
23.36 0 0
23.4 0 0
23.44 0 0
23.48 0 0
23.52 0 0
23.56 0 0
23.6 0 0
23.64 0 0
23.68 0 0
23.72 0 0
23.76 0 0
23.8 0 0
23.84 0 0
23.88 0 0
23.92 0 0
23.96 0 0
24 0 0
24.04 0 0
24.08 0 0
24.12 0 0
24.16 0 0
24.2 0 0
24.24 0 0
24.28 0 0
24.32 0 0
24.36 0 0
24.4 0 0
24.44 0 0
24.48 0 0
24.52 0 0
24.56 0 0
24.6 0 0
24.64 0 0
24.68 0 0
24.72 0 0
24.76 0 0
24.8 0 0
24.84 0 0
24.88 0 0
24.92 0 0
24.96 0 0
25 0 0
25.04 0 0
25.08 0 0
25.12 0 0
25.16 0 0
25.2 0 0
25.24 0 0
25.28 0 0
25.32 0 0
25.36 0 0
25.4 0 0
25.44 0 0
25.48 0 0
25.52 0 0
25.56 0 0
25.6 0 0
25.64 0 0
25.68 0 0
25.72 0 0
25.76 0 0
25.8 0 0
25.84 0 0
25.88 0 0
25.92 0 0
25.96 0 0
26 0 0
26.04 0 0
26.08 0 0
26.12 0 0
26.16 0 0
26.2 0 0
26.24 0 0
26.28 0 0
26.32 0 0
26.36 0 0
26.4 0 0
26.44 0 0
26.48 0 0
26.52 0 0
26.56 0 0
26.6 0 0
26.64 0 0
26.68 0 0
26.72 0 0
26.76 0 0
26.8 0 0
26.84 0 0
26.88 0 0
26.92 0 0
26.96 0 0
27 0 0
27.04 0 0
27.08 0 0
27.12 0 0
27.16 0 0
27.2 0 0
27.24 0 0
27.28 0 0
27.32 0 0
27.36 0 0
27.4 0 0
27.44 0 0
27.48 0 0
27.52 0 0
27.56 0 0
27.6 0 0
27.64 0 0
27.68 0 0
27.72 0 0
27.76 0 0
27.8 0 0
27.84 0 0
27.88 0 0
27.92 0 0
27.96 0 0
28 0 0
28.04 0 0
28.08 0 0
28.12 0 0
28.16 0 0
28.2 0 0
28.24 0 0
28.28 0 0
28.32 0 0
28.36 0 0
28.4 0 0
28.44 0 0
28.48 0 0
28.52 0 0
28.56 0 0
28.6 0 0
28.64 0 0
28.68 0 0
28.72 0 0
28.76 0 0
28.8 0 0
28.84 0 0
28.88 0 0
28.92 0 0
28.96 0 0
29 0 0
29.04 0 0
29.08 0 0
29.12 0 0
29.16 0 0
29.2 0 0
29.24 0 0
29.28 0 0
29.32 0 0
29.36 0 0
29.4 0 0
29.44 0 0
29.48 0 0
29.52 0 0
29.56 0 0
29.6 0 0
29.64 0 0
29.68 0 0
29.72 0 0
29.76 0 0
29.8 0 0
29.84 0 0
29.88 0 0
29.92 0 0
29.96 0 0
30 0 0
30.04 0 0
30.08 0 0
30.12 0 0
30.16 0 0
30.2 0 0
30.24 0 0
30.28 0 0
30.32 0 0
30.36 0 0
30.4 0 0
30.44 0 0
30.48 0 0
30.52 0 0
30.56 0 0
30.6 0 0
30.64 0 0
30.68 0 0
30.72 0 0
30.76 0 0
30.8 0 0
30.84 0 0
30.88 0 0
30.92 0 0
30.96 0 0
31 0 0
31.04 0 0
31.08 0 0
31.12 0 0
31.16 0 0
31.2 0 0
31.24 0 0
31.28 0 0
31.32 0 0
31.36 0 0
31.4 0 0
31.44 0 0
31.48 0 0
31.52 0 0
31.56 0 0
31.6 0 0
31.64 0 0
31.68 0 0
31.72 0 0
31.76 0 0
31.8 0 0
31.84 0 0
31.88 0 0
31.92 0 0
31.96 0 0
0 0.005 0
0.04 0.005 0
0.08 0.005 0
0.12 0.005 0
0.16 0.005 0
0.2 0.005 0
0.24 0.005 0
0.28 0.005 0
0.32 0.005 0
0.36 0.005 0
0.4 0.005 0
0.44 0.005 0
0.48 0.005 0
0.52 0.005 0
0.56 0.005 0
0.6 0.005 0
0.64 0.005 0
0.68 0.005 0
0.72 0.005 0
0.76 0.005 0
0.8 0.005 0
0.84 0.005 0
0.88 0.005 0
0.92 0.005 0
0.96 0.005 0
1 0.005 0
1.04 0.005 0
1.08 0.005 0
1.12 0.005 0
1.16 0.005 0
1.2 0.005 0
1.24 0.005 0
1.28 0.005 0
1.32 0.005 0
1.36 0.005 0
1.4 0.005 0
1.44 0.005 0
1.48 0.005 0
1.52 0.005 0
1.56 0.005 0
1.6 0.005 0
1.64 0.005 0
1.68 0.005 0
1.72 0.005 0
1.76 0.005 0
1.8 0.005 0
1.84 0.005 0
1.88 0.005 0
1.92 0.005 0
1.96 0.005 0
2 0.005 0
2.04 0.005 0
2.08 0.005 0
2.12 0.005 0
2.16 0.005 0
2.2 0.005 0
2.24 0.005 0
2.28 0.005 0
2.32 0.005 0
2.36 0.005 0
2.4 0.005 0
2.44 0.005 0
2.48 0.005 0
2.52 0.005 0
2.56 0.005 0
2.6 0.005 0
2.64 0.005 0
2.68 0.005 0
2.72 0.005 0
2.76 0.005 0
2.8 0.005 0
2.84 0.005 0
2.88 0.005 0
2.92 0.005 0
2.96 0.005 0
3 0.005 0
3.04 0.005 0
3.08 0.005 0
3.12 0.005 0
3.16 0.005 0
3.2 0.005 0
3.24 0.005 0
3.28 0.005 0
3.32 0.005 0
3.36 0.005 0
3.4 0.005 0
3.44 0.005 0
3.48 0.005 0
3.52 0.005 0
3.56 0.005 0
3.6 0.005 0
3.64 0.005 0
3.68 0.005 0
3.72 0.005 0
3.76 0.005 0
3.8 0.005 0
3.84 0.005 0
3.88 0.005 0
3.92 0.005 0
3.96 0.005 0
4 0.005 0
4.04 0.005 0
4.08 0.005 0
4.12 0.005 0
4.16 0.005 0
4.2 0.005 0
4.24 0.005 0
4.28 0.005 0
4.32 0.005 0
4.36 0.005 0
4.4 0.005 0
4.44 0.005 0
4.48 0.005 0
4.52 0.005 0
4.56 0.005 0
4.6 0.005 0
4.64 0.005 0
4.68 0.005 0
4.72 0.005 0
4.76 0.005 0
4.8 0.005 0
4.84 0.005 0
4.88 0.005 0
4.92 0.005 0
4.96 0.005 0
5 0.005 0
5.04 0.005 0
5.08 0.005 0
5.12 0.005 0
5.16 0.005 0
5.2 0.005 0
5.24 0.005 0
5.28 0.005 0
5.32 0.005 0
5.36 0.005 0
5.4 0.005 0
5.44 0.005 0
5.48 0.005 0
5.52 0.005 0
5.56 0.005 0
5.6 0.005 0
5.64 0.005 0
5.68 0.005 0
5.72 0.005 0
5.76 0.005 0
5.8 0.005 0
5.84 0.005 0
5.88 0.005 0
5.92 0.005 0
5.96 0.005 0
6 0.005 0
6.04 0.005 0
6.08 0.005 0
6.12 0.005 0
6.16 0.005 0
6.2 0.005 0
6.24 0.005 0
6.28 0.005 0
6.32 0.005 0
6.36 0.005 0
6.4 0.005 0
6.44 0.005 0
6.48 0.005 0
6.52 0.005 0
6.56 0.005 0
6.6 0.005 0
6.64 0.005 0
6.68 0.005 0
6.72 0.005 0
6.76 0.005 0
6.8 0.005 0
6.84 0.005 0
6.88 0.005 0
6.92 0.005 0
6.96 0.005 0
7 0.005 0
7.04 0.005 0
7.08 0.005 0
7.12 0.005 0
7.16 0.005 0
7.2 0.005 0
7.24 0.005 0
7.28 0.005 0
7.32 0.005 0
7.36 0.005 0
7.4 0.005 0
[...]
POINT_DATA 160000

SCALARS u float 1
LOOKUP_TABLE default
-1
-0.483353
-0.18396
-0.108843
-0.0810306
-0.0668313
-0.058116
-0.0521509
-0.0477762
-0.0444141
-0.0417418
-0.0395632
-0.0377516
-0.0362205
-0.034909
-0.0337727
-0.0327783
-0.0319004
-0.0311193
-0.0304195
-0.0297887
-0.0292168
-0.0286958
-0.0282192
-0.0277814
-0.027378
-0.0270053
-0.0266601
-0.0263399
-0.0260425
-0.0257661
-0.0255091
-0.0252701
-0.0250483
-0.0248431
-0.0246545
-0.0244825
-0.0243273
-0.0241889
-0.0240671
-0.0239616
-0.0238719
-0.0237971
-0.0237361
-0.0236872
-0.0236483
-0.0236169
-0.0235905
-0.0235668
-0.0235438
-0.0235204
-0.0234961
-0.0234712
-0.0234464
-0.0234226
-0.0234009
-0.0233821
-0.0233665
-0.0233544
-0.0233456
-0.0233398
-0.0233364
-0.023335
-0.0233348
-0.0233356
-0.0233368
-0.0233382
-0.0233396
-0.0233408
-0.0233419
-0.0233427
-0.0233432
-0.0233436
-0.0233438
-0.0233438
-0.0233437
-0.0233436
-0.0233433
-0.023343
-0.0233427
-0.0233424
-0.0233421
-0.0233417
-0.0233413
-0.023341
-0.0233406
-0.0233402
-0.0233399
-0.0233395
-0.0233391
-0.0233388
-0.0233384
-0.023338
-0.0233377
-0.0233373
-0.023337
-0.0233366
-0.0233362
-0.0233359
-0.0233355
-0.0233351
-0.0233348
-0.0233344
-0.023334
-0.0233337
-0.0233333
-0.023333
-0.0233326
-0.0233322
-0.0233319
-0.0233315
-0.0233311
-0.0233308
-0.0233304
-0.02333
-0.0233297
-0.0233293
-0.023329
-0.0233286
-0.0233282
-0.0233279
-0.0233275
-0.0233271
-0.0233268
-0.0233264
-0.023326
-0.0233257
-0.0233253
-0.023325
-0.0233246
-0.0233242
-0.0233239
-0.0233235
-0.0233231
-0.0233228
-0.0233224
-0.023322
-0.0233217
-0.0233213
-0.0233209
-0.0233206
-0.0233202
-0.0233198
-0.0233195
-0.0233191
-0.0233187
-0.0233184
-0.023318
-0.0233177
-0.0233173
-0.0233169
-0.0233166
-0.0233162
-0.0233158
-0.0233155
-0.0233151
-0.0233147
-0.0233144
-0.023314
-0.0233136
-0.0233133
-0.0233129
-0.0233125
-0.0233122
-0.0233118
-0.0233114
-0.0233111
-0.0233107
-0.0233103
-0.02331
-0.0233096
-0.0233092
-0.0233089
-0.0233085
-0.0233081
-0.0233078
-0.0233074
-0.023307
-0.0233067
-0.0233063
-0.0233059
-0.0233056
-0.0233052
-0.0233048
-0.0233045
-0.0233041
-0.0233037
-0.0233034
-0.023303
-0.0233026
-0.0233023
-0.0233019
-0.0233015
-0.0233012
-0.0233008
-0.0233004
-0.0233001
-0.0232997
-0.0232993
-0.023299
-0.0232986
-0.0232982
-0.0232979
-0.0232975
-0.0232971
-0.0232968
-0.0232964
-0.023296
-0.0232957
-0.0232953
-0.0232949
-0.0232946
-0.0232942
-0.0232938
-0.0232935
-0.0232931
-0.0232927
-0.0232923
-0.023292
-0.0232916
-0.0232912
-0.0232909
-0.0232905
-0.0232901
-0.0232898
-0.0232894
-0.023289
-0.0232887
-0.0232883
-0.0232879
-0.0232876
-0.0232872
-0.0232868
-0.0232865
-0.0232861
-0.0232857
-0.0232854
-0.023285
-0.0232846
-0.0232842
-0.0232839
-0.0232835
-0.0232831
-0.0232828
-0.0232824
-0.023282
-0.0232817
-0.0232813
-0.0232809
-0.0232806
-0.0232802
-0.0232798
-0.0232795
-0.0232791
-0.0232787
-0.0232783
-0.023278
-0.0232776
-0.0232772
-0.0232769
-0.0232765
-0.0232761
-0.0232758
-0.0232754
-0.023275
-0.0232747
-0.0232743
-0.0232739
-0.0232736
-0.0232732
-0.0232728
-0.0232724
-0.0232721
-0.0232717
-0.0232713
-0.023271
-0.0232706
-0.0232702
-0.0232699
-0.0232695
-0.0232691
-0.0232688
-0.0232684
-0.023268
-0.0232676
-0.0232673
-0.0232669
-0.0232665
-0.0232662
-0.0232658
-0.0232654
-0.0232651
-0.0232647
-0.0232643
-0.023264
-0.0232636
-0.0232632
-0.0232628
-0.0232625
-0.0232621
-0.0232617
-0.0232614
-0.023261
-0.0232606
-0.0232603
-0.0232599
-0.0232595
-0.0232592
-0.0232588
-0.0232584
-0.023258
-0.0232577
-0.0232573
-0.0232569
-0.0232566
-0.0232562
-0.0232558
-0.0232555
-0.0232551
-0.0232547
-0.0232544
-0.023254
-0.0232536
-0.0232532
-0.0232529
-0.0232525
-0.0232521
-0.0232518
-0.0232514
-0.023251
-0.0232507
-0.0232503
-0.0232499
-0.0232495
-0.0232492
-0.0232488
-0.0232484
-0.0232481
-0.0232477
-0.0232473
-0.023247
-0.0232466
-0.0232462
-0.0232459
-0.0232455
-0.0232451
-0.0232447
-0.0232444
-0.023244
-0.0232436
-0.0232433
-0.0232429
-0.0232425
-0.0232422
-0.0232418
-0.0232414
-0.0232411
-0.0232407
-0.0232403
-0.0232399
-0.0232396
-0.0232392
-0.0232388
-0.0232385
-0.0232381
-0.0232377
-0.0232374
-0.023237
-0.0232366
-0.0232363
-0.0232359
-0.0232355
-0.0232352
-0.0232348
-0.0232344
-0.023234
-0.0232337
-0.0232333
-0.0232329
-0.0232326
-0.0232322
-0.0232318
-0.0232315
-0.0232311
-0.0232307
-0.0232304
-0.02323
-0.0232296
-0.0232292
-0.0232289
-0.0232285
-0.0232281
-0.0232278
-0.0232274
-0.023227
-0.0232267
-0.0232263
-0.0232259
-0.0232255
-0.0232252
-0.0232248
-0.0232244
-0.0232241
-0.0232237
-0.0232233
-0.023223
-0.0232226
-0.0232222
-0.0232218
-0.0232215
-0.0232211
-0.0232207
-0.0232203
-0.02322
-0.0232196
-0.0232192
-0.0232189
-0.0232185
-0.0232181
-0.0232177
-0.0232173
-0.023217
-0.0232166
-0.0232162
-0.0232158
-0.0232154
-0.0232151
-0.0232147
-0.0232143
-0.0232139
-0.0232135
-0.0232131
-0.0232127
-0.0232124
-0.023212
-0.0232116
-0.0232112
-0.0232108
-0.0232104
-0.02321
-0.0232096
-0.0232092
-0.0232088
-0.0232084
-0.0232079
-0.0232075
-0.0232071
-0.0232067
-0.0232063
-0.0232058
-0.0232054
-0.023205
-0.0232045
-0.0232041
-0.0232036
-0.0232032
-0.0232027
-0.0232023
-0.0232018
-0.0232013
-0.0232009
-0.0232004
-0.0231999
-0.0231994
-0.0231989
-0.0231984
-0.0231979
-0.0231974
-0.0231968
-0.0231963
-0.0231958
-0.0231952
-0.0231947
-0.0231941
-0.0231935
-0.023193
-0.0231924
-0.0231918
-0.0231912
-0.0231906
-0.0231899
-0.0231893
-0.0231886
-0.023188
-0.0231873
-0.0231866
-0.023186
-0.0231853
-0.0231846
-0.0231838
-0.0231831
-0.0231823
-0.0231816
-0.0231808
-0.02318
-0.0231792
-0.0231784
-0.0231776
-0.0231768
-0.0231759
-0.0231751
-0.0231742
-0.0231733
-0.0231724
-0.0231715
-0.0231706
-0.0231696
-0.0231687
-0.0231677
-0.0231667
-0.0231657
-0.0231647
-0.0231637
-0.0231627
-0.0231616
-0.0231606
-0.0231595
-0.0231584
-0.0231573
-0.0231562
-0.0231551
-0.0231539
-0.0231528
-0.0231516
-0.0231505
-0.0231493
-0.0231481
-0.0231469
-0.0231457
-0.0231445
-0.0231432
-0.023142
-0.0231407
-0.0231395
-0.0231382
-0.023137
-0.0231357
-0.0231344
-0.0231331
-0.0231318
-0.0231305
-0.0231292
-0.0231279
-0.0231266
-0.0231252
-0.0231239
-0.0231226
-0.0231213
-0.0231199
-0.0231186
-0.0231173
-0.0231159
-0.0231146
-0.0231133
-0.0231119
-0.0231106
-0.0231093
-0.023108
-0.0231066
-0.0231053
-0.023104
-0.0231027
-0.0231014
-0.0231001
-0.0230988
-0.0230975
-0.0230962
-0.023095
-0.0230937
-0.0230924
-0.0230912
-0.0230899
-0.0230887
-0.0230875
-0.0230863
-0.0230851
-0.0230839
-0.0230827
-0.0230815
-0.0230803
-0.0230792
-0.023078
-0.0230769
-0.0230758
-0.0230746
-0.0230735
-0.0230724
-0.0230714
-0.0230703
-0.0230692
-0.0230682
-0.0230672
-0.0230661
-0.0230651
-0.0230641
-0.0230632
-0.0230622
-0.0230612
-0.0230603
-0.0230593
-0.0230584
-0.0230575
-0.0230566
-0.0230557
-0.0230548
-0.023054
-0.0230531
-0.0230523
-0.0230514
-0.0230506
-0.0230498
-0.023049
-0.0230482
-0.0230474
-0.0230466
-0.0230459
-0.0230451
-0.0230444
-0.0230437
-0.0230429
-0.0230422
-0.0230415
-0.0230408
-0.0230402
-0.0230395
-0.0230388
-0.0230381
-0.0230375
-0.0230369
-0.0230362
-0.0230356
-0.023035
-0.0230344
-0.0230338
-0.0230332
-0.0230326
-0.023032
-0.0230314
-0.0230308
-0.0230303
-0.0230297
-0.0230292
-0.0230286
-0.0230281
-0.0230275
-0.023027
-0.0230265
-0.0230259
-0.0230254
-0.0230249
-0.0230244
-0.0230239
-0.0230234
-0.0230229
-0.0230224
-0.0230219
-0.0230215
-0.023021
-0.0230205
-0.02302
-0.0230196
-0.0230191
-0.0230186
-0.0230182
-0.0230177
-0.0230173
-0.0230168
-0.0230164
-0.0230159
-0.0230155
-0.0230151
-0.0230146
-0.0230142
-0.0230138
-0.0230134
-0.0230129
-0.0230125
-0.0230121
-0.0230117
-0.0230113
-0.0230109
-0.0230104
-0.02301
-0.0230096
-0.0230092
-0.0230088
-0.0230084
-0.023008
-0.0230076
-0.0230072
-0.0230068
-0.0230065
-0.0230061
-0.0230057
-0.0230053
-0.0230049
-0.0230045
-0.0230041
-0.0230038
-0.0230034
-0.023003
-0.0230026
-0.0230023
-0.0230019
-0.0230015
-0.0230012
-0.0230008
-0.0230004
-0.0230001
-0.0229997
-0.0229993
-0.022999
-0.0229986
-0.0229983
-0.0229979
-0.0229975
-0.0229972
-0.0229968
-0.0229965
-0.0229961
-0.0229958
-0.0229954
-0.0229951
-0.0229947
-0.0229944
-0.0229941
-0.0229937
-0.0229934
-0.022993
-0.0229927
-0.0229924
-0.022992
-0.0229917
-0.0229914
-0.022991
-0.0229907
-0.0229904
-0.02299
-0.0229897
-0.0229894
-0.0229891
-0.0229887
-0.0229884
-0.0229881
-0.0229878
-0.0229875
-0.0229871
-0.0229868
-0.0229865
-0.0229862
-0.0229859
-0.0229856
-0.0229853
-0.0229849
-0.0229846
-0.0229843
-0.022984
-0.0229837
-0.0229834
-0.0229831
-0.0229828
-0.0229825
-0.0229822
-0.0229819
-0.0229816
-0.0229813
-0.022981
-0.0229807
-0.0229804
-0.0229801
-0.0229798
-0.0229795
-0.0229793
-0.022979
-0.0229787
-0.0229784
-0.0229781
-0.0229778
-0.0229775
-0.0229772
-0.0229769
-0.0229766
-0.0229763
-0.0229759
-0.0229756
-0.0229753
-0.0229749
-0.0229745
-0.0229741
-0.0229736
-0.0229731
-0.0229726
-0.0229719
-0.0229712
-0.0229702
-0.0229694
-0.0229676
-0.0229675
-0.0229675
-0.0229675
1
0.483353
0.18396
0.108843
0.0810306
0.0668313
0.058116
0.0521509
0.0477762
0.0444141
0.0417418
0.0395632
0.0377516
0.0362205
0.034909
0.0337727
0.0327783
0.0319004
0.0311193
0.0304195
0.0297887
0.0292168
0.0286958
0.0282192
0.0277814
0.027378
0.0270053
0.0266601
0.0263399
0.0260425
0.0257661
0.0255091
0.0252701
0.0250483
0.0248431
0.0246545
0.0244825
0.0243273
0.0241889
0.0240671
0.0239616
0.0238719
0.0237971
0.0237361
0.0236872
0.0236483
0.0236169
0.0235905
0.0235668
0.0235438
0.0235204
0.0234961
0.0234712
0.0234464
0.0234226
0.0234009
0.0233821
0.0233665
0.0233544
0.0233456
0.0233398
0.0233364
0.023335
0.0233348
0.0233356
0.0233368
0.0233382
0.0233396
0.0233408
0.0233419
0.0233427
0.0233432
0.0233436
0.0233438
0.0233438
0.0233437
0.0233436
0.0233433
0.023343
0.0233427
0.0233424
0.0233421
0.0233417
0.0233413
0.023341
0.0233406
0.0233402
0.0233399
0.0233395
0.0233391
0.0233388
0.0233384
0.023338
0.0233377
0.0233373
0.023337
0.0233366
0.0233362
0.0233359
0.0233355
0.0233351
0.0233348
0.0233344
0.023334
0.0233337
0.0233333
0.023333
0.0233326
0.0233322
0.0233319
0.0233315
0.0233311
0.0233308
0.0233304
0.02333
0.0233297
0.0233293
0.023329
0.0233286
0.0233282
0.0233279
0.0233275
0.0233271
0.0233268
0.0233264
0.023326
0.0233257
0.0233253
0.023325
0.0233246
0.0233242
0.0233239
0.0233235
0.0233231
0.0233228
0.0233224
0.023322
0.0233217
0.0233213
0.0233209
0.0233206
0.0233202
0.0233198
0.0233195
0.0233191
0.0233187
0.0233184
0.023318
0.0233177
0.0233173
0.0233169
0.0233166
0.0233162
0.0233158
0.0233155
0.0233151
0.0233147
0.0233144
0.023314
0.0233136
0.0233133
0.0233129
0.0233125
0.0233122
0.0233118
0.0233114
0.0233111
0.0233107
0.0233103
0.02331
0.0233096
0.0233092
0.0233089
0.0233085
0.0233081
0.0233078
0.0233074
0.023307
0.0233067
0.0233063
0.0233059
0.0233056
0.0233052
0.0233048
0.0233045
0.0233041
0.0233037
0.0233034
0.023303
0.0233026
0.0233023
0.0233019
0.0233015
0.0233012
0.0233008
0.0233004
0.0233001
0.0232997
0.0232993
0.023299
0.0232986
0.0232982
0.0232979
0.0232975
0.0232971
0.0232968
0.0232964
0.023296
0.0232957
0.0232953
0.0232949
0.0232946
0.0232942
0.0232938
0.0232935
0.0232931
0.0232927
0.0232923
0.023292
0.0232916
0.0232912
0.0232909
0.0232905
0.0232901
0.0232898
0.0232894
0.023289
0.0232887
0.0232883
0.0232879
0.0232876
0.0232872
0.0232868
0.0232865
0.0232861
0.0232857
0.0232854
0.023285
0.0232846
0.0232842
0.0232839
0.0232835
0.0232831
0.0232828
0.0232824
0.023282
0.0232817
0.0232813
0.0232809
0.0232806
0.0232802
0.0232798
0.0232795
0.0232791
0.0232787
0.0232783
0.023278
0.0232776
0.0232772
0.0232769
0.0232765
0.0232761
0.0232758
0.0232754
0.023275
0.0232747
0.0232743
0.0232739
0.0232736
0.0232732
0.0232728
0.0232724
0.0232721
0.0232717
0.0232713
0.023271
0.0232706
0.0232702
0.0232699
0.0232695
0.0232691
0.0232688
0.0232684
0.023268
0.0232676
0.0232673
0.0232669
0.0232665
0.0232662
0.0232658
0.0232654
0.0232651
0.0232647
0.0232643
0.023264
0.0232636
0.0232632
0.0232628
0.0232625
0.0232621
0.0232617
0.0232614
0.023261
0.0232606
0.0232603
0.0232599
0.0232595
0.0232592
0.0232588
0.0232584
0.023258
0.0232577
0.0232573
0.0232569
0.0232566
0.0232562
0.0232558
0.0232555
0.0232551
0.0232547
0.0232544
0.023254
0.0232536
0.0232532
0.0232529
0.0232525
0.0232521
0.0232518
0.0232514
0.023251
0.0232507
0.0232503
0.0232499
0.0232495
0.0232492
0.0232488
0.0232484
0.0232481
0.0232477
0.0232473
0.023247
0.0232466
0.0232462
0.0232459
0.0232455
0.0232451
0.0232447
0.0232444
0.023244
0.0232436
0.0232433
0.0232429
0.0232425
0.0232422
0.0232418
0.0232414
0.0232411
0.0232407
0.0232403
0.0232399
0.0232396
0.0232392
0.0232388
0.0232385
0.0232381
0.0232377
0.0232374
0.023237
0.0232366
0.0232363
0.0232359
0.0232355
0.0232352
0.0232348
0.0232344
0.023234
0.0232337
0.0232333
0.0232329
0.0232326
0.0232322
0.0232318
0.0232315
0.0232311
0.0232307
0.0232304
0.02323
0.0232296
0.0232292
0.0232289
0.0232285
0.0232281
0.0232278
0.0232274
0.023227
0.0232267
0.0232263
0.0232259
0.0232255
0.0232252
0.0232248
0.0232244
0.0232241
0.0232237
0.0232233
0.023223
0.0232226
0.0232222
0.0232218
0.0232215
0.0232211
0.0232207
0.0232203
0.02322
0.0232196
0.0232192
0.0232189
0.0232185
0.0232181
0.0232177
0.0232173
0.023217
0.0232166
0.0232162
0.0232158
0.0232154
0.0232151
0.0232147
0.0232143
0.0232139
0.0232135
0.0232131
0.0232127
0.0232124
0.023212
0.0232116
0.0232112
0.0232108
0.0232104
0.02321
0.0232096
0.0232092
0.0232088
0.0232084
0.0232079
0.0232075
0.0232071
0.0232067
0.0232063
0.0232058
0.0232054
0.023205
0.0232045
0.0232041
0.0232036
0.0232032
0.0232027
0.0232023
0.0232018
0.0232013
0.0232009
0.0232004
0.0231999
0.0231994
0.0231989
0.0231984
0.0231979
0.0231974
0.0231968
0.0231963
0.0231958
0.0231952
0.0231947
0.0231941
0.0231935
0.023193
0.0231924
0.0231918
0.0231912
0.0231906
0.0231899
0.0231893
0.0231886
0.023188
0.0231873
0.0231866
0.023186
0.0231853
0.0231846
0.0231838
0.0231831
0.0231823
0.0231816
0.0231808
0.02318
0.0231792
0.0231784
0.0231776
0.0231768
0.0231759
0.0231751
0.0231742
0.0231733
0.0231724
0.0231715
0.0231706
0.0231696
0.0231687
0.0231677
0.0231667
0.0231657
0.0231647
0.0231637
0.0231627
0.0231616
0.0231606
0.0231595
0.0231584
0.0231573
0.0231562
0.0231551
0.0231539
0.0231528
0.0231516
0.0231505
0.0231493
0.0231481
0.0231469
0.0231457
0.0231445
0.0231432
0.023142
0.0231407
0.0231395
0.0231382
0.023137
0.0231357
0.0231344
0.0231331
0.0231318
0.0231305
0.0231292
0.0231279
0.0231266
0.0231252
0.0231239
0.0231226
0.0231213
0.0231199
0.0231186
0.0231173
0.0231159
0.0231146
0.0231133
0.0231119
0.0231106
0.0231093
0.023108
0.0231066
0.0231053
0.023104
0.0231027
0.0231014
0.0231001
0.0230988
0.0230975
0.0230962
0.023095
0.0230937
0.0230924
0.0230912
0.0230899
0.0230887
0.0230875
0.0230863
0.0230851
0.0230839
0.0230827
0.0230815
0.0230803
0.0230792
0.023078
0.0230769
0.0230758
0.0230746
0.0230735
0.0230724
0.0230714
0.0230703
0.0230692
0.0230682
0.0230672
0.0230661
0.0230651
0.0230641
0.0230632
0.0230622
0.0230612
0.0230603
0.0230593
0.0230584
0.0230575
0.0230566
0.0230557
0.0230548
0.023054
0.0230531
0.0230523
0.0230514
0.0230506
0.0230498
0.023049
0.0230482
0.0230474
0.0230466
0.0230459
0.0230451
0.0230444
0.0230437
0.0230429
0.0230422
0.0230415
0.0230408
0.0230402
0.0230395
0.0230388
0.0230381
0.0230375
0.0230369
0.0230362
0.0230356
0.023035
0.0230344
0.0230338
0.0230332
0.0230326
0.023032
0.0230314
0.0230308
0.0230303
0.0230297
0.0230292
0.0230286
0.0230281
0.0230275
0.023027
0.0230265
0.0230259
0.0230254
0.0230249
0.0230244
0.0230239
0.0230234
0.0230229
0.0230224
0.0230219
0.0230215
0.023021
0.0230205
0.02302
0.0230196
0.0230191
0.0230186
0.0230182
0.0230177
0.0230173
0.0230168
0.0230164
0.0230159
0.0230155
0.0230151
0.0230146
0.0230142
0.0230138
0.0230134
0.0230129
0.0230125
0.0230121
0.0230117
0.0230113
0.0230109
0.0230104
0.02301
0.0230096
0.0230092
0.0230088
0.0230084
0.023008
0.0230076
0.0230072
0.0230068
0.0230065
0.0230061
0.0230057
0.0230053
0.0230049
0.0230045
0.0230041
0.0230038
0.0230034
0.023003
0.0230026
0.0230023
0.0230019
0.0230015
0.0230012
0.0230008
0.0230004
0.0230001
0.0229997
0.0229993
0.022999
0.0229986
0.0229983
0.0229979
0.0229975
0.0229972
0.0229968
0.0229965
0.0229961
0.0229958
0.0229954
0.0229951
0.0229947
0.0229944
0.0229941
0.0229937
0.0229934
0.022993
0.0229927
0.0229924
0.022992
0.0229917
0.0229914
0.022991
0.0229907
0.0229904
0.02299
0.0229897
0.0229894
0.0229891
0.0229887
0.0229884
0.0229881
0.0229878
0.0229875
0.0229871
0.0229868
0.0229865
0.0229862
0.0229859
0.0229856
0.0229853
0.0229849
0.0229846
0.0229843
0.022984
0.0229837
0.0229834
0.0229831
0.0229828
0.0229825
0.0229822
0.0229819
0.0229816
0.0229813
0.022981
0.0229807
0.0229804
0.0229801
0.0229798
0.0229795
0.0229793
0.022979
0.0229787
0.0229784
0.0229781
0.0229778
0.0229775
0.0229772
0.0229769
0.0229766
0.0229763
0.0229759
0.0229756
0.0229753
0.0229749
0.0229745
0.0229741
0.0229736
0.0229731
0.0229726
0.0229719
0.0229712
0.0229702
0.0229694
0.0229676
0.0229675
0.0229675
0.0229675
1
0.969184
0.49561
0.314217
0.237891
0.19739
0.172128
0.154692
0.14184
0.131928
0.12403
0.11758
0.112208
0.107663
0.103766
0.100387
0.0974287
0.0948162
0.0924912
0.0904081
0.0885303
0.0868284
0.0852783
0.0838607
0.0825592
0.0813606
0.0802539
0.0792298
0.0782808
0.0774004
0.0765831
0.0758242
0.07512
0.074468
0.0738668
0.0733159
0.0728153
0.0723651
0.0719652
0.0716149
0.0713128
0.0710567
0.0708437
0.0706697
0.0705292
0.0704159
0.0703228
0.0702428
0.0701696
0.0700987
0.0700273
0.0699547
0.0698819
0.0698112
0.0697449
0.0696857
0.0696352
0.0695944
0.0695634
0.0695414
0.0695274
0.0695198
0.069517
0.0695175
0.0695201
0.0695238
0.0695278
0.0695316
0.069535
0.0695377
0.0695397
0.0695411
0.0695419
0.0695423
0.0695423
0.0695419
0.0695414
0.0695407
0.0695398
0.0695389
0.0695379
0.0695369
0.0695359
0.0695348
0.0695338
0.0695327
0.0695316
0.0695306
0.0695295
0.0695284
0.0695274
0.0695263
0.0695253
0.0695242
0.0695232
0.0695221
0.0695211
0.06952
0.0695189
0.0695179
0.0695168
0.0695158
0.0695147
0.0695137
0.0695126
0.0695116
0.0695105
0.0695095
0.0695084
0.0695074
0.0695063
0.0695053
0.0695042
0.0695031
0.0695021
0.069501
0.0695
0.0694989
0.0694979
0.0694968
0.0694958
0.0694947
0.0694936
0.0694926
0.0694915
0.0694905
0.0694894
0.0694884
0.0694873
0.0694862
0.0694852
0.0694841
0.0694831
0.069482
0.069481
0.0694799
0.0694788
0.0694778
0.0694767
0.0694757
0.0694746
0.0694735
0.0694725
0.0694714
0.0694704
0.0694693
0.0694682
0.0694672
0.0694661
0.0694651
0.069464
0.0694629
0.0694619
0.0694608
0.0694598
0.0694587
0.0694576
0.0694566
0.0694555
0.0694545
0.0694534
0.0694523
0.0694513
0.0694502
0.0694491
0.0694481
0.069447
0.069446
0.0694449
0.0694438
0.0694428
0.0694417
0.0694406
0.0694396
0.0694385
0.0694374
0.0694364
0.0694353
0.0694343
0.0694332
0.0694321
0.0694311
0.06943
0.0694289
0.0694279
0.0694268
0.0694257
0.0694247
0.0694236
0.0694225
0.0694215
0.0694204
0.0694194
0.0694183
0.0694172
0.0694162
0.0694151
0.069414
0.069413
0.0694119
0.0694108
0.0694098
0.0694087
0.0694076
0.0694066
0.0694055
0.0694044
0.0694034
0.0694023
0.0694012
0.0694002
0.0693991
0.069398
0.069397
0.0693959
0.0693948
0.0693938
0.0693927
0.0693916
0.0693906
0.0693895
0.0693884
0.0693874
0.0693863
0.0693852
0.0693842
0.0693831
0.069382
0.0693809
0.0693799
0.0693788
0.0693777
0.0693767
0.0693756
0.0693745
0.0693735
0.0693724
0.0693713
0.0693703
0.0693692
0.0693681
0.0693671
0.069366
0.0693649
0.0693639
0.0693628
0.0693617
0.0693607
0.0693596
0.0693585
0.0693574
0.0693564
0.0693553
0.0693542
0.0693532
0.0693521
0.069351
0.06935
0.0693489
0.0693478
0.0693468
0.0693457
0.0693446
0.0693435
0.0693425
0.0693414
0.0693403
0.0693393
0.0693382
0.0693371
0.0693361
0.069335
0.0693339
0.0693329
0.0693318
0.0693307
0.0693297
0.0693286
0.0693275
0.0693264
0.0693254
0.0693243
0.0693232
0.0693222
0.0693211
0.06932
0.069319
0.0693179
0.0693168
0.0693158
0.0693147
0.0693136
0.0693125
0.0693115
0.0693104
0.0693093
0.0693083
0.0693072
0.0693061
0.0693051
0.069304
0.0693029
0.0693019
0.0693008
0.0692997
0.0692987
0.0692976
0.0692965
0.0692954
0.0692944
0.0692933
0.0692922
0.0692912
0.0692901
0.069289
0.069288
0.0692869
0.0692858
0.0692848
0.0692837
0.0692826
0.0692816
0.0692805
0.0692794
0.0692784
0.0692773
0.0692762
0.0692752
0.0692741
0.069273
0.069272
0.0692709
0.0692698
0.0692688
0.0692677
0.0692666
0.0692656
0.0692645
0.0692634