# vtk DataFile Version 2.0
FlowField
ASCII
DATASET STRUCTURED_GRID
DIMENSIONS 800 1 200
POINTS 160000 float
0 0 0
0.04 0 0
0.08 0 0
0.12 0 0
0.16 0 0
0.2 0 0
0.24 0 0
0.28 0 0
0.32 0 0
0.36 0 0
0.4 0 0
0.44 0 0
0.48 0 0
0.52 0 0
0.56 0 0
0.6 0 0
0.64 0 0
0.68 0 0
0.72 0 0
0.76 0 0
0.8 0 0
0.84 0 0
0.88 0 0
0.92 0 0
0.96 0 0
1 0 0
1.04 0 0
1.08 0 0
1.12 0 0
1.16 0 0
1.2 0 0
1.24 0 0
1.28 0 0
1.32 0 0
1.36 0 0
1.4 0 0
1.44 0 0
1.48 0 0
1.52 0 0
1.56 0 0
1.6 0 0
1.64 0 0
1.68 0 0
1.72 0 0
1.76 0 0
1.8 0 0
1.84 0 0
1.88 0 0
1.92 0 0
1.96 0 0
2 0 0
2.04 0 0
2.08 0 0
2.12 0 0
2.16 0 0
2.2 0 0
2.24 0 0
2.28 0 0
2.32 0 0
2.36 0 0
2.4 0 0
2.44 0 0
2.48 0 0
2.52 0 0
2.56 0 0
2.6 0 0
2.64 0 0
2.68 0 0
2.72 0 0
2.76 0 0
2.8 0 0
2.84 0 0
2.88 0 0
2.92 0 0
2.96 0 0
3 0 0
3.04 0 0
3.08 0 0
3.12 0 0
3.16 0 0
3.2 0 0
3.24 0 0
3.28 0 0
3.32 0 0
3.36 0 0
3.4 0 0
3.44 0 0
3.48 0 0
3.52 0 0
3.56 0 0
3.6 0 0
3.64 0 0
3.68 0 0
3.72 0 0
3.76 0 0
3.8 0 0
3.84 0 0
3.88 0 0
3.92 0 0
3.96 0 0
4 0 0
4.04 0 0
4.08 0 0
4.12 0 0
4.16 0 0
4.2 0 0
4.24 0 0
4.28 0 0
4.32 0 0
4.36 0 0
4.4 0 0
4.44 0 0
4.48 0 0
4.52 0 0
4.56 0 0
4.6 0 0
4.64 0 0
4.68 0 0
4.72 0 0
4.76 0 0
4.8 0 0
4.84 0 0
4.88 0 0
4.92 0 0
4.96 0 0
5 0 0
5.04 0 0
5.08 0 0
5.12 0 0
5.16 0 0
5.2 0 0
5.24 0 0
5.28 0 0
5.32 0 0
5.36 0 0
5.4 0 0
5.44 0 0
5.48 0 0
5.52 0 0
5.56 0 0
5.6 0 0
5.64 0 0
5.68 0 0
5.72 0 0
5.76 0 0
5.8 0 0
5.84 0 0
5.88 0 0
5.92 0 0
5.96 0 0
6 0 0
6.04 0 0
6.08 0 0
6.12 0 0
6.16 0 0
6.2 0 0
6.24 0 0
6.28 0 0
6.32 0 0
6.36 0 0
6.4 0 0
6.44 0 0
6.48 0 0
6.52 0 0
6.56 0 0
6.6 0 0
6.64 0 0
6.68 0 0
6.72 0 0
6.76 0 0
6.8 0 0
6.84 0 0
6.88 0 0
6.92 0 0
6.96 0 0
7 0 0
7.04 0 0
7.08 0 0
7.12 0 0
7.16 0 0
7.2 0 0
7.24 0 0
7.28 0 0
7.32 0 0
7.36 0 0
7.4 0 0
7.44 0 0
7.48 0 0
7.52 0 0
7.56 0 0
7.6 0 0
7.64 0 0
7.68 0 0
7.72 0 0
7.76 0 0
7.8 0 0
7.84 0 0
7.88 0 0
7.92 0 0
7.96 0 0
8 0 0
8.04 0 0
8.08 0 0
8.12 0 0
8.16 0 0
8.2 0 0
8.24 0 0
8.28 0 0
8.32 0 0
8.36 0 0
8.4 0 0
8.44 0 0
8.48 0 0
8.52 0 0
8.56 0 0
8.6 0 0
8.64 0 0
8.68 0 0
8.72 0 0
8.76 0 0
8.8 0 0
8.84 0 0
8.88 0 0
8.92 0 0
8.96 0 0
9 0 0
9.04 0 0
9.08 0 0
9.12 0 0
9.16 0 0
9.2 0 0
9.24 0 0
9.28 0 0
9.32 0 0
9.36 0 0
9.4 0 0
9.44 0 0
9.48 0 0
9.52 0 0
9.56 0 0
9.6 0 0
9.64 0 0
9.68 0 0
9.72 0 0
9.76 0 0
9.8 0 0
9.84 0 0
9.88 0 0
9.92 0 0
9.96 0 0
10 0 0
10.04 0 0
10.08 0 0
10.12 0 0
10.16 0 0
10.2 0 0
10.24 0 0
10.28 0 0
10.32 0 0
10.36 0 0
10.4 0 0
10.44 0 0
10.48 0 0
10.52 0 0
10.56 0 0
10.6 0 0
10.64 0 0
10.68 0 0
10.72 0 0
10.76 0 0
10.8 0 0
10.84 0 0
10.88 0 0
10.92 0 0
10.96 0 0
11 0 0
11.04 0 0
11.08 0 0
11.12 0 0
11.16 0 0
11.2 0 0
11.24 0 0
11.28 0 0
11.32 0 0
11.36 0 0
11.4 0 0
11.44 0 0
11.48 0 0
11.52 0 0
11.56 0 0
11.6 0 0
11.64 0 0
11.68 0 0
11.72 0 0
11.76 0 0
11.8 0 0
11.84 0 0
11.88 0 0
11.92 0 0
11.96 0 0
12 0 0
12.04 0 0
12.08 0 0
12.12 0 0
12.16 0 0
12.2 0 0
12.24 0 0
12.28 0 0
12.32 0 0
12.36 0 0
12.4 0 0
12.44 0 0
12.48 0 0
12.52 0 0
12.56 0 0
12.6 0 0
12.64 0 0
12.68 0 0
12.72 0 0
12.76 0 0
12.8 0 0
12.84 0 0
12.88 0 0
12.92 0 0
12.96 0 0
13 0 0
13.04 0 0
13.08 0 0
13.12 0 0
13.16 0 0
13.2 0 0
13.24 0 0
13.28 0 0
13.32 0 0
13.36 0 0
13.4 0 0
13.44 0 0
13.48 0 0
13.52 0 0
13.56 0 0
13.6 0 0
13.64 0 0
13.68 0 0
13.72 0 0
13.76 0 0
13.8 0 0
13.84 0 0
13.88 0 0
13.92 0 0
13.96 0 0
14 0 0
14.04 0 0
14.08 0 0
14.12 0 0
14.16 0 0
14.2 0 0
14.24 0 0
14.28 0 0
14.32 0 0
14.36 0 0
14.4 0 0
14.44 0 0
14.48 0 0
14.52 0 0
14.56 0 0
14.6 0 0
14.64 0 0
14.68 0 0
14.72 0 0
14.76 0 0
14.8 0 0
14.84 0 0
14.88 0 0
14.92 0 0
14.96 0 0
15 0 0
15.04 0 0
15.08 0 0
15.12 0 0
15.16 0 0
15.2 0 0
15.24 0 0
15.28 0 0
15.32 0 0
15.36 0 0
15.4 0 0
15.44 0 0
15.48 0 0
15.52 0 0
15.56 0 0
15.6 0 0
15.64 0 0
15.68 0 0
15.72 0 0
15.76 0 0
15.8 0 0
15.84 0 0
15.88 0 0
15.92 0 0
15.96 0 0
16 0 0
16.04 0 0
16.08 0 0
16.12 0 0
16.16 0 0
16.2 0 0
16.24 0 0
16.28 0 0
16.32 0 0
16.36 0 0
16.4 0 0
16.44 0 0
16.48 0 0
16.52 0 0
16.56 0 0
16.6 0 0
16.64 0 0
16.68 0 0
16.72 0 0
16.76 0 0
16.8 0 0
16.84 0 0
16.88 0 0
16.92 0 0
16.96 0 0
17 0 0
17.04 0 0
17.08 0 0
17.12 0 0
17.16 0 0
17.2 0 0
17.24 0 0
17.28 0 0
17.32 0 0
17.36 0 0
17.4 0 0
17.44 0 0
17.48 0 0
17.52 0 0
17.56 0 0
17.6 0 0
17.64 0 0
17.68 0 0
17.72 0 0
17.76 0 0
17.8 0 0
17.84 0 0
17.88 0 0
17.92 0 0
17.96 0 0
18 0 0
18.04 0 0
18.08 0 0
18.12 0 0
18.16 0 0
18.2 0 0
18.24 0 0
18.28 0 0
18.32 0 0
18.36 0 0
18.4 0 0
18.44 0 0
18.48 0 0
18.52 0 0
18.56 0 0
18.6 0 0
18.64 0 0
18.68 0 0
18.72 0 0
18.76 0 0
18.8 0 0
18.84 0 0
18.88 0 0
18.92 0 0
18.96 0 0
19 0 0
19.04 0 0
19.08 0 0
19.12 0 0
19.16 0 0
19.2 0 0
19.24 0 0
19.28 0 0
19.32 0 0
19.36 0 0
19.4 0 0
19.44 0 0
19.48 0 0
19.52 0 0
19.56 0 0
19.6 0 0
19.64 0 0
19.68 0 0
19.72 0 0
19.76 0 0
19.8 0 0
19.84 0 0
19.88 0 0
19.92 0 0
19.96 0 0
20 0 0
20.04 0 0
20.08 0 0
20.12 0 0
20.16 0 0
20.2 0 0
20.24 0 0
20.28 0 0
20.32 0 0
20.36 0 0
20.4 0 0
20.44 0 0
20.48 0 0
20.52 0 0
20.56 0 0
20.6 0 0
20.64 0 0
20.68 0 0
20.72 0 0
20.76 0 0
20.8 0 0
20.84 0 0
20.88 0 0
20.92 0 0
20.96 0 0
21 0 0
21.04 0 0
21.08 0 0
21.12 0 0
21.16 0 0
21.2 0 0
21.24 0 0
21.28 0 0
21.32 0 0
21.36 0 0
21.4 0 0
21.44 0 0
21.48 0 0
21.52 0 0
21.56 0 0
21.6 0 0
21.64 0 0
21.68 0 0
21.72 0 0
21.76 0 0
21.8 0 0
21.84 0 0
21.88 0 0
21.92 0 0
21.96 0 0
22 0 0
22.04 0 0
22.08 0 0
22.12 0 0
22.16 0 0
22.2 0 0
22.24 0 0
22.28 0 0
22.32 0 0
22.36 0 0
22.4 0 0
22.44 0 0
22.48 0 0
22.52 0 0
22.56 0 0
22.6 0 0
22.64 0 0
22.68 0 0
22.72 0 0
22.76 0 0
22.8 0 0
22.84 0 0
22.88 0 0
22.92 0 0
22.96 0 0
23 0 0
23.04 0 0
23.08 0 0
23.12 0 0
23.16 0 0
23.2 0 0
23.24 0 0
23.28 0 0
23.32 0 0
23.36 0 0
23.4 0 0
23.44 0 0
23.48 0 0
23.52 0 0
23.56 0 0
23.6 0 0
23.64 0 0
23.68 0 0
23.72 0 0
23.76 0 0
23.8 0 0
23.84 0 0
23.88 0 0
23.92 0 0
23.96 0 0
24 0 0
24.04 0 0
24.08 0 0
24.12 0 0
24.16 0 0
24.2 0 0
24.24 0 0
24.28 0 0
24.32 0 0
24.36 0 0
24.4 0 0
24.44 0 0
24.48 0 0
24.52 0 0
24.56 0 0
24.6 0 0
24.64 0 0
24.68 0 0
24.72 0 0
24.76 0 0
24.8 0 0
24.84 0 0
24.88 0 0
24.92 0 0
24.96 0 0
25 0 0
25.04 0 0
25.08 0 0
25.12 0 0
25.16 0 0
25.2 0 0
25.24 0 0
25.28 0 0
25.32 0 0
25.36 0 0
25.4 0 0
25.44 0 0
25.48 0 0
25.52 0 0
25.56 0 0
25.6 0 0
25.64 0 0
25.68 0 0
25.72 0 0
25.76 0 0
25.8 0 0
25.84 0 0
25.88 0 0
25.92 0 0
25.96 0 0
26 0 0
26.04 0 0
26.08 0 0
26.12 0 0
26.16 0 0
26.2 0 0
26.24 0 0
26.28 0 0
26.32 0 0
26.36 0 0
26.4 0 0
26.44 0 0
26.48 0 0
26.52 0 0
26.56 0 0
26.6 0 0
26.64 0 0
26.68 0 0
26.72 0 0
26.76 0 0
26.8 0 0
26.84 0 0
26.88 0 0
26.92 0 0
26.96 0 0
27 0 0
27.04 0 0
27.08 0 0
27.12 0 0
27.16 0 0
27.2 0 0
27.24 0 0
27.28 0 0
27.32 0 0
27.36 0 0
27.4 0 0
27.44 0 0
27.48 0 0
27.52 0 0
27.56 0 0
27.6 0 0
27.64 0 0
27.68 0 0
27.72 0 0
27.76 0 0
27.8 0 0
27.84 0 0
27.88 0 0
27.92 0 0
27.96 0 0
28 0 0
28.04 0 0
28.08 0 0
28.12 0 0
28.16 0 0
28.2 0 0
28.24 0 0
28.28 0 0
28.32 0 0
28.36 0 0
28.4 0 0
28.44 0 0
28.48 0 0
28.52 0 0
28.56 0 0
28.6 0 0
28.64 0 0
28.68 0 0
28.72 0 0
28.76 0 0
28.8 0 0
28.84 0 0
28.88 0 0
28.92 0 0
28.96 0 0
29 0 0
29.04 0 0
29.08 0 0
29.12 0 0
29.16 0 0
29.2 0 0
29.24 0 0
29.28 0 0
29.32 0 0
29.36 0 0
29.4 0 0
29.44 0 0
29.48 0 0
29.52 0 0
29.56 0 0
29.6 0 0
29.64 0 0
29.68 0 0
29.72 0 0
29.76 0 0
29.8 0 0
29.84 0 0
29.88 0 0
29.92 0 0
29.96 0 0
30 0 0
30.04 0 0
30.08 0 0
30.12 0 0
30.16 0 0
30.2 0 0
30.24 0 0
30.28 0 0
30.32 0 0
30.36 0 0
30.4 0 0
30.44 0 0
30.48 0 0
30.52 0 0
30.56 0 0
30.6 0 0
30.64 0 0
30.68 0 0
30.72 0 0
30.76 0 0
30.8 0 0
30.84 0 0
30.88 0 0
30.92 0 0
30.96 0 0
31 0 0
31.04 0 0
31.08 0 0
31.12 0 0
31.16 0 0
31.2 0 0
31.24 0 0
31.28 0 0
31.32 0 0
31.36 0 0
31.4 0 0
31.44 0 0
31.48 0 0
31.52 0 0
31.56 0 0
31.6 0 0
31.64 0 0
31.68 0 0
31.72 0 0
31.76 0 0
31.8 0 0
31.84 0 0
31.88 0 0
31.92 0 0
31.96 0 0
0 0.005 0
0.04 0.005 0
0.08 0.005 0
0.12 0.005 0
0.16 0.005 0
0.2 0.005 0
0.24 0.005 0
0.28 0.005 0
0.32 0.005 0
0.36 0.005 0
0.4 0.005 0
0.44 0.005 0
0.48 0.005 0
0.52 0.005 0
0.56 0.005 0
0.6 0.005 0
0.64 0.005 0
0.68 0.005 0
0.72 0.005 0
0.76 0.005 0
0.8 0.005 0
0.84 0.005 0
0.88 0.005 0
0.92 0.005 0
0.96 0.005 0
1 0.005 0
1.04 0.005 0
1.08 0.005 0
1.12 0.005 0
1.16 0.005 0
1.2 0.005 0
1.24 0.005 0
1.28 0.005 0
1.32 0.005 0
1.36 0.005 0
1.4 0.005 0
1.44 0.005 0
1.48 0.005 0
1.52 0.005 0
1.56 0.005 0
1.6 0.005 0
1.64 0.005 0
1.68 0.005 0
1.72 0.005 0
1.76 0.005 0
1.8 0.005 0
1.84 0.005 0
1.88 0.005 0
1.92 0.005 0
1.96 0.005 0
2 0.005 0
2.04 0.005 0
2.08 0.005 0
2.12 0.005 0
2.16 0.005 0
2.2 0.005 0
2.24 0.005 0
2.28 0.005 0
2.32 0.005 0
2.36 0.005 0
2.4 0.005 0
2.44 0.005 0
2.48 0.005 0
2.52 0.005 0
2.56 0.005 0
2.6 0.005 0
2.64 0.005 0
2.68 0.005 0
2.72 0.005 0
2.76 0.005 0
2.8 0.005 0
2.84 0.005 0
2.88 0.005 0
2.92 0.005 0
2.96 0.005 0
3 0.005 0
3.04 0.005 0
3.08 0.005 0
3.12 0.005 0
3.16 0.005 0
3.2 0.005 0
3.24 0.005 0
3.28 0.005 0
3.32 0.005 0
3.36 0.005 0
3.4 0.005 0
3.44 0.005 0
3.48 0.005 0
3.52 0.005 0
3.56 0.005 0
3.6 0.005 0
3.64 0.005 0
3.68 0.005 0
3.72 0.005 0
3.76 0.005 0
3.8 0.005 0
3.84 0.005 0
3.88 0.005 0
3.92 0.005 0
3.96 0.005 0
4 0.005 0
4.04 0.005 0
4.08 0.005 0
4.12 0.005 0
4.16 0.005 0
4.2 0.005 0
4.24 0.005 0
4.28 0.005 0
4.32 0.005 0
4.36 0.005 0
4.4 0.005 0
4.44 0.005 0
4.48 0.005 0
4.52 0.005 0
4.56 0.005 0
4.6 0.005 0
4.64 0.005 0
4.68 0.005 0
4.72 0.005 0
4.76 0.005 0
4.8 0.005 0
4.84 0.005 0
4.88 0.005 0
4.92 0.005 0
4.96 0.005 0
5 0.005 0
5.04 0.005 0
5.08 0.005 0
5.12 0.005 0
5.16 0.005 0
5.2 0.005 0
5.24 0.005 0
5.28 0.005 0
5.32 0.005 0
5.36 0.005 0
5.4 0.005 0
5.44 0.005 0
5.48 0.005 0
5.52 0.005 0
5.56 0.005 0
5.6 0.005 0
5.64 0.005 0
5.68 0.005 0
5.72 0.005 0
5.76 0.005 0
5.8 0.005 0
5.84 0.005 0
5.88 0.005 0
5.92 0.005 0
5.96 0.005 0
6 0.005 0
6.04 0.005 0
6.08 0.005 0
6.12 0.005 0
6.16 0.005 0
6.2 0.005 0
6.24 0.005 0
6.28 0.005 0
6.32 0.005 0
6.36 0.005 0
6.4 0.005 0
6.44 0.005 0
6.48 0.005 0
6.52 0.005 0
6.56 0.005 0
6.6 0.005 0
6.64 0.005 0
6.68 0.005 0
6.72 0.005 0
6.76 0.005 0
6.8 0.005 0
6.84 0.005 0
6.88 0.005 0
6.92 0.005 0
6.96 0.005 0
7 0.005 0
7.04 0.005 0
7.08 0.005 0
7.12 0.005 0
7.16 0.005 0
7.2 0.005 0
7.24 0.005 0
7.28 0.005 0
7.32 0.005 0
7.36 0.005 0
7.4 0.005 0
[...]
POINT_DATA 160000

SCALARS u float 1
LOOKUP_TABLE default
-1
-0.483355
-0.183961
-0.108844
-0.081031
-0.0668314
-0.0581156
-0.0521499
-0.0477745
-0.0444114
-0.0417379
-0.039558
-0.0377446
-0.0362114
-0.0348975
-0.0337583
-0.0327605
-0.0318786
-0.0310928
-0.0303876
-0.0297505
-0.0291714
-0.0286422
-0.028156
-0.0277073
-0.0272914
-0.0269045
-0.0265432
-0.0262047
-0.0258867
-0.025587
-0.025304
-0.0250361
-0.0247819
-0.0245402
-0.0243101
-0.0240906
-0.0238809
-0.0236803
-0.0234881
-0.0233038
-0.0231269
-0.0229568
-0.0227931
-0.0226354
-0.0224835
-0.0223369
-0.0221953
-0.0220586
-0.0219263
-0.0217983
-0.0216744
-0.0215543
-0.021438
-0.0213251
-0.0212155
-0.0211091
-0.0210057
-0.0209053
-0.0208076
-0.0207125
-0.02062
-0.0205299
-0.0204421
-0.0203566
-0.0202733
-0.0201919
-0.0201126
-0.0200352
-0.0199596
-0.0198858
-0.0198137
-0.0197433
-0.0196744
-0.0196071
-0.0195413
-0.0194769
-0.0194138
-0.0193522
-0.0192918
-0.0192327
-0.0191747
-0.019118
-0.0190625
-0.019008
-0.0189546
-0.0189023
-0.018851
-0.0188007
-0.0187514
-0.018703
-0.0186556
-0.018609
-0.0185633
-0.0185185
-0.0184746
-0.0184314
-0.0183891
-0.0183476
-0.0183069
-0.018267
-0.0182278
-0.0181894
-0.0181517
-0.0181148
-0.0180786
-0.0180432
-0.0180086
-0.0179747
-0.0179415
-0.0179091
-0.0178775
-0.0178467
-0.0178167
-0.0177874
-0.0177589
-0.0177313
-0.0177044
-0.0176784
-0.0176531
-0.0176287
-0.017605
-0.0175821
-0.01756
-0.0175386
-0.017518
-0.0174981
-0.0174789
-0.0174604
-0.0174426
-0.0174254
-0.0174088
-0.0173928
-0.0173773
-0.0173624
-0.0173481
-0.0173342
-0.0173208
-0.0173079
-0.0172954
-0.0172834
-0.0172718
-0.0172606
-0.0172498
-0.0172393
-0.0172293
-0.0172195
-0.0172102
-0.0172012
-0.0171925
-0.0171841
-0.0171761
-0.0171683
-0.0171609
-0.0171537
-0.0171468
-0.0171402
-0.0171339
-0.0171278
-0.017122
-0.0171164
-0.0171111
-0.017106
-0.0171011
-0.0170964
-0.0170919
-0.0170876
-0.0170835
-0.0170795
-0.0170757
-0.017072
-0.0170685
-0.0170651
-0.0170619
-0.0170588
-0.0170559
-0.0170532
-0.0170507
-0.0170483
-0.0170461
-0.0170442
-0.0170424
-0.0170408
-0.0170394
-0.0170382
-0.0170371
-0.0170362
-0.0170354
-0.0170347
-0.0170341
-0.0170336
-0.0170331
-0.0170327
-0.0170323
-0.0170319
-0.0170316
-0.0170312
-0.0170309
-0.0170306
-0.0170303
-0.01703
-0.0170297
-0.0170294
-0.0170291
-0.0170288
-0.0170285
-0.0170282
-0.0170279
-0.0170276
-0.0170273
-0.0170269
-0.0170266
-0.0170263
-0.017026
-0.0170257
-0.0170254
-0.0170251
-0.0170248
-0.0170245
-0.0170242
-0.0170239
-0.0170236
-0.0170233
-0.017023
-0.0170227
-0.0170224
-0.0170221
-0.0170218
-0.0170214
-0.0170211
-0.0170208
-0.0170205
-0.0170202
-0.0170199
-0.0170196
-0.0170193
-0.017019
-0.0170187
-0.0170184
-0.0170181
-0.0170178
-0.0170175
-0.0170172
-0.0170169
-0.0170166
-0.0170162
-0.0170159
-0.0170156
-0.0170153
-0.017015
-0.0170147
-0.0170144
-0.0170141
-0.0170138
-0.0170135
-0.0170132
-0.0170129
-0.0170126
-0.0170123
-0.017012
-0.0170117
-0.0170113
-0.017011
-0.0170107
-0.0170104
-0.0170101
-0.0170098
-0.0170095
-0.0170092
-0.0170089
-0.0170086
-0.0170083
-0.017008
-0.0170077
-0.0170074
-0.0170071
-0.0170067
-0.0170064
-0.0170061
-0.0170058
-0.0170055
-0.0170052
-0.0170049
-0.0170046
-0.0170043
-0.017004
-0.0170037
-0.0170034
-0.0170031
-0.0170028
-0.0170025
-0.0170022
-0.0170018
-0.0170015
-0.0170012
-0.0170009
-0.0170006
-0.0170003
-0.017
-0.0169997
-0.0169994
-0.0169991
-0.0169988
-0.0169985
-0.0169982
-0.0169979
-0.0169975
-0.0169972
-0.0169969
-0.0169966
-0.0169963
-0.016996
-0.0169957
-0.0169954
-0.0169951
-0.0169948
-0.0169945
-0.0169942
-0.0169939
-0.0169936
-0.0169933
-0.0169929
-0.0169926
-0.0169923
-0.016992
-0.0169917
-0.0169914
-0.0169911
-0.0169908
-0.0169905
-0.0169902
-0.0169899
-0.0169896
-0.0169893
-0.016989
-0.0169886
-0.0169883
-0.016988
-0.0169877
-0.0169874
-0.0169871
-0.0169868
-0.0169865
-0.0169862
-0.0169859
-0.0169856
-0.0169853
-0.016985
-0.0169847
-0.0169843
-0.016984
-0.0169837
-0.0169834
-0.0169831
-0.0169828
-0.0169825
-0.0169822
-0.0169819
-0.0169816
-0.0169813
-0.016981
-0.0169807
-0.0169804
-0.01698
-0.0169797
-0.0169794
-0.0169791
-0.0169788
-0.0169785
-0.0169782
-0.0169779
-0.0169776
-0.0169773
-0.016977
-0.0169767
-0.0169764
-0.0169761
-0.0169757
-0.0169754
-0.0169751
-0.0169748
-0.0169745
-0.0169742
-0.0169739
-0.0169736
-0.0169733
-0.016973
-0.0169727
-0.0169724
-0.0169721
-0.0169717
-0.0169714
-0.0169711
-0.0169708
-0.0169705
-0.0169702
-0.0169699
-0.0169696
-0.0169693
-0.016969
-0.0169687
-0.0169684
-0.0169681
-0.0169678
-0.0169674
-0.0169671
-0.0169668
-0.0169665
-0.0169662
-0.0169659
-0.0169656
-0.0169653
-0.016965
-0.0169647
-0.0169644
-0.0169641
-0.0169638
-0.0169634
-0.0169631
-0.0169628
-0.0169625
-0.0169622
-0.0169619
-0.0169616
-0.0169613
-0.016961
-0.0169607
-0.0169604
-0.0169601
-0.0169598
-0.0169594
-0.0169591
-0.0169588
-0.0169585
-0.0169582
-0.0169579
-0.0169576
-0.0169573
-0.016957
-0.0169567
-0.0169564
-0.0169561
-0.0169557
-0.0169554
-0.0169551
-0.0169548
-0.0169545
-0.0169542
-0.0169539
-0.0169536
-0.0169533
-0.016953
-0.0169527
-0.0169524
-0.0169521
-0.0169517
-0.0169514
-0.0169511
-0.0169508
-0.0169505
-0.0169502
-0.0169499
-0.0169496
-0.0169493
-0.016949
-0.0169487
-0.0169484
-0.0169481
-0.0169477
-0.0169474
-0.0169471
-0.0169468
-0.0169465
-0.0169462
-0.0169459
-0.0169456
-0.0169453
-0.016945
-0.0169447
-0.0169444
-0.016944
-0.0169437
-0.0169434
-0.0169431
-0.0169428
-0.0169425
-0.0169422
-0.0169419
-0.0169416
-0.0169413
-0.016941
-0.0169407
-0.0169403
-0.01694
-0.0169397
-0.0169394
-0.0169391
-0.0169388
-0.0169385
-0.0169382
-0.0169379
-0.0169376
-0.0169373
-0.016937
-0.0169366
-0.0169363
-0.016936
-0.0169357
-0.0169354
-0.0169351
-0.0169348
-0.0169345
-0.0169342
-0.0169339
-0.0169336
-0.0169333
-0.0169329
-0.0169326
-0.0169323
-0.016932
-0.0169317
-0.0169314
-0.0169311
-0.0169308
-0.0169305
-0.0169302
-0.0169299
-0.0169296
-0.0169292
-0.0169289
-0.0169286
-0.0169283
-0.016928
-0.0169277
-0.0169274
-0.0169271
-0.0169268
-0.0169265
-0.0169262
-0.0169259
-0.0169255
-0.0169252
-0.0169249
-0.0169246
-0.0169243
-0.016924
-0.0169237
-0.0169234
-0.0169231
-0.0169228
-0.0169225
-0.0169222
-0.0169218
-0.0169215
-0.0169212
-0.0169209
-0.0169206
-0.0169203
-0.01692
-0.0169197
-0.0169194
-0.0169191
-0.0169188
-0.0169184
-0.0169181
-0.0169178
-0.0169175
-0.0169172
-0.0169169
-0.0169166
-0.0169163
-0.016916
-0.0169157
-0.0169154
-0.0169151
-0.0169147
-0.0169144
-0.0169141
-0.0169138
-0.0169135
-0.0169132
-0.0169129
-0.0169126
-0.0169123
-0.016912
-0.0169117
-0.0169113
-0.016911
-0.0169107
-0.0169104
-0.0169101
-0.0169098
-0.0169095
-0.0169092
-0.0169089
-0.0169086
-0.0169083
-0.0169079
-0.0169076
-0.0169073
-0.016907
-0.0169067
-0.0169064
-0.0169061
-0.0169058
-0.0169055
-0.0169052
-0.0169049
-0.0169046
-0.0169042
-0.0169039
-0.0169036
-0.0169033
-0.016903
-0.0169027
-0.0169024
-0.0169021
-0.0169018
-0.0169015
-0.0169012
-0.0169008
-0.0169005
-0.0169002
-0.0168999
-0.0168996
-0.0168993
-0.016899
-0.0168987
-0.0168984
-0.0168981
-0.0168978
-0.0168974
-0.0168971
-0.0168968
-0.0168965
-0.0168962
-0.0168959
-0.0168956
-0.0168953
-0.016895
-0.0168947
-0.0168944
-0.016894
-0.0168937
-0.0168934
-0.0168931
-0.0168928
-0.0168925
-0.0168922
-0.0168919
-0.0168916
-0.0168913
-0.0168909
-0.0168906
-0.0168903
-0.01689
-0.0168897
-0.0168894
-0.0168891
-0.0168888
-0.0168885
-0.0168882
-0.0168879
-0.0168875
-0.0168872
-0.0168869
-0.0168866
-0.0168863
-0.016886
-0.0168857
-0.0168854
-0.0168851
-0.0168848
-0.0168845
-0.0168841
-0.0168838
-0.0168835
-0.0168832
-0.0168829
-0.0168826
-0.0168823
-0.016882
-0.0168817
-0.0168814
-0.016881
-0.0168807
-0.0168804
-0.0168801
-0.0168798
-0.0168795
-0.0168792
-0.0168789
-0.0168786
-0.0168783
-0.016878
-0.0168776
-0.0168773
-0.016877
-0.0168767
-0.0168764
-0.0168761
-0.0168758
-0.0168755
-0.0168752
-0.0168749
-0.0168745
-0.0168742
-0.0168739
-0.0168736
-0.0168733
-0.016873
-0.0168727
-0.0168724
-0.0168721
-0.0168718
-0.0168715
-0.0168711
-0.0168708
-0.0168705
-0.0168702
-0.0168699
-0.0168696
-0.0168693
-0.016869
-0.0168687
-0.0168684
-0.016868
-0.0168677
-0.0168674
-0.0168671
-0.0168668
-0.0168665
-0.0168662
-0.0168659
-0.0168656
-0.0168653
-0.0168649
-0.0168646
-0.0168643
-0.016864
-0.0168637
-0.0168634
-0.0168631
-0.0168628
-0.0168625
-0.0168622
-0.0168618
-0.0168615
-0.0168612
-0.0168609
-0.0168606
-0.0168603
-0.01686
-0.0168597
-0.0168594
-0.0168591
-0.0168587
-0.0168584
-0.0168581
-0.0168578
-0.0168575
-0.0168572
-0.0168569
-0.0168566
-0.0168563
-0.016856
-0.0168556
-0.0168553
-0.016855
-0.0168547
-0.0168544
-0.0168541
-0.0168538
-0.0168535
-0.0168531
-0.0168528
-0.0168525
-0.0168522
-0.0168519
-0.0168516
-0.0168512
-0.0168509
-0.0168506
-0.0168502
-0.0168499
-0.0168495
-0.0168491
-0.0168488
-0.0168484
-0.0168479
-0.0168475
-0.016847
-0.0168464
-0.0168458
-0.016845
-0.0168443
-0.016843
-0.0168427
-0.0168427
-0.0168427
1
0.483355
0.183961
0.108844
0.081031
0.0668314
0.0581156
0.0521499
0.0477745
0.0444114
0.0417379
0.039558
0.0377446
0.0362114
0.0348975
0.0337583
0.0327605
0.0318786
0.0310928
0.0303876
0.0297505
0.0291714
0.0286422
0.028156
0.0277073
0.0272914
0.0269045
0.0265432
0.0262047
0.0258867
0.025587
0.025304
0.0250361
0.0247819
0.0245402
0.0243101
0.0240906
0.0238809
0.0236803
0.0234881
0.0233038
0.0231269
0.0229568
0.0227931
0.0226354
0.0224835
0.0223369
0.0221953
0.0220586
0.0219263
0.0217983
0.0216744
0.0215543
0.021438
0.0213251
0.0212155
0.0211091
0.0210057
0.0209053
0.0208076
0.0207125
0.02062
0.0205299
0.0204421
0.0203566
0.0202733
0.0201919
0.0201126
0.0200352
0.0199596
0.0198858
0.0198137
0.0197433
0.0196744
0.0196071
0.0195413
0.0194769
0.0194138
0.0193522
0.0192918
0.0192327
0.0191747
0.019118
0.0190625
0.019008
0.0189546
0.0189023
0.018851
0.0188007
0.0187514
0.018703
0.0186556
0.018609
0.0185633
0.0185185
0.0184746
0.0184314
0.0183891
0.0183476
0.0183069
0.018267
0.0182278
0.0181894
0.0181517
0.0181148
0.0180786
0.0180432
0.0180086
0.0179747
0.0179415
0.0179091
0.0178775
0.0178467
0.0178167
0.0177874
0.0177589
0.0177313
0.0177044
0.0176784
0.0176531
0.0176287
0.017605
0.0175821
0.01756
0.0175386
0.017518
0.0174981
0.0174789
0.0174604
0.0174426
0.0174254
0.0174088
0.0173928
0.0173773
0.0173624
0.0173481
0.0173342
0.0173208
0.0173079
0.0172954
0.0172834
0.0172718
0.0172606
0.0172498
0.0172393
0.0172293
0.0172195
0.0172102
0.0172012
0.0171925
0.0171841
0.0171761
0.0171683
0.0171609
0.0171537
0.0171468
0.0171402
0.0171339
0.0171278
0.017122
0.0171164
0.0171111
0.017106
0.0171011
0.0170964
0.0170919
0.0170876
0.0170835
0.0170795
0.0170757
0.017072
0.0170685
0.0170651
0.0170619
0.0170588
0.0170559
0.0170532
0.0170507
0.0170483
0.0170461
0.0170442
0.0170424
0.0170408
0.0170394
0.0170382
0.0170371
0.0170362
0.0170354
0.0170347
0.0170341
0.0170336
0.0170331
0.0170327
0.0170323
0.0170319
0.0170316
0.0170312
0.0170309
0.0170306
0.0170303
0.01703
0.0170297
0.0170294
0.0170291
0.0170288
0.0170285
0.0170282
0.0170279
0.0170276
0.0170273
0.0170269
0.0170266
0.0170263
0.017026
0.0170257
0.0170254
0.0170251
0.0170248
0.0170245
0.0170242
0.0170239
0.0170236
0.0170233
0.017023
0.0170227
0.0170224
0.0170221
0.0170218
0.0170214
0.0170211
0.0170208
0.0170205
0.0170202
0.0170199
0.0170196
0.0170193
0.017019
0.0170187
0.0170184
0.0170181
0.0170178
0.0170175
0.0170172
0.0170169
0.0170166
0.0170162
0.0170159
0.0170156
0.0170153
0.017015
0.0170147
0.0170144
0.0170141
0.0170138
0.0170135
0.0170132
0.0170129
0.0170126
0.0170123
0.017012
0.0170117
0.0170113
0.017011
0.0170107
0.0170104
0.0170101
0.0170098
0.0170095
0.0170092
0.0170089
0.0170086
0.0170083
0.017008
0.0170077
0.0170074
0.0170071
0.0170067
0.0170064
0.0170061
0.0170058
0.0170055
0.0170052
0.0170049
0.0170046
0.0170043
0.017004
0.0170037
0.0170034
0.0170031
0.0170028
0.0170025
0.0170022
0.0170018
0.0170015
0.0170012
0.0170009
0.0170006
0.0170003
0.017
0.0169997
0.0169994
0.0169991
0.0169988
0.0169985
0.0169982
0.0169979
0.0169975
0.0169972
0.0169969
0.0169966
0.0169963
0.016996
0.0169957
0.0169954
0.0169951
0.0169948
0.0169945
0.0169942
0.0169939
0.0169936
0.0169933
0.0169929
0.0169926
0.0169923
0.016992
0.0169917
0.0169914
0.0169911
0.0169908
0.0169905
0.0169902
0.0169899
0.0169896
0.0169893
0.016989
0.0169886
0.0169883
0.016988
0.0169877
0.0169874
0.0169871
0.0169868
0.0169865
0.0169862
0.0169859
0.0169856
0.0169853
0.016985
0.0169847
0.0169843
0.016984
0.0169837
0.0169834
0.0169831
0.0169828
0.0169825
0.0169822
0.0169819
0.0169816
0.0169813
0.016981
0.0169807
0.0169804
0.01698
0.0169797
0.0169794
0.0169791
0.0169788
0.0169785
0.0169782
0.0169779
0.0169776
0.0169773
0.016977
0.0169767
0.0169764
0.0169761
0.0169757
0.0169754
0.0169751
0.0169748
0.0169745
0.0169742
0.0169739
0.0169736
0.0169733
0.016973
0.0169727
0.0169724
0.0169721
0.0169717
0.0169714
0.0169711
0.0169708
0.0169705
0.0169702
0.0169699
0.0169696
0.0169693
0.016969
0.0169687
0.0169684
0.0169681
0.0169678
0.0169674
0.0169671
0.0169668
0.0169665
0.0169662
0.0169659
0.0169656
0.0169653
0.016965
0.0169647
0.0169644
0.0169641
0.0169638
0.0169634
0.0169631
0.0169628
0.0169625
0.0169622
0.0169619
0.0169616
0.0169613
0.016961
0.0169607
0.0169604
0.0169601
0.0169598
0.0169594
0.0169591
0.0169588
0.0169585
0.0169582
0.0169579
0.0169576
0.0169573
0.016957
0.0169567
0.0169564
0.0169561
0.0169557
0.0169554
0.0169551
0.0169548
0.0169545
0.0169542
0.0169539
0.0169536
0.0169533
0.016953
0.0169527
0.0169524
0.0169521
0.0169517
0.0169514
0.0169511
0.0169508
0.0169505
0.0169502
0.0169499
0.0169496
0.0169493
0.016949
0.0169487
0.0169484
0.0169481
0.0169477
0.0169474
0.0169471
0.0169468
0.0169465
0.0169462
0.0169459
0.0169456
0.0169453
0.016945
0.0169447
0.0169444
0.016944
0.0169437
0.0169434
0.0169431
0.0169428
0.0169425
0.0169422
0.0169419
0.0169416
0.0169413
0.016941
0.0169407
0.0169403
0.01694
0.0169397
0.0169394
0.0169391
0.0169388
0.0169385
0.0169382
0.0169379
0.0169376
0.0169373
0.016937
0.0169366
0.0169363
0.016936
0.0169357
0.0169354
0.0169351
0.0169348
0.0169345
0.0169342
0.0169339
0.0169336
0.0169333
0.0169329
0.0169326
0.0169323
0.016932
0.0169317
0.0169314
0.0169311
0.0169308
0.0169305
0.0169302
0.0169299
0.0169296
0.0169292
0.0169289
0.0169286
0.0169283
0.016928
0.0169277
0.0169274
0.0169271
0.0169268
0.0169265
0.0169262
0.0169259
0.0169255
0.0169252
0.0169249
0.0169246
0.0169243
0.016924
0.0169237
0.0169234
0.0169231
0.0169228
0.0169225
0.0169222
0.0169218
0.0169215
0.0169212
0.0169209
0.0169206
0.0169203
0.01692
0.0169197
0.0169194
0.0169191
0.0169188
0.0169184
0.0169181
0.0169178
0.0169175
0.0169172
0.0169169
0.0169166
0.0169163
0.016916
0.0169157
0.0169154
0.0169151
0.0169147
0.0169144
0.0169141
0.0169138
0.0169135
0.0169132
0.0169129
0.0169126
0.0169123
0.016912
0.0169117
0.0169113
0.016911
0.0169107
0.0169104
0.0169101
0.0169098
0.0169095
0.0169092
0.0169089
0.0169086
0.0169083
0.0169079
0.0169076
0.0169073
0.016907
0.0169067
0.0169064
0.0169061
0.0169058
0.0169055
0.0169052
0.0169049
0.0169046
0.0169042
0.0169039
0.0169036
0.0169033
0.016903
0.0169027
0.0169024
0.0169021
0.0169018
0.0169015
0.0169012
0.0169008
0.0169005
0.0169002
0.0168999
0.0168996
0.0168993
0.016899
0.0168987
0.0168984
0.0168981
0.0168978
0.0168974
0.0168971
0.0168968
0.0168965
0.0168962
0.0168959
0.0168956
0.0168953
0.016895
0.0168947
0.0168944
0.016894
0.0168937
0.0168934
0.0168931
0.0168928
0.0168925
0.0168922
0.0168919
0.0168916
0.0168913
0.0168909
0.0168906
0.0168903
0.01689
0.0168897
0.0168894
0.0168891
0.0168888
0.0168885
0.0168882
0.0168879
0.0168875
0.0168872
0.0168869
0.0168866
0.0168863
0.016886
0.0168857
0.0168854
0.0168851
0.0168848
0.0168845
0.0168841
0.0168838
0.0168835
0.0168832
0.0168829
0.0168826
0.0168823
0.016882
0.0168817
0.0168814
0.016881
0.0168807
0.0168804
0.0168801
0.0168798
0.0168795
0.0168792
0.0168789
0.0168786
0.0168783
0.016878
0.0168776
0.0168773
0.016877
0.0168767
0.0168764
0.0168761
0.0168758
0.0168755
0.0168752
0.0168749
0.0168745
0.0168742
0.0168739
0.0168736
0.0168733
0.016873
0.0168727
0.0168724
0.0168721
0.0168718
0.0168715
0.0168711
0.0168708
0.0168705
0.0168702
0.0168699
0.0168696
0.0168693
0.016869
0.0168687
0.0168684
0.016868
0.0168677
0.0168674
0.0168671
0.0168668
0.0168665
0.0168662
0.0168659
0.0168656
0.0168653
0.0168649
0.0168646
0.0168643
0.016864
0.0168637
0.0168634
0.0168631
0.0168628
0.0168625
0.0168622
0.0168618
0.0168615
0.0168612
0.0168609
0.0168606
0.0168603
0.01686
0.0168597
0.0168594
0.0168591
0.0168587
0.0168584
0.0168581
0.0168578
0.0168575
0.0168572
0.0168569
0.0168566
0.0168563
0.016856
0.0168556
0.0168553
0.016855
0.0168547
0.0168544
0.0168541
0.0168538
0.0168535
0.0168531
0.0168528
0.0168525
0.0168522
0.0168519
0.0168516
0.0168512
0.0168509
0.0168506
0.0168502
0.0168499
0.0168495
0.0168491
0.0168488
0.0168484
0.0168479
0.0168475
0.016847
0.0168464
0.0168458
0.016845
0.0168443
0.016843
0.0168427
0.0168427
0.0168427
1
0.969187
0.495612
0.314219
0.237892
0.19739
0.172127
0.154689
0.141834
0.13192
0.124019
0.117564
0.112187
0.107635
0.103731
0.100343
0.0973746
0.0947498
0.0924106
0.0903108
0.0884138
0.0866895
0.0851137
0.0836664
0.0823309
0.0810935
0.0799425
0.078868
0.0778617
0.0769164
0.0760261
0.0751854
0.0743896
0.0736349
0.0729176
0.0722347
0.0715835
0.0709615
0.0703666
0.0697968
0.0692504
0.0687259
0.0682218
0.0677368
0.0672697
0.0668196
0.0663853
0.0659661
0.065561
0.0651694
0.0647905
0.0644236
0.0640682
0.0637237
0.0633896
0.0630653
0.0627504
0.0624445
0.0621472
0.0618581
0.0615769
0.0613032
0.0610367
0.060777
0.0605241
0.0602775
0.060037
0.0598023
0.0595734
0.0593499
0.0591316
0.0589184
0.0587101
0.0585065
0.0583075
0.0581128
0.0579224
0.0577361
0.0575538
0.0573753
0.0572005
0.0570294
0.0568618
0.0566976
0.0565367
0.056379
0.0562244
0.0560729
0.0559243
0.0557787
0.0556358
0.0554957
0.0553583
0.0552235
0.0550913
0.0549616
0.0548344
0.0547096
0.0545873
0.0544672
0.0543496
0.0542342
0.0541211
0.0540103
0.0539017
0.0537954
0.0536914
0.0535897
0.0534902
0.053393
0.0532981
0.0532055
0.0531153
0.0530274
0.0529419
0.0528587
0.052778
0.0526997
0.0526237
0.0525501
0.052479
0.0524101
0.0523436
0.0522793
0.0522172
0.0521574
0.0520996
0.0520439
0.0519902
0.0519384
0.0518885
0.0518404
0.0517939
0.0517492
0.051706
0.0516643
0.0516242
0.0515854
0.0515479
0.0515118
0.051477
0.0514433
0.0514109
0.0513796
0.0513494
0.0513202
0.0512921
0.0512651
0.051239
0.0512139
0.0511898
0.0511665
0.0511442
0.0511227
0.0511021
0.0510823
0.0510633
0.051045
0.0510275
0.0510108
0.0509947
0.0509794
0.0509647
0.0509507
0.0509372
0.0509244
0.0509121
0.0509003
0.0508889
0.0508781
0.0508677
0.0508577
0.0508481
0.050839
0.0508304
0.0508223
0.0508147
0.0508076
0.0508011
0.0507951
0.0507897
0.0507848
0.0507805
0.0507767
0.0507734
0.0507705
0.0507679
0.0507657
0.0507638
0.0507621
0.0507606
0.0507593
0.050758
0.0507569
0.0507559
0.0507549
0.0507539
0.0507529
0.050752
0.0507511
0.0507502
0.0507493
0.0507483
0.0507474
0.0507465
0.0507456
0.0507447
0.0507438
0.0507429
0.050742
0.050741
0.0507401
0.0507392
0.0507383
0.0507374
0.0507365
0.0507355
0.0507346
0.0507337
0.0507328
0.0507319
0.050731
0.05073
0.0507291
0.0507282
0.0507273
0.0507264
0.0507255
0.0507245
0.0507236
0.0507227
0.0507218
0.0507209
0.05072
0.050719
0.0507181
0.0507172
0.0507163
0.0507154
0.0507145
0.0507135
0.0507126
0.0507117
0.0507108
0.0507099
0.050709
0.050708
0.0507071
0.0507062
0.0507053
0.0507044
0.0507034
0.0507025
0.0507016
0.0507007
0.0506998
0.0506989
0.0506979
0.050697
0.0506961
0.0506952
0.0506943
0.0506933
0.0506924
0.0506915
0.0506906
0.0506897
0.0506888
0.0506878
0.0506869
0.050686
0.0506851
0.0506842
0.0506832
0.0506823
0.0506814
0.0506805
0.0506796
0.0506787
0.0506777
0.0506768
0.0506759
0.050675
0.0506741
0.0506731
0.0506722
0.0506713
0.0506704
0.0506695
0.0506685
0.0506676
0.0506667
0.0506658
0.0506649
0.0506639
0.050663
0.0506621
0.0506612
0.0506603
0.0506593
0.0506584
0.0506575
0.0506566
0.0506557
0.0506547
0.0506538
0.0506529
0.050652
0.0506511
0.0506502
0.0506492
0.0506483
0.0506474
0.0506465
0.0506456
0.0506446
0.0506437
0.0506428
0.0506419
0.050641
0.05064
0.0506391
0.0506382
0.0506373
0.0506363
0.0506354
0.0506345
0.0506336
0.0506327
0.0506317
0.0506308
0.0506299
0.050629
0.0506281
0.0506271
0.0506262
0.0506253
0.0506244
0.0506235
0.0506225