# vtk DataFile Version 2.0
FlowField
ASCII
DATASET STRUCTURED_GRID
DIMENSIONS 800 1 200
POINTS 160000 float
0 0 0
0.04 0 0
0.08 0 0
0.12 0 0
0.16 0 0
0.2 0 0
0.24 0 0
0.28 0 0
0.32 0 0
0.36 0 0
0.4 0 0
0.44 0 0
0.48 0 0
0.52 0 0
0.56 0 0
0.6 0 0
0.64 0 0
0.68 0 0
0.72 0 0
0.76 0 0
0.8 0 0
0.84 0 0
0.88 0 0
0.92 0 0
0.96 0 0
1 0 0
1.04 0 0
1.08 0 0
1.12 0 0
1.16 0 0
1.2 0 0
1.24 0 0
1.28 0 0
1.32 0 0
1.36 0 0
1.4 0 0
1.44 0 0
1.48 0 0
1.52 0 0
1.56 0 0
1.6 0 0
1.64 0 0
1.68 0 0
1.72 0 0
1.76 0 0
1.8 0 0
1.84 0 0
1.88 0 0
1.92 0 0
1.96 0 0
2 0 0
2.04 0 0
2.08 0 0
2.12 0 0
2.16 0 0
2.2 0 0
2.24 0 0
2.28 0 0
2.32 0 0
2.36 0 0
2.4 0 0
2.44 0 0
2.48 0 0
2.52 0 0
2.56 0 0
2.6 0 0
2.64 0 0
2.68 0 0
2.72 0 0
2.76 0 0
2.8 0 0
2.84 0 0
2.88 0 0
2.92 0 0
2.96 0 0
3 0 0
3.04 0 0
3.08 0 0
3.12 0 0
3.16 0 0
3.2 0 0
3.24 0 0
3.28 0 0
3.32 0 0
3.36 0 0
3.4 0 0
3.44 0 0
3.48 0 0
3.52 0 0
3.56 0 0
3.6 0 0
3.64 0 0
3.68 0 0
3.72 0 0
3.76 0 0
3.8 0 0
3.84 0 0
3.88 0 0
3.92 0 0
3.96 0 0
4 0 0
4.04 0 0
4.08 0 0
4.12 0 0
4.16 0 0
4.2 0 0
4.24 0 0
4.28 0 0
4.32 0 0
4.36 0 0
4.4 0 0
4.44 0 0
4.48 0 0
4.52 0 0
4.56 0 0
4.6 0 0
4.64 0 0
4.68 0 0
4.72 0 0
4.76 0 0
4.8 0 0
4.84 0 0
4.88 0 0
4.92 0 0
4.96 0 0
5 0 0
5.04 0 0
5.08 0 0
5.12 0 0
5.16 0 0
5.2 0 0
5.24 0 0
5.28 0 0
5.32 0 0
5.36 0 0
5.4 0 0
5.44 0 0
5.48 0 0
5.52 0 0
5.56 0 0
5.6 0 0
5.64 0 0
5.68 0 0
5.72 0 0
5.76 0 0
5.8 0 0
5.84 0 0
5.88 0 0
5.92 0 0
5.96 0 0
6 0 0
6.04 0 0
6.08 0 0
6.12 0 0
6.16 0 0
6.2 0 0
6.24 0 0
6.28 0 0
6.32 0 0
6.36 0 0
6.4 0 0
6.44 0 0
6.48 0 0
6.52 0 0
6.56 0 0
6.6 0 0
6.64 0 0
6.68 0 0
6.72 0 0
6.76 0 0
6.8 0 0
6.84 0 0
6.88 0 0
6.92 0 0
6.96 0 0
7 0 0
7.04 0 0
7.08 0 0
7.12 0 0
7.16 0 0
7.2 0 0
7.24 0 0
7.28 0 0
7.32 0 0
7.36 0 0
7.4 0 0
7.44 0 0
7.48 0 0
7.52 0 0
7.56 0 0
7.6 0 0
7.64 0 0
7.68 0 0
7.72 0 0
7.76 0 0
7.8 0 0
7.84 0 0
7.88 0 0
7.92 0 0
7.96 0 0
8 0 0
8.04 0 0
8.08 0 0
8.12 0 0
8.16 0 0
8.2 0 0
8.24 0 0
8.28 0 0
8.32 0 0
8.36 0 0
8.4 0 0
8.44 0 0
8.48 0 0
8.52 0 0
8.56 0 0
8.6 0 0
8.64 0 0
8.68 0 0
8.72 0 0
8.76 0 0
8.8 0 0
8.84 0 0
8.88 0 0
8.92 0 0
8.96 0 0
9 0 0
9.04 0 0
9.08 0 0
9.12 0 0
9.16 0 0
9.2 0 0
9.24 0 0
9.28 0 0
9.32 0 0
9.36 0 0
9.4 0 0
9.44 0 0
9.48 0 0
9.52 0 0
9.56 0 0
9.6 0 0
9.64 0 0
9.68 0 0
9.72 0 0
9.76 0 0
9.8 0 0
9.84 0 0
9.88 0 0
9.92 0 0
9.96 0 0
10 0 0
10.04 0 0
10.08 0 0
10.12 0 0
10.16 0 0
10.2 0 0
10.24 0 0
10.28 0 0
10.32 0 0
10.36 0 0
10.4 0 0
10.44 0 0
10.48 0 0
10.52 0 0
10.56 0 0
10.6 0 0
10.64 0 0
10.68 0 0
10.72 0 0
10.76 0 0
10.8 0 0
10.84 0 0
10.88 0 0
10.92 0 0
10.96 0 0
11 0 0
11.04 0 0
11.08 0 0
11.12 0 0
11.16 0 0
11.2 0 0
11.24 0 0
11.28 0 0
11.32 0 0
11.36 0 0
11.4 0 0
11.44 0 0
11.48 0 0
11.52 0 0
11.56 0 0
11.6 0 0
11.64 0 0
11.68 0 0
11.72 0 0
11.76 0 0
11.8 0 0
11.84 0 0
11.88 0 0
11.92 0 0
11.96 0 0
12 0 0
12.04 0 0
12.08 0 0
12.12 0 0
12.16 0 0
12.2 0 0
12.24 0 0
12.28 0 0
12.32 0 0
12.36 0 0
12.4 0 0
12.44 0 0
12.48 0 0
12.52 0 0
12.56 0 0
12.6 0 0
12.64 0 0
12.68 0 0
12.72 0 0
12.76 0 0
12.8 0 0
12.84 0 0
12.88 0 0
12.92 0 0
12.96 0 0
13 0 0
13.04 0 0
13.08 0 0
13.12 0 0
13.16 0 0
13.2 0 0
13.24 0 0
13.28 0 0
13.32 0 0
13.36 0 0
13.4 0 0
13.44 0 0
13.48 0 0
13.52 0 0
13.56 0 0
13.6 0 0
13.64 0 0
13.68 0 0
13.72 0 0
13.76 0 0
13.8 0 0
13.84 0 0
13.88 0 0
13.92 0 0
13.96 0 0
14 0 0
14.04 0 0
14.08 0 0
14.12 0 0
14.16 0 0
14.2 0 0
14.24 0 0
14.28 0 0
14.32 0 0
14.36 0 0
14.4 0 0
14.44 0 0
14.48 0 0
14.52 0 0
14.56 0 0
14.6 0 0
14.64 0 0
14.68 0 0
14.72 0 0
14.76 0 0
14.8 0 0
14.84 0 0
14.88 0 0
14.92 0 0
14.96 0 0
15 0 0
15.04 0 0
15.08 0 0
15.12 0 0
15.16 0 0
15.2 0 0
15.24 0 0
15.28 0 0
15.32 0 0
15.36 0 0
15.4 0 0
15.44 0 0
15.48 0 0
15.52 0 0
15.56 0 0
15.6 0 0
15.64 0 0
15.68 0 0
15.72 0 0
15.76 0 0
15.8 0 0
15.84 0 0
15.88 0 0
15.92 0 0
15.96 0 0
16 0 0
16.04 0 0
16.08 0 0
16.12 0 0
16.16 0 0
16.2 0 0
16.24 0 0
16.28 0 0
16.32 0 0
16.36 0 0
16.4 0 0
16.44 0 0
16.48 0 0
16.52 0 0
16.56 0 0
16.6 0 0
16.64 0 0
16.68 0 0
16.72 0 0
16.76 0 0
16.8 0 0
16.84 0 0
16.88 0 0
16.92 0 0
16.96 0 0
17 0 0
17.04 0 0
17.08 0 0
17.12 0 0
17.16 0 0
17.2 0 0
17.24 0 0
17.28 0 0
17.32 0 0
17.36 0 0
17.4 0 0
17.44 0 0
17.48 0 0
17.52 0 0
17.56 0 0
17.6 0 0
17.64 0 0
17.68 0 0
17.72 0 0
17.76 0 0
17.8 0 0
17.84 0 0
17.88 0 0
17.92 0 0
17.96 0 0
18 0 0
18.04 0 0
18.08 0 0
18.12 0 0
18.16 0 0
18.2 0 0
18.24 0 0
18.28 0 0
18.32 0 0
18.36 0 0
18.4 0 0
18.44 0 0
18.48 0 0
18.52 0 0
18.56 0 0
18.6 0 0
18.64 0 0
18.68 0 0
18.72 0 0
18.76 0 0
18.8 0 0
18.84 0 0
18.88 0 0
18.92 0 0
18.96 0 0
19 0 0
19.04 0 0
19.08 0 0
19.12 0 0
19.16 0 0
19.2 0 0
19.24 0 0
19.28 0 0
19.32 0 0
19.36 0 0
19.4 0 0
19.44 0 0
19.48 0 0
19.52 0 0
19.56 0 0
19.6 0 0
19.64 0 0
19.68 0 0
19.72 0 0
19.76 0 0
19.8 0 0
19.84 0 0
19.88 0 0
19.92 0 0
19.96 0 0
20 0 0
20.04 0 0
20.08 0 0
20.12 0 0
20.16 0 0
20.2 0 0
20.24 0 0
20.28 0 0
20.32 0 0
20.36 0 0
20.4 0 0
20.44 0 0
20.48 0 0
20.52 0 0
20.56 0 0
20.6 0 0
20.64 0 0
20.68 0 0
20.72 0 0
20.76 0 0
20.8 0 0
20.84 0 0
20.88 0 0
20.92 0 0
20.96 0 0
21 0 0
21.04 0 0
21.08 0 0
21.12 0 0
21.16 0 0
21.2 0 0
21.24 0 0
21.28 0 0
21.32 0 0
21.36 0 0
21.4 0 0
21.44 0 0
21.48 0 0
21.52 0 0
21.56 0 0
21.6 0 0
21.64 0 0
21.68 0 0
21.72 0 0
21.76 0 0
21.8 0 0
21.84 0 0
21.88 0 0
21.92 0 0
21.96 0 0
22 0 0
22.04 0 0
22.08 0 0
22.12 0 0
22.16 0 0
22.2 0 0
22.24 0 0
22.28 0 0
22.32 0 0
22.36 0 0
22.4 0 0
22.44 0 0
22.48 0 0
22.52 0 0
22.56 0 0
22.6 0 0
22.64 0 0
22.68 0 0
22.72 0 0
22.76 0 0
22.8 0 0
22.84 0 0
22.88 0 0
22.92 0 0
22.96 0 0
23 0 0
23.04 0 0
23.08 0 0
23.12 0 0
23.16 0 0
23.2 0 0
23.24 0 0
23.28 0 0
23.32 0 0
23.36 0 0
23.4 0 0
23.44 0 0
23.48 0 0
23.52 0 0
23.56 0 0
23.6 0 0
23.64 0 0
23.68 0 0
23.72 0 0
23.76 0 0
23.8 0 0
23.84 0 0
23.88 0 0
23.92 0 0
23.96 0 0
24 0 0
24.04 0 0
24.08 0 0
24.12 0 0
24.16 0 0
24.2 0 0
24.24 0 0
24.28 0 0
24.32 0 0
24.36 0 0
24.4 0 0
24.44 0 0
24.48 0 0
24.52 0 0
24.56 0 0
24.6 0 0
24.64 0 0
24.68 0 0
24.72 0 0
24.76 0 0
24.8 0 0
24.84 0 0
24.88 0 0
24.92 0 0
24.96 0 0
25 0 0
25.04 0 0
25.08 0 0
25.12 0 0
25.16 0 0
25.2 0 0
25.24 0 0
25.28 0 0
25.32 0 0
25.36 0 0
25.4 0 0
25.44 0 0
25.48 0 0
25.52 0 0
25.56 0 0
25.6 0 0
25.64 0 0
25.68 0 0
25.72 0 0
25.76 0 0
25.8 0 0
25.84 0 0
25.88 0 0
25.92 0 0
25.96 0 0
26 0 0
26.04 0 0
26.08 0 0
26.12 0 0
26.16 0 0
26.2 0 0
26.24 0 0
26.28 0 0
26.32 0 0
26.36 0 0
26.4 0 0
26.44 0 0
26.48 0 0
26.52 0 0
26.56 0 0
26.6 0 0
26.64 0 0
26.68 0 0
26.72 0 0
26.76 0 0
26.8 0 0
26.84 0 0
26.88 0 0
26.92 0 0
26.96 0 0
27 0 0
27.04 0 0
27.08 0 0
27.12 0 0
27.16 0 0
27.2 0 0
27.24 0 0
27.28 0 0
27.32 0 0
27.36 0 0
27.4 0 0
27.44 0 0
27.48 0 0
27.52 0 0
27.56 0 0
27.6 0 0
27.64 0 0
27.68 0 0
27.72 0 0
27.76 0 0
27.8 0 0
27.84 0 0
27.88 0 0
27.92 0 0
27.96 0 0
28 0 0
28.04 0 0
28.08 0 0
28.12 0 0
28.16 0 0
28.2 0 0
28.24 0 0
28.28 0 0
28.32 0 0
28.36 0 0
28.4 0 0
28.44 0 0
28.48 0 0
28.52 0 0
28.56 0 0
28.6 0 0
28.64 0 0
28.68 0 0
28.72 0 0
28.76 0 0
28.8 0 0
28.84 0 0
28.88 0 0
28.92 0 0
28.96 0 0
29 0 0
29.04 0 0
29.08 0 0
29.12 0 0
29.16 0 0
29.2 0 0
29.24 0 0
29.28 0 0
29.32 0 0
29.36 0 0
29.4 0 0
29.44 0 0
29.48 0 0
29.52 0 0
29.56 0 0
29.6 0 0
29.64 0 0
29.68 0 0
29.72 0 0
29.76 0 0
29.8 0 0
29.84 0 0
29.88 0 0
29.92 0 0
29.96 0 0
30 0 0
30.04 0 0
30.08 0 0
30.12 0 0
30.16 0 0
30.2 0 0
30.24 0 0
30.28 0 0
30.32 0 0
30.36 0 0
30.4 0 0
30.44 0 0
30.48 0 0
30.52 0 0
30.56 0 0
30.6 0 0
30.64 0 0
30.68 0 0
30.72 0 0
30.76 0 0
30.8 0 0
30.84 0 0
30.88 0 0
30.92 0 0
30.96 0 0
31 0 0
31.04 0 0
31.08 0 0
31.12 0 0
31.16 0 0
31.2 0 0
31.24 0 0
31.28 0 0
31.32 0 0
31.36 0 0
31.4 0 0
31.44 0 0
31.48 0 0
31.52 0 0
31.56 0 0
31.6 0 0
31.64 0 0
31.68 0 0
31.72 0 0
31.76 0 0
31.8 0 0
31.84 0 0
31.88 0 0
31.92 0 0
31.96 0 0
0 0.005 0
0.04 0.005 0
0.08 0.005 0
0.12 0.005 0
0.16 0.005 0
0.2 0.005 0
0.24 0.005 0
0.28 0.005 0
0.32 0.005 0
0.36 0.005 0
0.4 0.005 0
0.44 0.005 0
0.48 0.005 0
0.52 0.005 0
0.56 0.005 0
0.6 0.005 0
0.64 0.005 0
0.68 0.005 0
0.72 0.005 0
0.76 0.005 0
0.8 0.005 0
0.84 0.005 0
0.88 0.005 0
0.92 0.005 0
0.96 0.005 0
1 0.005 0
1.04 0.005 0
1.08 0.005 0
1.12 0.005 0
1.16 0.005 0
1.2 0.005 0
1.24 0.005 0
1.28 0.005 0
1.32 0.005 0
1.36 0.005 0
1.4 0.005 0
1.44 0.005 0
1.48 0.005 0
1.52 0.005 0
1.56 0.005 0
1.6 0.005 0
1.64 0.005 0
1.68 0.005 0
1.72 0.005 0
1.76 0.005 0
1.8 0.005 0
1.84 0.005 0
1.88 0.005 0
1.92 0.005 0
1.96 0.005 0
2 0.005 0
2.04 0.005 0
2.08 0.005 0
2.12 0.005 0
2.16 0.005 0
2.2 0.005 0
2.24 0.005 0
2.28 0.005 0
2.32 0.005 0
2.36 0.005 0
2.4 0.005 0
2.44 0.005 0
2.48 0.005 0
2.52 0.005 0
2.56 0.005 0
2.6 0.005 0
2.64 0.005 0
2.68 0.005 0
2.72 0.005 0
2.76 0.005 0
2.8 0.005 0
2.84 0.005 0
2.88 0.005 0
2.92 0.005 0
2.96 0.005 0
3 0.005 0
3.04 0.005 0
3.08 0.005 0
3.12 0.005 0
3.16 0.005 0
3.2 0.005 0
3.24 0.005 0
3.28 0.005 0
3.32 0.005 0
3.36 0.005 0
3.4 0.005 0
3.44 0.005 0
3.48 0.005 0
3.52 0.005 0
3.56 0.005 0
3.6 0.005 0
3.64 0.005 0
3.68 0.005 0
3.72 0.005 0
3.76 0.005 0
3.8 0.005 0
3.84 0.005 0
3.88 0.005 0
3.92 0.005 0
3.96 0.005 0
4 0.005 0
4.04 0.005 0
4.08 0.005 0
4.12 0.005 0
4.16 0.005 0
4.2 0.005 0
4.24 0.005 0
4.28 0.005 0
4.32 0.005 0
4.36 0.005 0
4.4 0.005 0
4.44 0.005 0
4.48 0.005 0
4.52 0.005 0
4.56 0.005 0
4.6 0.005 0
4.64 0.005 0
4.68 0.005 0
4.72 0.005 0
4.76 0.005 0
4.8 0.005 0
4.84 0.005 0
4.88 0.005 0
4.92 0.005 0
4.96 0.005 0
5 0.005 0
5.04 0.005 0
5.08 0.005 0
5.12 0.005 0
5.16 0.005 0
5.2 0.005 0
5.24 0.005 0
5.28 0.005 0
5.32 0.005 0
5.36 0.005 0
5.4 0.005 0
5.44 0.005 0
5.48 0.005 0
5.52 0.005 0
5.56 0.005 0
5.6 0.005 0
5.64 0.005 0
5.68 0.005 0
5.72 0.005 0
5.76 0.005 0
5.8 0.005 0
5.84 0.005 0
5.88 0.005 0
5.92 0.005 0
5.96 0.005 0
6 0.005 0
6.04 0.005 0
6.08 0.005 0
6.12 0.005 0
6.16 0.005 0
6.2 0.005 0
6.24 0.005 0
6.28 0.005 0
6.32 0.005 0
6.36 0.005 0
6.4 0.005 0
6.44 0.005 0
6.48 0.005 0
6.52 0.005 0
6.56 0.005 0
6.6 0.005 0
6.64 0.005 0
6.68 0.005 0
6.72 0.005 0
6.76 0.005 0
6.8 0.005 0
6.84 0.005 0
6.88 0.005 0
6.92 0.005 0
6.96 0.005 0
7 0.005 0
7.04 0.005 0
7.08 0.005 0
7.12 0.005 0
7.16 0.005 0
7.2 0.005 0
7.24 0.005 0
7.28 0.005 0
7.32 0.005 0
7.36 0.005 0
7.4 0.005 0
[...]
POINT_DATA 160000

SCALARS p float 1
LOOKUP_TABLE default
1
42.7179
40.5024
40.2475
40.1874
40.161
40.1449
40.1333
40.1241
40.1162
40.1093
40.103
40.0971
40.0915
40.0862
40.0811
40.0761
40.0713
40.0666
40.062
40.0574
40.053
40.0486
40.0442
40.04
40.0357
40.0316
40.0275
40.0234
40.0194
40.0154
40.0115
40.0076
40.0038
40
39.9963
39.9926
39.9889
39.9852
39.9817
39.9781
39.9746
39.9711
39.9676
39.9642
39.9608
39.9574
39.9541
39.9508
39.9475
39.9442
39.941
39.9378
39.9346
39.9315
39.9284
39.9253
39.9222
39.9191
39.9161
39.9131
39.9101
39.9071
39.9042
39.9012
39.8983
39.8954
39.8926
39.8897
39.8869
39.884
39.8812
39.8785
39.8757
39.8729
39.8702
39.8674
39.8647
39.862
39.8594
39.8567
39.854
39.8514
39.8488
39.8461
39.8435
39.8409
39.8384
39.8358
39.8332
39.8307
39.8282
39.8257
39.8231
39.8206
39.8182
39.8157
39.8132
39.8108
39.8083
39.8059
39.8035
39.801
39.7986
39.7962
39.7939
39.7915
39.7891
39.7867
39.7844
39.782
39.7797
39.7774
39.7751
39.7728
39.7705
39.7682
39.7659
39.7636
39.7613
39.7591
39.7568
39.7546
39.7523
39.7501
39.7478
39.7456
39.7434
39.7412
39.739
39.7368
39.7346
39.7324
39.7303
39.7281
39.7259
39.7238
39.7216
39.7195
39.7174
39.7152
39.7131
39.711
39.7089
39.7067
39.7046
39.7025
39.7005
39.6984
39.6963
39.6942
39.6921
39.6901
39.688
39.6859
39.6839
39.6818
39.6798
39.6778
39.6757
39.6737
39.6717
39.6697
39.6677
39.6656
39.6636
39.6616
39.6596
39.6576
39.6557
39.6537
39.6517
39.6497
39.6477
39.6458
39.6438
39.6419
39.6399
39.638
39.636
39.6341
39.6321
39.6302
39.6283
39.6263
39.6244
39.6225
39.6206
39.6186
39.6167
39.6148
39.6129
39.611
39.6091
39.6072
39.6053
39.6034
39.6016
39.5997
39.5978
39.5959
39.5941
39.5922
39.5903
39.5885
39.5866
39.5847
39.5829
39.581
39.5792
39.5773
39.5755
39.5736
39.5718
39.57
39.5681
39.5663
39.5645
39.5627
39.5608
39.559
39.5572
39.5554
39.5536
39.5518
39.55
39.5482
39.5464
39.5446
39.5428
39.541
39.5392
39.5374
39.5356
39.5338
39.532
39.5302
39.5285
39.5267
39.5249
39.5231
39.5214
39.5196
39.5178
39.5161
39.5143
39.5125
39.5108
39.509
39.5073
39.5055
39.5038
39.502
39.5003
39.4985
39.4968
39.495
39.4933
39.4916
39.4898
39.4881
39.4864
39.4846
39.4829
39.4812
39.4794
39.4777
39.476
39.4743
39.4726
39.4708
39.4691
39.4674
39.4657
39.464
39.4623
39.4606
39.4589
39.4572
39.4554
39.4537
39.452
39.4503
39.4486
39.4469
39.4452
39.4436
39.4419
39.4402
39.4385
39.4368
39.4351
39.4334
39.4317
39.43
39.4284
39.4267
39.425
39.4233
39.4216
39.42
39.4183
39.4166
39.4149
39.4133
39.4116
39.4099
39.4083
39.4066
39.4049
39.4033
39.4016
39.3999
39.3983
39.3966
39.3949
39.3933
39.3916
39.39
39.3883
39.3867
39.385
39.3834
39.3817
39.38
39.3784
39.3767
39.3751
39.3734
39.3718
39.3702
39.3685
39.3669
39.3652
39.3636
39.3619
39.3603
39.3587
39.357
39.3554
39.3537
39.3521
39.3505
39.3488
39.3472
39.3456
39.3439
39.3423
39.3407
39.339
39.3374
39.3358
39.3342
39.3325
39.3309
39.3293
39.3276
39.326
39.3244
39.3228
39.3211
39.3195
39.3179
39.3163
39.3147
39.313
39.3114
39.3098
39.3082
39.3066
39.305
39.3033
39.3017
39.3001
39.2985
39.2969
39.2953
39.2937
39.292
39.2904
39.2888
39.2872
39.2856
39.284
39.2824
39.2808
39.2792
39.2776
39.276
39.2743
39.2727
39.2711
39.2695
39.2679
39.2663
39.2647
39.2631
39.2615
39.2599
39.2583
39.2567
39.2551
39.2535
39.2519
39.2503
39.2487
39.2471
39.2455
39.2439
39.2423
39.2407
39.2391
39.2375
39.2359
39.2343
39.2328
39.2312
39.2296
39.228
39.2264
39.2248
39.2232
39.2216
39.22
39.2184
39.2168
39.2152
39.2137
39.2121
39.2105
39.2089
39.2073
39.2057
39.2041
39.2025
39.2009
39.1994
39.1978
39.1962
39.1946
39.193
39.1914
39.1898
39.1883
39.1867
39.1851
39.1835
39.1819
39.1803
39.1788
39.1772
39.1756
39.174
39.1724
39.1708
39.1693
39.1677
39.1661
39.1645
39.1629
39.1614
39.1598
39.1582
39.1566
39.1551
39.1535
39.1519
39.1503
39.1487
39.1472
39.1456
39.144
39.1424
39.1409
39.1393
39.1377
39.1361
39.1346
39.133
39.1314
39.1298
39.1283
39.1267
39.1251
39.1235
39.122
39.1204
39.1188
39.1172
39.1157
39.1141
39.1125
39.111
39.1094
39.1078
39.1062
39.1047
39.1031
39.1015
39.1
39.0984
39.0968
39.0952
39.0937
39.0921
39.0905
39.089
39.0874
39.0858
39.0843
39.0827
39.0811
39.0796
39.078
39.0764
39.0749
39.0733
39.0717
39.0702
39.0686
39.067
39.0655
39.0639
39.0623
39.0608
39.0592
39.0576
39.0561
39.0545
39.0529
39.0514
39.0498
39.0482
39.0467
39.0451
39.0436
39.042
39.0404
39.0389
39.0373
39.0357
39.0342
39.0326
39.0311
39.0295
39.0279
39.0264
39.0248
39.0232
39.0217
39.0201
39.0186
39.017
39.0154
39.0139
39.0123
39.0108
39.0092
39.0076
39.0061
39.0045
39.003
39.0014
38.9998
38.9983
38.9967
38.9952
38.9936
38.992
38.9905
38.9889
38.9874
38.9858
38.9842
38.9827
38.9811
38.9796
38.978
38.9765
38.9749
38.9733
38.9718
38.9702
38.9687
38.9671
38.9656
38.964
38.9624
38.9609
38.9593
38.9578
38.9562
38.9547
38.9531
38.9515
38.95
38.9484
38.9469
38.9453
38.9438
38.9422
38.9406
38.9391
38.9375
38.936
38.9344
38.9329
38.9313
38.9298
38.9282
38.9266
38.9251
38.9235
38.922
38.9204
38.9189
38.9173
38.9158
38.9142
38.9126
38.9111
38.9095
38.908
38.9064
38.9049
38.9033
38.9018
38.9002
38.8986
38.8971
38.8955
38.894
38.8924
38.8909
38.8893
38.8878
38.8862
38.8847
38.8831
38.8815
38.88
38.8784
38.8769
38.8753
38.8738
38.8722
38.8707
38.8691
38.8676
38.866
38.8644
38.8629
38.8613
38.8598
38.8582
38.8567
38.8551
38.8536
38.852
38.8505
38.8489
38.8474
38.8458
38.8442
38.8427
38.8411
38.8396
38.838
38.8365
38.8349
38.8334
38.8318
38.8303
38.8287
38.8272
38.8256
38.8241
38.8225
38.8209
38.8194
38.8178
38.8163
38.8147
38.8132
38.8116
38.8101
38.8085
38.807
38.8054
38.8039
38.8023
38.8008
38.7992
38.7977
38.7961
38.7945
38.793
38.7914
38.7899
38.7883
38.7868
38.7852
38.7837
38.7821
38.7806
38.779
38.7775
38.7759
38.7744
38.7728
38.7713
38.7697
38.7682
38.7666
38.7651
38.7635
38.7619
38.7604
38.7588
38.7573
38.7557
38.7542
38.7526
38.7511
38.7495
38.748
38.7464
38.7449
38.7433
38.7418
38.7402
38.7387
38.7371
38.7356
38.734
38.7325
38.7309
38.7294
38.7278
38.7263
38.7247
38.7232
38.7216
38.7201
38.7185
38.717
38.7154
38.7139
38.7123
38.7108
38.7092
38.7076
38.7061
38.7045
38.703
38.7014
38.6999
38.6983
38.6968
38.6952
38.6937
38.6921
38.6906
38.689
38.6875
38.6859
38.6844
38.6828
38.6813
38.6797
38.6782
38.6766
38.6751
38.6735
38.672
38.6704
38.6689
38.6673
38.6658
38.6642
38.6627
38.6611
38.6596
38.658
38.6565
38.6549
38.6534
38.6518
38.6503
38.6487
38.6472
38.6456
38.6441
38.6425
38.641
38.6394
38.6379
38.6364
38.6348
1
42.7179
42.7179
40.5024
40.2475
40.1874
40.161
40.1449
40.1333
40.1241
40.1162
40.1093
40.103
40.0971
40.0915
40.0862
40.0811
40.0761
40.0713
40.0666
40.062
40.0574
40.053
40.0486
40.0442
40.04
40.0357
40.0316
40.0275
40.0234
40.0194
40.0154
40.0115
40.0076
40.0038
40
39.9963
39.9926
39.9889
39.9852
39.9817
39.9781
39.9746
39.9711
39.9676
39.9642
39.9608
39.9574
39.9541
39.9508
39.9475
39.9442
39.941
39.9378
39.9346
39.9315
39.9284
39.9253
39.9222
39.9191
39.9161
39.9131
39.9101
39.9071
39.9042
39.9012
39.8983
39.8954
39.8926
39.8897
39.8869
39.884
39.8812
39.8785
39.8757
39.8729
39.8702
39.8674
39.8647
39.862
39.8594
39.8567
39.854
39.8514
39.8488
39.8461
39.8435
39.8409
39.8384
39.8358
39.8332
39.8307
39.8282
39.8257
39.8231
39.8206
39.8182
39.8157
39.8132
39.8108
39.8083
39.8059
39.8035
39.801
39.7986
39.7962
39.7939
39.7915
39.7891
39.7867
39.7844
39.782
39.7797
39.7774
39.7751
39.7728
39.7705
39.7682
39.7659
39.7636
39.7613
39.7591
39.7568
39.7546
39.7523
39.7501
39.7478
39.7456
39.7434
39.7412
39.739
39.7368
39.7346
39.7324
39.7303
39.7281
39.7259
39.7238
39.7216
39.7195
39.7174
39.7152
39.7131
39.711
39.7089
39.7067
39.7046
39.7025
39.7005
39.6984
39.6963
39.6942
39.6921
39.6901
39.688
39.6859
39.6839
39.6818
39.6798
39.6778
39.6757
39.6737
39.6717
39.6697
39.6677
39.6656
39.6636
39.6616
39.6596
39.6576
39.6557
39.6537
39.6517
39.6497
39.6477
39.6458
39.6438
39.6419
39.6399
39.638
39.636
39.6341
39.6321
39.6302
39.6283
39.6263
39.6244
39.6225
39.6206
39.6186
39.6167
39.6148
39.6129
39.611
39.6091
39.6072
39.6053
39.6034
39.6016
39.5997
39.5978
39.5959
39.5941
39.5922
39.5903
39.5885
39.5866
39.5847
39.5829
39.581
39.5792
39.5773
39.5755
39.5736
39.5718
39.57
39.5681
39.5663
39.5645
39.5627
39.5608
39.559
39.5572
39.5554
39.5536
39.5518
39.55
39.5482
39.5464
39.5446
39.5428
39.541
39.5392
39.5374
39.5356
39.5338
39.532
39.5302
39.5285
39.5267
39.5249
39.5231
39.5214
39.5196
39.5178
39.5161
39.5143
39.5125
39.5108
39.509
39.5073
39.5055
39.5038
39.502
39.5003
39.4985
39.4968
39.495
39.4933
39.4916
39.4898
39.4881
39.4864
39.4846
39.4829
39.4812
39.4794
39.4777
39.476
39.4743
39.4726
39.4708
39.4691
39.4674
39.4657
39.464
39.4623
39.4606
39.4589
39.4572
39.4554
39.4537
39.452
39.4503
39.4486
39.4469
39.4452
39.4436
39.4419
39.4402
39.4385
39.4368
39.4351
39.4334
39.4317
39.43
39.4284
39.4267
39.425
39.4233
39.4216
39.42
39.4183
39.4166
39.4149
39.4133
39.4116
39.4099
39.4083
39.4066
39.4049
39.4033
39.4016
39.3999
39.3983
39.3966
39.3949
39.3933
39.3916
39.39
39.3883
39.3867
39.385
39.3834
39.3817
39.38
39.3784
39.3767
39.3751
39.3734
39.3718
39.3702
39.3685
39.3669
39.3652
39.3636
39.3619
39.3603
39.3587
39.357
39.3554
39.3537
39.3521
39.3505
39.3488
39.3472
39.3456
39.3439
39.3423
39.3407
39.339
39.3374
39.3358
39.3342
39.3325
39.3309
39.3293
39.3276
39.326
39.3244
39.3228
39.3211
39.3195
39.3179
39.3163
39.3147
39.313
39.3114
39.3098
39.3082
39.3066
39.305
39.3033
39.3017
39.3001
39.2985
39.2969
39.2953
39.2937
39.292
39.2904
39.2888
39.2872
39.2856
39.284
39.2824
39.2808
39.2792
39.2776
39.276
39.2743
39.2727
39.2711
39.2695
39.2679
39.2663
39.2647
39.2631
39.2615
39.2599
39.2583
39.2567
39.2551
39.2535
39.2519
39.2503
39.2487
39.2471
39.2455
39.2439
39.2423
39.2407
39.2391
39.2375
39.2359
39.2343
39.2328
39.2312
39.2296
39.228
39.2264
39.2248
39.2232
39.2216
39.22
39.2184
39.2168
39.2152
39.2137
39.2121
39.2105
39.2089
39.2073
39.2057
39.2041
39.2025
39.2009
39.1994
39.1978
39.1962
39.1946
39.193
39.1914
39.1898
39.1883
39.1867
39.1851
39.1835
39.1819
39.1803
39.1788
39.1772
39.1756
39.174
39.1724
39.1708
39.1693
39.1677
39.1661
39.1645
39.1629
39.1614
39.1598
39.1582
39.1566
39.1551
39.1535
39.1519
39.1503
39.1487
39.1472
39.1456
39.144
39.1424
39.1409
39.1393
39.1377
39.1361
39.1346
39.133
39.1314
39.1298
39.1283
39.1267
39.1251
39.1235
39.122
39.1204
39.1188
39.1172
39.1157
39.1141
39.1125
39.111
39.1094
39.1078
39.1062
39.1047
39.1031
39.1015
39.1
39.0984
39.0968
39.0952
39.0937
39.0921
39.0905
39.089
39.0874
39.0858
39.0843
39.0827
39.0811
39.0796
39.078
39.0764
39.0749
39.0733
39.0717
39.0702
39.0686
39.067
39.0655
39.0639
39.0623
39.0608
39.0592
39.0576
39.0561
39.0545
39.0529
39.0514
39.0498
39.0482
39.0467
39.0451
39.0436
39.042
39.0404
39.0389
39.0373
39.0357
39.0342
39.0326
39.0311
39.0295
39.0279
39.0264
39.0248
39.0232
39.0217
39.0201
39.0186
39.017
39.0154
39.0139
39.0123
39.0108
39.0092
39.0076
39.0061
39.0045
39.003
39.0014
38.9998
38.9983
38.9967
38.9952
38.9936
38.992
38.9905
38.9889
38.9874
38.9858
38.9842
38.9827
38.9811
38.9796
38.978
38.9765
38.9749
38.9733
38.9718
38.9702
38.9687
38.9671
38.9656
38.964
38.9624
38.9609
38.9593
38.9578
38.9562
38.9547
38.9531
38.9515
38.95
38.9484
38.9469
38.9453
38.9438
38.9422
38.9406
38.9391
38.9375
38.936
38.9344
38.9329
38.9313
38.9298
38.9282
38.9266
38.9251
38.9235
38.922
38.9204
38.9189
38.9173
38.9158
38.9142
38.9126
38.9111
38.9095
38.908
38.9064
38.9049
38.9033
38.9018
38.9002
38.8986
38.8971
38.8955
38.894
38.8924
38.8909
38.8893
38.8878
38.8862
38.8847
38.8831
38.8815
38.88
38.8784
38.8769
38.8753
38.8738
38.8722
38.8707
38.8691
38.8676
38.866
38.8644
38.8629
38.8613
38.8598
38.8582
38.8567
38.8551
38.8536
38.852
38.8505
38.8489
38.8474
38.8458
38.8442
38.8427
38.8411
38.8396
38.838
38.8365
38.8349
38.8334
38.8318
38.8303
38.8287
38.8272
38.8256
38.8241
38.8225
38.8209
38.8194
38.8178
38.8163
38.8147
38.8132
38.8116
38.8101
38.8085
38.807
38.8054
38.8039
38.8023
38.8008
38.7992
38.7977
38.7961
38.7945
38.793
38.7914
38.7899
38.7883
38.7868
38.7852
38.7837
38.7821
38.7806
38.779
38.7775
38.7759
38.7744
38.7728
38.7713
38.7697
38.7682
38.7666
38.7651
38.7635
38.7619
38.7604
38.7588
38.7573
38.7557
38.7542
38.7526
38.7511
38.7495
38.748
38.7464
38.7449
38.7433
38.7418
38.7402
38.7387
38.7371
38.7356
38.734
38.7325
38.7309
38.7294
38.7278
38.7263
38.7247
38.7232
38.7216
38.7201
38.7185
38.717
38.7154
38.7139
38.7123
38.7108
38.7092
38.7076
38.7061
38.7045
38.703
38.7014
38.6999
38.6983
38.6968
38.6952
38.6937
38.6921
38.6906
38.689
38.6875
38.6859
38.6844
38.6828
38.6813
38.6797
38.6782
38.6766
38.6751
38.6735
38.672
38.6704
38.6689
38.6673
38.6658
38.6642
38.6627
38.6611
38.6596
38.658
38.6565
38.6549
38.6534
38.6518
38.6503
38.6487
38.6472
38.6456
38.6441
38.6425
38.641
38.6394
38.6379
38.6364
38.6348
38.6348
42.0708
42.0708
40.5128
40.257
40.1915
40.1632
40.1463
40.1343
40.1248
40.1168
40.1097
40.1033
40.0974
40.0918
40.0864
40.0813
40.0763
40.0714
40.0667
40.0621
40.0575
40.0531
40.0487
40.0443
40.04
40.0358
40.0316
40.0275
40.0235
40.0195
40.0155
40.0116
40.0077
40.0038
40.0001
39.9963
39.9926
39.9889
39.9853
39.9817
39.9781
39.9746
39.9711
39.9676
39.9642
39.9608
39.9574
39.9541
39.9508
39.9475
39.9443
39.941
39.9378
39.9347
39.9315
39.9284
39.9253
39.9222
39.9192
39.9161
39.9131
39.9101
39.9072
39.9042
39.9013
39.8984
39.8955
39.8926
39.8897
39.8869
39.8841
39.8813
39.8785
39.8757
39.8729
39.8702
39.8675
39.8648
39.8621
39.8594
39.8567
39.854
39.8514
39.8488
39.8462
39.8436
39.841
39.8384
39.8358
39.8333
39.8307
39.8282
39.8257
39.8232
39.8207
39.8182
39.8157
39.8132
39.8108
39.8083
39.8059
39.8035
39.8011
39.7986
39.7962
39.7939
39.7915
39.7891
39.7868
39.7844
39.7821
39.7797
39.7774
39.7751
39.7728
39.7705
39.7682
39.7659
39.7636
39.7613
39.7591
39.7568
39.7546
39.7523
39.7501
39.7479
39.7456
39.7434
39.7412
39.739
39.7368
39.7346
39.7325
39.7303
39.7281
39.7259
39.7238
39.7216
39.7195
39.7174
39.7152
39.7131
39.711
39.7089
39.7068
39.7047
39.7026
39.7005
39.6984
39.6963
39.6942
39.6921
39.6901
39.688
39.686
39.6839
39.6819
39.6798
39.6778
39.6757
39.6737
39.6717
39.6697
39.6677
39.6656
39.6636
39.6616
39.6596
39.6577
39.6557
39.6537
39.6517
39.6497
39.6478
39.6458
39.6438
39.6419
39.6399
39.638
39.636
39.6341
39.6321
39.6302
39.6283
39.6263
39.6244
39.6225
39.6206
39.6186
39.6167
39.6148
39.6129
39.611
39.6091
39.6072
39.6053
39.6035
39.6016
39.5997
39.5978
39.5959
39.5941
39.5922
39.5903
39.5885
39.5866
39.5847
39.5829
39.581
39.5792
39.5773
39.5755
39.5737
39.5718
39.57
39.5682
39.5663
39.5645
39.5627
39.5608
39.559
39.5572
39.5554
39.5536
39.5518
39.55
39.5482
39.5464
39.5446
39.5428
39.541
39.5392
39.5374
39.5356
39.5338
39.532
39.5302
39.5285
39.5267
39.5249
39.5231
39.5214
39.5196
39.5178
39.5161
39.5143
39.5126
39.5108
39.509
39.5073
39.5055
39.5038
39.502
39.5003
39.4985
39.4968
39.495
39.4933
39.4916
39.4898
39.4881
39.4864
39.4846
39.4829
39.4812
39.4795
39.4777
39.476
39.4743
39.4726
39.4708
39.4691
39.4674
39.4657
39.464
39.4623
39.4606
39.4589
39.4572
39.4555
39.4537
39.452
39.4503
39.4486
39.447
39.4453
39.4436
39.4419
39.4402
39.4385
39.4368
39.4351
39.4334
39.4317
39.43
39.4284
39.4267
39.425
39.4233
39.4216
39.42
39.4183
39.4166
39.4149
39.4133
39.4116
39.4099
39.4083
39.4066
39.4049
39.4033
39.4016
39.3999
39.3983
39.3966
39.3949
39.3933
39.3916
39.39
39.3883
39.3867
39.385
39.3834
39.3817
39.3801
39.3784
39.3768
39.3751
39.3735
39.3718
39.3702
39.3685
39.3669
39.3652
39.3636
39.3619
39.3603
39.3587
39.357
39.3554
39.3537
39.3521
39.3505
39.3488
39.3472
39.3456
39.3439
39.3423
39.3407
39.339
39.3374
39.3358
39.3342
39.3325
39.3309
39.3293
39.3276
39.326
39.3244
39.3228
39.3212
39.3195
39.3179
39.3163
39.3147
39.313
39.3114
39.3098
39.3082
39.3066
39.305
39.3033
39.3017
39.3001
39.2985
39.2969
39.2953
39.2937
39.292
39.2904
39.2888
39.2872
39.2856
39.284
39.2824
39.2808
39.2792
39.2776
39.276
39.2744
39.2727
39.2711
39.2695
39.2679
39.2663
39.2647
39.2631
39.2615
39.2599
39.2583
39.2567
39.2551
39.2535
39.2519
39.2503
39.2487
39.2471
39.2455
39.2439
39.2423
39.2407
39.2391
39.2375
39.2359
39.2344
39.2328
39.2312
39.2296
39.228
39.2264
39.2248
39.2232
39.2216
39.22
39.2184
39.2168
39.2152
39.2137
39.2121
39.2105
39.2089
39.2073
39.2057
39.2041
39.2025
39.2009
39.1994
39.1978
39.1962
39.1946
39.193
39.1914
39.1898
39.1883
39.1867
39.1851
39.1835
39.1819
39.1803
39.1788
39.1772
39.1756
39.174
39.1724
39.1709
39.1693
39.1677
39.1661
39.1645
39.163
39.1614
39.1598
39.1582
39.1566
39.1551
39.1535
39.1519
39.1503
39.1487
39.1472
39.1456
39.144
39.1424
39.1409
39.1393
39.1377
39.1361
39.1346
39.133
39.1314
39.1298
39.1283
39.1267
39.1251
39.1235
39.122
39.1204
39.1188
39.1172
39.1157
39.1141
39.1125
39.111
39.1094
39.1078
39.1062
39.1047
39.1031
39.1015
39.1
39.0984
39.0968
39.0953
39.0937
39.0921
39.0905
39.089
39.0874
39.0858
39.0843
39.0827
39.0811
39.0796
39.078
39.0764
39.0749
39.0733
39.0717
39.0702
39.0686
39.067
39.0655
39.0639
39.0623
39.0608
39.0592
39.0576
39.0561
39.0545
39.0529
39.0514
39.0498
39.0483
39.0467
39.0451
39.0436
39.042
39.0404
39.0389
39.0373
39.0357
39.0342
39.0326
39.0311
39.0295
39.0279
39.0264
39.0248
39.0233
39.0217
39.0201
39.0186
39.017
39.0154
39.0139
39.0123
39.0108
39.0092
39.0076
39.0061
39.0045
39.003
39.0014
38.9998
38.9983
38.9967
38.9952
38.9936
38.992
38.9905
38.9889
38.9874
38.9858
38.9843
38.9827
38.9811
38.9796
38.978
38.9765
38.9749
38.9733
38.9718
38.9702
38.9687
38.9671
38.9656
38.964
38.9624
38.9609
38.9593
38.9578
38.9562
38.9547
38.9531
38.9515
38.95
38.9484
38.9469
38.9453
38.9438
38.9422
38.9407
38.9391
38.9375
38.936
38.9344
38.9329
38.9313
38.9298
38.9282
38.9266
38.9251
38.9235
38.922
38.9204
38.9189
38.9173
38.9158
38.9142
38.9126
38.9111
38.9095
38.908
38.9064
38.9049
38.9033
38.9018
38.9002
38.8987
38.8971
38.8955
38.894
38.8924
38.8909
38.8893
38.8878
38.8862
38.8847
38.8831
38.8815
38.88
38.8784
38.8769
38.8753
38.8738
38.8722
38.8707
38.8691
38.8676
38.866
38.8645
38.8629
38.8613
38.8598
38.8582
38.8567
38.8551
38.8536
38.852
38.8505
38.8489
38.8474
38.8458
38.8443
38.8427
38.8411
38.8396
38.838
38.8365
38.8349
38.8334
38.8318
38.8303
38.8287
38.8272
38.8256
38.8241
38.8225
38.821
38.8194
38.8178
38.8163
38.8147
38.8132
38.8116
38.8101
38.8085
38.807
38.8054
38.8039
38.8023
38.8008
38.7992
38.7977
38.7961
38.7946
38.793
38.7914
38.7899
38.7883
38.7868
38.7852
38.7837
38.7821
38.7806
38.779
38.7775
38.7759
38.7744
38.7728
38.7713
38.7697
38.7682
38.7666
38.7651
38.7635
38.762
38.7604
38.7588
38.7573
38.7557
38.7542
38.7526
38.7511
38.7495
38.748
38.7464
38.7449
38.7433
38.7418
38.7402
38.7387
38.7371
38.7356
38.734
38.7325
38.7309
38.7294
38.7278
38.7263
38.7247
38.7232
38.7216
38.7201
38.7185
38.717
38.7154
38.7139
38.7123
38.7108
38.7092
38.7077
38.7061
38.7046
38.703
38.7015
38.6999
38.6983
38.6968
38.6952
38.6937
38.6921
38.6906
38.689
38.6875
38.6859
38.6844
38.6828
38.6813
38.6797
38.6782
38.6766
38.6751
38.6735
38.672
38.6704
38.6689
38.6673
38.6658
38.6642
38.6627
38.6611
38.6596
38.658
38.6565
38.6549
38.6534
38.6518
38.6503
38.6487
38.6472
38.6456
38.6441
38.6425
38.641
38.6395
38.6379
38.6364
38.6348
38.6348
41.3813
41.3813
40.497
40.2637
40.1952
40.1653
40.1476
40.1352
40.1255
40.1173
40.1102
40.1037
40.0977
40.092
40.0866
40.0815
40.0765
40.0716
40.0668
40.0622
40.0576
40.0531
40.0487
40.0444
40.0401
40.0359
40.0317
40.0276
40.0235
40.0195
40.0155
40.0116
40.0077
40.0039
40.0001
39.9963
39.9926
39.989
39.9853
39.9817
39.9782
39.9746
39.9711
39.9677
39.9642
39.9608
39.9575
39.9541
39.9508
39.9475
39.9443
39.9411
39.9379
39.9347
39.9315
39.9284
39.9253
39.9222
39.9192
39.9161
39.9131
39.9101
39.9072
39.9042
39.9013
39.8984
39.8955
39.8926
39.8897
39.8869
39.8841
39.8813
39.8785
39.8757
39.8729
39.8702
39.8675
39.8648
39.8621
39.8594
39.8567
39.8541
39.8514
39.8488
39.8462
39.8436
39.841
39.8384
39.8358
39.8333
39.8307
39.8282
39.8257
39.8232
39.8207
39.8182
39.8157
39.8132
39.8108
39.8083
39.8059
39.8035
39.8011
39.7987
39.7963
39.7939
39.7915
39.7891
39.7868
39.7844
39.7821
39.7797
39.7774
39.7751
39.7728
39.7705
39.7682
39.7659
39.7636
39.7613
39.7591
39.7568
39.7546
39.7523
39.7501
39.7479
39.7456
39.7434
39.7412
39.739