# vtk DataFile Version 2.0
FlowField
ASCII
DATASET STRUCTURED_GRID
DIMENSIONS 800 1 200
POINTS 160000 float
0 0 0
0.04 0 0
0.08 0 0
0.12 0 0
0.16 0 0
0.2 0 0
0.24 0 0
0.28 0 0
0.32 0 0
0.36 0 0
0.4 0 0
0.44 0 0
0.48 0 0
0.52 0 0
0.56 0 0
0.6 0 0
0.64 0 0
0.68 0 0
0.72 0 0
0.76 0 0
0.8 0 0
0.84 0 0
0.88 0 0
0.92 0 0
0.96 0 0
1 0 0
1.04 0 0
1.08 0 0
1.12 0 0
1.16 0 0
1.2 0 0
1.24 0 0
1.28 0 0
1.32 0 0
1.36 0 0
1.4 0 0
1.44 0 0
1.48 0 0
1.52 0 0
1.56 0 0
1.6 0 0
1.64 0 0
1.68 0 0
1.72 0 0
1.76 0 0
1.8 0 0
1.84 0 0
1.88 0 0
1.92 0 0
1.96 0 0
2 0 0
2.04 0 0
2.08 0 0
2.12 0 0
2.16 0 0
2.2 0 0
2.24 0 0
2.28 0 0
2.32 0 0
2.36 0 0
2.4 0 0
2.44 0 0
2.48 0 0
2.52 0 0
2.56 0 0
2.6 0 0
2.64 0 0
2.68 0 0
2.72 0 0
2.76 0 0
2.8 0 0
2.84 0 0
2.88 0 0
2.92 0 0
2.96 0 0
3 0 0
3.04 0 0
3.08 0 0
3.12 0 0
3.16 0 0
3.2 0 0
3.24 0 0
3.28 0 0
3.32 0 0
3.36 0 0
3.4 0 0
3.44 0 0
3.48 0 0
3.52 0 0
3.56 0 0
3.6 0 0
3.64 0 0
3.68 0 0
3.72 0 0
3.76 0 0
3.8 0 0
3.84 0 0
3.88 0 0
3.92 0 0
3.96 0 0
4 0 0
4.04 0 0
4.08 0 0
4.12 0 0
4.16 0 0
4.2 0 0
4.24 0 0
4.28 0 0
4.32 0 0
4.36 0 0
4.4 0 0
4.44 0 0
4.48 0 0
4.52 0 0
4.56 0 0
4.6 0 0
4.64 0 0
4.68 0 0
4.72 0 0
4.76 0 0
4.8 0 0
4.84 0 0
4.88 0 0
4.92 0 0
4.96 0 0
5 0 0
5.04 0 0
5.08 0 0
5.12 0 0
5.16 0 0
5.2 0 0
5.24 0 0
5.28 0 0
5.32 0 0
5.36 0 0
5.4 0 0
5.44 0 0
5.48 0 0
5.52 0 0
5.56 0 0
5.6 0 0
5.64 0 0
5.68 0 0
5.72 0 0
5.76 0 0
5.8 0 0
5.84 0 0
5.88 0 0
5.92 0 0
5.96 0 0
6 0 0
6.04 0 0
6.08 0 0
6.12 0 0
6.16 0 0
6.2 0 0
6.24 0 0
6.28 0 0
6.32 0 0
6.36 0 0
6.4 0 0
6.44 0 0
6.48 0 0
6.52 0 0
6.56 0 0
6.6 0 0
6.64 0 0
6.68 0 0
6.72 0 0
6.76 0 0
6.8 0 0
6.84 0 0
6.88 0 0
6.92 0 0
6.96 0 0
7 0 0
7.04 0 0
7.08 0 0
7.12 0 0
7.16 0 0
7.2 0 0
7.24 0 0
7.28 0 0
7.32 0 0
7.36 0 0
7.4 0 0
7.44 0 0
7.48 0 0
7.52 0 0
7.56 0 0
7.6 0 0
7.64 0 0
7.68 0 0
7.72 0 0
7.76 0 0
7.8 0 0
7.84 0 0
7.88 0 0
7.92 0 0
7.96 0 0
8 0 0
8.04 0 0
8.08 0 0
8.12 0 0
8.16 0 0
8.2 0 0
8.24 0 0
8.28 0 0
8.32 0 0
8.36 0 0
8.4 0 0
8.44 0 0
8.48 0 0
8.52 0 0
8.56 0 0
8.6 0 0
8.64 0 0
8.68 0 0
8.72 0 0
8.76 0 0
8.8 0 0
8.84 0 0
8.88 0 0
8.92 0 0
8.96 0 0
9 0 0
9.04 0 0
9.08 0 0
9.12 0 0
9.16 0 0
9.2 0 0
9.24 0 0
9.28 0 0
9.32 0 0
9.36 0 0
9.4 0 0
9.44 0 0
9.48 0 0
9.52 0 0
9.56 0 0
9.6 0 0
9.64 0 0
9.68 0 0
9.72 0 0
9.76 0 0
9.8 0 0
9.84 0 0
9.88 0 0
9.92 0 0
9.96 0 0
10 0 0
10.04 0 0
10.08 0 0
10.12 0 0
10.16 0 0
10.2 0 0
10.24 0 0
10.28 0 0
10.32 0 0
10.36 0 0
10.4 0 0
10.44 0 0
10.48 0 0
10.52 0 0
10.56 0 0
10.6 0 0
10.64 0 0
10.68 0 0
10.72 0 0
10.76 0 0
10.8 0 0
10.84 0 0
10.88 0 0
10.92 0 0
10.96 0 0
11 0 0
11.04 0 0
11.08 0 0
11.12 0 0
11.16 0 0
11.2 0 0
11.24 0 0
11.28 0 0
11.32 0 0
11.36 0 0
11.4 0 0
11.44 0 0
11.48 0 0
11.52 0 0
11.56 0 0
11.6 0 0
11.64 0 0
11.68 0 0
11.72 0 0
11.76 0 0
11.8 0 0
11.84 0 0
11.88 0 0
11.92 0 0
11.96 0 0
12 0 0
12.04 0 0
12.08 0 0
12.12 0 0
12.16 0 0
12.2 0 0
12.24 0 0
12.28 0 0
12.32 0 0
12.36 0 0
12.4 0 0
12.44 0 0
12.48 0 0
12.52 0 0
12.56 0 0
12.6 0 0
12.64 0 0
12.68 0 0
12.72 0 0
12.76 0 0
12.8 0 0
12.84 0 0
12.88 0 0
12.92 0 0
12.96 0 0
13 0 0
13.04 0 0
13.08 0 0
13.12 0 0
13.16 0 0
13.2 0 0
13.24 0 0
13.28 0 0
13.32 0 0
13.36 0 0
13.4 0 0
13.44 0 0
13.48 0 0
13.52 0 0
13.56 0 0
13.6 0 0
13.64 0 0
13.68 0 0
13.72 0 0
13.76 0 0
13.8 0 0
13.84 0 0
13.88 0 0
13.92 0 0
13.96 0 0
14 0 0
14.04 0 0
14.08 0 0
14.12 0 0
14.16 0 0
14.2 0 0
14.24 0 0
14.28 0 0
14.32 0 0
14.36 0 0
14.4 0 0
14.44 0 0
14.48 0 0
14.52 0 0
14.56 0 0
14.6 0 0
14.64 0 0
14.68 0 0
14.72 0 0
14.76 0 0
14.8 0 0
14.84 0 0
14.88 0 0
14.92 0 0
14.96 0 0
15 0 0
15.04 0 0
15.08 0 0
15.12 0 0
15.16 0 0
15.2 0 0
15.24 0 0
15.28 0 0
15.32 0 0
15.36 0 0
15.4 0 0
15.44 0 0
15.48 0 0
15.52 0 0
15.56 0 0
15.6 0 0
15.64 0 0
15.68 0 0
15.72 0 0
15.76 0 0
15.8 0 0
15.84 0 0
15.88 0 0
15.92 0 0
15.96 0 0
16 0 0
16.04 0 0
16.08 0 0
16.12 0 0
16.16 0 0
16.2 0 0
16.24 0 0
16.28 0 0
16.32 0 0
16.36 0 0
16.4 0 0
16.44 0 0
16.48 0 0
16.52 0 0
16.56 0 0
16.6 0 0
16.64 0 0
16.68 0 0
16.72 0 0
16.76 0 0
16.8 0 0
16.84 0 0
16.88 0 0
16.92 0 0
16.96 0 0
17 0 0
17.04 0 0
17.08 0 0
17.12 0 0
17.16 0 0
17.2 0 0
17.24 0 0
17.28 0 0
17.32 0 0
17.36 0 0
17.4 0 0
17.44 0 0
17.48 0 0
17.52 0 0
17.56 0 0
17.6 0 0
17.64 0 0
17.68 0 0
17.72 0 0
17.76 0 0
17.8 0 0
17.84 0 0
17.88 0 0
17.92 0 0
17.96 0 0
18 0 0
18.04 0 0
18.08 0 0
18.12 0 0
18.16 0 0
18.2 0 0
18.24 0 0
18.28 0 0
18.32 0 0
18.36 0 0
18.4 0 0
18.44 0 0
18.48 0 0
18.52 0 0
18.56 0 0
18.6 0 0
18.64 0 0
18.68 0 0
18.72 0 0
18.76 0 0
18.8 0 0
18.84 0 0
18.88 0 0
18.92 0 0
18.96 0 0
19 0 0
19.04 0 0
19.08 0 0
19.12 0 0
19.16 0 0
19.2 0 0
19.24 0 0
19.28 0 0
19.32 0 0
19.36 0 0
19.4 0 0
19.44 0 0
19.48 0 0
19.52 0 0
19.56 0 0
19.6 0 0
19.64 0 0
19.68 0 0
19.72 0 0
19.76 0 0
19.8 0 0
19.84 0 0
19.88 0 0
19.92 0 0
19.96 0 0
20 0 0
20.04 0 0
20.08 0 0
20.12 0 0
20.16 0 0
20.2 0 0
20.24 0 0
20.28 0 0
20.32 0 0
20.36 0 0
20.4 0 0
20.44 0 0
20.48 0 0
20.52 0 0
20.56 0 0
20.6 0 0
20.64 0 0
20.68 0 0
20.72 0 0
20.76 0 0
20.8 0 0
20.84 0 0
20.88 0 0
20.92 0 0
20.96 0 0
21 0 0
21.04 0 0
21.08 0 0
21.12 0 0
21.16 0 0
21.2 0 0
21.24 0 0
21.28 0 0
21.32 0 0
21.36 0 0
21.4 0 0
21.44 0 0
21.48 0 0
21.52 0 0
21.56 0 0
21.6 0 0
21.64 0 0
21.68 0 0
21.72 0 0
21.76 0 0
21.8 0 0
21.84 0 0
21.88 0 0
21.92 0 0
21.96 0 0
22 0 0
22.04 0 0
22.08 0 0
22.12 0 0
22.16 0 0
22.2 0 0
22.24 0 0
22.28 0 0
22.32 0 0
22.36 0 0
22.4 0 0
22.44 0 0
22.48 0 0
22.52 0 0
22.56 0 0
22.6 0 0
22.64 0 0
22.68 0 0
22.72 0 0
22.76 0 0
22.8 0 0
22.84 0 0
22.88 0 0
22.92 0 0
22.96 0 0
23 0 0
23.04 0 0
23.08 0 0
23.12 0 0
23.16 0 0
23.2 0 0
23.24 0 0
23.28 0 0
23.32 0 0
23.36 0 0
23.4 0 0
23.44 0 0
23.48 0 0
23.52 0 0
23.56 0 0
23.6 0 0
23.64 0 0
23.68 0 0
23.72 0 0
23.76 0 0
23.8 0 0
23.84 0 0
23.88 0 0
23.92 0 0
23.96 0 0
24 0 0
24.04 0 0
24.08 0 0
24.12 0 0
24.16 0 0
24.2 0 0
24.24 0 0
24.28 0 0
24.32 0 0
24.36 0 0
24.4 0 0
24.44 0 0
24.48 0 0
24.52 0 0
24.56 0 0
24.6 0 0
24.64 0 0
24.68 0 0
24.72 0 0
24.76 0 0
24.8 0 0
24.84 0 0
24.88 0 0
24.92 0 0
24.96 0 0
25 0 0
25.04 0 0
25.08 0 0
25.12 0 0
25.16 0 0
25.2 0 0
25.24 0 0
25.28 0 0
25.32 0 0
25.36 0 0
25.4 0 0
25.44 0 0
25.48 0 0
25.52 0 0
25.56 0 0
25.6 0 0
25.64 0 0
25.68 0 0
25.72 0 0
25.76 0 0
25.8 0 0
25.84 0 0
25.88 0 0
25.92 0 0
25.96 0 0
26 0 0
26.04 0 0
26.08 0 0
26.12 0 0
26.16 0 0
26.2 0 0
26.24 0 0
26.28 0 0
26.32 0 0
26.36 0 0
26.4 0 0
26.44 0 0
26.48 0 0
26.52 0 0
26.56 0 0
26.6 0 0
26.64 0 0
26.68 0 0
26.72 0 0
26.76 0 0
26.8 0 0
26.84 0 0
26.88 0 0
26.92 0 0
26.96 0 0
27 0 0
27.04 0 0
27.08 0 0
27.12 0 0
27.16 0 0
27.2 0 0
27.24 0 0
27.28 0 0
27.32 0 0
27.36 0 0
27.4 0 0
27.44 0 0
27.48 0 0
27.52 0 0
27.56 0 0
27.6 0 0
27.64 0 0
27.68 0 0
27.72 0 0
27.76 0 0
27.8 0 0
27.84 0 0
27.88 0 0
27.92 0 0
27.96 0 0
28 0 0
28.04 0 0
28.08 0 0
28.12 0 0
28.16 0 0
28.2 0 0
28.24 0 0
28.28 0 0
28.32 0 0
28.36 0 0
28.4 0 0
28.44 0 0
28.48 0 0
28.52 0 0
28.56 0 0
28.6 0 0
28.64 0 0
28.68 0 0
28.72 0 0
28.76 0 0
28.8 0 0
28.84 0 0
28.88 0 0
28.92 0 0
28.96 0 0
29 0 0
29.04 0 0
29.08 0 0
29.12 0 0
29.16 0 0
29.2 0 0
29.24 0 0
29.28 0 0
29.32 0 0
29.36 0 0
29.4 0 0
29.44 0 0
29.48 0 0
29.52 0 0
29.56 0 0
29.6 0 0
29.64 0 0
29.68 0 0
29.72 0 0
29.76 0 0
29.8 0 0
29.84 0 0
29.88 0 0
29.92 0 0
29.96 0 0
30 0 0
30.04 0 0
30.08 0 0
30.12 0 0
30.16 0 0
30.2 0 0
30.24 0 0
30.28 0 0
30.32 0 0
30.36 0 0
30.4 0 0
30.44 0 0
30.48 0 0
30.52 0 0
30.56 0 0
30.6 0 0
30.64 0 0
30.68 0 0
30.72 0 0
30.76 0 0
30.8 0 0
30.84 0 0
30.88 0 0
30.92 0 0
30.96 0 0
31 0 0
31.04 0 0
31.08 0 0
31.12 0 0
31.16 0 0
31.2 0 0
31.24 0 0
31.28 0 0
31.32 0 0
31.36 0 0
31.4 0 0
31.44 0 0
31.48 0 0
31.52 0 0
31.56 0 0
31.6 0 0
31.64 0 0
31.68 0 0
31.72 0 0
31.76 0 0
31.8 0 0
31.84 0 0
31.88 0 0
31.92 0 0
31.96 0 0
0 0.005 0
0.04 0.005 0
0.08 0.005 0
0.12 0.005 0
0.16 0.005 0
0.2 0.005 0
0.24 0.005 0
0.28 0.005 0
0.32 0.005 0
0.36 0.005 0
0.4 0.005 0
0.44 0.005 0
0.48 0.005 0
0.52 0.005 0
0.56 0.005 0
0.6 0.005 0
0.64 0.005 0
0.68 0.005 0
0.72 0.005 0
0.76 0.005 0
0.8 0.005 0
0.84 0.005 0
0.88 0.005 0
0.92 0.005 0
0.96 0.005 0
1 0.005 0
1.04 0.005 0
1.08 0.005 0
1.12 0.005 0
1.16 0.005 0
1.2 0.005 0
1.24 0.005 0
1.28 0.005 0
1.32 0.005 0
1.36 0.005 0
1.4 0.005 0
1.44 0.005 0
1.48 0.005 0
1.52 0.005 0
1.56 0.005 0
1.6 0.005 0
1.64 0.005 0
1.68 0.005 0
1.72 0.005 0
1.76 0.005 0
1.8 0.005 0
1.84 0.005 0
1.88 0.005 0
1.92 0.005 0
1.96 0.005 0
2 0.005 0
2.04 0.005 0
2.08 0.005 0
2.12 0.005 0
2.16 0.005 0
2.2 0.005 0
2.24 0.005 0
2.28 0.005 0
2.32 0.005 0
2.36 0.005 0
2.4 0.005 0
2.44 0.005 0
2.48 0.005 0
2.52 0.005 0
2.56 0.005 0
2.6 0.005 0
2.64 0.005 0
2.68 0.005 0
2.72 0.005 0
2.76 0.005 0
2.8 0.005 0
2.84 0.005 0
2.88 0.005 0
2.92 0.005 0
2.96 0.005 0
3 0.005 0
3.04 0.005 0
3.08 0.005 0
3.12 0.005 0
3.16 0.005 0
3.2 0.005 0
3.24 0.005 0
3.28 0.005 0
3.32 0.005 0
3.36 0.005 0
3.4 0.005 0
3.44 0.005 0
3.48 0.005 0
3.52 0.005 0
3.56 0.005 0
3.6 0.005 0
3.64 0.005 0
3.68 0.005 0
3.72 0.005 0
3.76 0.005 0
3.8 0.005 0
3.84 0.005 0
3.88 0.005 0
3.92 0.005 0
3.96 0.005 0
4 0.005 0
4.04 0.005 0
4.08 0.005 0
4.12 0.005 0
4.16 0.005 0
4.2 0.005 0
4.24 0.005 0
4.28 0.005 0
4.32 0.005 0
4.36 0.005 0
4.4 0.005 0
4.44 0.005 0
4.48 0.005 0
4.52 0.005 0
4.56 0.005 0
4.6 0.005 0
4.64 0.005 0
4.68 0.005 0
4.72 0.005 0
4.76 0.005 0
4.8 0.005 0
4.84 0.005 0
4.88 0.005 0
4.92 0.005 0
4.96 0.005 0
5 0.005 0
5.04 0.005 0
5.08 0.005 0
5.12 0.005 0
5.16 0.005 0
5.2 0.005 0
5.24 0.005 0
5.28 0.005 0
5.32 0.005 0
5.36 0.005 0
5.4 0.005 0
5.44 0.005 0
5.48 0.005 0
5.52 0.005 0
5.56 0.005 0
5.6 0.005 0
5.64 0.005 0
5.68 0.005 0
5.72 0.005 0
5.76 0.005 0
5.8 0.005 0
5.84 0.005 0
5.88 0.005 0
5.92 0.005 0
5.96 0.005 0
6 0.005 0
6.04 0.005 0
6.08 0.005 0
6.12 0.005 0
6.16 0.005 0
6.2 0.005 0
6.24 0.005 0
6.28 0.005 0
6.32 0.005 0
6.36 0.005 0
6.4 0.005 0
6.44 0.005 0
6.48 0.005 0
6.52 0.005 0
6.56 0.005 0
6.6 0.005 0
6.64 0.005 0
6.68 0.005 0
6.72 0.005 0
6.76 0.005 0
6.8 0.005 0
6.84 0.005 0
6.88 0.005 0
6.92 0.005 0
6.96 0.005 0
7 0.005 0
7.04 0.005 0
7.08 0.005 0
7.12 0.005 0
7.16 0.005 0
7.2 0.005 0
7.24 0.005 0
7.28 0.005 0
7.32 0.005 0
7.36 0.005 0
7.4 0.005 0
[...]
POINT_DATA 160000

SCALARS v float 1
LOOKUP_TABLE default
0
0
0
0
0
0
0
0
0
0
0
0
0
0
0
0
0
0
0
0
0
0
0
0
0
0
0
0
0
0
0
0
0
0
0
0
0
0
0
0
0
0
0
0
0
0
0
0
0
0
0
0
0
0
0
0
0
0
0
0
0
0
0
0
0
0
0
0
0
0
0
0
0
0
0
0
0
0
0
0
0
0
0
0
0
0
0
0
0
0
0
0
0
0
0
0
0
0
0
0
0
0
0
0
0
0
0
0
0
0
0
0
0
0
0
0
0
0
0
0
0
0
0
0
0
0
0
0
0
0
0
0
0
0
0
0
0
0
0
0
0
0
0
0
0
0
0
0
0
0
0
0
0
0
0
0
0
0
0
0
0
0
0
0
0
0
0
0
0
0
0
0
0
0
0
0
0
0
0
0
0
0
0
0
0
0
0
0
0
0
0
0
0
0
0
0
0
0
0
0
0
0
0
0
0
0
0
0
0
0
0
0
0
0
0
0
0
0
0
0
0
0
0
0
0
0
0
0
0
0
0
0
0
0
0
0
0
0
0
0
0
0
0
0
0
0
0
0
0
0
0
0
0
0
0
0
0
0
0
0
0
0
0
0
0
0
0
0
0
0
0
0
0
0
0
0
0
0
0
0
0
0
0
0
0
0
0
0
0
0
0
0
0
0
0
0
0
0
0
0
0
0
0
0
0
0
0
0
0
0
0
0
0
0
0
0
0
0
0
0
0
0
0
0
0
0
0
0
0
0
0
0
0
0
0
0
0
0
0
0
0
0
0
0
0
0
0
0
0
0
0
0
0
0
0
0
0
0
0
0
0
0
0
0
0
0
0
0
0
0
0
0
0
0
0
0
0
0
0
0
0
0
0
0
0
0
0
0
0
0
0
0
0
0
0
0
0
0
0
0
0
0
0
0
0
0
0
0
0
0
0
0
0
0
0
0
0
0
0
0
0
0
0
0
0
0
0
0
0
0
0
0
0
0
0
0
0
0
0
0
0
0
0
0
0
0
0
0
0
0
0
0
0
0
0
0
0
0
0
0
0
0
0
0
0
0
0
0
0
0
0
0
0
0
0
0
0
0
0
0
0
0
0
0
0
0
0
0
0
0
0
0
0
0
0
0
0
0
0
0
0
0
0
0
0
0
0
0
0
0
0
0
0
0
0
0
0
0
0
0
0
0
0
0
0
0
0
0
0
0
0
0
0
0
0
0
0
0
0
0
0
0
0
0
0
0
0
0
0
0
0
0
0
0
0
0
0
0
0
0
0
0
0
0
0
0
0
0
0
0
0
0
0
0
0
0
0
0
0
0
0
0
0
0
0
0
0
0
0
0
0
0
0
0
0
0
0
0
0
0
0
0
0
0
0
0
0
0
0
0
0
0
0
0
0
0
0
0
0
0
0
0
0
0
0
0
0
0
0
0
0
0
0
0
0
0
0
0
0
0
0
0
0
0
0
0
0
0
0
0
0
0
0
0
0
0
0
0
0
0
0
0
0
0
0
0
0
0
0
0
0
0
0
0
0
0
0
0
0
0
0
0
0
0
0
0
0
0
0
0
0
0
0
0
0
0
0
0
0
0
0
0
0
0
0
0
0
0
0
0
0
0
0
0
0
0
0
0
0
0
0
0
0
0
0
0
0
0
0
0
0
0
0
0
0
0
0
0
0
0
0
0
0
0
0
0
0
0
0
0
0
0
0
0
0
0
0
0
0
0
0
0
0
0
0
0
0
0
0
0
0
0
0
0
0
0
0
0
0
0
0
0
0
0
0
0
0
0
0
0
0
0
0
0
0
0
0
0
0
0
0
0
0.0374158
0.00938113
0.00346796
0.00176635
0.00108087
0.000737107
0.00053833
0.000411785
0.000325586
0.000263898
0.000218077
0.000183046
0.000155645
0.000133809
0.000116136
0.000101645
8.9626e-05
7.95581e-05
7.10483e-05
6.37964e-05
5.75697e-05
5.21855e-05
4.74991e-05
4.33945e-05
3.97782e-05
3.65741e-05
3.37203e-05
3.11654e-05
2.88673e-05
2.67907e-05
2.49064e-05
2.31895e-05
2.16193e-05
2.01782e-05
1.88511e-05
1.76254e-05
1.64899e-05
1.54352e-05
1.4453e-05
1.35364e-05
1.26789e-05
1.18753e-05
1.11206e-05
1.04106e-05
9.7417e-06
9.11041e-06
8.51378e-06
7.94915e-06
7.41411e-06
6.9065e-06
6.42437e-06
5.96593e-06
5.52959e-06
5.11386e-06
4.7174e-06
4.33898e-06
3.97748e-06
3.63185e-06
3.30115e-06
2.98449e-06
2.68104e-06
2.39005e-06
2.11083e-06
1.84274e-06
1.58516e-06
1.33753e-06
1.09932e-06
8.7005e-07
6.49254e-07
4.36503e-07
2.31402e-07
3.35775e-08
-1.57327e-07
-3.41644e-07
-5.19685e-07
-6.9174e-07
-8.58082e-07
-1.01897e-06
-1.17466e-06
-1.32537e-06
-1.47132e-06
-1.61271e-06
-1.74975e-06
-1.88263e-06
-2.0115e-06
-2.13654e-06
-2.25789e-06
-2.37572e-06
-2.49016e-06
-2.60136e-06
-2.70944e-06
-2.81452e-06
-2.91669e-06
-3.01608e-06
-3.1128e-06
-3.20695e-06
-3.29862e-06
-3.38789e-06
-3.47486e-06
-3.55961e-06
-3.64222e-06
-3.72277e-06
-3.80132e-06
-3.87795e-06
-3.95272e-06
-4.02568e-06
-4.09691e-06
-4.16645e-06
-4.23437e-06
-4.30073e-06
-4.36557e-06
-4.42893e-06
-4.49087e-06
-4.55144e-06
-4.61066e-06
-4.66858e-06
-4.72525e-06
-4.78071e-06
-4.835e-06
-4.88813e-06
-4.94016e-06
-4.99111e-06
-5.04101e-06
-5.0899e-06
-5.13781e-06
-5.18476e-06
-5.23077e-06
-5.27589e-06
-5.32012e-06
-5.3635e-06
-5.40605e-06
-5.44779e-06
-5.48875e-06
-5.52895e-06
-5.56841e-06
-5.60713e-06
-5.64514e-06
-5.68247e-06
-5.71914e-06
-5.75516e-06
-5.79054e-06
-5.8253e-06
-5.85945e-06
-5.89302e-06
-5.92602e-06
-5.95847e-06
-5.99036e-06
-6.02171e-06
-6.05255e-06
-6.08287e-06
-6.11271e-06
-6.14208e-06
-6.17097e-06
-6.19937e-06
-6.22734e-06
-6.25488e-06
-6.28199e-06
-6.30867e-06
-6.33494e-06
-6.36082e-06
-6.38629e-06
-6.41138e-06
-6.4361e-06
-6.46045e-06
-6.48443e-06
-6.50806e-06
-6.53136e-06
-6.55432e-06
-6.57695e-06
-6.59925e-06
-6.62123e-06
-6.64291e-06
-6.66427e-06
-6.68534e-06
-6.70611e-06
-6.72661e-06
-6.74682e-06
-6.76675e-06
-6.78642e-06
-6.80582e-06
-6.82496e-06
-6.84383e-06
-6.86246e-06
-6.88085e-06
-6.899e-06
-6.91691e-06
-6.93459e-06
-6.95204e-06
-6.96927e-06
-6.98627e-06
-7.00305e-06
-7.01963e-06
-7.036e-06
-7.05216e-06
-7.06812e-06
-7.08388e-06
-7.09944e-06
-7.11482e-06
-7.13001e-06
-7.14501e-06
-7.15981e-06
-7.17445e-06
-7.18892e-06
-7.20321e-06
-7.21732e-06
-7.23127e-06
-7.24505e-06
-7.25868e-06
-7.27214e-06
-7.28544e-06
-7.29859e-06
-7.31157e-06
-7.32441e-06
-7.3371e-06
-7.34965e-06
-7.36205e-06
-7.37432e-06
-7.38644e-06
-7.39841e-06
-7.41025e-06
-7.42196e-06
-7.43354e-06
-7.445e-06
-7.45632e-06
-7.4675e-06
-7.47857e-06
-7.48951e-06
-7.50033e-06
-7.51103e-06
-7.52161e-06
-7.53208e-06
-7.54244e-06
-7.55267e-06
-7.5628e-06
-7.57282e-06
-7.58273e-06
-7.59252e-06
-7.6022e-06
-7.61179e-06
-7.62128e-06
-7.63066e-06
-7.63994e-06
-7.64912e-06
-7.6582e-06
-7.66719e-06
-7.67608e-06
-7.68487e-06
-7.69356e-06
-7.70215e-06
-7.71067e-06
-7.71911e-06
-7.72745e-06
-7.73569e-06
-7.74384e-06
-7.75191e-06
-7.7599e-06
-7.76781e-06
-7.77563e-06
-7.78336e-06
-7.79102e-06
-7.7986e-06
-7.80611e-06
-7.81353e-06
-7.82087e-06
-7.82813e-06
-7.83533e-06
-7.84244e-06
-7.84948e-06
-7.85645e-06
-7.86335e-06
-7.87017e-06
-7.87692e-06
-7.88361e-06
-7.89022e-06
-7.89677e-06
-7.90325e-06
-7.90966e-06
-7.916e-06
-7.92229e-06
-7.9285e-06
-7.93465e-06
-7.94074e-06
-7.94677e-06
-7.95274e-06
-7.95864e-06
-7.96448e-06
-7.97026e-06
-7.97598e-06
-7.98165e-06
-7.98727e-06
-7.99282e-06
-7.99831e-06
-8.00375e-06
-8.00913e-06
-8.01446e-06
-8.01973e-06
-8.02495e-06
-8.03012e-06
-8.03524e-06
-8.0403e-06
-8.0453e-06
-8.05026e-06
-8.05517e-06
-8.06004e-06
-8.06485e-06
-8.06961e-06
-8.07432e-06
-8.07898e-06
-8.0836e-06
-8.08818e-06
-8.09271e-06
-8.09718e-06
-8.10162e-06
-8.10601e-06
-8.11035e-06
-8.11464e-06
-8.1189e-06
-8.12312e-06
-8.12729e-06
-8.13141e-06
-8.1355e-06
-8.13955e-06
-8.14355e-06
-8.14752e-06
-8.15144e-06
-8.15532e-06
-8.15917e-06
-8.16298e-06
-8.16675e-06
-8.17048e-06
-8.17417e-06
-8.17783e-06
-8.18144e-06
-8.18502e-06
-8.18857e-06
-8.19208e-06
-8.19555e-06
-8.19899e-06
-8.2024e-06
-8.20578e-06
-8.2091e-06
-8.2124e-06
-8.21567e-06
-8.21891e-06
-8.22212e-06
-8.22529e-06
-8.22843e-06
-8.23154e-06
-8.23461e-06
-8.23765e-06
-8.24067e-06
-8.24365e-06
-8.24661e-06
-8.24953e-06
-8.25243e-06
-8.2553e-06
-8.25814e-06
-8.26094e-06
-8.26372e-06
-8.26648e-06
-8.26919e-06
-8.27189e-06
-8.27456e-06
-8.27721e-06
-8.27982e-06
-8.2824e-06
-8.28497e-06
-8.28751e-06
-8.29003e-06
-8.29251e-06
-8.29497e-06
-8.2974e-06
-8.29981e-06
-8.30221e-06
-8.30457e-06
-8.30691e-06
-8.30923e-06
-8.31152e-06
-8.31379e-06
-8.31603e-06
-8.31825e-06
-8.32045e-06
-8.32264e-06
-8.3248e-06
-8.32693e-06
-8.32904e-06
-8.33114e-06
-8.33322e-06
-8.33528e-06
-8.3373e-06
-8.33931e-06
-8.3413e-06
-8.34327e-06
-8.34521e-06
-8.34713e-06
-8.34905e-06
-8.35095e-06
-8.35282e-06
-8.35467e-06
-8.3565e-06
-8.35832e-06
-8.36013e-06
-8.3619e-06
-8.36366e-06
-8.3654e-06
-8.36712e-06
-8.36883e-06
-8.37053e-06
-8.37221e-06
-8.37386e-06
-8.3755e-06
-8.37712e-06
-8.37872e-06
-8.38032e-06
-8.38191e-06
-8.38346e-06
-8.38499e-06
-8.38651e-06
-8.38803e-06
-8.38953e-06
-8.39101e-06
-8.39247e-06
-8.39393e-06
-8.39537e-06
-8.39679e-06
-8.3982e-06
-8.3996e-06
-8.40097e-06
-8.40234e-06
-8.4037e-06
-8.40504e-06
-8.40636e-06
-8.40767e-06
-8.40897e-06
-8.41026e-06
-8.41153e-06
-8.41279e-06
-8.41403e-06
-8.41526e-06
-8.41649e-06
-8.41771e-06
-8.4189e-06
-8.42008e-06
-8.42126e-06
-8.42242e-06
-8.42356e-06
-8.42469e-06
-8.42582e-06
-8.42693e-06
-8.42804e-06
-8.42913e-06
-8.43021e-06
-8.43128e-06
-8.43235e-06
-8.4334e-06
-8.43444e-06
-8.43546e-06
-8.43648e-06
-8.43748e-06
-8.43847e-06
-8.43946e-06
-8.44044e-06
-8.44141e-06
-8.44237e-06
-8.44331e-06
-8.44426e-06
-8.44518e-06
-8.4461e-06
-8.447e-06
-8.44791e-06
-8.44879e-06
-8.44967e-06
-8.45055e-06
-8.45141e-06
-8.45227e-06
-8.45312e-06
-8.45396e-06
-8.45478e-06
-8.45561e-06
-8.45642e-06
-8.45722e-06
-8.45801e-06
-8.4588e-06
-8.45958e-06
-8.46036e-06
-8.46113e-06
-8.46188e-06
-8.46262e-06
-8.46336e-06
-8.46409e-06
-8.46483e-06
-8.46555e-06
-8.46626e-06
-8.46696e-06
-8.46766e-06
-8.46835e-06
-8.46903e-06
-8.4697e-06
-8.47038e-06
-8.47104e-06
-8.47169e-06
-8.47234e-06
-8.47299e-06
-8.47363e-06
-8.47426e-06
-8.47487e-06
-8.47549e-06
-8.47611e-06
-8.47671e-06
-8.47731e-06
-8.4779e-06
-8.47848e-06
-8.47906e-06
-8.47964e-06
-8.48021e-06
-8.48077e-06
-8.48133e-06
-8.48189e-06
-8.48243e-06
-8.48296e-06
-8.4835e-06
-8.48403e-06
-8.48455e-06
-8.48507e-06
-8.48558e-06
-8.48609e-06
-8.48659e-06
-8.48709e-06
-8.48758e-06
-8.48807e-06
-8.48855e-06
-8.48903e-06
-8.4895e-06
-8.48997e-06
-8.49043e-06
-8.4909e-06
-8.49136e-06
-8.4918e-06
-8.49224e-06
-8.49269e-06
-8.49312e-06
-8.49355e-06
-8.49398e-06
-8.4944e-06
-8.49482e-06
-8.49523e-06
-8.49564e-06
-8.49604e-06
-8.49645e-06
-8.49685e-06
-8.49724e-06
-8.49763e-06
-8.49802e-06
-8.4984e-06
-8.49877e-06
-8.49914e-06
-8.49952e-06
-8.49988e-06
-8.50024e-06
-8.5006e-06
-8.50096e-06
-8.50131e-06
-8.50165e-06
-8.502e-06
-8.50234e-06
-8.50268e-06
-8.50302e-06
-8.50334e-06
-8.50367e-06
-8.50398e-06
-8.5043e-06
-8.50462e-06
-8.50494e-06
-8.50526e-06
-8.50557e-06
-8.50587e-06
-8.50617e-06
-8.50647e-06
-8.50677e-06
-8.50705e-06
-8.50734e-06
-8.50764e-06
-8.50792e-06
-8.50819e-06
-8.50847e-06
-8.50874e-06
-8.50901e-06
-8.50928e-06
-8.50955e-06
-8.50982e-06
-8.51008e-06
-8.51033e-06
-8.51059e-06
-8.51085e-06
-8.5111e-06
-8.51134e-06
-8.51159e-06
-8.51183e-06
-8.51207e-06
-8.51231e-06
-8.51254e-06
-8.51278e-06
-8.51302e-06
-8.51324e-06
-8.51346e-06
-8.51369e-06
-8.51392e-06
-8.51413e-06
-8.51435e-06
-8.51457e-06
-8.51478e-06
-8.51499e-06
-8.5152e-06
-8.5154e-06
-8.5156e-06
-8.51581e-06
-8.51601e-06
-8.51621e-06
-8.5164e-06
-8.5166e-06
-8.51679e-06
-8.51698e-06
-8.51717e-06
-8.51735e-06
-8.51753e-06
-8.51771e-06
-8.5179e-06
-8.51808e-06
-8.51826e-06
-8.51842e-06
-8.51859e-06
-8.51877e-06
-8.51894e-06
-8.51911e-06
-8.51928e-06
-8.51945e-06
-8.51961e-06
-8.51977e-06
-8.51992e-06
-8.52008e-06
-8.52024e-06
-8.52041e-06
-8.52056e-06
-8.52071e-06
-8.52086e-06
-8.52101e-06
-8.52115e-06
-8.52129e-06
-8.52144e-06
-8.52158e-06
-8.52171e-06
-8.52185e-06
-8.52198e-06
-8.52213e-06
-8.52226e-06
-8.5224e-06
-8.52253e-06
-8.52267e-06
-8.5228e-06
-8.52293e-06
-8.52305e-06
-8.52316e-06
-8.5233e-06
-8.52343e-06
-8.52355e-06
-8.52367e-06
-8.52379e-06
-8.52391e-06
-8.52403e-06
-8.52415e-06
-8.52426e-06
-8.52437e-06
-8.52448e-06
-8.5246e-06
-8.52471e-06
-8.52482e-06
-8.52492e-06
-8.52503e-06
-8.52513e-06
-8.52525e-06
-8.52535e-06
-8.52545e-06
-8.52555e-06
-8.52565e-06
-8.52575e-06
-8.52585e-06
-8.52595e-06
-8.52605e-06
-8.52615e-06
-8.52624e-06
-8.52633e-06
-8.52642e-06
-8.52652e-06
-8.52662e-06
-8.52671e-06
-8.52679e-06
-8.52688e-06
-8.52697e-06
-8.52707e-06
-8.52716e-06
-8.52725e-06
-8.52733e-06
-8.52741e-06
-8.5275e-06
-8.52758e-06
-8.52767e-06
-8.52775e-06
-8.52782e-06
-8.5279e-06
-8.52798e-06
-8.52806e-06
-8.52815e-06
-8.52823e-06
-8.52831e-06
-8.52838e-06
-8.52846e-06
-8.52855e-06
-8.52862e-06
-8.5287e-06
-8.52877e-06
-8.52884e-06
-8.52891e-06
-8.52898e-06
-8.52906e-06
-8.52913e-06
-8.5292e-06
-8.52927e-06
-8.52934e-06
-8.52941e-06
-8.52949e-06
-8.52956e-06
-8.52963e-06
-8.5297e-06
-8.52976e-06
-8.52984e-06
-8.52991e-06
-8.52997e-06
-8.53004e-06
-8.5301e-06
-8.53016e-06
-8.53023e-06
-8.5303e-06
-8.53037e-06
-8.53043e-06
-8.5305e-06
-8.53056e-06
-8.53063e-06
-8.5307e-06
-8.53076e-06
-8.53081e-06
-8.53088e-06
-8.53094e-06
-8.531e-06
-8.53106e-06
-8.53112e-06
-8.53117e-06
-8.53123e-06
-8.5313e-06
-8.53136e-06
-8.5314e-06
-8.53146e-06
-8.53152e-06
-8.53157e-06
-8.53162e-06
-8.53167e-06
-8.53172e-06
-8.53176e-06
-8.5318e-06
-8.53183e-06
-8.53186e-06
-8.53189e-06
-8.53189e-06
-8.53188e-06
-8.53185e-06
-8.53181e-06
-8.53175e-06
-8.53166e-06
-8.53152e-06
-8.53133e-06
-8.53107e-06
-8.53071e-06
-8.53027e-06
-8.52965e-06
-8.52892e-06
-8.52787e-06
-8.52667e-06
-8.52486e-06
-8.52295e-06
-8.51972e-06
-8.5168e-06
-8.51061e-06
-8.50672e-06
-8.49288e-06
-8.49196e-06
-8.44997e-06
-8.52186e-06
-6.02531e-06
-6.02531e-06
0
0
0.0966101
0.0320527
0.0130062
0.00682637
0.00423607
0.00291413
0.0021425
0.00164842
0.00131055
0.00106807
0.000887567
0.000749319
0.000641015
0.000554593
0.000484568
0.000427089
0.000379374
0.000339372
0.000305535
0.000276683
0.000251896
0.000230454
0.000211784
0.000195427
0.000181014
0.000168242
0.000156866
0.000146682
0.000137521
0.000129245
0.000121736
0.000114896
0.000108641
0.000102902
9.76183e-05
9.27391e-05
8.82203e-05
8.40242e-05
8.01178e-05
7.64726e-05
7.30638e-05
6.98695e-05
6.68706e-05
6.40501e-05
6.13929e-05
5.88858e-05
5.65169e-05
5.42753e-05
5.21516e-05
5.01371e-05
4.82239e-05
4.6405e-05
4.4674e-05
4.30249e-05
4.14525e-05
3.99518e-05
3.85183e-05
3.71479e-05
3.58367e-05
3.45813e-05
3.33784e-05
3.2225e-05
3.11183e-05
3.00558e-05
2.9035e-05
2.80537e-05
2.71097e-05
2.62013e-05
2.53264e-05
2.44835e-05
2.36709e-05
2.28872e-05
2.21309e-05
2.14007e-05
2.06955e-05
2.00139e-05
1.93551e-05
1.87178e-05
1.81012e-05
1.75043e-05
1.69262e-05
1.63662e-05
1.58235e-05
1.52973e-05
1.4787e-05
1.42918e-05
1.38113e-05
1.33447e-05
1.28915e-05
1.24512e-05
1.20233e-05
1.16073e-05
1.12027e-05
1.08092e-05
1.04262e-05
1.00535e-05
9.69056e-06
9.33711e-06
8.99279e-06
8.65726e-06
8.33022e-06
8.01137e-06
7.70041e-06
7.39708e-06
7.10113e-06
6.8123e-06
6.53035e-06
6.25506e-06
5.98619e-06
5.72354e-06
5.46691e-06
5.21611e-06
4.97095e-06
4.73126e-06
4.49686e-06
4.26759e-06
4.04328e-06
3.82378e-06
3.60896e-06
3.39867e-06
3.19276e-06
2.99113e-06
2.79364e-06
2.60016e-06
2.41059e-06
2.22481e-06
2.04271e-06
1.86419e-06
1.68915e-06
1.51749e-06
1.34911e-06
1.18393e-06
1.02186e-06
8.62816e-07
7.06717e-07
5.53498e-07
4.03075e-07
2.55356e-07
1.10279e-07
-3.22126e-08
-1.72187e-07
-3.09705e-07
-4.44837e-07
-5.77653e-07
-7.08202e-07
-8.36536e-07
-9.62701e-07
-1.08675e-06
-1.20875e-06
-1.32874e-06
-1.44679e-06
-1.56293e-06
-1.67717e-06
-1.78959e-06
-1.90024e-06
-2.00916e-06
-2.11637e-06
-2.2219e-06
-2.32581e-06
-2.42814e-06
-2.52891e-06
-2.62815e-06
-2.72592e-06
-2.82221e-06
-2.91709e-06
-3.01057e-06
-3.1027e-06
-3.19348e-06
-3.28296e-06
-3.37115e-06
-3.45809e-06
-3.5438e-06
-3.6283e-06
-3.71161e-06
-3.79378e-06
-3.87481e-06
-3.95472e-06
-4.03355e-06
-4.11131e-06
-4.18801e-06
-4.26369e-06
-4.33835e-06
-4.41202e-06
-4.48473e-06
-4.55648e-06
-4.62729e-06
-4.69718e-06
-4.76617e-06
-4.83426e-06
-4.90149e-06
-4.96786e-06
-5.03339e-06
-5.09809e-06
-5.16198e-06
-5.22507e-06
-5.28737e-06
-5.3489e-06
-5.40968e-06
-5.46971e-06
-5.529e-06
-5.58756e-06
-5.64543e-06
-5.70259e-06
-5.75907e-06
-5.81487e-06
-5.87e-06
-5.92448e-06
-5.97831e-06
-6.03151e-06
-6.08408e-06
-6.13603e-06
-6.18737e-06
-6.23812e-06
-6.28828e-06
-6.33786e-06
-6.38687e-06
-6.43532e-06
-6.48322e-06
-6.53055e-06
-6.57735e-06
-6.62363e-06
-6.66939e-06
-6.71463e-06
-6.75936e-06
-6.80357e-06
-6.8473e-06
-6.89054e-06
-6.9333e-06
-6.97559e-06
-7.0174e-06
-7.05877e-06
-7.09967e-06
-7.14011e-06
-7.18012e-06
-7.21969e-06
-7.25883e-06
-7.29753e-06
-7.33581e-06
-7.37369e-06
-7.41116e-06
-7.44821e-06
-7.48487e-06
-7.52113e-06
-7.55701e-06
-7.5925e-06
-7.62761e-06
-7.66233e-06
-7.69668e-06
-7.73067e-06
-7.76431e-06
-7.7976e-06
-7.83052e-06
-7.86308e-06
-7.89531e-06
-7.92719e-06
-7.95875e-06
-7.98997e-06
-8.02086e-06
-8.05142e-06
-8.08167e-06
-8.1116e-06
-8.14122e-06
-8.17052e-06
-8.19952e-06
-8.22822e-06
-8.25661e-06
-8.28471e-06
-8.31252e-06
-8.34004e-06
-8.36728e-06
-8.39423e-06
-8.4209e-06
-8.4473e-06
-8.47342e-06
-8.49927e-06
-8.52485e-06
-8.55018e-06
-8.57524e-06
-8.60005e-06
-8.62459e-06
-8.64888e-06
-8.67293e-06
-8.69674e-06
-8.72029e-06
-8.7436e-06
-8.76667e-06
-8.7895e-06
-8.8121e-06
-8.83448e-06
-8.85663e-06
-8.87855e-06
-8.90024e-06
-8.9217e-06
-8.94296e-06
-8.96399e-06
-8.98481e-06
-9.00542e-06
-9.02583e-06
-9.04601e-06
-9.066e-06
-9.08577e-06
-9.10535e-06
-9.12474e-06
-9.14393e-06
-9.16292e-06
-9.18171e-06
-9.20031e-06
-9.21873e-06
-9.23697e-06
-9.25502e-06
-9.27288e-06
-9.29056e-06
-9.30806e-06
-9.32538e-06
-9.34252e-06
-9.35949e-06
-9.3763e-06
-9.39294e-06
-9.4094e-06
-9.42569e-06
-9.44183e-06
-9.4578e-06
-9.47361e-06
-9.48926e-06
-9.50475e-06
-9.52008e-06
-9.53526e-06
-9.55029e-06
-9.56517e-06
-9.57989e-06
-9.59446e-06
-9.60889e-06
-9.62316e-06
-9.6373e-06
-9.6513e-06
-9.66515e-06
-9.67886e-06
-9.69244e-06
-9.70588e-06
-9.71918e-06
-9.73234e-06
-9.74537e-06
-9.75827e-06
-9.77105e-06
-9.7837e-06
-9.79622e-06
-9.80861e-06
-9.82087e-06
-9.83301e-06
-9.84503e-06
-9.85693e-06
-9.86871e-06
-9.88036e-06
-9.89191e-06
-9.90334e-06
-9.91465e-06
-9.92583e-06
-9.93691e-06
-9.94789e-06
-9.95875e-06
-9.9695e-06
-9.98014e-06
-9.99068e-06
-1.00011e-05
-1.00114e-05
-1.00216e-05
-1.00318e-05
-1.00418e-05
-1.00517e-05
-1.00615e-05
-1.00712e-05
-1.00808e-05
-1.00903e-05
-1.00998e-05
-1.01091e-05
-1.01183e-05
-1.01275e-05
-1.01365e-05
-1.01455e-05
-1.01543e-05
-1.01631e-05
-1.01718e-05
-1.01804e-05
-1.01889e-05
-1.01973e-05
-1.02057e-05
-1.0214e-05
-1.02221e-05
-1.02302e-05
-1.02382e-05
-1.02462e-05
-1.0254e-05
-1.02618e-05
-1.02695e-05
-1.02771e-05
-1.02846e-05
-1.02921e-05
-1.02995e-05
-1.03068e-05
-1.0314e-05
-1.03212e-05
-1.03283e-05
-1.03353e-05
-1.03422e-05
-1.03491e-05
-1.03559e-05
-1.03627e-05
-1.03694e-05
-1.0376e-05
-1.03825e-05
-1.0389e-05
-1.03954e-05
-1.04017e-05
-1.0408e-05
-1.04142e-05
-1.04204e-05
-1.04264e-05
-1.04325e-05
-1.04384e-05
-1.04443e-05
-1.04502e-05
-1.0456e-05
-1.04617e-05
-1.04674e-05
-1.0473e-05
-1.04786e-05
-1.04841e-05
-1.04895e-05
-1.04949e-05
-1.05002e-05
-1.05055e-05
-1.05107e-05
-1.05159e-05
-1.0521e-05
-1.05261e-05
-1.05311e-05
-1.05361e-05
-1.0541e-05
-1.05459e-05
-1.05507e-05
-1.05555e-05
-1.05602e-05
-1.05649e-05
-1.05695e-05
-1.05741e-05
-1.05786e-05
-1.05831e-05
-1.05875e-05
-1.05919e-05
-1.05963e-05
-1.06006e-05
-1.06049e-05
-1.06091e-05
-1.06133e-05
-1.06174e-05
-1.06215e-05
-1.06255e-05
-1.06296e-05
-1.06335e-05
-1.06374e-05
-1.06413e-05
-1.06452e-05
-1.0649e-05
-1.06528e-05
-1.06565e-05
-1.06602e-05
-1.06639e-05
-1.06675e-05
-1.06711e-05
-1.06746e-05
-1.06781e-05
-1.06816e-05
-1.06851e-05
-1.06885e-05
-1.06919e-05
-1.06952e-05
-1.06985e-05
-1.07018e-05
-1.0705e-05
-1.07082e-05
-1.07114e-05
-1.07145e-05
-1.07176e-05
-1.07207e-05
-1.07238e-05
-1.07268e-05
-1.07298e-05
-1.07327e-05
-1.07356e-05
-1.07385e-05
-1.07414e-05
-1.07442e-05
-1.0747e-05
-1.07498e-05
-1.07526e-05
-1.07553e-05
-1.0758e-05
-1.07607e-05
-1.07633e-05
-1.07659e-05
-1.07685e-05
-1.07711e-05
-1.07736e-05
-1.07761e-05
-1.07786e-05
-1.0781e-05
-1.07835e-05
-1.07859e-05
-1.07883e-05
-1.07906e-05
-1.0793e-05
-1.07953e-05
-1.07976e-05
-1.07998e-05
-1.08021e-05
-1.08043e-05
-1.08065e-05
-1.08087e-05
-1.08108e-05
-1.08129e-05
-1.0815e-05
-1.08171e-05
-1.08192e-05
-1.08212e-05
-1.08233e-05
-1.08253e-05
-1.08273e-05
-1.08292e-05
-1.08312e-05
-1.08331e-05
-1.0835e-05
-1.08369e-05
-1.08387e-05
-1.08406e-05
-1.08424e-05
-1.08442e-05
-1.0846e-05
-1.08478e-05
-1.08495e-05
-1.08513e-05
-1.0853e-05
-1.08547e-05
-1.08564e-05
-1.0858e-05
-1.08597e-05
-1.08613e-05
-1.08629e-05
-1.08645e-05
-1.08661e-05
-1.08677e-05
-1.08692e-05
-1.08708e-05
-1.08723e-05
-1.08738e-05
-1.08753e-05
-1.08768e-05
-1.08782e-05
-1.08797e-05
-1.08811e-05
-1.08825e-05
-1.08839e-05
-1.08853e-05
-1.08867e-05
-1.0888e-05
-1.08894e-05
-1.08907e-05
-1.0892e-05
-1.08933e-05
-1.08946e-05
-1.08959e-05
-1.08971e-05
-1.08984e-05
-1.08997e-05
-1.09009e-05
-1.09021e-05
-1.09033e-05
-1.09045e-05
-1.09057e-05
-1.09068e-05
-1.0908e-05
-1.09091e-05
-1.09102e-05
-1.09114e-05
-1.09125e-05
-1.09136e-05
-1.09146e-05
-1.09157e-05
-1.09168e-05
-1.09178e-05
-1.09189e-05
-1.09199e-05
-1.09209e-05
-1.09219e-05
-1.09229e-05
-1.09239e-05
-1.09249e-05
-1.09259e-05
-1.09268e-05
-1.09278e-05
-1.09287e-05
-1.09296e-05
-1.09306e-05
-1.09315e-05
-1.09324e-05
-1.09333e-05
-1.09341e-05
-1.0935e-05
-1.09359e-05
-1.09367e-05
-1.09376e-05
-1.09384e-05
-1.09393e-05
-1.09401e-05
-1.09409e-05
-1.09417e-05
-1.09425e-05
-1.09433e-05
-1.09441e-05
-1.09448e-05
-1.09456e-05
-1.09464e-05
-1.09471e-05
-1.09478e-05
-1.09486e-05
-1.09493e-05
-1.095e-05
-1.09507e-05
-1.09515e-05
-1.09521e-05
-1.09528e-05
-1.09535e-05
-1.09542e-05
-1.09549e-05
-1.09555e-05
-1.09562e-05
-1.09568e-05
-1.09575e-05
-1.09581e-05
-1.09587e-05
-1.09594e-05
-1.096e-05
-1.09606e-05