# vtk DataFile Version 2.0
FlowField
ASCII
DATASET STRUCTURED_GRID
DIMENSIONS 800 1 200
POINTS 160000 float
0 0 0
0.04 0 0
0.08 0 0
0.12 0 0
0.16 0 0
0.2 0 0
0.24 0 0
0.28 0 0
0.32 0 0
0.36 0 0
0.4 0 0
0.44 0 0
0.48 0 0
0.52 0 0
0.56 0 0
0.6 0 0
0.64 0 0
0.68 0 0
0.72 0 0
0.76 0 0
0.8 0 0
0.84 0 0
0.88 0 0
0.92 0 0
0.96 0 0
1 0 0
1.04 0 0
1.08 0 0
1.12 0 0
1.16 0 0
1.2 0 0
1.24 0 0
1.28 0 0
1.32 0 0
1.36 0 0
1.4 0 0
1.44 0 0
1.48 0 0
1.52 0 0
1.56 0 0
1.6 0 0
1.64 0 0
1.68 0 0
1.72 0 0
1.76 0 0
1.8 0 0
1.84 0 0
1.88 0 0
1.92 0 0
1.96 0 0
2 0 0
2.04 0 0
2.08 0 0
2.12 0 0
2.16 0 0
2.2 0 0
2.24 0 0
2.28 0 0
2.32 0 0
2.36 0 0
2.4 0 0
2.44 0 0
2.48 0 0
2.52 0 0
2.56 0 0
2.6 0 0
2.64 0 0
2.68 0 0
2.72 0 0
2.76 0 0
2.8 0 0
2.84 0 0
2.88 0 0
2.92 0 0
2.96 0 0
3 0 0
3.04 0 0
3.08 0 0
3.12 0 0
3.16 0 0
3.2 0 0
3.24 0 0
3.28 0 0
3.32 0 0
3.36 0 0
3.4 0 0
3.44 0 0
3.48 0 0
3.52 0 0
3.56 0 0
3.6 0 0
3.64 0 0
3.68 0 0
3.72 0 0
3.76 0 0
3.8 0 0
3.84 0 0
3.88 0 0
3.92 0 0
3.96 0 0
4 0 0
4.04 0 0
4.08 0 0
4.12 0 0
4.16 0 0
4.2 0 0
4.24 0 0
4.28 0 0
4.32 0 0
4.36 0 0
4.4 0 0
4.44 0 0
4.48 0 0
4.52 0 0
4.56 0 0
4.6 0 0
4.64 0 0
4.68 0 0
4.72 0 0
4.76 0 0
4.8 0 0
4.84 0 0
4.88 0 0
4.92 0 0
4.96 0 0
5 0 0
5.04 0 0
5.08 0 0
5.12 0 0
5.16 0 0
5.2 0 0
5.24 0 0
5.28 0 0
5.32 0 0
5.36 0 0
5.4 0 0
5.44 0 0
5.48 0 0
5.52 0 0
5.56 0 0
5.6 0 0
5.64 0 0
5.68 0 0
5.72 0 0
5.76 0 0
5.8 0 0
5.84 0 0
5.88 0 0
5.92 0 0
5.96 0 0
6 0 0
6.04 0 0
6.08 0 0
6.12 0 0
6.16 0 0
6.2 0 0
6.24 0 0
6.28 0 0
6.32 0 0
6.36 0 0
6.4 0 0
6.44 0 0
6.48 0 0
6.52 0 0
6.56 0 0
6.6 0 0
6.64 0 0
6.68 0 0
6.72 0 0
6.76 0 0
6.8 0 0
6.84 0 0
6.88 0 0
6.92 0 0
6.96 0 0
7 0 0
7.04 0 0
7.08 0 0
7.12 0 0
7.16 0 0
7.2 0 0
7.24 0 0
7.28 0 0
7.32 0 0
7.36 0 0
7.4 0 0
7.44 0 0
7.48 0 0
7.52 0 0
7.56 0 0
7.6 0 0
7.64 0 0
7.68 0 0
7.72 0 0
7.76 0 0
7.8 0 0
7.84 0 0
7.88 0 0
7.92 0 0
7.96 0 0
8 0 0
8.04 0 0
8.08 0 0
8.12 0 0
8.16 0 0
8.2 0 0
8.24 0 0
8.28 0 0
8.32 0 0
8.36 0 0
8.4 0 0
8.44 0 0
8.48 0 0
8.52 0 0
8.56 0 0
8.6 0 0
8.64 0 0
8.68 0 0
8.72 0 0
8.76 0 0
8.8 0 0
8.84 0 0
8.88 0 0
8.92 0 0
8.96 0 0
9 0 0
9.04 0 0
9.08 0 0
9.12 0 0
9.16 0 0
9.2 0 0
9.24 0 0
9.28 0 0
9.32 0 0
9.36 0 0
9.4 0 0
9.44 0 0
9.48 0 0
9.52 0 0
9.56 0 0
9.6 0 0
9.64 0 0
9.68 0 0
9.72 0 0
9.76 0 0
9.8 0 0
9.84 0 0
9.88 0 0
9.92 0 0
9.96 0 0
10 0 0
10.04 0 0
10.08 0 0
10.12 0 0
10.16 0 0
10.2 0 0
10.24 0 0
10.28 0 0
10.32 0 0
10.36 0 0
10.4 0 0
10.44 0 0
10.48 0 0
10.52 0 0
10.56 0 0
10.6 0 0
10.64 0 0
10.68 0 0
10.72 0 0
10.76 0 0
10.8 0 0
10.84 0 0
10.88 0 0
10.92 0 0
10.96 0 0
11 0 0
11.04 0 0
11.08 0 0
11.12 0 0
11.16 0 0
11.2 0 0
11.24 0 0
11.28 0 0
11.32 0 0
11.36 0 0
11.4 0 0
11.44 0 0
11.48 0 0
11.52 0 0
11.56 0 0
11.6 0 0
11.64 0 0
11.68 0 0
11.72 0 0
11.76 0 0
11.8 0 0
11.84 0 0
11.88 0 0
11.92 0 0
11.96 0 0
12 0 0
12.04 0 0
12.08 0 0
12.12 0 0
12.16 0 0
12.2 0 0
12.24 0 0
12.28 0 0
12.32 0 0
12.36 0 0
12.4 0 0
12.44 0 0
12.48 0 0
12.52 0 0
12.56 0 0
12.6 0 0
12.64 0 0
12.68 0 0
12.72 0 0
12.76 0 0
12.8 0 0
12.84 0 0
12.88 0 0
12.92 0 0
12.96 0 0
13 0 0
13.04 0 0
13.08 0 0
13.12 0 0
13.16 0 0
13.2 0 0
13.24 0 0
13.28 0 0
13.32 0 0
13.36 0 0
13.4 0 0
13.44 0 0
13.48 0 0
13.52 0 0
13.56 0 0
13.6 0 0
13.64 0 0
13.68 0 0
13.72 0 0
13.76 0 0
13.8 0 0
13.84 0 0
13.88 0 0
13.92 0 0
13.96 0 0
14 0 0
14.04 0 0
14.08 0 0
14.12 0 0
14.16 0 0
14.2 0 0
14.24 0 0
14.28 0 0
14.32 0 0
14.36 0 0
14.4 0 0
14.44 0 0
14.48 0 0
14.52 0 0
14.56 0 0
14.6 0 0
14.64 0 0
14.68 0 0
14.72 0 0
14.76 0 0
14.8 0 0
14.84 0 0
14.88 0 0
14.92 0 0
14.96 0 0
15 0 0
15.04 0 0
15.08 0 0
15.12 0 0
15.16 0 0
15.2 0 0
15.24 0 0
15.28 0 0
15.32 0 0
15.36 0 0
15.4 0 0
15.44 0 0
15.48 0 0
15.52 0 0
15.56 0 0
15.6 0 0
15.64 0 0
15.68 0 0
15.72 0 0
15.76 0 0
15.8 0 0
15.84 0 0
15.88 0 0
15.92 0 0
15.96 0 0
16 0 0
16.04 0 0
16.08 0 0
16.12 0 0
16.16 0 0
16.2 0 0
16.24 0 0
16.28 0 0
16.32 0 0
16.36 0 0
16.4 0 0
16.44 0 0
16.48 0 0
16.52 0 0
16.56 0 0
16.6 0 0
16.64 0 0
16.68 0 0
16.72 0 0
16.76 0 0
16.8 0 0
16.84 0 0
16.88 0 0
16.92 0 0
16.96 0 0
17 0 0
17.04 0 0
17.08 0 0
17.12 0 0
17.16 0 0
17.2 0 0
17.24 0 0
17.28 0 0
17.32 0 0
17.36 0 0
17.4 0 0
17.44 0 0
17.48 0 0
17.52 0 0
17.56 0 0
17.6 0 0
17.64 0 0
17.68 0 0
17.72 0 0
17.76 0 0
17.8 0 0
17.84 0 0
17.88 0 0
17.92 0 0
17.96 0 0
18 0 0
18.04 0 0
18.08 0 0
18.12 0 0
18.16 0 0
18.2 0 0
18.24 0 0
18.28 0 0
18.32 0 0
18.36 0 0
18.4 0 0
18.44 0 0
18.48 0 0
18.52 0 0
18.56 0 0
18.6 0 0
18.64 0 0
18.68 0 0
18.72 0 0
18.76 0 0
18.8 0 0
18.84 0 0
18.88 0 0
18.92 0 0
18.96 0 0
19 0 0
19.04 0 0
19.08 0 0
19.12 0 0
19.16 0 0
19.2 0 0
19.24 0 0
19.28 0 0
19.32 0 0
19.36 0 0
19.4 0 0
19.44 0 0
19.48 0 0
19.52 0 0
19.56 0 0
19.6 0 0
19.64 0 0
19.68 0 0
19.72 0 0
19.76 0 0
19.8 0 0
19.84 0 0
19.88 0 0
19.92 0 0
19.96 0 0
20 0 0
20.04 0 0
20.08 0 0
20.12 0 0
20.16 0 0
20.2 0 0
20.24 0 0
20.28 0 0
20.32 0 0
20.36 0 0
20.4 0 0
20.44 0 0
20.48 0 0
20.52 0 0
20.56 0 0
20.6 0 0
20.64 0 0
20.68 0 0
20.72 0 0
20.76 0 0
20.8 0 0
20.84 0 0
20.88 0 0
20.92 0 0
20.96 0 0
21 0 0
21.04 0 0
21.08 0 0
21.12 0 0
21.16 0 0
21.2 0 0
21.24 0 0
21.28 0 0
21.32 0 0
21.36 0 0
21.4 0 0
21.44 0 0
21.48 0 0
21.52 0 0
21.56 0 0
21.6 0 0
21.64 0 0
21.68 0 0
21.72 0 0
21.76 0 0
21.8 0 0
21.84 0 0
21.88 0 0
21.92 0 0
21.96 0 0
22 0 0
22.04 0 0
22.08 0 0
22.12 0 0
22.16 0 0
22.2 0 0
22.24 0 0
22.28 0 0
22.32 0 0
22.36 0 0
22.4 0 0
22.44 0 0
22.48 0 0
22.52 0 0
22.56 0 0
22.6 0 0
22.64 0 0
22.68 0 0
22.72 0 0
22.76 0 0
22.8 0 0
22.84 0 0
22.88 0 0
22.92 0 0
22.96 0 0
23 0 0
23.04 0 0
23.08 0 0
23.12 0 0
23.16 0 0
23.2 0 0
23.24 0 0
23.28 0 0
23.32 0 0
23.36 0 0
23.4 0 0
23.44 0 0
23.48 0 0
23.52 0 0
23.56 0 0
23.6 0 0
23.64 0 0
23.68 0 0
23.72 0 0
23.76 0 0
23.8 0 0
23.84 0 0
23.88 0 0
23.92 0 0
23.96 0 0
24 0 0
24.04 0 0
24.08 0 0
24.12 0 0
24.16 0 0
24.2 0 0
24.24 0 0
24.28 0 0
24.32 0 0
24.36 0 0
24.4 0 0
24.44 0 0
24.48 0 0
24.52 0 0
24.56 0 0
24.6 0 0
24.64 0 0
24.68 0 0
24.72 0 0
24.76 0 0
24.8 0 0
24.84 0 0
24.88 0 0
24.92 0 0
24.96 0 0
25 0 0
25.04 0 0
25.08 0 0
25.12 0 0
25.16 0 0
25.2 0 0
25.24 0 0
25.28 0 0
25.32 0 0
25.36 0 0
25.4 0 0
25.44 0 0
25.48 0 0
25.52 0 0
25.56 0 0
25.6 0 0
25.64 0 0
25.68 0 0
25.72 0 0
25.76 0 0
25.8 0 0
25.84 0 0
25.88 0 0
25.92 0 0
25.96 0 0
26 0 0
26.04 0 0
26.08 0 0
26.12 0 0
26.16 0 0
26.2 0 0
26.24 0 0
26.28 0 0
26.32 0 0
26.36 0 0
26.4 0 0
26.44 0 0
26.48 0 0
26.52 0 0
26.56 0 0
26.6 0 0
26.64 0 0
26.68 0 0
26.72 0 0
26.76 0 0
26.8 0 0
26.84 0 0
26.88 0 0
26.92 0 0
26.96 0 0
27 0 0
27.04 0 0
27.08 0 0
27.12 0 0
27.16 0 0
27.2 0 0
27.24 0 0
27.28 0 0
27.32 0 0
27.36 0 0
27.4 0 0
27.44 0 0
27.48 0 0
27.52 0 0
27.56 0 0
27.6 0 0
27.64 0 0
27.68 0 0
27.72 0 0
27.76 0 0
27.8 0 0
27.84 0 0
27.88 0 0
27.92 0 0
27.96 0 0
28 0 0
28.04 0 0
28.08 0 0
28.12 0 0
28.16 0 0
28.2 0 0
28.24 0 0
28.28 0 0
28.32 0 0
28.36 0 0
28.4 0 0
28.44 0 0
28.48 0 0
28.52 0 0
28.56 0 0
28.6 0 0
28.64 0 0
28.68 0 0
28.72 0 0
28.76 0 0
28.8 0 0
28.84 0 0
28.88 0 0
28.92 0 0
28.96 0 0
29 0 0
29.04 0 0
29.08 0 0
29.12 0 0
29.16 0 0
29.2 0 0
29.24 0 0
29.28 0 0
29.32 0 0
29.36 0 0
29.4 0 0
29.44 0 0
29.48 0 0
29.52 0 0
29.56 0 0
29.6 0 0
29.64 0 0
29.68 0 0
29.72 0 0
29.76 0 0
29.8 0 0
29.84 0 0
29.88 0 0
29.92 0 0
29.96 0 0
30 0 0
30.04 0 0
30.08 0 0
30.12 0 0
30.16 0 0
30.2 0 0
30.24 0 0
30.28 0 0
30.32 0 0
30.36 0 0
30.4 0 0
30.44 0 0
30.48 0 0
30.52 0 0
30.56 0 0
30.6 0 0
30.64 0 0
30.68 0 0
30.72 0 0
30.76 0 0
30.8 0 0
30.84 0 0
30.88 0 0
30.92 0 0
30.96 0 0
31 0 0
31.04 0 0
31.08 0 0
31.12 0 0
31.16 0 0
31.2 0 0
31.24 0 0
31.28 0 0
31.32 0 0
31.36 0 0
31.4 0 0
31.44 0 0
31.48 0 0
31.52 0 0
31.56 0 0
31.6 0 0
31.64 0 0
31.68 0 0
31.72 0 0
31.76 0 0
31.8 0 0
31.84 0 0
31.88 0 0
31.92 0 0
31.96 0 0
0 0.005 0
0.04 0.005 0
0.08 0.005 0
0.12 0.005 0
0.16 0.005 0
0.2 0.005 0
0.24 0.005 0
0.28 0.005 0
0.32 0.005 0
0.36 0.005 0
0.4 0.005 0
0.44 0.005 0
0.48 0.005 0
0.52 0.005 0
0.56 0.005 0
0.6 0.005 0
0.64 0.005 0
0.68 0.005 0
0.72 0.005 0
0.76 0.005 0
0.8 0.005 0
0.84 0.005 0
0.88 0.005 0
0.92 0.005 0
0.96 0.005 0
1 0.005 0
1.04 0.005 0
1.08 0.005 0
1.12 0.005 0
1.16 0.005 0
1.2 0.005 0
1.24 0.005 0
1.28 0.005 0
1.32 0.005 0
1.36 0.005 0
1.4 0.005 0
1.44 0.005 0
1.48 0.005 0
1.52 0.005 0
1.56 0.005 0
1.6 0.005 0
1.64 0.005 0
1.68 0.005 0
1.72 0.005 0
1.76 0.005 0
1.8 0.005 0
1.84 0.005 0
1.88 0.005 0
1.92 0.005 0
1.96 0.005 0
2 0.005 0
2.04 0.005 0
2.08 0.005 0
2.12 0.005 0
2.16 0.005 0
2.2 0.005 0
2.24 0.005 0
2.28 0.005 0
2.32 0.005 0
2.36 0.005 0
2.4 0.005 0
2.44 0.005 0
2.48 0.005 0
2.52 0.005 0
2.56 0.005 0
2.6 0.005 0
2.64 0.005 0
2.68 0.005 0
2.72 0.005 0
2.76 0.005 0
2.8 0.005 0
2.84 0.005 0
2.88 0.005 0
2.92 0.005 0
2.96 0.005 0
3 0.005 0
3.04 0.005 0
3.08 0.005 0
3.12 0.005 0
3.16 0.005 0
3.2 0.005 0
3.24 0.005 0
3.28 0.005 0
3.32 0.005 0
3.36 0.005 0
3.4 0.005 0
3.44 0.005 0
3.48 0.005 0
3.52 0.005 0
3.56 0.005 0
3.6 0.005 0
3.64 0.005 0
3.68 0.005 0
3.72 0.005 0
3.76 0.005 0
3.8 0.005 0
3.84 0.005 0
3.88 0.005 0
3.92 0.005 0
3.96 0.005 0
4 0.005 0
4.04 0.005 0
4.08 0.005 0
4.12 0.005 0
4.16 0.005 0
4.2 0.005 0
4.24 0.005 0
4.28 0.005 0
4.32 0.005 0
4.36 0.005 0
4.4 0.005 0
4.44 0.005 0
4.48 0.005 0
4.52 0.005 0
4.56 0.005 0
4.6 0.005 0
4.64 0.005 0
4.68 0.005 0
4.72 0.005 0
4.76 0.005 0
4.8 0.005 0
4.84 0.005 0
4.88 0.005 0
4.92 0.005 0
4.96 0.005 0
5 0.005 0
5.04 0.005 0
5.08 0.005 0
5.12 0.005 0
5.16 0.005 0
5.2 0.005 0
5.24 0.005 0
5.28 0.005 0
5.32 0.005 0
5.36 0.005 0
5.4 0.005 0
5.44 0.005 0
5.48 0.005 0
5.52 0.005 0
5.56 0.005 0
5.6 0.005 0
5.64 0.005 0
5.68 0.005 0
5.72 0.005 0
5.76 0.005 0
5.8 0.005 0
5.84 0.005 0
5.88 0.005 0
5.92 0.005 0
5.96 0.005 0
6 0.005 0
6.04 0.005 0
6.08 0.005 0
6.12 0.005 0
6.16 0.005 0
6.2 0.005 0
6.24 0.005 0
6.28 0.005 0
6.32 0.005 0
6.36 0.005 0
6.4 0.005 0
6.44 0.005 0
6.48 0.005 0
6.52 0.005 0
6.56 0.005 0
6.6 0.005 0
6.64 0.005 0
6.68 0.005 0
6.72 0.005 0
6.76 0.005 0
6.8 0.005 0
6.84 0.005 0
6.88 0.005 0
6.92 0.005 0
6.96 0.005 0
7 0.005 0
7.04 0.005 0
7.08 0.005 0
7.12 0.005 0
7.16 0.005 0
7.2 0.005 0
7.24 0.005 0
7.28 0.005 0
7.32 0.005 0
7.36 0.005 0
7.4 0.005 0
[...]
POINT_DATA 160000

SCALARS u float 1
LOOKUP_TABLE default
-1
-0.483354
-0.183961
-0.108843
-0.0810302
-0.0668305
-0.0581147
-0.0521489
-0.0477734
-0.0444103
-0.0417367
-0.0395567
-0.0377432
-0.03621
-0.0348961
-0.0337568
-0.0327589
-0.031877
-0.0310912
-0.0303859
-0.0297488
-0.0291696
-0.0286403
-0.0281541
-0.0277053
-0.0272894
-0.0269024
-0.0265411
-0.0262026
-0.0258845
-0.0255849
-0.0253018
-0.0250338
-0.0247796
-0.0245379
-0.0243078
-0.0240883
-0.0238786
-0.0236779
-0.0234858
-0.0233014
-0.0231245
-0.0229543
-0.0227907
-0.022633
-0.0224811
-0.0223345
-0.0221929
-0.0220562
-0.021924
-0.021796
-0.0216721
-0.0215521
-0.0214358
-0.021323
-0.0212135
-0.0211072
-0.021004
-0.0209037
-0.0208061
-0.0207112
-0.0206189
-0.0205291
-0.0204416
-0.0203563
-0.0202733
-0.0201923
-0.0201134
-0.0200364
-0.0199614
-0.0198881
-0.0198166
-0.0197469
-0.0196788
-0.0196123
-0.0195474
-0.019484
-0.0194221
-0.0193617
-0.0193026
-0.019245
-0.0191888
-0.0191339
-0.0190803
-0.0190281
-0.0189772
-0.0189275
-0.0188792
-0.0188322
-0.0187865
-0.0187421
-0.0186991
-0.0186574
-0.018617
-0.018578
-0.0185404
-0.0185042
-0.0184694
-0.018436
-0.0184039
-0.0183732
-0.0183439
-0.0183158
-0.018289
-0.0182634
-0.018239
-0.0182158
-0.0181936
-0.0181724
-0.0181521
-0.0181328
-0.0181143
-0.0180966
-0.0180797
-0.0180635
-0.0180479
-0.0180329
-0.0180186
-0.0180048
-0.0179916
-0.0179789
-0.0179666
-0.0179549
-0.0179437
-0.0179328
-0.0179225
-0.0179125
-0.017903
-0.0178939
-0.0178852
-0.0178769
-0.0178689
-0.0178614
-0.0178542
-0.0178473
-0.0178408
-0.0178344
-0.0178284
-0.0178225
-0.0178168
-0.0178113
-0.017806
-0.0178008
-0.0177959
-0.0177913
-0.0177869
-0.0177828
-0.0177791
-0.0177757
-0.0177727
-0.01777
-0.0177677
-0.0177657
-0.017764
-0.0177626
-0.0177614
-0.0177604
-0.0177596
-0.0177589
-0.0177583
-0.0177578
-0.0177573
-0.017757
-0.0177566
-0.0177562
-0.0177559
-0.0177556
-0.0177553
-0.017755
-0.0177546
-0.0177543
-0.017754
-0.0177537
-0.0177534
-0.017753
-0.0177527
-0.0177524
-0.0177521
-0.0177518
-0.0177514
-0.0177511
-0.0177508
-0.0177505
-0.0177501
-0.0177498
-0.0177495
-0.0177492
-0.0177488
-0.0177485
-0.0177482
-0.0177479
-0.0177475
-0.0177472
-0.0177469
-0.0177466
-0.0177463
-0.0177459
-0.0177456
-0.0177453
-0.017745
-0.0177446
-0.0177443
-0.017744
-0.0177437
-0.0177433
-0.017743
-0.0177427
-0.0177424
-0.017742
-0.0177417
-0.0177414
-0.0177411
-0.0177408
-0.0177404
-0.0177401
-0.0177398
-0.0177395
-0.0177391
-0.0177388
-0.0177385
-0.0177382
-0.0177378
-0.0177375
-0.0177372
-0.0177369
-0.0177365
-0.0177362
-0.0177359
-0.0177356
-0.0177353
-0.0177349
-0.0177346
-0.0177343
-0.017734
-0.0177336
-0.0177333
-0.017733
-0.0177327
-0.0177324
-0.017732
-0.0177317
-0.0177314
-0.0177311
-0.0177307
-0.0177304
-0.0177301
-0.0177298
-0.0177295
-0.0177291
-0.0177288
-0.0177285
-0.0177282
-0.0177279
-0.0177275
-0.0177272
-0.0177269
-0.0177266
-0.0177262
-0.0177259
-0.0177256
-0.0177253
-0.017725
-0.0177246
-0.0177243
-0.017724
-0.0177237
-0.0177234
-0.017723
-0.0177227
-0.0177224
-0.0177221
-0.0177218
-0.0177214
-0.0177211
-0.0177208
-0.0177205
-0.0177202
-0.0177198
-0.0177195
-0.0177192
-0.0177189
-0.0177186
-0.0177182
-0.0177179
-0.0177176
-0.0177173
-0.017717
-0.0177167
-0.0177163
-0.017716
-0.0177157
-0.0177154
-0.0177151
-0.0177147
-0.0177144
-0.0177141
-0.0177138
-0.0177135
-0.0177131
-0.0177128
-0.0177125
-0.0177122
-0.0177119
-0.0177116
-0.0177112
-0.0177109
-0.0177106
-0.0177103
-0.01771
-0.0177097
-0.0177093
-0.017709
-0.0177087
-0.0177084
-0.0177081
-0.0177078
-0.0177074
-0.0177071
-0.0177068
-0.0177065
-0.0177062
-0.0177059
-0.0177055
-0.0177052
-0.0177049
-0.0177046
-0.0177043
-0.017704
-0.0177036
-0.0177033
-0.017703
-0.0177027
-0.0177024
-0.0177021
-0.0177017
-0.0177014
-0.0177011
-0.0177008
-0.0177005
-0.0177002
-0.0176998
-0.0176995
-0.0176992
-0.0176989
-0.0176986
-0.0176983
-0.0176979
-0.0176976
-0.0176973
-0.017697
-0.0176967
-0.0176964
-0.017696
-0.0176957
-0.0176954
-0.0176951
-0.0176948
-0.0176945
-0.0176942
-0.0176938
-0.0176935
-0.0176932
-0.0176929
-0.0176926
-0.0176923
-0.0176919
-0.0176916
-0.0176913
-0.017691
-0.0176907
-0.0176904
-0.0176901
-0.0176897
-0.0176894
-0.0176891
-0.0176888
-0.0176885
-0.0176882
-0.0176878
-0.0176875
-0.0176872
-0.0176869
-0.0176866
-0.0176863
-0.017686
-0.0176856
-0.0176853
-0.017685
-0.0176847
-0.0176844
-0.0176841
-0.0176837
-0.0176834
-0.0176831
-0.0176828
-0.0176825
-0.0176822
-0.0176819
-0.0176815
-0.0176812
-0.0176809
-0.0176806
-0.0176803
-0.01768
-0.0176796
-0.0176793
-0.017679
-0.0176787
-0.0176784
-0.0176781
-0.0176778
-0.0176774
-0.0176771
-0.0176768
-0.0176765
-0.0176762
-0.0176759
-0.0176755
-0.0176752
-0.0176749
-0.0176746
-0.0176743
-0.017674
-0.0176737
-0.0176733
-0.017673
-0.0176727
-0.0176724
-0.0176721
-0.0176718
-0.0176714
-0.0176711
-0.0176708
-0.0176705
-0.0176702
-0.0176699
-0.0176695
-0.0176692
-0.0176689
-0.0176686
-0.0176683
-0.017668
-0.0176677
-0.0176673
-0.017667
-0.0176667
-0.0176664
-0.0176661
-0.0176658
-0.0176654
-0.0176651
-0.0176648
-0.0176645
-0.0176642
-0.0176639
-0.0176636
-0.0176632
-0.0176629
-0.0176626
-0.0176623
-0.017662
-0.0176617
-0.0176613
-0.017661
-0.0176607
-0.0176604
-0.0176601
-0.0176598
-0.0176594
-0.0176591
-0.0176588
-0.0176585
-0.0176582
-0.0176579
-0.0176576
-0.0176572
-0.0176569
-0.0176566
-0.0176563
-0.017656
-0.0176557
-0.0176553
-0.017655
-0.0176547
-0.0176544
-0.0176541
-0.0176538
-0.0176534
-0.0176531
-0.0176528
-0.0176525
-0.0176522
-0.0176519
-0.0176515
-0.0176512
-0.0176509
-0.0176506
-0.0176503
-0.01765
-0.0176497
-0.0176493
-0.017649
-0.0176487
-0.0176484
-0.0176481
-0.0176478
-0.0176474
-0.0176471
-0.0176468
-0.0176465
-0.0176462
-0.0176459
-0.0176455
-0.0176452
-0.0176449
-0.0176446
-0.0176443
-0.017644
-0.0176436
-0.0176433
-0.017643
-0.0176427
-0.0176424
-0.0176421
-0.0176417
-0.0176414
-0.0176411
-0.0176408
-0.0176405
-0.0176402
-0.0176398
-0.0176395
-0.0176392
-0.0176389
-0.0176386
-0.0176383
-0.0176379
-0.0176376
-0.0176373
-0.017637
-0.0176367
-0.0176364
-0.017636
-0.0176357
-0.0176354
-0.0176351
-0.0176348
-0.0176345
-0.0176341
-0.0176338
-0.0176335
-0.0176332
-0.0176329
-0.0176326
-0.0176322
-0.0176319
-0.0176316
-0.0176313
-0.017631
-0.0176307
-0.0176303
-0.01763
-0.0176297
-0.0176294
-0.0176291
-0.0176288
-0.0176284
-0.0176281
-0.0176278
-0.0176275
-0.0176272
-0.0176269
-0.0176265
-0.0176262
-0.0176259
-0.0176256
-0.0176253
-0.017625
-0.0176246
-0.0176243
-0.017624
-0.0176237
-0.0176234
-0.0176231
-0.0176227
-0.0176224
-0.0176221
-0.0176218
-0.0176215
-0.0176212
-0.0176208
-0.0176205
-0.0176202
-0.0176199
-0.0176196
-0.0176193
-0.0176189
-0.0176186
-0.0176183
-0.017618
-0.0176177
-0.0176174
-0.017617
-0.0176167
-0.0176164
-0.0176161
-0.0176158
-0.0176155
-0.0176151
-0.0176148
-0.0176145
-0.0176142
-0.0176139
-0.0176135
-0.0176132
-0.0176129
-0.0176126
-0.0176123
-0.017612
-0.0176116
-0.0176113
-0.017611
-0.0176107
-0.0176104
-0.0176101
-0.0176097
-0.0176094
-0.0176091
-0.0176088
-0.0176085
-0.0176082
-0.0176078
-0.0176075
-0.0176072
-0.0176069
-0.0176066
-0.0176062
-0.0176059
-0.0176056
-0.0176053
-0.017605
-0.0176047
-0.0176043
-0.017604
-0.0176037
-0.0176034
-0.0176031
-0.0176028
-0.0176024
-0.0176021
-0.0176018
-0.0176015
-0.0176012
-0.0176009
-0.0176005
-0.0176002
-0.0175999
-0.0175996
-0.0175993
-0.0175989
-0.0175986
-0.0175983
-0.017598
-0.0175977
-0.0175974
-0.017597
-0.0175967
-0.0175964
-0.0175961
-0.0175958
-0.0175955
-0.0175951
-0.0175948
-0.0175945
-0.0175942
-0.0175939
-0.0175935
-0.0175932
-0.0175929
-0.0175926
-0.0175923
-0.017592
-0.0175916
-0.0175913
-0.017591
-0.0175907
-0.0175904
-0.01759
-0.0175897
-0.0175894
-0.0175891
-0.0175888
-0.0175885
-0.0175881
-0.0175878
-0.0175875
-0.0175872
-0.0175869
-0.0175865
-0.0175862
-0.0175859
-0.0175856
-0.0175853
-0.017585
-0.0175846
-0.0175843
-0.017584
-0.0175837
-0.0175834
-0.017583
-0.0175827
-0.0175824
-0.0175821
-0.0175818
-0.0175815
-0.0175811
-0.0175808
-0.0175805
-0.0175802
-0.0175799
-0.0175795
-0.0175792
-0.0175789
-0.0175786
-0.0175783
-0.017578
-0.0175776
-0.0175773
-0.017577
-0.0175767
-0.0175764
-0.017576
-0.0175757
-0.0175754
-0.0175751
-0.0175748
-0.0175745
-0.0175741
-0.0175738
-0.0175735
-0.0175732
-0.0175729
-0.0175725
-0.0175722
-0.0175719
-0.0175716
-0.0175713
-0.017571
-0.0175706
-0.0175703
-0.01757
-0.0175697
-0.0175694
-0.017569
-0.0175687
-0.0175684
-0.0175681
-0.0175678
-0.0175674
-0.0175671
-0.0175668
-0.0175665
-0.0175662
-0.0175659
-0.0175655
-0.0175652
-0.0175649
-0.0175646
-0.0175643
-0.0175639
-0.0175636
-0.0175633
-0.017563
-0.0175626
-0.0175623
-0.017562
-0.0175617
-0.0175613
-0.017561
-0.0175607
-0.0175603
-0.01756
-0.0175597
-0.0175593
-0.0175589
-0.0175586
-0.0175582
-0.0175578
-0.0175574
-0.0175569
-0.0175564
-0.0175559
-0.0175553
-0.0175547
-0.0175539
-0.0175531
-0.0175518
-0.0175515
-0.0175515
-0.0175515
1
0.483354
0.183961
0.108843
0.0810302
0.0668305
0.0581147
0.0521489
0.0477734
0.0444103
0.0417367
0.0395567
0.0377432
0.03621
0.0348961
0.0337568
0.0327589
0.031877
0.0310912
0.0303859
0.0297488
0.0291696
0.0286403
0.0281541
0.0277053
0.0272894
0.0269024
0.0265411
0.0262026
0.0258845
0.0255849
0.0253018
0.0250338
0.0247796
0.0245379
0.0243078
0.0240883
0.0238786
0.0236779
0.0234858
0.0233014
0.0231245
0.0229543
0.0227907
0.022633
0.0224811
0.0223345
0.0221929
0.0220562
0.021924
0.021796
0.0216721
0.0215521
0.0214358
0.021323
0.0212135
0.0211072
0.021004
0.0209037
0.0208061
0.0207112
0.0206189
0.0205291
0.0204416
0.0203563
0.0202733
0.0201923
0.0201134
0.0200364
0.0199614
0.0198881
0.0198166
0.0197469
0.0196788
0.0196123
0.0195474
0.019484
0.0194221
0.0193617
0.0193026
0.019245
0.0191888
0.0191339
0.0190803
0.0190281
0.0189772
0.0189275
0.0188792
0.0188322
0.0187865
0.0187421
0.0186991
0.0186574
0.018617
0.018578
0.0185404
0.0185042
0.0184694
0.018436
0.0184039
0.0183732
0.0183439
0.0183158
0.018289
0.0182634
0.018239
0.0182158
0.0181936
0.0181724
0.0181521
0.0181328
0.0181143
0.0180966
0.0180797
0.0180635
0.0180479
0.0180329
0.0180186
0.0180048
0.0179916
0.0179789
0.0179666
0.0179549
0.0179437
0.0179328
0.0179225
0.0179125
0.017903
0.0178939
0.0178852
0.0178769
0.0178689
0.0178614
0.0178542
0.0178473
0.0178408
0.0178344
0.0178284
0.0178225
0.0178168
0.0178113
0.017806
0.0178008
0.0177959
0.0177913
0.0177869
0.0177828
0.0177791
0.0177757
0.0177727
0.01777
0.0177677
0.0177657
0.017764
0.0177626
0.0177614
0.0177604
0.0177596
0.0177589
0.0177583
0.0177578
0.0177573
0.017757
0.0177566
0.0177562
0.0177559
0.0177556
0.0177553
0.017755
0.0177546
0.0177543
0.017754
0.0177537
0.0177534
0.017753
0.0177527
0.0177524
0.0177521
0.0177518
0.0177514
0.0177511
0.0177508
0.0177505
0.0177501
0.0177498
0.0177495
0.0177492
0.0177488
0.0177485
0.0177482
0.0177479
0.0177475
0.0177472
0.0177469
0.0177466
0.0177463
0.0177459
0.0177456
0.0177453
0.017745
0.0177446
0.0177443
0.017744
0.0177437
0.0177433
0.017743
0.0177427
0.0177424
0.017742
0.0177417
0.0177414
0.0177411
0.0177408
0.0177404
0.0177401
0.0177398
0.0177395
0.0177391
0.0177388
0.0177385
0.0177382
0.0177378
0.0177375
0.0177372
0.0177369
0.0177365
0.0177362
0.0177359
0.0177356
0.0177353
0.0177349
0.0177346
0.0177343
0.017734
0.0177336
0.0177333
0.017733
0.0177327
0.0177324
0.017732
0.0177317
0.0177314
0.0177311
0.0177307
0.0177304
0.0177301
0.0177298
0.0177295
0.0177291
0.0177288
0.0177285
0.0177282
0.0177279
0.0177275
0.0177272
0.0177269
0.0177266
0.0177262
0.0177259
0.0177256
0.0177253
0.017725
0.0177246
0.0177243
0.017724
0.0177237
0.0177234
0.017723
0.0177227
0.0177224
0.0177221
0.0177218
0.0177214
0.0177211
0.0177208
0.0177205
0.0177202
0.0177198
0.0177195
0.0177192
0.0177189
0.0177186
0.0177182
0.0177179
0.0177176
0.0177173
0.017717
0.0177167
0.0177163
0.017716
0.0177157
0.0177154
0.0177151
0.0177147
0.0177144
0.0177141
0.0177138
0.0177135
0.0177131
0.0177128
0.0177125
0.0177122
0.0177119
0.0177116
0.0177112
0.0177109
0.0177106
0.0177103
0.01771
0.0177097
0.0177093
0.017709
0.0177087
0.0177084
0.0177081
0.0177078
0.0177074
0.0177071
0.0177068
0.0177065
0.0177062
0.0177059
0.0177055
0.0177052
0.0177049
0.0177046
0.0177043
0.017704
0.0177036
0.0177033
0.017703
0.0177027
0.0177024
0.0177021
0.0177017
0.0177014
0.0177011
0.0177008
0.0177005
0.0177002
0.0176998
0.0176995
0.0176992
0.0176989
0.0176986
0.0176983
0.0176979
0.0176976
0.0176973
0.017697
0.0176967
0.0176964
0.017696
0.0176957
0.0176954
0.0176951
0.0176948
0.0176945
0.0176942
0.0176938
0.0176935
0.0176932
0.0176929
0.0176926
0.0176923
0.0176919
0.0176916
0.0176913
0.017691
0.0176907
0.0176904
0.0176901
0.0176897
0.0176894
0.0176891
0.0176888
0.0176885
0.0176882
0.0176878
0.0176875
0.0176872
0.0176869
0.0176866
0.0176863
0.017686
0.0176856
0.0176853
0.017685
0.0176847
0.0176844
0.0176841
0.0176837
0.0176834
0.0176831
0.0176828
0.0176825
0.0176822
0.0176819
0.0176815
0.0176812
0.0176809
0.0176806
0.0176803
0.01768
0.0176796
0.0176793
0.017679
0.0176787
0.0176784
0.0176781
0.0176778
0.0176774
0.0176771
0.0176768
0.0176765
0.0176762
0.0176759
0.0176755
0.0176752
0.0176749
0.0176746
0.0176743
0.017674
0.0176737
0.0176733
0.017673
0.0176727
0.0176724
0.0176721
0.0176718
0.0176714
0.0176711
0.0176708
0.0176705
0.0176702
0.0176699
0.0176695
0.0176692
0.0176689
0.0176686
0.0176683
0.017668
0.0176677
0.0176673
0.017667
0.0176667
0.0176664
0.0176661
0.0176658
0.0176654
0.0176651
0.0176648
0.0176645
0.0176642
0.0176639
0.0176636
0.0176632
0.0176629
0.0176626
0.0176623
0.017662
0.0176617
0.0176613
0.017661
0.0176607
0.0176604
0.0176601
0.0176598
0.0176594
0.0176591
0.0176588
0.0176585
0.0176582
0.0176579
0.0176576
0.0176572
0.0176569
0.0176566
0.0176563
0.017656
0.0176557
0.0176553
0.017655
0.0176547
0.0176544
0.0176541
0.0176538
0.0176534
0.0176531
0.0176528
0.0176525
0.0176522
0.0176519
0.0176515
0.0176512
0.0176509
0.0176506
0.0176503
0.01765
0.0176497
0.0176493
0.017649
0.0176487
0.0176484
0.0176481
0.0176478
0.0176474
0.0176471
0.0176468
0.0176465
0.0176462
0.0176459
0.0176455
0.0176452
0.0176449
0.0176446
0.0176443
0.017644
0.0176436
0.0176433
0.017643
0.0176427
0.0176424
0.0176421
0.0176417
0.0176414
0.0176411
0.0176408
0.0176405
0.0176402
0.0176398
0.0176395
0.0176392
0.0176389
0.0176386
0.0176383
0.0176379
0.0176376
0.0176373
0.017637
0.0176367
0.0176364
0.017636
0.0176357
0.0176354
0.0176351
0.0176348
0.0176345
0.0176341
0.0176338
0.0176335
0.0176332
0.0176329
0.0176326
0.0176322
0.0176319
0.0176316
0.0176313
0.017631
0.0176307
0.0176303
0.01763
0.0176297
0.0176294
0.0176291
0.0176288
0.0176284
0.0176281
0.0176278
0.0176275
0.0176272
0.0176269
0.0176265
0.0176262
0.0176259
0.0176256
0.0176253
0.017625
0.0176246
0.0176243
0.017624
0.0176237
0.0176234
0.0176231
0.0176227
0.0176224
0.0176221
0.0176218
0.0176215
0.0176212
0.0176208
0.0176205
0.0176202
0.0176199
0.0176196
0.0176193
0.0176189
0.0176186
0.0176183
0.017618
0.0176177
0.0176174
0.017617
0.0176167
0.0176164
0.0176161
0.0176158
0.0176155
0.0176151
0.0176148
0.0176145
0.0176142
0.0176139
0.0176135
0.0176132
0.0176129
0.0176126
0.0176123
0.017612
0.0176116
0.0176113
0.017611
0.0176107
0.0176104
0.0176101
0.0176097
0.0176094
0.0176091
0.0176088
0.0176085
0.0176082
0.0176078
0.0176075
0.0176072
0.0176069
0.0176066
0.0176062
0.0176059
0.0176056
0.0176053
0.017605
0.0176047
0.0176043
0.017604
0.0176037
0.0176034
0.0176031
0.0176028
0.0176024
0.0176021
0.0176018
0.0176015
0.0176012
0.0176009
0.0176005
0.0176002
0.0175999
0.0175996
0.0175993
0.0175989
0.0175986
0.0175983
0.017598
0.0175977
0.0175974
0.017597
0.0175967
0.0175964
0.0175961
0.0175958
0.0175955
0.0175951
0.0175948
0.0175945
0.0175942
0.0175939
0.0175935
0.0175932
0.0175929
0.0175926
0.0175923
0.017592
0.0175916
0.0175913
0.017591
0.0175907
0.0175904
0.01759
0.0175897
0.0175894
0.0175891
0.0175888
0.0175885
0.0175881
0.0175878
0.0175875
0.0175872
0.0175869
0.0175865
0.0175862
0.0175859
0.0175856
0.0175853
0.017585
0.0175846
0.0175843
0.017584
0.0175837
0.0175834
0.017583
0.0175827
0.0175824
0.0175821
0.0175818
0.0175815
0.0175811
0.0175808
0.0175805
0.0175802
0.0175799
0.0175795
0.0175792
0.0175789
0.0175786
0.0175783
0.017578
0.0175776
0.0175773
0.017577
0.0175767
0.0175764
0.017576
0.0175757
0.0175754
0.0175751
0.0175748
0.0175745
0.0175741
0.0175738
0.0175735
0.0175732
0.0175729
0.0175725
0.0175722
0.0175719
0.0175716
0.0175713
0.017571
0.0175706
0.0175703
0.01757
0.0175697
0.0175694
0.017569
0.0175687
0.0175684
0.0175681
0.0175678
0.0175674
0.0175671
0.0175668
0.0175665
0.0175662
0.0175659
0.0175655
0.0175652
0.0175649
0.0175646
0.0175643
0.0175639
0.0175636
0.0175633
0.017563
0.0175626
0.0175623
0.017562
0.0175617
0.0175613
0.017561
0.0175607
0.0175603
0.01756
0.0175597
0.0175593
0.0175589
0.0175586
0.0175582
0.0175578
0.0175574
0.0175569
0.0175564
0.0175559
0.0175553
0.0175547
0.0175539
0.0175531
0.0175518
0.0175515
0.0175515
0.0175515
1
0.969186
0.495611
0.314217
0.23789
0.197388
0.172124
0.154686
0.141831
0.131917
0.124015
0.11756
0.112183
0.107631
0.103727
0.100339
0.0973702
0.0947452
0.0924059
0.090306
0.0884088
0.0866844
0.0851084
0.083661
0.0823254
0.0810879
0.0799367
0.0788622
0.0778557
0.0769104
0.0760199
0.0751791
0.0743833
0.0736284
0.0729111
0.0722281
0.0715768
0.0709548
0.0703598
0.06979
0.0692435
0.0687189
0.0682148
0.0677298
0.0672627
0.0668126
0.0663784
0.0659592
0.0655542
0.0651627
0.0647839
0.0644172
0.064062
0.0637176
0.0633837
0.0630598
0.0627452
0.0624397
0.0621429
0.0618543
0.0615737
0.0613006
0.0610348
0.0607761
0.060524
0.0602785
0.0600391
0.0598059
0.0595784
0.0593565
0.0591401
0.0589289
0.0587229
0.0585217
0.0583254
0.0581338
0.0579468
0.0577642
0.0575859
0.0574119
0.0572421
0.0570765
0.0569148
0.0567572
0.0566036
0.0564539
0.0563081
0.0561663
0.0560284
0.0558945
0.0557646
0.0556387
0.0555168
0.055399
0.0552854
0.0551758
0.0550705
0.0549692
0.0548721
0.054779
0.0546899
0.0546048
0.0545235
0.0544459
0.0543718
0.0543012
0.0542339
0.0541696
0.0541083
0.0540497
0.0539937
0.0539402
0.053889
0.0538399
0.0537928
0.0537477
0.0537044
0.0536628
0.0536229
0.0535846
0.0535477
0.0535124
0.0534784
0.0534458
0.0534146
0.0533846
0.0533558
0.0533283
0.053302
0.0532769
0.053253
0.0532302
0.0532084
0.0531877
0.053168
0.053149
0.0531309
0.0531134
0.0530966
0.0530803
0.0530646
0.0530495
0.053035
0.0530213
0.0530083
0.0529961
0.0529849
0.0529747
0.0529654
0.0529572
0.05295
0.0529437
0.0529383
0.0529338
0.0529299
0.0529267
0.052924
0.0529218
0.0529199
0.0529183
0.0529169
0.0529157
0.0529145
0.0529135
0.0529125
0.0529115
0.0529105
0.0529096
0.0529086
0.0529077
0.0529067
0.0529058
0.0529048
0.0529038
0.0529029
0.0529019
0.0529009
0.0529
0.052899
0.052898
0.0528971
0.0528961
0.0528951
0.0528942
0.0528932
0.0528922
0.0528913
0.0528903
0.0528893
0.0528884
0.0528874
0.0528864
0.0528855
0.0528845
0.0528835
0.0528825
0.0528816
0.0528806
0.0528796
0.0528787
0.0528777
0.0528767
0.0528758
0.0528748
0.0528738
0.0528729
0.0528719
0.0528709
0.05287
0.052869
0.052868
0.0528671
0.0528661
0.0528651
0.0528642
0.0528632
0.0528622
0.0528613
0.0528603
0.0528593
0.0528584
0.0528574
0.0528564
0.0528555
0.0528545
0.0528535
0.0528526
0.0528516
0.0528506
0.0528497
0.0528487
0.0528477
0.0528468
0.0528458
0.0528449
0.0528439
0.0528429
0.052842
0.052841
0.05284
0.0528391
0.0528381
0.0528371
0.0528362
0.0528352
0.0528343
0.0528333
0.0528323
0.0528314
0.0528304
0.0528295
0.0528285
0.0528275
0.0528266
0.0528256
0.0528247
0.0528237
0.0528227
0.0528218
0.0528208
0.0528199
0.0528189
0.0528179
0.052817
0.052816
0.0528151
0.0528141
0.0528131
0.0528122
0.0528112
0.0528103
0.0528093
0.0528084
0.0528074
0.0528064
0.0528055
0.0528045
0.0528036
0.0528026
0.0528017
0.0528007
0.0527997
0.0527988
0.0527978
0.0527969
0.0527959
0.052795
0.052794
0.0527931
0.0527921
0.0527912
0.0527902
0.0527892
0.0527883
0.0527873
0.0527864
0.0527854
0.0527845
0.0527835
0.0527826
0.0527816
0.0527807
0.0527797
0.0527788
0.0527778
0.0527769
0.0527759
0.052775
0.052774
0.0527731
0.0527721
0.0527712
0.0527702
0.0527693
0.0527683
0.0527673
0.0527664
0.0527654
0.0527645
0.0527635
0.0527626
0.0527616
0.0527607
0.0527597
0.0527588
0.0527578
0.0527569
0.0527559
0.052755
0.052754
0.0527531
0.0527521
0.0527512
0.0527503
0.0527493
0.0527484
0.0527474
0.0527465
0.0527455
0.0527446
0.0527436