# vtk DataFile Version 2.0
FlowField
ASCII
DATASET STRUCTURED_GRID
DIMENSIONS 800 1 200
POINTS 160000 float
0 0 0
0.04 0 0
0.08 0 0
0.12 0 0
0.16 0 0
0.2 0 0
0.24 0 0
0.28 0 0
0.32 0 0
0.36 0 0
0.4 0 0
0.44 0 0
0.48 0 0
0.52 0 0
0.56 0 0
0.6 0 0
0.64 0 0
0.68 0 0
0.72 0 0
0.76 0 0
0.8 0 0
0.84 0 0
0.88 0 0
0.92 0 0
0.96 0 0
1 0 0
1.04 0 0
1.08 0 0
1.12 0 0
1.16 0 0
1.2 0 0
1.24 0 0
1.28 0 0
1.32 0 0
1.36 0 0
1.4 0 0
1.44 0 0
1.48 0 0
1.52 0 0
1.56 0 0
1.6 0 0
1.64 0 0
1.68 0 0
1.72 0 0
1.76 0 0
1.8 0 0
1.84 0 0
1.88 0 0
1.92 0 0
1.96 0 0
2 0 0
2.04 0 0
2.08 0 0
2.12 0 0
2.16 0 0
2.2 0 0
2.24 0 0
2.28 0 0
2.32 0 0
2.36 0 0
2.4 0 0
2.44 0 0
2.48 0 0
2.52 0 0
2.56 0 0
2.6 0 0
2.64 0 0
2.68 0 0
2.72 0 0
2.76 0 0
2.8 0 0
2.84 0 0
2.88 0 0
2.92 0 0
2.96 0 0
3 0 0
3.04 0 0
3.08 0 0
3.12 0 0
3.16 0 0
3.2 0 0
3.24 0 0
3.28 0 0
3.32 0 0
3.36 0 0
3.4 0 0
3.44 0 0
3.48 0 0
3.52 0 0
3.56 0 0
3.6 0 0
3.64 0 0
3.68 0 0
3.72 0 0
3.76 0 0
3.8 0 0
3.84 0 0
3.88 0 0
3.92 0 0
3.96 0 0
4 0 0
4.04 0 0
4.08 0 0
4.12 0 0
4.16 0 0
4.2 0 0
4.24 0 0
4.28 0 0
4.32 0 0
4.36 0 0
4.4 0 0
4.44 0 0
4.48 0 0
4.52 0 0
4.56 0 0
4.6 0 0
4.64 0 0
4.68 0 0
4.72 0 0
4.76 0 0
4.8 0 0
4.84 0 0
4.88 0 0
4.92 0 0
4.96 0 0
5 0 0
5.04 0 0
5.08 0 0
5.12 0 0
5.16 0 0
5.2 0 0
5.24 0 0
5.28 0 0
5.32 0 0
5.36 0 0
5.4 0 0
5.44 0 0
5.48 0 0
5.52 0 0
5.56 0 0
5.6 0 0
5.64 0 0
5.68 0 0
5.72 0 0
5.76 0 0
5.8 0 0
5.84 0 0
5.88 0 0
5.92 0 0
5.96 0 0
6 0 0
6.04 0 0
6.08 0 0
6.12 0 0
6.16 0 0
6.2 0 0
6.24 0 0
6.28 0 0
6.32 0 0
6.36 0 0
6.4 0 0
6.44 0 0
6.48 0 0
6.52 0 0
6.56 0 0
6.6 0 0
6.64 0 0
6.68 0 0
6.72 0 0
6.76 0 0
6.8 0 0
6.84 0 0
6.88 0 0
6.92 0 0
6.96 0 0
7 0 0
7.04 0 0
7.08 0 0
7.12 0 0
7.16 0 0
7.2 0 0
7.24 0 0
7.28 0 0
7.32 0 0
7.36 0 0
7.4 0 0
7.44 0 0
7.48 0 0
7.52 0 0
7.56 0 0
7.6 0 0
7.64 0 0
7.68 0 0
7.72 0 0
7.76 0 0
7.8 0 0
7.84 0 0
7.88 0 0
7.92 0 0
7.96 0 0
8 0 0
8.04 0 0
8.08 0 0
8.12 0 0
8.16 0 0
8.2 0 0
8.24 0 0
8.28 0 0
8.32 0 0
8.36 0 0
8.4 0 0
8.44 0 0
8.48 0 0
8.52 0 0
8.56 0 0
8.6 0 0
8.64 0 0
8.68 0 0
8.72 0 0
8.76 0 0
8.8 0 0
8.84 0 0
8.88 0 0
8.92 0 0
8.96 0 0
9 0 0
9.04 0 0
9.08 0 0
9.12 0 0
9.16 0 0
9.2 0 0
9.24 0 0
9.28 0 0
9.32 0 0
9.36 0 0
9.4 0 0
9.44 0 0
9.48 0 0
9.52 0 0
9.56 0 0
9.6 0 0
9.64 0 0
9.68 0 0
9.72 0 0
9.76 0 0
9.8 0 0
9.84 0 0
9.88 0 0
9.92 0 0
9.96 0 0
10 0 0
10.04 0 0
10.08 0 0
10.12 0 0
10.16 0 0
10.2 0 0
10.24 0 0
10.28 0 0
10.32 0 0
10.36 0 0
10.4 0 0
10.44 0 0
10.48 0 0
10.52 0 0
10.56 0 0
10.6 0 0
10.64 0 0
10.68 0 0
10.72 0 0
10.76 0 0
10.8 0 0
10.84 0 0
10.88 0 0
10.92 0 0
10.96 0 0
11 0 0
11.04 0 0
11.08 0 0
11.12 0 0
11.16 0 0
11.2 0 0
11.24 0 0
11.28 0 0
11.32 0 0
11.36 0 0
11.4 0 0
11.44 0 0
11.48 0 0
11.52 0 0
11.56 0 0
11.6 0 0
11.64 0 0
11.68 0 0
11.72 0 0
11.76 0 0
11.8 0 0
11.84 0 0
11.88 0 0
11.92 0 0
11.96 0 0
12 0 0
12.04 0 0
12.08 0 0
12.12 0 0
12.16 0 0
12.2 0 0
12.24 0 0
12.28 0 0
12.32 0 0
12.36 0 0
12.4 0 0
12.44 0 0
12.48 0 0
12.52 0 0
12.56 0 0
12.6 0 0
12.64 0 0
12.68 0 0
12.72 0 0
12.76 0 0
12.8 0 0
12.84 0 0
12.88 0 0
12.92 0 0
12.96 0 0
13 0 0
13.04 0 0
13.08 0 0
13.12 0 0
13.16 0 0
13.2 0 0
13.24 0 0
13.28 0 0
13.32 0 0
13.36 0 0
13.4 0 0
13.44 0 0
13.48 0 0
13.52 0 0
13.56 0 0
13.6 0 0
13.64 0 0
13.68 0 0
13.72 0 0
13.76 0 0
13.8 0 0
13.84 0 0
13.88 0 0
13.92 0 0
13.96 0 0
14 0 0
14.04 0 0
14.08 0 0
14.12 0 0
14.16 0 0
14.2 0 0
14.24 0 0
14.28 0 0
14.32 0 0
14.36 0 0
14.4 0 0
14.44 0 0
14.48 0 0
14.52 0 0
14.56 0 0
14.6 0 0
14.64 0 0
14.68 0 0
14.72 0 0
14.76 0 0
14.8 0 0
14.84 0 0
14.88 0 0
14.92 0 0
14.96 0 0
15 0 0
15.04 0 0
15.08 0 0
15.12 0 0
15.16 0 0
15.2 0 0
15.24 0 0
15.28 0 0
15.32 0 0
15.36 0 0
15.4 0 0
15.44 0 0
15.48 0 0
15.52 0 0
15.56 0 0
15.6 0 0
15.64 0 0
15.68 0 0
15.72 0 0
15.76 0 0
15.8 0 0
15.84 0 0
15.88 0 0
15.92 0 0
15.96 0 0
16 0 0
16.04 0 0
16.08 0 0
16.12 0 0
16.16 0 0
16.2 0 0
16.24 0 0
16.28 0 0
16.32 0 0
16.36 0 0
16.4 0 0
16.44 0 0
16.48 0 0
16.52 0 0
16.56 0 0
16.6 0 0
16.64 0 0
16.68 0 0
16.72 0 0
16.76 0 0
16.8 0 0
16.84 0 0
16.88 0 0
16.92 0 0
16.96 0 0
17 0 0
17.04 0 0
17.08 0 0
17.12 0 0
17.16 0 0
17.2 0 0
17.24 0 0
17.28 0 0
17.32 0 0
17.36 0 0
17.4 0 0
17.44 0 0
17.48 0 0
17.52 0 0
17.56 0 0
17.6 0 0
17.64 0 0
17.68 0 0
17.72 0 0
17.76 0 0
17.8 0 0
17.84 0 0
17.88 0 0
17.92 0 0
17.96 0 0
18 0 0
18.04 0 0
18.08 0 0
18.12 0 0
18.16 0 0
18.2 0 0
18.24 0 0
18.28 0 0
18.32 0 0
18.36 0 0
18.4 0 0
18.44 0 0
18.48 0 0
18.52 0 0
18.56 0 0
18.6 0 0
18.64 0 0
18.68 0 0
18.72 0 0
18.76 0 0
18.8 0 0
18.84 0 0
18.88 0 0
18.92 0 0
18.96 0 0
19 0 0
19.04 0 0
19.08 0 0
19.12 0 0
19.16 0 0
19.2 0 0
19.24 0 0
19.28 0 0
19.32 0 0
19.36 0 0
19.4 0 0
19.44 0 0
19.48 0 0
19.52 0 0
19.56 0 0
19.6 0 0
19.64 0 0
19.68 0 0
19.72 0 0
19.76 0 0
19.8 0 0
19.84 0 0
19.88 0 0
19.92 0 0
19.96 0 0
20 0 0
20.04 0 0
20.08 0 0
20.12 0 0
20.16 0 0
20.2 0 0
20.24 0 0
20.28 0 0
20.32 0 0
20.36 0 0
20.4 0 0
20.44 0 0
20.48 0 0
20.52 0 0
20.56 0 0
20.6 0 0
20.64 0 0
20.68 0 0
20.72 0 0
20.76 0 0
20.8 0 0
20.84 0 0
20.88 0 0
20.92 0 0
20.96 0 0
21 0 0
21.04 0 0
21.08 0 0
21.12 0 0
21.16 0 0
21.2 0 0
21.24 0 0
21.28 0 0
21.32 0 0
21.36 0 0
21.4 0 0
21.44 0 0
21.48 0 0
21.52 0 0
21.56 0 0
21.6 0 0
21.64 0 0
21.68 0 0
21.72 0 0
21.76 0 0
21.8 0 0
21.84 0 0
21.88 0 0
21.92 0 0
21.96 0 0
22 0 0
22.04 0 0
22.08 0 0
22.12 0 0
22.16 0 0
22.2 0 0
22.24 0 0
22.28 0 0
22.32 0 0
22.36 0 0
22.4 0 0
22.44 0 0
22.48 0 0
22.52 0 0
22.56 0 0
22.6 0 0
22.64 0 0
22.68 0 0
22.72 0 0
22.76 0 0
22.8 0 0
22.84 0 0
22.88 0 0
22.92 0 0
22.96 0 0
23 0 0
23.04 0 0
23.08 0 0
23.12 0 0
23.16 0 0
23.2 0 0
23.24 0 0
23.28 0 0
23.32 0 0
23.36 0 0
23.4 0 0
23.44 0 0
23.48 0 0
23.52 0 0
23.56 0 0
23.6 0 0
23.64 0 0
23.68 0 0
23.72 0 0
23.76 0 0
23.8 0 0
23.84 0 0
23.88 0 0
23.92 0 0
23.96 0 0
24 0 0
24.04 0 0
24.08 0 0
24.12 0 0
24.16 0 0
24.2 0 0
24.24 0 0
24.28 0 0
24.32 0 0
24.36 0 0
24.4 0 0
24.44 0 0
24.48 0 0
24.52 0 0
24.56 0 0
24.6 0 0
24.64 0 0
24.68 0 0
24.72 0 0
24.76 0 0
24.8 0 0
24.84 0 0
24.88 0 0
24.92 0 0
24.96 0 0
25 0 0
25.04 0 0
25.08 0 0
25.12 0 0
25.16 0 0
25.2 0 0
25.24 0 0
25.28 0 0
25.32 0 0
25.36 0 0
25.4 0 0
25.44 0 0
25.48 0 0
25.52 0 0
25.56 0 0
25.6 0 0
25.64 0 0
25.68 0 0
25.72 0 0
25.76 0 0
25.8 0 0
25.84 0 0
25.88 0 0
25.92 0 0
25.96 0 0
26 0 0
26.04 0 0
26.08 0 0
26.12 0 0
26.16 0 0
26.2 0 0
26.24 0 0
26.28 0 0
26.32 0 0
26.36 0 0
26.4 0 0
26.44 0 0
26.48 0 0
26.52 0 0
26.56 0 0
26.6 0 0
26.64 0 0
26.68 0 0
26.72 0 0
26.76 0 0
26.8 0 0
26.84 0 0
26.88 0 0
26.92 0 0
26.96 0 0
27 0 0
27.04 0 0
27.08 0 0
27.12 0 0
27.16 0 0
27.2 0 0
27.24 0 0
27.28 0 0
27.32 0 0
27.36 0 0
27.4 0 0
27.44 0 0
27.48 0 0
27.52 0 0
27.56 0 0
27.6 0 0
27.64 0 0
27.68 0 0
27.72 0 0
27.76 0 0
27.8 0 0
27.84 0 0
27.88 0 0
27.92 0 0
27.96 0 0
28 0 0
28.04 0 0
28.08 0 0
28.12 0 0
28.16 0 0
28.2 0 0
28.24 0 0
28.28 0 0
28.32 0 0
28.36 0 0
28.4 0 0
28.44 0 0
28.48 0 0
28.52 0 0
28.56 0 0
28.6 0 0
28.64 0 0
28.68 0 0
28.72 0 0
28.76 0 0
28.8 0 0
28.84 0 0
28.88 0 0
28.92 0 0
28.96 0 0
29 0 0
29.04 0 0
29.08 0 0
29.12 0 0
29.16 0 0
29.2 0 0
29.24 0 0
29.28 0 0
29.32 0 0
29.36 0 0
29.4 0 0
29.44 0 0
29.48 0 0
29.52 0 0
29.56 0 0
29.6 0 0
29.64 0 0
29.68 0 0
29.72 0 0
29.76 0 0
29.8 0 0
29.84 0 0
29.88 0 0
29.92 0 0
29.96 0 0
30 0 0
30.04 0 0
30.08 0 0
30.12 0 0
30.16 0 0
30.2 0 0
30.24 0 0
30.28 0 0
30.32 0 0
30.36 0 0
30.4 0 0
30.44 0 0
30.48 0 0
30.52 0 0
30.56 0 0
30.6 0 0
30.64 0 0
30.68 0 0
30.72 0 0
30.76 0 0
30.8 0 0
30.84 0 0
30.88 0 0
30.92 0 0
30.96 0 0
31 0 0
31.04 0 0
31.08 0 0
31.12 0 0
31.16 0 0
31.2 0 0
31.24 0 0
31.28 0 0
31.32 0 0
31.36 0 0
31.4 0 0
31.44 0 0
31.48 0 0
31.52 0 0
31.56 0 0
31.6 0 0
31.64 0 0
31.68 0 0
31.72 0 0
31.76 0 0
31.8 0 0
31.84 0 0
31.88 0 0
31.92 0 0
31.96 0 0
0 0.005 0
0.04 0.005 0
0.08 0.005 0
0.12 0.005 0
0.16 0.005 0
0.2 0.005 0
0.24 0.005 0
0.28 0.005 0
0.32 0.005 0
0.36 0.005 0
0.4 0.005 0
0.44 0.005 0
0.48 0.005 0
0.52 0.005 0
0.56 0.005 0
0.6 0.005 0
0.64 0.005 0
0.68 0.005 0
0.72 0.005 0
0.76 0.005 0
0.8 0.005 0
0.84 0.005 0
0.88 0.005 0
0.92 0.005 0
0.96 0.005 0
1 0.005 0
1.04 0.005 0
1.08 0.005 0
1.12 0.005 0
1.16 0.005 0
1.2 0.005 0
1.24 0.005 0
1.28 0.005 0
1.32 0.005 0
1.36 0.005 0
1.4 0.005 0
1.44 0.005 0
1.48 0.005 0
1.52 0.005 0
1.56 0.005 0
1.6 0.005 0
1.64 0.005 0
1.68 0.005 0
1.72 0.005 0
1.76 0.005 0
1.8 0.005 0
1.84 0.005 0
1.88 0.005 0
1.92 0.005 0
1.96 0.005 0
2 0.005 0
2.04 0.005 0
2.08 0.005 0
2.12 0.005 0
2.16 0.005 0
2.2 0.005 0
2.24 0.005 0
2.28 0.005 0
2.32 0.005 0
2.36 0.005 0
2.4 0.005 0
2.44 0.005 0
2.48 0.005 0
2.52 0.005 0
2.56 0.005 0
2.6 0.005 0
2.64 0.005 0
2.68 0.005 0
2.72 0.005 0
2.76 0.005 0
2.8 0.005 0
2.84 0.005 0
2.88 0.005 0
2.92 0.005 0
2.96 0.005 0
3 0.005 0
3.04 0.005 0
3.08 0.005 0
3.12 0.005 0
3.16 0.005 0
3.2 0.005 0
3.24 0.005 0
3.28 0.005 0
3.32 0.005 0
3.36 0.005 0
3.4 0.005 0
3.44 0.005 0
3.48 0.005 0
3.52 0.005 0
3.56 0.005 0
3.6 0.005 0
3.64 0.005 0
3.68 0.005 0
3.72 0.005 0
3.76 0.005 0
3.8 0.005 0
3.84 0.005 0
3.88 0.005 0
3.92 0.005 0
3.96 0.005 0
4 0.005 0
4.04 0.005 0
4.08 0.005 0
4.12 0.005 0
4.16 0.005 0
4.2 0.005 0
4.24 0.005 0
4.28 0.005 0
4.32 0.005 0
4.36 0.005 0
4.4 0.005 0
4.44 0.005 0
4.48 0.005 0
4.52 0.005 0
4.56 0.005 0
4.6 0.005 0
4.64 0.005 0
4.68 0.005 0
4.72 0.005 0
4.76 0.005 0
4.8 0.005 0
4.84 0.005 0
4.88 0.005 0
4.92 0.005 0
4.96 0.005 0
5 0.005 0
5.04 0.005 0
5.08 0.005 0
5.12 0.005 0
5.16 0.005 0
5.2 0.005 0
5.24 0.005 0
5.28 0.005 0
5.32 0.005 0
5.36 0.005 0
5.4 0.005 0
5.44 0.005 0
5.48 0.005 0
5.52 0.005 0
5.56 0.005 0
5.6 0.005 0
5.64 0.005 0
5.68 0.005 0
5.72 0.005 0
5.76 0.005 0
5.8 0.005 0
5.84 0.005 0
5.88 0.005 0
5.92 0.005 0
5.96 0.005 0
6 0.005 0
6.04 0.005 0
6.08 0.005 0
6.12 0.005 0
6.16 0.005 0
6.2 0.005 0
6.24 0.005 0
6.28 0.005 0
6.32 0.005 0
6.36 0.005 0
6.4 0.005 0
6.44 0.005 0
6.48 0.005 0
6.52 0.005 0
6.56 0.005 0
6.6 0.005 0
6.64 0.005 0
6.68 0.005 0
6.72 0.005 0
6.76 0.005 0
6.8 0.005 0
6.84 0.005 0
6.88 0.005 0
6.92 0.005 0
6.96 0.005 0
7 0.005 0
7.04 0.005 0
7.08 0.005 0
7.12 0.005 0
7.16 0.005 0
7.2 0.005 0
7.24 0.005 0
7.28 0.005 0
7.32 0.005 0
7.36 0.005 0
7.4 0.005 0
[...]
POINT_DATA 160000

SCALARS v float 1
LOOKUP_TABLE default
0
0
0
0
0
0
0
0
0
0
0
0
0
0
0
0
0
0
0
0
0
0
0
0
0
0
0
0
0
0
0
0
0
0
0
0
0
0
0
0
0
0
0
0
0
0
0
0
0
0
0
0
0
0
0
0
0
0
0
0
0
0
0
0
0
0
0
0
0
0
0
0
0
0
0
0
0
0
0
0
0
0
0
0
0
0
0
0
0
0
0
0
0
0
0
0
0
0
0
0
0
0
0
0
0
0
0
0
0
0
0
0
0
0
0
0
0
0
0
0
0
0
0
0
0
0
0
0
0
0
0
0
0
0
0
0
0
0
0
0
0
0
0
0
0
0
0
0
0
0
0
0
0
0
0
0
0
0
0
0
0
0
0
0
0
0
0
0
0
0
0
0
0
0
0
0
0
0
0
0
0
0
0
0
0
0
0
0
0
0
0
0
0
0
0
0
0
0
0
0
0
0
0
0
0
0
0
0
0
0
0
0
0
0
0
0
0
0
0
0
0
0
0
0
0
0
0
0
0
0
0
0
0
0
0
0
0
0
0
0
0
0
0
0
0
0
0
0
0
0
0
0
0
0
0
0
0
0
0
0
0
0
0
0
0
0
0
0
0
0
0
0
0
0
0
0
0
0
0
0
0
0
0
0
0
0
0
0
0
0
0
0
0
0
0
0
0
0
0
0
0
0
0
0
0
0
0
0
0
0
0
0
0
0
0
0
0
0
0
0
0
0
0
0
0
0
0
0
0
0
0
0
0
0
0
0
0
0
0
0
0
0
0
0
0
0
0
0
0
0
0
0
0
0
0
0
0
0
0
0
0
0
0
0
0
0
0
0
0
0
0
0
0
0
0
0
0
0
0
0
0
0
0
0
0
0
0
0
0
0
0
0
0
0
0
0
0
0
0
0
0
0
0
0
0
0
0
0
0
0
0
0
0
0
0
0
0
0
0
0
0
0
0
0
0
0
0
0
0
0
0
0
0
0
0
0
0
0
0
0
0
0
0
0
0
0
0
0
0
0
0
0
0
0
0
0
0
0
0
0
0
0
0
0
0
0
0
0
0
0
0
0
0
0
0
0
0
0
0
0
0
0
0
0
0
0
0
0
0
0
0
0
0
0
0
0
0
0
0
0
0
0
0
0
0
0
0
0
0
0
0
0
0
0
0
0
0
0
0
0
0
0
0
0
0
0
0
0
0
0
0
0
0
0
0
0
0
0
0
0
0
0
0
0
0
0
0
0
0
0
0
0
0
0
0
0
0
0
0
0
0
0
0
0
0
0
0
0
0
0
0
0
0
0
0
0
0
0
0
0
0
0
0
0
0
0
0
0
0
0
0
0
0
0
0
0
0
0
0
0
0
0
0
0
0
0
0
0
0
0
0
0
0
0
0
0
0
0
0
0
0
0
0
0
0
0
0
0
0
0
0
0
0
0
0
0
0
0
0
0
0
0
0
0
0
0
0
0
0
0
0
0
0
0
0
0
0
0
0
0
0
0
0
0
0
0
0
0
0
0
0
0
0
0
0
0
0
0
0
0
0
0
0
0
0
0
0
0
0
0
0
0
0
0
0
0
0
0
0
0
0
0
0
0
0
0
0
0
0
0
0
0
0
0
0
0
0
0
0
0
0
0
0
0
0
0
0
0
0
0
0
0
0
0
0
0
0
0
0
0
0
0
0
0
0
0
0
0
0
0
0
0
0
0
0
0
0
0
0
0
0
0
0
0
0
0
0
0
0
0
0
0
0
0
0
0
0
0
0
0
0
0
0
0
0
0
0
0
0
0
0
0
0
0
0
0
0
0
0
0
0
0
0.0374169
0.00938209
0.00346886
0.0017672
0.00108167
0.000737843
0.000538979
0.000412326
0.000325999
0.000264162
0.000218171
0.00018295
0.00015533
0.000133238
0.000115268
0.000100439
8.80458e-05
7.75636e-05
6.85853e-05
6.07959e-05
5.39626e-05
4.79185e-05
4.25281e-05
3.7646e-05
3.30896e-05
2.86514e-05
2.41509e-05
1.9504e-05
1.47713e-05
1.01559e-05
5.9432e-06
2.40654e-06
-2.81684e-07
-2.09935e-06
-3.16941e-06
-3.71028e-06
-3.96696e-06
-4.14928e-06
-4.39503e-06
-4.76191e-06
-5.24168e-06
-5.78595e-06
-6.3326e-06
-6.82616e-06
-7.22913e-06
-7.52474e-06
-7.71432e-06
-7.81166e-06
-7.83698e-06
-7.81189e-06
-7.75595e-06
-7.6849e-06
-7.61017e-06
-7.5392e-06
-7.47614e-06
-7.42279e-06
-7.37935e-06
-7.34506e-06
-7.31872e-06
-7.29897e-06
-7.28448e-06
-7.27408e-06
-7.26677e-06
-7.26175e-06
-7.25839e-06
-7.2562e-06
-7.25481e-06
-7.25396e-06
-7.25344e-06
-7.25313e-06
-7.25293e-06
-7.25276e-06
-7.25259e-06
-7.25238e-06
-7.25211e-06
-7.25178e-06
-7.25137e-06
-7.25089e-06
-7.25032e-06
-7.24968e-06
-7.24895e-06
-7.24815e-06
-7.24727e-06
-7.2463e-06
-7.24526e-06
-7.24414e-06
-7.24295e-06
-7.24167e-06
-7.24032e-06
-7.23889e-06
-7.23739e-06
-7.2358e-06
-7.23414e-06
-7.2324e-06
-7.23059e-06
-7.22869e-06
-7.22672e-06
-7.22466e-06
-7.22253e-06
-7.22031e-06
-7.21802e-06
-7.21564e-06
-7.21318e-06
-7.21064e-06
-7.20802e-06
-7.20531e-06
-7.20253e-06
-7.19965e-06
-7.19669e-06
-7.19365e-06
-7.19052e-06
-7.18731e-06
-7.18401e-06
-7.18062e-06
-7.17714e-06
-7.17358e-06
-7.16993e-06
-7.16618e-06
-7.16235e-06
-7.15843e-06
-7.15441e-06
-7.1503e-06
-7.1461e-06
-7.14181e-06
-7.13742e-06
-7.13294e-06
-7.12836e-06
-7.12368e-06
-7.11891e-06
-7.11404e-06
-7.10907e-06
-7.10401e-06
-7.09884e-06
-7.09357e-06
-7.0882e-06
-7.08273e-06
-7.07715e-06
-7.07147e-06
-7.06569e-06
-7.0598e-06
-7.0538e-06
-7.04769e-06
-7.04148e-06
-7.03516e-06
-7.02872e-06
-7.02218e-06
-7.01552e-06
-7.00875e-06
-7.00187e-06
-6.99487e-06
-6.98775e-06
-6.98051e-06
-6.97316e-06
-6.96569e-06
-6.95809e-06
-6.95038e-06
-6.94254e-06
-6.93458e-06
-6.92649e-06
-6.91827e-06
-6.90993e-06
-6.90146e-06
-6.89285e-06
-6.88412e-06
-6.87525e-06
-6.86625e-06
-6.85711e-06
-6.84783e-06
-6.83841e-06
-6.82886e-06
-6.81916e-06
-6.80932e-06
-6.79933e-06
-6.7892e-06
-6.77892e-06
-6.76849e-06
-6.75791e-06
-6.74717e-06
-6.73628e-06
-6.72524e-06
-6.71403e-06
-6.70267e-06
-6.69114e-06
-6.67945e-06
-6.66759e-06
-6.65557e-06
-6.64337e-06
-6.631e-06
-6.61846e-06
-6.60574e-06
-6.59285e-06
-6.57977e-06
-6.56651e-06
-6.55307e-06
-6.53944e-06
-6.52561e-06
-6.51159e-06
-6.49738e-06
-6.48298e-06
-6.46837e-06
-6.45355e-06
-6.43854e-06
-6.42331e-06
-6.40787e-06
-6.39222e-06
-6.37634e-06
-6.36025e-06
-6.34394e-06
-6.3274e-06
-6.31062e-06
-6.29362e-06
-6.27637e-06
-6.25889e-06
-6.24116e-06
-6.22318e-06
-6.20496e-06
-6.18647e-06
-6.16773e-06
-6.14872e-06
-6.12945e-06
-6.1099e-06
-6.09008e-06
-6.06997e-06
-6.04959e-06
-6.02891e-06
-6.00793e-06
-5.98666e-06
-5.96508e-06
-5.9432e-06
-5.92099e-06
-5.89847e-06
-5.87563e-06
-5.85245e-06
-5.82893e-06
-5.80508e-06
-5.78087e-06
-5.75631e-06
-5.73139e-06
-5.7061e-06
-5.68044e-06
-5.65439e-06
-5.62796e-06
-5.60114e-06
-5.57391e-06
-5.54628e-06
-5.51823e-06
-5.48976e-06
-5.46086e-06
-5.43152e-06
-5.40173e-06
-5.37149e-06
-5.34079e-06
-5.30962e-06
-5.27797e-06
-5.24583e-06
-5.2132e-06
-5.18007e-06
-5.14642e-06
-5.11226e-06
-5.07756e-06
-5.04233e-06
-5.00655e-06
-4.97022e-06
-4.93333e-06
-4.89586e-06
-4.85782e-06
-4.81919e-06
-4.77996e-06
-4.74012e-06
-4.69968e-06
-4.65861e-06
-4.61692e-06
-4.5746e-06
-4.53164e-06
-4.48803e-06
-4.44377e-06
-4.39886e-06
-4.35329e-06
-4.30705e-06
-4.26014e-06
-4.21256e-06
-4.16431e-06
-4.11538e-06
-4.06579e-06
-4.01552e-06
-3.96457e-06
-3.91296e-06
-3.86069e-06
-3.80776e-06
-3.75418e-06
-3.69996e-06
-3.6451e-06
-3.58962e-06
-3.53354e-06
-3.47686e-06
-3.4196e-06
-3.36179e-06
-3.30344e-06
-3.24458e-06
-3.18523e-06
-3.12542e-06
-3.06518e-06
-3.00454e-06
-2.94354e-06
-2.88221e-06
-2.8206e-06
-2.75874e-06
-2.69669e-06
-2.63449e-06
-2.57219e-06
-2.50985e-06
-2.44753e-06
-2.38529e-06
-2.32319e-06
-2.26129e-06
-2.19968e-06
-2.13843e-06
-2.0776e-06
-2.01728e-06
-1.95756e-06
-1.89852e-06
-1.84025e-06
-1.78284e-06
-1.72639e-06
-1.671e-06
-1.61676e-06
-1.56378e-06
-1.51218e-06
-1.46205e-06
-1.41351e-06
-1.36667e-06
-1.32165e-06
-1.27856e-06
-1.23752e-06
-1.19866e-06
-1.16209e-06
-1.12793e-06
-1.09632e-06
-1.06736e-06
-1.04119e-06
-1.01793e-06
-9.97707e-07
-9.80633e-07
-9.66832e-07
-9.56425e-07
-9.49529e-07
-9.4626e-07
-9.46734e-07
-9.51058e-07
-9.59341e-07
-9.71691e-07
-9.88204e-07
-1.00898e-06
-1.03411e-06
-1.06368e-06
-1.09777e-06
-1.13646e-06
-1.17983e-06
-1.22794e-06
-1.28084e-06
-1.33859e-06
-1.40124e-06
-1.46883e-06
-1.54138e-06
-1.61892e-06
-1.70148e-06
-1.78905e-06
-1.88163e-06
-1.97923e-06
-2.08182e-06
-2.18938e-06
-2.30187e-06
-2.41927e-06
-2.54151e-06
-2.66854e-06
-2.8003e-06
-2.9367e-06
-3.07767e-06
-3.22312e-06
-3.37294e-06
-3.52703e-06
-3.68528e-06
-3.84756e-06
-4.01374e-06
-4.1837e-06
-4.35728e-06
-4.53434e-06
-4.71472e-06
-4.89826e-06
-5.0848e-06
-5.27417e-06
-5.46619e-06
-5.66068e-06
-5.85745e-06
-6.05634e-06
-6.25713e-06
-6.45965e-06
-6.6637e-06
-6.86908e-06
-7.0756e-06
-7.28307e-06
-7.49128e-06
-7.70005e-06
-7.90917e-06
-8.11845e-06
-8.32771e-06
-8.53674e-06
-8.74537e-06
-8.95342e-06
-9.16069e-06
-9.36701e-06
-9.57221e-06
-9.77613e-06
-9.97859e-06
-1.01794e-05
-1.03785e-05
-1.05757e-05
-1.07708e-05
-1.09637e-05
-1.11544e-05
-1.13425e-05
-1.15281e-05
-1.17111e-05
-1.18912e-05
-1.20685e-05
-1.22429e-05
-1.24142e-05
-1.25824e-05
-1.27474e-05
-1.29092e-05
-1.30676e-05
-1.32228e-05
-1.33745e-05
-1.35229e-05
-1.36677e-05
-1.38092e-05
-1.39471e-05
-1.40816e-05
-1.42125e-05
-1.434e-05
-1.4464e-05
-1.45846e-05
-1.47017e-05
-1.48153e-05
-1.49256e-05
-1.50326e-05
-1.51362e-05
-1.52365e-05
-1.53336e-05
-1.54275e-05
-1.55183e-05
-1.5606e-05
-1.56907e-05
-1.57724e-05
-1.58512e-05
-1.59272e-05
-1.60004e-05
-1.60709e-05
-1.61388e-05
-1.62041e-05
-1.62669e-05
-1.63273e-05
-1.63853e-05
-1.64411e-05
-1.64946e-05
-1.6546e-05
-1.65954e-05
-1.66427e-05
-1.66881e-05
-1.67317e-05
-1.67734e-05
-1.68135e-05
-1.68519e-05
-1.68887e-05
-1.6924e-05
-1.69578e-05
-1.69902e-05
-1.70213e-05
-1.70511e-05
-1.70797e-05
-1.71071e-05
-1.71334e-05
-1.71587e-05
-1.71829e-05
-1.72062e-05
-1.72286e-05
-1.72502e-05
-1.72709e-05
-1.72908e-05
-1.731e-05
-1.73285e-05
-1.73464e-05
-1.73636e-05
-1.73803e-05
-1.73964e-05
-1.7412e-05
-1.74271e-05
-1.74418e-05
-1.7456e-05
-1.74698e-05
-1.74832e-05
-1.74963e-05
-1.75091e-05
-1.75215e-05
-1.75337e-05
-1.75456e-05
-1.75572e-05
-1.75686e-05
-1.75798e-05
-1.75907e-05
-1.76015e-05
-1.76121e-05
-1.76226e-05
-1.76329e-05
-1.7643e-05
-1.76531e-05
-1.7663e-05
-1.76728e-05
-1.76825e-05
-1.76921e-05
-1.77016e-05
-1.7711e-05
-1.77204e-05
-1.77297e-05
-1.77389e-05
-1.77481e-05
-1.77572e-05
-1.77663e-05
-1.77753e-05
-1.77843e-05
-1.77932e-05
-1.78022e-05
-1.7811e-05
-1.78199e-05
-1.78288e-05
-1.78376e-05
-1.78464e-05
-1.78552e-05
-1.78639e-05
-1.78727e-05
-1.78814e-05
-1.78902e-05
-1.78989e-05
-1.79076e-05
-1.79163e-05
-1.7925e-05
-1.79337e-05
-1.79424e-05
-1.7951e-05
-1.79597e-05
-1.79684e-05
-1.79771e-05
-1.79857e-05
-1.79944e-05
-1.80031e-05
-1.80118e-05
-1.80204e-05
-1.80291e-05
-1.80378e-05
-1.80464e-05
-1.80551e-05
-1.80638e-05
-1.80725e-05
-1.80811e-05
-1.80898e-05
-1.80985e-05
-1.81072e-05
-1.81159e-05
-1.81246e-05
-1.81332e-05
-1.81419e-05
-1.81506e-05
-1.81593e-05
-1.8168e-05
-1.81767e-05
-1.81854e-05
-1.81942e-05
-1.82029e-05
-1.82116e-05
-1.82203e-05
-1.8229e-05
-1.82378e-05
-1.82465e-05
-1.82552e-05
-1.8264e-05
-1.82727e-05
-1.82814e-05
-1.82902e-05
-1.82989e-05
-1.83077e-05
-1.83164e-05
-1.83252e-05
-1.8334e-05
-1.83427e-05
-1.83515e-05
-1.83603e-05
-1.83691e-05
-1.83779e-05
-1.83866e-05
-1.83954e-05
-1.84042e-05
-1.8413e-05
-1.84218e-05
-1.84306e-05
-1.84394e-05
-1.84483e-05
-1.84571e-05
-1.84659e-05
-1.84747e-05
-1.84836e-05
-1.84924e-05
-1.85012e-05
-1.85101e-05
-1.85189e-05
-1.85278e-05
-1.85366e-05
-1.85455e-05
-1.85543e-05
-1.85632e-05
-1.85721e-05
-1.8581e-05
-1.85898e-05
-1.85987e-05
-1.86076e-05
-1.86165e-05
-1.86254e-05
-1.86343e-05
-1.86432e-05
-1.86521e-05
-1.8661e-05
-1.867e-05
-1.86789e-05
-1.86878e-05
-1.86968e-05
-1.87057e-05
-1.87146e-05
-1.87236e-05
-1.87325e-05
-1.87415e-05
-1.87504e-05
-1.87594e-05
-1.87684e-05
-1.87774e-05
-1.87863e-05
-1.87953e-05
-1.88043e-05
-1.88133e-05
-1.88223e-05
-1.88313e-05
-1.88403e-05
-1.88493e-05
-1.88584e-05
-1.88674e-05
-1.88764e-05
-1.88855e-05
-1.88945e-05
-1.89035e-05
-1.89126e-05
-1.89216e-05
-1.89307e-05
-1.89398e-05
-1.89488e-05
-1.89579e-05
-1.8967e-05
-1.89761e-05
-1.89852e-05
-1.89943e-05
-1.90034e-05
-1.90125e-05
-1.90216e-05
-1.90307e-05
-1.90398e-05
-1.9049e-05
-1.90581e-05
-1.90672e-05
-1.90764e-05
-1.90855e-05
-1.90947e-05
-1.91038e-05
-1.9113e-05
-1.91222e-05
-1.91314e-05
-1.91406e-05
-1.91497e-05
-1.91589e-05
-1.91681e-05
-1.91773e-05
-1.91866e-05
-1.91958e-05
-1.9205e-05
-1.92142e-05
-1.92235e-05
-1.92327e-05
-1.9242e-05
-1.92512e-05
-1.92605e-05
-1.92697e-05
-1.9279e-05
-1.92883e-05
-1.92976e-05
-1.93069e-05
-1.93162e-05
-1.93255e-05
-1.93348e-05
-1.93441e-05
-1.93534e-05
-1.93627e-05
-1.93721e-05
-1.93814e-05
-1.93907e-05
-1.94001e-05
-1.94094e-05
-1.94188e-05
-1.94282e-05
-1.94376e-05
-1.94469e-05
-1.94563e-05
-1.94657e-05
-1.94751e-05
-1.94845e-05
-1.94939e-05
-1.95034e-05
-1.95128e-05
-1.95222e-05
-1.95317e-05
-1.95411e-05
-1.95506e-05
-1.956e-05
-1.95695e-05
-1.9579e-05
-1.95884e-05
-1.95979e-05
-1.96074e-05
-1.96169e-05
-1.96264e-05
-1.96359e-05
-1.96455e-05
-1.9655e-05
-1.96645e-05
-1.96741e-05
-1.96836e-05
-1.96932e-05
-1.97027e-05
-1.97123e-05
-1.97219e-05
-1.97314e-05
-1.9741e-05
-1.97506e-05
-1.97602e-05
-1.97698e-05
-1.97795e-05
-1.97891e-05
-1.97987e-05
-1.98083e-05
-1.9818e-05
-1.98276e-05
-1.98373e-05
-1.9847e-05
-1.98566e-05
-1.98663e-05
-1.9876e-05
-1.98856e-05
-1.98953e-05
-1.9905e-05
-1.99147e-05
-1.99244e-05
-1.99341e-05
-1.99437e-05
-1.99534e-05
-1.9963e-05
-1.99727e-05
-1.99823e-05
-1.99919e-05
-2.00014e-05
-2.00109e-05
-2.00203e-05
-2.00296e-05
-2.00388e-05
-2.00478e-05
-2.00567e-05
-2.00652e-05
-2.00737e-05
-2.00813e-05
-2.00894e-05
-2.00953e-05
-2.01028e-05
-2.01056e-05
-2.0113e-05
-2.01094e-05
-2.01187e-05
-2.01001e-05
-2.01198e-05
-2.0059e-05
-2.01288e-05
-1.99097e-05
-2.04337e-05
-1.42444e-05
-1.42444e-05
0
0
0.0966112
0.0320534
0.0130066
0.00682666
0.00423616
0.00291395
0.00214196
0.00164745
0.00130906
0.00106597
0.000884779
0.000745749
0.000636542
0.000549064
0.00047781
0.000418935
0.000369668
0.000327932
0.000292122
0.000261006
0.000233673
0.000209459
0.000187802
0.000168094
0.000149602
0.000131543
0.000113291
9.46298e-05
7.58911e-05
5.79027e-05
4.17324e-05
2.83337e-05
1.82386e-05
1.14137e-05
7.31468e-06
5.08984e-06
3.83563e-06
2.81069e-06
1.55288e-06
-1.08011e-07
-2.11369e-06
-4.2756e-06
-6.36984e-06
-8.20694e-06
-9.66764e-06
-1.07085e-05
-1.13493e-05
-1.16512e-05
-1.16947e-05
-1.15619e-05
-1.13253e-05
-1.10416e-05
-1.07512e-05
-1.04799e-05
-1.02413e-05
-1.00409e-05
-9.87844e-06
-9.75061e-06
-9.65255e-06
-9.579e-06
-9.52497e-06
-9.48606e-06
-9.45861e-06
-9.43964e-06
-9.42684e-06
-9.41843e-06
-9.41309e-06
-9.40983e-06
-9.40797e-06
-9.40699e-06
-9.40654e-06
-9.4064e-06
-9.40639e-06
-9.40641e-06
-9.40639e-06
-9.4063e-06
-9.40611e-06
-9.40581e-06
-9.40538e-06
-9.40484e-06
-9.40418e-06
-9.4034e-06
-9.4025e-06
-9.4015e-06
-9.40039e-06
-9.39917e-06
-9.39785e-06
-9.39643e-06
-9.3949e-06
-9.39328e-06
-9.39156e-06
-9.38974e-06
-9.38782e-06
-9.3858e-06
-9.38368e-06
-9.38146e-06
-9.37915e-06
-9.37673e-06
-9.37422e-06
-9.3716e-06
-9.36889e-06
-9.36607e-06
-9.36315e-06
-9.36013e-06
-9.35701e-06
-9.35378e-06
-9.35045e-06
-9.34701e-06
-9.34347e-06
-9.33983e-06
-9.33607e-06
-9.33222e-06
-9.32825e-06
-9.32417e-06
-9.31999e-06
-9.3157e-06
-9.31129e-06
-9.30678e-06
-9.30215e-06
-9.29741e-06
-9.29256e-06
-9.28759e-06
-9.2825e-06
-9.27731e-06
-9.27199e-06
-9.26656e-06
-9.26101e-06
-9.25534e-06
-9.24955e-06
-9.24363e-06
-9.2376e-06
-9.23145e-06
-9.22517e-06
-9.21876e-06
-9.21223e-06
-9.20558e-06
-9.19879e-06
-9.19188e-06
-9.18484e-06
-9.17767e-06
-9.17036e-06
-9.16293e-06
-9.15535e-06
-9.14765e-06
-9.13981e-06
-9.13183e-06
-9.12371e-06
-9.11546e-06
-9.10706e-06
-9.09852e-06
-9.08983e-06
-9.08101e-06
-9.07204e-06
-9.06292e-06
-9.05365e-06
-9.04423e-06
-9.03466e-06
-9.02494e-06
-9.01506e-06
-9.00503e-06
-8.99484e-06
-8.9845e-06
-8.97399e-06
-8.96332e-06
-8.95249e-06
-8.94149e-06
-8.93033e-06
-8.919e-06
-8.9075e-06
-8.89583e-06
-8.88398e-06
-8.87196e-06
-8.85977e-06
-8.84739e-06
-8.83483e-06
-8.8221e-06
-8.80917e-06
-8.79607e-06
-8.78277e-06
-8.76928e-06
-8.7556e-06
-8.74172e-06
-8.72765e-06
-8.71338e-06
-8.69891e-06
-8.68423e-06
-8.66935e-06
-8.65426e-06
-8.63896e-06
-8.62344e-06
-8.60771e-06
-8.59177e-06
-8.57559e-06
-8.5592e-06
-8.54258e-06
-8.52573e-06
-8.50865e-06
-8.49133e-06
-8.47378e-06
-8.45598e-06
-8.43794e-06
-8.41965e-06
-8.40111e-06
-8.38232e-06
-8.36327e-06
-8.34396e-06
-8.32439e-06
-8.30455e-06
-8.28443e-06
-8.26405e-06
-8.24338e-06
-8.22243e-06
-8.2012e-06
-8.17967e-06
-8.15785e-06
-8.13573e-06
-8.1133e-06
-8.09057e-06
-8.06753e-06
-8.04417e-06
-8.02049e-06
-7.99648e-06
-7.97214e-06
-7.94747e-06
-7.92245e-06
-7.89709e-06
-7.87138e-06
-7.84531e-06
-7.81887e-06
-7.79207e-06
-7.7649e-06
-7.73734e-06
-7.7094e-06
-7.68107e-06
-7.65234e-06
-7.62321e-06
-7.59366e-06
-7.5637e-06
-7.53332e-06
-7.5025e-06
-7.47125e-06
-7.43956e-06
-7.40741e-06
-7.3748e-06
-7.34173e-06
-7.30818e-06
-7.27416e-06
-7.23964e-06
-7.20463e-06
-7.16912e-06
-7.13309e-06
-7.09655e-06
-7.05948e-06
-7.02188e-06
-6.98373e-06
-6.94503e-06
-6.90578e-06
-6.86596e-06
-6.82556e-06
-6.78458e-06
-6.74302e-06
-6.70086e-06
-6.65809e-06
-6.61471e-06
-6.57072e-06
-6.5261e-06
-6.48085e-06
-6.43497e-06
-6.38844e-06
-6.34126e-06
-6.29343e-06
-6.24494e-06
-6.19579e-06
-6.14597e-06
-6.09549e-06
-6.04433e-06
-5.99251e-06
-5.94001e-06
-5.88684e-06
-5.83299e-06
-5.77849e-06
-5.72331e-06
-5.66747e-06
-5.61098e-06
-5.55384e-06
-5.49605e-06
-5.43764e-06
-5.3786e-06
-5.31896e-06
-5.25873e-06
-5.19792e-06
-5.13655e-06
-5.07464e-06
-5.01222e-06
-4.9493e-06
-4.88592e-06
-4.82211e-06
-4.75788e-06
-4.69329e-06
-4.62837e-06
-4.56314e-06
-4.49767e-06
-4.43199e-06
-4.36614e-06
-4.30019e-06
-4.23418e-06
-4.16817e-06
-4.10222e-06
-4.0364e-06
-3.97076e-06
-3.90539e-06
-3.84036e-06
-3.77573e-06
-3.71159e-06
-3.64803e-06
-3.58514e-06
-3.52299e-06
-3.46169e-06
-3.40133e-06
-3.34202e-06
-3.28385e-06
-3.22694e-06
-3.17139e-06
-3.11731e-06
-3.06483e-06
-3.01406e-06
-2.96511e-06
-2.91812e-06
-2.87321e-06
-2.8305e-06
-2.79013e-06
-2.75223e-06
-2.71692e-06
-2.68434e-06
-2.65464e-06
-2.62793e-06
-2.60436e-06
-2.58406e-06
-2.56716e-06
-2.55381e-06
-2.54414e-06
-2.53827e-06
-2.53634e-06
-2.53848e-06
-2.54481e-06
-2.55546e-06
-2.57054e-06
-2.59019e-06
-2.6145e-06
-2.6436e-06
-2.67759e-06
-2.71655e-06
-2.7606e-06
-2.80983e-06
-2.86431e-06
-2.92411e-06
-2.98932e-06
-3.06001e-06
-3.13622e-06
-3.218e-06
-3.30539e-06
-3.39844e-06
-3.49716e-06
-3.60157e-06
-3.71169e-06
-3.8275e-06
-3.949e-06
-4.07617e-06
-4.20899e-06
-4.34741e-06
-4.49139e-06
-4.64087e-06
-4.79578e-06
-4.95606e-06
-5.12162e-06
-5.29235e-06
-5.46817e-06
-5.64896e-06
-5.8346e-06
-6.02496e-06
-6.2199e-06
-6.41928e-06
-6.62294e-06
-6.83073e-06
-7.04247e-06
-7.25799e-06
-7.47711e-06
-7.69965e-06
-7.9254e-06
-8.15418e-06
-8.38577e-06
-8.61998e-06
-8.85659e-06
-9.09538e-06
-9.33615e-06
-9.57867e-06
-9.82271e-06
-1.00681e-05
-1.03145e-05
-1.05618e-05
-1.08097e-05
-1.10581e-05
-1.13066e-05
-1.15551e-05
-1.18034e-05
-1.20512e-05
-1.22983e-05
-1.25446e-05
-1.27898e-05
-1.30337e-05
-1.32761e-05
-1.35168e-05
-1.37557e-05
-1.39926e-05
-1.42273e-05
-1.44596e-05
-1.46894e-05
-1.49165e-05
-1.51408e-05
-1.53621e-05
-1.55804e-05
-1.57954e-05
-1.60072e-05
-1.62155e-05
-1.64203e-05
-1.66214e-05
-1.68189e-05
-1.70126e-05
-1.72025e-05
-1.73885e-05
-1.75705e-05
-1.77486e-05
-1.79226e-05
-1.80926e-05
-1.82585e-05
-1.84203e-05
-1.8578e-05
-1.87317e-05
-1.88813e-05
-1.90268e-05
-1.91682e-05
-1.93057e-05
-1.94391e-05
-1.95686e-05
-1.96942e-05
-1.98159e-05
-1.99337e-05
-2.00478e-05
-2.01582e-05
-2.0265e-05
-2.03682e-05
-2.04678e-05
-2.0564e-05
-2.06568e-05
-2.07464e-05
-2.08327e-05
-2.09158e-05
-2.09959e-05
-2.1073e-05
-2.11472e-05
-2.12186e-05
-2.12873e-05
-2.13533e-05
-2.14167e-05
-2.14777e-05
-2.15362e-05
-2.15925e-05
-2.16464e-05
-2.16983e-05
-2.1748e-05
-2.17958e-05
-2.18416e-05
-2.18856e-05
-2.19278e-05
-2.19683e-05
-2.20072e-05
-2.20445e-05
-2.20803e-05
-2.21148e-05
-2.21478e-05
-2.21796e-05
-2.22102e-05
-2.22395e-05
-2.22678e-05
-2.2295e-05
-2.23212e-05
-2.23465e-05
-2.23708e-05
-2.23943e-05
-2.2417e-05
-2.2439e-05
-2.24602e-05
-2.24807e-05
-2.25006e-05
-2.25199e-05
-2.25386e-05
-2.25568e-05
-2.25745e-05
-2.25917e-05
-2.26084e-05
-2.26248e-05
-2.26408e-05
-2.26564e-05
-2.26716e-05
-2.26866e-05
-2.27013e-05
-2.27156e-05
-2.27298e-05
-2.27437e-05
-2.27573e-05
-2.27708e-05
-2.27841e-05
-2.27972e-05
-2.28101e-05
-2.28229e-05
-2.28355e-05
-2.2848e-05
-2.28604e-05
-2.28727e-05
-2.28848e-05
-2.28969e-05
-2.29089e-05
-2.29208e-05
-2.29327e-05
-2.29445e-05
-2.29562e-05
-2.29678e-05
-2.29794e-05
-2.2991e-05
-2.30025e-05
-2.3014e-05
-2.30255e-05
-2.30369e-05
-2.30483e-05
-2.30596e-05
-2.3071e-05
-2.30823e-05
-2.30936e-05
-2.31049e-05
-2.31162e-05
-2.31274e-05
-2.31387e-05
-2.31499e-05
-2.31611e-05
-2.31723e-05
-2.31836e-05
-2.31948e-05
-2.3206e-05
-2.32172e-05
-2.32284e-05
-2.32396e-05
-2.32507e-05
-2.32619e-05
-2.32731e-05
-2.32843e-05
-2.32955e-05
-2.33067e-05
-2.33179e-05
-2.33291e-05
-2.33403e-05
-2.33515e-05
-2.33627e-05
-2.33739e-05
-2.33851e-05
-2.33963e-05
-2.34075e-05
-2.34187e-05
-2.34299e-05
-2.34411e-05
-2.34523e-05
-2.34636e-05
-2.34748e-05
-2.3486e-05
-2.34973e-05
-2.35085e-05
-2.35198e-05
-2.3531e-05
-2.35423e-05
-2.35535e-05
-2.35648e-05
-2.3576e-05
-2.35873e-05
-2.35986e-05
-2.36098e-05
-2.36211e-05
-2.36324e-05
-2.36437e-05
-2.3655e-05
-2.36663e-05
-2.36776e-05
-2.36889e-05
-2.37002e-05
-2.37115e-05
-2.37229e-05
-2.37342e-05
-2.37455e-05
-2.37569e-05
-2.37682e-05
-2.37796e-05
-2.37909e-05
-2.38023e-05
-2.38136e-05
-2.3825e-05
-2.38364e-05
-2.38477e-05
-2.38591e-05
-2.38705e-05
-2.38819e-05
-2.38933e-05
-2.39047e-05
-2.39161e-05
-2.39275e-05
-2.39389e-05
-2.39504e-05
-2.39618e-05
-2.39732e-05
-2.39847e-05
-2.39961e-05
-2.40076e-05
-2.4019e-05
-2.40305e-05
-2.4042e-05
-2.40534e-05
-2.40649e-05
-2.40764e-05
-2.40879e-05
-2.40994e-05
-2.41109e-05
-2.41224e-05
-2.41339e-05