# vtk DataFile Version 2.0
FlowField
ASCII
DATASET STRUCTURED_GRID
DIMENSIONS 800 1 200
POINTS 160000 float
0 0 0
0.04 0 0
0.08 0 0
0.12 0 0
0.16 0 0
0.2 0 0
0.24 0 0
0.28 0 0
0.32 0 0
0.36 0 0
0.4 0 0
0.44 0 0
0.48 0 0
0.52 0 0
0.56 0 0
0.6 0 0
0.64 0 0
0.68 0 0
0.72 0 0
0.76 0 0
0.8 0 0
0.84 0 0
0.88 0 0
0.92 0 0
0.96 0 0
1 0 0
1.04 0 0
1.08 0 0
1.12 0 0
1.16 0 0
1.2 0 0
1.24 0 0
1.28 0 0
1.32 0 0
1.36 0 0
1.4 0 0
1.44 0 0
1.48 0 0
1.52 0 0
1.56 0 0
1.6 0 0
1.64 0 0
1.68 0 0
1.72 0 0
1.76 0 0
1.8 0 0
1.84 0 0
1.88 0 0
1.92 0 0
1.96 0 0
2 0 0
2.04 0 0
2.08 0 0
2.12 0 0
2.16 0 0
2.2 0 0
2.24 0 0
2.28 0 0
2.32 0 0
2.36 0 0
2.4 0 0
2.44 0 0
2.48 0 0
2.52 0 0
2.56 0 0
2.6 0 0
2.64 0 0
2.68 0 0
2.72 0 0
2.76 0 0
2.8 0 0
2.84 0 0
2.88 0 0
2.92 0 0
2.96 0 0
3 0 0
3.04 0 0
3.08 0 0
3.12 0 0
3.16 0 0
3.2 0 0
3.24 0 0
3.28 0 0
3.32 0 0
3.36 0 0
3.4 0 0
3.44 0 0
3.48 0 0
3.52 0 0
3.56 0 0
3.6 0 0
3.64 0 0
3.68 0 0
3.72 0 0
3.76 0 0
3.8 0 0
3.84 0 0
3.88 0 0
3.92 0 0
3.96 0 0
4 0 0
4.04 0 0
4.08 0 0
4.12 0 0
4.16 0 0
4.2 0 0
4.24 0 0
4.28 0 0
4.32 0 0
4.36 0 0
4.4 0 0
4.44 0 0
4.48 0 0
4.52 0 0
4.56 0 0
4.6 0 0
4.64 0 0
4.68 0 0
4.72 0 0
4.76 0 0
4.8 0 0
4.84 0 0
4.88 0 0
4.92 0 0
4.96 0 0
5 0 0
5.04 0 0
5.08 0 0
5.12 0 0
5.16 0 0
5.2 0 0
5.24 0 0
5.28 0 0
5.32 0 0
5.36 0 0
5.4 0 0
5.44 0 0
5.48 0 0
5.52 0 0
5.56 0 0
5.6 0 0
5.64 0 0
5.68 0 0
5.72 0 0
5.76 0 0
5.8 0 0
5.84 0 0
5.88 0 0
5.92 0 0
5.96 0 0
6 0 0
6.04 0 0
6.08 0 0
6.12 0 0
6.16 0 0
6.2 0 0
6.24 0 0
6.28 0 0
6.32 0 0
6.36 0 0
6.4 0 0
6.44 0 0
6.48 0 0
6.52 0 0
6.56 0 0
6.6 0 0
6.64 0 0
6.68 0 0
6.72 0 0
6.76 0 0
6.8 0 0
6.84 0 0
6.88 0 0
6.92 0 0
6.96 0 0
7 0 0
7.04 0 0
7.08 0 0
7.12 0 0
7.16 0 0
7.2 0 0
7.24 0 0
7.28 0 0
7.32 0 0
7.36 0 0
7.4 0 0
7.44 0 0
7.48 0 0
7.52 0 0
7.56 0 0
7.6 0 0
7.64 0 0
7.68 0 0
7.72 0 0
7.76 0 0
7.8 0 0
7.84 0 0
7.88 0 0
7.92 0 0
7.96 0 0
8 0 0
8.04 0 0
8.08 0 0
8.12 0 0
8.16 0 0
8.2 0 0
8.24 0 0
8.28 0 0
8.32 0 0
8.36 0 0
8.4 0 0
8.44 0 0
8.48 0 0
8.52 0 0
8.56 0 0
8.6 0 0
8.64 0 0
8.68 0 0
8.72 0 0
8.76 0 0
8.8 0 0
8.84 0 0
8.88 0 0
8.92 0 0
8.96 0 0
9 0 0
9.04 0 0
9.08 0 0
9.12 0 0
9.16 0 0
9.2 0 0
9.24 0 0
9.28 0 0
9.32 0 0
9.36 0 0
9.4 0 0
9.44 0 0
9.48 0 0
9.52 0 0
9.56 0 0
9.6 0 0
9.64 0 0
9.68 0 0
9.72 0 0
9.76 0 0
9.8 0 0
9.84 0 0
9.88 0 0
9.92 0 0
9.96 0 0
10 0 0
10.04 0 0
10.08 0 0
10.12 0 0
10.16 0 0
10.2 0 0
10.24 0 0
10.28 0 0
10.32 0 0
10.36 0 0
10.4 0 0
10.44 0 0
10.48 0 0
10.52 0 0
10.56 0 0
10.6 0 0
10.64 0 0
10.68 0 0
10.72 0 0
10.76 0 0
10.8 0 0
10.84 0 0
10.88 0 0
10.92 0 0
10.96 0 0
11 0 0
11.04 0 0
11.08 0 0
11.12 0 0
11.16 0 0
11.2 0 0
11.24 0 0
11.28 0 0
11.32 0 0
11.36 0 0
11.4 0 0
11.44 0 0
11.48 0 0
11.52 0 0
11.56 0 0
11.6 0 0
11.64 0 0
11.68 0 0
11.72 0 0
11.76 0 0
11.8 0 0
11.84 0 0
11.88 0 0
11.92 0 0
11.96 0 0
12 0 0
12.04 0 0
12.08 0 0
12.12 0 0
12.16 0 0
12.2 0 0
12.24 0 0
12.28 0 0
12.32 0 0
12.36 0 0
12.4 0 0
12.44 0 0
12.48 0 0
12.52 0 0
12.56 0 0
12.6 0 0
12.64 0 0
12.68 0 0
12.72 0 0
12.76 0 0
12.8 0 0
12.84 0 0
12.88 0 0
12.92 0 0
12.96 0 0
13 0 0
13.04 0 0
13.08 0 0
13.12 0 0
13.16 0 0
13.2 0 0
13.24 0 0
13.28 0 0
13.32 0 0
13.36 0 0
13.4 0 0
13.44 0 0
13.48 0 0
13.52 0 0
13.56 0 0
13.6 0 0
13.64 0 0
13.68 0 0
13.72 0 0
13.76 0 0
13.8 0 0
13.84 0 0
13.88 0 0
13.92 0 0
13.96 0 0
14 0 0
14.04 0 0
14.08 0 0
14.12 0 0
14.16 0 0
14.2 0 0
14.24 0 0
14.28 0 0
14.32 0 0
14.36 0 0
14.4 0 0
14.44 0 0
14.48 0 0
14.52 0 0
14.56 0 0
14.6 0 0
14.64 0 0
14.68 0 0
14.72 0 0
14.76 0 0
14.8 0 0
14.84 0 0
14.88 0 0
14.92 0 0
14.96 0 0
15 0 0
15.04 0 0
15.08 0 0
15.12 0 0
15.16 0 0
15.2 0 0
15.24 0 0
15.28 0 0
15.32 0 0
15.36 0 0
15.4 0 0
15.44 0 0
15.48 0 0
15.52 0 0
15.56 0 0
15.6 0 0
15.64 0 0
15.68 0 0
15.72 0 0
15.76 0 0
15.8 0 0
15.84 0 0
15.88 0 0
15.92 0 0
15.96 0 0
16 0 0
16.04 0 0
16.08 0 0
16.12 0 0
16.16 0 0
16.2 0 0
16.24 0 0
16.28 0 0
16.32 0 0
16.36 0 0
16.4 0 0
16.44 0 0
16.48 0 0
16.52 0 0
16.56 0 0
16.6 0 0
16.64 0 0
16.68 0 0
16.72 0 0
16.76 0 0
16.8 0 0
16.84 0 0
16.88 0 0
16.92 0 0
16.96 0 0
17 0 0
17.04 0 0
17.08 0 0
17.12 0 0
17.16 0 0
17.2 0 0
17.24 0 0
17.28 0 0
17.32 0 0
17.36 0 0
17.4 0 0
17.44 0 0
17.48 0 0
17.52 0 0
17.56 0 0
17.6 0 0
17.64 0 0
17.68 0 0
17.72 0 0
17.76 0 0
17.8 0 0
17.84 0 0
17.88 0 0
17.92 0 0
17.96 0 0
18 0 0
18.04 0 0
18.08 0 0
18.12 0 0
18.16 0 0
18.2 0 0
18.24 0 0
18.28 0 0
18.32 0 0
18.36 0 0
18.4 0 0
18.44 0 0
18.48 0 0
18.52 0 0
18.56 0 0
18.6 0 0
18.64 0 0
18.68 0 0
18.72 0 0
18.76 0 0
18.8 0 0
18.84 0 0
18.88 0 0
18.92 0 0
18.96 0 0
19 0 0
19.04 0 0
19.08 0 0
19.12 0 0
19.16 0 0
19.2 0 0
19.24 0 0
19.28 0 0
19.32 0 0
19.36 0 0
19.4 0 0
19.44 0 0
19.48 0 0
19.52 0 0
19.56 0 0
19.6 0 0
19.64 0 0
19.68 0 0
19.72 0 0
19.76 0 0
19.8 0 0
19.84 0 0
19.88 0 0
19.92 0 0
19.96 0 0
20 0 0
20.04 0 0
20.08 0 0
20.12 0 0
20.16 0 0
20.2 0 0
20.24 0 0
20.28 0 0
20.32 0 0
20.36 0 0
20.4 0 0
20.44 0 0
20.48 0 0
20.52 0 0
20.56 0 0
20.6 0 0
20.64 0 0
20.68 0 0
20.72 0 0
20.76 0 0
20.8 0 0
20.84 0 0
20.88 0 0
20.92 0 0
20.96 0 0
21 0 0
21.04 0 0
21.08 0 0
21.12 0 0
21.16 0 0
21.2 0 0
21.24 0 0
21.28 0 0
21.32 0 0
21.36 0 0
21.4 0 0
21.44 0 0
21.48 0 0
21.52 0 0
21.56 0 0
21.6 0 0
21.64 0 0
21.68 0 0
21.72 0 0
21.76 0 0
21.8 0 0
21.84 0 0
21.88 0 0
21.92 0 0
21.96 0 0
22 0 0
22.04 0 0
22.08 0 0
22.12 0 0
22.16 0 0
22.2 0 0
22.24 0 0
22.28 0 0
22.32 0 0
22.36 0 0
22.4 0 0
22.44 0 0
22.48 0 0
22.52 0 0
22.56 0 0
22.6 0 0
22.64 0 0
22.68 0 0
22.72 0 0
22.76 0 0
22.8 0 0
22.84 0 0
22.88 0 0
22.92 0 0
22.96 0 0
23 0 0
23.04 0 0
23.08 0 0
23.12 0 0
23.16 0 0
23.2 0 0
23.24 0 0
23.28 0 0
23.32 0 0
23.36 0 0
23.4 0 0
23.44 0 0
23.48 0 0
23.52 0 0
23.56 0 0
23.6 0 0
23.64 0 0
23.68 0 0
23.72 0 0
23.76 0 0
23.8 0 0
23.84 0 0
23.88 0 0
23.92 0 0
23.96 0 0
24 0 0
24.04 0 0
24.08 0 0
24.12 0 0
24.16 0 0
24.2 0 0
24.24 0 0
24.28 0 0
24.32 0 0
24.36 0 0
24.4 0 0
24.44 0 0
24.48 0 0
24.52 0 0
24.56 0 0
24.6 0 0
24.64 0 0
24.68 0 0
24.72 0 0
24.76 0 0
24.8 0 0
24.84 0 0
24.88 0 0
24.92 0 0
24.96 0 0
25 0 0
25.04 0 0
25.08 0 0
25.12 0 0
25.16 0 0
25.2 0 0
25.24 0 0
25.28 0 0
25.32 0 0
25.36 0 0
25.4 0 0
25.44 0 0
25.48 0 0
25.52 0 0
25.56 0 0
25.6 0 0
25.64 0 0
25.68 0 0
25.72 0 0
25.76 0 0
25.8 0 0
25.84 0 0
25.88 0 0
25.92 0 0
25.96 0 0
26 0 0
26.04 0 0
26.08 0 0
26.12 0 0
26.16 0 0
26.2 0 0
26.24 0 0
26.28 0 0
26.32 0 0
26.36 0 0
26.4 0 0
26.44 0 0
26.48 0 0
26.52 0 0
26.56 0 0
26.6 0 0
26.64 0 0
26.68 0 0
26.72 0 0
26.76 0 0
26.8 0 0
26.84 0 0
26.88 0 0
26.92 0 0
26.96 0 0
27 0 0
27.04 0 0
27.08 0 0
27.12 0 0
27.16 0 0
27.2 0 0
27.24 0 0
27.28 0 0
27.32 0 0
27.36 0 0
27.4 0 0
27.44 0 0
27.48 0 0
27.52 0 0
27.56 0 0
27.6 0 0
27.64 0 0
27.68 0 0
27.72 0 0
27.76 0 0
27.8 0 0
27.84 0 0
27.88 0 0
27.92 0 0
27.96 0 0
28 0 0
28.04 0 0
28.08 0 0
28.12 0 0
28.16 0 0
28.2 0 0
28.24 0 0
28.28 0 0
28.32 0 0
28.36 0 0
28.4 0 0
28.44 0 0
28.48 0 0
28.52 0 0
28.56 0 0
28.6 0 0
28.64 0 0
28.68 0 0
28.72 0 0
28.76 0 0
28.8 0 0
28.84 0 0
28.88 0 0
28.92 0 0
28.96 0 0
29 0 0
29.04 0 0
29.08 0 0
29.12 0 0
29.16 0 0
29.2 0 0
29.24 0 0
29.28 0 0
29.32 0 0
29.36 0 0
29.4 0 0
29.44 0 0
29.48 0 0
29.52 0 0
29.56 0 0
29.6 0 0
29.64 0 0
29.68 0 0
29.72 0 0
29.76 0 0
29.8 0 0
29.84 0 0
29.88 0 0
29.92 0 0
29.96 0 0
30 0 0
30.04 0 0
30.08 0 0
30.12 0 0
30.16 0 0
30.2 0 0
30.24 0 0
30.28 0 0
30.32 0 0
30.36 0 0
30.4 0 0
30.44 0 0
30.48 0 0
30.52 0 0
30.56 0 0
30.6 0 0
30.64 0 0
30.68 0 0
30.72 0 0
30.76 0 0
30.8 0 0
30.84 0 0
30.88 0 0
30.92 0 0
30.96 0 0
31 0 0
31.04 0 0
31.08 0 0
31.12 0 0
31.16 0 0
31.2 0 0
31.24 0 0
31.28 0 0
31.32 0 0
31.36 0 0
31.4 0 0
31.44 0 0
31.48 0 0
31.52 0 0
31.56 0 0
31.6 0 0
31.64 0 0
31.68 0 0
31.72 0 0
31.76 0 0
31.8 0 0
31.84 0 0
31.88 0 0
31.92 0 0
31.96 0 0
0 0.005 0
0.04 0.005 0
0.08 0.005 0
0.12 0.005 0
0.16 0.005 0
0.2 0.005 0
0.24 0.005 0
0.28 0.005 0
0.32 0.005 0
0.36 0.005 0
0.4 0.005 0
0.44 0.005 0
0.48 0.005 0
0.52 0.005 0
0.56 0.005 0
0.6 0.005 0
0.64 0.005 0
0.68 0.005 0
0.72 0.005 0
0.76 0.005 0
0.8 0.005 0
0.84 0.005 0
0.88 0.005 0
0.92 0.005 0
0.96 0.005 0
1 0.005 0
1.04 0.005 0
1.08 0.005 0
1.12 0.005 0
1.16 0.005 0
1.2 0.005 0
1.24 0.005 0
1.28 0.005 0
1.32 0.005 0
1.36 0.005 0
1.4 0.005 0
1.44 0.005 0
1.48 0.005 0
1.52 0.005 0
1.56 0.005 0
1.6 0.005 0
1.64 0.005 0
1.68 0.005 0
1.72 0.005 0
1.76 0.005 0
1.8 0.005 0
1.84 0.005 0
1.88 0.005 0
1.92 0.005 0
1.96 0.005 0
2 0.005 0
2.04 0.005 0
2.08 0.005 0
2.12 0.005 0
2.16 0.005 0
2.2 0.005 0
2.24 0.005 0
2.28 0.005 0
2.32 0.005 0
2.36 0.005 0
2.4 0.005 0
2.44 0.005 0
2.48 0.005 0
2.52 0.005 0
2.56 0.005 0
2.6 0.005 0
2.64 0.005 0
2.68 0.005 0
2.72 0.005 0
2.76 0.005 0
2.8 0.005 0
2.84 0.005 0
2.88 0.005 0
2.92 0.005 0
2.96 0.005 0
3 0.005 0
3.04 0.005 0
3.08 0.005 0
3.12 0.005 0
3.16 0.005 0
3.2 0.005 0
3.24 0.005 0
3.28 0.005 0
3.32 0.005 0
3.36 0.005 0
3.4 0.005 0
3.44 0.005 0
3.48 0.005 0
3.52 0.005 0
3.56 0.005 0
3.6 0.005 0
3.64 0.005 0
3.68 0.005 0
3.72 0.005 0
3.76 0.005 0
3.8 0.005 0
3.84 0.005 0
3.88 0.005 0
3.92 0.005 0
3.96 0.005 0
4 0.005 0
4.04 0.005 0
4.08 0.005 0
4.12 0.005 0
4.16 0.005 0
4.2 0.005 0
4.24 0.005 0
4.28 0.005 0
4.32 0.005 0
4.36 0.005 0
4.4 0.005 0
4.44 0.005 0
4.48 0.005 0
4.52 0.005 0
4.56 0.005 0
4.6 0.005 0
4.64 0.005 0
4.68 0.005 0
4.72 0.005 0
4.76 0.005 0
4.8 0.005 0
4.84 0.005 0
4.88 0.005 0
4.92 0.005 0
4.96 0.005 0
5 0.005 0
5.04 0.005 0
5.08 0.005 0
5.12 0.005 0
5.16 0.005 0
5.2 0.005 0
5.24 0.005 0
5.28 0.005 0
5.32 0.005 0
5.36 0.005 0
5.4 0.005 0
5.44 0.005 0
5.48 0.005 0
5.52 0.005 0
5.56 0.005 0
5.6 0.005 0
5.64 0.005 0
5.68 0.005 0
5.72 0.005 0
5.76 0.005 0
5.8 0.005 0
5.84 0.005 0
5.88 0.005 0
5.92 0.005 0
5.96 0.005 0
6 0.005 0
6.04 0.005 0
6.08 0.005 0
6.12 0.005 0
6.16 0.005 0
6.2 0.005 0
6.24 0.005 0
6.28 0.005 0
6.32 0.005 0
6.36 0.005 0
6.4 0.005 0
6.44 0.005 0
6.48 0.005 0
6.52 0.005 0
6.56 0.005 0
6.6 0.005 0
6.64 0.005 0
6.68 0.005 0
6.72 0.005 0
6.76 0.005 0
6.8 0.005 0
6.84 0.005 0
6.88 0.005 0
6.92 0.005 0
6.96 0.005 0
7 0.005 0
7.04 0.005 0
7.08 0.005 0
7.12 0.005 0
7.16 0.005 0
7.2 0.005 0
7.24 0.005 0
7.28 0.005 0
7.32 0.005 0
7.36 0.005 0
7.4 0.005 0
[...]
POINT_DATA 160000

SCALARS p float 1
LOOKUP_TABLE default
1
41.2638
39.0484
38.7935
38.7333
38.7069
38.6909
38.6793
38.6701
38.6622
38.6553
38.6489
38.643
38.6375
38.6322
38.6271
38.6221
38.6173
38.6126
38.6079
38.6034
38.5989
38.5945
38.5902
38.5859
38.5817
38.5776
38.5734
38.5694
38.5654
38.5614
38.5575
38.5536
38.5498
38.546
38.5422
38.5385
38.5349
38.5312
38.5276
38.5241
38.5205
38.517
38.5136
38.5102
38.5068
38.5034
38.5001
38.4968
38.4935
38.4902
38.487
38.4838
38.4806
38.4775
38.4743
38.4712
38.4682
38.4651
38.4621
38.4591
38.4561
38.4531
38.4502
38.4472
38.4443
38.4414
38.4385
38.4357
38.4328
38.43
38.4272
38.4244
38.4217
38.4189
38.4162
38.4134
38.4107
38.408
38.4053
38.4027
38.4
38.3974
38.3947
38.3921
38.3895
38.3869
38.3843
38.3818
38.3792
38.3767
38.3741
38.3716
38.3691
38.3666
38.3641
38.3617
38.3592
38.3567
38.3543
38.3519
38.3494
38.347
38.3446
38.3422
38.3398
38.3374
38.3351
38.3327
38.3304
38.328
38.3257
38.3234
38.321
38.3187
38.3164
38.3141
38.3118
38.3096
38.3073
38.305
38.3028
38.3005
38.2983
38.2961
38.2938
38.2916
38.2894
38.2872
38.285
38.2828
38.2806
38.2784
38.2762
38.2741
38.2719
38.2698
38.2676
38.2655
38.2633
38.2612
38.2591
38.2569
38.2548
38.2527
38.2506
38.2485
38.2464
38.2443
38.2423
38.2402
38.2381
38.236
38.234
38.2319
38.2299
38.2278
38.2258
38.2237
38.2217
38.2197
38.2177
38.2156
38.2136
38.2116
38.2096
38.2076
38.2056
38.2036
38.2016
38.1997
38.1977
38.1957
38.1937
38.1918
38.1898
38.1878
38.1859
38.1839
38.182
38.18
38.1781
38.1762
38.1742
38.1723
38.1704
38.1685
38.1665
38.1646
38.1627
38.1608
38.1589
38.157
38.1551
38.1532
38.1513
38.1494
38.1475
38.1457
38.1438
38.1419
38.14
38.1382
38.1363
38.1344
38.1326
38.1307
38.1289
38.127
38.1252
38.1233
38.1215
38.1196
38.1178
38.116
38.1141
38.1123
38.1105
38.1086
38.1068
38.105
38.1032
38.1014
38.0996
38.0977
38.0959
38.0941
38.0923
38.0905
38.0887
38.0869
38.0852
38.0834
38.0816
38.0798
38.078
38.0762
38.0744
38.0727
38.0709
38.0691
38.0673
38.0656
38.0638
38.062
38.0603
38.0585
38.0568
38.055
38.0533
38.0515
38.0497
38.048
38.0463
38.0445
38.0428
38.041
38.0393
38.0375
38.0358
38.0341
38.0323
38.0306
38.0289
38.0272
38.0254
38.0237
38.022
38.0203
38.0185
38.0168
38.0151
38.0134
38.0117
38.01
38.0083
38.0065
38.0048
38.0031
38.0014
37.9997
37.998
37.9963
37.9946
37.9929
37.9912
37.9895
37.9878
37.9861
37.9845
37.9828
37.9811
37.9794
37.9777
37.976
37.9743
37.9727
37.971
37.9693
37.9676
37.9659
37.9643
37.9626
37.9609
37.9592
37.9576
37.9559
37.9542
37.9526
37.9509
37.9492
37.9476
37.9459
37.9442
37.9426
37.9409
37.9393
37.9376
37.9359
37.9343
37.9326
37.931
37.9293
37.9277
37.926
37.9244
37.9227
37.9211
37.9194
37.9178
37.9161
37.9145
37.9128
37.9112
37.9096
37.9079
37.9063
37.9046
37.903
37.9014
37.8997
37.8981
37.8964
37.8948
37.8932
37.8915
37.8899
37.8883
37.8866
37.885
37.8834
37.8818
37.8801
37.8785
37.8769
37.8752
37.8736
37.872
37.8704
37.8687
37.8671
37.8655
37.8639
37.8623
37.8606
37.859
37.8574
37.8558
37.8542
37.8525
37.8509
37.8493
37.8477
37.8461
37.8445
37.8429
37.8412
37.8396
37.838
37.8364
37.8348
37.8332
37.8316
37.83
37.8284
37.8268
37.8251
37.8235
37.8219
37.8203
37.8187
37.8171
37.8155
37.8139
37.8123
37.8107
37.8091
37.8075
37.8059
37.8043
37.8027
37.8011
37.7995
37.7979
37.7963
37.7947
37.7931
37.7915
37.7899
37.7883
37.7867
37.7851
37.7835
37.7819
37.7803
37.7787
37.7771
37.7755
37.7739
37.7724
37.7708
37.7692
37.7676
37.766
37.7644
37.7628
37.7612
37.7596
37.758
37.7564
37.7549
37.7533
37.7517
37.7501
37.7485
37.7469
37.7453
37.7437
37.7422
37.7406
37.739
37.7374
37.7358
37.7342
37.7327
37.7311
37.7295
37.7279
37.7263
37.7247
37.7232
37.7216
37.72
37.7184
37.7168
37.7153
37.7137
37.7121
37.7105
37.7089
37.7074
37.7058
37.7042
37.7026
37.701
37.6995
37.6979
37.6963
37.6947
37.6932
37.6916
37.69
37.6884
37.6868
37.6853
37.6837
37.6821
37.6805
37.679
37.6774
37.6758
37.6743
37.6727
37.6711
37.6695
37.668
37.6664
37.6648
37.6632
37.6617
37.6601
37.6585
37.657
37.6554
37.6538
37.6523
37.6507
37.6491
37.6475
37.646
37.6444
37.6428
37.6413
37.6397
37.6381
37.6366
37.635
37.6334
37.6319
37.6303
37.6287
37.6272
37.6256
37.624
37.6225
37.6209
37.6193
37.6178
37.6162
37.6146
37.6131
37.6115
37.6099
37.6084
37.6068
37.6052
37.6037
37.6021
37.6006
37.599
37.5974
37.5959
37.5943
37.5927
37.5912
37.5896
37.5881
37.5865
37.5849
37.5834
37.5818
37.5802
37.5787
37.5771
37.5756
37.574
37.5724
37.5709
37.5693
37.5678
37.5662
37.5646
37.5631
37.5615
37.56
37.5584
37.5568
37.5553
37.5537
37.5522
37.5506
37.549
37.5475
37.5459
37.5444
37.5428
37.5412
37.5397
37.5381
37.5366
37.535
37.5334
37.5319
37.5303
37.5288
37.5272
37.5257
37.5241
37.5225
37.521
37.5194
37.5179
37.5163
37.5147
37.5132
37.5116
37.5101
37.5085
37.507
37.5054
37.5038
37.5023
37.5007
37.4992
37.4976
37.4961
37.4945
37.4929
37.4914
37.4898
37.4883
37.4867
37.4852
37.4836
37.482
37.4805
37.4789
37.4774
37.4758
37.4743
37.4727
37.4712
37.4696
37.468
37.4665
37.4649
37.4634
37.4618
37.4603
37.4587
37.4571
37.4556
37.454
37.4525
37.4509
37.4494
37.4478
37.4463
37.4447
37.4431
37.4416
37.44
37.4385
37.4369
37.4354
37.4338
37.4323
37.4307
37.4291
37.4276
37.426
37.4245
37.4229
37.4214
37.4198
37.4183
37.4167
37.4151
37.4136
37.412
37.4105
37.4089
37.4074
37.4058
37.4043
37.4027
37.4011
37.3996
37.398
37.3965
37.3949
37.3934
37.3918
37.3903
37.3887
37.3872
37.3856
37.384
37.3825
37.3809
37.3794
37.3778
37.3763
37.3747
37.3732
37.3716
37.3701
37.3685
37.3669
37.3654
37.3638
37.3623
37.3607
37.3592
37.3576
37.3561
37.3545
37.353
37.3514
37.3499
37.3483
37.3467
37.3452
37.3436
37.3421
37.3405
37.339
37.3374
37.3359
37.3343
37.3328
37.3312
37.3297
37.3281
37.3266
37.325
37.3234
37.3219
37.3203
37.3188
37.3172
37.3157
37.3141
37.3126
37.311
37.3095
37.3079
37.3064
37.3048
37.3033
37.3017
37.3001
37.2986
37.297
37.2955
37.2939
37.2924
37.2908
37.2893
37.2877
37.2862
37.2846
37.2831
37.2815
37.28
37.2784
37.2769
37.2753
37.2738
37.2722
37.2706
37.2691
37.2675
37.266
37.2644
37.2629
37.2613
37.2598
37.2582
37.2567
37.2551
37.2536
37.252
37.2505
37.2489
37.2474
37.2458
37.2443
37.2427
37.2412
37.2396
37.2381
37.2365
37.235
37.2334
37.2319
37.2303
37.2288
37.2272
37.2256
37.2241
37.2225
37.221
37.2194
37.2179
37.2163
37.2148
37.2132
37.2117
37.2101
37.2086
37.207
37.2055
37.2039
37.2024
37.2008
37.1993
37.1977
37.1962
37.1946
37.1931
37.1915
37.19
37.1884
37.1869
37.1853
37.1838
37.1822
37.1807
1
41.2638
41.2638
39.0484
38.7935
38.7333
38.7069
38.6909
38.6793
38.6701
38.6622
38.6553
38.6489
38.643
38.6375
38.6322
38.6271
38.6221
38.6173
38.6126
38.6079
38.6034
38.5989
38.5945
38.5902
38.5859
38.5817
38.5776
38.5734
38.5694
38.5654
38.5614
38.5575
38.5536
38.5498
38.546
38.5422
38.5385
38.5349
38.5312
38.5276
38.5241
38.5205
38.517
38.5136
38.5102
38.5068
38.5034
38.5001
38.4968
38.4935
38.4902
38.487
38.4838
38.4806
38.4775
38.4743
38.4712
38.4682
38.4651
38.4621
38.4591
38.4561
38.4531
38.4502
38.4472
38.4443
38.4414
38.4385
38.4357
38.4328
38.43
38.4272
38.4244
38.4217
38.4189
38.4162
38.4134
38.4107
38.408
38.4053
38.4027
38.4
38.3974
38.3947
38.3921
38.3895
38.3869
38.3843
38.3818
38.3792
38.3767
38.3741
38.3716
38.3691
38.3666
38.3641
38.3617
38.3592
38.3567
38.3543
38.3519
38.3494
38.347
38.3446
38.3422
38.3398
38.3374
38.3351
38.3327
38.3304
38.328
38.3257
38.3234
38.321
38.3187
38.3164
38.3141
38.3118
38.3096
38.3073
38.305
38.3028
38.3005
38.2983
38.2961
38.2938
38.2916
38.2894
38.2872
38.285
38.2828
38.2806
38.2784
38.2762
38.2741
38.2719
38.2698
38.2676
38.2655
38.2633
38.2612
38.2591
38.2569
38.2548
38.2527
38.2506
38.2485
38.2464
38.2443
38.2423
38.2402
38.2381
38.236
38.234
38.2319
38.2299
38.2278
38.2258
38.2237
38.2217
38.2197
38.2177
38.2156
38.2136
38.2116
38.2096
38.2076
38.2056
38.2036
38.2016
38.1997
38.1977
38.1957
38.1937
38.1918
38.1898
38.1878
38.1859
38.1839
38.182
38.18
38.1781
38.1762
38.1742
38.1723
38.1704
38.1685
38.1665
38.1646
38.1627
38.1608
38.1589
38.157
38.1551
38.1532
38.1513
38.1494
38.1475
38.1457
38.1438
38.1419
38.14
38.1382
38.1363
38.1344
38.1326
38.1307
38.1289
38.127
38.1252
38.1233
38.1215
38.1196
38.1178
38.116
38.1141
38.1123
38.1105
38.1086
38.1068
38.105
38.1032
38.1014
38.0996
38.0977
38.0959
38.0941
38.0923
38.0905
38.0887
38.0869
38.0852
38.0834
38.0816
38.0798
38.078
38.0762
38.0744
38.0727
38.0709
38.0691
38.0673
38.0656
38.0638
38.062
38.0603
38.0585
38.0568
38.055
38.0533
38.0515
38.0497
38.048
38.0463
38.0445
38.0428
38.041
38.0393
38.0375
38.0358
38.0341
38.0323
38.0306
38.0289
38.0272
38.0254
38.0237
38.022
38.0203
38.0185
38.0168
38.0151
38.0134
38.0117
38.01
38.0083
38.0065
38.0048
38.0031
38.0014
37.9997
37.998
37.9963
37.9946
37.9929
37.9912
37.9895
37.9878
37.9861
37.9845
37.9828
37.9811
37.9794
37.9777
37.976
37.9743
37.9727
37.971
37.9693
37.9676
37.9659
37.9643
37.9626
37.9609
37.9592
37.9576
37.9559
37.9542
37.9526
37.9509
37.9492
37.9476
37.9459
37.9442
37.9426
37.9409
37.9393
37.9376
37.9359
37.9343
37.9326
37.931
37.9293
37.9277
37.926
37.9244
37.9227
37.9211
37.9194
37.9178
37.9161
37.9145
37.9128
37.9112
37.9096
37.9079
37.9063
37.9046
37.903
37.9014
37.8997
37.8981
37.8964
37.8948
37.8932
37.8915
37.8899
37.8883
37.8866
37.885
37.8834
37.8818
37.8801
37.8785
37.8769
37.8752
37.8736
37.872
37.8704
37.8687
37.8671
37.8655
37.8639
37.8623
37.8606
37.859
37.8574
37.8558
37.8542
37.8525
37.8509
37.8493
37.8477
37.8461
37.8445
37.8429
37.8412
37.8396
37.838
37.8364
37.8348
37.8332
37.8316
37.83
37.8284
37.8268
37.8251
37.8235
37.8219
37.8203
37.8187
37.8171
37.8155
37.8139
37.8123
37.8107
37.8091
37.8075
37.8059
37.8043
37.8027
37.8011
37.7995
37.7979
37.7963
37.7947
37.7931
37.7915
37.7899
37.7883
37.7867
37.7851
37.7835
37.7819
37.7803
37.7787
37.7771
37.7755
37.7739
37.7724
37.7708
37.7692
37.7676
37.766
37.7644
37.7628
37.7612
37.7596
37.758
37.7564
37.7549
37.7533
37.7517
37.7501
37.7485
37.7469
37.7453
37.7437
37.7422
37.7406
37.739
37.7374
37.7358
37.7342
37.7327
37.7311
37.7295
37.7279
37.7263
37.7247
37.7232
37.7216
37.72
37.7184
37.7168
37.7153
37.7137
37.7121
37.7105
37.7089
37.7074
37.7058
37.7042
37.7026
37.701
37.6995
37.6979
37.6963
37.6947
37.6932
37.6916
37.69
37.6884
37.6868
37.6853
37.6837
37.6821
37.6805
37.679
37.6774
37.6758
37.6743
37.6727
37.6711
37.6695
37.668
37.6664
37.6648
37.6632
37.6617
37.6601
37.6585
37.657
37.6554
37.6538
37.6523
37.6507
37.6491
37.6475
37.646
37.6444
37.6428
37.6413
37.6397
37.6381
37.6366
37.635
37.6334
37.6319
37.6303
37.6287
37.6272
37.6256
37.624
37.6225
37.6209
37.6193
37.6178
37.6162
37.6146
37.6131
37.6115
37.6099
37.6084
37.6068
37.6052
37.6037
37.6021
37.6006
37.599
37.5974
37.5959
37.5943
37.5927
37.5912
37.5896
37.5881
37.5865
37.5849
37.5834
37.5818
37.5802
37.5787
37.5771
37.5756
37.574
37.5724
37.5709
37.5693
37.5678
37.5662
37.5646
37.5631
37.5615
37.56
37.5584
37.5568
37.5553
37.5537
37.5522
37.5506
37.549
37.5475
37.5459
37.5444
37.5428
37.5412
37.5397
37.5381
37.5366
37.535
37.5334
37.5319
37.5303
37.5288
37.5272
37.5257
37.5241
37.5225
37.521
37.5194
37.5179
37.5163
37.5147
37.5132
37.5116
37.5101
37.5085
37.507
37.5054
37.5038
37.5023
37.5007
37.4992
37.4976
37.4961
37.4945
37.4929
37.4914
37.4898
37.4883
37.4867
37.4852
37.4836
37.482
37.4805
37.4789
37.4774
37.4758
37.4743
37.4727
37.4712
37.4696
37.468
37.4665
37.4649
37.4634
37.4618
37.4603
37.4587
37.4571
37.4556
37.454
37.4525
37.4509
37.4494
37.4478
37.4463
37.4447
37.4431
37.4416
37.44
37.4385
37.4369
37.4354
37.4338
37.4323
37.4307
37.4291
37.4276
37.426
37.4245
37.4229
37.4214
37.4198
37.4183
37.4167
37.4151
37.4136
37.412
37.4105
37.4089
37.4074
37.4058
37.4043
37.4027
37.4011
37.3996
37.398
37.3965
37.3949
37.3934
37.3918
37.3903
37.3887
37.3872
37.3856
37.384
37.3825
37.3809
37.3794
37.3778
37.3763
37.3747
37.3732
37.3716
37.3701
37.3685
37.3669
37.3654
37.3638
37.3623
37.3607
37.3592
37.3576
37.3561
37.3545
37.353
37.3514
37.3499
37.3483
37.3467
37.3452
37.3436
37.3421
37.3405
37.339
37.3374
37.3359
37.3343
37.3328
37.3312
37.3297
37.3281
37.3266
37.325
37.3234
37.3219
37.3203
37.3188
37.3172
37.3157
37.3141
37.3126
37.311
37.3095
37.3079
37.3064
37.3048
37.3033
37.3017
37.3001
37.2986
37.297
37.2955
37.2939
37.2924
37.2908
37.2893
37.2877
37.2862
37.2846
37.2831
37.2815
37.28
37.2784
37.2769
37.2753
37.2738
37.2722
37.2706
37.2691
37.2675
37.266
37.2644
37.2629
37.2613
37.2598
37.2582
37.2567
37.2551
37.2536
37.252
37.2505
37.2489
37.2474
37.2458
37.2443
37.2427
37.2412
37.2396
37.2381
37.2365
37.235
37.2334
37.2319
37.2303
37.2288
37.2272
37.2256
37.2241
37.2225
37.221
37.2194
37.2179
37.2163
37.2148
37.2132
37.2117
37.2101
37.2086
37.207
37.2055
37.2039
37.2024
37.2008
37.1993
37.1977
37.1962
37.1946
37.1931
37.1915
37.19
37.1884
37.1869
37.1853
37.1838
37.1822
37.1807
37.1807
40.6168
40.6168
39.0588
38.803
38.7375
38.7092
38.6923
38.6803
38.6708
38.6628
38.6557
38.6493
38.6433
38.6377
38.6324
38.6272
38.6223
38.6174
38.6127
38.6081
38.6035
38.599
38.5946
38.5903
38.586
38.5818
38.5776
38.5735
38.5694
38.5654
38.5615
38.5575
38.5537
38.5498
38.546
38.5423
38.5386
38.5349
38.5313
38.5277
38.5241
38.5206
38.5171
38.5136
38.5102
38.5068
38.5034
38.5001
38.4968
38.4935
38.4902
38.487
38.4838
38.4806
38.4775
38.4744
38.4713
38.4682
38.4651
38.4621
38.4591
38.4561
38.4531
38.4502
38.4472
38.4443
38.4414
38.4386
38.4357
38.4329
38.43
38.4272
38.4244
38.4217
38.4189
38.4162
38.4134
38.4107
38.408
38.4053
38.4027
38.4
38.3974
38.3947
38.3921
38.3895
38.3869
38.3844
38.3818
38.3792
38.3767
38.3742
38.3716
38.3691
38.3666
38.3641
38.3617
38.3592
38.3567
38.3543
38.3519
38.3494
38.347
38.3446
38.3422
38.3398
38.3375
38.3351
38.3327
38.3304
38.328
38.3257
38.3234
38.321
38.3187
38.3164
38.3141
38.3119
38.3096
38.3073
38.305
38.3028
38.3005
38.2983
38.2961
38.2938
38.2916
38.2894
38.2872
38.285
38.2828
38.2806
38.2784
38.2763
38.2741
38.2719
38.2698
38.2676
38.2655
38.2633
38.2612
38.2591
38.257
38.2548
38.2527
38.2506
38.2485
38.2464
38.2443
38.2423
38.2402
38.2381
38.236
38.234
38.2319
38.2299
38.2278
38.2258
38.2238
38.2217
38.2197
38.2177
38.2157
38.2136
38.2116
38.2096
38.2076
38.2056
38.2036
38.2016
38.1997
38.1977
38.1957
38.1937
38.1918
38.1898
38.1878
38.1859
38.1839
38.182
38.18
38.1781
38.1762
38.1742
38.1723
38.1704
38.1685
38.1665
38.1646
38.1627
38.1608
38.1589
38.157
38.1551
38.1532
38.1513
38.1494
38.1475
38.1457
38.1438
38.1419
38.14
38.1382
38.1363
38.1344
38.1326
38.1307
38.1289
38.127
38.1252
38.1233
38.1215
38.1196
38.1178
38.116
38.1141
38.1123
38.1105
38.1086
38.1068
38.105
38.1032
38.1014
38.0996
38.0978
38.0959
38.0941
38.0923
38.0905
38.0887
38.0869
38.0852
38.0834
38.0816
38.0798
38.078
38.0762
38.0744
38.0727
38.0709
38.0691
38.0674
38.0656
38.0638
38.0621
38.0603
38.0585
38.0568
38.055
38.0533
38.0515
38.0498
38.048
38.0463
38.0445
38.0428
38.041
38.0393
38.0375
38.0358
38.0341
38.0323
38.0306
38.0289
38.0272
38.0254
38.0237
38.022
38.0203
38.0185
38.0168
38.0151
38.0134
38.0117
38.01
38.0083
38.0065
38.0048
38.0031
38.0014
37.9997
37.998
37.9963
37.9946
37.9929
37.9912
37.9895
37.9878
37.9862
37.9845
37.9828
37.9811
37.9794
37.9777
37.976
37.9743
37.9727
37.971
37.9693
37.9676
37.9659
37.9643
37.9626
37.9609
37.9593
37.9576
37.9559
37.9542
37.9526
37.9509
37.9492
37.9476
37.9459
37.9442
37.9426
37.9409
37.9393
37.9376
37.936
37.9343
37.9326
37.931
37.9293
37.9277
37.926
37.9244
37.9227
37.9211
37.9194
37.9178
37.9161
37.9145
37.9128
37.9112
37.9096
37.9079
37.9063
37.9046
37.903
37.9014
37.8997
37.8981
37.8965
37.8948
37.8932
37.8915
37.8899
37.8883
37.8867
37.885
37.8834
37.8818
37.8801
37.8785
37.8769
37.8753
37.8736
37.872
37.8704
37.8688
37.8671
37.8655
37.8639
37.8623
37.8606
37.859
37.8574
37.8558
37.8542
37.8526
37.8509
37.8493
37.8477
37.8461
37.8445
37.8429
37.8412
37.8396
37.838
37.8364
37.8348
37.8332
37.8316
37.83
37.8284
37.8268
37.8251
37.8235
37.8219
37.8203
37.8187
37.8171
37.8155
37.8139
37.8123
37.8107
37.8091
37.8075
37.8059
37.8043
37.8027
37.8011
37.7995
37.7979
37.7963
37.7947
37.7931
37.7915
37.7899
37.7883
37.7867
37.7851
37.7835
37.7819
37.7803
37.7787
37.7771
37.7755
37.774
37.7724
37.7708
37.7692
37.7676
37.766
37.7644
37.7628
37.7612
37.7596
37.758
37.7565
37.7549
37.7533
37.7517
37.7501
37.7485
37.7469
37.7453
37.7438
37.7422
37.7406
37.739
37.7374
37.7358
37.7342
37.7327
37.7311
37.7295
37.7279
37.7263
37.7247
37.7232
37.7216
37.72
37.7184
37.7168
37.7153
37.7137
37.7121
37.7105
37.7089
37.7074
37.7058
37.7042
37.7026
37.701
37.6995
37.6979
37.6963
37.6947
37.6932
37.6916
37.69
37.6884
37.6869
37.6853
37.6837
37.6821
37.6806
37.679
37.6774
37.6758
37.6743
37.6727
37.6711
37.6695
37.668
37.6664
37.6648
37.6633
37.6617
37.6601
37.6585
37.657
37.6554
37.6538
37.6523
37.6507
37.6491
37.6475
37.646
37.6444
37.6428
37.6413
37.6397
37.6381
37.6366
37.635
37.6334
37.6319
37.6303
37.6287
37.6272
37.6256
37.624
37.6225
37.6209
37.6193
37.6178
37.6162
37.6146
37.6131
37.6115
37.6099
37.6084
37.6068
37.6053
37.6037
37.6021
37.6006
37.599
37.5974
37.5959
37.5943
37.5927
37.5912
37.5896
37.5881
37.5865
37.5849
37.5834
37.5818
37.5802
37.5787
37.5771
37.5756
37.574
37.5724
37.5709
37.5693
37.5678
37.5662
37.5646
37.5631
37.5615
37.56
37.5584
37.5568
37.5553
37.5537
37.5522
37.5506
37.549
37.5475
37.5459
37.5444
37.5428
37.5412
37.5397
37.5381
37.5366
37.535
37.5335
37.5319
37.5303
37.5288
37.5272
37.5257
37.5241
37.5225
37.521
37.5194
37.5179
37.5163
37.5148
37.5132
37.5116
37.5101
37.5085
37.507
37.5054
37.5039
37.5023
37.5007
37.4992
37.4976
37.4961
37.4945
37.493
37.4914
37.4898
37.4883
37.4867
37.4852
37.4836
37.4821
37.4805
37.4789
37.4774
37.4758
37.4743
37.4727
37.4712
37.4696
37.468
37.4665
37.4649
37.4634
37.4618
37.4603
37.4587
37.4572
37.4556
37.454
37.4525
37.4509
37.4494
37.4478
37.4463
37.4447
37.4431
37.4416
37.44
37.4385
37.4369
37.4354
37.4338
37.4323
37.4307
37.4291
37.4276
37.426
37.4245
37.4229
37.4214
37.4198
37.4183
37.4167
37.4151
37.4136
37.412
37.4105
37.4089
37.4074
37.4058
37.4043
37.4027
37.4012
37.3996
37.398
37.3965
37.3949
37.3934
37.3918
37.3903
37.3887
37.3872
37.3856
37.3841
37.3825
37.3809
37.3794
37.3778
37.3763
37.3747
37.3732
37.3716
37.3701
37.3685
37.367
37.3654
37.3638
37.3623
37.3607
37.3592
37.3576
37.3561
37.3545
37.353
37.3514
37.3499
37.3483
37.3468
37.3452
37.3436
37.3421
37.3405
37.339
37.3374
37.3359
37.3343
37.3328
37.3312
37.3297
37.3281
37.3266
37.325
37.3234
37.3219
37.3203
37.3188
37.3172
37.3157
37.3141
37.3126
37.311
37.3095
37.3079
37.3064
37.3048
37.3033
37.3017
37.3002
37.2986
37.297
37.2955
37.2939
37.2924
37.2908
37.2893
37.2877
37.2862
37.2846
37.2831
37.2815
37.28
37.2784
37.2769
37.2753
37.2738
37.2722
37.2707
37.2691
37.2675
37.266
37.2644
37.2629
37.2613
37.2598
37.2582
37.2567
37.2551
37.2536
37.252
37.2505
37.2489
37.2474
37.2458
37.2443
37.2427
37.2412
37.2396
37.2381
37.2365
37.235
37.2334
37.2319
37.2303
37.2288
37.2272
37.2257
37.2241
37.2225
37.221
37.2194
37.2179
37.2163
37.2148
37.2132
37.2117
37.2101
37.2086
37.207
37.2055
37.2039
37.2024
37.2008
37.1993
37.1977
37.1962
37.1946
37.1931
37.1915
37.19
37.1884
37.1869
37.1853
37.1838
37.1822
37.1807
37.1807
39.9273
39.9273
39.0429
38.8097
38.7411
38.7112
38.6936
38.6812
38.6715
38.6633
38.6561
38.6496
38.6436
38.638
38.6326
38.6274
38.6224
38.6176
38.6128
38.6082
38.6036
38.5991
38.5947
38.5904
38.5861
38.5819
38.5777
38.5736
38.5695
38.5655
38.5615
38.5576
38.5537
38.5499
38.5461
38.5423
38.5386
38.5349
38.5313
38.5277
38.5241
38.5206
38.5171
38.5136
38.5102
38.5068
38.5034
38.5001
38.4968
38.4935
38.4903
38.487
38.4838
38.4807
38.4775
38.4744
38.4713
38.4682
38.4652
38.4621
38.4591
38.4561
38.4531
38.4502
38.4473
38.4443
38.4414
38.4386
38.4357
38.4329
38.43
38.4272
38.4245
38.4217
38.4189
38.4162
38.4134
38.4107
38.408
38.4054
38.4027
38.4
38.3974
38.3948
38.3921
38.3895
38.3869
38.3844
38.3818
38.3792
38.3767
38.3742
38.3716
38.3691
38.3666
38.3642
38.3617
38.3592
38.3568
38.3543
38.3519
38.3494
38.347
38.3446
38.3422
38.3398
38.3375
38.3351
38.3327
38.3304
38.328
38.3257
38.3234
38.3211
38.3187
38.3164
38.3141
38.3119
38.3096
38.3073
38.305
38.3028
38.3005
38.2983
38.2961
38.2938
38.2916
38.2894
38.2872
38.285