# vtk DataFile Version 2.0
FlowField
ASCII
DATASET STRUCTURED_GRID
DIMENSIONS 200 1 200
POINTS 40000 float
0 0 0
0.15 0 0
0.3 0 0
0.45 0 0
0.6 0 0
0.75 0 0
0.9 0 0
1.05 0 0
1.2 0 0
1.35 0 0
1.5 0 0
1.65 0 0
1.8 0 0
1.95 0 0
2.1 0 0
2.25 0 0
2.4 0 0
2.55 0 0
2.7 0 0
2.85 0 0
3 0 0
3.15 0 0
3.3 0 0
3.45 0 0
3.6 0 0
3.75 0 0
3.9 0 0
4.05 0 0
4.2 0 0
4.35 0 0
4.5 0 0
4.65 0 0
4.8 0 0
4.95 0 0
5.1 0 0
5.25 0 0
5.4 0 0
5.55 0 0
5.7 0 0
5.85 0 0
6 0 0
6.15 0 0
6.3 0 0
6.45 0 0
6.6 0 0
6.75 0 0
6.9 0 0
7.05 0 0
7.2 0 0
7.35 0 0
7.5 0 0
7.65 0 0
7.8 0 0
7.95 0 0
8.1 0 0
8.25 0 0
8.4 0 0
8.55 0 0
8.7 0 0
8.85 0 0
9 0 0
9.15 0 0
9.3 0 0
9.45 0 0
9.6 0 0
9.75 0 0
9.9 0 0
10.05 0 0
10.2 0 0
10.35 0 0
10.5 0 0
10.65 0 0
10.8 0 0
10.95 0 0
11.1 0 0
11.25 0 0
11.4 0 0
11.55 0 0
11.7 0 0
11.85 0 0
12 0 0
12.15 0 0
12.3 0 0
12.45 0 0
12.6 0 0
12.75 0 0
12.9 0 0
13.05 0 0
13.2 0 0
13.35 0 0
13.5 0 0
13.65 0 0
13.8 0 0
13.95 0 0
14.1 0 0
14.25 0 0
14.4 0 0
14.55 0 0
14.7 0 0
14.85 0 0
15 0 0
15.15 0 0
15.3 0 0
15.45 0 0
15.6 0 0
15.75 0 0
15.9 0 0
16.05 0 0
16.2 0 0
16.35 0 0
16.5 0 0
16.65 0 0
16.8 0 0
16.95 0 0
17.1 0 0
17.25 0 0
17.4 0 0
17.55 0 0
17.7 0 0
17.85 0 0
18 0 0
18.15 0 0
18.3 0 0
18.45 0 0
18.6 0 0
18.75 0 0
18.9 0 0
19.05 0 0
19.2 0 0
19.35 0 0
19.5 0 0
19.65 0 0
19.8 0 0
19.95 0 0
20.1 0 0
20.25 0 0
20.4 0 0
20.55 0 0
20.7 0 0
20.85 0 0
21 0 0
21.15 0 0
21.3 0 0
21.45 0 0
21.6 0 0
21.75 0 0
21.9 0 0
22.05 0 0
22.2 0 0
22.35 0 0
22.5 0 0
22.65 0 0
22.8 0 0
22.95 0 0
23.1 0 0
23.25 0 0
23.4 0 0
23.55 0 0
23.7 0 0
23.85 0 0
24 0 0
24.15 0 0
24.3 0 0
24.45 0 0
24.6 0 0
24.75 0 0
24.9 0 0
25.05 0 0
25.2 0 0
25.35 0 0
25.5 0 0
25.65 0 0
25.8 0 0
25.95 0 0
26.1 0 0
26.25 0 0
26.4 0 0
26.55 0 0
26.7 0 0
26.85 0 0
27 0 0
27.15 0 0
27.3 0 0
27.45 0 0
27.6 0 0
27.75 0 0
27.9 0 0
28.05 0 0
28.2 0 0
28.35 0 0
28.5 0 0
28.65 0 0
28.8 0 0
28.95 0 0
29.1 0 0
29.25 0 0
29.4 0 0
29.55 0 0
29.7 0 0
29.85 0 0
0 0.075 0
0.15 0.075 0
0.3 0.075 0
0.45 0.075 0
0.6 0.075 0
0.75 0.075 0
0.9 0.075 0
1.05 0.075 0
1.2 0.075 0
1.35 0.075 0
1.5 0.075 0
1.65 0.075 0
1.8 0.075 0
1.95 0.075 0
2.1 0.075 0
2.25 0.075 0
2.4 0.075 0
2.55 0.075 0
2.7 0.075 0
2.85 0.075 0
3 0.075 0
3.15 0.075 0
3.3 0.075 0
3.45 0.075 0
3.6 0.075 0
3.75 0.075 0
3.9 0.075 0
4.05 0.075 0
4.2 0.075 0
4.35 0.075 0
4.5 0.075 0
4.65 0.075 0
4.8 0.075 0
4.95 0.075 0
5.1 0.075 0
5.25 0.075 0
5.4 0.075 0
5.55 0.075 0
5.7 0.075 0
5.85 0.075 0
6 0.075 0
6.15 0.075 0
6.3 0.075 0
6.45 0.075 0
6.6 0.075 0
6.75 0.075 0
6.9 0.075 0
7.05 0.075 0
7.2 0.075 0
7.35 0.075 0
7.5 0.075 0
7.65 0.075 0
7.8 0.075 0
7.95 0.075 0
8.1 0.075 0
8.25 0.075 0
8.4 0.075 0
8.55 0.075 0
8.7 0.075 0
8.85 0.075 0
9 0.075 0
9.15 0.075 0
9.3 0.075 0
9.45 0.075 0
9.6 0.075 0
9.75 0.075 0
9.9 0.075 0
10.05 0.075 0
10.2 0.075 0
10.35 0.075 0
10.5 0.075 0
10.65 0.075 0
10.8 0.075 0
10.95 0.075 0
11.1 0.075 0
11.25 0.075 0
11.4 0.075 0
11.55 0.075 0
11.7 0.075 0
11.85 0.075 0
12 0.075 0
12.15 0.075 0
12.3 0.075 0
12.45 0.075 0
12.6 0.075 0
12.75 0.075 0
12.9 0.075 0
13.05 0.075 0
13.2 0.075 0
13.35 0.075 0
13.5 0.075 0
13.65 0.075 0
13.8 0.075 0
13.95 0.075 0
14.1 0.075 0
14.25 0.075 0
14.4 0.075 0
14.55 0.075 0
14.7 0.075 0
14.85 0.075 0
15 0.075 0
15.15 0.075 0
15.3 0.075 0
15.45 0.075 0
15.6 0.075 0
15.75 0.075 0
15.9 0.075 0
16.05 0.075 0
16.2 0.075 0
16.35 0.075 0
16.5 0.075 0
16.65 0.075 0
16.8 0.075 0
16.95 0.075 0
17.1 0.075 0
17.25 0.075 0
17.4 0.075 0
17.55 0.075 0
17.7 0.075 0
17.85 0.075 0
18 0.075 0
18.15 0.075 0
18.3 0.075 0
18.45 0.075 0
18.6 0.075 0
18.75 0.075 0
18.9 0.075 0
19.05 0.075 0
19.2 0.075 0
19.35 0.075 0
19.5 0.075 0
19.65 0.075 0
19.8 0.075 0
19.95 0.075 0
20.1 0.075 0
20.25 0.075 0
20.4 0.075 0
20.55 0.075 0
20.7 0.075 0
20.85 0.075 0
21 0.075 0
21.15 0.075 0
21.3 0.075 0
21.45 0.075 0
21.6 0.075 0
21.75 0.075 0
21.9 0.075 0
22.05 0.075 0
22.2 0.075 0
22.35 0.075 0
22.5 0.075 0
22.65 0.075 0
22.8 0.075 0
22.95 0.075 0
23.1 0.075 0
23.25 0.075 0
23.4 0.075 0
23.55 0.075 0
23.7 0.075 0
23.85 0.075 0
24 0.075 0
24.15 0.075 0
24.3 0.075 0
24.45 0.075 0
24.6 0.075 0
24.75 0.075 0
24.9 0.075 0
25.05 0.075 0
25.2 0.075 0
25.35 0.075 0
25.5 0.075 0
25.65 0.075 0
25.8 0.075 0
25.95 0.075 0
26.1 0.075 0
26.25 0.075 0
26.4 0.075 0
26.55 0.075 0
26.7 0.075 0
26.85 0.075 0
27 0.075 0
27.15 0.075 0
27.3 0.075 0
27.45 0.075 0
27.6 0.075 0
27.75 0.075 0
27.9 0.075 0
28.05 0.075 0
28.2 0.075 0
28.35 0.075 0
28.5 0.075 0
28.65 0.075 0
28.8 0.075 0
28.95 0.075 0
29.1 0.075 0
29.25 0.075 0
29.4 0.075 0
29.55 0.075 0
29.7 0.075 0
29.85 0.075 0
0 0.15 0
0.15 0.15 0
0.3 0.15 0
0.45 0.15 0
0.6 0.15 0
0.75 0.15 0
0.9 0.15 0
1.05 0.15 0
1.2 0.15 0
1.35 0.15 0
1.5 0.15 0
1.65 0.15 0
1.8 0.15 0
1.95 0.15 0
2.1 0.15 0
2.25 0.15 0
2.4 0.15 0
2.55 0.15 0
2.7 0.15 0
2.85 0.15 0
3 0.15 0
3.15 0.15 0
3.3 0.15 0
3.45 0.15 0
3.6 0.15 0
3.75 0.15 0
3.9 0.15 0
4.05 0.15 0
4.2 0.15 0
4.35 0.15 0
4.5 0.15 0
4.65 0.15 0
4.8 0.15 0
4.95 0.15 0
5.1 0.15 0
5.25 0.15 0
5.4 0.15 0
5.55 0.15 0
5.7 0.15 0
5.85 0.15 0
6 0.15 0
6.15 0.15 0
6.3 0.15 0
6.45 0.15 0
6.6 0.15 0
6.75 0.15 0
6.9 0.15 0
7.05 0.15 0
7.2 0.15 0
7.35 0.15 0
7.5 0.15 0
7.65 0.15 0
7.8 0.15 0
7.95 0.15 0
8.1 0.15 0
8.25 0.15 0
8.4 0.15 0
8.55 0.15 0
8.7 0.15 0
8.85 0.15 0
9 0.15 0
9.15 0.15 0
9.3 0.15 0
9.45 0.15 0
9.6 0.15 0
9.75 0.15 0
9.9 0.15 0
10.05 0.15 0
10.2 0.15 0
10.35 0.15 0
10.5 0.15 0
10.65 0.15 0
10.8 0.15 0
10.95 0.15 0
11.1 0.15 0
11.25 0.15 0
11.4 0.15 0
11.55 0.15 0
11.7 0.15 0
11.85 0.15 0
12 0.15 0
12.15 0.15 0
12.3 0.15 0
12.45 0.15 0
12.6 0.15 0
12.75 0.15 0
12.9 0.15 0
13.05 0.15 0
13.2 0.15 0
13.35 0.15 0
13.5 0.15 0
13.65 0.15 0
13.8 0.15 0
13.95 0.15 0
14.1 0.15 0
14.25 0.15 0
14.4 0.15 0
14.55 0.15 0
14.7 0.15 0
14.85 0.15 0
15 0.15 0
15.15 0.15 0
15.3 0.15 0
15.45 0.15 0
15.6 0.15 0
15.75 0.15 0
15.9 0.15 0
16.05 0.15 0
16.2 0.15 0
16.35 0.15 0
16.5 0.15 0
16.65 0.15 0
16.8 0.15 0
16.95 0.15 0
17.1 0.15 0
17.25 0.15 0
17.4 0.15 0
17.55 0.15 0
17.7 0.15 0
17.85 0.15 0
18 0.15 0
18.15 0.15 0
18.3 0.15 0
18.45 0.15 0
18.6 0.15 0
18.75 0.15 0
18.9 0.15 0
19.05 0.15 0
19.2 0.15 0
19.35 0.15 0
19.5 0.15 0
19.65 0.15 0
19.8 0.15 0
19.95 0.15 0
20.1 0.15 0
20.25 0.15 0
20.4 0.15 0
20.55 0.15 0
20.7 0.15 0
20.85 0.15 0
21 0.15 0
21.15 0.15 0
21.3 0.15 0
21.45 0.15 0
21.6 0.15 0
21.75 0.15 0
21.9 0.15 0
22.05 0.15 0
22.2 0.15 0
22.35 0.15 0
22.5 0.15 0
22.65 0.15 0
22.8 0.15 0
22.95 0.15 0
23.1 0.15 0
23.25 0.15 0
23.4 0.15 0
23.55 0.15 0
23.7 0.15 0
23.85 0.15 0
24 0.15 0
24.15 0.15 0
24.3 0.15 0
24.45 0.15 0
24.6 0.15 0
24.75 0.15 0
24.9 0.15 0
25.05 0.15 0
25.2 0.15 0
25.35 0.15 0
25.5 0.15 0
25.65 0.15 0
25.8 0.15 0
25.95 0.15 0
26.1 0.15 0
26.25 0.15 0
26.4 0.15 0
26.55 0.15 0
26.7 0.15 0
26.85 0.15 0
27 0.15 0
27.15 0.15 0
27.3 0.15 0
27.45 0.15 0
27.6 0.15 0
27.75 0.15 0
27.9 0.15 0
28.05 0.15 0
28.2 0.15 0
28.35 0.15 0
28.5 0.15 0
28.65 0.15 0
28.8 0.15 0
28.95 0.15 0
29.1 0.15 0
29.25 0.15 0
29.4 0.15 0
29.55 0.15 0
29.7 0.15 0
29.85 0.15 0
0 0.225 0
0.15 0.225 0
0.3 0.225 0
0.45 0.225 0
0.6 0.225 0
0.75 0.225 0
0.9 0.225 0
1.05 0.225 0
1.2 0.225 0
1.35 0.225 0
1.5 0.225 0
1.65 0.225 0
1.8 0.225 0
1.95 0.225 0
2.1 0.225 0
2.25 0.225 0
2.4 0.225 0
2.55 0.225 0
2.7 0.225 0
2.85 0.225 0
3 0.225 0
3.15 0.225 0
3.3 0.225 0
3.45 0.225 0
3.6 0.225 0
3.75 0.225 0
3.9 0.225 0
4.05 0.225 0
4.2 0.225 0
4.35 0.225 0
4.5 0.225 0
4.65 0.225 0
4.8 0.225 0
4.95 0.225 0
5.1 0.225 0
5.25 0.225 0
5.4 0.225 0
5.55 0.225 0
5.7 0.225 0
5.85 0.225 0
6 0.225 0
6.15 0.225 0
6.3 0.225 0
6.45 0.225 0
6.6 0.225 0
6.75 0.225 0
6.9 0.225 0
7.05 0.225 0
7.2 0.225 0
7.35 0.225 0
7.5 0.225 0
7.65 0.225 0
7.8 0.225 0
7.95 0.225 0
8.1 0.225 0
8.25 0.225 0
8.4 0.225 0
8.55 0.225 0
8.7 0.225 0
8.85 0.225 0
9 0.225 0
9.15 0.225 0
9.3 0.225 0
9.45 0.225 0
9.6 0.225 0
9.75 0.225 0
9.9 0.225 0
10.05 0.225 0
10.2 0.225 0
10.35 0.225 0
10.5 0.225 0
10.65 0.225 0
10.8 0.225 0
10.95 0.225 0
11.1 0.225 0
11.25 0.225 0
11.4 0.225 0
11.55 0.225 0
11.7 0.225 0
11.85 0.225 0
12 0.225 0
12.15 0.225 0
12.3 0.225 0
12.45 0.225 0
12.6 0.225 0
12.75 0.225 0
12.9 0.225 0
13.05 0.225 0
13.2 0.225 0
13.35 0.225 0
13.5 0.225 0
13.65 0.225 0
13.8 0.225 0
13.95 0.225 0
14.1 0.225 0
14.25 0.225 0
14.4 0.225 0
14.55 0.225 0
14.7 0.225 0
14.85 0.225 0
15 0.225 0
15.15 0.225 0
15.3 0.225 0
15.45 0.225 0
15.6 0.225 0
15.75 0.225 0
15.9 0.225 0
16.05 0.225 0
16.2 0.225 0
16.35 0.225 0
16.5 0.225 0
16.65 0.225 0
16.8 0.225 0
16.95 0.225 0
17.1 0.225 0
17.25 0.225 0
17.4 0.225 0
17.55 0.225 0
17.7 0.225 0
17.85 0.225 0
18 0.225 0
18.15 0.225 0
18.3 0.225 0
18.45 0.225 0
18.6 0.225 0
18.75 0.225 0
18.9 0.225 0
19.05 0.225 0
19.2 0.225 0
19.35 0.225 0
19.5 0.225 0
19.65 0.225 0
19.8 0.225 0
19.95 0.225 0
20.1 0.225 0
20.25 0.225 0
20.4 0.225 0
20.55 0.225 0
20.7 0.225 0
20.85 0.225 0
21 0.225 0
21.15 0.225 0
21.3 0.225 0
21.45 0.225 0
21.6 0.225 0
21.75 0.225 0
21.9 0.225 0
22.05 0.225 0
22.2 0.225 0
22.35 0.225 0
22.5 0.225 0
22.65 0.225 0
22.8 0.225 0
22.95 0.225 0
23.1 0.225 0
23.25 0.225 0
23.4 0.225 0
23.55 0.225 0
23.7 0.225 0
23.85 0.225 0
24 0.225 0
24.15 0.225 0
24.3 0.225 0
24.45 0.225 0
24.6 0.225 0
24.75 0.225 0
24.9 0.225 0
25.05 0.225 0
25.2 0.225 0
25.35 0.225 0
25.5 0.225 0
25.65 0.225 0
25.8 0.225 0
25.95 0.225 0
26.1 0.225 0
26.25 0.225 0
26.4 0.225 0
26.55 0.225 0
26.7 0.225 0
26.85 0.225 0
27 0.225 0
27.15 0.225 0
27.3 0.225 0
27.45 0.225 0
27.6 0.225 0
27.75 0.225 0
27.9 0.225 0
28.05 0.225 0
28.2 0.225 0
28.35 0.225 0
28.5 0.225 0
28.65 0.225 0
28.8 0.225 0
28.95 0.225 0
29.1 0.225 0
29.25 0.225 0
29.4 0.225 0
29.55 0.225 0
29.7 0.225 0
29.85 0.225 0
0 0.3 0
0.15 0.3 0
0.3 0.3 0
0.45 0.3 0
0.6 0.3 0
0.75 0.3 0
0.9 0.3 0
1.05 0.3 0
1.2 0.3 0
1.35 0.3 0
1.5 0.3 0
1.65 0.3 0
1.8 0.3 0
1.95 0.3 0
2.1 0.3 0
2.25 0.3 0
2.4 0.3 0
2.55 0.3 0
2.7 0.3 0
2.85 0.3 0
3 0.3 0
3.15 0.3 0
3.3 0.3 0
3.45 0.3 0
3.6 0.3 0
3.75 0.3 0
3.9 0.3 0
4.05 0.3 0
4.2 0.3 0
4.35 0.3 0
4.5 0.3 0
4.65 0.3 0
4.8 0.3 0
4.95 0.3 0
5.1 0.3 0
5.25 0.3 0
5.4 0.3 0
5.55 0.3 0
5.7 0.3 0
5.85 0.3 0
6 0.3 0
6.15 0.3 0
[...]
POINT_DATA 40000

SCALARS p float 1
LOOKUP_TABLE default
20183.44214
20183.44214
20183.38715
20183.36019
20183.3428
20183.33097
20183.32487
20183.32586
20183.33416
20183.34778
20183.36344
20183.37834
20183.39123
20183.4022
20183.41165
20183.41951
20183.42581
20183.43086
20183.4349
20183.43654
20183.43278
20183.42261
20183.39753
20183.35648
20183.42241
20183.79069
20183.68791
20183.36668
20183.15224
20182.96495
20182.78374
20182.60234
20182.41881
20182.23258
20182.04349
20181.85153
20181.65684
20181.45991
20181.26188
20181.0651
20180.87225
20180.75891
20180.75867
20180.76338
20180.8566
20180.94665
20180.8742
20180.67113
20180.53072
20180.46741
20180.44554
20180.43889
20180.44046
20180.44411
20180.43883
20180.40107
20180.34275
20180.27419
20180.19369
20180.09692
20179.98168
20179.84812
20179.69821
20179.53794
20179.37529
20179.21632
20179.06627
20178.93172
20178.80366
20178.68215
20178.56612
20178.44586
20178.32906
20178.22176
20178.12772
20178.05246
20177.99824
20177.96491
20177.94706
20177.93064
20177.92517
20177.91925
20177.89461
20177.87357
20177.85708
20177.82979
20177.79456
20177.75337
20177.70426
20177.6693
20177.69058
20177.78131
20177.91554
20178.04763
20178.14994
20178.22216
20178.27527
20178.31717
20178.35199
20178.38362
20178.41478
20178.44482
20178.4719
20178.49634
20178.51893
20178.5399
20178.55598
20178.57193
20178.57256
20178.57063
20178.58564
20178.43048
20178.34781
20178.42572
20178.49508
20178.51446
20178.51171
20178.51793
20178.55136
20178.61848
20178.71934
20178.85027
20179.00633
20179.1822
20179.37277
20179.57364
20179.78075
20179.99109
20180.20178
20180.41079
20180.61625
20180.81664
20181.01066
20181.19709
20181.37485
20181.5429
20181.70034
20181.8464
20181.98051
20182.10236
20182.21192
20182.30939
20182.3952
20182.47007
20182.53504
20182.59081
20182.63826
20182.67828
20182.71227
20182.74014
20182.76267
20182.7807
20182.79457
20182.80398
20182.80955
20182.81113
20182.80892
20182.80276
20182.79284
20182.7789
20182.7612
20182.73991
20182.71543
20182.6878
20182.65747
20182.62483
20182.59047
20182.55467
20182.51792
20182.48048
20182.44277
20182.40492
20182.36717
20182.32951
20182.29202
20182.25459
20182.21724
20182.17983
20182.14243
20182.10497
20182.06763
20182.03046
20181.9937
20181.95747
20181.922
20181.88736
20181.8537
20181.82099
20181.78924
20181.7583
20181.72806
20181.69836
20181.66903
20181.63994
20181.61082
20181.58169
20181.5519
20181.52185
20181.49021
20181.49021
20183.44214
20183.44214
20183.38715
20183.36019
20183.3428
20183.33097
20183.32487
20183.32586
20183.33416
20183.34778
20183.36344
20183.37834
20183.39123
20183.4022
20183.41165
20183.41951
20183.42581
20183.43086
20183.4349
20183.43654
20183.43278
20183.42261
20183.39753
20183.35648
20183.42241
20183.79069
20183.68791
20183.36668
20183.15224
20182.96495
20182.78374
20182.60234
20182.41881
20182.23258
20182.04349
20181.85153
20181.65684
20181.45991
20181.26188
20181.0651
20180.87225
20180.75891
20180.75867
20180.76338
20180.8566
20180.94665
20180.8742
20180.67113
20180.53072
20180.46741
20180.44554
20180.43889
20180.44046
20180.44411
20180.43883
20180.40107
20180.34275
20180.27419
20180.19369
20180.09692
20179.98168
20179.84812
20179.69821
20179.53794
20179.37529
20179.21632
20179.06627
20178.93172
20178.80366
20178.68215
20178.56612
20178.44586
20178.32906
20178.22176
20178.12772
20178.05246
20177.99824
20177.96491
20177.94706
20177.93064
20177.92517
20177.91925
20177.89461
20177.87357
20177.85708
20177.82979
20177.79456
20177.75337
20177.70426
20177.6693
20177.69058
20177.78131
20177.91554
20178.04763
20178.14994
20178.22216
20178.27527
20178.31717
20178.35199
20178.38362
20178.41478
20178.44482
20178.4719
20178.49634
20178.51893
20178.5399
20178.55598
20178.57193
20178.57256
20178.57063
20178.58564
20178.43048
20178.34781
20178.42572
20178.49508
20178.51446
20178.51171
20178.51793
20178.55136
20178.61848
20178.71934
20178.85027
20179.00633
20179.1822
20179.37277
20179.57364
20179.78075
20179.99109
20180.20178
20180.41079
20180.61625
20180.81664
20181.01066
20181.19709
20181.37485
20181.5429
20181.70034
20181.8464
20181.98051
20182.10236
20182.21192
20182.30939
20182.3952
20182.47007
20182.53504
20182.59081
20182.63826
20182.67828
20182.71227
20182.74014
20182.76267
20182.7807
20182.79457
20182.80398
20182.80955
20182.81113
20182.80892
20182.80276
20182.79284
20182.7789
20182.7612
20182.73991
20182.71543
20182.6878
20182.65747
20182.62483
20182.59047
20182.55467
20182.51792
20182.48048
20182.44277
20182.40492
20182.36717
20182.32951
20182.29202
20182.25459
20182.21724
20182.17983
20182.14243
20182.10497
20182.06763
20182.03046
20181.9937
20181.95747
20181.922
20181.88736
20181.8537
20181.82099
20181.78924
20181.7583
20181.72806
20181.69836
20181.66903
20181.63994
20181.61082
20181.58169
20181.5519
20181.52185
20181.49021
20181.49021
20183.4094
20183.4094
20183.37792
20183.35552
20183.34016
20183.32994
20183.32515
20183.32696
20183.33554
20183.3491
20183.36459
20183.37935
20183.39212
20183.40302
20183.41238
20183.42012
20183.42625
20183.43112
20183.43511
20183.43726
20183.43503
20183.42283
20183.38146
20183.32066
20183.34134
20183.60596
20183.56839
20183.34071
20183.1457
20182.9635
20182.78379
20182.60286
20182.41947
20182.23328
20182.04419
20181.85219
20181.6574
20181.46017
20181.26157
20181.06418
20180.87494
20180.78622
20180.74918
20180.73439
20180.81394
20180.8974
20180.81872
20180.63359
20180.50009
20180.43897
20180.43124
20180.44017
20180.44265
20180.44269
20180.43696
20180.39984
20180.3425
20180.27526
20180.19546
20180.09855
20179.98242
20179.84715
20179.69531
20179.53358
20179.36958
20179.20917
20179.06127
20178.92778
20178.80091
20178.68298
20178.56548
20178.44407
20178.32759
20178.21754
20178.12013
20178.04165
20177.98607
20177.95425
20177.94094
20177.93183
20177.93074
20177.92247
20177.8937
20177.86986
20177.85418
20177.82929
20177.79616
20177.75156
20177.69103
20177.64998
20177.67189
20177.765
20177.90424
20178.04296
20178.1503
20178.22497
20178.27829
20178.3194
20178.35312
20178.38372
20178.41425
20178.44418
20178.47135
20178.49596
20178.51869
20178.53976
20178.55615
20178.57292
20178.5718
20178.56081
20178.59724
20178.45251
20178.35265
20178.40831
20178.46504
20178.4823
20178.48278
20178.49373
20178.53168
20178.60261
20178.70645
20178.83973
20178.99755
20179.1748
20179.36636
20179.56799
20179.77564
20179.98635
20180.1973
20180.40648
20180.61205
20180.81254
20181.00666
20181.19322
20181.37115
20181.53941
20181.6971
20181.84345
20181.97787
20182.10004
20182.20988
20182.30759
20182.3936
20182.46865
20182.53373
20182.58953
20182.63709
20182.67707
20182.71108
20182.73898
20182.76148
20182.7795
20182.7934
20182.80282
20182.8084
20182.81001
20182.80782
20182.80169
20182.79182
20182.77791
20182.76022
20182.73894
20182.71447
20182.68684
20182.6565
20182.62385
20182.5895
20182.55371
20182.51697
20182.47956
20182.44189
20182.4041
20182.36645
20182.32887
20182.29151
20182.25419
20182.21698
20182.17968
20182.14239
20182.10502
20182.06776
20182.03064
20181.99392
20181.9577
20181.92224
20181.88762
20181.85397
20181.82128
20181.78954
20181.75862
20181.7284
20181.69871
20181.6694
20181.64032
20181.61122
20181.5821
20181.55232
20181.52218
20181.48995
20181.48995
20183.38348
20183.38348
20183.3644
20183.3472
20183.33458
20183.32643
20183.32324
20183.32587
20183.33447
20183.34766
20183.36298
20183.37804
20183.39149
20183.40307
20183.41282
20183.42067
20183.4268
20183.43159
20183.43579
20183.43888
20183.43742
20183.41946
20183.35824
20183.28874
20183.28583
20183.43441
20183.44374
20183.30656
20183.13623
20182.96151
20182.78419
20182.604
20182.42084
20182.23471
20182.04562
20181.85356
20181.65855
20181.46077
20181.26093
20181.06128
20180.86873
20180.77917
20180.71539
20180.68472
20180.74708
20180.81588
20180.73405
20180.57262
20180.44689
20180.38605
20180.39713
20180.43529
20180.44904
20180.44847
20180.43864
20180.39937
20180.34354
20180.27927
20180.20096
20180.10355
20179.98545
20179.84686
20179.69114
20179.52629
20179.35951
20179.19627
20179.05182
20178.92033
20178.79515
20178.68459
20178.56405
20178.43977
20178.32486
20178.20878
20178.10387
20178.01754
20177.95721
20177.92596
20177.91898
20177.92152
20177.92745
20177.92149
20177.89367
20177.86773
20177.85298
20177.83081
20177.79622
20177.73885
20177.66163
20177.61749
20177.64348
20177.74007
20177.88626
20178.03484
20178.14916
20178.22736
20178.28175
20178.32281
20178.35586
20178.38521
20178.41455
20178.44375
20178.47063
20178.49551
20178.51888
20178.54047
20178.55651
20178.56987
20178.58281
20178.5532
20178.56087
20178.44313
20178.34375
20178.35984
20178.39229
20178.4071
20178.41589
20178.43815
20178.48661
20178.5664
20178.6772
20178.81599
20178.978
20179.15849
20179.3525
20179.55593
20179.76495
20179.97658
20180.18822
20180.39786
20180.60378
20180.80457
20180.99899
20181.18589
20181.36423
20181.533
20181.69128
20181.83827
20181.97337
20182.09618
20182.2066
20182.30478
20182.39119
20182.46657
20182.53178
20182.58765
20182.63536
20182.67524
20182.70927
20182.7372
20182.75961
20182.77765
20182.79157
20182.80099
20182.80663
20182.80827
20182.80613
20182.80005
20182.79023
20182.77631
20182.75862
20182.73732
20182.71285
20182.68513
20182.65474
20182.62201
20182.58762
20182.55175
20182.51499
20182.47755
20182.43992
20182.40215
20182.36459
20182.3271
20182.28989
20182.2527
20182.21566
20182.1785
20182.14138
20182.10412
20182.06701
20182.02998
20181.9934
20181.95728
20181.92196
20181.88744
20181.85394
20181.82136
20181.78978
20181.75896
20181.7289
20181.6993
20181.67014
20181.64117
20181.61225
20181.58326
20181.5537
20181.52347
20181.4904
20181.4904
20183.36249
20183.36249
20183.35042
20183.33753
20183.32745
20183.32112
20183.31922
20183.32239
20183.33071
20183.3432
20183.358
20183.37319
20183.38745
20183.40021
20183.41116
20183.42004
20183.42686
20183.43203
20183.43666
20183.44058
20183.43871
20183.41467
20183.34247
20183.28214
20183.28142
20183.35674
20183.37366
20183.28067
20183.12844
20182.96037
20182.78536
20182.60591
20182.42295
20182.23687
20182.04778
20181.85565
20181.66037
20181.46184
20181.26019
20181.05635
20180.85123
20180.7448
20180.669
20180.63545
20180.68155
20180.72777
20180.64877
20180.5068
20180.38852
20180.32839
20180.35348
20180.42513
20180.46294
20180.46629
20180.44843
20180.404
20180.349
20180.28681
20180.20885
20180.10994
20179.98886
20179.84615
20179.6857
20179.51662
20179.34626
20179.18148
20179.04022
20178.91113
20178.78994
20178.6855
20178.56142
20178.43606
20178.32148
20178.19745
20178.08495
20177.98945
20177.9224
20177.88965
20177.88819
20177.90163
20177.91426
20177.91438
20177.89414
20177.87038
20177.85548
20177.83366
20177.7944
20177.72018
20177.63235
20177.59243
20177.62212
20177.71845
20177.86802
20178.02478
20178.14583
20178.22783
20178.28447
20178.32723
20178.36115
20178.38953
20178.41666
20178.44371
20178.46959
20178.49495
20178.51948
20178.54003
20178.55968
20178.5608
20178.55704
20178.51611
20178.48209
20178.38211
20178.29304
20178.28217
20178.29665
20178.31173
20178.33082
20178.36636
20178.42735
20178.51786
20178.63735
20178.78304
20178.9505
20179.13515
20179.33242
20179.5382
20179.74903
20179.96188
20180.17443
20180.38468
20180.59107
20180.79225
20180.98705
20181.17443
20181.35335
20181.52284
20181.68198
20181.82993
20181.96603
20182.08982
20182.20114
20182.3001
20182.38717
20182.46304
20182.52852
20182.58457
20182.63246
20182.67229
20182.70631
20182.73431
20182.75663
20182.77471
20182.78863
20182.79809
20182.8038
20182.80549
20182.80341
20182.79742
20182.78767
20182.77374
20182.75603
20182.73471
20182.7102
20182.68237
20182.65185
20182.619
20182.58452
20182.54853
20182.5117
20182.47419
20182.43656
20182.39881
20182.36133
20182.32393
20182.28688
20182.24985
20182.21301
20182.17602
20182.1391
20182.10201
20182.0651
20182.02825
20181.99189
20181.956
20181.92095
20181.88669
20181.85348
20181.82116
20181.78987
20181.7593
20181.72954
20181.70019
20181.67135
20181.64265
20181.61411
20181.58544
20181.55638
20181.52645
20181.49364
20181.49364
20183.34468
20183.34468
20183.33679
20183.32728
20183.31947
20183.3147
20183.31376
20183.3172
20183.32507
20183.33663
20183.35057
20183.3654
20183.38003
20183.39377
20183.40613
20183.41664
20183.42505
20183.4315
20183.43689
20183.44105
20183.43776
20183.41108
20183.33907
20183.29085
20183.29738
20183.34152
20183.35266
20183.26927
20183.12543
20182.96128
20182.78774
20182.60873
20182.42586
20182.23978
20182.0507
20181.85852
20181.66298
20181.46362
20181.25985
20181.05086
20180.82946
20180.7012
20180.62209
20180.5905
20180.62367
20180.6488
20180.57062
20180.44084
20180.33136
20180.27417
20180.31178
20180.41381
20180.48038
20180.49118
20180.46573
20180.4158
20180.35984
20180.29676
20180.21715
20180.11593
20179.99144
20179.8444
20179.67896
20179.50501
20179.33105
20179.16638
20179.02751
20178.90182
20178.78653
20178.68501
20178.55876
20178.43479
20178.31605
20178.18444
20178.06652
20177.96135
20177.88708
20177.85263
20177.85643
20177.88065
20177.89988
20177.90466
20177.8935
20177.87498
20177.85762
20177.83163
20177.78698
20177.70071
20177.61262
20177.58171
20177.61303
20177.70568
20177.85453
20178.01527
20178.14111
20178.22678
20178.28673
20178.33271
20178.36899
20178.3968
20178.42068
20178.44407
20178.46827
20178.49404
20178.51979
20178.53726
20178.54143
20178.5253
20178.49362
20178.43704
20178.37681
20178.28735
20178.20986
20178.18622
20178.19111
20178.20813
20178.23701
20178.28518
20178.35868
20178.46025
20178.58915
20178.74245
20178.91614
20179.10558
20179.30667
20179.51525
20179.7282
20179.94254
20180.15614
20180.36713
20180.57403
20180.77565
20180.9709
20181.15882
20181.33844
20181.50881
20181.669
20181.81815
20181.95555
20182.08065
20182.1932
20182.29326
20182.38127
20182.45784
20182.52378
20182.58018
20182.62825
20182.66818
20182.70219
20182.73028
20182.75254
20182.77066
20182.78457
20182.7941
20182.79989
20182.80166
20182.79963
20182.79378
20182.7841
20182.77019
20182.75245
20182.73113
20182.70654
20182.67857
20182.64787
20182.61486
20182.58022
20182.54407
20182.50709
20182.46949
20182.4318
20182.39406
20182.35665
20182.31938
20182.28251
20182.24571
20182.20912
20182.17238
20182.13571
20182.09885
20182.06217
20182.02558
20181.9895
20181.95391
20181.9192
20181.88531
20181.8525
20181.82057
20181.78969
20181.75951
20181.73016
20181.70124
20181.67286
20181.64463
20181.61665
20181.58856
20181.56028
20181.53127
20181.50029
20181.50029
20183.32893
20183.32893
20183.32366
20183.31674
20183.31087
20183.30745
20183.3073
20183.3109
20183.31829
20183.32893
20183.34185
20183.35596
20183.37039
20183.38452
20183.39785
20183.40987
20183.42016
20183.42853
20183.43513
20183.43909
20183.43441
20183.40915
20183.34744
20183.3114
20183.32497
20183.36082
20183.36295
20183.27204
20183.12837
20182.96493
20182.79162
20182.61254
20182.42957
20182.24345
20182.05438
20181.86222
20181.66649
20181.46641
20181.2606
20181.04673
20180.80958
20180.66003
20180.58005
20180.55104
20180.57466
20180.58392
20180.50521
20180.38479
20180.28277
20180.22973
20180.27937
20180.40503
20180.49569
20180.51373
20180.48435
20180.43133
20180.37305
20180.30683
20180.22437
20180.12022
20179.99202
20179.84054
20179.6702
20179.49138
20179.31452
20179.15085
20179.01418
20178.89311
20178.78406
20178.68318
20178.55731
20178.43431
20178.30698
20178.17152
20178.04822
20177.93167
20177.85002
20177.81531
20177.82653
20177.86274
20177.891
20177.8984
20177.89128
20177.87652
20177.85494
20177.8219
20177.77268
20177.68351
20177.60279
20177.58094
20177.61238
20177.70087
20177.847
20178.00776
20178.13562
20178.22478
20178.28917
20178.33959
20178.37876
20178.40596
20178.42567
20178.44433
20178.46632
20178.49215
20178.51145
20178.51404
20178.49519
20178.45516
20178.40014
20178.3308
20178.25782
20178.17505
20178.10661
20178.07809
20178.07873
20178.09861
20178.1364
20178.19625
20178.2819
20178.39463
20178.53341
20178.69492
20178.87544
20179.07028
20179.27564
20179.48746
20179.7028
20179.91888
20180.13365
20180.34547
20180.55295
20180.75504
20180.95079
20181.1393
20181.31969
20181.49104
20181.65243
20181.80297
20181.94187
20182.06852
20182.18258
20182.28403
20182.37323
20182.45073
20182.51739
20182.57433
20182.6226
20182.66285
20182.69689
20182.72506
20182.74734
20182.76553
20182.77942
20182.78907
20182.79496
20182.79684
20182.79488
20182.78921
20182.77961
20182.76576
20182.74797
20182.72663
20182.70193
20182.67382
20182.64288
20182.60967
20182.57478
20182.53844
20182.50121
20182.46349
20182.42568
20182.38795
20182.35057
20182.31348
20182.27681
20182.24034
20182.20405
20182.16769
20182.13134
20182.09483
20182.05844
20182.02217
20181.98639
20181.95118
20181.91684
20181.8834
20181.85102
20181.81959
20181.78916
20181.7595
20181.73063
20181.70226
20181.67442
20181.64682
20181.61952
20181.59223
20181.56495
20181.53737
20181.50915
20181.50915
20183.31456
20183.31456
20183.31098
20183.30604
20183.30178
20183.29952
20183.30003
20183.30376
20183.31074
20183.32057
20183.33253
20183.3458
20183.35967
20183.37366
20183.38734
20183.40029
20183.41208
20183.42226
20183.43027
20183.43431
20183.42905
20183.40757
20183.36251
20183.33984
20183.35771
20183.39409
20183.38973
20183.2859
20183.13705
20182.97146
20182.79707
20182.61737
20182.43406
20182.24784
20182.05884
20181.86678
20181.67104
20181.47048
20181.26308
20181.04555
20180.7953
20180.62652
20180.54471
20180.51774
20180.53547
20180.53519
20180.45781
20180.34619
20180.24982
20180.20227
20180.26195
20180.40118
20180.50476
20180.52757
20180.49864
20180.44566
20180.38502
20180.31494
20180.2288
20180.12105
20179.989
20179.83327
20179.65861
20179.47559
20179.29681
20179.13467
20179.00062
20178.8849
20178.78133
20178.67984
20178.55503
20178.43053
20178.29624
20178.1598
20178.02742
20177.8997
20177.81092
20177.77702
20177.79886
20177.84909
20177.88934
20177.8988
20177.89034
20177.87513
20177.84802
20177.80791
20177.75398
20177.66886
20177.59876
20177.58353
20177.6147
20177.70073
20177.84378
20178.00159
20178.12928
20178.22223
20178.29227
20178.348
20178.3896
20178.41558
20178.43054
20178.44409
20178.46257
20178.48074
20178.48411
20178.46353
20178.42041
20178.36032
20178.28939
20178.21099
20178.13155
20178.05263
20177.99007
20177.96027
20177.95987
20177.98345
20178.02971
20178.10062
20178.19812
20178.32215
20178.47112
20178.64137
20178.82919
20179.02996
20179.23994
20179.45536
20179.67329
20179.89129
20180.10735
20180.32005
20180.52816
20180.73077
20180.92705
20181.11622
20181.29746
20181.46991
20181.63263
20181.7847
20181.92527
20182.05363
20182.16937
20182.27238
20182.36293
20182.44155
20182.50913
20182.56674
20182.61534
20182.65613
20182.69021
20182.71851
20182.74097
20182.75925
20182.77317
20182.783
20182.78903
20182.79107
20182.78921
20182.78374
20182.77426
20182.76051
20182.74267
20182.7213
20182.69646
20182.66821
20182.63697
20182.60349
20182.56829
20182.5317
20182.49416
20182.45625
20182.41825
20182.3805
20182.34311
20182.30623
20182.26978
20182.23373
20182.19782
20182.16196
20182.12604
20182.09
20182.05398
20182.01814
20181.98271
20181.94794
20181.914
20181.88105
20181.84913
20181.81825
20181.78832
20181.75924
20181.7309
20181.70314
20181.6759
20181.64902
20181.62247
20181.5961
20181.56992
20181.54392
20181.51844
20181.51844
20183.30111
20183.30111
20183.29869
20183.29523
20183.29229
20183.291
20183.29208
20183.29593
20183.30259
20183.31175
20183.32288
20183.33532
20183.34853
20183.36209
20183.37567
20183.38896
20183.40158
20183.41301
20183.42226
20183.42709
20183.42225
20183.4063
20183.37851
20183.36933
20183.39183
20183.43136
20183.42338
20183.30745
20183.15048
20182.98058
20182.80397
20182.62313
20182.43928
20182.25293
20182.06404
20181.87224
20181.67672
20181.47609
20181.26784
20181.04844
20180.78852
20180.6026
20180.51675
20180.4908
20180.50611
20180.50278
20180.43053
20180.32903
20180.23942
20180.1988
20180.26398
20180.40389
20180.5067
20180.53163
20180.50646
20180.45567
20180.39309
20180.31883
20180.22838
20180.11668
20179.98109
20179.82181
20179.64379
20179.45769
20179.27791
20179.11772
20178.98672
20178.8763
20178.77677
20178.67391
20178.54916
20178.42108
20178.28394
20178.14707
20178.00647
20177.87077
20177.77252
20177.73882
20177.7738