# vtk DataFile Version 2.0
FlowField
ASCII
DATASET STRUCTURED_GRID
DIMENSIONS 200 1 200
POINTS 40000 float
0 0 0
0.15 0 0
0.3 0 0
0.45 0 0
0.6 0 0
0.75 0 0
0.9 0 0
1.05 0 0
1.2 0 0
1.35 0 0
1.5 0 0
1.65 0 0
1.8 0 0
1.95 0 0
2.1 0 0
2.25 0 0
2.4 0 0
2.55 0 0
2.7 0 0
2.85 0 0
3 0 0
3.15 0 0
3.3 0 0
3.45 0 0
3.6 0 0
3.75 0 0
3.9 0 0
4.05 0 0
4.2 0 0
4.35 0 0
4.5 0 0
4.65 0 0
4.8 0 0
4.95 0 0
5.1 0 0
5.25 0 0
5.4 0 0
5.55 0 0
5.7 0 0
5.85 0 0
6 0 0
6.15 0 0
6.3 0 0
6.45 0 0
6.6 0 0
6.75 0 0
6.9 0 0
7.05 0 0
7.2 0 0
7.35 0 0
7.5 0 0
7.65 0 0
7.8 0 0
7.95 0 0
8.1 0 0
8.25 0 0
8.4 0 0
8.55 0 0
8.7 0 0
8.85 0 0
9 0 0
9.15 0 0
9.3 0 0
9.45 0 0
9.6 0 0
9.75 0 0
9.9 0 0
10.05 0 0
10.2 0 0
10.35 0 0
10.5 0 0
10.65 0 0
10.8 0 0
10.95 0 0
11.1 0 0
11.25 0 0
11.4 0 0
11.55 0 0
11.7 0 0
11.85 0 0
12 0 0
12.15 0 0
12.3 0 0
12.45 0 0
12.6 0 0
12.75 0 0
12.9 0 0
13.05 0 0
13.2 0 0
13.35 0 0
13.5 0 0
13.65 0 0
13.8 0 0
13.95 0 0
14.1 0 0
14.25 0 0
14.4 0 0
14.55 0 0
14.7 0 0
14.85 0 0
15 0 0
15.15 0 0
15.3 0 0
15.45 0 0
15.6 0 0
15.75 0 0
15.9 0 0
16.05 0 0
16.2 0 0
16.35 0 0
16.5 0 0
16.65 0 0
16.8 0 0
16.95 0 0
17.1 0 0
17.25 0 0
17.4 0 0
17.55 0 0
17.7 0 0
17.85 0 0
18 0 0
18.15 0 0
18.3 0 0
18.45 0 0
18.6 0 0
18.75 0 0
18.9 0 0
19.05 0 0
19.2 0 0
19.35 0 0
19.5 0 0
19.65 0 0
19.8 0 0
19.95 0 0
20.1 0 0
20.25 0 0
20.4 0 0
20.55 0 0
20.7 0 0
20.85 0 0
21 0 0
21.15 0 0
21.3 0 0
21.45 0 0
21.6 0 0
21.75 0 0
21.9 0 0
22.05 0 0
22.2 0 0
22.35 0 0
22.5 0 0
22.65 0 0
22.8 0 0
22.95 0 0
23.1 0 0
23.25 0 0
23.4 0 0
23.55 0 0
23.7 0 0
23.85 0 0
24 0 0
24.15 0 0
24.3 0 0
24.45 0 0
24.6 0 0
24.75 0 0
24.9 0 0
25.05 0 0
25.2 0 0
25.35 0 0
25.5 0 0
25.65 0 0
25.8 0 0
25.95 0 0
26.1 0 0
26.25 0 0
26.4 0 0
26.55 0 0
26.7 0 0
26.85 0 0
27 0 0
27.15 0 0
27.3 0 0
27.45 0 0
27.6 0 0
27.75 0 0
27.9 0 0
28.05 0 0
28.2 0 0
28.35 0 0
28.5 0 0
28.65 0 0
28.8 0 0
28.95 0 0
29.1 0 0
29.25 0 0
29.4 0 0
29.55 0 0
29.7 0 0
29.85 0 0
0 0.075 0
0.15 0.075 0
0.3 0.075 0
0.45 0.075 0
0.6 0.075 0
0.75 0.075 0
0.9 0.075 0
1.05 0.075 0
1.2 0.075 0
1.35 0.075 0
1.5 0.075 0
1.65 0.075 0
1.8 0.075 0
1.95 0.075 0
2.1 0.075 0
2.25 0.075 0
2.4 0.075 0
2.55 0.075 0
2.7 0.075 0
2.85 0.075 0
3 0.075 0
3.15 0.075 0
3.3 0.075 0
3.45 0.075 0
3.6 0.075 0
3.75 0.075 0
3.9 0.075 0
4.05 0.075 0
4.2 0.075 0
4.35 0.075 0
4.5 0.075 0
4.65 0.075 0
4.8 0.075 0
4.95 0.075 0
5.1 0.075 0
5.25 0.075 0
5.4 0.075 0
5.55 0.075 0
5.7 0.075 0
5.85 0.075 0
6 0.075 0
6.15 0.075 0
6.3 0.075 0
6.45 0.075 0
6.6 0.075 0
6.75 0.075 0
6.9 0.075 0
7.05 0.075 0
7.2 0.075 0
7.35 0.075 0
7.5 0.075 0
7.65 0.075 0
7.8 0.075 0
7.95 0.075 0
8.1 0.075 0
8.25 0.075 0
8.4 0.075 0
8.55 0.075 0
8.7 0.075 0
8.85 0.075 0
9 0.075 0
9.15 0.075 0
9.3 0.075 0
9.45 0.075 0
9.6 0.075 0
9.75 0.075 0
9.9 0.075 0
10.05 0.075 0
10.2 0.075 0
10.35 0.075 0
10.5 0.075 0
10.65 0.075 0
10.8 0.075 0
10.95 0.075 0
11.1 0.075 0
11.25 0.075 0
11.4 0.075 0
11.55 0.075 0
11.7 0.075 0
11.85 0.075 0
12 0.075 0
12.15 0.075 0
12.3 0.075 0
12.45 0.075 0
12.6 0.075 0
12.75 0.075 0
12.9 0.075 0
13.05 0.075 0
13.2 0.075 0
13.35 0.075 0
13.5 0.075 0
13.65 0.075 0
13.8 0.075 0
13.95 0.075 0
14.1 0.075 0
14.25 0.075 0
14.4 0.075 0
14.55 0.075 0
14.7 0.075 0
14.85 0.075 0
15 0.075 0
15.15 0.075 0
15.3 0.075 0
15.45 0.075 0
15.6 0.075 0
15.75 0.075 0
15.9 0.075 0
16.05 0.075 0
16.2 0.075 0
16.35 0.075 0
16.5 0.075 0
16.65 0.075 0
16.8 0.075 0
16.95 0.075 0
17.1 0.075 0
17.25 0.075 0
17.4 0.075 0
17.55 0.075 0
17.7 0.075 0
17.85 0.075 0
18 0.075 0
18.15 0.075 0
18.3 0.075 0
18.45 0.075 0
18.6 0.075 0
18.75 0.075 0
18.9 0.075 0
19.05 0.075 0
19.2 0.075 0
19.35 0.075 0
19.5 0.075 0
19.65 0.075 0
19.8 0.075 0
19.95 0.075 0
20.1 0.075 0
20.25 0.075 0
20.4 0.075 0
20.55 0.075 0
20.7 0.075 0
20.85 0.075 0
21 0.075 0
21.15 0.075 0
21.3 0.075 0
21.45 0.075 0
21.6 0.075 0
21.75 0.075 0
21.9 0.075 0
22.05 0.075 0
22.2 0.075 0
22.35 0.075 0
22.5 0.075 0
22.65 0.075 0
22.8 0.075 0
22.95 0.075 0
23.1 0.075 0
23.25 0.075 0
23.4 0.075 0
23.55 0.075 0
23.7 0.075 0
23.85 0.075 0
24 0.075 0
24.15 0.075 0
24.3 0.075 0
24.45 0.075 0
24.6 0.075 0
24.75 0.075 0
24.9 0.075 0
25.05 0.075 0
25.2 0.075 0
25.35 0.075 0
25.5 0.075 0
25.65 0.075 0
25.8 0.075 0
25.95 0.075 0
26.1 0.075 0
26.25 0.075 0
26.4 0.075 0
26.55 0.075 0
26.7 0.075 0
26.85 0.075 0
27 0.075 0
27.15 0.075 0
27.3 0.075 0
27.45 0.075 0
27.6 0.075 0
27.75 0.075 0
27.9 0.075 0
28.05 0.075 0
28.2 0.075 0
28.35 0.075 0
28.5 0.075 0
28.65 0.075 0
28.8 0.075 0
28.95 0.075 0
29.1 0.075 0
29.25 0.075 0
29.4 0.075 0
29.55 0.075 0
29.7 0.075 0
29.85 0.075 0
0 0.15 0
0.15 0.15 0
0.3 0.15 0
0.45 0.15 0
0.6 0.15 0
0.75 0.15 0
0.9 0.15 0
1.05 0.15 0
1.2 0.15 0
1.35 0.15 0
1.5 0.15 0
1.65 0.15 0
1.8 0.15 0
1.95 0.15 0
2.1 0.15 0
2.25 0.15 0
2.4 0.15 0
2.55 0.15 0
2.7 0.15 0
2.85 0.15 0
3 0.15 0
3.15 0.15 0
3.3 0.15 0
3.45 0.15 0
3.6 0.15 0
3.75 0.15 0
3.9 0.15 0
4.05 0.15 0
4.2 0.15 0
4.35 0.15 0
4.5 0.15 0
4.65 0.15 0
4.8 0.15 0
4.95 0.15 0
5.1 0.15 0
5.25 0.15 0
5.4 0.15 0
5.55 0.15 0
5.7 0.15 0
5.85 0.15 0
6 0.15 0
6.15 0.15 0
6.3 0.15 0
6.45 0.15 0
6.6 0.15 0
6.75 0.15 0
6.9 0.15 0
7.05 0.15 0
7.2 0.15 0
7.35 0.15 0
7.5 0.15 0
7.65 0.15 0
7.8 0.15 0
7.95 0.15 0
8.1 0.15 0
8.25 0.15 0
8.4 0.15 0
8.55 0.15 0
8.7 0.15 0
8.85 0.15 0
9 0.15 0
9.15 0.15 0
9.3 0.15 0
9.45 0.15 0
9.6 0.15 0
9.75 0.15 0
9.9 0.15 0
10.05 0.15 0
10.2 0.15 0
10.35 0.15 0
10.5 0.15 0
10.65 0.15 0
10.8 0.15 0
10.95 0.15 0
11.1 0.15 0
11.25 0.15 0
11.4 0.15 0
11.55 0.15 0
11.7 0.15 0
11.85 0.15 0
12 0.15 0
12.15 0.15 0
12.3 0.15 0
12.45 0.15 0
12.6 0.15 0
12.75 0.15 0
12.9 0.15 0
13.05 0.15 0
13.2 0.15 0
13.35 0.15 0
13.5 0.15 0
13.65 0.15 0
13.8 0.15 0
13.95 0.15 0
14.1 0.15 0
14.25 0.15 0
14.4 0.15 0
14.55 0.15 0
14.7 0.15 0
14.85 0.15 0
15 0.15 0
15.15 0.15 0
15.3 0.15 0
15.45 0.15 0
15.6 0.15 0
15.75 0.15 0
15.9 0.15 0
16.05 0.15 0
16.2 0.15 0
16.35 0.15 0
16.5 0.15 0
16.65 0.15 0
16.8 0.15 0
16.95 0.15 0
17.1 0.15 0
17.25 0.15 0
17.4 0.15 0
17.55 0.15 0
17.7 0.15 0
17.85 0.15 0
18 0.15 0
18.15 0.15 0
18.3 0.15 0
18.45 0.15 0
18.6 0.15 0
18.75 0.15 0
18.9 0.15 0
19.05 0.15 0
19.2 0.15 0
19.35 0.15 0
19.5 0.15 0
19.65 0.15 0
19.8 0.15 0
19.95 0.15 0
20.1 0.15 0
20.25 0.15 0
20.4 0.15 0
20.55 0.15 0
20.7 0.15 0
20.85 0.15 0
21 0.15 0
21.15 0.15 0
21.3 0.15 0
21.45 0.15 0
21.6 0.15 0
21.75 0.15 0
21.9 0.15 0
22.05 0.15 0
22.2 0.15 0
22.35 0.15 0
22.5 0.15 0
22.65 0.15 0
22.8 0.15 0
22.95 0.15 0
23.1 0.15 0
23.25 0.15 0
23.4 0.15 0
23.55 0.15 0
23.7 0.15 0
23.85 0.15 0
24 0.15 0
24.15 0.15 0
24.3 0.15 0
24.45 0.15 0
24.6 0.15 0
24.75 0.15 0
24.9 0.15 0
25.05 0.15 0
25.2 0.15 0
25.35 0.15 0
25.5 0.15 0
25.65 0.15 0
25.8 0.15 0
25.95 0.15 0
26.1 0.15 0
26.25 0.15 0
26.4 0.15 0
26.55 0.15 0
26.7 0.15 0
26.85 0.15 0
27 0.15 0
27.15 0.15 0
27.3 0.15 0
27.45 0.15 0
27.6 0.15 0
27.75 0.15 0
27.9 0.15 0
28.05 0.15 0
28.2 0.15 0
28.35 0.15 0
28.5 0.15 0
28.65 0.15 0
28.8 0.15 0
28.95 0.15 0
29.1 0.15 0
29.25 0.15 0
29.4 0.15 0
29.55 0.15 0
29.7 0.15 0
29.85 0.15 0
0 0.225 0
0.15 0.225 0
0.3 0.225 0
0.45 0.225 0
0.6 0.225 0
0.75 0.225 0
0.9 0.225 0
1.05 0.225 0
1.2 0.225 0
1.35 0.225 0
1.5 0.225 0
1.65 0.225 0
1.8 0.225 0
1.95 0.225 0
2.1 0.225 0
2.25 0.225 0
2.4 0.225 0
2.55 0.225 0
2.7 0.225 0
2.85 0.225 0
3 0.225 0
3.15 0.225 0
3.3 0.225 0
3.45 0.225 0
3.6 0.225 0
3.75 0.225 0
3.9 0.225 0
4.05 0.225 0
4.2 0.225 0
4.35 0.225 0
4.5 0.225 0
4.65 0.225 0
4.8 0.225 0
4.95 0.225 0
5.1 0.225 0
5.25 0.225 0
5.4 0.225 0
5.55 0.225 0
5.7 0.225 0
5.85 0.225 0
6 0.225 0
6.15 0.225 0
6.3 0.225 0
6.45 0.225 0
6.6 0.225 0
6.75 0.225 0
6.9 0.225 0
7.05 0.225 0
7.2 0.225 0
7.35 0.225 0
7.5 0.225 0
7.65 0.225 0
7.8 0.225 0
7.95 0.225 0
8.1 0.225 0
8.25 0.225 0
8.4 0.225 0
8.55 0.225 0
8.7 0.225 0
8.85 0.225 0
9 0.225 0
9.15 0.225 0
9.3 0.225 0
9.45 0.225 0
9.6 0.225 0
9.75 0.225 0
9.9 0.225 0
10.05 0.225 0
10.2 0.225 0
10.35 0.225 0
10.5 0.225 0
10.65 0.225 0
10.8 0.225 0
10.95 0.225 0
11.1 0.225 0
11.25 0.225 0
11.4 0.225 0
11.55 0.225 0
11.7 0.225 0
11.85 0.225 0
12 0.225 0
12.15 0.225 0
12.3 0.225 0
12.45 0.225 0
12.6 0.225 0
12.75 0.225 0
12.9 0.225 0
13.05 0.225 0
13.2 0.225 0
13.35 0.225 0
13.5 0.225 0
13.65 0.225 0
13.8 0.225 0
13.95 0.225 0
14.1 0.225 0
14.25 0.225 0
14.4 0.225 0
14.55 0.225 0
14.7 0.225 0
14.85 0.225 0
15 0.225 0
15.15 0.225 0
15.3 0.225 0
15.45 0.225 0
15.6 0.225 0
15.75 0.225 0
15.9 0.225 0
16.05 0.225 0
16.2 0.225 0
16.35 0.225 0
16.5 0.225 0
16.65 0.225 0
16.8 0.225 0
16.95 0.225 0
17.1 0.225 0
17.25 0.225 0
17.4 0.225 0
17.55 0.225 0
17.7 0.225 0
17.85 0.225 0
18 0.225 0
18.15 0.225 0
18.3 0.225 0
18.45 0.225 0
18.6 0.225 0
18.75 0.225 0
18.9 0.225 0
19.05 0.225 0
19.2 0.225 0
19.35 0.225 0
19.5 0.225 0
19.65 0.225 0
19.8 0.225 0
19.95 0.225 0
20.1 0.225 0
20.25 0.225 0
20.4 0.225 0
20.55 0.225 0
20.7 0.225 0
20.85 0.225 0
21 0.225 0
21.15 0.225 0
21.3 0.225 0
21.45 0.225 0
21.6 0.225 0
21.75 0.225 0
21.9 0.225 0
22.05 0.225 0
22.2 0.225 0
22.35 0.225 0
22.5 0.225 0
22.65 0.225 0
22.8 0.225 0
22.95 0.225 0
23.1 0.225 0
23.25 0.225 0
23.4 0.225 0
23.55 0.225 0
23.7 0.225 0
23.85 0.225 0
24 0.225 0
24.15 0.225 0
24.3 0.225 0
24.45 0.225 0
24.6 0.225 0
24.75 0.225 0
24.9 0.225 0
25.05 0.225 0
25.2 0.225 0
25.35 0.225 0
25.5 0.225 0
25.65 0.225 0
25.8 0.225 0
25.95 0.225 0
26.1 0.225 0
26.25 0.225 0
26.4 0.225 0
26.55 0.225 0
26.7 0.225 0
26.85 0.225 0
27 0.225 0
27.15 0.225 0
27.3 0.225 0
27.45 0.225 0
27.6 0.225 0
27.75 0.225 0
27.9 0.225 0
28.05 0.225 0
28.2 0.225 0
28.35 0.225 0
28.5 0.225 0
28.65 0.225 0
28.8 0.225 0
28.95 0.225 0
29.1 0.225 0
29.25 0.225 0
29.4 0.225 0
29.55 0.225 0
29.7 0.225 0
29.85 0.225 0
0 0.3 0
0.15 0.3 0
0.3 0.3 0
0.45 0.3 0
0.6 0.3 0
0.75 0.3 0
0.9 0.3 0
1.05 0.3 0
1.2 0.3 0
1.35 0.3 0
1.5 0.3 0
1.65 0.3 0
1.8 0.3 0
1.95 0.3 0
2.1 0.3 0
2.25 0.3 0
2.4 0.3 0
2.55 0.3 0
2.7 0.3 0
2.85 0.3 0
3 0.3 0
3.15 0.3 0
3.3 0.3 0
3.45 0.3 0
3.6 0.3 0
3.75 0.3 0
3.9 0.3 0
4.05 0.3 0
4.2 0.3 0
4.35 0.3 0
4.5 0.3 0
4.65 0.3 0
4.8 0.3 0
4.95 0.3 0
5.1 0.3 0
5.25 0.3 0
5.4 0.3 0
5.55 0.3 0
5.7 0.3 0
5.85 0.3 0
6 0.3 0
6.15 0.3 0
[...]
POINT_DATA 40000

SCALARS p float 1
LOOKUP_TABLE default
20183.33187
20183.33187
20183.27666
20183.2493
20183.23144
20183.21915
20183.2126
20183.21311
20183.22085
20183.23391
20183.24921
20183.2641
20183.27722
20183.28851
20183.29835
20183.30672
20183.31358
20183.31916
20183.32376
20183.32627
20183.32363
20183.31408
20183.28521
20183.2332
20183.29979
20183.7112
20183.59692
20183.24498
20183.00985
20182.80347
20182.60278
20182.40093
20182.19568
20181.98621
20181.77207
20181.55298
20181.32885
20181.1003
20180.8697
20180.64379
20180.43846
20180.32277
20180.30038
20180.36707
20180.53059
20180.4612
20180.27696
20180.14428
20180.12779
20180.136
20180.15419
20180.18216
20180.18925
20180.16665
20180.14291
20180.10434
20180.03619
20180.0116
20179.98168
20179.92235
20179.88781
20179.914
20180.00978
20180.1641
20180.35201
20180.53561
20180.66963
20180.71124
20180.63381
20180.43985
20180.12587
20179.79473
20179.47452
20179.23183
20179.06067
20178.94507
20178.9292
20178.92047
20178.83637
20178.86674
20178.89123
20178.88296
20178.88213
20178.8844
20178.89457
20178.94181
20179.04113
20179.12976
20179.16498
20179.16419
20179.15247
20179.14226
20179.13809
20179.13955
20179.14294
20179.1447
20179.14291
20179.13707
20179.12618
20179.10241
20179.06839
20179.02487
20178.92815
20178.80402
20178.70021
20178.60968
20178.51427
20178.41261
20178.31478
20178.23281
20178.17621
20178.1512
20178.16116
20178.20735
20178.28951
20178.40625
20178.55533
20178.73392
20178.93874
20179.16617
20179.41238
20179.67335
20179.94493
20180.22289
20180.5029
20180.78061
20181.05169
20181.31196
20181.55749
20181.78476
20181.99085
20182.17353
20182.33141
20182.46395
20182.57146
20182.65499
20182.7162
20182.75723
20182.78049
20182.78851
20182.78378
20182.76865
20182.74522
20182.71532
20182.68052
20182.64211
20182.60115
20182.55854
20182.51503
20182.47127
20182.42779
20182.38504
20182.34336
20182.30299
20182.26407
20182.22663
20182.19062
20182.15597
20182.12254
20182.09024
20182.05899
20182.02874
20181.99944
20181.97109
20181.94363
20181.91705
20181.89133
20181.86644
20181.84232
20181.81889
20181.79598
20181.77343
20181.75106
20181.72875
20181.70643
20181.68414
20181.66189
20181.63981
20181.61794
20181.59636
20181.5751
20181.55421
20181.53365
20181.51346
20181.49363
20181.47423
20181.45522
20181.43662
20181.41831
20181.40017
20181.38195
20181.3635
20181.34455
20181.3251
20181.30491
20181.28419
20181.26259
20181.24051
20181.21746
20181.21746
20183.33187
20183.33187
20183.27666
20183.2493
20183.23144
20183.21915
20183.2126
20183.21311
20183.22085
20183.23391
20183.24921
20183.2641
20183.27722
20183.28851
20183.29835
20183.30672
20183.31358
20183.31916
20183.32376
20183.32627
20183.32363
20183.31408
20183.28521
20183.2332
20183.29979
20183.7112
20183.59692
20183.24498
20183.00985
20182.80347
20182.60278
20182.40093
20182.19568
20181.98621
20181.77207
20181.55298
20181.32885
20181.1003
20180.8697
20180.64379
20180.43846
20180.32277
20180.30038
20180.36707
20180.53059
20180.4612
20180.27696
20180.14428
20180.12779
20180.136
20180.15419
20180.18216
20180.18925
20180.16665
20180.14291
20180.10434
20180.03619
20180.0116
20179.98168
20179.92235
20179.88781
20179.914
20180.00978
20180.1641
20180.35201
20180.53561
20180.66963
20180.71124
20180.63381
20180.43985
20180.12587
20179.79473
20179.47452
20179.23183
20179.06067
20178.94507
20178.9292
20178.92047
20178.83637
20178.86674
20178.89123
20178.88296
20178.88213
20178.8844
20178.89457
20178.94181
20179.04113
20179.12976
20179.16498
20179.16419
20179.15247
20179.14226
20179.13809
20179.13955
20179.14294
20179.1447
20179.14291
20179.13707
20179.12618
20179.10241
20179.06839
20179.02487
20178.92815
20178.80402
20178.70021
20178.60968
20178.51427
20178.41261
20178.31478
20178.23281
20178.17621
20178.1512
20178.16116
20178.20735
20178.28951
20178.40625
20178.55533
20178.73392
20178.93874
20179.16617
20179.41238
20179.67335
20179.94493
20180.22289
20180.5029
20180.78061
20181.05169
20181.31196
20181.55749
20181.78476
20181.99085
20182.17353
20182.33141
20182.46395
20182.57146
20182.65499
20182.7162
20182.75723
20182.78049
20182.78851
20182.78378
20182.76865
20182.74522
20182.71532
20182.68052
20182.64211
20182.60115
20182.55854
20182.51503
20182.47127
20182.42779
20182.38504
20182.34336
20182.30299
20182.26407
20182.22663
20182.19062
20182.15597
20182.12254
20182.09024
20182.05899
20182.02874
20181.99944
20181.97109
20181.94363
20181.91705
20181.89133
20181.86644
20181.84232
20181.81889
20181.79598
20181.77343
20181.75106
20181.72875
20181.70643
20181.68414
20181.66189
20181.63981
20181.61794
20181.59636
20181.5751
20181.55421
20181.53365
20181.51346
20181.49363
20181.47423
20181.45522
20181.43662
20181.41831
20181.40017
20181.38195
20181.3635
20181.34455
20181.3251
20181.30491
20181.28419
20181.26259
20181.24051
20181.21746
20181.21746
20183.2992
20183.2992
20183.26752
20183.24475
20183.22893
20183.21822
20183.21295
20183.21423
20183.22222
20183.2352
20183.25034
20183.26509
20183.2781
20183.28932
20183.29909
20183.30734
20183.31405
20183.31945
20183.32398
20183.32698
20183.32586
20183.31402
20183.2674
20183.19382
20183.21012
20183.50201
20183.46319
20183.21659
20183.00295
20182.80211
20182.60307
20182.40176
20182.19672
20181.98735
20181.77328
20181.55421
20181.32993
20181.10079
20180.86855
20180.63878
20180.42892
20180.32845
20180.2572
20180.30109
20180.44523
20180.4105
20180.2235
20180.09139
20180.08648
20180.12828
20180.1575
20180.18321
20180.18794
20180.16425
20180.14287
20180.11043
20180.03845
20179.99095
20179.94691
20179.88745
20179.8571
20179.88671
20179.98402
20180.13829
20180.32512
20180.50725
20180.64028
20180.68069
20180.60141
20180.3965
20180.09081
20179.76265
20179.4508
20179.19981
20179.02245
20178.90036
20178.87138
20178.85788
20178.81879
20178.87564
20178.89482
20178.88133
20178.88157
20178.88319
20178.88597
20178.92539
20179.02721
20179.12519
20179.165
20179.16446
20179.15244
20179.14201
20179.13754
20179.13887
20179.14219
20179.14393
20179.14233
20179.1365
20179.12652
20179.10402
20179.06772
20179.02857
20178.93812
20178.81134
20178.69871
20178.59926
20178.49807
20178.39401
20178.29606
20178.21512
20178.15997
20178.13643
20178.14772
20178.19506
20178.27818
20178.39571
20178.54545
20178.72456
20178.9298
20179.15758
20179.40406
20179.66526
20179.93705
20180.2152
20180.49544
20180.77342
20181.04483
20181.30548
20181.55144
20181.77918
20181.98576
20182.16895
20182.32733
20182.46034
20182.56829
20182.6522
20182.71374
20182.75505
20182.77855
20182.78677
20182.78221
20182.76723
20182.74393
20182.71417
20182.6795
20182.64121
20182.60037
20182.55787
20182.51446
20182.47077
20182.42736
20182.38466
20182.34302
20182.30269
20182.26381
20182.22641
20182.19045
20182.15584
20182.12245
20182.09019
20182.05898
20182.02876
20181.99949
20181.97115
20181.94372
20181.91717
20181.89146
20181.8666
20181.8425
20181.8191
20181.79623
20181.77372
20181.75138
20181.7291
20181.70678
20181.68448
20181.66222
20181.64012
20181.61822
20181.59662
20181.57534
20181.55443
20181.53385
20181.51364
20181.49379
20181.47435
20181.45533
20181.43672
20181.41841
20181.40028
20181.38208
20181.36365
20181.34471
20181.32526
20181.30506
20181.28433
20181.26269
20181.24052
20181.21724
20181.21724
20183.27341
20183.27341
20183.25416
20183.23664
20183.22358
20183.21495
20183.21125
20183.21332
20183.22129
20183.23387
20183.24878
20183.26375
20183.27736
20183.28925
20183.29944
20183.30786
20183.31459
20183.31993
20183.32461
20183.32844
20183.32802
20183.31025
20183.24295
20183.16111
20183.15317
20183.31506
20183.32742
20183.18002
20182.99318
20182.80042
20182.60397
20182.40353
20182.19884
20181.98966
20181.77575
20181.55673
20181.33221
20181.10202
20180.86666
20180.62865
20180.39581
20180.27295
20180.16819
20180.19616
20180.3264
20180.31245
20180.13165
20180.00071
20180.01055
20180.10703
20180.16659
20180.19555
20180.19235
20180.1629
20180.13669
20180.0911
20180.00678
20179.93186
20179.86889
20179.81174
20179.79005
20179.82648
20179.92701
20180.08153
20180.26666
20180.44673
20180.57829
20180.61778
20180.53617
20180.32072
20180.02451
20179.7009
20179.39852
20179.14349
20178.95558
20178.82347
20178.77237
20178.7553
20178.75781
20178.83398
20178.87635
20178.87463
20178.87822
20178.87778
20178.86603
20178.89056
20178.99647
20179.11123
20179.1599
20179.16094
20179.15028
20179.14171
20179.13807
20179.13931
20179.14215
20179.14343
20179.14211
20179.13681
20179.1268
20179.10909
20179.06969
20179.01616
20178.92083
20178.79236
20178.67007
20178.55892
20178.45077
20178.34537
20178.24975
20178.17275
20178.12187
20178.10229
20178.11702
20178.16726
20178.25279
20178.37232
20178.5237
20178.70418
20178.91054
20179.13923
20179.38647
20179.6483
20179.92066
20180.19939
20180.48023
20180.75887
20181.03104
20181.29255
20181.53945
20181.76821
20181.97582
20182.16003
20182.31938
20182.4533
20182.56205
20182.64665
20182.70878
20182.75057
20182.77446
20182.78299
20182.77869
20182.76394
20182.74087
20182.71133
20182.67687
20182.63881
20182.59818
20182.55589
20182.51268
20182.46917
20182.42592
20182.38337
20182.34187
20182.30166
20182.26287
20182.22556
20182.18967
20182.15512
20182.12179
20182.08958
20182.05841
20182.02823
20181.99899
20181.9707
20181.9433
20181.91679
20181.89112
20181.86629
20181.84223
20181.81887
20181.79604
20181.7736
20181.75133
20181.72912
20181.70688
20181.68463
20181.66239
20181.6403
20181.6184
20181.5968
20181.57553
20181.55463
20181.53407
20181.51386
20181.49402
20181.47457
20181.45556
20181.43696
20181.41869
20181.4006
20181.38245
20181.36407
20181.34516
20181.32575
20181.30555
20181.28484
20181.26314
20181.24068
20181.21645
20181.21645
20183.2526
20183.2526
20183.24039
20183.2272
20183.21674
20183.20995
20183.20753
20183.21013
20183.21783
20183.2297
20183.24403
20183.25899
20183.27327
20183.28623
20183.29758
20183.30703
20183.31451
20183.32029
20183.32532
20183.32981
20183.32881
20183.30519
20183.22772
20183.15802
20183.15381
20183.23535
20183.25459
20183.15336
20182.98561
20182.79989
20182.60595
20182.4064
20182.20208
20181.99317
20181.77949
20181.56061
20181.33588
20181.10443
20180.86515
20180.61631
20180.35013
20180.18693
20180.07086
20180.08919
20180.20267
20180.19279
20180.03627
20179.91326
20179.93311
20180.07669
20180.17992
20180.22016
20180.20639
20180.16112
20180.11228
20180.03671
20179.93315
20179.83911
20179.76503
20179.71159
20179.69798
20179.74033
20179.8428
20179.99602
20180.1777
20180.35429
20180.48364
20180.52167
20180.43827
20180.22396
20179.9327
20179.61587
20179.31531
20179.06833
20178.89299
20178.75041
20178.67191
20178.64575
20178.64817
20178.72581
20178.8157
20178.85156
20178.8685
20178.86768
20178.83854
20178.84235
20178.95041
20179.08625
20179.14793
20179.15272
20179.14558
20179.14148
20179.14014
20179.14118
20179.14287
20179.14328
20179.14179
20179.13863
20179.1267
20179.09982
20179.04899
20178.97616
20178.87018
20178.73965
20178.61167
20178.4934
20178.38193
20178.27787
20178.18659
20178.11512
20178.06977
20178.05518
20178.0742
20178.12805
20178.21659
20178.33861
20178.49207
20178.67425
20178.88201
20179.11184
20179.36
20179.62262
20179.8957
20180.17513
20180.45673
20180.73626
20181.00947
20181.27217
20181.52042
20181.75061
20181.95973
20182.14544
20182.30626
20182.44154
20182.55152
20182.63721
20182.70028
20182.74285
20182.76738
20182.77644
20182.77259
20182.75822
20182.73551
20182.70631
20182.67221
20182.63448
20182.5942
20182.55224
20182.50934
20182.46615
20182.42319
20182.38092
20182.33966
20182.29968
20182.26108
20182.22392
20182.18815
20182.15369
20182.12043
20182.08829
20182.05717
20182.02705
20181.99786
20181.96961
20181.94225
20181.91579
20181.89017
20181.86539
20181.84136
20181.81804
20181.79524
20181.77286
20181.75068
20181.72861
20181.70649
20181.68437
20181.66223
20181.64022
20181.61838
20181.59685
20181.57565
20181.55482
20181.53435
20181.51421
20181.49443
20181.47503
20181.45606
20181.43751
20181.4193
20181.40128
20181.38322
20181.36493
20181.34609
20181.32675
20181.30664
20181.28596
20181.26426
20181.24132
20181.21537
20181.21537
20183.23499
20183.23499
20183.22698
20183.21722
20183.20905
20183.20385
20183.20242
20183.20531
20183.21257
20183.22354
20183.23696
20183.25147
20183.26595
20183.27972
20183.29233
20183.3033
20183.31233
20183.31943
20183.32524
20183.32979
20183.32723
20183.3015
20183.22599
20183.17159
20183.17627
20183.22445
20183.23624
20183.143
20182.98351
20182.8018
20182.60945
20182.4105
20182.20649
20181.99787
20181.78454
20181.56595
20181.34117
20181.10862
20180.86552
20180.60609
20180.30692
20180.10203
20179.98231
20179.99457
20180.09278
20180.08738
20179.95858
20179.84861
20179.87565
20180.04581
20180.18687
20180.24131
20180.2175
20180.14783
20180.0602
20179.95043
20179.83026
20179.72463
20179.64433
20179.59341
20179.5852
20179.63118
20179.73361
20179.88382
20180.06059
20180.23245
20180.35923
20180.39686
20180.3146
20180.10721
20179.82026
20179.51333
20179.21681
20178.99015
20178.84194
20178.69304
20178.58485
20178.54361
20178.52152
20178.57626
20178.70947
20178.8068
20178.84999
20178.85345
20178.81215
20178.79598
20178.90228
20179.05615
20179.13134
20179.14142
20179.13932
20179.14101
20179.14289
20179.14389
20179.14404
20179.14381
20179.14236
20179.13434
20179.11169
20179.06777
20178.99912
20178.9087
20178.79424
20178.66352
20178.53424
20178.41356
20178.30172
20178.20027
20178.11364
20178.04764
20178.00772
20177.9981
20178.02145
20178.07902
20178.17073
20178.29544
20178.45115
20178.63523
20178.84454
20179.07563
20179.32482
20179.58831
20179.86218
20180.14241
20180.42491
20180.7055
20180.97999
20181.2442
20181.49416
20181.72624
20181.93733
20182.12505
20182.28781
20182.42494
20182.53662
20182.62383
20182.68821
20182.73191
20182.75737
20182.76721
20182.76401
20182.75021
20182.728
20182.69928
20182.66564
20182.62838
20182.58855
20182.54703
20182.50456
20182.46178
20182.41921
20182.37731
20182.3364
20182.29673
20182.25841
20182.22148
20182.18588
20182.15157
20182.11842
20182.08637
20182.05531
20182.02526
20181.99612
20181.96793
20181.94062
20181.91423
20181.88866
20181.86394
20181.83995
20181.81668
20181.79392
20181.7716
20181.7495
20181.72755
20181.70558
20181.68362
20181.66164
20181.63978
20181.61809
20181.5967
20181.57565
20181.55498
20181.53468
20181.51469
20181.49504
20181.47575
20181.45689
20181.43843
20181.42034
20181.40243
20181.38451
20181.36634
20181.34768
20181.32846
20181.30858
20181.28802
20181.2665
20181.24315
20181.2154
20181.2154
20183.21949
20183.21949
20183.2141
20183.20696
20183.20076
20183.19694
20183.19631
20183.19939
20183.20621
20183.21627
20183.22869
20183.24241
20183.25657
20183.27057
20183.28396
20183.29624
20183.30698
20183.31591
20183.32294
20183.32729
20183.3233
20183.2992
20183.23611
20183.19652
20183.20965
20183.24936
20183.25089
20183.14804
20182.98803
20182.80683
20182.61475
20182.41592
20182.21207
20182.00377
20181.79089
20181.57282
20181.34831
20181.1152
20180.86928
20180.60192
20180.27606
20180.03455
20179.91054
20179.91928
20180.00802
20180.01001
20179.90645
20179.81604
20179.84692
20180.01986
20180.17697
20180.24049
20180.20607
20180.10647
20179.97908
20179.84206
20179.70915
20179.5952
20179.51053
20179.46051
20179.45514
20179.50251
20179.6031
20179.74861
20179.91941
20180.08563
20180.20963
20180.2489
20180.1717
20179.97404
20179.69767
20179.40234
20179.1207
20178.92334
20178.80146
20178.64773
20178.51143
20178.44632
20178.3943
20178.41599
20178.57189
20178.74097
20178.82605
20178.84075
20178.79878
20178.77056
20178.8697
20179.02994
20179.11355
20179.12913
20179.13298
20179.14048
20179.1457
20179.14698
20179.14616
20179.14407
20179.13673
20179.11584
20179.07466
20179.01118
20178.92652
20178.824
20178.70464
20178.57485
20178.44632
20178.32551
20178.21453
20178.11574
20178.03322
20177.97203
20177.93699
20177.93194
20177.95945
20178.02068
20178.11561
20178.24312
20178.40124
20178.58736
20178.79835
20179.03081
20179.28112
20179.54553
20179.82023
20180.10132
20180.3848
20180.66661
20180.94258
20181.20859
20181.46063
20181.69501
20181.90854
20182.09876
20182.26398
20182.40346
20182.51731
20182.60648
20182.6726
20182.71778
20182.74451
20182.75541
20182.75309
20182.74004
20182.7185
20182.69039
20182.65734
20182.62065
20182.58139
20182.54044
20182.4985
20182.45622
20182.41413
20182.37268
20182.33219
20182.2929
20182.25491
20182.21827
20182.18292
20182.1488
20182.1158
20182.08387
20182.05291
20182.02294
20181.99388
20181.96577
20181.93853
20181.91221
20181.88671
20181.86207
20181.83815
20181.81494
20181.79225
20181.77
20181.74798
20181.72612
20181.70428
20181.68245
20181.66065
20181.63897
20181.61749
20181.59631
20181.57549
20181.55505
20181.53499
20181.51522
20181.4958
20181.47669
20181.45801
20181.43969
20181.42177
20181.40401
20181.38631
20181.36832
20181.34995
20181.33098
20181.31153
20181.29129
20181.27026
20181.24705
20181.21887
20181.21887
20183.20538
20183.20538
20183.2017
20183.19655
20183.19199
20183.18935
20183.18942
20183.19264
20183.19908
20183.20837
20183.21983
20183.23267
20183.24621
20183.25997
20183.27354
20183.28654
20183.29854
20183.30907
20183.31745
20183.32199
20183.31719
20183.29688
20183.25224
20183.228
20183.24661
20183.28726
20183.28195
20183.16482
20182.99876
20182.81508
20182.62192
20182.42264
20182.21878
20182.01082
20181.79857
20181.58128
20181.35753
20181.12467
20180.87759
20180.60651
20180.26286
20179.99172
20179.86085
20179.86742
20179.95295
20179.96598
20179.88651
20179.8197
20179.85125
20180.004
20180.15124
20180.21179
20180.16219
20180.03274
20179.87513
20179.71948
20179.57582
20179.45506
20179.36659
20179.31611
20179.31148
20179.35822
20179.4556
20179.59504
20179.75894
20179.91915
20180.04045
20180.08294
20180.01504
20179.83212
20179.57146
20179.29215
20179.03689
20178.87294
20178.76746
20178.60328
20178.44054
20178.34995
20178.27871
20178.26726
20178.4249
20178.66286
20178.80318
20178.83953
20178.80929
20178.7789
20178.86528
20179.01592
20179.09781
20179.11691
20179.12689
20179.14006
20179.14874
20179.15063
20179.14768
20179.13908
20179.11799
20179.07796
20179.01729
20178.93753
20178.84114
20178.73085
20178.60863
20178.47964
20178.35212
20178.23181
20178.12187
20178.02535
20177.94623
20177.88908
20177.85829
20177.8574
20177.8888
20177.95362
20178.05179
20178.1822
20178.34287
20178.53116
20178.74397
20178.97789
20179.22937
20179.49473
20179.77026
20180.05221
20180.3367
20180.61979
20180.8974
20181.16543
20181.41986
20181.65692
20181.87335
20182.06653
20182.23471
20182.37703
20182.49355
20182.58514
20182.65342
20182.70048
20182.72882
20182.74108
20182.73991
20182.72783
20182.70712
20182.67978
20182.64744
20182.61145
20182.57287
20182.53258
20182.49128
20182.44961
20182.40808
20182.36714
20182.32713
20182.28827
20182.25067
20182.21437
20182.1793
20182.14542
20182.11261
20182.08084
20182.05003
20182.02017
20181.99121
20181.9632
20181.93605
20181.90982
20181.88441
20181.85986
20181.83603
20181.81292
20181.79034
20181.76819
20181.74627
20181.72449
20181.70274
20181.68101
20181.65937
20181.63786
20181.61663
20181.59569
20181.57516
20181.55498
20181.5352
20181.5157
20181.49656
20181.4777
20181.45928
20181.44118
20181.42349
20181.40593
20181.38849
20181.37077
20181.3528
20181.33423
20181.3154
20181.29581
20181.27565
20181.2535
20181.22725
20181.22725
20183.19223
20183.19223
20183.18971
20183.18605
20183.18284
20183.18119
20183.18184
20183.18521
20183.19135
20183.19999
20183.21063
20183.22263
20183.23547
20183.24874
20183.2621
20183.27526
20183.28788
20183.29943
20183.30891
20183.31429
20183.30973
20183.29533
20183.26869
20183.25932
20183.28377
20183.32801
20183.31923
20183.18948
20183.01451
20182.82615
20182.63077
20182.43056
20182.22654
20182.01896
20181.80752
20181.59137
20181.36894
20181.13739
20180.89116
20180.62118
20180.26961
20179.97671
20179.83763
20179.84307
20179.92985
20179.9563
20179.89936
20179.8549
20179.88355
20180.00015
20180.11904
20180.16085
20180.08862
20179.93342
20179.75628
20179.58767
20179.43437
20179.30776
20179.21538
20179.16319
20179.15755
20179.20203
20179.29528
20179.42799
20179.58426
20179.7384
20179.85757
20179.90508
20179.84996
20179.68589
20179.44651
20179.19047
20178.96836
20178.83476
20178.73222
20178.55039