# vtk DataFile Version 2.0
FlowField
ASCII
DATASET STRUCTURED_GRID
DIMENSIONS 200 1 200
POINTS 40000 float
0 0 0
0.15 0 0
0.3 0 0
0.45 0 0
0.6 0 0
0.75 0 0
0.9 0 0
1.05 0 0
1.2 0 0
1.35 0 0
1.5 0 0
1.65 0 0
1.8 0 0
1.95 0 0
2.1 0 0
2.25 0 0
2.4 0 0
2.55 0 0
2.7 0 0
2.85 0 0
3 0 0
3.15 0 0
3.3 0 0
3.45 0 0
3.6 0 0
3.75 0 0
3.9 0 0
4.05 0 0
4.2 0 0
4.35 0 0
4.5 0 0
4.65 0 0
4.8 0 0
4.95 0 0
5.1 0 0
5.25 0 0
5.4 0 0
5.55 0 0
5.7 0 0
5.85 0 0
6 0 0
6.15 0 0
6.3 0 0
6.45 0 0
6.6 0 0
6.75 0 0
6.9 0 0
7.05 0 0
7.2 0 0
7.35 0 0
7.5 0 0
7.65 0 0
7.8 0 0
7.95 0 0
8.1 0 0
8.25 0 0
8.4 0 0
8.55 0 0
8.7 0 0
8.85 0 0
9 0 0
9.15 0 0
9.3 0 0
9.45 0 0
9.6 0 0
9.75 0 0
9.9 0 0
10.05 0 0
10.2 0 0
10.35 0 0
10.5 0 0
10.65 0 0
10.8 0 0
10.95 0 0
11.1 0 0
11.25 0 0
11.4 0 0
11.55 0 0
11.7 0 0
11.85 0 0
12 0 0
12.15 0 0
12.3 0 0
12.45 0 0
12.6 0 0
12.75 0 0
12.9 0 0
13.05 0 0
13.2 0 0
13.35 0 0
13.5 0 0
13.65 0 0
13.8 0 0
13.95 0 0
14.1 0 0
14.25 0 0
14.4 0 0
14.55 0 0
14.7 0 0
14.85 0 0
15 0 0
15.15 0 0
15.3 0 0
15.45 0 0
15.6 0 0
15.75 0 0
15.9 0 0
16.05 0 0
16.2 0 0
16.35 0 0
16.5 0 0
16.65 0 0
16.8 0 0
16.95 0 0
17.1 0 0
17.25 0 0
17.4 0 0
17.55 0 0
17.7 0 0
17.85 0 0
18 0 0
18.15 0 0
18.3 0 0
18.45 0 0
18.6 0 0
18.75 0 0
18.9 0 0
19.05 0 0
19.2 0 0
19.35 0 0
19.5 0 0
19.65 0 0
19.8 0 0
19.95 0 0
20.1 0 0
20.25 0 0
20.4 0 0
20.55 0 0
20.7 0 0
20.85 0 0
21 0 0
21.15 0 0
21.3 0 0
21.45 0 0
21.6 0 0
21.75 0 0
21.9 0 0
22.05 0 0
22.2 0 0
22.35 0 0
22.5 0 0
22.65 0 0
22.8 0 0
22.95 0 0
23.1 0 0
23.25 0 0
23.4 0 0
23.55 0 0
23.7 0 0
23.85 0 0
24 0 0
24.15 0 0
24.3 0 0
24.45 0 0
24.6 0 0
24.75 0 0
24.9 0 0
25.05 0 0
25.2 0 0
25.35 0 0
25.5 0 0
25.65 0 0
25.8 0 0
25.95 0 0
26.1 0 0
26.25 0 0
26.4 0 0
26.55 0 0
26.7 0 0
26.85 0 0
27 0 0
27.15 0 0
27.3 0 0
27.45 0 0
27.6 0 0
27.75 0 0
27.9 0 0
28.05 0 0
28.2 0 0
28.35 0 0
28.5 0 0
28.65 0 0
28.8 0 0
28.95 0 0
29.1 0 0
29.25 0 0
29.4 0 0
29.55 0 0
29.7 0 0
29.85 0 0
0 0.075 0
0.15 0.075 0
0.3 0.075 0
0.45 0.075 0
0.6 0.075 0
0.75 0.075 0
0.9 0.075 0
1.05 0.075 0
1.2 0.075 0
1.35 0.075 0
1.5 0.075 0
1.65 0.075 0
1.8 0.075 0
1.95 0.075 0
2.1 0.075 0
2.25 0.075 0
2.4 0.075 0
2.55 0.075 0
2.7 0.075 0
2.85 0.075 0
3 0.075 0
3.15 0.075 0
3.3 0.075 0
3.45 0.075 0
3.6 0.075 0
3.75 0.075 0
3.9 0.075 0
4.05 0.075 0
4.2 0.075 0
4.35 0.075 0
4.5 0.075 0
4.65 0.075 0
4.8 0.075 0
4.95 0.075 0
5.1 0.075 0
5.25 0.075 0
5.4 0.075 0
5.55 0.075 0
5.7 0.075 0
5.85 0.075 0
6 0.075 0
6.15 0.075 0
6.3 0.075 0
6.45 0.075 0
6.6 0.075 0
6.75 0.075 0
6.9 0.075 0
7.05 0.075 0
7.2 0.075 0
7.35 0.075 0
7.5 0.075 0
7.65 0.075 0
7.8 0.075 0
7.95 0.075 0
8.1 0.075 0
8.25 0.075 0
8.4 0.075 0
8.55 0.075 0
8.7 0.075 0
8.85 0.075 0
9 0.075 0
9.15 0.075 0
9.3 0.075 0
9.45 0.075 0
9.6 0.075 0
9.75 0.075 0
9.9 0.075 0
10.05 0.075 0
10.2 0.075 0
10.35 0.075 0
10.5 0.075 0
10.65 0.075 0
10.8 0.075 0
10.95 0.075 0
11.1 0.075 0
11.25 0.075 0
11.4 0.075 0
11.55 0.075 0
11.7 0.075 0
11.85 0.075 0
12 0.075 0
12.15 0.075 0
12.3 0.075 0
12.45 0.075 0
12.6 0.075 0
12.75 0.075 0
12.9 0.075 0
13.05 0.075 0
13.2 0.075 0
13.35 0.075 0
13.5 0.075 0
13.65 0.075 0
13.8 0.075 0
13.95 0.075 0
14.1 0.075 0
14.25 0.075 0
14.4 0.075 0
14.55 0.075 0
14.7 0.075 0
14.85 0.075 0
15 0.075 0
15.15 0.075 0
15.3 0.075 0
15.45 0.075 0
15.6 0.075 0
15.75 0.075 0
15.9 0.075 0
16.05 0.075 0
16.2 0.075 0
16.35 0.075 0
16.5 0.075 0
16.65 0.075 0
16.8 0.075 0
16.95 0.075 0
17.1 0.075 0
17.25 0.075 0
17.4 0.075 0
17.55 0.075 0
17.7 0.075 0
17.85 0.075 0
18 0.075 0
18.15 0.075 0
18.3 0.075 0
18.45 0.075 0
18.6 0.075 0
18.75 0.075 0
18.9 0.075 0
19.05 0.075 0
19.2 0.075 0
19.35 0.075 0
19.5 0.075 0
19.65 0.075 0
19.8 0.075 0
19.95 0.075 0
20.1 0.075 0
20.25 0.075 0
20.4 0.075 0
20.55 0.075 0
20.7 0.075 0
20.85 0.075 0
21 0.075 0
21.15 0.075 0
21.3 0.075 0
21.45 0.075 0
21.6 0.075 0
21.75 0.075 0
21.9 0.075 0
22.05 0.075 0
22.2 0.075 0
22.35 0.075 0
22.5 0.075 0
22.65 0.075 0
22.8 0.075 0
22.95 0.075 0
23.1 0.075 0
23.25 0.075 0
23.4 0.075 0
23.55 0.075 0
23.7 0.075 0
23.85 0.075 0
24 0.075 0
24.15 0.075 0
24.3 0.075 0
24.45 0.075 0
24.6 0.075 0
24.75 0.075 0
24.9 0.075 0
25.05 0.075 0
25.2 0.075 0
25.35 0.075 0
25.5 0.075 0
25.65 0.075 0
25.8 0.075 0
25.95 0.075 0
26.1 0.075 0
26.25 0.075 0
26.4 0.075 0
26.55 0.075 0
26.7 0.075 0
26.85 0.075 0
27 0.075 0
27.15 0.075 0
27.3 0.075 0
27.45 0.075 0
27.6 0.075 0
27.75 0.075 0
27.9 0.075 0
28.05 0.075 0
28.2 0.075 0
28.35 0.075 0
28.5 0.075 0
28.65 0.075 0
28.8 0.075 0
28.95 0.075 0
29.1 0.075 0
29.25 0.075 0
29.4 0.075 0
29.55 0.075 0
29.7 0.075 0
29.85 0.075 0
0 0.15 0
0.15 0.15 0
0.3 0.15 0
0.45 0.15 0
0.6 0.15 0
0.75 0.15 0
0.9 0.15 0
1.05 0.15 0
1.2 0.15 0
1.35 0.15 0
1.5 0.15 0
1.65 0.15 0
1.8 0.15 0
1.95 0.15 0
2.1 0.15 0
2.25 0.15 0
2.4 0.15 0
2.55 0.15 0
2.7 0.15 0
2.85 0.15 0
3 0.15 0
3.15 0.15 0
3.3 0.15 0
3.45 0.15 0
3.6 0.15 0
3.75 0.15 0
3.9 0.15 0
4.05 0.15 0
4.2 0.15 0
4.35 0.15 0
4.5 0.15 0
4.65 0.15 0
4.8 0.15 0
4.95 0.15 0
5.1 0.15 0
5.25 0.15 0
5.4 0.15 0
5.55 0.15 0
5.7 0.15 0
5.85 0.15 0
6 0.15 0
6.15 0.15 0
6.3 0.15 0
6.45 0.15 0
6.6 0.15 0
6.75 0.15 0
6.9 0.15 0
7.05 0.15 0
7.2 0.15 0
7.35 0.15 0
7.5 0.15 0
7.65 0.15 0
7.8 0.15 0
7.95 0.15 0
8.1 0.15 0
8.25 0.15 0
8.4 0.15 0
8.55 0.15 0
8.7 0.15 0
8.85 0.15 0
9 0.15 0
9.15 0.15 0
9.3 0.15 0
9.45 0.15 0
9.6 0.15 0
9.75 0.15 0
9.9 0.15 0
10.05 0.15 0
10.2 0.15 0
10.35 0.15 0
10.5 0.15 0
10.65 0.15 0
10.8 0.15 0
10.95 0.15 0
11.1 0.15 0
11.25 0.15 0
11.4 0.15 0
11.55 0.15 0
11.7 0.15 0
11.85 0.15 0
12 0.15 0
12.15 0.15 0
12.3 0.15 0
12.45 0.15 0
12.6 0.15 0
12.75 0.15 0
12.9 0.15 0
13.05 0.15 0
13.2 0.15 0
13.35 0.15 0
13.5 0.15 0
13.65 0.15 0
13.8 0.15 0
13.95 0.15 0
14.1 0.15 0
14.25 0.15 0
14.4 0.15 0
14.55 0.15 0
14.7 0.15 0
14.85 0.15 0
15 0.15 0
15.15 0.15 0
15.3 0.15 0
15.45 0.15 0
15.6 0.15 0
15.75 0.15 0
15.9 0.15 0
16.05 0.15 0
16.2 0.15 0
16.35 0.15 0
16.5 0.15 0
16.65 0.15 0
16.8 0.15 0
16.95 0.15 0
17.1 0.15 0
17.25 0.15 0
17.4 0.15 0
17.55 0.15 0
17.7 0.15 0
17.85 0.15 0
18 0.15 0
18.15 0.15 0
18.3 0.15 0
18.45 0.15 0
18.6 0.15 0
18.75 0.15 0
18.9 0.15 0
19.05 0.15 0
19.2 0.15 0
19.35 0.15 0
19.5 0.15 0
19.65 0.15 0
19.8 0.15 0
19.95 0.15 0
20.1 0.15 0
20.25 0.15 0
20.4 0.15 0
20.55 0.15 0
20.7 0.15 0
20.85 0.15 0
21 0.15 0
21.15 0.15 0
21.3 0.15 0
21.45 0.15 0
21.6 0.15 0
21.75 0.15 0
21.9 0.15 0
22.05 0.15 0
22.2 0.15 0
22.35 0.15 0
22.5 0.15 0
22.65 0.15 0
22.8 0.15 0
22.95 0.15 0
23.1 0.15 0
23.25 0.15 0
23.4 0.15 0
23.55 0.15 0
23.7 0.15 0
23.85 0.15 0
24 0.15 0
24.15 0.15 0
24.3 0.15 0
24.45 0.15 0
24.6 0.15 0
24.75 0.15 0
24.9 0.15 0
25.05 0.15 0
25.2 0.15 0
25.35 0.15 0
25.5 0.15 0
25.65 0.15 0
25.8 0.15 0
25.95 0.15 0
26.1 0.15 0
26.25 0.15 0
26.4 0.15 0
26.55 0.15 0
26.7 0.15 0
26.85 0.15 0
27 0.15 0
27.15 0.15 0
27.3 0.15 0
27.45 0.15 0
27.6 0.15 0
27.75 0.15 0
27.9 0.15 0
28.05 0.15 0
28.2 0.15 0
28.35 0.15 0
28.5 0.15 0
28.65 0.15 0
28.8 0.15 0
28.95 0.15 0
29.1 0.15 0
29.25 0.15 0
29.4 0.15 0
29.55 0.15 0
29.7 0.15 0
29.85 0.15 0
0 0.225 0
0.15 0.225 0
0.3 0.225 0
0.45 0.225 0
0.6 0.225 0
0.75 0.225 0
0.9 0.225 0
1.05 0.225 0
1.2 0.225 0
1.35 0.225 0
1.5 0.225 0
1.65 0.225 0
1.8 0.225 0
1.95 0.225 0
2.1 0.225 0
2.25 0.225 0
2.4 0.225 0
2.55 0.225 0
2.7 0.225 0
2.85 0.225 0
3 0.225 0
3.15 0.225 0
3.3 0.225 0
3.45 0.225 0
3.6 0.225 0
3.75 0.225 0
3.9 0.225 0
4.05 0.225 0
4.2 0.225 0
4.35 0.225 0
4.5 0.225 0
4.65 0.225 0
4.8 0.225 0
4.95 0.225 0
5.1 0.225 0
5.25 0.225 0
5.4 0.225 0
5.55 0.225 0
5.7 0.225 0
5.85 0.225 0
6 0.225 0
6.15 0.225 0
6.3 0.225 0
6.45 0.225 0
6.6 0.225 0
6.75 0.225 0
6.9 0.225 0
7.05 0.225 0
7.2 0.225 0
7.35 0.225 0
7.5 0.225 0
7.65 0.225 0
7.8 0.225 0
7.95 0.225 0
8.1 0.225 0
8.25 0.225 0
8.4 0.225 0
8.55 0.225 0
8.7 0.225 0
8.85 0.225 0
9 0.225 0
9.15 0.225 0
9.3 0.225 0
9.45 0.225 0
9.6 0.225 0
9.75 0.225 0
9.9 0.225 0
10.05 0.225 0
10.2 0.225 0
10.35 0.225 0
10.5 0.225 0
10.65 0.225 0
10.8 0.225 0
10.95 0.225 0
11.1 0.225 0
11.25 0.225 0
11.4 0.225 0
11.55 0.225 0
11.7 0.225 0
11.85 0.225 0
12 0.225 0
12.15 0.225 0
12.3 0.225 0
12.45 0.225 0
12.6 0.225 0
12.75 0.225 0
12.9 0.225 0
13.05 0.225 0
13.2 0.225 0
13.35 0.225 0
13.5 0.225 0
13.65 0.225 0
13.8 0.225 0
13.95 0.225 0
14.1 0.225 0
14.25 0.225 0
14.4 0.225 0
14.55 0.225 0
14.7 0.225 0
14.85 0.225 0
15 0.225 0
15.15 0.225 0
15.3 0.225 0
15.45 0.225 0
15.6 0.225 0
15.75 0.225 0
15.9 0.225 0
16.05 0.225 0
16.2 0.225 0
16.35 0.225 0
16.5 0.225 0
16.65 0.225 0
16.8 0.225 0
16.95 0.225 0
17.1 0.225 0
17.25 0.225 0
17.4 0.225 0
17.55 0.225 0
17.7 0.225 0
17.85 0.225 0
18 0.225 0
18.15 0.225 0
18.3 0.225 0
18.45 0.225 0
18.6 0.225 0
18.75 0.225 0
18.9 0.225 0
19.05 0.225 0
19.2 0.225 0
19.35 0.225 0
19.5 0.225 0
19.65 0.225 0
19.8 0.225 0
19.95 0.225 0
20.1 0.225 0
20.25 0.225 0
20.4 0.225 0
20.55 0.225 0
20.7 0.225 0
20.85 0.225 0
21 0.225 0
21.15 0.225 0
21.3 0.225 0
21.45 0.225 0
21.6 0.225 0
21.75 0.225 0
21.9 0.225 0
22.05 0.225 0
22.2 0.225 0
22.35 0.225 0
22.5 0.225 0
22.65 0.225 0
22.8 0.225 0
22.95 0.225 0
23.1 0.225 0
23.25 0.225 0
23.4 0.225 0
23.55 0.225 0
23.7 0.225 0
23.85 0.225 0
24 0.225 0
24.15 0.225 0
24.3 0.225 0
24.45 0.225 0
24.6 0.225 0
24.75 0.225 0
24.9 0.225 0
25.05 0.225 0
25.2 0.225 0
25.35 0.225 0
25.5 0.225 0
25.65 0.225 0
25.8 0.225 0
25.95 0.225 0
26.1 0.225 0
26.25 0.225 0
26.4 0.225 0
26.55 0.225 0
26.7 0.225 0
26.85 0.225 0
27 0.225 0
27.15 0.225 0
27.3 0.225 0
27.45 0.225 0
27.6 0.225 0
27.75 0.225 0
27.9 0.225 0
28.05 0.225 0
28.2 0.225 0
28.35 0.225 0
28.5 0.225 0
28.65 0.225 0
28.8 0.225 0
28.95 0.225 0
29.1 0.225 0
29.25 0.225 0
29.4 0.225 0
29.55 0.225 0
29.7 0.225 0
29.85 0.225 0
0 0.3 0
0.15 0.3 0
0.3 0.3 0
0.45 0.3 0
0.6 0.3 0
0.75 0.3 0
0.9 0.3 0
1.05 0.3 0
1.2 0.3 0
1.35 0.3 0
1.5 0.3 0
1.65 0.3 0
1.8 0.3 0
1.95 0.3 0
2.1 0.3 0
2.25 0.3 0
2.4 0.3 0
2.55 0.3 0
2.7 0.3 0
2.85 0.3 0
3 0.3 0
3.15 0.3 0
3.3 0.3 0
3.45 0.3 0
3.6 0.3 0
3.75 0.3 0
3.9 0.3 0
4.05 0.3 0
4.2 0.3 0
4.35 0.3 0
4.5 0.3 0
4.65 0.3 0
4.8 0.3 0
4.95 0.3 0
5.1 0.3 0
5.25 0.3 0
5.4 0.3 0
5.55 0.3 0
5.7 0.3 0
5.85 0.3 0
6 0.3 0
6.15 0.3 0
[...]
POINT_DATA 40000

SCALARS p float 1
LOOKUP_TABLE default
20183.18644
20183.18644
20183.13102
20183.10328
20183.08496
20183.07216
20183.06508
20183.06498
20183.07202
20183.08433
20183.09899
20183.1134
20183.12621
20183.13724
20183.14682
20183.15497
20183.16161
20183.1669
20183.17108
20183.17328
20183.17076
20183.16149
20183.13288
20183.07694
20183.1387
20183.56117
20183.44177
20183.07466
20182.82581
20182.6056
20182.39087
20182.1749
20181.95566
20181.73255
20181.50536
20181.27394
20181.03814
20180.79768
20180.55201
20180.29951
20180.03391
20179.88943
20179.91217
20179.90602
20179.921
20179.96371
20180.0352
20180.09762
20180.10846
20180.03613
20179.89071
20179.68627
20179.44346
20179.20316
20179.04075
20178.97299
20178.90014
20178.83046
20178.8461
20178.84249
20178.81091
20178.80299
20178.87392
20178.97151
20179.01253
20179.00961
20178.99838
20178.99225
20178.9861
20178.97135
20178.94027
20178.90472
20178.83542
20178.69963
20178.59109
20178.52242
20178.44149
20178.34136
20178.24612
20178.17944
20178.15512
20178.17809
20178.24752
20178.35929
20178.50769
20178.68649
20178.88954
20179.1111
20179.3459
20179.58917
20179.83653
20180.08401
20180.32813
20180.56588
20180.79482
20181.01319
20181.22
20181.41471
20181.59727
20181.7678
20181.9263
20182.07246
20182.20547
20182.32404
20182.42647
20182.51094
20182.57586
20182.6202
20182.64381
20182.64759
20182.63344
20182.60418
20182.56314
20182.5138
20182.45941
20182.40267
20182.34566
20182.28987
20182.23627
20182.18542
20182.13746
20182.09223
20182.04934
20182.0084
20181.96913
20181.9315
20181.89565
20181.86184
20181.83036
20181.80141
20181.7751
20181.75142
20181.73032
20181.71166
20181.6953
20181.68103
20181.66868
20181.65801
20181.6488
20181.64082
20181.63386
20181.62771
20181.6222
20181.61718
20181.61253
20181.60816
20181.60401
20181.60002
20181.59617
20181.59244
20181.5888
20181.58526
20181.5818
20181.57842
20181.57513
20181.57192
20181.56878
20181.56572
20181.56274
20181.55983
20181.55699
20181.55422
20181.55152
20181.54888
20181.5463
20181.54378
20181.54131
20181.5389
20181.53654
20181.53423
20181.53196
20181.52973
20181.52754
20181.52539
20181.52327
20181.52118
20181.51912
20181.51708
20181.51507
20181.51308
20181.51111
20181.50915
20181.50721
20181.50527
20181.50335
20181.50143
20181.49952
20181.49761
20181.4957
20181.49379
20181.49188
20181.48996
20181.48803
20181.4861
20181.48415
20181.4822
20181.48024
20181.47826
20181.47629
20181.47629
20183.18644
20183.18644
20183.13102
20183.10328
20183.08496
20183.07216
20183.06508
20183.06498
20183.07202
20183.08433
20183.09899
20183.1134
20183.12621
20183.13724
20183.14682
20183.15497
20183.16161
20183.1669
20183.17108
20183.17328
20183.17076
20183.16149
20183.13288
20183.07694
20183.1387
20183.56117
20183.44177
20183.07466
20182.82581
20182.6056
20182.39087
20182.1749
20181.95566
20181.73255
20181.50536
20181.27394
20181.03814
20180.79768
20180.55201
20180.29951
20180.03391
20179.88943
20179.91217
20179.90602
20179.921
20179.96371
20180.0352
20180.09762
20180.10846
20180.03613
20179.89071
20179.68627
20179.44346
20179.20316
20179.04075
20178.97299
20178.90014
20178.83046
20178.8461
20178.84249
20178.81091
20178.80299
20178.87392
20178.97151
20179.01253
20179.00961
20178.99838
20178.99225
20178.9861
20178.97135
20178.94027
20178.90472
20178.83542
20178.69963
20178.59109
20178.52242
20178.44149
20178.34136
20178.24612
20178.17944
20178.15512
20178.17809
20178.24752
20178.35929
20178.50769
20178.68649
20178.88954
20179.1111
20179.3459
20179.58917
20179.83653
20180.08401
20180.32813
20180.56588
20180.79482
20181.01319
20181.22
20181.41471
20181.59727
20181.7678
20181.9263
20182.07246
20182.20547
20182.32404
20182.42647
20182.51094
20182.57586
20182.6202
20182.64381
20182.64759
20182.63344
20182.60418
20182.56314
20182.5138
20182.45941
20182.40267
20182.34566
20182.28987
20182.23627
20182.18542
20182.13746
20182.09223
20182.04934
20182.0084
20181.96913
20181.9315
20181.89565
20181.86184
20181.83036
20181.80141
20181.7751
20181.75142
20181.73032
20181.71166
20181.6953
20181.68103
20181.66868
20181.65801
20181.6488
20181.64082
20181.63386
20181.62771
20181.6222
20181.61718
20181.61253
20181.60816
20181.60401
20181.60002
20181.59617
20181.59244
20181.5888
20181.58526
20181.5818
20181.57842
20181.57513
20181.57192
20181.56878
20181.56572
20181.56274
20181.55983
20181.55699
20181.55422
20181.55152
20181.54888
20181.5463
20181.54378
20181.54131
20181.5389
20181.53654
20181.53423
20181.53196
20181.52973
20181.52754
20181.52539
20181.52327
20181.52118
20181.51912
20181.51708
20181.51507
20181.51308
20181.51111
20181.50915
20181.50721
20181.50527
20181.50335
20181.50143
20181.49952
20181.49761
20181.4957
20181.49379
20181.49188
20181.48996
20181.48803
20181.4861
20181.48415
20181.4822
20181.48024
20181.47826
20181.47629
20181.47629
20183.15384
20183.15384
20183.12196
20183.09884
20183.08255
20183.07132
20183.06548
20183.06612
20183.07338
20183.08561
20183.1001
20183.11439
20183.1271
20183.13806
20183.14757
20183.15562
20183.16211
20183.16725
20183.17136
20183.174
20183.1729
20183.16177
20183.11588
20183.03636
20183.04597
20183.34537
20183.30461
20183.04594
20182.81893
20182.6043
20182.39118
20182.1757
20181.95661
20181.73355
20181.50639
20181.27502
20181.03928
20180.79895
20180.55369
20180.30274
20180.04319
20179.92449
20179.91585
20179.90262
20179.91253
20179.95256
20180.02053
20180.0816
20180.09167
20180.01929
20179.87379
20179.66992
20179.4157
20179.17076
20178.99709
20178.91721
20178.85397
20178.8218
20178.85102
20178.84577
20178.80472
20178.78533
20178.8565
20178.96501
20179.01151
20179.0083
20178.99727
20178.99215
20178.98616
20178.97239
20178.94121
20178.90435
20178.84433
20178.71149
20178.58793
20178.50139
20178.41049
20178.30851
20178.21581
20178.15321
20178.13303
20178.15966
20178.23213
20178.34637
20178.49673
20178.67705
20178.88128
20179.10375
20179.3393
20179.5832
20179.83113
20180.07917
20180.32381
20180.56202
20180.79134
20181.00997
20181.21689
20181.41159
20181.59404
20181.76441
20181.92275
20182.06879
20182.20178
20182.32041
20182.42301
20182.50774
20182.57297
20182.61765
20182.64159
20182.64563
20182.63167
20182.60251
20182.5615
20182.51216
20182.45778
20182.40108
20182.34416
20182.28849
20182.23505
20182.1844
20182.13669
20182.09173
20182.04909
20182.00834
20181.9692
20181.93162
20181.89578
20181.86195
20181.83044
20181.80147
20181.77513
20181.75145
20181.73034
20181.71168
20181.69531
20181.68105
20181.66869
20181.65803
20181.64883
20181.64086
20181.63391
20181.62776
20181.62226
20181.61724
20181.61259
20181.60822
20181.60407
20181.60008
20181.59623
20181.59249
20181.58885
20181.5853
20181.58184
20181.57846
20181.57516
20181.57194
20181.56881
20181.56575
20181.56276
20181.55985
20181.55701
20181.55423
20181.55153
20181.54889
20181.54631
20181.54379
20181.54132
20181.53891
20181.53655
20181.53424
20181.53197
20181.52974
20181.52755
20181.52539
20181.52327
20181.52119
20181.51912
20181.51709
20181.51508
20181.51309
20181.51111
20181.50916
20181.50721
20181.50528
20181.50336
20181.50144
20181.49953
20181.49762
20181.49571
20181.4938
20181.49188
20181.48996
20181.48803
20181.4861
20181.48416
20181.4822
20181.48024
20181.47826
20181.47629
20181.47629
20183.12818
20183.12818
20183.10875
20183.0909
20183.07741
20183.06825
20183.06396
20183.06536
20183.07258
20183.08439
20183.09861
20183.11305
20183.1263
20183.13791
20183.14788
20183.15612
20183.16266
20183.16777
20183.17201
20183.17534
20183.17488
20183.15861
20183.09294
20183.00395
20182.98875
20183.15578
20183.16746
20183.00941
20182.80934
20182.60273
20182.39212
20182.17741
20181.95855
20181.73557
20181.50847
20181.27718
20181.04157
20180.80147
20180.55682
20180.3081
20180.05574
20179.94446
20179.91465
20179.89121
20179.89264
20179.92878
20179.99199
20180.05011
20180.05852
20179.98824
20179.84117
20179.63244
20179.36031
20179.1012
20178.90925
20178.80925
20178.76334
20178.77299
20178.82588
20178.83447
20178.78825
20178.75768
20178.83099
20178.95249
20179.00469
20179.00216
20178.99489
20178.99392
20178.98841
20178.97412
20178.9462
20178.89709
20178.81905
20178.68332
20178.5458
20178.43604
20178.33256
20178.23144
20178.14685
20178.09444
20178.08399
20178.11902
20178.19845
20178.31831
20178.47314
20178.65696
20178.86391
20179.08852
20179.3258
20179.57117
20179.82045
20180.06975
20180.31556
20180.55476
20180.78489
20181.00406
20181.21121
20181.40589
20181.58811
20181.75814
20181.91615
20182.06198
20182.19493
20182.31372
20182.41666
20182.50187
20182.56765
20182.6129
20182.63734
20182.64176
20182.62801
20182.59888
20182.5578
20182.50836
20182.45392
20182.39725
20182.34044
20182.28494
20182.23174
20182.18139
20182.13404
20182.08946
20182.04718
20182.00672
20181.96778
20181.93035
20181.89463
20181.86091
20181.82952
20181.80066
20181.77444
20181.75087
20181.72986
20181.71129
20181.695
20181.68081
20181.66852
20181.65792
20181.64876
20181.64084
20181.63392
20181.6278
20181.62231
20181.61731
20181.61266
20181.6083
20181.60414
20181.60015
20181.59629
20181.59254
20181.5889
20181.58534
20181.58188
20181.57849
20181.57519
20181.57197
20181.56883
20181.56576
20181.56278
20181.55986
20181.55702
20181.55424
20181.55154
20181.5489
20181.54632
20181.54379
20181.54133
20181.53892
20181.53655
20181.53424
20181.53197
20181.52974
20181.52755
20181.5254
20181.52328
20181.52119
20181.51913
20181.51709
20181.51508
20181.51309
20181.51112
20181.50916
20181.50722
20181.50528
20181.50336
20181.50144
20181.49953
20181.49762
20181.49571
20181.4938
20181.49189
20181.48997
20181.48804
20181.48611
20181.48416
20181.48221
20181.48024
20181.47826
20181.47628
20181.47628
20183.10753
20183.10753
20183.09516
20183.08168
20183.07081
20183.06352
20183.0605
20183.06243
20183.06937
20183.08046
20183.09405
20183.1084
20183.1222
20183.13479
20183.14587
20183.15514
20183.16248
20183.16807
20183.17264
20183.17643
20183.17527
20183.15394
20183.07943
20183.00492
20182.99424
20183.07869
20183.09627
20182.98345
20182.80218
20182.60244
20182.39417
20182.18019
20181.96153
20181.73863
20181.5116
20181.28043
20181.04498
20180.80514
20180.56104
20180.31397
20180.06278
20179.94608
20179.90325
20179.8705
20179.8628
20179.89351
20179.95107
20180.00488
20180.01085
20179.94192
20179.79385
20179.56993
20179.281
20179.00386
20178.79595
20178.68213
20178.64336
20178.67586
20178.75965
20178.80112
20178.77031
20178.74312
20178.81746
20178.94095
20178.99193
20178.99011
20178.9907
20178.99684
20178.99286
20178.97137
20178.92826
20178.85557
20178.74986
20178.60504
20178.459
20178.3356
20178.22677
20178.131
20178.05768
20178.01801
20178.0195
20178.06491
20178.15302
20178.27997
20178.44049
20178.6288
20178.83927
20179.06665
20179.30619
20179.55352
20179.8046
20180.0556
20180.303
20180.54359
20180.77483
20180.99476
20181.20223
20181.39686
20181.57875
20181.7483
20181.90584
20182.05134
20182.1842
20182.30316
20182.40651
20182.49231
20182.55882
20182.60483
20182.62998
20182.63496
20182.62157
20182.59257
20182.55145
20182.50193
20182.44746
20182.39088
20182.33425
20182.279
20182.22611
20182.17615
20182.12928
20182.08521
20182.04339
20182.0033
20181.96465
20181.92745
20181.89195
20181.8585
20181.82739
20181.79885
20181.77295
20181.74969
20181.72896
20181.71063
20181.69455
20181.68053
20181.66837
20181.65786
20181.64878
20181.64092
20181.63404
20181.62794
20181.62247
20181.61747
20181.61282
20181.60844
20181.60428
20181.60027
20181.5964
20181.59264
20181.58898
20181.58541
20181.58194
20181.57854
20181.57524
20181.57201
20181.56886
20181.56579
20181.5628
20181.55988
20181.55703
20181.55426
20181.55155
20181.54891
20181.54633
20181.5438
20181.54134
20181.53892
20181.53656
20181.53425
20181.53198
20181.52975
20181.52756
20181.5254
20181.52328
20181.5212
20181.51914
20181.5171
20181.51509
20181.5131
20181.51113
20181.50917
20181.50723
20181.5053
20181.50337
20181.50146
20181.49955
20181.49764
20181.49573
20181.49382
20181.4919
20181.48998
20181.48806
20181.48612
20181.48418
20181.48222
20181.48025
20181.47827
20181.47628
20181.47628
20183.09012
20183.09012
20183.08197
20183.07194
20183.06339
20183.0577
20183.05569
20183.05791
20183.06444
20183.07463
20183.08729
20183.10111
20183.11501
20183.12829
20183.1405
20183.15119
20183.16002
20183.16694
20183.17228
20183.17604
20183.17331
20183.15009
20183.07849
20183.02262
20183.02243
20183.07138
20183.0802
20182.97419
20182.8007
20182.60467
20182.39776
20182.18417
20181.96558
20181.74271
20181.51577
20181.28474
20181.0495
20180.80991
20180.56612
20180.31972
20180.0641
20179.93399
20179.88153
20179.84131
20179.82483
20179.84809
20179.89928
20179.94842
20179.95185
20179.88155
20179.73144
20179.48665
20179.17984
20178.88631
20178.66707
20178.54627
20178.51327
20178.55551
20178.66525
20178.75657
20178.76953
20178.76559
20178.83775
20178.94313
20178.97766
20178.97307
20178.98368
20178.99713
20178.98666
20178.94627
20178.87502
20178.77258
20178.64368
20178.49297
20178.34528
20178.21776
20178.10938
20178.02077
20177.95875
20177.93159
20177.94508
20178.00124
20178.09864
20178.23339
20178.40029
20178.5937
20178.80818
20179.03874
20179.2809
20179.53054
20179.78375
20180.03682
20180.2862
20180.52854
20180.7612
20180.98209
20181.19001
20181.3846
20181.56608
20181.73502
20181.89194
20182.03698
20182.16965
20182.28873
20182.39249
20182.47892
20182.54622
20182.59311
20182.61913
20182.62486
20182.61201
20182.5833
20182.54225
20182.49273
20182.43834
20182.38196
20182.32563
20182.27074
20182.21824
20182.16878
20182.12253
20182.07914
20182.03795
20181.99835
20181.96004
20181.92311
20181.88789
20181.85477
20181.82408
20181.79601
20181.77063
20181.74786
20181.72761
20181.70971
20181.69398
20181.68024
20181.6683
20181.65795
20181.64899
20181.64119
20181.63435
20181.62827
20181.62279
20181.61778
20181.61311
20181.60871
20181.60451
20181.60048
20181.59658
20181.5928
20181.58912
20181.58553
20181.58204
20181.57863
20181.57531
20181.57207
20181.56891
20181.56584
20181.56284
20181.55991
20181.55706
20181.55428
20181.55157
20181.54893
20181.54634
20181.54382
20181.54135
20181.53894
20181.53657
20181.53426
20181.53199
20181.52976
20181.52757
20181.52542
20181.5233
20181.52121
20181.51915
20181.51711
20181.5151
20181.51311
20181.51114
20181.50919
20181.50724
20181.50531
20181.50339
20181.50148
20181.49957
20181.49766
20181.49575
20181.49384
20181.49193
20181.49001
20181.48808
20181.48614
20181.4842
20181.48224
20181.48027
20181.47828
20181.47628
20181.47628
20183.07484
20183.07484
20183.06933
20183.06194
20183.05538
20183.05108
20183.0499
20183.05233
20183.05843
20183.06774
20183.07939
20183.09238
20183.10587
20183.11927
20183.13212
20183.14396
20183.15436
20183.16297
20183.16952
20183.17323
20183.16897
20183.14686
20183.08793
20183.04855
20183.05801
20183.09726
20183.09583
20182.98039
20182.80597
20182.61011
20182.40319
20182.18943
20181.97071
20181.7478
20181.52095
20181.29012
20181.05511
20180.81574
20180.57201
20180.32553
20180.06208
20179.91385
20179.852
20179.80547
20179.78063
20179.79493
20179.83894
20179.88274
20179.88332
20179.81041
20179.65279
20179.38933
20179.06373
20178.76009
20178.53603
20178.41344
20178.38806
20178.43468
20178.56338
20178.71153
20178.79371
20178.83146
20178.89794
20178.96664
20178.96876
20178.95557
20178.97174
20178.98336
20178.9559
20178.88743
20178.78615
20178.66016
20178.51743
20178.36496
20178.21897
20178.09185
20177.98623
20177.90461
20177.85271
20177.83702
20177.86201
20177.92895
20178.03601
20178.17911
20178.35297
20178.55198
20178.77089
20179.00497
20179.25003
20179.50224
20179.75792
20180.01339
20180.26513
20180.50963
20180.74404
20180.96617
20181.17469
20181.36928
20181.55029
20181.7185
20181.87465
20182.01908
20182.15142
20182.27051
20182.37457
20182.46155
20182.52958
20182.57734
20182.6043
20182.61094
20182.59883
20182.5706
20182.5298
20182.48045
20182.4263
20182.37033
20182.3145
20182.26011
20182.20814
20182.15931
20182.11384
20182.07134
20182.031
20181.99206
20181.9542
20181.91759
20181.88268
20181.84993
20181.81972
20181.79222
20181.76746
20181.74535
20181.72574
20181.70842
20181.6932
20181.67988
20181.66826
20181.65815
20181.64935
20181.64164
20181.63485
20181.62879
20181.6233
20181.61825
20181.61355
20181.6091
20181.60486
20181.60079
20181.59685
20181.59303
20181.58932
20181.58571
20181.58219
20181.57876
20181.57542
20181.57217
20181.569
20181.56591
20181.5629
20181.55997
20181.55711
20181.55432
20181.55161
20181.54896
20181.54637
20181.54384
20181.54137
20181.53896
20181.53659
20181.53428
20181.53201
20181.52978
20181.52759
20181.52543
20181.52331
20181.52123
20181.51917
20181.51713
20181.51512
20181.51313
20181.51116
20181.50921
20181.50727
20181.50534
20181.50342
20181.5015
20181.49959
20181.49769
20181.49578
20181.49387
20181.49196
20181.49004
20181.48811
20181.48618
20181.48423
20181.48227
20181.48029
20181.47829
20181.47628
20181.47628
20183.061
20183.061
20183.0572
20183.05181
20183.04691
20183.04381
20183.04333
20183.04593
20183.05168
20183.06022
20183.07092
20183.08301
20183.09584
20183.1089
20183.12182
20183.13422
20183.14568
20183.15573
20183.16351
20183.16763
20183.16223
20183.14354
20183.10234
20183.07851
20183.0942
20183.13436
20183.12714
20182.99836
20182.81756
20182.61881
20182.41049
20182.19598
20181.97688
20181.75388
20181.52714
20181.29654
20181.06182
20180.82268
20180.57882
20180.33198
20180.05932
20179.89029
20179.8176
20179.76494
20179.73208
20179.73673
20179.77277
20179.81088
20179.80784
20179.73064
20179.56252
20179.28504
20178.94373
20178.63811
20178.41721
20178.29633
20178.27805
20178.32729
20178.46882
20178.67117
20178.83441
20178.92442
20178.98542
20179.01131
20178.97489
20178.94611
20178.95452
20178.94884
20178.89482
20178.7982
20178.67405
20178.53322
20178.3832
20178.23048
20178.08638
20177.96069
20177.8581
20177.78261
20177.7396
20177.73443
20177.7705
20177.84828
20177.9654
20178.1174
20178.29877
20178.50387
20178.72756
20178.96541
20179.21356
20179.46855
20179.72694
20179.98516
20180.23964
20180.48676
20180.72334
20180.94704
20181.15639
20181.35109
20181.53163
20181.69902
20181.85427
20181.99792
20182.12977
20182.2487
20182.35286
20182.44016
20182.50871
20182.55716
20182.58498
20182.59261
20182.58145
20182.55397
20182.51367
20182.46472
20182.4111
20182.35582
20182.30075
20182.24706
20182.19574
20182.14764
20182.10313
20182.06175
20182.02249
20181.98441
20181.94715
20181.91098
20181.87644
20181.84411
20181.81442
20181.78755
20181.7635
20181.74215
20181.72328
20181.70666
20181.69207
20181.67929
20181.66811
20181.65833
20181.64975
20181.64219
20181.63547
20181.62944
20181.62393
20181.61885
20181.6141
20181.6096
20181.60531
20181.60118
20181.59719
20181.59333
20181.58957
20181.58592
20181.58238
20181.57892
20181.57556
20181.57229
20181.5691
20181.566
20181.56298
20181.56003
20181.55717
20181.55438
20181.55165
20181.549
20181.54641
20181.54388
20181.5414
20181.53899
20181.53662
20181.5343
20181.53203
20181.5298
20181.52761
20181.52546
20181.52334
20181.52125
20181.51919
20181.51716
20181.51515
20181.51316
20181.51119
20181.50924
20181.5073
20181.50537
20181.50345
20181.50154
20181.49963
20181.49772
20181.49582
20181.49391
20181.492
20181.49008
20181.48815
20181.48622
20181.48427
20181.4823
20181.48032
20181.47831
20181.47629
20181.47629
20183.04815
20183.04815
20183.04551
20183.04163
20183.03807
20183.03599
20183.03611
20183.03887
20183.04432
20183.05224
20183.06211
20183.07336
20183.08545
20183.09796
20183.11059
20183.12304
20183.13495
20183.14585
20183.1546
20183.15965
20183.15451
20183.14181
20183.11694
20183.1078
20183.13028
20183.17488
20183.16518
20183.02432
20182.83425
20182.63038
20182.41948
20182.20368
20181.98402
20181.76088
20181.53428
20181.30399
20181.06965
20180.8308
20180.58674
20180.33974
20180.05807
20179.86678
20179.781
20179.72165
20179.68105
20179.67593
20179.70348
20179.73567
20179.72876
20179.64647
20179.46892
20179.1815
20178.83164
20178.53139
20178.31964
20178.20191
20178.18805
20178.23973
20178.39003
20178.63576
20178.87385
20179.01753
20179.07797
20179.06852
20178.99871
20178.94806
20178.93102
20178.89334
20178.80959
20178.69049
20178.55122
20178.40115
20178.2464
20178.09281
20177.94933
20177.82455
20177.72448
20177.65422
20177.6191