# vtk DataFile Version 2.0
FlowField
ASCII
DATASET STRUCTURED_GRID
DIMENSIONS 200 1 200
POINTS 40000 float
0 0 0
0.15 0 0
0.3 0 0
0.45 0 0
0.6 0 0
0.75 0 0
0.9 0 0
1.05 0 0
1.2 0 0
1.35 0 0
1.5 0 0
1.65 0 0
1.8 0 0
1.95 0 0
2.1 0 0
2.25 0 0
2.4 0 0
2.55 0 0
2.7 0 0
2.85 0 0
3 0 0
3.15 0 0
3.3 0 0
3.45 0 0
3.6 0 0
3.75 0 0
3.9 0 0
4.05 0 0
4.2 0 0
4.35 0 0
4.5 0 0
4.65 0 0
4.8 0 0
4.95 0 0
5.1 0 0
5.25 0 0
5.4 0 0
5.55 0 0
5.7 0 0
5.85 0 0
6 0 0
6.15 0 0
6.3 0 0
6.45 0 0
6.6 0 0
6.75 0 0
6.9 0 0
7.05 0 0
7.2 0 0
7.35 0 0
7.5 0 0
7.65 0 0
7.8 0 0
7.95 0 0
8.1 0 0
8.25 0 0
8.4 0 0
8.55 0 0
8.7 0 0
8.85 0 0
9 0 0
9.15 0 0
9.3 0 0
9.45 0 0
9.6 0 0
9.75 0 0
9.9 0 0
10.05 0 0
10.2 0 0
10.35 0 0
10.5 0 0
10.65 0 0
10.8 0 0
10.95 0 0
11.1 0 0
11.25 0 0
11.4 0 0
11.55 0 0
11.7 0 0
11.85 0 0
12 0 0
12.15 0 0
12.3 0 0
12.45 0 0
12.6 0 0
12.75 0 0
12.9 0 0
13.05 0 0
13.2 0 0
13.35 0 0
13.5 0 0
13.65 0 0
13.8 0 0
13.95 0 0
14.1 0 0
14.25 0 0
14.4 0 0
14.55 0 0
14.7 0 0
14.85 0 0
15 0 0
15.15 0 0
15.3 0 0
15.45 0 0
15.6 0 0
15.75 0 0
15.9 0 0
16.05 0 0
16.2 0 0
16.35 0 0
16.5 0 0
16.65 0 0
16.8 0 0
16.95 0 0
17.1 0 0
17.25 0 0
17.4 0 0
17.55 0 0
17.7 0 0
17.85 0 0
18 0 0
18.15 0 0
18.3 0 0
18.45 0 0
18.6 0 0
18.75 0 0
18.9 0 0
19.05 0 0
19.2 0 0
19.35 0 0
19.5 0 0
19.65 0 0
19.8 0 0
19.95 0 0
20.1 0 0
20.25 0 0
20.4 0 0
20.55 0 0
20.7 0 0
20.85 0 0
21 0 0
21.15 0 0
21.3 0 0
21.45 0 0
21.6 0 0
21.75 0 0
21.9 0 0
22.05 0 0
22.2 0 0
22.35 0 0
22.5 0 0
22.65 0 0
22.8 0 0
22.95 0 0
23.1 0 0
23.25 0 0
23.4 0 0
23.55 0 0
23.7 0 0
23.85 0 0
24 0 0
24.15 0 0
24.3 0 0
24.45 0 0
24.6 0 0
24.75 0 0
24.9 0 0
25.05 0 0
25.2 0 0
25.35 0 0
25.5 0 0
25.65 0 0
25.8 0 0
25.95 0 0
26.1 0 0
26.25 0 0
26.4 0 0
26.55 0 0
26.7 0 0
26.85 0 0
27 0 0
27.15 0 0
27.3 0 0
27.45 0 0
27.6 0 0
27.75 0 0
27.9 0 0
28.05 0 0
28.2 0 0
28.35 0 0
28.5 0 0
28.65 0 0
28.8 0 0
28.95 0 0
29.1 0 0
29.25 0 0
29.4 0 0
29.55 0 0
29.7 0 0
29.85 0 0
0 0.075 0
0.15 0.075 0
0.3 0.075 0
0.45 0.075 0
0.6 0.075 0
0.75 0.075 0
0.9 0.075 0
1.05 0.075 0
1.2 0.075 0
1.35 0.075 0
1.5 0.075 0
1.65 0.075 0
1.8 0.075 0
1.95 0.075 0
2.1 0.075 0
2.25 0.075 0
2.4 0.075 0
2.55 0.075 0
2.7 0.075 0
2.85 0.075 0
3 0.075 0
3.15 0.075 0
3.3 0.075 0
3.45 0.075 0
3.6 0.075 0
3.75 0.075 0
3.9 0.075 0
4.05 0.075 0
4.2 0.075 0
4.35 0.075 0
4.5 0.075 0
4.65 0.075 0
4.8 0.075 0
4.95 0.075 0
5.1 0.075 0
5.25 0.075 0
5.4 0.075 0
5.55 0.075 0
5.7 0.075 0
5.85 0.075 0
6 0.075 0
6.15 0.075 0
6.3 0.075 0
6.45 0.075 0
6.6 0.075 0
6.75 0.075 0
6.9 0.075 0
7.05 0.075 0
7.2 0.075 0
7.35 0.075 0
7.5 0.075 0
7.65 0.075 0
7.8 0.075 0
7.95 0.075 0
8.1 0.075 0
8.25 0.075 0
8.4 0.075 0
8.55 0.075 0
8.7 0.075 0
8.85 0.075 0
9 0.075 0
9.15 0.075 0
9.3 0.075 0
9.45 0.075 0
9.6 0.075 0
9.75 0.075 0
9.9 0.075 0
10.05 0.075 0
10.2 0.075 0
10.35 0.075 0
10.5 0.075 0
10.65 0.075 0
10.8 0.075 0
10.95 0.075 0
11.1 0.075 0
11.25 0.075 0
11.4 0.075 0
11.55 0.075 0
11.7 0.075 0
11.85 0.075 0
12 0.075 0
12.15 0.075 0
12.3 0.075 0
12.45 0.075 0
12.6 0.075 0
12.75 0.075 0
12.9 0.075 0
13.05 0.075 0
13.2 0.075 0
13.35 0.075 0
13.5 0.075 0
13.65 0.075 0
13.8 0.075 0
13.95 0.075 0
14.1 0.075 0
14.25 0.075 0
14.4 0.075 0
14.55 0.075 0
14.7 0.075 0
14.85 0.075 0
15 0.075 0
15.15 0.075 0
15.3 0.075 0
15.45 0.075 0
15.6 0.075 0
15.75 0.075 0
15.9 0.075 0
16.05 0.075 0
16.2 0.075 0
16.35 0.075 0
16.5 0.075 0
16.65 0.075 0
16.8 0.075 0
16.95 0.075 0
17.1 0.075 0
17.25 0.075 0
17.4 0.075 0
17.55 0.075 0
17.7 0.075 0
17.85 0.075 0
18 0.075 0
18.15 0.075 0
18.3 0.075 0
18.45 0.075 0
18.6 0.075 0
18.75 0.075 0
18.9 0.075 0
19.05 0.075 0
19.2 0.075 0
19.35 0.075 0
19.5 0.075 0
19.65 0.075 0
19.8 0.075 0
19.95 0.075 0
20.1 0.075 0
20.25 0.075 0
20.4 0.075 0
20.55 0.075 0
20.7 0.075 0
20.85 0.075 0
21 0.075 0
21.15 0.075 0
21.3 0.075 0
21.45 0.075 0
21.6 0.075 0
21.75 0.075 0
21.9 0.075 0
22.05 0.075 0
22.2 0.075 0
22.35 0.075 0
22.5 0.075 0
22.65 0.075 0
22.8 0.075 0
22.95 0.075 0
23.1 0.075 0
23.25 0.075 0
23.4 0.075 0
23.55 0.075 0
23.7 0.075 0
23.85 0.075 0
24 0.075 0
24.15 0.075 0
24.3 0.075 0
24.45 0.075 0
24.6 0.075 0
24.75 0.075 0
24.9 0.075 0
25.05 0.075 0
25.2 0.075 0
25.35 0.075 0
25.5 0.075 0
25.65 0.075 0
25.8 0.075 0
25.95 0.075 0
26.1 0.075 0
26.25 0.075 0
26.4 0.075 0
26.55 0.075 0
26.7 0.075 0
26.85 0.075 0
27 0.075 0
27.15 0.075 0
27.3 0.075 0
27.45 0.075 0
27.6 0.075 0
27.75 0.075 0
27.9 0.075 0
28.05 0.075 0
28.2 0.075 0
28.35 0.075 0
28.5 0.075 0
28.65 0.075 0
28.8 0.075 0
28.95 0.075 0
29.1 0.075 0
29.25 0.075 0
29.4 0.075 0
29.55 0.075 0
29.7 0.075 0
29.85 0.075 0
0 0.15 0
0.15 0.15 0
0.3 0.15 0
0.45 0.15 0
0.6 0.15 0
0.75 0.15 0
0.9 0.15 0
1.05 0.15 0
1.2 0.15 0
1.35 0.15 0
1.5 0.15 0
1.65 0.15 0
1.8 0.15 0
1.95 0.15 0
2.1 0.15 0
2.25 0.15 0
2.4 0.15 0
2.55 0.15 0
2.7 0.15 0
2.85 0.15 0
3 0.15 0
3.15 0.15 0
3.3 0.15 0
3.45 0.15 0
3.6 0.15 0
3.75 0.15 0
3.9 0.15 0
4.05 0.15 0
4.2 0.15 0
4.35 0.15 0
4.5 0.15 0
4.65 0.15 0
4.8 0.15 0
4.95 0.15 0
5.1 0.15 0
5.25 0.15 0
5.4 0.15 0
5.55 0.15 0
5.7 0.15 0
5.85 0.15 0
6 0.15 0
6.15 0.15 0
6.3 0.15 0
6.45 0.15 0
6.6 0.15 0
6.75 0.15 0
6.9 0.15 0
7.05 0.15 0
7.2 0.15 0
7.35 0.15 0
7.5 0.15 0
7.65 0.15 0
7.8 0.15 0
7.95 0.15 0
8.1 0.15 0
8.25 0.15 0
8.4 0.15 0
8.55 0.15 0
8.7 0.15 0
8.85 0.15 0
9 0.15 0
9.15 0.15 0
9.3 0.15 0
9.45 0.15 0
9.6 0.15 0
9.75 0.15 0
9.9 0.15 0
10.05 0.15 0
10.2 0.15 0
10.35 0.15 0
10.5 0.15 0
10.65 0.15 0
10.8 0.15 0
10.95 0.15 0
11.1 0.15 0
11.25 0.15 0
11.4 0.15 0
11.55 0.15 0
11.7 0.15 0
11.85 0.15 0
12 0.15 0
12.15 0.15 0
12.3 0.15 0
12.45 0.15 0
12.6 0.15 0
12.75 0.15 0
12.9 0.15 0
13.05 0.15 0
13.2 0.15 0
13.35 0.15 0
13.5 0.15 0
13.65 0.15 0
13.8 0.15 0
13.95 0.15 0
14.1 0.15 0
14.25 0.15 0
14.4 0.15 0
14.55 0.15 0
14.7 0.15 0
14.85 0.15 0
15 0.15 0
15.15 0.15 0
15.3 0.15 0
15.45 0.15 0
15.6 0.15 0
15.75 0.15 0
15.9 0.15 0
16.05 0.15 0
16.2 0.15 0
16.35 0.15 0
16.5 0.15 0
16.65 0.15 0
16.8 0.15 0
16.95 0.15 0
17.1 0.15 0
17.25 0.15 0
17.4 0.15 0
17.55 0.15 0
17.7 0.15 0
17.85 0.15 0
18 0.15 0
18.15 0.15 0
18.3 0.15 0
18.45 0.15 0
18.6 0.15 0
18.75 0.15 0
18.9 0.15 0
19.05 0.15 0
19.2 0.15 0
19.35 0.15 0
19.5 0.15 0
19.65 0.15 0
19.8 0.15 0
19.95 0.15 0
20.1 0.15 0
20.25 0.15 0
20.4 0.15 0
20.55 0.15 0
20.7 0.15 0
20.85 0.15 0
21 0.15 0
21.15 0.15 0
21.3 0.15 0
21.45 0.15 0
21.6 0.15 0
21.75 0.15 0
21.9 0.15 0
22.05 0.15 0
22.2 0.15 0
22.35 0.15 0
22.5 0.15 0
22.65 0.15 0
22.8 0.15 0
22.95 0.15 0
23.1 0.15 0
23.25 0.15 0
23.4 0.15 0
23.55 0.15 0
23.7 0.15 0
23.85 0.15 0
24 0.15 0
24.15 0.15 0
24.3 0.15 0
24.45 0.15 0
24.6 0.15 0
24.75 0.15 0
24.9 0.15 0
25.05 0.15 0
25.2 0.15 0
25.35 0.15 0
25.5 0.15 0
25.65 0.15 0
25.8 0.15 0
25.95 0.15 0
26.1 0.15 0
26.25 0.15 0
26.4 0.15 0
26.55 0.15 0
26.7 0.15 0
26.85 0.15 0
27 0.15 0
27.15 0.15 0
27.3 0.15 0
27.45 0.15 0
27.6 0.15 0
27.75 0.15 0
27.9 0.15 0
28.05 0.15 0
28.2 0.15 0
28.35 0.15 0
28.5 0.15 0
28.65 0.15 0
28.8 0.15 0
28.95 0.15 0
29.1 0.15 0
29.25 0.15 0
29.4 0.15 0
29.55 0.15 0
29.7 0.15 0
29.85 0.15 0
0 0.225 0
0.15 0.225 0
0.3 0.225 0
0.45 0.225 0
0.6 0.225 0
0.75 0.225 0
0.9 0.225 0
1.05 0.225 0
1.2 0.225 0
1.35 0.225 0
1.5 0.225 0
1.65 0.225 0
1.8 0.225 0
1.95 0.225 0
2.1 0.225 0
2.25 0.225 0
2.4 0.225 0
2.55 0.225 0
2.7 0.225 0
2.85 0.225 0
3 0.225 0
3.15 0.225 0
3.3 0.225 0
3.45 0.225 0
3.6 0.225 0
3.75 0.225 0
3.9 0.225 0
4.05 0.225 0
4.2 0.225 0
4.35 0.225 0
4.5 0.225 0
4.65 0.225 0
4.8 0.225 0
4.95 0.225 0
5.1 0.225 0
5.25 0.225 0
5.4 0.225 0
5.55 0.225 0
5.7 0.225 0
5.85 0.225 0
6 0.225 0
6.15 0.225 0
6.3 0.225 0
6.45 0.225 0
6.6 0.225 0
6.75 0.225 0
6.9 0.225 0
7.05 0.225 0
7.2 0.225 0
7.35 0.225 0
7.5 0.225 0
7.65 0.225 0
7.8 0.225 0
7.95 0.225 0
8.1 0.225 0
8.25 0.225 0
8.4 0.225 0
8.55 0.225 0
8.7 0.225 0
8.85 0.225 0
9 0.225 0
9.15 0.225 0
9.3 0.225 0
9.45 0.225 0
9.6 0.225 0
9.75 0.225 0
9.9 0.225 0
10.05 0.225 0
10.2 0.225 0
10.35 0.225 0
10.5 0.225 0
10.65 0.225 0
10.8 0.225 0
10.95 0.225 0
11.1 0.225 0
11.25 0.225 0
11.4 0.225 0
11.55 0.225 0
11.7 0.225 0
11.85 0.225 0
12 0.225 0
12.15 0.225 0
12.3 0.225 0
12.45 0.225 0
12.6 0.225 0
12.75 0.225 0
12.9 0.225 0
13.05 0.225 0
13.2 0.225 0
13.35 0.225 0
13.5 0.225 0
13.65 0.225 0
13.8 0.225 0
13.95 0.225 0
14.1 0.225 0
14.25 0.225 0
14.4 0.225 0
14.55 0.225 0
14.7 0.225 0
14.85 0.225 0
15 0.225 0
15.15 0.225 0
15.3 0.225 0
15.45 0.225 0
15.6 0.225 0
15.75 0.225 0
15.9 0.225 0
16.05 0.225 0
16.2 0.225 0
16.35 0.225 0
16.5 0.225 0
16.65 0.225 0
16.8 0.225 0
16.95 0.225 0
17.1 0.225 0
17.25 0.225 0
17.4 0.225 0
17.55 0.225 0
17.7 0.225 0
17.85 0.225 0
18 0.225 0
18.15 0.225 0
18.3 0.225 0
18.45 0.225 0
18.6 0.225 0
18.75 0.225 0
18.9 0.225 0
19.05 0.225 0
19.2 0.225 0
19.35 0.225 0
19.5 0.225 0
19.65 0.225 0
19.8 0.225 0
19.95 0.225 0
20.1 0.225 0
20.25 0.225 0
20.4 0.225 0
20.55 0.225 0
20.7 0.225 0
20.85 0.225 0
21 0.225 0
21.15 0.225 0
21.3 0.225 0
21.45 0.225 0
21.6 0.225 0
21.75 0.225 0
21.9 0.225 0
22.05 0.225 0
22.2 0.225 0
22.35 0.225 0
22.5 0.225 0
22.65 0.225 0
22.8 0.225 0
22.95 0.225 0
23.1 0.225 0
23.25 0.225 0
23.4 0.225 0
23.55 0.225 0
23.7 0.225 0
23.85 0.225 0
24 0.225 0
24.15 0.225 0
24.3 0.225 0
24.45 0.225 0
24.6 0.225 0
24.75 0.225 0
24.9 0.225 0
25.05 0.225 0
25.2 0.225 0
25.35 0.225 0
25.5 0.225 0
25.65 0.225 0
25.8 0.225 0
25.95 0.225 0
26.1 0.225 0
26.25 0.225 0
26.4 0.225 0
26.55 0.225 0
26.7 0.225 0
26.85 0.225 0
27 0.225 0
27.15 0.225 0
27.3 0.225 0
27.45 0.225 0
27.6 0.225 0
27.75 0.225 0
27.9 0.225 0
28.05 0.225 0
28.2 0.225 0
28.35 0.225 0
28.5 0.225 0
28.65 0.225 0
28.8 0.225 0
28.95 0.225 0
29.1 0.225 0
29.25 0.225 0
29.4 0.225 0
29.55 0.225 0
29.7 0.225 0
29.85 0.225 0
0 0.3 0
0.15 0.3 0
0.3 0.3 0
0.45 0.3 0
0.6 0.3 0
0.75 0.3 0
0.9 0.3 0
1.05 0.3 0
1.2 0.3 0
1.35 0.3 0
1.5 0.3 0
1.65 0.3 0
1.8 0.3 0
1.95 0.3 0
2.1 0.3 0
2.25 0.3 0
2.4 0.3 0
2.55 0.3 0
2.7 0.3 0
2.85 0.3 0
3 0.3 0
3.15 0.3 0
3.3 0.3 0
3.45 0.3 0
3.6 0.3 0
3.75 0.3 0
3.9 0.3 0
4.05 0.3 0
4.2 0.3 0
4.35 0.3 0
4.5 0.3 0
4.65 0.3 0
4.8 0.3 0
4.95 0.3 0
5.1 0.3 0
5.25 0.3 0
5.4 0.3 0
5.55 0.3 0
5.7 0.3 0
5.85 0.3 0
6 0.3 0
6.15 0.3 0
[...]
POINT_DATA 40000

SCALARS p float 1
LOOKUP_TABLE default
20183.46165
20183.46165
20183.40667
20183.37973
20183.36235
20183.35051
20183.34436
20183.34529
20183.35353
20183.36705
20183.38256
20183.39724
20183.40983
20183.42049
20183.42961
20183.43715
20183.44313
20183.44788
20183.45168
20183.45327
20183.44972
20183.43987
20183.41552
20183.3751
20183.43923
20183.79772
20183.6968
20183.38069
20183.16906
20182.98429
20182.80573
20182.62725
20182.44697
20182.26435
20182.07924
20181.89162
20181.70154
20181.50917
20181.31498
20181.11977
20180.92299
20180.80776
20180.81795
20180.82591
20180.89063
20180.93458
20180.88072
20180.74622
20180.60044
20180.47944
20180.39849
20180.34591
20180.30806
20180.29595
20180.29224
20180.2897
20180.29245
20180.27989
20180.23802
20180.17581
20180.10409
20180.02835
20179.95067
20179.86212
20179.76053
20179.63823
20179.48536
20179.29483
20179.06158
20178.78476
20178.4685
20178.12231
20177.77337
20177.45169
20177.19052
20177.01864
20176.94938
20176.97136
20177.03106
20177.0662
20177.12411
20177.26558
20177.39693
20177.4957
20177.58696
20177.67102
20177.73792
20177.77886
20177.79998
20177.8163
20177.8422
20177.88841
20177.96128
20178.04963
20178.12712
20178.18207
20178.22087
20178.25226
20178.28083
20178.30838
20178.33463
20178.35804
20178.37875
20178.39826
20178.41686
20178.43426
20178.45153
20178.45869
20178.48652
20178.50826
20178.32986
20178.30684
20178.44603
20178.54213
20178.61101
20178.66131
20178.72247
20178.80249
20178.90664
20179.03299
20179.17853
20179.33985
20179.51253
20179.69426
20179.88097
20180.0716
20180.2627
20180.45402
20180.64266
20180.82877
20181.00988
20181.18624
20181.35566
20181.51841
20181.67239
20181.81809
20181.95345
20182.07962
20182.1941
20182.29879
20182.39196
20182.47463
20182.54657
20182.60813
20182.65969
20182.70182
20182.73544
20182.76169
20182.78118
20182.79241
20182.79704
20182.79673
20182.79288
20182.78496
20182.77387
20182.75995
20182.74441
20182.72741
20182.70958
20182.6907
20182.6714
20182.65189
20182.63292
20182.61442
20182.5966
20182.57885
20182.56126
20182.54349
20182.52578
20182.50778
20182.48933
20182.4698
20182.449
20182.42638
20182.40196
20182.37544
20182.34711
20182.3169
20182.28518
20182.25201
20182.21781
20182.18274
20182.14725
20182.11147
20182.07579
20182.04018
20182.00493
20181.96987
20181.93524
20181.90076
20181.86672
20181.83274
20181.79926
20181.76574
20181.73286
20181.69981
20181.66753
20181.635
20181.6026
20181.6026
20183.46165
20183.46165
20183.40667
20183.37973
20183.36235
20183.35051
20183.34436
20183.34529
20183.35353
20183.36705
20183.38256
20183.39724
20183.40983
20183.42049
20183.42961
20183.43715
20183.44313
20183.44788
20183.45168
20183.45327
20183.44972
20183.43987
20183.41552
20183.3751
20183.43923
20183.79772
20183.6968
20183.38069
20183.16906
20182.98429
20182.80573
20182.62725
20182.44697
20182.26435
20182.07924
20181.89162
20181.70154
20181.50917
20181.31498
20181.11977
20180.92299
20180.80776
20180.81795
20180.82591
20180.89063
20180.93458
20180.88072
20180.74622
20180.60044
20180.47944
20180.39849
20180.34591
20180.30806
20180.29595
20180.29224
20180.2897
20180.29245
20180.27989
20180.23802
20180.17581
20180.10409
20180.02835
20179.95067
20179.86212
20179.76053
20179.63823
20179.48536
20179.29483
20179.06158
20178.78476
20178.4685
20178.12231
20177.77337
20177.45169
20177.19052
20177.01864
20176.94938
20176.97136
20177.03106
20177.0662
20177.12411
20177.26558
20177.39693
20177.4957
20177.58696
20177.67102
20177.73792
20177.77886
20177.79998
20177.8163
20177.8422
20177.88841
20177.96128
20178.04963
20178.12712
20178.18207
20178.22087
20178.25226
20178.28083
20178.30838
20178.33463
20178.35804
20178.37875
20178.39826
20178.41686
20178.43426
20178.45153
20178.45869
20178.48652
20178.50826
20178.32986
20178.30684
20178.44603
20178.54213
20178.61101
20178.66131
20178.72247
20178.80249
20178.90664
20179.03299
20179.17853
20179.33985
20179.51253
20179.69426
20179.88097
20180.0716
20180.2627
20180.45402
20180.64266
20180.82877
20181.00988
20181.18624
20181.35566
20181.51841
20181.67239
20181.81809
20181.95345
20182.07962
20182.1941
20182.29879
20182.39196
20182.47463
20182.54657
20182.60813
20182.65969
20182.70182
20182.73544
20182.76169
20182.78118
20182.79241
20182.79704
20182.79673
20182.79288
20182.78496
20182.77387
20182.75995
20182.74441
20182.72741
20182.70958
20182.6907
20182.6714
20182.65189
20182.63292
20182.61442
20182.5966
20182.57885
20182.56126
20182.54349
20182.52578
20182.50778
20182.48933
20182.4698
20182.449
20182.42638
20182.40196
20182.37544
20182.34711
20182.3169
20182.28518
20182.25201
20182.21781
20182.18274
20182.14725
20182.11147
20182.07579
20182.04018
20182.00493
20181.96987
20181.93524
20181.90076
20181.86672
20181.83274
20181.79926
20181.76574
20181.73286
20181.69981
20181.66753
20181.635
20181.6026
20181.6026
20183.4289
20183.4289
20183.39743
20183.37505
20183.3597
20183.34947
20183.34464
20183.3464
20183.35491
20183.36838
20183.38373
20183.39826
20183.41073
20183.42131
20183.43034
20183.43774
20183.44356
20183.44812
20183.45186
20183.45392
20183.4519
20183.44033
20183.40023
20183.3395
20183.35948
20183.61864
20183.58056
20183.35527
20183.16259
20182.98279
20182.80571
20182.62769
20182.44755
20182.26495
20182.07985
20181.89222
20181.70209
20181.50961
20181.31523
20181.12019
20180.92784
20180.83766
20180.81446
20180.80755
20180.8618
20180.90524
20180.84992
20180.71937
20180.5824
20180.46182
20180.37829
20180.32888
20180.30445
20180.29972
20180.29476
20180.28831
20180.28834
20180.27465
20180.23294
20180.17155
20180.10148
20180.02755
20179.95078
20179.86406
20179.76341
20179.64151
20179.48916
20179.29842
20179.06388
20178.78433
20178.4636
20178.1119
20177.75646
20177.4267
20177.15687
20176.97549
20176.8957
20176.90853
20176.96931
20177.02764
20177.1196
20177.27264
20177.39983
20177.49731
20177.58813
20177.67232
20177.74085
20177.78396
20177.80487
20177.81427
20177.83177
20177.87588
20177.95101
20178.04285
20178.1243
20178.18178
20178.22135
20178.25259
20178.28079
20178.308
20178.33399
20178.35732
20178.37812
20178.3978
20178.41654
20178.43382
20178.45367
20178.45429
20178.47409
20178.52428
20178.34887
20178.30542
20178.42969
20178.51715
20178.58581
20178.63908
20178.70424
20178.78794
20178.8951
20179.02381
20179.17109
20179.33373
20179.50734
20179.68977
20179.87696
20180.06794
20180.25926
20180.45075
20180.63948
20180.82567
20181.00684
20181.18326
20181.35276
20181.51555
20181.66968
20181.8154
20181.95099
20182.07712
20182.19187
20182.29657
20182.38989
20182.47265
20182.54469
20182.60637
20182.65808
20182.70037
20182.73414
20182.76041
20182.77977
20182.79131
20182.79611
20182.79582
20182.7919
20182.78405
20182.77295
20182.75905
20182.74346
20182.72647
20182.70862
20182.68977
20182.67043
20182.65087
20182.63182
20182.61329
20182.59546
20182.57775
20182.56017
20182.54242
20182.52471
20182.50675
20182.48836
20182.4689
20182.44818
20182.42566
20182.40131
20182.37487
20182.3466
20182.31645
20182.28479
20182.25167
20182.21752
20182.18249
20182.14704
20182.1113
20182.07567
20182.0401
20182.00492
20181.96989
20181.93533
20181.90087
20181.86689
20181.83292
20181.79952
20181.766
20181.73324
20181.70022
20181.66822
20181.6359
20181.60339
20181.60339
20183.40297
20183.40297
20183.3839
20183.36671
20183.35409
20183.34593
20183.34271
20183.3453
20183.35384
20183.36694
20183.38212
20183.39697
20183.41013
20183.42139
20183.4308
20183.4383
20183.4441
20183.44857
20183.45247
20183.4554
20183.45415
20183.43721
20183.37776
20183.30731
20183.30342
20183.45029
20183.4584
20183.32166
20183.15317
20182.98071
20182.80596
20182.62867
20182.44873
20182.26619
20182.08109
20181.89345
20181.70324
20181.51052
20181.31565
20181.12001
20180.92837
20180.84066
20180.79358
20180.7746
20180.81618
20180.85355
20180.79628
20180.67532
20180.55078
20180.43023
20180.34043
20180.29491
20180.2921
20180.30423
20180.30401
20180.29492
20180.28843
20180.26854
20180.22417
20180.16346
20180.09626
20180.0264
20179.95184
20179.86876
20179.77106
20179.65027
20179.49916
20179.30819
20179.07136
20178.78669
20178.45629
20178.09274
20177.72368
20177.37673
20177.08883
20176.88814
20176.78715
20176.78065
20176.8392
20176.92972
20177.0648
20177.23998
20177.38756
20177.49918
20177.59181
20177.67792
20177.75034
20177.79493
20177.80954
20177.80179
20177.80537
20177.84917
20177.93068
20178.0304
20178.11999
20178.1822
20178.22282
20178.25353
20178.28104
20178.30776
20178.33349
20178.35661
20178.37744
20178.39745
20178.41661
20178.43294
20178.45098
20178.46452
20178.45407
20178.48281
20178.35299
20178.29907
20178.38141
20178.45503
20178.52328
20178.58544
20178.66034
20178.75333
20178.86779
20179.00232
20179.15389
20179.31978
20179.49576
20179.6799
20179.86835
20180.06019
20180.25217
20180.44406
20180.63315
20180.81955
20181.00096
20181.17755
20181.34728
20181.51024
20181.66469
20181.8106
20181.94663
20182.07279
20182.18811
20182.29285
20182.38653
20182.46946
20182.54172
20182.60365
20182.65565
20182.69828
20182.73227
20182.75846
20182.77764
20182.78969
20182.79478
20182.7945
20182.79044
20182.78262
20182.7715
20182.75759
20182.74192
20182.72489
20182.70701
20182.68818
20182.66879
20182.64918
20182.63001
20182.61142
20182.59356
20182.57589
20182.55836
20182.54067
20182.523
20182.50509
20182.48676
20182.46738
20182.44676
20182.42432
20182.40006
20182.37368
20182.34547
20182.31536
20182.28375
20182.25067
20182.21657
20182.18158
20182.14619
20182.1105
20182.07495
20182.03944
20182.00435
20181.96939
20181.9349
20181.90048
20181.86657
20181.8326
20181.79928
20181.76579
20181.73325
20181.70052
20181.66933
20181.63838
20181.60884
20181.60884
20183.38198
20183.38198
20183.36992
20183.35702
20183.34694
20183.3406
20183.33866
20183.34179
20183.35006
20183.36246
20183.37714
20183.39214
20183.40615
20183.41861
20183.42922
20183.43775
20183.44421
20183.44901
20183.45329
20183.457
20183.45536
20183.43258
20183.36251
20183.30087
20183.29824
20183.37303
20183.38902
20183.29596
20183.1453
20182.97939
20182.80691
20182.63033
20182.45058
20182.26807
20182.08297
20181.89531
20181.705
20181.51196
20181.31624
20181.11865
20180.91996
20180.82041
20180.76187
20180.74078
20180.77116
20180.79458
20180.73571
20180.62915
20180.51528
20180.39528
20180.30109
20180.25779
20180.27344
20180.30928
20180.32294
20180.31383
20180.29686
20180.26588
20180.21615
20180.15534
20180.09086
20180.02491
20179.95363
20179.8749
20179.78071
20179.66256
20179.51336
20179.32246
20179.08279
20178.79175
20178.4491
20178.06997
20177.68239
20177.31341
20177.00378
20176.78151
20176.65751
20176.62954
20176.67938
20176.78618
20176.95034
20177.15454
20177.34188
20177.48688
20177.59584
20177.68895
20177.76495
20177.80717
20177.80847
20177.77963
20177.77215
20177.81867
20177.90704
20178.01491
20178.11322
20178.18095
20178.22328
20178.25422
20178.2818
20178.30841
20178.33358
20178.35597
20178.37673
20178.39734
20178.4159
20178.43363
20178.43538
20178.43348
20178.40679
20178.39268
20178.30315
20178.25737
20178.30836
20178.37288
20178.4433
20178.51676
20178.60362
20178.70794
20178.83149
20178.97323
20179.13032
20179.30023
20179.47935
20179.66558
20179.85579
20180.04861
20180.24158
20180.43386
20180.62355
20180.81009
20180.99195
20181.16863
20181.33884
20181.50193
20181.65696
20181.80305
20181.93974
20182.06604
20182.18202
20182.28697
20182.38109
20182.46432
20182.53691
20182.59921
20182.65164
20182.69475
20182.72911
20182.75534
20182.77426
20182.7869
20182.79255
20182.79233
20182.78806
20182.78028
20182.76914
20182.75524
20182.73947
20182.72238
20182.70442
20182.68564
20182.66621
20182.64655
20182.62723
20182.60853
20182.59058
20182.57295
20182.55549
20182.53791
20182.5203
20182.50247
20182.4842
20182.46492
20182.44439
20182.42208
20182.39793
20182.37164
20182.3435
20182.31345
20182.28189
20182.24886
20182.21482
20182.17989
20182.14458
20182.10898
20182.07353
20182.03814
20182.00314
20181.96829
20181.93387
20181.89953
20181.86563
20181.83173
20181.79839
20181.76505
20181.73263
20181.70052
20181.67034
20181.6421
20181.61895
20181.61895
20183.36416
20183.36416
20183.35627
20183.34676
20183.33893
20183.33415
20183.33318
20183.33657
20183.34438
20183.35587
20183.36968
20183.38435
20183.39876
20183.41224
20183.4243
20183.43446
20183.4425
20183.44856
20183.45355
20183.4575
20183.4545
20183.4291
20183.3592
20183.30987
20183.31396
20183.3573
20183.36764
20183.28433
20183.14202
20182.98002
20182.80899
20182.63282
20182.45312
20182.27059
20182.08549
20181.89783
20181.70744
20181.51404
20181.31726
20181.11687
20180.90733
20180.79092
20180.7285
20180.70881
20180.73038
20180.73985
20180.6811
20180.58721
20180.47979
20180.36077
20180.2652
20180.22604
20180.25633
20180.31501
20180.34673
20180.33954
20180.31119
20180.2678
20180.21179
20180.14996
20180.08712
20180.02388
20179.9563
20179.88174
20179.79144
20179.67728
20179.53051
20179.34043
20179.09789
20178.79972
20178.44334
20178.04611
20177.63579
20177.24161
20176.9091
20176.666
20176.5218
20176.47588
20176.5157
20176.62637
20176.80288
20177.02783
20177.25584
20177.44805
20177.59058
20177.69875
20177.77802
20177.81413
20177.80011
20177.75411
20177.74122
20177.79209
20177.886
20178.00032
20178.10548
20178.17779
20178.22205
20178.25431
20178.28328
20178.31042
20178.33466
20178.35573
20178.37625
20178.39701
20178.41005
20178.40845
20178.38943
20178.35888
20178.31686
20178.27924
20178.21571
20178.18475
20178.22152
20178.28288
20178.35764
20178.44228
20178.54106
20178.65679
20178.78979
20178.93914
20179.1022
20179.27648
20179.45911
20179.64762
20179.83984
20180.0337
20180.22782
20180.42048
20180.61089
20180.79754
20180.97995
20181.15671
20181.32752
20181.49078
20181.64648
20181.79288
20181.93024
20182.05695
20182.17351
20182.27891
20182.37351
20182.45717
20182.5302
20182.59296
20182.64592
20182.6896
20182.7244
20182.7509
20182.76969
20182.78277
20182.78921
20182.78916
20182.78466
20182.77691
20182.76579
20182.75192
20182.73601
20182.71885
20182.7008
20182.6821
20182.66264
20182.6429
20182.62337
20182.6045
20182.58643
20182.56884
20182.55146
20182.53404
20182.5165
20182.49879
20182.48059
20182.46144
20182.44103
20182.4189
20182.3949
20182.36876
20182.34071
20182.31076
20182.27927
20182.24634
20182.21235
20182.17753
20182.14229
20182.10684
20182.07149
20182.03629
20182.00139
20181.96672
20181.93236
20181.89817
20181.86424
20181.83046
20181.79703
20181.76387
20181.73146
20181.69998
20181.6707
20181.64526
20181.62851
20181.62851
20183.3484
20183.3484
20183.34312
20183.3362
20183.33032
20183.32687
20183.32669
20183.33024
20183.33757
20183.34813
20183.36093
20183.3749
20183.38913
20183.40303
20183.4161
20183.42782
20183.43778
20183.44576
20183.45197
20183.45577
20183.45141
20183.42721
20183.36704
20183.3299
20183.34092
20183.37553
20183.37697
20183.2865
20183.14452
20182.98327
20182.81248
20182.63622
20182.45637
20182.27375
20182.08864
20181.90102
20181.71061
20181.51691
20181.31909
20181.11594
20180.89536
20180.76208
20180.69834
20180.68027
20180.69505
20180.69402
20180.63626
20180.55117
20180.44904
20180.33213
20180.23816
20180.20547
20180.24681
20180.32265
20180.36928
20180.36317
20180.32558
20180.27221
20180.21083
20180.1474
20180.08512
20180.02375
20179.9597
20179.88899
20179.80317
20179.69348
20179.54989
20179.36128
20179.11617
20178.81027
20178.43905
20178.02137
20177.5842
20177.1625
20176.8066
20176.54386
20176.38342
20176.32459
20176.35639
20176.46638
20176.64692
20176.88269
20177.14004
20177.37782
20177.56374
20177.69596
20177.78047
20177.81052
20177.78621
20177.73182
20177.71872
20177.77412
20177.87192
20177.99026
20178.09917
20178.17389
20178.21976
20178.25407
20178.28542
20178.31363
20178.33678
20178.35618
20178.37505
20178.38677
20178.37938
20178.34912
20178.30339
20178.25181
20178.19952
20178.15458
20178.10871
20178.09246
20178.12641
20178.189
20178.26974
20178.36492
20178.47513
20178.60185
20178.74423
20178.90128
20179.07045
20179.24933
20179.43559
20179.62658
20179.82086
20180.01592
20180.21116
20180.40431
20180.59536
20180.78221
20180.96509
20181.14206
20181.3134
20181.47701
20181.63332
20181.78026
20181.91821
20182.04557
20182.16269
20182.26871
20182.36384
20182.44804
20182.52159
20182.58491
20182.63844
20182.68275
20182.718
20182.74502
20182.76405
20182.77735
20182.78456
20182.78486
20182.78021
20182.77247
20182.76141
20182.74756
20182.73154
20182.71426
20182.6961
20182.67749
20182.65802
20182.63821
20182.61844
20182.59935
20182.58113
20182.56354
20182.54625
20182.52903
20182.51159
20182.49401
20182.47591
20182.45692
20182.43667
20182.41477
20182.39097
20182.36504
20182.33711
20182.30733
20182.27592
20182.24315
20182.20924
20182.17457
20182.13942
20182.10415
20182.06893
20182.03396
20181.99922
20181.96477
20181.93051
20181.89648
20181.86255
20181.82887
20181.79536
20181.76229
20181.72984
20181.69869
20181.66994
20181.64628
20181.63332
20181.63332
20183.33402
20183.33402
20183.33044
20183.32549
20183.32121
20183.31892
20183.3194
20183.32308
20183.32999
20183.33974
20183.35159
20183.36471
20183.37842
20183.3922
20183.40565
20183.41835
20183.42985
20183.43972
20183.4474
20183.45132
20183.44635
20183.42563
20183.38125
20183.35726
20183.37276
20183.40756
20183.40248
20183.29951
20183.1526
20182.98931
20182.81746
20182.64055
20182.46031
20182.27752
20182.09242
20181.9049
20181.71457
20181.52075
20181.32217
20181.11703
20180.88718
20180.73866
20180.67335
20180.65623
20180.66606
20180.65823
20180.60203
20180.52366
20180.42835
20180.31673
20180.22765
20180.20111
20180.24876
20180.33365
20180.38634
20180.37905
20180.33589
20180.27653
20180.21148
20180.14651
20180.08436
20180.02454
20179.96363
20179.89659
20179.81529
20179.71013
20179.57033
20179.38347
20179.1364
20178.82224
20178.4355
20177.99478
20177.52747
20177.07673
20176.69681
20176.41611
20176.2444
20176.17797
20176.20414
20176.31223
20176.49453
20176.7362
20177.01129
20177.28313
20177.5107
20177.67305
20177.76729
20177.7955
20177.77005
20177.71759
20177.7084
20177.76721
20177.86698
20177.98681
20178.09615
20178.17071
20178.21751
20178.2541
20178.28815
20178.31747
20178.33956
20178.35546
20178.36395
20178.35305
20178.31399
20178.25528
20178.18973
20178.1256
20178.06876
20178.02429
20177.99159
20177.98825
20178.02547
20178.0924
20178.18049
20178.28586
20178.40711
20178.5443
20178.69592
20178.86056
20179.03588
20179.21944
20179.40935
20179.60295
20179.79923
20179.99563
20180.19189
20180.38566
20180.57719
20180.7644
20180.94759
20181.1249
20181.29665
20181.4608
20181.61761
20181.76529
20181.90382
20182.03195
20182.14968
20182.25636
20182.35211
20182.43692
20182.51107
20182.57501
20182.62914
20182.67411
20182.70989
20182.73751
20182.75727
20182.7707
20182.77841
20182.77927
20182.77467
20182.76689
20182.7559
20182.74208
20182.72599
20182.70859
20182.69031
20182.67173
20182.65231
20182.6324
20182.61244
20182.59308
20182.57471
20182.55707
20182.53984
20182.52283
20182.50555
20182.48815
20182.47018
20182.45136
20182.43128
20182.40962
20182.38607
20182.36039
20182.33265
20182.30306
20182.2718
20182.23922
20182.20545
20182.17097
20182.13596
20182.10092
20182.0659
20182.03119
20181.99667
20181.96247
20181.92837
20181.89452
20181.86065
20181.82703
20181.79345
20181.76034
20181.72775
20181.69655
20181.6678
20181.64447
20181.63218
20181.63218
20183.32057
20183.32057
20183.31814
20183.31466
20183.31171
20183.31039
20183.31143
20183.31523
20183.32182
20183.3309
20183.34191
20183.35422
20183.36728
20183.38065
20183.39403
20183.40709
20183.41948
20183.43067
20183.43968
20183.44443
20183.43981
20183.42425
20183.39647
20183.3857
20183.40589
20183.44347
20183.43473
20183.32005
20183.16532
20182.99786
20182.82382
20182.64573
20182.46489
20182.28187
20182.09679
20181.90946
20181.71939
20181.52569
20181.32681
20181.12091
20180.88436
20180.72243
20180.65411
20180.63693
20180.64353
20180.6323
20180.57878
20180.50672
20180.42044
20180.31871
20180.23763
20180.21519
20180.26442
20180.34844
20180.396
20180.38616
20180.34092
20180.2791
20180.21217
20180.14631
20180.08446
20180.02609
20179.96776
20179.90389
20179.82656
20179.72577
20179.58995
20179.40519
20179.15657
20178.83392
20178.43117
20177.96497
20177.46542
20176.98411
20176.57944
20176.28413
20176.10801