# vtk DataFile Version 2.0
FlowField
ASCII
DATASET STRUCTURED_GRID
DIMENSIONS 200 1 200
POINTS 40000 float
0 0 0
0.15 0 0
0.3 0 0
0.45 0 0
0.6 0 0
0.75 0 0
0.9 0 0
1.05 0 0
1.2 0 0
1.35 0 0
1.5 0 0
1.65 0 0
1.8 0 0
1.95 0 0
2.1 0 0
2.25 0 0
2.4 0 0
2.55 0 0
2.7 0 0
2.85 0 0
3 0 0
3.15 0 0
3.3 0 0
3.45 0 0
3.6 0 0
3.75 0 0
3.9 0 0
4.05 0 0
4.2 0 0
4.35 0 0
4.5 0 0
4.65 0 0
4.8 0 0
4.95 0 0
5.1 0 0
5.25 0 0
5.4 0 0
5.55 0 0
5.7 0 0
5.85 0 0
6 0 0
6.15 0 0
6.3 0 0
6.45 0 0
6.6 0 0
6.75 0 0
6.9 0 0
7.05 0 0
7.2 0 0
7.35 0 0
7.5 0 0
7.65 0 0
7.8 0 0
7.95 0 0
8.1 0 0
8.25 0 0
8.4 0 0
8.55 0 0
8.7 0 0
8.85 0 0
9 0 0
9.15 0 0
9.3 0 0
9.45 0 0
9.6 0 0
9.75 0 0
9.9 0 0
10.05 0 0
10.2 0 0
10.35 0 0
10.5 0 0
10.65 0 0
10.8 0 0
10.95 0 0
11.1 0 0
11.25 0 0
11.4 0 0
11.55 0 0
11.7 0 0
11.85 0 0
12 0 0
12.15 0 0
12.3 0 0
12.45 0 0
12.6 0 0
12.75 0 0
12.9 0 0
13.05 0 0
13.2 0 0
13.35 0 0
13.5 0 0
13.65 0 0
13.8 0 0
13.95 0 0
14.1 0 0
14.25 0 0
14.4 0 0
14.55 0 0
14.7 0 0
14.85 0 0
15 0 0
15.15 0 0
15.3 0 0
15.45 0 0
15.6 0 0
15.75 0 0
15.9 0 0
16.05 0 0
16.2 0 0
16.35 0 0
16.5 0 0
16.65 0 0
16.8 0 0
16.95 0 0
17.1 0 0
17.25 0 0
17.4 0 0
17.55 0 0
17.7 0 0
17.85 0 0
18 0 0
18.15 0 0
18.3 0 0
18.45 0 0
18.6 0 0
18.75 0 0
18.9 0 0
19.05 0 0
19.2 0 0
19.35 0 0
19.5 0 0
19.65 0 0
19.8 0 0
19.95 0 0
20.1 0 0
20.25 0 0
20.4 0 0
20.55 0 0
20.7 0 0
20.85 0 0
21 0 0
21.15 0 0
21.3 0 0
21.45 0 0
21.6 0 0
21.75 0 0
21.9 0 0
22.05 0 0
22.2 0 0
22.35 0 0
22.5 0 0
22.65 0 0
22.8 0 0
22.95 0 0
23.1 0 0
23.25 0 0
23.4 0 0
23.55 0 0
23.7 0 0
23.85 0 0
24 0 0
24.15 0 0
24.3 0 0
24.45 0 0
24.6 0 0
24.75 0 0
24.9 0 0
25.05 0 0
25.2 0 0
25.35 0 0
25.5 0 0
25.65 0 0
25.8 0 0
25.95 0 0
26.1 0 0
26.25 0 0
26.4 0 0
26.55 0 0
26.7 0 0
26.85 0 0
27 0 0
27.15 0 0
27.3 0 0
27.45 0 0
27.6 0 0
27.75 0 0
27.9 0 0
28.05 0 0
28.2 0 0
28.35 0 0
28.5 0 0
28.65 0 0
28.8 0 0
28.95 0 0
29.1 0 0
29.25 0 0
29.4 0 0
29.55 0 0
29.7 0 0
29.85 0 0
0 0.075 0
0.15 0.075 0
0.3 0.075 0
0.45 0.075 0
0.6 0.075 0
0.75 0.075 0
0.9 0.075 0
1.05 0.075 0
1.2 0.075 0
1.35 0.075 0
1.5 0.075 0
1.65 0.075 0
1.8 0.075 0
1.95 0.075 0
2.1 0.075 0
2.25 0.075 0
2.4 0.075 0
2.55 0.075 0
2.7 0.075 0
2.85 0.075 0
3 0.075 0
3.15 0.075 0
3.3 0.075 0
3.45 0.075 0
3.6 0.075 0
3.75 0.075 0
3.9 0.075 0
4.05 0.075 0
4.2 0.075 0
4.35 0.075 0
4.5 0.075 0
4.65 0.075 0
4.8 0.075 0
4.95 0.075 0
5.1 0.075 0
5.25 0.075 0
5.4 0.075 0
5.55 0.075 0
5.7 0.075 0
5.85 0.075 0
6 0.075 0
6.15 0.075 0
6.3 0.075 0
6.45 0.075 0
6.6 0.075 0
6.75 0.075 0
6.9 0.075 0
7.05 0.075 0
7.2 0.075 0
7.35 0.075 0
7.5 0.075 0
7.65 0.075 0
7.8 0.075 0
7.95 0.075 0
8.1 0.075 0
8.25 0.075 0
8.4 0.075 0
8.55 0.075 0
8.7 0.075 0
8.85 0.075 0
9 0.075 0
9.15 0.075 0
9.3 0.075 0
9.45 0.075 0
9.6 0.075 0
9.75 0.075 0
9.9 0.075 0
10.05 0.075 0
10.2 0.075 0
10.35 0.075 0
10.5 0.075 0
10.65 0.075 0
10.8 0.075 0
10.95 0.075 0
11.1 0.075 0
11.25 0.075 0
11.4 0.075 0
11.55 0.075 0
11.7 0.075 0
11.85 0.075 0
12 0.075 0
12.15 0.075 0
12.3 0.075 0
12.45 0.075 0
12.6 0.075 0
12.75 0.075 0
12.9 0.075 0
13.05 0.075 0
13.2 0.075 0
13.35 0.075 0
13.5 0.075 0
13.65 0.075 0
13.8 0.075 0
13.95 0.075 0
14.1 0.075 0
14.25 0.075 0
14.4 0.075 0
14.55 0.075 0
14.7 0.075 0
14.85 0.075 0
15 0.075 0
15.15 0.075 0
15.3 0.075 0
15.45 0.075 0
15.6 0.075 0
15.75 0.075 0
15.9 0.075 0
16.05 0.075 0
16.2 0.075 0
16.35 0.075 0
16.5 0.075 0
16.65 0.075 0
16.8 0.075 0
16.95 0.075 0
17.1 0.075 0
17.25 0.075 0
17.4 0.075 0
17.55 0.075 0
17.7 0.075 0
17.85 0.075 0
18 0.075 0
18.15 0.075 0
18.3 0.075 0
18.45 0.075 0
18.6 0.075 0
18.75 0.075 0
18.9 0.075 0
19.05 0.075 0
19.2 0.075 0
19.35 0.075 0
19.5 0.075 0
19.65 0.075 0
19.8 0.075 0
19.95 0.075 0
20.1 0.075 0
20.25 0.075 0
20.4 0.075 0
20.55 0.075 0
20.7 0.075 0
20.85 0.075 0
21 0.075 0
21.15 0.075 0
21.3 0.075 0
21.45 0.075 0
21.6 0.075 0
21.75 0.075 0
21.9 0.075 0
22.05 0.075 0
22.2 0.075 0
22.35 0.075 0
22.5 0.075 0
22.65 0.075 0
22.8 0.075 0
22.95 0.075 0
23.1 0.075 0
23.25 0.075 0
23.4 0.075 0
23.55 0.075 0
23.7 0.075 0
23.85 0.075 0
24 0.075 0
24.15 0.075 0
24.3 0.075 0
24.45 0.075 0
24.6 0.075 0
24.75 0.075 0
24.9 0.075 0
25.05 0.075 0
25.2 0.075 0
25.35 0.075 0
25.5 0.075 0
25.65 0.075 0
25.8 0.075 0
25.95 0.075 0
26.1 0.075 0
26.25 0.075 0
26.4 0.075 0
26.55 0.075 0
26.7 0.075 0
26.85 0.075 0
27 0.075 0
27.15 0.075 0
27.3 0.075 0
27.45 0.075 0
27.6 0.075 0
27.75 0.075 0
27.9 0.075 0
28.05 0.075 0
28.2 0.075 0
28.35 0.075 0
28.5 0.075 0
28.65 0.075 0
28.8 0.075 0
28.95 0.075 0
29.1 0.075 0
29.25 0.075 0
29.4 0.075 0
29.55 0.075 0
29.7 0.075 0
29.85 0.075 0
0 0.15 0
0.15 0.15 0
0.3 0.15 0
0.45 0.15 0
0.6 0.15 0
0.75 0.15 0
0.9 0.15 0
1.05 0.15 0
1.2 0.15 0
1.35 0.15 0
1.5 0.15 0
1.65 0.15 0
1.8 0.15 0
1.95 0.15 0
2.1 0.15 0
2.25 0.15 0
2.4 0.15 0
2.55 0.15 0
2.7 0.15 0
2.85 0.15 0
3 0.15 0
3.15 0.15 0
3.3 0.15 0
3.45 0.15 0
3.6 0.15 0
3.75 0.15 0
3.9 0.15 0
4.05 0.15 0
4.2 0.15 0
4.35 0.15 0
4.5 0.15 0
4.65 0.15 0
4.8 0.15 0
4.95 0.15 0
5.1 0.15 0
5.25 0.15 0
5.4 0.15 0
5.55 0.15 0
5.7 0.15 0
5.85 0.15 0
6 0.15 0
6.15 0.15 0
6.3 0.15 0
6.45 0.15 0
6.6 0.15 0
6.75 0.15 0
6.9 0.15 0
7.05 0.15 0
7.2 0.15 0
7.35 0.15 0
7.5 0.15 0
7.65 0.15 0
7.8 0.15 0
7.95 0.15 0
8.1 0.15 0
8.25 0.15 0
8.4 0.15 0
8.55 0.15 0
8.7 0.15 0
8.85 0.15 0
9 0.15 0
9.15 0.15 0
9.3 0.15 0
9.45 0.15 0
9.6 0.15 0
9.75 0.15 0
9.9 0.15 0
10.05 0.15 0
10.2 0.15 0
10.35 0.15 0
10.5 0.15 0
10.65 0.15 0
10.8 0.15 0
10.95 0.15 0
11.1 0.15 0
11.25 0.15 0
11.4 0.15 0
11.55 0.15 0
11.7 0.15 0
11.85 0.15 0
12 0.15 0
12.15 0.15 0
12.3 0.15 0
12.45 0.15 0
12.6 0.15 0
12.75 0.15 0
12.9 0.15 0
13.05 0.15 0
13.2 0.15 0
13.35 0.15 0
13.5 0.15 0
13.65 0.15 0
13.8 0.15 0
13.95 0.15 0
14.1 0.15 0
14.25 0.15 0
14.4 0.15 0
14.55 0.15 0
14.7 0.15 0
14.85 0.15 0
15 0.15 0
15.15 0.15 0
15.3 0.15 0
15.45 0.15 0
15.6 0.15 0
15.75 0.15 0
15.9 0.15 0
16.05 0.15 0
16.2 0.15 0
16.35 0.15 0
16.5 0.15 0
16.65 0.15 0
16.8 0.15 0
16.95 0.15 0
17.1 0.15 0
17.25 0.15 0
17.4 0.15 0
17.55 0.15 0
17.7 0.15 0
17.85 0.15 0
18 0.15 0
18.15 0.15 0
18.3 0.15 0
18.45 0.15 0
18.6 0.15 0
18.75 0.15 0
18.9 0.15 0
19.05 0.15 0
19.2 0.15 0
19.35 0.15 0
19.5 0.15 0
19.65 0.15 0
19.8 0.15 0
19.95 0.15 0
20.1 0.15 0
20.25 0.15 0
20.4 0.15 0
20.55 0.15 0
20.7 0.15 0
20.85 0.15 0
21 0.15 0
21.15 0.15 0
21.3 0.15 0
21.45 0.15 0
21.6 0.15 0
21.75 0.15 0
21.9 0.15 0
22.05 0.15 0
22.2 0.15 0
22.35 0.15 0
22.5 0.15 0
22.65 0.15 0
22.8 0.15 0
22.95 0.15 0
23.1 0.15 0
23.25 0.15 0
23.4 0.15 0
23.55 0.15 0
23.7 0.15 0
23.85 0.15 0
24 0.15 0
24.15 0.15 0
24.3 0.15 0
24.45 0.15 0
24.6 0.15 0
24.75 0.15 0
24.9 0.15 0
25.05 0.15 0
25.2 0.15 0
25.35 0.15 0
25.5 0.15 0
25.65 0.15 0
25.8 0.15 0
25.95 0.15 0
26.1 0.15 0
26.25 0.15 0
26.4 0.15 0
26.55 0.15 0
26.7 0.15 0
26.85 0.15 0
27 0.15 0
27.15 0.15 0
27.3 0.15 0
27.45 0.15 0
27.6 0.15 0
27.75 0.15 0
27.9 0.15 0
28.05 0.15 0
28.2 0.15 0
28.35 0.15 0
28.5 0.15 0
28.65 0.15 0
28.8 0.15 0
28.95 0.15 0
29.1 0.15 0
29.25 0.15 0
29.4 0.15 0
29.55 0.15 0
29.7 0.15 0
29.85 0.15 0
0 0.225 0
0.15 0.225 0
0.3 0.225 0
0.45 0.225 0
0.6 0.225 0
0.75 0.225 0
0.9 0.225 0
1.05 0.225 0
1.2 0.225 0
1.35 0.225 0
1.5 0.225 0
1.65 0.225 0
1.8 0.225 0
1.95 0.225 0
2.1 0.225 0
2.25 0.225 0
2.4 0.225 0
2.55 0.225 0
2.7 0.225 0
2.85 0.225 0
3 0.225 0
3.15 0.225 0
3.3 0.225 0
3.45 0.225 0
3.6 0.225 0
3.75 0.225 0
3.9 0.225 0
4.05 0.225 0
4.2 0.225 0
4.35 0.225 0
4.5 0.225 0
4.65 0.225 0
4.8 0.225 0
4.95 0.225 0
5.1 0.225 0
5.25 0.225 0
5.4 0.225 0
5.55 0.225 0
5.7 0.225 0
5.85 0.225 0
6 0.225 0
6.15 0.225 0
6.3 0.225 0
6.45 0.225 0
6.6 0.225 0
6.75 0.225 0
6.9 0.225 0
7.05 0.225 0
7.2 0.225 0
7.35 0.225 0
7.5 0.225 0
7.65 0.225 0
7.8 0.225 0
7.95 0.225 0
8.1 0.225 0
8.25 0.225 0
8.4 0.225 0
8.55 0.225 0
8.7 0.225 0
8.85 0.225 0
9 0.225 0
9.15 0.225 0
9.3 0.225 0
9.45 0.225 0
9.6 0.225 0
9.75 0.225 0
9.9 0.225 0
10.05 0.225 0
10.2 0.225 0
10.35 0.225 0
10.5 0.225 0
10.65 0.225 0
10.8 0.225 0
10.95 0.225 0
11.1 0.225 0
11.25 0.225 0
11.4 0.225 0
11.55 0.225 0
11.7 0.225 0
11.85 0.225 0
12 0.225 0
12.15 0.225 0
12.3 0.225 0
12.45 0.225 0
12.6 0.225 0
12.75 0.225 0
12.9 0.225 0
13.05 0.225 0
13.2 0.225 0
13.35 0.225 0
13.5 0.225 0
13.65 0.225 0
13.8 0.225 0
13.95 0.225 0
14.1 0.225 0
14.25 0.225 0
14.4 0.225 0
14.55 0.225 0
14.7 0.225 0
14.85 0.225 0
15 0.225 0
15.15 0.225 0
15.3 0.225 0
15.45 0.225 0
15.6 0.225 0
15.75 0.225 0
15.9 0.225 0
16.05 0.225 0
16.2 0.225 0
16.35 0.225 0
16.5 0.225 0
16.65 0.225 0
16.8 0.225 0
16.95 0.225 0
17.1 0.225 0
17.25 0.225 0
17.4 0.225 0
17.55 0.225 0
17.7 0.225 0
17.85 0.225 0
18 0.225 0
18.15 0.225 0
18.3 0.225 0
18.45 0.225 0
18.6 0.225 0
18.75 0.225 0
18.9 0.225 0
19.05 0.225 0
19.2 0.225 0
19.35 0.225 0
19.5 0.225 0
19.65 0.225 0
19.8 0.225 0
19.95 0.225 0
20.1 0.225 0
20.25 0.225 0
20.4 0.225 0
20.55 0.225 0
20.7 0.225 0
20.85 0.225 0
21 0.225 0
21.15 0.225 0
21.3 0.225 0
21.45 0.225 0
21.6 0.225 0
21.75 0.225 0
21.9 0.225 0
22.05 0.225 0
22.2 0.225 0
22.35 0.225 0
22.5 0.225 0
22.65 0.225 0
22.8 0.225 0
22.95 0.225 0
23.1 0.225 0
23.25 0.225 0
23.4 0.225 0
23.55 0.225 0
23.7 0.225 0
23.85 0.225 0
24 0.225 0
24.15 0.225 0
24.3 0.225 0
24.45 0.225 0
24.6 0.225 0
24.75 0.225 0
24.9 0.225 0
25.05 0.225 0
25.2 0.225 0
25.35 0.225 0
25.5 0.225 0
25.65 0.225 0
25.8 0.225 0
25.95 0.225 0
26.1 0.225 0
26.25 0.225 0
26.4 0.225 0
26.55 0.225 0
26.7 0.225 0
26.85 0.225 0
27 0.225 0
27.15 0.225 0
27.3 0.225 0
27.45 0.225 0
27.6 0.225 0
27.75 0.225 0
27.9 0.225 0
28.05 0.225 0
28.2 0.225 0
28.35 0.225 0
28.5 0.225 0
28.65 0.225 0
28.8 0.225 0
28.95 0.225 0
29.1 0.225 0
29.25 0.225 0
29.4 0.225 0
29.55 0.225 0
29.7 0.225 0
29.85 0.225 0
0 0.3 0
0.15 0.3 0
0.3 0.3 0
0.45 0.3 0
0.6 0.3 0
0.75 0.3 0
0.9 0.3 0
1.05 0.3 0
1.2 0.3 0
1.35 0.3 0
1.5 0.3 0
1.65 0.3 0
1.8 0.3 0
1.95 0.3 0
2.1 0.3 0
2.25 0.3 0
2.4 0.3 0
2.55 0.3 0
2.7 0.3 0
2.85 0.3 0
3 0.3 0
3.15 0.3 0
3.3 0.3 0
3.45 0.3 0
3.6 0.3 0
3.75 0.3 0
3.9 0.3 0
4.05 0.3 0
4.2 0.3 0
4.35 0.3 0
4.5 0.3 0
4.65 0.3 0
4.8 0.3 0
4.95 0.3 0
5.1 0.3 0
5.25 0.3 0
5.4 0.3 0
5.55 0.3 0
5.7 0.3 0
5.85 0.3 0
6 0.3 0
6.15 0.3 0
[...]
POINT_DATA 40000

SCALARS p float 1
LOOKUP_TABLE default
20183.19154
20183.19154
20183.13596
20183.10797
20183.08933
20183.07623
20183.06886
20183.06845
20183.07511
20183.08705
20183.10145
20183.11582
20183.12876
20183.14001
20183.14989
20183.1585
20183.16575
20183.17177
20183.17679
20183.18025
20183.17949
20183.1716
20183.1411
20183.0752
20183.13469
20183.58632
20183.45974
20183.07172
20182.80774
20182.57307
20182.34341
20182.11167
20181.87557
20181.63418
20181.38691
20181.13304
20180.87158
20180.60105
20180.31916
20180.02198
20179.70175
20179.53419
20179.57481
20179.57205
20179.58071
20179.58758
20179.59532
20179.60005
20179.60255
20179.6068
20179.61609
20179.63197
20179.65237
20179.67127
20179.68094
20179.67481
20179.65225
20179.6205
20179.58269
20179.53668
20179.48446
20179.429
20179.37504
20179.32961
20179.29891
20179.28759
20179.29459
20179.32081
20179.37777
20179.48263
20179.65211
20179.90128
20180.24495
20180.68635
20181.19919
20181.71431
20182.15891
20182.53096
20182.75088
20182.73999
20182.54947
20182.27715
20181.97865
20181.69231
20181.4449
20181.23345
20181.05975
20180.95608
20180.9074
20180.87691
20180.86187
20180.86008
20180.85717
20180.84342
20180.82693
20180.82595
20180.8443
20180.86112
20180.85882
20180.84103
20180.81983
20180.8038
20180.79573
20180.79556
20180.80185
20180.81186
20180.82202
20180.82927
20180.82948
20180.80574
20180.7911
20180.72545
20180.5823
20180.47788
20180.38593
20180.26779
20180.13593
20180.01402
20179.91868
20179.85817
20179.83511
20179.84854
20179.89497
20179.96905
20180.06463
20180.17562
20180.29672
20180.42423
20180.55622
20180.69093
20180.82389
20180.94841
20181.06212
20181.17164
20181.28008
20181.37943
20181.46721
20181.55016
20181.62606
20181.69461
20181.75663
20181.81214
20181.86156
20181.90519
20181.94345
20181.97673
20182.00521
20182.02938
20182.04953
20182.06608
20182.07931
20182.08966
20182.09741
20182.1029
20182.10641
20182.1082
20182.10851
20182.10757
20182.10559
20182.10275
20182.09923
20182.0952
20182.09082
20182.08621
20182.08151
20182.07685
20182.07232
20182.06802
20182.06404
20182.06043
20182.05725
20182.05452
20182.05229
20182.05052
20182.04926
20182.04844
20182.04812
20182.04823
20182.04885
20182.04993
20182.05156
20182.05376
20182.05664
20182.06025
20182.06471
20182.07011
20182.07658
20182.08421
20182.09314
20182.10345
20182.11527
20182.12867
20182.14375
20182.16049
20182.17894
20182.19888
20182.22035
20182.24275
20182.26632
20182.26632
20183.19154
20183.19154
20183.13596
20183.10797
20183.08933
20183.07623
20183.06886
20183.06845
20183.07511
20183.08705
20183.10145
20183.11582
20183.12876
20183.14001
20183.14989
20183.1585
20183.16575
20183.17177
20183.17679
20183.18025
20183.17949
20183.1716
20183.1411
20183.0752
20183.13469
20183.58632
20183.45974
20183.07172
20182.80774
20182.57307
20182.34341
20182.11167
20181.87557
20181.63418
20181.38691
20181.13304
20180.87158
20180.60105
20180.31916
20180.02198
20179.70175
20179.53419
20179.57481
20179.57205
20179.58071
20179.58758
20179.59532
20179.60005
20179.60255
20179.6068
20179.61609
20179.63197
20179.65237
20179.67127
20179.68094
20179.67481
20179.65225
20179.6205
20179.58269
20179.53668
20179.48446
20179.429
20179.37504
20179.32961
20179.29891
20179.28759
20179.29459
20179.32081
20179.37777
20179.48263
20179.65211
20179.90128
20180.24495
20180.68635
20181.19919
20181.71431
20182.15891
20182.53096
20182.75088
20182.73999
20182.54947
20182.27715
20181.97865
20181.69231
20181.4449
20181.23345
20181.05975
20180.95608
20180.9074
20180.87691
20180.86187
20180.86008
20180.85717
20180.84342
20180.82693
20180.82595
20180.8443
20180.86112
20180.85882
20180.84103
20180.81983
20180.8038
20180.79573
20180.79556
20180.80185
20180.81186
20180.82202
20180.82927
20180.82948
20180.80574
20180.7911
20180.72545
20180.5823
20180.47788
20180.38593
20180.26779
20180.13593
20180.01402
20179.91868
20179.85817
20179.83511
20179.84854
20179.89497
20179.96905
20180.06463
20180.17562
20180.29672
20180.42423
20180.55622
20180.69093
20180.82389
20180.94841
20181.06212
20181.17164
20181.28008
20181.37943
20181.46721
20181.55016
20181.62606
20181.69461
20181.75663
20181.81214
20181.86156
20181.90519
20181.94345
20181.97673
20182.00521
20182.02938
20182.04953
20182.06608
20182.07931
20182.08966
20182.09741
20182.1029
20182.10641
20182.1082
20182.10851
20182.10757
20182.10559
20182.10275
20182.09923
20182.0952
20182.09082
20182.08621
20182.08151
20182.07685
20182.07232
20182.06802
20182.06404
20182.06043
20182.05725
20182.05452
20182.05229
20182.05052
20182.04926
20182.04844
20182.04812
20182.04823
20182.04885
20182.04993
20182.05156
20182.05376
20182.05664
20182.06025
20182.06471
20182.07011
20182.07658
20182.08421
20182.09314
20182.10345
20182.11527
20182.12867
20182.14375
20182.16049
20182.17894
20182.19888
20182.22035
20182.24275
20182.26632
20182.26632
20183.15899
20183.15899
20183.12697
20183.1036
20183.08701
20183.07547
20183.06931
20183.06961
20183.07647
20183.08831
20183.10255
20183.11679
20183.12964
20183.14081
20183.15062
20183.15914
20183.16624
20183.17212
20183.17707
20183.1809
20183.18152
20183.17191
20183.1234
20183.03118
20183.03554
20183.35441
20183.31336
20183.04162
20182.80072
20182.57188
20182.34393
20182.11274
20181.87686
20181.63562
20181.38852
20181.1349
20180.8738
20180.60384
20180.3229
20180.02762
20179.71034
20179.56269
20179.57021
20179.57059
20179.57902
20179.58629
20179.59404
20179.59876
20179.6011
20179.60513
20179.61467
20179.63158
20179.65354
20179.67372
20179.68377
20179.67724
20179.65426
20179.62276
20179.58523
20179.53919
20179.48741
20179.43192
20179.37601
20179.32671
20179.29088
20179.27455
20179.27894
20179.30551
20179.36352
20179.46699
20179.6309
20179.87233
20180.20934
20180.64677
20181.15707
20181.6701
20182.12439
20182.49028
20182.71151
20182.70953
20182.5221
20182.25251
20181.95473
20181.66563
20181.41384
20181.20108
20181.03685
20180.94593
20180.90328
20180.87471
20180.86123
20180.86162
20180.86018
20180.8452
20180.82479
20180.82098
20180.84069
20180.86073
20180.8597
20180.84116
20180.81879
20180.80215
20180.79403
20180.79418
20180.80108
20180.81187
20180.82255
20180.82823
20180.83068
20180.80616
20180.78856
20180.73821
20180.59416
20180.47121
20180.36462
20180.24067
20180.10889
20179.98972
20179.89783
20179.84062
20179.82036
20179.83605
20179.88423
20179.95962
20180.05616
20180.16798
20180.29004
20180.41863
20180.55131
20180.68591
20180.8185
20180.94323
20181.05796
20181.16851
20181.27672
20181.37564
20181.46435
20181.54756
20181.62358
20181.69242
20181.75463
20181.81034
20181.85999
20181.90382
20181.94222
20181.97565
20182.00427
20182.02857
20182.04883
20182.06549
20182.07881
20182.08924
20182.09706
20182.10261
20182.10617
20182.10801
20182.10836
20182.10746
20182.1055
20182.10268
20182.09918
20182.09516
20182.09078
20182.08618
20182.08148
20182.07682
20182.07228
20182.06798
20182.064
20182.06038
20182.05721
20182.05448
20182.05225
20182.05049
20182.04923
20182.04842
20182.04811
20182.04823
20182.04884
20182.04993
20182.05156
20182.05376
20182.05662
20182.06022
20182.06467
20182.07005
20182.0765
20182.08412
20182.09302
20182.10332
20182.11513
20182.12853
20182.14361
20182.16036
20182.17885
20182.19881
20182.22037
20182.2428
20182.26646
20182.26646
20183.13341
20183.13341
20183.11387
20183.09581
20183.08203
20183.07256
20183.06793
20183.06896
20183.07577
20183.08718
20183.10111
20183.11545
20183.12878
20183.14058
20183.15087
20183.15959
20183.16674
20183.17261
20183.17763
20183.18199
20183.18313
20183.16868
20183.10021
20182.99716
20182.97676
20183.15589
20183.17008
20183.00399
20182.79112
20182.57061
20182.3453
20182.115
20181.87949
20181.63853
20181.39177
20181.13863
20180.87825
20180.60939
20180.33027
20180.03852
20179.72603
20179.57966
20179.56754
20179.56988
20179.57639
20179.58389
20179.59179
20179.59645
20179.59813
20179.60116
20179.61013
20179.62759
20179.65172
20179.67527
20179.68826
20179.68288
20179.65957
20179.62743
20179.5897
20179.5429
20179.48837
20179.42844
20179.36693
20179.31071
20179.26709
20179.2435
20179.24438
20179.27285
20179.33417
20179.43538
20179.58803
20179.81405
20180.13805
20180.56675
20181.07045
20181.58262
20182.05283
20182.41081
20182.62702
20182.63946
20182.46021
20182.19698
20181.89959
20181.60371
20181.34429
20181.13317
20180.98299
20180.90448
20180.8741
20180.86019
20180.85596
20180.86107
20180.86258
20180.84701
20180.82165
20180.81287
20180.83311
20180.85699
20180.85794
20180.83898
20180.81576
20180.79885
20180.791
20180.79215
20180.80064
20180.81321
20180.82555
20180.82989
20180.83023
20180.81397
20180.77448
20180.70458
20180.56173
20180.42308
20180.29896
20180.17064
20180.04387
20179.93327
20179.85025
20179.80093
20179.78725
20179.80817
20179.86036
20179.93884
20180.03784
20180.15195
20180.27656
20180.40768
20180.54159
20180.67552
20180.80755
20180.93392
20181.05138
20181.16289
20181.27002
20181.36913
20181.45954
20181.54298
20181.61937
20181.68871
20181.75132
20181.80739
20181.85744
20181.90162
20181.94029
20181.97398
20182.00283
20182.02735
20182.04778
20182.06461
20182.07807
20182.08861
20182.09654
20182.10217
20182.10581
20182.10771
20182.10811
20182.10725
20182.10532
20182.10252
20182.09903
20182.09503
20182.09064
20182.08604
20182.08133
20182.07666
20182.07211
20182.0678
20182.06381
20182.06018
20182.057
20182.05427
20182.05205
20182.05029
20182.04904
20182.04823
20182.04792
20182.04804
20182.04865
20182.04972
20182.05134
20182.05351
20182.05634
20182.05991
20182.06431
20182.06966
20182.07606
20182.08364
20182.0925
20182.10277
20182.11454
20182.12792
20182.14302
20182.1598
20182.1784
20182.19849
20182.22033
20182.24309
20182.26732
20182.26732
20183.11287
20183.11287
20183.10041
20183.08675
20183.07562
20183.06803
20183.06468
20183.06623
20183.07277
20183.08345
20183.09673
20183.11091
20183.1247
20183.13741
20183.14876
20183.15849
20183.16644
20183.1728
20183.17807
20183.18267
20183.18293
20183.16384
20183.08779
20183.00183
20182.98698
20183.07976
20183.09909
20182.9782
20182.78432
20182.57083
20182.348
20182.1186
20181.8835
20181.6429
20181.39662
20181.1442
20180.88486
20180.61756
20180.34092
20180.05366
20179.74406
20179.59105
20179.56829
20179.56911
20179.57261
20179.57974
20179.58774
20179.59231
20179.59307
20179.59461
20179.60242
20179.61973
20179.64561
20179.67329
20179.69118
20179.68879
20179.66597
20179.63285
20179.59406
20179.54438
20179.48251
20179.41398
20179.34499
20179.28138
20179.23082
20179.20222
20179.20166
20179.23221
20179.29521
20179.3915
20179.52991
20179.73648
20180.04127
20180.45398
20180.94472
20181.45544
20181.93778
20182.29626
20182.50045
20182.526
20182.36241
20182.1106
20181.81513
20181.51009
20181.24443
20181.03648
20180.89776
20180.82952
20180.81466
20180.82452
20180.83966
20180.85448
20180.86144
20180.84752
20180.81812
20180.80309
20180.82207
20180.84901
20180.85211
20180.8331
20180.80967
20180.79337
20180.78645
20180.78909
20180.80039
20180.81689
20180.83002
20180.83469
20180.82215
20180.78723
20180.72077
20180.62224
20180.47749
20180.33319
20180.20198
20180.07601
20179.95872
20179.85995
20179.78826
20179.74873
20179.74309
20179.77039
20179.8276
20179.91003
20180.0122
20180.12909
20180.25658
20180.39062
20180.52634
20180.66015
20180.79193
20180.92022
20181.04045
20181.15321
20181.2599
20181.35953
20181.45157
20181.53562
20181.61269
20181.68271
20181.74599
20181.80263
20181.85325
20181.89796
20181.93708
20181.97118
20182.0004
20182.02526
20182.04599
20182.06305
20182.07676
20182.08747
20182.09558
20182.10134
20182.1051
20182.1071
20182.10758
20182.10679
20182.1049
20182.10215
20182.09868
20182.09469
20182.09031
20182.08571
20182.081
20182.07631
20182.07176
20182.06743
20182.06343
20182.05979
20182.05661
20182.05388
20182.05166
20182.0499
20182.04865
20182.04786
20182.04754
20182.04766
20182.04825
20182.04931
20182.05089
20182.05302
20182.05581
20182.05932
20182.06366
20182.06894
20182.07527
20182.08278
20182.09157
20182.10177
20182.1135
20182.12685
20182.14196
20182.1588
20182.17755
20182.19793
20182.22021
20182.24372
20182.26921
20182.26921
20183.0956
20183.0956
20183.08737
20183.07717
20183.06839
20183.06243
20183.0601
20183.06196
20183.06809
20183.07789
20183.09023
20183.10383
20183.11762
20183.13094
20183.14334
20183.15441
20183.16381
20183.17145
20183.17746
20183.1819
20183.18041
20183.15969
20183.08848
20183.0257
20183.02302
20183.07824
20183.08675
20182.97018
20182.78363
20182.57384
20182.3525
20182.12367
20181.8889
20181.64871
20181.40304
20181.15152
20180.89352
20180.62817
20180.35447
20180.0723
20179.76384
20179.60003
20179.56907
20179.56625
20179.56719
20179.57342
20179.5814
20179.5858
20179.58557
20179.5855
20179.59191
20179.60851
20179.63525
20179.66627
20179.68936
20179.69115
20179.66987
20179.63592
20179.59473
20179.53909
20179.46686
20179.38892
20179.31329
20179.24409
20179.18959
20179.15908
20179.15816
20179.18917
20179.25079
20179.33942
20179.46189
20179.64624
20179.92631
20180.3161
20180.78675
20181.28974
20181.774
20182.14624
20182.34329
20182.37326
20182.23262
20181.99357
20181.70028
20181.38305
20181.11029
20180.90793
20180.78416
20180.72957
20180.72902
20180.76329
20180.80572
20180.83762
20180.85402
20180.84515
20180.81463
20180.79446
20180.81128
20180.83982
20180.844
20180.8241
20180.80039
20180.78517
20180.77933
20180.78418
20180.80055
20180.82223
20180.83399
20180.82282
20180.78454
20180.71772
20180.62275
20180.50499
20180.36218
20180.22096
20180.09162
20179.97223
20179.86561
20179.77876
20179.71831
20179.68853
20179.69103
20179.72499
20179.78759
20179.87445
20179.98021
20180.09998
20180.23013
20180.36703
20180.50526
20180.64009
20180.77211
20180.90202
20181.02467
20181.13908
20181.24613
20181.34675
20181.44016
20181.52528
20181.60331
20181.67422
20181.73841
20181.79584
20181.84719
20181.89264
20181.93236
20181.96706
20181.99678
20182.02211
20182.04326
20182.06066
20182.0747
20182.08568
20182.09403
20182.10001
20182.10394
20182.10609
20182.10669
20182.10601
20182.10419
20182.10151
20182.09807
20182.09412
20182.08976
20182.08516
20182.08045
20182.07575
20182.07119
20182.06684
20182.06284
20182.05919
20182.05601
20182.05327
20182.05106
20182.04931
20182.04807
20182.04728
20182.04697
20182.04708
20182.04766
20182.04868
20182.05022
20182.0523
20182.05502
20182.05846
20182.06271
20182.06791
20182.07415
20182.08156
20182.09026
20182.10037
20182.11202
20182.12532
20182.14042
20182.15735
20182.17626
20182.19702
20182.21985
20182.24441
20182.27164
20182.27164
20183.08048
20183.08048
20183.07489
20183.06735
20183.06058
20183.05603
20183.05455
20183.05663
20183.06236
20183.07131
20183.08263
20183.09537
20183.10871
20183.12206
20183.135
20183.14711
20183.15796
20183.16721
20183.17441
20183.17881
20183.17558
20183.15579
20183.09875
20183.05613
20183.06501
20183.10908
20183.10574
20182.97799
20182.78998
20182.58028
20182.35905
20182.13027
20181.89569
20181.6559
20181.41095
20181.16053
20180.90411
20180.64101
20180.37054
20180.09392
20179.78568
20179.60822
20179.56831
20179.56116
20179.55996
20179.5649
20179.57263
20179.57682
20179.57574
20179.57423
20179.57918
20179.59463
20179.62133
20179.65419
20179.68128
20179.68742
20179.6684
20179.6338
20179.58879
20179.52516
20179.44249
20179.35691
20179.27673
20179.2045
20179.14911
20179.11897
20179.11786
20179.14726
20179.20436
20179.28332
20179.38999
20179.55143
20179.80269
20180.16404
20180.60861
20181.09195
20181.56583
20181.952
20182.15994
20182.19263
20182.0787
20181.84957
20181.55481
20181.22492
20180.94316
20180.74555
20180.63824
20180.60615
20180.62312
20180.67913
20180.75086
20180.80723
20180.83842
20180.83904
20180.81204
20180.78969
20180.80463
20180.83301
20180.83572
20180.81394
20180.79048
20180.77541
20180.76939
20180.77729
20180.79949
20180.82076
20180.81798
20180.77829
20180.70614
20180.61048
20180.49747
20180.37173
20180.23418
20180.09971
20179.97616
20179.86461
20179.76807
20179.69203
20179.6419
20179.62128
20179.6316
20179.67216
20179.74035
20179.83205
20179.94192
20180.06487
20180.19748
20180.33689
20180.47795
20180.61496
20180.74801
20180.87929
20181.00405
20181.1204
20181.22849
20181.33062
20181.42532
20181.51182
20181.59111
20181.66317
20181.72846
20181.78692
20181.83916
20181.88553
20181.92603
20181.96146
20181.99184
20182.01774
20182.03945
20182.05729
20182.07176
20182.08312
20182.09179
20182.09807
20182.10223
20182.10461
20182.10537
20182.10485
20182.10314
20182.10056
20182.09719
20182.09329
20182.08895
20182.08437
20182.07967
20182.07496
20182.0704
20182.06603
20182.06202
20182.05836
20182.05518
20182.05245
20182.05024
20182.04851
20182.04728
20182.0465
20182.04619
20182.0463
20182.04686
20182.04785
20182.04934
20182.05136
20182.054
20182.05734
20182.06149
20182.06658
20182.0727
20182.08
20182.08857
20182.09857
20182.11011
20182.12335
20182.1384
20182.15541
20182.17448
20182.19564
20182.21909
20182.24478
20182.27379
20182.27379
20183.06682
20183.06682
20183.06295
20183.05743
20183.05233
20183.04899
20183.04822
20183.0505
20183.05589
20183.06409
20183.07447
20183.08631
20183.09895
20183.11191
20183.12484
20183.1374
20183.14919
20183.15974
20183.16811
20183.17302
20183.16836
20183.15183
20183.1131
20183.08804
20183.10443
20183.14801
20183.13851
20182.99737
20182.80279
20182.59018
20182.36767
20182.13839
20181.90379
20181.66442
20181.42029
20181.17113
20180.9165
20180.65591
20180.3888
20180.11814
20179.81006
20179.6169
20179.56599
20179.55419
20179.5509
20179.55432
20179.56161
20179.56572
20179.56413
20179.56158
20179.56513
20179.57905
20179.60486
20179.63799
20179.66718
20179.6768
20179.66014
20179.62489
20179.57532
20179.50348
20179.41213
20179.32133
20179.2386
20179.16531
20179.11077
20179.08193
20179.08029
20179.10652
20179.15699
20179.2252
20179.31698
20179.45661
20179.67719
20180.00604
20180.42112
20180.87677
20181.32991
20181.71737
20181.94791
20181.99275
20181.90126
20181.67956
20181.37785
20181.03809
20180.74915
20180.55428
20180.46038
20180.4566
20180.49867
20180.57677
20180.67633
20180.76192
20180.81378
20180.82906
20180.81116
20180.79058
20180.80523
20180.8321
20180.83169
20180.80891
20180.78436
20180.76461
20180.75559
20180.7661
20180.78882
20180.798
20180.76726
20180.69416
20180.59468
20180.48161
20180.36037
20180.23327
20180.10172
20179.97446
20179.85762
20179.75381
20179.66638
20179.60005
20179.55938
20179.54735
20179.56513
20179.61207
20179.68584
20179.78255
20179.89697
20180.02364
20180.15893
20180.30058
20180.44434
20180.58424
20180.71923
20180.85191
20180.97866
20181.09706
20181.20703
20181.31089
20181.40705
20181.49524
20181.57605
20181.64952
20181.71609
20181.77581
20181.8291
20181.87657
20181.91798
20181.9543
20181.98546
20182.01207
20182.03443
20182.05283
20182.06782
20182.07966
20182.08872
20182.0954
20182.09987
20182.10256
20182.10355
20182.10324
20182.10169
20182.09925
20182.09597
20182.09215
20182.08787
20182.08332
20182.07864
20182.07393
20182.06937
20182.06499
20182.06097
20182.0573
20182.05413
20182.05139
20182.0492
20182.04748
20182.04627
20182.04551
20182.04521
20182.04532
20182.04586
20182.04682
20182.04825
20182.0502
20182.05274
20182.05597
20182.06
20182.06496
20182.07094
20182.0781
20182.08653
20182.0964
20182.10779
20182.12093
20182.13591
20182.15296
20182.17217
20182.19371
20182.21777
20182.24452
20182.27506
20182.27506
20183.05415
20183.05415
20183.05145
20183.04745
20183.04371
20183.04139
20183.04125
20183.04369
20183.04882
20183.05641
20183.06597
20183.07696
20183.08884
20183.10123
20183.11381
20183.12633
20183.13845
20183.14972
20183.15897
20183.16485
20183.16039
20183.14996
20183.1272
20183.11771
20183.14123
20183.18751
20183.17605
20183.02436
20182.82074
20182.60308
20182.37816
20182.14788
20181.91311
20181.67415
20181.43094
20181.1832
20180.93056
20180.67266
20180.40894
20180.14458
20179.83742
20179.62731
20179.56278
20179.54566
20179.54005
20179.54189
20179.54871
20179.55306
20179.55151
20179.54845
20179.55073
20179.56283
20179.58699
20179.61899
20179.6483
20179.65988
20179.64504
20179.60902
20179.55502
20179.47607
20179.37829
20179.28416
20179.20029
20179.12691
20179.0736
20179.04609
20179.04352
20179.06568
20179.10845
20179.16525
20179.24235
20179.36218
20179.55483
20179.84993
20180.23186