# vtk DataFile Version 2.0
FlowField
ASCII
DATASET STRUCTURED_GRID
DIMENSIONS 200 1 200
POINTS 40000 float
0 0 0
0.15 0 0
0.3 0 0
0.45 0 0
0.6 0 0
0.75 0 0
0.9 0 0
1.05 0 0
1.2 0 0
1.35 0 0
1.5 0 0
1.65 0 0
1.8 0 0
1.95 0 0
2.1 0 0
2.25 0 0
2.4 0 0
2.55 0 0
2.7 0 0
2.85 0 0
3 0 0
3.15 0 0
3.3 0 0
3.45 0 0
3.6 0 0
3.75 0 0
3.9 0 0
4.05 0 0
4.2 0 0
4.35 0 0
4.5 0 0
4.65 0 0
4.8 0 0
4.95 0 0
5.1 0 0
5.25 0 0
5.4 0 0
5.55 0 0
5.7 0 0
5.85 0 0
6 0 0
6.15 0 0
6.3 0 0
6.45 0 0
6.6 0 0
6.75 0 0
6.9 0 0
7.05 0 0
7.2 0 0
7.35 0 0
7.5 0 0
7.65 0 0
7.8 0 0
7.95 0 0
8.1 0 0
8.25 0 0
8.4 0 0
8.55 0 0
8.7 0 0
8.85 0 0
9 0 0
9.15 0 0
9.3 0 0
9.45 0 0
9.6 0 0
9.75 0 0
9.9 0 0
10.05 0 0
10.2 0 0
10.35 0 0
10.5 0 0
10.65 0 0
10.8 0 0
10.95 0 0
11.1 0 0
11.25 0 0
11.4 0 0
11.55 0 0
11.7 0 0
11.85 0 0
12 0 0
12.15 0 0
12.3 0 0
12.45 0 0
12.6 0 0
12.75 0 0
12.9 0 0
13.05 0 0
13.2 0 0
13.35 0 0
13.5 0 0
13.65 0 0
13.8 0 0
13.95 0 0
14.1 0 0
14.25 0 0
14.4 0 0
14.55 0 0
14.7 0 0
14.85 0 0
15 0 0
15.15 0 0
15.3 0 0
15.45 0 0
15.6 0 0
15.75 0 0
15.9 0 0
16.05 0 0
16.2 0 0
16.35 0 0
16.5 0 0
16.65 0 0
16.8 0 0
16.95 0 0
17.1 0 0
17.25 0 0
17.4 0 0
17.55 0 0
17.7 0 0
17.85 0 0
18 0 0
18.15 0 0
18.3 0 0
18.45 0 0
18.6 0 0
18.75 0 0
18.9 0 0
19.05 0 0
19.2 0 0
19.35 0 0
19.5 0 0
19.65 0 0
19.8 0 0
19.95 0 0
20.1 0 0
20.25 0 0
20.4 0 0
20.55 0 0
20.7 0 0
20.85 0 0
21 0 0
21.15 0 0
21.3 0 0
21.45 0 0
21.6 0 0
21.75 0 0
21.9 0 0
22.05 0 0
22.2 0 0
22.35 0 0
22.5 0 0
22.65 0 0
22.8 0 0
22.95 0 0
23.1 0 0
23.25 0 0
23.4 0 0
23.55 0 0
23.7 0 0
23.85 0 0
24 0 0
24.15 0 0
24.3 0 0
24.45 0 0
24.6 0 0
24.75 0 0
24.9 0 0
25.05 0 0
25.2 0 0
25.35 0 0
25.5 0 0
25.65 0 0
25.8 0 0
25.95 0 0
26.1 0 0
26.25 0 0
26.4 0 0
26.55 0 0
26.7 0 0
26.85 0 0
27 0 0
27.15 0 0
27.3 0 0
27.45 0 0
27.6 0 0
27.75 0 0
27.9 0 0
28.05 0 0
28.2 0 0
28.35 0 0
28.5 0 0
28.65 0 0
28.8 0 0
28.95 0 0
29.1 0 0
29.25 0 0
29.4 0 0
29.55 0 0
29.7 0 0
29.85 0 0
0 0.075 0
0.15 0.075 0
0.3 0.075 0
0.45 0.075 0
0.6 0.075 0
0.75 0.075 0
0.9 0.075 0
1.05 0.075 0
1.2 0.075 0
1.35 0.075 0
1.5 0.075 0
1.65 0.075 0
1.8 0.075 0
1.95 0.075 0
2.1 0.075 0
2.25 0.075 0
2.4 0.075 0
2.55 0.075 0
2.7 0.075 0
2.85 0.075 0
3 0.075 0
3.15 0.075 0
3.3 0.075 0
3.45 0.075 0
3.6 0.075 0
3.75 0.075 0
3.9 0.075 0
4.05 0.075 0
4.2 0.075 0
4.35 0.075 0
4.5 0.075 0
4.65 0.075 0
4.8 0.075 0
4.95 0.075 0
5.1 0.075 0
5.25 0.075 0
5.4 0.075 0
5.55 0.075 0
5.7 0.075 0
5.85 0.075 0
6 0.075 0
6.15 0.075 0
6.3 0.075 0
6.45 0.075 0
6.6 0.075 0
6.75 0.075 0
6.9 0.075 0
7.05 0.075 0
7.2 0.075 0
7.35 0.075 0
7.5 0.075 0
7.65 0.075 0
7.8 0.075 0
7.95 0.075 0
8.1 0.075 0
8.25 0.075 0
8.4 0.075 0
8.55 0.075 0
8.7 0.075 0
8.85 0.075 0
9 0.075 0
9.15 0.075 0
9.3 0.075 0
9.45 0.075 0
9.6 0.075 0
9.75 0.075 0
9.9 0.075 0
10.05 0.075 0
10.2 0.075 0
10.35 0.075 0
10.5 0.075 0
10.65 0.075 0
10.8 0.075 0
10.95 0.075 0
11.1 0.075 0
11.25 0.075 0
11.4 0.075 0
11.55 0.075 0
11.7 0.075 0
11.85 0.075 0
12 0.075 0
12.15 0.075 0
12.3 0.075 0
12.45 0.075 0
12.6 0.075 0
12.75 0.075 0
12.9 0.075 0
13.05 0.075 0
13.2 0.075 0
13.35 0.075 0
13.5 0.075 0
13.65 0.075 0
13.8 0.075 0
13.95 0.075 0
14.1 0.075 0
14.25 0.075 0
14.4 0.075 0
14.55 0.075 0
14.7 0.075 0
14.85 0.075 0
15 0.075 0
15.15 0.075 0
15.3 0.075 0
15.45 0.075 0
15.6 0.075 0
15.75 0.075 0
15.9 0.075 0
16.05 0.075 0
16.2 0.075 0
16.35 0.075 0
16.5 0.075 0
16.65 0.075 0
16.8 0.075 0
16.95 0.075 0
17.1 0.075 0
17.25 0.075 0
17.4 0.075 0
17.55 0.075 0
17.7 0.075 0
17.85 0.075 0
18 0.075 0
18.15 0.075 0
18.3 0.075 0
18.45 0.075 0
18.6 0.075 0
18.75 0.075 0
18.9 0.075 0
19.05 0.075 0
19.2 0.075 0
19.35 0.075 0
19.5 0.075 0
19.65 0.075 0
19.8 0.075 0
19.95 0.075 0
20.1 0.075 0
20.25 0.075 0
20.4 0.075 0
20.55 0.075 0
20.7 0.075 0
20.85 0.075 0
21 0.075 0
21.15 0.075 0
21.3 0.075 0
21.45 0.075 0
21.6 0.075 0
21.75 0.075 0
21.9 0.075 0
22.05 0.075 0
22.2 0.075 0
22.35 0.075 0
22.5 0.075 0
22.65 0.075 0
22.8 0.075 0
22.95 0.075 0
23.1 0.075 0
23.25 0.075 0
23.4 0.075 0
23.55 0.075 0
23.7 0.075 0
23.85 0.075 0
24 0.075 0
24.15 0.075 0
24.3 0.075 0
24.45 0.075 0
24.6 0.075 0
24.75 0.075 0
24.9 0.075 0
25.05 0.075 0
25.2 0.075 0
25.35 0.075 0
25.5 0.075 0
25.65 0.075 0
25.8 0.075 0
25.95 0.075 0
26.1 0.075 0
26.25 0.075 0
26.4 0.075 0
26.55 0.075 0
26.7 0.075 0
26.85 0.075 0
27 0.075 0
27.15 0.075 0
27.3 0.075 0
27.45 0.075 0
27.6 0.075 0
27.75 0.075 0
27.9 0.075 0
28.05 0.075 0
28.2 0.075 0
28.35 0.075 0
28.5 0.075 0
28.65 0.075 0
28.8 0.075 0
28.95 0.075 0
29.1 0.075 0
29.25 0.075 0
29.4 0.075 0
29.55 0.075 0
29.7 0.075 0
29.85 0.075 0
0 0.15 0
0.15 0.15 0
0.3 0.15 0
0.45 0.15 0
0.6 0.15 0
0.75 0.15 0
0.9 0.15 0
1.05 0.15 0
1.2 0.15 0
1.35 0.15 0
1.5 0.15 0
1.65 0.15 0
1.8 0.15 0
1.95 0.15 0
2.1 0.15 0
2.25 0.15 0
2.4 0.15 0
2.55 0.15 0
2.7 0.15 0
2.85 0.15 0
3 0.15 0
3.15 0.15 0
3.3 0.15 0
3.45 0.15 0
3.6 0.15 0
3.75 0.15 0
3.9 0.15 0
4.05 0.15 0
4.2 0.15 0
4.35 0.15 0
4.5 0.15 0
4.65 0.15 0
4.8 0.15 0
4.95 0.15 0
5.1 0.15 0
5.25 0.15 0
5.4 0.15 0
5.55 0.15 0
5.7 0.15 0
5.85 0.15 0
6 0.15 0
6.15 0.15 0
6.3 0.15 0
6.45 0.15 0
6.6 0.15 0
6.75 0.15 0
6.9 0.15 0
7.05 0.15 0
7.2 0.15 0
7.35 0.15 0
7.5 0.15 0
7.65 0.15 0
7.8 0.15 0
7.95 0.15 0
8.1 0.15 0
8.25 0.15 0
8.4 0.15 0
8.55 0.15 0
8.7 0.15 0
8.85 0.15 0
9 0.15 0
9.15 0.15 0
9.3 0.15 0
9.45 0.15 0
9.6 0.15 0
9.75 0.15 0
9.9 0.15 0
10.05 0.15 0
10.2 0.15 0
10.35 0.15 0
10.5 0.15 0
10.65 0.15 0
10.8 0.15 0
10.95 0.15 0
11.1 0.15 0
11.25 0.15 0
11.4 0.15 0
11.55 0.15 0
11.7 0.15 0
11.85 0.15 0
12 0.15 0
12.15 0.15 0
12.3 0.15 0
12.45 0.15 0
12.6 0.15 0
12.75 0.15 0
12.9 0.15 0
13.05 0.15 0
13.2 0.15 0
13.35 0.15 0
13.5 0.15 0
13.65 0.15 0
13.8 0.15 0
13.95 0.15 0
14.1 0.15 0
14.25 0.15 0
14.4 0.15 0
14.55 0.15 0
14.7 0.15 0
14.85 0.15 0
15 0.15 0
15.15 0.15 0
15.3 0.15 0
15.45 0.15 0
15.6 0.15 0
15.75 0.15 0
15.9 0.15 0
16.05 0.15 0
16.2 0.15 0
16.35 0.15 0
16.5 0.15 0
16.65 0.15 0
16.8 0.15 0
16.95 0.15 0
17.1 0.15 0
17.25 0.15 0
17.4 0.15 0
17.55 0.15 0
17.7 0.15 0
17.85 0.15 0
18 0.15 0
18.15 0.15 0
18.3 0.15 0
18.45 0.15 0
18.6 0.15 0
18.75 0.15 0
18.9 0.15 0
19.05 0.15 0
19.2 0.15 0
19.35 0.15 0
19.5 0.15 0
19.65 0.15 0
19.8 0.15 0
19.95 0.15 0
20.1 0.15 0
20.25 0.15 0
20.4 0.15 0
20.55 0.15 0
20.7 0.15 0
20.85 0.15 0
21 0.15 0
21.15 0.15 0
21.3 0.15 0
21.45 0.15 0
21.6 0.15 0
21.75 0.15 0
21.9 0.15 0
22.05 0.15 0
22.2 0.15 0
22.35 0.15 0
22.5 0.15 0
22.65 0.15 0
22.8 0.15 0
22.95 0.15 0
23.1 0.15 0
23.25 0.15 0
23.4 0.15 0
23.55 0.15 0
23.7 0.15 0
23.85 0.15 0
24 0.15 0
24.15 0.15 0
24.3 0.15 0
24.45 0.15 0
24.6 0.15 0
24.75 0.15 0
24.9 0.15 0
25.05 0.15 0
25.2 0.15 0
25.35 0.15 0
25.5 0.15 0
25.65 0.15 0
25.8 0.15 0
25.95 0.15 0
26.1 0.15 0
26.25 0.15 0
26.4 0.15 0
26.55 0.15 0
26.7 0.15 0
26.85 0.15 0
27 0.15 0
27.15 0.15 0
27.3 0.15 0
27.45 0.15 0
27.6 0.15 0
27.75 0.15 0
27.9 0.15 0
28.05 0.15 0
28.2 0.15 0
28.35 0.15 0
28.5 0.15 0
28.65 0.15 0
28.8 0.15 0
28.95 0.15 0
29.1 0.15 0
29.25 0.15 0
29.4 0.15 0
29.55 0.15 0
29.7 0.15 0
29.85 0.15 0
0 0.225 0
0.15 0.225 0
0.3 0.225 0
0.45 0.225 0
0.6 0.225 0
0.75 0.225 0
0.9 0.225 0
1.05 0.225 0
1.2 0.225 0
1.35 0.225 0
1.5 0.225 0
1.65 0.225 0
1.8 0.225 0
1.95 0.225 0
2.1 0.225 0
2.25 0.225 0
2.4 0.225 0
2.55 0.225 0
2.7 0.225 0
2.85 0.225 0
3 0.225 0
3.15 0.225 0
3.3 0.225 0
3.45 0.225 0
3.6 0.225 0
3.75 0.225 0
3.9 0.225 0
4.05 0.225 0
4.2 0.225 0
4.35 0.225 0
4.5 0.225 0
4.65 0.225 0
4.8 0.225 0
4.95 0.225 0
5.1 0.225 0
5.25 0.225 0
5.4 0.225 0
5.55 0.225 0
5.7 0.225 0
5.85 0.225 0
6 0.225 0
6.15 0.225 0
6.3 0.225 0
6.45 0.225 0
6.6 0.225 0
6.75 0.225 0
6.9 0.225 0
7.05 0.225 0
7.2 0.225 0
7.35 0.225 0
7.5 0.225 0
7.65 0.225 0
7.8 0.225 0
7.95 0.225 0
8.1 0.225 0
8.25 0.225 0
8.4 0.225 0
8.55 0.225 0
8.7 0.225 0
8.85 0.225 0
9 0.225 0
9.15 0.225 0
9.3 0.225 0
9.45 0.225 0
9.6 0.225 0
9.75 0.225 0
9.9 0.225 0
10.05 0.225 0
10.2 0.225 0
10.35 0.225 0
10.5 0.225 0
10.65 0.225 0
10.8 0.225 0
10.95 0.225 0
11.1 0.225 0
11.25 0.225 0
11.4 0.225 0
11.55 0.225 0
11.7 0.225 0
11.85 0.225 0
12 0.225 0
12.15 0.225 0
12.3 0.225 0
12.45 0.225 0
12.6 0.225 0
12.75 0.225 0
12.9 0.225 0
13.05 0.225 0
13.2 0.225 0
13.35 0.225 0
13.5 0.225 0
13.65 0.225 0
13.8 0.225 0
13.95 0.225 0
14.1 0.225 0
14.25 0.225 0
14.4 0.225 0
14.55 0.225 0
14.7 0.225 0
14.85 0.225 0
15 0.225 0
15.15 0.225 0
15.3 0.225 0
15.45 0.225 0
15.6 0.225 0
15.75 0.225 0
15.9 0.225 0
16.05 0.225 0
16.2 0.225 0
16.35 0.225 0
16.5 0.225 0
16.65 0.225 0
16.8 0.225 0
16.95 0.225 0
17.1 0.225 0
17.25 0.225 0
17.4 0.225 0
17.55 0.225 0
17.7 0.225 0
17.85 0.225 0
18 0.225 0
18.15 0.225 0
18.3 0.225 0
18.45 0.225 0
18.6 0.225 0
18.75 0.225 0
18.9 0.225 0
19.05 0.225 0
19.2 0.225 0
19.35 0.225 0
19.5 0.225 0
19.65 0.225 0
19.8 0.225 0
19.95 0.225 0
20.1 0.225 0
20.25 0.225 0
20.4 0.225 0
20.55 0.225 0
20.7 0.225 0
20.85 0.225 0
21 0.225 0
21.15 0.225 0
21.3 0.225 0
21.45 0.225 0
21.6 0.225 0
21.75 0.225 0
21.9 0.225 0
22.05 0.225 0
22.2 0.225 0
22.35 0.225 0
22.5 0.225 0
22.65 0.225 0
22.8 0.225 0
22.95 0.225 0
23.1 0.225 0
23.25 0.225 0
23.4 0.225 0
23.55 0.225 0
23.7 0.225 0
23.85 0.225 0
24 0.225 0
24.15 0.225 0
24.3 0.225 0
24.45 0.225 0
24.6 0.225 0
24.75 0.225 0
24.9 0.225 0
25.05 0.225 0
25.2 0.225 0
25.35 0.225 0
25.5 0.225 0
25.65 0.225 0
25.8 0.225 0
25.95 0.225 0
26.1 0.225 0
26.25 0.225 0
26.4 0.225 0
26.55 0.225 0
26.7 0.225 0
26.85 0.225 0
27 0.225 0
27.15 0.225 0
27.3 0.225 0
27.45 0.225 0
27.6 0.225 0
27.75 0.225 0
27.9 0.225 0
28.05 0.225 0
28.2 0.225 0
28.35 0.225 0
28.5 0.225 0
28.65 0.225 0
28.8 0.225 0
28.95 0.225 0
29.1 0.225 0
29.25 0.225 0
29.4 0.225 0
29.55 0.225 0
29.7 0.225 0
29.85 0.225 0
0 0.3 0
0.15 0.3 0
0.3 0.3 0
0.45 0.3 0
0.6 0.3 0
0.75 0.3 0
0.9 0.3 0
1.05 0.3 0
1.2 0.3 0
1.35 0.3 0
1.5 0.3 0
1.65 0.3 0
1.8 0.3 0
1.95 0.3 0
2.1 0.3 0
2.25 0.3 0
2.4 0.3 0
2.55 0.3 0
2.7 0.3 0
2.85 0.3 0
3 0.3 0
3.15 0.3 0
3.3 0.3 0
3.45 0.3 0
3.6 0.3 0
3.75 0.3 0
3.9 0.3 0
4.05 0.3 0
4.2 0.3 0
4.35 0.3 0
4.5 0.3 0
4.65 0.3 0
4.8 0.3 0
4.95 0.3 0
5.1 0.3 0
5.25 0.3 0
5.4 0.3 0
5.55 0.3 0
5.7 0.3 0
5.85 0.3 0
6 0.3 0
6.15 0.3 0
[...]
POINT_DATA 40000

SCALARS p float 1
LOOKUP_TABLE default
20183.19204
20183.19204
20183.13661
20183.10889
20183.09058
20183.07781
20183.07079
20183.07077
20183.07791
20183.09033
20183.10513
20183.11975
20183.13284
20183.14418
20183.15407
20183.16254
20183.16948
20183.17506
20183.17956
20183.1822
20183.18062
20183.1731
20183.14772
20183.09251
20183.14835
20183.56658
20183.44876
20183.08441
20182.83671
20182.61695
20182.40227
20182.18609
20181.96639
20181.74254
20181.51428
20181.28141
20181.04366
20180.80073
20180.55216
20180.29682
20180.03012
20179.8854
20179.90656
20179.91216
20179.95011
20179.99365
20180.0015
20179.91781
20179.77289
20179.60744
20179.39251
20179.16563
20179.02769
20178.95831
20178.88146
20178.84646
20178.8509
20178.85604
20178.89498
20178.95973
20179.00338
20179.01307
20179.00585
20178.99449
20178.9785
20178.95046
20178.91183
20178.85069
20178.73734
20178.61447
20178.51793
20178.42642
20178.32481
20178.22391
20178.14349
20178.09933
20178.10003
20178.14804
20178.24151
20178.37598
20178.5455
20178.74348
20178.96326
20179.19844
20179.44307
20179.69182
20179.94003
20180.18371
20180.41957
20180.64506
20180.85829
20181.05804
20181.24362
20181.41481
20181.57164
20181.71427
20181.84284
20181.9574
20182.05794
20182.14444
20182.217
20182.27583
20182.32137
20182.35414
20182.37478
20182.38397
20182.38244
20182.37107
20182.35098
20182.32353
20182.29031
20182.253
20182.2132
20182.17228
20182.13132
20182.09109
20182.05207
20182.01458
20181.97882
20181.94493
20181.91301
20181.88314
20181.85537
20181.82972
20181.80617
20181.78464
20181.76505
20181.74726
20181.73113
20181.71651
20181.70325
20181.69119
20181.68022
20181.67019
20181.66101
20181.65256
20181.64478
20181.63757
20181.63087
20181.62464
20181.61882
20181.61337
20181.60825
20181.60343
20181.59888
20181.59459
20181.59052
20181.58666
20181.58299
20181.57949
20181.57616
20181.57298
20181.56995
20181.56704
20181.56425
20181.56157
20181.559
20181.55653
20181.55415
20181.55186
20181.54964
20181.54751
20181.54544
20181.54344
20181.5415
20181.53962
20181.5378
20181.53603
20181.53431
20181.53263
20181.531
20181.52941
20181.52785
20181.52634
20181.52485
20181.5234
20181.52197
20181.52057
20181.5192
20181.51785
20181.51652
20181.51522
20181.51393
20181.51266
20181.5114
20181.51015
20181.50892
20181.5077
20181.50649
20181.50529
20181.50409
20181.5029
20181.50171
20181.50053
20181.49935
20181.49816
20181.49698
20181.49579
20181.49461
20181.49461
20183.19204
20183.19204
20183.13661
20183.10889
20183.09058
20183.07781
20183.07079
20183.07077
20183.07791
20183.09033
20183.10513
20183.11975
20183.13284
20183.14418
20183.15407
20183.16254
20183.16948
20183.17506
20183.17956
20183.1822
20183.18062
20183.1731
20183.14772
20183.09251
20183.14835
20183.56658
20183.44876
20183.08441
20182.83671
20182.61695
20182.40227
20182.18609
20181.96639
20181.74254
20181.51428
20181.28141
20181.04366
20180.80073
20180.55216
20180.29682
20180.03012
20179.8854
20179.90656
20179.91216
20179.95011
20179.99365
20180.0015
20179.91781
20179.77289
20179.60744
20179.39251
20179.16563
20179.02769
20178.95831
20178.88146
20178.84646
20178.8509
20178.85604
20178.89498
20178.95973
20179.00338
20179.01307
20179.00585
20178.99449
20178.9785
20178.95046
20178.91183
20178.85069
20178.73734
20178.61447
20178.51793
20178.42642
20178.32481
20178.22391
20178.14349
20178.09933
20178.10003
20178.14804
20178.24151
20178.37598
20178.5455
20178.74348
20178.96326
20179.19844
20179.44307
20179.69182
20179.94003
20180.18371
20180.41957
20180.64506
20180.85829
20181.05804
20181.24362
20181.41481
20181.57164
20181.71427
20181.84284
20181.9574
20182.05794
20182.14444
20182.217
20182.27583
20182.32137
20182.35414
20182.37478
20182.38397
20182.38244
20182.37107
20182.35098
20182.32353
20182.29031
20182.253
20182.2132
20182.17228
20182.13132
20182.09109
20182.05207
20182.01458
20181.97882
20181.94493
20181.91301
20181.88314
20181.85537
20181.82972
20181.80617
20181.78464
20181.76505
20181.74726
20181.73113
20181.71651
20181.70325
20181.69119
20181.68022
20181.67019
20181.66101
20181.65256
20181.64478
20181.63757
20181.63087
20181.62464
20181.61882
20181.61337
20181.60825
20181.60343
20181.59888
20181.59459
20181.59052
20181.58666
20181.58299
20181.57949
20181.57616
20181.57298
20181.56995
20181.56704
20181.56425
20181.56157
20181.559
20181.55653
20181.55415
20181.55186
20181.54964
20181.54751
20181.54544
20181.54344
20181.5415
20181.53962
20181.5378
20181.53603
20181.53431
20181.53263
20181.531
20181.52941
20181.52785
20181.52634
20181.52485
20181.5234
20181.52197
20181.52057
20181.5192
20181.51785
20181.51652
20181.51522
20181.51393
20181.51266
20181.5114
20181.51015
20181.50892
20181.5077
20181.50649
20181.50529
20181.50409
20181.5029
20181.50171
20181.50053
20181.49935
20181.49816
20181.49698
20181.49579
20181.49461
20181.49461
20183.15944
20183.15944
20183.12756
20183.10444
20183.08817
20183.07698
20183.07119
20183.07191
20183.07926
20183.0916
20183.10623
20183.12073
20183.13372
20183.145
20183.15483
20183.16319
20183.16999
20183.1754
20183.17982
20183.18285
20183.18254
20183.17365
20183.1325
20183.0523
20183.05583
20183.3519
20183.31251
20183.0561
20182.83001
20182.61573
20182.40265
20182.18695
20181.9674
20181.74362
20181.51541
20181.2826
20181.04493
20180.80211
20180.55381
20180.29963
20180.0382
20179.91831
20179.90729
20179.90382
20179.9351
20179.97609
20179.97973
20179.90419
20179.76491
20179.58635
20179.3612
20179.12848
20178.9815
20178.90721
20178.85189
20178.84363
20178.85091
20178.85072
20178.88829
20178.95678
20179.00331
20179.0127
20179.00501
20178.994
20178.97926
20178.95203
20178.91266
20178.85626
20178.74718
20178.6171
20178.50682
20178.40422
20178.29755
20178.19639
20178.11818
20178.07705
20178.08078
20178.1315
20178.2273
20178.36374
20178.53491
20178.73428
20178.95524
20179.19142
20179.43693
20179.68645
20179.93534
20180.17962
20180.416
20180.64191
20180.85548
20181.05546
20181.24119
20181.41247
20181.56934
20181.71201
20181.84063
20181.95526
20182.05589
20182.14248
20182.21511
20182.27401
20182.31962
20182.35249
20182.37326
20182.38261
20182.38126
20182.37007
20182.35011
20182.32276
20182.28959
20182.25232
20182.21256
20182.17171
20182.13084
20182.0907
20182.05178
20182.01437
20181.97868
20181.94484
20181.91295
20181.8831
20181.85534
20181.82969
20181.80614
20181.78462
20181.76503
20181.74724
20181.73112
20181.7165
20181.70325
20181.6912
20181.68023
20181.67021
20181.66102
20181.65258
20181.64479
20181.63758
20181.63089
20181.62466
20181.61883
20181.61338
20181.60826
20181.60344
20181.59889
20181.5946
20181.59053
20181.58667
20181.583
20181.5795
20181.57617
20181.57299
20181.56995
20181.56704
20181.56425
20181.56158
20181.55901
20181.55653
20181.55415
20181.55186
20181.54965
20181.54751
20181.54544
20181.54344
20181.54151
20181.53963
20181.5378
20181.53603
20181.53431
20181.53264
20181.531
20181.52941
20181.52786
20181.52634
20181.52485
20181.5234
20181.52197
20181.52057
20181.5192
20181.51785
20181.51653
20181.51522
20181.51393
20181.51266
20181.5114
20181.51016
20181.50893
20181.5077
20181.50649
20181.50529
20181.50409
20181.5029
20181.50171
20181.50053
20181.49935
20181.49816
20181.49698
20181.49579
20181.49461
20181.49461
20183.13377
20183.13377
20183.11435
20183.09652
20183.08304
20183.07392
20183.06968
20183.07115
20183.07846
20183.09037
20183.10473
20183.11937
20183.13289
20183.14481
20183.15511
20183.16369
20183.17053
20183.17591
20183.18043
20183.18408
20183.18428
20183.171
20183.112
20183.02045
20182.99921
20183.16549
20183.17767
20183.02031
20182.82074
20182.61435
20182.40372
20182.18878
20181.96948
20181.7458
20181.51769
20181.285
20181.04749
20180.80487
20180.55697
20180.30421
20180.04722
20179.93144
20179.89796
20179.88446
20179.90704
20179.94436
20179.94347
20179.87511
20179.74463
20179.55037
20179.29977
20179.05584
20178.89725
20178.816
20178.78714
20178.81349
20178.83974
20178.84822
20178.88733
20178.95705
20179.0034
20179.01084
20179.00342
20178.99428
20178.98108
20178.95643
20178.91148
20178.84094
20178.72483
20178.58598
20178.45872
20178.34179
20178.23024
20178.13196
20178.06042
20178.02694
20178.03792
20178.09501
20178.19623
20178.33724
20178.51225
20178.71485
20178.93855
20179.17707
20179.4246
20179.67588
20179.92631
20180.17192
20180.40942
20180.63626
20180.85052
20181.05099
20181.23702
20181.40844
20181.5654
20181.70813
20181.83684
20181.95161
20182.05239
20182.13914
20182.21189
20182.27089
20182.31658
20182.34957
20182.37051
20182.38009
20182.37897
20182.36798
20182.34815
20182.32082
20182.28763
20182.25032
20182.21055
20182.16976
20182.129
20182.08902
20182.05029
20182.01307
20181.97755
20181.94385
20181.9121
20181.88236
20181.8547
20181.82914
20181.80566
20181.78421
20181.76468
20181.74695
20181.73087
20181.7163
20181.70308
20181.69106
20181.68012
20181.67011
20181.66095
20181.65252
20181.64474
20181.63754
20181.63085
20181.62462
20181.61881
20181.61336
20181.60824
20181.60342
20181.59888
20181.59458
20181.59051
20181.58665
20181.58298
20181.57949
20181.57616
20181.57298
20181.56994
20181.56703
20181.56424
20181.56157
20181.559
20181.55653
20181.55415
20181.55185
20181.54964
20181.5475
20181.54544
20181.54344
20181.5415
20181.53962
20181.5378
20181.53603
20181.53431
20181.53263
20181.531
20181.52941
20181.52785
20181.52633
20181.52485
20181.52339
20181.52197
20181.52057
20181.5192
20181.51785
20181.51652
20181.51522
20181.51393
20181.51266
20181.5114
20181.51016
20181.50893
20181.50771
20181.50649
20181.50529
20181.5041
20181.5029
20181.50172
20181.50053
20181.49935
20181.49817
20181.49698
20181.4958
20181.49462
20181.49462
20183.11312
20183.11312
20183.10076
20183.0873
20183.07645
20183.0692
20183.06624
20183.06824
20183.07527
20183.08645
20183.10018
20183.11472
20183.12876
20183.14164
20183.15303
20183.16264
20183.17029
20183.17617
20183.18101
20183.1851
20183.18467
20183.16688
20183.10076
20183.02432
20183.00722
20183.09177
20183.10886
20182.99518
20182.81395
20182.61428
20182.40594
20182.19173
20181.97266
20181.7491
20181.52112
20181.28861
20181.05133
20180.80896
20180.56138
20180.30939
20180.05047
20179.92549
20179.87829
20179.85738
20179.87108
20179.9022
20179.89835
20179.83287
20179.70457
20179.49704
20179.22284
20178.96926
20178.80651
20178.71945
20178.69974
20178.75702
20178.82481
20178.86232
20178.90685
20178.96898
20179.00635
20179.00807
20179.00091
20178.99506
20178.9806
20178.94658
20178.88505
20178.79197
20178.66198
20178.5146
20178.37599
20178.25075
20178.13874
20178.04641
20177.98391
20177.96009
20177.98009
20178.04516
20178.15329
20178.30019
20178.48024
20178.68713
20178.91449
20179.15618
20179.40647
20179.66017
20179.91273
20180.16021
20180.39931
20180.62745
20180.84271
20181.04386
20181.2303
20181.40194
20181.55899
20181.70181
20181.83065
20181.94561
20182.04662
20182.13358
20182.20649
20182.26559
20182.31137
20182.34448
20182.36564
20182.37551
20182.37474
20182.36405
20182.3444
20182.31713
20182.28389
20182.2465
20182.20672
20182.16601
20182.12544
20182.08572
20182.04729
20182.01039
20181.97518
20181.94178
20181.9103
20181.88082
20181.8534
20181.82805
20181.80476
20181.78347
20181.76408
20181.74646
20181.73048
20181.71599
20181.70283
20181.69086
20181.67996
20181.66999
20181.66084
20181.65243
20181.64467
20181.63748
20181.6308
20181.62458
20181.61877
20181.61332
20181.60821
20181.60339
20181.59885
20181.59456
20181.59049
20181.58663
20181.58296
20181.57947
20181.57614
20181.57296
20181.56992
20181.56701
20181.56423
20181.56155
20181.55898
20181.55651
20181.55413
20181.55184
20181.54963
20181.54749
20181.54542
20181.54343
20181.54149
20181.53961
20181.53779
20181.53602
20181.5343
20181.53262
20181.53099
20181.5294
20181.52785
20181.52633
20181.52484
20181.52339
20181.52197
20181.52057
20181.5192
20181.51785
20181.51652
20181.51522
20181.51393
20181.51266
20181.5114
20181.51016
20181.50893
20181.50771
20181.5065
20181.50529
20181.5041
20181.50291
20181.50172
20181.50054
20181.49936
20181.49817
20181.49699
20181.4958
20181.49463
20181.49463
20183.09571
20183.09571
20183.08757
20183.07755
20183.06903
20183.06339
20183.06144
20183.06374
20183.07035
20183.08065
20183.09345
20183.10745
20183.12156
20183.13509
20183.14759
20183.15859
20183.16773
20183.17496
20183.18061
20183.1848
20183.183
20183.16323
20183.10061
20183.04521
20183.03887
20183.08654
20183.09396
20182.98649
20182.81282
20182.61676
20182.40976
20182.19594
20181.97696
20181.75349
20181.52568
20181.29343
20181.05644
20180.81437
20180.56697
20180.31501
20180.04946
20179.9084
20179.85151
20179.82458
20179.83015
20179.85352
20179.84665
20179.78075
20179.64867
20179.42983
20179.14083
20178.88214
20178.72016
20178.63001
20178.6098
20178.68925
20178.80882
20178.89338
20178.94878
20178.9965
20179.01607
20179.00768
20178.99904
20178.99069
20178.96544
20178.91173
20178.82607
20178.71053
20178.56867
20178.41652
20178.27306
20178.1451
20178.03538
20177.94978
20177.89635
20177.88218
20177.91147
20177.98503
20178.10073
20178.2543
20178.44015
20178.65209
20178.88382
20179.12931
20179.38296
20179.63964
20179.89485
20180.14468
20180.3858
20180.61559
20180.83213
20181.03416
20181.22113
20181.39302
20181.55018
20181.69308
20181.82208
20181.93729
20182.0386
20182.12583
20182.19892
20182.2581
20182.30392
20182.33713
20182.35852
20182.36877
20182.36845
20182.35819
20182.33882
20182.31163
20182.27833
20182.24085
20182.20105
20182.16045
20182.12014
20182.0808
20182.04279
20182.00633
20181.97156
20181.93859
20181.90753
20181.87845
20181.8514
20181.8264
20181.80342
20181.7824
20181.76323
20181.7458
20181.72997
20181.7156
20181.70253
20181.69064
20181.67979
20181.66986
20181.66074
20181.65235
20181.64461
20181.63743
20181.63076
20181.62455
20181.61874
20181.61329
20181.60818
20181.60337
20181.59883
20181.59453
20181.59047
20181.58661
20181.58294
20181.57945
20181.57612
20181.57294
20181.5699
20181.567
20181.56421
20181.56153
20181.55896
20181.55649
20181.55412
20181.55182
20181.54961
20181.54747
20181.54541
20181.54341
20181.54148
20181.5396
20181.53778
20181.53601
20181.53429
20181.53261
20181.53098
20181.52939
20181.52784
20181.52632
20181.52484
20181.52338
20181.52196
20181.52056
20181.51919
20181.51785
20181.51652
20181.51521
20181.51393
20181.51266
20181.5114
20181.51016
20181.50893
20181.50771
20181.5065
20181.5053
20181.5041
20181.50291
20181.50173
20181.50055
20181.49936
20181.49818
20181.497
20181.49581
20181.49464
20181.49464
20183.08042
20183.08042
20183.07492
20183.06755
20183.06102
20183.05678
20183.05566
20183.05817
20183.06436
20183.07379
20183.08557
20183.09874
20183.11244
20183.12606
20183.13917
20183.15129
20183.16198
20183.17091
20183.17783
20183.18215
20183.17892
20183.15978
20183.10834
20183.07043
20183.07465
20183.11144
20183.10894
20182.99292
20182.8184
20182.62247
20182.41543
20182.20146
20181.9824
20181.75897
20181.53136
20181.29942
20181.06282
20180.82111
20180.57381
20180.32155
20180.04716
20179.88667
20179.82052
20179.78784
20179.78618
20179.80199
20179.79123
20179.72282
20179.58512
20179.35773
20179.06247
20178.80379
20178.64356
20178.54918
20178.52539
20178.62228
20178.7914
20178.92679
20178.99879
20179.03416
20179.034
20179.01269
20178.99612
20178.9747
20178.92825
20178.84958
20178.74107
20178.60867
20178.45902
20178.30475
20178.15982
20178.03168
20177.92496
20177.84553
20177.8003
20177.79518
20177.83355
20177.91578
20178.0395
20178.20032
20178.39262
20178.61023
20178.84694
20179.09682
20179.35437
20179.61455
20179.87289
20180.12551
20180.36906
20180.60086
20180.81895
20181.02206
20181.20966
20181.38185
20181.53913
20181.68213
20181.81131
20181.92683
20182.02852
20182.11607
20182.18936
20182.24859
20182.29439
20182.32763
20182.34922
20182.35988
20182.36013
20182.35041
20182.33142
20182.30436
20182.27099
20182.23339
20182.19355
20182.15312
20182.11317
20182.07433
20182.03689
20182.00101
20181.9668
20181.93437
20181.90383
20181.87525
20181.84869
20181.82415
20181.80159
20181.78093
20181.76208
20181.74492
20181.7293
20181.71509
20181.70215
20181.69036
20181.67958
20181.6697
20181.66063
20181.65227
20181.64454
20181.63738
20181.63072
20181.62451
20181.61871
20181.61327
20181.60816
20181.60334
20181.5988
20181.59451
20181.59044
20181.58658
20181.58292
20181.57942
20181.5761
20181.57292
20181.56988
20181.56697
20181.56419
20181.56151
20181.55894
20181.55647
20181.55409
20181.5518
20181.54959
20181.54746
20181.54539
20181.54339
20181.54146
20181.53958
20181.53776
20181.53599
20181.53427
20181.5326
20181.53097
20181.52938
20181.52783
20181.52631
20181.52483
20181.52338
20181.52195
20181.52056
20181.51919
20181.51784
20181.51652
20181.51521
20181.51392
20181.51265
20181.5114
20181.51016
20181.50893
20181.50771
20181.5065
20181.5053
20181.50411
20181.50292
20181.50174
20181.50056
20181.49938
20181.4982
20181.49701
20181.49583
20181.49466
20181.49466
20183.06657
20183.06657
20183.06279
20183.05742
20183.05255
20183.04951
20183.0491
20183.05178
20183.05763
20183.06629
20183.07713
20183.0894
20183.10242
20183.11571
20183.12887
20183.14153
20183.15328
20183.16365
20183.17187
20183.17672
20183.17252
20183.15645
20183.11968
20183.0969
20183.10855
20183.14634
20183.13924
20183.01101
20182.83026
20182.63144
20182.423
20182.2083
20181.98893
20181.7655
20181.53812
20181.3066
20181.0705
20180.82926
20180.58207
20180.32971
20180.04622
20179.86463
20179.78774
20179.74898
20179.74082
20179.75007
20179.73554
20179.66402
20179.52139
20179.28992
20178.99438
20178.73878
20178.5787
20178.47802
20178.45254
20178.56416
20178.77153
20178.94963
20179.04096
20179.0709
20179.05484
20179.01975
20178.98684
20178.94208
20178.86962
20178.76762
20178.64125
20178.49718
20178.34226
20178.18648
20178.04081
20177.91295
20177.8088
20177.73452
20177.69643
20177.69963
20177.7468
20177.83781
20177.96993
20178.13854
20178.33789
20178.56177
20178.80402
20179.0588
20179.32075
20179.58492
20179.84686
20180.10271
20180.3491
20180.58328
20180.80323
20181.00763
20181.19599
20181.36853
20181.52594
20181.66904
20181.79846
20181.91438
20182.01654
20182.10451
20182.17802
20182.23726
20182.28294
20182.31611
20182.33783
20182.34891
20182.3498
20182.34075
20182.32224
20182.29535
20182.26188
20182.22409
20182.18421
20182.14398
20182.1045
20182.06633
20182.02964
20181.99451
20181.961
20181.92922
20181.8993
20181.87131
20181.84532
20181.82131
20181.79925
20181.77904
20181.76058
20181.74373
20181.72838
20181.71439
20181.70162
20181.68996
20181.67928
20181.66947
20181.66046
20181.65214
20181.64444
20181.6373
20181.63065
20181.62446
20181.61866
20181.61322
20181.60812
20181.60331
20181.59877
20181.59447
20181.59041
20181.58655
20181.58288
20181.57939
20181.57606
20181.57289
20181.56985
20181.56694
20181.56416
20181.56148
20181.55891
20181.55644
20181.55407
20181.55178
20181.54957
20181.54743
20181.54537
20181.54337
20181.54144
20181.53956
20181.53774
20181.53597
20181.53425
20181.53258
20181.53095
20181.52936
20181.52781
20181.5263
20181.52482
20181.52336
20181.52194
20181.52055
20181.51918
20181.51783
20181.51651
20181.51521
20181.51392
20181.51265
20181.5114
20181.51016
20181.50893
20181.50772
20181.50651
20181.50531
20181.50412
20181.50293
20181.50175
20181.50057
20181.49939
20181.49821
20181.49703
20181.49585
20181.49467
20181.49467
20183.05371
20183.05371
20183.05108
20183.04723
20183.04371
20183.04168
20183.04188
20183.04472
20183.05028
20183.05832
20183.06835
20183.07977
20183.09205
20183.10479
20183.11766
20183.13036
20183.14257
20183.15381
20183.16305
20183.16891
20183.16531
20183.15477
20183.13157
20183.12302
20183.14281
20183.18616
20183.17728
20183.03725
20182.84723
20182.64327
20182.43226
20182.21633
20181.99645
20181.773
20181.54593
20181.31492
20181.07948
20180.83888
20180.59195
20180.34013
20180.04863
20179.84529
20179.75538
20179.70984
20179.69581
20179.69975
20179.68241
20179.60896
20179.464
20179.23324
20178.94201
20178.68998
20178.52838
20178.42349
20178.39863
20178.5188
20178.75043
20178.9574
20179.06351
20179.09341
20179.06775
20179.01921
20178.96437
20178.89284
20178.79603
20178.67513
20178.53533
20178.3825
20178.22286
20178.06479
20177.91763
20177.78935
20177.68678
20177.61649
20177.58452
20177.59537
20177.65112
20177.75108
20177.89203