# vtk DataFile Version 2.0
FlowField
ASCII
DATASET STRUCTURED_GRID
DIMENSIONS 200 1 200
POINTS 40000 float
0 0 0
0.15 0 0
0.3 0 0
0.45 0 0
0.6 0 0
0.75 0 0
0.9 0 0
1.05 0 0
1.2 0 0
1.35 0 0
1.5 0 0
1.65 0 0
1.8 0 0
1.95 0 0
2.1 0 0
2.25 0 0
2.4 0 0
2.55 0 0
2.7 0 0
2.85 0 0
3 0 0
3.15 0 0
3.3 0 0
3.45 0 0
3.6 0 0
3.75 0 0
3.9 0 0
4.05 0 0
4.2 0 0
4.35 0 0
4.5 0 0
4.65 0 0
4.8 0 0
4.95 0 0
5.1 0 0
5.25 0 0
5.4 0 0
5.55 0 0
5.7 0 0
5.85 0 0
6 0 0
6.15 0 0
6.3 0 0
6.45 0 0
6.6 0 0
6.75 0 0
6.9 0 0
7.05 0 0
7.2 0 0
7.35 0 0
7.5 0 0
7.65 0 0
7.8 0 0
7.95 0 0
8.1 0 0
8.25 0 0
8.4 0 0
8.55 0 0
8.7 0 0
8.85 0 0
9 0 0
9.15 0 0
9.3 0 0
9.45 0 0
9.6 0 0
9.75 0 0
9.9 0 0
10.05 0 0
10.2 0 0
10.35 0 0
10.5 0 0
10.65 0 0
10.8 0 0
10.95 0 0
11.1 0 0
11.25 0 0
11.4 0 0
11.55 0 0
11.7 0 0
11.85 0 0
12 0 0
12.15 0 0
12.3 0 0
12.45 0 0
12.6 0 0
12.75 0 0
12.9 0 0
13.05 0 0
13.2 0 0
13.35 0 0
13.5 0 0
13.65 0 0
13.8 0 0
13.95 0 0
14.1 0 0
14.25 0 0
14.4 0 0
14.55 0 0
14.7 0 0
14.85 0 0
15 0 0
15.15 0 0
15.3 0 0
15.45 0 0
15.6 0 0
15.75 0 0
15.9 0 0
16.05 0 0
16.2 0 0
16.35 0 0
16.5 0 0
16.65 0 0
16.8 0 0
16.95 0 0
17.1 0 0
17.25 0 0
17.4 0 0
17.55 0 0
17.7 0 0
17.85 0 0
18 0 0
18.15 0 0
18.3 0 0
18.45 0 0
18.6 0 0
18.75 0 0
18.9 0 0
19.05 0 0
19.2 0 0
19.35 0 0
19.5 0 0
19.65 0 0
19.8 0 0
19.95 0 0
20.1 0 0
20.25 0 0
20.4 0 0
20.55 0 0
20.7 0 0
20.85 0 0
21 0 0
21.15 0 0
21.3 0 0
21.45 0 0
21.6 0 0
21.75 0 0
21.9 0 0
22.05 0 0
22.2 0 0
22.35 0 0
22.5 0 0
22.65 0 0
22.8 0 0
22.95 0 0
23.1 0 0
23.25 0 0
23.4 0 0
23.55 0 0
23.7 0 0
23.85 0 0
24 0 0
24.15 0 0
24.3 0 0
24.45 0 0
24.6 0 0
24.75 0 0
24.9 0 0
25.05 0 0
25.2 0 0
25.35 0 0
25.5 0 0
25.65 0 0
25.8 0 0
25.95 0 0
26.1 0 0
26.25 0 0
26.4 0 0
26.55 0 0
26.7 0 0
26.85 0 0
27 0 0
27.15 0 0
27.3 0 0
27.45 0 0
27.6 0 0
27.75 0 0
27.9 0 0
28.05 0 0
28.2 0 0
28.35 0 0
28.5 0 0
28.65 0 0
28.8 0 0
28.95 0 0
29.1 0 0
29.25 0 0
29.4 0 0
29.55 0 0
29.7 0 0
29.85 0 0
0 0.075 0
0.15 0.075 0
0.3 0.075 0
0.45 0.075 0
0.6 0.075 0
0.75 0.075 0
0.9 0.075 0
1.05 0.075 0
1.2 0.075 0
1.35 0.075 0
1.5 0.075 0
1.65 0.075 0
1.8 0.075 0
1.95 0.075 0
2.1 0.075 0
2.25 0.075 0
2.4 0.075 0
2.55 0.075 0
2.7 0.075 0
2.85 0.075 0
3 0.075 0
3.15 0.075 0
3.3 0.075 0
3.45 0.075 0
3.6 0.075 0
3.75 0.075 0
3.9 0.075 0
4.05 0.075 0
4.2 0.075 0
4.35 0.075 0
4.5 0.075 0
4.65 0.075 0
4.8 0.075 0
4.95 0.075 0
5.1 0.075 0
5.25 0.075 0
5.4 0.075 0
5.55 0.075 0
5.7 0.075 0
5.85 0.075 0
6 0.075 0
6.15 0.075 0
6.3 0.075 0
6.45 0.075 0
6.6 0.075 0
6.75 0.075 0
6.9 0.075 0
7.05 0.075 0
7.2 0.075 0
7.35 0.075 0
7.5 0.075 0
7.65 0.075 0
7.8 0.075 0
7.95 0.075 0
8.1 0.075 0
8.25 0.075 0
8.4 0.075 0
8.55 0.075 0
8.7 0.075 0
8.85 0.075 0
9 0.075 0
9.15 0.075 0
9.3 0.075 0
9.45 0.075 0
9.6 0.075 0
9.75 0.075 0
9.9 0.075 0
10.05 0.075 0
10.2 0.075 0
10.35 0.075 0
10.5 0.075 0
10.65 0.075 0
10.8 0.075 0
10.95 0.075 0
11.1 0.075 0
11.25 0.075 0
11.4 0.075 0
11.55 0.075 0
11.7 0.075 0
11.85 0.075 0
12 0.075 0
12.15 0.075 0
12.3 0.075 0
12.45 0.075 0
12.6 0.075 0
12.75 0.075 0
12.9 0.075 0
13.05 0.075 0
13.2 0.075 0
13.35 0.075 0
13.5 0.075 0
13.65 0.075 0
13.8 0.075 0
13.95 0.075 0
14.1 0.075 0
14.25 0.075 0
14.4 0.075 0
14.55 0.075 0
14.7 0.075 0
14.85 0.075 0
15 0.075 0
15.15 0.075 0
15.3 0.075 0
15.45 0.075 0
15.6 0.075 0
15.75 0.075 0
15.9 0.075 0
16.05 0.075 0
16.2 0.075 0
16.35 0.075 0
16.5 0.075 0
16.65 0.075 0
16.8 0.075 0
16.95 0.075 0
17.1 0.075 0
17.25 0.075 0
17.4 0.075 0
17.55 0.075 0
17.7 0.075 0
17.85 0.075 0
18 0.075 0
18.15 0.075 0
18.3 0.075 0
18.45 0.075 0
18.6 0.075 0
18.75 0.075 0
18.9 0.075 0
19.05 0.075 0
19.2 0.075 0
19.35 0.075 0
19.5 0.075 0
19.65 0.075 0
19.8 0.075 0
19.95 0.075 0
20.1 0.075 0
20.25 0.075 0
20.4 0.075 0
20.55 0.075 0
20.7 0.075 0
20.85 0.075 0
21 0.075 0
21.15 0.075 0
21.3 0.075 0
21.45 0.075 0
21.6 0.075 0
21.75 0.075 0
21.9 0.075 0
22.05 0.075 0
22.2 0.075 0
22.35 0.075 0
22.5 0.075 0
22.65 0.075 0
22.8 0.075 0
22.95 0.075 0
23.1 0.075 0
23.25 0.075 0
23.4 0.075 0
23.55 0.075 0
23.7 0.075 0
23.85 0.075 0
24 0.075 0
24.15 0.075 0
24.3 0.075 0
24.45 0.075 0
24.6 0.075 0
24.75 0.075 0
24.9 0.075 0
25.05 0.075 0
25.2 0.075 0
25.35 0.075 0
25.5 0.075 0
25.65 0.075 0
25.8 0.075 0
25.95 0.075 0
26.1 0.075 0
26.25 0.075 0
26.4 0.075 0
26.55 0.075 0
26.7 0.075 0
26.85 0.075 0
27 0.075 0
27.15 0.075 0
27.3 0.075 0
27.45 0.075 0
27.6 0.075 0
27.75 0.075 0
27.9 0.075 0
28.05 0.075 0
28.2 0.075 0
28.35 0.075 0
28.5 0.075 0
28.65 0.075 0
28.8 0.075 0
28.95 0.075 0
29.1 0.075 0
29.25 0.075 0
29.4 0.075 0
29.55 0.075 0
29.7 0.075 0
29.85 0.075 0
0 0.15 0
0.15 0.15 0
0.3 0.15 0
0.45 0.15 0
0.6 0.15 0
0.75 0.15 0
0.9 0.15 0
1.05 0.15 0
1.2 0.15 0
1.35 0.15 0
1.5 0.15 0
1.65 0.15 0
1.8 0.15 0
1.95 0.15 0
2.1 0.15 0
2.25 0.15 0
2.4 0.15 0
2.55 0.15 0
2.7 0.15 0
2.85 0.15 0
3 0.15 0
3.15 0.15 0
3.3 0.15 0
3.45 0.15 0
3.6 0.15 0
3.75 0.15 0
3.9 0.15 0
4.05 0.15 0
4.2 0.15 0
4.35 0.15 0
4.5 0.15 0
4.65 0.15 0
4.8 0.15 0
4.95 0.15 0
5.1 0.15 0
5.25 0.15 0
5.4 0.15 0
5.55 0.15 0
5.7 0.15 0
5.85 0.15 0
6 0.15 0
6.15 0.15 0
6.3 0.15 0
6.45 0.15 0
6.6 0.15 0
6.75 0.15 0
6.9 0.15 0
7.05 0.15 0
7.2 0.15 0
7.35 0.15 0
7.5 0.15 0
7.65 0.15 0
7.8 0.15 0
7.95 0.15 0
8.1 0.15 0
8.25 0.15 0
8.4 0.15 0
8.55 0.15 0
8.7 0.15 0
8.85 0.15 0
9 0.15 0
9.15 0.15 0
9.3 0.15 0
9.45 0.15 0
9.6 0.15 0
9.75 0.15 0
9.9 0.15 0
10.05 0.15 0
10.2 0.15 0
10.35 0.15 0
10.5 0.15 0
10.65 0.15 0
10.8 0.15 0
10.95 0.15 0
11.1 0.15 0
11.25 0.15 0
11.4 0.15 0
11.55 0.15 0
11.7 0.15 0
11.85 0.15 0
12 0.15 0
12.15 0.15 0
12.3 0.15 0
12.45 0.15 0
12.6 0.15 0
12.75 0.15 0
12.9 0.15 0
13.05 0.15 0
13.2 0.15 0
13.35 0.15 0
13.5 0.15 0
13.65 0.15 0
13.8 0.15 0
13.95 0.15 0
14.1 0.15 0
14.25 0.15 0
14.4 0.15 0
14.55 0.15 0
14.7 0.15 0
14.85 0.15 0
15 0.15 0
15.15 0.15 0
15.3 0.15 0
15.45 0.15 0
15.6 0.15 0
15.75 0.15 0
15.9 0.15 0
16.05 0.15 0
16.2 0.15 0
16.35 0.15 0
16.5 0.15 0
16.65 0.15 0
16.8 0.15 0
16.95 0.15 0
17.1 0.15 0
17.25 0.15 0
17.4 0.15 0
17.55 0.15 0
17.7 0.15 0
17.85 0.15 0
18 0.15 0
18.15 0.15 0
18.3 0.15 0
18.45 0.15 0
18.6 0.15 0
18.75 0.15 0
18.9 0.15 0
19.05 0.15 0
19.2 0.15 0
19.35 0.15 0
19.5 0.15 0
19.65 0.15 0
19.8 0.15 0
19.95 0.15 0
20.1 0.15 0
20.25 0.15 0
20.4 0.15 0
20.55 0.15 0
20.7 0.15 0
20.85 0.15 0
21 0.15 0
21.15 0.15 0
21.3 0.15 0
21.45 0.15 0
21.6 0.15 0
21.75 0.15 0
21.9 0.15 0
22.05 0.15 0
22.2 0.15 0
22.35 0.15 0
22.5 0.15 0
22.65 0.15 0
22.8 0.15 0
22.95 0.15 0
23.1 0.15 0
23.25 0.15 0
23.4 0.15 0
23.55 0.15 0
23.7 0.15 0
23.85 0.15 0
24 0.15 0
24.15 0.15 0
24.3 0.15 0
24.45 0.15 0
24.6 0.15 0
24.75 0.15 0
24.9 0.15 0
25.05 0.15 0
25.2 0.15 0
25.35 0.15 0
25.5 0.15 0
25.65 0.15 0
25.8 0.15 0
25.95 0.15 0
26.1 0.15 0
26.25 0.15 0
26.4 0.15 0
26.55 0.15 0
26.7 0.15 0
26.85 0.15 0
27 0.15 0
27.15 0.15 0
27.3 0.15 0
27.45 0.15 0
27.6 0.15 0
27.75 0.15 0
27.9 0.15 0
28.05 0.15 0
28.2 0.15 0
28.35 0.15 0
28.5 0.15 0
28.65 0.15 0
28.8 0.15 0
28.95 0.15 0
29.1 0.15 0
29.25 0.15 0
29.4 0.15 0
29.55 0.15 0
29.7 0.15 0
29.85 0.15 0
0 0.225 0
0.15 0.225 0
0.3 0.225 0
0.45 0.225 0
0.6 0.225 0
0.75 0.225 0
0.9 0.225 0
1.05 0.225 0
1.2 0.225 0
1.35 0.225 0
1.5 0.225 0
1.65 0.225 0
1.8 0.225 0
1.95 0.225 0
2.1 0.225 0
2.25 0.225 0
2.4 0.225 0
2.55 0.225 0
2.7 0.225 0
2.85 0.225 0
3 0.225 0
3.15 0.225 0
3.3 0.225 0
3.45 0.225 0
3.6 0.225 0
3.75 0.225 0
3.9 0.225 0
4.05 0.225 0
4.2 0.225 0
4.35 0.225 0
4.5 0.225 0
4.65 0.225 0
4.8 0.225 0
4.95 0.225 0
5.1 0.225 0
5.25 0.225 0
5.4 0.225 0
5.55 0.225 0
5.7 0.225 0
5.85 0.225 0
6 0.225 0
6.15 0.225 0
6.3 0.225 0
6.45 0.225 0
6.6 0.225 0
6.75 0.225 0
6.9 0.225 0
7.05 0.225 0
7.2 0.225 0
7.35 0.225 0
7.5 0.225 0
7.65 0.225 0
7.8 0.225 0
7.95 0.225 0
8.1 0.225 0
8.25 0.225 0
8.4 0.225 0
8.55 0.225 0
8.7 0.225 0
8.85 0.225 0
9 0.225 0
9.15 0.225 0
9.3 0.225 0
9.45 0.225 0
9.6 0.225 0
9.75 0.225 0
9.9 0.225 0
10.05 0.225 0
10.2 0.225 0
10.35 0.225 0
10.5 0.225 0
10.65 0.225 0
10.8 0.225 0
10.95 0.225 0
11.1 0.225 0
11.25 0.225 0
11.4 0.225 0
11.55 0.225 0
11.7 0.225 0
11.85 0.225 0
12 0.225 0
12.15 0.225 0
12.3 0.225 0
12.45 0.225 0
12.6 0.225 0
12.75 0.225 0
12.9 0.225 0
13.05 0.225 0
13.2 0.225 0
13.35 0.225 0
13.5 0.225 0
13.65 0.225 0
13.8 0.225 0
13.95 0.225 0
14.1 0.225 0
14.25 0.225 0
14.4 0.225 0
14.55 0.225 0
14.7 0.225 0
14.85 0.225 0
15 0.225 0
15.15 0.225 0
15.3 0.225 0
15.45 0.225 0
15.6 0.225 0
15.75 0.225 0
15.9 0.225 0
16.05 0.225 0
16.2 0.225 0
16.35 0.225 0
16.5 0.225 0
16.65 0.225 0
16.8 0.225 0
16.95 0.225 0
17.1 0.225 0
17.25 0.225 0
17.4 0.225 0
17.55 0.225 0
17.7 0.225 0
17.85 0.225 0
18 0.225 0
18.15 0.225 0
18.3 0.225 0
18.45 0.225 0
18.6 0.225 0
18.75 0.225 0
18.9 0.225 0
19.05 0.225 0
19.2 0.225 0
19.35 0.225 0
19.5 0.225 0
19.65 0.225 0
19.8 0.225 0
19.95 0.225 0
20.1 0.225 0
20.25 0.225 0
20.4 0.225 0
20.55 0.225 0
20.7 0.225 0
20.85 0.225 0
21 0.225 0
21.15 0.225 0
21.3 0.225 0
21.45 0.225 0
21.6 0.225 0
21.75 0.225 0
21.9 0.225 0
22.05 0.225 0
22.2 0.225 0
22.35 0.225 0
22.5 0.225 0
22.65 0.225 0
22.8 0.225 0
22.95 0.225 0
23.1 0.225 0
23.25 0.225 0
23.4 0.225 0
23.55 0.225 0
23.7 0.225 0
23.85 0.225 0
24 0.225 0
24.15 0.225 0
24.3 0.225 0
24.45 0.225 0
24.6 0.225 0
24.75 0.225 0
24.9 0.225 0
25.05 0.225 0
25.2 0.225 0
25.35 0.225 0
25.5 0.225 0
25.65 0.225 0
25.8 0.225 0
25.95 0.225 0
26.1 0.225 0
26.25 0.225 0
26.4 0.225 0
26.55 0.225 0
26.7 0.225 0
26.85 0.225 0
27 0.225 0
27.15 0.225 0
27.3 0.225 0
27.45 0.225 0
27.6 0.225 0
27.75 0.225 0
27.9 0.225 0
28.05 0.225 0
28.2 0.225 0
28.35 0.225 0
28.5 0.225 0
28.65 0.225 0
28.8 0.225 0
28.95 0.225 0
29.1 0.225 0
29.25 0.225 0
29.4 0.225 0
29.55 0.225 0
29.7 0.225 0
29.85 0.225 0
0 0.3 0
0.15 0.3 0
0.3 0.3 0
0.45 0.3 0
0.6 0.3 0
0.75 0.3 0
0.9 0.3 0
1.05 0.3 0
1.2 0.3 0
1.35 0.3 0
1.5 0.3 0
1.65 0.3 0
1.8 0.3 0
1.95 0.3 0
2.1 0.3 0
2.25 0.3 0
2.4 0.3 0
2.55 0.3 0
2.7 0.3 0
2.85 0.3 0
3 0.3 0
3.15 0.3 0
3.3 0.3 0
3.45 0.3 0
3.6 0.3 0
3.75 0.3 0
3.9 0.3 0
4.05 0.3 0
4.2 0.3 0
4.35 0.3 0
4.5 0.3 0
4.65 0.3 0
4.8 0.3 0
4.95 0.3 0
5.1 0.3 0
5.25 0.3 0
5.4 0.3 0
5.55 0.3 0
5.7 0.3 0
5.85 0.3 0
6 0.3 0
6.15 0.3 0
[...]
POINT_DATA 40000

SCALARS p float 1
LOOKUP_TABLE default
20183.15728
20183.15728
20183.10181
20183.07401
20183.05559
20183.04269
20183.03549
20183.03526
20183.04214
20183.0543
20183.0688
20183.08308
20183.09574
20183.10663
20183.11608
20183.12413
20183.13069
20183.13595
20183.14018
20183.14246
20183.13985
20183.1302
20183.09976
20183.04072
20183.10276
20183.53757
20183.41516
20183.04102
20182.78883
20182.56624
20182.34946
20182.13169
20181.91094
20181.6867
20181.4589
20181.22757
20180.99265
20180.75392
20180.5105
20180.25952
20179.99115
20179.84425
20179.86941
20179.83996
20179.81596
20179.80054
20179.81238
20179.87653
20180.01035
20180.20312
20180.41382
20180.53707
20180.47129
20180.30029
20180.04827
20179.74691
20179.46961
20179.3092
20179.25529
20179.16304
20179.06884
20179.08911
20179.10912
20179.0906
20179.0338
20178.99098
20179.06131
20179.17665
20179.2061
20179.18286
20179.15566
20179.14174
20179.13726
20179.13111
20179.11821
20179.08955
20179.05441
20179.00228
20178.86487
20178.75061
20178.68822
20178.61151
20178.51022
20178.40934
20178.33264
20178.2934
20178.29644
20178.34151
20178.42573
20178.5451
20178.6952
20178.8716
20179.06995
20179.28595
20179.51532
20179.75379
20179.99711
20180.2412
20180.48235
20180.71743
20180.944
20181.16036
20181.36556
20181.55937
20181.74195
20181.91351
20182.07424
20182.22372
20182.36086
20182.48376
20182.5899
20182.67657
20182.74139
20182.78296
20182.80117
20182.79737
20182.77413
20182.73487
20182.68334
20182.62318
20182.55766
20182.48961
20182.42142
20182.35495
20182.29144
20182.23146
20182.1751
20182.12228
20182.07296
20182.02729
20181.98541
20181.94736
20181.91288
20181.88142
20181.85228
20181.82485
20181.79885
20181.77427
20181.75117
20181.7295
20181.70895
20181.68912
20181.66972
20181.65068
20181.63218
20181.61465
20181.59856
20181.58434
20181.57228
20181.5625
20181.55491
20181.54931
20181.5454
20181.54283
20181.54126
20181.54037
20181.53987
20181.53954
20181.5392
20181.53872
20181.53803
20181.53708
20181.53585
20181.53435
20181.5326
20181.53061
20181.52843
20181.52607
20181.52357
20181.52095
20181.51822
20181.51541
20181.51253
20181.5096
20181.50662
20181.5036
20181.50054
20181.49746
20181.49435
20181.49121
20181.48805
20181.48486
20181.48165
20181.47841
20181.47514
20181.47184
20181.46851
20181.46514
20181.46173
20181.45829
20181.45481
20181.45128
20181.44771
20181.4441
20181.44044
20181.43675
20181.43301
20181.42926
20181.42548
20181.42548
20183.15728
20183.15728
20183.10181
20183.07401
20183.05559
20183.04269
20183.03549
20183.03526
20183.04214
20183.0543
20183.0688
20183.08308
20183.09574
20183.10663
20183.11608
20183.12413
20183.13069
20183.13595
20183.14018
20183.14246
20183.13985
20183.1302
20183.09976
20183.04072
20183.10276
20183.53757
20183.41516
20183.04102
20182.78883
20182.56624
20182.34946
20182.13169
20181.91094
20181.6867
20181.4589
20181.22757
20180.99265
20180.75392
20180.5105
20180.25952
20179.99115
20179.84425
20179.86941
20179.83996
20179.81596
20179.80054
20179.81238
20179.87653
20180.01035
20180.20312
20180.41382
20180.53707
20180.47129
20180.30029
20180.04827
20179.74691
20179.46961
20179.3092
20179.25529
20179.16304
20179.06884
20179.08911
20179.10912
20179.0906
20179.0338
20178.99098
20179.06131
20179.17665
20179.2061
20179.18286
20179.15566
20179.14174
20179.13726
20179.13111
20179.11821
20179.08955
20179.05441
20179.00228
20178.86487
20178.75061
20178.68822
20178.61151
20178.51022
20178.40934
20178.33264
20178.2934
20178.29644
20178.34151
20178.42573
20178.5451
20178.6952
20178.8716
20179.06995
20179.28595
20179.51532
20179.75379
20179.99711
20180.2412
20180.48235
20180.71743
20180.944
20181.16036
20181.36556
20181.55937
20181.74195
20181.91351
20182.07424
20182.22372
20182.36086
20182.48376
20182.5899
20182.67657
20182.74139
20182.78296
20182.80117
20182.79737
20182.77413
20182.73487
20182.68334
20182.62318
20182.55766
20182.48961
20182.42142
20182.35495
20182.29144
20182.23146
20182.1751
20182.12228
20182.07296
20182.02729
20181.98541
20181.94736
20181.91288
20181.88142
20181.85228
20181.82485
20181.79885
20181.77427
20181.75117
20181.7295
20181.70895
20181.68912
20181.66972
20181.65068
20181.63218
20181.61465
20181.59856
20181.58434
20181.57228
20181.5625
20181.55491
20181.54931
20181.5454
20181.54283
20181.54126
20181.54037
20181.53987
20181.53954
20181.5392
20181.53872
20181.53803
20181.53708
20181.53585
20181.53435
20181.5326
20181.53061
20181.52843
20181.52607
20181.52357
20181.52095
20181.51822
20181.51541
20181.51253
20181.5096
20181.50662
20181.5036
20181.50054
20181.49746
20181.49435
20181.49121
20181.48805
20181.48486
20181.48165
20181.47841
20181.47514
20181.47184
20181.46851
20181.46514
20181.46173
20181.45829
20181.45481
20181.45128
20181.44771
20181.4441
20181.44044
20181.43675
20181.43301
20181.42926
20181.42548
20181.42548
20183.1247
20183.1247
20183.09278
20183.06958
20183.0532
20183.04187
20183.03591
20183.03641
20183.04351
20183.05558
20183.06992
20183.08406
20183.09663
20183.10744
20183.11682
20183.12477
20183.13118
20183.13628
20183.14044
20183.14316
20183.14199
20183.13017
20183.0817
20182.99939
20183.00784
20183.31404
20183.2734
20183.01141
20182.78174
20182.56485
20182.34971
20182.13242
20181.91179
20181.68757
20181.45977
20181.22844
20180.99359
20180.75506
20180.51236
20180.2638
20180.00284
20179.8825
20179.87589
20179.84258
20179.81262
20179.78921
20179.79457
20179.8546
20179.98551
20180.17444
20180.374
20180.48958
20180.44406
20180.28253
20180.02314
20179.70427
20179.42552
20179.25508
20179.18539
20179.10695
20179.05988
20179.09256
20179.11547
20179.09766
20179.025
20178.95922
20179.02552
20179.1615
20179.20277
20179.18037
20179.15356
20179.1408
20179.13737
20179.13095
20179.11827
20179.09102
20179.05221
20179.00977
20178.87952
20178.74997
20178.66854
20178.58163
20178.4788
20178.38077
20178.30827
20178.27311
20178.27961
20178.32742
20178.41375
20178.53471
20178.68601
20178.86332
20179.06239
20179.27902
20179.50899
20179.74804
20179.99194
20180.2366
20180.47826
20180.71375
20180.94057
20181.15702
20181.36214
20181.55569
20181.73789
20181.90902
20182.06932
20182.21847
20182.35541
20182.4783
20182.58461
20182.67159
20182.7368
20182.77878
20182.79738
20182.79391
20182.77095
20182.73194
20182.68065
20182.62074
20182.55546
20182.48764
20182.41968
20182.35348
20182.29026
20182.23059
20182.17452
20182.12191
20182.07272
20182.02712
20181.98531
20181.94733
20181.91295
20181.88159
20181.85253
20181.82515
20181.79915
20181.77454
20181.75145
20181.7298
20181.7093
20181.68951
20181.67011
20181.65101
20181.63244
20181.61479
20181.59859
20181.58428
20181.57217
20181.56235
20181.55476
20181.54917
20181.54529
20181.54275
20181.54121
20181.54035
20181.53987
20181.53956
20181.53924
20181.53877
20181.53809
20181.53714
20181.53591
20181.53441
20181.53265
20181.53067
20181.52848
20181.52612
20181.52361
20181.52098
20181.51825
20181.51544
20181.51256
20181.50962
20181.50664
20181.50362
20181.50056
20181.49748
20181.49436
20181.49123
20181.48806
20181.48487
20181.48166
20181.47842
20181.47515
20181.47185
20181.46852
20181.46515
20181.46174
20181.4583
20181.45481
20181.45129
20181.44772
20181.4441
20181.44045
20181.43675
20181.43301
20181.42926
20181.42547
20181.42547
20183.09905
20183.09905
20183.0796
20183.06168
20183.04809
20183.03884
20183.03442
20183.03567
20183.04273
20183.05438
20183.06844
20183.08273
20183.09584
20183.1073
20183.11714
20183.12527
20183.13172
20183.13679
20183.14107
20183.14452
20183.14398
20183.12654
20183.05746
20182.96656
20182.95056
20183.11938
20183.13231
20182.97382
20182.77183
20182.56315
20182.35054
20182.13399
20181.91354
20181.68933
20181.46152
20181.2302
20180.99544
20180.75727
20180.51574
20180.27117
20180.02258
20179.91525
20179.88832
20179.84382
20179.79774
20179.75989
20179.75437
20179.80717
20179.93279
20180.11663
20180.30409
20180.41102
20180.39182
20180.23725
20179.9588
20179.61687
20179.33412
20179.15018
20179.05597
20179.00235
20179.0067
20179.06869
20179.11583
20179.09817
20178.99912
20178.89853
20178.95921
20179.12573
20179.18822
20179.16994
20179.14805
20179.14075
20179.13975
20179.13282
20179.11823
20179.09632
20179.04859
20178.9826
20178.85128
20178.71048
20178.60458
20178.50481
20178.40372
20178.31471
20178.25292
20178.22755
20178.24213
20178.29628
20178.38747
20178.5121
20178.66618
20178.84563
20179.04643
20179.26455
20179.49591
20179.73632
20179.98156
20180.22749
20180.47029
20180.70666
20180.93404
20181.15067
20181.35562
20181.54867
20181.73009
20181.90038
20182.05984
20182.20834
20182.34494
20182.46782
20182.57445
20182.66196
20182.72782
20182.77042
20182.78957
20182.78653
20182.76389
20182.72515
20182.67414
20182.61454
20182.54961
20182.48217
20182.41465
20182.34897
20182.28634
20182.22728
20182.17175
20182.11958
20182.07074
20182.02541
20181.98384
20181.94608
20181.91189
20181.88067
20181.85172
20181.82441
20181.79847
20181.77396
20181.75098
20181.72948
20181.70912
20181.68943
20181.67008
20181.65097
20181.63232
20181.61459
20181.59829
20181.58392
20181.57179
20181.56199
20181.55444
20181.54892
20181.5451
20181.54264
20181.54116
20181.54035
20181.53993
20181.53965
20181.53935
20181.5389
20181.53821
20181.53726
20181.53603
20181.53452
20181.53276
20181.53076
20181.52856
20181.52619
20181.52367
20181.52104
20181.5183
20181.51548
20181.5126
20181.50966
20181.50667
20181.50365
20181.50059
20181.49751
20181.49439
20181.49125
20181.48809
20181.4849
20181.48169
20181.47844
20181.47517
20181.47187
20181.46854
20181.46517
20181.46177
20181.45832
20181.45484
20181.45131
20181.44774
20181.44412
20181.44046
20181.43676
20181.43302
20181.42925
20181.42545
20181.42545
20183.07844
20183.07844
20183.06604
20183.0525
20183.04154
20183.03415
20183.03101
20183.03279
20183.03957
20183.05049
20183.06392
20183.07811
20183.09176
20183.10421
20183.11515
20183.1243
20183.13155
20183.13709
20183.14171
20183.14566
20183.14442
20183.12156
20183.04294
20182.96645
20182.95593
20183.04063
20183.05945
20182.94722
20182.76441
20182.56271
20182.35244
20182.13656
20181.91624
20181.692
20181.46414
20181.23282
20180.99815
20180.76036
20180.52001
20180.27924
20180.03877
20179.93397
20179.89523
20179.83658
20179.77007
20179.71515
20179.69603
20179.73806
20179.854
20180.02936
20180.20849
20180.31401
20180.31022
20180.15303
20179.8485
20179.49632
20179.21639
20179.02577
20178.91256
20178.86485
20178.89466
20178.99618
20179.08292
20179.0748
20178.96191
20178.83691
20178.88993
20179.07785
20179.16179
20179.15047
20179.13845
20179.14176
20179.14451
20179.13693
20179.11695
20179.07901
20179.0093
20178.91073
20178.77
20178.62402
20178.50488
20178.40041
20178.30599
20178.22949
20178.18116
20178.16786
20178.1924
20178.25442
20178.35167
20178.48093
20178.63851
20178.82068
20179.02367
20179.24372
20179.4769
20179.71912
20179.96616
20180.21382
20180.45813
20180.69571
20180.92384
20181.14072
20181.34541
20181.53773
20181.71806
20181.88709
20182.04532
20182.19281
20182.32879
20182.45153
20182.55847
20182.64663
20182.7133
20182.75673
20182.77662
20182.77419
20182.75205
20182.71372
20182.66316
20182.6041
20182.53976
20182.47296
20182.40611
20182.34118
20182.27942
20182.22124
20182.16652
20182.11504
20182.06678
20182.02198
20181.98087
20181.9435
20181.90958
20181.87854
20181.84968
20181.82246
20181.79663
20181.77225
20181.74945
20181.72816
20181.70803
20181.68858
20181.66943
20181.65045
20181.63188
20181.61416
20181.59788
20181.58354
20181.57145
20181.56172
20181.55425
20181.54881
20181.54507
20181.54268
20181.54126
20181.5405
20181.54011
20181.53985
20181.53956
20181.53911
20181.53842
20181.53746
20181.53622
20181.53469
20181.53291
20181.53089
20181.52868
20181.5263
20181.52377
20181.52112
20181.51838
20181.51555
20181.51266
20181.50972
20181.50673
20181.5037
20181.50064
20181.49755
20181.49444
20181.4913
20181.48813
20181.48494
20181.48173
20181.47849
20181.47522
20181.47192
20181.46858
20181.46522
20181.46181
20181.45837
20181.45488
20181.45135
20181.44777
20181.44416
20181.44049
20181.43678
20181.43302
20181.42923
20181.42541
20181.42541
20183.06107
20183.06107
20183.05289
20183.0428
20183.03417
20183.02838
20183.02625
20183.02833
20183.03469
20183.04471
20183.05721
20183.07087
20183.0846
20183.09773
20183.1098
20183.12038
20183.12913
20183.136
20183.1414
20183.14532
20183.14244
20183.11764
20183.04166
20182.98318
20182.98368
20183.03358
20183.04361
20182.93786
20182.76282
20182.56482
20182.35586
20182.14028
20181.91991
20181.69556
20181.46762
20181.23627
20181.00166
20180.76413
20180.5246
20180.28632
20180.0473
20179.93584
20179.88757
20179.81575
20179.72996
20179.6571
20179.62194
20179.64972
20179.75233
20179.91579
20180.08711
20180.19476
20180.19364
20180.0282
20179.7101
20179.36061
20179.09264
20178.9011
20178.77226
20178.72043
20178.75177
20178.87418
20179.00508
20179.02619
20178.92632
20178.80387
20178.85255
20179.04007
20179.12913
20179.12301
20179.12481
20179.14312
20179.15067
20179.13428
20179.09449
20179.02557
20178.92451
20178.79975
20178.65346
20178.5092
20178.38767
20178.28521
20178.19966
20178.13591
20178.10093
20178.09974
20178.1345
20178.20478
20178.30852
20178.44279
20178.60423
20178.78939
20178.99484
20179.21706
20179.45236
20179.69673
20179.94597
20180.19575
20180.44197
20180.68105
20180.91017
20181.1274
20181.33179
20181.52321
20181.70218
20181.86957
20182.02616
20182.17225
20182.30729
20182.42968
20182.53685
20182.6257
20182.69329
20182.73768
20182.75846
20182.75683
20182.73535
20182.69762
20182.64769
20182.58942
20182.526
20182.46013
20182.39422
20182.3303
20182.26965
20182.21262
20182.15897
20182.10839
20182.06093
20182.01686
20181.97644
20181.93966
20181.90616
20181.87537
20181.84664
20181.81949
20181.79376
20181.76951
20181.74687
20181.7258
20181.70595
20181.68683
20181.66801
20181.64934
20181.63104
20181.61356
20181.59749
20181.58333
20181.5714
20181.5618
20181.55444
20181.54907
20181.54539
20181.54303
20181.54163
20181.54088
20181.54049
20181.54022
20181.53992
20181.53945
20181.53873
20181.53775
20181.53647
20181.53492
20181.53311
20181.53108
20181.52884
20181.52644
20181.5239
20181.52124
20181.51848
20181.51565
20181.51275
20181.5098
20181.50681
20181.50378
20181.50071
20181.49762
20181.49451
20181.49137
20181.4882
20181.48501
20181.4818
20181.47856
20181.47529
20181.47199
20181.46865
20181.46529
20181.46188
20181.45843
20181.45495
20181.45141
20181.44783
20181.44421
20181.44053
20181.43681
20181.43303
20181.42921
20181.42534
20181.42534
20183.04584
20183.04584
20183.0403
20183.03286
20183.02621
20183.02182
20183.02052
20183.0228
20183.02874
20183.03788
20183.04936
20183.06218
20183.07551
20183.08875
20183.10145
20183.11318
20183.1235
20183.13208
20183.13869
20183.14248
20183.13805
20183.11457
20183.05168
20183.0098
20183.02044
20183.06155
20183.06074
20182.94441
20182.76813
20182.57016
20182.3611
20182.14524
20181.92458
20181.70001
20181.47194
20181.24053
20181.00592
20180.76846
20180.52915
20180.29176
20180.04822
20179.92256
20179.86388
20179.7808
20179.6784
20179.58747
20179.53443
20179.5453
20179.63201
20179.78183
20179.94499
20180.05281
20180.04813
20179.87756
20179.56473
20179.2269
20178.97741
20178.78568
20178.6431
20178.58436
20178.60559
20178.72773
20178.89502
20178.96552
20178.90843
20178.81677
20178.86647
20179.03008
20179.0979
20179.08839
20179.10561
20179.13964
20179.14545
20179.1092
20179.03638
20178.93282
20178.80655
20178.66727
20178.52055
20178.38122
20178.26261
20178.16518
20178.08876
20178.03684
20178.01429
20178.0247
20178.06953
20178.14818
20178.25863
20178.39816
20178.56367
20178.75201
20178.96007
20179.18466
20179.42232
20179.66917
20179.92098
20180.17332
20180.42187
20180.66286
20180.89325
20181.11101
20181.31515
20181.50558
20181.68295
20181.84838
20182.00292
20182.1472
20182.28093
20182.40269
20182.50995
20182.59947
20182.66804
20182.71347
20182.73521
20182.7345
20182.7139
20182.67695
20182.62782
20182.57054
20182.50834
20182.44378
20182.37915
20182.31651
20182.25721
20182.20157
20182.14921
20182.09974
20182.05325
20182.01012
20181.97063
20181.93465
20181.90175
20181.87132
20181.84277
20181.81573
20181.7901
20181.76597
20181.7435
20181.72262
20181.70304
20181.68424
20181.66579
20181.64754
20181.62968
20181.61267
20181.59705
20181.58329
20181.57167
20181.56231
20181.55509
20181.54981
20181.54615
20181.54378
20181.54236
20181.54157
20181.54113
20181.54081
20181.54045
20181.53993
20181.53917
20181.53813
20181.53682
20181.53522
20181.53338
20181.53132
20181.52906
20181.52663
20181.52407
20181.52139
20181.51863
20181.51578
20181.51287
20181.50992
20181.50692
20181.50388
20181.50081
20181.49772
20181.4946
20181.49146
20181.48829
20181.4851
20181.48189
20181.47865
20181.47538
20181.47208
20181.46875
20181.46538
20181.46197
20181.45853
20181.45504
20181.4515
20181.44792
20181.44428
20181.44059
20181.43685
20181.43304
20181.42918
20181.42525
20181.42525
20183.03205
20183.03205
20183.02823
20183.02279
20183.01781
20183.01461
20183.01401
20183.01647
20183.02205
20183.03043
20183.04095
20183.05287
20183.06552
20183.07842
20183.09119
20183.10347
20183.11485
20183.12486
20183.1327
20183.13679
20183.13126
20183.11133
20183.06727
20183.04166
20183.05884
20183.1011
20183.09372
20182.9629
20182.77985
20182.57881
20182.36819
20182.15142
20181.93021
20181.70532
20181.47708
20181.24558
20181.01089
20180.77329
20180.53358
20180.29571
20180.04352
20179.89801
20179.82675
20179.73377
20179.61713
20179.50851
20179.43665
20179.42886
20179.49782
20179.63241
20179.78698
20179.89344
20179.8861
20179.72056
20179.41953
20179.10115
20178.87325
20178.67743
20178.52252
20178.45798
20178.47026
20178.5823
20178.77424
20178.90699
20178.91866
20178.87985
20178.93492
20179.05596
20179.0776
20179.05262
20179.07993
20179.12133
20179.1143
20179.04876
20178.94246
20178.81304
20178.6716
20178.52578
20178.38081
20178.24664
20178.13258
20178.04111
20177.97349
20177.93249
20177.92158
20177.94313
20177.99789
20178.08498
20178.20231
20178.34727
20178.517
20178.70862
20178.91937
20179.14643
20179.38664
20179.63625
20179.89105
20180.14641
20180.39779
20180.64113
20180.87319
20181.09177
20181.29581
20181.48526
20181.66092
20181.82412
20181.97627
20182.11832
20182.25034
20182.37113
20182.47825
20182.56834
20182.63794
20182.68447
20182.70722
20182.70747
20182.6879
20182.652
20182.60386
20182.54772
20182.48698
20182.42409
20182.36112
20182.30008
20182.24236
20182.18829
20182.13739
20182.08919
20182.04382
20182.00183
20181.9635
20181.92858
20181.89646
20181.86649
20181.83817
20181.81125
20181.78575
20181.7618
20181.73951
20181.71885
20181.6995
20181.68098
20181.66286
20181.64502
20181.62768
20181.61128
20181.59632
20181.58317
20181.57208
20181.56309
20181.55612
20181.55096
20181.54734
20181.54495
20181.54346
20181.54258
20181.54205
20181.54164
20181.54119
20181.54058
20181.53974
20181.53864
20181.53726
20181.53561
20181.53372
20181.53162
20181.52932
20181.52687
20181.52428
20181.52159
20181.5188
20181.51595
20181.51303
20181.51006
20181.50705
20181.50401
20181.50094
20181.49784
20181.49472
20181.49158
20181.48841
20181.48522
20181.48201
20181.47877
20181.4755
20181.4722
20181.46887
20181.4655
20181.46209
20181.45865
20181.45515
20181.45162
20181.44802
20181.44438
20181.44067
20181.43691
20181.43308
20181.42917
20181.42516
20181.42516
20183.01926
20183.01926
20183.0166
20183.01267
20183.00904
20183.00685
20183.00685
20183.00947
20183.01477
20183.02251
20183.03221
20183.04328
20183.05519
20183.06753
20183.08
20183.09231
20183.10413
20183.11496
20183.12373
20183.12868
20183.12329
20183.10946
20183.08303
20183.0728
20183.09674
20183.14299
20183.13265
20182.98931
20182.79668
20182.59032
20182.37696
20182.15873
20181.93673
20181.71144
20181.483
20181.25141
20181.01659
20180.77868
20180.538
20180.2988
20180.03577
20179.86654
20179.7801
20179.6777
20179.54864
20179.4233
20179.3327
20179.30561
20179.35592
20179.47438
20179.61907
20179.72376
20179.71912
20179.56355
20179.27589
20178.98612
20178.77636
20178.57079
20178.40374
20178.33756
20178.34982
20178.45148
20178.65925
20178.8583
20178.95576
20178.98439
20179.04845
20179.11835
20179.08234
20179.03171
20179.05422
20179.0844
20179.05164
20178.95552
20178.82462
20178.67954
20178.52954