# vtk DataFile Version 2.0
FlowField
ASCII
DATASET STRUCTURED_GRID
DIMENSIONS 200 1 200
POINTS 40000 float
0 0 0
0.15 0 0
0.3 0 0
0.45 0 0
0.6 0 0
0.75 0 0
0.9 0 0
1.05 0 0
1.2 0 0
1.35 0 0
1.5 0 0
1.65 0 0
1.8 0 0
1.95 0 0
2.1 0 0
2.25 0 0
2.4 0 0
2.55 0 0
2.7 0 0
2.85 0 0
3 0 0
3.15 0 0
3.3 0 0
3.45 0 0
3.6 0 0
3.75 0 0
3.9 0 0
4.05 0 0
4.2 0 0
4.35 0 0
4.5 0 0
4.65 0 0
4.8 0 0
4.95 0 0
5.1 0 0
5.25 0 0
5.4 0 0
5.55 0 0
5.7 0 0
5.85 0 0
6 0 0
6.15 0 0
6.3 0 0
6.45 0 0
6.6 0 0
6.75 0 0
6.9 0 0
7.05 0 0
7.2 0 0
7.35 0 0
7.5 0 0
7.65 0 0
7.8 0 0
7.95 0 0
8.1 0 0
8.25 0 0
8.4 0 0
8.55 0 0
8.7 0 0
8.85 0 0
9 0 0
9.15 0 0
9.3 0 0
9.45 0 0
9.6 0 0
9.75 0 0
9.9 0 0
10.05 0 0
10.2 0 0
10.35 0 0
10.5 0 0
10.65 0 0
10.8 0 0
10.95 0 0
11.1 0 0
11.25 0 0
11.4 0 0
11.55 0 0
11.7 0 0
11.85 0 0
12 0 0
12.15 0 0
12.3 0 0
12.45 0 0
12.6 0 0
12.75 0 0
12.9 0 0
13.05 0 0
13.2 0 0
13.35 0 0
13.5 0 0
13.65 0 0
13.8 0 0
13.95 0 0
14.1 0 0
14.25 0 0
14.4 0 0
14.55 0 0
14.7 0 0
14.85 0 0
15 0 0
15.15 0 0
15.3 0 0
15.45 0 0
15.6 0 0
15.75 0 0
15.9 0 0
16.05 0 0
16.2 0 0
16.35 0 0
16.5 0 0
16.65 0 0
16.8 0 0
16.95 0 0
17.1 0 0
17.25 0 0
17.4 0 0
17.55 0 0
17.7 0 0
17.85 0 0
18 0 0
18.15 0 0
18.3 0 0
18.45 0 0
18.6 0 0
18.75 0 0
18.9 0 0
19.05 0 0
19.2 0 0
19.35 0 0
19.5 0 0
19.65 0 0
19.8 0 0
19.95 0 0
20.1 0 0
20.25 0 0
20.4 0 0
20.55 0 0
20.7 0 0
20.85 0 0
21 0 0
21.15 0 0
21.3 0 0
21.45 0 0
21.6 0 0
21.75 0 0
21.9 0 0
22.05 0 0
22.2 0 0
22.35 0 0
22.5 0 0
22.65 0 0
22.8 0 0
22.95 0 0
23.1 0 0
23.25 0 0
23.4 0 0
23.55 0 0
23.7 0 0
23.85 0 0
24 0 0
24.15 0 0
24.3 0 0
24.45 0 0
24.6 0 0
24.75 0 0
24.9 0 0
25.05 0 0
25.2 0 0
25.35 0 0
25.5 0 0
25.65 0 0
25.8 0 0
25.95 0 0
26.1 0 0
26.25 0 0
26.4 0 0
26.55 0 0
26.7 0 0
26.85 0 0
27 0 0
27.15 0 0
27.3 0 0
27.45 0 0
27.6 0 0
27.75 0 0
27.9 0 0
28.05 0 0
28.2 0 0
28.35 0 0
28.5 0 0
28.65 0 0
28.8 0 0
28.95 0 0
29.1 0 0
29.25 0 0
29.4 0 0
29.55 0 0
29.7 0 0
29.85 0 0
0 0.075 0
0.15 0.075 0
0.3 0.075 0
0.45 0.075 0
0.6 0.075 0
0.75 0.075 0
0.9 0.075 0
1.05 0.075 0
1.2 0.075 0
1.35 0.075 0
1.5 0.075 0
1.65 0.075 0
1.8 0.075 0
1.95 0.075 0
2.1 0.075 0
2.25 0.075 0
2.4 0.075 0
2.55 0.075 0
2.7 0.075 0
2.85 0.075 0
3 0.075 0
3.15 0.075 0
3.3 0.075 0
3.45 0.075 0
3.6 0.075 0
3.75 0.075 0
3.9 0.075 0
4.05 0.075 0
4.2 0.075 0
4.35 0.075 0
4.5 0.075 0
4.65 0.075 0
4.8 0.075 0
4.95 0.075 0
5.1 0.075 0
5.25 0.075 0
5.4 0.075 0
5.55 0.075 0
5.7 0.075 0
5.85 0.075 0
6 0.075 0
6.15 0.075 0
6.3 0.075 0
6.45 0.075 0
6.6 0.075 0
6.75 0.075 0
6.9 0.075 0
7.05 0.075 0
7.2 0.075 0
7.35 0.075 0
7.5 0.075 0
7.65 0.075 0
7.8 0.075 0
7.95 0.075 0
8.1 0.075 0
8.25 0.075 0
8.4 0.075 0
8.55 0.075 0
8.7 0.075 0
8.85 0.075 0
9 0.075 0
9.15 0.075 0
9.3 0.075 0
9.45 0.075 0
9.6 0.075 0
9.75 0.075 0
9.9 0.075 0
10.05 0.075 0
10.2 0.075 0
10.35 0.075 0
10.5 0.075 0
10.65 0.075 0
10.8 0.075 0
10.95 0.075 0
11.1 0.075 0
11.25 0.075 0
11.4 0.075 0
11.55 0.075 0
11.7 0.075 0
11.85 0.075 0
12 0.075 0
12.15 0.075 0
12.3 0.075 0
12.45 0.075 0
12.6 0.075 0
12.75 0.075 0
12.9 0.075 0
13.05 0.075 0
13.2 0.075 0
13.35 0.075 0
13.5 0.075 0
13.65 0.075 0
13.8 0.075 0
13.95 0.075 0
14.1 0.075 0
14.25 0.075 0
14.4 0.075 0
14.55 0.075 0
14.7 0.075 0
14.85 0.075 0
15 0.075 0
15.15 0.075 0
15.3 0.075 0
15.45 0.075 0
15.6 0.075 0
15.75 0.075 0
15.9 0.075 0
16.05 0.075 0
16.2 0.075 0
16.35 0.075 0
16.5 0.075 0
16.65 0.075 0
16.8 0.075 0
16.95 0.075 0
17.1 0.075 0
17.25 0.075 0
17.4 0.075 0
17.55 0.075 0
17.7 0.075 0
17.85 0.075 0
18 0.075 0
18.15 0.075 0
18.3 0.075 0
18.45 0.075 0
18.6 0.075 0
18.75 0.075 0
18.9 0.075 0
19.05 0.075 0
19.2 0.075 0
19.35 0.075 0
19.5 0.075 0
19.65 0.075 0
19.8 0.075 0
19.95 0.075 0
20.1 0.075 0
20.25 0.075 0
20.4 0.075 0
20.55 0.075 0
20.7 0.075 0
20.85 0.075 0
21 0.075 0
21.15 0.075 0
21.3 0.075 0
21.45 0.075 0
21.6 0.075 0
21.75 0.075 0
21.9 0.075 0
22.05 0.075 0
22.2 0.075 0
22.35 0.075 0
22.5 0.075 0
22.65 0.075 0
22.8 0.075 0
22.95 0.075 0
23.1 0.075 0
23.25 0.075 0
23.4 0.075 0
23.55 0.075 0
23.7 0.075 0
23.85 0.075 0
24 0.075 0
24.15 0.075 0
24.3 0.075 0
24.45 0.075 0
24.6 0.075 0
24.75 0.075 0
24.9 0.075 0
25.05 0.075 0
25.2 0.075 0
25.35 0.075 0
25.5 0.075 0
25.65 0.075 0
25.8 0.075 0
25.95 0.075 0
26.1 0.075 0
26.25 0.075 0
26.4 0.075 0
26.55 0.075 0
26.7 0.075 0
26.85 0.075 0
27 0.075 0
27.15 0.075 0
27.3 0.075 0
27.45 0.075 0
27.6 0.075 0
27.75 0.075 0
27.9 0.075 0
28.05 0.075 0
28.2 0.075 0
28.35 0.075 0
28.5 0.075 0
28.65 0.075 0
28.8 0.075 0
28.95 0.075 0
29.1 0.075 0
29.25 0.075 0
29.4 0.075 0
29.55 0.075 0
29.7 0.075 0
29.85 0.075 0
0 0.15 0
0.15 0.15 0
0.3 0.15 0
0.45 0.15 0
0.6 0.15 0
0.75 0.15 0
0.9 0.15 0
1.05 0.15 0
1.2 0.15 0
1.35 0.15 0
1.5 0.15 0
1.65 0.15 0
1.8 0.15 0
1.95 0.15 0
2.1 0.15 0
2.25 0.15 0
2.4 0.15 0
2.55 0.15 0
2.7 0.15 0
2.85 0.15 0
3 0.15 0
3.15 0.15 0
3.3 0.15 0
3.45 0.15 0
3.6 0.15 0
3.75 0.15 0
3.9 0.15 0
4.05 0.15 0
4.2 0.15 0
4.35 0.15 0
4.5 0.15 0
4.65 0.15 0
4.8 0.15 0
4.95 0.15 0
5.1 0.15 0
5.25 0.15 0
5.4 0.15 0
5.55 0.15 0
5.7 0.15 0
5.85 0.15 0
6 0.15 0
6.15 0.15 0
6.3 0.15 0
6.45 0.15 0
6.6 0.15 0
6.75 0.15 0
6.9 0.15 0
7.05 0.15 0
7.2 0.15 0
7.35 0.15 0
7.5 0.15 0
7.65 0.15 0
7.8 0.15 0
7.95 0.15 0
8.1 0.15 0
8.25 0.15 0
8.4 0.15 0
8.55 0.15 0
8.7 0.15 0
8.85 0.15 0
9 0.15 0
9.15 0.15 0
9.3 0.15 0
9.45 0.15 0
9.6 0.15 0
9.75 0.15 0
9.9 0.15 0
10.05 0.15 0
10.2 0.15 0
10.35 0.15 0
10.5 0.15 0
10.65 0.15 0
10.8 0.15 0
10.95 0.15 0
11.1 0.15 0
11.25 0.15 0
11.4 0.15 0
11.55 0.15 0
11.7 0.15 0
11.85 0.15 0
12 0.15 0
12.15 0.15 0
12.3 0.15 0
12.45 0.15 0
12.6 0.15 0
12.75 0.15 0
12.9 0.15 0
13.05 0.15 0
13.2 0.15 0
13.35 0.15 0
13.5 0.15 0
13.65 0.15 0
13.8 0.15 0
13.95 0.15 0
14.1 0.15 0
14.25 0.15 0
14.4 0.15 0
14.55 0.15 0
14.7 0.15 0
14.85 0.15 0
15 0.15 0
15.15 0.15 0
15.3 0.15 0
15.45 0.15 0
15.6 0.15 0
15.75 0.15 0
15.9 0.15 0
16.05 0.15 0
16.2 0.15 0
16.35 0.15 0
16.5 0.15 0
16.65 0.15 0
16.8 0.15 0
16.95 0.15 0
17.1 0.15 0
17.25 0.15 0
17.4 0.15 0
17.55 0.15 0
17.7 0.15 0
17.85 0.15 0
18 0.15 0
18.15 0.15 0
18.3 0.15 0
18.45 0.15 0
18.6 0.15 0
18.75 0.15 0
18.9 0.15 0
19.05 0.15 0
19.2 0.15 0
19.35 0.15 0
19.5 0.15 0
19.65 0.15 0
19.8 0.15 0
19.95 0.15 0
20.1 0.15 0
20.25 0.15 0
20.4 0.15 0
20.55 0.15 0
20.7 0.15 0
20.85 0.15 0
21 0.15 0
21.15 0.15 0
21.3 0.15 0
21.45 0.15 0
21.6 0.15 0
21.75 0.15 0
21.9 0.15 0
22.05 0.15 0
22.2 0.15 0
22.35 0.15 0
22.5 0.15 0
22.65 0.15 0
22.8 0.15 0
22.95 0.15 0
23.1 0.15 0
23.25 0.15 0
23.4 0.15 0
23.55 0.15 0
23.7 0.15 0
23.85 0.15 0
24 0.15 0
24.15 0.15 0
24.3 0.15 0
24.45 0.15 0
24.6 0.15 0
24.75 0.15 0
24.9 0.15 0
25.05 0.15 0
25.2 0.15 0
25.35 0.15 0
25.5 0.15 0
25.65 0.15 0
25.8 0.15 0
25.95 0.15 0
26.1 0.15 0
26.25 0.15 0
26.4 0.15 0
26.55 0.15 0
26.7 0.15 0
26.85 0.15 0
27 0.15 0
27.15 0.15 0
27.3 0.15 0
27.45 0.15 0
27.6 0.15 0
27.75 0.15 0
27.9 0.15 0
28.05 0.15 0
28.2 0.15 0
28.35 0.15 0
28.5 0.15 0
28.65 0.15 0
28.8 0.15 0
28.95 0.15 0
29.1 0.15 0
29.25 0.15 0
29.4 0.15 0
29.55 0.15 0
29.7 0.15 0
29.85 0.15 0
0 0.225 0
0.15 0.225 0
0.3 0.225 0
0.45 0.225 0
0.6 0.225 0
0.75 0.225 0
0.9 0.225 0
1.05 0.225 0
1.2 0.225 0
1.35 0.225 0
1.5 0.225 0
1.65 0.225 0
1.8 0.225 0
1.95 0.225 0
2.1 0.225 0
2.25 0.225 0
2.4 0.225 0
2.55 0.225 0
2.7 0.225 0
2.85 0.225 0
3 0.225 0
3.15 0.225 0
3.3 0.225 0
3.45 0.225 0
3.6 0.225 0
3.75 0.225 0
3.9 0.225 0
4.05 0.225 0
4.2 0.225 0
4.35 0.225 0
4.5 0.225 0
4.65 0.225 0
4.8 0.225 0
4.95 0.225 0
5.1 0.225 0
5.25 0.225 0
5.4 0.225 0
5.55 0.225 0
5.7 0.225 0
5.85 0.225 0
6 0.225 0
6.15 0.225 0
6.3 0.225 0
6.45 0.225 0
6.6 0.225 0
6.75 0.225 0
6.9 0.225 0
7.05 0.225 0
7.2 0.225 0
7.35 0.225 0
7.5 0.225 0
7.65 0.225 0
7.8 0.225 0
7.95 0.225 0
8.1 0.225 0
8.25 0.225 0
8.4 0.225 0
8.55 0.225 0
8.7 0.225 0
8.85 0.225 0
9 0.225 0
9.15 0.225 0
9.3 0.225 0
9.45 0.225 0
9.6 0.225 0
9.75 0.225 0
9.9 0.225 0
10.05 0.225 0
10.2 0.225 0
10.35 0.225 0
10.5 0.225 0
10.65 0.225 0
10.8 0.225 0
10.95 0.225 0
11.1 0.225 0
11.25 0.225 0
11.4 0.225 0
11.55 0.225 0
11.7 0.225 0
11.85 0.225 0
12 0.225 0
12.15 0.225 0
12.3 0.225 0
12.45 0.225 0
12.6 0.225 0
12.75 0.225 0
12.9 0.225 0
13.05 0.225 0
13.2 0.225 0
13.35 0.225 0
13.5 0.225 0
13.65 0.225 0
13.8 0.225 0
13.95 0.225 0
14.1 0.225 0
14.25 0.225 0
14.4 0.225 0
14.55 0.225 0
14.7 0.225 0
14.85 0.225 0
15 0.225 0
15.15 0.225 0
15.3 0.225 0
15.45 0.225 0
15.6 0.225 0
15.75 0.225 0
15.9 0.225 0
16.05 0.225 0
16.2 0.225 0
16.35 0.225 0
16.5 0.225 0
16.65 0.225 0
16.8 0.225 0
16.95 0.225 0
17.1 0.225 0
17.25 0.225 0
17.4 0.225 0
17.55 0.225 0
17.7 0.225 0
17.85 0.225 0
18 0.225 0
18.15 0.225 0
18.3 0.225 0
18.45 0.225 0
18.6 0.225 0
18.75 0.225 0
18.9 0.225 0
19.05 0.225 0
19.2 0.225 0
19.35 0.225 0
19.5 0.225 0
19.65 0.225 0
19.8 0.225 0
19.95 0.225 0
20.1 0.225 0
20.25 0.225 0
20.4 0.225 0
20.55 0.225 0
20.7 0.225 0
20.85 0.225 0
21 0.225 0
21.15 0.225 0
21.3 0.225 0
21.45 0.225 0
21.6 0.225 0
21.75 0.225 0
21.9 0.225 0
22.05 0.225 0
22.2 0.225 0
22.35 0.225 0
22.5 0.225 0
22.65 0.225 0
22.8 0.225 0
22.95 0.225 0
23.1 0.225 0
23.25 0.225 0
23.4 0.225 0
23.55 0.225 0
23.7 0.225 0
23.85 0.225 0
24 0.225 0
24.15 0.225 0
24.3 0.225 0
24.45 0.225 0
24.6 0.225 0
24.75 0.225 0
24.9 0.225 0
25.05 0.225 0
25.2 0.225 0
25.35 0.225 0
25.5 0.225 0
25.65 0.225 0
25.8 0.225 0
25.95 0.225 0
26.1 0.225 0
26.25 0.225 0
26.4 0.225 0
26.55 0.225 0
26.7 0.225 0
26.85 0.225 0
27 0.225 0
27.15 0.225 0
27.3 0.225 0
27.45 0.225 0
27.6 0.225 0
27.75 0.225 0
27.9 0.225 0
28.05 0.225 0
28.2 0.225 0
28.35 0.225 0
28.5 0.225 0
28.65 0.225 0
28.8 0.225 0
28.95 0.225 0
29.1 0.225 0
29.25 0.225 0
29.4 0.225 0
29.55 0.225 0
29.7 0.225 0
29.85 0.225 0
0 0.3 0
0.15 0.3 0
0.3 0.3 0
0.45 0.3 0
0.6 0.3 0
0.75 0.3 0
0.9 0.3 0
1.05 0.3 0
1.2 0.3 0
1.35 0.3 0
1.5 0.3 0
1.65 0.3 0
1.8 0.3 0
1.95 0.3 0
2.1 0.3 0
2.25 0.3 0
2.4 0.3 0
2.55 0.3 0
2.7 0.3 0
2.85 0.3 0
3 0.3 0
3.15 0.3 0
3.3 0.3 0
3.45 0.3 0
3.6 0.3 0
3.75 0.3 0
3.9 0.3 0
4.05 0.3 0
4.2 0.3 0
4.35 0.3 0
4.5 0.3 0
4.65 0.3 0
4.8 0.3 0
4.95 0.3 0
5.1 0.3 0
5.25 0.3 0
5.4 0.3 0
5.55 0.3 0
5.7 0.3 0
5.85 0.3 0
6 0.3 0
6.15 0.3 0
[...]
POINT_DATA 40000

SCALARS p float 1
LOOKUP_TABLE default
20183.4634
20183.4634
20183.40799
20183.38029
20183.36198
20183.34916
20183.34201
20183.34181
20183.34874
20183.36091
20183.37531
20183.38935
20183.40167
20183.41214
20183.42108
20183.42853
20183.43438
20183.43888
20183.44229
20183.44341
20183.43905
20183.42747
20183.39531
20183.33936
20183.40541
20183.83852
20183.71493
20183.33973
20183.08688
20182.86359
20182.64558
20182.4256
20182.20117
20181.97122
20181.73502
20181.49179
20181.24058
20180.98026
20180.70952
20180.42666
20180.1287
20179.97308
20180.01293
20180.02866
20180.07398
20180.12393
20180.15613
20180.14505
20180.08703
20180.00614
20179.93121
20179.88317
20179.86942
20179.88229
20179.90716
20179.93193
20179.9497
20179.95775
20179.95143
20179.92401
20179.86763
20179.81256
20179.76814
20179.72061
20179.67147
20179.57348
20179.47618
20179.39614
20179.31282
20179.22619
20179.14478
20179.07583
20179.02443
20178.99205
20178.97901
20178.98468
20179.00878
20179.05117
20179.11203
20179.19222
20179.29274
20179.41448
20179.55705
20179.72022
20179.90389
20180.10827
20180.332
20180.57411
20180.8326
20181.10398
20181.38277
20181.66095
20181.92687
20182.16672
20182.37642
20182.56738
20182.7491
20182.87792
20182.91878
20182.90894
20182.88205
20182.85709
20182.84297
20182.81375
20182.69636
20182.48979
20182.22997
20182.07809
20182.0272
20181.9557
20181.88714
20181.83441
20181.78621
20181.72675
20181.64712
20181.5629
20181.52487
20181.57194
20181.64879
20181.68745
20181.68807
20181.67513
20181.67423
20181.69226
20181.70932
20181.71162
20181.70422
20181.69381
20181.67834
20181.65206
20181.6119
20181.55765
20181.4903
20181.41177
20181.3248
20181.23251
20181.13786
20181.04349
20180.9516
20180.8641
20180.78271
20180.70886
20180.64368
20180.58801
20180.54241
20180.50719
20180.48248
20180.46829
20180.46439
20180.47016
20180.48492
20180.50798
20180.53837
20180.57512
20180.61741
20180.66404
20180.71441
20180.76801
20180.82318
20180.88031
20180.93824
20180.99678
20181.05565
20181.1144
20181.17296
20181.23107
20181.28864
20181.34558
20181.40177
20181.45718
20181.51176
20181.56549
20181.61836
20181.67033
20181.72144
20181.77167
20181.82109
20181.8697
20181.91757
20181.96474
20182.01127
20182.05721
20182.10264
20182.14761
20182.1922
20182.23647
20182.2805
20182.32433
20182.36804
20182.41167
20182.4553
20182.49896
20182.54273
20182.58664
20182.63077
20182.67511
20182.71973
20182.76457
20182.80964
20182.80964
20183.4634
20183.4634
20183.40799
20183.38029
20183.36198
20183.34916
20183.34201
20183.34181
20183.34874
20183.36091
20183.37531
20183.38935
20183.40167
20183.41214
20183.42108
20183.42853
20183.43438
20183.43888
20183.44229
20183.44341
20183.43905
20183.42747
20183.39531
20183.33936
20183.40541
20183.83852
20183.71493
20183.33973
20183.08688
20182.86359
20182.64558
20182.4256
20182.20117
20181.97122
20181.73502
20181.49179
20181.24058
20180.98026
20180.70952
20180.42666
20180.1287
20179.97308
20180.01293
20180.02866
20180.07398
20180.12393
20180.15613
20180.14505
20180.08703
20180.00614
20179.93121
20179.88317
20179.86942
20179.88229
20179.90716
20179.93193
20179.9497
20179.95775
20179.95143
20179.92401
20179.86763
20179.81256
20179.76814
20179.72061
20179.67147
20179.57348
20179.47618
20179.39614
20179.31282
20179.22619
20179.14478
20179.07583
20179.02443
20178.99205
20178.97901
20178.98468
20179.00878
20179.05117
20179.11203
20179.19222
20179.29274
20179.41448
20179.55705
20179.72022
20179.90389
20180.10827
20180.332
20180.57411
20180.8326
20181.10398
20181.38277
20181.66095
20181.92687
20182.16672
20182.37642
20182.56738
20182.7491
20182.87792
20182.91878
20182.90894
20182.88205
20182.85709
20182.84297
20182.81375
20182.69636
20182.48979
20182.22997
20182.07809
20182.0272
20181.9557
20181.88714
20181.83441
20181.78621
20181.72675
20181.64712
20181.5629
20181.52487
20181.57194
20181.64879
20181.68745
20181.68807
20181.67513
20181.67423
20181.69226
20181.70932
20181.71162
20181.70422
20181.69381
20181.67834
20181.65206
20181.6119
20181.55765
20181.4903
20181.41177
20181.3248
20181.23251
20181.13786
20181.04349
20180.9516
20180.8641
20180.78271
20180.70886
20180.64368
20180.58801
20180.54241
20180.50719
20180.48248
20180.46829
20180.46439
20180.47016
20180.48492
20180.50798
20180.53837
20180.57512
20180.61741
20180.66404
20180.71441
20180.76801
20180.82318
20180.88031
20180.93824
20180.99678
20181.05565
20181.1144
20181.17296
20181.23107
20181.28864
20181.34558
20181.40177
20181.45718
20181.51176
20181.56549
20181.61836
20181.67033
20181.72144
20181.77167
20181.82109
20181.8697
20181.91757
20181.96474
20182.01127
20182.05721
20182.10264
20182.14761
20182.1922
20182.23647
20182.2805
20182.32433
20182.36804
20182.41167
20182.4553
20182.49896
20182.54273
20182.58664
20182.63077
20182.67511
20182.71973
20182.76457
20182.80964
20182.80964
20183.43079
20183.43079
20183.39893
20183.37583
20183.35955
20183.34831
20183.34241
20183.34296
20183.35012
20183.3622
20183.37645
20183.39035
20183.40257
20183.41297
20183.42184
20183.42918
20183.43488
20183.4392
20183.44256
20183.4442
20183.44136
20183.42709
20183.37638
20183.2992
20183.31173
20183.61585
20183.57353
20183.31002
20183.07979
20182.86233
20182.64607
20182.42669
20182.20252
20181.97275
20181.73674
20181.49374
20181.2428
20180.98281
20180.71248
20180.43036
20180.1334
20179.99754
20180.005
20180.02314
20180.06772
20180.1176
20180.14908
20180.13626
20180.07673
20179.99496
20179.91893
20179.86981
20179.85712
20179.87487
20179.90681
20179.93654
20179.95521
20179.96142
20179.95182
20179.91936
20179.86089
20179.80768
20179.76873
20179.72094
20179.6743
20179.58139
20179.47922
20179.39262
20179.30512
20179.21688
20179.13522
20179.0668
20179.01605
20178.98438
20178.97189
20178.97802
20179.00248
20179.04518
20179.1063
20179.18662
20179.28714
20179.40863
20179.55081
20179.71342
20179.89649
20180.10007
20180.32286
20180.56382
20180.82083
20181.09035
20181.36728
20181.64483
20181.91249
20182.15622
20182.36782
20182.55267
20182.72586
20182.85294
20182.89351
20182.8866
20182.87156
20182.85871
20182.84109
20182.79487
20182.67411
20182.46529
20182.21435
20182.07664
20182.02472
20181.95029
20181.88428
20181.83423
20181.7885
20181.73021
20181.64684
20181.5526
20181.50558
20181.55609
20181.64572
20181.69001
20181.68992
20181.67401
20181.67062
20181.68954
20181.70871
20181.71146
20181.70396
20181.69413
20181.67961
20181.65405
20181.61432
20181.56027
20181.49289
20181.41406
20181.32657
20181.23364
20181.13834
20181.04337
20180.95095
20180.86301
20180.78125
20180.70712
20180.64175
20180.58594
20180.54024
20180.50493
20180.48017
20180.46598
20180.46211
20180.46791
20180.48273
20180.50586
20180.53632
20180.57315
20180.61552
20180.66221
20180.71273
20180.76634
20180.82164
20180.87882
20180.93684
20180.99546
20181.05441
20181.11324
20181.17188
20181.23009
20181.28774
20181.34477
20181.40104
20181.45655
20181.51121
20181.56502
20181.61797
20181.67001
20181.72118
20181.77148
20181.82095
20181.86961
20181.91752
20181.96472
20182.01128
20182.05725
20182.1027
20182.14769
20182.1923
20182.23658
20182.28061
20182.32444
20182.36815
20182.41178
20182.4554
20182.49906
20182.54282
20182.58671
20182.63082
20182.67514
20182.71974
20182.76457
20182.80964
20182.80964
20183.40512
20183.40512
20183.3857
20183.36786
20183.35437
20183.3452
20183.34085
20183.34218
20183.3493
20183.36098
20183.37496
20183.38904
20183.40182
20183.41287
20183.4222
20183.42971
20183.43545
20183.43973
20183.44327
20183.4458
20183.44367
20183.42298
20183.35078
20183.26641
20183.25448
20183.4201
20183.43145
20183.27208
20183.06991
20182.8609
20182.64739
20182.42899
20182.20527
20181.97585
20181.74022
20181.49767
20181.2473
20180.98796
20180.7184
20180.43756
20180.14134
20180.00524
20179.994
20180.01357
20180.05576
20180.10528
20180.13541
20180.11895
20180.05584
20179.97162
20179.89237
20179.83949
20179.82657
20179.85156
20179.89704
20179.94032
20179.96747
20179.97562
20179.96108
20179.91541
20179.84714
20179.79644
20179.76873
20179.72206
20179.66148
20179.56599
20179.45938
20179.3644
20179.27274
20179.1851
20179.10615
20179.04128
20178.99357
20178.96442
20178.95383
20178.96154
20178.9872
20179.03088
20179.0929
20179.17387
20179.27451
20179.39552
20179.537
20179.69867
20179.88062
20180.08267
20180.30381
20180.54262
20180.7968
20181.06272
20181.33578
20181.61076
20181.87979
20182.13016
20182.34834
20182.52764
20182.68571
20182.80506
20182.8499
20182.8514
20182.85435
20182.86
20182.83851
20182.76248
20182.62565
20182.41576
20182.17867
20182.03427
20181.96919
20181.91667
20181.87115
20181.82874
20181.78654
20181.72888
20181.63845
20181.52702
20181.46381
20181.51885
20181.63064
20181.68676
20181.68861
20181.67323
20181.66865
20181.68717
20181.70703
20181.70983
20181.70313
20181.69518
20181.68219
20181.65712
20181.6169
20181.5616
20181.49254
20181.41201
20181.32308
20181.22902
20181.13288
20181.0373
20180.94446
20180.85627
20180.77439
20180.70023
20180.63492
20180.57923
20180.53367
20180.49855
20180.47402
20180.46011
20180.45652
20180.46262
20180.47776
20180.50119
20180.53195
20180.56909
20180.61172
20180.65872
20180.70952
20180.76327
20180.81886
20180.87621
20180.93443
20180.99322
20181.05234
20181.11134
20181.17014
20181.22851
20181.28632
20181.34352
20181.39993
20181.45559
20181.51039
20181.56433
20181.6174
20181.66955
20181.72083
20181.77122
20181.82076
20181.86949
20181.91746
20181.9647
20182.0113
20182.05729
20182.10276
20182.14776
20182.19237
20182.23666
20182.28069
20182.32452
20182.36822
20182.41185
20182.45547
20182.49911
20182.54287
20182.58676
20182.63086
20182.67518
20182.71978
20182.7646
20182.80971
20182.80971
20183.38445
20183.38445
20183.37209
20183.35862
20183.34773
20183.34042
20183.33736
20183.33921
20183.34606
20183.357
20183.37038
20183.38441
20183.39778
20183.40984
20183.42028
20183.42882
20183.43534
20183.4401
20183.44404
20183.44723
20183.44445
20183.41763
20183.33468
20183.26286
20183.25655
20183.33864
20183.35659
20183.24495
20183.06255
20182.86087
20182.65003
20182.43265
20182.20946
20181.98051
20181.74543
20181.50358
20181.25405
20180.99567
20180.72719
20180.44771
20180.14829
20180.00154
20179.97952
20179.99756
20180.03734
20180.08581
20180.1138
20180.09315
20180.02652
20179.93994
20179.85653
20179.79802
20179.78329
20179.81543
20179.87752
20179.94172
20179.98639
20180.00278
20179.98324
20179.91728
20179.83308
20179.78412
20179.75438
20179.69857
20179.62089
20179.51925
20179.41095
20179.31256
20179.22113
20179.13745
20179.06412
20179.005
20178.96213
20178.93676
20178.9291
20178.9391
20178.96642
20179.01124
20179.07422
20179.15575
20179.25629
20179.37656
20179.51706
20179.67744
20179.85784
20180.05794
20180.27692
20180.51301
20180.76367
20181.02498
20181.29227
20181.56105
20181.82655
20182.08088
20182.30832
20182.4923
20182.63818
20182.74683
20182.80089
20182.81894
20182.83848
20182.84812
20182.81752
20182.7209
20182.56216
20182.3445
20182.10492
20181.94349
20181.86645
20181.83677
20181.82595
20181.80686
20181.7738
20181.7176
20181.61806
20181.48338
20181.3958
20181.45202
20181.59181
20181.6699
20181.68017
20181.67306
20181.67186
20181.68829
20181.7053
20181.70642
20181.70077
20181.69548
20181.68395
20181.65815
20181.61563
20181.55732
20181.4854
20181.40265
20181.31225
20181.21735
20181.12081
20181.02511
20180.93233
20180.84432
20180.76271
20180.68887
20180.62389
20180.56855
20180.52338
20180.48867
20180.46459
20180.45115
20180.44802
20180.45459
20180.47022
20180.49412
20180.52532
20180.56292
20180.60595
20180.65337
20180.7046
20180.75856
20180.81454
20180.87215
20180.93062
20180.98969
20181.04905
20181.10827
20181.16732
20181.22593
20181.28396
20181.34142
20181.39804
20181.45394
20181.50894
20181.56309
20181.61635
20181.66867
20181.72011
20181.77062
20181.82029
20181.86912
20181.91717
20181.96448
20182.01113
20182.05716
20182.10266
20182.14768
20182.19231
20182.23661
20182.28064
20182.32448
20182.36819
20182.41182
20182.45546
20182.49912
20182.5429
20182.58681
20182.63096
20182.67531
20182.71998
20182.76482
20182.80996
20182.80996
20183.36703
20183.36703
20183.35888
20183.34884
20183.34028
20183.33456
20183.3325
20183.33465
20183.34107
20183.35112
20183.36358
20183.37711
20183.39061
20183.4034
20183.41502
20183.42501
20183.43305
20183.43914
20183.44387
20183.44708
20183.44261
20183.41368
20183.33272
20183.27608
20183.28
20183.32866
20183.33887
20183.23512
20183.06112
20182.86357
20182.65444
20182.43781
20182.21512
20181.98672
20181.75236
20181.51144
20181.26303
20181.00595
20180.73879
20180.46077
20180.15493
20179.9908
20179.95856
20179.97242
20180.01116
20180.059
20180.08495
20180.06084
20179.99158
20179.90264
20179.81342
20179.74727
20179.72976
20179.76934
20179.84969
20179.93909
20180.00784
20180.03897
20180.0171
20179.93374
20179.83134
20179.76945
20179.72002
20179.64621
20179.55457
20179.45005
20179.3444
20179.24797
20179.16065
20179.08291
20179.01646
20178.96375
20178.92631
20178.90512
20178.90068
20178.91307
20178.94207
20178.98794
20179.05159
20179.13336
20179.23351
20179.35279
20179.49189
20179.65061
20179.82903
20180.02694
20180.24346
20180.47675
20180.724
20180.98096
20181.24244
20181.50361
20181.76107
20182.01166
20182.24355
20182.44
20182.58581
20182.69047
20182.75473
20182.79152
20182.82254
20182.81981
20182.76655
20182.65685
20182.46914
20182.23894
20181.99895
20181.82728
20181.73585
20181.7128
20181.73582
20181.75394
20181.74056
20181.68992
20181.5824
20181.42444
20181.31184
20181.36581
20181.53203
20181.63915
20181.66443
20181.67239
20181.68024
20181.69491
20181.70611
20181.70341
20181.69787
20181.69409
20181.68223
20181.65381
20181.60749
20181.54549
20181.47075
20181.38628
20181.29506
20181.19998
20181.10361
20181.00826
20180.91592
20180.82839
20180.74726
20180.6739
20180.60939
20180.55454
20180.50987
20180.47568
20180.45215
20180.43928
20180.43673
20180.4439
20180.46013
20180.48461
20180.51638
20180.55455
20180.59808
20180.64604
20180.69778
20180.75204
20180.80849
20180.86643
20180.9252
20180.98465
20181.0443
20181.10384
20181.16321
20181.22213
20181.28047
20181.33826
20181.39516
20181.4514
20181.50667
20181.56111
20181.61462
20181.66718
20181.71883
20181.76954
20181.81938
20181.86834
20181.91652
20181.96393
20182.01066
20182.05676
20182.10231
20182.14737
20182.19203
20182.23634
20182.28041
20182.32426
20182.368
20182.41166
20182.45534
20182.49905
20182.5429
20182.58689
20182.63115
20182.67562
20182.72043
20182.76536
20182.81056
20182.81056
20183.35174
20183.35174
20183.34622
20183.33882
20183.33224
20183.32791
20183.32667
20183.32902
20183.33501
20183.34418
20183.35562
20183.36834
20183.38148
20183.39442
20183.40673
20183.41792
20183.42758
20183.43541
20183.44132
20183.44424
20183.43823
20183.41109
20183.34348
20183.30188
20183.31491
20183.35564
20183.35536
20183.2415
20183.06675
20182.86968
20182.66091
20182.44455
20182.22224
20181.99444
20181.76097
20181.52121
20181.27424
20181.0188
20180.75328
20180.47712
20180.16332
20179.977
20179.93167
20179.93933
20179.97681
20180.02481
20180.05007
20180.02431
20179.95341
20179.86089
20179.76236
20179.68514
20179.66376
20179.71231
20179.81338
20179.93074
20180.0273
20180.07852
20180.05888
20179.96226
20179.83954
20179.74669
20179.66542
20179.57381
20179.47393
20179.37037
20179.26983
20179.17841
20179.09703
20179.02592
20178.96643
20178.92001
20178.88795
20178.87094
20178.86965
20178.88428
20178.91484
20178.96164
20179.02563
20179.10729
20179.20674
20179.32478
20179.46207
20179.61872
20179.79476
20179.99016
20180.20399
20180.43447
20180.67855
20180.93178
20181.18849
20181.44312
20181.69168
20181.93359
20182.16331
20182.36726
20182.52179
20182.63394
20182.71204
20182.76349
20182.80098
20182.78737
20182.69296
20182.55662
20182.34198
20182.09424
20181.85861
20181.685
20181.58783
20181.56236
20181.60344
20181.66141
20181.67886
20181.64059
20181.53188
20181.3614
20181.23392
20181.28452
20181.46881
20181.60351
20181.64784
20181.67251
20181.69162
20181.70599
20181.71094
20181.7035
20181.69627
20181.69088
20181.67563
20181.64273
20181.59215
20181.52691
20181.4502
20181.3648
20181.27341
20181.17857
20181.08264
20180.98783
20180.89604
20180.80905
20180.72844
20180.65559
20180.59158
20180.53725
20180.49313
20180.45952
20180.4366
20180.42438
20180.42251
20180.43037
20180.44731
20180.47249
20180.50495
20180.5438
20180.58796
20180.63658
20180.68887
20180.74359
20180.80057
20180.85891
20180.91808
20180.97798
20181.03797
20181.09792
20181.15769
20181.21699
20181.27573
20181.33393
20181.39119
20181.44785
20181.50346
20181.55828
20181.61212
20181.66498
20181.71691
20181.76787
20181.81793
20181.86709
20181.91544
20181.96298
20182.00983
20182.05601
20182.10164
20182.14676
20182.19147
20182.23583
20182.27993
20182.32383
20182.36762
20182.41133
20182.45508
20182.49888
20182.54285
20182.58698
20182.63143
20182.6761
20182.72114
20182.76628
20182.81163
20182.81163
20183.33789
20183.33789
20183.33408
20183.32868
20183.32375
20183.32061
20183.32008
20183.32259
20183.32822
20183.33662
20183.34712
20183.35894
20183.37143
20183.38407
20183.39649
20183.4083
20183.41908
20183.42838
20183.43547
20183.4385
20183.43156
20183.40849
20183.36058
20183.33486
20183.35362
20183.39584
20183.38876
20183.26017
20183.07896
20182.87926
20182.66947
20182.45284
20182.23076
20182.00362
20181.77119
20181.53286
20181.28764
20181.03423
20180.77075
20180.49728
20180.17586
20179.9643
20179.90173
20179.90121
20179.93606
20179.98456
20180.01094
20179.98561
20179.91329
20179.81384
20179.70006
20179.60655
20179.57975
20179.63984
20179.76591
20179.91412
20180.04008
20180.11161
20180.0964
20179.98421
20179.83439
20179.7049
20179.59544
20179.49076
20179.38702
20179.28654
20179.19175
20179.10661
20179.03166
20178.96734
20178.91449
20178.87413
20178.84723
20178.83433
20178.83607
20178.85279
20178.88477
20178.93236
20178.99643
20179.07762
20179.17608
20179.29258
20179.42772
20179.5819
20179.7552
20179.94778
20180.15881
20180.38659
20180.62792
20180.87809
20181.13094
20181.38035
20181.62123
20181.85324
20182.07595
20182.28011
20182.44512
20182.56969
20182.66622
20182.72453
20182.75559
20182.7415
20182.61257
20182.42523
20182.18478
20181.92211
20181.68802
20181.51381
20181.42101
20181.39514
20181.44268
20181.53147
20181.58656
20181.56961
20181.47126
20181.30606
20181.17822
20181.22677
20181.42059
20181.57673
20181.63995
20181.67686
20181.7041
20181.71907
20181.71944
20181.70768
20181.69656
20181.68575
20181.66418
20181.62578
20181.57127
20181.50363
20181.42569
20181.33987
20181.24853
20181.15398
20181.05849
20180.96415
20180.87286
20180.78635
20180.70623
20180.63386
20180.57036
20180.51656
20180.47302
20180.44004
20180.41781
20180.40632
20180.40521
20180.41388
20180.43165
20180.45765
20180.49094
20180.53059
20180.57553
20180.62489
20180.6778
20180.73315
20180.7907
20180.84953
20180.90922
20180.96962
20181.03003
20181.09049
20181.1507
20181.21047
20181.2697
20181.32837
20181.38609
20181.44325
20181.49927
20181.55456
20181.60879
20181.66202
20181.71431
20181.76557
20181.81591
20181.86532
20181.91387
20181.96159
20182.00859
20182.0549
20182.10062
20182.14582
20182.19061
20182.23502
20182.27919
20182.32314
20182.36701
20182.4108
20182.45466
20182.49858
20182.54272
20182.58705
20182.63175
20182.67672
20182.72212
20182.76761
20182.81326
20182.81326
20183.32502
20183.32502
20183.32237
20183.31848
20183.3149
20183.31277
20183.31283
20183.3155
20183.32084
20183.32861
20183.33828
20183.34927
20183.36104
20183.37316
20183.38531
20183.3972
20183.40849
20183.41865
20183.42665
20183.4304
20183.42368
20183.40694
20183.37788
20183.36764
20183.39266
20183.43905
20183.42861
20183.287
20183.09644
20182.89188
20182.67993
20182.46255
20182.24058
20182.01416
20181.78296
20181.54631
20181.3032
20181.05228
20180.7913
20180.52171
20180.19478
20179.957
20179.87309
20179.86213
20179.89274
20179.94143
20179.97015
20179.94653
20179.87141
20179.75945
20179.62306
20179.50726
20179.47316
20179.54736
20179.70334
20179.8854
20180.03999
20180.12578
20180.10935
20179.97677
20179.79904
20179.64213
20179.51464
20179.40134
20179.29677
20179.20007
20179.11123
20179.03272
20178.96437
20178.90686
20178.86039
20178.82591
20178.80398
20178.79513
20178.79981
20178.81854