# vtk DataFile Version 2.0
FlowField
ASCII
DATASET STRUCTURED_GRID
DIMENSIONS 200 1 200
POINTS 40000 float
0 0 0
0.15 0 0
0.3 0 0
0.45 0 0
0.6 0 0
0.75 0 0
0.9 0 0
1.05 0 0
1.2 0 0
1.35 0 0
1.5 0 0
1.65 0 0
1.8 0 0
1.95 0 0
2.1 0 0
2.25 0 0
2.4 0 0
2.55 0 0
2.7 0 0
2.85 0 0
3 0 0
3.15 0 0
3.3 0 0
3.45 0 0
3.6 0 0
3.75 0 0
3.9 0 0
4.05 0 0
4.2 0 0
4.35 0 0
4.5 0 0
4.65 0 0
4.8 0 0
4.95 0 0
5.1 0 0
5.25 0 0
5.4 0 0
5.55 0 0
5.7 0 0
5.85 0 0
6 0 0
6.15 0 0
6.3 0 0
6.45 0 0
6.6 0 0
6.75 0 0
6.9 0 0
7.05 0 0
7.2 0 0
7.35 0 0
7.5 0 0
7.65 0 0
7.8 0 0
7.95 0 0
8.1 0 0
8.25 0 0
8.4 0 0
8.55 0 0
8.7 0 0
8.85 0 0
9 0 0
9.15 0 0
9.3 0 0
9.45 0 0
9.6 0 0
9.75 0 0
9.9 0 0
10.05 0 0
10.2 0 0
10.35 0 0
10.5 0 0
10.65 0 0
10.8 0 0
10.95 0 0
11.1 0 0
11.25 0 0
11.4 0 0
11.55 0 0
11.7 0 0
11.85 0 0
12 0 0
12.15 0 0
12.3 0 0
12.45 0 0
12.6 0 0
12.75 0 0
12.9 0 0
13.05 0 0
13.2 0 0
13.35 0 0
13.5 0 0
13.65 0 0
13.8 0 0
13.95 0 0
14.1 0 0
14.25 0 0
14.4 0 0
14.55 0 0
14.7 0 0
14.85 0 0
15 0 0
15.15 0 0
15.3 0 0
15.45 0 0
15.6 0 0
15.75 0 0
15.9 0 0
16.05 0 0
16.2 0 0
16.35 0 0
16.5 0 0
16.65 0 0
16.8 0 0
16.95 0 0
17.1 0 0
17.25 0 0
17.4 0 0
17.55 0 0
17.7 0 0
17.85 0 0
18 0 0
18.15 0 0
18.3 0 0
18.45 0 0
18.6 0 0
18.75 0 0
18.9 0 0
19.05 0 0
19.2 0 0
19.35 0 0
19.5 0 0
19.65 0 0
19.8 0 0
19.95 0 0
20.1 0 0
20.25 0 0
20.4 0 0
20.55 0 0
20.7 0 0
20.85 0 0
21 0 0
21.15 0 0
21.3 0 0
21.45 0 0
21.6 0 0
21.75 0 0
21.9 0 0
22.05 0 0
22.2 0 0
22.35 0 0
22.5 0 0
22.65 0 0
22.8 0 0
22.95 0 0
23.1 0 0
23.25 0 0
23.4 0 0
23.55 0 0
23.7 0 0
23.85 0 0
24 0 0
24.15 0 0
24.3 0 0
24.45 0 0
24.6 0 0
24.75 0 0
24.9 0 0
25.05 0 0
25.2 0 0
25.35 0 0
25.5 0 0
25.65 0 0
25.8 0 0
25.95 0 0
26.1 0 0
26.25 0 0
26.4 0 0
26.55 0 0
26.7 0 0
26.85 0 0
27 0 0
27.15 0 0
27.3 0 0
27.45 0 0
27.6 0 0
27.75 0 0
27.9 0 0
28.05 0 0
28.2 0 0
28.35 0 0
28.5 0 0
28.65 0 0
28.8 0 0
28.95 0 0
29.1 0 0
29.25 0 0
29.4 0 0
29.55 0 0
29.7 0 0
29.85 0 0
0 0.075 0
0.15 0.075 0
0.3 0.075 0
0.45 0.075 0
0.6 0.075 0
0.75 0.075 0
0.9 0.075 0
1.05 0.075 0
1.2 0.075 0
1.35 0.075 0
1.5 0.075 0
1.65 0.075 0
1.8 0.075 0
1.95 0.075 0
2.1 0.075 0
2.25 0.075 0
2.4 0.075 0
2.55 0.075 0
2.7 0.075 0
2.85 0.075 0
3 0.075 0
3.15 0.075 0
3.3 0.075 0
3.45 0.075 0
3.6 0.075 0
3.75 0.075 0
3.9 0.075 0
4.05 0.075 0
4.2 0.075 0
4.35 0.075 0
4.5 0.075 0
4.65 0.075 0
4.8 0.075 0
4.95 0.075 0
5.1 0.075 0
5.25 0.075 0
5.4 0.075 0
5.55 0.075 0
5.7 0.075 0
5.85 0.075 0
6 0.075 0
6.15 0.075 0
6.3 0.075 0
6.45 0.075 0
6.6 0.075 0
6.75 0.075 0
6.9 0.075 0
7.05 0.075 0
7.2 0.075 0
7.35 0.075 0
7.5 0.075 0
7.65 0.075 0
7.8 0.075 0
7.95 0.075 0
8.1 0.075 0
8.25 0.075 0
8.4 0.075 0
8.55 0.075 0
8.7 0.075 0
8.85 0.075 0
9 0.075 0
9.15 0.075 0
9.3 0.075 0
9.45 0.075 0
9.6 0.075 0
9.75 0.075 0
9.9 0.075 0
10.05 0.075 0
10.2 0.075 0
10.35 0.075 0
10.5 0.075 0
10.65 0.075 0
10.8 0.075 0
10.95 0.075 0
11.1 0.075 0
11.25 0.075 0
11.4 0.075 0
11.55 0.075 0
11.7 0.075 0
11.85 0.075 0
12 0.075 0
12.15 0.075 0
12.3 0.075 0
12.45 0.075 0
12.6 0.075 0
12.75 0.075 0
12.9 0.075 0
13.05 0.075 0
13.2 0.075 0
13.35 0.075 0
13.5 0.075 0
13.65 0.075 0
13.8 0.075 0
13.95 0.075 0
14.1 0.075 0
14.25 0.075 0
14.4 0.075 0
14.55 0.075 0
14.7 0.075 0
14.85 0.075 0
15 0.075 0
15.15 0.075 0
15.3 0.075 0
15.45 0.075 0
15.6 0.075 0
15.75 0.075 0
15.9 0.075 0
16.05 0.075 0
16.2 0.075 0
16.35 0.075 0
16.5 0.075 0
16.65 0.075 0
16.8 0.075 0
16.95 0.075 0
17.1 0.075 0
17.25 0.075 0
17.4 0.075 0
17.55 0.075 0
17.7 0.075 0
17.85 0.075 0
18 0.075 0
18.15 0.075 0
18.3 0.075 0
18.45 0.075 0
18.6 0.075 0
18.75 0.075 0
18.9 0.075 0
19.05 0.075 0
19.2 0.075 0
19.35 0.075 0
19.5 0.075 0
19.65 0.075 0
19.8 0.075 0
19.95 0.075 0
20.1 0.075 0
20.25 0.075 0
20.4 0.075 0
20.55 0.075 0
20.7 0.075 0
20.85 0.075 0
21 0.075 0
21.15 0.075 0
21.3 0.075 0
21.45 0.075 0
21.6 0.075 0
21.75 0.075 0
21.9 0.075 0
22.05 0.075 0
22.2 0.075 0
22.35 0.075 0
22.5 0.075 0
22.65 0.075 0
22.8 0.075 0
22.95 0.075 0
23.1 0.075 0
23.25 0.075 0
23.4 0.075 0
23.55 0.075 0
23.7 0.075 0
23.85 0.075 0
24 0.075 0
24.15 0.075 0
24.3 0.075 0
24.45 0.075 0
24.6 0.075 0
24.75 0.075 0
24.9 0.075 0
25.05 0.075 0
25.2 0.075 0
25.35 0.075 0
25.5 0.075 0
25.65 0.075 0
25.8 0.075 0
25.95 0.075 0
26.1 0.075 0
26.25 0.075 0
26.4 0.075 0
26.55 0.075 0
26.7 0.075 0
26.85 0.075 0
27 0.075 0
27.15 0.075 0
27.3 0.075 0
27.45 0.075 0
27.6 0.075 0
27.75 0.075 0
27.9 0.075 0
28.05 0.075 0
28.2 0.075 0
28.35 0.075 0
28.5 0.075 0
28.65 0.075 0
28.8 0.075 0
28.95 0.075 0
29.1 0.075 0
29.25 0.075 0
29.4 0.075 0
29.55 0.075 0
29.7 0.075 0
29.85 0.075 0
0 0.15 0
0.15 0.15 0
0.3 0.15 0
0.45 0.15 0
0.6 0.15 0
0.75 0.15 0
0.9 0.15 0
1.05 0.15 0
1.2 0.15 0
1.35 0.15 0
1.5 0.15 0
1.65 0.15 0
1.8 0.15 0
1.95 0.15 0
2.1 0.15 0
2.25 0.15 0
2.4 0.15 0
2.55 0.15 0
2.7 0.15 0
2.85 0.15 0
3 0.15 0
3.15 0.15 0
3.3 0.15 0
3.45 0.15 0
3.6 0.15 0
3.75 0.15 0
3.9 0.15 0
4.05 0.15 0
4.2 0.15 0
4.35 0.15 0
4.5 0.15 0
4.65 0.15 0
4.8 0.15 0
4.95 0.15 0
5.1 0.15 0
5.25 0.15 0
5.4 0.15 0
5.55 0.15 0
5.7 0.15 0
5.85 0.15 0
6 0.15 0
6.15 0.15 0
6.3 0.15 0
6.45 0.15 0
6.6 0.15 0
6.75 0.15 0
6.9 0.15 0
7.05 0.15 0
7.2 0.15 0
7.35 0.15 0
7.5 0.15 0
7.65 0.15 0
7.8 0.15 0
7.95 0.15 0
8.1 0.15 0
8.25 0.15 0
8.4 0.15 0
8.55 0.15 0
8.7 0.15 0
8.85 0.15 0
9 0.15 0
9.15 0.15 0
9.3 0.15 0
9.45 0.15 0
9.6 0.15 0
9.75 0.15 0
9.9 0.15 0
10.05 0.15 0
10.2 0.15 0
10.35 0.15 0
10.5 0.15 0
10.65 0.15 0
10.8 0.15 0
10.95 0.15 0
11.1 0.15 0
11.25 0.15 0
11.4 0.15 0
11.55 0.15 0
11.7 0.15 0
11.85 0.15 0
12 0.15 0
12.15 0.15 0
12.3 0.15 0
12.45 0.15 0
12.6 0.15 0
12.75 0.15 0
12.9 0.15 0
13.05 0.15 0
13.2 0.15 0
13.35 0.15 0
13.5 0.15 0
13.65 0.15 0
13.8 0.15 0
13.95 0.15 0
14.1 0.15 0
14.25 0.15 0
14.4 0.15 0
14.55 0.15 0
14.7 0.15 0
14.85 0.15 0
15 0.15 0
15.15 0.15 0
15.3 0.15 0
15.45 0.15 0
15.6 0.15 0
15.75 0.15 0
15.9 0.15 0
16.05 0.15 0
16.2 0.15 0
16.35 0.15 0
16.5 0.15 0
16.65 0.15 0
16.8 0.15 0
16.95 0.15 0
17.1 0.15 0
17.25 0.15 0
17.4 0.15 0
17.55 0.15 0
17.7 0.15 0
17.85 0.15 0
18 0.15 0
18.15 0.15 0
18.3 0.15 0
18.45 0.15 0
18.6 0.15 0
18.75 0.15 0
18.9 0.15 0
19.05 0.15 0
19.2 0.15 0
19.35 0.15 0
19.5 0.15 0
19.65 0.15 0
19.8 0.15 0
19.95 0.15 0
20.1 0.15 0
20.25 0.15 0
20.4 0.15 0
20.55 0.15 0
20.7 0.15 0
20.85 0.15 0
21 0.15 0
21.15 0.15 0
21.3 0.15 0
21.45 0.15 0
21.6 0.15 0
21.75 0.15 0
21.9 0.15 0
22.05 0.15 0
22.2 0.15 0
22.35 0.15 0
22.5 0.15 0
22.65 0.15 0
22.8 0.15 0
22.95 0.15 0
23.1 0.15 0
23.25 0.15 0
23.4 0.15 0
23.55 0.15 0
23.7 0.15 0
23.85 0.15 0
24 0.15 0
24.15 0.15 0
24.3 0.15 0
24.45 0.15 0
24.6 0.15 0
24.75 0.15 0
24.9 0.15 0
25.05 0.15 0
25.2 0.15 0
25.35 0.15 0
25.5 0.15 0
25.65 0.15 0
25.8 0.15 0
25.95 0.15 0
26.1 0.15 0
26.25 0.15 0
26.4 0.15 0
26.55 0.15 0
26.7 0.15 0
26.85 0.15 0
27 0.15 0
27.15 0.15 0
27.3 0.15 0
27.45 0.15 0
27.6 0.15 0
27.75 0.15 0
27.9 0.15 0
28.05 0.15 0
28.2 0.15 0
28.35 0.15 0
28.5 0.15 0
28.65 0.15 0
28.8 0.15 0
28.95 0.15 0
29.1 0.15 0
29.25 0.15 0
29.4 0.15 0
29.55 0.15 0
29.7 0.15 0
29.85 0.15 0
0 0.225 0
0.15 0.225 0
0.3 0.225 0
0.45 0.225 0
0.6 0.225 0
0.75 0.225 0
0.9 0.225 0
1.05 0.225 0
1.2 0.225 0
1.35 0.225 0
1.5 0.225 0
1.65 0.225 0
1.8 0.225 0
1.95 0.225 0
2.1 0.225 0
2.25 0.225 0
2.4 0.225 0
2.55 0.225 0
2.7 0.225 0
2.85 0.225 0
3 0.225 0
3.15 0.225 0
3.3 0.225 0
3.45 0.225 0
3.6 0.225 0
3.75 0.225 0
3.9 0.225 0
4.05 0.225 0
4.2 0.225 0
4.35 0.225 0
4.5 0.225 0
4.65 0.225 0
4.8 0.225 0
4.95 0.225 0
5.1 0.225 0
5.25 0.225 0
5.4 0.225 0
5.55 0.225 0
5.7 0.225 0
5.85 0.225 0
6 0.225 0
6.15 0.225 0
6.3 0.225 0
6.45 0.225 0
6.6 0.225 0
6.75 0.225 0
6.9 0.225 0
7.05 0.225 0
7.2 0.225 0
7.35 0.225 0
7.5 0.225 0
7.65 0.225 0
7.8 0.225 0
7.95 0.225 0
8.1 0.225 0
8.25 0.225 0
8.4 0.225 0
8.55 0.225 0
8.7 0.225 0
8.85 0.225 0
9 0.225 0
9.15 0.225 0
9.3 0.225 0
9.45 0.225 0
9.6 0.225 0
9.75 0.225 0
9.9 0.225 0
10.05 0.225 0
10.2 0.225 0
10.35 0.225 0
10.5 0.225 0
10.65 0.225 0
10.8 0.225 0
10.95 0.225 0
11.1 0.225 0
11.25 0.225 0
11.4 0.225 0
11.55 0.225 0
11.7 0.225 0
11.85 0.225 0
12 0.225 0
12.15 0.225 0
12.3 0.225 0
12.45 0.225 0
12.6 0.225 0
12.75 0.225 0
12.9 0.225 0
13.05 0.225 0
13.2 0.225 0
13.35 0.225 0
13.5 0.225 0
13.65 0.225 0
13.8 0.225 0
13.95 0.225 0
14.1 0.225 0
14.25 0.225 0
14.4 0.225 0
14.55 0.225 0
14.7 0.225 0
14.85 0.225 0
15 0.225 0
15.15 0.225 0
15.3 0.225 0
15.45 0.225 0
15.6 0.225 0
15.75 0.225 0
15.9 0.225 0
16.05 0.225 0
16.2 0.225 0
16.35 0.225 0
16.5 0.225 0
16.65 0.225 0
16.8 0.225 0
16.95 0.225 0
17.1 0.225 0
17.25 0.225 0
17.4 0.225 0
17.55 0.225 0
17.7 0.225 0
17.85 0.225 0
18 0.225 0
18.15 0.225 0
18.3 0.225 0
18.45 0.225 0
18.6 0.225 0
18.75 0.225 0
18.9 0.225 0
19.05 0.225 0
19.2 0.225 0
19.35 0.225 0
19.5 0.225 0
19.65 0.225 0
19.8 0.225 0
19.95 0.225 0
20.1 0.225 0
20.25 0.225 0
20.4 0.225 0
20.55 0.225 0
20.7 0.225 0
20.85 0.225 0
21 0.225 0
21.15 0.225 0
21.3 0.225 0
21.45 0.225 0
21.6 0.225 0
21.75 0.225 0
21.9 0.225 0
22.05 0.225 0
22.2 0.225 0
22.35 0.225 0
22.5 0.225 0
22.65 0.225 0
22.8 0.225 0
22.95 0.225 0
23.1 0.225 0
23.25 0.225 0
23.4 0.225 0
23.55 0.225 0
23.7 0.225 0
23.85 0.225 0
24 0.225 0
24.15 0.225 0
24.3 0.225 0
24.45 0.225 0
24.6 0.225 0
24.75 0.225 0
24.9 0.225 0
25.05 0.225 0
25.2 0.225 0
25.35 0.225 0
25.5 0.225 0
25.65 0.225 0
25.8 0.225 0
25.95 0.225 0
26.1 0.225 0
26.25 0.225 0
26.4 0.225 0
26.55 0.225 0
26.7 0.225 0
26.85 0.225 0
27 0.225 0
27.15 0.225 0
27.3 0.225 0
27.45 0.225 0
27.6 0.225 0
27.75 0.225 0
27.9 0.225 0
28.05 0.225 0
28.2 0.225 0
28.35 0.225 0
28.5 0.225 0
28.65 0.225 0
28.8 0.225 0
28.95 0.225 0
29.1 0.225 0
29.25 0.225 0
29.4 0.225 0
29.55 0.225 0
29.7 0.225 0
29.85 0.225 0
0 0.3 0
0.15 0.3 0
0.3 0.3 0
0.45 0.3 0
0.6 0.3 0
0.75 0.3 0
0.9 0.3 0
1.05 0.3 0
1.2 0.3 0
1.35 0.3 0
1.5 0.3 0
1.65 0.3 0
1.8 0.3 0
1.95 0.3 0
2.1 0.3 0
2.25 0.3 0
2.4 0.3 0
2.55 0.3 0
2.7 0.3 0
2.85 0.3 0
3 0.3 0
3.15 0.3 0
3.3 0.3 0
3.45 0.3 0
3.6 0.3 0
3.75 0.3 0
3.9 0.3 0
4.05 0.3 0
4.2 0.3 0
4.35 0.3 0
4.5 0.3 0
4.65 0.3 0
4.8 0.3 0
4.95 0.3 0
5.1 0.3 0
5.25 0.3 0
5.4 0.3 0
5.55 0.3 0
5.7 0.3 0
5.85 0.3 0
6 0.3 0
6.15 0.3 0
[...]
POINT_DATA 40000

SCALARS p float 1
LOOKUP_TABLE default
20183.35836
20183.35836
20183.30302
20183.27544
20183.25731
20183.24474
20183.23793
20183.23816
20183.24558
20183.2583
20183.27336
20183.28821
20183.30149
20183.31302
20183.32309
20183.33172
20183.33883
20183.3446
20183.34924
20183.35157
20183.34841
20183.33773
20183.30593
20183.25155
20183.32225
20183.74624
20183.62758
20183.2634
20183.01813
20182.80167
20182.59053
20182.37777
20182.16111
20181.93962
20181.71264
20181.47937
20181.23872
20180.98907
20180.72806
20180.45195
20180.15428
20179.99663
20180.03939
20180.03269
20180.03309
20180.01904
20179.98584
20179.92974
20179.85461
20179.76582
20179.66343
20179.5458
20179.41583
20179.28808
20179.18924
20179.14704
20179.16447
20179.21709
20179.27921
20179.33491
20179.37316
20179.38471
20179.374
20179.3559
20179.21208
20179.14839
20179.21238
20179.20197
20179.14307
20179.09095
20179.06203
20179.06283
20179.0897
20179.14052
20179.2113
20179.30215
20179.41338
20179.54315
20179.69354
20179.86656
20180.06158
20180.27852
20180.51687
20180.77513
20181.05338
20181.34943
20181.65656
20181.96224
20182.24956
20182.50197
20182.69516
20182.82574
20182.88428
20182.8267
20182.64863
20182.39647
20182.16057
20182.02596
20181.95129
20181.77801
20181.53987
20181.48342
20181.45771
20181.39552
20181.33922
20181.29186
20181.24846
20181.20763
20181.17243
20181.1529
20181.16995
20181.22594
20181.27706
20181.29157
20181.27687
20181.24922
20181.21861
20181.20472
20181.2231
20181.24603
20181.24906
20181.23701
20181.21677
20181.18528
20181.13648
20181.06801
20180.98313
20180.88784
20180.78776
20180.68695
20180.58867
20180.49614
20180.41177
20180.33712
20180.27365
20180.22256
20180.18458
20180.16002
20180.14897
20180.15124
20180.16637
20180.19359
20180.23206
20180.28109
20180.33958
20180.40573
20180.47809
20180.55566
20180.63747
20180.72219
20180.80836
20180.8952
20180.98111
20181.06604
20181.14844
20181.22845
20181.30519
20181.37836
20181.44767
20181.51294
20181.57415
20181.63121
20181.68424
20181.7333
20181.77858
20181.82026
20181.85857
20181.89373
20181.92601
20181.95564
20181.98288
20182.00797
20182.03115
20182.05266
20182.07272
20182.09152
20182.10928
20182.12616
20182.14234
20182.15795
20182.17314
20182.18799
20182.20265
20182.21717
20182.23166
20182.24614
20182.26072
20182.27541
20182.29028
20182.30532
20182.32061
20182.33611
20182.35188
20182.36785
20182.38404
20182.40038
20182.41686
20182.43336
20182.44985
20182.44985
20183.35836
20183.35836
20183.30302
20183.27544
20183.25731
20183.24474
20183.23793
20183.23816
20183.24558
20183.2583
20183.27336
20183.28821
20183.30149
20183.31302
20183.32309
20183.33172
20183.33883
20183.3446
20183.34924
20183.35157
20183.34841
20183.33773
20183.30593
20183.25155
20183.32225
20183.74624
20183.62758
20183.2634
20183.01813
20182.80167
20182.59053
20182.37777
20182.16111
20181.93962
20181.71264
20181.47937
20181.23872
20180.98907
20180.72806
20180.45195
20180.15428
20179.99663
20180.03939
20180.03269
20180.03309
20180.01904
20179.98584
20179.92974
20179.85461
20179.76582
20179.66343
20179.5458
20179.41583
20179.28808
20179.18924
20179.14704
20179.16447
20179.21709
20179.27921
20179.33491
20179.37316
20179.38471
20179.374
20179.3559
20179.21208
20179.14839
20179.21238
20179.20197
20179.14307
20179.09095
20179.06203
20179.06283
20179.0897
20179.14052
20179.2113
20179.30215
20179.41338
20179.54315
20179.69354
20179.86656
20180.06158
20180.27852
20180.51687
20180.77513
20181.05338
20181.34943
20181.65656
20181.96224
20182.24956
20182.50197
20182.69516
20182.82574
20182.88428
20182.8267
20182.64863
20182.39647
20182.16057
20182.02596
20181.95129
20181.77801
20181.53987
20181.48342
20181.45771
20181.39552
20181.33922
20181.29186
20181.24846
20181.20763
20181.17243
20181.1529
20181.16995
20181.22594
20181.27706
20181.29157
20181.27687
20181.24922
20181.21861
20181.20472
20181.2231
20181.24603
20181.24906
20181.23701
20181.21677
20181.18528
20181.13648
20181.06801
20180.98313
20180.88784
20180.78776
20180.68695
20180.58867
20180.49614
20180.41177
20180.33712
20180.27365
20180.22256
20180.18458
20180.16002
20180.14897
20180.15124
20180.16637
20180.19359
20180.23206
20180.28109
20180.33958
20180.40573
20180.47809
20180.55566
20180.63747
20180.72219
20180.80836
20180.8952
20180.98111
20181.06604
20181.14844
20181.22845
20181.30519
20181.37836
20181.44767
20181.51294
20181.57415
20181.63121
20181.68424
20181.7333
20181.77858
20181.82026
20181.85857
20181.89373
20181.92601
20181.95564
20181.98288
20182.00797
20182.03115
20182.05266
20182.07272
20182.09152
20182.10928
20182.12616
20182.14234
20182.15795
20182.17314
20182.18799
20182.20265
20182.21717
20182.23166
20182.24614
20182.26072
20182.27541
20182.29028
20182.30532
20182.32061
20182.33611
20182.35188
20182.36785
20182.38404
20182.40038
20182.41686
20182.43336
20182.44985
20182.44985
20183.32573
20183.32573
20183.29393
20183.27096
20183.25486
20183.24387
20183.23831
20183.23929
20183.24693
20183.25957
20183.27446
20183.28918
20183.30238
20183.31384
20183.32384
20183.33237
20183.33934
20183.34494
20183.34955
20183.35243
20183.35084
20183.33751
20183.28705
20183.21156
20183.23081
20183.53117
20183.49049
20183.23452
20183.01122
20182.8004
20182.59094
20182.37873
20182.1623
20181.94097
20181.71417
20181.48118
20181.24092
20180.99185
20180.73175
20180.45723
20180.16129
20180.02253
20180.03253
20180.03165
20180.03257
20180.01891
20179.98557
20179.92957
20179.85515
20179.76716
20179.66457
20179.5447
20179.41003
20179.27519
20179.17037
20179.12778
20179.1519
20179.21504
20179.28443
20179.34165
20179.37815
20179.38881
20179.37291
20179.36389
20179.23227
20179.14316
20179.1818
20179.16834
20179.11555
20179.07065
20179.04769
20179.05264
20179.08222
20179.13453
20179.20596
20179.29692
20179.40772
20179.53702
20179.687
20179.85949
20180.05395
20180.27012
20180.50719
20180.7637
20181.03946
20181.33255
20181.63689
20181.94055
20182.22717
20182.48052
20182.67266
20182.79449
20182.85306
20182.79362
20182.6045
20182.36648
20182.14711
20182.00551
20181.91652
20181.73953
20181.53434
20181.49205
20181.45761
20181.39345
20181.33806
20181.29156
20181.24848
20181.20697
20181.16964
20181.14569
20181.16
20181.22015
20181.27697
20181.29298
20181.27762
20181.24967
20181.21728
20181.20065
20181.21988
20181.24461
20181.24774
20181.23633
20181.21786
20181.18786
20181.13984
20181.07143
20180.98572
20180.88911
20180.78776
20180.68597
20180.58696
20180.49391
20180.4092
20180.33433
20180.27066
20180.21946
20180.18143
20180.15686
20180.1458
20180.1481
20180.16329
20180.19057
20180.22914
20180.27832
20180.33691
20180.40314
20180.47565
20180.55339
20180.63538
20180.72022
20180.80657
20180.89352
20180.97961
20181.06466
20181.14721
20181.22735
20181.30422
20181.3775
20181.44692
20181.51229
20181.57359
20181.63073
20181.68383
20181.73296
20181.7783
20181.82003
20181.85839
20181.89359
20181.9259
20181.95556
20181.98282
20182.00794
20182.03114
20182.05267
20182.07273
20182.09155
20182.10932
20182.12621
20182.1424
20182.15801
20182.1732
20182.18806
20182.20272
20182.21724
20182.23173
20182.24622
20182.2608
20182.27549
20182.29035
20182.3054
20182.32069
20182.33619
20182.35195
20182.36792
20182.38411
20182.40045
20182.41691
20182.4334
20182.44987
20182.44987
20183.30001
20183.30001
20183.28066
20183.26295
20183.24965
20183.24074
20183.23673
20183.23847
20183.24608
20183.2583
20183.27293
20183.28781
20183.30155
20183.31366
20183.32413
20183.33286
20183.33988
20183.34548
20183.35029
20183.35405
20183.3532
20183.33358
20183.26165
20183.17897
20183.1738
20183.34015
20183.35201
20183.19756
20183.00156
20182.79892
20182.59207
20182.38075
20182.16471
20181.94368
20181.71727
20181.48481
20181.24533
20180.99741
20180.73909
20180.46766
20180.17544
20180.0375
20180.02883
20180.03292
20180.03262
20180.01939
20179.98601
20179.93008
20179.85699
20179.77109
20179.66884
20179.54488
20179.39987
20179.24871
20179.12931
20179.08369
20179.1201
20179.20453
20179.29112
20179.35524
20179.38815
20179.39648
20179.3697
20179.32864
20179.21151
20179.11402
20179.1101
20179.09106
20179.05336
20179.02484
20179.01578
20179.03004
20179.06575
20179.12132
20179.19441
20179.28546
20179.39533
20179.524
20179.67315
20179.84455
20180.03797
20180.25263
20180.48737
20180.74058
20181.01146
20181.29875
20181.59756
20181.89719
20182.18197
20182.43653
20182.63419
20182.74045
20182.78189
20182.72273
20182.52654
20182.30949
20182.12354
20181.97315
20181.84957
20181.68303
20181.51598
20181.45846
20181.42497
20181.38147
20181.33307
20181.28924
20181.24706
20181.20454
20181.1633
20181.13085
20181.1401
20181.20718
20181.27255
20181.2891
20181.27169
20181.24467
20181.21434
20181.19914
20181.21993
20181.24347
20181.24435
20181.23402
20181.21834
20181.1889
20181.13866
20181.06726
20180.97913
20180.88086
20180.77843
20180.67604
20180.57689
20180.48392
20180.39937
20180.32473
20180.26138
20180.21049
20180.17278
20180.14854
20180.13784
20180.14052
20180.15606
20180.18373
20180.22278
20180.27239
20180.33127
20180.39786
20180.47086
20180.54905
20180.63143
20180.71662
20180.80335
20180.89063
20180.97707
20181.06244
20181.14529
20181.2257
20181.30284
20181.37632
20181.44596
20181.5115
20181.57296
20181.63024
20181.68346
20181.73269
20181.77812
20181.81992
20181.85833
20181.89358
20181.92592
20181.9556
20181.98288
20182.00801
20182.03121
20182.05274
20182.0728
20182.09161
20182.10937
20182.12625
20182.14242
20182.15802
20182.17321
20182.18806
20182.20272
20182.21723
20182.23172
20182.24621
20182.26079
20182.27548
20182.29035
20182.30541
20182.3207
20182.33622
20182.352
20182.36799
20182.38421
20182.40057
20182.41706
20182.43355
20182.45
20182.45
20183.27929
20183.27929
20183.267
20183.25365
20183.24296
20183.23591
20183.23319
20183.23546
20183.24279
20183.25428
20183.2683
20183.2831
20183.29739
20183.31048
20183.32206
20183.33183
20183.33967
20183.34579
20183.35101
20183.35537
20183.3538
20183.32831
20183.24622
20183.1765
20183.17565
20183.2598
20183.27862
20183.17106
20182.99433
20182.79876
20182.5944
20182.38398
20182.16838
20181.94775
20181.72188
20181.49022
20181.25188
20181.00563
20180.74979
20180.48247
20180.19266
20180.04847
20180.02998
20180.03504
20180.03301
20180.01984
20179.9866
20179.93118
20179.86031
20179.77771
20179.67635
20179.54645
20179.38478
20179.20821
20179.06739
20179.01777
20179.07071
20179.18226
20179.29383
20179.36919
20179.39307
20179.37568
20179.32236
20179.24491
20179.13168
20179.04039
20179.01532
20178.99786
20178.97804
20178.96855
20178.97551
20179.00066
20179.04335
20179.10281
20179.1776
20179.26839
20179.37698
20179.50445
20179.65223
20179.82218
20180.01432
20180.22735
20180.45943
20180.70834
20180.97258
20181.2514
20181.54138
20181.83421
20182.11445
20182.36499
20182.57082
20182.67779
20182.68914
20182.6226
20182.44001
20182.24704
20182.08495
20181.93024
20181.78275
20181.61383
20181.4544
20181.37858
20181.35037
20181.33582
20181.31356
20181.28246
20181.24354
20181.20026
20181.15299
20181.10577
20181.10534
20181.18093
20181.25848
20181.27488
20181.25439
20181.23105
20181.20918
20181.20328
20181.22684
20181.24517
20181.24111
20181.23055
20181.21444
20181.1814
20181.12606
20181.05054
20180.96033
20180.86154
20180.75931
20180.65753
20180.55928
20180.46722
20180.38343
20180.30955
20180.24695
20180.19675
20180.15964
20180.13599
20180.12589
20180.12916
20180.14526
20180.17352
20180.21324
20180.26347
20180.32282
20180.38995
20180.46358
20180.54242
20180.62541
20180.7111
20180.7984
20180.88611
20180.97309
20181.05886
20181.14217
20181.22302
20181.30052
20181.37433
20181.44427
20181.51008
20181.57179
20181.62927
20181.68268
20181.73206
20181.77762
20181.81954
20181.85803
20181.89336
20181.92575
20181.95548
20181.98278
20182.00793
20182.03114
20182.05267
20182.07273
20182.09153
20182.10928
20182.12614
20182.14231
20182.15789
20182.17306
20182.18791
20182.20256
20182.21707
20182.23155
20182.24605
20182.26064
20182.27535
20182.29024
20182.30532
20182.32065
20182.33622
20182.35205
20182.36811
20182.38441
20182.40084
20182.41741
20182.43393
20182.4504
20182.4504
20183.2618
20183.2618
20183.25372
20183.24381
20183.23544
20183.22999
20183.22828
20183.23084
20183.23775
20183.24835
20183.26146
20183.27574
20183.29011
20183.30389
20183.3166
20183.3278
20183.33716
20183.34464
20183.35067
20183.35498
20183.35168
20183.32437
20183.24531
20183.19134
20183.19959
20183.25004
20183.26128
20183.16148
20182.99286
20182.80119
20182.59837
20182.38856
20182.17332
20181.95315
20181.72797
20181.49733
20181.26048
20181.01634
20180.76355
20180.5011
20180.21253
20180.05856
20180.03235
20180.03567
20180.03372
20180.02069
20179.98787
20179.93355
20179.8658
20179.78752
20179.68748
20179.5496
20179.36498
20179.15616
20178.98932
20178.9348
20179.00573
20179.14623
20179.28229
20179.3591
20179.35893
20179.30603
20179.22017
20179.12085
20179.01607
20178.93869
20178.91117
20178.90164
20178.8993
20178.90837
20178.93105
20178.96712
20179.01657
20179.07982
20179.15594
20179.24598
20179.35265
20179.47807
20179.62391
20179.79207
20179.98292
20180.19471
20180.42463
20180.66929
20180.92621
20181.19474
20181.47287
20181.75567
20182.03038
20182.27143
20182.47312
20182.59965
20182.59322
20182.50845
20182.34921
20182.17772
20182.03492
20181.87868
20181.70976
20181.53141
20181.36608
20181.27097
20181.23728
20181.2466
20181.26515
20181.2626
20181.23461
20181.1928
20181.13774
20181.06977
20181.0556
20181.13885
20181.22891
20181.24372
20181.22078
20181.20638
20181.20017
20181.21239
20181.24183
20181.25312
20181.24168
20181.22612
20181.20341
20181.16266
20181.10125
20181.02262
20180.93195
20180.83416
20180.73338
20180.63315
20180.53645
20180.44571
20180.36302
20180.29013
20180.22845
20180.17906
20180.14267
20180.1197
20180.11032
20180.11429
20180.13105
20180.16002
20180.20055
20180.2515
20180.3115
20180.37934
20180.45369
20180.53336
20180.61712
20180.70348
20180.79151
20180.87975
20180.96746
20181.0537
20181.13765
20181.21909
20181.29702
20181.37128
20181.44162
20181.50778
20181.56984
20181.62759
20181.68126
20181.73085
20181.7766
20181.81867
20181.8573
20181.89274
20181.92521
20181.95502
20181.98237
20182.00756
20182.03079
20182.05234
20182.0724
20182.09121
20182.10896
20182.12581
20182.14197
20182.15754
20182.17271
20182.18755
20182.20219
20182.21671
20182.2312
20182.24572
20182.26032
20182.27506
20182.29
20182.30514
20182.32054
20182.33619
20182.35213
20182.3683
20182.38473
20182.4013
20182.418
20182.43462
20182.45118
20182.45118
20183.24643
20183.24643
20183.24097
20183.2337
20183.22732
20183.22326
20183.22237
20183.22514
20183.23162
20183.24135
20183.25344
20183.26691
20183.28089
20183.29478
20183.30813
20183.32049
20183.33141
20183.3406
20183.34781
20183.35189
20183.34703
20183.32164
20183.25696
20183.2184
20183.23465
20183.2767
20183.27764
20183.16781
20182.99828
20182.8069
20182.60426
20182.39454
20182.17953
20181.95983
20181.73547
20181.50607
20181.27098
20181.02935
20180.78006
20180.52316
20180.23547
20180.06969
20180.03531
20180.03582
20180.03507
20180.02266
20179.99069
20179.93818
20179.87437
20179.8012
20179.7026
20179.55487
20179.34451
20179.10238
20178.90833
20178.84569
20178.92947
20179.09064
20179.23554
20179.29832
20179.26928
20179.18515
20179.07943
20178.97539
20178.88377
20178.82344
20178.80402
20178.80649
20178.82094
20178.84731
20178.88482
20178.93126
20178.98682
20179.05329
20179.13004
20179.2185
20179.32226
20179.4444
20179.58722
20179.75295
20179.94235
20180.15348
20180.38249
20180.62429
20180.87478
20181.13286
20181.39744
20181.66557
20181.93132
20182.16923
20182.35773
20182.487
20182.4909
20182.39619
20182.25516
20182.10031
20181.97238
20181.81703
20181.62392
20181.43002
20181.25421
20181.14596
20181.10189
20181.12006
20181.1783
20181.21927
20181.21447
20181.17967
20181.11765
20181.02857
20181.00068
20181.0865
20181.18043
20181.1893
20181.16577
20181.1682
20181.18716
20181.22446
20181.26239
20181.26623
20181.24465
20181.21811
20181.18378
20181.134
20181.06771
20180.98774
20180.89795
20180.80194
20180.70312
20180.60475
20180.50966
20180.42026
20180.3387
20180.26679
20180.20599
20180.15741
20180.12176
20180.09954
20180.09093
20180.09567
20180.11319
20180.14301
20180.18443
20180.23622
20180.29705
20180.36577
20180.441
20180.52164
20180.6063
20180.69354
20180.78243
20180.87139
20180.95996
20181.0468
20181.13159
20181.21371
20181.29219
20181.36703
20181.43785
20181.50449
20181.56697
20181.62506
20181.67906
20181.72893
20181.77493
20181.81722
20181.85602
20181.89162
20181.9242
20181.95413
20181.98155
20182.00681
20182.03008
20182.05167
20182.07176
20182.09058
20182.10834
20182.1252
20182.14136
20182.15694
20182.17211
20182.18695
20182.20161
20182.21614
20182.23065
20182.24519
20182.25983
20182.27462
20182.28962
20182.30484
20182.32034
20182.33611
20182.3522
20182.36854
20182.38517
20182.40194
20182.41884
20182.43563
20182.45233
20182.45233
20183.23247
20183.23247
20183.22873
20183.22346
20183.21873
20183.21587
20183.21568
20183.21862
20183.22474
20183.23371
20183.24486
20183.25742
20183.27074
20183.28431
20183.29775
20183.31066
20183.32265
20183.33324
20183.3416
20183.3459
20183.34004
20183.31885
20183.27439
20183.25176
20183.27308
20183.31649
20183.31081
20183.18625
20183.01012
20182.81594
20182.61209
20182.40191
20182.18693
20181.96771
20181.74428
20181.51631
20181.28327
20181.04446
20180.799
20180.54831
20180.26196
20180.08334
20180.03962
20180.03696
20180.03741
20180.02634
20179.99596
20179.94608
20179.88695
20179.81943
20179.72231
20179.56473
20179.33275
20179.06375
20178.84483
20178.76799
20178.85066
20179.01253
20179.14736
20179.18696
20179.13329
20179.03118
20178.92022
20178.822
20178.74637
20178.70476
20178.69919
20178.71632
20178.74685
20178.78873
20178.83967
20178.8954
20178.95627
20179.02499
20179.10133
20179.18714
20179.28663
20179.40381
20179.54186
20179.70372
20179.89078
20180.10125
20180.33056
20180.57177
20180.81822
20181.06738
20181.31904
20181.57064
20181.81993
20182.05419
20182.23614
20182.35602
20182.3788
20182.28604
20182.15369
20182.0156
20181.89592
20181.74017
20181.52208
20181.30661
20181.12072
20181.00526
20180.95411
20180.9721
20181.05617
20181.14555
20181.17804
20181.15903
20181.09531
20180.99196
20180.95507
20181.03702
20181.11994
20181.11454
20181.09098
20181.11653
20181.17
20181.23567
20181.28138
20181.27695
20181.24294
20181.20244
20181.1559
20181.09866
20181.02933
20180.94921
20180.86071
20180.76648
20180.66949
20180.57274
20180.47901
20180.39078
20180.31022
20180.23918
20180.17921
20180.13143
20180.09657
20180.07514
20180.06737
20180.07297
20180.09138
20180.1222
20180.16462
20180.21737
20180.27923
20180.34902
20180.42533
20180.50707
20180.59278
20180.68112
20180.771
20180.8609
20180.95043
20181.03809
20181.12389
20181.20674
20181.2859
20181.36145
20181.43287
20181.50009
20181.56307
20181.6216
20181.67601
20181.72622
20181.77254
20181.81509
20181.85411
20181.88992
20181.92265
20181.95273
20181.98024
20182.00562
20182.02895
20182.05061
20182.07073
20182.0896
20182.10739
20182.12427
20182.14045
20182.15604
20182.17123
20182.18609
20182.20077
20182.21533
20182.22987
20182.24445
20182.25915
20182.27401
20182.28909
20182.30442
20182.32005
20182.33598
20182.35225
20182.36881
20182.38569
20182.40274
20182.41992
20182.43694
20182.45381
20182.45381
20183.21949
20183.21949
20183.21691
20183.21314
20183.20976
20183.20791
20183.20832
20183.21141
20183.21725
20183.22559
20183.23592
20183.24765
20183.26024
20183.27327
20183.28642
20183.29938
20183.31183
20183.32323
20183.33247
20183.33759
20183.33203
20183.31746
20183.29165
20183.28435
20183.31171
20183.35955
20183.35061
20183.21275
20183.02709
20182.82788
20182.62167
20182.41052
20182.19541
20181.97669
20181.7543
20181.52794
20181.29717
20181.06148
20180.82007
20180.5762
20180.29235
20180.10065
20180.04613
20180.03998
20180.04122
20180.03225
20180.00443
20179.95809
20179.90429
20179.8428
20179.74783
20179.58433
20179.34144
20179.05819
20178.82105
20178.72462
20178.78822
20178.92839
20179.03517
20179.046
20178.97292
20178.86377
20178.75686
20178.67009
20178.61226
20178.58999
20178.60108
20178.63432
20178.68011
20178.73559
20178.79797
20178.86167
20178.9271
20178.99706
20179.07194
20179.15403