# vtk DataFile Version 2.0
FlowField
ASCII
DATASET STRUCTURED_GRID
DIMENSIONS 200 1 200
POINTS 40000 float
0 0 0
0.15 0 0
0.3 0 0
0.45 0 0
0.6 0 0
0.75 0 0
0.9 0 0
1.05 0 0
1.2 0 0
1.35 0 0
1.5 0 0
1.65 0 0
1.8 0 0
1.95 0 0
2.1 0 0
2.25 0 0
2.4 0 0
2.55 0 0
2.7 0 0
2.85 0 0
3 0 0
3.15 0 0
3.3 0 0
3.45 0 0
3.6 0 0
3.75 0 0
3.9 0 0
4.05 0 0
4.2 0 0
4.35 0 0
4.5 0 0
4.65 0 0
4.8 0 0
4.95 0 0
5.1 0 0
5.25 0 0
5.4 0 0
5.55 0 0
5.7 0 0
5.85 0 0
6 0 0
6.15 0 0
6.3 0 0
6.45 0 0
6.6 0 0
6.75 0 0
6.9 0 0
7.05 0 0
7.2 0 0
7.35 0 0
7.5 0 0
7.65 0 0
7.8 0 0
7.95 0 0
8.1 0 0
8.25 0 0
8.4 0 0
8.55 0 0
8.7 0 0
8.85 0 0
9 0 0
9.15 0 0
9.3 0 0
9.45 0 0
9.6 0 0
9.75 0 0
9.9 0 0
10.05 0 0
10.2 0 0
10.35 0 0
10.5 0 0
10.65 0 0
10.8 0 0
10.95 0 0
11.1 0 0
11.25 0 0
11.4 0 0
11.55 0 0
11.7 0 0
11.85 0 0
12 0 0
12.15 0 0
12.3 0 0
12.45 0 0
12.6 0 0
12.75 0 0
12.9 0 0
13.05 0 0
13.2 0 0
13.35 0 0
13.5 0 0
13.65 0 0
13.8 0 0
13.95 0 0
14.1 0 0
14.25 0 0
14.4 0 0
14.55 0 0
14.7 0 0
14.85 0 0
15 0 0
15.15 0 0
15.3 0 0
15.45 0 0
15.6 0 0
15.75 0 0
15.9 0 0
16.05 0 0
16.2 0 0
16.35 0 0
16.5 0 0
16.65 0 0
16.8 0 0
16.95 0 0
17.1 0 0
17.25 0 0
17.4 0 0
17.55 0 0
17.7 0 0
17.85 0 0
18 0 0
18.15 0 0
18.3 0 0
18.45 0 0
18.6 0 0
18.75 0 0
18.9 0 0
19.05 0 0
19.2 0 0
19.35 0 0
19.5 0 0
19.65 0 0
19.8 0 0
19.95 0 0
20.1 0 0
20.25 0 0
20.4 0 0
20.55 0 0
20.7 0 0
20.85 0 0
21 0 0
21.15 0 0
21.3 0 0
21.45 0 0
21.6 0 0
21.75 0 0
21.9 0 0
22.05 0 0
22.2 0 0
22.35 0 0
22.5 0 0
22.65 0 0
22.8 0 0
22.95 0 0
23.1 0 0
23.25 0 0
23.4 0 0
23.55 0 0
23.7 0 0
23.85 0 0
24 0 0
24.15 0 0
24.3 0 0
24.45 0 0
24.6 0 0
24.75 0 0
24.9 0 0
25.05 0 0
25.2 0 0
25.35 0 0
25.5 0 0
25.65 0 0
25.8 0 0
25.95 0 0
26.1 0 0
26.25 0 0
26.4 0 0
26.55 0 0
26.7 0 0
26.85 0 0
27 0 0
27.15 0 0
27.3 0 0
27.45 0 0
27.6 0 0
27.75 0 0
27.9 0 0
28.05 0 0
28.2 0 0
28.35 0 0
28.5 0 0
28.65 0 0
28.8 0 0
28.95 0 0
29.1 0 0
29.25 0 0
29.4 0 0
29.55 0 0
29.7 0 0
29.85 0 0
0 0.075 0
0.15 0.075 0
0.3 0.075 0
0.45 0.075 0
0.6 0.075 0
0.75 0.075 0
0.9 0.075 0
1.05 0.075 0
1.2 0.075 0
1.35 0.075 0
1.5 0.075 0
1.65 0.075 0
1.8 0.075 0
1.95 0.075 0
2.1 0.075 0
2.25 0.075 0
2.4 0.075 0
2.55 0.075 0
2.7 0.075 0
2.85 0.075 0
3 0.075 0
3.15 0.075 0
3.3 0.075 0
3.45 0.075 0
3.6 0.075 0
3.75 0.075 0
3.9 0.075 0
4.05 0.075 0
4.2 0.075 0
4.35 0.075 0
4.5 0.075 0
4.65 0.075 0
4.8 0.075 0
4.95 0.075 0
5.1 0.075 0
5.25 0.075 0
5.4 0.075 0
5.55 0.075 0
5.7 0.075 0
5.85 0.075 0
6 0.075 0
6.15 0.075 0
6.3 0.075 0
6.45 0.075 0
6.6 0.075 0
6.75 0.075 0
6.9 0.075 0
7.05 0.075 0
7.2 0.075 0
7.35 0.075 0
7.5 0.075 0
7.65 0.075 0
7.8 0.075 0
7.95 0.075 0
8.1 0.075 0
8.25 0.075 0
8.4 0.075 0
8.55 0.075 0
8.7 0.075 0
8.85 0.075 0
9 0.075 0
9.15 0.075 0
9.3 0.075 0
9.45 0.075 0
9.6 0.075 0
9.75 0.075 0
9.9 0.075 0
10.05 0.075 0
10.2 0.075 0
10.35 0.075 0
10.5 0.075 0
10.65 0.075 0
10.8 0.075 0
10.95 0.075 0
11.1 0.075 0
11.25 0.075 0
11.4 0.075 0
11.55 0.075 0
11.7 0.075 0
11.85 0.075 0
12 0.075 0
12.15 0.075 0
12.3 0.075 0
12.45 0.075 0
12.6 0.075 0
12.75 0.075 0
12.9 0.075 0
13.05 0.075 0
13.2 0.075 0
13.35 0.075 0
13.5 0.075 0
13.65 0.075 0
13.8 0.075 0
13.95 0.075 0
14.1 0.075 0
14.25 0.075 0
14.4 0.075 0
14.55 0.075 0
14.7 0.075 0
14.85 0.075 0
15 0.075 0
15.15 0.075 0
15.3 0.075 0
15.45 0.075 0
15.6 0.075 0
15.75 0.075 0
15.9 0.075 0
16.05 0.075 0
16.2 0.075 0
16.35 0.075 0
16.5 0.075 0
16.65 0.075 0
16.8 0.075 0
16.95 0.075 0
17.1 0.075 0
17.25 0.075 0
17.4 0.075 0
17.55 0.075 0
17.7 0.075 0
17.85 0.075 0
18 0.075 0
18.15 0.075 0
18.3 0.075 0
18.45 0.075 0
18.6 0.075 0
18.75 0.075 0
18.9 0.075 0
19.05 0.075 0
19.2 0.075 0
19.35 0.075 0
19.5 0.075 0
19.65 0.075 0
19.8 0.075 0
19.95 0.075 0
20.1 0.075 0
20.25 0.075 0
20.4 0.075 0
20.55 0.075 0
20.7 0.075 0
20.85 0.075 0
21 0.075 0
21.15 0.075 0
21.3 0.075 0
21.45 0.075 0
21.6 0.075 0
21.75 0.075 0
21.9 0.075 0
22.05 0.075 0
22.2 0.075 0
22.35 0.075 0
22.5 0.075 0
22.65 0.075 0
22.8 0.075 0
22.95 0.075 0
23.1 0.075 0
23.25 0.075 0
23.4 0.075 0
23.55 0.075 0
23.7 0.075 0
23.85 0.075 0
24 0.075 0
24.15 0.075 0
24.3 0.075 0
24.45 0.075 0
24.6 0.075 0
24.75 0.075 0
24.9 0.075 0
25.05 0.075 0
25.2 0.075 0
25.35 0.075 0
25.5 0.075 0
25.65 0.075 0
25.8 0.075 0
25.95 0.075 0
26.1 0.075 0
26.25 0.075 0
26.4 0.075 0
26.55 0.075 0
26.7 0.075 0
26.85 0.075 0
27 0.075 0
27.15 0.075 0
27.3 0.075 0
27.45 0.075 0
27.6 0.075 0
27.75 0.075 0
27.9 0.075 0
28.05 0.075 0
28.2 0.075 0
28.35 0.075 0
28.5 0.075 0
28.65 0.075 0
28.8 0.075 0
28.95 0.075 0
29.1 0.075 0
29.25 0.075 0
29.4 0.075 0
29.55 0.075 0
29.7 0.075 0
29.85 0.075 0
0 0.15 0
0.15 0.15 0
0.3 0.15 0
0.45 0.15 0
0.6 0.15 0
0.75 0.15 0
0.9 0.15 0
1.05 0.15 0
1.2 0.15 0
1.35 0.15 0
1.5 0.15 0
1.65 0.15 0
1.8 0.15 0
1.95 0.15 0
2.1 0.15 0
2.25 0.15 0
2.4 0.15 0
2.55 0.15 0
2.7 0.15 0
2.85 0.15 0
3 0.15 0
3.15 0.15 0
3.3 0.15 0
3.45 0.15 0
3.6 0.15 0
3.75 0.15 0
3.9 0.15 0
4.05 0.15 0
4.2 0.15 0
4.35 0.15 0
4.5 0.15 0
4.65 0.15 0
4.8 0.15 0
4.95 0.15 0
5.1 0.15 0
5.25 0.15 0
5.4 0.15 0
5.55 0.15 0
5.7 0.15 0
5.85 0.15 0
6 0.15 0
6.15 0.15 0
6.3 0.15 0
6.45 0.15 0
6.6 0.15 0
6.75 0.15 0
6.9 0.15 0
7.05 0.15 0
7.2 0.15 0
7.35 0.15 0
7.5 0.15 0
7.65 0.15 0
7.8 0.15 0
7.95 0.15 0
8.1 0.15 0
8.25 0.15 0
8.4 0.15 0
8.55 0.15 0
8.7 0.15 0
8.85 0.15 0
9 0.15 0
9.15 0.15 0
9.3 0.15 0
9.45 0.15 0
9.6 0.15 0
9.75 0.15 0
9.9 0.15 0
10.05 0.15 0
10.2 0.15 0
10.35 0.15 0
10.5 0.15 0
10.65 0.15 0
10.8 0.15 0
10.95 0.15 0
11.1 0.15 0
11.25 0.15 0
11.4 0.15 0
11.55 0.15 0
11.7 0.15 0
11.85 0.15 0
12 0.15 0
12.15 0.15 0
12.3 0.15 0
12.45 0.15 0
12.6 0.15 0
12.75 0.15 0
12.9 0.15 0
13.05 0.15 0
13.2 0.15 0
13.35 0.15 0
13.5 0.15 0
13.65 0.15 0
13.8 0.15 0
13.95 0.15 0
14.1 0.15 0
14.25 0.15 0
14.4 0.15 0
14.55 0.15 0
14.7 0.15 0
14.85 0.15 0
15 0.15 0
15.15 0.15 0
15.3 0.15 0
15.45 0.15 0
15.6 0.15 0
15.75 0.15 0
15.9 0.15 0
16.05 0.15 0
16.2 0.15 0
16.35 0.15 0
16.5 0.15 0
16.65 0.15 0
16.8 0.15 0
16.95 0.15 0
17.1 0.15 0
17.25 0.15 0
17.4 0.15 0
17.55 0.15 0
17.7 0.15 0
17.85 0.15 0
18 0.15 0
18.15 0.15 0
18.3 0.15 0
18.45 0.15 0
18.6 0.15 0
18.75 0.15 0
18.9 0.15 0
19.05 0.15 0
19.2 0.15 0
19.35 0.15 0
19.5 0.15 0
19.65 0.15 0
19.8 0.15 0
19.95 0.15 0
20.1 0.15 0
20.25 0.15 0
20.4 0.15 0
20.55 0.15 0
20.7 0.15 0
20.85 0.15 0
21 0.15 0
21.15 0.15 0
21.3 0.15 0
21.45 0.15 0
21.6 0.15 0
21.75 0.15 0
21.9 0.15 0
22.05 0.15 0
22.2 0.15 0
22.35 0.15 0
22.5 0.15 0
22.65 0.15 0
22.8 0.15 0
22.95 0.15 0
23.1 0.15 0
23.25 0.15 0
23.4 0.15 0
23.55 0.15 0
23.7 0.15 0
23.85 0.15 0
24 0.15 0
24.15 0.15 0
24.3 0.15 0
24.45 0.15 0
24.6 0.15 0
24.75 0.15 0
24.9 0.15 0
25.05 0.15 0
25.2 0.15 0
25.35 0.15 0
25.5 0.15 0
25.65 0.15 0
25.8 0.15 0
25.95 0.15 0
26.1 0.15 0
26.25 0.15 0
26.4 0.15 0
26.55 0.15 0
26.7 0.15 0
26.85 0.15 0
27 0.15 0
27.15 0.15 0
27.3 0.15 0
27.45 0.15 0
27.6 0.15 0
27.75 0.15 0
27.9 0.15 0
28.05 0.15 0
28.2 0.15 0
28.35 0.15 0
28.5 0.15 0
28.65 0.15 0
28.8 0.15 0
28.95 0.15 0
29.1 0.15 0
29.25 0.15 0
29.4 0.15 0
29.55 0.15 0
29.7 0.15 0
29.85 0.15 0
0 0.225 0
0.15 0.225 0
0.3 0.225 0
0.45 0.225 0
0.6 0.225 0
0.75 0.225 0
0.9 0.225 0
1.05 0.225 0
1.2 0.225 0
1.35 0.225 0
1.5 0.225 0
1.65 0.225 0
1.8 0.225 0
1.95 0.225 0
2.1 0.225 0
2.25 0.225 0
2.4 0.225 0
2.55 0.225 0
2.7 0.225 0
2.85 0.225 0
3 0.225 0
3.15 0.225 0
3.3 0.225 0
3.45 0.225 0
3.6 0.225 0
3.75 0.225 0
3.9 0.225 0
4.05 0.225 0
4.2 0.225 0
4.35 0.225 0
4.5 0.225 0
4.65 0.225 0
4.8 0.225 0
4.95 0.225 0
5.1 0.225 0
5.25 0.225 0
5.4 0.225 0
5.55 0.225 0
5.7 0.225 0
5.85 0.225 0
6 0.225 0
6.15 0.225 0
6.3 0.225 0
6.45 0.225 0
6.6 0.225 0
6.75 0.225 0
6.9 0.225 0
7.05 0.225 0
7.2 0.225 0
7.35 0.225 0
7.5 0.225 0
7.65 0.225 0
7.8 0.225 0
7.95 0.225 0
8.1 0.225 0
8.25 0.225 0
8.4 0.225 0
8.55 0.225 0
8.7 0.225 0
8.85 0.225 0
9 0.225 0
9.15 0.225 0
9.3 0.225 0
9.45 0.225 0
9.6 0.225 0
9.75 0.225 0
9.9 0.225 0
10.05 0.225 0
10.2 0.225 0
10.35 0.225 0
10.5 0.225 0
10.65 0.225 0
10.8 0.225 0
10.95 0.225 0
11.1 0.225 0
11.25 0.225 0
11.4 0.225 0
11.55 0.225 0
11.7 0.225 0
11.85 0.225 0
12 0.225 0
12.15 0.225 0
12.3 0.225 0
12.45 0.225 0
12.6 0.225 0
12.75 0.225 0
12.9 0.225 0
13.05 0.225 0
13.2 0.225 0
13.35 0.225 0
13.5 0.225 0
13.65 0.225 0
13.8 0.225 0
13.95 0.225 0
14.1 0.225 0
14.25 0.225 0
14.4 0.225 0
14.55 0.225 0
14.7 0.225 0
14.85 0.225 0
15 0.225 0
15.15 0.225 0
15.3 0.225 0
15.45 0.225 0
15.6 0.225 0
15.75 0.225 0
15.9 0.225 0
16.05 0.225 0
16.2 0.225 0
16.35 0.225 0
16.5 0.225 0
16.65 0.225 0
16.8 0.225 0
16.95 0.225 0
17.1 0.225 0
17.25 0.225 0
17.4 0.225 0
17.55 0.225 0
17.7 0.225 0
17.85 0.225 0
18 0.225 0
18.15 0.225 0
18.3 0.225 0
18.45 0.225 0
18.6 0.225 0
18.75 0.225 0
18.9 0.225 0
19.05 0.225 0
19.2 0.225 0
19.35 0.225 0
19.5 0.225 0
19.65 0.225 0
19.8 0.225 0
19.95 0.225 0
20.1 0.225 0
20.25 0.225 0
20.4 0.225 0
20.55 0.225 0
20.7 0.225 0
20.85 0.225 0
21 0.225 0
21.15 0.225 0
21.3 0.225 0
21.45 0.225 0
21.6 0.225 0
21.75 0.225 0
21.9 0.225 0
22.05 0.225 0
22.2 0.225 0
22.35 0.225 0
22.5 0.225 0
22.65 0.225 0
22.8 0.225 0
22.95 0.225 0
23.1 0.225 0
23.25 0.225 0
23.4 0.225 0
23.55 0.225 0
23.7 0.225 0
23.85 0.225 0
24 0.225 0
24.15 0.225 0
24.3 0.225 0
24.45 0.225 0
24.6 0.225 0
24.75 0.225 0
24.9 0.225 0
25.05 0.225 0
25.2 0.225 0
25.35 0.225 0
25.5 0.225 0
25.65 0.225 0
25.8 0.225 0
25.95 0.225 0
26.1 0.225 0
26.25 0.225 0
26.4 0.225 0
26.55 0.225 0
26.7 0.225 0
26.85 0.225 0
27 0.225 0
27.15 0.225 0
27.3 0.225 0
27.45 0.225 0
27.6 0.225 0
27.75 0.225 0
27.9 0.225 0
28.05 0.225 0
28.2 0.225 0
28.35 0.225 0
28.5 0.225 0
28.65 0.225 0
28.8 0.225 0
28.95 0.225 0
29.1 0.225 0
29.25 0.225 0
29.4 0.225 0
29.55 0.225 0
29.7 0.225 0
29.85 0.225 0
0 0.3 0
0.15 0.3 0
0.3 0.3 0
0.45 0.3 0
0.6 0.3 0
0.75 0.3 0
0.9 0.3 0
1.05 0.3 0
1.2 0.3 0
1.35 0.3 0
1.5 0.3 0
1.65 0.3 0
1.8 0.3 0
1.95 0.3 0
2.1 0.3 0
2.25 0.3 0
2.4 0.3 0
2.55 0.3 0
2.7 0.3 0
2.85 0.3 0
3 0.3 0
3.15 0.3 0
3.3 0.3 0
3.45 0.3 0
3.6 0.3 0
3.75 0.3 0
3.9 0.3 0
4.05 0.3 0
4.2 0.3 0
4.35 0.3 0
4.5 0.3 0
4.65 0.3 0
4.8 0.3 0
4.95 0.3 0
5.1 0.3 0
5.25 0.3 0
5.4 0.3 0
5.55 0.3 0
5.7 0.3 0
5.85 0.3 0
6 0.3 0
6.15 0.3 0
[...]
POINT_DATA 40000

SCALARS p float 1
LOOKUP_TABLE default
18249.09309
18249.09309
18249.03734
18249.00679
18248.98364
18248.96526
18248.9554
18248.95616
18248.96462
18248.97649
18248.98917
18249.00178
18249.01435
18249.02716
18249.04054
18249.05483
18249.07038
18249.0876
18249.10701
18249.12914
18249.15474
18249.18381
18249.21801
18249.25303
18249.28938
18249.32932
18249.2521
18248.94813
18248.6471
18248.34969
18248.05508
18247.76135
18247.46582
18247.16531
18246.85655
18246.53674
18246.20194
18245.85092
18245.48126
18245.09028
18244.66188
18244.42329
18244.29832
18243.96748
18243.57603
18243.5537
18244.00162
18244.64918
18245.26124
18245.74958
18246.10769
18246.35927
18246.53282
18246.65287
18246.73791
18246.80075
18246.84965
18246.88968
18246.92379
18246.95367
18246.98029
18247.00425
18247.02592
18247.04555
18247.06333
18247.07942
18247.09395
18247.10703
18247.11875
18247.1292
18247.13846
18247.14661
18247.1537
18247.1598
18247.16497
18247.16926
18247.1727
18247.17535
18247.17725
18247.17843
18247.17893
18247.17878
18247.178
18247.17663
18247.1747
18247.17221
18247.1692
18247.16569
18247.16169
18247.15722
18247.15231
18247.14695
18247.14118
18247.13499
18247.12841
18247.12145
18247.11411
18247.10641
18247.09835
18247.08995
18247.0812
18247.07213
18247.06274
18247.05304
18247.04302
18247.0327
18247.02209
18247.01118
18246.99998
18246.98851
18246.97675
18246.96473
18246.95243
18246.93987
18246.92705
18246.91397
18246.90063
18246.88704
18246.8732
18246.85911
18246.84478
18246.83021
18246.81539
18246.80034
18246.78505
18246.76953
18246.75378
18246.73779
18246.72158
18246.70514
18246.68847
18246.67157
18246.65446
18246.63712
18246.61956
18246.60178
18246.58378
18246.56556
18246.54712
18246.52847
18246.5096
18246.49051
18246.47122
18246.4517
18246.43198
18246.41204
18246.39189
18246.37153
18246.35096
18246.33018
18246.30919
18246.28798
18246.26657
18246.24495
18246.22313
18246.20109
18246.17885
18246.1564
18246.13374
18246.11087
18246.0878
18246.06453
18246.04104
18246.01735
18245.99346
18245.96936
18245.94506
18245.92055
18245.89583
18245.87091
18245.84579
18245.82046
18245.79493
18245.7692
18245.74326
18245.71712
18245.69078
18245.66423
18245.63748
18245.61053
18245.58338
18245.55602
18245.52847
18245.50071
18245.47275
18245.44459
18245.41623
18245.38767
18245.35891
18245.32996
18245.3008
18245.27146
18245.2419
18245.21219
18245.18221
18245.15216
18245.12179
18245.09136
18245.06049
18245.06049
18249.09309
18249.09309
18249.03734
18249.00679
18248.98364
18248.96526
18248.9554
18248.95616
18248.96462
18248.97649
18248.98917
18249.00178
18249.01435
18249.02716
18249.04054
18249.05483
18249.07038
18249.0876
18249.10701
18249.12914
18249.15474
18249.18381
18249.21801
18249.25303
18249.28938
18249.32932
18249.2521
18248.94813
18248.6471
18248.34969
18248.05508
18247.76135
18247.46582
18247.16531
18246.85655
18246.53674
18246.20194
18245.85092
18245.48126
18245.09028
18244.66188
18244.42329
18244.29832
18243.96748
18243.57603
18243.5537
18244.00162
18244.64918
18245.26124
18245.74958
18246.10769
18246.35927
18246.53282
18246.65287
18246.73791
18246.80075
18246.84965
18246.88968
18246.92379
18246.95367
18246.98029
18247.00425
18247.02592
18247.04555
18247.06333
18247.07942
18247.09395
18247.10703
18247.11875
18247.1292
18247.13846
18247.14661
18247.1537
18247.1598
18247.16497
18247.16926
18247.1727
18247.17535
18247.17725
18247.17843
18247.17893
18247.17878
18247.178
18247.17663
18247.1747
18247.17221
18247.1692
18247.16569
18247.16169
18247.15722
18247.15231
18247.14695
18247.14118
18247.13499
18247.12841
18247.12145
18247.11411
18247.10641
18247.09835
18247.08995
18247.0812
18247.07213
18247.06274
18247.05304
18247.04302
18247.0327
18247.02209
18247.01118
18246.99998
18246.98851
18246.97675
18246.96473
18246.95243
18246.93987
18246.92705
18246.91397
18246.90063
18246.88704
18246.8732
18246.85911
18246.84478
18246.83021
18246.81539
18246.80034
18246.78505
18246.76953
18246.75378
18246.73779
18246.72158
18246.70514
18246.68847
18246.67157
18246.65446
18246.63712
18246.61956
18246.60178
18246.58378
18246.56556
18246.54712
18246.52847
18246.5096
18246.49051
18246.47122
18246.4517
18246.43198
18246.41204
18246.39189
18246.37153
18246.35096
18246.33018
18246.30919
18246.28798
18246.26657
18246.24495
18246.22313
18246.20109
18246.17885
18246.1564
18246.13374
18246.11087
18246.0878
18246.06453
18246.04104
18246.01735
18245.99346
18245.96936
18245.94506
18245.92055
18245.89583
18245.87091
18245.84579
18245.82046
18245.79493
18245.7692
18245.74326
18245.71712
18245.69078
18245.66423
18245.63748
18245.61053
18245.58338
18245.55602
18245.52847
18245.50071
18245.47275
18245.44459
18245.41623
18245.38767
18245.35891
18245.32996
18245.3008
18245.27146
18245.2419
18245.21219
18245.18221
18245.15216
18245.12179
18245.09136
18245.06049
18245.06049
18249.06179
18249.06179
18249.02954
18249.00382
18248.98299
18248.96629
18248.95717
18248.95774
18248.9657
18248.97717
18248.98962
18249.00211
18249.0146
18249.02734
18249.04065
18249.05486
18249.07031
18249.08741
18249.10667
18249.12864
18249.1541
18249.18309
18249.21743
18249.25334
18249.28994
18249.34144
18249.24965
18248.94959
18248.64857
18248.35137
18248.05723
18247.76418
18247.4694
18247.16973
18246.8617
18246.54242
18246.20877
18245.85779
18245.48842
18245.10201
18244.69975
18244.50904
18244.29454
18243.84325
18243.40072
18243.40439
18243.90412
18244.59221
18245.2283
18245.73019
18246.09701
18246.35395
18246.53036
18246.65172
18246.73727
18246.8003
18246.84928
18246.88936
18246.92351
18246.95343
18246.9801
18247.0041
18247.02579
18247.04545
18247.06326
18247.07937
18247.09391
18247.107
18247.11872
18247.12918
18247.13845
18247.1466
18247.1537
18247.1598
18247.16497
18247.16926
18247.1727
18247.17535
18247.17725
18247.17843
18247.17893
18247.17877
18247.178
18247.17662
18247.17468
18247.1722
18247.16919
18247.16567
18247.16167
18247.1572
18247.15229
18247.14693
18247.14115
18247.13497
18247.12838
18247.12142
18247.11408
18247.10637
18247.09831
18247.08991
18247.08117
18247.0721
18247.0627
18247.05299
18247.04298
18247.03266
18247.02204
18247.01113
18246.99993
18246.98846
18246.9767
18246.96468
18246.95238
18246.93982
18246.92699
18246.91391
18246.90057
18246.88698
18246.87314
18246.85905
18246.84472
18246.83015
18246.81533
18246.80028
18246.78499
18246.76947
18246.75371
18246.73773
18246.72151
18246.70507
18246.6884
18246.67151
18246.65439
18246.63705
18246.61949
18246.60171
18246.58371
18246.56549
18246.54705
18246.5284
18246.50953
18246.49044
18246.47114
18246.45163
18246.4319
18246.41197
18246.39182
18246.37146
18246.35088
18246.3301
18246.30911
18246.28791
18246.2665
18246.24488
18246.22305
18246.20101
18246.17877
18246.15632
18246.13366
18246.11079
18246.08772
18246.06445
18246.04096
18246.01727
18245.99338
18245.96928
18245.94497
18245.92046
18245.89575
18245.87083
18245.84571
18245.82038
18245.79485
18245.76912
18245.74318
18245.71704
18245.6907
18245.66415
18245.6374
18245.61045
18245.58329
18245.55594
18245.52838
18245.50062
18245.47266
18245.4445
18245.41615
18245.38759
18245.35883
18245.32987
18245.30071
18245.27137
18245.24181
18245.2121
18245.18213
18245.15206
18245.12171
18245.09128
18245.06027
18245.06027
18249.03793
18249.03793
18249.01839
18248.99843
18248.98126
18248.96764
18248.96012
18248.96051
18248.96745
18248.97799
18248.98985
18249.002
18249.01427
18249.02683
18249.03996
18249.05394
18249.06911
18249.08585
18249.10465
18249.12605
18249.15083
18249.17916
18249.21279
18249.24874
18249.28576
18249.34048
18249.24597
18248.94886
18248.64783
18248.35104
18248.05789
18247.76623
18247.47302
18247.17494
18246.86862
18246.55048
18246.2181
18245.8685
18245.49916
18245.11591
18244.72875
18244.55343
18244.21859
18243.58118
18243.05021
18243.10799
18243.71438
18244.48171
18245.16134
18245.68783
18246.0708
18246.33834
18246.52117
18246.64619
18246.73384
18246.79809
18246.84783
18246.8884
18246.92287
18246.95301
18246.97983
18247.00394
18247.02572
18247.04543
18247.06328
18247.07942
18247.09399
18247.10709
18247.11883
18247.12929
18247.13856
18247.14671
18247.15381
18247.15991
18247.16507
18247.16935
18247.17279
18247.17544
18247.17733
18247.1785
18247.179
18247.17883
18247.17805
18247.17668
18247.17473
18247.17224
18247.16922
18247.1657
18247.16169
18247.15722
18247.1523
18247.14694
18247.14116
18247.13497
18247.12838
18247.12141
18247.11407
18247.10636
18247.09829
18247.08989
18247.08114
18247.07207
18247.06267
18247.05296
18247.04294
18247.03262
18247.022
18247.01109
18246.99989
18246.98841
18246.97665
18246.96462
18246.95232
18246.93976
18246.92693
18246.91385
18246.90051
18246.88692
18246.87307
18246.85899
18246.84465
18246.83008
18246.81526
18246.80021
18246.78492
18246.76939
18246.75364
18246.73765
18246.72143
18246.70499
18246.68832
18246.67142
18246.65431
18246.63696
18246.6194
18246.60162
18246.58362
18246.5654
18246.54696
18246.52831
18246.50944
18246.49035
18246.47105
18246.45154
18246.43181
18246.41187
18246.39172
18246.37136
18246.35079
18246.33
18246.30901
18246.28781
18246.2664
18246.24478
18246.22295
18246.20091
18246.17867
18246.15622
18246.13356
18246.11069
18246.08762
18246.06434
18246.04086
18246.01717
18245.99328
18245.96917
18245.94487
18245.92036
18245.89565
18245.87073
18245.8456
18245.82028
18245.79475
18245.76901
18245.74307
18245.71693
18245.69059
18245.66404
18245.63729
18245.61034
18245.58319
18245.55583
18245.52827
18245.50051
18245.47255
18245.44439
18245.41603
18245.38747
18245.35872
18245.32976
18245.3006
18245.27125
18245.2417
18245.21197
18245.18202
18245.15192
18245.1216
18245.09115
18245.05994
18245.05994
18249.01943
18249.01943
18249.00722
18248.99217
18248.97853
18248.96788
18248.96213
18248.96265
18248.96876
18248.97836
18248.98953
18249.00124
18249.0132
18249.02548
18249.03831
18249.05192
18249.06662
18249.08275
18249.10075
18249.12113
18249.14461
18249.17158
18249.20346
18249.23808
18249.27366
18249.3216
18249.23203
18248.94647
18248.64594
18248.34979
18248.05822
18247.76872
18247.47796
18247.18225
18246.87838
18246.56253
18246.23134
18245.88354
18245.51464
18245.12923
18244.73007
18244.50629
18244.03212
18243.20904
18242.57701
18242.70325
18243.46009
18244.33393
18245.06709
18245.62429
18246.02896
18246.31178
18246.50454
18246.63569
18246.72711
18246.79375
18246.84505
18246.88664
18246.9218
18246.95239
18246.97952
18247.00383
18247.02575
18247.04556
18247.06348
18247.07966
18247.09425
18247.10737
18247.11912
18247.12958
18247.13885
18247.14699
18247.15408
18247.16017
18247.16533
18247.16959
18247.17302
18247.17565
18247.17753
18247.17869
18247.17917
18247.179
18247.17821
18247.17682
18247.17486
18247.17236
18247.16933
18247.1658
18247.16179
18247.15731
18247.15238
18247.14701
18247.14122
18247.13502
18247.12843
18247.12145
18247.1141
18247.10639
18247.09832
18247.08991
18247.08116
18247.07208
18247.06268
18247.05296
18247.04294
18247.03261
18247.02199
18247.01107
18246.99987
18246.98839
18246.97663
18246.96459
18246.95229
18246.93973
18246.9269
18246.91381
18246.90047
18246.88687
18246.87303
18246.85894
18246.8446
18246.83002
18246.8152
18246.80015
18246.78486
18246.76933
18246.75357
18246.73758
18246.72137
18246.70492
18246.68825
18246.67135
18246.65423
18246.63689
18246.61933
18246.60154
18246.58354
18246.56532
18246.54688
18246.52822
18246.50935
18246.49027
18246.47097
18246.45145
18246.43172
18246.41179
18246.39163
18246.37127
18246.3507
18246.32991
18246.30892
18246.28772
18246.2663
18246.24468
18246.22285
18246.20082
18246.17857
18246.15612
18246.13346
18246.11059
18246.08752
18246.06424
18246.04076
18246.01707
18245.99317
18245.96907
18245.94477
18245.92026
18245.89554
18245.87062
18245.8455
18245.82017
18245.79464
18245.76891
18245.74297
18245.71683
18245.69048
18245.66393
18245.63719
18245.61023
18245.58308
18245.55572
18245.52817
18245.50041
18245.47245
18245.44429
18245.41593
18245.38736
18245.35861
18245.32965
18245.30049
18245.27114
18245.24159
18245.21185
18245.1819
18245.15179
18245.12147
18245.091
18245.05964
18245.05964
18249.00448
18249.00448
18248.99669
18248.98558
18248.97502
18248.96683
18248.96259
18248.96339
18248.96897
18248.97785
18248.98843
18248.99971
18249.01132
18249.02327
18249.0357
18249.04882
18249.06287
18249.07816
18249.09505
18249.11401
18249.13565
18249.16047
18249.18967
18249.22166
18249.25386
18249.29753
18249.21957
18248.9441
18248.64281
18248.34751
18248.05821
18247.77171
18247.48423
18247.19192
18246.891
18246.5783
18246.2496
18245.9028
18245.53438
18245.14396
18244.70605
18244.37897
18243.7667
18242.78019
18242.04231
18242.24068
18243.17801
18244.17534
18244.96143
18245.54816
18245.97635
18246.27731
18246.48248
18246.6216
18246.71809
18246.78801
18246.84146
18246.88449
18246.92059
18246.95181
18246.97935
18247.00393
18247.02603
18247.04595
18247.06394
18247.08016
18247.09478
18247.1079
18247.11965
18247.1301
18247.13935
18247.14748
18247.15455
18247.16062
18247.16575
18247.16999
18247.1734
18247.17601
18247.17787
18247.17901
18247.17947
18247.17928
18247.17847
18247.17706
18247.17509
18247.17257
18247.16953
18247.16599
18247.16196
18247.15747
18247.15252
18247.14715
18247.14135
18247.13514
18247.12854
18247.12155
18247.11419
18247.10647
18247.09839
18247.08997
18247.08121
18247.07213
18247.06272
18247.053
18247.04297
18247.03263
18247.02201
18247.01109
18246.99988
18246.98839
18246.97663
18246.96459
18246.95228
18246.93971
18246.92688
18246.91379
18246.90044
18246.88685
18246.873
18246.8589
18246.84457
18246.82998
18246.81516
18246.8001
18246.78481
18246.76928
18246.75352
18246.73753
18246.72131
18246.70486
18246.68819
18246.67129
18246.65417
18246.63683
18246.61926
18246.60148
18246.58347
18246.56525
18246.54681
18246.52815
18246.50928
18246.49019
18246.47089
18246.45137
18246.43165
18246.4117
18246.39155
18246.37119
18246.35061
18246.32983
18246.30883
18246.28763
18246.26622
18246.24459
18246.22276
18246.20073
18246.17848
18246.15603
18246.13337
18246.1105
18246.08743
18246.06415
18246.04066
18246.01697
18245.99308
18245.96898
18245.94467
18245.92016
18245.89544
18245.87052
18245.8454
18245.82007
18245.79454
18245.7688
18245.74287
18245.71672
18245.69038
18245.66383
18245.63708
18245.61013
18245.58297
18245.55562
18245.52806
18245.5003
18245.47234
18245.44418
18245.41582
18245.38726
18245.35849
18245.32954
18245.30038
18245.27102
18245.24147
18245.21173
18245.18178
18245.15166
18245.12133
18245.09083
18245.05939
18245.05939
18248.99191
18248.99191
18248.98694
18248.97886
18248.97087
18248.96471
18248.96173
18248.96287
18248.96812
18248.97644
18248.98652
18248.99739
18249.00864
18249.0202
18249.03217
18249.04469
18249.05797
18249.07223
18249.08775
18249.10492
18249.12423
18249.1462
18249.17183
18249.20001
18249.22736
18249.28098
18249.21936
18248.94127
18248.63786
18248.3439
18248.05771
18247.77521
18247.49195
18247.20383
18246.907
18246.59761
18246.27283
18245.92809
18245.55847
18245.16381
18244.67546
18244.21869
18243.49156
18242.3798
18241.54464
18241.80562
18242.91939
18244.03548
18244.86255
18245.47025
18245.91938
18246.23875
18246.45732
18246.60537
18246.7077
18246.78147
18246.83749
18246.88222
18246.91946
18246.95142
18246.97944
18247.00433
18247.02662
18247.04666
18247.06472
18247.08097
18247.0956
18247.10871
18247.12044
18247.13087
18247.14009
18247.14818
18247.15522
18247.16125
18247.16635
18247.17056
18247.17394
18247.17652
18247.17835
18247.17946
18247.17989
18247.17968
18247.17884
18247.17741
18247.17542
18247.17288
18247.16982
18247.16626
18247.16221
18247.1577
18247.15274
18247.14735
18247.14153
18247.13531
18247.1287
18247.1217
18247.11433
18247.10659
18247.09851
18247.09008
18247.08131
18247.07221
18247.0628
18247.05307
18247.04303
18247.03269
18247.02206
18247.01113
18246.99992
18246.98842
18246.97665
18246.96461
18246.9523
18246.93972
18246.92689
18246.91379
18246.90044
18246.88684
18246.87299
18246.85889
18246.84455
18246.82996
18246.81514
18246.80008
18246.78478
18246.76925
18246.75349
18246.73749
18246.72127
18246.70482
18246.68814
18246.67124
18246.65412
18246.63677
18246.61921
18246.60142
18246.58341
18246.56519
18246.54674
18246.52809
18246.50921
18246.49012
18246.47082
18246.4513
18246.43157
18246.41163
18246.39148
18246.37111
18246.35053
18246.32975
18246.30875
18246.28755
18246.26613
18246.24451
18246.22268
18246.20064
18246.17839
18246.15594
18246.13328
18246.11041
18246.08734
18246.06406
18246.04057
18246.01688
18245.99298
18245.96888
18245.94457
18245.92006
18245.89535
18245.87043
18245.8453
18245.81997
18245.79444
18245.7687
18245.74277
18245.71662
18245.69028
18245.66373
18245.63698
18245.61002
18245.58287
18245.55551
18245.52795
18245.50019
18245.47223
18245.44407
18245.41571
18245.38715
18245.35839
18245.32942
18245.30027
18245.27091
18245.24135
18245.21161
18245.18166
18245.15152
18245.12119
18245.09066
18245.05917
18245.05917
18248.98099
18248.98099
18248.97789
18248.97212
18248.96623
18248.96175
18248.95984
18248.96133
18248.96638
18248.97426
18248.98389
18248.99436
18249.00522
18249.01635
18249.02778
18249.03963
18249.05201
18249.06508
18249.07902
18249.09409
18249.11066
18249.12915
18249.15037
18249.1736
18249.1938
18249.25535
18249.20852
18248.93132
18248.6296
18248.33844
18248.05664
18247.77931
18247.50142
18247.21813
18246.92634
18246.62131
18246.30018
18245.9592
18245.58846
18245.18744
18244.65273
18244.0808
18243.28259
18242.10247
18241.20304
18241.50605
18242.74668
18243.94245
18244.78604
18245.40125
18245.8651
18246.2005
18246.43172
18246.58859
18246.6969
18246.77473
18246.83351
18246.88009
18246.91856
18246.95133
18246.97987
18247.00509
18247.02758
18247.04773
18247.06584
18247.08211
18247.09672
18247.10982
18247.1215
18247.13189
18247.14107
18247.14911
18247.1561
18247.16209
18247.16714
18247.17131
18247.17464
18247.17718
18247.17897
18247.18004
18247.18044
18247.18019
18247.17932
18247.17786
18247.17584
18247.17327
18247.17019
18247.1666
18247.16254
18247.158
18247.15302
18247.14761
18247.14178
18247.13554
18247.12891
18247.1219
18247.11451
18247.10677
18247.09867
18247.09023
18247.08145
18247.07234
18247.06292
18247.05318
18247.04313
18247.03278
18247.02214
18247.0112
18246.99998
18246.98848
18246.97671
18246.96466
18246.95234
18246.93976
18246.92692
18246.91382
18246.90046
18246.88685
18246.873
18246.85889
18246.84455
18246.82996
18246.81513
18246.80006
18246.78476
18246.76923
18246.75346
18246.73747
18246.72124
18246.70479
18246.68811
18246.6712
18246.65408
18246.63673
18246.61916
18246.60137
18246.58336
18246.56513
18246.54669
18246.52803
18246.50915
18246.49006
18246.47076
18246.45124
18246.43151
18246.41156
18246.39141
18246.37104
18246.35046
18246.32967
18246.30868
18246.28747
18246.26606
18246.24443
18246.2226
18246.20056
18246.17831
18246.15586
18246.13319
18246.11033
18246.08725
18246.06397
18246.04048
18246.01679
18245.99289
18245.96879
18245.94448
18245.91997
18245.89525
18245.87033
18245.84521
18245.81988
18245.79434
18245.76861
18245.74267
18245.71652
18245.69018
18245.66363
18245.63688
18245.60992
18245.58277
18245.55541
18245.52785
18245.50009
18245.47213
18245.44397
18245.4156
18245.38704
18245.35828
18245.32931
18245.30015
18245.27079
18245.24124
18245.21148
18245.18153
18245.15139
18245.12104
18245.0905
18245.05898
18245.05898
18248.97124
18248.97124
18248.96942
18248.96542
18248.96122
18248.95813
18248.95712
18248.95896
18248.96389
18248.97142
18248.98061
18248.99066
18249.00111
18249.01176
18249.02262
18249.03372
18249.04511
18249.05687
18249.06906
18249.08179
18249.09526
18249.10977
18249.12588
18249.14326
18249.15498
18249.2028
18249.16739
18248.9129
18248.61718
18248.33068
18248.05502
18247.78429
18247.51282
18247.23559
18246.94894
18246.64984
18246.3333
18245.99626
18245.62712
18245.22359
18244.66017
18244.01459
18243.19298
18242.01782
18241.11686
18241.43718
18242.71676
18243.91875
18244.74254
18245.34919
18245.81963
18246.16664
18246.40822
18246.57284
18246.68668
18246.7684
18246.82988
18246.87832
18246.91804
18246.95163
18246.9807
18247.00625
18247.02892
18247.04917
18247.06731
18247.08358
18247.09817
18247.11121
18247.12285
18247.13318
18247.14229
18247.15027
18247.15719
18247.16312
18247.16811
18247.17222
18247.1755