# vtk DataFile Version 2.0
FlowField
ASCII
DATASET STRUCTURED_GRID
DIMENSIONS 200 1 200
POINTS 40000 float
0 0 0
0.15 0 0
0.3 0 0
0.45 0 0
0.6 0 0
0.75 0 0
0.9 0 0
1.05 0 0
1.2 0 0
1.35 0 0
1.5 0 0
1.65 0 0
1.8 0 0
1.95 0 0
2.1 0 0
2.25 0 0
2.4 0 0
2.55 0 0
2.7 0 0
2.85 0 0
3 0 0
3.15 0 0
3.3 0 0
3.45 0 0
3.6 0 0
3.75 0 0
3.9 0 0
4.05 0 0
4.2 0 0
4.35 0 0
4.5 0 0
4.65 0 0
4.8 0 0
4.95 0 0
5.1 0 0
5.25 0 0
5.4 0 0
5.55 0 0
5.7 0 0
5.85 0 0
6 0 0
6.15 0 0
6.3 0 0
6.45 0 0
6.6 0 0
6.75 0 0
6.9 0 0
7.05 0 0
7.2 0 0
7.35 0 0
7.5 0 0
7.65 0 0
7.8 0 0
7.95 0 0
8.1 0 0
8.25 0 0
8.4 0 0
8.55 0 0
8.7 0 0
8.85 0 0
9 0 0
9.15 0 0
9.3 0 0
9.45 0 0
9.6 0 0
9.75 0 0
9.9 0 0
10.05 0 0
10.2 0 0
10.35 0 0
10.5 0 0
10.65 0 0
10.8 0 0
10.95 0 0
11.1 0 0
11.25 0 0
11.4 0 0
11.55 0 0
11.7 0 0
11.85 0 0
12 0 0
12.15 0 0
12.3 0 0
12.45 0 0
12.6 0 0
12.75 0 0
12.9 0 0
13.05 0 0
13.2 0 0
13.35 0 0
13.5 0 0
13.65 0 0
13.8 0 0
13.95 0 0
14.1 0 0
14.25 0 0
14.4 0 0
14.55 0 0
14.7 0 0
14.85 0 0
15 0 0
15.15 0 0
15.3 0 0
15.45 0 0
15.6 0 0
15.75 0 0
15.9 0 0
16.05 0 0
16.2 0 0
16.35 0 0
16.5 0 0
16.65 0 0
16.8 0 0
16.95 0 0
17.1 0 0
17.25 0 0
17.4 0 0
17.55 0 0
17.7 0 0
17.85 0 0
18 0 0
18.15 0 0
18.3 0 0
18.45 0 0
18.6 0 0
18.75 0 0
18.9 0 0
19.05 0 0
19.2 0 0
19.35 0 0
19.5 0 0
19.65 0 0
19.8 0 0
19.95 0 0
20.1 0 0
20.25 0 0
20.4 0 0
20.55 0 0
20.7 0 0
20.85 0 0
21 0 0
21.15 0 0
21.3 0 0
21.45 0 0
21.6 0 0
21.75 0 0
21.9 0 0
22.05 0 0
22.2 0 0
22.35 0 0
22.5 0 0
22.65 0 0
22.8 0 0
22.95 0 0
23.1 0 0
23.25 0 0
23.4 0 0
23.55 0 0
23.7 0 0
23.85 0 0
24 0 0
24.15 0 0
24.3 0 0
24.45 0 0
24.6 0 0
24.75 0 0
24.9 0 0
25.05 0 0
25.2 0 0
25.35 0 0
25.5 0 0
25.65 0 0
25.8 0 0
25.95 0 0
26.1 0 0
26.25 0 0
26.4 0 0
26.55 0 0
26.7 0 0
26.85 0 0
27 0 0
27.15 0 0
27.3 0 0
27.45 0 0
27.6 0 0
27.75 0 0
27.9 0 0
28.05 0 0
28.2 0 0
28.35 0 0
28.5 0 0
28.65 0 0
28.8 0 0
28.95 0 0
29.1 0 0
29.25 0 0
29.4 0 0
29.55 0 0
29.7 0 0
29.85 0 0
0 0.075 0
0.15 0.075 0
0.3 0.075 0
0.45 0.075 0
0.6 0.075 0
0.75 0.075 0
0.9 0.075 0
1.05 0.075 0
1.2 0.075 0
1.35 0.075 0
1.5 0.075 0
1.65 0.075 0
1.8 0.075 0
1.95 0.075 0
2.1 0.075 0
2.25 0.075 0
2.4 0.075 0
2.55 0.075 0
2.7 0.075 0
2.85 0.075 0
3 0.075 0
3.15 0.075 0
3.3 0.075 0
3.45 0.075 0
3.6 0.075 0
3.75 0.075 0
3.9 0.075 0
4.05 0.075 0
4.2 0.075 0
4.35 0.075 0
4.5 0.075 0
4.65 0.075 0
4.8 0.075 0
4.95 0.075 0
5.1 0.075 0
5.25 0.075 0
5.4 0.075 0
5.55 0.075 0
5.7 0.075 0
5.85 0.075 0
6 0.075 0
6.15 0.075 0
6.3 0.075 0
6.45 0.075 0
6.6 0.075 0
6.75 0.075 0
6.9 0.075 0
7.05 0.075 0
7.2 0.075 0
7.35 0.075 0
7.5 0.075 0
7.65 0.075 0
7.8 0.075 0
7.95 0.075 0
8.1 0.075 0
8.25 0.075 0
8.4 0.075 0
8.55 0.075 0
8.7 0.075 0
8.85 0.075 0
9 0.075 0
9.15 0.075 0
9.3 0.075 0
9.45 0.075 0
9.6 0.075 0
9.75 0.075 0
9.9 0.075 0
10.05 0.075 0
10.2 0.075 0
10.35 0.075 0
10.5 0.075 0
10.65 0.075 0
10.8 0.075 0
10.95 0.075 0
11.1 0.075 0
11.25 0.075 0
11.4 0.075 0
11.55 0.075 0
11.7 0.075 0
11.85 0.075 0
12 0.075 0
12.15 0.075 0
12.3 0.075 0
12.45 0.075 0
12.6 0.075 0
12.75 0.075 0
12.9 0.075 0
13.05 0.075 0
13.2 0.075 0
13.35 0.075 0
13.5 0.075 0
13.65 0.075 0
13.8 0.075 0
13.95 0.075 0
14.1 0.075 0
14.25 0.075 0
14.4 0.075 0
14.55 0.075 0
14.7 0.075 0
14.85 0.075 0
15 0.075 0
15.15 0.075 0
15.3 0.075 0
15.45 0.075 0
15.6 0.075 0
15.75 0.075 0
15.9 0.075 0
16.05 0.075 0
16.2 0.075 0
16.35 0.075 0
16.5 0.075 0
16.65 0.075 0
16.8 0.075 0
16.95 0.075 0
17.1 0.075 0
17.25 0.075 0
17.4 0.075 0
17.55 0.075 0
17.7 0.075 0
17.85 0.075 0
18 0.075 0
18.15 0.075 0
18.3 0.075 0
18.45 0.075 0
18.6 0.075 0
18.75 0.075 0
18.9 0.075 0
19.05 0.075 0
19.2 0.075 0
19.35 0.075 0
19.5 0.075 0
19.65 0.075 0
19.8 0.075 0
19.95 0.075 0
20.1 0.075 0
20.25 0.075 0
20.4 0.075 0
20.55 0.075 0
20.7 0.075 0
20.85 0.075 0
21 0.075 0
21.15 0.075 0
21.3 0.075 0
21.45 0.075 0
21.6 0.075 0
21.75 0.075 0
21.9 0.075 0
22.05 0.075 0
22.2 0.075 0
22.35 0.075 0
22.5 0.075 0
22.65 0.075 0
22.8 0.075 0
22.95 0.075 0
23.1 0.075 0
23.25 0.075 0
23.4 0.075 0
23.55 0.075 0
23.7 0.075 0
23.85 0.075 0
24 0.075 0
24.15 0.075 0
24.3 0.075 0
24.45 0.075 0
24.6 0.075 0
24.75 0.075 0
24.9 0.075 0
25.05 0.075 0
25.2 0.075 0
25.35 0.075 0
25.5 0.075 0
25.65 0.075 0
25.8 0.075 0
25.95 0.075 0
26.1 0.075 0
26.25 0.075 0
26.4 0.075 0
26.55 0.075 0
26.7 0.075 0
26.85 0.075 0
27 0.075 0
27.15 0.075 0
27.3 0.075 0
27.45 0.075 0
27.6 0.075 0
27.75 0.075 0
27.9 0.075 0
28.05 0.075 0
28.2 0.075 0
28.35 0.075 0
28.5 0.075 0
28.65 0.075 0
28.8 0.075 0
28.95 0.075 0
29.1 0.075 0
29.25 0.075 0
29.4 0.075 0
29.55 0.075 0
29.7 0.075 0
29.85 0.075 0
0 0.15 0
0.15 0.15 0
0.3 0.15 0
0.45 0.15 0
0.6 0.15 0
0.75 0.15 0
0.9 0.15 0
1.05 0.15 0
1.2 0.15 0
1.35 0.15 0
1.5 0.15 0
1.65 0.15 0
1.8 0.15 0
1.95 0.15 0
2.1 0.15 0
2.25 0.15 0
2.4 0.15 0
2.55 0.15 0
2.7 0.15 0
2.85 0.15 0
3 0.15 0
3.15 0.15 0
3.3 0.15 0
3.45 0.15 0
3.6 0.15 0
3.75 0.15 0
3.9 0.15 0
4.05 0.15 0
4.2 0.15 0
4.35 0.15 0
4.5 0.15 0
4.65 0.15 0
4.8 0.15 0
4.95 0.15 0
5.1 0.15 0
5.25 0.15 0
5.4 0.15 0
5.55 0.15 0
5.7 0.15 0
5.85 0.15 0
6 0.15 0
6.15 0.15 0
6.3 0.15 0
6.45 0.15 0
6.6 0.15 0
6.75 0.15 0
6.9 0.15 0
7.05 0.15 0
7.2 0.15 0
7.35 0.15 0
7.5 0.15 0
7.65 0.15 0
7.8 0.15 0
7.95 0.15 0
8.1 0.15 0
8.25 0.15 0
8.4 0.15 0
8.55 0.15 0
8.7 0.15 0
8.85 0.15 0
9 0.15 0
9.15 0.15 0
9.3 0.15 0
9.45 0.15 0
9.6 0.15 0
9.75 0.15 0
9.9 0.15 0
10.05 0.15 0
10.2 0.15 0
10.35 0.15 0
10.5 0.15 0
10.65 0.15 0
10.8 0.15 0
10.95 0.15 0
11.1 0.15 0
11.25 0.15 0
11.4 0.15 0
11.55 0.15 0
11.7 0.15 0
11.85 0.15 0
12 0.15 0
12.15 0.15 0
12.3 0.15 0
12.45 0.15 0
12.6 0.15 0
12.75 0.15 0
12.9 0.15 0
13.05 0.15 0
13.2 0.15 0
13.35 0.15 0
13.5 0.15 0
13.65 0.15 0
13.8 0.15 0
13.95 0.15 0
14.1 0.15 0
14.25 0.15 0
14.4 0.15 0
14.55 0.15 0
14.7 0.15 0
14.85 0.15 0
15 0.15 0
15.15 0.15 0
15.3 0.15 0
15.45 0.15 0
15.6 0.15 0
15.75 0.15 0
15.9 0.15 0
16.05 0.15 0
16.2 0.15 0
16.35 0.15 0
16.5 0.15 0
16.65 0.15 0
16.8 0.15 0
16.95 0.15 0
17.1 0.15 0
17.25 0.15 0
17.4 0.15 0
17.55 0.15 0
17.7 0.15 0
17.85 0.15 0
18 0.15 0
18.15 0.15 0
18.3 0.15 0
18.45 0.15 0
18.6 0.15 0
18.75 0.15 0
18.9 0.15 0
19.05 0.15 0
19.2 0.15 0
19.35 0.15 0
19.5 0.15 0
19.65 0.15 0
19.8 0.15 0
19.95 0.15 0
20.1 0.15 0
20.25 0.15 0
20.4 0.15 0
20.55 0.15 0
20.7 0.15 0
20.85 0.15 0
21 0.15 0
21.15 0.15 0
21.3 0.15 0
21.45 0.15 0
21.6 0.15 0
21.75 0.15 0
21.9 0.15 0
22.05 0.15 0
22.2 0.15 0
22.35 0.15 0
22.5 0.15 0
22.65 0.15 0
22.8 0.15 0
22.95 0.15 0
23.1 0.15 0
23.25 0.15 0
23.4 0.15 0
23.55 0.15 0
23.7 0.15 0
23.85 0.15 0
24 0.15 0
24.15 0.15 0
24.3 0.15 0
24.45 0.15 0
24.6 0.15 0
24.75 0.15 0
24.9 0.15 0
25.05 0.15 0
25.2 0.15 0
25.35 0.15 0
25.5 0.15 0
25.65 0.15 0
25.8 0.15 0
25.95 0.15 0
26.1 0.15 0
26.25 0.15 0
26.4 0.15 0
26.55 0.15 0
26.7 0.15 0
26.85 0.15 0
27 0.15 0
27.15 0.15 0
27.3 0.15 0
27.45 0.15 0
27.6 0.15 0
27.75 0.15 0
27.9 0.15 0
28.05 0.15 0
28.2 0.15 0
28.35 0.15 0
28.5 0.15 0
28.65 0.15 0
28.8 0.15 0
28.95 0.15 0
29.1 0.15 0
29.25 0.15 0
29.4 0.15 0
29.55 0.15 0
29.7 0.15 0
29.85 0.15 0
0 0.225 0
0.15 0.225 0
0.3 0.225 0
0.45 0.225 0
0.6 0.225 0
0.75 0.225 0
0.9 0.225 0
1.05 0.225 0
1.2 0.225 0
1.35 0.225 0
1.5 0.225 0
1.65 0.225 0
1.8 0.225 0
1.95 0.225 0
2.1 0.225 0
2.25 0.225 0
2.4 0.225 0
2.55 0.225 0
2.7 0.225 0
2.85 0.225 0
3 0.225 0
3.15 0.225 0
3.3 0.225 0
3.45 0.225 0
3.6 0.225 0
3.75 0.225 0
3.9 0.225 0
4.05 0.225 0
4.2 0.225 0
4.35 0.225 0
4.5 0.225 0
4.65 0.225 0
4.8 0.225 0
4.95 0.225 0
5.1 0.225 0
5.25 0.225 0
5.4 0.225 0
5.55 0.225 0
5.7 0.225 0
5.85 0.225 0
6 0.225 0
6.15 0.225 0
6.3 0.225 0
6.45 0.225 0
6.6 0.225 0
6.75 0.225 0
6.9 0.225 0
7.05 0.225 0
7.2 0.225 0
7.35 0.225 0
7.5 0.225 0
7.65 0.225 0
7.8 0.225 0
7.95 0.225 0
8.1 0.225 0
8.25 0.225 0
8.4 0.225 0
8.55 0.225 0
8.7 0.225 0
8.85 0.225 0
9 0.225 0
9.15 0.225 0
9.3 0.225 0
9.45 0.225 0
9.6 0.225 0
9.75 0.225 0
9.9 0.225 0
10.05 0.225 0
10.2 0.225 0
10.35 0.225 0
10.5 0.225 0
10.65 0.225 0
10.8 0.225 0
10.95 0.225 0
11.1 0.225 0
11.25 0.225 0
11.4 0.225 0
11.55 0.225 0
11.7 0.225 0
11.85 0.225 0
12 0.225 0
12.15 0.225 0
12.3 0.225 0
12.45 0.225 0
12.6 0.225 0
12.75 0.225 0
12.9 0.225 0
13.05 0.225 0
13.2 0.225 0
13.35 0.225 0
13.5 0.225 0
13.65 0.225 0
13.8 0.225 0
13.95 0.225 0
14.1 0.225 0
14.25 0.225 0
14.4 0.225 0
14.55 0.225 0
14.7 0.225 0
14.85 0.225 0
15 0.225 0
15.15 0.225 0
15.3 0.225 0
15.45 0.225 0
15.6 0.225 0
15.75 0.225 0
15.9 0.225 0
16.05 0.225 0
16.2 0.225 0
16.35 0.225 0
16.5 0.225 0
16.65 0.225 0
16.8 0.225 0
16.95 0.225 0
17.1 0.225 0
17.25 0.225 0
17.4 0.225 0
17.55 0.225 0
17.7 0.225 0
17.85 0.225 0
18 0.225 0
18.15 0.225 0
18.3 0.225 0
18.45 0.225 0
18.6 0.225 0
18.75 0.225 0
18.9 0.225 0
19.05 0.225 0
19.2 0.225 0
19.35 0.225 0
19.5 0.225 0
19.65 0.225 0
19.8 0.225 0
19.95 0.225 0
20.1 0.225 0
20.25 0.225 0
20.4 0.225 0
20.55 0.225 0
20.7 0.225 0
20.85 0.225 0
21 0.225 0
21.15 0.225 0
21.3 0.225 0
21.45 0.225 0
21.6 0.225 0
21.75 0.225 0
21.9 0.225 0
22.05 0.225 0
22.2 0.225 0
22.35 0.225 0
22.5 0.225 0
22.65 0.225 0
22.8 0.225 0
22.95 0.225 0
23.1 0.225 0
23.25 0.225 0
23.4 0.225 0
23.55 0.225 0
23.7 0.225 0
23.85 0.225 0
24 0.225 0
24.15 0.225 0
24.3 0.225 0
24.45 0.225 0
24.6 0.225 0
24.75 0.225 0
24.9 0.225 0
25.05 0.225 0
25.2 0.225 0
25.35 0.225 0
25.5 0.225 0
25.65 0.225 0
25.8 0.225 0
25.95 0.225 0
26.1 0.225 0
26.25 0.225 0
26.4 0.225 0
26.55 0.225 0
26.7 0.225 0
26.85 0.225 0
27 0.225 0
27.15 0.225 0
27.3 0.225 0
27.45 0.225 0
27.6 0.225 0
27.75 0.225 0
27.9 0.225 0
28.05 0.225 0
28.2 0.225 0
28.35 0.225 0
28.5 0.225 0
28.65 0.225 0
28.8 0.225 0
28.95 0.225 0
29.1 0.225 0
29.25 0.225 0
29.4 0.225 0
29.55 0.225 0
29.7 0.225 0
29.85 0.225 0
0 0.3 0
0.15 0.3 0
0.3 0.3 0
0.45 0.3 0
0.6 0.3 0
0.75 0.3 0
0.9 0.3 0
1.05 0.3 0
1.2 0.3 0
1.35 0.3 0
1.5 0.3 0
1.65 0.3 0
1.8 0.3 0
1.95 0.3 0
2.1 0.3 0
2.25 0.3 0
2.4 0.3 0
2.55 0.3 0
2.7 0.3 0
2.85 0.3 0
3 0.3 0
3.15 0.3 0
3.3 0.3 0
3.45 0.3 0
3.6 0.3 0
3.75 0.3 0
3.9 0.3 0
4.05 0.3 0
4.2 0.3 0
4.35 0.3 0
4.5 0.3 0
4.65 0.3 0
4.8 0.3 0
4.95 0.3 0
5.1 0.3 0
5.25 0.3 0
5.4 0.3 0
5.55 0.3 0
5.7 0.3 0
5.85 0.3 0
6 0.3 0
6.15 0.3 0
[...]
POINT_DATA 40000

SCALARS p float 1
LOOKUP_TABLE default
14896.20426
14896.20426
14896.15327
14896.12561
14896.1094
14896.10645
14896.11453
14896.12835
14896.14447
14896.1617
14896.17985
14896.19892
14896.21886
14896.23955
14896.26078
14896.28227
14896.3037
14896.32471
14896.34504
14896.36461
14896.38394
14896.40467
14896.43123
14896.46897
14896.54469
14896.65311
14896.58398
14896.27501
14896.02523
14895.79983
14895.5784
14895.3493
14895.10546
14894.84202
14894.55481
14894.23955
14893.89132
14893.5021
14893.07484
14892.59368
14892.08382
14891.79746
14891.32378
14891.1003
14891.7439
14892.74941
14893.60139
14894.17498
14894.53675
14894.77457
14894.94767
14895.08828
14895.21216
14895.32642
14895.43417
14895.53682
14895.63517
14895.72972
14895.82092
14895.90911
14895.99462
14896.07771
14896.15863
14896.2376
14896.31481
14896.39042
14896.46457
14896.53742
14896.60905
14896.67958
14896.74909
14896.81767
14896.88537
14896.95225
14897.01838
14897.08378
14897.14851
14897.21259
14897.27605
14897.33892
14897.40121
14897.46295
14897.52414
14897.58479
14897.64492
14897.70453
14897.76362
14897.82219
14897.88024
14897.93777
14897.99478
14898.05127
14898.10721
14898.16262
14898.21748
14898.27177
14898.3255
14898.37865
14898.43121
14898.48316
14898.5345
14898.58521
14898.63527
14898.68468
14898.73341
14898.78146
14898.8288
14898.87542
14898.92131
14898.96645
14899.01082
14899.0544
14899.09719
14899.13915
14899.18028
14899.22056
14899.25996
14899.29848
14899.33609
14899.37277
14899.40852
14899.4433
14899.47711
14899.50992
14899.54172
14899.57249
14899.60221
14899.63086
14899.65843
14899.6849
14899.71025
14899.73446
14899.75752
14899.77941
14899.80011
14899.8196
14899.83787
14899.85491
14899.87068
14899.88519
14899.89841
14899.91032
14899.92091
14899.93017
14899.93808
14899.94461
14899.94977
14899.95352
14899.95587
14899.95678
14899.95626
14899.95428
14899.95083
14899.94589
14899.93946
14899.93151
14899.92205
14899.91104
14899.89849
14899.88438
14899.86869
14899.85142
14899.83255
14899.81207
14899.78997
14899.76624
14899.74088
14899.71386
14899.68518
14899.65483
14899.62281
14899.5891
14899.55369
14899.51657
14899.47774
14899.43719
14899.39492
14899.35091
14899.30515
14899.25765
14899.2084
14899.15738
14899.1046
14899.05005
14898.99373
14898.93562
14898.87573
14898.81406
14898.75059
14898.68533
14898.61828
14898.54943
14898.47878
14898.40634
14898.3321
14898.25608
14898.1782
14898.09868
14898.01629
14898.01629
14896.20426
14896.20426
14896.15327
14896.12561
14896.1094
14896.10645
14896.11453
14896.12835
14896.14447
14896.1617
14896.17985
14896.19892
14896.21886
14896.23955
14896.26078
14896.28227
14896.3037
14896.32471
14896.34504
14896.36461
14896.38394
14896.40467
14896.43123
14896.46897
14896.54469
14896.65311
14896.58398
14896.27501
14896.02523
14895.79983
14895.5784
14895.3493
14895.10546
14894.84202
14894.55481
14894.23955
14893.89132
14893.5021
14893.07484
14892.59368
14892.08382
14891.79746
14891.32378
14891.1003
14891.7439
14892.74941
14893.60139
14894.17498
14894.53675
14894.77457
14894.94767
14895.08828
14895.21216
14895.32642
14895.43417
14895.53682
14895.63517
14895.72972
14895.82092
14895.90911
14895.99462
14896.07771
14896.15863
14896.2376
14896.31481
14896.39042
14896.46457
14896.53742
14896.60905
14896.67958
14896.74909
14896.81767
14896.88537
14896.95225
14897.01838
14897.08378
14897.14851
14897.21259
14897.27605
14897.33892
14897.40121
14897.46295
14897.52414
14897.58479
14897.64492
14897.70453
14897.76362
14897.82219
14897.88024
14897.93777
14897.99478
14898.05127
14898.10721
14898.16262
14898.21748
14898.27177
14898.3255
14898.37865
14898.43121
14898.48316
14898.5345
14898.58521
14898.63527
14898.68468
14898.73341
14898.78146
14898.8288
14898.87542
14898.92131
14898.96645
14899.01082
14899.0544
14899.09719
14899.13915
14899.18028
14899.22056
14899.25996
14899.29848
14899.33609
14899.37277
14899.40852
14899.4433
14899.47711
14899.50992
14899.54172
14899.57249
14899.60221
14899.63086
14899.65843
14899.6849
14899.71025
14899.73446
14899.75752
14899.77941
14899.80011
14899.8196
14899.83787
14899.85491
14899.87068
14899.88519
14899.89841
14899.91032
14899.92091
14899.93017
14899.93808
14899.94461
14899.94977
14899.95352
14899.95587
14899.95678
14899.95626
14899.95428
14899.95083
14899.94589
14899.93946
14899.93151
14899.92205
14899.91104
14899.89849
14899.88438
14899.86869
14899.85142
14899.83255
14899.81207
14899.78997
14899.76624
14899.74088
14899.71386
14899.68518
14899.65483
14899.62281
14899.5891
14899.55369
14899.51657
14899.47774
14899.43719
14899.39492
14899.35091
14899.30515
14899.25765
14899.2084
14899.15738
14899.1046
14899.05005
14898.99373
14898.93562
14898.87573
14898.81406
14898.75059
14898.68533
14898.61828
14898.54943
14898.47878
14898.40634
14898.3321
14898.25608
14898.1782
14898.09868
14898.01629
14898.01629
14896.17444
14896.17444
14896.14658
14896.12427
14896.11057
14896.10852
14896.11647
14896.12992
14896.14575
14896.16284
14896.18093
14896.2
14896.21998
14896.24072
14896.26203
14896.28361
14896.30512
14896.32621
14896.34654
14896.36595
14896.38477
14896.40435
14896.42853
14896.46243
14896.52971
14896.64209
14896.55695
14896.26772
14896.02695
14895.80644
14895.5878
14895.3604
14895.11774
14894.85529
14894.56913
14894.25502
14893.90826
14893.52104
14893.09125
14892.60951
14892.09943
14891.75185
14891.08017
14890.84052
14891.57682
14892.66519
14893.56572
14894.16112
14894.53132
14894.77208
14894.94634
14895.08761
14895.21195
14895.32654
14895.4345
14895.53729
14895.63572
14895.73033
14895.82155
14895.90975
14895.99525
14896.07833
14896.15923
14896.23818
14896.31537
14896.39095
14896.46509
14896.5379
14896.60951
14896.68002
14896.74951
14896.81806
14896.88574
14896.9526
14897.01871
14897.08409
14897.1488
14897.21286
14897.27631
14897.33916
14897.40143
14897.46315
14897.52432
14897.58496
14897.64507
14897.70466
14897.76374
14897.82229
14897.88033
14897.93785
14897.99485
14898.05131
14898.10725
14898.16264
14898.21748
14898.27176
14898.32548
14898.37861
14898.43116
14898.4831
14898.53442
14898.58512
14898.63517
14898.68456
14898.73329
14898.78132
14898.82865
14898.87526
14898.92114
14898.96627
14899.01062
14899.0542
14899.09697
14899.13892
14899.18004
14899.2203
14899.2597
14899.2982
14899.3358
14899.37247
14899.40821
14899.44298
14899.47678
14899.50958
14899.54137
14899.57213
14899.60183
14899.63048
14899.65804
14899.6845
14899.70984
14899.73404
14899.75709
14899.77897
14899.79966
14899.81914
14899.83741
14899.85443
14899.8702
14899.8847
14899.89791
14899.90981
14899.92039
14899.92964
14899.93754
14899.94407
14899.94921
14899.95296
14899.9553
14899.95621
14899.95567
14899.95369
14899.95023
14899.94528
14899.93884
14899.93089
14899.92142
14899.91041
14899.89785
14899.88373
14899.86804
14899.85076
14899.83188
14899.8114
14899.7893
14899.76556
14899.74019
14899.71317
14899.68449
14899.65413
14899.6221
14899.58839
14899.55297
14899.51585
14899.47702
14899.43647
14899.39419
14899.35017
14899.30442
14899.25691
14899.20765
14899.15664
14899.10385
14899.0493
14898.99297
14898.93486
14898.87497
14898.81329
14898.74983
14898.68457
14898.61751
14898.54866
14898.47801
14898.40557
14898.33132
14898.25531
14898.17744
14898.09793
14898.01531
14898.01531
14896.15195
14896.15195
14896.13685
14896.12142
14896.11188
14896.11128
14896.11886
14896.1315
14896.14677
14896.16356
14896.18154
14896.2006
14896.22062
14896.24145
14896.26288
14896.28462
14896.30633
14896.32759
14896.34799
14896.36719
14896.38519
14896.40271
14896.42233
14896.4488
14896.49848
14896.57564
14896.48928
14896.24439
14896.0208
14895.80957
14895.5963
14895.37218
14895.13179
14894.8713
14894.58724
14894.2756
14893.93152
14893.54805
14893.11675
14892.6264
14892.0404
14891.47147
14890.60257
14890.37981
14891.27644
14892.50987
14893.49254
14894.12636
14894.51337
14894.76214
14894.94088
14895.08491
14895.21095
14895.32653
14895.43506
14895.53816
14895.63674
14895.73142
14895.82266
14895.91085
14895.99632
14896.07936
14896.16022
14896.23912
14896.31625
14896.39178
14896.46587
14896.53864
14896.6102
14896.68066
14896.75011
14896.81862
14896.88626
14896.95309
14897.01916
14897.08451
14897.14919
14897.21322
14897.27664
14897.33946
14897.40171
14897.4634
14897.52455
14897.58517
14897.64525
14897.70482
14897.76388
14897.82241
14897.88043
14897.93793
14897.99491
14898.05136
14898.10727
14898.16265
14898.21747
14898.27174
14898.32544
14898.37856
14898.43109
14898.48301
14898.53432
14898.585
14898.63504
14898.68442
14898.73313
14898.78115
14898.82846
14898.87506
14898.92093
14898.96604
14899.01038
14899.05394
14899.0967
14899.13864
14899.17975
14899.22
14899.25938
14899.29787
14899.33546
14899.37212
14899.40785
14899.44261
14899.47639
14899.50918
14899.54096
14899.57171
14899.60141
14899.63004
14899.65759
14899.68404
14899.70937
14899.73356
14899.7566
14899.77847
14899.79915
14899.81862
14899.83688
14899.85389
14899.86965
14899.88414
14899.89734
14899.90924
14899.91981
14899.92905
14899.93694
14899.94346
14899.9486
14899.95234
14899.95467
14899.95557
14899.95503
14899.95303
14899.94956
14899.94461
14899.93817
14899.93021
14899.92073
14899.90971
14899.89715
14899.88302
14899.86732
14899.85003
14899.83115
14899.81066
14899.78855
14899.76482
14899.73944
14899.71241
14899.68372
14899.65337
14899.62133
14899.58761
14899.55219
14899.51507
14899.47623
14899.43567
14899.39339
14899.34937
14899.30361
14899.2561
14899.20684
14899.15582
14899.10303
14899.04848
14898.99215
14898.93404
14898.87414
14898.81246
14898.74899
14898.68373
14898.61667
14898.54782
14898.47717
14898.40472
14898.33048
14898.25445
14898.17661
14898.09707
14898.01424
14898.01424
14896.13485
14896.13485
14896.12718
14896.11733
14896.11154
14896.11258
14896.12022
14896.13237
14896.1472
14896.16375
14896.18163
14896.20067
14896.22075
14896.2417
14896.26329
14896.28524
14896.30718
14896.32868
14896.34921
14896.36821
14896.38521
14896.40008
14896.41386
14896.4301
14896.46011
14896.50529
14896.42332
14896.21537
14896.01247
14895.81374
14895.60786
14895.38825
14895.15103
14894.89335
14894.6123
14894.3044
14893.96479
14893.58505
14893.15896
14892.66106
14891.95175
14891.10117
14890.10841
14889.91146
14890.94994
14892.33023
14893.40085
14894.07879
14894.48751
14894.74784
14894.93334
14895.08151
14895.21003
14895.32703
14895.43632
14895.5398
14895.63856
14895.73328
14895.8245
14895.91263
14895.99802
14896.08096
14896.16173
14896.24053
14896.31757
14896.39302
14896.46702
14896.53971
14896.6112
14896.68159
14896.75097
14896.81942
14896.88701
14896.95378
14897.0198
14897.08511
14897.14974
14897.21373
14897.27711
14897.3399
14897.40211
14897.46377
14897.52489
14897.58547
14897.64553
14897.70508
14897.7641
14897.82261
14897.88061
14897.93808
14897.99504
14898.05146
14898.10736
14898.16271
14898.21752
14898.27177
14898.32545
14898.37855
14898.43106
14898.48297
14898.53426
14898.58492
14898.63494
14898.68431
14898.733
14898.781
14898.82831
14898.87489
14898.92074
14898.96584
14899.01017
14899.05371
14899.09646
14899.13839
14899.17948
14899.21972
14899.25909
14899.29757
14899.33514
14899.37179
14899.4075
14899.44225
14899.47602
14899.5088
14899.54057
14899.5713
14899.60099
14899.62961
14899.65715
14899.68359
14899.70891
14899.73309
14899.75612
14899.77798
14899.79865
14899.81811
14899.83636
14899.85336
14899.86911
14899.88359
14899.89678
14899.90867
14899.91923
14899.92846
14899.93634
14899.94286
14899.94799
14899.95172
14899.95404
14899.95493
14899.95438
14899.95238
14899.9489
14899.94395
14899.93749
14899.92953
14899.92004
14899.90902
14899.89644
14899.88231
14899.8666
14899.84931
14899.83042
14899.80993
14899.78781
14899.76407
14899.73869
14899.71165
14899.68296
14899.6526
14899.62056
14899.58683
14899.55141
14899.51428
14899.47544
14899.43488
14899.39259
14899.34857
14899.3028
14899.25529
14899.20603
14899.155
14899.10221
14899.04765
14898.99132
14898.93321
14898.87331
14898.81163
14898.74816
14898.68289
14898.61583
14898.54698
14898.47632
14898.40387
14898.32963
14898.25359
14898.17576
14898.09617
14898.01321
14898.01321
14896.12125
14896.12125
14896.1181
14896.11249
14896.10972
14896.1123
14896.12031
14896.13231
14896.14691
14896.16331
14896.18114
14896.20021
14896.22036
14896.24144
14896.26322
14896.28542
14896.30766
14896.32947
14896.3502
14896.36908
14896.38508
14896.3971
14896.40431
14896.40803
14896.41782
14896.45474
14896.37767
14896.18322
14896.00404
14895.82043
14895.62336
14895.40904
14895.17558
14894.92137
14894.64428
14894.3409
14894.00877
14893.63249
14893.21271
14892.72406
14891.93711
14890.89734
14889.83964
14889.64772
14890.74946
14892.19905
14893.32089
14894.03194
14894.46058
14894.73303
14894.92607
14895.07886
14895.2101
14895.32861
14895.43868
14895.5425
14895.64135
14895.73605
14895.82716
14895.91515
14896.00039
14896.08318
14896.16379
14896.24245
14896.31935
14896.39467
14896.46855
14896.54113
14896.61252
14896.68281
14896.75211
14896.82048
14896.88798
14896.95469
14897.02064
14897.08589
14897.15047
14897.2144
14897.27773
14897.34047
14897.40264
14897.46426
14897.52534
14897.58588
14897.64591
14897.70542
14897.76441
14897.82289
14897.88086
14897.93831
14897.99523
14898.05164
14898.10751
14898.16284
14898.21762
14898.27184
14898.3255
14898.37858
14898.43107
14898.48296
14898.53424
14898.58488
14898.63488
14898.68423
14898.7329
14898.78089
14898.82818
14898.87474
14898.92058
14898.96566
14899.00998
14899.05351
14899.09624
14899.13815
14899.17923
14899.21945
14899.25881
14899.29727
14899.33484
14899.37147
14899.40717
14899.44191
14899.47567
14899.50843
14899.54019
14899.57091
14899.60059
14899.6292
14899.65672
14899.68315
14899.70846
14899.73263
14899.75565
14899.77749
14899.79815
14899.81761
14899.83584
14899.85284
14899.86858
14899.88305
14899.89623
14899.90811
14899.91866
14899.92788
14899.93575
14899.94226
14899.94738
14899.9511
14899.95341
14899.9543
14899.95374
14899.95173
14899.94825
14899.94328
14899.93682
14899.92885
14899.91935
14899.90832
14899.89574
14899.8816
14899.86589
14899.84859
14899.8297
14899.80919
14899.78707
14899.76333
14899.73794
14899.7109
14899.6822
14899.65183
14899.61979
14899.58605
14899.55063
14899.51349
14899.47465
14899.43408
14899.39179
14899.34777
14899.302
14899.25448
14899.20521
14899.15419
14899.10139
14899.04683
14898.99049
14898.93238
14898.87248
14898.81079
14898.74732
14898.68205
14898.61499
14898.54613
14898.47547
14898.40302
14898.32877
14898.25272
14898.17488
14898.09527
14898.01223
14898.01223
14896.10996
14896.10996
14896.10967
14896.10722
14896.10688
14896.11084
14896.11933
14896.13138
14896.14591
14896.16225
14896.18008
14896.19919
14896.21945
14896.24068
14896.26268
14896.28517
14896.30776
14896.32995
14896.35102
14896.36994
14896.38522
14896.39463
14896.39518
14896.38424
14896.36681
14896.38248
14896.31024
14896.14393
14895.9974
14895.83158
14895.64387
14895.43501
14895.2056
14894.9553
14894.68304
14894.38515
14894.06096
14893.6965
14893.27978
14892.82486
14892.08127
14890.99309
14889.91134
14889.71416
14890.78268
14892.17892
14893.28239
14893.99967
14894.43937
14894.72117
14894.92085
14895.07793
14895.21172
14895.3316
14895.44231
14895.54637
14895.64521
14895.73977
14895.83069
14895.91845
14896.00346
14896.08603
14896.16643
14896.24488
14896.3216
14896.39674
14896.47047
14896.5429
14896.61415
14896.68433
14896.75351
14896.82178
14896.88919
14896.95581
14897.02168
14897.08685
14897.15135
14897.21523
14897.27849
14897.34118
14897.40329
14897.46486
14897.52589
14897.5864
14897.64638
14897.70585
14897.76481
14897.82325
14897.88118
14897.9386
14897.9955
14898.05187
14898.10771
14898.16301
14898.21777
14898.27197
14898.32561
14898.37866
14898.43113
14898.483
14898.53425
14898.58488
14898.63486
14898.68418
14898.73284
14898.78081
14898.82808
14898.87463
14898.92044
14898.96551
14899.00981
14899.05332
14899.09604
14899.13794
14899.179
14899.21921
14899.25855
14899.297
14899.33455
14899.37117
14899.40685
14899.44158
14899.47533
14899.50808
14899.53982
14899.57053
14899.60019
14899.62879
14899.65631
14899.68272
14899.70802
14899.73218
14899.75518
14899.77702
14899.79767
14899.81711
14899.83534
14899.85232
14899.86805
14899.88251
14899.89568
14899.90755
14899.9181
14899.92731
14899.93517
14899.94166
14899.94677
14899.95049
14899.95279
14899.95367
14899.9531
14899.95108
14899.94759
14899.94262
14899.93615
14899.92817
14899.91867
14899.90763
14899.89504
14899.8809
14899.86518
14899.84787
14899.82897
14899.80846
14899.78634
14899.76258
14899.73719
14899.71014
14899.68144
14899.65107
14899.61902
14899.58528
14899.54985
14899.51271
14899.47386
14899.43329
14899.39099
14899.34696
14899.30119
14899.25367
14899.2044
14899.15337
14899.10057
14899.04601
14898.98967
14898.93155
14898.87164
14898.80996
14898.74648
14898.68121
14898.61414
14898.54528
14898.47462
14898.40216
14898.32791
14898.25185
14898.174
14898.09436
14898.01128
14898.01128
14896.10023
14896.10023
14896.10184
14896.10173
14896.10334
14896.10848
14896.1175
14896.12969
14896.14424
14896.16059
14896.17845
14896.19763
14896.218
14896.23941
14896.26165
14896.28446
14896.30747
14896.33014
14896.35171
14896.37097
14896.386
14896.39359
14896.38835
14896.36178
14896.30506
14896.24543
14896.18314
14896.10215
14895.99669
14895.84925
14895.67015
14895.46626
14895.24082
14894.99478
14894.72791
14894.43759
14894.12076
14893.77164
14893.36307
14892.94467
14892.33161
14891.32298
14890.3035
14890.13796
14891.0712
14892.28809
14893.3006
14893.99168
14894.42931
14894.71516
14894.91923
14895.07953
14895.21529
14895.33622
14895.44736
14895.55147
14895.65016
14895.74446
14895.83508
14895.92253
14896.00723
14896.0895
14896.16962
14896.24782
14896.3243
14896.39924
14896.47276
14896.54502
14896.61611
14896.68613
14896.75518
14896.82332
14896.89062
14896.95713
14897.02291
14897.08799
14897.15241
14897.2162
14897.2794
14897.34202
14897.40407
14897.46558
14897.52656
14897.58701
14897.64695
14897.70637
14897.76529
14897.82369
14897.88158
14897.93896
14897.99583
14898.05217
14898.10798
14898.16325
14898.21798
14898.27215
14898.32576
14898.37879
14898.43123
14898.48307
14898.5343
14898.58491
14898.63487
14898.68417
14898.73281
14898.78076
14898.828
14898.87454
14898.92033
14898.96538
14899.00966
14899.05316
14899.09586
14899.13774
14899.17879
14899.21898
14899.25831
14899.29674
14899.33427
14899.37088
14899.40655
14899.44126
14899.475
14899.50774
14899.53946
14899.57016
14899.59981
14899.6284
14899.6559
14899.6823
14899.70758
14899.73173
14899.75473
14899.77655
14899.79719
14899.81662
14899.83484
14899.85181
14899.86753
14899.88198
14899.89514
14899.907
14899.91753
14899.92674
14899.93459
14899.94107
14899.94618
14899.94988
14899.95218
14899.95304
14899.95247
14899.95044
14899.94694
14899.94196
14899.93548
14899.9275
14899.91799
14899.90694
14899.89435
14899.88019
14899.86447
14899.84716
14899.82825
14899.80773
14899.7856
14899.76184
14899.73644
14899.70939
14899.68068
14899.6503
14899.61825
14899.5845
14899.54906
14899.51192
14899.47307
14899.43249
14899.39019
14899.34616
14899.30038
14899.25286
14899.20359
14899.15255
14899.09975
14899.04518
14898.98884
14898.93072
14898.87081
14898.80912
14898.74564
14898.68036
14898.6133
14898.54443
14898.47377
14898.4013
14898.32704
14898.25098
14898.17312
14898.09345
14898.01034
14898.01034
14896.09157
14896.09157
14896.09447
14896.09612
14896.09928
14896.10543
14896.11495
14896.12735
14896.14197
14896.15836
14896.17627
14896.19553
14896.21603
14896.23762
14896.26012
14896.28328
14896.30675
14896.33001
14896.35227
14896.37225
14896.38774
14896.3948
14896.38596
14896.34613
14896.24437
14896.06317
14896.01284
14896.06747
14896.00773
14895.87543
14895.70252
14895.50247
14895.28064
14895.03896
14894.77778
14894.49535
14894.18916
14893.8513
14893.45293
14893.05604
14892.59116
14891.78433
14890.95453
14890.84332
14891.5364
14892.49607
14893.37269
14894.01141
14894.43349
14894.71698
14894.92234
14895.0843
14895.22119
14895.34266
14895.4539
14895.55785
14895.65622
14895.75013
14895.84033
14895.92738
14896.01168
14896.09359
14896.17337
14896.25127
14896.32747
14896.40214
14896.47543
14896.54748
14896.61838
14896.68823
14896.75711
14896.82511
14896.89227
14896.95866
14897.02432
14897.0893
14897.15363