# vtk DataFile Version 2.0
FlowField
ASCII
DATASET STRUCTURED_GRID
DIMENSIONS 200 1 200
POINTS 40000 float
0 0 0
0.15 0 0
0.3 0 0
0.45 0 0
0.6 0 0
0.75 0 0
0.9 0 0
1.05 0 0
1.2 0 0
1.35 0 0
1.5 0 0
1.65 0 0
1.8 0 0
1.95 0 0
2.1 0 0
2.25 0 0
2.4 0 0
2.55 0 0
2.7 0 0
2.85 0 0
3 0 0
3.15 0 0
3.3 0 0
3.45 0 0
3.6 0 0
3.75 0 0
3.9 0 0
4.05 0 0
4.2 0 0
4.35 0 0
4.5 0 0
4.65 0 0
4.8 0 0
4.95 0 0
5.1 0 0
5.25 0 0
5.4 0 0
5.55 0 0
5.7 0 0
5.85 0 0
6 0 0
6.15 0 0
6.3 0 0
6.45 0 0
6.6 0 0
6.75 0 0
6.9 0 0
7.05 0 0
7.2 0 0
7.35 0 0
7.5 0 0
7.65 0 0
7.8 0 0
7.95 0 0
8.1 0 0
8.25 0 0
8.4 0 0
8.55 0 0
8.7 0 0
8.85 0 0
9 0 0
9.15 0 0
9.3 0 0
9.45 0 0
9.6 0 0
9.75 0 0
9.9 0 0
10.05 0 0
10.2 0 0
10.35 0 0
10.5 0 0
10.65 0 0
10.8 0 0
10.95 0 0
11.1 0 0
11.25 0 0
11.4 0 0
11.55 0 0
11.7 0 0
11.85 0 0
12 0 0
12.15 0 0
12.3 0 0
12.45 0 0
12.6 0 0
12.75 0 0
12.9 0 0
13.05 0 0
13.2 0 0
13.35 0 0
13.5 0 0
13.65 0 0
13.8 0 0
13.95 0 0
14.1 0 0
14.25 0 0
14.4 0 0
14.55 0 0
14.7 0 0
14.85 0 0
15 0 0
15.15 0 0
15.3 0 0
15.45 0 0
15.6 0 0
15.75 0 0
15.9 0 0
16.05 0 0
16.2 0 0
16.35 0 0
16.5 0 0
16.65 0 0
16.8 0 0
16.95 0 0
17.1 0 0
17.25 0 0
17.4 0 0
17.55 0 0
17.7 0 0
17.85 0 0
18 0 0
18.15 0 0
18.3 0 0
18.45 0 0
18.6 0 0
18.75 0 0
18.9 0 0
19.05 0 0
19.2 0 0
19.35 0 0
19.5 0 0
19.65 0 0
19.8 0 0
19.95 0 0
20.1 0 0
20.25 0 0
20.4 0 0
20.55 0 0
20.7 0 0
20.85 0 0
21 0 0
21.15 0 0
21.3 0 0
21.45 0 0
21.6 0 0
21.75 0 0
21.9 0 0
22.05 0 0
22.2 0 0
22.35 0 0
22.5 0 0
22.65 0 0
22.8 0 0
22.95 0 0
23.1 0 0
23.25 0 0
23.4 0 0
23.55 0 0
23.7 0 0
23.85 0 0
24 0 0
24.15 0 0
24.3 0 0
24.45 0 0
24.6 0 0
24.75 0 0
24.9 0 0
25.05 0 0
25.2 0 0
25.35 0 0
25.5 0 0
25.65 0 0
25.8 0 0
25.95 0 0
26.1 0 0
26.25 0 0
26.4 0 0
26.55 0 0
26.7 0 0
26.85 0 0
27 0 0
27.15 0 0
27.3 0 0
27.45 0 0
27.6 0 0
27.75 0 0
27.9 0 0
28.05 0 0
28.2 0 0
28.35 0 0
28.5 0 0
28.65 0 0
28.8 0 0
28.95 0 0
29.1 0 0
29.25 0 0
29.4 0 0
29.55 0 0
29.7 0 0
29.85 0 0
0 0.075 0
0.15 0.075 0
0.3 0.075 0
0.45 0.075 0
0.6 0.075 0
0.75 0.075 0
0.9 0.075 0
1.05 0.075 0
1.2 0.075 0
1.35 0.075 0
1.5 0.075 0
1.65 0.075 0
1.8 0.075 0
1.95 0.075 0
2.1 0.075 0
2.25 0.075 0
2.4 0.075 0
2.55 0.075 0
2.7 0.075 0
2.85 0.075 0
3 0.075 0
3.15 0.075 0
3.3 0.075 0
3.45 0.075 0
3.6 0.075 0
3.75 0.075 0
3.9 0.075 0
4.05 0.075 0
4.2 0.075 0
4.35 0.075 0
4.5 0.075 0
4.65 0.075 0
4.8 0.075 0
4.95 0.075 0
5.1 0.075 0
5.25 0.075 0
5.4 0.075 0
5.55 0.075 0
5.7 0.075 0
5.85 0.075 0
6 0.075 0
6.15 0.075 0
6.3 0.075 0
6.45 0.075 0
6.6 0.075 0
6.75 0.075 0
6.9 0.075 0
7.05 0.075 0
7.2 0.075 0
7.35 0.075 0
7.5 0.075 0
7.65 0.075 0
7.8 0.075 0
7.95 0.075 0
8.1 0.075 0
8.25 0.075 0
8.4 0.075 0
8.55 0.075 0
8.7 0.075 0
8.85 0.075 0
9 0.075 0
9.15 0.075 0
9.3 0.075 0
9.45 0.075 0
9.6 0.075 0
9.75 0.075 0
9.9 0.075 0
10.05 0.075 0
10.2 0.075 0
10.35 0.075 0
10.5 0.075 0
10.65 0.075 0
10.8 0.075 0
10.95 0.075 0
11.1 0.075 0
11.25 0.075 0
11.4 0.075 0
11.55 0.075 0
11.7 0.075 0
11.85 0.075 0
12 0.075 0
12.15 0.075 0
12.3 0.075 0
12.45 0.075 0
12.6 0.075 0
12.75 0.075 0
12.9 0.075 0
13.05 0.075 0
13.2 0.075 0
13.35 0.075 0
13.5 0.075 0
13.65 0.075 0
13.8 0.075 0
13.95 0.075 0
14.1 0.075 0
14.25 0.075 0
14.4 0.075 0
14.55 0.075 0
14.7 0.075 0
14.85 0.075 0
15 0.075 0
15.15 0.075 0
15.3 0.075 0
15.45 0.075 0
15.6 0.075 0
15.75 0.075 0
15.9 0.075 0
16.05 0.075 0
16.2 0.075 0
16.35 0.075 0
16.5 0.075 0
16.65 0.075 0
16.8 0.075 0
16.95 0.075 0
17.1 0.075 0
17.25 0.075 0
17.4 0.075 0
17.55 0.075 0
17.7 0.075 0
17.85 0.075 0
18 0.075 0
18.15 0.075 0
18.3 0.075 0
18.45 0.075 0
18.6 0.075 0
18.75 0.075 0
18.9 0.075 0
19.05 0.075 0
19.2 0.075 0
19.35 0.075 0
19.5 0.075 0
19.65 0.075 0
19.8 0.075 0
19.95 0.075 0
20.1 0.075 0
20.25 0.075 0
20.4 0.075 0
20.55 0.075 0
20.7 0.075 0
20.85 0.075 0
21 0.075 0
21.15 0.075 0
21.3 0.075 0
21.45 0.075 0
21.6 0.075 0
21.75 0.075 0
21.9 0.075 0
22.05 0.075 0
22.2 0.075 0
22.35 0.075 0
22.5 0.075 0
22.65 0.075 0
22.8 0.075 0
22.95 0.075 0
23.1 0.075 0
23.25 0.075 0
23.4 0.075 0
23.55 0.075 0
23.7 0.075 0
23.85 0.075 0
24 0.075 0
24.15 0.075 0
24.3 0.075 0
24.45 0.075 0
24.6 0.075 0
24.75 0.075 0
24.9 0.075 0
25.05 0.075 0
25.2 0.075 0
25.35 0.075 0
25.5 0.075 0
25.65 0.075 0
25.8 0.075 0
25.95 0.075 0
26.1 0.075 0
26.25 0.075 0
26.4 0.075 0
26.55 0.075 0
26.7 0.075 0
26.85 0.075 0
27 0.075 0
27.15 0.075 0
27.3 0.075 0
27.45 0.075 0
27.6 0.075 0
27.75 0.075 0
27.9 0.075 0
28.05 0.075 0
28.2 0.075 0
28.35 0.075 0
28.5 0.075 0
28.65 0.075 0
28.8 0.075 0
28.95 0.075 0
29.1 0.075 0
29.25 0.075 0
29.4 0.075 0
29.55 0.075 0
29.7 0.075 0
29.85 0.075 0
0 0.15 0
0.15 0.15 0
0.3 0.15 0
0.45 0.15 0
0.6 0.15 0
0.75 0.15 0
0.9 0.15 0
1.05 0.15 0
1.2 0.15 0
1.35 0.15 0
1.5 0.15 0
1.65 0.15 0
1.8 0.15 0
1.95 0.15 0
2.1 0.15 0
2.25 0.15 0
2.4 0.15 0
2.55 0.15 0
2.7 0.15 0
2.85 0.15 0
3 0.15 0
3.15 0.15 0
3.3 0.15 0
3.45 0.15 0
3.6 0.15 0
3.75 0.15 0
3.9 0.15 0
4.05 0.15 0
4.2 0.15 0
4.35 0.15 0
4.5 0.15 0
4.65 0.15 0
4.8 0.15 0
4.95 0.15 0
5.1 0.15 0
5.25 0.15 0
5.4 0.15 0
5.55 0.15 0
5.7 0.15 0
5.85 0.15 0
6 0.15 0
6.15 0.15 0
6.3 0.15 0
6.45 0.15 0
6.6 0.15 0
6.75 0.15 0
6.9 0.15 0
7.05 0.15 0
7.2 0.15 0
7.35 0.15 0
7.5 0.15 0
7.65 0.15 0
7.8 0.15 0
7.95 0.15 0
8.1 0.15 0
8.25 0.15 0
8.4 0.15 0
8.55 0.15 0
8.7 0.15 0
8.85 0.15 0
9 0.15 0
9.15 0.15 0
9.3 0.15 0
9.45 0.15 0
9.6 0.15 0
9.75 0.15 0
9.9 0.15 0
10.05 0.15 0
10.2 0.15 0
10.35 0.15 0
10.5 0.15 0
10.65 0.15 0
10.8 0.15 0
10.95 0.15 0
11.1 0.15 0
11.25 0.15 0
11.4 0.15 0
11.55 0.15 0
11.7 0.15 0
11.85 0.15 0
12 0.15 0
12.15 0.15 0
12.3 0.15 0
12.45 0.15 0
12.6 0.15 0
12.75 0.15 0
12.9 0.15 0
13.05 0.15 0
13.2 0.15 0
13.35 0.15 0
13.5 0.15 0
13.65 0.15 0
13.8 0.15 0
13.95 0.15 0
14.1 0.15 0
14.25 0.15 0
14.4 0.15 0
14.55 0.15 0
14.7 0.15 0
14.85 0.15 0
15 0.15 0
15.15 0.15 0
15.3 0.15 0
15.45 0.15 0
15.6 0.15 0
15.75 0.15 0
15.9 0.15 0
16.05 0.15 0
16.2 0.15 0
16.35 0.15 0
16.5 0.15 0
16.65 0.15 0
16.8 0.15 0
16.95 0.15 0
17.1 0.15 0
17.25 0.15 0
17.4 0.15 0
17.55 0.15 0
17.7 0.15 0
17.85 0.15 0
18 0.15 0
18.15 0.15 0
18.3 0.15 0
18.45 0.15 0
18.6 0.15 0
18.75 0.15 0
18.9 0.15 0
19.05 0.15 0
19.2 0.15 0
19.35 0.15 0
19.5 0.15 0
19.65 0.15 0
19.8 0.15 0
19.95 0.15 0
20.1 0.15 0
20.25 0.15 0
20.4 0.15 0
20.55 0.15 0
20.7 0.15 0
20.85 0.15 0
21 0.15 0
21.15 0.15 0
21.3 0.15 0
21.45 0.15 0
21.6 0.15 0
21.75 0.15 0
21.9 0.15 0
22.05 0.15 0
22.2 0.15 0
22.35 0.15 0
22.5 0.15 0
22.65 0.15 0
22.8 0.15 0
22.95 0.15 0
23.1 0.15 0
23.25 0.15 0
23.4 0.15 0
23.55 0.15 0
23.7 0.15 0
23.85 0.15 0
24 0.15 0
24.15 0.15 0
24.3 0.15 0
24.45 0.15 0
24.6 0.15 0
24.75 0.15 0
24.9 0.15 0
25.05 0.15 0
25.2 0.15 0
25.35 0.15 0
25.5 0.15 0
25.65 0.15 0
25.8 0.15 0
25.95 0.15 0
26.1 0.15 0
26.25 0.15 0
26.4 0.15 0
26.55 0.15 0
26.7 0.15 0
26.85 0.15 0
27 0.15 0
27.15 0.15 0
27.3 0.15 0
27.45 0.15 0
27.6 0.15 0
27.75 0.15 0
27.9 0.15 0
28.05 0.15 0
28.2 0.15 0
28.35 0.15 0
28.5 0.15 0
28.65 0.15 0
28.8 0.15 0
28.95 0.15 0
29.1 0.15 0
29.25 0.15 0
29.4 0.15 0
29.55 0.15 0
29.7 0.15 0
29.85 0.15 0
0 0.225 0
0.15 0.225 0
0.3 0.225 0
0.45 0.225 0
0.6 0.225 0
0.75 0.225 0
0.9 0.225 0
1.05 0.225 0
1.2 0.225 0
1.35 0.225 0
1.5 0.225 0
1.65 0.225 0
1.8 0.225 0
1.95 0.225 0
2.1 0.225 0
2.25 0.225 0
2.4 0.225 0
2.55 0.225 0
2.7 0.225 0
2.85 0.225 0
3 0.225 0
3.15 0.225 0
3.3 0.225 0
3.45 0.225 0
3.6 0.225 0
3.75 0.225 0
3.9 0.225 0
4.05 0.225 0
4.2 0.225 0
4.35 0.225 0
4.5 0.225 0
4.65 0.225 0
4.8 0.225 0
4.95 0.225 0
5.1 0.225 0
5.25 0.225 0
5.4 0.225 0
5.55 0.225 0
5.7 0.225 0
5.85 0.225 0
6 0.225 0
6.15 0.225 0
6.3 0.225 0
6.45 0.225 0
6.6 0.225 0
6.75 0.225 0
6.9 0.225 0
7.05 0.225 0
7.2 0.225 0
7.35 0.225 0
7.5 0.225 0
7.65 0.225 0
7.8 0.225 0
7.95 0.225 0
8.1 0.225 0
8.25 0.225 0
8.4 0.225 0
8.55 0.225 0
8.7 0.225 0
8.85 0.225 0
9 0.225 0
9.15 0.225 0
9.3 0.225 0
9.45 0.225 0
9.6 0.225 0
9.75 0.225 0
9.9 0.225 0
10.05 0.225 0
10.2 0.225 0
10.35 0.225 0
10.5 0.225 0
10.65 0.225 0
10.8 0.225 0
10.95 0.225 0
11.1 0.225 0
11.25 0.225 0
11.4 0.225 0
11.55 0.225 0
11.7 0.225 0
11.85 0.225 0
12 0.225 0
12.15 0.225 0
12.3 0.225 0
12.45 0.225 0
12.6 0.225 0
12.75 0.225 0
12.9 0.225 0
13.05 0.225 0
13.2 0.225 0
13.35 0.225 0
13.5 0.225 0
13.65 0.225 0
13.8 0.225 0
13.95 0.225 0
14.1 0.225 0
14.25 0.225 0
14.4 0.225 0
14.55 0.225 0
14.7 0.225 0
14.85 0.225 0
15 0.225 0
15.15 0.225 0
15.3 0.225 0
15.45 0.225 0
15.6 0.225 0
15.75 0.225 0
15.9 0.225 0
16.05 0.225 0
16.2 0.225 0
16.35 0.225 0
16.5 0.225 0
16.65 0.225 0
16.8 0.225 0
16.95 0.225 0
17.1 0.225 0
17.25 0.225 0
17.4 0.225 0
17.55 0.225 0
17.7 0.225 0
17.85 0.225 0
18 0.225 0
18.15 0.225 0
18.3 0.225 0
18.45 0.225 0
18.6 0.225 0
18.75 0.225 0
18.9 0.225 0
19.05 0.225 0
19.2 0.225 0
19.35 0.225 0
19.5 0.225 0
19.65 0.225 0
19.8 0.225 0
19.95 0.225 0
20.1 0.225 0
20.25 0.225 0
20.4 0.225 0
20.55 0.225 0
20.7 0.225 0
20.85 0.225 0
21 0.225 0
21.15 0.225 0
21.3 0.225 0
21.45 0.225 0
21.6 0.225 0
21.75 0.225 0
21.9 0.225 0
22.05 0.225 0
22.2 0.225 0
22.35 0.225 0
22.5 0.225 0
22.65 0.225 0
22.8 0.225 0
22.95 0.225 0
23.1 0.225 0
23.25 0.225 0
23.4 0.225 0
23.55 0.225 0
23.7 0.225 0
23.85 0.225 0
24 0.225 0
24.15 0.225 0
24.3 0.225 0
24.45 0.225 0
24.6 0.225 0
24.75 0.225 0
24.9 0.225 0
25.05 0.225 0
25.2 0.225 0
25.35 0.225 0
25.5 0.225 0
25.65 0.225 0
25.8 0.225 0
25.95 0.225 0
26.1 0.225 0
26.25 0.225 0
26.4 0.225 0
26.55 0.225 0
26.7 0.225 0
26.85 0.225 0
27 0.225 0
27.15 0.225 0
27.3 0.225 0
27.45 0.225 0
27.6 0.225 0
27.75 0.225 0
27.9 0.225 0
28.05 0.225 0
28.2 0.225 0
28.35 0.225 0
28.5 0.225 0
28.65 0.225 0
28.8 0.225 0
28.95 0.225 0
29.1 0.225 0
29.25 0.225 0
29.4 0.225 0
29.55 0.225 0
29.7 0.225 0
29.85 0.225 0
0 0.3 0
0.15 0.3 0
0.3 0.3 0
0.45 0.3 0
0.6 0.3 0
0.75 0.3 0
0.9 0.3 0
1.05 0.3 0
1.2 0.3 0
1.35 0.3 0
1.5 0.3 0
1.65 0.3 0
1.8 0.3 0
1.95 0.3 0
2.1 0.3 0
2.25 0.3 0
2.4 0.3 0
2.55 0.3 0
2.7 0.3 0
2.85 0.3 0
3 0.3 0
3.15 0.3 0
3.3 0.3 0
3.45 0.3 0
3.6 0.3 0
3.75 0.3 0
3.9 0.3 0
4.05 0.3 0
4.2 0.3 0
4.35 0.3 0
4.5 0.3 0
4.65 0.3 0
4.8 0.3 0
4.95 0.3 0
5.1 0.3 0
5.25 0.3 0
5.4 0.3 0
5.55 0.3 0
5.7 0.3 0
5.85 0.3 0
6 0.3 0
6.15 0.3 0
[...]
POINT_DATA 40000

SCALARS p float 1
LOOKUP_TABLE default
20183.44068
20183.44068
20183.38567
20183.35869
20183.34127
20183.32941
20183.32326
20183.3242
20183.33246
20183.34602
20183.36162
20183.37649
20183.38935
20183.4003
20183.40971
20183.41755
20183.42381
20183.42881
20183.43279
20183.43432
20183.43039
20183.41994
20183.39447
20183.35357
20183.42015
20183.78956
20183.68612
20183.36324
20183.14731
20182.95851
20182.77568
20182.59249
20182.40698
20182.21848
20182.02678
20181.83176
20181.63346
20181.43223
20181.22914
20181.02659
20180.82791
20180.71265
20180.71371
20180.72302
20180.827
20180.92971
20180.852
20180.66104
20180.53889
20180.49272
20180.48088
20180.48203
20180.48657
20180.49274
20180.47895
20180.43953
20180.38961
20180.33156
20180.26041
20180.17227
20180.06544
20179.93865
20179.79198
20179.62875
20179.45337
20179.27464
20179.10562
20178.95106
20178.81067
20178.68828
20178.57074
20178.45849
20178.35559
20178.25471
20178.16626
20178.09864
20178.05736
20178.0474
20178.05417
20178.05374
20178.06237
20178.07176
20178.06541
20178.05888
20178.03475
20177.989
20177.93286
20177.87124
20177.81049
20177.79018
20177.84926
20177.97406
20178.10646
20178.20484
20178.2681
20178.31218
20178.34893
20178.38198
20178.41174
20178.44013
20178.46829
20178.49426
20178.51637
20178.53556
20178.55327
20178.56908
20178.58015
20178.59154
20178.58031
20178.5802
20178.57118
20178.40012
20178.32728
20178.40168
20178.45961
20178.46299
20178.44508
20178.43831
20178.46151
20178.52131
20178.61777
20178.74729
20178.9047
20179.08453
20179.28134
20179.49034
20179.70723
20179.92839
20180.15079
20180.37184
20180.58934
20180.80139
20181.00627
20181.20243
20181.38849
20181.56321
20181.72556
20181.87481
20182.01052
20182.13263
20182.24146
20182.33767
20182.42207
20182.49546
20182.55913
20182.6141
20182.66101
20182.70086
20182.73462
20182.76234
20182.7847
20182.80219
20182.81493
20182.82287
20182.82651
20182.82573
20182.82082
20182.81181
20182.79899
20182.78252
20182.76287
20182.74027
20182.71508
20182.68761
20182.65832
20182.62742
20182.59517
20182.56171
20182.52724
20182.49177
20182.45539
20182.41809
20182.38001
20182.34122
20182.30195
20182.26241
20182.22292
20182.18375
20182.14524
20182.10761
20182.07112
20182.03588
20182.00202
20181.96954
20181.93845
20181.90865
20181.8801
20181.85263
20181.82618
20181.80058
20181.77572
20181.75143
20181.7275
20181.70377
20181.67987
20181.6557
20181.63073
20181.60515
20181.57801
20181.57801
20183.44068
20183.44068
20183.38567
20183.35869
20183.34127
20183.32941
20183.32326
20183.3242
20183.33246
20183.34602
20183.36162
20183.37649
20183.38935
20183.4003
20183.40971
20183.41755
20183.42381
20183.42881
20183.43279
20183.43432
20183.43039
20183.41994
20183.39447
20183.35357
20183.42015
20183.78956
20183.68612
20183.36324
20183.14731
20182.95851
20182.77568
20182.59249
20182.40698
20182.21848
20182.02678
20181.83176
20181.63346
20181.43223
20181.22914
20181.02659
20180.82791
20180.71265
20180.71371
20180.72302
20180.827
20180.92971
20180.852
20180.66104
20180.53889
20180.49272
20180.48088
20180.48203
20180.48657
20180.49274
20180.47895
20180.43953
20180.38961
20180.33156
20180.26041
20180.17227
20180.06544
20179.93865
20179.79198
20179.62875
20179.45337
20179.27464
20179.10562
20178.95106
20178.81067
20178.68828
20178.57074
20178.45849
20178.35559
20178.25471
20178.16626
20178.09864
20178.05736
20178.0474
20178.05417
20178.05374
20178.06237
20178.07176
20178.06541
20178.05888
20178.03475
20177.989
20177.93286
20177.87124
20177.81049
20177.79018
20177.84926
20177.97406
20178.10646
20178.20484
20178.2681
20178.31218
20178.34893
20178.38198
20178.41174
20178.44013
20178.46829
20178.49426
20178.51637
20178.53556
20178.55327
20178.56908
20178.58015
20178.59154
20178.58031
20178.5802
20178.57118
20178.40012
20178.32728
20178.40168
20178.45961
20178.46299
20178.44508
20178.43831
20178.46151
20178.52131
20178.61777
20178.74729
20178.9047
20179.08453
20179.28134
20179.49034
20179.70723
20179.92839
20180.15079
20180.37184
20180.58934
20180.80139
20181.00627
20181.20243
20181.38849
20181.56321
20181.72556
20181.87481
20182.01052
20182.13263
20182.24146
20182.33767
20182.42207
20182.49546
20182.55913
20182.6141
20182.66101
20182.70086
20182.73462
20182.76234
20182.7847
20182.80219
20182.81493
20182.82287
20182.82651
20182.82573
20182.82082
20182.81181
20182.79899
20182.78252
20182.76287
20182.74027
20182.71508
20182.68761
20182.65832
20182.62742
20182.59517
20182.56171
20182.52724
20182.49177
20182.45539
20182.41809
20182.38001
20182.34122
20182.30195
20182.26241
20182.22292
20182.18375
20182.14524
20182.10761
20182.07112
20182.03588
20182.00202
20181.96954
20181.93845
20181.90865
20181.8801
20181.85263
20181.82618
20181.80058
20181.77572
20181.75143
20181.7275
20181.70377
20181.67987
20181.6557
20181.63073
20181.60515
20181.57801
20181.57801
20183.40794
20183.40794
20183.37645
20183.35403
20183.33864
20183.32838
20183.32355
20183.32531
20183.33384
20183.34734
20183.36278
20183.3775
20183.39024
20183.40112
20183.41045
20183.41815
20183.42425
20183.42908
20183.43301
20183.43507
20183.43269
20183.42015
20183.37829
20183.31778
20183.33894
20183.60432
20183.56634
20183.33723
20183.14078
20182.95708
20182.77577
20182.59306
20182.4077
20182.21927
20182.02759
20181.83256
20181.63418
20181.43268
20181.229
20181.02568
20180.82977
20180.73849
20180.70313
20180.6931
20180.78201
20180.87582
20180.79915
20180.62311
20180.50643
20180.4636
20180.47042
20180.48463
20180.48779
20180.49094
20180.47779
20180.4389
20180.39032
20180.33358
20180.26315
20180.17504
20180.06736
20179.93897
20179.7906
20179.6254
20179.44762
20179.26777
20179.09925
20178.94434
20178.807
20178.6859
20178.56774
20178.45872
20178.3542
20178.24919
20178.15865
20178.08852
20178.04549
20178.03478
20178.04391
20178.05208
20178.0676
20178.07425
20178.06425
20178.05699
20178.03495
20177.99148
20177.93533
20177.86395
20177.79216
20177.76797
20177.82699
20177.95539
20178.095
20178.19968
20178.26719
20178.31338
20178.35103
20178.38396
20178.4129
20178.44038
20178.46801
20178.49381
20178.51581
20178.53501
20178.55283
20178.56911
20178.57993
20178.59319
20178.57851
20178.57241
20178.58527
20178.42203
20178.32991
20178.38149
20178.42692
20178.42891
20178.41467
20178.41298
20178.44084
20178.50453
20178.60402
20178.73589
20178.89509
20179.07628
20179.27413
20179.48388
20179.70133
20179.92289
20180.14557
20180.36682
20180.58449
20180.79669
20181.00174
20181.19811
20181.38442
20181.55943
20181.72212
20181.87173
20182.0078
20182.13027
20182.23943
20182.33592
20182.4205
20182.49407
20182.55788
20182.61288
20182.65991
20182.69973
20182.73353
20182.76127
20182.78363
20182.80113
20182.81389
20182.82183
20182.82548
20182.82471
20182.81979
20182.81078
20182.79796
20182.78145
20182.7618
20182.73918
20182.71398
20182.6865
20182.65723
20182.62636
20182.59417
20182.56078
20182.5264
20182.49103
20182.45477
20182.41759
20182.37964
20182.34095
20182.30178
20182.26231
20182.22289
20182.18376
20182.1453
20182.1077
20182.07124
20182.03601
20182.00219
20181.96971
20181.93865
20181.90887
20181.88034
20181.85289
20181.82645
20181.80087
20181.77602
20181.75176
20181.72785
20181.70415
20181.68029
20181.65614
20181.63121
20181.60553
20181.57782
20181.57782
20183.38203
20183.38203
20183.36294
20183.34572
20183.33306
20183.32488
20183.32165
20183.32423
20183.33278
20183.34591
20183.36117
20183.37618
20183.3896
20183.40116
20183.41088
20183.4187
20183.4248
20183.42956
20183.43371
20183.43672
20183.43513
20183.41678
20183.35491
20183.28582
20183.2833
20183.43217
20183.44134
20183.30303
20183.13134
20182.95515
20182.77624
20182.59431
20182.4092
20182.22086
20182.02923
20181.8342
20181.63566
20181.43367
20181.22875
20181.02296
20180.82271
20180.72961
20180.66815
20180.64259
20180.71339
20180.79071
20180.71347
20180.55993
20180.44886
20180.40794
20180.44098
20180.48366
20180.49427
20180.4952
20180.47885
20180.43907
20180.3931
20180.33896
20180.26939
20180.18069
20180.07132
20179.94022
20179.78876
20179.62004
20179.43791
20179.25553
20179.08748
20178.93166
20178.79952
20178.68125
20178.56125
20178.45899
20178.35179
20178.2374
20178.14285
20178.0664
20178.01815
20178.00353
20178.01387
20178.03343
20178.05984
20178.07313
20178.06686
20178.06026
20178.04055
20177.9985
20177.93585
20177.84561
20177.76174
20177.73586
20177.79394
20177.92603
20178.07483
20178.18805
20178.26099
20178.31093
20178.35147
20178.38639
20178.41583
20178.44253
20178.46903
20178.4938
20178.5151
20178.53435
20178.55265
20178.5701
20178.57947
20178.59231
20178.58942
20178.55951
20178.54913
20178.41457
20178.31747
20178.32866
20178.35004
20178.3508
20178.34564
20178.35565
20178.39417
20178.4667
20178.57315
20178.71045
20178.87387
20179.05828
20179.2586
20179.4702
20179.68902
20179.91159
20180.13499
20180.3568
20180.57491
20180.78753
20180.99302
20181.18991
20181.37681
20181.5525
20181.71594
20181.86633
20182.00318
20182.12638
20182.23619
20182.33317
20182.41812
20182.492
20182.55602
20182.61105
20182.65825
20182.69803
20182.7319
20182.75966
20182.78199
20182.79955
20182.81232
20182.82025
20182.82393
20182.82313
20182.81821
20182.80914
20182.79627
20182.77968
20182.75997
20182.73725
20182.71197
20182.68441
20182.65513
20182.62421
20182.59205
20182.55868
20182.52441
20182.48911
20182.45299
20182.41592
20182.37811
20182.33953
20182.30049
20182.2611
20182.2218
20182.18275
20182.1444
20182.10689
20182.07056
20182.03543
20182.00174
20181.96937
20181.93845
20181.90876
20181.88035
20181.85298
20181.82665
20181.80115
20181.77643
20181.75226
20181.72853
20181.70494
20181.68131
20181.65731
20181.63265
20181.60692
20181.57843
20181.57843
20183.36105
20183.36105
20183.34898
20183.33606
20183.32595
20183.31959
20183.31764
20183.32077
20183.32904
20183.34146
20183.3562
20183.37134
20183.38556
20183.39829
20183.40921
20183.41806
20183.42486
20183.43
20183.43458
20183.43842
20183.4364
20183.41193
20183.33903
20183.27901
20183.27879
20183.35431
20183.37114
20183.27716
20183.12362
20182.95411
20182.77753
20182.59637
20182.41152
20182.22328
20182.03173
20181.83671
20181.638
20181.43534
20181.22865
20181.01855
20180.80501
20180.69422
20180.62077
20180.59238
20180.64631
20180.70008
20180.62598
20180.49359
20180.38681
20180.34682
20180.39998
20180.47942
20180.50993
20180.51015
20180.48625
20180.44382
20180.39945
20180.34643
20180.27641
20180.1862
20180.07456
20179.94047
20179.78535
20179.61251
20179.42598
20179.2408
20179.07234
20178.91685
20178.78935
20178.67414
20178.55582
20178.45862
20178.34635
20178.22383
20178.12561
20178.04008
20177.98429
20177.96448
20177.97533
20178.00276
20178.03888
20178.06694
20178.07435
20178.0713
20178.05165
20178.00884
20177.9353
20177.82835
20177.74004
20177.71451
20177.7666
20177.89622
20178.04952
20178.16989
20178.24883
20178.30415
20178.34981
20178.38959
20178.42186
20178.44817
20178.4723
20178.49441
20178.51413
20178.5335
20178.5525
20178.56977
20178.58279
20178.5795
20178.56365
20178.51731
20178.46969
20178.35614
20178.26476
20178.24759
20178.25127
20178.25306
20178.25872
20178.28211
20178.3331
20178.41614
20178.53113
20178.67519
20178.84397
20179.03254
20179.23608
20179.4501
20179.67072
20179.89462
20180.11899
20180.34152
20180.56024
20180.77343
20180.97953
20181.17712
20181.36486
20181.54154
20181.70607
20181.85763
20181.99567
20182.12
20182.23081
20182.3286
20182.41417
20182.48857
20182.55291
20182.60808
20182.6555
20182.69528
20182.72922
20182.75705
20182.77936
20182.79699
20182.80978
20182.81771
20182.82142
20182.82058
20182.81564
20182.8065
20182.79352
20182.77679
20182.75698
20182.7341
20182.70867
20182.68097
20182.65162
20182.62062
20182.58844
20182.55509
20182.52091
20182.4857
20182.44974
20182.4128
20182.37516
20182.3367
20182.29783
20182.25856
20182.21941
20182.1805
20182.14233
20182.10499
20182.06889
20182.03398
20182.00054
20181.9684
20181.93772
20181.90824
20181.88006
20181.85289
20181.82679
20181.80148
20181.77701
20181.75305
20181.72962
20181.70629
20181.68308
20181.65944
20181.63534
20181.61004
20181.58204
20181.58204
20183.34325
20183.34325
20183.33536
20183.32583
20183.31799
20183.31319
20183.31221
20183.3156
20183.32341
20183.33492
20183.34879
20183.36357
20183.37815
20183.39184
20183.40416
20183.41463
20183.42301
20183.42945
20183.43479
20183.43882
20183.43535
20183.4083
20183.33572
20183.28769
20183.29473
20183.33914
20183.35021
20183.26586
20183.12071
20182.95515
20182.78007
20182.59939
20182.41468
20182.22654
20182.03508
20181.84014
20181.6413
20181.43796
20181.22925
20181.014
20180.78364
20180.65008
20180.57251
20180.54584
20180.58674
20180.61943
20180.54789
20180.42825
20180.32681
20180.29016
20180.35898
20180.47312
20180.52959
20180.53185
20180.50033
20180.45438
20180.40855
20180.35359
20180.2816
20180.18942
20180.07538
20179.93848
20179.77976
20179.6029
20179.41273
20179.22496
20179.05512
20178.90112
20178.77697
20178.66605
20178.5532
20178.45679
20178.33708
20178.21126
20178.1086
20178.01163
20177.94878
20177.92398
20177.9359
20177.97138
20178.01532
20178.05655
20178.08214
20178.08554
20178.06309
20178.01657
20177.93365
20177.8206
20177.73408
20177.70702
20177.74955
20177.87097
20178.02212
20178.14546
20178.23049
20178.2935
20178.34676
20178.39373
20178.43076
20178.4572
20178.47783
20178.49568
20178.51298
20178.53198
20178.55246
20178.56437
20178.56281
20178.54022
20178.49918
20178.43541
20178.36465
20178.26417
20178.18151
20178.15013
20178.14399
20178.14784
20178.1633
20178.19907
20178.26222
20178.35597
20178.48005
20178.63155
20178.80639
20178.99976
20179.20705
20179.42396
20179.64672
20179.8722
20180.09773
20180.32113
20180.54057
20180.75443
20180.96127
20181.15972
20181.34849
20181.52638
20181.6923
20181.84536
20181.98495
20182.1108
20182.223
20182.32197
20182.40849
20182.48365
20182.54848
20182.60395
20182.65165
20182.6915
20182.72551
20182.75347
20182.77575
20182.79346
20182.80626
20182.81422
20182.81792
20182.81706
20182.81206
20182.80285
20182.7897
20182.7728
20182.75281
20182.72972
20182.70404
20182.67614
20182.64665
20182.61553
20182.58329
20182.54996
20182.51588
20182.4808
20182.44504
20182.4083
20182.3709
20182.33265
20182.29398
20182.25488
20182.21592
20182.17719
20182.13924
20182.10215
20182.06632
20182.03171
20181.99859
20181.96677
20181.93641
20181.90725
20181.87939
20181.85253
20181.82676
20181.80177
20181.77766
20181.75406
20181.73105
20181.70817
20181.6855
20181.66251
20181.63923
20181.61502
20181.5891
20181.5891
20183.32752
20183.32752
20183.32224
20183.31531
20183.30941
20183.30596
20183.30576
20183.30932
20183.31666
20183.32724
20183.3401
20183.35416
20183.36852
20183.38259
20183.39586
20183.40783
20183.41808
20183.42641
20183.43295
20183.43678
20183.4319
20183.40634
20183.34436
20183.30854
20183.32249
20183.35864
20183.3607
20183.26877
20183.1238
20182.95895
20182.78414
20182.60346
20182.41871
20182.23062
20182.03931
20181.84452
20181.64569
20181.44181
20181.23126
20181.01127
20180.76472
20180.60859
20180.52878
20180.50435
20180.53612
20180.55364
20180.48269
20180.37084
20180.27575
20180.24443
20180.32609
20180.46603
20180.54479
20180.55097
20180.51553
20180.46669
20180.41697
20180.35811
20180.28316
20180.18845
20180.0718
20179.93234
20179.77061
20179.59044
20179.39773
20179.20776
20179.03624
20178.88422
20178.76303
20178.65753
20178.55071
20178.45239
20178.32674
20178.1999
20178.08654
20177.97929
20177.91177
20177.8818
20177.89579
20177.94211
20177.99643
20178.04727
20178.08729
20178.0989
20178.07282
20178.0201
20177.93171
20177.82076
20177.73826
20177.70646
20177.73895
20177.84949
20177.99289
20178.1149
20178.20606
20178.27947
20178.34303
20178.39886
20178.44133
20178.46812
20178.48462
20178.49723
20178.51165
20178.5294
20178.54173
20178.53838
20178.51387
20178.46776
20178.40553
20178.32925
20178.2476
20178.15534
20178.07979
20178.04208
20178.03092
20178.03714
20178.06099
20178.10785
20178.18252
20178.28697
20178.42049
20178.58002
20178.76151
20178.96029
20179.17183
20179.39204
20179.61728
20179.84458
20180.07144
20180.29585
20180.51611
20180.73075
20180.93843
20181.13788
20181.32784
20181.50712
20181.67463
20181.82942
20181.97084
20182.09852
20182.21244
20182.31297
20182.40081
20182.47703
20182.54257
20182.59863
20182.64665
20182.68675
20182.72088
20182.749
20182.77127
20182.78907
20182.80188
20182.80989
20182.81355
20182.81266
20182.80759
20182.79828
20182.78489
20182.76778
20182.74753
20182.72416
20182.69814
20182.66997
20182.64025
20182.60897
20182.5766
20182.54328
20182.5093
20182.47442
20182.43891
20182.40249
20182.3654
20182.32747
20182.28908
20182.25026
20182.21154
20182.17307
20182.13536
20182.09856
20182.06303
20182.02878
20181.99601
20181.96458
20181.93458
20181.90581
20181.87831
20181.85185
20181.82647
20181.80192
20181.77824
20181.75513
20181.73263
20181.71036
20181.68835
20181.6662
20181.64396
20181.62128
20181.59814
20181.59814
20183.31317
20183.31317
20183.30958
20183.30462
20183.30034
20183.29804
20183.29852
20183.30221
20183.30914
20183.31891
20183.33081
20183.34402
20183.35783
20183.37175
20183.38536
20183.39824
20183.40997
20183.42009
20183.42801
20183.43191
20183.42643
20183.40474
20183.35971
20183.3373
20183.35544
20183.39211
20183.38768
20183.28283
20183.13266
20182.96567
20182.78982
20182.60858
20182.42359
20182.23551
20182.0444
20181.84991
20181.65128
20181.44721
20181.23536
20181.01204
20180.75208
20180.57524
20180.49199
20180.46926
20180.49581
20180.50468
20180.43544
20180.33074
20180.24192
20180.21663
20180.30707
20180.4598
20180.55035
20180.56072
20180.52579
20180.47567
20180.42155
20180.35792
20180.27893
20180.1808
20180.06139
20179.91972
20179.75604
20179.5738
20179.37987
20179.1885
20179.01576
20178.86595
20178.74781
20178.64733
20178.54554
20178.44472
20178.31633
20178.18676
20178.05836
20177.94583
20177.8729
20177.83487
20177.85184
20177.91297
20177.98365
20178.04359
20178.09368
20178.11389
20178.08474
20178.02463
20177.9331
20177.82452
20177.74391
20177.7056
20177.72946
20177.82832
20177.95983
20178.07782
20178.17609
20178.26269
20178.33901
20178.40452
20178.45215
20178.47912
20178.49166
20178.49903
20178.50851
20178.51695
20178.51227
20178.48587
20178.43792
20178.37297
20178.29654
20178.21203
20178.12503
20178.03724
20177.966
20177.92544
20177.91197
20177.92085
20177.95219
20178.00924
20178.09494
20178.21011
20178.35335
20178.52141
20178.71006
20178.91476
20179.131
20179.35485
20179.58283
20179.81214
20180.04047
20180.26598
20180.48716
20180.70268
20180.91134
20181.11194
20181.30327
20181.48415
20181.65343
20181.81015
20181.95355
20182.08321
20182.19906
20182.30137
20182.39082
20182.46836
20182.53491
20182.59185
20182.64031
20182.68091
20182.71528
20182.74358
20182.76597
20182.78388
20182.79672
20182.80482
20182.80843
20182.80751
20182.80235
20182.79291
20182.77923
20182.76186
20182.74125
20182.71753
20182.69106
20182.66256
20182.63248
20182.60097
20182.56841
20182.53509
20182.50117
20182.46654
20182.43132
20182.39534
20182.35865
20182.32121
20182.28319
20182.24477
20182.20635
20182.16823
20182.1308
20182.09437
20182.05916
20182.02532
20181.99292
20181.96193
20181.93232
20181.90399
20181.87689
20181.85087
20181.82591
20181.80186
20181.77866
20181.75613
20181.7342
20181.71263
20181.69136
20181.67016
20181.64906
20181.62801
20181.60746
20181.60746
20183.29974
20183.29974
20183.29731
20183.29383
20183.29087
20183.28955
20183.2906
20183.2944
20183.30101
20183.31012
20183.32119
20183.33357
20183.34672
20183.36021
20183.37371
20183.38692
20183.39945
20183.41079
20183.41993
20183.42461
20183.41956
20183.40348
20183.37585
20183.36698
20183.3897
20183.42955
20183.42154
20183.3046
20183.14628
20182.97499
20182.79698
20182.61467
20182.42925
20182.24116
20182.05035
20181.85633
20181.65819
20181.45439
20181.24208
20181.01743
20180.74785
20180.5525
20180.46368
20180.44171
20180.46656
20180.47327
20180.40926
20180.3136
20180.23208
20180.21287
20180.30588
20180.45669
20180.547
20180.56014
20180.5285
20180.47832
20180.41998
20180.35061
20180.26642
20180.16411
20180.042
20179.8988
20179.73445
20179.55176
20179.35811
20179.1666
20178.99351
20178.84594
20178.73045
20178.634
20178.53628
20178.43287
20178.30214
20178.16676
20178.02996
20177.9163
20177.83107