# vtk DataFile Version 2.0
FlowField
ASCII
DATASET STRUCTURED_GRID
DIMENSIONS 200 1 200
POINTS 40000 float
0 0 0
0.15 0 0
0.3 0 0
0.45 0 0
0.6 0 0
0.75 0 0
0.9 0 0
1.05 0 0
1.2 0 0
1.35 0 0
1.5 0 0
1.65 0 0
1.8 0 0
1.95 0 0
2.1 0 0
2.25 0 0
2.4 0 0
2.55 0 0
2.7 0 0
2.85 0 0
3 0 0
3.15 0 0
3.3 0 0
3.45 0 0
3.6 0 0
3.75 0 0
3.9 0 0
4.05 0 0
4.2 0 0
4.35 0 0
4.5 0 0
4.65 0 0
4.8 0 0
4.95 0 0
5.1 0 0
5.25 0 0
5.4 0 0
5.55 0 0
5.7 0 0
5.85 0 0
6 0 0
6.15 0 0
6.3 0 0
6.45 0 0
6.6 0 0
6.75 0 0
6.9 0 0
7.05 0 0
7.2 0 0
7.35 0 0
7.5 0 0
7.65 0 0
7.8 0 0
7.95 0 0
8.1 0 0
8.25 0 0
8.4 0 0
8.55 0 0
8.7 0 0
8.85 0 0
9 0 0
9.15 0 0
9.3 0 0
9.45 0 0
9.6 0 0
9.75 0 0
9.9 0 0
10.05 0 0
10.2 0 0
10.35 0 0
10.5 0 0
10.65 0 0
10.8 0 0
10.95 0 0
11.1 0 0
11.25 0 0
11.4 0 0
11.55 0 0
11.7 0 0
11.85 0 0
12 0 0
12.15 0 0
12.3 0 0
12.45 0 0
12.6 0 0
12.75 0 0
12.9 0 0
13.05 0 0
13.2 0 0
13.35 0 0
13.5 0 0
13.65 0 0
13.8 0 0
13.95 0 0
14.1 0 0
14.25 0 0
14.4 0 0
14.55 0 0
14.7 0 0
14.85 0 0
15 0 0
15.15 0 0
15.3 0 0
15.45 0 0
15.6 0 0
15.75 0 0
15.9 0 0
16.05 0 0
16.2 0 0
16.35 0 0
16.5 0 0
16.65 0 0
16.8 0 0
16.95 0 0
17.1 0 0
17.25 0 0
17.4 0 0
17.55 0 0
17.7 0 0
17.85 0 0
18 0 0
18.15 0 0
18.3 0 0
18.45 0 0
18.6 0 0
18.75 0 0
18.9 0 0
19.05 0 0
19.2 0 0
19.35 0 0
19.5 0 0
19.65 0 0
19.8 0 0
19.95 0 0
20.1 0 0
20.25 0 0
20.4 0 0
20.55 0 0
20.7 0 0
20.85 0 0
21 0 0
21.15 0 0
21.3 0 0
21.45 0 0
21.6 0 0
21.75 0 0
21.9 0 0
22.05 0 0
22.2 0 0
22.35 0 0
22.5 0 0
22.65 0 0
22.8 0 0
22.95 0 0
23.1 0 0
23.25 0 0
23.4 0 0
23.55 0 0
23.7 0 0
23.85 0 0
24 0 0
24.15 0 0
24.3 0 0
24.45 0 0
24.6 0 0
24.75 0 0
24.9 0 0
25.05 0 0
25.2 0 0
25.35 0 0
25.5 0 0
25.65 0 0
25.8 0 0
25.95 0 0
26.1 0 0
26.25 0 0
26.4 0 0
26.55 0 0
26.7 0 0
26.85 0 0
27 0 0
27.15 0 0
27.3 0 0
27.45 0 0
27.6 0 0
27.75 0 0
27.9 0 0
28.05 0 0
28.2 0 0
28.35 0 0
28.5 0 0
28.65 0 0
28.8 0 0
28.95 0 0
29.1 0 0
29.25 0 0
29.4 0 0
29.55 0 0
29.7 0 0
29.85 0 0
0 0.075 0
0.15 0.075 0
0.3 0.075 0
0.45 0.075 0
0.6 0.075 0
0.75 0.075 0
0.9 0.075 0
1.05 0.075 0
1.2 0.075 0
1.35 0.075 0
1.5 0.075 0
1.65 0.075 0
1.8 0.075 0
1.95 0.075 0
2.1 0.075 0
2.25 0.075 0
2.4 0.075 0
2.55 0.075 0
2.7 0.075 0
2.85 0.075 0
3 0.075 0
3.15 0.075 0
3.3 0.075 0
3.45 0.075 0
3.6 0.075 0
3.75 0.075 0
3.9 0.075 0
4.05 0.075 0
4.2 0.075 0
4.35 0.075 0
4.5 0.075 0
4.65 0.075 0
4.8 0.075 0
4.95 0.075 0
5.1 0.075 0
5.25 0.075 0
5.4 0.075 0
5.55 0.075 0
5.7 0.075 0
5.85 0.075 0
6 0.075 0
6.15 0.075 0
6.3 0.075 0
6.45 0.075 0
6.6 0.075 0
6.75 0.075 0
6.9 0.075 0
7.05 0.075 0
7.2 0.075 0
7.35 0.075 0
7.5 0.075 0
7.65 0.075 0
7.8 0.075 0
7.95 0.075 0
8.1 0.075 0
8.25 0.075 0
8.4 0.075 0
8.55 0.075 0
8.7 0.075 0
8.85 0.075 0
9 0.075 0
9.15 0.075 0
9.3 0.075 0
9.45 0.075 0
9.6 0.075 0
9.75 0.075 0
9.9 0.075 0
10.05 0.075 0
10.2 0.075 0
10.35 0.075 0
10.5 0.075 0
10.65 0.075 0
10.8 0.075 0
10.95 0.075 0
11.1 0.075 0
11.25 0.075 0
11.4 0.075 0
11.55 0.075 0
11.7 0.075 0
11.85 0.075 0
12 0.075 0
12.15 0.075 0
12.3 0.075 0
12.45 0.075 0
12.6 0.075 0
12.75 0.075 0
12.9 0.075 0
13.05 0.075 0
13.2 0.075 0
13.35 0.075 0
13.5 0.075 0
13.65 0.075 0
13.8 0.075 0
13.95 0.075 0
14.1 0.075 0
14.25 0.075 0
14.4 0.075 0
14.55 0.075 0
14.7 0.075 0
14.85 0.075 0
15 0.075 0
15.15 0.075 0
15.3 0.075 0
15.45 0.075 0
15.6 0.075 0
15.75 0.075 0
15.9 0.075 0
16.05 0.075 0
16.2 0.075 0
16.35 0.075 0
16.5 0.075 0
16.65 0.075 0
16.8 0.075 0
16.95 0.075 0
17.1 0.075 0
17.25 0.075 0
17.4 0.075 0
17.55 0.075 0
17.7 0.075 0
17.85 0.075 0
18 0.075 0
18.15 0.075 0
18.3 0.075 0
18.45 0.075 0
18.6 0.075 0
18.75 0.075 0
18.9 0.075 0
19.05 0.075 0
19.2 0.075 0
19.35 0.075 0
19.5 0.075 0
19.65 0.075 0
19.8 0.075 0
19.95 0.075 0
20.1 0.075 0
20.25 0.075 0
20.4 0.075 0
20.55 0.075 0
20.7 0.075 0
20.85 0.075 0
21 0.075 0
21.15 0.075 0
21.3 0.075 0
21.45 0.075 0
21.6 0.075 0
21.75 0.075 0
21.9 0.075 0
22.05 0.075 0
22.2 0.075 0
22.35 0.075 0
22.5 0.075 0
22.65 0.075 0
22.8 0.075 0
22.95 0.075 0
23.1 0.075 0
23.25 0.075 0
23.4 0.075 0
23.55 0.075 0
23.7 0.075 0
23.85 0.075 0
24 0.075 0
24.15 0.075 0
24.3 0.075 0
24.45 0.075 0
24.6 0.075 0
24.75 0.075 0
24.9 0.075 0
25.05 0.075 0
25.2 0.075 0
25.35 0.075 0
25.5 0.075 0
25.65 0.075 0
25.8 0.075 0
25.95 0.075 0
26.1 0.075 0
26.25 0.075 0
26.4 0.075 0
26.55 0.075 0
26.7 0.075 0
26.85 0.075 0
27 0.075 0
27.15 0.075 0
27.3 0.075 0
27.45 0.075 0
27.6 0.075 0
27.75 0.075 0
27.9 0.075 0
28.05 0.075 0
28.2 0.075 0
28.35 0.075 0
28.5 0.075 0
28.65 0.075 0
28.8 0.075 0
28.95 0.075 0
29.1 0.075 0
29.25 0.075 0
29.4 0.075 0
29.55 0.075 0
29.7 0.075 0
29.85 0.075 0
0 0.15 0
0.15 0.15 0
0.3 0.15 0
0.45 0.15 0
0.6 0.15 0
0.75 0.15 0
0.9 0.15 0
1.05 0.15 0
1.2 0.15 0
1.35 0.15 0
1.5 0.15 0
1.65 0.15 0
1.8 0.15 0
1.95 0.15 0
2.1 0.15 0
2.25 0.15 0
2.4 0.15 0
2.55 0.15 0
2.7 0.15 0
2.85 0.15 0
3 0.15 0
3.15 0.15 0
3.3 0.15 0
3.45 0.15 0
3.6 0.15 0
3.75 0.15 0
3.9 0.15 0
4.05 0.15 0
4.2 0.15 0
4.35 0.15 0
4.5 0.15 0
4.65 0.15 0
4.8 0.15 0
4.95 0.15 0
5.1 0.15 0
5.25 0.15 0
5.4 0.15 0
5.55 0.15 0
5.7 0.15 0
5.85 0.15 0
6 0.15 0
6.15 0.15 0
6.3 0.15 0
6.45 0.15 0
6.6 0.15 0
6.75 0.15 0
6.9 0.15 0
7.05 0.15 0
7.2 0.15 0
7.35 0.15 0
7.5 0.15 0
7.65 0.15 0
7.8 0.15 0
7.95 0.15 0
8.1 0.15 0
8.25 0.15 0
8.4 0.15 0
8.55 0.15 0
8.7 0.15 0
8.85 0.15 0
9 0.15 0
9.15 0.15 0
9.3 0.15 0
9.45 0.15 0
9.6 0.15 0
9.75 0.15 0
9.9 0.15 0
10.05 0.15 0
10.2 0.15 0
10.35 0.15 0
10.5 0.15 0
10.65 0.15 0
10.8 0.15 0
10.95 0.15 0
11.1 0.15 0
11.25 0.15 0
11.4 0.15 0
11.55 0.15 0
11.7 0.15 0
11.85 0.15 0
12 0.15 0
12.15 0.15 0
12.3 0.15 0
12.45 0.15 0
12.6 0.15 0
12.75 0.15 0
12.9 0.15 0
13.05 0.15 0
13.2 0.15 0
13.35 0.15 0
13.5 0.15 0
13.65 0.15 0
13.8 0.15 0
13.95 0.15 0
14.1 0.15 0
14.25 0.15 0
14.4 0.15 0
14.55 0.15 0
14.7 0.15 0
14.85 0.15 0
15 0.15 0
15.15 0.15 0
15.3 0.15 0
15.45 0.15 0
15.6 0.15 0
15.75 0.15 0
15.9 0.15 0
16.05 0.15 0
16.2 0.15 0
16.35 0.15 0
16.5 0.15 0
16.65 0.15 0
16.8 0.15 0
16.95 0.15 0
17.1 0.15 0
17.25 0.15 0
17.4 0.15 0
17.55 0.15 0
17.7 0.15 0
17.85 0.15 0
18 0.15 0
18.15 0.15 0
18.3 0.15 0
18.45 0.15 0
18.6 0.15 0
18.75 0.15 0
18.9 0.15 0
19.05 0.15 0
19.2 0.15 0
19.35 0.15 0
19.5 0.15 0
19.65 0.15 0
19.8 0.15 0
19.95 0.15 0
20.1 0.15 0
20.25 0.15 0
20.4 0.15 0
20.55 0.15 0
20.7 0.15 0
20.85 0.15 0
21 0.15 0
21.15 0.15 0
21.3 0.15 0
21.45 0.15 0
21.6 0.15 0
21.75 0.15 0
21.9 0.15 0
22.05 0.15 0
22.2 0.15 0
22.35 0.15 0
22.5 0.15 0
22.65 0.15 0
22.8 0.15 0
22.95 0.15 0
23.1 0.15 0
23.25 0.15 0
23.4 0.15 0
23.55 0.15 0
23.7 0.15 0
23.85 0.15 0
24 0.15 0
24.15 0.15 0
24.3 0.15 0
24.45 0.15 0
24.6 0.15 0
24.75 0.15 0
24.9 0.15 0
25.05 0.15 0
25.2 0.15 0
25.35 0.15 0
25.5 0.15 0
25.65 0.15 0
25.8 0.15 0
25.95 0.15 0
26.1 0.15 0
26.25 0.15 0
26.4 0.15 0
26.55 0.15 0
26.7 0.15 0
26.85 0.15 0
27 0.15 0
27.15 0.15 0
27.3 0.15 0
27.45 0.15 0
27.6 0.15 0
27.75 0.15 0
27.9 0.15 0
28.05 0.15 0
28.2 0.15 0
28.35 0.15 0
28.5 0.15 0
28.65 0.15 0
28.8 0.15 0
28.95 0.15 0
29.1 0.15 0
29.25 0.15 0
29.4 0.15 0
29.55 0.15 0
29.7 0.15 0
29.85 0.15 0
0 0.225 0
0.15 0.225 0
0.3 0.225 0
0.45 0.225 0
0.6 0.225 0
0.75 0.225 0
0.9 0.225 0
1.05 0.225 0
1.2 0.225 0
1.35 0.225 0
1.5 0.225 0
1.65 0.225 0
1.8 0.225 0
1.95 0.225 0
2.1 0.225 0
2.25 0.225 0
2.4 0.225 0
2.55 0.225 0
2.7 0.225 0
2.85 0.225 0
3 0.225 0
3.15 0.225 0
3.3 0.225 0
3.45 0.225 0
3.6 0.225 0
3.75 0.225 0
3.9 0.225 0
4.05 0.225 0
4.2 0.225 0
4.35 0.225 0
4.5 0.225 0
4.65 0.225 0
4.8 0.225 0
4.95 0.225 0
5.1 0.225 0
5.25 0.225 0
5.4 0.225 0
5.55 0.225 0
5.7 0.225 0
5.85 0.225 0
6 0.225 0
6.15 0.225 0
6.3 0.225 0
6.45 0.225 0
6.6 0.225 0
6.75 0.225 0
6.9 0.225 0
7.05 0.225 0
7.2 0.225 0
7.35 0.225 0
7.5 0.225 0
7.65 0.225 0
7.8 0.225 0
7.95 0.225 0
8.1 0.225 0
8.25 0.225 0
8.4 0.225 0
8.55 0.225 0
8.7 0.225 0
8.85 0.225 0
9 0.225 0
9.15 0.225 0
9.3 0.225 0
9.45 0.225 0
9.6 0.225 0
9.75 0.225 0
9.9 0.225 0
10.05 0.225 0
10.2 0.225 0
10.35 0.225 0
10.5 0.225 0
10.65 0.225 0
10.8 0.225 0
10.95 0.225 0
11.1 0.225 0
11.25 0.225 0
11.4 0.225 0
11.55 0.225 0
11.7 0.225 0
11.85 0.225 0
12 0.225 0
12.15 0.225 0
12.3 0.225 0
12.45 0.225 0
12.6 0.225 0
12.75 0.225 0
12.9 0.225 0
13.05 0.225 0
13.2 0.225 0
13.35 0.225 0
13.5 0.225 0
13.65 0.225 0
13.8 0.225 0
13.95 0.225 0
14.1 0.225 0
14.25 0.225 0
14.4 0.225 0
14.55 0.225 0
14.7 0.225 0
14.85 0.225 0
15 0.225 0
15.15 0.225 0
15.3 0.225 0
15.45 0.225 0
15.6 0.225 0
15.75 0.225 0
15.9 0.225 0
16.05 0.225 0
16.2 0.225 0
16.35 0.225 0
16.5 0.225 0
16.65 0.225 0
16.8 0.225 0
16.95 0.225 0
17.1 0.225 0
17.25 0.225 0
17.4 0.225 0
17.55 0.225 0
17.7 0.225 0
17.85 0.225 0
18 0.225 0
18.15 0.225 0
18.3 0.225 0
18.45 0.225 0
18.6 0.225 0
18.75 0.225 0
18.9 0.225 0
19.05 0.225 0
19.2 0.225 0
19.35 0.225 0
19.5 0.225 0
19.65 0.225 0
19.8 0.225 0
19.95 0.225 0
20.1 0.225 0
20.25 0.225 0
20.4 0.225 0
20.55 0.225 0
20.7 0.225 0
20.85 0.225 0
21 0.225 0
21.15 0.225 0
21.3 0.225 0
21.45 0.225 0
21.6 0.225 0
21.75 0.225 0
21.9 0.225 0
22.05 0.225 0
22.2 0.225 0
22.35 0.225 0
22.5 0.225 0
22.65 0.225 0
22.8 0.225 0
22.95 0.225 0
23.1 0.225 0
23.25 0.225 0
23.4 0.225 0
23.55 0.225 0
23.7 0.225 0
23.85 0.225 0
24 0.225 0
24.15 0.225 0
24.3 0.225 0
24.45 0.225 0
24.6 0.225 0
24.75 0.225 0
24.9 0.225 0
25.05 0.225 0
25.2 0.225 0
25.35 0.225 0
25.5 0.225 0
25.65 0.225 0
25.8 0.225 0
25.95 0.225 0
26.1 0.225 0
26.25 0.225 0
26.4 0.225 0
26.55 0.225 0
26.7 0.225 0
26.85 0.225 0
27 0.225 0
27.15 0.225 0
27.3 0.225 0
27.45 0.225 0
27.6 0.225 0
27.75 0.225 0
27.9 0.225 0
28.05 0.225 0
28.2 0.225 0
28.35 0.225 0
28.5 0.225 0
28.65 0.225 0
28.8 0.225 0
28.95 0.225 0
29.1 0.225 0
29.25 0.225 0
29.4 0.225 0
29.55 0.225 0
29.7 0.225 0
29.85 0.225 0
0 0.3 0
0.15 0.3 0
0.3 0.3 0
0.45 0.3 0
0.6 0.3 0
0.75 0.3 0
0.9 0.3 0
1.05 0.3 0
1.2 0.3 0
1.35 0.3 0
1.5 0.3 0
1.65 0.3 0
1.8 0.3 0
1.95 0.3 0
2.1 0.3 0
2.25 0.3 0
2.4 0.3 0
2.55 0.3 0
2.7 0.3 0
2.85 0.3 0
3 0.3 0
3.15 0.3 0
3.3 0.3 0
3.45 0.3 0
3.6 0.3 0
3.75 0.3 0
3.9 0.3 0
4.05 0.3 0
4.2 0.3 0
4.35 0.3 0
4.5 0.3 0
4.65 0.3 0
4.8 0.3 0
4.95 0.3 0
5.1 0.3 0
5.25 0.3 0
5.4 0.3 0
5.55 0.3 0
5.7 0.3 0
5.85 0.3 0
6 0.3 0
6.15 0.3 0
[...]
POINT_DATA 40000

SCALARS p float 1
LOOKUP_TABLE default
20183.19253
20183.19253
20183.13711
20183.10939
20183.09108
20183.07831
20183.07129
20183.07128
20183.07841
20183.09083
20183.10562
20183.12024
20183.13331
20183.14463
20183.15451
20183.16296
20183.16988
20183.17545
20183.17993
20183.18257
20183.18095
20183.17331
20183.14761
20183.09228
20183.14882
20183.56725
20183.44939
20183.08498
20182.83728
20182.61758
20182.40301
20182.18695
20181.9674
20181.74372
20181.51566
20181.28299
20181.04547
20180.80277
20180.55441
20180.29923
20180.0325
20179.88776
20179.90921
20179.9142
20179.95061
20179.99511
20180.01088
20179.9384
20179.79503
20179.62707
20179.42346
20179.19204
20179.03888
20178.9658
20178.89092
20178.84417
20178.8486
20178.8497
20178.87785
20178.94184
20178.99534
20179.01241
20179.00701
20178.99577
20178.98182
20178.95837
20178.92249
20178.87368
20178.77668
20178.64883
20178.54511
20178.45704
20178.35975
20178.25665
20178.16732
20178.11006
20178.09591
20178.129
20178.20854
20178.33067
20178.48976
20178.67937
20178.89285
20179.12374
20179.36602
20179.61424
20179.86357
20180.1098
20180.34942
20180.57963
20180.79824
20181.00379
20181.19537
20181.37261
20181.53544
20181.68402
20181.81846
20181.93881
20182.04501
20182.13691
20182.21447
20182.27777
20182.32718
20182.36328
20182.38681
20182.3986
20182.39947
20182.39032
20182.37213
20182.34608
20182.31358
20182.27623
20182.23569
20182.19351
20182.15098
20182.1091
20182.06851
20182.0296
20181.9926
20181.9576
20181.92467
20181.89385
20181.86516
20181.8386
20181.81417
20181.79182
20181.77145
20181.75295
20181.73619
20181.72101
20181.70727
20181.69481
20181.68349
20181.67317
20181.66373
20181.65507
20181.6471
20181.63973
20181.6329
20181.62655
20181.62062
20181.61507
20181.60986
20181.60496
20181.60033
20181.59596
20181.59183
20181.5879
20181.58417
20181.58062
20181.57723
20181.574
20181.57091
20181.56795
20181.56511
20181.56239
20181.55978
20181.55726
20181.55484
20181.5525
20181.55025
20181.54807
20181.54596
20181.54393
20181.54195
20181.54004
20181.53818
20181.53637
20181.53461
20181.5329
20181.53124
20181.52961
20181.52802
20181.52647
20181.52495
20181.52347
20181.52201
20181.52058
20181.51917
20181.51779
20181.51643
20181.51509
20181.51377
20181.51246
20181.51117
20181.5099
20181.50863
20181.50738
20181.50613
20181.50489
20181.50366
20181.50243
20181.50121
20181.49999
20181.49877
20181.49755
20181.49633
20181.4951
20181.49388
20181.49388
20183.19253
20183.19253
20183.13711
20183.10939
20183.09108
20183.07831
20183.07129
20183.07128
20183.07841
20183.09083
20183.10562
20183.12024
20183.13331
20183.14463
20183.15451
20183.16296
20183.16988
20183.17545
20183.17993
20183.18257
20183.18095
20183.17331
20183.14761
20183.09228
20183.14882
20183.56725
20183.44939
20183.08498
20182.83728
20182.61758
20182.40301
20182.18695
20181.9674
20181.74372
20181.51566
20181.28299
20181.04547
20180.80277
20180.55441
20180.29923
20180.0325
20179.88776
20179.90921
20179.9142
20179.95061
20179.99511
20180.01088
20179.9384
20179.79503
20179.62707
20179.42346
20179.19204
20179.03888
20178.9658
20178.89092
20178.84417
20178.8486
20178.8497
20178.87785
20178.94184
20178.99534
20179.01241
20179.00701
20178.99577
20178.98182
20178.95837
20178.92249
20178.87368
20178.77668
20178.64883
20178.54511
20178.45704
20178.35975
20178.25665
20178.16732
20178.11006
20178.09591
20178.129
20178.20854
20178.33067
20178.48976
20178.67937
20178.89285
20179.12374
20179.36602
20179.61424
20179.86357
20180.1098
20180.34942
20180.57963
20180.79824
20181.00379
20181.19537
20181.37261
20181.53544
20181.68402
20181.81846
20181.93881
20182.04501
20182.13691
20182.21447
20182.27777
20182.32718
20182.36328
20182.38681
20182.3986
20182.39947
20182.39032
20182.37213
20182.34608
20182.31358
20182.27623
20182.23569
20182.19351
20182.15098
20182.1091
20182.06851
20182.0296
20181.9926
20181.9576
20181.92467
20181.89385
20181.86516
20181.8386
20181.81417
20181.79182
20181.77145
20181.75295
20181.73619
20181.72101
20181.70727
20181.69481
20181.68349
20181.67317
20181.66373
20181.65507
20181.6471
20181.63973
20181.6329
20181.62655
20181.62062
20181.61507
20181.60986
20181.60496
20181.60033
20181.59596
20181.59183
20181.5879
20181.58417
20181.58062
20181.57723
20181.574
20181.57091
20181.56795
20181.56511
20181.56239
20181.55978
20181.55726
20181.55484
20181.5525
20181.55025
20181.54807
20181.54596
20181.54393
20181.54195
20181.54004
20181.53818
20181.53637
20181.53461
20181.5329
20181.53124
20181.52961
20181.52802
20181.52647
20181.52495
20181.52347
20181.52201
20181.52058
20181.51917
20181.51779
20181.51643
20181.51509
20181.51377
20181.51246
20181.51117
20181.5099
20181.50863
20181.50738
20181.50613
20181.50489
20181.50366
20181.50243
20181.50121
20181.49999
20181.49877
20181.49755
20181.49633
20181.4951
20181.49388
20181.49388
20183.15993
20183.15993
20183.12806
20183.10494
20183.08867
20183.07748
20183.0717
20183.07241
20183.07976
20183.0921
20183.10673
20183.12121
20183.13419
20183.14545
20183.15526
20183.16361
20183.17039
20183.17579
20183.1802
20183.18322
20183.18289
20183.17384
20183.13223
20183.05201
20183.05631
20183.3527
20183.31317
20183.05664
20182.83057
20182.61636
20182.40338
20182.18781
20181.96841
20181.7448
20181.51678
20181.28418
20181.04673
20180.80415
20180.55608
20180.30208
20180.04064
20179.92077
20179.91015
20179.9063
20179.93639
20179.97857
20179.98908
20179.92245
20179.78756
20179.61078
20179.39336
20179.15612
20178.99338
20178.91327
20178.85495
20178.83869
20178.84944
20178.84523
20178.8704
20178.93735
20178.99478
20179.01216
20179.00608
20178.99503
20178.98201
20178.95998
20178.92322
20178.87694
20178.78627
20178.65522
20178.53839
20178.4373
20178.33291
20178.22839
20178.14086
20178.08663
20178.07565
20178.11162
20178.19364
20178.31787
20178.47871
20178.66978
20178.8845
20179.11644
20179.35961
20179.60862
20179.85864
20180.10548
20180.34565
20180.57631
20180.79528
20181.0011
20181.19285
20181.37018
20181.53307
20181.68167
20181.81615
20181.93658
20182.04287
20182.13489
20182.21254
20182.27592
20182.3254
20182.36156
20182.38519
20182.3971
20182.39814
20182.38917
20182.37115
20182.34523
20182.31282
20182.27553
20182.23503
20182.19289
20182.15043
20182.10863
20182.06814
20182.02933
20181.99242
20181.95749
20181.9246
20181.89381
20181.86513
20181.83859
20181.81416
20181.7918
20181.77143
20181.75294
20181.73618
20181.72101
20181.70728
20181.69482
20181.6835
20181.67318
20181.66375
20181.65509
20181.64712
20181.63975
20181.63292
20181.62657
20181.62064
20181.61508
20181.60987
20181.60497
20181.60035
20181.59598
20181.59184
20181.58791
20181.58418
20181.58063
20181.57724
20181.57401
20181.57092
20181.56796
20181.56512
20181.5624
20181.55978
20181.55726
20181.55484
20181.5525
20181.55025
20181.54807
20181.54597
20181.54393
20181.54195
20181.54004
20181.53818
20181.53637
20181.53462
20181.53291
20181.53124
20181.52961
20181.52802
20181.52647
20181.52495
20181.52347
20181.52201
20181.52058
20181.51917
20181.51779
20181.51643
20181.51509
20181.51377
20181.51247
20181.51117
20181.5099
20181.50863
20181.50738
20181.50613
20181.50489
20181.50366
20181.50244
20181.50121
20181.49999
20181.49877
20181.49755
20181.49633
20181.4951
20181.49388
20181.49388
20183.13426
20183.13426
20183.11485
20183.09701
20183.08354
20183.07442
20183.07018
20183.07165
20183.07896
20183.09088
20183.10523
20183.11986
20183.13336
20183.14527
20183.15555
20183.1641
20183.17093
20183.1763
20183.18081
20183.18445
20183.18464
20183.17115
20183.11152
20183.02009
20182.9996
20183.16609
20183.1782
20183.02081
20182.82127
20182.61496
20182.40443
20182.18963
20181.97048
20181.74697
20181.51905
20181.28657
20181.04929
20180.80692
20180.55927
20180.30676
20180.0499
20179.9343
20179.9014
20179.88758
20179.90925
20179.94809
20179.95322
20179.89131
20179.76695
20179.58088
20179.336
20179.08461
20178.90903
20178.81856
20178.78213
20178.80269
20178.83459
20178.84089
20178.86804
20178.93641
20178.99483
20179.01038
20179.00377
20178.99462
20178.98314
20178.96366
20178.9255
20178.86568
20178.76505
20178.62778
20178.49563
20178.3776
20178.26504
20178.16156
20178.0802
20178.03379
20178.03044
20178.07318
20178.16099
20178.29007
20178.45499
20178.64947
20178.86705
20179.10141
20179.34666
20179.59746
20179.84905
20180.09727
20180.33862
20180.57028
20180.79003
20180.9964
20181.1885
20181.36601
20181.52897
20181.67762
20181.81218
20181.93274
20182.03922
20182.13144
20182.20926
20182.27277
20182.32231
20182.35854
20182.38225
20182.39432
20182.39557
20182.38683
20182.369
20182.3432
20182.31082
20182.27349
20182.23296
20182.19083
20182.14844
20182.10677
20182.06646
20182.02785
20181.99113
20181.95638
20181.92366
20181.893
20181.86444
20181.83799
20181.81365
20181.79137
20181.77107
20181.75263
20181.73593
20181.7208
20181.7071
20181.69468
20181.68339
20181.67309
20181.66367
20181.65503
20181.64707
20181.63971
20181.63289
20181.62654
20181.62061
20181.61506
20181.60985
20181.60495
20181.60033
20181.59596
20181.59183
20181.5879
20181.58417
20181.58062
20181.57723
20181.574
20181.57091
20181.56795
20181.56511
20181.56239
20181.55977
20181.55726
20181.55483
20181.5525
20181.55024
20181.54807
20181.54596
20181.54392
20181.54195
20181.54003
20181.53817
20181.53637
20181.53461
20181.5329
20181.53123
20181.52961
20181.52802
20181.52647
20181.52495
20181.52346
20181.52201
20181.52058
20181.51917
20181.51779
20181.51643
20181.51509
20181.51377
20181.51247
20181.51118
20181.5099
20181.50863
20181.50738
20181.50613
20181.5049
20181.50367
20181.50244
20181.50122
20181.49999
20181.49877
20181.49755
20181.49633
20181.49511
20181.49389
20181.49389
20183.11361
20183.11361
20183.10125
20183.08779
20183.07694
20183.06969
20183.06674
20183.06874
20183.07577
20183.08695
20183.10068
20183.1152
20183.12924
20183.1421
20183.15348
20183.16306
20183.17069
20183.17656
20183.18138
20183.18547
20183.18502
20183.16698
20183.1001
20183.02379
20183.0074
20183.09207
20183.1092
20182.9956
20182.81444
20182.61486
20182.40664
20182.19257
20181.97364
20181.75025
20181.52247
20181.29017
20181.05312
20180.81101
20180.56372
20180.31205
20180.05348
20179.92892
20179.88242
20179.86114
20179.87404
20179.90679
20179.90841
20179.84863
20179.72742
20179.53193
20179.26252
20178.99651
20178.81526
20178.71934
20178.68943
20178.73708
20178.81
20178.84935
20178.88684
20178.9498
20178.99933
20179.00787
20179.00001
20178.99419
20178.98396
20178.95738
20178.90517
20178.82307
20178.70439
20178.5585
20178.41573
20178.28732
20178.1717
20178.07274
20178.00011
20177.96362
20177.96976
20178.02095
20178.11606
20178.25139
20178.42162
20178.6206
20178.84199
20179.07961
20179.32768
20179.58094
20179.8347
20180.08485
20180.32787
20180.56092
20180.78178
20180.98894
20181.18153
20181.35929
20181.52235
20181.67105
20181.80571
20181.92646
20182.03321
20182.12572
20182.20379
20182.26745
20182.31706
20182.35333
20182.37713
20182.38938
20182.39092
20182.38251
20182.36498
20182.33936
20182.30702
20182.26964
20182.22905
20182.18691
20182.14463
20182.10318
20182.06315
20182.02487
20181.98849
20181.95408
20181.92167
20181.8913
20181.86301
20181.8368
20181.81267
20181.79057
20181.77042
20181.75211
20181.73551
20181.72048
20181.70685
20181.69448
20181.68323
20181.67297
20181.66358
20181.65496
20181.64701
20181.63966
20181.63285
20181.6265
20181.62058
20181.61504
20181.60983
20181.60493
20181.60031
20181.59594
20181.59181
20181.58788
20181.58415
20181.5806
20181.57722
20181.57398
20181.57089
20181.56793
20181.5651
20181.56238
20181.55976
20181.55724
20181.55482
20181.55249
20181.55023
20181.54805
20181.54595
20181.54391
20181.54194
20181.54002
20181.53817
20181.53636
20181.5346
20181.53289
20181.53123
20181.5296
20181.52802
20181.52646
20181.52495
20181.52346
20181.522
20181.52057
20181.51917
20181.51779
20181.51643
20181.51509
20181.51377
20181.51246
20181.51118
20181.5099
20181.50864
20181.50738
20181.50614
20181.5049
20181.50367
20181.50244
20181.50122
20181.5
20181.49878
20181.49756
20181.49634
20181.49511
20181.4939
20181.4939
20183.0962
20183.0962
20183.08806
20183.07804
20183.06952
20183.06388
20183.06193
20183.06424
20183.07085
20183.08114
20183.09394
20183.10793
20183.12203
20183.13556
20183.14804
20183.15902
20183.16815
20183.17535
20183.18098
20183.18514
20183.18331
20183.16332
20183.09992
20183.04449
20183.0388
20183.08665
20183.09417
20182.98685
20182.81327
20182.61732
20182.41043
20182.19675
20181.97793
20181.75463
20181.52701
20181.29496
20181.05821
20180.81642
20180.56934
20180.31778
20180.05279
20179.91241
20179.85627
20179.82898
20179.83378
20179.85869
20179.85687
20179.79694
20179.67292
20179.46671
20179.18087
20178.90556
20178.72498
20178.62827
20178.59683
20178.66029
20178.78012
20178.87209
20178.92979
20178.98213
20179.01279
20179.00821
20178.99739
20178.99099
20178.97306
20178.92913
20178.85337
20178.74685
20178.61218
20178.46057
20178.31329
20178.18102
20178.0661
20177.97291
20177.90911
20177.88248
20177.89827
20177.95834
20178.06139
20178.20371
20178.38001
20178.58424
20178.81015
20179.05168
20179.30317
20179.55943
20179.81587
20180.06842
20180.31354
20180.54836
20180.77064
20180.97881
20181.17203
20181.3501
20181.51326
20181.66201
20181.79678
20181.91777
20182.02488
20182.11777
20182.19615
20182.25997
20182.30963
20182.34589
20182.36974
20182.38218
20182.38407
20182.37611
20182.35901
20182.33366
20182.30141
20182.26398
20182.2233
20182.18116
20182.13902
20182.09785
20182.05823
20182.02041
20181.9845
20181.95055
20181.9186
20181.88867
20181.86079
20181.83497
20181.81118
20181.78938
20181.76949
20181.75139
20181.73497
20181.72007
20181.70654
20181.69426
20181.68307
20181.67285
20181.66349
20181.65489
20181.64696
20181.63963
20181.63282
20181.62648
20181.62056
20181.61502
20181.60981
20181.60492
20181.6003
20181.59593
20181.59179
20181.58787
20181.58414
20181.58059
20181.5772
20181.57397
20181.57088
20181.56792
20181.56508
20181.56236
20181.55974
20181.55723
20181.55481
20181.55247
20181.55022
20181.54804
20181.54594
20181.5439
20181.54193
20181.54001
20181.53815
20181.53635
20181.53459
20181.53288
20181.53122
20181.52959
20181.52801
20181.52646
20181.52494
20181.52345
20181.522
20181.52057
20181.51917
20181.51779
20181.51643
20181.51509
20181.51377
20181.51247
20181.51118
20181.5099
20181.50864
20181.50739
20181.50614
20181.50491
20181.50368
20181.50245
20181.50123
20181.50001
20181.49879
20181.49757
20181.49635
20181.49512
20181.49391
20181.49391
20183.08091
20183.08091
20183.07541
20183.06804
20183.06151
20183.05727
20183.05615
20183.05866
20183.06485
20183.07428
20183.08606
20183.09922
20183.11291
20183.12653
20183.13962
20183.15173
20183.1624
20183.17131
20183.1782
20183.18249
20183.17921
20183.15988
20183.10783
20183.06983
20183.07457
20183.11157
20183.10917
20182.99323
20182.8188
20182.62299
20182.41608
20182.20225
20181.98334
20181.76009
20181.53266
20181.30094
20181.06458
20180.82315
20180.5762
20180.32441
20180.05077
20179.89116
20179.82581
20179.7928
20179.79034
20179.80753
20179.80157
20179.7395
20179.61037
20179.39448
20179.09994
20178.82283
20178.6455
20178.54695
20178.51092
20178.58533
20178.74881
20178.8978
20178.98205
20179.02622
20179.03594
20179.01538
20178.99647
20178.97967
20178.94277
20178.87407
20178.77392
20178.64796
20178.50254
20178.34801
20178.19948
20178.0665
20177.95363
20177.86591
20177.81005
20177.7925
20177.81757
20177.88658
20177.99794
20178.1478
20178.33082
20178.54094
20178.77198
20179.01797
20179.2734
20179.53317
20179.79276
20180.04815
20180.29579
20180.53276
20180.75676
20180.96617
20181.16016
20181.3386
20181.50187
20181.65065
20181.78555
20181.90684
20182.01439
20182.10777
20182.18652
20182.25053
20182.30018
20182.33634
20182.36016
20182.37275
20182.37504
20182.36765
20182.3511
20182.32615
20182.29404
20182.25655
20182.21575
20182.17361
20182.13166
20182.09088
20182.05178
20182.01456
20181.97927
20181.94592
20181.91453
20181.88515
20181.8578
20181.83247
20181.80914
20181.78776
20181.76822
20181.75042
20181.73424
20181.71953
20181.70615
20181.69397
20181.68287
20181.67271
20181.6634
20181.65483
20181.64692
20181.6396
20181.6328
20181.62647
20181.62055
20181.61501
20181.6098
20181.60491
20181.60028
20181.59592
20181.59178
20181.58785
20181.58412
20181.58057
20181.57718
20181.57395
20181.57086
20181.5679
20181.56506
20181.56234
20181.55973
20181.55721
20181.55479
20181.55245
20181.5502
20181.54802
20181.54592
20181.54388
20181.54191
20181.54
20181.53814
20181.53634
20181.53458
20181.53287
20181.53121
20181.52958
20181.528
20181.52645
20181.52493
20181.52345
20181.52199
20181.52056
20181.51916
20181.51778
20181.51643
20181.51509
20181.51377
20181.51247
20181.51118
20181.5099
20181.50864
20181.50739
20181.50615
20181.50491
20181.50368
20181.50246
20181.50124
20181.50002
20181.4988
20181.49758
20181.49636
20181.49514
20181.49393
20181.49393
20183.06706
20183.06706
20183.06327
20183.05791
20183.05304
20183.04999
20183.04959
20183.05227
20183.05811
20183.06677
20183.07761
20183.08987
20183.10289
20183.11617
20183.12932
20183.14197
20183.1537
20183.16405
20183.17223
20183.17705
20183.17277
20183.15654
20183.11945
20183.09661
20183.10863
20183.14659
20183.13948
20183.01126
20182.83062
20182.63192
20182.42362
20182.20906
20181.98984
20181.76658
20181.53939
20181.30808
20181.07222
20180.83127
20180.58446
20180.33262
20180.05
20179.86947
20179.79343
20179.75437
20179.74534
20179.75568
20179.74573
20179.68077
20179.54654
20179.32474
20179.02777
20178.75396
20178.57899
20178.47524
20178.43477
20178.5198
20178.71796
20178.91425
20179.02643
20179.06935
20179.06276
20179.02691
20178.9931
20178.9546
20178.89142
20178.79769
20178.67757
20178.53788
20178.38538
20178.22887
20178.07974
20177.94674
20177.83579
20177.75263
20177.70356
20177.6942
20177.72811
20177.80605
20177.92605
20178.08396
20178.27428
20178.49089
20178.72761
20178.97858
20179.23842
20179.50216
20179.76536
20180.02402
20180.2746
20180.5141
20180.74015
20180.95106
20181.14598
20181.32486
20181.48826
20181.63707
20181.7721
20181.89376
20182.00187
20182.09586
20182.17508
20182.23929
20182.28887
20182.32482
20182.34849
20182.36118
20182.36387
20182.35713
20182.34128
20182.31682
20182.2849
20182.24734
20182.2064
20182.16424
20182.12252
20182.08225
20182.04385
20182.0074
20181.97288
20181.94026
20181.90956
20181.88083
20181.85408
20181.82934
20181.80655
20181.78566
20181.76655
20181.74913
20181.73325
20181.71878
20181.7056
20181.69357
20181.68258
20181.67251
20181.66325
20181.65473
20181.64685
20181.63955
20181.63276
20181.62644
20181.62053
20181.61499
20181.60978
20181.60489
20181.60026
20181.5959
20181.59176
20181.58783
20181.5841
20181.58055
20181.57716
20181.57393
20181.57083
20181.56788
20181.56504
20181.56232
20181.5597
20181.55719
20181.55476
20181.55243
20181.55018
20181.548
20181.5459
20181.54386
20181.54189
20181.53998
20181.53812
20181.53632
20181.53457
20181.53286
20181.53119
20181.52957
20181.52799
20181.52644
20181.52492
20181.52344
20181.52198
20181.52056
20181.51916
20181.51778
20181.51642
20181.51509
20181.51377
20181.51247
20181.51118
20181.50991
20181.50865
20181.5074
20181.50615
20181.50492
20181.50369
20181.50247
20181.50125
20181.50003
20181.49882
20181.4976
20181.49638
20181.49516
20181.49394
20181.49394
20183.05419
20183.05419
20183.05157
20183.04771
20183.0442
20183.04216
20183.04236
20183.0452
20183.05076
20183.0588
20183.06882
20183.08024
20183.09252
20183.10525
20183.11811
20183.1308
20183.14299
20183.15421
20183.16342
20183.16923
20183.16552
20183.15487
20183.13158
20183.123
20183.14299
20183.18638
20183.17744
20183.03744
20182.84754
20182.64372
20182.43285
20182.21706
20181.99734
20181.77405
20181.54716
20181.31636
20181.08115
20180.84085
20180.5943
20180.34302
20180.05246
20179.85031
20179.76129
20179.71548
20179.70046
20179.70516
20179.69205
20179.62504
20179.48781
20179.26475
20178.97091
20178.70179
20178.52685
20178.41778
20178.37576
20178.46861
20178.68962
20178.91785
20179.05113
20179.09766
20179.08153
20179.03287
20178.97889
20178.91329
20178.82378
20178.70899
20178.57369
20178.42393
20178.26572
20178.10664
20177.95607
20177.82241
20177.7125
20177.63275
20177.58934
20177.58737
20177.62976
20177.7167