# vtk DataFile Version 2.0
FlowField
ASCII
DATASET STRUCTURED_GRID
DIMENSIONS 200 1 200
POINTS 40000 float
0 0 0
0.15 0 0
0.3 0 0
0.45 0 0
0.6 0 0
0.75 0 0
0.9 0 0
1.05 0 0
1.2 0 0
1.35 0 0
1.5 0 0
1.65 0 0
1.8 0 0
1.95 0 0
2.1 0 0
2.25 0 0
2.4 0 0
2.55 0 0
2.7 0 0
2.85 0 0
3 0 0
3.15 0 0
3.3 0 0
3.45 0 0
3.6 0 0
3.75 0 0
3.9 0 0
4.05 0 0
4.2 0 0
4.35 0 0
4.5 0 0
4.65 0 0
4.8 0 0
4.95 0 0
5.1 0 0
5.25 0 0
5.4 0 0
5.55 0 0
5.7 0 0
5.85 0 0
6 0 0
6.15 0 0
6.3 0 0
6.45 0 0
6.6 0 0
6.75 0 0
6.9 0 0
7.05 0 0
7.2 0 0
7.35 0 0
7.5 0 0
7.65 0 0
7.8 0 0
7.95 0 0
8.1 0 0
8.25 0 0
8.4 0 0
8.55 0 0
8.7 0 0
8.85 0 0
9 0 0
9.15 0 0
9.3 0 0
9.45 0 0
9.6 0 0
9.75 0 0
9.9 0 0
10.05 0 0
10.2 0 0
10.35 0 0
10.5 0 0
10.65 0 0
10.8 0 0
10.95 0 0
11.1 0 0
11.25 0 0
11.4 0 0
11.55 0 0
11.7 0 0
11.85 0 0
12 0 0
12.15 0 0
12.3 0 0
12.45 0 0
12.6 0 0
12.75 0 0
12.9 0 0
13.05 0 0
13.2 0 0
13.35 0 0
13.5 0 0
13.65 0 0
13.8 0 0
13.95 0 0
14.1 0 0
14.25 0 0
14.4 0 0
14.55 0 0
14.7 0 0
14.85 0 0
15 0 0
15.15 0 0
15.3 0 0
15.45 0 0
15.6 0 0
15.75 0 0
15.9 0 0
16.05 0 0
16.2 0 0
16.35 0 0
16.5 0 0
16.65 0 0
16.8 0 0
16.95 0 0
17.1 0 0
17.25 0 0
17.4 0 0
17.55 0 0
17.7 0 0
17.85 0 0
18 0 0
18.15 0 0
18.3 0 0
18.45 0 0
18.6 0 0
18.75 0 0
18.9 0 0
19.05 0 0
19.2 0 0
19.35 0 0
19.5 0 0
19.65 0 0
19.8 0 0
19.95 0 0
20.1 0 0
20.25 0 0
20.4 0 0
20.55 0 0
20.7 0 0
20.85 0 0
21 0 0
21.15 0 0
21.3 0 0
21.45 0 0
21.6 0 0
21.75 0 0
21.9 0 0
22.05 0 0
22.2 0 0
22.35 0 0
22.5 0 0
22.65 0 0
22.8 0 0
22.95 0 0
23.1 0 0
23.25 0 0
23.4 0 0
23.55 0 0
23.7 0 0
23.85 0 0
24 0 0
24.15 0 0
24.3 0 0
24.45 0 0
24.6 0 0
24.75 0 0
24.9 0 0
25.05 0 0
25.2 0 0
25.35 0 0
25.5 0 0
25.65 0 0
25.8 0 0
25.95 0 0
26.1 0 0
26.25 0 0
26.4 0 0
26.55 0 0
26.7 0 0
26.85 0 0
27 0 0
27.15 0 0
27.3 0 0
27.45 0 0
27.6 0 0
27.75 0 0
27.9 0 0
28.05 0 0
28.2 0 0
28.35 0 0
28.5 0 0
28.65 0 0
28.8 0 0
28.95 0 0
29.1 0 0
29.25 0 0
29.4 0 0
29.55 0 0
29.7 0 0
29.85 0 0
0 0.075 0
0.15 0.075 0
0.3 0.075 0
0.45 0.075 0
0.6 0.075 0
0.75 0.075 0
0.9 0.075 0
1.05 0.075 0
1.2 0.075 0
1.35 0.075 0
1.5 0.075 0
1.65 0.075 0
1.8 0.075 0
1.95 0.075 0
2.1 0.075 0
2.25 0.075 0
2.4 0.075 0
2.55 0.075 0
2.7 0.075 0
2.85 0.075 0
3 0.075 0
3.15 0.075 0
3.3 0.075 0
3.45 0.075 0
3.6 0.075 0
3.75 0.075 0
3.9 0.075 0
4.05 0.075 0
4.2 0.075 0
4.35 0.075 0
4.5 0.075 0
4.65 0.075 0
4.8 0.075 0
4.95 0.075 0
5.1 0.075 0
5.25 0.075 0
5.4 0.075 0
5.55 0.075 0
5.7 0.075 0
5.85 0.075 0
6 0.075 0
6.15 0.075 0
6.3 0.075 0
6.45 0.075 0
6.6 0.075 0
6.75 0.075 0
6.9 0.075 0
7.05 0.075 0
7.2 0.075 0
7.35 0.075 0
7.5 0.075 0
7.65 0.075 0
7.8 0.075 0
7.95 0.075 0
8.1 0.075 0
8.25 0.075 0
8.4 0.075 0
8.55 0.075 0
8.7 0.075 0
8.85 0.075 0
9 0.075 0
9.15 0.075 0
9.3 0.075 0
9.45 0.075 0
9.6 0.075 0
9.75 0.075 0
9.9 0.075 0
10.05 0.075 0
10.2 0.075 0
10.35 0.075 0
10.5 0.075 0
10.65 0.075 0
10.8 0.075 0
10.95 0.075 0
11.1 0.075 0
11.25 0.075 0
11.4 0.075 0
11.55 0.075 0
11.7 0.075 0
11.85 0.075 0
12 0.075 0
12.15 0.075 0
12.3 0.075 0
12.45 0.075 0
12.6 0.075 0
12.75 0.075 0
12.9 0.075 0
13.05 0.075 0
13.2 0.075 0
13.35 0.075 0
13.5 0.075 0
13.65 0.075 0
13.8 0.075 0
13.95 0.075 0
14.1 0.075 0
14.25 0.075 0
14.4 0.075 0
14.55 0.075 0
14.7 0.075 0
14.85 0.075 0
15 0.075 0
15.15 0.075 0
15.3 0.075 0
15.45 0.075 0
15.6 0.075 0
15.75 0.075 0
15.9 0.075 0
16.05 0.075 0
16.2 0.075 0
16.35 0.075 0
16.5 0.075 0
16.65 0.075 0
16.8 0.075 0
16.95 0.075 0
17.1 0.075 0
17.25 0.075 0
17.4 0.075 0
17.55 0.075 0
17.7 0.075 0
17.85 0.075 0
18 0.075 0
18.15 0.075 0
18.3 0.075 0
18.45 0.075 0
18.6 0.075 0
18.75 0.075 0
18.9 0.075 0
19.05 0.075 0
19.2 0.075 0
19.35 0.075 0
19.5 0.075 0
19.65 0.075 0
19.8 0.075 0
19.95 0.075 0
20.1 0.075 0
20.25 0.075 0
20.4 0.075 0
20.55 0.075 0
20.7 0.075 0
20.85 0.075 0
21 0.075 0
21.15 0.075 0
21.3 0.075 0
21.45 0.075 0
21.6 0.075 0
21.75 0.075 0
21.9 0.075 0
22.05 0.075 0
22.2 0.075 0
22.35 0.075 0
22.5 0.075 0
22.65 0.075 0
22.8 0.075 0
22.95 0.075 0
23.1 0.075 0
23.25 0.075 0
23.4 0.075 0
23.55 0.075 0
23.7 0.075 0
23.85 0.075 0
24 0.075 0
24.15 0.075 0
24.3 0.075 0
24.45 0.075 0
24.6 0.075 0
24.75 0.075 0
24.9 0.075 0
25.05 0.075 0
25.2 0.075 0
25.35 0.075 0
25.5 0.075 0
25.65 0.075 0
25.8 0.075 0
25.95 0.075 0
26.1 0.075 0
26.25 0.075 0
26.4 0.075 0
26.55 0.075 0
26.7 0.075 0
26.85 0.075 0
27 0.075 0
27.15 0.075 0
27.3 0.075 0
27.45 0.075 0
27.6 0.075 0
27.75 0.075 0
27.9 0.075 0
28.05 0.075 0
28.2 0.075 0
28.35 0.075 0
28.5 0.075 0
28.65 0.075 0
28.8 0.075 0
28.95 0.075 0
29.1 0.075 0
29.25 0.075 0
29.4 0.075 0
29.55 0.075 0
29.7 0.075 0
29.85 0.075 0
0 0.15 0
0.15 0.15 0
0.3 0.15 0
0.45 0.15 0
0.6 0.15 0
0.75 0.15 0
0.9 0.15 0
1.05 0.15 0
1.2 0.15 0
1.35 0.15 0
1.5 0.15 0
1.65 0.15 0
1.8 0.15 0
1.95 0.15 0
2.1 0.15 0
2.25 0.15 0
2.4 0.15 0
2.55 0.15 0
2.7 0.15 0
2.85 0.15 0
3 0.15 0
3.15 0.15 0
3.3 0.15 0
3.45 0.15 0
3.6 0.15 0
3.75 0.15 0
3.9 0.15 0
4.05 0.15 0
4.2 0.15 0
4.35 0.15 0
4.5 0.15 0
4.65 0.15 0
4.8 0.15 0
4.95 0.15 0
5.1 0.15 0
5.25 0.15 0
5.4 0.15 0
5.55 0.15 0
5.7 0.15 0
5.85 0.15 0
6 0.15 0
6.15 0.15 0
6.3 0.15 0
6.45 0.15 0
6.6 0.15 0
6.75 0.15 0
6.9 0.15 0
7.05 0.15 0
7.2 0.15 0
7.35 0.15 0
7.5 0.15 0
7.65 0.15 0
7.8 0.15 0
7.95 0.15 0
8.1 0.15 0
8.25 0.15 0
8.4 0.15 0
8.55 0.15 0
8.7 0.15 0
8.85 0.15 0
9 0.15 0
9.15 0.15 0
9.3 0.15 0
9.45 0.15 0
9.6 0.15 0
9.75 0.15 0
9.9 0.15 0
10.05 0.15 0
10.2 0.15 0
10.35 0.15 0
10.5 0.15 0
10.65 0.15 0
10.8 0.15 0
10.95 0.15 0
11.1 0.15 0
11.25 0.15 0
11.4 0.15 0
11.55 0.15 0
11.7 0.15 0
11.85 0.15 0
12 0.15 0
12.15 0.15 0
12.3 0.15 0
12.45 0.15 0
12.6 0.15 0
12.75 0.15 0
12.9 0.15 0
13.05 0.15 0
13.2 0.15 0
13.35 0.15 0
13.5 0.15 0
13.65 0.15 0
13.8 0.15 0
13.95 0.15 0
14.1 0.15 0
14.25 0.15 0
14.4 0.15 0
14.55 0.15 0
14.7 0.15 0
14.85 0.15 0
15 0.15 0
15.15 0.15 0
15.3 0.15 0
15.45 0.15 0
15.6 0.15 0
15.75 0.15 0
15.9 0.15 0
16.05 0.15 0
16.2 0.15 0
16.35 0.15 0
16.5 0.15 0
16.65 0.15 0
16.8 0.15 0
16.95 0.15 0
17.1 0.15 0
17.25 0.15 0
17.4 0.15 0
17.55 0.15 0
17.7 0.15 0
17.85 0.15 0
18 0.15 0
18.15 0.15 0
18.3 0.15 0
18.45 0.15 0
18.6 0.15 0
18.75 0.15 0
18.9 0.15 0
19.05 0.15 0
19.2 0.15 0
19.35 0.15 0
19.5 0.15 0
19.65 0.15 0
19.8 0.15 0
19.95 0.15 0
20.1 0.15 0
20.25 0.15 0
20.4 0.15 0
20.55 0.15 0
20.7 0.15 0
20.85 0.15 0
21 0.15 0
21.15 0.15 0
21.3 0.15 0
21.45 0.15 0
21.6 0.15 0
21.75 0.15 0
21.9 0.15 0
22.05 0.15 0
22.2 0.15 0
22.35 0.15 0
22.5 0.15 0
22.65 0.15 0
22.8 0.15 0
22.95 0.15 0
23.1 0.15 0
23.25 0.15 0
23.4 0.15 0
23.55 0.15 0
23.7 0.15 0
23.85 0.15 0
24 0.15 0
24.15 0.15 0
24.3 0.15 0
24.45 0.15 0
24.6 0.15 0
24.75 0.15 0
24.9 0.15 0
25.05 0.15 0
25.2 0.15 0
25.35 0.15 0
25.5 0.15 0
25.65 0.15 0
25.8 0.15 0
25.95 0.15 0
26.1 0.15 0
26.25 0.15 0
26.4 0.15 0
26.55 0.15 0
26.7 0.15 0
26.85 0.15 0
27 0.15 0
27.15 0.15 0
27.3 0.15 0
27.45 0.15 0
27.6 0.15 0
27.75 0.15 0
27.9 0.15 0
28.05 0.15 0
28.2 0.15 0
28.35 0.15 0
28.5 0.15 0
28.65 0.15 0
28.8 0.15 0
28.95 0.15 0
29.1 0.15 0
29.25 0.15 0
29.4 0.15 0
29.55 0.15 0
29.7 0.15 0
29.85 0.15 0
0 0.225 0
0.15 0.225 0
0.3 0.225 0
0.45 0.225 0
0.6 0.225 0
0.75 0.225 0
0.9 0.225 0
1.05 0.225 0
1.2 0.225 0
1.35 0.225 0
1.5 0.225 0
1.65 0.225 0
1.8 0.225 0
1.95 0.225 0
2.1 0.225 0
2.25 0.225 0
2.4 0.225 0
2.55 0.225 0
2.7 0.225 0
2.85 0.225 0
3 0.225 0
3.15 0.225 0
3.3 0.225 0
3.45 0.225 0
3.6 0.225 0
3.75 0.225 0
3.9 0.225 0
4.05 0.225 0
4.2 0.225 0
4.35 0.225 0
4.5 0.225 0
4.65 0.225 0
4.8 0.225 0
4.95 0.225 0
5.1 0.225 0
5.25 0.225 0
5.4 0.225 0
5.55 0.225 0
5.7 0.225 0
5.85 0.225 0
6 0.225 0
6.15 0.225 0
6.3 0.225 0
6.45 0.225 0
6.6 0.225 0
6.75 0.225 0
6.9 0.225 0
7.05 0.225 0
7.2 0.225 0
7.35 0.225 0
7.5 0.225 0
7.65 0.225 0
7.8 0.225 0
7.95 0.225 0
8.1 0.225 0
8.25 0.225 0
8.4 0.225 0
8.55 0.225 0
8.7 0.225 0
8.85 0.225 0
9 0.225 0
9.15 0.225 0
9.3 0.225 0
9.45 0.225 0
9.6 0.225 0
9.75 0.225 0
9.9 0.225 0
10.05 0.225 0
10.2 0.225 0
10.35 0.225 0
10.5 0.225 0
10.65 0.225 0
10.8 0.225 0
10.95 0.225 0
11.1 0.225 0
11.25 0.225 0
11.4 0.225 0
11.55 0.225 0
11.7 0.225 0
11.85 0.225 0
12 0.225 0
12.15 0.225 0
12.3 0.225 0
12.45 0.225 0
12.6 0.225 0
12.75 0.225 0
12.9 0.225 0
13.05 0.225 0
13.2 0.225 0
13.35 0.225 0
13.5 0.225 0
13.65 0.225 0
13.8 0.225 0
13.95 0.225 0
14.1 0.225 0
14.25 0.225 0
14.4 0.225 0
14.55 0.225 0
14.7 0.225 0
14.85 0.225 0
15 0.225 0
15.15 0.225 0
15.3 0.225 0
15.45 0.225 0
15.6 0.225 0
15.75 0.225 0
15.9 0.225 0
16.05 0.225 0
16.2 0.225 0
16.35 0.225 0
16.5 0.225 0
16.65 0.225 0
16.8 0.225 0
16.95 0.225 0
17.1 0.225 0
17.25 0.225 0
17.4 0.225 0
17.55 0.225 0
17.7 0.225 0
17.85 0.225 0
18 0.225 0
18.15 0.225 0
18.3 0.225 0
18.45 0.225 0
18.6 0.225 0
18.75 0.225 0
18.9 0.225 0
19.05 0.225 0
19.2 0.225 0
19.35 0.225 0
19.5 0.225 0
19.65 0.225 0
19.8 0.225 0
19.95 0.225 0
20.1 0.225 0
20.25 0.225 0
20.4 0.225 0
20.55 0.225 0
20.7 0.225 0
20.85 0.225 0
21 0.225 0
21.15 0.225 0
21.3 0.225 0
21.45 0.225 0
21.6 0.225 0
21.75 0.225 0
21.9 0.225 0
22.05 0.225 0
22.2 0.225 0
22.35 0.225 0
22.5 0.225 0
22.65 0.225 0
22.8 0.225 0
22.95 0.225 0
23.1 0.225 0
23.25 0.225 0
23.4 0.225 0
23.55 0.225 0
23.7 0.225 0
23.85 0.225 0
24 0.225 0
24.15 0.225 0
24.3 0.225 0
24.45 0.225 0
24.6 0.225 0
24.75 0.225 0
24.9 0.225 0
25.05 0.225 0
25.2 0.225 0
25.35 0.225 0
25.5 0.225 0
25.65 0.225 0
25.8 0.225 0
25.95 0.225 0
26.1 0.225 0
26.25 0.225 0
26.4 0.225 0
26.55 0.225 0
26.7 0.225 0
26.85 0.225 0
27 0.225 0
27.15 0.225 0
27.3 0.225 0
27.45 0.225 0
27.6 0.225 0
27.75 0.225 0
27.9 0.225 0
28.05 0.225 0
28.2 0.225 0
28.35 0.225 0
28.5 0.225 0
28.65 0.225 0
28.8 0.225 0
28.95 0.225 0
29.1 0.225 0
29.25 0.225 0
29.4 0.225 0
29.55 0.225 0
29.7 0.225 0
29.85 0.225 0
0 0.3 0
0.15 0.3 0
0.3 0.3 0
0.45 0.3 0
0.6 0.3 0
0.75 0.3 0
0.9 0.3 0
1.05 0.3 0
1.2 0.3 0
1.35 0.3 0
1.5 0.3 0
1.65 0.3 0
1.8 0.3 0
1.95 0.3 0
2.1 0.3 0
2.25 0.3 0
2.4 0.3 0
2.55 0.3 0
2.7 0.3 0
2.85 0.3 0
3 0.3 0
3.15 0.3 0
3.3 0.3 0
3.45 0.3 0
3.6 0.3 0
3.75 0.3 0
3.9 0.3 0
4.05 0.3 0
4.2 0.3 0
4.35 0.3 0
4.5 0.3 0
4.65 0.3 0
4.8 0.3 0
4.95 0.3 0
5.1 0.3 0
5.25 0.3 0
5.4 0.3 0
5.55 0.3 0
5.7 0.3 0
5.85 0.3 0
6 0.3 0
6.15 0.3 0
[...]
POINT_DATA 40000

SCALARS p float 1
LOOKUP_TABLE default
20050.35926
20050.35926
20050.30267
20050.27276
20050.25178
20050.23639
20050.22721
20050.22515
20050.22995
20050.24026
20050.25428
20050.27058
20050.28874
20050.30897
20050.3315
20050.35612
20050.38238
20050.40963
20050.43727
20050.46461
20050.49101
20050.51566
20050.53731
20050.55439
20050.57523
20050.64141
20050.56659
20050.2925
20050.03348
20049.77623
20049.51714
20049.25503
20048.98927
20048.71937
20048.44419
20048.16263
20047.8727
20047.57109
20047.25148
20046.90017
20046.48599
20046.27231
20046.35757
20046.22939
20046.10955
20046.01115
20045.90129
20045.72949
20045.53843
20045.42526
20045.44128
20045.58683
20045.83497
20046.14712
20046.47792
20046.79943
20047.09796
20047.36144
20047.58896
20047.78125
20047.94103
20048.07182
20048.17755
20048.26222
20048.32962
20048.38318
20048.42587
20048.46013
20048.48795
20048.51086
20048.53005
20048.54641
20048.5606
20048.57312
20048.58431
20048.59445
20048.60373
20048.6123
20048.62026
20048.62769
20048.63465
20048.6412
20048.64738
20048.65321
20048.65872
20048.66393
20048.66886
20048.67353
20048.67795
20048.68212
20048.68607
20048.68981
20048.69333
20048.69666
20048.69979
20048.70275
20048.70552
20048.70813
20048.71057
20048.71286
20048.715
20048.71699
20048.71885
20048.72057
20048.72215
20048.72362
20048.72496
20048.72619
20048.7273
20048.72831
20048.72921
20048.73001
20048.73072
20048.73133
20048.73184
20048.73227
20048.73262
20048.73288
20048.73306
20048.73317
20048.7332
20048.73316
20048.73305
20048.73287
20048.73262
20048.73232
20048.73194
20048.73151
20048.73102
20048.73048
20048.72988
20048.72922
20048.72852
20048.72776
20048.72696
20048.72611
20048.72521
20048.72426
20048.72328
20048.72225
20048.72118
20048.72006
20048.71891
20048.71772
20048.7165
20048.71523
20048.71393
20048.7126
20048.71123
20048.70983
20048.7084
20048.70694
20048.70544
20048.70392
20048.70237
20048.70078
20048.69917
20048.69754
20048.69587
20048.69418
20048.69246
20048.69072
20048.68896
20048.68717
20048.68536
20048.68352
20048.68166
20048.67978
20048.67788
20048.67596
20048.67401
20048.67205
20048.67007
20048.66806
20048.66604
20048.664
20048.66195
20048.65987
20048.65778
20048.65567
20048.65354
20048.6514
20048.64924
20048.64707
20048.64487
20048.64268
20048.64045
20048.63823
20048.63598
20048.63373
20048.63145
20048.62918
20048.62689
20048.6246
20048.62229
20048.61998
20048.61767
20048.61535
20048.61307
20048.61307
20050.35926
20050.35926
20050.30267
20050.27276
20050.25178
20050.23639
20050.22721
20050.22515
20050.22995
20050.24026
20050.25428
20050.27058
20050.28874
20050.30897
20050.3315
20050.35612
20050.38238
20050.40963
20050.43727
20050.46461
20050.49101
20050.51566
20050.53731
20050.55439
20050.57523
20050.64141
20050.56659
20050.2925
20050.03348
20049.77623
20049.51714
20049.25503
20048.98927
20048.71937
20048.44419
20048.16263
20047.8727
20047.57109
20047.25148
20046.90017
20046.48599
20046.27231
20046.35757
20046.22939
20046.10955
20046.01115
20045.90129
20045.72949
20045.53843
20045.42526
20045.44128
20045.58683
20045.83497
20046.14712
20046.47792
20046.79943
20047.09796
20047.36144
20047.58896
20047.78125
20047.94103
20048.07182
20048.17755
20048.26222
20048.32962
20048.38318
20048.42587
20048.46013
20048.48795
20048.51086
20048.53005
20048.54641
20048.5606
20048.57312
20048.58431
20048.59445
20048.60373
20048.6123
20048.62026
20048.62769
20048.63465
20048.6412
20048.64738
20048.65321
20048.65872
20048.66393
20048.66886
20048.67353
20048.67795
20048.68212
20048.68607
20048.68981
20048.69333
20048.69666
20048.69979
20048.70275
20048.70552
20048.70813
20048.71057
20048.71286
20048.715
20048.71699
20048.71885
20048.72057
20048.72215
20048.72362
20048.72496
20048.72619
20048.7273
20048.72831
20048.72921
20048.73001
20048.73072
20048.73133
20048.73184
20048.73227
20048.73262
20048.73288
20048.73306
20048.73317
20048.7332
20048.73316
20048.73305
20048.73287
20048.73262
20048.73232
20048.73194
20048.73151
20048.73102
20048.73048
20048.72988
20048.72922
20048.72852
20048.72776
20048.72696
20048.72611
20048.72521
20048.72426
20048.72328
20048.72225
20048.72118
20048.72006
20048.71891
20048.71772
20048.7165
20048.71523
20048.71393
20048.7126
20048.71123
20048.70983
20048.7084
20048.70694
20048.70544
20048.70392
20048.70237
20048.70078
20048.69917
20048.69754
20048.69587
20048.69418
20048.69246
20048.69072
20048.68896
20048.68717
20048.68536
20048.68352
20048.68166
20048.67978
20048.67788
20048.67596
20048.67401
20048.67205
20048.67007
20048.66806
20048.66604
20048.664
20048.66195
20048.65987
20048.65778
20048.65567
20048.65354
20048.6514
20048.64924
20048.64707
20048.64487
20048.64268
20048.64045
20048.63823
20048.63598
20048.63373
20048.63145
20048.62918
20048.62689
20048.6246
20048.62229
20048.61998
20048.61767
20048.61535
20048.61307
20048.61307
20050.32711
20050.32711
20050.29419
20050.26906
20050.25022
20050.23637
20050.2282
20050.22655
20050.23127
20050.24127
20050.25495
20050.27098
20050.28895
20050.30909
20050.33161
20050.35629
20050.38266
20050.41002
20050.4378
20050.4653
20050.49186
20050.51675
20050.53852
20050.55359
20050.55975
20050.62172
20050.54653
20050.28882
20050.03322
20049.77684
20049.518
20049.25607
20048.99053
20048.72077
20048.44594
20048.16484
20047.87572
20047.57571
20047.25942
20046.9156
20046.51221
20046.31878
20046.34223
20046.21841
20046.11396
20046.00644
20045.86543
20045.67385
20045.48096
20045.37395
20045.39849
20045.55329
20045.80979
20046.1275
20046.46297
20046.78899
20047.08952
20047.35513
20047.58429
20047.778
20047.93892
20048.07059
20048.17693
20048.26197
20048.32957
20048.38322
20048.42592
20048.46017
20048.48795
20048.51084
20048.53
20048.54634
20048.56052
20048.57303
20048.58422
20048.59436
20048.60364
20048.61221
20048.62017
20048.6276
20048.63458
20048.64113
20048.64731
20048.65315
20048.65866
20048.66388
20048.66881
20048.67348
20048.6779
20048.68208
20048.68603
20048.68977
20048.6933
20048.69663
20048.69976
20048.70272
20048.70549
20048.7081
20048.71055
20048.71284
20048.71498
20048.71697
20048.71882
20048.72054
20048.72213
20048.7236
20048.72494
20048.72617
20048.72728
20048.72829
20048.72919
20048.73
20048.7307
20048.73131
20048.73183
20048.73226
20048.7326
20048.73287
20048.73305
20048.73315
20048.73319
20048.73314
20048.73303
20048.73285
20048.73261
20048.7323
20048.73193
20048.7315
20048.73101
20048.73046
20048.72986
20048.72921
20048.72851
20048.72775
20048.72694
20048.72609
20048.72519
20048.72425
20048.72326
20048.72223
20048.72116
20048.72005
20048.7189
20048.71771
20048.71648
20048.71522
20048.71392
20048.71259
20048.71122
20048.70982
20048.70839
20048.70692
20048.70543
20048.70391
20048.70235
20048.70077
20048.69916
20048.69752
20048.69586
20048.69417
20048.69245
20048.69071
20048.68894
20048.68715
20048.68534
20048.68351
20048.68165
20048.67977
20048.67787
20048.67594
20048.674
20048.67204
20048.67005
20048.66805
20048.66603
20048.66399
20048.66193
20048.65986
20048.65776
20048.65565
20048.65352
20048.65138
20048.64922
20048.64705
20048.64486
20048.64266
20048.64044
20048.63821
20048.63596
20048.63371
20048.63144
20048.62917
20048.62688
20048.62458
20048.62227
20048.61996
20048.61765
20048.61532
20048.61306
20048.61306
20050.30221
20050.30221
20050.28197
20050.26246
20050.24676
20050.23519
20050.22852
20050.22748
20050.23206
20050.24153
20050.25465
20050.2703
20050.28809
20050.30818
20050.33074
20050.35551
20050.38201
20050.40953
20050.43749
20050.46519
20050.49192
20050.51685
20050.53781
20050.54841
20050.52925
20050.57081
20050.51777
20050.2839
20050.03314
20049.77801
20049.51958
20049.25791
20048.99273
20048.7234
20048.44917
20048.169
20047.88141
20047.58439
20047.27439
20046.9453
20046.57294
20046.40773
20046.38788
20046.24673
20046.12315
20045.97455
20045.77933
20045.55681
20045.36299
20045.26847
20045.31027
20045.48451
20045.75808
20046.08767
20046.43349
20046.76742
20047.07245
20047.342
20047.57434
20047.77075
20047.93393
20048.06735
20048.17494
20048.2608
20048.3289
20048.38282
20048.42567
20048.45998
20048.48779
20048.51068
20048.52984
20048.54618
20048.56036
20048.57288
20048.58407
20048.59422
20048.60352
20048.61209
20048.62006
20048.62751
20048.63449
20048.64106
20048.64724
20048.65309
20048.65861
20048.66383
20048.66877
20048.67344
20048.67787
20048.68205
20048.68601
20048.68975
20048.69328
20048.69661
20048.69975
20048.7027
20048.70548
20048.70809
20048.71054
20048.71283
20048.71497
20048.71696
20048.71882
20048.72054
20048.72213
20048.72359
20048.72494
20048.72616
20048.72728
20048.72829
20048.72919
20048.72999
20048.73069
20048.7313
20048.73182
20048.73225
20048.7326
20048.73286
20048.73304
20048.73315
20048.73318
20048.73314
20048.73303
20048.73285
20048.7326
20048.73229
20048.73192
20048.73149
20048.731
20048.73046
20048.72986
20048.7292
20048.7285
20048.72774
20048.72694
20048.72608
20048.72518
20048.72424
20048.72325
20048.72222
20048.72115
20048.72004
20048.71889
20048.7177
20048.71647
20048.71521
20048.71391
20048.71258
20048.71121
20048.70981
20048.70838
20048.70691
20048.70542
20048.70389
20048.70234
20048.70076
20048.69915
20048.69751
20048.69584
20048.69415
20048.69244
20048.6907
20048.68893
20048.68714
20048.68533
20048.68349
20048.68163
20048.67975
20048.67785
20048.67593
20048.67399
20048.67202
20048.67004
20048.66804
20048.66601
20048.66397
20048.66192
20048.65984
20048.65775
20048.65564
20048.65351
20048.65137
20048.64921
20048.64704
20048.64484
20048.64264
20048.64042
20048.6382
20048.63595
20048.63369
20048.63142
20048.62915
20048.62686
20048.62456
20048.62225
20048.61994
20048.61762
20048.61529
20048.613
20048.613
20050.28254
20050.28254
20050.26955
20050.25475
20050.24207
20050.23272
20050.22757
20050.22725
20050.23182
20050.24081
20050.25336
20050.26859
20050.28614
20050.30607
20050.32852
20050.35324
20050.37977
20050.40737
20050.43543
20050.46319
20050.48988
20050.51438
20050.53366
20050.54066
20050.50805
20050.53291
20050.49857
20050.28183
20050.0343
20049.78005
20049.522
20049.26066
20048.99594
20048.72729
20048.45391
20048.17506
20047.8896
20047.59648
20047.29468
20046.98451
20046.65165
20046.51761
20046.48227
20046.32073
20046.13793
20045.91576
20045.65886
20045.40458
20045.20774
20045.12604
20045.18814
20045.38626
20045.68285
20046.03005
20046.38978
20046.73357
20047.04536
20047.3202
20047.55705
20047.7575
20047.92414
20048.06035
20048.17004
20048.25739
20048.32649
20048.38107
20048.42434
20048.45893
20048.48694
20048.50997
20048.52925
20048.54568
20048.55993
20048.5725
20048.58375
20048.59394
20048.60327
20048.61188
20048.61988
20048.62735
20048.63436
20048.64094
20048.64715
20048.653
20048.65854
20048.66377
20048.66872
20048.6734
20048.67783
20048.68203
20048.68599
20048.68973
20048.69326
20048.6966
20048.69974
20048.7027
20048.70548
20048.70809
20048.71054
20048.71283
20048.71497
20048.71697
20048.71882
20048.72054
20048.72213
20048.7236
20048.72494
20048.72617
20048.72729
20048.72829
20048.7292
20048.73
20048.7307
20048.73131
20048.73183
20048.73226
20048.7326
20048.73287
20048.73305
20048.73315
20048.73318
20048.73314
20048.73303
20048.73285
20048.7326
20048.73229
20048.73192
20048.73149
20048.731
20048.73046
20048.72986
20048.7292
20048.72849
20048.72774
20048.72693
20048.72608
20048.72518
20048.72424
20048.72325
20048.72222
20048.72115
20048.72003
20048.71888
20048.71769
20048.71647
20048.7152
20048.7139
20048.71257
20048.7112
20048.7098
20048.70837
20048.7069
20048.70541
20048.70388
20048.70233
20048.70075
20048.69914
20048.6975
20048.69583
20048.69414
20048.69243
20048.69069
20048.68892
20048.68713
20048.68532
20048.68348
20048.68162
20048.67974
20048.67784
20048.67592
20048.67397
20048.67201
20048.67003
20048.66802
20048.666
20048.66396
20048.6619
20048.65983
20048.65773
20048.65562
20048.65349
20048.65135
20048.64919
20048.64702
20048.64483
20048.64263
20048.64041
20048.63818
20048.63593
20048.63368
20048.63141
20048.62913
20048.62684
20048.62454
20048.62223
20048.61991
20048.61758
20048.61525
20048.61291
20048.61291
20050.26629
20050.26629
20050.25766
20050.24658
20050.23658
20050.2292
20050.2254
20050.22577
20050.23042
20050.23905
20050.25107
20050.26587
20050.28308
20050.3027
20050.32481
20050.34924
20050.37559
20050.40309
20050.43107
20050.45868
20050.48506
20050.50887
20050.52666
20050.533
20050.50496
20050.52851
20050.49847
20050.2847
20050.03731
20049.78311
20049.52527
20049.26433
20049.00019
20048.73237
20048.46012
20048.18284
20047.89991
20047.61114
20047.31792
20047.02711
20046.73123
20046.61934
20046.5745
20046.39176
20046.13714
20045.83466
20045.51758
20045.22972
20045.02466
20044.95372
20045.03823
20045.26365
20045.58784
20045.95775
20046.33416
20046.68934
20047.00916
20047.29022
20047.53268
20047.73832
20047.90959
20048.04961
20048.16223
20048.25171
20048.32231
20048.37792
20048.42191
20048.45701
20048.48539
20048.50871
20048.5282
20048.54481
20048.55921
20048.5719
20048.58324
20048.59352
20048.60292
20048.61159
20048.61963
20048.62715
20048.63418
20048.6408
20048.64703
20048.65291
20048.65846
20048.66371
20048.66868
20048.67337
20048.67781
20048.68201
20048.68598
20048.68973
20048.69327
20048.69661
20048.69975
20048.70272
20048.7055
20048.70811
20048.71056
20048.71286
20048.715
20048.71699
20048.71885
20048.72057
20048.72216
20048.72363
20048.72497
20048.7262
20048.72731
20048.72832
20048.72922
20048.73002
20048.73072
20048.73133
20048.73185
20048.73228
20048.73262
20048.73288
20048.73307
20048.73317
20048.7332
20048.73316
20048.73304
20048.73286
20048.73262
20048.73231
20048.73193
20048.7315
20048.73101
20048.73047
20048.72986
20048.72921
20048.7285
20048.72774
20048.72694
20048.72609
20048.72519
20048.72424
20048.72325
20048.72222
20048.72115
20048.72004
20048.71888
20048.71769
20048.71647
20048.7152
20048.7139
20048.71257
20048.7112
20048.7098
20048.70836
20048.7069
20048.70541
20048.70388
20048.70233
20048.70074
20048.69913
20048.69749
20048.69583
20048.69414
20048.69242
20048.69068
20048.68891
20048.68712
20048.68531
20048.68347
20048.68161
20048.67973
20048.67783
20048.67591
20048.67396
20048.672
20048.67001
20048.66801
20048.66599
20048.66395
20048.66189
20048.65981
20048.65772
20048.65561
20048.65348
20048.65134
20048.64918
20048.647
20048.64481
20048.64261
20048.64039
20048.63816
20048.63591
20048.63366
20048.63139
20048.62911
20048.62681
20048.62451
20048.6222
20048.61988
20048.61754
20048.6152
20048.61282
20048.61282
20050.25231
20050.25231
20050.24643
20050.23821
20050.23049
20050.22484
20050.22224
20050.22324
20050.228
20050.23634
20050.2479
20050.26225
20050.27904
20050.29819
20050.31976
20050.34364
20050.36953
20050.3967
20050.42439
20050.45164
20050.47754
20050.50062
20050.51778
20050.52566
20050.51118
20050.54088
20050.50724
20050.2913
20050.04203
20049.78713
20049.52933
20049.26885
20049.00543
20048.73861
20048.4677
20048.19221
20047.91195
20047.62754
20047.34199
20047.06761
20046.7978
20046.69305
20046.63522
20046.42934
20046.10881
20045.7352
20045.3629
20045.03938
20044.82004
20044.75689
20044.86654
20045.12368
20045.47949
20045.87599
20046.27096
20046.63806
20046.96591
20047.25334
20047.50194
20047.71366
20047.89056
20048.03535
20048.15171
20048.24395
20048.31652
20048.37352
20048.4185
20048.45432
20048.48324
20048.50697
20048.52679
20048.54365
20048.55826
20048.57112
20048.58261
20048.593
20048.60249
20048.61124
20048.61935
20048.62692
20048.634
20048.64066
20048.64692
20048.65283
20048.6584
20048.66367
20048.66865
20048.67336
20048.67782
20048.68203
20048.686
20048.68976
20048.6933
20048.69665
20048.6998
20048.70276
20048.70555
20048.70816
20048.71061
20048.71291
20048.71505
20048.71704
20048.7189
20048.72062
20048.72221
20048.72367
20048.72502
20048.72624
20048.72736
20048.72836
20048.72926
20048.73006
20048.73076
20048.73137
20048.73189
20048.73232
20048.73266
20048.73292
20048.7331
20048.7332
20048.73323
20048.73319
20048.73307
20048.73289
20048.73264
20048.73233
20048.73196
20048.73152
20048.73103
20048.73048
20048.72988
20048.72923
20048.72852
20048.72776
20048.72695
20048.7261
20048.7252
20048.72425
20048.72326
20048.72223
20048.72116
20048.72004
20048.71889
20048.7177
20048.71647
20048.71521
20048.71391
20048.71257
20048.7112
20048.7098
20048.70837
20048.7069
20048.70541
20048.70388
20048.70232
20048.70074
20048.69913
20048.69749
20048.69582
20048.69413
20048.69242
20048.69067
20048.68891
20048.68712
20048.6853
20048.68347
20048.68161
20048.67973
20048.67782
20048.6759
20048.67395
20048.67199
20048.67001
20048.668
20048.66598
20048.66394
20048.66188
20048.6598
20048.65771
20048.6556
20048.65347
20048.65132
20048.64916
20048.64699
20048.6448
20048.64259
20048.64038
20048.63814
20048.6359
20048.63364
20048.63137
20048.62908
20048.62679
20048.62448
20048.62217
20048.61984
20048.6175
20048.61515
20048.61274
20048.61274
20050.23988
20050.23988
20050.23581
20050.22977
20050.22395
20050.21979
20050.21823
20050.2198
20050.22469
20050.23281
20050.24397
20050.25786
20050.27418
20050.29276
20050.31364
20050.33679
20050.36197
20050.38854
20050.41571
20050.44239
20050.46772
20050.49013
20050.50733
20050.51743
20050.51695
20050.55199
20050.51452
20050.29923
20050.04788
20049.79193
20049.53409
20049.27415
20049.0116
20048.74593
20048.47657
20048.20298
20047.92534
20047.64491
20047.36532
20047.10263
20046.84359
20046.72896
20046.65406
20046.42557
20046.05282
20045.62255
20045.20111
20044.83805
20044.59561
20044.53623
20044.67466
20044.97045
20045.3635
20045.79044
20046.20553
20046.58411
20046.91879
20047.21164
20047.46611
20047.68431
20047.86758
20048.01795
20048.13875
20048.23432
20048.30928
20048.36801
20048.41422
20048.45096
20048.48057
20048.50482
20048.52506
20048.54226
20048.55714
20048.57021
20048.58188
20048.59241
20048.60202
20048.61087
20048.61906
20048.6267
20048.63384
20048.64054
20048.64684
20048.65278
20048.65838
20048.66367
20048.66867
20048.67339
20048.67786
20048.68208
20048.68606
20048.68982
20048.69337
20048.69672
20048.69987
20048.70284
20048.70563
20048.70824
20048.71069
20048.71299
20048.71513
20048.71712
20048.71898
20048.7207
20048.72229
20048.72375
20048.72509
20048.72631
20048.72743
20048.72843
20048.72933
20048.73012
20048.73082
20048.73143
20048.73194
20048.73237
20048.73271
20048.73297
20048.73315
20048.73325
20048.73327
20048.73323
20048.73311
20048.73293
20048.73268
20048.73237
20048.73199
20048.73156
20048.73106
20048.73051
20048.72991
20048.72925
20048.72854
20048.72778
20048.72698
20048.72612
20048.72522
20048.72427
20048.72328
20048.72225
20048.72117
20048.72006
20048.7189
20048.71771
20048.71648
20048.71522
20048.71392
20048.71258
20048.71121
20048.70981
20048.70837
20048.70691
20048.70541
20048.70388
20048.70233
20048.70074
20048.69913
20048.69749
20048.69583
20048.69413
20048.69242
20048.69067
20048.68891
20048.68711
20048.6853
20048.68346
20048.6816
20048.67972
20048.67782
20048.67589
20048.67395
20048.67198
20048.67
20048.66799
20048.66597
20048.66393
20048.66187
20048.65979
20048.6577
20048.65559
20048.65346
20048.65131
20048.64915
20048.64698
20048.64479
20048.64258
20048.64036
20048.63813
20048.63588
20048.63362
20048.63135
20048.62906
20048.62677
20048.62446
20048.62214
20048.61981
20048.61746
20048.61511
20048.61267
20048.61267
20050.22853
20050.22853
20050.22569
20050.22132
20050.21706
20050.21416
20050.2135
20050.21559
20050.2206
20050.22855
20050.23935
20050.25278
20050.26858
20050.28655
20050.30668
20050.32897
20050.35328
20050.37902
20050.40544
20050.43135
20050.45602
20050.47773
20050.49517
20050.50737
20050.51749
20050.55707
20050.51894
20050.30663
20050.05414
20049.79728
20049.5394
20049.28012
20049.01867
20048.7543
20048.48663
20048.21503
20047.93985
20047.66275
20047.38702
20047.13113
20046.87001
20046.73086
20046.63374
20046.38503
20045.97527
20045.50248
20045.03418
20044.61992
20044.34043
20044.28113
20044.455
20044.80076
20045.24043
20045.70398
20046.14189
20046.53174
20046.87145
20047.16785
20047.42705
20047.65146
20047.84143
20047.99793
20048.12373
20048.22309
20048.30081
20048.36153
20048.40919
20048.447
20048.47743
20048.50232
20048.52306
20048.54066
20048.55586
20048.5692
20048.58108
20048.59178
20048.60153
20048.61049