# vtk DataFile Version 2.0
FlowField
ASCII
DATASET STRUCTURED_GRID
DIMENSIONS 200 1 200
POINTS 40000 float
0 0 0
0.15 0 0
0.3 0 0
0.45 0 0
0.6 0 0
0.75 0 0
0.9 0 0
1.05 0 0
1.2 0 0
1.35 0 0
1.5 0 0
1.65 0 0
1.8 0 0
1.95 0 0
2.1 0 0
2.25 0 0
2.4 0 0
2.55 0 0
2.7 0 0
2.85 0 0
3 0 0
3.15 0 0
3.3 0 0
3.45 0 0
3.6 0 0
3.75 0 0
3.9 0 0
4.05 0 0
4.2 0 0
4.35 0 0
4.5 0 0
4.65 0 0
4.8 0 0
4.95 0 0
5.1 0 0
5.25 0 0
5.4 0 0
5.55 0 0
5.7 0 0
5.85 0 0
6 0 0
6.15 0 0
6.3 0 0
6.45 0 0
6.6 0 0
6.75 0 0
6.9 0 0
7.05 0 0
7.2 0 0
7.35 0 0
7.5 0 0
7.65 0 0
7.8 0 0
7.95 0 0
8.1 0 0
8.25 0 0
8.4 0 0
8.55 0 0
8.7 0 0
8.85 0 0
9 0 0
9.15 0 0
9.3 0 0
9.45 0 0
9.6 0 0
9.75 0 0
9.9 0 0
10.05 0 0
10.2 0 0
10.35 0 0
10.5 0 0
10.65 0 0
10.8 0 0
10.95 0 0
11.1 0 0
11.25 0 0
11.4 0 0
11.55 0 0
11.7 0 0
11.85 0 0
12 0 0
12.15 0 0
12.3 0 0
12.45 0 0
12.6 0 0
12.75 0 0
12.9 0 0
13.05 0 0
13.2 0 0
13.35 0 0
13.5 0 0
13.65 0 0
13.8 0 0
13.95 0 0
14.1 0 0
14.25 0 0
14.4 0 0
14.55 0 0
14.7 0 0
14.85 0 0
15 0 0
15.15 0 0
15.3 0 0
15.45 0 0
15.6 0 0
15.75 0 0
15.9 0 0
16.05 0 0
16.2 0 0
16.35 0 0
16.5 0 0
16.65 0 0
16.8 0 0
16.95 0 0
17.1 0 0
17.25 0 0
17.4 0 0
17.55 0 0
17.7 0 0
17.85 0 0
18 0 0
18.15 0 0
18.3 0 0
18.45 0 0
18.6 0 0
18.75 0 0
18.9 0 0
19.05 0 0
19.2 0 0
19.35 0 0
19.5 0 0
19.65 0 0
19.8 0 0
19.95 0 0
20.1 0 0
20.25 0 0
20.4 0 0
20.55 0 0
20.7 0 0
20.85 0 0
21 0 0
21.15 0 0
21.3 0 0
21.45 0 0
21.6 0 0
21.75 0 0
21.9 0 0
22.05 0 0
22.2 0 0
22.35 0 0
22.5 0 0
22.65 0 0
22.8 0 0
22.95 0 0
23.1 0 0
23.25 0 0
23.4 0 0
23.55 0 0
23.7 0 0
23.85 0 0
24 0 0
24.15 0 0
24.3 0 0
24.45 0 0
24.6 0 0
24.75 0 0
24.9 0 0
25.05 0 0
25.2 0 0
25.35 0 0
25.5 0 0
25.65 0 0
25.8 0 0
25.95 0 0
26.1 0 0
26.25 0 0
26.4 0 0
26.55 0 0
26.7 0 0
26.85 0 0
27 0 0
27.15 0 0
27.3 0 0
27.45 0 0
27.6 0 0
27.75 0 0
27.9 0 0
28.05 0 0
28.2 0 0
28.35 0 0
28.5 0 0
28.65 0 0
28.8 0 0
28.95 0 0
29.1 0 0
29.25 0 0
29.4 0 0
29.55 0 0
29.7 0 0
29.85 0 0
0 0.075 0
0.15 0.075 0
0.3 0.075 0
0.45 0.075 0
0.6 0.075 0
0.75 0.075 0
0.9 0.075 0
1.05 0.075 0
1.2 0.075 0
1.35 0.075 0
1.5 0.075 0
1.65 0.075 0
1.8 0.075 0
1.95 0.075 0
2.1 0.075 0
2.25 0.075 0
2.4 0.075 0
2.55 0.075 0
2.7 0.075 0
2.85 0.075 0
3 0.075 0
3.15 0.075 0
3.3 0.075 0
3.45 0.075 0
3.6 0.075 0
3.75 0.075 0
3.9 0.075 0
4.05 0.075 0
4.2 0.075 0
4.35 0.075 0
4.5 0.075 0
4.65 0.075 0
4.8 0.075 0
4.95 0.075 0
5.1 0.075 0
5.25 0.075 0
5.4 0.075 0
5.55 0.075 0
5.7 0.075 0
5.85 0.075 0
6 0.075 0
6.15 0.075 0
6.3 0.075 0
6.45 0.075 0
6.6 0.075 0
6.75 0.075 0
6.9 0.075 0
7.05 0.075 0
7.2 0.075 0
7.35 0.075 0
7.5 0.075 0
7.65 0.075 0
7.8 0.075 0
7.95 0.075 0
8.1 0.075 0
8.25 0.075 0
8.4 0.075 0
8.55 0.075 0
8.7 0.075 0
8.85 0.075 0
9 0.075 0
9.15 0.075 0
9.3 0.075 0
9.45 0.075 0
9.6 0.075 0
9.75 0.075 0
9.9 0.075 0
10.05 0.075 0
10.2 0.075 0
10.35 0.075 0
10.5 0.075 0
10.65 0.075 0
10.8 0.075 0
10.95 0.075 0
11.1 0.075 0
11.25 0.075 0
11.4 0.075 0
11.55 0.075 0
11.7 0.075 0
11.85 0.075 0
12 0.075 0
12.15 0.075 0
12.3 0.075 0
12.45 0.075 0
12.6 0.075 0
12.75 0.075 0
12.9 0.075 0
13.05 0.075 0
13.2 0.075 0
13.35 0.075 0
13.5 0.075 0
13.65 0.075 0
13.8 0.075 0
13.95 0.075 0
14.1 0.075 0
14.25 0.075 0
14.4 0.075 0
14.55 0.075 0
14.7 0.075 0
14.85 0.075 0
15 0.075 0
15.15 0.075 0
15.3 0.075 0
15.45 0.075 0
15.6 0.075 0
15.75 0.075 0
15.9 0.075 0
16.05 0.075 0
16.2 0.075 0
16.35 0.075 0
16.5 0.075 0
16.65 0.075 0
16.8 0.075 0
16.95 0.075 0
17.1 0.075 0
17.25 0.075 0
17.4 0.075 0
17.55 0.075 0
17.7 0.075 0
17.85 0.075 0
18 0.075 0
18.15 0.075 0
18.3 0.075 0
18.45 0.075 0
18.6 0.075 0
18.75 0.075 0
18.9 0.075 0
19.05 0.075 0
19.2 0.075 0
19.35 0.075 0
19.5 0.075 0
19.65 0.075 0
19.8 0.075 0
19.95 0.075 0
20.1 0.075 0
20.25 0.075 0
20.4 0.075 0
20.55 0.075 0
20.7 0.075 0
20.85 0.075 0
21 0.075 0
21.15 0.075 0
21.3 0.075 0
21.45 0.075 0
21.6 0.075 0
21.75 0.075 0
21.9 0.075 0
22.05 0.075 0
22.2 0.075 0
22.35 0.075 0
22.5 0.075 0
22.65 0.075 0
22.8 0.075 0
22.95 0.075 0
23.1 0.075 0
23.25 0.075 0
23.4 0.075 0
23.55 0.075 0
23.7 0.075 0
23.85 0.075 0
24 0.075 0
24.15 0.075 0
24.3 0.075 0
24.45 0.075 0
24.6 0.075 0
24.75 0.075 0
24.9 0.075 0
25.05 0.075 0
25.2 0.075 0
25.35 0.075 0
25.5 0.075 0
25.65 0.075 0
25.8 0.075 0
25.95 0.075 0
26.1 0.075 0
26.25 0.075 0
26.4 0.075 0
26.55 0.075 0
26.7 0.075 0
26.85 0.075 0
27 0.075 0
27.15 0.075 0
27.3 0.075 0
27.45 0.075 0
27.6 0.075 0
27.75 0.075 0
27.9 0.075 0
28.05 0.075 0
28.2 0.075 0
28.35 0.075 0
28.5 0.075 0
28.65 0.075 0
28.8 0.075 0
28.95 0.075 0
29.1 0.075 0
29.25 0.075 0
29.4 0.075 0
29.55 0.075 0
29.7 0.075 0
29.85 0.075 0
0 0.15 0
0.15 0.15 0
0.3 0.15 0
0.45 0.15 0
0.6 0.15 0
0.75 0.15 0
0.9 0.15 0
1.05 0.15 0
1.2 0.15 0
1.35 0.15 0
1.5 0.15 0
1.65 0.15 0
1.8 0.15 0
1.95 0.15 0
2.1 0.15 0
2.25 0.15 0
2.4 0.15 0
2.55 0.15 0
2.7 0.15 0
2.85 0.15 0
3 0.15 0
3.15 0.15 0
3.3 0.15 0
3.45 0.15 0
3.6 0.15 0
3.75 0.15 0
3.9 0.15 0
4.05 0.15 0
4.2 0.15 0
4.35 0.15 0
4.5 0.15 0
4.65 0.15 0
4.8 0.15 0
4.95 0.15 0
5.1 0.15 0
5.25 0.15 0
5.4 0.15 0
5.55 0.15 0
5.7 0.15 0
5.85 0.15 0
6 0.15 0
6.15 0.15 0
6.3 0.15 0
6.45 0.15 0
6.6 0.15 0
6.75 0.15 0
6.9 0.15 0
7.05 0.15 0
7.2 0.15 0
7.35 0.15 0
7.5 0.15 0
7.65 0.15 0
7.8 0.15 0
7.95 0.15 0
8.1 0.15 0
8.25 0.15 0
8.4 0.15 0
8.55 0.15 0
8.7 0.15 0
8.85 0.15 0
9 0.15 0
9.15 0.15 0
9.3 0.15 0
9.45 0.15 0
9.6 0.15 0
9.75 0.15 0
9.9 0.15 0
10.05 0.15 0
10.2 0.15 0
10.35 0.15 0
10.5 0.15 0
10.65 0.15 0
10.8 0.15 0
10.95 0.15 0
11.1 0.15 0
11.25 0.15 0
11.4 0.15 0
11.55 0.15 0
11.7 0.15 0
11.85 0.15 0
12 0.15 0
12.15 0.15 0
12.3 0.15 0
12.45 0.15 0
12.6 0.15 0
12.75 0.15 0
12.9 0.15 0
13.05 0.15 0
13.2 0.15 0
13.35 0.15 0
13.5 0.15 0
13.65 0.15 0
13.8 0.15 0
13.95 0.15 0
14.1 0.15 0
14.25 0.15 0
14.4 0.15 0
14.55 0.15 0
14.7 0.15 0
14.85 0.15 0
15 0.15 0
15.15 0.15 0
15.3 0.15 0
15.45 0.15 0
15.6 0.15 0
15.75 0.15 0
15.9 0.15 0
16.05 0.15 0
16.2 0.15 0
16.35 0.15 0
16.5 0.15 0
16.65 0.15 0
16.8 0.15 0
16.95 0.15 0
17.1 0.15 0
17.25 0.15 0
17.4 0.15 0
17.55 0.15 0
17.7 0.15 0
17.85 0.15 0
18 0.15 0
18.15 0.15 0
18.3 0.15 0
18.45 0.15 0
18.6 0.15 0
18.75 0.15 0
18.9 0.15 0
19.05 0.15 0
19.2 0.15 0
19.35 0.15 0
19.5 0.15 0
19.65 0.15 0
19.8 0.15 0
19.95 0.15 0
20.1 0.15 0
20.25 0.15 0
20.4 0.15 0
20.55 0.15 0
20.7 0.15 0
20.85 0.15 0
21 0.15 0
21.15 0.15 0
21.3 0.15 0
21.45 0.15 0
21.6 0.15 0
21.75 0.15 0
21.9 0.15 0
22.05 0.15 0
22.2 0.15 0
22.35 0.15 0
22.5 0.15 0
22.65 0.15 0
22.8 0.15 0
22.95 0.15 0
23.1 0.15 0
23.25 0.15 0
23.4 0.15 0
23.55 0.15 0
23.7 0.15 0
23.85 0.15 0
24 0.15 0
24.15 0.15 0
24.3 0.15 0
24.45 0.15 0
24.6 0.15 0
24.75 0.15 0
24.9 0.15 0
25.05 0.15 0
25.2 0.15 0
25.35 0.15 0
25.5 0.15 0
25.65 0.15 0
25.8 0.15 0
25.95 0.15 0
26.1 0.15 0
26.25 0.15 0
26.4 0.15 0
26.55 0.15 0
26.7 0.15 0
26.85 0.15 0
27 0.15 0
27.15 0.15 0
27.3 0.15 0
27.45 0.15 0
27.6 0.15 0
27.75 0.15 0
27.9 0.15 0
28.05 0.15 0
28.2 0.15 0
28.35 0.15 0
28.5 0.15 0
28.65 0.15 0
28.8 0.15 0
28.95 0.15 0
29.1 0.15 0
29.25 0.15 0
29.4 0.15 0
29.55 0.15 0
29.7 0.15 0
29.85 0.15 0
0 0.225 0
0.15 0.225 0
0.3 0.225 0
0.45 0.225 0
0.6 0.225 0
0.75 0.225 0
0.9 0.225 0
1.05 0.225 0
1.2 0.225 0
1.35 0.225 0
1.5 0.225 0
1.65 0.225 0
1.8 0.225 0
1.95 0.225 0
2.1 0.225 0
2.25 0.225 0
2.4 0.225 0
2.55 0.225 0
2.7 0.225 0
2.85 0.225 0
3 0.225 0
3.15 0.225 0
3.3 0.225 0
3.45 0.225 0
3.6 0.225 0
3.75 0.225 0
3.9 0.225 0
4.05 0.225 0
4.2 0.225 0
4.35 0.225 0
4.5 0.225 0
4.65 0.225 0
4.8 0.225 0
4.95 0.225 0
5.1 0.225 0
5.25 0.225 0
5.4 0.225 0
5.55 0.225 0
5.7 0.225 0
5.85 0.225 0
6 0.225 0
6.15 0.225 0
6.3 0.225 0
6.45 0.225 0
6.6 0.225 0
6.75 0.225 0
6.9 0.225 0
7.05 0.225 0
7.2 0.225 0
7.35 0.225 0
7.5 0.225 0
7.65 0.225 0
7.8 0.225 0
7.95 0.225 0
8.1 0.225 0
8.25 0.225 0
8.4 0.225 0
8.55 0.225 0
8.7 0.225 0
8.85 0.225 0
9 0.225 0
9.15 0.225 0
9.3 0.225 0
9.45 0.225 0
9.6 0.225 0
9.75 0.225 0
9.9 0.225 0
10.05 0.225 0
10.2 0.225 0
10.35 0.225 0
10.5 0.225 0
10.65 0.225 0
10.8 0.225 0
10.95 0.225 0
11.1 0.225 0
11.25 0.225 0
11.4 0.225 0
11.55 0.225 0
11.7 0.225 0
11.85 0.225 0
12 0.225 0
12.15 0.225 0
12.3 0.225 0
12.45 0.225 0
12.6 0.225 0
12.75 0.225 0
12.9 0.225 0
13.05 0.225 0
13.2 0.225 0
13.35 0.225 0
13.5 0.225 0
13.65 0.225 0
13.8 0.225 0
13.95 0.225 0
14.1 0.225 0
14.25 0.225 0
14.4 0.225 0
14.55 0.225 0
14.7 0.225 0
14.85 0.225 0
15 0.225 0
15.15 0.225 0
15.3 0.225 0
15.45 0.225 0
15.6 0.225 0
15.75 0.225 0
15.9 0.225 0
16.05 0.225 0
16.2 0.225 0
16.35 0.225 0
16.5 0.225 0
16.65 0.225 0
16.8 0.225 0
16.95 0.225 0
17.1 0.225 0
17.25 0.225 0
17.4 0.225 0
17.55 0.225 0
17.7 0.225 0
17.85 0.225 0
18 0.225 0
18.15 0.225 0
18.3 0.225 0
18.45 0.225 0
18.6 0.225 0
18.75 0.225 0
18.9 0.225 0
19.05 0.225 0
19.2 0.225 0
19.35 0.225 0
19.5 0.225 0
19.65 0.225 0
19.8 0.225 0
19.95 0.225 0
20.1 0.225 0
20.25 0.225 0
20.4 0.225 0
20.55 0.225 0
20.7 0.225 0
20.85 0.225 0
21 0.225 0
21.15 0.225 0
21.3 0.225 0
21.45 0.225 0
21.6 0.225 0
21.75 0.225 0
21.9 0.225 0
22.05 0.225 0
22.2 0.225 0
22.35 0.225 0
22.5 0.225 0
22.65 0.225 0
22.8 0.225 0
22.95 0.225 0
23.1 0.225 0
23.25 0.225 0
23.4 0.225 0
23.55 0.225 0
23.7 0.225 0
23.85 0.225 0
24 0.225 0
24.15 0.225 0
24.3 0.225 0
24.45 0.225 0
24.6 0.225 0
24.75 0.225 0
24.9 0.225 0
25.05 0.225 0
25.2 0.225 0
25.35 0.225 0
25.5 0.225 0
25.65 0.225 0
25.8 0.225 0
25.95 0.225 0
26.1 0.225 0
26.25 0.225 0
26.4 0.225 0
26.55 0.225 0
26.7 0.225 0
26.85 0.225 0
27 0.225 0
27.15 0.225 0
27.3 0.225 0
27.45 0.225 0
27.6 0.225 0
27.75 0.225 0
27.9 0.225 0
28.05 0.225 0
28.2 0.225 0
28.35 0.225 0
28.5 0.225 0
28.65 0.225 0
28.8 0.225 0
28.95 0.225 0
29.1 0.225 0
29.25 0.225 0
29.4 0.225 0
29.55 0.225 0
29.7 0.225 0
29.85 0.225 0
0 0.3 0
0.15 0.3 0
0.3 0.3 0
0.45 0.3 0
0.6 0.3 0
0.75 0.3 0
0.9 0.3 0
1.05 0.3 0
1.2 0.3 0
1.35 0.3 0
1.5 0.3 0
1.65 0.3 0
1.8 0.3 0
1.95 0.3 0
2.1 0.3 0
2.25 0.3 0
2.4 0.3 0
2.55 0.3 0
2.7 0.3 0
2.85 0.3 0
3 0.3 0
3.15 0.3 0
3.3 0.3 0
3.45 0.3 0
3.6 0.3 0
3.75 0.3 0
3.9 0.3 0
4.05 0.3 0
4.2 0.3 0
4.35 0.3 0
4.5 0.3 0
4.65 0.3 0
4.8 0.3 0
4.95 0.3 0
5.1 0.3 0
5.25 0.3 0
5.4 0.3 0
5.55 0.3 0
5.7 0.3 0
5.85 0.3 0
6 0.3 0
6.15 0.3 0
[...]
POINT_DATA 40000

SCALARS p float 1
LOOKUP_TABLE default
20183.23273
20183.23273
20183.17723
20183.14939
20183.13095
20183.11808
20183.11101
20183.11096
20183.11803
20183.13043
20183.14532
20183.16022
20183.17373
20183.18558
20183.19607
20183.20527
20183.21307
20183.2196
20183.22508
20183.22871
20183.22761
20183.21907
20183.18769
20183.12495
20183.19051
20183.63628
20183.5124
20183.13188
20182.87408
20182.64542
20182.42181
20182.19627
20181.96655
20181.73179
20181.49142
20181.24475
20180.99077
20180.72795
20180.45389
20180.1645
20179.85196
20179.6877
20179.72954
20179.72352
20179.72716
20179.72697
20179.72552
20179.72104
20179.71682
20179.71749
20179.72384
20179.73308
20179.74025
20179.73918
20179.72091
20179.67774
20179.6146
20179.54384
20179.47463
20179.41076
20179.345
20179.26129
20179.15715
20179.05924
20178.98971
20178.95471
20178.92551
20178.86927
20178.8178
20178.80885
20178.84008
20178.9162
20179.0548
20179.26745
20179.55794
20179.91857
20180.33116
20180.77619
20181.23714
20181.69308
20182.12061
20182.50551
20182.81635
20182.9662
20182.90781
20182.7286
20182.50325
20182.25837
20182.05386
20181.91371
20181.75053
20181.44764
20181.26273
20181.24338
20181.19434
20181.13835
20181.09645
20181.06981
20181.05624
20181.05861
20181.08172
20181.12046
20181.15954
20181.18609
20181.1975
20181.19802
20181.19007
20181.17461
20181.15576
20181.13337
20181.10714
20181.08218
20181.05829
20181.02362
20180.98123
20180.91852
20180.80204
20180.68102
20180.56746
20180.44123
20180.30878
20180.18646
20180.08484
20180.00811
20179.9566
20179.92898
20179.92411
20179.94163
20179.98074
20180.03838
20180.1096
20180.19065
20180.28124
20180.38177
20180.48914
20180.59817
20180.70677
20180.81541
20180.92271
20181.02649
20181.1254
20181.2199
20181.3088
20181.3917
20181.46863
20181.53959
20181.60431
20181.66321
20181.71631
20181.76403
20181.80649
20181.84414
20181.87731
20181.90639
20181.93172
20181.95369
20181.97261
20181.98883
20182.00262
20182.01428
20182.02406
20182.03218
20182.03887
20182.04433
20182.04876
20182.05229
20182.05513
20182.05737
20182.05919
20182.06067
20182.06195
20182.06309
20182.06422
20182.0654
20182.06672
20182.06824
20182.07004
20182.07214
20182.07462
20182.07749
20182.08078
20182.08448
20182.0886
20182.09312
20182.098
20182.1032
20182.10868
20182.11435
20182.1202
20182.12611
20182.13209
20182.13798
20182.14388
20182.14955
20182.15516
20182.16043
20182.16559
20182.17039
20182.17497
20182.17497
20183.23273
20183.23273
20183.17723
20183.14939
20183.13095
20183.11808
20183.11101
20183.11096
20183.11803
20183.13043
20183.14532
20183.16022
20183.17373
20183.18558
20183.19607
20183.20527
20183.21307
20183.2196
20183.22508
20183.22871
20183.22761
20183.21907
20183.18769
20183.12495
20183.19051
20183.63628
20183.5124
20183.13188
20182.87408
20182.64542
20182.42181
20182.19627
20181.96655
20181.73179
20181.49142
20181.24475
20180.99077
20180.72795
20180.45389
20180.1645
20179.85196
20179.6877
20179.72954
20179.72352
20179.72716
20179.72697
20179.72552
20179.72104
20179.71682
20179.71749
20179.72384
20179.73308
20179.74025
20179.73918
20179.72091
20179.67774
20179.6146
20179.54384
20179.47463
20179.41076
20179.345
20179.26129
20179.15715
20179.05924
20178.98971
20178.95471
20178.92551
20178.86927
20178.8178
20178.80885
20178.84008
20178.9162
20179.0548
20179.26745
20179.55794
20179.91857
20180.33116
20180.77619
20181.23714
20181.69308
20182.12061
20182.50551
20182.81635
20182.9662
20182.90781
20182.7286
20182.50325
20182.25837
20182.05386
20181.91371
20181.75053
20181.44764
20181.26273
20181.24338
20181.19434
20181.13835
20181.09645
20181.06981
20181.05624
20181.05861
20181.08172
20181.12046
20181.15954
20181.18609
20181.1975
20181.19802
20181.19007
20181.17461
20181.15576
20181.13337
20181.10714
20181.08218
20181.05829
20181.02362
20180.98123
20180.91852
20180.80204
20180.68102
20180.56746
20180.44123
20180.30878
20180.18646
20180.08484
20180.00811
20179.9566
20179.92898
20179.92411
20179.94163
20179.98074
20180.03838
20180.1096
20180.19065
20180.28124
20180.38177
20180.48914
20180.59817
20180.70677
20180.81541
20180.92271
20181.02649
20181.1254
20181.2199
20181.3088
20181.3917
20181.46863
20181.53959
20181.60431
20181.66321
20181.71631
20181.76403
20181.80649
20181.84414
20181.87731
20181.90639
20181.93172
20181.95369
20181.97261
20181.98883
20182.00262
20182.01428
20182.02406
20182.03218
20182.03887
20182.04433
20182.04876
20182.05229
20182.05513
20182.05737
20182.05919
20182.06067
20182.06195
20182.06309
20182.06422
20182.0654
20182.06672
20182.06824
20182.07004
20182.07214
20182.07462
20182.07749
20182.08078
20182.08448
20182.0886
20182.09312
20182.098
20182.1032
20182.10868
20182.11435
20182.1202
20182.12611
20182.13209
20182.13798
20182.14388
20182.14955
20182.15516
20182.16043
20182.16559
20182.17039
20182.17497
20182.17497
20183.20015
20183.20015
20183.16821
20183.14498
20183.12859
20183.11729
20183.11144
20183.1121
20183.11937
20183.13168
20183.14641
20183.16118
20183.1746
20183.18638
20183.1968
20183.20591
20183.21357
20183.21996
20183.22539
20183.22947
20183.22982
20183.21915
20183.16923
20183.08199
20183.09359
20183.40894
20183.36844
20183.10209
20182.8671
20182.64422
20182.4223
20182.19729
20181.96778
20181.73316
20181.49296
20181.24653
20180.99293
20180.73071
20180.45765
20180.17016
20179.86024
20179.71556
20179.72438
20179.72262
20179.72657
20179.72645
20179.72458
20179.7198
20179.7156
20179.7167
20179.72396
20179.73416
20179.74192
20179.74091
20179.7221
20179.67789
20179.61395
20179.54257
20179.47355
20179.41123
20179.34748
20179.26602
20179.16298
20179.06262
20178.98595
20178.93967
20178.90266
20178.84609
20178.79574
20178.78637
20178.8176
20178.89403
20179.03215
20179.24373
20179.53274
20179.89175
20180.30365
20180.74913
20181.20918
20181.66062
20182.08076
20182.45277
20182.7521
20182.91535
20182.87852
20182.70381
20182.48196
20182.24115
20182.02043
20181.85459
20181.67235
20181.3996
20181.2616
20181.24573
20181.19224
20181.13559
20181.09381
20181.0677
20181.05361
20181.05448
20181.07735
20181.11816
20181.16017
20181.18852
20181.20009
20181.20013
20181.19162
20181.17475
20181.15452
20181.13147
20181.10498
20181.07994
20181.0573
20181.02424
20180.9802
20180.92326
20180.80977
20180.68002
20180.55738
20180.42752
20180.29521
20180.17444
20180.0745
20179.99918
20179.94875
20179.92203
20179.91797
20179.93619
20179.97575
20180.03359
20180.10496
20180.18638
20180.27758
20180.3786
20180.4861
20180.59514
20180.70402
20180.8131
20180.92055
20181.02436
20181.12357
20181.21815
20181.30721
20181.39027
20181.46727
20181.53836
20181.60321
20181.66219
20181.7154
20181.76321
20181.80576
20181.8435
20181.87674
20181.9059
20181.93129
20181.95332
20181.97229
20181.98856
20182.0024
20182.0141
20182.0239
20182.03206
20182.03878
20182.04426
20182.0487
20182.05226
20182.0551
20182.05736
20182.05919
20182.06067
20182.06195
20182.0631
20182.06424
20182.06541
20182.06673
20182.06825
20182.07004
20182.07215
20182.07463
20182.0775
20182.08079
20182.0845
20182.08863
20182.09315
20182.09805
20182.10326
20182.10875
20182.11444
20182.12031
20182.12623
20182.13224
20182.13814
20182.14406
20182.14973
20182.15535
20182.16063
20182.16576
20182.17056
20182.17504
20182.17504
20183.17452
20183.17452
20183.15506
20183.13713
20183.12355
20183.11433
20183.11
20183.1114
20183.11862
20183.1305
20183.14492
20183.1598
20183.1737
20183.18612
20183.19703
20183.20635
20183.21408
20183.22047
20183.22603
20183.23076
20183.23172
20183.21564
20183.14502
20183.04868
20183.03556
20183.21217
20183.22623
20183.06461
20182.85751
20182.64291
20182.4236
20182.19946
20181.9703
20181.73594
20181.49606
20181.25012
20180.99726
20180.7362
20180.46506
20180.18121
20179.87619
20179.73313
20179.7228
20179.72374
20179.72592
20179.72556
20179.72305
20179.71748
20179.71261
20179.71377
20179.72222
20179.73461
20179.74481
20179.74562
20179.72731
20179.68223
20179.61696
20179.54413
20179.47485
20179.41325
20179.34742
20179.26223
20179.15714
20179.05248
20178.9664
20178.90361
20178.85143
20178.79435
20178.74937
20178.74059
20178.77172
20178.84859
20178.98575
20179.19502
20179.48049
20179.83654
20180.24836
20180.69512
20181.15289
20181.59744
20182.00823
20182.3624
20182.63715
20182.80591
20182.81009
20182.65405
20182.43591
20182.19799
20181.95657
20181.74591
20181.54357
20181.31979
20181.20727
20181.1937
20181.16796
20181.1245
20181.08622
20181.06255
20181.04866
20181.04735
20181.06938
20181.11296
20181.1597
20181.19178
20181.20501
20181.20554
20181.19681
20181.17781
20181.15427
20181.1282
20181.10088
20181.07751
20181.0557
20181.02658
20180.97643
20180.90375
20180.786
20180.65043
20180.51932
20180.38773
20180.25944
20180.14424
20180.04928
20179.97779
20179.93031
20179.90612
20179.90433
20179.92423
20179.96461
20180.02281
20180.095
20180.17797
20180.27062
20180.37218
20180.4798
20180.58939
20180.69919
20180.80896
20180.91664
20181.02079
20181.12053
20181.21531
20181.30469
20181.38805
20181.46519
20181.53654
20181.60161
20181.66074
20181.71413
20181.7621
20181.80479
20181.84265
20181.876
20181.90527
20181.93075
20181.95286
20181.9719
20181.98823
20182.00212
20182.01387
20182.02371
20182.03189
20182.03864
20182.04414
20182.0486
20182.05216
20182.05502
20182.05728
20182.05911
20182.06059
20182.06187
20182.06302
20182.06414
20182.06531
20182.06662
20182.06814
20182.06992
20182.07202
20182.07449
20182.07737
20182.08066
20182.08438
20182.08853
20182.09307
20182.09799
20182.10322
20182.10875
20182.11447
20182.12038
20182.12632
20182.13238
20182.13831
20182.14427
20182.14997
20182.15564
20182.16096
20182.16612
20182.17098
20182.17554
20182.17554
20183.15392
20183.15392
20183.14153
20183.128
20183.11706
20183.10972
20183.10668
20183.10859
20183.11554
20183.12668
20183.14046
20183.15517
20183.16954
20183.18287
20183.19485
20183.2052
20183.21375
20183.22067
20183.22654
20183.23164
20183.23173
20183.21063
20183.13165
20183.05159
20183.04349
20183.13439
20183.15427
20183.03864
20182.85066
20182.64306
20182.42619
20182.2029
20181.97412
20181.7401
20181.50069
20181.25547
20181.00368
20180.74426
20180.47577
20180.19667
20179.89524
20179.74666
20179.72636
20179.72624
20179.72513
20179.72382
20179.72038
20179.71366
20179.70771
20179.70858
20179.7183
20179.73382
20179.74841
20179.7533
20179.73749
20179.69348
20179.62829
20179.55401
20179.48147
20179.4138
20179.33867
20179.24478
20179.13481
20179.02429
20178.9284
20178.85237
20178.78886
20178.73099
20178.6913
20178.68515
20178.71577
20178.78991
20178.92287
20179.12748
20179.40798
20179.75973
20180.16995
20180.61658
20181.07099
20181.50753
20181.9079
20182.24895
20182.50196
20182.65894
20182.70038
20182.58032
20182.36641
20182.12077
20181.86032
20181.61747
20181.39439
20181.18692
20181.07864
20181.07621
20181.09611
20181.09062
20181.07046
20181.05423
20181.0423
20181.03846
20181.05846
20181.10394
20181.15625
20181.19427
20181.21101
20181.21362
20181.20601
20181.18484
20181.15547
20181.12307
20181.09334
20181.07376
20181.05229
20181.0128
20180.9471
20180.85465
20180.73028
20180.59365
20180.46108
20180.33258
20180.21117
20180.10347
20180.01487
20179.94831
20179.9047
20179.88378
20179.88477
20179.90674
20179.94835
20180.00743
20180.08091
20180.16576
20180.26012
20180.36249
20180.47049
20180.58098
20180.69197
20180.80246
20180.91064
20181.01535
20181.11569
20181.21083
20181.30061
20181.38443
20181.46181
20181.53352
20181.59891
20181.65827
20181.71194
20181.76017
20181.80305
20181.84113
20181.87465
20181.9041
20181.92971
20181.95197
20181.97112
20181.98756
20182.00153
20182.01335
20182.02327
20182.0315
20182.0383
20182.04383
20182.04832
20182.0519
20182.05477
20182.05703
20182.05887
20182.06035
20182.06163
20182.06277
20182.06389
20182.06505
20182.06636
20182.06786
20182.06963
20182.07173
20182.0742
20182.07708
20182.08038
20182.08412
20182.08828
20182.09285
20182.0978
20182.10307
20182.10864
20182.11441
20182.12037
20182.12637
20182.13249
20182.13848
20182.14452
20182.15031
20182.15605
20182.16148
20182.16674
20182.17175
20182.17666
20182.17666
20183.13657
20183.13657
20183.1284
20183.11833
20183.10974
20183.10402
20183.102
20183.10422
20183.11076
20183.12102
20183.13386
20183.14799
20183.16237
20183.17629
20183.18931
20183.201
20183.21102
20183.21926
20183.22593
20183.23089
20183.22923
20183.20652
20183.13204
20183.07286
20183.07582
20183.13028
20183.14049
20183.03032
20182.84986
20182.64596
20182.43053
20182.20776
20181.97927
20181.74562
20181.5068
20181.26249
20181.01207
20180.7547
20180.48936
20180.21573
20179.91659
20179.7588
20179.731
20179.72769
20179.7238
20179.72099
20179.71642
20179.70835
20179.70104
20179.70134
20179.71223
20179.73123
20179.75145
20179.76245
20179.75171
20179.71188
20179.64907
20179.57259
20179.49122
20179.40865
20179.31785
20179.21367
20179.09864
20178.98278
20178.87964
20178.79523
20178.72469
20178.66681
20178.63198
20178.62775
20178.6551
20178.72238
20178.84731
20179.0445
20179.31838
20179.66423
20180.07086
20180.51637
20180.96851
20181.39737
20181.78315
20182.11141
20182.35872
20182.50144
20182.55288
20182.47581
20182.2694
20182.01131
20181.7324
20181.46466
20181.22462
20181.02187
20180.90742
20180.90416
20180.96777
20181.02207
20181.04009
20181.04094
20181.0348
20181.02978
20181.04754
20181.09348
20181.15111
20181.19621
20181.21707
20181.22355
20181.219
20181.19564
20181.15756
20181.11587
20181.08446
20181.0641
20181.03301
20180.97502
20180.88958
20180.78251
20180.65617
20180.52327
20180.39444
20180.27163
20180.15764
20180.05728
20179.97494
20179.91338
20179.87378
20179.85619
20179.86004
20179.88436
20179.92776
20179.98821
20180.0631
20180.14979
20180.24606
20180.34972
20180.45841
20180.56994
20180.68232
20180.79352
20180.90248
20181.0079
20181.10891
20181.2046
20181.29483
20181.3792
20181.45697
20181.52911
20181.59491
20181.65459
20181.70861
20181.7572
20181.80034
20181.83872
20181.87248
20181.9022
20181.928
20181.95046
20181.96979
20181.98639
20182.00051
20182.01244
20182.02246
20182.03078
20182.03766
20182.04324
20182.04778
20182.0514
20182.0543
20182.05659
20182.05843
20182.05993
20182.06121
20182.06235
20182.06347
20182.06462
20182.06592
20182.06741
20182.06918
20182.07127
20182.07374
20182.07663
20182.07994
20182.08369
20182.08788
20182.09249
20182.09748
20182.1028
20182.10843
20182.11426
20182.1203
20182.12638
20182.13258
20182.13868
20182.14482
20182.15073
20182.15658
20182.16218
20182.16761
20182.17286
20182.17818
20182.17818
20183.12136
20183.12136
20183.11583
20183.10842
20183.10183
20183.09752
20183.09633
20183.09878
20183.10492
20183.11431
20183.12613
20183.13941
20183.15333
20183.16728
20183.18083
20183.19357
20183.20504
20183.2149
20183.22274
20183.22763
20183.22425
20183.20288
20183.14314
20183.10265
20183.1158
20183.16018
20183.15918
20183.03804
20182.85614
20182.65227
20182.43688
20182.2141
20181.98574
20181.75245
20181.51432
20181.2711
20181.02229
20180.7673
20180.50544
20180.23781
20179.94026
20179.77084
20179.73501
20179.72786
20179.72184
20179.71722
20179.71134
20179.70185
20179.69307
20179.69258
20179.70429
20179.72647
20179.75241
20179.77039
20179.76651
20179.73331
20179.674
20179.59281
20179.49676
20179.39408
20179.28677
20179.17405
20179.05501
20178.93505
20178.82722
20178.73791
20178.66372
20178.60715
20178.57589
20178.5709
20178.5914
20178.64774
20178.76041
20178.94675
20179.21176
20179.54968
20179.95059
20180.39447
20180.84711
20181.27208
20181.64492
20181.95549
20182.1959
20182.33893
20182.38619
20182.33589
20182.14122
20181.87307
20181.57901
20181.29208
20181.03931
20180.83672
20180.71528
20180.70326
20180.79321
20180.91251
20180.98861
20181.02005
20181.02613
20181.02372
20181.0404
20181.0849
20181.14665
20181.19889
20181.22533
20181.2376
20181.23667
20181.20938
20181.16186
20181.1116
20181.07521
20181.04378
20180.99237
20180.91354
20180.81367
20180.6999
20180.57549
20180.44816
20180.32483
20180.20815
20180.10091
20180.00707
20179.93044
20179.87363
20179.83792
20179.82356
20179.8302
20179.85706
20179.90274
20179.96504
20180.04152
20180.12999
20180.22833
20180.33372
20180.44345
20180.5562
20180.67007
20180.7821
20180.89209
20180.99833
20181.10009
20181.19652
20181.2873
20181.37222
20181.45059
20181.52323
20181.58949
20181.6496
20181.70405
20181.75308
20181.79654
20181.8353
20181.86938
20181.89943
20181.92551
20181.94824
20181.9678
20181.98461
20181.99893
20182.01104
20182.02122
20182.02966
20182.03665
20182.04233
20182.04695
20182.05062
20182.05357
20182.0559
20182.05778
20182.0593
20182.06059
20182.06174
20182.06286
20182.06401
20182.0653
20182.06679
20182.06855
20182.07064
20182.07311
20182.076
20182.07932
20182.0831
20182.08732
20182.09198
20182.09702
20182.10241
20182.10811
20182.11403
20182.12015
20182.12634
20182.13265
20182.13888
20182.14515
20182.15123
20182.15724
20182.16304
20182.16868
20182.17418
20182.17983
20182.17983
20183.10758
20183.10758
20183.10378
20183.09837
20183.09345
20183.09035
20183.08989
20183.09251
20183.09831
20183.10696
20183.11784
20183.13021
20183.14342
20183.15698
20183.17052
20183.1837
20183.19611
20183.20726
20183.21623
20183.22154
20183.21683
20183.19917
20183.15889
20183.13562
20183.15535
20183.20019
20183.19297
20183.05767
20182.86893
20182.66202
20182.44526
20182.2219
20181.99345
20181.76052
20181.52316
20181.28119
20181.03421
20180.78183
20180.52361
20180.26242
20179.96647
20179.78378
20179.73836
20179.72722
20179.71931
20179.71275
20179.70545
20179.69464
20179.68443
20179.68298
20179.69501
20179.7195
20179.75019
20179.77448
20179.77753
20179.75123
20179.69434
20179.60535
20179.49182
20179.36969
20179.24946
20179.13139
20179.00983
20178.88703
20178.77612
20178.68383
20178.60813
20178.55321
20178.52327
20178.51428
20178.52468
20178.56643
20178.66277
20178.83482
20179.08848
20179.41576
20179.80768
20180.24813
20180.70343
20181.12968
20181.49566
20181.79249
20182.01912
20182.16502
20182.20904
20182.16298
20181.98327
20181.70975
20181.40667
20181.10835
20180.84689
20180.64176
20180.51482
20180.49162
20180.59187
20180.76622
20180.91162
20180.98884
20181.016
20181.02197
20181.03915
20181.08024
20181.14519
20181.20573
20181.24045
20181.25785
20181.25839
20181.22726
20181.17249
20181.11392
20181.06347
20181.00813
20180.93271
20180.83775
20180.73021
20180.61465
20180.49346
20180.37151
20180.25355
20180.14241
20180.04092
20179.95266
20179.8811
20179.82875
20179.79682
20179.78562
20179.79502
20179.82454
20179.87281
20179.9374
20180.01578
20180.10619
20180.20673
20180.31411
20180.42531
20180.53957
20180.6549
20180.7681
20180.87927
20180.98649
20181.08915
20181.18644
20181.27793
20181.36341
20181.4426
20181.51578
20181.58254
20181.64325
20181.6982
20181.74772
20181.79158
20181.83081
20181.86529
20181.89573
20181.92213
20181.9452
20181.96507
20181.98215
20181.99672
20182.00904
20182.01943
20182.02804
20182.03519
20182.04101
20182.04574
20182.04952
20182.05255
20182.05494
20182.05687
20182.05843
20182.05975
20182.06092
20182.06205
20182.06321
20182.06449
20182.06598
20182.06773
20182.06983
20182.07229
20182.0752
20182.07854
20182.08235
20182.0866
20182.09132
20182.09642
20182.10189
20182.10767
20182.1137
20182.11993
20182.12625
20182.1327
20182.13908
20182.14552
20182.1518
20182.15801
20182.16404
20182.1699
20182.17564
20182.18149
20182.18149
20183.0948
20183.0948
20183.09215
20183.08827
20183.08471
20183.08263
20183.08277
20183.08557
20183.0911
20183.09913
20183.10919
20183.12071
20183.13316
20183.14613
20183.15933
20183.17246
20183.18521
20183.19706
20183.20687
20183.2131
20183.20866
20183.1975
20183.17441
20183.16684
20183.1934
20183.24199
20183.23239
20183.08515
20182.88687
20182.67473
20182.45545
20182.231
20182.0023
20181.76972
20181.53323
20181.29264
20181.04766
20180.79807
20180.54352
20180.28906
20179.99541
20179.79848
20179.74151
20179.72606
20179.71618
20179.7077
20179.699
20179.68712
20179.6757
20179.67321
20179.68492
20179.71061
20179.74441
20179.77315
20179.78147
20179.76017
20179.70316
20179.60441
20179.47452
20179.33762
20179.20973
20179.08955
20178.96727
20178.84312
20178.73009
20178.63569
20178.55917
20178.5049
20178.47351
20178.45763
20178.45552
20178.48008
20178.55721
20178.71283
20178.95362
20179.26755
20179.64598
20180.07876
20180.5361
20180.96853