# vtk DataFile Version 2.0
FlowField
ASCII
DATASET STRUCTURED_GRID
DIMENSIONS 200 1 200
POINTS 40000 float
0 0 0
0.15 0 0
0.3 0 0
0.45 0 0
0.6 0 0
0.75 0 0
0.9 0 0
1.05 0 0
1.2 0 0
1.35 0 0
1.5 0 0
1.65 0 0
1.8 0 0
1.95 0 0
2.1 0 0
2.25 0 0
2.4 0 0
2.55 0 0
2.7 0 0
2.85 0 0
3 0 0
3.15 0 0
3.3 0 0
3.45 0 0
3.6 0 0
3.75 0 0
3.9 0 0
4.05 0 0
4.2 0 0
4.35 0 0
4.5 0 0
4.65 0 0
4.8 0 0
4.95 0 0
5.1 0 0
5.25 0 0
5.4 0 0
5.55 0 0
5.7 0 0
5.85 0 0
6 0 0
6.15 0 0
6.3 0 0
6.45 0 0
6.6 0 0
6.75 0 0
6.9 0 0
7.05 0 0
7.2 0 0
7.35 0 0
7.5 0 0
7.65 0 0
7.8 0 0
7.95 0 0
8.1 0 0
8.25 0 0
8.4 0 0
8.55 0 0
8.7 0 0
8.85 0 0
9 0 0
9.15 0 0
9.3 0 0
9.45 0 0
9.6 0 0
9.75 0 0
9.9 0 0
10.05 0 0
10.2 0 0
10.35 0 0
10.5 0 0
10.65 0 0
10.8 0 0
10.95 0 0
11.1 0 0
11.25 0 0
11.4 0 0
11.55 0 0
11.7 0 0
11.85 0 0
12 0 0
12.15 0 0
12.3 0 0
12.45 0 0
12.6 0 0
12.75 0 0
12.9 0 0
13.05 0 0
13.2 0 0
13.35 0 0
13.5 0 0
13.65 0 0
13.8 0 0
13.95 0 0
14.1 0 0
14.25 0 0
14.4 0 0
14.55 0 0
14.7 0 0
14.85 0 0
15 0 0
15.15 0 0
15.3 0 0
15.45 0 0
15.6 0 0
15.75 0 0
15.9 0 0
16.05 0 0
16.2 0 0
16.35 0 0
16.5 0 0
16.65 0 0
16.8 0 0
16.95 0 0
17.1 0 0
17.25 0 0
17.4 0 0
17.55 0 0
17.7 0 0
17.85 0 0
18 0 0
18.15 0 0
18.3 0 0
18.45 0 0
18.6 0 0
18.75 0 0
18.9 0 0
19.05 0 0
19.2 0 0
19.35 0 0
19.5 0 0
19.65 0 0
19.8 0 0
19.95 0 0
20.1 0 0
20.25 0 0
20.4 0 0
20.55 0 0
20.7 0 0
20.85 0 0
21 0 0
21.15 0 0
21.3 0 0
21.45 0 0
21.6 0 0
21.75 0 0
21.9 0 0
22.05 0 0
22.2 0 0
22.35 0 0
22.5 0 0
22.65 0 0
22.8 0 0
22.95 0 0
23.1 0 0
23.25 0 0
23.4 0 0
23.55 0 0
23.7 0 0
23.85 0 0
24 0 0
24.15 0 0
24.3 0 0
24.45 0 0
24.6 0 0
24.75 0 0
24.9 0 0
25.05 0 0
25.2 0 0
25.35 0 0
25.5 0 0
25.65 0 0
25.8 0 0
25.95 0 0
26.1 0 0
26.25 0 0
26.4 0 0
26.55 0 0
26.7 0 0
26.85 0 0
27 0 0
27.15 0 0
27.3 0 0
27.45 0 0
27.6 0 0
27.75 0 0
27.9 0 0
28.05 0 0
28.2 0 0
28.35 0 0
28.5 0 0
28.65 0 0
28.8 0 0
28.95 0 0
29.1 0 0
29.25 0 0
29.4 0 0
29.55 0 0
29.7 0 0
29.85 0 0
0 0.075 0
0.15 0.075 0
0.3 0.075 0
0.45 0.075 0
0.6 0.075 0
0.75 0.075 0
0.9 0.075 0
1.05 0.075 0
1.2 0.075 0
1.35 0.075 0
1.5 0.075 0
1.65 0.075 0
1.8 0.075 0
1.95 0.075 0
2.1 0.075 0
2.25 0.075 0
2.4 0.075 0
2.55 0.075 0
2.7 0.075 0
2.85 0.075 0
3 0.075 0
3.15 0.075 0
3.3 0.075 0
3.45 0.075 0
3.6 0.075 0
3.75 0.075 0
3.9 0.075 0
4.05 0.075 0
4.2 0.075 0
4.35 0.075 0
4.5 0.075 0
4.65 0.075 0
4.8 0.075 0
4.95 0.075 0
5.1 0.075 0
5.25 0.075 0
5.4 0.075 0
5.55 0.075 0
5.7 0.075 0
5.85 0.075 0
6 0.075 0
6.15 0.075 0
6.3 0.075 0
6.45 0.075 0
6.6 0.075 0
6.75 0.075 0
6.9 0.075 0
7.05 0.075 0
7.2 0.075 0
7.35 0.075 0
7.5 0.075 0
7.65 0.075 0
7.8 0.075 0
7.95 0.075 0
8.1 0.075 0
8.25 0.075 0
8.4 0.075 0
8.55 0.075 0
8.7 0.075 0
8.85 0.075 0
9 0.075 0
9.15 0.075 0
9.3 0.075 0
9.45 0.075 0
9.6 0.075 0
9.75 0.075 0
9.9 0.075 0
10.05 0.075 0
10.2 0.075 0
10.35 0.075 0
10.5 0.075 0
10.65 0.075 0
10.8 0.075 0
10.95 0.075 0
11.1 0.075 0
11.25 0.075 0
11.4 0.075 0
11.55 0.075 0
11.7 0.075 0
11.85 0.075 0
12 0.075 0
12.15 0.075 0
12.3 0.075 0
12.45 0.075 0
12.6 0.075 0
12.75 0.075 0
12.9 0.075 0
13.05 0.075 0
13.2 0.075 0
13.35 0.075 0
13.5 0.075 0
13.65 0.075 0
13.8 0.075 0
13.95 0.075 0
14.1 0.075 0
14.25 0.075 0
14.4 0.075 0
14.55 0.075 0
14.7 0.075 0
14.85 0.075 0
15 0.075 0
15.15 0.075 0
15.3 0.075 0
15.45 0.075 0
15.6 0.075 0
15.75 0.075 0
15.9 0.075 0
16.05 0.075 0
16.2 0.075 0
16.35 0.075 0
16.5 0.075 0
16.65 0.075 0
16.8 0.075 0
16.95 0.075 0
17.1 0.075 0
17.25 0.075 0
17.4 0.075 0
17.55 0.075 0
17.7 0.075 0
17.85 0.075 0
18 0.075 0
18.15 0.075 0
18.3 0.075 0
18.45 0.075 0
18.6 0.075 0
18.75 0.075 0
18.9 0.075 0
19.05 0.075 0
19.2 0.075 0
19.35 0.075 0
19.5 0.075 0
19.65 0.075 0
19.8 0.075 0
19.95 0.075 0
20.1 0.075 0
20.25 0.075 0
20.4 0.075 0
20.55 0.075 0
20.7 0.075 0
20.85 0.075 0
21 0.075 0
21.15 0.075 0
21.3 0.075 0
21.45 0.075 0
21.6 0.075 0
21.75 0.075 0
21.9 0.075 0
22.05 0.075 0
22.2 0.075 0
22.35 0.075 0
22.5 0.075 0
22.65 0.075 0
22.8 0.075 0
22.95 0.075 0
23.1 0.075 0
23.25 0.075 0
23.4 0.075 0
23.55 0.075 0
23.7 0.075 0
23.85 0.075 0
24 0.075 0
24.15 0.075 0
24.3 0.075 0
24.45 0.075 0
24.6 0.075 0
24.75 0.075 0
24.9 0.075 0
25.05 0.075 0
25.2 0.075 0
25.35 0.075 0
25.5 0.075 0
25.65 0.075 0
25.8 0.075 0
25.95 0.075 0
26.1 0.075 0
26.25 0.075 0
26.4 0.075 0
26.55 0.075 0
26.7 0.075 0
26.85 0.075 0
27 0.075 0
27.15 0.075 0
27.3 0.075 0
27.45 0.075 0
27.6 0.075 0
27.75 0.075 0
27.9 0.075 0
28.05 0.075 0
28.2 0.075 0
28.35 0.075 0
28.5 0.075 0
28.65 0.075 0
28.8 0.075 0
28.95 0.075 0
29.1 0.075 0
29.25 0.075 0
29.4 0.075 0
29.55 0.075 0
29.7 0.075 0
29.85 0.075 0
0 0.15 0
0.15 0.15 0
0.3 0.15 0
0.45 0.15 0
0.6 0.15 0
0.75 0.15 0
0.9 0.15 0
1.05 0.15 0
1.2 0.15 0
1.35 0.15 0
1.5 0.15 0
1.65 0.15 0
1.8 0.15 0
1.95 0.15 0
2.1 0.15 0
2.25 0.15 0
2.4 0.15 0
2.55 0.15 0
2.7 0.15 0
2.85 0.15 0
3 0.15 0
3.15 0.15 0
3.3 0.15 0
3.45 0.15 0
3.6 0.15 0
3.75 0.15 0
3.9 0.15 0
4.05 0.15 0
4.2 0.15 0
4.35 0.15 0
4.5 0.15 0
4.65 0.15 0
4.8 0.15 0
4.95 0.15 0
5.1 0.15 0
5.25 0.15 0
5.4 0.15 0
5.55 0.15 0
5.7 0.15 0
5.85 0.15 0
6 0.15 0
6.15 0.15 0
6.3 0.15 0
6.45 0.15 0
6.6 0.15 0
6.75 0.15 0
6.9 0.15 0
7.05 0.15 0
7.2 0.15 0
7.35 0.15 0
7.5 0.15 0
7.65 0.15 0
7.8 0.15 0
7.95 0.15 0
8.1 0.15 0
8.25 0.15 0
8.4 0.15 0
8.55 0.15 0
8.7 0.15 0
8.85 0.15 0
9 0.15 0
9.15 0.15 0
9.3 0.15 0
9.45 0.15 0
9.6 0.15 0
9.75 0.15 0
9.9 0.15 0
10.05 0.15 0
10.2 0.15 0
10.35 0.15 0
10.5 0.15 0
10.65 0.15 0
10.8 0.15 0
10.95 0.15 0
11.1 0.15 0
11.25 0.15 0
11.4 0.15 0
11.55 0.15 0
11.7 0.15 0
11.85 0.15 0
12 0.15 0
12.15 0.15 0
12.3 0.15 0
12.45 0.15 0
12.6 0.15 0
12.75 0.15 0
12.9 0.15 0
13.05 0.15 0
13.2 0.15 0
13.35 0.15 0
13.5 0.15 0
13.65 0.15 0
13.8 0.15 0
13.95 0.15 0
14.1 0.15 0
14.25 0.15 0
14.4 0.15 0
14.55 0.15 0
14.7 0.15 0
14.85 0.15 0
15 0.15 0
15.15 0.15 0
15.3 0.15 0
15.45 0.15 0
15.6 0.15 0
15.75 0.15 0
15.9 0.15 0
16.05 0.15 0
16.2 0.15 0
16.35 0.15 0
16.5 0.15 0
16.65 0.15 0
16.8 0.15 0
16.95 0.15 0
17.1 0.15 0
17.25 0.15 0
17.4 0.15 0
17.55 0.15 0
17.7 0.15 0
17.85 0.15 0
18 0.15 0
18.15 0.15 0
18.3 0.15 0
18.45 0.15 0
18.6 0.15 0
18.75 0.15 0
18.9 0.15 0
19.05 0.15 0
19.2 0.15 0
19.35 0.15 0
19.5 0.15 0
19.65 0.15 0
19.8 0.15 0
19.95 0.15 0
20.1 0.15 0
20.25 0.15 0
20.4 0.15 0
20.55 0.15 0
20.7 0.15 0
20.85 0.15 0
21 0.15 0
21.15 0.15 0
21.3 0.15 0
21.45 0.15 0
21.6 0.15 0
21.75 0.15 0
21.9 0.15 0
22.05 0.15 0
22.2 0.15 0
22.35 0.15 0
22.5 0.15 0
22.65 0.15 0
22.8 0.15 0
22.95 0.15 0
23.1 0.15 0
23.25 0.15 0
23.4 0.15 0
23.55 0.15 0
23.7 0.15 0
23.85 0.15 0
24 0.15 0
24.15 0.15 0
24.3 0.15 0
24.45 0.15 0
24.6 0.15 0
24.75 0.15 0
24.9 0.15 0
25.05 0.15 0
25.2 0.15 0
25.35 0.15 0
25.5 0.15 0
25.65 0.15 0
25.8 0.15 0
25.95 0.15 0
26.1 0.15 0
26.25 0.15 0
26.4 0.15 0
26.55 0.15 0
26.7 0.15 0
26.85 0.15 0
27 0.15 0
27.15 0.15 0
27.3 0.15 0
27.45 0.15 0
27.6 0.15 0
27.75 0.15 0
27.9 0.15 0
28.05 0.15 0
28.2 0.15 0
28.35 0.15 0
28.5 0.15 0
28.65 0.15 0
28.8 0.15 0
28.95 0.15 0
29.1 0.15 0
29.25 0.15 0
29.4 0.15 0
29.55 0.15 0
29.7 0.15 0
29.85 0.15 0
0 0.225 0
0.15 0.225 0
0.3 0.225 0
0.45 0.225 0
0.6 0.225 0
0.75 0.225 0
0.9 0.225 0
1.05 0.225 0
1.2 0.225 0
1.35 0.225 0
1.5 0.225 0
1.65 0.225 0
1.8 0.225 0
1.95 0.225 0
2.1 0.225 0
2.25 0.225 0
2.4 0.225 0
2.55 0.225 0
2.7 0.225 0
2.85 0.225 0
3 0.225 0
3.15 0.225 0
3.3 0.225 0
3.45 0.225 0
3.6 0.225 0
3.75 0.225 0
3.9 0.225 0
4.05 0.225 0
4.2 0.225 0
4.35 0.225 0
4.5 0.225 0
4.65 0.225 0
4.8 0.225 0
4.95 0.225 0
5.1 0.225 0
5.25 0.225 0
5.4 0.225 0
5.55 0.225 0
5.7 0.225 0
5.85 0.225 0
6 0.225 0
6.15 0.225 0
6.3 0.225 0
6.45 0.225 0
6.6 0.225 0
6.75 0.225 0
6.9 0.225 0
7.05 0.225 0
7.2 0.225 0
7.35 0.225 0
7.5 0.225 0
7.65 0.225 0
7.8 0.225 0
7.95 0.225 0
8.1 0.225 0
8.25 0.225 0
8.4 0.225 0
8.55 0.225 0
8.7 0.225 0
8.85 0.225 0
9 0.225 0
9.15 0.225 0
9.3 0.225 0
9.45 0.225 0
9.6 0.225 0
9.75 0.225 0
9.9 0.225 0
10.05 0.225 0
10.2 0.225 0
10.35 0.225 0
10.5 0.225 0
10.65 0.225 0
10.8 0.225 0
10.95 0.225 0
11.1 0.225 0
11.25 0.225 0
11.4 0.225 0
11.55 0.225 0
11.7 0.225 0
11.85 0.225 0
12 0.225 0
12.15 0.225 0
12.3 0.225 0
12.45 0.225 0
12.6 0.225 0
12.75 0.225 0
12.9 0.225 0
13.05 0.225 0
13.2 0.225 0
13.35 0.225 0
13.5 0.225 0
13.65 0.225 0
13.8 0.225 0
13.95 0.225 0
14.1 0.225 0
14.25 0.225 0
14.4 0.225 0
14.55 0.225 0
14.7 0.225 0
14.85 0.225 0
15 0.225 0
15.15 0.225 0
15.3 0.225 0
15.45 0.225 0
15.6 0.225 0
15.75 0.225 0
15.9 0.225 0
16.05 0.225 0
16.2 0.225 0
16.35 0.225 0
16.5 0.225 0
16.65 0.225 0
16.8 0.225 0
16.95 0.225 0
17.1 0.225 0
17.25 0.225 0
17.4 0.225 0
17.55 0.225 0
17.7 0.225 0
17.85 0.225 0
18 0.225 0
18.15 0.225 0
18.3 0.225 0
18.45 0.225 0
18.6 0.225 0
18.75 0.225 0
18.9 0.225 0
19.05 0.225 0
19.2 0.225 0
19.35 0.225 0
19.5 0.225 0
19.65 0.225 0
19.8 0.225 0
19.95 0.225 0
20.1 0.225 0
20.25 0.225 0
20.4 0.225 0
20.55 0.225 0
20.7 0.225 0
20.85 0.225 0
21 0.225 0
21.15 0.225 0
21.3 0.225 0
21.45 0.225 0
21.6 0.225 0
21.75 0.225 0
21.9 0.225 0
22.05 0.225 0
22.2 0.225 0
22.35 0.225 0
22.5 0.225 0
22.65 0.225 0
22.8 0.225 0
22.95 0.225 0
23.1 0.225 0
23.25 0.225 0
23.4 0.225 0
23.55 0.225 0
23.7 0.225 0
23.85 0.225 0
24 0.225 0
24.15 0.225 0
24.3 0.225 0
24.45 0.225 0
24.6 0.225 0
24.75 0.225 0
24.9 0.225 0
25.05 0.225 0
25.2 0.225 0
25.35 0.225 0
25.5 0.225 0
25.65 0.225 0
25.8 0.225 0
25.95 0.225 0
26.1 0.225 0
26.25 0.225 0
26.4 0.225 0
26.55 0.225 0
26.7 0.225 0
26.85 0.225 0
27 0.225 0
27.15 0.225 0
27.3 0.225 0
27.45 0.225 0
27.6 0.225 0
27.75 0.225 0
27.9 0.225 0
28.05 0.225 0
28.2 0.225 0
28.35 0.225 0
28.5 0.225 0
28.65 0.225 0
28.8 0.225 0
28.95 0.225 0
29.1 0.225 0
29.25 0.225 0
29.4 0.225 0
29.55 0.225 0
29.7 0.225 0
29.85 0.225 0
0 0.3 0
0.15 0.3 0
0.3 0.3 0
0.45 0.3 0
0.6 0.3 0
0.75 0.3 0
0.9 0.3 0
1.05 0.3 0
1.2 0.3 0
1.35 0.3 0
1.5 0.3 0
1.65 0.3 0
1.8 0.3 0
1.95 0.3 0
2.1 0.3 0
2.25 0.3 0
2.4 0.3 0
2.55 0.3 0
2.7 0.3 0
2.85 0.3 0
3 0.3 0
3.15 0.3 0
3.3 0.3 0
3.45 0.3 0
3.6 0.3 0
3.75 0.3 0
3.9 0.3 0
4.05 0.3 0
4.2 0.3 0
4.35 0.3 0
4.5 0.3 0
4.65 0.3 0
4.8 0.3 0
4.95 0.3 0
5.1 0.3 0
5.25 0.3 0
5.4 0.3 0
5.55 0.3 0
5.7 0.3 0
5.85 0.3 0
6 0.3 0
6.15 0.3 0
[...]
POINT_DATA 40000

SCALARS p float 1
LOOKUP_TABLE default
20183.41655
20183.41655
20183.3615
20183.33442
20183.31687
20183.30481
20183.29839
20183.29898
20183.30684
20183.31995
20183.33501
20183.3492
20183.36126
20183.37135
20183.37989
20183.38683
20183.39219
20183.39631
20183.39949
20183.40055
20183.39659
20183.38638
20183.36206
20183.32046
20183.38178
20183.74231
20183.63938
20183.31844
20183.10268
20182.91395
20182.73146
20182.54902
20182.36474
20182.17803
20181.98872
20181.79673
20181.60199
20181.40445
20181.20413
20181.00083
20180.79215
20180.67128
20180.68657
20180.69309
20180.73617
20180.75538
20180.71983
20180.63409
20180.55922
20180.4824
20180.40097
20180.33027
20180.27025
20180.21773
20180.18827
20180.18628
20180.19162
20180.20267
20180.22137
20180.2295
20180.21586
20180.17447
20180.10642
20180.01011
20179.88394
20179.7139
20179.49279
20179.21614
20178.88331
20178.50631
20178.11349
20177.74607
20177.44958
20177.26826
20177.23299
20177.34318
20177.53052
20177.62401
20177.57859
20177.68066
20177.80472
20177.83493
20177.86998
20177.90062
20177.92829
20177.941
20177.94873
20177.96667
20178.00032
20178.05369
20178.1163
20178.17553
20178.21912
20178.23113
20178.2247
20178.22156
20178.22391
20178.23048
20178.23879
20178.24677
20178.25393
20178.26139
20178.26991
20178.27953
20178.29163
20178.29477
20178.33873
20178.35439
20178.14788
20178.12919
20178.30857
20178.41928
20178.51401
20178.59357
20178.67724
20178.78166
20178.90192
20179.04439
20179.19874
20179.36719
20179.54102
20179.72026
20179.90047
20180.07931
20180.25727
20180.42987
20180.60131
20180.76626
20180.93004
20181.08817
20181.24444
20181.39633
20181.54458
20181.68883
20181.82677
20181.9598
20182.08388
20182.20139
20182.30792
20182.40615
20182.49281
20182.57071
20182.63689
20182.69452
20182.74229
20182.78186
20182.81367
20182.83842
20182.85603
20182.86627
20182.87028
20182.86891
20182.86342
20182.85353
20182.83986
20182.82226
20182.80156
20182.77799
20182.75241
20182.7251
20182.69678
20182.66747
20182.63773
20182.60763
20182.57771
20182.54818
20182.5196
20182.49202
20182.46586
20182.44094
20182.41746
20182.39526
20182.37465
20182.35561
20182.33845
20182.32302
20182.30953
20182.29754
20182.28709
20182.27749
20182.26867
20182.25984
20182.251
20182.24145
20182.23146
20182.22044
20182.20893
20182.19641
20182.18354
20182.16986
20182.15607
20182.14174
20182.12757
20182.11314
20182.09913
20182.08503
20182.07151
20182.05785
20182.04448
20182.04448
20183.41655
20183.41655
20183.3615
20183.33442
20183.31687
20183.30481
20183.29839
20183.29898
20183.30684
20183.31995
20183.33501
20183.3492
20183.36126
20183.37135
20183.37989
20183.38683
20183.39219
20183.39631
20183.39949
20183.40055
20183.39659
20183.38638
20183.36206
20183.32046
20183.38178
20183.74231
20183.63938
20183.31844
20183.10268
20182.91395
20182.73146
20182.54902
20182.36474
20182.17803
20181.98872
20181.79673
20181.60199
20181.40445
20181.20413
20181.00083
20180.79215
20180.67128
20180.68657
20180.69309
20180.73617
20180.75538
20180.71983
20180.63409
20180.55922
20180.4824
20180.40097
20180.33027
20180.27025
20180.21773
20180.18827
20180.18628
20180.19162
20180.20267
20180.22137
20180.2295
20180.21586
20180.17447
20180.10642
20180.01011
20179.88394
20179.7139
20179.49279
20179.21614
20178.88331
20178.50631
20178.11349
20177.74607
20177.44958
20177.26826
20177.23299
20177.34318
20177.53052
20177.62401
20177.57859
20177.68066
20177.80472
20177.83493
20177.86998
20177.90062
20177.92829
20177.941
20177.94873
20177.96667
20178.00032
20178.05369
20178.1163
20178.17553
20178.21912
20178.23113
20178.2247
20178.22156
20178.22391
20178.23048
20178.23879
20178.24677
20178.25393
20178.26139
20178.26991
20178.27953
20178.29163
20178.29477
20178.33873
20178.35439
20178.14788
20178.12919
20178.30857
20178.41928
20178.51401
20178.59357
20178.67724
20178.78166
20178.90192
20179.04439
20179.19874
20179.36719
20179.54102
20179.72026
20179.90047
20180.07931
20180.25727
20180.42987
20180.60131
20180.76626
20180.93004
20181.08817
20181.24444
20181.39633
20181.54458
20181.68883
20181.82677
20181.9598
20182.08388
20182.20139
20182.30792
20182.40615
20182.49281
20182.57071
20182.63689
20182.69452
20182.74229
20182.78186
20182.81367
20182.83842
20182.85603
20182.86627
20182.87028
20182.86891
20182.86342
20182.85353
20182.83986
20182.82226
20182.80156
20182.77799
20182.75241
20182.7251
20182.69678
20182.66747
20182.63773
20182.60763
20182.57771
20182.54818
20182.5196
20182.49202
20182.46586
20182.44094
20182.41746
20182.39526
20182.37465
20182.35561
20182.33845
20182.32302
20182.30953
20182.29754
20182.28709
20182.27749
20182.26867
20182.25984
20182.251
20182.24145
20182.23146
20182.22044
20182.20893
20182.19641
20182.18354
20182.16986
20182.15607
20182.14174
20182.12757
20182.11314
20182.09913
20182.08503
20182.07151
20182.05785
20182.04448
20182.04448
20183.38383
20183.38383
20183.35229
20183.32978
20183.31425
20183.30379
20183.29869
20183.30011
20183.30824
20183.32129
20183.33619
20183.35023
20183.36216
20183.37217
20183.38062
20183.38742
20183.39262
20183.39655
20183.39966
20183.40116
20183.3987
20183.38696
20183.34712
20183.28448
20183.30107
20183.56133
20183.52212
20183.29285
20183.09618
20182.91245
20182.73145
20182.54948
20182.36533
20182.17867
20181.98938
20181.7974
20181.60267
20181.40514
20181.20485
20181.00217
20180.79812
20180.70206
20180.68601
20180.68157
20180.71662
20180.73714
20180.69781
20180.62051
20180.55154
20180.4762
20180.39313
20180.31803
20180.2562
20180.20893
20180.18792
20180.18829
20180.19244
20180.20147
20180.21881
20180.22693
20180.21287
20180.17258
20180.10611
20180.01162
20179.88556
20179.71559
20179.49265
20179.21171
20178.87356
20178.48997
20178.08947
20177.71295
20177.40608
20177.21165
20177.15834
20177.24556
20177.4141
20177.52497
20177.55365
20177.69826
20177.80821
20177.83793
20177.87031
20177.89795
20177.92583
20177.93944
20177.94986
20177.96798
20177.99705
20178.04604
20178.10786
20178.16841
20178.21397
20178.2274
20178.22279
20178.22035
20178.22316
20178.22995
20178.23831
20178.24616
20178.25328
20178.26096
20178.26966
20178.279
20178.29435
20178.28738
20178.32598
20178.37296
20178.16415
20178.12558
20178.2927
20178.39575
20178.49058
20178.57241
20178.66005
20178.76787
20178.89101
20179.03592
20179.19189
20179.36189
20179.53658
20179.71679
20179.89741
20180.07684
20180.25488
20180.42778
20180.59907
20180.76407
20180.92762
20181.0856
20181.24172
20181.39338
20181.54168
20181.68572
20181.82393
20181.95682
20182.08131
20182.19869
20182.30565
20182.40377
20182.49086
20182.56857
20182.63516
20182.69277
20182.74074
20182.78039
20182.81221
20182.83686
20182.8544
20182.86498
20182.86924
20182.868
20182.86244
20182.85263
20182.83901
20182.82155
20182.80089
20182.77739
20182.7518
20182.7245
20182.69618
20182.6669
20182.63717
20182.60709
20182.57715
20182.54761
20182.51897
20182.49137
20182.46517
20182.44027
20182.41677
20182.39457
20182.37392
20182.35485
20182.33765
20182.32221
20182.3087
20182.29674
20182.28633
20182.27681
20182.26807
20182.25934
20182.25059
20182.24114
20182.23122
20182.22029
20182.20884
20182.1964
20182.18358
20182.16998
20182.15622
20182.14198
20182.12782
20182.11347
20182.09947
20182.08547
20182.07201
20182.05851
20182.04512
20182.04512
20183.35794
20183.35794
20183.3388
20183.32149
20183.30869
20183.3003
20183.2968
20183.29905
20183.30721
20183.3199
20183.33462
20183.34897
20183.3616
20183.37228
20183.3811
20183.38799
20183.39317
20183.39701
20183.40025
20183.40259
20183.4009
20183.38407
20183.3251
20183.25198
20183.24446
20183.3918
20183.3992
20183.25908
20183.08671
20182.91036
20182.73171
20182.55049
20182.36656
20182.17996
20181.9907
20181.79876
20181.60406
20181.40651
20181.20619
20181.00392
20180.80265
20180.7104
20180.67289
20180.65949
20180.68537
20180.70393
20180.6627
20180.59773
20180.53784
20180.46363
20180.3778
20180.29422
20180.22633
20180.1872
20180.18147
20180.191
20180.19886
20180.2072
20180.22095
20180.22603
20180.20992
20180.17048
20180.10699
20180.01666
20179.89191
20179.72203
20179.49626
20179.2072
20178.85769
20178.45981
20178.04289
20177.64729
20177.31921
20177.09911
20177.0122
20177.05802
20177.19248
20177.32794
20177.44826
20177.63767
20177.78006
20177.84268
20177.8686
20177.89214
20177.92368
20177.9436
20177.95658
20177.96815
20177.98444
20178.02498
20178.08778
20178.15384
20178.20454
20178.22245
20178.22035
20178.21833
20178.22156
20178.22879
20178.23751
20178.24539
20178.25256
20178.26056
20178.26958
20178.27632
20178.29211
20178.29486
20178.29453
20178.32638
20178.17413
20178.1257
20178.24444
20178.33749
20178.43171
20178.52082
20178.61839
20178.73427
20178.86521
20179.01528
20179.17628
20179.34918
20179.527
20179.70885
20179.89116
20180.07162
20180.25015
20180.42375
20180.59463
20180.76004
20180.92275
20181.08087
20181.23625
20181.38788
20181.53595
20181.67994
20181.81855
20181.95143
20182.07664
20182.19399
20182.30175
20182.39987
20182.48765
20182.56523
20182.63249
20182.69011
20182.73842
20182.77817
20182.80992
20182.83441
20182.85193
20182.863
20182.86771
20182.86669
20182.86107
20182.85131
20182.83775
20182.82045
20182.79988
20182.77646
20182.75085
20182.72353
20182.69516
20182.66589
20182.63614
20182.60609
20182.57613
20182.54656
20182.51786
20182.49019
20182.46395
20182.43903
20182.41552
20182.39332
20182.37263
20182.35352
20182.33627
20182.32081
20182.30729
20182.29536
20182.28499
20182.27556
20182.2669
20182.25829
20182.24962
20182.24026
20182.2304
20182.21955
20182.20814
20182.1958
20182.18303
20182.16956
20182.15587
20182.14177
20182.12771
20182.11354
20182.09972
20182.08598
20182.0729
20182.06011
20182.04839
20182.04839
20183.337
20183.337
20183.32488
20183.31186
20183.3016
20183.29503
20183.29281
20183.29561
20183.3035
20183.31548
20183.32969
20183.3442
20183.35766
20183.36955
20183.37957
20183.38747
20183.3933
20183.39746
20183.40105
20183.40413
20183.40209
20183.37964
20183.31013
20183.24593
20183.23988
20183.3147
20183.32983
20183.23333
20183.07881
20182.90904
20182.73268
20182.55219
20182.36846
20182.18192
20181.9927
20181.80081
20181.60615
20181.40857
20181.20804
20181.00523
20180.80028
20180.6991
20180.65093
20180.63534
20180.65325
20180.66458
20180.626
20180.57267
20180.51961
20180.44639
20180.35842
20180.26804
20180.19362
20180.15878
20180.16874
20180.19528
20180.21364
20180.22331
20180.23107
20180.22947
20180.2098
20180.17072
20180.11048
20180.02446
20179.90175
20179.73184
20179.50155
20179.20241
20178.83791
20178.42031
20177.98076
20177.56061
20177.20727
20176.95856
20176.83648
20176.84072
20176.93956
20177.08045
20177.25217
20177.48228
20177.68632
20177.80932
20177.85786
20177.88565
20177.92445
20177.95444
20177.96713
20177.96453
20177.96392
20177.99767
20178.06328
20178.13549
20178.19128
20178.21433
20178.21507
20178.21426
20178.21888
20178.22745
20178.2369
20178.24472
20178.25194
20178.2601
20178.26813
20178.27363
20178.26721
20178.25842
20178.23585
20178.22643
20178.13043
20178.09403
20178.17403
20178.26109
20178.35652
20178.45576
20178.56506
20178.69089
20178.83151
20178.98776
20179.15535
20179.33173
20179.51371
20179.69763
20179.88211
20180.06396
20180.243
20180.41754
20180.58776
20180.75365
20180.91519
20181.07339
20181.22783
20181.37936
20181.52718
20181.67113
20181.81027
20181.94326
20182.06939
20182.1869
20182.29561
20182.39394
20182.48247
20182.56016
20182.62805
20182.68587
20182.73453
20182.77445
20182.80622
20182.83065
20182.84822
20182.85974
20182.86507
20182.86444
20182.85884
20182.84917
20182.83568
20182.81862
20182.79817
20182.77489
20182.7493
20182.72196
20182.69351
20182.66423
20182.63445
20182.60444
20182.57448
20182.54489
20182.51613
20182.48838
20182.46204
20182.43709
20182.41355
20182.39135
20182.37061
20182.35147
20182.33415
20182.31867
20182.3051
20182.29321
20182.28285
20182.27355
20182.26495
20182.2565
20182.24788
20182.23868
20182.22881
20182.2181
20182.20668
20182.19449
20182.18174
20182.16848
20182.15486
20182.14101
20182.12712
20182.11326
20182.09973
20182.08647
20182.07395
20182.0623
20182.05321
20182.05321
20183.31925
20183.31925
20183.31131
20183.30168
20183.29368
20183.28866
20183.28741
20183.29048
20183.2979
20183.30896
20183.32231
20183.33648
20183.35035
20183.36326
20183.37471
20183.38425
20183.39164
20183.39703
20183.40131
20183.40461
20183.40125
20183.37619
20183.30679
20183.2555
20183.25665
20183.29964
20183.30879
20183.22174
20183.07553
20182.90968
20182.73479
20182.55473
20182.37108
20182.18454
20181.99536
20181.80356
20181.60897
20181.41135
20181.21045
20181.00639
20180.79409
20180.67918
20180.62643
20180.61098
20180.62316
20180.62721
20180.59221
20180.54717
20180.49871
20180.42694
20180.33786
20180.24326
20180.16487
20180.13285
20180.15485
20180.19917
20180.23161
20180.2446
20180.24632
20180.2372
20180.21381
20180.175
20180.11782
20180.0354
20179.91493
20179.74445
20179.50817
20179.19739
20178.81424
20178.37177
20177.90394
20177.45528
20177.07481
20176.79787
20176.64423
20176.61402
20176.68467
20176.82115
20177.01229
20177.26263
20177.51807
20177.71858
20177.82533
20177.87781
20177.92957
20177.96799
20177.97661
20177.95705
20177.94103
20177.97051
20178.03875
20178.11608
20178.17603
20178.20286
20178.20609
20178.2076
20178.21511
20178.22632
20178.23686
20178.24445
20178.25139
20178.25826
20178.25558
20178.23869
20178.20868
20178.17398
20178.13659
20178.10668
20178.04779
20178.03095
20178.09276
20178.17815
20178.27736
20178.38672
20178.50768
20178.64356
20178.79389
20178.95672
20179.13097
20179.31134
20179.49751
20179.68401
20179.8707
20180.05426
20180.23387
20180.40931
20180.57891
20180.74491
20180.90533
20181.06316
20181.21672
20181.36788
20181.51554
20181.65945
20181.79913
20181.93252
20182.05951
20182.17756
20182.28714
20182.38602
20182.47517
20182.55333
20182.62169
20182.67988
20182.72887
20182.76905
20182.80098
20182.82554
20182.84331
20182.85514
20182.86105
20182.86097
20182.85561
20182.84608
20182.83273
20182.81594
20182.79567
20182.77257
20182.74706
20182.71969
20182.69118
20182.66186
20182.63203
20182.60207
20182.57213
20182.54254
20182.51372
20182.48588
20182.45942
20182.4344
20182.41081
20182.3886
20182.36781
20182.34862
20182.33121
20182.31569
20182.30206
20182.29021
20182.27986
20182.27071
20182.26217
20182.25394
20182.24537
20182.23638
20182.22652
20182.21598
20182.20454
20182.19255
20182.17984
20182.16681
20182.15332
20182.13976
20182.1261
20182.11262
20182.09945
20182.08674
20182.07484
20182.06423
20182.05695
20182.05695
20183.30358
20183.30358
20183.29825
20183.29121
20183.28516
20183.28148
20183.28102
20183.28424
20183.29118
20183.30132
20183.31366
20183.32712
20183.34081
20183.35414
20183.3666
20183.37769
20183.38699
20183.39429
20183.39978
20183.40293
20183.39821
20183.3742
20183.31427
20183.27562
20183.28428
20183.31828
20183.31829
20183.22392
20183.07803
20182.91295
20182.73832
20182.5582
20182.37442
20182.18782
20181.99868
20181.80699
20181.61254
20181.41494
20181.21365
20181.0082
20180.78769
20180.65828
20180.60283
20180.58752
20180.59562
20180.59459
20180.56249
20180.52294
20180.47744
20180.40806
20180.31988
20180.22455
20180.1459
20180.11638
20180.14522
20180.20227
20180.24647
20180.26285
20180.26064
20180.24632
20180.2207
20180.18277
20180.12852
20180.04914
20179.93058
20179.75858
20179.51509
20179.19014
20178.78347
20178.31054
20177.80878
20177.3282
20176.91953
20176.61578
20176.43474
20176.37759
20176.42929
20176.56222
20176.76111
20177.01898
20177.30266
20177.56896
20177.7573
20177.86232
20177.9343
20177.97849
20177.98207
20177.94846
20177.921
20177.94751
20178.01746
20178.09818
20178.1607
20178.1891
20178.19406
20178.19871
20178.21032
20178.22513
20178.2371
20178.24417
20178.24756
20178.24021
20178.21182
20178.16416
20178.10968
20178.05811
20178.01329
20177.97989
20177.94593
20177.94766
20178.00557
20178.09261
20178.19755
20178.31642
20178.44834
20178.59406
20178.75352
20178.92337
20179.1038
20179.28878
20179.47883
20179.6684
20179.85725
20180.04262
20180.22299
20180.39899
20180.56827
20180.73381
20180.89339
20181.05031
20181.20313
20181.35366
20181.50116
20181.64512
20181.78524
20181.91932
20182.04709
20182.16605
20182.2764
20182.37615
20182.46586
20182.54469
20182.61346
20182.67211
20182.72144
20182.76194
20182.79416
20182.81899
20182.83714
20182.84927
20182.85563
20182.85611
20182.85122
20182.84199
20182.82885
20182.81233
20182.79231
20182.76938
20182.74402
20182.71668
20182.68812
20182.65877
20182.62886
20182.59892
20182.56902
20182.53944
20182.51059
20182.48266
20182.45607
20182.43098
20182.4073
20182.38508
20182.36419
20182.34495
20182.32741
20182.31185
20182.29814
20182.28635
20182.276
20182.26703
20182.25857
20182.25059
20182.24211
20182.23335
20182.22353
20182.21317
20182.20177
20182.18996
20182.17738
20182.16458
20182.15131
20182.13805
20182.1247
20182.11161
20182.09888
20182.08669
20182.07537
20182.0654
20182.0584
20182.0584
20183.2893
20183.2893
20183.28566
20183.2806
20183.27615
20183.27364
20183.27384
20183.27719
20183.28372
20183.29304
20183.30443
20183.31704
20183.3302
20183.34341
20183.35625
20183.36831
20183.37915
20183.38833
20183.39531
20183.3986
20183.39322
20183.37245
20183.32797
20183.30264
20183.31619
20183.35016
20183.3436
20183.23688
20183.08611
20182.91902
20182.74337
20182.56261
20182.37848
20182.19174
20182.00264
20181.81112
20181.61689
20181.41943
20181.2179
20181.01149
20180.78357
20180.64024
20180.58167
20180.56595
20180.57131
20180.56737
20180.53771
20180.5017
20180.45826
20180.39228
20180.30804
20180.2164
20180.1411
20180.11329
20180.14374
20180.2057
20180.25475
20180.27297
20180.26971
20180.25386
20180.22834
20180.19232
20180.14095
20180.06414
20179.94667
20179.77171
20179.51896
20179.17578
20178.74003
20178.23069
20177.6898
20177.17524
20176.73923
20176.41151
20176.20641
20176.12787
20176.1682
20176.30339
20176.51045
20176.77473
20177.07127
20177.37904
20177.64606
20177.82449
20177.92966
20177.98041
20177.98113
20177.9421
20177.90903
20177.93242
20178.00287
20178.08476
20178.14722
20178.17466
20178.18026
20178.1883
20178.20452
20178.22307
20178.2361
20178.23903
20178.2273
20178.19104
20178.12829
20178.05492
20177.98538
20177.92552
20177.87998
20177.85096
20177.83517
20177.85283
20177.9142
20178.00566
20178.11763
20178.24563
20178.38779
20178.54302
20178.71098
20178.88812
20179.07431
20179.26439
20179.4581
20179.65103
20179.84206
20180.02919
20180.21051
20180.38677
20180.55595
20180.72063
20180.87947
20181.03516
20181.18722
20181.33697
20181.48423
20181.62833
20181.76883
20181.90379
20182.03238
20182.15245
20182.26362
20182.36434
20182.45469
20182.53422
20182.60346
20182.66258
20182.71229
20182.75313
20182.78575
20182.81097
20182.82952
20182.84205
20182.84883
20182.84981
20182.84554
20182.83675
20182.82393
20182.80771
20182.788
20182.76525
20182.74008
20182.71283
20182.68427
20182.6549
20182.62489
20182.59492
20182.56507
20182.53551
20182.50667
20182.47869
20182.452
20182.42683
20182.40304
20182.38078
20182.35979
20182.34046
20182.32278
20182.30715
20182.29338
20182.28164
20182.27133
20182.26253
20182.25416
20182.24642
20182.23806
20182.2295
20182.21978
20182.20955
20182.19828
20182.18663
20182.17426
20182.16171
20182.14876
20182.13583
20182.12289
20182.11021
20182.09799
20182.08632
20182.07553
20182.06581
20182.05791
20182.05791
20183.27596
20183.27596
20183.27347
20183.26989
20183.26677
20183.26523
20183.26599
20183.26946
20183.27567
20183.28432
20183.29487
20183.30668
20183.31918
20183.33198
20183.34474
20183.35716
20183.36888
20183.37938
20183.3877
20183.39182
20183.38675
20183.37092
20183.34267
20183.33058
20183.34899
20183.38548
20183.37532
20183.25727
20183.09881
20182.92761
20182.74981
20182.5679
20182.38318
20182.19623
20182.0072
20181.81593
20181.62204
20181.42491
20181.22341
20181.01683
20180.7831
20180.6267
20180.56366
20180.54678
20180.55043
20180.54546
20180.51809
20180.48451
20180.44305
20180.38139
20180.30378
20180.21977
20180.15089
20180.12491
20180.15247
20180.20997
20180.25582
20180.27419
20180.27231
20180.25808
20180.23475
20180.20143
20180.15272
20180.07769
20179.95996
20179.77991
20179.51467
20179.14869
20178.67895
20178.12822
20177.54575
20176.99851
20176.53954
20176.19232
20175.96509