# vtk DataFile Version 2.0
FlowField
ASCII
DATASET STRUCTURED_GRID
DIMENSIONS 200 1 200
POINTS 40000 float
0 0 0
0.15 0 0
0.3 0 0
0.45 0 0
0.6 0 0
0.75 0 0
0.9 0 0
1.05 0 0
1.2 0 0
1.35 0 0
1.5 0 0
1.65 0 0
1.8 0 0
1.95 0 0
2.1 0 0
2.25 0 0
2.4 0 0
2.55 0 0
2.7 0 0
2.85 0 0
3 0 0
3.15 0 0
3.3 0 0
3.45 0 0
3.6 0 0
3.75 0 0
3.9 0 0
4.05 0 0
4.2 0 0
4.35 0 0
4.5 0 0
4.65 0 0
4.8 0 0
4.95 0 0
5.1 0 0
5.25 0 0
5.4 0 0
5.55 0 0
5.7 0 0
5.85 0 0
6 0 0
6.15 0 0
6.3 0 0
6.45 0 0
6.6 0 0
6.75 0 0
6.9 0 0
7.05 0 0
7.2 0 0
7.35 0 0
7.5 0 0
7.65 0 0
7.8 0 0
7.95 0 0
8.1 0 0
8.25 0 0
8.4 0 0
8.55 0 0
8.7 0 0
8.85 0 0
9 0 0
9.15 0 0
9.3 0 0
9.45 0 0
9.6 0 0
9.75 0 0
9.9 0 0
10.05 0 0
10.2 0 0
10.35 0 0
10.5 0 0
10.65 0 0
10.8 0 0
10.95 0 0
11.1 0 0
11.25 0 0
11.4 0 0
11.55 0 0
11.7 0 0
11.85 0 0
12 0 0
12.15 0 0
12.3 0 0
12.45 0 0
12.6 0 0
12.75 0 0
12.9 0 0
13.05 0 0
13.2 0 0
13.35 0 0
13.5 0 0
13.65 0 0
13.8 0 0
13.95 0 0
14.1 0 0
14.25 0 0
14.4 0 0
14.55 0 0
14.7 0 0
14.85 0 0
15 0 0
15.15 0 0
15.3 0 0
15.45 0 0
15.6 0 0
15.75 0 0
15.9 0 0
16.05 0 0
16.2 0 0
16.35 0 0
16.5 0 0
16.65 0 0
16.8 0 0
16.95 0 0
17.1 0 0
17.25 0 0
17.4 0 0
17.55 0 0
17.7 0 0
17.85 0 0
18 0 0
18.15 0 0
18.3 0 0
18.45 0 0
18.6 0 0
18.75 0 0
18.9 0 0
19.05 0 0
19.2 0 0
19.35 0 0
19.5 0 0
19.65 0 0
19.8 0 0
19.95 0 0
20.1 0 0
20.25 0 0
20.4 0 0
20.55 0 0
20.7 0 0
20.85 0 0
21 0 0
21.15 0 0
21.3 0 0
21.45 0 0
21.6 0 0
21.75 0 0
21.9 0 0
22.05 0 0
22.2 0 0
22.35 0 0
22.5 0 0
22.65 0 0
22.8 0 0
22.95 0 0
23.1 0 0
23.25 0 0
23.4 0 0
23.55 0 0
23.7 0 0
23.85 0 0
24 0 0
24.15 0 0
24.3 0 0
24.45 0 0
24.6 0 0
24.75 0 0
24.9 0 0
25.05 0 0
25.2 0 0
25.35 0 0
25.5 0 0
25.65 0 0
25.8 0 0
25.95 0 0
26.1 0 0
26.25 0 0
26.4 0 0
26.55 0 0
26.7 0 0
26.85 0 0
27 0 0
27.15 0 0
27.3 0 0
27.45 0 0
27.6 0 0
27.75 0 0
27.9 0 0
28.05 0 0
28.2 0 0
28.35 0 0
28.5 0 0
28.65 0 0
28.8 0 0
28.95 0 0
29.1 0 0
29.25 0 0
29.4 0 0
29.55 0 0
29.7 0 0
29.85 0 0
0 0.075 0
0.15 0.075 0
0.3 0.075 0
0.45 0.075 0
0.6 0.075 0
0.75 0.075 0
0.9 0.075 0
1.05 0.075 0
1.2 0.075 0
1.35 0.075 0
1.5 0.075 0
1.65 0.075 0
1.8 0.075 0
1.95 0.075 0
2.1 0.075 0
2.25 0.075 0
2.4 0.075 0
2.55 0.075 0
2.7 0.075 0
2.85 0.075 0
3 0.075 0
3.15 0.075 0
3.3 0.075 0
3.45 0.075 0
3.6 0.075 0
3.75 0.075 0
3.9 0.075 0
4.05 0.075 0
4.2 0.075 0
4.35 0.075 0
4.5 0.075 0
4.65 0.075 0
4.8 0.075 0
4.95 0.075 0
5.1 0.075 0
5.25 0.075 0
5.4 0.075 0
5.55 0.075 0
5.7 0.075 0
5.85 0.075 0
6 0.075 0
6.15 0.075 0
6.3 0.075 0
6.45 0.075 0
6.6 0.075 0
6.75 0.075 0
6.9 0.075 0
7.05 0.075 0
7.2 0.075 0
7.35 0.075 0
7.5 0.075 0
7.65 0.075 0
7.8 0.075 0
7.95 0.075 0
8.1 0.075 0
8.25 0.075 0
8.4 0.075 0
8.55 0.075 0
8.7 0.075 0
8.85 0.075 0
9 0.075 0
9.15 0.075 0
9.3 0.075 0
9.45 0.075 0
9.6 0.075 0
9.75 0.075 0
9.9 0.075 0
10.05 0.075 0
10.2 0.075 0
10.35 0.075 0
10.5 0.075 0
10.65 0.075 0
10.8 0.075 0
10.95 0.075 0
11.1 0.075 0
11.25 0.075 0
11.4 0.075 0
11.55 0.075 0
11.7 0.075 0
11.85 0.075 0
12 0.075 0
12.15 0.075 0
12.3 0.075 0
12.45 0.075 0
12.6 0.075 0
12.75 0.075 0
12.9 0.075 0
13.05 0.075 0
13.2 0.075 0
13.35 0.075 0
13.5 0.075 0
13.65 0.075 0
13.8 0.075 0
13.95 0.075 0
14.1 0.075 0
14.25 0.075 0
14.4 0.075 0
14.55 0.075 0
14.7 0.075 0
14.85 0.075 0
15 0.075 0
15.15 0.075 0
15.3 0.075 0
15.45 0.075 0
15.6 0.075 0
15.75 0.075 0
15.9 0.075 0
16.05 0.075 0
16.2 0.075 0
16.35 0.075 0
16.5 0.075 0
16.65 0.075 0
16.8 0.075 0
16.95 0.075 0
17.1 0.075 0
17.25 0.075 0
17.4 0.075 0
17.55 0.075 0
17.7 0.075 0
17.85 0.075 0
18 0.075 0
18.15 0.075 0
18.3 0.075 0
18.45 0.075 0
18.6 0.075 0
18.75 0.075 0
18.9 0.075 0
19.05 0.075 0
19.2 0.075 0
19.35 0.075 0
19.5 0.075 0
19.65 0.075 0
19.8 0.075 0
19.95 0.075 0
20.1 0.075 0
20.25 0.075 0
20.4 0.075 0
20.55 0.075 0
20.7 0.075 0
20.85 0.075 0
21 0.075 0
21.15 0.075 0
21.3 0.075 0
21.45 0.075 0
21.6 0.075 0
21.75 0.075 0
21.9 0.075 0
22.05 0.075 0
22.2 0.075 0
22.35 0.075 0
22.5 0.075 0
22.65 0.075 0
22.8 0.075 0
22.95 0.075 0
23.1 0.075 0
23.25 0.075 0
23.4 0.075 0
23.55 0.075 0
23.7 0.075 0
23.85 0.075 0
24 0.075 0
24.15 0.075 0
24.3 0.075 0
24.45 0.075 0
24.6 0.075 0
24.75 0.075 0
24.9 0.075 0
25.05 0.075 0
25.2 0.075 0
25.35 0.075 0
25.5 0.075 0
25.65 0.075 0
25.8 0.075 0
25.95 0.075 0
26.1 0.075 0
26.25 0.075 0
26.4 0.075 0
26.55 0.075 0
26.7 0.075 0
26.85 0.075 0
27 0.075 0
27.15 0.075 0
27.3 0.075 0
27.45 0.075 0
27.6 0.075 0
27.75 0.075 0
27.9 0.075 0
28.05 0.075 0
28.2 0.075 0
28.35 0.075 0
28.5 0.075 0
28.65 0.075 0
28.8 0.075 0
28.95 0.075 0
29.1 0.075 0
29.25 0.075 0
29.4 0.075 0
29.55 0.075 0
29.7 0.075 0
29.85 0.075 0
0 0.15 0
0.15 0.15 0
0.3 0.15 0
0.45 0.15 0
0.6 0.15 0
0.75 0.15 0
0.9 0.15 0
1.05 0.15 0
1.2 0.15 0
1.35 0.15 0
1.5 0.15 0
1.65 0.15 0
1.8 0.15 0
1.95 0.15 0
2.1 0.15 0
2.25 0.15 0
2.4 0.15 0
2.55 0.15 0
2.7 0.15 0
2.85 0.15 0
3 0.15 0
3.15 0.15 0
3.3 0.15 0
3.45 0.15 0
3.6 0.15 0
3.75 0.15 0
3.9 0.15 0
4.05 0.15 0
4.2 0.15 0
4.35 0.15 0
4.5 0.15 0
4.65 0.15 0
4.8 0.15 0
4.95 0.15 0
5.1 0.15 0
5.25 0.15 0
5.4 0.15 0
5.55 0.15 0
5.7 0.15 0
5.85 0.15 0
6 0.15 0
6.15 0.15 0
6.3 0.15 0
6.45 0.15 0
6.6 0.15 0
6.75 0.15 0
6.9 0.15 0
7.05 0.15 0
7.2 0.15 0
7.35 0.15 0
7.5 0.15 0
7.65 0.15 0
7.8 0.15 0
7.95 0.15 0
8.1 0.15 0
8.25 0.15 0
8.4 0.15 0
8.55 0.15 0
8.7 0.15 0
8.85 0.15 0
9 0.15 0
9.15 0.15 0
9.3 0.15 0
9.45 0.15 0
9.6 0.15 0
9.75 0.15 0
9.9 0.15 0
10.05 0.15 0
10.2 0.15 0
10.35 0.15 0
10.5 0.15 0
10.65 0.15 0
10.8 0.15 0
10.95 0.15 0
11.1 0.15 0
11.25 0.15 0
11.4 0.15 0
11.55 0.15 0
11.7 0.15 0
11.85 0.15 0
12 0.15 0
12.15 0.15 0
12.3 0.15 0
12.45 0.15 0
12.6 0.15 0
12.75 0.15 0
12.9 0.15 0
13.05 0.15 0
13.2 0.15 0
13.35 0.15 0
13.5 0.15 0
13.65 0.15 0
13.8 0.15 0
13.95 0.15 0
14.1 0.15 0
14.25 0.15 0
14.4 0.15 0
14.55 0.15 0
14.7 0.15 0
14.85 0.15 0
15 0.15 0
15.15 0.15 0
15.3 0.15 0
15.45 0.15 0
15.6 0.15 0
15.75 0.15 0
15.9 0.15 0
16.05 0.15 0
16.2 0.15 0
16.35 0.15 0
16.5 0.15 0
16.65 0.15 0
16.8 0.15 0
16.95 0.15 0
17.1 0.15 0
17.25 0.15 0
17.4 0.15 0
17.55 0.15 0
17.7 0.15 0
17.85 0.15 0
18 0.15 0
18.15 0.15 0
18.3 0.15 0
18.45 0.15 0
18.6 0.15 0
18.75 0.15 0
18.9 0.15 0
19.05 0.15 0
19.2 0.15 0
19.35 0.15 0
19.5 0.15 0
19.65 0.15 0
19.8 0.15 0
19.95 0.15 0
20.1 0.15 0
20.25 0.15 0
20.4 0.15 0
20.55 0.15 0
20.7 0.15 0
20.85 0.15 0
21 0.15 0
21.15 0.15 0
21.3 0.15 0
21.45 0.15 0
21.6 0.15 0
21.75 0.15 0
21.9 0.15 0
22.05 0.15 0
22.2 0.15 0
22.35 0.15 0
22.5 0.15 0
22.65 0.15 0
22.8 0.15 0
22.95 0.15 0
23.1 0.15 0
23.25 0.15 0
23.4 0.15 0
23.55 0.15 0
23.7 0.15 0
23.85 0.15 0
24 0.15 0
24.15 0.15 0
24.3 0.15 0
24.45 0.15 0
24.6 0.15 0
24.75 0.15 0
24.9 0.15 0
25.05 0.15 0
25.2 0.15 0
25.35 0.15 0
25.5 0.15 0
25.65 0.15 0
25.8 0.15 0
25.95 0.15 0
26.1 0.15 0
26.25 0.15 0
26.4 0.15 0
26.55 0.15 0
26.7 0.15 0
26.85 0.15 0
27 0.15 0
27.15 0.15 0
27.3 0.15 0
27.45 0.15 0
27.6 0.15 0
27.75 0.15 0
27.9 0.15 0
28.05 0.15 0
28.2 0.15 0
28.35 0.15 0
28.5 0.15 0
28.65 0.15 0
28.8 0.15 0
28.95 0.15 0
29.1 0.15 0
29.25 0.15 0
29.4 0.15 0
29.55 0.15 0
29.7 0.15 0
29.85 0.15 0
0 0.225 0
0.15 0.225 0
0.3 0.225 0
0.45 0.225 0
0.6 0.225 0
0.75 0.225 0
0.9 0.225 0
1.05 0.225 0
1.2 0.225 0
1.35 0.225 0
1.5 0.225 0
1.65 0.225 0
1.8 0.225 0
1.95 0.225 0
2.1 0.225 0
2.25 0.225 0
2.4 0.225 0
2.55 0.225 0
2.7 0.225 0
2.85 0.225 0
3 0.225 0
3.15 0.225 0
3.3 0.225 0
3.45 0.225 0
3.6 0.225 0
3.75 0.225 0
3.9 0.225 0
4.05 0.225 0
4.2 0.225 0
4.35 0.225 0
4.5 0.225 0
4.65 0.225 0
4.8 0.225 0
4.95 0.225 0
5.1 0.225 0
5.25 0.225 0
5.4 0.225 0
5.55 0.225 0
5.7 0.225 0
5.85 0.225 0
6 0.225 0
6.15 0.225 0
6.3 0.225 0
6.45 0.225 0
6.6 0.225 0
6.75 0.225 0
6.9 0.225 0
7.05 0.225 0
7.2 0.225 0
7.35 0.225 0
7.5 0.225 0
7.65 0.225 0
7.8 0.225 0
7.95 0.225 0
8.1 0.225 0
8.25 0.225 0
8.4 0.225 0
8.55 0.225 0
8.7 0.225 0
8.85 0.225 0
9 0.225 0
9.15 0.225 0
9.3 0.225 0
9.45 0.225 0
9.6 0.225 0
9.75 0.225 0
9.9 0.225 0
10.05 0.225 0
10.2 0.225 0
10.35 0.225 0
10.5 0.225 0
10.65 0.225 0
10.8 0.225 0
10.95 0.225 0
11.1 0.225 0
11.25 0.225 0
11.4 0.225 0
11.55 0.225 0
11.7 0.225 0
11.85 0.225 0
12 0.225 0
12.15 0.225 0
12.3 0.225 0
12.45 0.225 0
12.6 0.225 0
12.75 0.225 0
12.9 0.225 0
13.05 0.225 0
13.2 0.225 0
13.35 0.225 0
13.5 0.225 0
13.65 0.225 0
13.8 0.225 0
13.95 0.225 0
14.1 0.225 0
14.25 0.225 0
14.4 0.225 0
14.55 0.225 0
14.7 0.225 0
14.85 0.225 0
15 0.225 0
15.15 0.225 0
15.3 0.225 0
15.45 0.225 0
15.6 0.225 0
15.75 0.225 0
15.9 0.225 0
16.05 0.225 0
16.2 0.225 0
16.35 0.225 0
16.5 0.225 0
16.65 0.225 0
16.8 0.225 0
16.95 0.225 0
17.1 0.225 0
17.25 0.225 0
17.4 0.225 0
17.55 0.225 0
17.7 0.225 0
17.85 0.225 0
18 0.225 0
18.15 0.225 0
18.3 0.225 0
18.45 0.225 0
18.6 0.225 0
18.75 0.225 0
18.9 0.225 0
19.05 0.225 0
19.2 0.225 0
19.35 0.225 0
19.5 0.225 0
19.65 0.225 0
19.8 0.225 0
19.95 0.225 0
20.1 0.225 0
20.25 0.225 0
20.4 0.225 0
20.55 0.225 0
20.7 0.225 0
20.85 0.225 0
21 0.225 0
21.15 0.225 0
21.3 0.225 0
21.45 0.225 0
21.6 0.225 0
21.75 0.225 0
21.9 0.225 0
22.05 0.225 0
22.2 0.225 0
22.35 0.225 0
22.5 0.225 0
22.65 0.225 0
22.8 0.225 0
22.95 0.225 0
23.1 0.225 0
23.25 0.225 0
23.4 0.225 0
23.55 0.225 0
23.7 0.225 0
23.85 0.225 0
24 0.225 0
24.15 0.225 0
24.3 0.225 0
24.45 0.225 0
24.6 0.225 0
24.75 0.225 0
24.9 0.225 0
25.05 0.225 0
25.2 0.225 0
25.35 0.225 0
25.5 0.225 0
25.65 0.225 0
25.8 0.225 0
25.95 0.225 0
26.1 0.225 0
26.25 0.225 0
26.4 0.225 0
26.55 0.225 0
26.7 0.225 0
26.85 0.225 0
27 0.225 0
27.15 0.225 0
27.3 0.225 0
27.45 0.225 0
27.6 0.225 0
27.75 0.225 0
27.9 0.225 0
28.05 0.225 0
28.2 0.225 0
28.35 0.225 0
28.5 0.225 0
28.65 0.225 0
28.8 0.225 0
28.95 0.225 0
29.1 0.225 0
29.25 0.225 0
29.4 0.225 0
29.55 0.225 0
29.7 0.225 0
29.85 0.225 0
0 0.3 0
0.15 0.3 0
0.3 0.3 0
0.45 0.3 0
0.6 0.3 0
0.75 0.3 0
0.9 0.3 0
1.05 0.3 0
1.2 0.3 0
1.35 0.3 0
1.5 0.3 0
1.65 0.3 0
1.8 0.3 0
1.95 0.3 0
2.1 0.3 0
2.25 0.3 0
2.4 0.3 0
2.55 0.3 0
2.7 0.3 0
2.85 0.3 0
3 0.3 0
3.15 0.3 0
3.3 0.3 0
3.45 0.3 0
3.6 0.3 0
3.75 0.3 0
3.9 0.3 0
4.05 0.3 0
4.2 0.3 0
4.35 0.3 0
4.5 0.3 0
4.65 0.3 0
4.8 0.3 0
4.95 0.3 0
5.1 0.3 0
5.25 0.3 0
5.4 0.3 0
5.55 0.3 0
5.7 0.3 0
5.85 0.3 0
6 0.3 0
6.15 0.3 0
[...]
POINT_DATA 40000

SCALARS p float 1
LOOKUP_TABLE default
20183.44193
20183.44193
20183.38691
20183.35988
20183.34241
20183.33051
20183.32436
20183.32531
20183.33357
20183.34713
20183.36279
20183.37784
20183.39097
20183.40221
20183.41193
20183.4201
20183.42671
20183.43202
20183.43628
20183.43813
20183.43453
20183.42406
20183.39702
20183.35473
20183.42492
20183.79635
20183.69238
20183.36754
20183.14956
20182.95861
20182.77347
20182.58776
20182.39942
20182.20767
20182.0121
20181.81235
20181.60806
20181.39895
20181.18518
20180.96772
20180.74788
20180.62362
20180.63448
20180.65694
20180.77037
20180.85855
20180.70827
20180.52823
20180.44755
20180.45107
20180.46225
20180.47249
20180.4822
20180.48285
20180.46224
20180.43402
20180.40051
20180.35383
20180.2953
20180.23314
20180.16164
20180.07908
20179.98359
20179.86933
20179.7327
20179.57942
20179.41846
20179.25999
20179.11263
20178.98748
20178.88553
20178.79233
20178.70521
20178.62317
20178.53027
20178.43878
20178.358
20178.31348
20178.32457
20178.33335
20178.34896
20178.3997
20178.4196
20178.42571
20178.40985
20178.37951
20178.34209
20178.30708
20178.32586
20178.4601
20178.63849
20178.72612
20178.71354
20178.66741
20178.63237
20178.61569
20178.61224
20178.61755
20178.62956
20178.64528
20178.66048
20178.67284
20178.68241
20178.68879
20178.69091
20178.68844
20178.67239
20178.64744
20178.62451
20178.53633
20178.40061
20178.31909
20178.2995
20178.28932
20178.26072
20178.22183
20178.1937
20178.19411
20178.23331
20178.31499
20178.43832
20178.59978
20178.79432
20179.01622
20179.25951
20179.51829
20179.78687
20180.05987
20180.33225
20180.59937
20180.85707
20181.10173
20181.33043
20181.54093
20181.73173
20181.90203
20182.05169
20182.18121
20182.29163
20182.38458
20182.46218
20182.52652
20182.58
20182.62475
20182.66233
20182.69442
20182.72172
20182.74522
20182.76512
20182.78175
20182.79512
20182.80513
20182.8116
20182.81431
20182.81296
20182.80732
20182.79717
20182.78241
20182.76305
20182.73925
20182.71135
20182.67979
20182.64517
20182.60815
20182.56941
20182.52961
20182.48938
20182.44924
20182.40963
20182.37089
20182.3333
20182.29705
20182.26231
20182.22921
20182.19785
20182.16829
20182.14055
20182.11462
20182.09044
20182.06789
20182.04684
20182.02713
20182.00859
20181.99106
20181.97435
20181.95832
20181.94279
20181.92767
20181.91287
20181.89836
20181.88409
20181.87002
20181.85604
20181.84204
20181.8278
20181.81321
20181.79792
20181.78206
20181.76481
20181.76481
20183.44193
20183.44193
20183.38691
20183.35988
20183.34241
20183.33051
20183.32436
20183.32531
20183.33357
20183.34713
20183.36279
20183.37784
20183.39097
20183.40221
20183.41193
20183.4201
20183.42671
20183.43202
20183.43628
20183.43813
20183.43453
20183.42406
20183.39702
20183.35473
20183.42492
20183.79635
20183.69238
20183.36754
20183.14956
20182.95861
20182.77347
20182.58776
20182.39942
20182.20767
20182.0121
20181.81235
20181.60806
20181.39895
20181.18518
20180.96772
20180.74788
20180.62362
20180.63448
20180.65694
20180.77037
20180.85855
20180.70827
20180.52823
20180.44755
20180.45107
20180.46225
20180.47249
20180.4822
20180.48285
20180.46224
20180.43402
20180.40051
20180.35383
20180.2953
20180.23314
20180.16164
20180.07908
20179.98359
20179.86933
20179.7327
20179.57942
20179.41846
20179.25999
20179.11263
20178.98748
20178.88553
20178.79233
20178.70521
20178.62317
20178.53027
20178.43878
20178.358
20178.31348
20178.32457
20178.33335
20178.34896
20178.3997
20178.4196
20178.42571
20178.40985
20178.37951
20178.34209
20178.30708
20178.32586
20178.4601
20178.63849
20178.72612
20178.71354
20178.66741
20178.63237
20178.61569
20178.61224
20178.61755
20178.62956
20178.64528
20178.66048
20178.67284
20178.68241
20178.68879
20178.69091
20178.68844
20178.67239
20178.64744
20178.62451
20178.53633
20178.40061
20178.31909
20178.2995
20178.28932
20178.26072
20178.22183
20178.1937
20178.19411
20178.23331
20178.31499
20178.43832
20178.59978
20178.79432
20179.01622
20179.25951
20179.51829
20179.78687
20180.05987
20180.33225
20180.59937
20180.85707
20181.10173
20181.33043
20181.54093
20181.73173
20181.90203
20182.05169
20182.18121
20182.29163
20182.38458
20182.46218
20182.52652
20182.58
20182.62475
20182.66233
20182.69442
20182.72172
20182.74522
20182.76512
20182.78175
20182.79512
20182.80513
20182.8116
20182.81431
20182.81296
20182.80732
20182.79717
20182.78241
20182.76305
20182.73925
20182.71135
20182.67979
20182.64517
20182.60815
20182.56941
20182.52961
20182.48938
20182.44924
20182.40963
20182.37089
20182.3333
20182.29705
20182.26231
20182.22921
20182.19785
20182.16829
20182.14055
20182.11462
20182.09044
20182.06789
20182.04684
20182.02713
20182.00859
20181.99106
20181.97435
20181.95832
20181.94279
20181.92767
20181.91287
20181.89836
20181.88409
20181.87002
20181.85604
20181.84204
20181.8278
20181.81321
20181.79792
20181.78206
20181.76481
20181.76481
20183.4092
20183.4092
20183.37769
20183.35524
20183.3398
20183.3295
20183.32465
20183.32641
20183.33493
20183.34843
20183.36393
20183.37884
20183.39187
20183.40304
20183.41267
20183.42072
20183.42716
20183.43231
20183.43652
20183.43892
20183.43693
20183.42424
20183.38029
20183.31851
20183.34363
20183.61158
20183.57275
20183.34155
20183.14306
20182.95722
20182.77362
20182.58841
20182.40025
20182.2086
20182.01312
20181.81346
20181.60923
20181.40009
20181.18608
20180.96833
20180.75113
20180.64996
20180.62517
20180.63076
20180.72421
20180.787
20180.65774
20180.48427
20180.40553
20180.42232
20180.4588
20180.47472
20180.48166
20180.48227
20180.46192
20180.43473
20180.40249
20180.35743
20180.29876
20180.23429
20180.16096
20180.07683
20179.9795
20179.86299
20179.72433
20179.56953
20179.40778
20179.24869
20179.10207
20178.98102
20178.88184
20178.78691
20178.70681
20178.62674
20178.52531
20178.42758
20178.34124
20178.28969
20178.29456
20178.31106
20178.34973
20178.40441
20178.42153
20178.42734
20178.41433
20178.38433
20178.33573
20178.2817
20178.28777
20178.41919
20178.60483
20178.70476
20178.70028
20178.65851
20178.62686
20178.61375
20178.61215
20178.61764
20178.62935
20178.64493
20178.66006
20178.67237
20178.68203
20178.68879
20178.69087
20178.68942
20178.67397
20178.64486
20178.62714
20178.54875
20178.41241
20178.31876
20178.28343
20178.26173
20178.22855
20178.19032
20178.16542
20178.16975
20178.21264
20178.29742
20178.42324
20178.58662
20178.78262
20179.00561
20179.24971
20179.50909
20179.77815
20180.05156
20180.32433
20180.59185
20180.84997
20181.0951
20181.32427
20181.53527
20181.72657
20181.89738
20182.04757
20182.17759
20182.28849
20182.38187
20182.4598
20182.52441
20182.57811
20182.62299
20182.66071
20182.69289
20182.72027
20182.74381
20182.76377
20182.78042
20182.79385
20182.80388
20182.81042
20182.8132
20182.81193
20182.80638
20182.79634
20182.78168
20182.76242
20182.73871
20182.71088
20182.67938
20182.64482
20182.60782
20182.56912
20182.52935
20182.48915
20182.44904
20182.40946
20182.37076
20182.3332
20182.29698
20182.26226
20182.22919
20182.19784
20182.16829
20182.14057
20182.11466
20182.09049
20182.06797
20182.04695
20182.02727
20182.00876
20181.99125
20181.97458
20181.95857
20181.94307
20181.92796
20181.91318
20181.89866
20181.88441
20181.87034
20181.85639
20181.84239
20181.8282
20181.81361
20181.79833
20181.78238
20181.76464
20181.76464
20183.3833
20183.3833
20183.3642
20183.34695
20183.33426
20183.32604
20183.32278
20183.32536
20183.33389
20183.34701
20183.36232
20183.3775
20183.39118
20183.40302
20183.41308
20183.42126
20183.42771
20183.43281
20183.43723
20183.44056
20183.43936
20183.42071
20183.35639
20183.28635
20183.28755
20183.43902
20183.4476
20183.30736
20183.13367
20182.95537
20182.7742
20182.5898
20182.40196
20182.21049
20182.01519
20181.81572
20181.61163
20181.40245
20181.18791
20180.96881
20180.74887
20180.64581
20180.59425
20180.58595
20180.65777
20180.69406
20180.57428
20180.40855
20180.33023
20180.36193
20180.43958
20180.47644
20180.4869
20180.48523
20180.46255
20180.43651
20180.40366
20180.35639
20180.29584
20180.22853
20180.15337
20180.06784
20179.96846
20179.84921
20179.70775
20179.55069
20179.38799
20179.22844
20179.08269
20178.96862
20178.87477
20178.77668
20178.70833
20178.63298
20178.51678
20178.40753
20178.30786
20178.24158
20178.23151
20178.25383
20178.31632
20178.39061
20178.42322
20178.43452
20178.42482
20178.38989
20178.3188
20178.23649
20178.22431
20178.35075
20178.54547
20178.66252
20178.6696
20178.63511
20178.61068
20178.60588
20178.61058
20178.61879
20178.63077
20178.64571
20178.6601
20178.67209
20178.68202
20178.68969
20178.6916
20178.68963
20178.67986
20178.64585
20178.60898
20178.52548
20178.39419
20178.29024
20178.23243
20178.19288
20178.1538
20178.11909
20178.1022
20178.11555
20178.16672
20178.25845
20178.38985
20178.55759
20178.75697
20178.98254
20179.22861
20179.48954
20179.75985
20180.03436
20180.30817
20180.57673
20180.83592
20181.08214
20181.31242
20181.52452
20181.71691
20181.88881
20182.04006
20182.1711
20182.28293
20182.3771
20182.45562
20182.52067
20182.57471
20182.61981
20182.65774
20182.69007
20182.7176
20182.74127
20182.76134
20182.77808
20182.79161
20182.80171
20182.80835
20182.81123
20182.81008
20182.80463
20182.79472
20182.78015
20182.761
20182.73734
20182.70956
20182.67807
20182.64351
20182.60652
20182.56781
20182.52805
20182.48788
20182.44781
20182.40829
20182.36965
20182.33216
20182.29602
20182.26139
20182.22839
20182.19713
20182.16765
20182.14
20182.11415
20182.09004
20182.06758
20182.04662
20182.027
20182.00856
20181.99111
20181.97451
20181.95856
20181.94315
20181.9281
20181.91341
20181.89896
20181.88483
20181.87082
20181.85704
20181.84313
20181.82915
20181.81468
20181.79964
20181.78359
20181.76492
20181.76492
20183.36234
20183.36234
20183.35025
20183.33731
20183.32718
20183.3208
20183.31883
20183.32194
20183.33019
20183.34261
20183.35739
20183.37266
20183.38709
20183.40008
20183.41132
20183.42054
20183.42772
20183.43323
20183.43806
20183.44213
20183.44039
20183.4157
20183.34072
20183.28014
20183.28291
20183.36047
20183.3771
20183.28152
20183.12603
20182.95444
20182.77565
20182.59209
20182.40458
20182.21335
20182.01831
20181.81913
20181.6153
20181.40612
20181.19085
20180.96913
20180.73851
20180.61803
20180.55152
20180.53849
20180.59103
20180.60082
20180.48066
20180.32932
20180.25215
20180.29129
20180.40818
20180.48034
20180.50199
20180.49526
20180.46652
20180.43686
20180.39844
20180.34601
20180.28269
20180.21325
20180.13657
20180.04962
20179.94816
20179.82647
20179.68262
20179.52386
20179.36113
20179.20244
20179.05998
20178.9533
20178.8651
20178.76946
20178.70923
20178.63174
20178.50595
20178.38677
20178.27304
20178.18645
20178.15922
20178.17561
20178.24573
20178.34678
20178.41383
20178.44183
20178.43623
20178.39376
20178.3012
20178.19993
20178.17156
20178.28412
20178.47713
20178.60433
20178.62344
20178.59971
20178.58611
20178.59322
20178.6084
20178.62208
20178.63477
20178.64811
20178.66064
20178.67196
20178.68225
20178.69045
20178.69444
20178.68682
20178.6654
20178.61925
20178.55755
20178.46059
20178.3326
20178.22327
20178.14979
20178.09803
20178.05681
20178.02817
20178.02128
20178.04531
20178.10621
20178.20616
20178.34421
20178.51722
20178.7207
20178.94944
20179.19795
20179.4608
20179.7327
20180.00862
20180.2838
20180.55378
20180.81447
20181.06225
20181.29413
20181.50783
20181.70184
20181.87534
20182.02818
20182.16077
20182.27404
20182.36943
20182.44889
20182.51467
20182.56924
20182.61468
20182.65294
20182.68546
20182.71323
20182.73704
20182.75728
20182.7741
20182.78778
20182.79795
20182.80473
20182.80773
20182.80673
20182.80145
20182.79172
20182.77729
20182.75829
20182.73471
20182.70702
20182.67555
20182.641
20182.60399
20182.56529
20182.52552
20182.48539
20182.44536
20182.40594
20182.36739
20182.33004
20182.29403
20182.25956
20182.22671
20182.19561
20182.16627
20182.13876
20182.11303
20182.08905
20182.06668
20182.04582
20182.02628
20182.00793
20181.99056
20181.97407
20181.95821
20181.94293
20181.928
20181.91351
20181.89921
20181.88533
20181.87152
20181.85806
20181.8444
20181.83086
20181.81677
20181.80232
20181.78663
20181.76798
20181.76798
20183.34456
20183.34456
20183.33666
20183.32712
20183.31926
20183.31444
20183.31344
20183.31683
20183.32464
20183.33615
20183.35005
20183.36493
20183.37967
20183.39357
20183.40617
20183.41698
20183.42574
20183.43256
20183.43814
20183.44231
20183.43901
20183.41205
20183.33839
20183.29019
20183.29941
20183.34529
20183.3562
20183.27033
20183.12326
20182.95564
20182.7784
20182.59539
20182.40814
20182.21716
20182.02246
20181.82372
20181.62031
20181.41129
20181.19532
20180.97057
20180.72607
20180.58288
20180.50849
20180.49355
20180.53084
20180.51916
20180.39856
20180.26148
20180.1851
20180.22784
20180.37399
20180.48342
20180.52088
20180.50932
20180.4715
20180.43159
20180.38336
20180.32502
20180.25903
20180.18757
20180.10922
20180.02077
20179.91764
20179.79456
20179.64979
20179.49088
20179.3297
20179.17386
20179.03746
20178.93781
20178.85549
20178.76921
20178.71095
20178.62406
20178.4949
20178.36477
20178.23504
20178.12488
20178.08199
20178.08892
20178.15712
20178.27548
20178.38516
20178.43998
20178.441
20178.39617
20178.29518
20178.19036
20178.15056
20178.23912
20178.41375
20178.53621
20178.56321
20178.55361
20178.55575
20178.5778
20178.60574
20178.62662
20178.64054
20178.65167
20178.66151
20178.67173
20178.68304
20178.68949
20178.68512
20178.66396
20178.62259
20178.55685
20178.47277
20178.36468
20178.23994
20178.13012
20178.04918
20177.99144
20177.95076
20177.92854
20177.93112
20177.9653
20178.03565
20178.1438
20178.28867
20178.46722
20178.67511
20178.90729
20179.15848
20179.42345
20179.69713
20179.97468
20180.2515
20180.52322
20180.78579
20181.03557
20181.26953
20181.48532
20181.68141
20181.857
20182.01195
20182.14661
20182.26185
20182.35897
20182.4398
20182.50662
20182.5619
20182.60783
20182.64649
20182.67923
20182.70726
20182.73115
20182.75155
20182.76842
20182.78221
20182.79243
20182.79935
20182.8025
20182.8017
20182.79665
20182.78719
20182.77298
20182.75424
20182.73083
20182.70329
20182.67189
20182.63741
20182.6004
20182.56172
20182.52196
20182.48188
20182.4419
20182.40258
20182.36415
20182.32696
20182.29112
20182.25685
20182.22419
20182.1933
20182.16416
20182.13687
20182.11132
20182.08752
20182.0653
20182.04458
20182.02516
20182.00692
20181.98965
20181.97327
20181.95752
20181.94242
20181.92766
20181.91343
20181.89939
20181.88586
20181.87239
20181.85938
20181.84621
20181.8333
20181.81994
20181.80648
20181.79201
20181.77553
20181.77553
20183.32885
20183.32885
20183.32356
20183.31662
20183.31071
20183.30725
20183.30705
20183.31061
20183.31795
20183.32855
20183.34145
20183.35559
20183.37009
20183.38432
20183.39781
20183.41006
20183.42065
20183.42932
20183.4361
20183.44002
20183.4353
20183.41011
20183.34825
20183.31266
20183.32796
20183.36512
20183.36692
20183.27344
20183.12652
20182.95965
20182.78272
20182.5998
20182.41265
20182.22191
20182.02764
20181.82948
20181.62671
20181.41815
20181.20188
20180.97484
20180.71754
20180.5523
20180.47292
20180.4571
20180.48277
20180.45643
20180.33765
20180.2111
20180.13614
20180.18058
20180.34356
20180.48016
20180.5319
20180.51701
20180.46928
20180.41588
20180.35751
20180.29364
20180.22435
20180.15028
20180.06985
20179.9799
20179.87583
20179.75293
20179.60956
20179.45282
20179.29535
20179.14503
20179.01658
20178.92383
20178.84736
20178.77057
20178.70905
20178.61282
20178.48017
20178.33605
20178.18003
20178.04922
20177.99586
20177.99133
20178.05876
20178.1893
20178.33778
20178.42674
20178.44089
20178.40147
20178.30867
20178.21159
20178.16436
20178.22136
20178.36048
20178.46244
20178.49137
20178.49861
20178.52145
20178.56124
20178.60244
20178.63089
20178.64656
20178.65555
20178.66265
20178.67153
20178.67876
20178.67585
20178.65555
20178.61396
20178.55076
20178.46676
20178.36715
20178.25259
20178.13103
20178.02286
20177.93913
20177.87897
20177.83988
20177.82338
20177.83419
20177.87742
20177.95651
20178.07252
20178.22417
20178.40837
20178.62084
20178.85665
20179.11068
20179.37791
20179.65349
20179.9328
20180.21144
20180.48517
20180.74999
20181.00221
20181.2387
20181.45704
20181.65565
20181.83375
20181.99123
20182.12847
20182.24623
20182.34565
20182.4284
20182.49667
20182.55295
20182.59957
20182.63869
20182.67168
20182.69994
20182.72386
20182.74435
20182.76118
20182.775
20182.78523
20182.79223
20182.79554
20182.79493
20182.79018
20182.78105
20182.7672
20182.74882
20182.72568
20182.69842
20182.66718
20182.63282
20182.59588
20182.55727
20182.51753
20182.47752
20182.43762
20182.39842
20182.36013
20182.32312
20182.28747
20182.25342
20182.22098
20182.19033
20182.16143
20182.13438
20182.10907
20182.0855
20182.06349
20182.04295
20182.02369
20182.0056
20181.98845
20181.97219
20181.95659
20181.94165
20181.92712
20181.91316
20181.89947
20181.88632
20181.87334
20181.86085
20181.84837
20181.83624
20181.82393
20181.8118
20181.79934
20181.78666
20181.78666
20183.31452
20183.31452
20183.31093
20183.30596
20183.30168
20183.29938
20183.29986
20183.30355
20183.3105
20183.3203
20183.33225
20183.34553
20183.35946
20183.37352
20183.38731
20183.40041
20183.41239
20183.42278
20183.43091
20183.43496
20183.42958
20183.40839
20183.36438
20183.34254
20183.36155
20183.399
20183.39424
20183.28775
20183.13558
20182.96659
20182.78869
20182.60532
20182.41808
20182.22757
20182.03381
20181.83642
20181.63457
20181.4269
20181.21103
20180.98337
20180.71681
20180.53273
20180.44892
20180.43249
20180.45008
20180.41541
20180.30064
20180.18287
20180.11083
20180.1543
20180.32001
20180.46614
20180.52633
20180.50906
20180.45264
20180.38767
20180.32092
20180.25127
20180.17764
20180.10009
20180.01703
20179.92562
20179.8215
20179.70047
20179.56119
20179.40954
20179.25831
20179.11607
20178.99676
20178.91075
20178.83909
20178.76726
20178.69925
20178.59669
20178.45768
20178.29688
20178.10345
20177.95961
20177.89967
20177.88362
20177.95606
20178.1
20178.28127
20178.41025
20178.44566
20178.41736
20178.34426
20178.25893
20178.2048
20178.22543
20178.3157
20178.38448
20178.41126
20178.43802
20178.48538
20178.54454
20178.5983
20178.63382
20178.65177
20178.6591
20178.66296
20178.66636
20178.66294
20178.64343
20178.60285
20178.54072
20178.45927
20178.36149
20178.25197
20178.13382
20178.01456
20177.90813
20177.82354
20177.76261
20177.72534
20177.7137
20177.73149
20177.78266
20177.86975
20177.99324
20178.15155
20178.34146
20178.55863
20178.7982
20179.05517
20179.3247
20179.60219
20179.8833
20180.16385
20180.4398
20180.70718
20180.96228
20181.20181
20181.4232
20181.62475
20181.80568
20181.96598
20182.10612
20182.22685
20182.32916
20182.41447
20182.48477
20182.54251
20182.59011
20182.62985
20182.66317
20182.6916
20182.7155
20182.73594
20182.75263
20182.76631
20182.77649
20182.78344
20182.78689
20182.78642
20182.78204
20182.77328
20182.75988
20182.74198
20182.71926
20182.69238
20182.66143
20182.62727
20182.59048
20182.55197
20182.51231
20182.4724
20182.4326
20182.39354
20182.35543
20182.31862
20182.28319
20182.24939
20182.2172
20182.18681
20182.15819
20182.13141
20182.10637
20182.08305
20182.06129
20182.04097
20182.02191
20182.00399
20181.98701
20181.97089
20181.95547
20181.94069
20181.92643
20181.91273
20181.89943
20181.88668
20181.87427
20181.86235
20181.85066
20181.83939
20181.82829
20181.81768
20181.80758
20181.79906
20181.79906
20183.30112
20183.30112
20183.29868
20183.2952
20183.29224
20183.29092
20183.29198
20183.2958
20183.30243
20183.31158
20183.3227
20183.33517
20183.34842
20183.36204
20183.3757
20183.38907
20183.4018
20183.41334
20183.42265
20183.42755
20183.42256
20183.40718
20183.38084
20183.37268
20183.39619
20183.4368
20183.42847
20183.30978
20183.14942
20182.97615
20182.79617
20182.61184
20182.42433
20182.23405
20182.04093
20181.8445
20181.6439
20181.43765
20181.22311
20180.99698
20180.72576
20180.52689
20180.43833
20180.42125
20180.43416
20180.3968
20180.28875
20180.18041
20180.11283
20180.15138
20180.30484
20180.44181
20180.50242
20180.48269
20180.42001
20180.34716
20180.27345
20180.19708
20180.11809
20180.03603
20179.94978
20179.85682
20179.75346
20179.63582
20179.50305
20179.35954
20179.21721
20179.08512
20178.97552
20178.89572
20178.82749
20178.75698
20178.68214
20178.5751
20178.42905
20178.24859