# vtk DataFile Version 2.0
FlowField
ASCII
DATASET STRUCTURED_GRID
DIMENSIONS 200 1 200
POINTS 40000 float
0 0 0
0.15 0 0
0.3 0 0
0.45 0 0
0.6 0 0
0.75 0 0
0.9 0 0
1.05 0 0
1.2 0 0
1.35 0 0
1.5 0 0
1.65 0 0
1.8 0 0
1.95 0 0
2.1 0 0
2.25 0 0
2.4 0 0
2.55 0 0
2.7 0 0
2.85 0 0
3 0 0
3.15 0 0
3.3 0 0
3.45 0 0
3.6 0 0
3.75 0 0
3.9 0 0
4.05 0 0
4.2 0 0
4.35 0 0
4.5 0 0
4.65 0 0
4.8 0 0
4.95 0 0
5.1 0 0
5.25 0 0
5.4 0 0
5.55 0 0
5.7 0 0
5.85 0 0
6 0 0
6.15 0 0
6.3 0 0
6.45 0 0
6.6 0 0
6.75 0 0
6.9 0 0
7.05 0 0
7.2 0 0
7.35 0 0
7.5 0 0
7.65 0 0
7.8 0 0
7.95 0 0
8.1 0 0
8.25 0 0
8.4 0 0
8.55 0 0
8.7 0 0
8.85 0 0
9 0 0
9.15 0 0
9.3 0 0
9.45 0 0
9.6 0 0
9.75 0 0
9.9 0 0
10.05 0 0
10.2 0 0
10.35 0 0
10.5 0 0
10.65 0 0
10.8 0 0
10.95 0 0
11.1 0 0
11.25 0 0
11.4 0 0
11.55 0 0
11.7 0 0
11.85 0 0
12 0 0
12.15 0 0
12.3 0 0
12.45 0 0
12.6 0 0
12.75 0 0
12.9 0 0
13.05 0 0
13.2 0 0
13.35 0 0
13.5 0 0
13.65 0 0
13.8 0 0
13.95 0 0
14.1 0 0
14.25 0 0
14.4 0 0
14.55 0 0
14.7 0 0
14.85 0 0
15 0 0
15.15 0 0
15.3 0 0
15.45 0 0
15.6 0 0
15.75 0 0
15.9 0 0
16.05 0 0
16.2 0 0
16.35 0 0
16.5 0 0
16.65 0 0
16.8 0 0
16.95 0 0
17.1 0 0
17.25 0 0
17.4 0 0
17.55 0 0
17.7 0 0
17.85 0 0
18 0 0
18.15 0 0
18.3 0 0
18.45 0 0
18.6 0 0
18.75 0 0
18.9 0 0
19.05 0 0
19.2 0 0
19.35 0 0
19.5 0 0
19.65 0 0
19.8 0 0
19.95 0 0
20.1 0 0
20.25 0 0
20.4 0 0
20.55 0 0
20.7 0 0
20.85 0 0
21 0 0
21.15 0 0
21.3 0 0
21.45 0 0
21.6 0 0
21.75 0 0
21.9 0 0
22.05 0 0
22.2 0 0
22.35 0 0
22.5 0 0
22.65 0 0
22.8 0 0
22.95 0 0
23.1 0 0
23.25 0 0
23.4 0 0
23.55 0 0
23.7 0 0
23.85 0 0
24 0 0
24.15 0 0
24.3 0 0
24.45 0 0
24.6 0 0
24.75 0 0
24.9 0 0
25.05 0 0
25.2 0 0
25.35 0 0
25.5 0 0
25.65 0 0
25.8 0 0
25.95 0 0
26.1 0 0
26.25 0 0
26.4 0 0
26.55 0 0
26.7 0 0
26.85 0 0
27 0 0
27.15 0 0
27.3 0 0
27.45 0 0
27.6 0 0
27.75 0 0
27.9 0 0
28.05 0 0
28.2 0 0
28.35 0 0
28.5 0 0
28.65 0 0
28.8 0 0
28.95 0 0
29.1 0 0
29.25 0 0
29.4 0 0
29.55 0 0
29.7 0 0
29.85 0 0
0 0.075 0
0.15 0.075 0
0.3 0.075 0
0.45 0.075 0
0.6 0.075 0
0.75 0.075 0
0.9 0.075 0
1.05 0.075 0
1.2 0.075 0
1.35 0.075 0
1.5 0.075 0
1.65 0.075 0
1.8 0.075 0
1.95 0.075 0
2.1 0.075 0
2.25 0.075 0
2.4 0.075 0
2.55 0.075 0
2.7 0.075 0
2.85 0.075 0
3 0.075 0
3.15 0.075 0
3.3 0.075 0
3.45 0.075 0
3.6 0.075 0
3.75 0.075 0
3.9 0.075 0
4.05 0.075 0
4.2 0.075 0
4.35 0.075 0
4.5 0.075 0
4.65 0.075 0
4.8 0.075 0
4.95 0.075 0
5.1 0.075 0
5.25 0.075 0
5.4 0.075 0
5.55 0.075 0
5.7 0.075 0
5.85 0.075 0
6 0.075 0
6.15 0.075 0
6.3 0.075 0
6.45 0.075 0
6.6 0.075 0
6.75 0.075 0
6.9 0.075 0
7.05 0.075 0
7.2 0.075 0
7.35 0.075 0
7.5 0.075 0
7.65 0.075 0
7.8 0.075 0
7.95 0.075 0
8.1 0.075 0
8.25 0.075 0
8.4 0.075 0
8.55 0.075 0
8.7 0.075 0
8.85 0.075 0
9 0.075 0
9.15 0.075 0
9.3 0.075 0
9.45 0.075 0
9.6 0.075 0
9.75 0.075 0
9.9 0.075 0
10.05 0.075 0
10.2 0.075 0
10.35 0.075 0
10.5 0.075 0
10.65 0.075 0
10.8 0.075 0
10.95 0.075 0
11.1 0.075 0
11.25 0.075 0
11.4 0.075 0
11.55 0.075 0
11.7 0.075 0
11.85 0.075 0
12 0.075 0
12.15 0.075 0
12.3 0.075 0
12.45 0.075 0
12.6 0.075 0
12.75 0.075 0
12.9 0.075 0
13.05 0.075 0
13.2 0.075 0
13.35 0.075 0
13.5 0.075 0
13.65 0.075 0
13.8 0.075 0
13.95 0.075 0
14.1 0.075 0
14.25 0.075 0
14.4 0.075 0
14.55 0.075 0
14.7 0.075 0
14.85 0.075 0
15 0.075 0
15.15 0.075 0
15.3 0.075 0
15.45 0.075 0
15.6 0.075 0
15.75 0.075 0
15.9 0.075 0
16.05 0.075 0
16.2 0.075 0
16.35 0.075 0
16.5 0.075 0
16.65 0.075 0
16.8 0.075 0
16.95 0.075 0
17.1 0.075 0
17.25 0.075 0
17.4 0.075 0
17.55 0.075 0
17.7 0.075 0
17.85 0.075 0
18 0.075 0
18.15 0.075 0
18.3 0.075 0
18.45 0.075 0
18.6 0.075 0
18.75 0.075 0
18.9 0.075 0
19.05 0.075 0
19.2 0.075 0
19.35 0.075 0
19.5 0.075 0
19.65 0.075 0
19.8 0.075 0
19.95 0.075 0
20.1 0.075 0
20.25 0.075 0
20.4 0.075 0
20.55 0.075 0
20.7 0.075 0
20.85 0.075 0
21 0.075 0
21.15 0.075 0
21.3 0.075 0
21.45 0.075 0
21.6 0.075 0
21.75 0.075 0
21.9 0.075 0
22.05 0.075 0
22.2 0.075 0
22.35 0.075 0
22.5 0.075 0
22.65 0.075 0
22.8 0.075 0
22.95 0.075 0
23.1 0.075 0
23.25 0.075 0
23.4 0.075 0
23.55 0.075 0
23.7 0.075 0
23.85 0.075 0
24 0.075 0
24.15 0.075 0
24.3 0.075 0
24.45 0.075 0
24.6 0.075 0
24.75 0.075 0
24.9 0.075 0
25.05 0.075 0
25.2 0.075 0
25.35 0.075 0
25.5 0.075 0
25.65 0.075 0
25.8 0.075 0
25.95 0.075 0
26.1 0.075 0
26.25 0.075 0
26.4 0.075 0
26.55 0.075 0
26.7 0.075 0
26.85 0.075 0
27 0.075 0
27.15 0.075 0
27.3 0.075 0
27.45 0.075 0
27.6 0.075 0
27.75 0.075 0
27.9 0.075 0
28.05 0.075 0
28.2 0.075 0
28.35 0.075 0
28.5 0.075 0
28.65 0.075 0
28.8 0.075 0
28.95 0.075 0
29.1 0.075 0
29.25 0.075 0
29.4 0.075 0
29.55 0.075 0
29.7 0.075 0
29.85 0.075 0
0 0.15 0
0.15 0.15 0
0.3 0.15 0
0.45 0.15 0
0.6 0.15 0
0.75 0.15 0
0.9 0.15 0
1.05 0.15 0
1.2 0.15 0
1.35 0.15 0
1.5 0.15 0
1.65 0.15 0
1.8 0.15 0
1.95 0.15 0
2.1 0.15 0
2.25 0.15 0
2.4 0.15 0
2.55 0.15 0
2.7 0.15 0
2.85 0.15 0
3 0.15 0
3.15 0.15 0
3.3 0.15 0
3.45 0.15 0
3.6 0.15 0
3.75 0.15 0
3.9 0.15 0
4.05 0.15 0
4.2 0.15 0
4.35 0.15 0
4.5 0.15 0
4.65 0.15 0
4.8 0.15 0
4.95 0.15 0
5.1 0.15 0
5.25 0.15 0
5.4 0.15 0
5.55 0.15 0
5.7 0.15 0
5.85 0.15 0
6 0.15 0
6.15 0.15 0
6.3 0.15 0
6.45 0.15 0
6.6 0.15 0
6.75 0.15 0
6.9 0.15 0
7.05 0.15 0
7.2 0.15 0
7.35 0.15 0
7.5 0.15 0
7.65 0.15 0
7.8 0.15 0
7.95 0.15 0
8.1 0.15 0
8.25 0.15 0
8.4 0.15 0
8.55 0.15 0
8.7 0.15 0
8.85 0.15 0
9 0.15 0
9.15 0.15 0
9.3 0.15 0
9.45 0.15 0
9.6 0.15 0
9.75 0.15 0
9.9 0.15 0
10.05 0.15 0
10.2 0.15 0
10.35 0.15 0
10.5 0.15 0
10.65 0.15 0
10.8 0.15 0
10.95 0.15 0
11.1 0.15 0
11.25 0.15 0
11.4 0.15 0
11.55 0.15 0
11.7 0.15 0
11.85 0.15 0
12 0.15 0
12.15 0.15 0
12.3 0.15 0
12.45 0.15 0
12.6 0.15 0
12.75 0.15 0
12.9 0.15 0
13.05 0.15 0
13.2 0.15 0
13.35 0.15 0
13.5 0.15 0
13.65 0.15 0
13.8 0.15 0
13.95 0.15 0
14.1 0.15 0
14.25 0.15 0
14.4 0.15 0
14.55 0.15 0
14.7 0.15 0
14.85 0.15 0
15 0.15 0
15.15 0.15 0
15.3 0.15 0
15.45 0.15 0
15.6 0.15 0
15.75 0.15 0
15.9 0.15 0
16.05 0.15 0
16.2 0.15 0
16.35 0.15 0
16.5 0.15 0
16.65 0.15 0
16.8 0.15 0
16.95 0.15 0
17.1 0.15 0
17.25 0.15 0
17.4 0.15 0
17.55 0.15 0
17.7 0.15 0
17.85 0.15 0
18 0.15 0
18.15 0.15 0
18.3 0.15 0
18.45 0.15 0
18.6 0.15 0
18.75 0.15 0
18.9 0.15 0
19.05 0.15 0
19.2 0.15 0
19.35 0.15 0
19.5 0.15 0
19.65 0.15 0
19.8 0.15 0
19.95 0.15 0
20.1 0.15 0
20.25 0.15 0
20.4 0.15 0
20.55 0.15 0
20.7 0.15 0
20.85 0.15 0
21 0.15 0
21.15 0.15 0
21.3 0.15 0
21.45 0.15 0
21.6 0.15 0
21.75 0.15 0
21.9 0.15 0
22.05 0.15 0
22.2 0.15 0
22.35 0.15 0
22.5 0.15 0
22.65 0.15 0
22.8 0.15 0
22.95 0.15 0
23.1 0.15 0
23.25 0.15 0
23.4 0.15 0
23.55 0.15 0
23.7 0.15 0
23.85 0.15 0
24 0.15 0
24.15 0.15 0
24.3 0.15 0
24.45 0.15 0
24.6 0.15 0
24.75 0.15 0
24.9 0.15 0
25.05 0.15 0
25.2 0.15 0
25.35 0.15 0
25.5 0.15 0
25.65 0.15 0
25.8 0.15 0
25.95 0.15 0
26.1 0.15 0
26.25 0.15 0
26.4 0.15 0
26.55 0.15 0
26.7 0.15 0
26.85 0.15 0
27 0.15 0
27.15 0.15 0
27.3 0.15 0
27.45 0.15 0
27.6 0.15 0
27.75 0.15 0
27.9 0.15 0
28.05 0.15 0
28.2 0.15 0
28.35 0.15 0
28.5 0.15 0
28.65 0.15 0
28.8 0.15 0
28.95 0.15 0
29.1 0.15 0
29.25 0.15 0
29.4 0.15 0
29.55 0.15 0
29.7 0.15 0
29.85 0.15 0
0 0.225 0
0.15 0.225 0
0.3 0.225 0
0.45 0.225 0
0.6 0.225 0
0.75 0.225 0
0.9 0.225 0
1.05 0.225 0
1.2 0.225 0
1.35 0.225 0
1.5 0.225 0
1.65 0.225 0
1.8 0.225 0
1.95 0.225 0
2.1 0.225 0
2.25 0.225 0
2.4 0.225 0
2.55 0.225 0
2.7 0.225 0
2.85 0.225 0
3 0.225 0
3.15 0.225 0
3.3 0.225 0
3.45 0.225 0
3.6 0.225 0
3.75 0.225 0
3.9 0.225 0
4.05 0.225 0
4.2 0.225 0
4.35 0.225 0
4.5 0.225 0
4.65 0.225 0
4.8 0.225 0
4.95 0.225 0
5.1 0.225 0
5.25 0.225 0
5.4 0.225 0
5.55 0.225 0
5.7 0.225 0
5.85 0.225 0
6 0.225 0
6.15 0.225 0
6.3 0.225 0
6.45 0.225 0
6.6 0.225 0
6.75 0.225 0
6.9 0.225 0
7.05 0.225 0
7.2 0.225 0
7.35 0.225 0
7.5 0.225 0
7.65 0.225 0
7.8 0.225 0
7.95 0.225 0
8.1 0.225 0
8.25 0.225 0
8.4 0.225 0
8.55 0.225 0
8.7 0.225 0
8.85 0.225 0
9 0.225 0
9.15 0.225 0
9.3 0.225 0
9.45 0.225 0
9.6 0.225 0
9.75 0.225 0
9.9 0.225 0
10.05 0.225 0
10.2 0.225 0
10.35 0.225 0
10.5 0.225 0
10.65 0.225 0
10.8 0.225 0
10.95 0.225 0
11.1 0.225 0
11.25 0.225 0
11.4 0.225 0
11.55 0.225 0
11.7 0.225 0
11.85 0.225 0
12 0.225 0
12.15 0.225 0
12.3 0.225 0
12.45 0.225 0
12.6 0.225 0
12.75 0.225 0
12.9 0.225 0
13.05 0.225 0
13.2 0.225 0
13.35 0.225 0
13.5 0.225 0
13.65 0.225 0
13.8 0.225 0
13.95 0.225 0
14.1 0.225 0
14.25 0.225 0
14.4 0.225 0
14.55 0.225 0
14.7 0.225 0
14.85 0.225 0
15 0.225 0
15.15 0.225 0
15.3 0.225 0
15.45 0.225 0
15.6 0.225 0
15.75 0.225 0
15.9 0.225 0
16.05 0.225 0
16.2 0.225 0
16.35 0.225 0
16.5 0.225 0
16.65 0.225 0
16.8 0.225 0
16.95 0.225 0
17.1 0.225 0
17.25 0.225 0
17.4 0.225 0
17.55 0.225 0
17.7 0.225 0
17.85 0.225 0
18 0.225 0
18.15 0.225 0
18.3 0.225 0
18.45 0.225 0
18.6 0.225 0
18.75 0.225 0
18.9 0.225 0
19.05 0.225 0
19.2 0.225 0
19.35 0.225 0
19.5 0.225 0
19.65 0.225 0
19.8 0.225 0
19.95 0.225 0
20.1 0.225 0
20.25 0.225 0
20.4 0.225 0
20.55 0.225 0
20.7 0.225 0
20.85 0.225 0
21 0.225 0
21.15 0.225 0
21.3 0.225 0
21.45 0.225 0
21.6 0.225 0
21.75 0.225 0
21.9 0.225 0
22.05 0.225 0
22.2 0.225 0
22.35 0.225 0
22.5 0.225 0
22.65 0.225 0
22.8 0.225 0
22.95 0.225 0
23.1 0.225 0
23.25 0.225 0
23.4 0.225 0
23.55 0.225 0
23.7 0.225 0
23.85 0.225 0
24 0.225 0
24.15 0.225 0
24.3 0.225 0
24.45 0.225 0
24.6 0.225 0
24.75 0.225 0
24.9 0.225 0
25.05 0.225 0
25.2 0.225 0
25.35 0.225 0
25.5 0.225 0
25.65 0.225 0
25.8 0.225 0
25.95 0.225 0
26.1 0.225 0
26.25 0.225 0
26.4 0.225 0
26.55 0.225 0
26.7 0.225 0
26.85 0.225 0
27 0.225 0
27.15 0.225 0
27.3 0.225 0
27.45 0.225 0
27.6 0.225 0
27.75 0.225 0
27.9 0.225 0
28.05 0.225 0
28.2 0.225 0
28.35 0.225 0
28.5 0.225 0
28.65 0.225 0
28.8 0.225 0
28.95 0.225 0
29.1 0.225 0
29.25 0.225 0
29.4 0.225 0
29.55 0.225 0
29.7 0.225 0
29.85 0.225 0
0 0.3 0
0.15 0.3 0
0.3 0.3 0
0.45 0.3 0
0.6 0.3 0
0.75 0.3 0
0.9 0.3 0
1.05 0.3 0
1.2 0.3 0
1.35 0.3 0
1.5 0.3 0
1.65 0.3 0
1.8 0.3 0
1.95 0.3 0
2.1 0.3 0
2.25 0.3 0
2.4 0.3 0
2.55 0.3 0
2.7 0.3 0
2.85 0.3 0
3 0.3 0
3.15 0.3 0
3.3 0.3 0
3.45 0.3 0
3.6 0.3 0
3.75 0.3 0
3.9 0.3 0
4.05 0.3 0
4.2 0.3 0
4.35 0.3 0
4.5 0.3 0
4.65 0.3 0
4.8 0.3 0
4.95 0.3 0
5.1 0.3 0
5.25 0.3 0
5.4 0.3 0
5.55 0.3 0
5.7 0.3 0
5.85 0.3 0
6 0.3 0
6.15 0.3 0
[...]
POINT_DATA 40000

SCALARS p float 1
LOOKUP_TABLE default
20179.20285
20179.20285
20179.14691
20179.11829
20179.09891
20179.08516
20179.07739
20179.07674
20179.08318
20179.095
20179.1098
20179.12563
20179.14146
20179.15688
20179.17177
20179.186
20179.19942
20179.21207
20179.22418
20179.23612
20179.24782
20179.25799
20179.26509
20179.26825
20179.28259
20179.491
20179.40736
20179.11342
20178.87144
20178.63715
20178.40076
20178.15999
20177.91414
20177.66267
20177.40476
20177.13919
20176.86421
20176.57754
20176.27675
20175.9616
20175.64478
20175.48429
20175.53833
20175.58961
20175.38938
20175.21863
20175.16508
20175.14922
20175.14584
20175.11504
20175.03652
20174.9325
20174.82706
20174.71158
20174.58554
20174.47012
20174.39082
20174.36629
20174.40428
20174.5024
20174.65229
20174.84187
20175.05752
20175.28675
20175.51952
20175.74824
20175.9671
20176.17299
20176.36366
20176.53808
20176.69577
20176.8367
20176.96118
20177.06981
20177.16348
20177.2433
20177.31054
20177.36658
20177.41283
20177.45063
20177.48128
20177.50594
20177.52562
20177.54121
20177.55348
20177.56306
20177.57047
20177.57615
20177.58044
20177.58364
20177.58598
20177.58763
20177.58876
20177.58947
20177.58987
20177.59002
20177.58999
20177.58982
20177.58954
20177.58919
20177.5888
20177.58837
20177.58792
20177.58746
20177.58699
20177.58653
20177.58608
20177.58564
20177.58521
20177.5848
20177.5844
20177.58401
20177.58364
20177.58328
20177.58293
20177.5826
20177.58227
20177.58196
20177.58166
20177.58137
20177.58108
20177.5808
20177.58053
20177.58026
20177.58
20177.57974
20177.57949
20177.57924
20177.57899
20177.57874
20177.57849
20177.57825
20177.578
20177.57776
20177.57751
20177.57726
20177.57702
20177.57677
20177.57652
20177.57626
20177.57601
20177.57576
20177.5755
20177.57524
20177.57498
20177.57471
20177.57445
20177.57418
20177.57391
20177.57364
20177.57336
20177.57309
20177.57281
20177.57253
20177.57224
20177.57196
20177.57167
20177.57138
20177.57109
20177.5708
20177.5705
20177.57021
20177.56991
20177.56961
20177.56931
20177.56901
20177.56871
20177.56841
20177.56811
20177.5678
20177.5675
20177.5672
20177.56689
20177.56659
20177.56628
20177.56598
20177.56568
20177.56538
20177.56507
20177.56477
20177.56447
20177.56418
20177.56388
20177.56359
20177.56329
20177.56301
20177.56272
20177.56243
20177.56215
20177.56187
20177.5616
20177.56133
20177.56106
20177.5608
20177.56055
20177.56029
20177.56005
20177.55981
20177.5596
20177.5596
20179.20285
20179.20285
20179.14691
20179.11829
20179.09891
20179.08516
20179.07739
20179.07674
20179.08318
20179.095
20179.1098
20179.12563
20179.14146
20179.15688
20179.17177
20179.186
20179.19942
20179.21207
20179.22418
20179.23612
20179.24782
20179.25799
20179.26509
20179.26825
20179.28259
20179.491
20179.40736
20179.11342
20178.87144
20178.63715
20178.40076
20178.15999
20177.91414
20177.66267
20177.40476
20177.13919
20176.86421
20176.57754
20176.27675
20175.9616
20175.64478
20175.48429
20175.53833
20175.58961
20175.38938
20175.21863
20175.16508
20175.14922
20175.14584
20175.11504
20175.03652
20174.9325
20174.82706
20174.71158
20174.58554
20174.47012
20174.39082
20174.36629
20174.40428
20174.5024
20174.65229
20174.84187
20175.05752
20175.28675
20175.51952
20175.74824
20175.9671
20176.17299
20176.36366
20176.53808
20176.69577
20176.8367
20176.96118
20177.06981
20177.16348
20177.2433
20177.31054
20177.36658
20177.41283
20177.45063
20177.48128
20177.50594
20177.52562
20177.54121
20177.55348
20177.56306
20177.57047
20177.57615
20177.58044
20177.58364
20177.58598
20177.58763
20177.58876
20177.58947
20177.58987
20177.59002
20177.58999
20177.58982
20177.58954
20177.58919
20177.5888
20177.58837
20177.58792
20177.58746
20177.58699
20177.58653
20177.58608
20177.58564
20177.58521
20177.5848
20177.5844
20177.58401
20177.58364
20177.58328
20177.58293
20177.5826
20177.58227
20177.58196
20177.58166
20177.58137
20177.58108
20177.5808
20177.58053
20177.58026
20177.58
20177.57974
20177.57949
20177.57924
20177.57899
20177.57874
20177.57849
20177.57825
20177.578
20177.57776
20177.57751
20177.57726
20177.57702
20177.57677
20177.57652
20177.57626
20177.57601
20177.57576
20177.5755
20177.57524
20177.57498
20177.57471
20177.57445
20177.57418
20177.57391
20177.57364
20177.57336
20177.57309
20177.57281
20177.57253
20177.57224
20177.57196
20177.57167
20177.57138
20177.57109
20177.5708
20177.5705
20177.57021
20177.56991
20177.56961
20177.56931
20177.56901
20177.56871
20177.56841
20177.56811
20177.5678
20177.5675
20177.5672
20177.56689
20177.56659
20177.56628
20177.56598
20177.56568
20177.56538
20177.56507
20177.56477
20177.56447
20177.56418
20177.56388
20177.56359
20177.56329
20177.56301
20177.56272
20177.56243
20177.56215
20177.56187
20177.5616
20177.56133
20177.56106
20177.5608
20177.56055
20177.56029
20177.56005
20177.55981
20177.5596
20177.5596
20179.17042
20179.17042
20179.13808
20179.11414
20179.09684
20179.08465
20179.07801
20179.07794
20179.08446
20179.0961
20179.11068
20179.12638
20179.14215
20179.15757
20179.17247
20179.18671
20179.20011
20179.21266
20179.22464
20179.23647
20179.24829
20179.2591
20179.26584
20179.2584
20179.2271
20179.37025
20179.33475
20179.10081
20178.86964
20178.63769
20178.40184
20178.16124
20177.91553
20177.66425
20177.40664
20177.14149
20176.86707
20176.58099
20176.28025
20175.96197
20175.62637
20175.45447
20175.47042
20175.5122
20175.33489
20175.18297
20175.15179
20175.15269
20175.15247
20175.12106
20175.04526
20174.93694
20174.81921
20174.69249
20174.56049
20174.44368
20174.36562
20174.34348
20174.38425
20174.48525
20174.63794
20174.82998
20175.04774
20175.27879
20175.51306
20175.74286
20175.96267
20176.16927
20176.36056
20176.53553
20176.69372
20176.83511
20176.96
20177.06899
20177.16295
20177.243
20177.3104
20177.36654
20177.41285
20177.45069
20177.48135
20177.506
20177.52567
20177.54125
20177.5535
20177.56306
20177.57046
20177.57612
20177.58041
20177.5836
20177.58593
20177.58758
20177.58871
20177.58942
20177.58981
20177.58996
20177.58993
20177.58976
20177.58949
20177.58914
20177.58875
20177.58832
20177.58787
20177.58741
20177.58695
20177.58649
20177.58604
20177.5856
20177.58517
20177.58476
20177.58436
20177.58398
20177.5836
20177.58325
20177.5829
20177.58257
20177.58225
20177.58194
20177.58164
20177.58134
20177.58106
20177.58078
20177.58051
20177.58024
20177.57998
20177.57973
20177.57947
20177.57922
20177.57897
20177.57872
20177.57848
20177.57823
20177.57799
20177.57774
20177.5775
20177.57725
20177.577
20177.57675
20177.5765
20177.57625
20177.576
20177.57574
20177.57549
20177.57523
20177.57497
20177.5747
20177.57444
20177.57417
20177.5739
20177.57363
20177.57335
20177.57308
20177.5728
20177.57252
20177.57224
20177.57195
20177.57166
20177.57137
20177.57108
20177.57079
20177.5705
20177.5702
20177.56991
20177.56961
20177.56931
20177.56901
20177.56871
20177.5684
20177.5681
20177.5678
20177.56749
20177.56719
20177.56689
20177.56658
20177.56628
20177.56598
20177.56567
20177.56537
20177.56507
20177.56477
20177.56447
20177.56417
20177.56388
20177.56358
20177.56329
20177.563
20177.56271
20177.56243
20177.56215
20177.56187
20177.56159
20177.56132
20177.56106
20177.5608
20177.56054
20177.56029
20177.56005
20177.5598
20177.5596
20177.5596
20179.14505
20179.14505
20179.12527
20179.10674
20179.09238
20179.08232
20179.07719
20179.07778
20179.08416
20179.09528
20179.1094
20179.12495
20179.14085
20179.15656
20179.1718
20179.18633
20179.19992
20179.21258
20179.2246
20179.23653
20179.24868
20179.26023
20179.26585
20179.24981
20179.19649
20179.27208
20179.26905
20179.08751
20178.86826
20178.63925
20178.40413
20178.16377
20177.9183
20177.66741
20177.41041
20177.14613
20176.87286
20176.58811
20176.28803
20175.96586
20175.59893
20175.37764
20175.37686
20175.4223
20175.26718
20175.13436
20175.13039
20175.15756
20175.16232
20175.12203
20175.03723
20174.91721
20174.78176
20174.63978
20174.50082
20174.38411
20174.31022
20174.29402
20174.34127
20174.4489
20174.60786
20174.80541
20175.02791
20175.26295
20175.50037
20175.73252
20175.95424
20176.16229
20176.35481
20176.53084
20176.69001
20176.83229
20176.95798
20177.06764
20177.16214
20177.24259
20177.31027
20177.3666
20177.413
20177.45088
20177.48155
20177.50617
20177.52581
20177.54136
20177.55357
20177.5631
20177.57046
20177.5761
20177.58037
20177.58355
20177.58586
20177.58751
20177.58862
20177.58933
20177.58972
20177.58987
20177.58984
20177.58967
20177.5894
20177.58906
20177.58867
20177.58824
20177.58779
20177.58734
20177.58688
20177.58643
20177.58598
20177.58554
20177.58512
20177.58471
20177.58431
20177.58393
20177.58356
20177.5832
20177.58286
20177.58253
20177.58221
20177.5819
20177.5816
20177.58131
20177.58103
20177.58075
20177.58048
20177.58022
20177.57996
20177.5797
20177.57945
20177.5792
20177.57895
20177.5787
20177.57846
20177.57821
20177.57797
20177.57772
20177.57748
20177.57723
20177.57699
20177.57674
20177.57649
20177.57624
20177.57599
20177.57573
20177.57548
20177.57522
20177.57496
20177.57469
20177.57443
20177.57416
20177.57389
20177.57362
20177.57334
20177.57307
20177.57279
20177.57251
20177.57223
20177.57194
20177.57165
20177.57137
20177.57108
20177.57078
20177.57049
20177.57019
20177.5699
20177.5696
20177.5693
20177.569
20177.5687
20177.5684
20177.56809
20177.56779
20177.56749
20177.56718
20177.56688
20177.56658
20177.56627
20177.56597
20177.56567
20177.56536
20177.56506
20177.56476
20177.56446
20177.56416
20177.56387
20177.56357
20177.56328
20177.56299
20177.56271
20177.56242
20177.56214
20177.56186
20177.56159
20177.56132
20177.56105
20177.56079
20177.56053
20177.56028
20177.56004
20177.55979
20177.5596
20177.5596
20179.12478
20179.12478
20179.11213
20179.09812
20179.08654
20179.07849
20179.07471
20179.07587
20179.08202
20179.09244
20179.10586
20179.12097
20179.13681
20179.15277
20179.16846
20179.18354
20179.19773
20179.21095
20179.22349
20179.23591
20179.24841
20179.26007
20179.26417
20179.2502
20179.21332
20179.25814
20179.24944
20179.08321
20178.86975
20178.64244
20178.40775
20178.16758
20177.92244
20177.67213
20177.41602
20177.15305
20176.88157
20176.59907
20176.30116
20175.97847
20175.58935
20175.33075
20175.32466
20175.36995
20175.23404
20175.10954
20175.10947
20175.15007
20175.15583
20175.10534
20175.00573
20174.87009
20174.71813
20174.56343
20174.41916
20174.30343
20174.23451
20174.22545
20174.28088
20174.39705
20174.56428
20174.7694
20174.99849
20175.23901
20175.48084
20175.71638
20175.94074
20176.15086
20176.34512
20176.52271
20176.6833
20176.82692
20176.95381
20177.06452
20177.15989
20177.24101
20177.30919
20177.36587
20177.4125
20177.45053
20177.48127
20177.50594
20177.5256
20177.54115
20177.55336
20177.56289
20177.57025
20177.57589
20177.58016
20177.58334
20177.58566
20177.58731
20177.58843
20177.58914
20177.58954
20177.5897
20177.58968
20177.58951
20177.58925
20177.58891
20177.58853
20177.58811
20177.58767
20177.58722
20177.58677
20177.58632
20177.58588
20177.58545
20177.58503
20177.58463
20177.58423
20177.58386
20177.58349
20177.58314
20177.5828
20177.58247
20177.58216
20177.58185
20177.58155
20177.58127
20177.58098
20177.58071
20177.58044
20177.58018
20177.57992
20177.57967
20177.57942
20177.57917
20177.57892
20177.57868
20177.57843
20177.57819
20177.57795
20177.5777
20177.57746
20177.57721
20177.57697
20177.57672
20177.57647
20177.57622
20177.57597
20177.57572
20177.57546
20177.5752
20177.57494
20177.57468
20177.57441
20177.57415
20177.57388
20177.57361
20177.57333
20177.57306
20177.57278
20177.5725
20177.57222
20177.57193
20177.57164
20177.57136
20177.57107
20177.57077
20177.57048
20177.57018
20177.56989
20177.56959
20177.56929
20177.56899
20177.56869
20177.56839
20177.56809
20177.56778
20177.56748
20177.56718
20177.56687
20177.56657
20177.56626
20177.56596
20177.56566
20177.56535
20177.56505
20177.56475
20177.56445
20177.56416
20177.56386
20177.56357
20177.56327
20177.56298
20177.5627
20177.56241
20177.56213
20177.56185
20177.56158
20177.56131
20177.56104
20177.56078
20177.56052
20177.56027
20177.56002
20177.55977
20177.55958
20177.55958
20179.10782
20179.10782
20179.09945
20179.089
20179.07989
20179.07358
20179.07094
20179.07252
20179.07842
20179.08811
20179.10067
20179.1151
20179.13057
20179.14649
20179.16244
20179.17805
20179.193
20179.20716
20179.22069
20179.23405
20179.24701
20179.25866
20179.26163
20179.25495
20179.23749
20179.27569
20179.25893
20179.08919
20178.87519
20178.64763
20178.41277
20178.17265
20177.92788
20177.67833
20177.42341
20177.16217
20176.89312
20176.61394
20176.3203
20176.00307
20175.60998
20175.33924
20175.3336
20175.37458
20175.25592
20175.12963
20175.1111
20175.14302
20175.13865
20175.07316
20174.95649
20174.80525
20174.63893
20174.4731
20174.32329
20174.20739
20174.14248
20174.14045
20174.20482
20174.33088
20174.50806
20174.72254
20174.9599
20175.20734
20175.45474
20175.69459
20175.92225
20176.13498
20176.33141
20176.51095
20176.67339
20176.81873
20176.94723
20177.05936
20177.15592
20177.238
20177.30692
20177.36413
20177.41115
20177.44944
20177.48036
20177.50515
20177.52489
20177.54051
20177.55278
20177.56234
20177.56974
20177.57541
20177.57971
20177.58292
20177.58526
20177.58694
20177.58808
20177.58882
20177.58924
20177.58942
20177.58941
20177.58926
20177.58902
20177.5887
20177.58832
20177.58792
20177.58749
20177.58705
20177.58661
20177.58618
20177.58574
20177.58532
20177.58491
20177.58451
20177.58413
20177.58375
20177.5834
20177.58305
20177.58272
20177.58239
20177.58208
20177.58178
20177.58149
20177.5812
20177.58093
20177.58066
20177.58039
20177.58013
20177.57988
20177.57963
20177.57938
20177.57913
20177.57889
20177.57864
20177.5784
20177.57816
20177.57792
20177.57767
20177.57743
20177.57719
20177.57694
20177.5767
20177.57645
20177.5762
20177.57595
20177.5757
20177.57544
20177.57518
20177.57492
20177.57466
20177.5744
20177.57413
20177.57386
20177.57359
20177.57332
20177.57304
20177.57276
20177.57248
20177.5722
20177.57192
20177.57163
20177.57134
20177.57105
20177.57076
20177.57047
20177.57017
20177.56988
20177.56958
20177.56928
20177.56898
20177.56868
20177.56838
20177.56808
20177.56777
20177.56747
20177.56717
20177.56686
20177.56656
20177.56625
20177.56595
20177.56565
20177.56534
20177.56504
20177.56474
20177.56444
20177.56415
20177.56385
20177.56356
20177.56326
20177.56297
20177.56269
20177.5624
20177.56212
20177.56184
20177.56156
20177.56129
20177.56103
20177.56076
20177.5605
20177.56025
20177.56
20177.55975
20177.55955
20177.55955
20179.09305
20179.09305
20179.08736
20179.07964
20179.07264
20179.06785
20179.06617
20179.06812
20179.07379
20179.08282
20179.09453
20179.10815
20179.12301
20179.13859
20179.15451
20179.1704
20179.18601
20179.20114
20179.21589
20179.23048
20179.24426
20179.25662
20179.26012
20179.26182
20179.2627
20179.30424
20179.28218
20179.10306
20178.88437
20178.65479
20178.41912
20178.1789
20177.93455
20177.68592
20177.43247
20177.17337
20176.90737
20176.63257
20176.34537
20176.0397
20175.65931
20175.39507
20175.39247
20175.43203
20175.33406
20175.20634
20175.15741
20175.15609
20175.12392
20175.03549
20174.89928
20174.73166
20174.5508
20174.37318
20174.21616
20174.09812
20174.03584
20174.04044
20174.11435
20174.25158
20174.44031
20174.66581
20174.91303
20175.16876
20175.42277
20175.66772
20175.89923
20176.11496
20176.3139
20176.49571
20176.66032
20176.80777
20176.93824
20177.05215
20177.15024
20177.23356
20177.30345
20177.36139
20177.40895
20177.44762
20177.47883
20177.50383
20177.52372
20177.53946
20177.55182
20177.56147
20177.56895
20177.57468
20177.57903
20177.58229
20177.58469
20177.58641
20177.58759
20177.58836
20177.58882
20177.58902
20177.58904
20177.58893
20177.5887
20177.5884
20177.58805
20177.58767
20177.58726
20177.58683
20177.58641
20177.58598
20177.58557
20177.58516
20177.58476
20177.58437
20177.58399
20177.58363
20177.58328
20177.58294
20177.58261
20177.5823
20177.58199
20177.5817
20177.58141
20177.58113
20177.58086
20177.58059
20177.58033
20177.58007
20177.57982
20177.57957
20177.57933
20177.57908
20177.57884
20177.5786
20177.57836
20177.57812
20177.57788
20177.57764
20177.5774
20177.57716
20177.57692
20177.57667
20177.57642
20177.57618
20177.57593
20177.57567
20177.57542
20177.57516
20177.5749
20177.57464
20177.57438
20177.57411
20177.57385
20177.57358
20177.5733
20177.57303
20177.57275
20177.57247
20177.57219
20177.5719
20177.57162
20177.57133
20177.57104
20177.57075
20177.57046
20177.57016
20177.56987
20177.56957
20177.56927
20177.56897
20177.56867
20177.56837
20177.56806
20177.56776
20177.56746
20177.56715
20177.56685
20177.56655
20177.56624
20177.56594
20177.56564
20177.56533
20177.56503
20177.56473
20177.56443
20177.56413
20177.56384
20177.56354
20177.56325
20177.56296
20177.56267
20177.56239
20177.56211
20177.56183
20177.56155
20177.56128
20177.56101
20177.56074
20177.56048
20177.56023
20177.55998
20177.55973
20177.55951
20177.55951
20179.07975
20179.07975
20179.07582
20179.07017
20179.06493
20179.06145
20179.06061
20179.06287
20179.06837
20179.07684
20179.08779
20179.10061
20179.11478
20179.12983
20179.14547
20179.16138
20179.17738
20179.19328
20179.20915
20179.22506
20179.24013
20179.25423
20179.26102
20179.27179
20179.28716
20179.33439
20179.30962
20179.12149
20178.89632
20178.66356
20178.42663
20178.18619
20177.94234
20177.6948
20177.44307
20177.18647
20176.92408
20176.65457
20176.37551
20176.08591
20175.72929
20175.48059
20175.48026
20175.52226
20175.44768
20175.32346
20175.2403
20175.1902
20175.11731
20174.99928
20174.84043
20174.65436
20174.45726
20174.2661
20174.09967
20173.97732
20173.91621
20173.92699
20174.01095
20174.16057
20174.36245
20174.60056
20174.85913
20175.12442
20175.38598
20175.63667
20175.87242
20176.09137
20176.29297
20176.47723
20176.64426
20176.79412
20176.9269
20177.04293
20177.14286
20177.22771
20177.2988
20177.35767
20177.40592
20177.44511
20177.4767
20177.50199
20177.52211
20177.53803
20177.55054
20177.56031
20177.56789
20177.57372
20177.57816
20177.58149
20177.58396
20177.58573
20177.58697
20177.58779
20177.58829
20177.58854
20177.5886
20177.58851
20177.58832
20177.58805
20177.58772
20177.58736
20177.58697
20177.58657
20177.58617
20177.58576
20177.58536
20177.58496
20177.58458
20177.5842
20177.58384
20177.58348
20177.58314
20177.58281
20177.5825
20177.58219
20177.58189
20177.5816
20177.58132
20177.58105
20177.58078
20177.58052
20177.58026
20177.58001
20177.57976
20177.57952
20177.57927
20177.57903
20177.57879
20177.57856
20177.57832
20177.57808
20177.57784
20177.57761
20177.57737
20177.57713
20177.57688
20177.57664
20177.5764
20177.57615
20177.5759
20177.57565
20177.5754
20177.57514
20177.57488
20177.57462
20177.57436
20177.5741
20177.57383
20177.57356
20177.57329
20177.57301
20177.57273
20177.57246
20177.57217
20177.57189
20177.57161
20177.57132
20177.57103
20177.57074
20177.57044
20177.57015
20177.56985
20177.56956
20177.56926
20177.56896
20177.56866
20177.56836
20177.56805
20177.56775
20177.56745
20177.56714
20177.56684
20177.56654
20177.56623
20177.56593
20177.56562
20177.56532
20177.56502
20177.56472
20177.56442
20177.56412
20177.56383
20177.56353
20177.56324
20177.56295
20177.56266
20177.56237
20177.56209
20177.56181
20177.56153
20177.56126
20177.56099
20177.56073
20177.56046
20177.56021
20177.55995
20177.5597
20177.55947
20177.55947
20179.06748
20179.06748
20179.06474
20179.06066
20179.05685
20179.05449
20179.05436
20179.05691
20179.06228
20179.0703
20179.0806
20179.09271
20179.10619
20179.12065
20179.13588
20179.1516
20179.16774
20179.1841
20179.20085
20179.21793
20179.23462
20179.25122
20179.2635
20179.2832
20179.30908
20179.36157
20179.33561
20179.14131
20178.90972
20178.67337
20178.43499
20178.19435
20177.95109
20177.70483
20177.45507
20177.20129
20176.94292
20176.67939
20176.40939
20176.13803
20175.81086
20175.58013
20175.57932
20175.62443
20175.57084
20175.45134
20175.3356
20175.23452
20175.11748
20174.96678
20174.78283
20174.57614
20174.36076
20174.15389
20173.97538
20173.84609
20173.78433
20173.80076
20173.89537
20174.0587
20174.27542
20174.52789
20174.79938
20175.07555
20175.34562
20175.60259
20175.84281
20176.065
20176.26922
20176.45593
20176.62547
20176.77793
20176.9133
20177.03177
20177.13384
20177.22048
20177.29301
20177.353
20177.40209