# vtk DataFile Version 2.0
FlowField
ASCII
DATASET STRUCTURED_GRID
DIMENSIONS 200 1 200
POINTS 40000 float
0 0 0
0.15 0 0
0.3 0 0
0.45 0 0
0.6 0 0
0.75 0 0
0.9 0 0
1.05 0 0
1.2 0 0
1.35 0 0
1.5 0 0
1.65 0 0
1.8 0 0
1.95 0 0
2.1 0 0
2.25 0 0
2.4 0 0
2.55 0 0
2.7 0 0
2.85 0 0
3 0 0
3.15 0 0
3.3 0 0
3.45 0 0
3.6 0 0
3.75 0 0
3.9 0 0
4.05 0 0
4.2 0 0
4.35 0 0
4.5 0 0
4.65 0 0
4.8 0 0
4.95 0 0
5.1 0 0
5.25 0 0
5.4 0 0
5.55 0 0
5.7 0 0
5.85 0 0
6 0 0
6.15 0 0
6.3 0 0
6.45 0 0
6.6 0 0
6.75 0 0
6.9 0 0
7.05 0 0
7.2 0 0
7.35 0 0
7.5 0 0
7.65 0 0
7.8 0 0
7.95 0 0
8.1 0 0
8.25 0 0
8.4 0 0
8.55 0 0
8.7 0 0
8.85 0 0
9 0 0
9.15 0 0
9.3 0 0
9.45 0 0
9.6 0 0
9.75 0 0
9.9 0 0
10.05 0 0
10.2 0 0
10.35 0 0
10.5 0 0
10.65 0 0
10.8 0 0
10.95 0 0
11.1 0 0
11.25 0 0
11.4 0 0
11.55 0 0
11.7 0 0
11.85 0 0
12 0 0
12.15 0 0
12.3 0 0
12.45 0 0
12.6 0 0
12.75 0 0
12.9 0 0
13.05 0 0
13.2 0 0
13.35 0 0
13.5 0 0
13.65 0 0
13.8 0 0
13.95 0 0
14.1 0 0
14.25 0 0
14.4 0 0
14.55 0 0
14.7 0 0
14.85 0 0
15 0 0
15.15 0 0
15.3 0 0
15.45 0 0
15.6 0 0
15.75 0 0
15.9 0 0
16.05 0 0
16.2 0 0
16.35 0 0
16.5 0 0
16.65 0 0
16.8 0 0
16.95 0 0
17.1 0 0
17.25 0 0
17.4 0 0
17.55 0 0
17.7 0 0
17.85 0 0
18 0 0
18.15 0 0
18.3 0 0
18.45 0 0
18.6 0 0
18.75 0 0
18.9 0 0
19.05 0 0
19.2 0 0
19.35 0 0
19.5 0 0
19.65 0 0
19.8 0 0
19.95 0 0
20.1 0 0
20.25 0 0
20.4 0 0
20.55 0 0
20.7 0 0
20.85 0 0
21 0 0
21.15 0 0
21.3 0 0
21.45 0 0
21.6 0 0
21.75 0 0
21.9 0 0
22.05 0 0
22.2 0 0
22.35 0 0
22.5 0 0
22.65 0 0
22.8 0 0
22.95 0 0
23.1 0 0
23.25 0 0
23.4 0 0
23.55 0 0
23.7 0 0
23.85 0 0
24 0 0
24.15 0 0
24.3 0 0
24.45 0 0
24.6 0 0
24.75 0 0
24.9 0 0
25.05 0 0
25.2 0 0
25.35 0 0
25.5 0 0
25.65 0 0
25.8 0 0
25.95 0 0
26.1 0 0
26.25 0 0
26.4 0 0
26.55 0 0
26.7 0 0
26.85 0 0
27 0 0
27.15 0 0
27.3 0 0
27.45 0 0
27.6 0 0
27.75 0 0
27.9 0 0
28.05 0 0
28.2 0 0
28.35 0 0
28.5 0 0
28.65 0 0
28.8 0 0
28.95 0 0
29.1 0 0
29.25 0 0
29.4 0 0
29.55 0 0
29.7 0 0
29.85 0 0
0 0.075 0
0.15 0.075 0
0.3 0.075 0
0.45 0.075 0
0.6 0.075 0
0.75 0.075 0
0.9 0.075 0
1.05 0.075 0
1.2 0.075 0
1.35 0.075 0
1.5 0.075 0
1.65 0.075 0
1.8 0.075 0
1.95 0.075 0
2.1 0.075 0
2.25 0.075 0
2.4 0.075 0
2.55 0.075 0
2.7 0.075 0
2.85 0.075 0
3 0.075 0
3.15 0.075 0
3.3 0.075 0
3.45 0.075 0
3.6 0.075 0
3.75 0.075 0
3.9 0.075 0
4.05 0.075 0
4.2 0.075 0
4.35 0.075 0
4.5 0.075 0
4.65 0.075 0
4.8 0.075 0
4.95 0.075 0
5.1 0.075 0
5.25 0.075 0
5.4 0.075 0
5.55 0.075 0
5.7 0.075 0
5.85 0.075 0
6 0.075 0
6.15 0.075 0
6.3 0.075 0
6.45 0.075 0
6.6 0.075 0
6.75 0.075 0
6.9 0.075 0
7.05 0.075 0
7.2 0.075 0
7.35 0.075 0
7.5 0.075 0
7.65 0.075 0
7.8 0.075 0
7.95 0.075 0
8.1 0.075 0
8.25 0.075 0
8.4 0.075 0
8.55 0.075 0
8.7 0.075 0
8.85 0.075 0
9 0.075 0
9.15 0.075 0
9.3 0.075 0
9.45 0.075 0
9.6 0.075 0
9.75 0.075 0
9.9 0.075 0
10.05 0.075 0
10.2 0.075 0
10.35 0.075 0
10.5 0.075 0
10.65 0.075 0
10.8 0.075 0
10.95 0.075 0
11.1 0.075 0
11.25 0.075 0
11.4 0.075 0
11.55 0.075 0
11.7 0.075 0
11.85 0.075 0
12 0.075 0
12.15 0.075 0
12.3 0.075 0
12.45 0.075 0
12.6 0.075 0
12.75 0.075 0
12.9 0.075 0
13.05 0.075 0
13.2 0.075 0
13.35 0.075 0
13.5 0.075 0
13.65 0.075 0
13.8 0.075 0
13.95 0.075 0
14.1 0.075 0
14.25 0.075 0
14.4 0.075 0
14.55 0.075 0
14.7 0.075 0
14.85 0.075 0
15 0.075 0
15.15 0.075 0
15.3 0.075 0
15.45 0.075 0
15.6 0.075 0
15.75 0.075 0
15.9 0.075 0
16.05 0.075 0
16.2 0.075 0
16.35 0.075 0
16.5 0.075 0
16.65 0.075 0
16.8 0.075 0
16.95 0.075 0
17.1 0.075 0
17.25 0.075 0
17.4 0.075 0
17.55 0.075 0
17.7 0.075 0
17.85 0.075 0
18 0.075 0
18.15 0.075 0
18.3 0.075 0
18.45 0.075 0
18.6 0.075 0
18.75 0.075 0
18.9 0.075 0
19.05 0.075 0
19.2 0.075 0
19.35 0.075 0
19.5 0.075 0
19.65 0.075 0
19.8 0.075 0
19.95 0.075 0
20.1 0.075 0
20.25 0.075 0
20.4 0.075 0
20.55 0.075 0
20.7 0.075 0
20.85 0.075 0
21 0.075 0
21.15 0.075 0
21.3 0.075 0
21.45 0.075 0
21.6 0.075 0
21.75 0.075 0
21.9 0.075 0
22.05 0.075 0
22.2 0.075 0
22.35 0.075 0
22.5 0.075 0
22.65 0.075 0
22.8 0.075 0
22.95 0.075 0
23.1 0.075 0
23.25 0.075 0
23.4 0.075 0
23.55 0.075 0
23.7 0.075 0
23.85 0.075 0
24 0.075 0
24.15 0.075 0
24.3 0.075 0
24.45 0.075 0
24.6 0.075 0
24.75 0.075 0
24.9 0.075 0
25.05 0.075 0
25.2 0.075 0
25.35 0.075 0
25.5 0.075 0
25.65 0.075 0
25.8 0.075 0
25.95 0.075 0
26.1 0.075 0
26.25 0.075 0
26.4 0.075 0
26.55 0.075 0
26.7 0.075 0
26.85 0.075 0
27 0.075 0
27.15 0.075 0
27.3 0.075 0
27.45 0.075 0
27.6 0.075 0
27.75 0.075 0
27.9 0.075 0
28.05 0.075 0
28.2 0.075 0
28.35 0.075 0
28.5 0.075 0
28.65 0.075 0
28.8 0.075 0
28.95 0.075 0
29.1 0.075 0
29.25 0.075 0
29.4 0.075 0
29.55 0.075 0
29.7 0.075 0
29.85 0.075 0
0 0.15 0
0.15 0.15 0
0.3 0.15 0
0.45 0.15 0
0.6 0.15 0
0.75 0.15 0
0.9 0.15 0
1.05 0.15 0
1.2 0.15 0
1.35 0.15 0
1.5 0.15 0
1.65 0.15 0
1.8 0.15 0
1.95 0.15 0
2.1 0.15 0
2.25 0.15 0
2.4 0.15 0
2.55 0.15 0
2.7 0.15 0
2.85 0.15 0
3 0.15 0
3.15 0.15 0
3.3 0.15 0
3.45 0.15 0
3.6 0.15 0
3.75 0.15 0
3.9 0.15 0
4.05 0.15 0
4.2 0.15 0
4.35 0.15 0
4.5 0.15 0
4.65 0.15 0
4.8 0.15 0
4.95 0.15 0
5.1 0.15 0
5.25 0.15 0
5.4 0.15 0
5.55 0.15 0
5.7 0.15 0
5.85 0.15 0
6 0.15 0
6.15 0.15 0
6.3 0.15 0
6.45 0.15 0
6.6 0.15 0
6.75 0.15 0
6.9 0.15 0
7.05 0.15 0
7.2 0.15 0
7.35 0.15 0
7.5 0.15 0
7.65 0.15 0
7.8 0.15 0
7.95 0.15 0
8.1 0.15 0
8.25 0.15 0
8.4 0.15 0
8.55 0.15 0
8.7 0.15 0
8.85 0.15 0
9 0.15 0
9.15 0.15 0
9.3 0.15 0
9.45 0.15 0
9.6 0.15 0
9.75 0.15 0
9.9 0.15 0
10.05 0.15 0
10.2 0.15 0
10.35 0.15 0
10.5 0.15 0
10.65 0.15 0
10.8 0.15 0
10.95 0.15 0
11.1 0.15 0
11.25 0.15 0
11.4 0.15 0
11.55 0.15 0
11.7 0.15 0
11.85 0.15 0
12 0.15 0
12.15 0.15 0
12.3 0.15 0
12.45 0.15 0
12.6 0.15 0
12.75 0.15 0
12.9 0.15 0
13.05 0.15 0
13.2 0.15 0
13.35 0.15 0
13.5 0.15 0
13.65 0.15 0
13.8 0.15 0
13.95 0.15 0
14.1 0.15 0
14.25 0.15 0
14.4 0.15 0
14.55 0.15 0
14.7 0.15 0
14.85 0.15 0
15 0.15 0
15.15 0.15 0
15.3 0.15 0
15.45 0.15 0
15.6 0.15 0
15.75 0.15 0
15.9 0.15 0
16.05 0.15 0
16.2 0.15 0
16.35 0.15 0
16.5 0.15 0
16.65 0.15 0
16.8 0.15 0
16.95 0.15 0
17.1 0.15 0
17.25 0.15 0
17.4 0.15 0
17.55 0.15 0
17.7 0.15 0
17.85 0.15 0
18 0.15 0
18.15 0.15 0
18.3 0.15 0
18.45 0.15 0
18.6 0.15 0
18.75 0.15 0
18.9 0.15 0
19.05 0.15 0
19.2 0.15 0
19.35 0.15 0
19.5 0.15 0
19.65 0.15 0
19.8 0.15 0
19.95 0.15 0
20.1 0.15 0
20.25 0.15 0
20.4 0.15 0
20.55 0.15 0
20.7 0.15 0
20.85 0.15 0
21 0.15 0
21.15 0.15 0
21.3 0.15 0
21.45 0.15 0
21.6 0.15 0
21.75 0.15 0
21.9 0.15 0
22.05 0.15 0
22.2 0.15 0
22.35 0.15 0
22.5 0.15 0
22.65 0.15 0
22.8 0.15 0
22.95 0.15 0
23.1 0.15 0
23.25 0.15 0
23.4 0.15 0
23.55 0.15 0
23.7 0.15 0
23.85 0.15 0
24 0.15 0
24.15 0.15 0
24.3 0.15 0
24.45 0.15 0
24.6 0.15 0
24.75 0.15 0
24.9 0.15 0
25.05 0.15 0
25.2 0.15 0
25.35 0.15 0
25.5 0.15 0
25.65 0.15 0
25.8 0.15 0
25.95 0.15 0
26.1 0.15 0
26.25 0.15 0
26.4 0.15 0
26.55 0.15 0
26.7 0.15 0
26.85 0.15 0
27 0.15 0
27.15 0.15 0
27.3 0.15 0
27.45 0.15 0
27.6 0.15 0
27.75 0.15 0
27.9 0.15 0
28.05 0.15 0
28.2 0.15 0
28.35 0.15 0
28.5 0.15 0
28.65 0.15 0
28.8 0.15 0
28.95 0.15 0
29.1 0.15 0
29.25 0.15 0
29.4 0.15 0
29.55 0.15 0
29.7 0.15 0
29.85 0.15 0
0 0.225 0
0.15 0.225 0
0.3 0.225 0
0.45 0.225 0
0.6 0.225 0
0.75 0.225 0
0.9 0.225 0
1.05 0.225 0
1.2 0.225 0
1.35 0.225 0
1.5 0.225 0
1.65 0.225 0
1.8 0.225 0
1.95 0.225 0
2.1 0.225 0
2.25 0.225 0
2.4 0.225 0
2.55 0.225 0
2.7 0.225 0
2.85 0.225 0
3 0.225 0
3.15 0.225 0
3.3 0.225 0
3.45 0.225 0
3.6 0.225 0
3.75 0.225 0
3.9 0.225 0
4.05 0.225 0
4.2 0.225 0
4.35 0.225 0
4.5 0.225 0
4.65 0.225 0
4.8 0.225 0
4.95 0.225 0
5.1 0.225 0
5.25 0.225 0
5.4 0.225 0
5.55 0.225 0
5.7 0.225 0
5.85 0.225 0
6 0.225 0
6.15 0.225 0
6.3 0.225 0
6.45 0.225 0
6.6 0.225 0
6.75 0.225 0
6.9 0.225 0
7.05 0.225 0
7.2 0.225 0
7.35 0.225 0
7.5 0.225 0
7.65 0.225 0
7.8 0.225 0
7.95 0.225 0
8.1 0.225 0
8.25 0.225 0
8.4 0.225 0
8.55 0.225 0
8.7 0.225 0
8.85 0.225 0
9 0.225 0
9.15 0.225 0
9.3 0.225 0
9.45 0.225 0
9.6 0.225 0
9.75 0.225 0
9.9 0.225 0
10.05 0.225 0
10.2 0.225 0
10.35 0.225 0
10.5 0.225 0
10.65 0.225 0
10.8 0.225 0
10.95 0.225 0
11.1 0.225 0
11.25 0.225 0
11.4 0.225 0
11.55 0.225 0
11.7 0.225 0
11.85 0.225 0
12 0.225 0
12.15 0.225 0
12.3 0.225 0
12.45 0.225 0
12.6 0.225 0
12.75 0.225 0
12.9 0.225 0
13.05 0.225 0
13.2 0.225 0
13.35 0.225 0
13.5 0.225 0
13.65 0.225 0
13.8 0.225 0
13.95 0.225 0
14.1 0.225 0
14.25 0.225 0
14.4 0.225 0
14.55 0.225 0
14.7 0.225 0
14.85 0.225 0
15 0.225 0
15.15 0.225 0
15.3 0.225 0
15.45 0.225 0
15.6 0.225 0
15.75 0.225 0
15.9 0.225 0
16.05 0.225 0
16.2 0.225 0
16.35 0.225 0
16.5 0.225 0
16.65 0.225 0
16.8 0.225 0
16.95 0.225 0
17.1 0.225 0
17.25 0.225 0
17.4 0.225 0
17.55 0.225 0
17.7 0.225 0
17.85 0.225 0
18 0.225 0
18.15 0.225 0
18.3 0.225 0
18.45 0.225 0
18.6 0.225 0
18.75 0.225 0
18.9 0.225 0
19.05 0.225 0
19.2 0.225 0
19.35 0.225 0
19.5 0.225 0
19.65 0.225 0
19.8 0.225 0
19.95 0.225 0
20.1 0.225 0
20.25 0.225 0
20.4 0.225 0
20.55 0.225 0
20.7 0.225 0
20.85 0.225 0
21 0.225 0
21.15 0.225 0
21.3 0.225 0
21.45 0.225 0
21.6 0.225 0
21.75 0.225 0
21.9 0.225 0
22.05 0.225 0
22.2 0.225 0
22.35 0.225 0
22.5 0.225 0
22.65 0.225 0
22.8 0.225 0
22.95 0.225 0
23.1 0.225 0
23.25 0.225 0
23.4 0.225 0
23.55 0.225 0
23.7 0.225 0
23.85 0.225 0
24 0.225 0
24.15 0.225 0
24.3 0.225 0
24.45 0.225 0
24.6 0.225 0
24.75 0.225 0
24.9 0.225 0
25.05 0.225 0
25.2 0.225 0
25.35 0.225 0
25.5 0.225 0
25.65 0.225 0
25.8 0.225 0
25.95 0.225 0
26.1 0.225 0
26.25 0.225 0
26.4 0.225 0
26.55 0.225 0
26.7 0.225 0
26.85 0.225 0
27 0.225 0
27.15 0.225 0
27.3 0.225 0
27.45 0.225 0
27.6 0.225 0
27.75 0.225 0
27.9 0.225 0
28.05 0.225 0
28.2 0.225 0
28.35 0.225 0
28.5 0.225 0
28.65 0.225 0
28.8 0.225 0
28.95 0.225 0
29.1 0.225 0
29.25 0.225 0
29.4 0.225 0
29.55 0.225 0
29.7 0.225 0
29.85 0.225 0
0 0.3 0
0.15 0.3 0
0.3 0.3 0
0.45 0.3 0
0.6 0.3 0
0.75 0.3 0
0.9 0.3 0
1.05 0.3 0
1.2 0.3 0
1.35 0.3 0
1.5 0.3 0
1.65 0.3 0
1.8 0.3 0
1.95 0.3 0
2.1 0.3 0
2.25 0.3 0
2.4 0.3 0
2.55 0.3 0
2.7 0.3 0
2.85 0.3 0
3 0.3 0
3.15 0.3 0
3.3 0.3 0
3.45 0.3 0
3.6 0.3 0
3.75 0.3 0
3.9 0.3 0
4.05 0.3 0
4.2 0.3 0
4.35 0.3 0
4.5 0.3 0
4.65 0.3 0
4.8 0.3 0
4.95 0.3 0
5.1 0.3 0
5.25 0.3 0
5.4 0.3 0
5.55 0.3 0
5.7 0.3 0
5.85 0.3 0
6 0.3 0
6.15 0.3 0
[...]
POINT_DATA 40000

SCALARS p float 1
LOOKUP_TABLE default
18799.52142
18799.52142
18799.4651
18799.43441
18799.41202
18799.39418
18799.38298
18799.38147
18799.38876
18799.40129
18799.416
18799.43139
18799.44706
18799.46313
18799.47989
18799.49768
18799.51681
18799.5376
18799.56038
18799.58532
18799.61279
18799.64206
18799.67395
18799.70498
18799.73459
18799.76894
18799.69165
18799.39637
18799.10528
18798.81484
18798.52378
18798.23128
18797.9362
18797.63715
18797.33154
18797.01843
18796.6947
18796.35807
18796.0086
18795.63946
18795.22312
18794.99121
18794.89661
18794.66237
18794.29036
18794.07199
18794.25961
18794.72985
18795.28104
18795.79071
18796.21434
18796.54557
18796.79346
18796.97362
18797.10284
18797.19589
18797.26432
18797.31639
18797.35764
18797.39165
18797.42062
18797.44592
18797.46838
18797.48853
18797.50673
18797.52323
18797.53819
18797.55176
18797.56405
18797.57516
18797.58517
18797.59414
18797.60214
18797.60922
18797.61545
18797.62087
18797.62551
18797.62943
18797.63265
18797.63522
18797.63716
18797.63851
18797.63929
18797.63953
18797.63925
18797.63848
18797.63723
18797.63552
18797.63338
18797.63082
18797.62786
18797.62451
18797.62078
18797.6167
18797.61226
18797.60749
18797.60239
18797.59697
18797.59125
18797.58522
18797.57891
18797.57232
18797.56546
18797.55832
18797.55093
18797.54328
18797.53539
18797.52726
18797.51889
18797.51028
18797.50145
18797.4924
18797.48314
18797.47365
18797.46396
18797.45407
18797.44397
18797.43367
18797.42317
18797.41249
18797.40161
18797.39055
18797.3793
18797.36787
18797.35626
18797.34447
18797.33251
18797.32037
18797.30807
18797.29559
18797.28295
18797.27014
18797.25716
18797.24403
18797.23073
18797.21727
18797.20365
18797.18988
18797.17595
18797.16187
18797.14763
18797.13324
18797.1187
18797.10401
18797.08917
18797.07418
18797.05904
18797.04376
18797.02833
18797.01275
18796.99703
18796.98117
18796.96516
18796.94901
18796.93272
18796.91629
18796.89972
18796.88301
18796.86616
18796.84917
18796.83204
18796.81478
18796.79737
18796.77983
18796.76216
18796.74435
18796.7264
18796.70832
18796.6901
18796.67175
18796.65327
18796.63465
18796.6159
18796.59702
18796.578
18796.55885
18796.53957
18796.52016
18796.50062
18796.48095
18796.46115
18796.44121
18796.42115
18796.40096
18796.38064
18796.3602
18796.33962
18796.31892
18796.29809
18796.27714
18796.25605
18796.23486
18796.21352
18796.19211
18796.17049
18796.14887
18796.12703
18796.10517
18796.08306
18796.08306
18799.52142
18799.52142
18799.4651
18799.43441
18799.41202
18799.39418
18799.38298
18799.38147
18799.38876
18799.40129
18799.416
18799.43139
18799.44706
18799.46313
18799.47989
18799.49768
18799.51681
18799.5376
18799.56038
18799.58532
18799.61279
18799.64206
18799.67395
18799.70498
18799.73459
18799.76894
18799.69165
18799.39637
18799.10528
18798.81484
18798.52378
18798.23128
18797.9362
18797.63715
18797.33154
18797.01843
18796.6947
18796.35807
18796.0086
18795.63946
18795.22312
18794.99121
18794.89661
18794.66237
18794.29036
18794.07199
18794.25961
18794.72985
18795.28104
18795.79071
18796.21434
18796.54557
18796.79346
18796.97362
18797.10284
18797.19589
18797.26432
18797.31639
18797.35764
18797.39165
18797.42062
18797.44592
18797.46838
18797.48853
18797.50673
18797.52323
18797.53819
18797.55176
18797.56405
18797.57516
18797.58517
18797.59414
18797.60214
18797.60922
18797.61545
18797.62087
18797.62551
18797.62943
18797.63265
18797.63522
18797.63716
18797.63851
18797.63929
18797.63953
18797.63925
18797.63848
18797.63723
18797.63552
18797.63338
18797.63082
18797.62786
18797.62451
18797.62078
18797.6167
18797.61226
18797.60749
18797.60239
18797.59697
18797.59125
18797.58522
18797.57891
18797.57232
18797.56546
18797.55832
18797.55093
18797.54328
18797.53539
18797.52726
18797.51889
18797.51028
18797.50145
18797.4924
18797.48314
18797.47365
18797.46396
18797.45407
18797.44397
18797.43367
18797.42317
18797.41249
18797.40161
18797.39055
18797.3793
18797.36787
18797.35626
18797.34447
18797.33251
18797.32037
18797.30807
18797.29559
18797.28295
18797.27014
18797.25716
18797.24403
18797.23073
18797.21727
18797.20365
18797.18988
18797.17595
18797.16187
18797.14763
18797.13324
18797.1187
18797.10401
18797.08917
18797.07418
18797.05904
18797.04376
18797.02833
18797.01275
18796.99703
18796.98117
18796.96516
18796.94901
18796.93272
18796.91629
18796.89972
18796.88301
18796.86616
18796.84917
18796.83204
18796.81478
18796.79737
18796.77983
18796.76216
18796.74435
18796.7264
18796.70832
18796.6901
18796.67175
18796.65327
18796.63465
18796.6159
18796.59702
18796.578
18796.55885
18796.53957
18796.52016
18796.50062
18796.48095
18796.46115
18796.44121
18796.42115
18796.40096
18796.38064
18796.3602
18796.33962
18796.31892
18796.29809
18796.27714
18796.25605
18796.23486
18796.21352
18796.19211
18796.17049
18796.14887
18796.12703
18796.10517
18796.08306
18796.08306
18799.4899
18799.4899
18799.45718
18799.43133
18799.41114
18799.39493
18799.38463
18799.38311
18799.3899
18799.40196
18799.4164
18799.43165
18799.44724
18799.46325
18799.47995
18799.49768
18799.51674
18799.53747
18799.56019
18799.58511
18799.61263
18799.64201
18799.67417
18799.70595
18799.73441
18799.7746
18799.68353
18799.39687
18799.10681
18798.81668
18798.52582
18798.2336
18797.93893
18797.64025
18797.33547
18797.02247
18796.6991
18796.3637
18796.01493
18795.65283
18795.27757
18795.09485
18794.91852
18794.57534
18794.1395
18793.92952
18794.15973
18794.66867
18795.24295
18795.76611
18796.19906
18796.53698
18796.78927
18796.9719
18797.10225
18797.1957
18797.26421
18797.31625
18797.35747
18797.39145
18797.42042
18797.44572
18797.4682
18797.48838
18797.5066
18797.52311
18797.53809
18797.55168
18797.56398
18797.5751
18797.58512
18797.59409
18797.6021
18797.60919
18797.61542
18797.62084
18797.62549
18797.62941
18797.63263
18797.6352
18797.63714
18797.63849
18797.63927
18797.63951
18797.63923
18797.63846
18797.63721
18797.6355
18797.63336
18797.6308
18797.62784
18797.62449
18797.62076
18797.61667
18797.61223
18797.60746
18797.60236
18797.59694
18797.59122
18797.58519
18797.57888
18797.57229
18797.56542
18797.55829
18797.5509
18797.54325
18797.53536
18797.52722
18797.51885
18797.51024
18797.50142
18797.49236
18797.48309
18797.47361
18797.46392
18797.45402
18797.44392
18797.43362
18797.42313
18797.41244
18797.40157
18797.3905
18797.37925
18797.36782
18797.35621
18797.34443
18797.33246
18797.32033
18797.30802
18797.29554
18797.2829
18797.27009
18797.25711
18797.24398
18797.23068
18797.21722
18797.2036
18797.18983
18797.1759
18797.16182
18797.14758
18797.13319
18797.11865
18797.10395
18797.08911
18797.07412
18797.05899
18797.0437
18797.02827
18797.0127
18796.99698
18796.98111
18796.96511
18796.94896
18796.93267
18796.91624
18796.89966
18796.88295
18796.8661
18796.84911
18796.83198
18796.81472
18796.79732
18796.77978
18796.7621
18796.74429
18796.72634
18796.70826
18796.69004
18796.67169
18796.65321
18796.63459
18796.61584
18796.59696
18796.57794
18796.55879
18796.53951
18796.5201
18796.50056
18796.48089
18796.46109
18796.44116
18796.42109
18796.4009
18796.38058
18796.36014
18796.33956
18796.31886
18796.29803
18796.27708
18796.25599
18796.2348
18796.21346
18796.19204
18796.17044
18796.1488
18796.12698
18796.10511
18796.0829
18796.0829
18799.46581
18799.46581
18799.44588
18799.4258
18799.40893
18799.3955
18799.38711
18799.38586
18799.39182
18799.40289
18799.41663
18799.43146
18799.44679
18799.4626
18799.4791
18799.49661
18799.51543
18799.53588
18799.5583
18799.58289
18799.61008
18799.63921
18799.67111
18799.70288
18799.72971
18799.7698
18799.67733
18799.39639
18799.1075
18798.8178
18798.52731
18798.23565
18797.94182
18797.64398
18797.34041
18797.02849
18796.70556
18796.37138
18796.02412
18795.6692
18795.33207
18795.17894
18794.90467
18794.38845
18793.84064
18793.64698
18793.9621
18794.54956
18795.16808
18795.71606
18796.16575
18796.51611
18796.77699
18796.9649
18797.09821
18797.19324
18797.2626
18797.31513
18797.35666
18797.39086
18797.41998
18797.4454
18797.46796
18797.4882
18797.50648
18797.52304
18797.53805
18797.55166
18797.56399
18797.57513
18797.58515
18797.59414
18797.60215
18797.60925
18797.61548
18797.6209
18797.62555
18797.62946
18797.63269
18797.63525
18797.63719
18797.63854
18797.63931
18797.63955
18797.63927
18797.63849
18797.63724
18797.63553
18797.63338
18797.63082
18797.62785
18797.6245
18797.62077
18797.61668
18797.61224
18797.60746
18797.60236
18797.59693
18797.59121
18797.58518
18797.57887
18797.57227
18797.5654
18797.55827
18797.55087
18797.54322
18797.53533
18797.52719
18797.51882
18797.51021
18797.50138
18797.49233
18797.48306
18797.47357
18797.46388
18797.45398
18797.44388
18797.43358
18797.42309
18797.4124
18797.40152
18797.39045
18797.3792
18797.36777
18797.35616
18797.34437
18797.33241
18797.32027
18797.30796
18797.29549
18797.28284
18797.27003
18797.25706
18797.24392
18797.23062
18797.21716
18797.20354
18797.18977
18797.17584
18797.16175
18797.14751
18797.13312
18797.11858
18797.10389
18797.08905
18797.07406
18797.05892
18797.04363
18797.0282
18797.01263
18796.99691
18796.98104
18796.96504
18796.94889
18796.9326
18796.91617
18796.89959
18796.88288
18796.86603
18796.84904
18796.83191
18796.81465
18796.79724
18796.7797
18796.76203
18796.74422
18796.72627
18796.70819
18796.68997
18796.67162
18796.65314
18796.63452
18796.61577
18796.59688
18796.57787
18796.55872
18796.53944
18796.52003
18796.50049
18796.48081
18796.46101
18796.44108
18796.42102
18796.40083
18796.38051
18796.36006
18796.33948
18796.31878
18796.29795
18796.277
18796.25592
18796.23472
18796.21338
18796.19195
18796.17036
18796.1487
18796.1269
18796.10501
18796.08264
18796.08264
18799.44709
18799.44709
18799.4345
18799.4193
18799.40571
18799.39503
18799.38863
18799.38799
18799.39336
18799.40342
18799.41631
18799.43057
18799.4455
18799.46097
18799.47715
18799.49428
18799.51266
18799.53258
18799.55438
18799.57828
18799.60464
18799.63297
18799.66377
18799.69421
18799.71799
18799.75566
18799.66938
18799.39575
18799.10836
18798.81913
18798.52911
18798.23828
18797.94566
18797.6494
18797.34729
18797.03712
18796.71564
18796.3819
18796.03541
18795.68147
18795.33398
18795.15923
18794.79963
18794.11141
18793.43971
18793.2598
18793.68885
18794.38775
18795.06519
18795.64381
18796.11467
18796.48196
18796.75528
18796.95134
18797.08962
18797.18763
18797.25884
18797.31257
18797.35491
18797.38966
18797.41917
18797.44487
18797.46763
18797.48802
18797.5064
18797.52303
18797.5381
18797.55176
18797.56412
18797.57527
18797.58531
18797.59431
18797.60232
18797.60942
18797.61566
18797.62107
18797.62571
18797.62963
18797.63284
18797.6354
18797.63734
18797.63868
18797.63945
18797.63967
18797.63938
18797.6386
18797.63734
18797.63562
18797.63347
18797.6309
18797.62793
18797.62457
18797.62083
18797.61674
18797.61229
18797.60751
18797.6024
18797.59697
18797.59124
18797.58521
18797.57889
18797.57229
18797.56542
18797.55828
18797.55088
18797.54323
18797.53533
18797.52719
18797.51882
18797.51021
18797.50137
18797.49232
18797.48304
18797.47356
18797.46386
18797.45396
18797.44386
18797.43356
18797.42306
18797.41237
18797.40149
18797.39042
18797.37917
18797.36774
18797.35612
18797.34433
18797.33237
18797.32023
18797.30792
18797.29544
18797.2828
18797.26998
18797.25701
18797.24387
18797.23057
18797.21711
18797.20349
18797.18972
18797.17578
18797.1617
18797.14746
18797.13307
18797.11852
18797.10383
18797.08899
18797.074
18797.05886
18797.04357
18797.02814
18797.01257
18796.99685
18796.98098
18796.96497
18796.94882
18796.93253
18796.9161
18796.89953
18796.88282
18796.86596
18796.84897
18796.83185
18796.81458
18796.79718
18796.77964
18796.76196
18796.74415
18796.7262
18796.70812
18796.6899
18796.67155
18796.65306
18796.63445
18796.61569
18796.59681
18796.57779
18796.55865
18796.53937
18796.51995
18796.50041
18796.48074
18796.46094
18796.441
18796.42094
18796.40075
18796.38043
18796.35998
18796.33941
18796.31871
18796.29788
18796.27692
18796.25584
18796.23464
18796.2133
18796.19186
18796.17028
18796.1486
18796.1268
18796.1049
18796.08239
18796.08239
18799.43189
18799.43189
18799.42374
18799.41241
18799.40175
18799.39344
18799.38873
18799.38871
18799.39371
18799.40297
18799.41509
18799.42877
18799.44326
18799.45833
18799.47407
18799.49068
18799.50844
18799.52762
18799.54851
18799.57135
18799.59642
18799.62337
18799.65233
18799.68028
18799.69869
18799.72631
18799.65153
18799.39464
18799.10956
18798.82068
18798.53115
18798.24144
18797.95045
18797.65633
18797.35639
18797.04815
18796.72904
18796.39602
18796.04823
18795.68978
18795.30045
18795.05642
18794.61181
18793.76914
18792.96392
18792.78647
18793.35584
18794.20153
18794.94969
18795.55895
18796.05144
18796.4379
18796.72626
18796.93263
18797.07747
18797.17962
18797.25348
18797.30898
18797.35252
18797.38811
18797.41821
18797.44431
18797.46736
18797.48794
18797.50646
18797.52319
18797.53833
18797.55204
18797.56442
18797.5756
18797.58565
18797.59465
18797.60266
18797.60976
18797.61598
18797.62139
18797.62602
18797.62992
18797.63313
18797.63567
18797.63759
18797.63892
18797.63968
18797.63989
18797.63959
18797.63879
18797.63752
18797.6358
18797.63364
18797.63106
18797.62807
18797.6247
18797.62096
18797.61685
18797.6124
18797.60761
18797.60249
18797.59706
18797.59132
18797.58528
18797.57896
18797.57235
18797.56548
18797.55833
18797.55093
18797.54327
18797.53537
18797.52722
18797.51884
18797.51023
18797.50139
18797.49233
18797.48306
18797.47357
18797.46387
18797.45396
18797.44386
18797.43355
18797.42305
18797.41236
18797.40148
18797.39041
18797.37915
18797.36772
18797.3561
18797.34431
18797.33234
18797.3202
18797.30789
18797.29541
18797.28276
18797.26995
18797.25697
18797.24383
18797.23053
18797.21707
18797.20345
18797.18967
18797.17574
18797.16165
18797.14741
18797.13302
18797.11848
18797.10378
18797.08894
18797.07395
18797.05881
18797.04352
18797.02809
18797.01251
18796.99679
18796.98092
18796.96492
18796.94877
18796.93247
18796.91604
18796.89947
18796.88275
18796.8659
18796.84891
18796.83178
18796.81452
18796.79711
18796.77957
18796.76189
18796.74408
18796.72613
18796.70805
18796.68983
18796.67148
18796.653
18796.63438
18796.61563
18796.59674
18796.57772
18796.55858
18796.53929
18796.51988
18796.50034
18796.48067
18796.46086
18796.44093
18796.42087
18796.40068
18796.38036
18796.35991
18796.33933
18796.31863
18796.2978
18796.27684
18796.25576
18796.23455
18796.21322
18796.19177
18796.17019
18796.1485
18796.12669
18796.10477
18796.08218
18796.08218
18799.41907
18799.41907
18799.41372
18799.40538
18799.39722
18799.39091
18799.38758
18799.38812
18799.39289
18799.40151
18799.41296
18799.42607
18799.44009
18799.4547
18799.46991
18799.4859
18799.50289
18799.52113
18799.54086
18799.56232
18799.58573
18799.6108
18799.63737
18799.66239
18799.67464
18799.68798
18799.62795
18799.39399
18799.11152
18798.82241
18798.53328
18798.245
18797.95629
18797.66471
18797.36785
18797.06234
18796.74538
18796.41411
18796.06373
18795.69758
18795.2633
18794.92252
18794.38234
18793.40588
18792.46312
18792.27076
18792.99053
18794.00942
18794.8374
18795.47279
18795.98319
18796.38828
18796.69263
18796.91047
18797.06287
18797.16992
18797.24703
18797.30472
18797.34978
18797.38643
18797.41725
18797.44385
18797.46724
18797.48807
18797.50675
18797.52359
18797.5388
18797.55254
18797.56495
18797.57614
18797.58619
18797.59518
18797.60319
18797.61027
18797.61647
18797.62186
18797.62647
18797.63035
18797.63354
18797.63607
18797.63797
18797.63927
18797.64001
18797.64021
18797.63989
18797.63908
18797.63779
18797.63605
18797.63387
18797.63128
18797.62828
18797.6249
18797.62114
18797.61703
18797.61256
18797.60776
18797.60263
18797.59719
18797.59144
18797.5854
18797.57907
18797.57245
18797.56557
18797.55842
18797.55101
18797.54334
18797.53543
18797.52728
18797.5189
18797.51028
18797.50144
18797.49237
18797.48309
18797.4736
18797.46389
18797.45398
18797.44387
18797.43357
18797.42306
18797.41237
18797.40148
18797.39041
18797.37915
18797.36771
18797.3561
18797.3443
18797.33233
18797.32019
18797.30787
18797.29539
18797.28274
18797.26993
18797.25695
18797.2438
18797.2305
18797.21704
18797.20342
18797.18964
18797.1757
18797.16162
18797.14737
18797.13298
18797.11843
18797.10374
18797.08889
18797.0739
18797.05876
18797.04347
18797.02804
18797.01246
18796.99674
18796.98087
18796.96486
18796.94871
18796.93242
18796.91598
18796.89941
18796.8827
18796.86584
18796.84885
18796.83172
18796.81445
18796.79705
18796.77951
18796.76183
18796.74402
18796.72607
18796.70799
18796.68977
18796.67142
18796.65293
18796.63431
18796.61556
18796.59667
18796.57766
18796.55851
18796.53923
18796.51981
18796.50027
18796.4806
18796.46079
18796.44086
18796.4208
18796.4006
18796.38028
18796.35983
18796.33926
18796.31855
18796.29772
18796.27676
18796.25568
18796.23447
18796.21314
18796.19168
18796.1701
18796.1484
18796.12658
18796.10464
18796.082
18796.082
18799.40788
18799.40788
18799.40438
18799.39834
18799.39223
18799.38759
18799.38542
18799.38645
18799.3911
18799.39921
18799.41003
18799.42258
18799.43607
18799.45015
18799.46476
18799.48002
18799.49611
18799.51324
18799.5316
18799.55141
18799.57282
18799.59563
18799.6195
18799.64179
18799.64933
18799.66199
18799.62014
18799.39766
18799.11462
18798.82409
18798.53529
18798.24886
18797.96308
18797.6749
18797.38146
18797.07965
18796.7656
18796.43611
18796.0836
18795.70744
18795.23144
18794.79076
18794.16344
18793.08943
18792.02865
18791.80652
18792.65459
18793.83826
18794.74245
18795.39555
18795.91723
18796.33799
18796.65752
18796.88683
18797.04706
18797.15933
18797.23999
18797.30014
18797.34691
18797.38475
18797.4164
18797.44357
18797.46735
18797.48844
18797.50729
18797.52424
18797.53952
18797.5533
18797.56572
18797.57691
18797.58695
18797.59592
18797.60391
18797.61096
18797.61714
18797.6225
18797.62708
18797.63093
18797.63409
18797.63659
18797.63846
18797.63974
18797.64045
18797.64063
18797.64028
18797.63945
18797.63814
18797.63638
18797.63419
18797.63157
18797.62856
18797.62516
18797.62139
18797.61726
18797.61278
18797.60796
18797.60283
18797.59737
18797.59161
18797.58556
18797.57921
18797.57259
18797.5657
18797.55854
18797.55112
18797.54345
18797.53553
18797.52737
18797.51898
18797.51035
18797.50151
18797.49244
18797.48315
18797.47365
18797.46394
18797.45403
18797.44391
18797.4336
18797.42309
18797.41239
18797.4015
18797.39043
18797.37917
18797.36772
18797.3561
18797.3443
18797.33233
18797.32019
18797.30787
18797.29538
18797.28273
18797.26991
18797.25693
18797.24379
18797.23048
18797.21702
18797.20339
18797.18961
18797.17568
18797.16159
18797.14734
18797.13295
18797.1184
18797.1037
18797.08886
18797.07386
18797.05872
18797.04343
18797.028
18797.01242
18796.99669
18796.98082
18796.96481
18796.94866
18796.93237
18796.91593
18796.89936
18796.88264
18796.86579
18796.8488
18796.83167
18796.8144
18796.79699
18796.77945
18796.76177
18796.74396
18796.72601
18796.70793
18796.68971
18796.67135
18796.65287
18796.63425
18796.61549
18796.59661
18796.57759
18796.55844
18796.53916
18796.51975
18796.5002
18796.48053
18796.46072
18796.44079
18796.42073
18796.40053
18796.38021
18796.35976
18796.33918
18796.31848
18796.29765
18796.27669
18796.2556
18796.23439
18796.21305
18796.19159
18796.17001
18796.1483
18796.12647
18796.10451
18796.08185
18796.08185
18799.39785
18799.39785
18799.39562
18799.39132
18799.38689
18799.38363
18799.38242
18799.3839
18799.38849
18799.39618
18799.40643
18799.41838
18799.4313
18799.44477
18799.4587
18799.47314
18799.48822
18799.50408
18799.52089
18799.53881
18799.55794
18799.57818
18799.59914
18799.61908
18799.62373
18799.65108
18799.63087
18799.40669
18799.11849
18798.82526
18798.53691
18798.25304
18797.97076
18797.687
18797.39772
18797.09992
18796.7899
18796.46304
18796.11096
18795.73168
18795.2217
18794.69361
18794.00572
18792.89529
18791.77149
18791.51694
18792.4369
18793.72745
18794.67918
18795.33515
18795.85969
18796.29158
18796.62399
18796.86369
18797.03129
18797.14867
18797.23289
18797.29556
18797.34412
18797.38322
18797.41575
18797.44353
18797.46772
18797.48908
18797.50811
18797.52516
18797.5405
18797.55431
18797.56674
18797.57791
18797.58793
18797.59687
18797.60482
18797.61184
18797.61798
18797.6233
18797.62784