# vtk DataFile Version 2.0
FlowField
ASCII
DATASET STRUCTURED_GRID
DIMENSIONS 200 1 200
POINTS 40000 float
0 0 0
0.15 0 0
0.3 0 0
0.45 0 0
0.6 0 0
0.75 0 0
0.9 0 0
1.05 0 0
1.2 0 0
1.35 0 0
1.5 0 0
1.65 0 0
1.8 0 0
1.95 0 0
2.1 0 0
2.25 0 0
2.4 0 0
2.55 0 0
2.7 0 0
2.85 0 0
3 0 0
3.15 0 0
3.3 0 0
3.45 0 0
3.6 0 0
3.75 0 0
3.9 0 0
4.05 0 0
4.2 0 0
4.35 0 0
4.5 0 0
4.65 0 0
4.8 0 0
4.95 0 0
5.1 0 0
5.25 0 0
5.4 0 0
5.55 0 0
5.7 0 0
5.85 0 0
6 0 0
6.15 0 0
6.3 0 0
6.45 0 0
6.6 0 0
6.75 0 0
6.9 0 0
7.05 0 0
7.2 0 0
7.35 0 0
7.5 0 0
7.65 0 0
7.8 0 0
7.95 0 0
8.1 0 0
8.25 0 0
8.4 0 0
8.55 0 0
8.7 0 0
8.85 0 0
9 0 0
9.15 0 0
9.3 0 0
9.45 0 0
9.6 0 0
9.75 0 0
9.9 0 0
10.05 0 0
10.2 0 0
10.35 0 0
10.5 0 0
10.65 0 0
10.8 0 0
10.95 0 0
11.1 0 0
11.25 0 0
11.4 0 0
11.55 0 0
11.7 0 0
11.85 0 0
12 0 0
12.15 0 0
12.3 0 0
12.45 0 0
12.6 0 0
12.75 0 0
12.9 0 0
13.05 0 0
13.2 0 0
13.35 0 0
13.5 0 0
13.65 0 0
13.8 0 0
13.95 0 0
14.1 0 0
14.25 0 0
14.4 0 0
14.55 0 0
14.7 0 0
14.85 0 0
15 0 0
15.15 0 0
15.3 0 0
15.45 0 0
15.6 0 0
15.75 0 0
15.9 0 0
16.05 0 0
16.2 0 0
16.35 0 0
16.5 0 0
16.65 0 0
16.8 0 0
16.95 0 0
17.1 0 0
17.25 0 0
17.4 0 0
17.55 0 0
17.7 0 0
17.85 0 0
18 0 0
18.15 0 0
18.3 0 0
18.45 0 0
18.6 0 0
18.75 0 0
18.9 0 0
19.05 0 0
19.2 0 0
19.35 0 0
19.5 0 0
19.65 0 0
19.8 0 0
19.95 0 0
20.1 0 0
20.25 0 0
20.4 0 0
20.55 0 0
20.7 0 0
20.85 0 0
21 0 0
21.15 0 0
21.3 0 0
21.45 0 0
21.6 0 0
21.75 0 0
21.9 0 0
22.05 0 0
22.2 0 0
22.35 0 0
22.5 0 0
22.65 0 0
22.8 0 0
22.95 0 0
23.1 0 0
23.25 0 0
23.4 0 0
23.55 0 0
23.7 0 0
23.85 0 0
24 0 0
24.15 0 0
24.3 0 0
24.45 0 0
24.6 0 0
24.75 0 0
24.9 0 0
25.05 0 0
25.2 0 0
25.35 0 0
25.5 0 0
25.65 0 0
25.8 0 0
25.95 0 0
26.1 0 0
26.25 0 0
26.4 0 0
26.55 0 0
26.7 0 0
26.85 0 0
27 0 0
27.15 0 0
27.3 0 0
27.45 0 0
27.6 0 0
27.75 0 0
27.9 0 0
28.05 0 0
28.2 0 0
28.35 0 0
28.5 0 0
28.65 0 0
28.8 0 0
28.95 0 0
29.1 0 0
29.25 0 0
29.4 0 0
29.55 0 0
29.7 0 0
29.85 0 0
0 0.075 0
0.15 0.075 0
0.3 0.075 0
0.45 0.075 0
0.6 0.075 0
0.75 0.075 0
0.9 0.075 0
1.05 0.075 0
1.2 0.075 0
1.35 0.075 0
1.5 0.075 0
1.65 0.075 0
1.8 0.075 0
1.95 0.075 0
2.1 0.075 0
2.25 0.075 0
2.4 0.075 0
2.55 0.075 0
2.7 0.075 0
2.85 0.075 0
3 0.075 0
3.15 0.075 0
3.3 0.075 0
3.45 0.075 0
3.6 0.075 0
3.75 0.075 0
3.9 0.075 0
4.05 0.075 0
4.2 0.075 0
4.35 0.075 0
4.5 0.075 0
4.65 0.075 0
4.8 0.075 0
4.95 0.075 0
5.1 0.075 0
5.25 0.075 0
5.4 0.075 0
5.55 0.075 0
5.7 0.075 0
5.85 0.075 0
6 0.075 0
6.15 0.075 0
6.3 0.075 0
6.45 0.075 0
6.6 0.075 0
6.75 0.075 0
6.9 0.075 0
7.05 0.075 0
7.2 0.075 0
7.35 0.075 0
7.5 0.075 0
7.65 0.075 0
7.8 0.075 0
7.95 0.075 0
8.1 0.075 0
8.25 0.075 0
8.4 0.075 0
8.55 0.075 0
8.7 0.075 0
8.85 0.075 0
9 0.075 0
9.15 0.075 0
9.3 0.075 0
9.45 0.075 0
9.6 0.075 0
9.75 0.075 0
9.9 0.075 0
10.05 0.075 0
10.2 0.075 0
10.35 0.075 0
10.5 0.075 0
10.65 0.075 0
10.8 0.075 0
10.95 0.075 0
11.1 0.075 0
11.25 0.075 0
11.4 0.075 0
11.55 0.075 0
11.7 0.075 0
11.85 0.075 0
12 0.075 0
12.15 0.075 0
12.3 0.075 0
12.45 0.075 0
12.6 0.075 0
12.75 0.075 0
12.9 0.075 0
13.05 0.075 0
13.2 0.075 0
13.35 0.075 0
13.5 0.075 0
13.65 0.075 0
13.8 0.075 0
13.95 0.075 0
14.1 0.075 0
14.25 0.075 0
14.4 0.075 0
14.55 0.075 0
14.7 0.075 0
14.85 0.075 0
15 0.075 0
15.15 0.075 0
15.3 0.075 0
15.45 0.075 0
15.6 0.075 0
15.75 0.075 0
15.9 0.075 0
16.05 0.075 0
16.2 0.075 0
16.35 0.075 0
16.5 0.075 0
16.65 0.075 0
16.8 0.075 0
16.95 0.075 0
17.1 0.075 0
17.25 0.075 0
17.4 0.075 0
17.55 0.075 0
17.7 0.075 0
17.85 0.075 0
18 0.075 0
18.15 0.075 0
18.3 0.075 0
18.45 0.075 0
18.6 0.075 0
18.75 0.075 0
18.9 0.075 0
19.05 0.075 0
19.2 0.075 0
19.35 0.075 0
19.5 0.075 0
19.65 0.075 0
19.8 0.075 0
19.95 0.075 0
20.1 0.075 0
20.25 0.075 0
20.4 0.075 0
20.55 0.075 0
20.7 0.075 0
20.85 0.075 0
21 0.075 0
21.15 0.075 0
21.3 0.075 0
21.45 0.075 0
21.6 0.075 0
21.75 0.075 0
21.9 0.075 0
22.05 0.075 0
22.2 0.075 0
22.35 0.075 0
22.5 0.075 0
22.65 0.075 0
22.8 0.075 0
22.95 0.075 0
23.1 0.075 0
23.25 0.075 0
23.4 0.075 0
23.55 0.075 0
23.7 0.075 0
23.85 0.075 0
24 0.075 0
24.15 0.075 0
24.3 0.075 0
24.45 0.075 0
24.6 0.075 0
24.75 0.075 0
24.9 0.075 0
25.05 0.075 0
25.2 0.075 0
25.35 0.075 0
25.5 0.075 0
25.65 0.075 0
25.8 0.075 0
25.95 0.075 0
26.1 0.075 0
26.25 0.075 0
26.4 0.075 0
26.55 0.075 0
26.7 0.075 0
26.85 0.075 0
27 0.075 0
27.15 0.075 0
27.3 0.075 0
27.45 0.075 0
27.6 0.075 0
27.75 0.075 0
27.9 0.075 0
28.05 0.075 0
28.2 0.075 0
28.35 0.075 0
28.5 0.075 0
28.65 0.075 0
28.8 0.075 0
28.95 0.075 0
29.1 0.075 0
29.25 0.075 0
29.4 0.075 0
29.55 0.075 0
29.7 0.075 0
29.85 0.075 0
0 0.15 0
0.15 0.15 0
0.3 0.15 0
0.45 0.15 0
0.6 0.15 0
0.75 0.15 0
0.9 0.15 0
1.05 0.15 0
1.2 0.15 0
1.35 0.15 0
1.5 0.15 0
1.65 0.15 0
1.8 0.15 0
1.95 0.15 0
2.1 0.15 0
2.25 0.15 0
2.4 0.15 0
2.55 0.15 0
2.7 0.15 0
2.85 0.15 0
3 0.15 0
3.15 0.15 0
3.3 0.15 0
3.45 0.15 0
3.6 0.15 0
3.75 0.15 0
3.9 0.15 0
4.05 0.15 0
4.2 0.15 0
4.35 0.15 0
4.5 0.15 0
4.65 0.15 0
4.8 0.15 0
4.95 0.15 0
5.1 0.15 0
5.25 0.15 0
5.4 0.15 0
5.55 0.15 0
5.7 0.15 0
5.85 0.15 0
6 0.15 0
6.15 0.15 0
6.3 0.15 0
6.45 0.15 0
6.6 0.15 0
6.75 0.15 0
6.9 0.15 0
7.05 0.15 0
7.2 0.15 0
7.35 0.15 0
7.5 0.15 0
7.65 0.15 0
7.8 0.15 0
7.95 0.15 0
8.1 0.15 0
8.25 0.15 0
8.4 0.15 0
8.55 0.15 0
8.7 0.15 0
8.85 0.15 0
9 0.15 0
9.15 0.15 0
9.3 0.15 0
9.45 0.15 0
9.6 0.15 0
9.75 0.15 0
9.9 0.15 0
10.05 0.15 0
10.2 0.15 0
10.35 0.15 0
10.5 0.15 0
10.65 0.15 0
10.8 0.15 0
10.95 0.15 0
11.1 0.15 0
11.25 0.15 0
11.4 0.15 0
11.55 0.15 0
11.7 0.15 0
11.85 0.15 0
12 0.15 0
12.15 0.15 0
12.3 0.15 0
12.45 0.15 0
12.6 0.15 0
12.75 0.15 0
12.9 0.15 0
13.05 0.15 0
13.2 0.15 0
13.35 0.15 0
13.5 0.15 0
13.65 0.15 0
13.8 0.15 0
13.95 0.15 0
14.1 0.15 0
14.25 0.15 0
14.4 0.15 0
14.55 0.15 0
14.7 0.15 0
14.85 0.15 0
15 0.15 0
15.15 0.15 0
15.3 0.15 0
15.45 0.15 0
15.6 0.15 0
15.75 0.15 0
15.9 0.15 0
16.05 0.15 0
16.2 0.15 0
16.35 0.15 0
16.5 0.15 0
16.65 0.15 0
16.8 0.15 0
16.95 0.15 0
17.1 0.15 0
17.25 0.15 0
17.4 0.15 0
17.55 0.15 0
17.7 0.15 0
17.85 0.15 0
18 0.15 0
18.15 0.15 0
18.3 0.15 0
18.45 0.15 0
18.6 0.15 0
18.75 0.15 0
18.9 0.15 0
19.05 0.15 0
19.2 0.15 0
19.35 0.15 0
19.5 0.15 0
19.65 0.15 0
19.8 0.15 0
19.95 0.15 0
20.1 0.15 0
20.25 0.15 0
20.4 0.15 0
20.55 0.15 0
20.7 0.15 0
20.85 0.15 0
21 0.15 0
21.15 0.15 0
21.3 0.15 0
21.45 0.15 0
21.6 0.15 0
21.75 0.15 0
21.9 0.15 0
22.05 0.15 0
22.2 0.15 0
22.35 0.15 0
22.5 0.15 0
22.65 0.15 0
22.8 0.15 0
22.95 0.15 0
23.1 0.15 0
23.25 0.15 0
23.4 0.15 0
23.55 0.15 0
23.7 0.15 0
23.85 0.15 0
24 0.15 0
24.15 0.15 0
24.3 0.15 0
24.45 0.15 0
24.6 0.15 0
24.75 0.15 0
24.9 0.15 0
25.05 0.15 0
25.2 0.15 0
25.35 0.15 0
25.5 0.15 0
25.65 0.15 0
25.8 0.15 0
25.95 0.15 0
26.1 0.15 0
26.25 0.15 0
26.4 0.15 0
26.55 0.15 0
26.7 0.15 0
26.85 0.15 0
27 0.15 0
27.15 0.15 0
27.3 0.15 0
27.45 0.15 0
27.6 0.15 0
27.75 0.15 0
27.9 0.15 0
28.05 0.15 0
28.2 0.15 0
28.35 0.15 0
28.5 0.15 0
28.65 0.15 0
28.8 0.15 0
28.95 0.15 0
29.1 0.15 0
29.25 0.15 0
29.4 0.15 0
29.55 0.15 0
29.7 0.15 0
29.85 0.15 0
0 0.225 0
0.15 0.225 0
0.3 0.225 0
0.45 0.225 0
0.6 0.225 0
0.75 0.225 0
0.9 0.225 0
1.05 0.225 0
1.2 0.225 0
1.35 0.225 0
1.5 0.225 0
1.65 0.225 0
1.8 0.225 0
1.95 0.225 0
2.1 0.225 0
2.25 0.225 0
2.4 0.225 0
2.55 0.225 0
2.7 0.225 0
2.85 0.225 0
3 0.225 0
3.15 0.225 0
3.3 0.225 0
3.45 0.225 0
3.6 0.225 0
3.75 0.225 0
3.9 0.225 0
4.05 0.225 0
4.2 0.225 0
4.35 0.225 0
4.5 0.225 0
4.65 0.225 0
4.8 0.225 0
4.95 0.225 0
5.1 0.225 0
5.25 0.225 0
5.4 0.225 0
5.55 0.225 0
5.7 0.225 0
5.85 0.225 0
6 0.225 0
6.15 0.225 0
6.3 0.225 0
6.45 0.225 0
6.6 0.225 0
6.75 0.225 0
6.9 0.225 0
7.05 0.225 0
7.2 0.225 0
7.35 0.225 0
7.5 0.225 0
7.65 0.225 0
7.8 0.225 0
7.95 0.225 0
8.1 0.225 0
8.25 0.225 0
8.4 0.225 0
8.55 0.225 0
8.7 0.225 0
8.85 0.225 0
9 0.225 0
9.15 0.225 0
9.3 0.225 0
9.45 0.225 0
9.6 0.225 0
9.75 0.225 0
9.9 0.225 0
10.05 0.225 0
10.2 0.225 0
10.35 0.225 0
10.5 0.225 0
10.65 0.225 0
10.8 0.225 0
10.95 0.225 0
11.1 0.225 0
11.25 0.225 0
11.4 0.225 0
11.55 0.225 0
11.7 0.225 0
11.85 0.225 0
12 0.225 0
12.15 0.225 0
12.3 0.225 0
12.45 0.225 0
12.6 0.225 0
12.75 0.225 0
12.9 0.225 0
13.05 0.225 0
13.2 0.225 0
13.35 0.225 0
13.5 0.225 0
13.65 0.225 0
13.8 0.225 0
13.95 0.225 0
14.1 0.225 0
14.25 0.225 0
14.4 0.225 0
14.55 0.225 0
14.7 0.225 0
14.85 0.225 0
15 0.225 0
15.15 0.225 0
15.3 0.225 0
15.45 0.225 0
15.6 0.225 0
15.75 0.225 0
15.9 0.225 0
16.05 0.225 0
16.2 0.225 0
16.35 0.225 0
16.5 0.225 0
16.65 0.225 0
16.8 0.225 0
16.95 0.225 0
17.1 0.225 0
17.25 0.225 0
17.4 0.225 0
17.55 0.225 0
17.7 0.225 0
17.85 0.225 0
18 0.225 0
18.15 0.225 0
18.3 0.225 0
18.45 0.225 0
18.6 0.225 0
18.75 0.225 0
18.9 0.225 0
19.05 0.225 0
19.2 0.225 0
19.35 0.225 0
19.5 0.225 0
19.65 0.225 0
19.8 0.225 0
19.95 0.225 0
20.1 0.225 0
20.25 0.225 0
20.4 0.225 0
20.55 0.225 0
20.7 0.225 0
20.85 0.225 0
21 0.225 0
21.15 0.225 0
21.3 0.225 0
21.45 0.225 0
21.6 0.225 0
21.75 0.225 0
21.9 0.225 0
22.05 0.225 0
22.2 0.225 0
22.35 0.225 0
22.5 0.225 0
22.65 0.225 0
22.8 0.225 0
22.95 0.225 0
23.1 0.225 0
23.25 0.225 0
23.4 0.225 0
23.55 0.225 0
23.7 0.225 0
23.85 0.225 0
24 0.225 0
24.15 0.225 0
24.3 0.225 0
24.45 0.225 0
24.6 0.225 0
24.75 0.225 0
24.9 0.225 0
25.05 0.225 0
25.2 0.225 0
25.35 0.225 0
25.5 0.225 0
25.65 0.225 0
25.8 0.225 0
25.95 0.225 0
26.1 0.225 0
26.25 0.225 0
26.4 0.225 0
26.55 0.225 0
26.7 0.225 0
26.85 0.225 0
27 0.225 0
27.15 0.225 0
27.3 0.225 0
27.45 0.225 0
27.6 0.225 0
27.75 0.225 0
27.9 0.225 0
28.05 0.225 0
28.2 0.225 0
28.35 0.225 0
28.5 0.225 0
28.65 0.225 0
28.8 0.225 0
28.95 0.225 0
29.1 0.225 0
29.25 0.225 0
29.4 0.225 0
29.55 0.225 0
29.7 0.225 0
29.85 0.225 0
0 0.3 0
0.15 0.3 0
0.3 0.3 0
0.45 0.3 0
0.6 0.3 0
0.75 0.3 0
0.9 0.3 0
1.05 0.3 0
1.2 0.3 0
1.35 0.3 0
1.5 0.3 0
1.65 0.3 0
1.8 0.3 0
1.95 0.3 0
2.1 0.3 0
2.25 0.3 0
2.4 0.3 0
2.55 0.3 0
2.7 0.3 0
2.85 0.3 0
3 0.3 0
3.15 0.3 0
3.3 0.3 0
3.45 0.3 0
3.6 0.3 0
3.75 0.3 0
3.9 0.3 0
4.05 0.3 0
4.2 0.3 0
4.35 0.3 0
4.5 0.3 0
4.65 0.3 0
4.8 0.3 0
4.95 0.3 0
5.1 0.3 0
5.25 0.3 0
5.4 0.3 0
5.55 0.3 0
5.7 0.3 0
5.85 0.3 0
6 0.3 0
6.15 0.3 0
[...]
POINT_DATA 40000

SCALARS p float 1
LOOKUP_TABLE default
20183.34741
20183.34741
20183.29207
20183.26448
20183.24635
20183.23378
20183.22698
20183.22724
20183.23468
20183.24743
20183.26253
20183.27746
20183.29086
20183.30251
20183.31271
20183.3215
20183.32877
20183.33472
20183.33953
20183.34207
20183.33916
20183.3287
20183.29689
20183.24202
20183.31291
20183.73801
20183.61928
20183.25465
20183.00899
20182.79213
20182.58058
20182.36742
20182.15038
20181.92856
20181.70131
20181.46789
20181.22722
20180.97774
20180.71712
20180.44167
20180.14489
20179.98762
20180.02986
20180.02293
20180.02386
20180.01235
20179.98553
20179.94067
20179.88151
20179.81172
20179.72928
20179.62954
20179.51006
20179.37714
20179.25148
20179.16681
20179.14131
20179.16002
20179.19711
20179.23538
20179.26414
20179.27296
20179.2721
20179.25267
20179.11306
20179.06466
20179.14251
20179.1486
20179.09862
20179.05709
20179.04243
20179.0602
20179.10543
20179.17557
20179.26784
20179.37839
20179.50941
20179.66192
20179.83427
20180.02727
20180.24125
20180.47462
20180.72693
20180.99673
20181.28348
20181.58621
20181.8977
20182.20065
20182.46943
20182.68277
20182.82969
20182.8917
20182.82177
20182.6432
20182.40452
20182.1674
20182.0206
20181.95284
20181.80338
20181.54121
20181.45361
20181.43808
20181.3813
20181.33034
20181.28807
20181.24843
20181.20829
20181.17403
20181.15547
20181.16491
20181.20307
20181.23845
20181.24281
20181.22037
20181.18732
20181.15342
20181.13128
20181.13991
20181.16353
20181.17112
20181.15973
20181.13726
20181.10348
20181.05306
20180.98304
20180.89697
20180.80122
20180.70126
20180.6016
20180.50542
20180.41519
20180.33358
20180.2627
20180.2037
20180.15738
20180.12443
20180.10524
20180.09983
20180.10791
20180.1289
20180.16211
20180.20655
20180.26088
20180.32402
20180.39518
20180.47281
20180.55502
20180.64047
20180.72817
20180.81723
20180.90618
20180.99449
20181.08056
20181.16441
20181.24479
20181.3218
20181.39488
20181.46385
20181.52856
20181.58895
20181.64508
20181.697
20181.74488
20181.78887
20181.8292
20181.86609
20181.89979
20181.93055
20181.95863
20181.98427
20182.00774
20182.02925
20182.04905
20182.06735
20182.08437
20182.10028
20182.11528
20182.12952
20182.14316
20182.15631
20182.16912
20182.18166
20182.19404
20182.20633
20182.21861
20182.23092
20182.24335
20182.2559
20182.26865
20182.28158
20182.29477
20182.30817
20182.32183
20182.33568
20182.34976
20182.36395
20182.37827
20182.3926
20182.4069
20182.4069
20183.34741
20183.34741
20183.29207
20183.26448
20183.24635
20183.23378
20183.22698
20183.22724
20183.23468
20183.24743
20183.26253
20183.27746
20183.29086
20183.30251
20183.31271
20183.3215
20183.32877
20183.33472
20183.33953
20183.34207
20183.33916
20183.3287
20183.29689
20183.24202
20183.31291
20183.73801
20183.61928
20183.25465
20183.00899
20182.79213
20182.58058
20182.36742
20182.15038
20181.92856
20181.70131
20181.46789
20181.22722
20180.97774
20180.71712
20180.44167
20180.14489
20179.98762
20180.02986
20180.02293
20180.02386
20180.01235
20179.98553
20179.94067
20179.88151
20179.81172
20179.72928
20179.62954
20179.51006
20179.37714
20179.25148
20179.16681
20179.14131
20179.16002
20179.19711
20179.23538
20179.26414
20179.27296
20179.2721
20179.25267
20179.11306
20179.06466
20179.14251
20179.1486
20179.09862
20179.05709
20179.04243
20179.0602
20179.10543
20179.17557
20179.26784
20179.37839
20179.50941
20179.66192
20179.83427
20180.02727
20180.24125
20180.47462
20180.72693
20180.99673
20181.28348
20181.58621
20181.8977
20182.20065
20182.46943
20182.68277
20182.82969
20182.8917
20182.82177
20182.6432
20182.40452
20182.1674
20182.0206
20181.95284
20181.80338
20181.54121
20181.45361
20181.43808
20181.3813
20181.33034
20181.28807
20181.24843
20181.20829
20181.17403
20181.15547
20181.16491
20181.20307
20181.23845
20181.24281
20181.22037
20181.18732
20181.15342
20181.13128
20181.13991
20181.16353
20181.17112
20181.15973
20181.13726
20181.10348
20181.05306
20180.98304
20180.89697
20180.80122
20180.70126
20180.6016
20180.50542
20180.41519
20180.33358
20180.2627
20180.2037
20180.15738
20180.12443
20180.10524
20180.09983
20180.10791
20180.1289
20180.16211
20180.20655
20180.26088
20180.32402
20180.39518
20180.47281
20180.55502
20180.64047
20180.72817
20180.81723
20180.90618
20180.99449
20181.08056
20181.16441
20181.24479
20181.3218
20181.39488
20181.46385
20181.52856
20181.58895
20181.64508
20181.697
20181.74488
20181.78887
20181.8292
20181.86609
20181.89979
20181.93055
20181.95863
20181.98427
20182.00774
20182.02925
20182.04905
20182.06735
20182.08437
20182.10028
20182.11528
20182.12952
20182.14316
20182.15631
20182.16912
20182.18166
20182.19404
20182.20633
20182.21861
20182.23092
20182.24335
20182.2559
20182.26865
20182.28158
20182.29477
20182.30817
20182.32183
20182.33568
20182.34976
20182.36395
20182.37827
20182.3926
20182.4069
20182.4069
20183.31479
20183.31479
20183.28298
20183.26
20183.2439
20183.23291
20183.22737
20183.22836
20183.23602
20183.24869
20183.26363
20183.27844
20183.29174
20183.30333
20183.31347
20183.32215
20183.32928
20183.33507
20183.33985
20183.34293
20183.34158
20183.3285
20183.27801
20183.20182
20183.22121
20183.52255
20183.48197
20183.22575
20183.00208
20182.79087
20182.58099
20182.36837
20182.15155
20181.92988
20181.70282
20181.46966
20181.22937
20180.98047
20180.72075
20180.44688
20180.1519
20180.01366
20180.02317
20180.02189
20180.0234
20180.0123
20179.98539
20179.94075
20179.88242
20179.81364
20179.73147
20179.6304
20179.50714
20179.36741
20179.23488
20179.14813
20179.12749
20179.1555
20179.19984
20179.24011
20179.26792
20179.27555
20179.27078
20179.26287
20179.13197
20179.05707
20179.10771
20179.11017
20179.06728
20179.03399
20179.02611
20179.04864
20179.09694
20179.16884
20179.26169
20179.3723
20179.50296
20179.65477
20179.82658
20180.01933
20180.23306
20180.46603
20180.71714
20180.98477
20181.26856
20181.5679
20181.87651
20182.17765
20182.44528
20182.6558
20182.7942
20182.85982
20182.79746
20182.6062
20182.3749
20182.15225
20181.99897
20181.91438
20181.75564
20181.5271
20181.46276
20181.43863
20181.37874
20181.32927
20181.28805
20181.24911
20181.20778
20181.17127
20181.14967
20181.15726
20181.19839
20181.2381
20181.24355
20181.22027
20181.18696
20181.15241
20181.12795
20181.13661
20181.16197
20181.16981
20181.15867
20181.13775
20181.10558
20181.05617
20180.98632
20180.89934
20180.80211
20180.70076
20180.60008
20180.50325
20180.4126
20180.33069
20180.25964
20180.20055
20180.15417
20180.12117
20180.10197
20180.0966
20180.10472
20180.12577
20180.15907
20180.2036
20180.25802
20180.32133
20180.39266
20180.47038
20180.55274
20180.63834
20180.72623
20180.81543
20180.90455
20180.99299
20181.07921
20181.16319
20181.24371
20181.32083
20181.39404
20181.46311
20181.52792
20181.58839
20181.6446
20181.69659
20181.74454
20181.78859
20181.82898
20181.86591
20181.89965
20181.93044
20181.95855
20181.98422
20182.00771
20182.02925
20182.04906
20182.06738
20182.0844
20182.10033
20182.11533
20182.12958
20182.14322
20182.15638
20182.16919
20182.18173
20182.19412
20182.2064
20182.21869
20182.231
20182.24343
20182.25598
20182.26873
20182.28166
20182.29484
20182.30825
20182.3219
20182.33576
20182.34982
20182.36402
20182.37833
20182.39265
20182.40692
20182.40692
20183.28907
20183.28907
20183.26972
20183.25201
20183.2387
20183.22979
20183.22579
20183.22755
20183.23517
20183.24742
20183.2621
20183.27706
20183.2909
20183.30313
20183.31374
20183.32263
20183.32982
20183.3356
20183.34058
20183.34453
20183.34392
20183.32461
20183.25267
20183.1692
20183.16412
20183.33134
20183.34341
20183.18879
20182.99244
20182.78939
20182.58211
20182.37038
20182.15394
20181.93256
20181.70586
20181.47322
20181.2337
20180.98592
20180.72796
20180.45719
20180.16601
20180.0288
20180.01974
20180.02317
20180.0235
20180.01291
20179.98605
20179.94167
20179.88484
20179.81853
20179.73778
20179.63464
20179.5034
20179.34848
20179.20022
20179.10723
20179.09481
20179.14083
20179.20138
20179.24832
20179.27309
20179.2799
20179.26083
20179.2251
20179.10902
20179.02319
20179.03
20179.02468
20178.99837
20178.98298
20178.99025
20179.02331
20179.07861
20179.15417
20179.24832
20179.35939
20179.48917
20179.63947
20179.81048
20180.00281
20180.21615
20180.44838
20180.69721
20180.96083
20181.23887
20181.53148
20181.83424
20182.13169
20182.39797
20182.60913
20182.73273
20182.78382
20182.73346
20182.53803
20182.31884
20182.12566
20181.96558
20181.84213
20181.68291
20181.49993
20181.42959
20181.40171
20181.36528
20181.32472
20181.28657
20181.24915
20181.20589
20181.16577
20181.13847
20181.1424
20181.18866
20181.23471
20181.23971
20181.21352
20181.1803
20181.14824
20181.12599
20181.13736
20181.16247
20181.16739
20181.156
20181.13744
20181.1058
20181.05389
20180.98078
20180.89125
20180.79232
20180.69005
20180.589
20180.49217
20180.40182
20180.32034
20180.24967
20180.19097
20180.14497
20180.11236
20180.09356
20180.08858
20180.09707
20180.11852
20180.15223
20180.19713
20180.25199
20180.31583
20180.38755
20180.46556
20180.54834
20180.63439
20180.72271
20180.81226
20180.90175
20180.9905
20181.07704
20181.16132
20181.24209
20181.31945
20181.39291
20181.46216
20181.52716
20181.58777
20181.64413
20181.69623
20181.74428
20181.78841
20181.82886
20181.86585
20181.89964
20181.93047
20181.9586
20181.98429
20182.00779
20182.02933
20182.04914
20182.06746
20182.08447
20182.10039
20182.11539
20182.12962
20182.14326
20182.1564
20182.1692
20182.18173
20182.19412
20182.2064
20182.21868
20182.231
20182.24342
20182.25598
20182.26873
20182.28167
20182.29486
20182.30828
20182.32195
20182.33584
20182.34993
20182.36416
20182.37849
20182.39281
20182.40706
20182.40706
20183.26836
20183.26836
20183.25606
20183.24271
20183.23202
20183.22498
20183.22227
20183.22455
20183.23189
20183.24342
20183.25748
20183.27235
20183.28673
20183.29994
20183.31165
20183.32158
20183.32959
20183.3359
20183.34128
20183.34581
20183.34446
20183.31935
20183.23742
20183.16718
20183.16635
20183.25115
20183.27015
20183.16236
20182.98524
20182.78924
20182.58444
20182.37359
20182.15757
20181.93658
20181.7104
20181.47853
20181.24012
20180.99396
20180.73846
20180.47179
20180.18308
20180.03986
20180.02121
20180.02547
20180.02396
20180.01356
20179.98698
20179.9433
20179.88884
20179.8264
20179.74823
20179.64234
20179.49855
20179.32089
20179.15074
20179.04954
20179.04727
20179.11489
20179.19637
20179.25179
20179.26647
20179.25048
20179.20552
20179.13597
20179.02637
20178.94385
20178.92814
20178.92298
20178.91578
20178.92071
20178.94523
20178.99075
20179.05404
20179.13356
20179.22908
20179.34013
20179.46833
20179.61653
20179.78613
20179.97771
20180.19059
20180.42214
20180.66866
20180.9274
20181.19754
20181.48011
20181.77308
20182.06347
20182.32536
20182.53779
20182.66209
20182.68489
20182.63031
20182.45498
20182.25583
20182.08483
20181.91812
20181.76443
20181.5969
20181.42768
20181.34435
20181.32099
20181.31663
20181.30456
20181.28101
20181.24782
20181.20249
20181.1575
20181.12021
20181.11623
20181.16872
20181.22383
20181.22732
20181.19626
20181.16433
20181.13943
20181.12754
20181.14559
20181.16765
20181.1664
20181.15297
20181.13295
20181.09692
20181.03921
20180.96168
20180.87004
20180.77075
20180.66916
20180.56911
20180.47334
20180.38418
20180.30386
20180.23413
20180.17619
20180.13094
20180.09906
20180.08094
20180.07657
20180.08565
20180.10772
20180.14203
20180.18748
20180.24297
20180.30754
20180.37985
20180.45834
20180.54168
20180.62834
20180.71731
20180.80735
20180.8974
20180.98656
20181.07358
20181.15827
20181.23942
20181.31717
20181.39096
20181.4605
20181.52576
20181.5866
20181.64317
20181.69545
20181.74366
20181.78791
20181.82848
20181.86556
20181.89942
20181.9303
20181.95848
20181.98421
20182.00772
20182.02928
20182.04909
20182.06741
20182.08442
20182.10032
20182.11531
20182.12953
20182.14315
20182.15628
20182.16908
20182.18159
20182.19398
20182.20625
20182.21854
20182.23085
20182.24329
20182.25586
20182.26863
20182.28161
20182.29483
20182.3083
20182.32203
20182.33597
20182.35014
20182.36444
20182.37885
20182.39319
20182.40749
20182.40749
20183.25087
20183.25087
20183.24278
20183.23288
20183.22451
20183.21907
20183.21736
20183.21994
20183.22687
20183.23751
20183.25065
20183.26499
20183.27945
20183.29333
20183.30617
20183.31752
20183.32704
20183.33471
20183.34091
20183.34537
20183.34228
20183.31541
20183.23669
20183.18257
20183.19086
20183.24175
20183.25305
20183.15288
20182.98382
20182.79169
20182.58841
20182.37814
20182.16247
20181.94191
20181.71639
20181.48551
20181.24853
20181.00444
20180.75194
20180.4901
20180.20266
20180.04986
20180.02379
20180.02638
20180.02471
20180.01453
20179.98856
20179.94611
20179.89487
20179.83745
20179.76294
20179.6538
20179.49369
20179.28933
20179.0947
20178.98365
20178.98987
20179.07656
20179.17329
20179.22563
20179.22007
20179.17405
20179.09906
20179.00806
20178.90743
20178.83624
20178.81654
20178.81859
20178.8299
20178.85432
20178.89556
20178.9538
20179.02508
20179.10821
20179.20458
20179.3147
20179.44039
20179.58552
20179.75283
20179.9432
20180.15572
20180.3872
20180.63238
20180.88666
20181.14805
20181.41806
20181.69717
20181.97736
20182.23245
20182.43743
20182.57416
20182.58386
20182.51075
20182.36399
20182.18348
20182.02802
20181.85751
20181.67727
20181.49639
20181.32714
20181.22987
20181.20155
20181.22277
20181.254
20181.26192
20181.24099
20181.19613
20181.14582
20181.09344
20181.07706
20181.13562
20181.2002
20181.20021
20181.16364
20181.13683
20181.12468
20181.13228
20181.16181
20181.17957
20181.16958
20181.14929
20181.12111
20181.07607
20181.01161
20180.93091
20180.839
20180.7411
20180.64148
20180.54333
20180.4493
20180.36179
20180.28289
20180.21431
20180.15734
20180.11297
20180.08194
20180.0646
20180.06093
20180.07071
20180.09353
20180.12856
20180.17468
20180.23094
20180.29637
20180.36942
20180.44861
20180.53259
20180.62
20180.7098
20180.8005
20180.89129
20180.98095
20181.06863
20181.15379
20181.23545
20181.31376
20181.38797
20181.4579
20181.5235
20181.58465
20181.64152
20181.69403
20181.74246
20181.7869
20181.82762
20181.86484
20181.8988
20181.92979
20181.95803
20181.98382
20182.00737
20182.02896
20182.04879
20182.06712
20182.08413
20182.10004
20182.11502
20182.12923
20182.14284
20182.15596
20182.16875
20182.18127
20182.19365
20182.20593
20182.21822
20182.23055
20182.243
20182.25561
20182.26842
20182.28145
20182.29474
20182.30829
20182.32212
20182.33618
20182.35048
20182.3649
20182.37944
20182.39388
20182.40829
20182.40829
20183.23549
20183.23549
20183.23004
20183.22277
20183.2164
20183.21235
20183.21147
20183.21426
20183.22076
20183.23052
20183.24265
20183.25617
20183.27023
20183.28422
20183.29769
20183.31018
20183.32126
20183.33062
20183.33799
20183.34224
20183.33759
20183.31261
20183.24842
20183.20994
20183.22627
20183.26862
20183.26959
20183.15932
20182.98929
20182.79742
20182.59429
20182.38409
20182.16862
20181.9485
20181.72376
20181.49407
20181.25881
20181.01716
20180.76808
20180.51172
20180.22511
20180.06064
20180.02671
20180.02668
20180.02603
20180.01645
20179.99147
20179.95087
20179.90354
20179.85201
20179.78196
20179.66954
20179.49299
20179.26461
20179.04774
20178.92433
20178.93106
20179.0237
20179.11916
20179.1573
20179.12823
20179.05445
20178.95877
20178.86082
20178.77212
20178.71531
20178.70203
20178.71582
20178.74513
20178.78759
20178.84429
20178.91468
20178.99352
20179.07968
20179.17601
20179.28387
20179.40557
20179.54611
20179.7096
20179.8977
20180.1097
20180.34187
20180.58748
20180.83932
20181.09304
20181.34998
20181.6122
20181.87764
20182.12741
20182.32144
20182.45487
20182.4792
20182.39635
20182.26467
20182.09974
20181.95391
20181.7832
20181.57727
20181.378
20181.20392
20181.0994
20181.06218
20181.09233
20181.16397
20181.21802
20181.22178
20181.1843
20181.13048
20181.06064
20181.03076
20181.09255
20181.15971
20181.1508
20181.10913
20181.09452
20181.10419
20181.13905
20181.18268
20181.19492
20181.17352
20181.14078
20181.0996
20181.0446
20180.97502
20180.89316
20180.80246
20180.70679
20180.60953
20180.51351
20180.42137
20180.33548
20180.25795
20180.19052
20180.13453
20180.09105
20180.06087
20180.04436
20180.04146
20180.05202
20180.07569
20180.11154
20180.15847
20180.21568
20180.28206
20180.35598
20180.43607
20180.52089
20180.60923
20180.69997
20180.79151
20180.88319
20180.9735
20181.06201
20181.1477
20181.23007
20181.30906
20181.38376
20181.45419
20181.52023
20181.58179
20181.63903
20181.69184
20181.74056
20181.78523
20181.82618
20181.86357
20181.89769
20181.92881
20181.95716
20181.98304
20182.00666
20182.02831
20182.04817
20182.06654
20182.08356
20182.09948
20182.11447
20182.12868
20182.1423
20182.15542
20182.16821
20182.18073
20182.19311
20182.20541
20182.21771
20182.23007
20182.24256
20182.25521
20182.26808
20182.28119
20182.29458
20182.30825
20182.32222
20182.33644
20182.35093
20182.36554
20182.38027
20182.39488
20182.40943
20182.40943
20183.22154
20183.22154
20183.2178
20183.21254
20183.20781
20183.20496
20183.20479
20183.20774
20183.21389
20183.22289
20183.23408
20183.24671
20183.2601
20183.27375
20183.28729
20183.30033
20183.31246
20183.32321
20183.33173
20183.33623
20183.33054
20183.30973
20183.26579
20183.24334
20183.2648
20183.30848
20183.30285
20183.17785
20183.00118
20182.80648
20182.60211
20182.39142
20182.17595
20181.95627
20181.73243
20181.50412
20181.27083
20181.03193
20180.78658
20180.53633
20180.25093
20180.07364
20180.03065
20180.02773
20180.02821
20180.01983
20179.99644
20179.95834
20179.91549
20179.87037
20179.80537
20179.69095
20179.50368
20179.26099
20179.02912
20178.89164
20178.88666
20178.96631
20179.0434
20179.05785
20179.00409
20178.90913
20178.8032
20178.70743
20178.63241
20178.59152
20178.59027
20178.61865
20178.66565
20178.72463
20178.79515
20178.87624
20178.96174
20179.05032
20179.14554
20179.24962
20179.36552
20179.49933
20179.65667
20179.84044
20180.05068
20180.28355
20180.53117
20180.78356
20181.03265
20181.27821
20181.52393
20181.76947
20182.008
20182.19992
20182.32399
20182.36116
20182.2806
20182.15333
20182.00799
20181.86466
20181.69088
20181.4621
20181.24214
20181.0627
20180.95657
20180.9149
20180.94377
20181.03978
20181.14251
20181.18459
20181.16515
20181.11286
20181.02913
20180.9893
20181.04964
20181.10678
20181.07974
20181.03178
20181.03528
20181.07776
20181.14415
20181.19973
20181.20422
20181.16954
20181.12238
20181.06863
20181.00605
20180.93359
20180.85187
20180.76284
20180.66932
20180.57415
20180.48005
20180.38956
20180.30507
20180.22876
20180.16241
20180.10736
20180.06476
20180.03546
20180.01982
20180.01777
20180.02924
20180.05386
20180.09064
20180.13858
20180.1969
20180.26434
20180.33931
20180.4205
20180.50639
20180.59584
20180.68761
20180.78022
20180.87292
20180.9641
20181.05355
20181.1399
20181.22319
20181.30292
20181.37822
20181.44927
20181.51585
20181.57791
20181.6356
20181.68879
20181.73787
20181.78285
20181.82406
20181.86169
20181.89601
20181.9273
20181.95578
20181.9818
20182.0055
20182.02724
20182.04716
20182.06559
20182.08265
20182.0986
20182.11361
20182.12785
20182.14148
20182.15462
20182.16742
20182.17995
20182.19236
20182.20467
20182.21701
20182.22941
20182.24195
20182.25466
20182.26761
20182.28082
20182.29434
20182.30816
20182.32231
20182.33674
20182.35146
20182.36633
20182.38131
20182.39615
20182.41087
20182.41087
20183.20856
20183.20856
20183.20598
20183.20222
20183.19885
20183.19701
20183.19744
20183.20055
20183.20641
20183.21478
20183.22516
20183.23694
20183.2496
20183.26271
20183.27596
20183.28904
20183.30162
20183.31316
20183.32256
20183.32788
20183.3225
20183.30833
20183.28296
20183.27588
20183.30342
20183.35153
20183.3427
20183.20443
20183.01819
20182.81843
20182.61167
20182.39998
20182.18436
20181.96513
20181.74228
20181.51552
20181.28443
20181.04854
20180.80713
20180.56357
20180.28046
20180.09
20180.03643
20180.0303
20180.03161
20180.02509
20180.00405
20179.96917
20179.93123
20179.89277
20179.83349
20179.72046
20179.53263
20179.28955
20179.05345
20178.90319
20178.87535
20178.92355
20178.96473
20178.94555
20178.86526
20178.75424
20178.64515
20178.55686
20178.49701
20178.47276
20178.48586
20178.52989
20178.59386
20178.66807
20178.75086
20178.84075
20178.93178
20179.02234
20179.1157
20179.21474
20179.32314