# vtk DataFile Version 2.0
FlowField
ASCII
DATASET STRUCTURED_GRID
DIMENSIONS 200 1 200
POINTS 40000 float
0 0 0
0.15 0 0
0.3 0 0
0.45 0 0
0.6 0 0
0.75 0 0
0.9 0 0
1.05 0 0
1.2 0 0
1.35 0 0
1.5 0 0
1.65 0 0
1.8 0 0
1.95 0 0
2.1 0 0
2.25 0 0
2.4 0 0
2.55 0 0
2.7 0 0
2.85 0 0
3 0 0
3.15 0 0
3.3 0 0
3.45 0 0
3.6 0 0
3.75 0 0
3.9 0 0
4.05 0 0
4.2 0 0
4.35 0 0
4.5 0 0
4.65 0 0
4.8 0 0
4.95 0 0
5.1 0 0
5.25 0 0
5.4 0 0
5.55 0 0
5.7 0 0
5.85 0 0
6 0 0
6.15 0 0
6.3 0 0
6.45 0 0
6.6 0 0
6.75 0 0
6.9 0 0
7.05 0 0
7.2 0 0
7.35 0 0
7.5 0 0
7.65 0 0
7.8 0 0
7.95 0 0
8.1 0 0
8.25 0 0
8.4 0 0
8.55 0 0
8.7 0 0
8.85 0 0
9 0 0
9.15 0 0
9.3 0 0
9.45 0 0
9.6 0 0
9.75 0 0
9.9 0 0
10.05 0 0
10.2 0 0
10.35 0 0
10.5 0 0
10.65 0 0
10.8 0 0
10.95 0 0
11.1 0 0
11.25 0 0
11.4 0 0
11.55 0 0
11.7 0 0
11.85 0 0
12 0 0
12.15 0 0
12.3 0 0
12.45 0 0
12.6 0 0
12.75 0 0
12.9 0 0
13.05 0 0
13.2 0 0
13.35 0 0
13.5 0 0
13.65 0 0
13.8 0 0
13.95 0 0
14.1 0 0
14.25 0 0
14.4 0 0
14.55 0 0
14.7 0 0
14.85 0 0
15 0 0
15.15 0 0
15.3 0 0
15.45 0 0
15.6 0 0
15.75 0 0
15.9 0 0
16.05 0 0
16.2 0 0
16.35 0 0
16.5 0 0
16.65 0 0
16.8 0 0
16.95 0 0
17.1 0 0
17.25 0 0
17.4 0 0
17.55 0 0
17.7 0 0
17.85 0 0
18 0 0
18.15 0 0
18.3 0 0
18.45 0 0
18.6 0 0
18.75 0 0
18.9 0 0
19.05 0 0
19.2 0 0
19.35 0 0
19.5 0 0
19.65 0 0
19.8 0 0
19.95 0 0
20.1 0 0
20.25 0 0
20.4 0 0
20.55 0 0
20.7 0 0
20.85 0 0
21 0 0
21.15 0 0
21.3 0 0
21.45 0 0
21.6 0 0
21.75 0 0
21.9 0 0
22.05 0 0
22.2 0 0
22.35 0 0
22.5 0 0
22.65 0 0
22.8 0 0
22.95 0 0
23.1 0 0
23.25 0 0
23.4 0 0
23.55 0 0
23.7 0 0
23.85 0 0
24 0 0
24.15 0 0
24.3 0 0
24.45 0 0
24.6 0 0
24.75 0 0
24.9 0 0
25.05 0 0
25.2 0 0
25.35 0 0
25.5 0 0
25.65 0 0
25.8 0 0
25.95 0 0
26.1 0 0
26.25 0 0
26.4 0 0
26.55 0 0
26.7 0 0
26.85 0 0
27 0 0
27.15 0 0
27.3 0 0
27.45 0 0
27.6 0 0
27.75 0 0
27.9 0 0
28.05 0 0
28.2 0 0
28.35 0 0
28.5 0 0
28.65 0 0
28.8 0 0
28.95 0 0
29.1 0 0
29.25 0 0
29.4 0 0
29.55 0 0
29.7 0 0
29.85 0 0
0 0.075 0
0.15 0.075 0
0.3 0.075 0
0.45 0.075 0
0.6 0.075 0
0.75 0.075 0
0.9 0.075 0
1.05 0.075 0
1.2 0.075 0
1.35 0.075 0
1.5 0.075 0
1.65 0.075 0
1.8 0.075 0
1.95 0.075 0
2.1 0.075 0
2.25 0.075 0
2.4 0.075 0
2.55 0.075 0
2.7 0.075 0
2.85 0.075 0
3 0.075 0
3.15 0.075 0
3.3 0.075 0
3.45 0.075 0
3.6 0.075 0
3.75 0.075 0
3.9 0.075 0
4.05 0.075 0
4.2 0.075 0
4.35 0.075 0
4.5 0.075 0
4.65 0.075 0
4.8 0.075 0
4.95 0.075 0
5.1 0.075 0
5.25 0.075 0
5.4 0.075 0
5.55 0.075 0
5.7 0.075 0
5.85 0.075 0
6 0.075 0
6.15 0.075 0
6.3 0.075 0
6.45 0.075 0
6.6 0.075 0
6.75 0.075 0
6.9 0.075 0
7.05 0.075 0
7.2 0.075 0
7.35 0.075 0
7.5 0.075 0
7.65 0.075 0
7.8 0.075 0
7.95 0.075 0
8.1 0.075 0
8.25 0.075 0
8.4 0.075 0
8.55 0.075 0
8.7 0.075 0
8.85 0.075 0
9 0.075 0
9.15 0.075 0
9.3 0.075 0
9.45 0.075 0
9.6 0.075 0
9.75 0.075 0
9.9 0.075 0
10.05 0.075 0
10.2 0.075 0
10.35 0.075 0
10.5 0.075 0
10.65 0.075 0
10.8 0.075 0
10.95 0.075 0
11.1 0.075 0
11.25 0.075 0
11.4 0.075 0
11.55 0.075 0
11.7 0.075 0
11.85 0.075 0
12 0.075 0
12.15 0.075 0
12.3 0.075 0
12.45 0.075 0
12.6 0.075 0
12.75 0.075 0
12.9 0.075 0
13.05 0.075 0
13.2 0.075 0
13.35 0.075 0
13.5 0.075 0
13.65 0.075 0
13.8 0.075 0
13.95 0.075 0
14.1 0.075 0
14.25 0.075 0
14.4 0.075 0
14.55 0.075 0
14.7 0.075 0
14.85 0.075 0
15 0.075 0
15.15 0.075 0
15.3 0.075 0
15.45 0.075 0
15.6 0.075 0
15.75 0.075 0
15.9 0.075 0
16.05 0.075 0
16.2 0.075 0
16.35 0.075 0
16.5 0.075 0
16.65 0.075 0
16.8 0.075 0
16.95 0.075 0
17.1 0.075 0
17.25 0.075 0
17.4 0.075 0
17.55 0.075 0
17.7 0.075 0
17.85 0.075 0
18 0.075 0
18.15 0.075 0
18.3 0.075 0
18.45 0.075 0
18.6 0.075 0
18.75 0.075 0
18.9 0.075 0
19.05 0.075 0
19.2 0.075 0
19.35 0.075 0
19.5 0.075 0
19.65 0.075 0
19.8 0.075 0
19.95 0.075 0
20.1 0.075 0
20.25 0.075 0
20.4 0.075 0
20.55 0.075 0
20.7 0.075 0
20.85 0.075 0
21 0.075 0
21.15 0.075 0
21.3 0.075 0
21.45 0.075 0
21.6 0.075 0
21.75 0.075 0
21.9 0.075 0
22.05 0.075 0
22.2 0.075 0
22.35 0.075 0
22.5 0.075 0
22.65 0.075 0
22.8 0.075 0
22.95 0.075 0
23.1 0.075 0
23.25 0.075 0
23.4 0.075 0
23.55 0.075 0
23.7 0.075 0
23.85 0.075 0
24 0.075 0
24.15 0.075 0
24.3 0.075 0
24.45 0.075 0
24.6 0.075 0
24.75 0.075 0
24.9 0.075 0
25.05 0.075 0
25.2 0.075 0
25.35 0.075 0
25.5 0.075 0
25.65 0.075 0
25.8 0.075 0
25.95 0.075 0
26.1 0.075 0
26.25 0.075 0
26.4 0.075 0
26.55 0.075 0
26.7 0.075 0
26.85 0.075 0
27 0.075 0
27.15 0.075 0
27.3 0.075 0
27.45 0.075 0
27.6 0.075 0
27.75 0.075 0
27.9 0.075 0
28.05 0.075 0
28.2 0.075 0
28.35 0.075 0
28.5 0.075 0
28.65 0.075 0
28.8 0.075 0
28.95 0.075 0
29.1 0.075 0
29.25 0.075 0
29.4 0.075 0
29.55 0.075 0
29.7 0.075 0
29.85 0.075 0
0 0.15 0
0.15 0.15 0
0.3 0.15 0
0.45 0.15 0
0.6 0.15 0
0.75 0.15 0
0.9 0.15 0
1.05 0.15 0
1.2 0.15 0
1.35 0.15 0
1.5 0.15 0
1.65 0.15 0
1.8 0.15 0
1.95 0.15 0
2.1 0.15 0
2.25 0.15 0
2.4 0.15 0
2.55 0.15 0
2.7 0.15 0
2.85 0.15 0
3 0.15 0
3.15 0.15 0
3.3 0.15 0
3.45 0.15 0
3.6 0.15 0
3.75 0.15 0
3.9 0.15 0
4.05 0.15 0
4.2 0.15 0
4.35 0.15 0
4.5 0.15 0
4.65 0.15 0
4.8 0.15 0
4.95 0.15 0
5.1 0.15 0
5.25 0.15 0
5.4 0.15 0
5.55 0.15 0
5.7 0.15 0
5.85 0.15 0
6 0.15 0
6.15 0.15 0
6.3 0.15 0
6.45 0.15 0
6.6 0.15 0
6.75 0.15 0
6.9 0.15 0
7.05 0.15 0
7.2 0.15 0
7.35 0.15 0
7.5 0.15 0
7.65 0.15 0
7.8 0.15 0
7.95 0.15 0
8.1 0.15 0
8.25 0.15 0
8.4 0.15 0
8.55 0.15 0
8.7 0.15 0
8.85 0.15 0
9 0.15 0
9.15 0.15 0
9.3 0.15 0
9.45 0.15 0
9.6 0.15 0
9.75 0.15 0
9.9 0.15 0
10.05 0.15 0
10.2 0.15 0
10.35 0.15 0
10.5 0.15 0
10.65 0.15 0
10.8 0.15 0
10.95 0.15 0
11.1 0.15 0
11.25 0.15 0
11.4 0.15 0
11.55 0.15 0
11.7 0.15 0
11.85 0.15 0
12 0.15 0
12.15 0.15 0
12.3 0.15 0
12.45 0.15 0
12.6 0.15 0
12.75 0.15 0
12.9 0.15 0
13.05 0.15 0
13.2 0.15 0
13.35 0.15 0
13.5 0.15 0
13.65 0.15 0
13.8 0.15 0
13.95 0.15 0
14.1 0.15 0
14.25 0.15 0
14.4 0.15 0
14.55 0.15 0
14.7 0.15 0
14.85 0.15 0
15 0.15 0
15.15 0.15 0
15.3 0.15 0
15.45 0.15 0
15.6 0.15 0
15.75 0.15 0
15.9 0.15 0
16.05 0.15 0
16.2 0.15 0
16.35 0.15 0
16.5 0.15 0
16.65 0.15 0
16.8 0.15 0
16.95 0.15 0
17.1 0.15 0
17.25 0.15 0
17.4 0.15 0
17.55 0.15 0
17.7 0.15 0
17.85 0.15 0
18 0.15 0
18.15 0.15 0
18.3 0.15 0
18.45 0.15 0
18.6 0.15 0
18.75 0.15 0
18.9 0.15 0
19.05 0.15 0
19.2 0.15 0
19.35 0.15 0
19.5 0.15 0
19.65 0.15 0
19.8 0.15 0
19.95 0.15 0
20.1 0.15 0
20.25 0.15 0
20.4 0.15 0
20.55 0.15 0
20.7 0.15 0
20.85 0.15 0
21 0.15 0
21.15 0.15 0
21.3 0.15 0
21.45 0.15 0
21.6 0.15 0
21.75 0.15 0
21.9 0.15 0
22.05 0.15 0
22.2 0.15 0
22.35 0.15 0
22.5 0.15 0
22.65 0.15 0
22.8 0.15 0
22.95 0.15 0
23.1 0.15 0
23.25 0.15 0
23.4 0.15 0
23.55 0.15 0
23.7 0.15 0
23.85 0.15 0
24 0.15 0
24.15 0.15 0
24.3 0.15 0
24.45 0.15 0
24.6 0.15 0
24.75 0.15 0
24.9 0.15 0
25.05 0.15 0
25.2 0.15 0
25.35 0.15 0
25.5 0.15 0
25.65 0.15 0
25.8 0.15 0
25.95 0.15 0
26.1 0.15 0
26.25 0.15 0
26.4 0.15 0
26.55 0.15 0
26.7 0.15 0
26.85 0.15 0
27 0.15 0
27.15 0.15 0
27.3 0.15 0
27.45 0.15 0
27.6 0.15 0
27.75 0.15 0
27.9 0.15 0
28.05 0.15 0
28.2 0.15 0
28.35 0.15 0
28.5 0.15 0
28.65 0.15 0
28.8 0.15 0
28.95 0.15 0
29.1 0.15 0
29.25 0.15 0
29.4 0.15 0
29.55 0.15 0
29.7 0.15 0
29.85 0.15 0
0 0.225 0
0.15 0.225 0
0.3 0.225 0
0.45 0.225 0
0.6 0.225 0
0.75 0.225 0
0.9 0.225 0
1.05 0.225 0
1.2 0.225 0
1.35 0.225 0
1.5 0.225 0
1.65 0.225 0
1.8 0.225 0
1.95 0.225 0
2.1 0.225 0
2.25 0.225 0
2.4 0.225 0
2.55 0.225 0
2.7 0.225 0
2.85 0.225 0
3 0.225 0
3.15 0.225 0
3.3 0.225 0
3.45 0.225 0
3.6 0.225 0
3.75 0.225 0
3.9 0.225 0
4.05 0.225 0
4.2 0.225 0
4.35 0.225 0
4.5 0.225 0
4.65 0.225 0
4.8 0.225 0
4.95 0.225 0
5.1 0.225 0
5.25 0.225 0
5.4 0.225 0
5.55 0.225 0
5.7 0.225 0
5.85 0.225 0
6 0.225 0
6.15 0.225 0
6.3 0.225 0
6.45 0.225 0
6.6 0.225 0
6.75 0.225 0
6.9 0.225 0
7.05 0.225 0
7.2 0.225 0
7.35 0.225 0
7.5 0.225 0
7.65 0.225 0
7.8 0.225 0
7.95 0.225 0
8.1 0.225 0
8.25 0.225 0
8.4 0.225 0
8.55 0.225 0
8.7 0.225 0
8.85 0.225 0
9 0.225 0
9.15 0.225 0
9.3 0.225 0
9.45 0.225 0
9.6 0.225 0
9.75 0.225 0
9.9 0.225 0
10.05 0.225 0
10.2 0.225 0
10.35 0.225 0
10.5 0.225 0
10.65 0.225 0
10.8 0.225 0
10.95 0.225 0
11.1 0.225 0
11.25 0.225 0
11.4 0.225 0
11.55 0.225 0
11.7 0.225 0
11.85 0.225 0
12 0.225 0
12.15 0.225 0
12.3 0.225 0
12.45 0.225 0
12.6 0.225 0
12.75 0.225 0
12.9 0.225 0
13.05 0.225 0
13.2 0.225 0
13.35 0.225 0
13.5 0.225 0
13.65 0.225 0
13.8 0.225 0
13.95 0.225 0
14.1 0.225 0
14.25 0.225 0
14.4 0.225 0
14.55 0.225 0
14.7 0.225 0
14.85 0.225 0
15 0.225 0
15.15 0.225 0
15.3 0.225 0
15.45 0.225 0
15.6 0.225 0
15.75 0.225 0
15.9 0.225 0
16.05 0.225 0
16.2 0.225 0
16.35 0.225 0
16.5 0.225 0
16.65 0.225 0
16.8 0.225 0
16.95 0.225 0
17.1 0.225 0
17.25 0.225 0
17.4 0.225 0
17.55 0.225 0
17.7 0.225 0
17.85 0.225 0
18 0.225 0
18.15 0.225 0
18.3 0.225 0
18.45 0.225 0
18.6 0.225 0
18.75 0.225 0
18.9 0.225 0
19.05 0.225 0
19.2 0.225 0
19.35 0.225 0
19.5 0.225 0
19.65 0.225 0
19.8 0.225 0
19.95 0.225 0
20.1 0.225 0
20.25 0.225 0
20.4 0.225 0
20.55 0.225 0
20.7 0.225 0
20.85 0.225 0
21 0.225 0
21.15 0.225 0
21.3 0.225 0
21.45 0.225 0
21.6 0.225 0
21.75 0.225 0
21.9 0.225 0
22.05 0.225 0
22.2 0.225 0
22.35 0.225 0
22.5 0.225 0
22.65 0.225 0
22.8 0.225 0
22.95 0.225 0
23.1 0.225 0
23.25 0.225 0
23.4 0.225 0
23.55 0.225 0
23.7 0.225 0
23.85 0.225 0
24 0.225 0
24.15 0.225 0
24.3 0.225 0
24.45 0.225 0
24.6 0.225 0
24.75 0.225 0
24.9 0.225 0
25.05 0.225 0
25.2 0.225 0
25.35 0.225 0
25.5 0.225 0
25.65 0.225 0
25.8 0.225 0
25.95 0.225 0
26.1 0.225 0
26.25 0.225 0
26.4 0.225 0
26.55 0.225 0
26.7 0.225 0
26.85 0.225 0
27 0.225 0
27.15 0.225 0
27.3 0.225 0
27.45 0.225 0
27.6 0.225 0
27.75 0.225 0
27.9 0.225 0
28.05 0.225 0
28.2 0.225 0
28.35 0.225 0
28.5 0.225 0
28.65 0.225 0
28.8 0.225 0
28.95 0.225 0
29.1 0.225 0
29.25 0.225 0
29.4 0.225 0
29.55 0.225 0
29.7 0.225 0
29.85 0.225 0
0 0.3 0
0.15 0.3 0
0.3 0.3 0
0.45 0.3 0
0.6 0.3 0
0.75 0.3 0
0.9 0.3 0
1.05 0.3 0
1.2 0.3 0
1.35 0.3 0
1.5 0.3 0
1.65 0.3 0
1.8 0.3 0
1.95 0.3 0
2.1 0.3 0
2.25 0.3 0
2.4 0.3 0
2.55 0.3 0
2.7 0.3 0
2.85 0.3 0
3 0.3 0
3.15 0.3 0
3.3 0.3 0
3.45 0.3 0
3.6 0.3 0
3.75 0.3 0
3.9 0.3 0
4.05 0.3 0
4.2 0.3 0
4.35 0.3 0
4.5 0.3 0
4.65 0.3 0
4.8 0.3 0
4.95 0.3 0
5.1 0.3 0
5.25 0.3 0
5.4 0.3 0
5.55 0.3 0
5.7 0.3 0
5.85 0.3 0
6 0.3 0
6.15 0.3 0
[...]
POINT_DATA 40000

SCALARS p float 1
LOOKUP_TABLE default
20026.16496
20026.16496
20026.10836
20026.07838
20026.05728
20026.04179
20026.03254
20026.03038
20026.03508
20026.04535
20026.05937
20026.07575
20026.09417
20026.11481
20026.13776
20026.16272
20026.18918
20026.21649
20026.24413
20026.27145
20026.29793
20026.32279
20026.34494
20026.3629
20026.38398
20026.44568
20026.371
20026.09603
20025.83539
20025.57657
20025.31606
20025.05269
20024.78568
20024.5143
20024.2379
20023.95491
20023.6639
20023.36144
20023.04162
20022.69089
20022.27711
20022.06351
20022.13597
20022.00394
20021.88384
20021.78637
20021.6593
20021.46661
20021.28242
20021.20413
20021.26835
20021.45926
20021.73869
20022.06953
20022.41077
20022.73298
20023.02609
20023.28053
20023.496
20023.67464
20023.82028
20023.93747
20024.03083
20024.10477
20024.16323
20024.20958
20024.2466
20024.27651
20024.30106
20024.32155
20024.33898
20024.35406
20024.36735
20024.37923
20024.38998
20024.39982
20024.40889
20024.41732
20024.42518
20024.43255
20024.43948
20024.446
20024.45215
20024.45795
20024.46344
20024.46862
20024.47352
20024.47815
20024.48252
20024.48664
20024.49053
20024.4942
20024.49765
20024.50089
20024.50394
20024.5068
20024.50948
20024.51198
20024.51431
20024.51648
20024.51849
20024.52036
20024.52207
20024.52365
20024.5251
20024.52641
20024.5276
20024.52867
20024.52963
20024.53047
20024.5312
20024.53183
20024.53235
20024.53278
20024.53311
20024.53336
20024.53351
20024.53358
20024.53356
20024.53347
20024.53329
20024.53304
20024.53272
20024.53233
20024.53187
20024.53134
20024.53074
20024.53009
20024.52937
20024.52859
20024.52776
20024.52687
20024.52592
20024.52493
20024.52388
20024.52278
20024.52163
20024.52044
20024.51919
20024.51791
20024.51658
20024.5152
20024.51379
20024.51233
20024.51083
20024.5093
20024.50773
20024.50612
20024.50447
20024.50279
20024.50107
20024.49932
20024.49754
20024.49573
20024.49388
20024.492
20024.4901
20024.48816
20024.48619
20024.4842
20024.48218
20024.48013
20024.47805
20024.47595
20024.47382
20024.47166
20024.46949
20024.46728
20024.46506
20024.46281
20024.46054
20024.45824
20024.45592
20024.45359
20024.45123
20024.44885
20024.44645
20024.44402
20024.44158
20024.43913
20024.43665
20024.43415
20024.43164
20024.42911
20024.42655
20024.42399
20024.42141
20024.41882
20024.4162
20024.41358
20024.41093
20024.40828
20024.40561
20024.40294
20024.40025
20024.39755
20024.39485
20024.39215
20024.38949
20024.38949
20026.16496
20026.16496
20026.10836
20026.07838
20026.05728
20026.04179
20026.03254
20026.03038
20026.03508
20026.04535
20026.05937
20026.07575
20026.09417
20026.11481
20026.13776
20026.16272
20026.18918
20026.21649
20026.24413
20026.27145
20026.29793
20026.32279
20026.34494
20026.3629
20026.38398
20026.44568
20026.371
20026.09603
20025.83539
20025.57657
20025.31606
20025.05269
20024.78568
20024.5143
20024.2379
20023.95491
20023.6639
20023.36144
20023.04162
20022.69089
20022.27711
20022.06351
20022.13597
20022.00394
20021.88384
20021.78637
20021.6593
20021.46661
20021.28242
20021.20413
20021.26835
20021.45926
20021.73869
20022.06953
20022.41077
20022.73298
20023.02609
20023.28053
20023.496
20023.67464
20023.82028
20023.93747
20024.03083
20024.10477
20024.16323
20024.20958
20024.2466
20024.27651
20024.30106
20024.32155
20024.33898
20024.35406
20024.36735
20024.37923
20024.38998
20024.39982
20024.40889
20024.41732
20024.42518
20024.43255
20024.43948
20024.446
20024.45215
20024.45795
20024.46344
20024.46862
20024.47352
20024.47815
20024.48252
20024.48664
20024.49053
20024.4942
20024.49765
20024.50089
20024.50394
20024.5068
20024.50948
20024.51198
20024.51431
20024.51648
20024.51849
20024.52036
20024.52207
20024.52365
20024.5251
20024.52641
20024.5276
20024.52867
20024.52963
20024.53047
20024.5312
20024.53183
20024.53235
20024.53278
20024.53311
20024.53336
20024.53351
20024.53358
20024.53356
20024.53347
20024.53329
20024.53304
20024.53272
20024.53233
20024.53187
20024.53134
20024.53074
20024.53009
20024.52937
20024.52859
20024.52776
20024.52687
20024.52592
20024.52493
20024.52388
20024.52278
20024.52163
20024.52044
20024.51919
20024.51791
20024.51658
20024.5152
20024.51379
20024.51233
20024.51083
20024.5093
20024.50773
20024.50612
20024.50447
20024.50279
20024.50107
20024.49932
20024.49754
20024.49573
20024.49388
20024.492
20024.4901
20024.48816
20024.48619
20024.4842
20024.48218
20024.48013
20024.47805
20024.47595
20024.47382
20024.47166
20024.46949
20024.46728
20024.46506
20024.46281
20024.46054
20024.45824
20024.45592
20024.45359
20024.45123
20024.44885
20024.44645
20024.44402
20024.44158
20024.43913
20024.43665
20024.43415
20024.43164
20024.42911
20024.42655
20024.42399
20024.42141
20024.41882
20024.4162
20024.41358
20024.41093
20024.40828
20024.40561
20024.40294
20024.40025
20024.39755
20024.39485
20024.39215
20024.38949
20024.38949
20026.13284
20026.13284
20026.0999
20026.07471
20026.05576
20026.0418
20026.03355
20026.0318
20026.03642
20026.04637
20026.06003
20026.07612
20026.09435
20026.11491
20026.13788
20026.1629
20026.18947
20026.21689
20026.24466
20026.27213
20026.29876
20026.32385
20026.34608
20026.36228
20026.37031
20026.42901
20026.35208
20026.09259
20025.83514
20025.57721
20025.31698
20025.05372
20024.78691
20024.5158
20024.23961
20023.95714
20023.66682
20023.36591
20023.04944
20022.7064
20022.30535
20022.11525
20022.12763
20021.99769
20021.88935
20021.77417
20021.6149
20021.4068
20021.22426
20021.15387
20021.22713
20021.4271
20021.71521
20022.05174
20022.39654
20022.72306
20023.01835
20023.27486
20023.49199
20023.67197
20023.81865
20023.93657
20024.03041
20024.10462
20024.1632
20024.2096
20024.24661
20024.27651
20024.30103
20024.32149
20024.3389
20024.35398
20024.36725
20024.37913
20024.38988
20024.39972
20024.4088
20024.41723
20024.4251
20024.43247
20024.4394
20024.44593
20024.45208
20024.45789
20024.46338
20024.46857
20024.47347
20024.4781
20024.48247
20024.4866
20024.49049
20024.49416
20024.49761
20024.50086
20024.50391
20024.50677
20024.50945
20024.51195
20024.51428
20024.51645
20024.51847
20024.52033
20024.52205
20024.52363
20024.52508
20024.52639
20024.52758
20024.52865
20024.52961
20024.53045
20024.53118
20024.53181
20024.53234
20024.53276
20024.5331
20024.53334
20024.53349
20024.53356
20024.53355
20024.53345
20024.53328
20024.53303
20024.5327
20024.53231
20024.53185
20024.53132
20024.53073
20024.53007
20024.52935
20024.52858
20024.52774
20024.52685
20024.52591
20024.52491
20024.52386
20024.52276
20024.52162
20024.52042
20024.51918
20024.51789
20024.51656
20024.51519
20024.51377
20024.51232
20024.51082
20024.50928
20024.50771
20024.5061
20024.50446
20024.50277
20024.50106
20024.49931
20024.49753
20024.49571
20024.49387
20024.49199
20024.49008
20024.48814
20024.48618
20024.48418
20024.48216
20024.48011
20024.47803
20024.47593
20024.4738
20024.47165
20024.46947
20024.46727
20024.46504
20024.46279
20024.46052
20024.45823
20024.45591
20024.45357
20024.45121
20024.44883
20024.44643
20024.44401
20024.44157
20024.43911
20024.43663
20024.43414
20024.43162
20024.42909
20024.42654
20024.42398
20024.42139
20024.4188
20024.41618
20024.41356
20024.41091
20024.40826
20024.40559
20024.40292
20024.40023
20024.39754
20024.39484
20024.39212
20024.38947
20024.38947
20026.10798
20026.10798
20026.08772
20026.06816
20026.05237
20026.04071
20026.03395
20026.0328
20026.03729
20026.0467
20026.05979
20026.0755
20026.09354
20026.11404
20026.13704
20026.16214
20026.18882
20026.21637
20026.24429
20026.27191
20026.29867
20026.32378
20026.34523
20026.35732
20026.34207
20026.38224
20026.32519
20026.08786
20025.83501
20025.57832
20025.31856
20025.0556
20024.78909
20024.51847
20024.24282
20023.96124
20023.67237
20023.37423
20023.06397
20022.73589
20022.36774
20022.208
20022.17851
20022.02935
20021.89529
20021.72898
20021.51487
20021.28271
20021.1051
20021.05092
20021.14258
20021.36163
20021.6673
20022.01527
20022.36853
20022.70255
20023.00243
20023.26283
20023.48314
20023.66574
20023.81447
20023.9339
20024.02877
20024.10363
20024.1626
20024.2092
20024.24633
20024.27628
20024.30082
20024.3213
20024.33871
20024.3538
20024.36709
20024.37897
20024.38974
20024.39959
20024.40868
20024.41712
20024.425
20024.43238
20024.43932
20024.44586
20024.45202
20024.45784
20024.46333
20024.46853
20024.47343
20024.47807
20024.48244
20024.48657
20024.49047
20024.49414
20024.4976
20024.50085
20024.5039
20024.50676
20024.50944
20024.51194
20024.51427
20024.51645
20024.51846
20024.52033
20024.52205
20024.52363
20024.52507
20024.52639
20024.52758
20024.52865
20024.5296
20024.53044
20024.53118
20024.5318
20024.53233
20024.53276
20024.53309
20024.53333
20024.53349
20024.53355
20024.53354
20024.53344
20024.53327
20024.53302
20024.5327
20024.5323
20024.53184
20024.53131
20024.53072
20024.53006
20024.52935
20024.52857
20024.52773
20024.52684
20024.5259
20024.5249
20024.52385
20024.52275
20024.52161
20024.52041
20024.51917
20024.51788
20024.51655
20024.51518
20024.51376
20024.5123
20024.51081
20024.50927
20024.5077
20024.50609
20024.50444
20024.50276
20024.50105
20024.4993
20024.49751
20024.4957
20024.49385
20024.49197
20024.49007
20024.48813
20024.48616
20024.48417
20024.48215
20024.4801
20024.47802
20024.47592
20024.47379
20024.47163
20024.46946
20024.46725
20024.46503
20024.46278
20024.4605
20024.45821
20024.45589
20024.45355
20024.45119
20024.44881
20024.44641
20024.44399
20024.44155
20024.43909
20024.43661
20024.43412
20024.4316
20024.42907
20024.42652
20024.42396
20024.42137
20024.41878
20024.41616
20024.41354
20024.4109
20024.40824
20024.40557
20024.4029
20024.40021
20024.39751
20024.3948
20024.39209
20024.3894
20024.3894
20026.08835
20026.08835
20026.07535
20026.06051
20026.04775
20026.03832
20026.0331
20026.03268
20026.03718
20026.04613
20026.05866
20026.07394
20026.0917
20026.11201
20026.13487
20026.1599
20026.18659
20026.21417
20026.24212
20026.26974
20026.29638
20026.32102
20026.34082
20026.34932
20026.32028
20026.34502
20026.3066
20026.08555
20025.83598
20025.58023
20025.32093
20025.0584
20024.79236
20024.52236
20024.24759
20023.9672
20023.68033
20023.38589
20023.08337
20022.77415
20022.44695
20022.31807
20022.27198
20022.0984
20021.89731
20021.65304
20021.37905
20021.12085
20020.94595
20020.91005
20021.02542
20021.26873
20021.59699
20021.96143
20022.32691
20022.67004
20022.97659
20023.24242
20023.46736
20023.65392
20023.80588
20023.9278
20024.02447
20024.10059
20024.1604
20024.20756
20024.24506
20024.27527
20024.3
20024.32062
20024.33815
20024.35332
20024.36668
20024.37863
20024.38944
20024.39933
20024.40846
20024.41693
20024.42484
20024.43225
20024.43921
20024.44576
20024.45194
20024.45777
20024.46328
20024.46848
20024.4734
20024.47804
20024.48242
20024.48656
20024.49046
20024.49413
20024.49759
20024.50085
20024.5039
20024.50676
20024.50944
20024.51195
20024.51428
20024.51646
20024.51847
20024.52034
20024.52206
20024.52364
20024.52508
20024.5264
20024.52759
20024.52866
20024.52961
20024.53045
20024.53119
20024.53181
20024.53234
20024.53277
20024.5331
20024.53334
20024.53349
20024.53356
20024.53354
20024.53345
20024.53327
20024.53302
20024.5327
20024.53231
20024.53184
20024.53132
20024.53072
20024.53006
20024.52935
20024.52857
20024.52773
20024.52684
20024.5259
20024.5249
20024.52385
20024.52275
20024.5216
20024.52041
20024.51916
20024.51788
20024.51654
20024.51517
20024.51375
20024.5123
20024.5108
20024.50927
20024.50769
20024.50608
20024.50444
20024.50275
20024.50104
20024.49929
20024.4975
20024.49569
20024.49384
20024.49196
20024.49006
20024.48812
20024.48615
20024.48416
20024.48213
20024.48008
20024.47801
20024.4759
20024.47378
20024.47162
20024.46944
20024.46724
20024.46501
20024.46276
20024.46049
20024.4582
20024.45588
20024.45354
20024.45118
20024.4488
20024.4464
20024.44398
20024.44154
20024.43908
20024.4366
20024.4341
20024.43159
20024.42906
20024.4265
20024.42394
20024.42136
20024.41876
20024.41615
20024.41352
20024.41088
20024.40822
20024.40555
20024.40287
20024.40018
20024.39748
20024.39477
20024.39204
20024.38931
20024.38931
20026.07215
20026.07215
20026.06351
20026.0524
20026.04234
20026.0349
20026.03104
20026.03134
20026.03592
20026.04452
20026.05656
20026.07141
20026.0888
20026.10872
20026.1312
20026.15593
20026.18242
20026.20987
20026.23767
20026.26505
20026.29128
20026.31513
20026.33337
20026.34075
20026.31402
20026.3361
20026.3037
20026.08757
20025.83864
20025.58312
20025.32412
20025.06207
20024.79668
20024.52747
20024.25382
20023.9749
20023.69031
20023.4
20023.10545
20022.81467
20022.52343
20022.41495
20022.35791
20022.15763
20021.87892
20021.55381
20021.22122
20020.93304
20020.75539
20020.73734
20020.88127
20021.15387
20021.50847
20021.89344
20022.27366
20022.62713
20022.9416
20023.214
20023.44481
20023.63657
20023.79292
20023.91829
20024.01754
20024.09549
20024.1566
20024.20467
20024.24281
20024.27349
20024.29857
20024.31946
20024.33719
20024.35254
20024.36603
20024.37809
20024.38899
20024.39896
20024.40815
20024.41668
20024.42463
20024.43208
20024.43907
20024.44565
20024.45185
20024.4577
20024.46323
20024.46845
20024.47337
20024.47803
20024.48242
20024.48656
20024.49047
20024.49415
20024.49761
20024.50087
20024.50392
20024.50679
20024.50947
20024.51198
20024.51431
20024.51649
20024.5185
20024.52037
20024.52209
20024.52367
20024.52511
20024.52643
20024.52762
20024.52869
20024.52964
20024.53048
20024.53121
20024.53184
20024.53236
20024.53279
20024.53312
20024.53336
20024.53351
20024.53358
20024.53356
20024.53347
20024.53329
20024.53304
20024.53272
20024.53232
20024.53186
20024.53133
20024.53073
20024.53007
20024.52936
20024.52858
20024.52774
20024.52685
20024.5259
20024.52491
20024.52386
20024.52275
20024.52161
20024.52041
20024.51917
20024.51788
20024.51655
20024.51517
20024.51375
20024.5123
20024.5108
20024.50926
20024.50769
20024.50608
20024.50443
20024.50275
20024.50103
20024.49928
20024.4975
20024.49568
20024.49384
20024.49196
20024.49005
20024.48811
20024.48614
20024.48415
20024.48213
20024.48008
20024.478
20024.47589
20024.47377
20024.47161
20024.46943
20024.46723
20024.465
20024.46275
20024.46048
20024.45818
20024.45587
20024.45353
20024.45117
20024.44879
20024.44639
20024.44396
20024.44152
20024.43906
20024.43658
20024.43409
20024.43157
20024.42904
20024.42649
20024.42392
20024.42134
20024.41874
20024.41613
20024.4135
20024.41085
20024.4082
20024.40553
20024.40284
20024.40015
20024.39744
20024.39473
20024.392
20024.38921
20024.38921
20026.05822
20026.05822
20026.05234
20026.0441
20026.03633
20026.03063
20026.02798
20026.02893
20026.03363
20026.04197
20026.05357
20026.06798
20026.08491
20026.1043
20026.12619
20026.15036
20026.1764
20026.20349
20026.23094
20026.25787
20026.2835
20026.30649
20026.32388
20026.33215
20026.31683
20026.34285
20026.30852
20026.09315
20025.84298
20025.58699
20025.32811
20025.06658
20024.80199
20024.53377
20024.26141
20023.98418
20023.70198
20023.41566
20023.12814
20022.85227
20022.58243
20022.47776
20022.40813
20022.18084
20021.83311
20021.43686
20021.04869
20020.72638
20020.54008
20020.53891
20020.71637
20021.02432
20021.4089
20021.81695
20022.2129
20022.57682
20022.89923
20023.17858
20023.41607
20023.61408
20023.77586
20023.9056
20024.00817
20024.08854
20024.15137
20024.20067
20024.2397
20024.27104
20024.29662
20024.31789
20024.33593
20024.35151
20024.3652
20024.37742
20024.38845
20024.39852
20024.4078
20024.4164
20024.42441
20024.4319
20024.43894
20024.44555
20024.45178
20024.45766
20024.4632
20024.46844
20024.47338
20024.47804
20024.48244
20024.4866
20024.49051
20024.49419
20024.49766
20024.50092
20024.50398
20024.50685
20024.50953
20024.51204
20024.51437
20024.51655
20024.51856
20024.52043
20024.52215
20024.52373
20024.52517
20024.52648
20024.52767
20024.52874
20024.52969
20024.53053
20024.53126
20024.53188
20024.53241
20024.53283
20024.53316
20024.5334
20024.53355
20024.53362
20024.5336
20024.5335
20024.53332
20024.53307
20024.53274
20024.53235
20024.53188
20024.53135
20024.53076
20024.5301
20024.52938
20024.5286
20024.52776
20024.52687
20024.52592
20024.52492
20024.52387
20024.52277
20024.52162
20024.52042
20024.51918
20024.51789
20024.51655
20024.51518
20024.51376
20024.5123
20024.5108
20024.50927
20024.50769
20024.50608
20024.50443
20024.50275
20024.50103
20024.49928
20024.4975
20024.49568
20024.49383
20024.49196
20024.49005
20024.48811
20024.48614
20024.48414
20024.48212
20024.48007
20024.47799
20024.47589
20024.47376
20024.4716
20024.46942
20024.46722
20024.46499
20024.46274
20024.46047
20024.45817
20024.45586
20024.45352
20024.45116
20024.44877
20024.44637
20024.44395
20024.44151
20024.43905
20024.43657
20024.43407
20024.43156
20024.42902
20024.42647
20024.42391
20024.42132
20024.41872
20024.41611
20024.41348
20024.41083
20024.40817
20024.4055
20024.40282
20024.40012
20024.39741
20024.39468
20024.39195
20024.38913
20024.38913
20026.04585
20026.04585
20026.04178
20026.03572
20026.02987
20026.02567
20026.02408
20026.0256
20026.03045
20026.03858
20026.0498
20026.06376
20026.08018
20026.09895
20026.1201
20026.14353
20026.16887
20026.19537
20026.22226
20026.24853
20026.27346
20026.29561
20026.31276
20026.32266
20026.32016
20026.35228
20026.31515
20026.10043
20025.84852
20025.59169
20025.33284
20025.07191
20024.80829
20024.54126
20024.27029
20023.99487
20023.71506
20023.43219
20023.14993
20022.88424
20022.62056
20022.50192
20022.41456
20022.16269
20021.76154
20021.30756
20020.86663
20020.50307
20020.30019
20020.31584
20020.53351
20020.88524
20021.30516
20021.73854
20022.1503
20022.52342
20022.85236
20023.13795
20023.3822
20023.58709
20023.75515
20023.89009
20023.99663
20024.07993
20024.14487
20024.19569
20024.23584
20024.268
20024.29422
20024.31599
20024.33441
20024.3503
20024.36424
20024.37665
20024.38785
20024.39805
20024.40743
20024.41611
20024.4242
20024.43175
20024.43883
20024.44549
20024.45175
20024.45765
20024.46322
20024.46847
20024.47343
20024.4781
20024.48251
20024.48667
20024.49059
20024.49428
20024.49775
20024.50101
20024.50407
20024.50694
20024.50962
20024.51213
20024.51447
20024.51664
20024.51865
20024.52052
20024.52223
20024.52381
20024.52525
20024.52656
20024.52775
20024.52882
20024.52977
20024.5306
20024.53133
20024.53195
20024.53247
20024.53289
20024.53322
20024.53346
20024.53361
20024.53367
20024.53365
20024.53355
20024.53337
20024.53311
20024.53279
20024.53239
20024.53192
20024.53139
20024.53079
20024.53013
20024.52941
20024.52863
20024.52779
20024.5269
20024.52595
20024.52495
20024.52389
20024.52279
20024.52164
20024.52044
20024.51919
20024.5179
20024.51657
20024.51519
20024.51377
20024.51232
20024.51082
20024.50928
20024.5077
20024.50609
20024.50444
20024.50276
20024.50104
20024.49929
20024.4975
20024.49569
20024.49384
20024.49196
20024.49005
20024.48811
20024.48614
20024.48414
20024.48212
20024.48007
20024.47799
20024.47588
20024.47375
20024.4716
20024.46942
20024.46722
20024.46499
20024.46274
20024.46046
20024.45817
20024.45585
20024.45351
20024.45115
20024.44877
20024.44636
20024.44394
20024.4415
20024.43904
20024.43656
20024.43406
20024.43154
20024.42901
20024.42646
20024.42389
20024.42131
20024.41871
20024.41609
20024.41346
20024.41081
20024.40815
20024.40548
20024.40279
20024.40009
20024.39737
20024.39464
20024.39189
20024.38906
20024.38906
20026.03456
20026.03456
20026.03173
20026.02734
20026.02305
20026.02013
20026.01945
20026.02149
20026.02647
20026.03445
20026.04532
20026.05883
20026.0747
20026.09281
20026.11317
20026.13573
20026.1602
20026.18589
20026.212
20026.23744
20026.26159
20026.28287
20026.29995
20026.31145
20026.31917
20026.35753
20026.32032
20026.10758
20025.85454
20025.59692
20025.33823
20025.078
20024.81553
20024.54992
20024.28042
20024.00687
20023.72928
20023.4492
20023.17003
20022.90994
20022.64212
20022.49427
20022.3813
20022.10886
20021.67062
20021.17057
20020.67349
20020.2522
20020.02081
20020.05632
20020.32608
20020.73485
20021.1994
20021.66263
20022.09086
20022.47155
20022.80463
20023.09461
20023.3448
20023.55664
20023.73148
20023.8722
20023.98327
20024.06992
20024.13729
20024.18987
20024.23132
20024.26447
20024.29144
20024.31379
20024.33268
20024.34894
20024.36317
20024.37582
20024.3872
20024.39756
20024.40706
20024.41585
20024.42401
20024.43163