# vtk DataFile Version 2.0
FlowField
ASCII
DATASET STRUCTURED_GRID
DIMENSIONS 200 1 200
POINTS 40000 float
0 0 0
0.15 0 0
0.3 0 0
0.45 0 0
0.6 0 0
0.75 0 0
0.9 0 0
1.05 0 0
1.2 0 0
1.35 0 0
1.5 0 0
1.65 0 0
1.8 0 0
1.95 0 0
2.1 0 0
2.25 0 0
2.4 0 0
2.55 0 0
2.7 0 0
2.85 0 0
3 0 0
3.15 0 0
3.3 0 0
3.45 0 0
3.6 0 0
3.75 0 0
3.9 0 0
4.05 0 0
4.2 0 0
4.35 0 0
4.5 0 0
4.65 0 0
4.8 0 0
4.95 0 0
5.1 0 0
5.25 0 0
5.4 0 0
5.55 0 0
5.7 0 0
5.85 0 0
6 0 0
6.15 0 0
6.3 0 0
6.45 0 0
6.6 0 0
6.75 0 0
6.9 0 0
7.05 0 0
7.2 0 0
7.35 0 0
7.5 0 0
7.65 0 0
7.8 0 0
7.95 0 0
8.1 0 0
8.25 0 0
8.4 0 0
8.55 0 0
8.7 0 0
8.85 0 0
9 0 0
9.15 0 0
9.3 0 0
9.45 0 0
9.6 0 0
9.75 0 0
9.9 0 0
10.05 0 0
10.2 0 0
10.35 0 0
10.5 0 0
10.65 0 0
10.8 0 0
10.95 0 0
11.1 0 0
11.25 0 0
11.4 0 0
11.55 0 0
11.7 0 0
11.85 0 0
12 0 0
12.15 0 0
12.3 0 0
12.45 0 0
12.6 0 0
12.75 0 0
12.9 0 0
13.05 0 0
13.2 0 0
13.35 0 0
13.5 0 0
13.65 0 0
13.8 0 0
13.95 0 0
14.1 0 0
14.25 0 0
14.4 0 0
14.55 0 0
14.7 0 0
14.85 0 0
15 0 0
15.15 0 0
15.3 0 0
15.45 0 0
15.6 0 0
15.75 0 0
15.9 0 0
16.05 0 0
16.2 0 0
16.35 0 0
16.5 0 0
16.65 0 0
16.8 0 0
16.95 0 0
17.1 0 0
17.25 0 0
17.4 0 0
17.55 0 0
17.7 0 0
17.85 0 0
18 0 0
18.15 0 0
18.3 0 0
18.45 0 0
18.6 0 0
18.75 0 0
18.9 0 0
19.05 0 0
19.2 0 0
19.35 0 0
19.5 0 0
19.65 0 0
19.8 0 0
19.95 0 0
20.1 0 0
20.25 0 0
20.4 0 0
20.55 0 0
20.7 0 0
20.85 0 0
21 0 0
21.15 0 0
21.3 0 0
21.45 0 0
21.6 0 0
21.75 0 0
21.9 0 0
22.05 0 0
22.2 0 0
22.35 0 0
22.5 0 0
22.65 0 0
22.8 0 0
22.95 0 0
23.1 0 0
23.25 0 0
23.4 0 0
23.55 0 0
23.7 0 0
23.85 0 0
24 0 0
24.15 0 0
24.3 0 0
24.45 0 0
24.6 0 0
24.75 0 0
24.9 0 0
25.05 0 0
25.2 0 0
25.35 0 0
25.5 0 0
25.65 0 0
25.8 0 0
25.95 0 0
26.1 0 0
26.25 0 0
26.4 0 0
26.55 0 0
26.7 0 0
26.85 0 0
27 0 0
27.15 0 0
27.3 0 0
27.45 0 0
27.6 0 0
27.75 0 0
27.9 0 0
28.05 0 0
28.2 0 0
28.35 0 0
28.5 0 0
28.65 0 0
28.8 0 0
28.95 0 0
29.1 0 0
29.25 0 0
29.4 0 0
29.55 0 0
29.7 0 0
29.85 0 0
0 0.075 0
0.15 0.075 0
0.3 0.075 0
0.45 0.075 0
0.6 0.075 0
0.75 0.075 0
0.9 0.075 0
1.05 0.075 0
1.2 0.075 0
1.35 0.075 0
1.5 0.075 0
1.65 0.075 0
1.8 0.075 0
1.95 0.075 0
2.1 0.075 0
2.25 0.075 0
2.4 0.075 0
2.55 0.075 0
2.7 0.075 0
2.85 0.075 0
3 0.075 0
3.15 0.075 0
3.3 0.075 0
3.45 0.075 0
3.6 0.075 0
3.75 0.075 0
3.9 0.075 0
4.05 0.075 0
4.2 0.075 0
4.35 0.075 0
4.5 0.075 0
4.65 0.075 0
4.8 0.075 0
4.95 0.075 0
5.1 0.075 0
5.25 0.075 0
5.4 0.075 0
5.55 0.075 0
5.7 0.075 0
5.85 0.075 0
6 0.075 0
6.15 0.075 0
6.3 0.075 0
6.45 0.075 0
6.6 0.075 0
6.75 0.075 0
6.9 0.075 0
7.05 0.075 0
7.2 0.075 0
7.35 0.075 0
7.5 0.075 0
7.65 0.075 0
7.8 0.075 0
7.95 0.075 0
8.1 0.075 0
8.25 0.075 0
8.4 0.075 0
8.55 0.075 0
8.7 0.075 0
8.85 0.075 0
9 0.075 0
9.15 0.075 0
9.3 0.075 0
9.45 0.075 0
9.6 0.075 0
9.75 0.075 0
9.9 0.075 0
10.05 0.075 0
10.2 0.075 0
10.35 0.075 0
10.5 0.075 0
10.65 0.075 0
10.8 0.075 0
10.95 0.075 0
11.1 0.075 0
11.25 0.075 0
11.4 0.075 0
11.55 0.075 0
11.7 0.075 0
11.85 0.075 0
12 0.075 0
12.15 0.075 0
12.3 0.075 0
12.45 0.075 0
12.6 0.075 0
12.75 0.075 0
12.9 0.075 0
13.05 0.075 0
13.2 0.075 0
13.35 0.075 0
13.5 0.075 0
13.65 0.075 0
13.8 0.075 0
13.95 0.075 0
14.1 0.075 0
14.25 0.075 0
14.4 0.075 0
14.55 0.075 0
14.7 0.075 0
14.85 0.075 0
15 0.075 0
15.15 0.075 0
15.3 0.075 0
15.45 0.075 0
15.6 0.075 0
15.75 0.075 0
15.9 0.075 0
16.05 0.075 0
16.2 0.075 0
16.35 0.075 0
16.5 0.075 0
16.65 0.075 0
16.8 0.075 0
16.95 0.075 0
17.1 0.075 0
17.25 0.075 0
17.4 0.075 0
17.55 0.075 0
17.7 0.075 0
17.85 0.075 0
18 0.075 0
18.15 0.075 0
18.3 0.075 0
18.45 0.075 0
18.6 0.075 0
18.75 0.075 0
18.9 0.075 0
19.05 0.075 0
19.2 0.075 0
19.35 0.075 0
19.5 0.075 0
19.65 0.075 0
19.8 0.075 0
19.95 0.075 0
20.1 0.075 0
20.25 0.075 0
20.4 0.075 0
20.55 0.075 0
20.7 0.075 0
20.85 0.075 0
21 0.075 0
21.15 0.075 0
21.3 0.075 0
21.45 0.075 0
21.6 0.075 0
21.75 0.075 0
21.9 0.075 0
22.05 0.075 0
22.2 0.075 0
22.35 0.075 0
22.5 0.075 0
22.65 0.075 0
22.8 0.075 0
22.95 0.075 0
23.1 0.075 0
23.25 0.075 0
23.4 0.075 0
23.55 0.075 0
23.7 0.075 0
23.85 0.075 0
24 0.075 0
24.15 0.075 0
24.3 0.075 0
24.45 0.075 0
24.6 0.075 0
24.75 0.075 0
24.9 0.075 0
25.05 0.075 0
25.2 0.075 0
25.35 0.075 0
25.5 0.075 0
25.65 0.075 0
25.8 0.075 0
25.95 0.075 0
26.1 0.075 0
26.25 0.075 0
26.4 0.075 0
26.55 0.075 0
26.7 0.075 0
26.85 0.075 0
27 0.075 0
27.15 0.075 0
27.3 0.075 0
27.45 0.075 0
27.6 0.075 0
27.75 0.075 0
27.9 0.075 0
28.05 0.075 0
28.2 0.075 0
28.35 0.075 0
28.5 0.075 0
28.65 0.075 0
28.8 0.075 0
28.95 0.075 0
29.1 0.075 0
29.25 0.075 0
29.4 0.075 0
29.55 0.075 0
29.7 0.075 0
29.85 0.075 0
0 0.15 0
0.15 0.15 0
0.3 0.15 0
0.45 0.15 0
0.6 0.15 0
0.75 0.15 0
0.9 0.15 0
1.05 0.15 0
1.2 0.15 0
1.35 0.15 0
1.5 0.15 0
1.65 0.15 0
1.8 0.15 0
1.95 0.15 0
2.1 0.15 0
2.25 0.15 0
2.4 0.15 0
2.55 0.15 0
2.7 0.15 0
2.85 0.15 0
3 0.15 0
3.15 0.15 0
3.3 0.15 0
3.45 0.15 0
3.6 0.15 0
3.75 0.15 0
3.9 0.15 0
4.05 0.15 0
4.2 0.15 0
4.35 0.15 0
4.5 0.15 0
4.65 0.15 0
4.8 0.15 0
4.95 0.15 0
5.1 0.15 0
5.25 0.15 0
5.4 0.15 0
5.55 0.15 0
5.7 0.15 0
5.85 0.15 0
6 0.15 0
6.15 0.15 0
6.3 0.15 0
6.45 0.15 0
6.6 0.15 0
6.75 0.15 0
6.9 0.15 0
7.05 0.15 0
7.2 0.15 0
7.35 0.15 0
7.5 0.15 0
7.65 0.15 0
7.8 0.15 0
7.95 0.15 0
8.1 0.15 0
8.25 0.15 0
8.4 0.15 0
8.55 0.15 0
8.7 0.15 0
8.85 0.15 0
9 0.15 0
9.15 0.15 0
9.3 0.15 0
9.45 0.15 0
9.6 0.15 0
9.75 0.15 0
9.9 0.15 0
10.05 0.15 0
10.2 0.15 0
10.35 0.15 0
10.5 0.15 0
10.65 0.15 0
10.8 0.15 0
10.95 0.15 0
11.1 0.15 0
11.25 0.15 0
11.4 0.15 0
11.55 0.15 0
11.7 0.15 0
11.85 0.15 0
12 0.15 0
12.15 0.15 0
12.3 0.15 0
12.45 0.15 0
12.6 0.15 0
12.75 0.15 0
12.9 0.15 0
13.05 0.15 0
13.2 0.15 0
13.35 0.15 0
13.5 0.15 0
13.65 0.15 0
13.8 0.15 0
13.95 0.15 0
14.1 0.15 0
14.25 0.15 0
14.4 0.15 0
14.55 0.15 0
14.7 0.15 0
14.85 0.15 0
15 0.15 0
15.15 0.15 0
15.3 0.15 0
15.45 0.15 0
15.6 0.15 0
15.75 0.15 0
15.9 0.15 0
16.05 0.15 0
16.2 0.15 0
16.35 0.15 0
16.5 0.15 0
16.65 0.15 0
16.8 0.15 0
16.95 0.15 0
17.1 0.15 0
17.25 0.15 0
17.4 0.15 0
17.55 0.15 0
17.7 0.15 0
17.85 0.15 0
18 0.15 0
18.15 0.15 0
18.3 0.15 0
18.45 0.15 0
18.6 0.15 0
18.75 0.15 0
18.9 0.15 0
19.05 0.15 0
19.2 0.15 0
19.35 0.15 0
19.5 0.15 0
19.65 0.15 0
19.8 0.15 0
19.95 0.15 0
20.1 0.15 0
20.25 0.15 0
20.4 0.15 0
20.55 0.15 0
20.7 0.15 0
20.85 0.15 0
21 0.15 0
21.15 0.15 0
21.3 0.15 0
21.45 0.15 0
21.6 0.15 0
21.75 0.15 0
21.9 0.15 0
22.05 0.15 0
22.2 0.15 0
22.35 0.15 0
22.5 0.15 0
22.65 0.15 0
22.8 0.15 0
22.95 0.15 0
23.1 0.15 0
23.25 0.15 0
23.4 0.15 0
23.55 0.15 0
23.7 0.15 0
23.85 0.15 0
24 0.15 0
24.15 0.15 0
24.3 0.15 0
24.45 0.15 0
24.6 0.15 0
24.75 0.15 0
24.9 0.15 0
25.05 0.15 0
25.2 0.15 0
25.35 0.15 0
25.5 0.15 0
25.65 0.15 0
25.8 0.15 0
25.95 0.15 0
26.1 0.15 0
26.25 0.15 0
26.4 0.15 0
26.55 0.15 0
26.7 0.15 0
26.85 0.15 0
27 0.15 0
27.15 0.15 0
27.3 0.15 0
27.45 0.15 0
27.6 0.15 0
27.75 0.15 0
27.9 0.15 0
28.05 0.15 0
28.2 0.15 0
28.35 0.15 0
28.5 0.15 0
28.65 0.15 0
28.8 0.15 0
28.95 0.15 0
29.1 0.15 0
29.25 0.15 0
29.4 0.15 0
29.55 0.15 0
29.7 0.15 0
29.85 0.15 0
0 0.225 0
0.15 0.225 0
0.3 0.225 0
0.45 0.225 0
0.6 0.225 0
0.75 0.225 0
0.9 0.225 0
1.05 0.225 0
1.2 0.225 0
1.35 0.225 0
1.5 0.225 0
1.65 0.225 0
1.8 0.225 0
1.95 0.225 0
2.1 0.225 0
2.25 0.225 0
2.4 0.225 0
2.55 0.225 0
2.7 0.225 0
2.85 0.225 0
3 0.225 0
3.15 0.225 0
3.3 0.225 0
3.45 0.225 0
3.6 0.225 0
3.75 0.225 0
3.9 0.225 0
4.05 0.225 0
4.2 0.225 0
4.35 0.225 0
4.5 0.225 0
4.65 0.225 0
4.8 0.225 0
4.95 0.225 0
5.1 0.225 0
5.25 0.225 0
5.4 0.225 0
5.55 0.225 0
5.7 0.225 0
5.85 0.225 0
6 0.225 0
6.15 0.225 0
6.3 0.225 0
6.45 0.225 0
6.6 0.225 0
6.75 0.225 0
6.9 0.225 0
7.05 0.225 0
7.2 0.225 0
7.35 0.225 0
7.5 0.225 0
7.65 0.225 0
7.8 0.225 0
7.95 0.225 0
8.1 0.225 0
8.25 0.225 0
8.4 0.225 0
8.55 0.225 0
8.7 0.225 0
8.85 0.225 0
9 0.225 0
9.15 0.225 0
9.3 0.225 0
9.45 0.225 0
9.6 0.225 0
9.75 0.225 0
9.9 0.225 0
10.05 0.225 0
10.2 0.225 0
10.35 0.225 0
10.5 0.225 0
10.65 0.225 0
10.8 0.225 0
10.95 0.225 0
11.1 0.225 0
11.25 0.225 0
11.4 0.225 0
11.55 0.225 0
11.7 0.225 0
11.85 0.225 0
12 0.225 0
12.15 0.225 0
12.3 0.225 0
12.45 0.225 0
12.6 0.225 0
12.75 0.225 0
12.9 0.225 0
13.05 0.225 0
13.2 0.225 0
13.35 0.225 0
13.5 0.225 0
13.65 0.225 0
13.8 0.225 0
13.95 0.225 0
14.1 0.225 0
14.25 0.225 0
14.4 0.225 0
14.55 0.225 0
14.7 0.225 0
14.85 0.225 0
15 0.225 0
15.15 0.225 0
15.3 0.225 0
15.45 0.225 0
15.6 0.225 0
15.75 0.225 0
15.9 0.225 0
16.05 0.225 0
16.2 0.225 0
16.35 0.225 0
16.5 0.225 0
16.65 0.225 0
16.8 0.225 0
16.95 0.225 0
17.1 0.225 0
17.25 0.225 0
17.4 0.225 0
17.55 0.225 0
17.7 0.225 0
17.85 0.225 0
18 0.225 0
18.15 0.225 0
18.3 0.225 0
18.45 0.225 0
18.6 0.225 0
18.75 0.225 0
18.9 0.225 0
19.05 0.225 0
19.2 0.225 0
19.35 0.225 0
19.5 0.225 0
19.65 0.225 0
19.8 0.225 0
19.95 0.225 0
20.1 0.225 0
20.25 0.225 0
20.4 0.225 0
20.55 0.225 0
20.7 0.225 0
20.85 0.225 0
21 0.225 0
21.15 0.225 0
21.3 0.225 0
21.45 0.225 0
21.6 0.225 0
21.75 0.225 0
21.9 0.225 0
22.05 0.225 0
22.2 0.225 0
22.35 0.225 0
22.5 0.225 0
22.65 0.225 0
22.8 0.225 0
22.95 0.225 0
23.1 0.225 0
23.25 0.225 0
23.4 0.225 0
23.55 0.225 0
23.7 0.225 0
23.85 0.225 0
24 0.225 0
24.15 0.225 0
24.3 0.225 0
24.45 0.225 0
24.6 0.225 0
24.75 0.225 0
24.9 0.225 0
25.05 0.225 0
25.2 0.225 0
25.35 0.225 0
25.5 0.225 0
25.65 0.225 0
25.8 0.225 0
25.95 0.225 0
26.1 0.225 0
26.25 0.225 0
26.4 0.225 0
26.55 0.225 0
26.7 0.225 0
26.85 0.225 0
27 0.225 0
27.15 0.225 0
27.3 0.225 0
27.45 0.225 0
27.6 0.225 0
27.75 0.225 0
27.9 0.225 0
28.05 0.225 0
28.2 0.225 0
28.35 0.225 0
28.5 0.225 0
28.65 0.225 0
28.8 0.225 0
28.95 0.225 0
29.1 0.225 0
29.25 0.225 0
29.4 0.225 0
29.55 0.225 0
29.7 0.225 0
29.85 0.225 0
0 0.3 0
0.15 0.3 0
0.3 0.3 0
0.45 0.3 0
0.6 0.3 0
0.75 0.3 0
0.9 0.3 0
1.05 0.3 0
1.2 0.3 0
1.35 0.3 0
1.5 0.3 0
1.65 0.3 0
1.8 0.3 0
1.95 0.3 0
2.1 0.3 0
2.25 0.3 0
2.4 0.3 0
2.55 0.3 0
2.7 0.3 0
2.85 0.3 0
3 0.3 0
3.15 0.3 0
3.3 0.3 0
3.45 0.3 0
3.6 0.3 0
3.75 0.3 0
3.9 0.3 0
4.05 0.3 0
4.2 0.3 0
4.35 0.3 0
4.5 0.3 0
4.65 0.3 0
4.8 0.3 0
4.95 0.3 0
5.1 0.3 0
5.25 0.3 0
5.4 0.3 0
5.55 0.3 0
5.7 0.3 0
5.85 0.3 0
6 0.3 0
6.15 0.3 0
[...]
POINT_DATA 40000

SCALARS p float 1
LOOKUP_TABLE default
20183.69266
20183.69266
20183.63718
20183.60935
20183.59091
20183.57796
20183.57069
20183.57034
20183.57709
20183.58911
20183.60344
20183.61746
20183.62979
20183.64032
20183.6494
20183.65705
20183.6632
20183.66805
20183.67194
20183.67388
20183.67075
20183.66057
20183.62825
20183.56597
20183.62761
20184.08464
20183.95622
20183.56786
20183.30787
20183.07862
20182.85491
20182.62934
20182.39955
20182.16468
20181.92428
20181.67797
20181.42536
20181.16599
20180.89926
20180.62367
20180.33377
20180.17921
20180.20475
20180.20684
20180.23114
20180.29599
20180.41917
20180.57668
20180.71283
20180.7894
20180.77818
20180.69484
20180.59175
20180.50266
20180.43663
20180.39541
20180.36887
20180.34947
20180.33305
20180.32652
20180.31101
20180.281
20180.25285
20180.22878
20180.19597
20180.148
20180.09188
20180.02088
20179.92025
20179.80462
20179.69529
20179.59516
20179.49992
20179.41057
20179.33203
20179.26866
20179.22315
20179.19696
20179.19111
20179.20621
20179.2429
20179.30174
20179.38367
20179.48981
20179.62132
20179.77844
20179.95989
20180.16286
20180.38251
20180.61242
20180.84555
20181.07706
20181.30411
20181.52625
20181.74395
20181.95793
20182.16756
20182.37058
20182.56403
20182.74508
20182.91634
20183.0774
20183.22578
20183.35517
20183.44282
20183.45669
20183.40198
20183.32039
20183.25016
20183.15971
20183.00487
20182.78299
20182.55906
20182.4849
20182.46155
20182.42646
20182.40647
20182.3905
20182.35495
20182.29545
20182.23322
20182.1892
20182.16101
20182.13964
20182.12027
20182.10314
20182.09084
20182.08141
20182.0687
20182.0507
20182.03123
20182.01369
20181.99664
20181.97557
20181.94679
20181.90844
20181.85961
20181.80004
20181.73017
20181.65122
20181.56508
20181.47391
20181.37992
20181.28518
20181.19157
20181.10067
20181.01382
20180.93226
20180.85704
20180.78897
20180.72872
20180.6768
20180.63358
20180.59925
20180.57388
20180.55737
20180.54948
20180.55006
20180.55891
20180.57528
20180.59889
20180.62946
20180.66597
20180.7084
20180.75593
20180.80805
20180.86436
20180.92422
20180.98723
20181.05294
20181.12087
20181.1907
20181.26203
20181.33455
20181.408
20181.48212
20181.55671
20181.63158
20181.70661
20181.78165
20181.85662
20181.93144
20182.00607
20182.08045
20182.15457
20182.22843
20182.30202
20182.37534
20182.44844
20182.52132
20182.59405
20182.66665
20182.73922
20182.81182
20182.88456
20182.95756
20183.03095
20183.10481
20183.17911
20183.17911
20183.69266
20183.69266
20183.63718
20183.60935
20183.59091
20183.57796
20183.57069
20183.57034
20183.57709
20183.58911
20183.60344
20183.61746
20183.62979
20183.64032
20183.6494
20183.65705
20183.6632
20183.66805
20183.67194
20183.67388
20183.67075
20183.66057
20183.62825
20183.56597
20183.62761
20184.08464
20183.95622
20183.56786
20183.30787
20183.07862
20182.85491
20182.62934
20182.39955
20182.16468
20181.92428
20181.67797
20181.42536
20181.16599
20180.89926
20180.62367
20180.33377
20180.17921
20180.20475
20180.20684
20180.23114
20180.29599
20180.41917
20180.57668
20180.71283
20180.7894
20180.77818
20180.69484
20180.59175
20180.50266
20180.43663
20180.39541
20180.36887
20180.34947
20180.33305
20180.32652
20180.31101
20180.281
20180.25285
20180.22878
20180.19597
20180.148
20180.09188
20180.02088
20179.92025
20179.80462
20179.69529
20179.59516
20179.49992
20179.41057
20179.33203
20179.26866
20179.22315
20179.19696
20179.19111
20179.20621
20179.2429
20179.30174
20179.38367
20179.48981
20179.62132
20179.77844
20179.95989
20180.16286
20180.38251
20180.61242
20180.84555
20181.07706
20181.30411
20181.52625
20181.74395
20181.95793
20182.16756
20182.37058
20182.56403
20182.74508
20182.91634
20183.0774
20183.22578
20183.35517
20183.44282
20183.45669
20183.40198
20183.32039
20183.25016
20183.15971
20183.00487
20182.78299
20182.55906
20182.4849
20182.46155
20182.42646
20182.40647
20182.3905
20182.35495
20182.29545
20182.23322
20182.1892
20182.16101
20182.13964
20182.12027
20182.10314
20182.09084
20182.08141
20182.0687
20182.0507
20182.03123
20182.01369
20181.99664
20181.97557
20181.94679
20181.90844
20181.85961
20181.80004
20181.73017
20181.65122
20181.56508
20181.47391
20181.37992
20181.28518
20181.19157
20181.10067
20181.01382
20180.93226
20180.85704
20180.78897
20180.72872
20180.6768
20180.63358
20180.59925
20180.57388
20180.55737
20180.54948
20180.55006
20180.55891
20180.57528
20180.59889
20180.62946
20180.66597
20180.7084
20180.75593
20180.80805
20180.86436
20180.92422
20180.98723
20181.05294
20181.12087
20181.1907
20181.26203
20181.33455
20181.408
20181.48212
20181.55671
20181.63158
20181.70661
20181.78165
20181.85662
20181.93144
20182.00607
20182.08045
20182.15457
20182.22843
20182.30202
20182.37534
20182.44844
20182.52132
20182.59405
20182.66665
20182.73922
20182.81182
20182.88456
20182.95756
20183.03095
20183.10481
20183.17911
20183.17911
20183.66008
20183.66008
20183.62815
20183.60493
20183.58852
20183.57714
20183.57111
20183.5715
20183.57847
20183.59041
20183.60457
20183.61845
20183.63068
20183.64113
20183.65014
20183.65769
20183.66368
20183.66835
20183.67215
20183.67454
20183.67286
20183.66002
20183.60887
20183.52384
20183.52879
20183.84665
20183.80601
20183.53669
20183.30051
20183.07731
20182.85537
20182.63037
20182.40079
20182.16603
20181.92572
20181.67951
20181.42701
20181.1678
20180.90142
20180.62719
20180.34208
20180.21189
20180.20594
20180.20167
20180.21929
20180.27941
20180.39966
20180.5577
20180.70028
20180.78217
20180.77179
20180.68501
20180.57915
20180.49169
20180.43169
20180.39524
20180.36939
20180.34931
20180.33052
20180.32158
20180.30625
20180.27838
20180.25332
20180.23093
20180.19798
20180.14894
20180.0925
20180.02429
20179.92532
20179.80727
20179.69323
20179.58861
20179.49038
20179.3997
20179.32112
20179.25843
20179.21392
20179.18876
20179.18377
20179.19941
20179.2363
20179.29497
20179.37641
20179.48183
20179.61254
20179.76893
20179.94994
20180.15297
20180.37339
20180.60467
20180.83962
20181.0727
20181.30049
20181.52181
20181.73723
20181.94804
20182.1549
20182.3569
20182.55106
20182.73489
20182.90798
20183.07027
20183.2194
20183.35057
20183.44306
20183.45884
20183.39943
20183.30728
20183.21979
20183.12355
20182.97128
20182.74757
20182.54466
20182.48561
20182.45996
20182.42374
20182.40671
20182.39486
20182.36082
20182.29737
20182.22951
20182.18418
20182.15832
20182.13925
20182.12063
20182.10265
20182.08924
20182.07977
20182.06757
20182.04976
20182.03031
20182.0131
20181.99668
20181.97626
20181.94803
20181.91015
20181.86167
20181.80228
20181.7324
20181.65329
20181.56683
20181.47527
20181.38083
20181.28566
20181.19164
20181.10038
20181.01321
20180.93138
20180.85593
20180.78768
20180.72728
20180.67524
20180.63194
20180.59756
20180.57215
20180.55563
20180.54774
20180.54837
20180.55726
20180.57365
20180.59737
20180.62795
20180.66456
20180.70706
20180.75466
20180.80687
20180.86325
20180.9232
20180.98628
20181.05208
20181.12009
20181.19
20181.26141
20181.334
20181.40753
20181.48171
20181.55637
20181.6313
20181.70638
20181.78148
20181.8565
20181.93136
20182.00603
20182.08044
20182.1546
20182.22848
20182.30209
20182.37543
20182.44854
20182.52143
20182.59415
20182.66675
20182.73931
20182.81188
20182.8846
20182.95756
20183.03091
20183.10473
20183.17906
20183.17906
20183.63445
20183.63445
20183.61498
20183.59704
20183.58342
20183.57411
20183.56961
20183.57077
20183.57771
20183.58923
20183.60311
20183.61715
20183.62993
20183.64103
20183.65048
20183.6582
20183.66423
20183.66884
20183.67275
20183.67593
20183.67483
20183.6557
20183.5832
20183.4909
20183.47171
20183.64311
20183.65802
20183.49739
20183.29032
20183.07581
20182.85664
20182.63257
20182.40334
20182.16877
20181.92864
20181.68262
20181.43034
20181.1714
20180.90559
20180.63334
20180.3537
20180.2291
20180.20251
20180.18586
20180.19135
20180.24321
20180.35854
20180.51868
20180.67374
20180.76546
20180.75528
20180.66015
20180.5474
20180.46234
20180.41358
20180.3894
20180.37113
20180.35363
20180.33128
20180.3159
20180.29498
20180.26948
20180.25429
20180.23734
20180.20239
20180.15188
20180.08996
20180.01211
20179.9071
20179.78493
20179.66556
20179.55593
20179.45556
20179.36573
20179.28985
20179.23066
20179.18975
20179.16787
20179.1655
20179.18289
20179.22051
20179.27906
20179.35965
20179.46368
20179.59272
20179.74766
20179.928
20180.1315
20180.35386
20180.58833
20180.82722
20181.06362
20181.29292
20181.51299
20181.72456
20181.93006
20182.13205
20182.33131
20182.52589
20182.71414
20182.8917
20183.05642
20183.20498
20183.33614
20183.43644
20183.45898
20183.39216
20183.2882
20183.17338
20183.05188
20182.8952
20182.68274
20182.50744
20182.44666
20182.42637
20182.41101
20182.40549
20182.40058
20182.36899
20182.29857
20182.22038
20182.17161
20182.15008
20182.13675
20182.12199
20182.1044
20182.08875
20182.07726
20182.06451
20182.04703
20182.02854
20182.01268
20181.9975
20181.97792
20181.95023
20181.91257
20181.86389
20181.80383
20181.73298
20181.65283
20181.56543
20181.47305
20181.37795
20181.28227
20181.18787
20181.09631
20181.00892
20180.92693
20180.85137
20180.78307
20180.72263
20180.67061
20180.62735
20180.59304
20180.56773
20180.55132
20180.54358
20180.54439
20180.55342
20180.57001
20180.59395
20180.62469
20180.66155
20180.70424
20180.75206
20180.80448
20180.86106
20180.92122
20180.98448
20181.05049
20181.11866
20181.18875
20181.26033
20181.33307
20181.40674
20181.48106
20181.55583
20181.63088
20181.70606
20181.78124
20181.85633
20181.93127
20182.00599
20182.08045
20182.15464
20182.22855
20182.30218
20182.37554
20182.44865
20182.52154
20182.59426
20182.66684
20182.73937
20182.81191
20182.88458
20182.95748
20183.03078
20183.10455
20183.17895
20183.17895
20183.61384
20183.61384
20183.60143
20183.58787
20183.57687
20183.56942
20183.5662
20183.56788
20183.57455
20183.58533
20183.59859
20183.61255
20183.6259
20183.638
20183.64856
20183.6573
20183.66409
20183.66915
20183.67341
20183.67718
20183.67539
20183.65031
20183.56755
20183.48973
20183.4778
20183.56214
20183.58252
20183.46985
20183.28288
20183.07579
20182.85923
20182.63608
20182.40722
20182.17291
20181.93303
20181.68731
20181.43533
20181.17673
20180.91143
20180.6407
20180.36124
20180.23029
20180.19008
20180.15846
20180.14844
20180.18741
20180.29429
20180.45668
20180.62869
20180.73434
20180.72509
20180.62058
20180.50087
20180.41909
20180.38344
20180.37777
20180.37593
20180.36614
20180.34098
20180.31276
20180.27801
20180.25422
20180.25375
20180.24481
20180.20365
20180.14141
20180.06497
20179.9713
20179.857
20179.73147
20179.61001
20179.49943
20179.40082
20179.31531
20179.24506
20179.19177
20179.15631
20179.13908
20179.14029
20179.15999
20179.19852
20179.2568
20179.33618
20179.43825
20179.56495
20179.71778
20179.89697
20180.1007
20180.32509
20180.56325
20180.80677
20181.04734
20181.2789
20181.49858
20181.70682
20181.90691
20182.10279
20182.29706
20182.48986
20182.68117
20182.8658
20183.03484
20183.18126
20183.30552
20183.40951
20183.4464
20183.36965
20183.25013
20183.1124
20182.95601
20182.78707
20182.58297
20182.42228
20182.35903
20182.35216
20182.3686
20182.38968
20182.40005
20182.37367
20182.29415
20182.20107
20182.14648
20182.1317
20182.12932
20182.12319
20182.10875
20182.09056
20182.07463
20182.05928
20182.04179
20182.02512
20182.01173
20181.99845
20181.97978
20181.95211
20181.9137
20181.8636
20181.80177
20181.7292
20181.64763
20181.55919
20181.46611
20181.3706
20181.27469
20181.18018
20181.08858
20181.00119
20180.91923
20180.84373
20180.77549
20180.71515
20180.66324
20180.62012
20180.58596
20180.56083
20180.54462
20180.53713
20180.53822
20180.5475
20180.56441
20180.58868
20180.6197
20180.65692
20180.69993
20180.74806
20180.80081
20180.8577
20180.91816
20180.98172
20181.04802
20181.11644
20181.18681
20181.25861
20181.33158
20181.40547
20181.47997
20181.55493
20181.63013
20181.70546
20181.78076
20181.85597
20181.93099
20182.00579
20182.08032
20182.15457
20182.22851
20182.30218
20182.37556
20182.44869
20182.52158
20182.5943
20182.66688
20182.7394
20182.81191
20182.88456
20182.9574
20183.03068
20183.1044
20183.17889
20183.17889
20183.59648
20183.59648
20183.5883
20183.57818
20183.56951
20183.56366
20183.56145
20183.56343
20183.56967
20183.57956
20183.59188
20183.60532
20183.61878
20183.63159
20183.64331
20183.65347
20183.66176
20183.66815
20183.67318
20183.67695
20183.6735
20183.64634
20183.56583
20183.50528
20183.50539
20183.55547
20183.56685
20183.46051
20183.28165
20183.07858
20182.86363
20182.64106
20182.41249
20182.17844
20181.9389
20181.69356
20181.44199
20181.18375
20180.91874
20180.64864
20180.36405
20180.21863
20180.16608
20180.11868
20180.09014
20180.11109
20180.20533
20180.36878
20180.55917
20180.68239
20180.67408
20180.56052
20180.43751
20180.36442
20180.34541
20180.36164
20180.38227
20180.38535
20180.36081
20180.31469
20180.25852
20180.23414
20180.24561
20180.23704
20180.18439
20180.10515
20180.0103
20179.90201
20179.78128
20179.65596
20179.53681
20179.42965
20179.33607
20179.25707
20179.19392
20179.14754
20179.1182
20179.10602
20179.11101
20179.13305
20179.17239
20179.23013
20179.30787
20179.40745
20179.53124
20179.68139
20179.85893
20180.06262
20180.28895
20180.53091
20180.77911
20181.02386
20181.25768
20181.47732
20181.68315
20181.87907
20182.06965
20182.25832
20182.44655
20182.63642
20182.82684
20183.00243
20183.14995
20183.26412
20183.35744
20183.40438
20183.32847
20183.18721
20183.028
20182.83472
20182.64268
20182.44725
20182.29829
20182.23487
20182.23624
20182.2827
20182.34283
20182.37967
20182.364
20182.27778
20182.16977
20182.10817
20182.10098
20182.11457
20182.12178
20182.11322
20182.09329
20182.07198
20182.0526
20182.03452
20182.02007
20182.00977
20181.99863
20181.9805
20181.9519
20181.91151
20181.85897
20181.79483
20181.72045
20181.63768
20181.54857
20181.45521
20181.35966
20181.26385
20181.16948
20181.07801
20180.99076
20180.90892
20180.83353
20180.7654
20180.70517
20180.65339
20180.61043
20180.57646
20180.55155
20180.5356
20180.52844
20180.52988
20180.5395
20180.55681
20180.58151
20180.61291
20180.65059
20180.69403
20180.74255
20180.79575
20180.85304
20180.91389
20180.97785
20181.04452
20181.11328
20181.18401
20181.25611
20181.32938
20181.40355
20181.47831
20181.5535
20181.62891
20181.70443
20181.7799
20181.85525
20181.9304
20182.00531
20182.07993
20182.15425
20182.22826
20182.30198
20182.3754
20182.44857
20182.52149
20182.59424
20182.66683
20182.73938
20182.8119
20182.88457
20182.95742
20183.03072
20183.10444
20183.17896
20183.17896
20183.58127
20183.58127
20183.57572
20183.56825
20183.56157
20183.55711
20183.55573
20183.55791
20183.56373
20183.57273
20183.58403
20183.59665
20183.60972
20183.62266
20183.63504
20183.64638
20183.65626
20183.66438
20183.67062
20183.67413
20183.66914
20183.64359
20183.57632
20183.53224
20183.54332
20183.58563
20183.58569
20183.46787
20183.28774
20183.08489
20182.8701
20182.6476
20182.41915
20182.18535
20181.94621
20181.70138
20181.45033
20181.19248
20180.92748
20180.65723
20180.36347
20180.19713
20180.13014
20180.06625
20180.01647
20180.01531
20180.09305
20180.25439
20180.46021
20180.6023
20180.59384
20180.47253
20180.35211
20180.29656
20180.30129
20180.34247
20180.38843
20180.40785
20180.38738
20180.32383
20180.24552
20180.21465
20180.22367
20180.20381
20180.13602
20180.04043
20179.93138
20179.81421
20179.69155
20179.56949
20179.45546
20179.3541
20179.2671
20179.19539
20179.13973
20179.10043
20179.07729
20179.07016
20179.07882
20179.10303
20179.14297
20179.19982
20179.27538
20179.37189
20179.49215
20179.63899
20179.81433
20180.01774
20180.24604
20180.49209
20180.74523
20180.99415
20181.2301
20181.44955
20181.65334
20181.846
20182.03271
20182.21707
20182.4003
20182.58392
20182.77305
20182.95372
20183.1058
20183.21856
20183.29386
20183.32894
20183.26373
20183.10265
20182.91331
20182.68895
20182.47441
20182.28351
20182.14382
20182.08537
20182.08971
20182.15449
20182.25361
20182.32701
20182.33018
20182.24646
20182.13079
20182.06273
20182.06084
20182.09226
20182.1163
20182.11508
20182.09418
20182.06819
20182.04496
20182.02637
20182.01426
20182.00688
20181.99728
20181.97873
20181.94818
20181.90505
20181.8498
20181.78351
20181.70772
20181.62421
20181.53484
20181.44152
20181.34616
20181.25057
20181.15641
20181.06511
20180.97799
20180.89625
20180.82094
20180.75288
20180.69274
20180.64108
20180.59827
20180.56451
20180.53985
20180.52422
20180.51744
20180.51929
20180.52934
20180.54716
20180.57236
20180.60425
20180.64247
20180.68642
20180.73545
20180.78918
20180.84697
20180.90829
20180.97275
20181.03985
20181.10905
20181.18023
20181.25269
20181.32635
20181.40087
20181.47594
20181.55144
20181.62712
20181.70288
20181.77856
20181.8541
20181.92941
20182.00447
20182.0792
20182.15363
20182.22772
20182.30152
20182.375
20182.44823
20182.52121
20182.59402
20182.66667
20182.73929
20182.81188
20182.88463
20182.95756
20183.03095
20183.10472
20183.1793
20183.1793
20183.5675
20183.5675
20183.56367
20183.5582
20183.55317
20183.54991
20183.54924
20183.55159
20183.55706
20183.56529
20183.57564
20183.58735
20183.59976
20183.61238
20183.62484
20183.63676
20183.64774
20183.65731
20183.66477
20183.66843
20183.66244
20183.64073
20183.59301
20183.56573
20183.58383
20183.62781
20183.62084
20183.48764
20183.30056
20183.09476
20182.87871
20182.65568
20182.42715
20182.19361
20181.95496
20181.71077
20181.46037
20181.20299
20180.9378
20180.66699
20180.36154
20180.16873
20180.08336
20180.0022
20179.92965
20179.9041
20179.96281
20180.11831
20180.33344
20180.49081
20180.48121
20180.35452
20180.24256
20180.21363
20180.25096
20180.32083
20180.39315
20180.43111
20180.41624
20180.34149
20180.24719
20180.20168
20180.18941
20180.14719
20180.06318
20179.95562
20179.83854
20179.71767
20179.5962
20179.47878
20179.37079
20179.27594
20179.19592
20179.13159
20179.08335
20179.05107
20179.0341
20179.03196
20179.04414
20179.07032
20179.1106
20179.16615
20179.23894
20179.33162
20179.44752
20179.59014
20179.76243
20179.96492
20180.19497
20180.44536
20180.7041
20180.95781
20181.19644
20181.41615
20181.61835
20181.80807
20181.99127
20182.17238
20182.3526
20182.52957
20182.71062
20182.89013
20183.04268
20183.15654
20183.22417
20183.2384
20183.16947
20182.99479
20182.77283
20182.5218
20182.29288
20182.1049
20181.97286
20181.92068
20181.92502
20181.99616
20182.12326
20182.2366
20182.26819
20182.2003
20182.08869
20182.01713
20182.01724
20182.06411
20182.10585
20182.11267
20182.09176
20182.06285
20182.0374
20182.01915
20182.00925
20182.00373
20181.9942
20181.97397
20181.94072
20181.89472
20181.83705
20181.76908
20181.69233
20181.60839
20181.51895
20181.42577
20181.33062
20181.23523
20181.14122
20181.05003
20180.96297
20180.88126
20180.80596
20180.73792
20180.67783
20180.62626
20180.5836
20180.55005
20180.52569
20180.51042
20180.50407
20180.5064
20180.51698
20180.53538
20180.56115
20180.59366
20180.63251
20180.67706
20180.72671
20180.78106
20180.83942
20180.90131
20180.96635
20181.03396
20181.1037
20181.17539
20181.24828
20181.32241
20181.39736
20181.47281
20181.54867
20181.62468
20181.70074
20181.77668
20181.85246
20181.92798
20182.00321
20182.07809
20182.15266
20182.22686
20182.30076
20182.37433
20182.44765
20182.52071
20182.59362
20182.66636
20182.73909
20182.8118
20182.88471
20182.95779
20183.03136
20183.10529
20183.18002
20183.18002
20183.55473
20183.55473
20183.55205
20183.5481
20183.54442
20183.54218
20183.5421
20183.54461
20183.54979
20183.55739
20183.56692
20183.57778
20183.58946
20183.60153
20183.6137
20183.62567
20183.63712
20183.64754
20183.65592
20183.66032
20183.65443
20183.6389
20183.61
20183.59877
20183.62388
20183.67181
20183.66157
20183.51552
20183.31874
20183.10774
20182.88923
20182.66517
20182.43642
20182.20315
20181.96511
20181.72172
20181.47216
20181.21541
20180.94997
20180.6787
20180.36068
20180.13696
20180.02838
20179.92908
20179.83399
20179.7839
20179.82284
20179.96971
20180.18769
20180.35316
20180.34261
20180.21319
20180.1135
20180.11738
20180.19438
20180.29641
20180.39415
20180.45052
20180.44225
20180.36374
20180.25926
20180.19032
20180.14389
20180.07477
20179.97598
20179.86075
20179.73988
20179.61821
20179.49914
20179.38637
20179.28423
20179.19576
20179.12268
20179.06568
20179.02482
20178.99956
20178.9888