# vtk DataFile Version 2.0
FlowField
ASCII
DATASET STRUCTURED_GRID
DIMENSIONS 200 1 200
POINTS 40000 float
0 0 0
0.15 0 0
0.3 0 0
0.45 0 0
0.6 0 0
0.75 0 0
0.9 0 0
1.05 0 0
1.2 0 0
1.35 0 0
1.5 0 0
1.65 0 0
1.8 0 0
1.95 0 0
2.1 0 0
2.25 0 0
2.4 0 0
2.55 0 0
2.7 0 0
2.85 0 0
3 0 0
3.15 0 0
3.3 0 0
3.45 0 0
3.6 0 0
3.75 0 0
3.9 0 0
4.05 0 0
4.2 0 0
4.35 0 0
4.5 0 0
4.65 0 0
4.8 0 0
4.95 0 0
5.1 0 0
5.25 0 0
5.4 0 0
5.55 0 0
5.7 0 0
5.85 0 0
6 0 0
6.15 0 0
6.3 0 0
6.45 0 0
6.6 0 0
6.75 0 0
6.9 0 0
7.05 0 0
7.2 0 0
7.35 0 0
7.5 0 0
7.65 0 0
7.8 0 0
7.95 0 0
8.1 0 0
8.25 0 0
8.4 0 0
8.55 0 0
8.7 0 0
8.85 0 0
9 0 0
9.15 0 0
9.3 0 0
9.45 0 0
9.6 0 0
9.75 0 0
9.9 0 0
10.05 0 0
10.2 0 0
10.35 0 0
10.5 0 0
10.65 0 0
10.8 0 0
10.95 0 0
11.1 0 0
11.25 0 0
11.4 0 0
11.55 0 0
11.7 0 0
11.85 0 0
12 0 0
12.15 0 0
12.3 0 0
12.45 0 0
12.6 0 0
12.75 0 0
12.9 0 0
13.05 0 0
13.2 0 0
13.35 0 0
13.5 0 0
13.65 0 0
13.8 0 0
13.95 0 0
14.1 0 0
14.25 0 0
14.4 0 0
14.55 0 0
14.7 0 0
14.85 0 0
15 0 0
15.15 0 0
15.3 0 0
15.45 0 0
15.6 0 0
15.75 0 0
15.9 0 0
16.05 0 0
16.2 0 0
16.35 0 0
16.5 0 0
16.65 0 0
16.8 0 0
16.95 0 0
17.1 0 0
17.25 0 0
17.4 0 0
17.55 0 0
17.7 0 0
17.85 0 0
18 0 0
18.15 0 0
18.3 0 0
18.45 0 0
18.6 0 0
18.75 0 0
18.9 0 0
19.05 0 0
19.2 0 0
19.35 0 0
19.5 0 0
19.65 0 0
19.8 0 0
19.95 0 0
20.1 0 0
20.25 0 0
20.4 0 0
20.55 0 0
20.7 0 0
20.85 0 0
21 0 0
21.15 0 0
21.3 0 0
21.45 0 0
21.6 0 0
21.75 0 0
21.9 0 0
22.05 0 0
22.2 0 0
22.35 0 0
22.5 0 0
22.65 0 0
22.8 0 0
22.95 0 0
23.1 0 0
23.25 0 0
23.4 0 0
23.55 0 0
23.7 0 0
23.85 0 0
24 0 0
24.15 0 0
24.3 0 0
24.45 0 0
24.6 0 0
24.75 0 0
24.9 0 0
25.05 0 0
25.2 0 0
25.35 0 0
25.5 0 0
25.65 0 0
25.8 0 0
25.95 0 0
26.1 0 0
26.25 0 0
26.4 0 0
26.55 0 0
26.7 0 0
26.85 0 0
27 0 0
27.15 0 0
27.3 0 0
27.45 0 0
27.6 0 0
27.75 0 0
27.9 0 0
28.05 0 0
28.2 0 0
28.35 0 0
28.5 0 0
28.65 0 0
28.8 0 0
28.95 0 0
29.1 0 0
29.25 0 0
29.4 0 0
29.55 0 0
29.7 0 0
29.85 0 0
0 0.075 0
0.15 0.075 0
0.3 0.075 0
0.45 0.075 0
0.6 0.075 0
0.75 0.075 0
0.9 0.075 0
1.05 0.075 0
1.2 0.075 0
1.35 0.075 0
1.5 0.075 0
1.65 0.075 0
1.8 0.075 0
1.95 0.075 0
2.1 0.075 0
2.25 0.075 0
2.4 0.075 0
2.55 0.075 0
2.7 0.075 0
2.85 0.075 0
3 0.075 0
3.15 0.075 0
3.3 0.075 0
3.45 0.075 0
3.6 0.075 0
3.75 0.075 0
3.9 0.075 0
4.05 0.075 0
4.2 0.075 0
4.35 0.075 0
4.5 0.075 0
4.65 0.075 0
4.8 0.075 0
4.95 0.075 0
5.1 0.075 0
5.25 0.075 0
5.4 0.075 0
5.55 0.075 0
5.7 0.075 0
5.85 0.075 0
6 0.075 0
6.15 0.075 0
6.3 0.075 0
6.45 0.075 0
6.6 0.075 0
6.75 0.075 0
6.9 0.075 0
7.05 0.075 0
7.2 0.075 0
7.35 0.075 0
7.5 0.075 0
7.65 0.075 0
7.8 0.075 0
7.95 0.075 0
8.1 0.075 0
8.25 0.075 0
8.4 0.075 0
8.55 0.075 0
8.7 0.075 0
8.85 0.075 0
9 0.075 0
9.15 0.075 0
9.3 0.075 0
9.45 0.075 0
9.6 0.075 0
9.75 0.075 0
9.9 0.075 0
10.05 0.075 0
10.2 0.075 0
10.35 0.075 0
10.5 0.075 0
10.65 0.075 0
10.8 0.075 0
10.95 0.075 0
11.1 0.075 0
11.25 0.075 0
11.4 0.075 0
11.55 0.075 0
11.7 0.075 0
11.85 0.075 0
12 0.075 0
12.15 0.075 0
12.3 0.075 0
12.45 0.075 0
12.6 0.075 0
12.75 0.075 0
12.9 0.075 0
13.05 0.075 0
13.2 0.075 0
13.35 0.075 0
13.5 0.075 0
13.65 0.075 0
13.8 0.075 0
13.95 0.075 0
14.1 0.075 0
14.25 0.075 0
14.4 0.075 0
14.55 0.075 0
14.7 0.075 0
14.85 0.075 0
15 0.075 0
15.15 0.075 0
15.3 0.075 0
15.45 0.075 0
15.6 0.075 0
15.75 0.075 0
15.9 0.075 0
16.05 0.075 0
16.2 0.075 0
16.35 0.075 0
16.5 0.075 0
16.65 0.075 0
16.8 0.075 0
16.95 0.075 0
17.1 0.075 0
17.25 0.075 0
17.4 0.075 0
17.55 0.075 0
17.7 0.075 0
17.85 0.075 0
18 0.075 0
18.15 0.075 0
18.3 0.075 0
18.45 0.075 0
18.6 0.075 0
18.75 0.075 0
18.9 0.075 0
19.05 0.075 0
19.2 0.075 0
19.35 0.075 0
19.5 0.075 0
19.65 0.075 0
19.8 0.075 0
19.95 0.075 0
20.1 0.075 0
20.25 0.075 0
20.4 0.075 0
20.55 0.075 0
20.7 0.075 0
20.85 0.075 0
21 0.075 0
21.15 0.075 0
21.3 0.075 0
21.45 0.075 0
21.6 0.075 0
21.75 0.075 0
21.9 0.075 0
22.05 0.075 0
22.2 0.075 0
22.35 0.075 0
22.5 0.075 0
22.65 0.075 0
22.8 0.075 0
22.95 0.075 0
23.1 0.075 0
23.25 0.075 0
23.4 0.075 0
23.55 0.075 0
23.7 0.075 0
23.85 0.075 0
24 0.075 0
24.15 0.075 0
24.3 0.075 0
24.45 0.075 0
24.6 0.075 0
24.75 0.075 0
24.9 0.075 0
25.05 0.075 0
25.2 0.075 0
25.35 0.075 0
25.5 0.075 0
25.65 0.075 0
25.8 0.075 0
25.95 0.075 0
26.1 0.075 0
26.25 0.075 0
26.4 0.075 0
26.55 0.075 0
26.7 0.075 0
26.85 0.075 0
27 0.075 0
27.15 0.075 0
27.3 0.075 0
27.45 0.075 0
27.6 0.075 0
27.75 0.075 0
27.9 0.075 0
28.05 0.075 0
28.2 0.075 0
28.35 0.075 0
28.5 0.075 0
28.65 0.075 0
28.8 0.075 0
28.95 0.075 0
29.1 0.075 0
29.25 0.075 0
29.4 0.075 0
29.55 0.075 0
29.7 0.075 0
29.85 0.075 0
0 0.15 0
0.15 0.15 0
0.3 0.15 0
0.45 0.15 0
0.6 0.15 0
0.75 0.15 0
0.9 0.15 0
1.05 0.15 0
1.2 0.15 0
1.35 0.15 0
1.5 0.15 0
1.65 0.15 0
1.8 0.15 0
1.95 0.15 0
2.1 0.15 0
2.25 0.15 0
2.4 0.15 0
2.55 0.15 0
2.7 0.15 0
2.85 0.15 0
3 0.15 0
3.15 0.15 0
3.3 0.15 0
3.45 0.15 0
3.6 0.15 0
3.75 0.15 0
3.9 0.15 0
4.05 0.15 0
4.2 0.15 0
4.35 0.15 0
4.5 0.15 0
4.65 0.15 0
4.8 0.15 0
4.95 0.15 0
5.1 0.15 0
5.25 0.15 0
5.4 0.15 0
5.55 0.15 0
5.7 0.15 0
5.85 0.15 0
6 0.15 0
6.15 0.15 0
6.3 0.15 0
6.45 0.15 0
6.6 0.15 0
6.75 0.15 0
6.9 0.15 0
7.05 0.15 0
7.2 0.15 0
7.35 0.15 0
7.5 0.15 0
7.65 0.15 0
7.8 0.15 0
7.95 0.15 0
8.1 0.15 0
8.25 0.15 0
8.4 0.15 0
8.55 0.15 0
8.7 0.15 0
8.85 0.15 0
9 0.15 0
9.15 0.15 0
9.3 0.15 0
9.45 0.15 0
9.6 0.15 0
9.75 0.15 0
9.9 0.15 0
10.05 0.15 0
10.2 0.15 0
10.35 0.15 0
10.5 0.15 0
10.65 0.15 0
10.8 0.15 0
10.95 0.15 0
11.1 0.15 0
11.25 0.15 0
11.4 0.15 0
11.55 0.15 0
11.7 0.15 0
11.85 0.15 0
12 0.15 0
12.15 0.15 0
12.3 0.15 0
12.45 0.15 0
12.6 0.15 0
12.75 0.15 0
12.9 0.15 0
13.05 0.15 0
13.2 0.15 0
13.35 0.15 0
13.5 0.15 0
13.65 0.15 0
13.8 0.15 0
13.95 0.15 0
14.1 0.15 0
14.25 0.15 0
14.4 0.15 0
14.55 0.15 0
14.7 0.15 0
14.85 0.15 0
15 0.15 0
15.15 0.15 0
15.3 0.15 0
15.45 0.15 0
15.6 0.15 0
15.75 0.15 0
15.9 0.15 0
16.05 0.15 0
16.2 0.15 0
16.35 0.15 0
16.5 0.15 0
16.65 0.15 0
16.8 0.15 0
16.95 0.15 0
17.1 0.15 0
17.25 0.15 0
17.4 0.15 0
17.55 0.15 0
17.7 0.15 0
17.85 0.15 0
18 0.15 0
18.15 0.15 0
18.3 0.15 0
18.45 0.15 0
18.6 0.15 0
18.75 0.15 0
18.9 0.15 0
19.05 0.15 0
19.2 0.15 0
19.35 0.15 0
19.5 0.15 0
19.65 0.15 0
19.8 0.15 0
19.95 0.15 0
20.1 0.15 0
20.25 0.15 0
20.4 0.15 0
20.55 0.15 0
20.7 0.15 0
20.85 0.15 0
21 0.15 0
21.15 0.15 0
21.3 0.15 0
21.45 0.15 0
21.6 0.15 0
21.75 0.15 0
21.9 0.15 0
22.05 0.15 0
22.2 0.15 0
22.35 0.15 0
22.5 0.15 0
22.65 0.15 0
22.8 0.15 0
22.95 0.15 0
23.1 0.15 0
23.25 0.15 0
23.4 0.15 0
23.55 0.15 0
23.7 0.15 0
23.85 0.15 0
24 0.15 0
24.15 0.15 0
24.3 0.15 0
24.45 0.15 0
24.6 0.15 0
24.75 0.15 0
24.9 0.15 0
25.05 0.15 0
25.2 0.15 0
25.35 0.15 0
25.5 0.15 0
25.65 0.15 0
25.8 0.15 0
25.95 0.15 0
26.1 0.15 0
26.25 0.15 0
26.4 0.15 0
26.55 0.15 0
26.7 0.15 0
26.85 0.15 0
27 0.15 0
27.15 0.15 0
27.3 0.15 0
27.45 0.15 0
27.6 0.15 0
27.75 0.15 0
27.9 0.15 0
28.05 0.15 0
28.2 0.15 0
28.35 0.15 0
28.5 0.15 0
28.65 0.15 0
28.8 0.15 0
28.95 0.15 0
29.1 0.15 0
29.25 0.15 0
29.4 0.15 0
29.55 0.15 0
29.7 0.15 0
29.85 0.15 0
0 0.225 0
0.15 0.225 0
0.3 0.225 0
0.45 0.225 0
0.6 0.225 0
0.75 0.225 0
0.9 0.225 0
1.05 0.225 0
1.2 0.225 0
1.35 0.225 0
1.5 0.225 0
1.65 0.225 0
1.8 0.225 0
1.95 0.225 0
2.1 0.225 0
2.25 0.225 0
2.4 0.225 0
2.55 0.225 0
2.7 0.225 0
2.85 0.225 0
3 0.225 0
3.15 0.225 0
3.3 0.225 0
3.45 0.225 0
3.6 0.225 0
3.75 0.225 0
3.9 0.225 0
4.05 0.225 0
4.2 0.225 0
4.35 0.225 0
4.5 0.225 0
4.65 0.225 0
4.8 0.225 0
4.95 0.225 0
5.1 0.225 0
5.25 0.225 0
5.4 0.225 0
5.55 0.225 0
5.7 0.225 0
5.85 0.225 0
6 0.225 0
6.15 0.225 0
6.3 0.225 0
6.45 0.225 0
6.6 0.225 0
6.75 0.225 0
6.9 0.225 0
7.05 0.225 0
7.2 0.225 0
7.35 0.225 0
7.5 0.225 0
7.65 0.225 0
7.8 0.225 0
7.95 0.225 0
8.1 0.225 0
8.25 0.225 0
8.4 0.225 0
8.55 0.225 0
8.7 0.225 0
8.85 0.225 0
9 0.225 0
9.15 0.225 0
9.3 0.225 0
9.45 0.225 0
9.6 0.225 0
9.75 0.225 0
9.9 0.225 0
10.05 0.225 0
10.2 0.225 0
10.35 0.225 0
10.5 0.225 0
10.65 0.225 0
10.8 0.225 0
10.95 0.225 0
11.1 0.225 0
11.25 0.225 0
11.4 0.225 0
11.55 0.225 0
11.7 0.225 0
11.85 0.225 0
12 0.225 0
12.15 0.225 0
12.3 0.225 0
12.45 0.225 0
12.6 0.225 0
12.75 0.225 0
12.9 0.225 0
13.05 0.225 0
13.2 0.225 0
13.35 0.225 0
13.5 0.225 0
13.65 0.225 0
13.8 0.225 0
13.95 0.225 0
14.1 0.225 0
14.25 0.225 0
14.4 0.225 0
14.55 0.225 0
14.7 0.225 0
14.85 0.225 0
15 0.225 0
15.15 0.225 0
15.3 0.225 0
15.45 0.225 0
15.6 0.225 0
15.75 0.225 0
15.9 0.225 0
16.05 0.225 0
16.2 0.225 0
16.35 0.225 0
16.5 0.225 0
16.65 0.225 0
16.8 0.225 0
16.95 0.225 0
17.1 0.225 0
17.25 0.225 0
17.4 0.225 0
17.55 0.225 0
17.7 0.225 0
17.85 0.225 0
18 0.225 0
18.15 0.225 0
18.3 0.225 0
18.45 0.225 0
18.6 0.225 0
18.75 0.225 0
18.9 0.225 0
19.05 0.225 0
19.2 0.225 0
19.35 0.225 0
19.5 0.225 0
19.65 0.225 0
19.8 0.225 0
19.95 0.225 0
20.1 0.225 0
20.25 0.225 0
20.4 0.225 0
20.55 0.225 0
20.7 0.225 0
20.85 0.225 0
21 0.225 0
21.15 0.225 0
21.3 0.225 0
21.45 0.225 0
21.6 0.225 0
21.75 0.225 0
21.9 0.225 0
22.05 0.225 0
22.2 0.225 0
22.35 0.225 0
22.5 0.225 0
22.65 0.225 0
22.8 0.225 0
22.95 0.225 0
23.1 0.225 0
23.25 0.225 0
23.4 0.225 0
23.55 0.225 0
23.7 0.225 0
23.85 0.225 0
24 0.225 0
24.15 0.225 0
24.3 0.225 0
24.45 0.225 0
24.6 0.225 0
24.75 0.225 0
24.9 0.225 0
25.05 0.225 0
25.2 0.225 0
25.35 0.225 0
25.5 0.225 0
25.65 0.225 0
25.8 0.225 0
25.95 0.225 0
26.1 0.225 0
26.25 0.225 0
26.4 0.225 0
26.55 0.225 0
26.7 0.225 0
26.85 0.225 0
27 0.225 0
27.15 0.225 0
27.3 0.225 0
27.45 0.225 0
27.6 0.225 0
27.75 0.225 0
27.9 0.225 0
28.05 0.225 0
28.2 0.225 0
28.35 0.225 0
28.5 0.225 0
28.65 0.225 0
28.8 0.225 0
28.95 0.225 0
29.1 0.225 0
29.25 0.225 0
29.4 0.225 0
29.55 0.225 0
29.7 0.225 0
29.85 0.225 0
0 0.3 0
0.15 0.3 0
0.3 0.3 0
0.45 0.3 0
0.6 0.3 0
0.75 0.3 0
0.9 0.3 0
1.05 0.3 0
1.2 0.3 0
1.35 0.3 0
1.5 0.3 0
1.65 0.3 0
1.8 0.3 0
1.95 0.3 0
2.1 0.3 0
2.25 0.3 0
2.4 0.3 0
2.55 0.3 0
2.7 0.3 0
2.85 0.3 0
3 0.3 0
3.15 0.3 0
3.3 0.3 0
3.45 0.3 0
3.6 0.3 0
3.75 0.3 0
3.9 0.3 0
4.05 0.3 0
4.2 0.3 0
4.35 0.3 0
4.5 0.3 0
4.65 0.3 0
4.8 0.3 0
4.95 0.3 0
5.1 0.3 0
5.25 0.3 0
5.4 0.3 0
5.55 0.3 0
5.7 0.3 0
5.85 0.3 0
6 0.3 0
6.15 0.3 0
[...]
POINT_DATA 40000

SCALARS p float 1
LOOKUP_TABLE default
20183.22297
20183.22297
20183.16764
20183.14009
20183.12199
20183.10947
20183.10273
20183.10305
20183.11055
20183.12338
20183.13857
20183.15355
20183.16697
20183.17864
20183.18887
20183.1977
20183.20504
20183.21109
20183.21608
20183.21898
20183.21666
20183.20693
20183.17641
20183.12211
20183.19083
20183.607
20183.49129
20183.13435
20182.89434
20182.68296
20182.47725
20182.27052
20182.06062
20181.84667
20181.62799
20181.40356
20181.17169
20180.92958
20180.67286
20180.39608
20180.10124
20179.9477
20180.04941
20179.97798
20179.847
20179.78027
20179.75143
20179.71814
20179.64372
20179.56232
20179.48359
20179.37927
20179.2776
20179.22614
20179.2547
20179.37291
20179.57332
20179.83092
20180.10096
20180.3113
20180.38
20180.35911
20180.38471
20180.41232
20180.35104
20180.13289
20179.95334
20179.82298
20179.69634
20179.66002
20179.66061
20179.64148
20179.57071
20179.46627
20179.42458
20179.5366
20179.66988
20179.70518
20179.67935
20179.64315
20179.61593
20179.60159
20179.59666
20179.59347
20179.58675
20179.57468
20179.55078
20179.51221
20179.46981
20179.3588
20179.21271
20179.10626
20179.01044
20178.89545
20178.77034
20178.65652
20178.57094
20178.52306
20178.5166
20178.55166
20178.62619
20178.73693
20178.88002
20179.05129
20179.24651
20179.46152
20179.69235
20179.93526
20180.18679
20180.44376
20180.7032
20180.96217
20181.21756
20181.466
20181.70373
20181.92647
20182.12987
20182.30965
20182.46227
20182.58527
20182.67766
20182.73999
20182.77427
20182.78368
20182.77219
20182.74404
20182.70327
20182.65348
20182.59772
20182.53848
20182.47781
20182.41729
20182.358
20182.30059
20182.24536
20182.1924
20182.14178
20182.09359
20182.04799
20182.00513
20181.96504
20181.92765
20181.89274
20181.8601
20181.82958
20181.80105
20181.77436
20181.74921
20181.72528
20181.70232
20181.68026
20181.65913
20181.63903
20181.61997
20181.60191
20181.5847
20181.56812
20181.552
20181.53631
20181.52121
20181.50683
20181.49301
20181.47934
20181.46537
20181.45079
20181.43541
20181.41917
20181.40208
20181.38421
20181.36565
20181.34644
20181.32656
20181.306
20181.28487
20181.26342
20181.24205
20181.22129
20181.20168
20181.18371
20181.1677
20181.1538
20181.14203
20181.13222
20181.12412
20181.11739
20181.11162
20181.10635
20181.10113
20181.09552
20181.08915
20181.08174
20181.07316
20181.0633
20181.05226
20181.04012
20181.02714
20181.01351
20180.99957
20180.98553
20180.98553
20183.22297
20183.22297
20183.16764
20183.14009
20183.12199
20183.10947
20183.10273
20183.10305
20183.11055
20183.12338
20183.13857
20183.15355
20183.16697
20183.17864
20183.18887
20183.1977
20183.20504
20183.21109
20183.21608
20183.21898
20183.21666
20183.20693
20183.17641
20183.12211
20183.19083
20183.607
20183.49129
20183.13435
20182.89434
20182.68296
20182.47725
20182.27052
20182.06062
20181.84667
20181.62799
20181.40356
20181.17169
20180.92958
20180.67286
20180.39608
20180.10124
20179.9477
20180.04941
20179.97798
20179.847
20179.78027
20179.75143
20179.71814
20179.64372
20179.56232
20179.48359
20179.37927
20179.2776
20179.22614
20179.2547
20179.37291
20179.57332
20179.83092
20180.10096
20180.3113
20180.38
20180.35911
20180.38471
20180.41232
20180.35104
20180.13289
20179.95334
20179.82298
20179.69634
20179.66002
20179.66061
20179.64148
20179.57071
20179.46627
20179.42458
20179.5366
20179.66988
20179.70518
20179.67935
20179.64315
20179.61593
20179.60159
20179.59666
20179.59347
20179.58675
20179.57468
20179.55078
20179.51221
20179.46981
20179.3588
20179.21271
20179.10626
20179.01044
20178.89545
20178.77034
20178.65652
20178.57094
20178.52306
20178.5166
20178.55166
20178.62619
20178.73693
20178.88002
20179.05129
20179.24651
20179.46152
20179.69235
20179.93526
20180.18679
20180.44376
20180.7032
20180.96217
20181.21756
20181.466
20181.70373
20181.92647
20182.12987
20182.30965
20182.46227
20182.58527
20182.67766
20182.73999
20182.77427
20182.78368
20182.77219
20182.74404
20182.70327
20182.65348
20182.59772
20182.53848
20182.47781
20182.41729
20182.358
20182.30059
20182.24536
20182.1924
20182.14178
20182.09359
20182.04799
20182.00513
20181.96504
20181.92765
20181.89274
20181.8601
20181.82958
20181.80105
20181.77436
20181.74921
20181.72528
20181.70232
20181.68026
20181.65913
20181.63903
20181.61997
20181.60191
20181.5847
20181.56812
20181.552
20181.53631
20181.52121
20181.50683
20181.49301
20181.47934
20181.46537
20181.45079
20181.43541
20181.41917
20181.40208
20181.38421
20181.36565
20181.34644
20181.32656
20181.306
20181.28487
20181.26342
20181.24205
20181.22129
20181.20168
20181.18371
20181.1677
20181.1538
20181.14203
20181.13222
20181.12412
20181.11739
20181.11162
20181.10635
20181.10113
20181.09552
20181.08915
20181.08174
20181.07316
20181.0633
20181.05226
20181.04012
20181.02714
20181.01351
20180.99957
20180.98553
20180.98553
20183.19034
20183.19034
20183.15855
20183.1356
20183.11954
20183.1086
20183.10311
20183.10417
20183.1119
20183.12464
20183.13967
20183.15453
20183.16785
20183.17945
20183.18961
20183.19834
20183.20554
20183.21142
20183.21636
20183.21976
20183.219
20183.20694
20183.15826
20183.08213
20183.10041
20183.39639
20183.35679
20183.10594
20182.88747
20182.6816
20182.47751
20182.2713
20182.06161
20181.84783
20181.62939
20181.40538
20181.1742
20180.93316
20180.67776
20180.40042
20180.08589
20179.91392
20179.97297
20179.9455
20179.82814
20179.77271
20179.75324
20179.72423
20179.65059
20179.55596
20179.45887
20179.34589
20179.24353
20179.19361
20179.22309
20179.34064
20179.53865
20179.79186
20180.0552
20180.26072
20180.33399
20180.34129
20180.38414
20180.40223
20180.31582
20180.06323
20179.88557
20179.76982
20179.67988
20179.65872
20179.66422
20179.65069
20179.57048
20179.43948
20179.37723
20179.49325
20179.65083
20179.70088
20179.67721
20179.64185
20179.61537
20179.60098
20179.59611
20179.59311
20179.58623
20179.57415
20179.5526
20179.51117
20179.47257
20179.37173
20179.22007
20179.09743
20178.98859
20178.86804
20178.74285
20178.63155
20178.54921
20178.50443
20178.50063
20178.53787
20178.61417
20178.72634
20178.8706
20179.04283
20179.23883
20179.45447
20179.68577
20179.929
20180.1807
20180.43772
20180.6971
20180.95593
20181.21118
20181.45952
20181.69724
20181.92009
20182.1237
20182.30377
20182.45672
20182.58007
20182.67279
20182.73541
20182.76993
20182.77954
20182.76823
20182.74025
20182.69969
20182.65014
20182.59463
20182.53564
20182.47523
20182.41496
20182.35593
20182.2988
20182.24384
20182.19114
20182.14075
20182.09277
20182.04737
20182.00469
20181.96479
20181.92756
20181.8928
20181.86026
20181.8298
20181.80133
20181.77469
20181.74959
20181.7257
20181.70275
20181.68067
20181.65952
20181.6394
20181.62034
20181.60228
20181.58508
20181.56851
20181.55236
20181.53661
20181.52146
20181.50706
20181.49328
20181.47966
20181.46574
20181.45118
20181.4358
20181.41956
20181.40245
20181.38457
20181.36601
20181.34681
20181.32694
20181.30638
20181.28522
20181.26368
20181.2422
20181.22131
20181.20158
20181.18349
20181.1674
20181.15345
20181.14165
20181.13184
20181.12376
20181.11707
20181.11135
20181.10615
20181.101
20181.09545
20181.08914
20181.08177
20181.0732
20181.06334
20181.05229
20181.04013
20181.02712
20181.01345
20180.99949
20180.98548
20180.98548
20183.16462
20183.16462
20183.14528
20183.12759
20183.11432
20183.10546
20183.10152
20183.10334
20183.11103
20183.12336
20183.13813
20183.15315
20183.16702
20183.17927
20183.1899
20183.19883
20183.20607
20183.21194
20183.21703
20183.22124
20183.22121
20183.20327
20183.13365
20183.04934
20183.04329
20183.2086
20183.22071
20183.0695
20182.8778
20182.67991
20182.47834
20182.27296
20182.06362
20181.85016
20181.6322
20181.40901
20181.1792
20180.94036
20180.68811
20180.41335
20180.08606
20179.88764
20179.92066
20179.91038
20179.79933
20179.75709
20179.7497
20179.71655
20179.63092
20179.51461
20179.39207
20179.26799
20179.1666
20179.12056
20179.1522
20179.26885
20179.46279
20179.70917
20179.96508
20180.16953
20180.26594
20180.32573
20180.39149
20180.37439
20180.22522
20179.93854
20179.77137
20179.68286
20179.62862
20179.63553
20179.66315
20179.65479
20179.55271
20179.37706
20179.28284
20179.40629
20179.60354
20179.68144
20179.66563
20179.63567
20179.61459
20179.60237
20179.59745
20179.59396
20179.58706
20179.57381
20179.55615
20179.51432
20179.45448
20179.34423
20179.18918
20179.0494
20178.92403
20178.79838
20178.67711
20178.57363
20178.49971
20178.46249
20178.46501
20178.50737
20178.5878
20178.70331
20178.85029
20179.02475
20179.22256
20179.43965
20179.67204
20179.91603
20180.16819
20180.42537
20180.68468
20180.94331
20181.19836
20181.44659
20181.68438
20181.90753
20182.11162
20182.29233
20182.44596
20182.56996
20182.66326
20182.72637
20182.76126
20182.77114
20182.76005
20182.73232
20182.69208
20182.64291
20182.58783
20182.5293
20182.46934
20182.40954
20182.35099
20182.29433
20182.23983
20182.18756
20182.13757
20182.08998
20182.04494
20182.00262
20181.96305
20181.92612
20181.89158
20181.8592
20181.82884
20181.80044
20181.77389
20181.74891
20181.72513
20181.70228
20181.68029
20181.65924
20181.63924
20181.6203
20181.60235
20181.58524
20181.56873
20181.55259
20181.53682
20181.52164
20181.50727
20181.49356
20181.48005
20181.4662
20181.45166
20181.43628
20181.42
20181.40285
20181.38493
20181.36638
20181.3472
20181.32737
20181.30681
20181.28559
20181.26394
20181.24228
20181.22119
20181.20128
20181.18305
20181.16687
20181.15288
20181.14108
20181.13131
20181.1233
20181.11669
20181.11109
20181.10601
20181.10099
20181.09554
20181.08932
20181.08199
20181.07343
20181.06354
20181.05244
20181.04018
20181.02706
20181.01327
20180.99923
20180.9852
20180.9852
20183.14389
20183.14389
20183.1316
20183.11828
20183.10763
20183.10062
20183.09796
20183.10031
20183.10772
20183.11933
20183.13348
20183.14843
20183.16286
20183.17611
20183.18786
20183.19782
20183.20588
20183.21224
20183.2177
20183.22246
20183.22174
20183.19819
20183.11886
20183.04746
20183.04507
20183.12943
20183.14849
20183.04326
20182.87041
20182.6794
20182.4802
20182.27564
20182.06668
20181.85362
20181.63635
20181.41433
20181.18651
20180.95099
20180.70412
20180.4377
20180.11755
20179.92151
20179.93762
20179.90972
20179.79345
20179.74671
20179.73518
20179.68503
20179.57619
20179.43526
20179.29119
20179.15829
20179.05782
20179.01498
20179.04756
20179.16143
20179.3491
20179.58729
20179.83775
20180.04915
20180.18604
20180.29869
20180.39504
20180.33503
20180.09981
20179.80147
20179.6657
20179.59132
20179.54188
20179.57509
20179.63452
20179.63333
20179.51248
20179.29888
20179.17559
20179.30209
20179.53738
20179.64925
20179.64625
20179.62502
20179.61333
20179.60558
20179.60085
20179.5959
20179.58867
20179.57464
20179.54502
20179.48643
20179.39812
20179.2697
20179.11139
20178.96293
20178.82949
20178.70448
20178.59094
20178.4981
20178.4348
20178.40694
20178.41726
20178.46599
20178.55158
20178.67131
20178.82175
20178.99906
20179.1992
20179.41814
20179.65193
20179.89689
20180.14958
20180.40691
20180.66606
20180.92432
20181.17899
20181.42697
20181.66473
20181.8882
20182.09287
20182.27436
20182.42885
20182.55371
20182.64781
20182.7116
20182.74706
20182.7574
20182.74671
20182.71941
20182.67971
20182.63121
20182.57686
20182.51908
20182.45987
20182.4008
20182.34298
20182.28703
20182.2332
20182.18157
20182.13218
20182.08515
20182.04064
20181.99881
20181.95967
20181.9231
20181.88883
20181.85665
20181.82645
20181.79819
20181.77178
20181.74697
20181.72339
20181.70075
20181.67898
20181.65815
20181.63837
20181.61965
20181.6019
20181.58495
20181.56854
20181.55246
20181.53672
20181.52159
20181.50729
20181.49371
20181.48031
20181.46655
20181.45207
20181.4367
20181.42038
20181.40317
20181.38523
20181.3667
20181.34761
20181.32785
20181.30734
20181.28609
20181.26432
20181.24247
20181.22116
20181.20104
20181.18264
20181.16636
20181.15233
20181.14054
20181.13081
20181.12288
20181.11639
20181.11093
20181.10599
20181.10112
20181.09579
20181.08966
20181.08236
20181.07379
20181.06383
20181.05261
20181.04018
20181.02687
20181.01285
20180.99863
20180.98446
20180.98446
20183.12639
20183.12639
20183.11831
20183.10843
20183.10009
20183.09469
20183.09303
20183.09567
20183.10267
20183.11338
20183.12661
20183.14103
20183.15556
20183.16951
20183.18242
20183.19382
20183.20341
20183.21112
20183.21738
20183.2221
20183.21971
20183.19435
20183.1181
20183.0631
20183.06958
20183.12016
20183.13145
20183.03355
20182.86858
20182.68131
20182.48353
20182.27945
20182.07078
20181.85816
20181.64172
20181.42117
20181.19588
20180.96465
20180.7252
20180.47269
20180.17635
20180.00323
20180.01152
20179.96214
20179.83432
20179.76334
20179.72024
20179.63389
20179.49387
20179.32875
20179.16673
20179.02591
20178.9249
20178.88337
20178.91491
20179.02404
20179.20387
20179.4338
20179.68132
20179.90405
20180.07566
20180.22276
20180.34094
20180.26947
20179.98743
20179.69691
20179.5862
20179.51517
20179.4508
20179.47968
20179.56631
20179.57975
20179.45742
20179.23428
20179.09882
20179.22037
20179.47473
20179.61322
20179.62467
20179.61342
20179.61144
20179.60931
20179.60543
20179.59911
20179.58652
20179.5588
20179.50465
20179.41788
20179.30296
20179.16158
20179.00422
20178.85544
20178.72163
20178.60102
20178.49626
20178.41403
20178.3612
20178.34268
20178.36096
20178.41634
20178.50747
20178.63181
20178.7861
20178.96663
20179.16943
20179.39051
20179.62594
20179.87201
20180.1253
20180.38275
20180.64163
20180.89934
20181.1534
20181.40094
20181.63853
20181.86225
20182.06753
20182.24989
20182.40538
20182.53123
20182.62628
20182.69095
20182.72719
20182.73819
20182.7281
20182.70145
20182.66254
20182.615
20182.56172
20182.50504
20182.4469
20182.38888
20182.33206
20182.27707
20182.22414
20182.17336
20182.12477
20182.07849
20182.03467
20181.99346
20181.95485
20181.91871
20181.88478
20181.85286
20181.82287
20181.79482
20181.76861
20181.74401
20181.72067
20181.69831
20181.67683
20181.65631
20181.63683
20181.61839
20181.60088
20181.5841
20181.56782
20181.55184
20181.53621
20181.5212
20181.507
20181.4935
20181.4802
20181.46655
20181.45215
20181.43682
20181.4205
20181.4033
20181.38541
20181.36699
20181.34805
20181.32846
20181.30807
20181.28685
20181.26499
20181.24297
20181.22143
20181.20108
20181.18251
20181.16611
20181.15202
20181.14022
20181.13052
20181.12266
20181.11627
20181.11093
20181.10615
20181.10142
20181.09621
20181.09015
20181.08287
20181.07425
20181.06417
20181.05277
20181.04009
20181.02649
20181.01212
20180.99757
20180.98311
20180.98311
20183.111
20183.111
20183.10555
20183.0983
20183.09195
20183.08794
20183.08711
20183.08994
20183.09651
20183.10634
20183.11856
20183.13216
20183.1463
20183.16038
20183.17394
20183.18653
20183.1977
20183.20715
20183.21463
20183.21917
20183.21527
20183.19164
20183.12921
20183.09007
20183.10482
20183.14662
20183.14741
20183.03936
20182.87339
20182.68632
20182.48859
20182.28447
20182.07589
20181.8637
20181.64818
20181.42932
20181.20693
20180.98068
20180.75002
20180.51488
20180.25081
20180.10806
20180.11595
20180.05582
20179.9175
20179.80698
20179.70792
20179.57055
20179.39451
20179.20484
20179.02649
20178.87794
20178.77506
20178.73295
20178.76169
20178.86481
20179.03573
20179.25713
20179.50184
20179.73494
20179.93466
20180.10604
20180.22336
20180.16549
20179.89547
20179.6391
20179.53144
20179.4574
20179.37393
20179.37173
20179.47086
20179.50758
20179.40563
20179.20517
20179.07735
20179.18629
20179.43442
20179.58266
20179.60589
20179.60361
20179.60942
20179.61304
20179.60975
20179.59717
20179.56898
20179.51428
20179.42891
20179.31652
20179.18459
20179.03763
20178.88398
20178.73876
20178.60813
20178.4931
20178.39659
20178.32394
20178.28069
20178.27098
20178.29702
20178.3591
20178.45594
20178.58518
20178.74364
20178.92771
20179.1335
20179.357
20179.59431
20179.84168
20180.09567
20180.35323
20180.61174
20180.86874
20181.12195
20181.36881
20181.60606
20181.82991
20182.03579
20182.21907
20182.37563
20182.50257
20182.59867
20182.66437
20182.70159
20182.71351
20182.70427
20182.67851
20182.64064
20182.59434
20182.54246
20182.48724
20182.43055
20182.3739
20182.31839
20182.2646
20182.21279
20182.16306
20182.11546
20182.07013
20182.02719
20181.98675
20181.94878
20181.91315
20181.87962
20181.84804
20181.81836
20181.79059
20181.76467
20181.74034
20181.71727
20181.6952
20181.67406
20181.65392
20181.63482
20181.61671
20181.59942
20181.58277
20181.56657
20181.55072
20181.53528
20181.52046
20181.50641
20181.49296
20181.47969
20181.4661
20181.45177
20181.43651
20181.42026
20181.40317
20181.38545
20181.36725
20181.34857
20181.32924
20181.30905
20181.28794
20181.26607
20181.24392
20181.22218
20181.20162
20181.18287
20181.16635
20181.15219
20181.14035
20181.13065
20181.1228
20181.11646
20181.11122
20181.10655
20181.10194
20181.09683
20181.09082
20181.08352
20181.07482
20181.06456
20181.05292
20181.03991
20181.02591
20181.01106
20180.996
20180.98101
20180.98101
20183.09702
20183.09702
20183.09329
20183.08804
20183.08334
20183.08052
20183.08039
20183.08339
20183.0896
20183.09866
20183.10992
20183.12263
20183.13611
20183.14986
20183.16351
20183.17668
20183.18896
20183.19986
20183.20858
20183.2134
20183.20853
20183.1888
20183.1458
20183.1227
20183.14288
20183.18557
20183.17957
20183.05692
20182.88441
20182.69448
20182.4954
20182.29064
20182.08193
20181.87011
20181.65557
20181.43852
20181.21923
20180.99825
20180.77681
20180.55988
20180.32883
20180.21442
20180.22503
20180.16349
20180.01643
20179.85882
20179.69293
20179.49914
20179.28522
20179.07064
20178.87716
20178.7212
20178.61558
20178.5715
20178.59636
20178.69253
20178.85338
20179.06542
20179.30658
20179.54789
20179.76814
20179.95487
20180.07128
20180.03567
20179.81706
20179.60606
20179.49278
20179.41052
20179.30482
20179.27084
20179.37038
20179.43717
20179.37461
20179.22047
20179.11528
20179.20661
20179.42547
20179.56177
20179.58809
20179.59288
20179.60631
20179.61526
20179.60836
20179.58066
20179.52501
20179.43848
20179.32672
20179.19727
20179.05646
20178.90808
20178.75847
20178.61751
20178.49094
20178.38143
20178.29229
20178.22813
20178.19359
20178.19216
20178.22573
20178.2945
20178.39724
20178.5316
20178.69454
20178.88247
20179.09156
20179.3178
20179.55726
20179.80616
20180.06101
20180.31873
20180.5768
20180.83293
20181.08508
20181.33098
20181.56768
20181.7915
20181.99792
20182.18216
20182.33985
20182.46795
20182.56516
20182.63198
20182.67036
20182.68346
20182.67539
20182.65083
20182.61427
20182.5695
20182.51932
20182.4659
20182.41099
20182.35607
20182.30216
20182.24984
20182.19936
20182.15084
20182.10441
20182.0602
20182.01832
20181.97882
20181.94162
20181.90658
20181.87352
20181.84233
20181.81303
20181.78566
20181.76013
20181.73616
20181.71341
20181.69165
20181.67086
20181.65113
20181.63248
20181.61475
20181.5977
20181.58114
20181.56496
20181.54919
20181.53396
20181.51944
20181.50561
20181.49226
20181.47897
20181.46533
20181.451
20181.4358
20181.4197
20181.40283
20181.38539
20181.36752
20181.34917
20181.33017
20181.31025
20181.28932
20181.26751
20181.24532
20181.22346
20181.20277
20181.1839
20181.16728
20181.15305
20181.14116
20181.1314
20181.12352
20181.11716
20181.11194
20181.10733
20181.10279
20181.09773
20181.09173
20181.08437
20181.07552
20181.06505
20181.05308
20181.03967
20181.02516
20181.0097
20180.99392
20180.97812
20180.97812
20183.08402
20183.08402
20183.08145
20183.0777
20183.07435
20183.07254
20183.073
20183.07615
20183.08207
20183.0905
20183.10094
20183.1128
20183.12554
20183.13876
20183.15212
20183.16536
20183.17811
20183.18987
20183.19955
20183.20525
20183.20066
20183.18722
20183.16227
20183.15439
20183.18059
20183.22709
20183.21782
20183.08227
20182.90038
20182.70538
20182.50378
20182.29784
20182.08877
20181.87726
20181.6637
20181.44849
20181.23231
20181.01653
20180.8038
20180.6036
20180.40101
20180.30733
20180.31953
20180.26033
20180.10426
20179.89943
20179.66864
20179.42105
20179.17026
20178.93181
20178.72483
20178.56213
20178.45346
20178.40672
20178.42694
20178.51506
20178.66526
20178.86767
20179.10385
20179.34925
20179.58264
20179.78176
20179.90507
20179.89157
20179.73948
20179.56162
20179.46175
20179.36532
20179.2348
20179.18461
20179.28217
20179.38399
20179.37335
20179.2777
20179.20358
20179.2743
20179.44615
20179.54902
20179.56667