# vtk DataFile Version 2.0
FlowField
ASCII
DATASET STRUCTURED_GRID
DIMENSIONS 200 1 200
POINTS 40000 float
0 0 0
0.15 0 0
0.3 0 0
0.45 0 0
0.6 0 0
0.75 0 0
0.9 0 0
1.05 0 0
1.2 0 0
1.35 0 0
1.5 0 0
1.65 0 0
1.8 0 0
1.95 0 0
2.1 0 0
2.25 0 0
2.4 0 0
2.55 0 0
2.7 0 0
2.85 0 0
3 0 0
3.15 0 0
3.3 0 0
3.45 0 0
3.6 0 0
3.75 0 0
3.9 0 0
4.05 0 0
4.2 0 0
4.35 0 0
4.5 0 0
4.65 0 0
4.8 0 0
4.95 0 0
5.1 0 0
5.25 0 0
5.4 0 0
5.55 0 0
5.7 0 0
5.85 0 0
6 0 0
6.15 0 0
6.3 0 0
6.45 0 0
6.6 0 0
6.75 0 0
6.9 0 0
7.05 0 0
7.2 0 0
7.35 0 0
7.5 0 0
7.65 0 0
7.8 0 0
7.95 0 0
8.1 0 0
8.25 0 0
8.4 0 0
8.55 0 0
8.7 0 0
8.85 0 0
9 0 0
9.15 0 0
9.3 0 0
9.45 0 0
9.6 0 0
9.75 0 0
9.9 0 0
10.05 0 0
10.2 0 0
10.35 0 0
10.5 0 0
10.65 0 0
10.8 0 0
10.95 0 0
11.1 0 0
11.25 0 0
11.4 0 0
11.55 0 0
11.7 0 0
11.85 0 0
12 0 0
12.15 0 0
12.3 0 0
12.45 0 0
12.6 0 0
12.75 0 0
12.9 0 0
13.05 0 0
13.2 0 0
13.35 0 0
13.5 0 0
13.65 0 0
13.8 0 0
13.95 0 0
14.1 0 0
14.25 0 0
14.4 0 0
14.55 0 0
14.7 0 0
14.85 0 0
15 0 0
15.15 0 0
15.3 0 0
15.45 0 0
15.6 0 0
15.75 0 0
15.9 0 0
16.05 0 0
16.2 0 0
16.35 0 0
16.5 0 0
16.65 0 0
16.8 0 0
16.95 0 0
17.1 0 0
17.25 0 0
17.4 0 0
17.55 0 0
17.7 0 0
17.85 0 0
18 0 0
18.15 0 0
18.3 0 0
18.45 0 0
18.6 0 0
18.75 0 0
18.9 0 0
19.05 0 0
19.2 0 0
19.35 0 0
19.5 0 0
19.65 0 0
19.8 0 0
19.95 0 0
20.1 0 0
20.25 0 0
20.4 0 0
20.55 0 0
20.7 0 0
20.85 0 0
21 0 0
21.15 0 0
21.3 0 0
21.45 0 0
21.6 0 0
21.75 0 0
21.9 0 0
22.05 0 0
22.2 0 0
22.35 0 0
22.5 0 0
22.65 0 0
22.8 0 0
22.95 0 0
23.1 0 0
23.25 0 0
23.4 0 0
23.55 0 0
23.7 0 0
23.85 0 0
24 0 0
24.15 0 0
24.3 0 0
24.45 0 0
24.6 0 0
24.75 0 0
24.9 0 0
25.05 0 0
25.2 0 0
25.35 0 0
25.5 0 0
25.65 0 0
25.8 0 0
25.95 0 0
26.1 0 0
26.25 0 0
26.4 0 0
26.55 0 0
26.7 0 0
26.85 0 0
27 0 0
27.15 0 0
27.3 0 0
27.45 0 0
27.6 0 0
27.75 0 0
27.9 0 0
28.05 0 0
28.2 0 0
28.35 0 0
28.5 0 0
28.65 0 0
28.8 0 0
28.95 0 0
29.1 0 0
29.25 0 0
29.4 0 0
29.55 0 0
29.7 0 0
29.85 0 0
0 0.075 0
0.15 0.075 0
0.3 0.075 0
0.45 0.075 0
0.6 0.075 0
0.75 0.075 0
0.9 0.075 0
1.05 0.075 0
1.2 0.075 0
1.35 0.075 0
1.5 0.075 0
1.65 0.075 0
1.8 0.075 0
1.95 0.075 0
2.1 0.075 0
2.25 0.075 0
2.4 0.075 0
2.55 0.075 0
2.7 0.075 0
2.85 0.075 0
3 0.075 0
3.15 0.075 0
3.3 0.075 0
3.45 0.075 0
3.6 0.075 0
3.75 0.075 0
3.9 0.075 0
4.05 0.075 0
4.2 0.075 0
4.35 0.075 0
4.5 0.075 0
4.65 0.075 0
4.8 0.075 0
4.95 0.075 0
5.1 0.075 0
5.25 0.075 0
5.4 0.075 0
5.55 0.075 0
5.7 0.075 0
5.85 0.075 0
6 0.075 0
6.15 0.075 0
6.3 0.075 0
6.45 0.075 0
6.6 0.075 0
6.75 0.075 0
6.9 0.075 0
7.05 0.075 0
7.2 0.075 0
7.35 0.075 0
7.5 0.075 0
7.65 0.075 0
7.8 0.075 0
7.95 0.075 0
8.1 0.075 0
8.25 0.075 0
8.4 0.075 0
8.55 0.075 0
8.7 0.075 0
8.85 0.075 0
9 0.075 0
9.15 0.075 0
9.3 0.075 0
9.45 0.075 0
9.6 0.075 0
9.75 0.075 0
9.9 0.075 0
10.05 0.075 0
10.2 0.075 0
10.35 0.075 0
10.5 0.075 0
10.65 0.075 0
10.8 0.075 0
10.95 0.075 0
11.1 0.075 0
11.25 0.075 0
11.4 0.075 0
11.55 0.075 0
11.7 0.075 0
11.85 0.075 0
12 0.075 0
12.15 0.075 0
12.3 0.075 0
12.45 0.075 0
12.6 0.075 0
12.75 0.075 0
12.9 0.075 0
13.05 0.075 0
13.2 0.075 0
13.35 0.075 0
13.5 0.075 0
13.65 0.075 0
13.8 0.075 0
13.95 0.075 0
14.1 0.075 0
14.25 0.075 0
14.4 0.075 0
14.55 0.075 0
14.7 0.075 0
14.85 0.075 0
15 0.075 0
15.15 0.075 0
15.3 0.075 0
15.45 0.075 0
15.6 0.075 0
15.75 0.075 0
15.9 0.075 0
16.05 0.075 0
16.2 0.075 0
16.35 0.075 0
16.5 0.075 0
16.65 0.075 0
16.8 0.075 0
16.95 0.075 0
17.1 0.075 0
17.25 0.075 0
17.4 0.075 0
17.55 0.075 0
17.7 0.075 0
17.85 0.075 0
18 0.075 0
18.15 0.075 0
18.3 0.075 0
18.45 0.075 0
18.6 0.075 0
18.75 0.075 0
18.9 0.075 0
19.05 0.075 0
19.2 0.075 0
19.35 0.075 0
19.5 0.075 0
19.65 0.075 0
19.8 0.075 0
19.95 0.075 0
20.1 0.075 0
20.25 0.075 0
20.4 0.075 0
20.55 0.075 0
20.7 0.075 0
20.85 0.075 0
21 0.075 0
21.15 0.075 0
21.3 0.075 0
21.45 0.075 0
21.6 0.075 0
21.75 0.075 0
21.9 0.075 0
22.05 0.075 0
22.2 0.075 0
22.35 0.075 0
22.5 0.075 0
22.65 0.075 0
22.8 0.075 0
22.95 0.075 0
23.1 0.075 0
23.25 0.075 0
23.4 0.075 0
23.55 0.075 0
23.7 0.075 0
23.85 0.075 0
24 0.075 0
24.15 0.075 0
24.3 0.075 0
24.45 0.075 0
24.6 0.075 0
24.75 0.075 0
24.9 0.075 0
25.05 0.075 0
25.2 0.075 0
25.35 0.075 0
25.5 0.075 0
25.65 0.075 0
25.8 0.075 0
25.95 0.075 0
26.1 0.075 0
26.25 0.075 0
26.4 0.075 0
26.55 0.075 0
26.7 0.075 0
26.85 0.075 0
27 0.075 0
27.15 0.075 0
27.3 0.075 0
27.45 0.075 0
27.6 0.075 0
27.75 0.075 0
27.9 0.075 0
28.05 0.075 0
28.2 0.075 0
28.35 0.075 0
28.5 0.075 0
28.65 0.075 0
28.8 0.075 0
28.95 0.075 0
29.1 0.075 0
29.25 0.075 0
29.4 0.075 0
29.55 0.075 0
29.7 0.075 0
29.85 0.075 0
0 0.15 0
0.15 0.15 0
0.3 0.15 0
0.45 0.15 0
0.6 0.15 0
0.75 0.15 0
0.9 0.15 0
1.05 0.15 0
1.2 0.15 0
1.35 0.15 0
1.5 0.15 0
1.65 0.15 0
1.8 0.15 0
1.95 0.15 0
2.1 0.15 0
2.25 0.15 0
2.4 0.15 0
2.55 0.15 0
2.7 0.15 0
2.85 0.15 0
3 0.15 0
3.15 0.15 0
3.3 0.15 0
3.45 0.15 0
3.6 0.15 0
3.75 0.15 0
3.9 0.15 0
4.05 0.15 0
4.2 0.15 0
4.35 0.15 0
4.5 0.15 0
4.65 0.15 0
4.8 0.15 0
4.95 0.15 0
5.1 0.15 0
5.25 0.15 0
5.4 0.15 0
5.55 0.15 0
5.7 0.15 0
5.85 0.15 0
6 0.15 0
6.15 0.15 0
6.3 0.15 0
6.45 0.15 0
6.6 0.15 0
6.75 0.15 0
6.9 0.15 0
7.05 0.15 0
7.2 0.15 0
7.35 0.15 0
7.5 0.15 0
7.65 0.15 0
7.8 0.15 0
7.95 0.15 0
8.1 0.15 0
8.25 0.15 0
8.4 0.15 0
8.55 0.15 0
8.7 0.15 0
8.85 0.15 0
9 0.15 0
9.15 0.15 0
9.3 0.15 0
9.45 0.15 0
9.6 0.15 0
9.75 0.15 0
9.9 0.15 0
10.05 0.15 0
10.2 0.15 0
10.35 0.15 0
10.5 0.15 0
10.65 0.15 0
10.8 0.15 0
10.95 0.15 0
11.1 0.15 0
11.25 0.15 0
11.4 0.15 0
11.55 0.15 0
11.7 0.15 0
11.85 0.15 0
12 0.15 0
12.15 0.15 0
12.3 0.15 0
12.45 0.15 0
12.6 0.15 0
12.75 0.15 0
12.9 0.15 0
13.05 0.15 0
13.2 0.15 0
13.35 0.15 0
13.5 0.15 0
13.65 0.15 0
13.8 0.15 0
13.95 0.15 0
14.1 0.15 0
14.25 0.15 0
14.4 0.15 0
14.55 0.15 0
14.7 0.15 0
14.85 0.15 0
15 0.15 0
15.15 0.15 0
15.3 0.15 0
15.45 0.15 0
15.6 0.15 0
15.75 0.15 0
15.9 0.15 0
16.05 0.15 0
16.2 0.15 0
16.35 0.15 0
16.5 0.15 0
16.65 0.15 0
16.8 0.15 0
16.95 0.15 0
17.1 0.15 0
17.25 0.15 0
17.4 0.15 0
17.55 0.15 0
17.7 0.15 0
17.85 0.15 0
18 0.15 0
18.15 0.15 0
18.3 0.15 0
18.45 0.15 0
18.6 0.15 0
18.75 0.15 0
18.9 0.15 0
19.05 0.15 0
19.2 0.15 0
19.35 0.15 0
19.5 0.15 0
19.65 0.15 0
19.8 0.15 0
19.95 0.15 0
20.1 0.15 0
20.25 0.15 0
20.4 0.15 0
20.55 0.15 0
20.7 0.15 0
20.85 0.15 0
21 0.15 0
21.15 0.15 0
21.3 0.15 0
21.45 0.15 0
21.6 0.15 0
21.75 0.15 0
21.9 0.15 0
22.05 0.15 0
22.2 0.15 0
22.35 0.15 0
22.5 0.15 0
22.65 0.15 0
22.8 0.15 0
22.95 0.15 0
23.1 0.15 0
23.25 0.15 0
23.4 0.15 0
23.55 0.15 0
23.7 0.15 0
23.85 0.15 0
24 0.15 0
24.15 0.15 0
24.3 0.15 0
24.45 0.15 0
24.6 0.15 0
24.75 0.15 0
24.9 0.15 0
25.05 0.15 0
25.2 0.15 0
25.35 0.15 0
25.5 0.15 0
25.65 0.15 0
25.8 0.15 0
25.95 0.15 0
26.1 0.15 0
26.25 0.15 0
26.4 0.15 0
26.55 0.15 0
26.7 0.15 0
26.85 0.15 0
27 0.15 0
27.15 0.15 0
27.3 0.15 0
27.45 0.15 0
27.6 0.15 0
27.75 0.15 0
27.9 0.15 0
28.05 0.15 0
28.2 0.15 0
28.35 0.15 0
28.5 0.15 0
28.65 0.15 0
28.8 0.15 0
28.95 0.15 0
29.1 0.15 0
29.25 0.15 0
29.4 0.15 0
29.55 0.15 0
29.7 0.15 0
29.85 0.15 0
0 0.225 0
0.15 0.225 0
0.3 0.225 0
0.45 0.225 0
0.6 0.225 0
0.75 0.225 0
0.9 0.225 0
1.05 0.225 0
1.2 0.225 0
1.35 0.225 0
1.5 0.225 0
1.65 0.225 0
1.8 0.225 0
1.95 0.225 0
2.1 0.225 0
2.25 0.225 0
2.4 0.225 0
2.55 0.225 0
2.7 0.225 0
2.85 0.225 0
3 0.225 0
3.15 0.225 0
3.3 0.225 0
3.45 0.225 0
3.6 0.225 0
3.75 0.225 0
3.9 0.225 0
4.05 0.225 0
4.2 0.225 0
4.35 0.225 0
4.5 0.225 0
4.65 0.225 0
4.8 0.225 0
4.95 0.225 0
5.1 0.225 0
5.25 0.225 0
5.4 0.225 0
5.55 0.225 0
5.7 0.225 0
5.85 0.225 0
6 0.225 0
6.15 0.225 0
6.3 0.225 0
6.45 0.225 0
6.6 0.225 0
6.75 0.225 0
6.9 0.225 0
7.05 0.225 0
7.2 0.225 0
7.35 0.225 0
7.5 0.225 0
7.65 0.225 0
7.8 0.225 0
7.95 0.225 0
8.1 0.225 0
8.25 0.225 0
8.4 0.225 0
8.55 0.225 0
8.7 0.225 0
8.85 0.225 0
9 0.225 0
9.15 0.225 0
9.3 0.225 0
9.45 0.225 0
9.6 0.225 0
9.75 0.225 0
9.9 0.225 0
10.05 0.225 0
10.2 0.225 0
10.35 0.225 0
10.5 0.225 0
10.65 0.225 0
10.8 0.225 0
10.95 0.225 0
11.1 0.225 0
11.25 0.225 0
11.4 0.225 0
11.55 0.225 0
11.7 0.225 0
11.85 0.225 0
12 0.225 0
12.15 0.225 0
12.3 0.225 0
12.45 0.225 0
12.6 0.225 0
12.75 0.225 0
12.9 0.225 0
13.05 0.225 0
13.2 0.225 0
13.35 0.225 0
13.5 0.225 0
13.65 0.225 0
13.8 0.225 0
13.95 0.225 0
14.1 0.225 0
14.25 0.225 0
14.4 0.225 0
14.55 0.225 0
14.7 0.225 0
14.85 0.225 0
15 0.225 0
15.15 0.225 0
15.3 0.225 0
15.45 0.225 0
15.6 0.225 0
15.75 0.225 0
15.9 0.225 0
16.05 0.225 0
16.2 0.225 0
16.35 0.225 0
16.5 0.225 0
16.65 0.225 0
16.8 0.225 0
16.95 0.225 0
17.1 0.225 0
17.25 0.225 0
17.4 0.225 0
17.55 0.225 0
17.7 0.225 0
17.85 0.225 0
18 0.225 0
18.15 0.225 0
18.3 0.225 0
18.45 0.225 0
18.6 0.225 0
18.75 0.225 0
18.9 0.225 0
19.05 0.225 0
19.2 0.225 0
19.35 0.225 0
19.5 0.225 0
19.65 0.225 0
19.8 0.225 0
19.95 0.225 0
20.1 0.225 0
20.25 0.225 0
20.4 0.225 0
20.55 0.225 0
20.7 0.225 0
20.85 0.225 0
21 0.225 0
21.15 0.225 0
21.3 0.225 0
21.45 0.225 0
21.6 0.225 0
21.75 0.225 0
21.9 0.225 0
22.05 0.225 0
22.2 0.225 0
22.35 0.225 0
22.5 0.225 0
22.65 0.225 0
22.8 0.225 0
22.95 0.225 0
23.1 0.225 0
23.25 0.225 0
23.4 0.225 0
23.55 0.225 0
23.7 0.225 0
23.85 0.225 0
24 0.225 0
24.15 0.225 0
24.3 0.225 0
24.45 0.225 0
24.6 0.225 0
24.75 0.225 0
24.9 0.225 0
25.05 0.225 0
25.2 0.225 0
25.35 0.225 0
25.5 0.225 0
25.65 0.225 0
25.8 0.225 0
25.95 0.225 0
26.1 0.225 0
26.25 0.225 0
26.4 0.225 0
26.55 0.225 0
26.7 0.225 0
26.85 0.225 0
27 0.225 0
27.15 0.225 0
27.3 0.225 0
27.45 0.225 0
27.6 0.225 0
27.75 0.225 0
27.9 0.225 0
28.05 0.225 0
28.2 0.225 0
28.35 0.225 0
28.5 0.225 0
28.65 0.225 0
28.8 0.225 0
28.95 0.225 0
29.1 0.225 0
29.25 0.225 0
29.4 0.225 0
29.55 0.225 0
29.7 0.225 0
29.85 0.225 0
0 0.3 0
0.15 0.3 0
0.3 0.3 0
0.45 0.3 0
0.6 0.3 0
0.75 0.3 0
0.9 0.3 0
1.05 0.3 0
1.2 0.3 0
1.35 0.3 0
1.5 0.3 0
1.65 0.3 0
1.8 0.3 0
1.95 0.3 0
2.1 0.3 0
2.25 0.3 0
2.4 0.3 0
2.55 0.3 0
2.7 0.3 0
2.85 0.3 0
3 0.3 0
3.15 0.3 0
3.3 0.3 0
3.45 0.3 0
3.6 0.3 0
3.75 0.3 0
3.9 0.3 0
4.05 0.3 0
4.2 0.3 0
4.35 0.3 0
4.5 0.3 0
4.65 0.3 0
4.8 0.3 0
4.95 0.3 0
5.1 0.3 0
5.25 0.3 0
5.4 0.3 0
5.55 0.3 0
5.7 0.3 0
5.85 0.3 0
6 0.3 0
6.15 0.3 0
[...]
POINT_DATA 40000

SCALARS p float 1
LOOKUP_TABLE default
20183.1262
20183.1262
20183.07067
20183.04276
20183.02423
20183.01128
20183.00414
20183.00405
20183.0111
20183.02347
20183.03833
20183.05331
20183.06707
20183.07929
20183.09005
20183.09933
20183.10696
20183.11279
20183.11659
20183.11773
20183.1152
20183.1096
20183.09783
20183.06489
20183.0983
20183.46227
20183.35298
20183.00723
20182.76184
20182.53815
20182.31658
20182.09174
20181.86206
20181.62696
20181.38603
20181.13878
20180.88464
20180.62313
20180.35431
20180.07981
20179.80453
20179.65796
20179.67004
20179.72977
20179.80343
20179.71651
20179.52783
20179.32748
20179.1707
20179.09876
20179.05701
20179.04713
20179.06468
20179.08044
20179.07489
20179.05264
20179.02027
20178.97742
20178.91513
20178.81892
20178.70282
20178.59057
20178.48148
20178.36923
20178.26033
20178.16967
20178.11166
20178.09599
20178.12694
20178.2041
20178.32361
20178.47939
20178.66424
20178.87064
20179.09131
20179.3197
20179.55018
20179.77798
20179.99926
20180.21115
20180.41156
20180.59914
20180.77317
20180.9334
20181.07989
20181.21292
20181.33284
20181.44003
20181.5348
20181.61744
20181.68825
20181.74755
20181.79579
20181.83355
20181.86155
20181.88069
20181.89197
20181.89646
20181.89523
20181.88935
20181.87979
20181.86744
20181.85306
20181.83732
20181.82076
20181.80381
20181.78683
20181.77009
20181.75376
20181.73801
20181.72291
20181.70853
20181.6949
20181.68203
20181.6699
20181.6585
20181.64781
20181.63778
20181.62838
20181.61958
20181.61134
20181.60362
20181.59639
20181.5896
20181.58324
20181.57727
20181.57166
20181.56638
20181.56141
20181.55672
20181.55231
20181.54814
20181.5442
20181.54047
20181.53694
20181.5336
20181.53042
20181.5274
20181.52454
20181.52181
20181.51921
20181.51673
20181.51436
20181.5121
20181.50994
20181.50787
20181.50589
20181.50399
20181.50217
20181.50042
20181.49874
20181.49713
20181.49557
20181.49407
20181.49263
20181.49124
20181.48989
20181.48859
20181.48734
20181.48612
20181.48495
20181.48381
20181.48271
20181.48164
20181.4806
20181.4796
20181.47862
20181.47767
20181.47674
20181.47584
20181.47497
20181.47412
20181.47328
20181.47247
20181.47168
20181.47091
20181.47016
20181.46942
20181.4687
20181.468
20181.46731
20181.46664
20181.46598
20181.46534
20181.4647
20181.46408
20181.46347
20181.46288
20181.46229
20181.46172
20181.46115
20181.46059
20181.46005
20181.4595
20181.45897
20181.45845
20181.45793
20181.45741
20181.45691
20181.45691
20183.1262
20183.1262
20183.07067
20183.04276
20183.02423
20183.01128
20183.00414
20183.00405
20183.0111
20183.02347
20183.03833
20183.05331
20183.06707
20183.07929
20183.09005
20183.09933
20183.10696
20183.11279
20183.11659
20183.11773
20183.1152
20183.1096
20183.09783
20183.06489
20183.0983
20183.46227
20183.35298
20183.00723
20182.76184
20182.53815
20182.31658
20182.09174
20181.86206
20181.62696
20181.38603
20181.13878
20180.88464
20180.62313
20180.35431
20180.07981
20179.80453
20179.65796
20179.67004
20179.72977
20179.80343
20179.71651
20179.52783
20179.32748
20179.1707
20179.09876
20179.05701
20179.04713
20179.06468
20179.08044
20179.07489
20179.05264
20179.02027
20178.97742
20178.91513
20178.81892
20178.70282
20178.59057
20178.48148
20178.36923
20178.26033
20178.16967
20178.11166
20178.09599
20178.12694
20178.2041
20178.32361
20178.47939
20178.66424
20178.87064
20179.09131
20179.3197
20179.55018
20179.77798
20179.99926
20180.21115
20180.41156
20180.59914
20180.77317
20180.9334
20181.07989
20181.21292
20181.33284
20181.44003
20181.5348
20181.61744
20181.68825
20181.74755
20181.79579
20181.83355
20181.86155
20181.88069
20181.89197
20181.89646
20181.89523
20181.88935
20181.87979
20181.86744
20181.85306
20181.83732
20181.82076
20181.80381
20181.78683
20181.77009
20181.75376
20181.73801
20181.72291
20181.70853
20181.6949
20181.68203
20181.6699
20181.6585
20181.64781
20181.63778
20181.62838
20181.61958
20181.61134
20181.60362
20181.59639
20181.5896
20181.58324
20181.57727
20181.57166
20181.56638
20181.56141
20181.55672
20181.55231
20181.54814
20181.5442
20181.54047
20181.53694
20181.5336
20181.53042
20181.5274
20181.52454
20181.52181
20181.51921
20181.51673
20181.51436
20181.5121
20181.50994
20181.50787
20181.50589
20181.50399
20181.50217
20181.50042
20181.49874
20181.49713
20181.49557
20181.49407
20181.49263
20181.49124
20181.48989
20181.48859
20181.48734
20181.48612
20181.48495
20181.48381
20181.48271
20181.48164
20181.4806
20181.4796
20181.47862
20181.47767
20181.47674
20181.47584
20181.47497
20181.47412
20181.47328
20181.47247
20181.47168
20181.47091
20181.47016
20181.46942
20181.4687
20181.468
20181.46731
20181.46664
20181.46598
20181.46534
20181.4647
20181.46408
20181.46347
20181.46288
20181.46229
20181.46172
20181.46115
20181.46059
20181.46005
20181.4595
20181.45897
20181.45845
20181.45793
20181.45741
20181.45691
20181.45691
20183.09363
20183.09363
20183.06166
20183.03838
20183.0219
20183.01051
20183.00459
20183.00519
20183.01243
20183.02468
20183.03939
20183.05425
20183.06795
20183.08012
20183.09085
20183.10007
20183.1076
20183.11336
20183.11717
20183.11853
20183.11657
20183.11062
20183.09002
20183.03432
20183.01577
20183.26776
20183.23089
20182.9829
20182.75665
20182.53767
20182.31739
20182.09293
20181.86338
20181.62838
20181.38757
20181.14046
20180.88645
20180.62492
20180.35569
20180.08002
20179.8035
20179.67466
20179.649
20179.69482
20179.75701
20179.68345
20179.49928
20179.28728
20179.12482
20179.06157
20179.04843
20179.05166
20179.0675
20179.08139
20179.07497
20179.0529
20179.02158
20178.9794
20178.91954
20178.82591
20178.70693
20178.58642
20178.46863
20178.35069
20178.2395
20178.14888
20178.09212
20178.07823
20178.11111
20178.19019
20178.31152
20178.46896
20178.65529
20178.86298
20179.08474
20179.31407
20179.54534
20179.7738
20179.99564
20180.20798
20180.40876
20180.59663
20180.77089
20180.9313
20181.07796
20181.21115
20181.33125
20181.43862
20181.53361
20181.61648
20181.68752
20181.74705
20181.79548
20181.83339
20181.86151
20181.88073
20181.89205
20181.89654
20181.89531
20181.8894
20181.87981
20181.86743
20181.85302
20181.83726
20181.82068
20181.80372
20181.78673
20181.76998
20181.75365
20181.73789
20181.7228
20181.70843
20181.6948
20181.68193
20181.66981
20181.65842
20181.64773
20181.63771
20181.62832
20181.61952
20181.61128
20181.60357
20181.59634
20181.58956
20181.5832
20181.57723
20181.57162
20181.56634
20181.56138
20181.5567
20181.55228
20181.54812
20181.54418
20181.54045
20181.53692
20181.53358
20181.5304
20181.52739
20181.52452
20181.52179
20181.51919
20181.51672
20181.51435
20181.51209
20181.50993
20181.50786
20181.50588
20181.50398
20181.50216
20181.50041
20181.49873
20181.49712
20181.49556
20181.49407
20181.49262
20181.49123
20181.48989
20181.48859
20181.48733
20181.48612
20181.48494
20181.48381
20181.4827
20181.48164
20181.4806
20181.47959
20181.47861
20181.47766
20181.47674
20181.47584
20181.47496
20181.47411
20181.47328
20181.47247
20181.47168
20181.47091
20181.47016
20181.46942
20181.4687
20181.468
20181.46731
20181.46664
20181.46598
20181.46533
20181.4647
20181.46408
20181.46347
20181.46288
20181.46229
20181.46171
20181.46115
20181.46059
20181.46004
20181.4595
20181.45897
20181.45845
20181.45793
20181.45741
20181.45691
20181.45691
20183.06803
20183.06803
20183.04853
20183.03055
20183.0169
20183.0076
20183.0032
20183.00453
20183.01169
20183.02349
20183.03788
20183.05282
20183.06696
20183.07974
20183.09098
20183.10052
20183.10823
20183.11414
20183.11815
20183.11992
20183.1182
20183.11008
20183.07881
20183.00905
20182.96749
20183.10526
20183.11389
20182.95332
20182.75001
20182.53761
20182.31927
20182.09539
20181.86607
20181.63126
20181.39069
20181.14388
20180.89012
20180.62862
20180.35865
20180.08026
20179.79351
20179.65241
20179.60113
20179.6365
20179.68708
20179.62195
20179.44305
20179.21863
20179.04513
20178.99671
20179.03203
20179.06453
20179.08119
20179.08816
20179.07658
20179.05381
20179.02462
20178.98073
20178.91352
20178.81321
20178.68718
20178.5554
20178.42604
20178.30128
20178.18872
20178.10035
20178.04762
20178.03842
20178.0761
20178.15982
20178.28546
20178.44679
20178.63655
20178.84717
20179.07143
20179.30288
20179.53592
20179.76584
20179.9889
20180.20222
20180.40377
20180.59225
20180.76697
20180.92774
20181.07471
20181.2082
20181.32862
20181.43636
20181.53175
20181.61506
20181.68652
20181.74644
20181.79521
20181.83338
20181.86167
20181.88097
20181.89231
20181.89676
20181.89545
20181.88946
20181.87977
20181.8673
20181.85281
20181.83699
20181.82036
20181.80337
20181.78637
20181.76961
20181.75328
20181.73754
20181.72246
20181.7081
20181.69449
20181.68165
20181.66954
20181.65817
20181.6475
20181.6375
20181.62812
20181.61934
20181.61112
20181.60342
20181.5962
20181.58943
20181.58308
20181.57712
20181.57152
20181.56625
20181.56129
20181.55662
20181.55221
20181.54805
20181.54411
20181.54039
20181.53687
20181.53353
20181.53035
20181.52734
20181.52448
20181.52175
20181.51916
20181.51668
20181.51432
20181.51206
20181.5099
20181.50783
20181.50586
20181.50396
20181.50214
20181.50039
20181.49871
20181.4971
20181.49554
20181.49405
20181.4926
20181.49121
20181.48987
20181.48857
20181.48732
20181.4861
20181.48493
20181.48379
20181.48269
20181.48162
20181.48059
20181.47958
20181.4786
20181.47765
20181.47673
20181.47583
20181.47496
20181.4741
20181.47327
20181.47246
20181.47167
20181.4709
20181.47015
20181.46941
20181.46869
20181.46799
20181.4673
20181.46663
20181.46597
20181.46533
20181.4647
20181.46408
20181.46347
20181.46287
20181.46228
20181.46171
20181.46114
20181.46059
20181.46004
20181.4595
20181.45897
20181.45844
20181.45793
20181.45741
20181.45692
20181.45692
20183.04745
20183.04745
20183.03504
20183.02146
20183.01046
20183.00305
20182.99994
20183.00178
20183.00866
20183.01973
20183.03344
20183.04818
20183.0627
20183.07628
20183.08853
20183.0991
20183.10773
20183.11433
20183.11884
20183.12097
20183.11895
20183.10804
20183.07222
20183.01193
20182.97705
20183.04723
20183.05827
20182.93449
20182.74636
20182.53926
20182.3226
20182.09923
20181.87014
20181.63559
20181.39538
20181.14903
20180.89573
20180.6344
20180.36361
20180.08159
20179.77755
20179.60945
20179.54468
20179.57236
20179.61241
20179.54829
20179.37137
20179.14612
20178.97215
20178.93473
20179.01035
20179.07875
20179.10179
20179.10054
20179.08127
20179.05512
20179.02145
20178.96829
20178.88736
20178.7749
20178.63958
20178.49802
20178.36002
20178.23099
20178.11884
20178.03404
20177.98655
20177.9833
20178.02711
20178.11686
20178.24824
20178.41484
20178.60927
20178.82393
20179.05165
20179.28604
20179.52155
20179.75354
20179.97831
20180.19303
20180.39568
20180.58501
20180.76039
20180.92169
20181.06911
20181.20304
20181.32393
20181.43221
20181.52821
20181.61216
20181.68429
20181.74483
20181.79414
20181.83272
20181.8613
20181.88076
20181.89215
20181.89659
20181.8952
20181.8891
20181.87931
20181.86673
20181.85217
20181.83629
20181.81962
20181.80262
20181.78562
20181.76888
20181.75258
20181.73687
20181.72183
20181.70752
20181.69395
20181.68115
20181.66909
20181.65775
20181.64711
20181.63714
20181.6278
20181.61905
20181.61085
20181.60317
20181.59598
20181.58923
20181.58289
20181.57695
20181.57136
20181.5661
20181.56116
20181.55649
20181.55209
20181.54794
20181.54401
20181.5403
20181.53678
20181.53344
20181.53028
20181.52727
20181.52441
20181.52169
20181.5191
20181.51662
20181.51426
20181.51201
20181.50985
20181.50779
20181.50581
20181.50392
20181.5021
20181.50036
20181.49868
20181.49706
20181.49551
20181.49402
20181.49258
20181.49118
20181.48984
20181.48855
20181.48729
20181.48608
20181.48491
20181.48377
20181.48267
20181.4816
20181.48057
20181.47956
20181.47859
20181.47764
20181.47671
20181.47581
20181.47494
20181.47409
20181.47326
20181.47245
20181.47166
20181.47089
20181.47014
20181.4694
20181.46868
20181.46798
20181.46729
20181.46662
20181.46596
20181.46532
20181.46469
20181.46407
20181.46346
20181.46286
20181.46228
20181.4617
20181.46114
20181.46058
20181.46003
20181.45949
20181.45896
20181.45844
20181.45792
20181.45741
20181.45693
20181.45693
20183.03013
20183.03013
20183.02195
20183.01184
20183.00319
20182.99741
20182.99532
20182.99748
20183.00396
20183.01415
20183.02692
20183.04104
20183.05547
20183.06952
20183.08267
20183.09447
20183.10449
20183.11241
20183.11791
20183.12041
20183.11758
20183.10489
20183.07026
20183.02836
20183.00697
20183.04796
20183.05046
20182.93117
20182.7484
20182.54364
20182.32771
20182.10452
20181.87558
20181.64133
20181.40162
20181.15593
20180.90335
20180.6425
20180.37121
20180.08606
20179.76365
20179.56476
20179.49017
20179.51157
20179.54372
20179.47862
20179.30422
20179.08829
20178.92334
20178.8947
20178.99215
20179.08529
20179.11731
20179.11213
20179.08587
20179.05242
20179.00718
20178.93846
20178.84117
20178.71628
20178.57275
20178.4241
20178.28027
20178.14841
20178.03685
20177.95529
20177.91279
20177.91558
20177.96604
20178.06266
20178.20081
20178.37377
20178.57391
20178.79358
20179.02562
20179.26368
20179.5023
20179.73692
20179.96387
20180.18036
20180.38442
20180.57484
20180.75105
20180.913
20181.06097
20181.19544
20181.31693
20181.4259
20181.52269
20181.60751
20181.68053
20181.74192
20181.79197
20181.83116
20181.86017
20181.8799
20181.89141
20181.89585
20181.89441
20181.88821
20181.87831
20181.86564
20181.851
20181.83507
20181.81839
20181.8014
20181.78443
20181.76773
20181.7515
20181.73585
20181.72089
20181.70664
20181.69315
20181.68041
20181.66841
20181.65714
20181.64656
20181.63664
20181.62734
20181.61863
20181.61047
20181.60282
20181.59566
20181.58894
20181.58263
20181.5767
20181.57113
20181.5659
20181.56096
20181.55631
20181.55193
20181.54779
20181.54387
20181.54017
20181.53666
20181.53333
20181.53017
20181.52717
20181.52432
20181.5216
20181.51901
20181.51655
20181.51419
20181.51194
20181.50979
20181.50773
20181.50575
20181.50386
20181.50205
20181.5003
20181.49863
20181.49702
20181.49547
20181.49398
20181.49254
20181.49115
20181.48981
20181.48851
20181.48726
20181.48605
20181.48488
20181.48374
20181.48264
20181.48158
20181.48054
20181.47954
20181.47856
20181.47761
20181.47669
20181.47579
20181.47492
20181.47407
20181.47324
20181.47243
20181.47164
20181.47087
20181.47012
20181.46939
20181.46867
20181.46797
20181.46728
20181.46661
20181.46595
20181.46531
20181.46467
20181.46405
20181.46345
20181.46285
20181.46227
20181.46169
20181.46113
20181.46057
20181.46002
20181.45949
20181.45896
20181.45843
20181.45792
20181.4574
20181.45693
20181.45693
20183.01496
20183.01496
20183.00941
20183.00197
20182.99533
20182.99097
20182.98973
20182.99212
20182.99819
20183.00753
20183.01929
20183.03253
20183.04645
20183.06042
20183.07397
20183.08664
20183.09792
20183.10731
20183.11406
20183.1172
20183.11371
20183.10104
20183.07001
20183.04385
20183.03942
20183.07447
20183.06942
20182.94201
20182.75687
20182.55119
20182.33474
20182.11128
20181.88236
20181.64844
20181.40937
20181.16457
20180.91303
20180.65313
20180.3821
20180.09566
20179.75807
20179.52978
20179.44527
20179.46196
20179.48983
20179.42588
20179.2596
20179.05777
20178.90773
20178.8886
20178.98633
20179.08198
20179.12033
20179.11551
20179.08503
20179.04144
20178.98046
20178.89452
20178.78199
20178.64617
20178.49534
20178.34065
20178.19175
20178.05693
20177.94506
20177.8657
20177.82746
20177.8361
20177.89355
20177.9978
20178.14369
20178.32405
20178.53093
20178.75652
20178.99367
20179.2361
20179.47843
20179.71619
20179.94576
20180.16438
20180.37013
20180.56184
20180.73903
20180.90172
20181.05032
20181.18541
20181.30759
20181.41738
20181.51513
20181.60103
20181.67517
20181.73765
20181.78867
20181.82865
20181.85824
20181.87835
20181.89006
20181.89456
20181.89308
20181.8868
20181.87679
20181.86403
20181.84932
20181.83336
20181.81667
20181.79971
20181.78279
20181.76617
20181.75002
20181.73447
20181.7196
20181.70546
20181.69206
20181.67942
20181.66751
20181.65632
20181.64581
20181.63596
20181.62672
20181.61807
20181.60996
20181.60236
20181.59523
20181.58855
20181.58227
20181.57638
20181.57084
20181.56562
20181.56071
20181.55608
20181.55171
20181.54759
20181.54369
20181.53999
20181.5365
20181.53318
20181.53003
20181.52704
20181.52419
20181.52149
20181.5189
20181.51644
20181.51409
20181.51185
20181.5097
20181.50765
20181.50568
20181.50379
20181.50198
20181.50024
20181.49857
20181.49696
20181.49541
20181.49392
20181.49248
20181.4911
20181.48976
20181.48847
20181.48722
20181.48601
20181.48484
20181.48371
20181.48261
20181.48154
20181.48051
20181.47951
20181.47853
20181.47758
20181.47666
20181.47577
20181.47489
20181.47404
20181.47322
20181.47241
20181.47162
20181.47085
20181.4701
20181.46937
20181.46865
20181.46795
20181.46726
20181.46659
20181.46593
20181.46529
20181.46466
20181.46404
20181.46343
20181.46284
20181.46225
20181.46168
20181.46111
20181.46056
20181.46001
20181.45948
20181.45895
20181.45842
20181.45791
20181.4574
20181.45693
20181.45693
20183.00122
20183.00122
20182.9974
20182.99197
20182.98701
20182.98387
20182.98335
20182.98593
20182.99167
20183.00026
20183.01109
20183.02341
20183.03659
20183.0501
20183.06355
20183.07653
20183.08858
20183.09909
20183.10707
20183.11124
20183.10803
20183.0975
20183.07206
20183.05936
20183.07028
20183.11162
20183.1041
20182.96386
20182.77117
20182.56181
20182.34361
20182.11941
20181.89039
20181.65686
20181.41859
20181.17494
20180.92482
20180.66649
20180.39675
20180.11176
20179.76458
20179.51062
20179.41494
20179.42795
20179.45584
20179.39821
20179.24571
20179.05895
20178.92417
20178.90902
20178.98885
20179.07154
20179.1123
20179.10985
20179.07633
20179.02155
20178.94456
20178.84261
20178.71659
20178.57065
20178.41229
20178.25113
20178.09663
20177.95788
20177.84444
20177.76608
20177.7313
20177.74559
20177.81038
20177.92303
20178.07766
20178.26647
20178.48106
20178.71344
20178.95642
20179.20383
20179.45041
20179.69176
20179.92434
20180.14541
20180.35308
20180.54626
20180.72452
20180.88802
20181.03727
20181.173
20181.29592
20181.40663
20181.50549
20181.59266
20181.66816
20181.73197
20181.7842
20181.82517
20181.85551
20181.87613
20181.88812
20181.89273
20181.89125
20181.8849
20181.8748
20181.86195
20181.84718
20181.83118
20181.8145
20181.79758
20181.78073
20181.7642
20181.74816
20181.73273
20181.71799
20181.70397
20181.6907
20181.67817
20181.66637
20181.65527
20181.64486
20181.6351
20181.62594
20181.61736
20181.60931
20181.60177
20181.59469
20181.58806
20181.58182
20181.57597
20181.57046
20181.56527
20181.56039
20181.55578
20181.55144
20181.54733
20181.54345
20181.53977
20181.53629
20181.53299
20181.52985
20181.52687
20181.52404
20181.52134
20181.51877
20181.51631
20181.51397
20181.51173
20181.50959
20181.50754
20181.50558
20181.5037
20181.50189
20181.50016
20181.49849
20181.49689
20181.49534
20181.49386
20181.49242
20181.49104
20181.4897
20181.48841
20181.48717
20181.48596
20181.48479
20181.48366
20181.48256
20181.4815
20181.48047
20181.47947
20181.47849
20181.47755
20181.47663
20181.47573
20181.47486
20181.47401
20181.47319
20181.47238
20181.47159
20181.47082
20181.47007
20181.46934
20181.46862
20181.46792
20181.46724
20181.46657
20181.46591
20181.46527
20181.46464
20181.46402
20181.46341
20181.46282
20181.46223
20181.46166
20181.4611
20181.46054
20181.46
20181.45946
20181.45893
20181.45841
20181.4579
20181.4574
20181.45692
20181.45692
20182.98848
20182.98848
20182.98583
20182.98192
20182.97833
20182.9762
20182.97631
20182.97905
20182.98454
20182.99252
20183.00252
20183.01399
20183.02639
20183.03928
20183.05233
20183.0652
20183.07751
20183.08868
20183.09769
20183.10328
20183.10186
20183.09554
20183.07867
20183.07965
20183.10498
20183.15714
20183.14784
20182.99315
20182.78993
20182.57492
20182.35405
20182.12874
20181.89955
20181.66649
20181.4292
20181.18699
20180.93872
20180.68265
20180.41536
20180.13485
20179.78483
20179.51023
20179.40241
20179.41246
20179.44403
20179.39804
20179.2638
20179.09253
20178.96599
20178.94286
20178.99729
20179.06418
20179.10304
20179.10083
20179.06259
20178.9962
20178.90427
20178.78778
20178.64919
20178.49302
20178.32619
20178.15744
20177.99619
20177.8522
20177.73575
20177.65712
20177.62499
20177.64475
20177.71731
20177.83921
20178.00364
20178.20196
20178.42524
20178.6652
20178.91468
20179.16762
20179.4189