# vtk DataFile Version 2.0
FlowField
ASCII
DATASET STRUCTURED_GRID
DIMENSIONS 200 1 200
POINTS 40000 float
0 0 0
0.15 0 0
0.3 0 0
0.45 0 0
0.6 0 0
0.75 0 0
0.9 0 0
1.05 0 0
1.2 0 0
1.35 0 0
1.5 0 0
1.65 0 0
1.8 0 0
1.95 0 0
2.1 0 0
2.25 0 0
2.4 0 0
2.55 0 0
2.7 0 0
2.85 0 0
3 0 0
3.15 0 0
3.3 0 0
3.45 0 0
3.6 0 0
3.75 0 0
3.9 0 0
4.05 0 0
4.2 0 0
4.35 0 0
4.5 0 0
4.65 0 0
4.8 0 0
4.95 0 0
5.1 0 0
5.25 0 0
5.4 0 0
5.55 0 0
5.7 0 0
5.85 0 0
6 0 0
6.15 0 0
6.3 0 0
6.45 0 0
6.6 0 0
6.75 0 0
6.9 0 0
7.05 0 0
7.2 0 0
7.35 0 0
7.5 0 0
7.65 0 0
7.8 0 0
7.95 0 0
8.1 0 0
8.25 0 0
8.4 0 0
8.55 0 0
8.7 0 0
8.85 0 0
9 0 0
9.15 0 0
9.3 0 0
9.45 0 0
9.6 0 0
9.75 0 0
9.9 0 0
10.05 0 0
10.2 0 0
10.35 0 0
10.5 0 0
10.65 0 0
10.8 0 0
10.95 0 0
11.1 0 0
11.25 0 0
11.4 0 0
11.55 0 0
11.7 0 0
11.85 0 0
12 0 0
12.15 0 0
12.3 0 0
12.45 0 0
12.6 0 0
12.75 0 0
12.9 0 0
13.05 0 0
13.2 0 0
13.35 0 0
13.5 0 0
13.65 0 0
13.8 0 0
13.95 0 0
14.1 0 0
14.25 0 0
14.4 0 0
14.55 0 0
14.7 0 0
14.85 0 0
15 0 0
15.15 0 0
15.3 0 0
15.45 0 0
15.6 0 0
15.75 0 0
15.9 0 0
16.05 0 0
16.2 0 0
16.35 0 0
16.5 0 0
16.65 0 0
16.8 0 0
16.95 0 0
17.1 0 0
17.25 0 0
17.4 0 0
17.55 0 0
17.7 0 0
17.85 0 0
18 0 0
18.15 0 0
18.3 0 0
18.45 0 0
18.6 0 0
18.75 0 0
18.9 0 0
19.05 0 0
19.2 0 0
19.35 0 0
19.5 0 0
19.65 0 0
19.8 0 0
19.95 0 0
20.1 0 0
20.25 0 0
20.4 0 0
20.55 0 0
20.7 0 0
20.85 0 0
21 0 0
21.15 0 0
21.3 0 0
21.45 0 0
21.6 0 0
21.75 0 0
21.9 0 0
22.05 0 0
22.2 0 0
22.35 0 0
22.5 0 0
22.65 0 0
22.8 0 0
22.95 0 0
23.1 0 0
23.25 0 0
23.4 0 0
23.55 0 0
23.7 0 0
23.85 0 0
24 0 0
24.15 0 0
24.3 0 0
24.45 0 0
24.6 0 0
24.75 0 0
24.9 0 0
25.05 0 0
25.2 0 0
25.35 0 0
25.5 0 0
25.65 0 0
25.8 0 0
25.95 0 0
26.1 0 0
26.25 0 0
26.4 0 0
26.55 0 0
26.7 0 0
26.85 0 0
27 0 0
27.15 0 0
27.3 0 0
27.45 0 0
27.6 0 0
27.75 0 0
27.9 0 0
28.05 0 0
28.2 0 0
28.35 0 0
28.5 0 0
28.65 0 0
28.8 0 0
28.95 0 0
29.1 0 0
29.25 0 0
29.4 0 0
29.55 0 0
29.7 0 0
29.85 0 0
0 0.075 0
0.15 0.075 0
0.3 0.075 0
0.45 0.075 0
0.6 0.075 0
0.75 0.075 0
0.9 0.075 0
1.05 0.075 0
1.2 0.075 0
1.35 0.075 0
1.5 0.075 0
1.65 0.075 0
1.8 0.075 0
1.95 0.075 0
2.1 0.075 0
2.25 0.075 0
2.4 0.075 0
2.55 0.075 0
2.7 0.075 0
2.85 0.075 0
3 0.075 0
3.15 0.075 0
3.3 0.075 0
3.45 0.075 0
3.6 0.075 0
3.75 0.075 0
3.9 0.075 0
4.05 0.075 0
4.2 0.075 0
4.35 0.075 0
4.5 0.075 0
4.65 0.075 0
4.8 0.075 0
4.95 0.075 0
5.1 0.075 0
5.25 0.075 0
5.4 0.075 0
5.55 0.075 0
5.7 0.075 0
5.85 0.075 0
6 0.075 0
6.15 0.075 0
6.3 0.075 0
6.45 0.075 0
6.6 0.075 0
6.75 0.075 0
6.9 0.075 0
7.05 0.075 0
7.2 0.075 0
7.35 0.075 0
7.5 0.075 0
7.65 0.075 0
7.8 0.075 0
7.95 0.075 0
8.1 0.075 0
8.25 0.075 0
8.4 0.075 0
8.55 0.075 0
8.7 0.075 0
8.85 0.075 0
9 0.075 0
9.15 0.075 0
9.3 0.075 0
9.45 0.075 0
9.6 0.075 0
9.75 0.075 0
9.9 0.075 0
10.05 0.075 0
10.2 0.075 0
10.35 0.075 0
10.5 0.075 0
10.65 0.075 0
10.8 0.075 0
10.95 0.075 0
11.1 0.075 0
11.25 0.075 0
11.4 0.075 0
11.55 0.075 0
11.7 0.075 0
11.85 0.075 0
12 0.075 0
12.15 0.075 0
12.3 0.075 0
12.45 0.075 0
12.6 0.075 0
12.75 0.075 0
12.9 0.075 0
13.05 0.075 0
13.2 0.075 0
13.35 0.075 0
13.5 0.075 0
13.65 0.075 0
13.8 0.075 0
13.95 0.075 0
14.1 0.075 0
14.25 0.075 0
14.4 0.075 0
14.55 0.075 0
14.7 0.075 0
14.85 0.075 0
15 0.075 0
15.15 0.075 0
15.3 0.075 0
15.45 0.075 0
15.6 0.075 0
15.75 0.075 0
15.9 0.075 0
16.05 0.075 0
16.2 0.075 0
16.35 0.075 0
16.5 0.075 0
16.65 0.075 0
16.8 0.075 0
16.95 0.075 0
17.1 0.075 0
17.25 0.075 0
17.4 0.075 0
17.55 0.075 0
17.7 0.075 0
17.85 0.075 0
18 0.075 0
18.15 0.075 0
18.3 0.075 0
18.45 0.075 0
18.6 0.075 0
18.75 0.075 0
18.9 0.075 0
19.05 0.075 0
19.2 0.075 0
19.35 0.075 0
19.5 0.075 0
19.65 0.075 0
19.8 0.075 0
19.95 0.075 0
20.1 0.075 0
20.25 0.075 0
20.4 0.075 0
20.55 0.075 0
20.7 0.075 0
20.85 0.075 0
21 0.075 0
21.15 0.075 0
21.3 0.075 0
21.45 0.075 0
21.6 0.075 0
21.75 0.075 0
21.9 0.075 0
22.05 0.075 0
22.2 0.075 0
22.35 0.075 0
22.5 0.075 0
22.65 0.075 0
22.8 0.075 0
22.95 0.075 0
23.1 0.075 0
23.25 0.075 0
23.4 0.075 0
23.55 0.075 0
23.7 0.075 0
23.85 0.075 0
24 0.075 0
24.15 0.075 0
24.3 0.075 0
24.45 0.075 0
24.6 0.075 0
24.75 0.075 0
24.9 0.075 0
25.05 0.075 0
25.2 0.075 0
25.35 0.075 0
25.5 0.075 0
25.65 0.075 0
25.8 0.075 0
25.95 0.075 0
26.1 0.075 0
26.25 0.075 0
26.4 0.075 0
26.55 0.075 0
26.7 0.075 0
26.85 0.075 0
27 0.075 0
27.15 0.075 0
27.3 0.075 0
27.45 0.075 0
27.6 0.075 0
27.75 0.075 0
27.9 0.075 0
28.05 0.075 0
28.2 0.075 0
28.35 0.075 0
28.5 0.075 0
28.65 0.075 0
28.8 0.075 0
28.95 0.075 0
29.1 0.075 0
29.25 0.075 0
29.4 0.075 0
29.55 0.075 0
29.7 0.075 0
29.85 0.075 0
0 0.15 0
0.15 0.15 0
0.3 0.15 0
0.45 0.15 0
0.6 0.15 0
0.75 0.15 0
0.9 0.15 0
1.05 0.15 0
1.2 0.15 0
1.35 0.15 0
1.5 0.15 0
1.65 0.15 0
1.8 0.15 0
1.95 0.15 0
2.1 0.15 0
2.25 0.15 0
2.4 0.15 0
2.55 0.15 0
2.7 0.15 0
2.85 0.15 0
3 0.15 0
3.15 0.15 0
3.3 0.15 0
3.45 0.15 0
3.6 0.15 0
3.75 0.15 0
3.9 0.15 0
4.05 0.15 0
4.2 0.15 0
4.35 0.15 0
4.5 0.15 0
4.65 0.15 0
4.8 0.15 0
4.95 0.15 0
5.1 0.15 0
5.25 0.15 0
5.4 0.15 0
5.55 0.15 0
5.7 0.15 0
5.85 0.15 0
6 0.15 0
6.15 0.15 0
6.3 0.15 0
6.45 0.15 0
6.6 0.15 0
6.75 0.15 0
6.9 0.15 0
7.05 0.15 0
7.2 0.15 0
7.35 0.15 0
7.5 0.15 0
7.65 0.15 0
7.8 0.15 0
7.95 0.15 0
8.1 0.15 0
8.25 0.15 0
8.4 0.15 0
8.55 0.15 0
8.7 0.15 0
8.85 0.15 0
9 0.15 0
9.15 0.15 0
9.3 0.15 0
9.45 0.15 0
9.6 0.15 0
9.75 0.15 0
9.9 0.15 0
10.05 0.15 0
10.2 0.15 0
10.35 0.15 0
10.5 0.15 0
10.65 0.15 0
10.8 0.15 0
10.95 0.15 0
11.1 0.15 0
11.25 0.15 0
11.4 0.15 0
11.55 0.15 0
11.7 0.15 0
11.85 0.15 0
12 0.15 0
12.15 0.15 0
12.3 0.15 0
12.45 0.15 0
12.6 0.15 0
12.75 0.15 0
12.9 0.15 0
13.05 0.15 0
13.2 0.15 0
13.35 0.15 0
13.5 0.15 0
13.65 0.15 0
13.8 0.15 0
13.95 0.15 0
14.1 0.15 0
14.25 0.15 0
14.4 0.15 0
14.55 0.15 0
14.7 0.15 0
14.85 0.15 0
15 0.15 0
15.15 0.15 0
15.3 0.15 0
15.45 0.15 0
15.6 0.15 0
15.75 0.15 0
15.9 0.15 0
16.05 0.15 0
16.2 0.15 0
16.35 0.15 0
16.5 0.15 0
16.65 0.15 0
16.8 0.15 0
16.95 0.15 0
17.1 0.15 0
17.25 0.15 0
17.4 0.15 0
17.55 0.15 0
17.7 0.15 0
17.85 0.15 0
18 0.15 0
18.15 0.15 0
18.3 0.15 0
18.45 0.15 0
18.6 0.15 0
18.75 0.15 0
18.9 0.15 0
19.05 0.15 0
19.2 0.15 0
19.35 0.15 0
19.5 0.15 0
19.65 0.15 0
19.8 0.15 0
19.95 0.15 0
20.1 0.15 0
20.25 0.15 0
20.4 0.15 0
20.55 0.15 0
20.7 0.15 0
20.85 0.15 0
21 0.15 0
21.15 0.15 0
21.3 0.15 0
21.45 0.15 0
21.6 0.15 0
21.75 0.15 0
21.9 0.15 0
22.05 0.15 0
22.2 0.15 0
22.35 0.15 0
22.5 0.15 0
22.65 0.15 0
22.8 0.15 0
22.95 0.15 0
23.1 0.15 0
23.25 0.15 0
23.4 0.15 0
23.55 0.15 0
23.7 0.15 0
23.85 0.15 0
24 0.15 0
24.15 0.15 0
24.3 0.15 0
24.45 0.15 0
24.6 0.15 0
24.75 0.15 0
24.9 0.15 0
25.05 0.15 0
25.2 0.15 0
25.35 0.15 0
25.5 0.15 0
25.65 0.15 0
25.8 0.15 0
25.95 0.15 0
26.1 0.15 0
26.25 0.15 0
26.4 0.15 0
26.55 0.15 0
26.7 0.15 0
26.85 0.15 0
27 0.15 0
27.15 0.15 0
27.3 0.15 0
27.45 0.15 0
27.6 0.15 0
27.75 0.15 0
27.9 0.15 0
28.05 0.15 0
28.2 0.15 0
28.35 0.15 0
28.5 0.15 0
28.65 0.15 0
28.8 0.15 0
28.95 0.15 0
29.1 0.15 0
29.25 0.15 0
29.4 0.15 0
29.55 0.15 0
29.7 0.15 0
29.85 0.15 0
0 0.225 0
0.15 0.225 0
0.3 0.225 0
0.45 0.225 0
0.6 0.225 0
0.75 0.225 0
0.9 0.225 0
1.05 0.225 0
1.2 0.225 0
1.35 0.225 0
1.5 0.225 0
1.65 0.225 0
1.8 0.225 0
1.95 0.225 0
2.1 0.225 0
2.25 0.225 0
2.4 0.225 0
2.55 0.225 0
2.7 0.225 0
2.85 0.225 0
3 0.225 0
3.15 0.225 0
3.3 0.225 0
3.45 0.225 0
3.6 0.225 0
3.75 0.225 0
3.9 0.225 0
4.05 0.225 0
4.2 0.225 0
4.35 0.225 0
4.5 0.225 0
4.65 0.225 0
4.8 0.225 0
4.95 0.225 0
5.1 0.225 0
5.25 0.225 0
5.4 0.225 0
5.55 0.225 0
5.7 0.225 0
5.85 0.225 0
6 0.225 0
6.15 0.225 0
6.3 0.225 0
6.45 0.225 0
6.6 0.225 0
6.75 0.225 0
6.9 0.225 0
7.05 0.225 0
7.2 0.225 0
7.35 0.225 0
7.5 0.225 0
7.65 0.225 0
7.8 0.225 0
7.95 0.225 0
8.1 0.225 0
8.25 0.225 0
8.4 0.225 0
8.55 0.225 0
8.7 0.225 0
8.85 0.225 0
9 0.225 0
9.15 0.225 0
9.3 0.225 0
9.45 0.225 0
9.6 0.225 0
9.75 0.225 0
9.9 0.225 0
10.05 0.225 0
10.2 0.225 0
10.35 0.225 0
10.5 0.225 0
10.65 0.225 0
10.8 0.225 0
10.95 0.225 0
11.1 0.225 0
11.25 0.225 0
11.4 0.225 0
11.55 0.225 0
11.7 0.225 0
11.85 0.225 0
12 0.225 0
12.15 0.225 0
12.3 0.225 0
12.45 0.225 0
12.6 0.225 0
12.75 0.225 0
12.9 0.225 0
13.05 0.225 0
13.2 0.225 0
13.35 0.225 0
13.5 0.225 0
13.65 0.225 0
13.8 0.225 0
13.95 0.225 0
14.1 0.225 0
14.25 0.225 0
14.4 0.225 0
14.55 0.225 0
14.7 0.225 0
14.85 0.225 0
15 0.225 0
15.15 0.225 0
15.3 0.225 0
15.45 0.225 0
15.6 0.225 0
15.75 0.225 0
15.9 0.225 0
16.05 0.225 0
16.2 0.225 0
16.35 0.225 0
16.5 0.225 0
16.65 0.225 0
16.8 0.225 0
16.95 0.225 0
17.1 0.225 0
17.25 0.225 0
17.4 0.225 0
17.55 0.225 0
17.7 0.225 0
17.85 0.225 0
18 0.225 0
18.15 0.225 0
18.3 0.225 0
18.45 0.225 0
18.6 0.225 0
18.75 0.225 0
18.9 0.225 0
19.05 0.225 0
19.2 0.225 0
19.35 0.225 0
19.5 0.225 0
19.65 0.225 0
19.8 0.225 0
19.95 0.225 0
20.1 0.225 0
20.25 0.225 0
20.4 0.225 0
20.55 0.225 0
20.7 0.225 0
20.85 0.225 0
21 0.225 0
21.15 0.225 0
21.3 0.225 0
21.45 0.225 0
21.6 0.225 0
21.75 0.225 0
21.9 0.225 0
22.05 0.225 0
22.2 0.225 0
22.35 0.225 0
22.5 0.225 0
22.65 0.225 0
22.8 0.225 0
22.95 0.225 0
23.1 0.225 0
23.25 0.225 0
23.4 0.225 0
23.55 0.225 0
23.7 0.225 0
23.85 0.225 0
24 0.225 0
24.15 0.225 0
24.3 0.225 0
24.45 0.225 0
24.6 0.225 0
24.75 0.225 0
24.9 0.225 0
25.05 0.225 0
25.2 0.225 0
25.35 0.225 0
25.5 0.225 0
25.65 0.225 0
25.8 0.225 0
25.95 0.225 0
26.1 0.225 0
26.25 0.225 0
26.4 0.225 0
26.55 0.225 0
26.7 0.225 0
26.85 0.225 0
27 0.225 0
27.15 0.225 0
27.3 0.225 0
27.45 0.225 0
27.6 0.225 0
27.75 0.225 0
27.9 0.225 0
28.05 0.225 0
28.2 0.225 0
28.35 0.225 0
28.5 0.225 0
28.65 0.225 0
28.8 0.225 0
28.95 0.225 0
29.1 0.225 0
29.25 0.225 0
29.4 0.225 0
29.55 0.225 0
29.7 0.225 0
29.85 0.225 0
0 0.3 0
0.15 0.3 0
0.3 0.3 0
0.45 0.3 0
0.6 0.3 0
0.75 0.3 0
0.9 0.3 0
1.05 0.3 0
1.2 0.3 0
1.35 0.3 0
1.5 0.3 0
1.65 0.3 0
1.8 0.3 0
1.95 0.3 0
2.1 0.3 0
2.25 0.3 0
2.4 0.3 0
2.55 0.3 0
2.7 0.3 0
2.85 0.3 0
3 0.3 0
3.15 0.3 0
3.3 0.3 0
3.45 0.3 0
3.6 0.3 0
3.75 0.3 0
3.9 0.3 0
4.05 0.3 0
4.2 0.3 0
4.35 0.3 0
4.5 0.3 0
4.65 0.3 0
4.8 0.3 0
4.95 0.3 0
5.1 0.3 0
5.25 0.3 0
5.4 0.3 0
5.55 0.3 0
5.7 0.3 0
5.85 0.3 0
6 0.3 0
6.15 0.3 0
[...]
POINT_DATA 40000

SCALARS p float 1
LOOKUP_TABLE default
20183.49243
20183.49243
20183.437
20183.40926
20183.3909
20183.37802
20183.37081
20183.37053
20183.37737
20183.38944
20183.40375
20183.41768
20183.42989
20183.44024
20183.44908
20183.45641
20183.46217
20183.46657
20183.4699
20183.47099
20183.46667
20183.45516
20183.42293
20183.36591
20183.43083
20183.86848
20183.74353
20183.36492
20183.10989
20182.88467
20182.66477
20182.44288
20182.21652
20181.98467
20181.74663
20181.50171
20181.24914
20180.98802
20180.71736
20180.43587
20180.14057
20179.98562
20180.02164
20180.03848
20180.09094
20180.15957
20180.22254
20180.24598
20180.21649
20180.1553
20180.0911
20180.04536
20180.02578
20180.02583
20180.0353
20180.0462
20180.05146
20180.04815
20180.03292
20180.00093
20179.94445
20179.89105
20179.85105
20179.80528
20179.75709
20179.67883
20179.57515
20179.48013
20179.38894
20179.29759
20179.21141
20179.13615
20179.07622
20179.03315
20179.00796
20179.00073
20179.01181
20179.04157
20179.09092
20179.16068
20179.25089
20179.36124
20179.4917
20179.64301
20179.81529
20180.00853
20180.22218
20180.45546
20180.70538
20180.96833
20181.23886
20181.50919
20181.76895
20182.00937
20182.23022
20182.43965
20182.64575
20182.82017
20182.91779
20182.95377
20182.95885
20182.94934
20182.93321
20182.92613
20182.90186
20182.78791
20182.59463
20182.34463
20182.17505
20182.1258
20182.0643
20181.99992
20181.95293
20181.91023
20181.85281
20181.77101
20181.68254
20181.64041
20181.67426
20181.72432
20181.7431
20181.73703
20181.72679
20181.73118
20181.74915
20181.76195
20181.7615
20181.75402
20181.74433
20181.72947
20181.70427
20181.66623
20181.61507
20181.55143
20181.47677
20181.3934
20181.30415
20181.21182
20181.11893
20181.02769
20180.94007
20180.85768
20180.78184
20180.71359
20180.65378
20180.60307
20180.56192
20180.53056
20180.50889
20180.49661
20180.49339
20180.4987
20180.51181
20180.53207
20180.55874
20180.59099
20180.6285
20180.67037
20180.71556
20180.76445
20180.81572
20180.86942
20180.92506
20180.98216
20181.04058
20181.09989
20181.15989
20181.22031
20181.28089
20181.34147
20181.40183
20181.46184
20181.52136
20181.58025
20181.63847
20181.69592
20181.75259
20181.80845
20181.86352
20181.9178
20181.97133
20182.02416
20182.07634
20182.12792
20182.17898
20182.22957
20182.27978
20182.32966
20182.3793
20182.42874
20182.47808
20182.52737
20182.57669
20182.62608
20182.67565
20182.72542
20182.77548
20182.82579
20182.87638
20182.87638
20183.49243
20183.49243
20183.437
20183.40926
20183.3909
20183.37802
20183.37081
20183.37053
20183.37737
20183.38944
20183.40375
20183.41768
20183.42989
20183.44024
20183.44908
20183.45641
20183.46217
20183.46657
20183.4699
20183.47099
20183.46667
20183.45516
20183.42293
20183.36591
20183.43083
20183.86848
20183.74353
20183.36492
20183.10989
20182.88467
20182.66477
20182.44288
20182.21652
20181.98467
20181.74663
20181.50171
20181.24914
20180.98802
20180.71736
20180.43587
20180.14057
20179.98562
20180.02164
20180.03848
20180.09094
20180.15957
20180.22254
20180.24598
20180.21649
20180.1553
20180.0911
20180.04536
20180.02578
20180.02583
20180.0353
20180.0462
20180.05146
20180.04815
20180.03292
20180.00093
20179.94445
20179.89105
20179.85105
20179.80528
20179.75709
20179.67883
20179.57515
20179.48013
20179.38894
20179.29759
20179.21141
20179.13615
20179.07622
20179.03315
20179.00796
20179.00073
20179.01181
20179.04157
20179.09092
20179.16068
20179.25089
20179.36124
20179.4917
20179.64301
20179.81529
20180.00853
20180.22218
20180.45546
20180.70538
20180.96833
20181.23886
20181.50919
20181.76895
20182.00937
20182.23022
20182.43965
20182.64575
20182.82017
20182.91779
20182.95377
20182.95885
20182.94934
20182.93321
20182.92613
20182.90186
20182.78791
20182.59463
20182.34463
20182.17505
20182.1258
20182.0643
20181.99992
20181.95293
20181.91023
20181.85281
20181.77101
20181.68254
20181.64041
20181.67426
20181.72432
20181.7431
20181.73703
20181.72679
20181.73118
20181.74915
20181.76195
20181.7615
20181.75402
20181.74433
20181.72947
20181.70427
20181.66623
20181.61507
20181.55143
20181.47677
20181.3934
20181.30415
20181.21182
20181.11893
20181.02769
20180.94007
20180.85768
20180.78184
20180.71359
20180.65378
20180.60307
20180.56192
20180.53056
20180.50889
20180.49661
20180.49339
20180.4987
20180.51181
20180.53207
20180.55874
20180.59099
20180.6285
20180.67037
20180.71556
20180.76445
20180.81572
20180.86942
20180.92506
20180.98216
20181.04058
20181.09989
20181.15989
20181.22031
20181.28089
20181.34147
20181.40183
20181.46184
20181.52136
20181.58025
20181.63847
20181.69592
20181.75259
20181.80845
20181.86352
20181.9178
20181.97133
20182.02416
20182.07634
20182.12792
20182.17898
20182.22957
20182.27978
20182.32966
20182.3793
20182.42874
20182.47808
20182.52737
20182.57669
20182.62608
20182.67565
20182.72542
20182.77548
20182.82579
20182.87638
20182.87638
20183.45983
20183.45983
20183.42794
20183.4048
20183.38848
20183.37718
20183.37122
20183.37169
20183.37875
20183.39074
20183.40489
20183.41868
20183.43079
20183.44107
20183.44983
20183.45706
20183.46266
20183.46688
20183.47015
20183.47176
20183.46894
20183.45475
20183.40394
20183.32543
20183.33612
20183.64274
20183.60038
20183.3349
20183.10275
20182.88341
20182.66527
20182.44397
20182.21787
20181.98618
20181.74831
20181.50358
20181.25123
20180.99035
20180.72001
20180.43925
20180.14569
20180.01154
20180.01503
20180.03192
20180.08295
20180.15151
20180.21416
20180.23649
20180.20612
20180.1447
20180.07988
20180.03329
20180.01495
20180.02007
20180.03621
20180.05088
20180.05592
20180.0504
20180.03207
20179.99513
20179.93732
20179.8865
20179.85191
20179.80739
20179.75792
20179.68464
20179.58043
20179.48002
20179.38411
20179.28984
20179.20228
20179.12669
20179.067
20179.02449
20178.99997
20178.99347
20179.00525
20179.03559
20179.08535
20179.15526
20179.2454
20179.35547
20179.48553
20179.63629
20179.80794
20180.00037
20180.2132
20180.44543
20180.69418
20180.95585
20181.22536
20181.49556
20181.75667
20181.99992
20182.22218
20182.42744
20182.62568
20182.79639
20182.89728
20182.93566
20182.94705
20182.94729
20182.93627
20182.91867
20182.87695
20182.76303
20182.56922
20182.32498
20182.17117
20182.124
20182.05918
20181.99673
20181.95294
20181.91323
20181.85719
20181.77136
20181.6725
20181.62223
20181.66078
20181.72201
20181.7447
20181.73786
20181.72509
20181.72788
20181.74709
20181.76151
20181.76124
20181.75369
20181.74457
20181.73056
20181.70605
20181.66847
20181.61756
20181.55395
20181.47908
20181.39529
20181.30548
20181.21255
20181.11907
20181.02732
20180.93926
20180.85653
20180.78043
20180.71196
20180.65197
20180.60112
20180.55989
20180.52849
20180.5068
20180.49451
20180.49131
20180.49664
20180.50978
20180.53008
20180.55679
20180.5891
20180.6267
20180.66856
20180.71387
20180.7628
20180.81415
20180.86793
20180.92365
20180.98085
20181.03936
20181.09878
20181.15887
20181.21941
20181.28009
20181.34077
20181.40123
20181.46133
20181.52094
20181.57992
20181.63821
20181.69572
20181.75245
20181.80837
20181.86348
20181.9178
20181.97137
20182.02422
20182.07642
20182.12802
20182.17909
20182.2297
20182.27991
20182.32979
20182.37943
20182.42887
20182.4782
20182.52748
20182.57678
20182.62616
20182.6757
20182.72545
20182.77548
20182.82577
20182.87637
20182.87637
20183.43416
20183.43416
20183.41473
20183.39686
20183.38332
20183.37409
20183.36968
20183.37092
20183.37795
20183.38953
20183.40341
20183.41738
20183.43005
20183.44098
20183.45019
20183.4576
20183.46323
20183.46741
20183.47085
20183.47332
20183.47119
20183.45061
20183.37833
20183.29257
20183.27879
20183.44526
20183.45703
20183.29667
20183.0928
20182.88198
20182.6666
20182.44628
20182.22062
20181.98924
20181.7517
20181.50737
20181.25545
20180.99505
20180.72528
20180.44566
20180.15351
20180.02035
20180.00449
20180.01957
20180.06705
20180.1353
20180.19754
20180.21764
20180.18501
20180.12241
20180.05529
20180.00545
20179.98731
20180.00013
20180.0295
20180.0561
20180.06737
20180.06191
20180.03796
20179.98784
20179.92172
20179.87583
20179.85165
20179.81185
20179.75182
20179.67004
20179.56292
20179.45612
20179.35485
20179.25899
20179.17226
20179.09888
20179.04162
20179.00169
20178.97952
20178.97524
20178.989
20179.02112
20179.07212
20179.14256
20179.23267
20179.34237
20179.47179
20179.62151
20179.79197
20179.98298
20180.19426
20180.42451
20180.67112
20180.93034
20181.19751
20181.46649
20181.72919
20181.97731
20182.20361
20182.40615
20182.59253
20182.75398
20182.85932
20182.90557
20182.92819
20182.94358
20182.94166
20182.91041
20182.83694
20182.70956
20182.51408
20182.28184
20182.12887
20182.06701
20182.02132
20181.98197
20181.94781
20181.91249
20181.85735
20181.76396
20181.64717
20181.5821
20181.62718
20181.70893
20181.74093
20181.73673
20181.7246
20181.72603
20181.74489
20181.7598
20181.75968
20181.75307
20181.74565
20181.73294
20181.70888
20181.671
20181.61911
20181.55404
20181.47762
20181.39246
20181.30155
20181.20776
20181.11366
20181.02147
20180.93314
20180.85026
20180.77411
20180.70567
20180.64575
20180.59504
20180.55399
20180.5228
20180.50133
20180.48929
20180.48634
20180.49191
20180.50529
20180.52584
20180.55278
20180.58535
20180.62312
20180.66512
20180.7107
20180.75974
20180.81131
20180.86527
20180.92118
20180.97857
20181.03728
20181.0969
20181.15718
20181.21793
20181.27879
20181.33967
20181.4003
20181.46056
20181.52032
20181.57944
20181.63785
20181.69547
20181.75229
20181.80828
20181.86346
20181.91783
20181.97144
20182.02432
20182.07654
20182.12815
20182.17923
20182.22983
20182.28004
20182.32992
20182.37955
20182.42898
20182.4783
20182.52756
20182.57685
20182.6262
20182.67574
20182.72546
20182.7755
20182.82577
20182.87641
20182.87641
20183.41351
20183.41351
20183.40114
20183.38763
20183.3767
20183.36933
20183.3662
20183.36797
20183.37472
20183.38557
20183.39885
20183.41277
20183.42602
20183.43796
20183.44829
20183.45672
20183.46313
20183.46777
20183.4716
20183.47474
20183.47196
20183.44526
20183.36223
20183.28926
20183.28148
20183.36374
20183.38193
20183.26941
20183.08542
20182.88197
20182.66926
20182.44996
20182.2248
20181.99386
20181.7568
20181.51306
20181.26181
20181.00211
20180.73303
20180.45436
20180.15901
20180.01583
20179.98873
20179.99966
20180.04272
20180.10959
20180.17098
20180.18913
20180.1551
20180.09216
20180.02242
20179.96805
20179.94879
20179.96898
20180.01455
20180.06052
20180.08666
20180.086
20180.0546
20179.98328
20179.90206
20179.86186
20179.84139
20179.7942
20179.72024
20179.62594
20179.51525
20179.40576
20179.30342
20179.20978
20179.12713
20179.05856
20179.00587
20178.97015
20178.95161
20178.95038
20178.96672
20179.00101
20179.05347
20179.12443
20179.2145
20179.3237
20179.45219
20179.60047
20179.76929
20179.9584
20180.16758
20180.39538
20180.63929
20180.89523
20181.1585
20181.42368
20181.68479
20181.93559
20182.16746
20182.37428
20182.55276
20182.70398
20182.81324
20182.87427
20182.91238
20182.93966
20182.9337
20182.88624
20182.78703
20182.63435
20182.43192
20182.19938
20182.03583
20181.96075
20181.93552
20181.9328
20181.92472
20181.90038
20181.84732
20181.74419
20181.60307
20181.51524
20181.56472
20181.67456
20181.72597
20181.73128
20181.72666
20181.72907
20181.74488
20181.75722
20181.75622
20181.75118
20181.74629
20181.73486
20181.71023
20181.67038
20181.6158
20181.54804
20181.46943
20181.38277
20181.29094
20181.19667
20181.10238
20181.0102
20180.92201
20180.83935
20180.76346
20180.69534
20180.63578
20180.58544
20180.54479
20180.51401
20180.49294
20180.48131
20180.47877
20180.48472
20180.49848
20180.5194
20180.54666
20180.5796
20180.61765
20180.65984
20180.70579
20180.75503
20180.80687
20180.86111
20180.91728
20180.97495
20181.03396
20181.09388
20181.15445
20181.21552
20181.27664
20181.33782
20181.3987
20181.45923
20181.51922
20181.57853
20181.63713
20181.69491
20181.75188
20181.80798
20181.86325
20181.9177
20181.97136
20182.02429
20182.07654
20182.12817
20182.17926
20182.22987
20182.28008
20182.32996
20182.37958
20182.42901
20182.47833
20182.52759
20182.57689
20182.62626
20182.67582
20182.72557
20182.77565
20182.82594
20182.87662
20182.87662
20183.39611
20183.39611
20183.38795
20183.37788
20183.36927
20183.3635
20183.36137
20183.36344
20183.36977
20183.37972
20183.39207
20183.40549
20183.41887
20183.43155
20183.44305
20183.45292
20183.46085
20183.46683
20183.47145
20183.4746
20183.47013
20183.44129
20183.3602
20183.30268
20183.30553
20183.35425
20183.36449
20183.25965
20183.08403
20182.88471
20182.67372
20182.45515
20182.23046
20182.00001
20181.7636
20181.52064
20181.2703
20181.01154
20180.74325
20180.46525
20180.16252
20180.00172
20179.96419
20179.96907
20180.00835
20180.07379
20180.13476
20180.15266
20180.11915
20180.05652
20179.98316
20179.92297
20179.90228
20179.93011
20179.99293
20180.06218
20180.10975
20180.11981
20180.08223
20179.99056
20179.89285
20179.84511
20179.81168
20179.7482
20179.6601
20179.55735
20179.44664
20179.33916
20179.24023
20179.15162
20179.075
20179.01238
20178.96516
20178.93419
20178.91966
20178.92168
20178.94068
20178.97705
20179.03084
20179.10223
20179.19204
20179.30048
20179.42768
20179.57423
20179.74098
20179.92786
20180.13461
20180.35995
20180.60122
20180.85416
20181.11354
20181.37385
20181.63014
20181.87855
20182.11285
20182.32569
20182.50407
20182.65145
20182.76626
20182.84407
20182.89629
20182.93197
20182.91109
20182.83542
20182.71632
20182.52732
20182.30979
20182.08125
20181.91289
20181.82481
20181.80517
20181.83655
20181.86803
20181.86576
20181.81951
20181.70807
20181.54328
20181.43274
20181.48346
20181.62103
20181.70058
20181.7217
20181.73031
20181.73728
20181.74897
20181.7559
20181.75248
20181.74851
20181.74545
20181.73397
20181.70709
20181.66378
20181.60566
20181.53506
20181.45459
20181.36697
20181.27481
20181.1806
20181.08659
20180.9948
20180.90704
20180.82482
20180.74938
20180.68174
20180.62267
20180.57282
20180.53268
20180.5024
20180.48183
20180.47071
20180.46867
20180.4751
20180.48933
20180.51069
20180.53837
20180.57175
20180.61013
20180.65259
20180.69897
20180.74847
20180.80064
20180.85527
20180.91175
20180.96981
20181.0292
20181.0895
20181.15048
20181.21196
20181.27344
20181.33504
20181.39625
20181.45713
20181.51743
20181.57702
20181.63588
20181.69388
20181.75104
20181.8073
20181.86271
20181.91727
20181.97102
20182.02401
20182.07631
20182.12798
20182.17909
20182.22972
20182.27995
20182.32983
20182.37947
20182.42892
20182.47827
20182.52756
20182.57692
20182.62634
20182.676
20182.72584
20182.77604
20182.8264
20182.87715
20182.87715
20183.38085
20183.38085
20183.37531
20183.36789
20183.36126
20183.35688
20183.35557
20183.35784
20183.36374
20183.3728
20183.38414
20183.39675
20183.40977
20183.4226
20183.43478
20183.44586
20183.45539
20183.46311
20183.46892
20183.47178
20183.46578
20183.43867
20183.37083
20183.32853
20183.34089
20183.38174
20183.38135
20183.2662
20183.08976
20182.8909
20182.68025
20182.46193
20182.23758
20182.00768
20181.77205
20181.5301
20181.28092
20181.02337
20180.75603
20180.47875
20180.16612
20179.98176
20179.93072
20179.92794
20179.96326
20180.0277
20180.08974
20180.11011
20180.07916
20180.01613
20179.93632
20179.86798
20179.84591
20179.8833
20179.96513
20180.05937
20180.13169
20180.15851
20180.12039
20180.01401
20179.89901
20179.82581
20179.76279
20179.6802
20179.58189
20179.47609
20179.36842
20179.26581
20179.17255
20179.09011
20179.02001
20178.96349
20178.92178
20178.89552
20178.88499
20178.89025
20178.9118
20178.95
20179.0049
20179.0766
20179.16588
20179.2732
20179.39872
20179.54321
20179.70745
20179.89174
20180.0958
20180.31863
20180.55754
20180.80821
20181.06487
20181.32137
20181.57234
20181.81511
20182.04645
20182.25989
20182.44175
20182.59097
20182.71546
20182.81028
20182.86949
20182.90757
20182.88125
20182.76492
20182.61158
20182.38912
20182.15178
20181.92885
20181.76045
20181.66804
20181.64693
20181.6964
20181.76898
20181.79987
20181.76782
20181.6557
20181.47922
20181.3564
20181.40632
20181.5641
20181.67308
20181.71343
20181.73564
20181.7483
20181.75658
20181.75747
20181.75086
20181.7465
20181.7428
20181.72874
20181.69797
20181.65062
20181.58921
20181.51643
20181.43481
20181.34681
20181.25476
20181.16091
20181.06737
20180.97609
20180.88884
20180.80711
20180.73218
20180.66506
20180.60652
20180.55721
20180.51761
20180.4879
20180.46791
20180.45738
20180.45591
20180.4629
20180.47769
20180.49958
20180.52777
20180.56163
20180.60041
20180.64328
20180.6901
20180.73994
20180.79255
20180.84762
20180.90448
20180.96304
20181.0229
20181.08368
20181.14517
20181.20714
20181.2691
20181.33121
20181.39284
20181.45418
20181.51486
20181.57481
20181.634
20181.69228
20181.74969
20181.80617
20181.86176
20181.91646
20181.97034
20182.02342
20182.0758
20182.12751
20182.17867
20182.22933
20182.27959
20182.3295
20182.37918
20182.42866
20182.47807
20182.52743
20182.57689
20182.62644
20182.67625
20182.72627
20182.77668
20182.82724
20182.87813
20182.87813
20183.36702
20183.36702
20183.3632
20183.35777
20183.3528
20183.34961
20183.349
20183.35144
20183.35698
20183.36528
20183.37567
20183.38738
20183.39975
20183.41228
20183.42457
20183.43626
20183.44692
20183.4561
20183.4631
20183.46606
20183.45912
20183.43603
20183.38782
20183.36154
20183.37989
20183.42227
20183.41503
20183.28508
20183.10212
20182.90059
20182.6889
20182.47028
20182.24613
20182.01682
20181.78213
20181.54141
20181.29369
20181.03768
20180.77155
20180.49556
20180.1725
20179.96027
20179.89098
20179.87875
20179.90909
20179.97265
20180.03748
20180.06296
20180.0356
20179.96923
20179.87813
20179.798
20179.77451
20179.82484
20179.92929
20180.05008
20180.14799
20180.19332
20180.15969
20180.0412
20179.90305
20179.79349
20179.69902
20179.60027
20179.49569
20179.39026
20179.28679
20179.19007
20179.10295
20179.02689
20178.96312
20178.91256
20178.87617
20178.85448
20178.84784
20178.85629
20178.88026
20178.92006
20178.97586
20179.04768
20179.13618
20179.24203
20179.36549
20179.50748
20179.66882
20179.8501
20180.05122
20180.27143
20180.50819
20180.75722
20181.01231
20181.26665
20181.51377
20181.7503
20181.97504
20182.18444
20182.36783
20182.51771
20182.65124
20182.76591
20182.8277
20182.85244
20182.82529
20182.6796
20182.47518
20182.22618
20181.97481
20181.75238
20181.583
20181.49202
20181.47005
20181.52627
20181.6303
20181.70051
20181.69184
20181.59142
20181.42177
20181.30039
20181.34965
20181.51992
20181.65395
20181.71307
20181.74405
20181.75999
20181.76609
20181.76246
20181.75285
20181.74602
20181.73829
20181.71905
20181.68337
20181.63221
20181.56824
20181.49397
20181.41168
20181.32355
20181.23169
20181.13821
20181.04511
20180.95429
20180.8675
20180.78625
20180.71182
20180.6452
20180.58721
20180.53847
20180.49947
20180.47038
20180.45104
20180.44117
20180.44037
20180.44803
20180.46347
20180.48598
20180.51476
20180.54918
20180.58843
20180.63182
20180.67911
20180.7294
20180.78253
20180.83809
20180.89545
20180.9546
20181.015
20181.07637
20181.13847
20181.20102
20181.26357
20181.32627
20181.38842
20181.4503
20181.51146
20181.57184
20181.63143
20181.69006
20181.74778
20181.80453
20181.86036
20181.91524
20181.96927
20182.02248
20182.07495
20182.12674
20182.17797
20182.22867
20182.27898
20182.32893
20182.37867
20182.42821
20182.47771
20182.52717
20182.57677
20182.62649
20182.67654
20182.72683
20182.77758
20182.82847
20182.87967
20182.87967
20183.35419
20183.35419
20183.35153
20183.3476
20183.34398
20183.3418
20183.34179
20183.34438
20183.34964
20183.3573
20183.36687
20183.37775
20183.38939
20183.40139
20183.41342
20183.42519
20183.43635
20183.4464
20183.4543
20183.45798
20183.45122
20183.43442
20183.40505
20183.39435
20183.41911
20183.46561
20183.45503
20183.31212
20183.11977
20182.91334
20182.69946
20182.48007
20182.256
20182.02735
20181.79377
20181.55454
20181.30861
20181.05455
20180.79002
20180.51637
20180.18443
20179.94216
20179.84962
20179.82558
20179.84967
20179.91195
20179.98054
20180.01246
20179.98775
20179.91315
20179.80456
20179.7082
20179.68307
20179.74996
20179.88188
20180.03147
20180.15411
20180.21382
20180.18194
20180.04922
20179.88466
20179.74301
20179.62496
20179.51428
20179.40635
20179.30256
20179.20348
20179.11264
20179.03149
20178.96173
20178.90402
20178.85931
20178.82812
20178.81095
20178.80812
20178.81969
20178.84599