# vtk DataFile Version 2.0
FlowField
ASCII
DATASET STRUCTURED_GRID
DIMENSIONS 200 1 200
POINTS 40000 float
0 0 0
0.15 0 0
0.3 0 0
0.45 0 0
0.6 0 0
0.75 0 0
0.9 0 0
1.05 0 0
1.2 0 0
1.35 0 0
1.5 0 0
1.65 0 0
1.8 0 0
1.95 0 0
2.1 0 0
2.25 0 0
2.4 0 0
2.55 0 0
2.7 0 0
2.85 0 0
3 0 0
3.15 0 0
3.3 0 0
3.45 0 0
3.6 0 0
3.75 0 0
3.9 0 0
4.05 0 0
4.2 0 0
4.35 0 0
4.5 0 0
4.65 0 0
4.8 0 0
4.95 0 0
5.1 0 0
5.25 0 0
5.4 0 0
5.55 0 0
5.7 0 0
5.85 0 0
6 0 0
6.15 0 0
6.3 0 0
6.45 0 0
6.6 0 0
6.75 0 0
6.9 0 0
7.05 0 0
7.2 0 0
7.35 0 0
7.5 0 0
7.65 0 0
7.8 0 0
7.95 0 0
8.1 0 0
8.25 0 0
8.4 0 0
8.55 0 0
8.7 0 0
8.85 0 0
9 0 0
9.15 0 0
9.3 0 0
9.45 0 0
9.6 0 0
9.75 0 0
9.9 0 0
10.05 0 0
10.2 0 0
10.35 0 0
10.5 0 0
10.65 0 0
10.8 0 0
10.95 0 0
11.1 0 0
11.25 0 0
11.4 0 0
11.55 0 0
11.7 0 0
11.85 0 0
12 0 0
12.15 0 0
12.3 0 0
12.45 0 0
12.6 0 0
12.75 0 0
12.9 0 0
13.05 0 0
13.2 0 0
13.35 0 0
13.5 0 0
13.65 0 0
13.8 0 0
13.95 0 0
14.1 0 0
14.25 0 0
14.4 0 0
14.55 0 0
14.7 0 0
14.85 0 0
15 0 0
15.15 0 0
15.3 0 0
15.45 0 0
15.6 0 0
15.75 0 0
15.9 0 0
16.05 0 0
16.2 0 0
16.35 0 0
16.5 0 0
16.65 0 0
16.8 0 0
16.95 0 0
17.1 0 0
17.25 0 0
17.4 0 0
17.55 0 0
17.7 0 0
17.85 0 0
18 0 0
18.15 0 0
18.3 0 0
18.45 0 0
18.6 0 0
18.75 0 0
18.9 0 0
19.05 0 0
19.2 0 0
19.35 0 0
19.5 0 0
19.65 0 0
19.8 0 0
19.95 0 0
20.1 0 0
20.25 0 0
20.4 0 0
20.55 0 0
20.7 0 0
20.85 0 0
21 0 0
21.15 0 0
21.3 0 0
21.45 0 0
21.6 0 0
21.75 0 0
21.9 0 0
22.05 0 0
22.2 0 0
22.35 0 0
22.5 0 0
22.65 0 0
22.8 0 0
22.95 0 0
23.1 0 0
23.25 0 0
23.4 0 0
23.55 0 0
23.7 0 0
23.85 0 0
24 0 0
24.15 0 0
24.3 0 0
24.45 0 0
24.6 0 0
24.75 0 0
24.9 0 0
25.05 0 0
25.2 0 0
25.35 0 0
25.5 0 0
25.65 0 0
25.8 0 0
25.95 0 0
26.1 0 0
26.25 0 0
26.4 0 0
26.55 0 0
26.7 0 0
26.85 0 0
27 0 0
27.15 0 0
27.3 0 0
27.45 0 0
27.6 0 0
27.75 0 0
27.9 0 0
28.05 0 0
28.2 0 0
28.35 0 0
28.5 0 0
28.65 0 0
28.8 0 0
28.95 0 0
29.1 0 0
29.25 0 0
29.4 0 0
29.55 0 0
29.7 0 0
29.85 0 0
0 0.075 0
0.15 0.075 0
0.3 0.075 0
0.45 0.075 0
0.6 0.075 0
0.75 0.075 0
0.9 0.075 0
1.05 0.075 0
1.2 0.075 0
1.35 0.075 0
1.5 0.075 0
1.65 0.075 0
1.8 0.075 0
1.95 0.075 0
2.1 0.075 0
2.25 0.075 0
2.4 0.075 0
2.55 0.075 0
2.7 0.075 0
2.85 0.075 0
3 0.075 0
3.15 0.075 0
3.3 0.075 0
3.45 0.075 0
3.6 0.075 0
3.75 0.075 0
3.9 0.075 0
4.05 0.075 0
4.2 0.075 0
4.35 0.075 0
4.5 0.075 0
4.65 0.075 0
4.8 0.075 0
4.95 0.075 0
5.1 0.075 0
5.25 0.075 0
5.4 0.075 0
5.55 0.075 0
5.7 0.075 0
5.85 0.075 0
6 0.075 0
6.15 0.075 0
6.3 0.075 0
6.45 0.075 0
6.6 0.075 0
6.75 0.075 0
6.9 0.075 0
7.05 0.075 0
7.2 0.075 0
7.35 0.075 0
7.5 0.075 0
7.65 0.075 0
7.8 0.075 0
7.95 0.075 0
8.1 0.075 0
8.25 0.075 0
8.4 0.075 0
8.55 0.075 0
8.7 0.075 0
8.85 0.075 0
9 0.075 0
9.15 0.075 0
9.3 0.075 0
9.45 0.075 0
9.6 0.075 0
9.75 0.075 0
9.9 0.075 0
10.05 0.075 0
10.2 0.075 0
10.35 0.075 0
10.5 0.075 0
10.65 0.075 0
10.8 0.075 0
10.95 0.075 0
11.1 0.075 0
11.25 0.075 0
11.4 0.075 0
11.55 0.075 0
11.7 0.075 0
11.85 0.075 0
12 0.075 0
12.15 0.075 0
12.3 0.075 0
12.45 0.075 0
12.6 0.075 0
12.75 0.075 0
12.9 0.075 0
13.05 0.075 0
13.2 0.075 0
13.35 0.075 0
13.5 0.075 0
13.65 0.075 0
13.8 0.075 0
13.95 0.075 0
14.1 0.075 0
14.25 0.075 0
14.4 0.075 0
14.55 0.075 0
14.7 0.075 0
14.85 0.075 0
15 0.075 0
15.15 0.075 0
15.3 0.075 0
15.45 0.075 0
15.6 0.075 0
15.75 0.075 0
15.9 0.075 0
16.05 0.075 0
16.2 0.075 0
16.35 0.075 0
16.5 0.075 0
16.65 0.075 0
16.8 0.075 0
16.95 0.075 0
17.1 0.075 0
17.25 0.075 0
17.4 0.075 0
17.55 0.075 0
17.7 0.075 0
17.85 0.075 0
18 0.075 0
18.15 0.075 0
18.3 0.075 0
18.45 0.075 0
18.6 0.075 0
18.75 0.075 0
18.9 0.075 0
19.05 0.075 0
19.2 0.075 0
19.35 0.075 0
19.5 0.075 0
19.65 0.075 0
19.8 0.075 0
19.95 0.075 0
20.1 0.075 0
20.25 0.075 0
20.4 0.075 0
20.55 0.075 0
20.7 0.075 0
20.85 0.075 0
21 0.075 0
21.15 0.075 0
21.3 0.075 0
21.45 0.075 0
21.6 0.075 0
21.75 0.075 0
21.9 0.075 0
22.05 0.075 0
22.2 0.075 0
22.35 0.075 0
22.5 0.075 0
22.65 0.075 0
22.8 0.075 0
22.95 0.075 0
23.1 0.075 0
23.25 0.075 0
23.4 0.075 0
23.55 0.075 0
23.7 0.075 0
23.85 0.075 0
24 0.075 0
24.15 0.075 0
24.3 0.075 0
24.45 0.075 0
24.6 0.075 0
24.75 0.075 0
24.9 0.075 0
25.05 0.075 0
25.2 0.075 0
25.35 0.075 0
25.5 0.075 0
25.65 0.075 0
25.8 0.075 0
25.95 0.075 0
26.1 0.075 0
26.25 0.075 0
26.4 0.075 0
26.55 0.075 0
26.7 0.075 0
26.85 0.075 0
27 0.075 0
27.15 0.075 0
27.3 0.075 0
27.45 0.075 0
27.6 0.075 0
27.75 0.075 0
27.9 0.075 0
28.05 0.075 0
28.2 0.075 0
28.35 0.075 0
28.5 0.075 0
28.65 0.075 0
28.8 0.075 0
28.95 0.075 0
29.1 0.075 0
29.25 0.075 0
29.4 0.075 0
29.55 0.075 0
29.7 0.075 0
29.85 0.075 0
0 0.15 0
0.15 0.15 0
0.3 0.15 0
0.45 0.15 0
0.6 0.15 0
0.75 0.15 0
0.9 0.15 0
1.05 0.15 0
1.2 0.15 0
1.35 0.15 0
1.5 0.15 0
1.65 0.15 0
1.8 0.15 0
1.95 0.15 0
2.1 0.15 0
2.25 0.15 0
2.4 0.15 0
2.55 0.15 0
2.7 0.15 0
2.85 0.15 0
3 0.15 0
3.15 0.15 0
3.3 0.15 0
3.45 0.15 0
3.6 0.15 0
3.75 0.15 0
3.9 0.15 0
4.05 0.15 0
4.2 0.15 0
4.35 0.15 0
4.5 0.15 0
4.65 0.15 0
4.8 0.15 0
4.95 0.15 0
5.1 0.15 0
5.25 0.15 0
5.4 0.15 0
5.55 0.15 0
5.7 0.15 0
5.85 0.15 0
6 0.15 0
6.15 0.15 0
6.3 0.15 0
6.45 0.15 0
6.6 0.15 0
6.75 0.15 0
6.9 0.15 0
7.05 0.15 0
7.2 0.15 0
7.35 0.15 0
7.5 0.15 0
7.65 0.15 0
7.8 0.15 0
7.95 0.15 0
8.1 0.15 0
8.25 0.15 0
8.4 0.15 0
8.55 0.15 0
8.7 0.15 0
8.85 0.15 0
9 0.15 0
9.15 0.15 0
9.3 0.15 0
9.45 0.15 0
9.6 0.15 0
9.75 0.15 0
9.9 0.15 0
10.05 0.15 0
10.2 0.15 0
10.35 0.15 0
10.5 0.15 0
10.65 0.15 0
10.8 0.15 0
10.95 0.15 0
11.1 0.15 0
11.25 0.15 0
11.4 0.15 0
11.55 0.15 0
11.7 0.15 0
11.85 0.15 0
12 0.15 0
12.15 0.15 0
12.3 0.15 0
12.45 0.15 0
12.6 0.15 0
12.75 0.15 0
12.9 0.15 0
13.05 0.15 0
13.2 0.15 0
13.35 0.15 0
13.5 0.15 0
13.65 0.15 0
13.8 0.15 0
13.95 0.15 0
14.1 0.15 0
14.25 0.15 0
14.4 0.15 0
14.55 0.15 0
14.7 0.15 0
14.85 0.15 0
15 0.15 0
15.15 0.15 0
15.3 0.15 0
15.45 0.15 0
15.6 0.15 0
15.75 0.15 0
15.9 0.15 0
16.05 0.15 0
16.2 0.15 0
16.35 0.15 0
16.5 0.15 0
16.65 0.15 0
16.8 0.15 0
16.95 0.15 0
17.1 0.15 0
17.25 0.15 0
17.4 0.15 0
17.55 0.15 0
17.7 0.15 0
17.85 0.15 0
18 0.15 0
18.15 0.15 0
18.3 0.15 0
18.45 0.15 0
18.6 0.15 0
18.75 0.15 0
18.9 0.15 0
19.05 0.15 0
19.2 0.15 0
19.35 0.15 0
19.5 0.15 0
19.65 0.15 0
19.8 0.15 0
19.95 0.15 0
20.1 0.15 0
20.25 0.15 0
20.4 0.15 0
20.55 0.15 0
20.7 0.15 0
20.85 0.15 0
21 0.15 0
21.15 0.15 0
21.3 0.15 0
21.45 0.15 0
21.6 0.15 0
21.75 0.15 0
21.9 0.15 0
22.05 0.15 0
22.2 0.15 0
22.35 0.15 0
22.5 0.15 0
22.65 0.15 0
22.8 0.15 0
22.95 0.15 0
23.1 0.15 0
23.25 0.15 0
23.4 0.15 0
23.55 0.15 0
23.7 0.15 0
23.85 0.15 0
24 0.15 0
24.15 0.15 0
24.3 0.15 0
24.45 0.15 0
24.6 0.15 0
24.75 0.15 0
24.9 0.15 0
25.05 0.15 0
25.2 0.15 0
25.35 0.15 0
25.5 0.15 0
25.65 0.15 0
25.8 0.15 0
25.95 0.15 0
26.1 0.15 0
26.25 0.15 0
26.4 0.15 0
26.55 0.15 0
26.7 0.15 0
26.85 0.15 0
27 0.15 0
27.15 0.15 0
27.3 0.15 0
27.45 0.15 0
27.6 0.15 0
27.75 0.15 0
27.9 0.15 0
28.05 0.15 0
28.2 0.15 0
28.35 0.15 0
28.5 0.15 0
28.65 0.15 0
28.8 0.15 0
28.95 0.15 0
29.1 0.15 0
29.25 0.15 0
29.4 0.15 0
29.55 0.15 0
29.7 0.15 0
29.85 0.15 0
0 0.225 0
0.15 0.225 0
0.3 0.225 0
0.45 0.225 0
0.6 0.225 0
0.75 0.225 0
0.9 0.225 0
1.05 0.225 0
1.2 0.225 0
1.35 0.225 0
1.5 0.225 0
1.65 0.225 0
1.8 0.225 0
1.95 0.225 0
2.1 0.225 0
2.25 0.225 0
2.4 0.225 0
2.55 0.225 0
2.7 0.225 0
2.85 0.225 0
3 0.225 0
3.15 0.225 0
3.3 0.225 0
3.45 0.225 0
3.6 0.225 0
3.75 0.225 0
3.9 0.225 0
4.05 0.225 0
4.2 0.225 0
4.35 0.225 0
4.5 0.225 0
4.65 0.225 0
4.8 0.225 0
4.95 0.225 0
5.1 0.225 0
5.25 0.225 0
5.4 0.225 0
5.55 0.225 0
5.7 0.225 0
5.85 0.225 0
6 0.225 0
6.15 0.225 0
6.3 0.225 0
6.45 0.225 0
6.6 0.225 0
6.75 0.225 0
6.9 0.225 0
7.05 0.225 0
7.2 0.225 0
7.35 0.225 0
7.5 0.225 0
7.65 0.225 0
7.8 0.225 0
7.95 0.225 0
8.1 0.225 0
8.25 0.225 0
8.4 0.225 0
8.55 0.225 0
8.7 0.225 0
8.85 0.225 0
9 0.225 0
9.15 0.225 0
9.3 0.225 0
9.45 0.225 0
9.6 0.225 0
9.75 0.225 0
9.9 0.225 0
10.05 0.225 0
10.2 0.225 0
10.35 0.225 0
10.5 0.225 0
10.65 0.225 0
10.8 0.225 0
10.95 0.225 0
11.1 0.225 0
11.25 0.225 0
11.4 0.225 0
11.55 0.225 0
11.7 0.225 0
11.85 0.225 0
12 0.225 0
12.15 0.225 0
12.3 0.225 0
12.45 0.225 0
12.6 0.225 0
12.75 0.225 0
12.9 0.225 0
13.05 0.225 0
13.2 0.225 0
13.35 0.225 0
13.5 0.225 0
13.65 0.225 0
13.8 0.225 0
13.95 0.225 0
14.1 0.225 0
14.25 0.225 0
14.4 0.225 0
14.55 0.225 0
14.7 0.225 0
14.85 0.225 0
15 0.225 0
15.15 0.225 0
15.3 0.225 0
15.45 0.225 0
15.6 0.225 0
15.75 0.225 0
15.9 0.225 0
16.05 0.225 0
16.2 0.225 0
16.35 0.225 0
16.5 0.225 0
16.65 0.225 0
16.8 0.225 0
16.95 0.225 0
17.1 0.225 0
17.25 0.225 0
17.4 0.225 0
17.55 0.225 0
17.7 0.225 0
17.85 0.225 0
18 0.225 0
18.15 0.225 0
18.3 0.225 0
18.45 0.225 0
18.6 0.225 0
18.75 0.225 0
18.9 0.225 0
19.05 0.225 0
19.2 0.225 0
19.35 0.225 0
19.5 0.225 0
19.65 0.225 0
19.8 0.225 0
19.95 0.225 0
20.1 0.225 0
20.25 0.225 0
20.4 0.225 0
20.55 0.225 0
20.7 0.225 0
20.85 0.225 0
21 0.225 0
21.15 0.225 0
21.3 0.225 0
21.45 0.225 0
21.6 0.225 0
21.75 0.225 0
21.9 0.225 0
22.05 0.225 0
22.2 0.225 0
22.35 0.225 0
22.5 0.225 0
22.65 0.225 0
22.8 0.225 0
22.95 0.225 0
23.1 0.225 0
23.25 0.225 0
23.4 0.225 0
23.55 0.225 0
23.7 0.225 0
23.85 0.225 0
24 0.225 0
24.15 0.225 0
24.3 0.225 0
24.45 0.225 0
24.6 0.225 0
24.75 0.225 0
24.9 0.225 0
25.05 0.225 0
25.2 0.225 0
25.35 0.225 0
25.5 0.225 0
25.65 0.225 0
25.8 0.225 0
25.95 0.225 0
26.1 0.225 0
26.25 0.225 0
26.4 0.225 0
26.55 0.225 0
26.7 0.225 0
26.85 0.225 0
27 0.225 0
27.15 0.225 0
27.3 0.225 0
27.45 0.225 0
27.6 0.225 0
27.75 0.225 0
27.9 0.225 0
28.05 0.225 0
28.2 0.225 0
28.35 0.225 0
28.5 0.225 0
28.65 0.225 0
28.8 0.225 0
28.95 0.225 0
29.1 0.225 0
29.25 0.225 0
29.4 0.225 0
29.55 0.225 0
29.7 0.225 0
29.85 0.225 0
0 0.3 0
0.15 0.3 0
0.3 0.3 0
0.45 0.3 0
0.6 0.3 0
0.75 0.3 0
0.9 0.3 0
1.05 0.3 0
1.2 0.3 0
1.35 0.3 0
1.5 0.3 0
1.65 0.3 0
1.8 0.3 0
1.95 0.3 0
2.1 0.3 0
2.25 0.3 0
2.4 0.3 0
2.55 0.3 0
2.7 0.3 0
2.85 0.3 0
3 0.3 0
3.15 0.3 0
3.3 0.3 0
3.45 0.3 0
3.6 0.3 0
3.75 0.3 0
3.9 0.3 0
4.05 0.3 0
4.2 0.3 0
4.35 0.3 0
4.5 0.3 0
4.65 0.3 0
4.8 0.3 0
4.95 0.3 0
5.1 0.3 0
5.25 0.3 0
5.4 0.3 0
5.55 0.3 0
5.7 0.3 0
5.85 0.3 0
6 0.3 0
6.15 0.3 0
[...]
POINT_DATA 40000

SCALARS p float 1
LOOKUP_TABLE default
20183.19118
20183.19118
20183.13576
20183.10804
20183.08973
20183.07695
20183.0699
20183.06984
20183.07692
20183.08928
20183.10398
20183.11847
20183.13135
20183.14247
20183.15214
20183.16038
20183.16711
20183.17247
20183.17674
20183.17906
20183.1768
20183.16791
20183.13991
20183.0842
20183.14525
20183.56587
20183.4471
20183.08125
20182.83301
20182.6132
20182.39879
20182.18308
20181.96403
20181.74104
20181.51385
20181.28229
20181.04616
20180.80514
20180.55869
20180.3053
20180.03924
20179.89467
20179.9172
20179.91469
20179.93598
20179.9817
20180.04397
20180.07465
20180.03647
20179.92141
20179.73694
20179.51283
20179.27663
20179.0808
20178.98497
20178.93002
20178.84667
20178.83592
20178.84255
20178.82083
20178.81816
20178.87911
20178.9642
20179.00216
20178.99876
20178.98602
20178.97758
20178.96958
20178.95218
20178.91877
20178.88006
20178.79353
20178.65786
20178.55873
20178.48562
20178.39639
20178.29356
20178.20133
20178.1409
20178.12414
20178.15502
20178.23236
20178.35194
20178.508
20178.69422
20178.90431
20179.13231
20179.37273
20179.62059
20179.87137
20180.12105
20180.36607
20180.60338
20180.83056
20181.04594
20181.24848
20181.43773
20181.6137
20181.77658
20181.92653
20182.06342
20182.18671
20182.29541
20182.38814
20182.46342
20182.52
20182.5573
20182.57564
20182.57644
20182.562
20182.53521
20182.49914
20182.45665
20182.4102
20182.3617
20182.31248
20182.2634
20182.21485
20182.16704
20182.12009
20182.07427
20182.02995
20181.98759
20181.94763
20181.91042
20181.87617
20181.84492
20181.8166
20181.79105
20181.7681
20181.74755
20181.72921
20181.71291
20181.69848
20181.68572
20181.67445
20181.66448
20181.6556
20181.64766
20181.64049
20181.63395
20181.62793
20181.62234
20181.6171
20181.61217
20181.60749
20181.60303
20181.59878
20181.59469
20181.59077
20181.587
20181.58337
20181.57987
20181.57649
20181.57323
20181.57007
20181.56702
20181.56406
20181.5612
20181.55843
20181.55574
20181.55312
20181.55059
20181.54812
20181.54572
20181.54338
20181.5411
20181.53887
20181.5367
20181.53458
20181.5325
20181.53047
20181.52847
20181.52652
20181.52459
20181.5227
20181.52084
20181.51901
20181.5172
20181.51541
20181.51365
20181.5119
20181.51016
20181.50844
20181.50674
20181.50504
20181.50334
20181.50166
20181.49998
20181.4983
20181.49662
20181.49493
20181.49325
20181.49156
20181.48987
20181.48817
20181.48646
20181.48475
20181.48303
20181.48303
20183.19118
20183.19118
20183.13576
20183.10804
20183.08973
20183.07695
20183.0699
20183.06984
20183.07692
20183.08928
20183.10398
20183.11847
20183.13135
20183.14247
20183.15214
20183.16038
20183.16711
20183.17247
20183.17674
20183.17906
20183.1768
20183.16791
20183.13991
20183.0842
20183.14525
20183.56587
20183.4471
20183.08125
20182.83301
20182.6132
20182.39879
20182.18308
20181.96403
20181.74104
20181.51385
20181.28229
20181.04616
20180.80514
20180.55869
20180.3053
20180.03924
20179.89467
20179.9172
20179.91469
20179.93598
20179.9817
20180.04397
20180.07465
20180.03647
20179.92141
20179.73694
20179.51283
20179.27663
20179.0808
20178.98497
20178.93002
20178.84667
20178.83592
20178.84255
20178.82083
20178.81816
20178.87911
20178.9642
20179.00216
20178.99876
20178.98602
20178.97758
20178.96958
20178.95218
20178.91877
20178.88006
20178.79353
20178.65786
20178.55873
20178.48562
20178.39639
20178.29356
20178.20133
20178.1409
20178.12414
20178.15502
20178.23236
20178.35194
20178.508
20178.69422
20178.90431
20179.13231
20179.37273
20179.62059
20179.87137
20180.12105
20180.36607
20180.60338
20180.83056
20181.04594
20181.24848
20181.43773
20181.6137
20181.77658
20181.92653
20182.06342
20182.18671
20182.29541
20182.38814
20182.46342
20182.52
20182.5573
20182.57564
20182.57644
20182.562
20182.53521
20182.49914
20182.45665
20182.4102
20182.3617
20182.31248
20182.2634
20182.21485
20182.16704
20182.12009
20182.07427
20182.02995
20181.98759
20181.94763
20181.91042
20181.87617
20181.84492
20181.8166
20181.79105
20181.7681
20181.74755
20181.72921
20181.71291
20181.69848
20181.68572
20181.67445
20181.66448
20181.6556
20181.64766
20181.64049
20181.63395
20181.62793
20181.62234
20181.6171
20181.61217
20181.60749
20181.60303
20181.59878
20181.59469
20181.59077
20181.587
20181.58337
20181.57987
20181.57649
20181.57323
20181.57007
20181.56702
20181.56406
20181.5612
20181.55843
20181.55574
20181.55312
20181.55059
20181.54812
20181.54572
20181.54338
20181.5411
20181.53887
20181.5367
20181.53458
20181.5325
20181.53047
20181.52847
20181.52652
20181.52459
20181.5227
20181.52084
20181.51901
20181.5172
20181.51541
20181.51365
20181.5119
20181.51016
20181.50844
20181.50674
20181.50504
20181.50334
20181.50166
20181.49998
20181.4983
20181.49662
20181.49493
20181.49325
20181.49156
20181.48987
20181.48817
20181.48646
20181.48475
20181.48303
20181.48303
20183.15858
20183.15858
20183.1267
20183.10359
20183.08732
20183.07611
20183.0703
20183.07098
20183.07828
20183.09055
20183.1051
20183.11945
20183.13224
20183.14329
20183.15289
20183.16103
20183.16761
20183.17282
20183.17702
20183.17977
20183.17891
20183.16827
20183.12328
20183.04369
20183.05276
20183.35116
20183.3106
20183.05269
20182.82618
20182.61192
20182.39912
20182.18389
20181.965
20181.74206
20181.51491
20181.28341
20181.04735
20180.80647
20180.56039
20180.30842
20180.04811
20179.92899
20179.92006
20179.91019
20179.92657
20179.97049
20180.02909
20180.05786
20180.01826
20179.90328
20179.7243
20179.49352
20179.24957
20179.04393
20178.93369
20178.87584
20178.82415
20178.83806
20178.84545
20178.81618
20178.80481
20178.86563
20178.95878
20179.00101
20178.99715
20178.98456
20178.97725
20178.96985
20178.95386
20178.91931
20178.88127
20178.80399
20178.6672
20178.55216
20178.46319
20178.36599
20178.26218
20178.1726
20178.11598
20178.10301
20178.13723
20178.21736
20178.33922
20178.49712
20178.68481
20178.89606
20179.125
20179.36618
20179.6147
20179.86608
20180.11631
20180.36185
20180.59962
20180.82718
20181.04283
20181.24551
20181.43478
20181.61069
20181.77346
20181.92329
20182.06012
20182.18345
20182.29229
20182.38527
20182.46087
20182.51781
20182.55541
20182.57397
20182.57487
20182.56044
20182.53361
20182.49749
20182.45499
20182.40857
20182.36017
20182.31112
20182.26227
20182.21398
20182.16641
20182.11967
20182.074
20182.02977
20181.98746
20181.94753
20181.91035
20181.87611
20181.84489
20181.81659
20181.79106
20181.76812
20181.74758
20181.72924
20181.71295
20181.69852
20181.68576
20181.67449
20181.66452
20181.65565
20181.64771
20181.64054
20181.634
20181.62799
20181.62239
20181.61716
20181.61222
20181.60754
20181.60308
20181.59882
20181.59473
20181.59081
20181.58703
20181.5834
20181.5799
20181.57651
20181.57325
20181.57009
20181.56704
20181.56408
20181.56122
20181.55844
20181.55575
20181.55313
20181.5506
20181.54813
20181.54573
20181.54339
20181.54111
20181.53888
20181.53671
20181.53459
20181.53251
20181.53047
20181.52848
20181.52652
20181.5246
20181.52271
20181.52085
20181.51901
20181.5172
20181.51542
20181.51365
20181.5119
20181.51017
20181.50845
20181.50674
20181.50504
20181.50335
20181.50166
20181.49998
20181.4983
20181.49662
20181.49494
20181.49325
20181.49156
20181.48987
20181.48817
20181.48646
20181.48475
20181.48303
20181.48303
20183.13291
20183.13291
20183.11349
20183.09565
20183.08217
20183.07304
20183.06878
20183.07021
20183.07747
20183.08933
20183.1036
20183.1181
20183.13143
20183.14313
20183.15319
20183.16153
20183.16816
20183.17334
20183.17765
20183.18108
20183.18083
20183.16524
20183.10085
20183.01137
20182.99558
20183.1626
20183.17425
20183.01639
20182.81667
20182.61039
20182.40008
20182.18564
20181.96699
20181.74414
20181.51707
20181.28567
20181.04976
20180.80911
20180.56359
20180.31362
20180.05954
20179.94671
20179.91648
20179.89674
20179.90548
20179.94683
20180.0006
20180.02628
20179.98603
20179.87105
20179.6937
20179.45361
20179.19034
20178.96751
20178.83343
20178.773
20178.75977
20178.8048
20178.8299
20178.80353
20178.78647
20178.84858
20178.94996
20178.99515
20178.99076
20178.98121
20178.97824
20178.97199
20178.95702
20178.9236
20178.8701
20178.77909
20178.63873
20178.50694
20178.39694
20178.29033
20178.18874
20178.10719
20178.0601
20178.05608
20178.09801
20178.18453
20178.31161
20178.47373
20178.66481
20178.87876
20179.10986
20179.35282
20179.60286
20179.85562
20180.10714
20180.35382
20180.59262
20180.821
20181.03721
20181.24017
20181.42949
20181.60524
20181.76777
20181.91738
20182.0541
20182.1775
20182.28664
20182.38012
20182.45634
20182.51391
20182.55203
20182.5709
20182.57188
20182.55733
20182.53028
20182.49395
20182.4513
20182.40485
20182.35653
20182.30769
20182.25914
20182.21121
20182.16399
20182.11753
20182.07206
20182.02798
20181.9858
20181.94601
20181.90898
20181.87492
20181.84388
20181.81576
20181.79039
20181.76759
20181.74716
20181.72892
20181.7127
20181.69833
20181.68563
20181.67441
20181.66448
20181.65564
20181.64772
20181.64057
20181.63404
20181.62803
20181.62244
20181.6172
20181.61226
20181.60758
20181.60312
20181.59885
20181.59476
20181.59083
20181.58706
20181.58342
20181.57991
20181.57653
20181.57326
20181.5701
20181.56704
20181.56409
20181.56122
20181.55845
20181.55575
20181.55314
20181.5506
20181.54813
20181.54573
20181.54339
20181.54111
20181.53888
20181.53671
20181.53459
20181.53251
20181.53047
20181.52848
20181.52652
20181.5246
20181.52271
20181.52085
20181.51902
20181.51721
20181.51542
20181.51365
20181.5119
20181.51017
20181.50845
20181.50674
20181.50504
20181.50335
20181.50167
20181.49999
20181.4983
20181.49663
20181.49494
20181.49326
20181.49157
20181.48988
20181.48817
20181.48646
20181.48475
20181.48303
20181.48303
20183.11225
20183.11225
20183.09989
20183.08643
20183.07557
20183.0683
20183.06532
20183.06728
20183.07426
20183.08539
20183.09904
20183.11345
20183.12733
20183.14
20183.15117
20183.16054
20183.16796
20183.17363
20183.17825
20183.18213
20183.18119
20183.16068
20183.08785
20183.01305
20183.00152
20183.0862
20183.10361
20182.99062
20182.80958
20182.61014
20182.40217
20182.18846
20181.97002
20181.74727
20181.52031
20181.28906
20181.05335
20180.81298
20180.56798
20180.3194
20180.06548
20179.94596
20179.90268
20179.87445
20179.87488
20179.91149
20179.95999
20179.98174
20179.9411
20179.82741
20179.64364
20179.39159
20179.10528
20178.86419
20178.71317
20178.64983
20178.65528
20178.72986
20178.79339
20178.79232
20178.78512
20178.84701
20178.94513
20178.98509
20178.97878
20178.97522
20178.97939
20178.97515
20178.95184
20178.90291
20178.82439
20178.7102
20178.5625
20178.42036
20178.29797
20178.18816
20178.09276
20178.02212
20177.98691
20177.9939
20178.04537
20178.13992
20178.27365
20178.4412
20178.63667
20178.85415
20179.08808
20179.33339
20179.58546
20179.84008
20180.09333
20180.34161
20180.58182
20180.81135
20181.02834
20181.23171
20181.42108
20181.59662
20181.7588
20181.90807
20182.04461
20182.16809
20182.27761
20182.37176
20182.44885
20182.50732
20182.5462
20182.56554
20182.56665
20182.55195
20182.52461
20182.48797
20182.44511
20182.39859
20182.35036
20182.3018
20182.25368
20182.20626
20182.15952
20182.11344
20182.06824
20182.02437
20181.98239
20181.94284
20181.90611
20181.87241
20181.84175
20181.81402
20181.78901
20181.76653
20181.74637
20181.72836
20181.71232
20181.69809
20181.6855
20181.67436
20181.66448
20181.65569
20181.6478
20181.64066
20181.63414
20181.62813
20181.62254
20181.6173
20181.61235
20181.60766
20181.60318
20181.59891
20181.59481
20181.59088
20181.58709
20181.58345
20181.57994
20181.57655
20181.57328
20181.57011
20181.56705
20181.5641
20181.56123
20181.55845
20181.55576
20181.55314
20181.5506
20181.54813
20181.54573
20181.54339
20181.54111
20181.53888
20181.53671
20181.53459
20181.53251
20181.53048
20181.52848
20181.52653
20181.5246
20181.52271
20181.52085
20181.51902
20181.51721
20181.51543
20181.51366
20181.51191
20181.51018
20181.50846
20181.50675
20181.50505
20181.50336
20181.50168
20181.5
20181.49832
20181.49664
20181.49495
20181.49327
20181.49158
20181.48989
20181.48818
20181.48647
20181.48475
20181.48303
20181.48303
20183.09484
20183.09484
20183.0867
20183.07668
20183.06814
20183.06248
20183.0605
20183.06276
20183.06933
20183.07956
20183.09228
20183.10616
20183.12013
20183.13349
20183.14578
20183.15656
20183.16548
20183.17247
20183.17787
20183.18173
20183.17926
20183.15687
20183.08714
20183.03153
20183.03043
20183.07921
20183.0877
20182.98145
20182.80816
20182.61241
20182.40581
20182.19249
20181.97415
20181.75146
20181.52461
20181.29356
20181.05811
20180.81804
20180.57336
20180.32532
20180.06636
20179.93265
20179.87989
20179.84498
20179.83729
20179.86676
20179.90967
20179.9276
20179.88564
20179.77137
20179.57749
20179.30689
20178.99975
20178.74388
20178.58534
20178.52499
20178.53775
20178.63224
20178.74574
20178.79861
20178.82012
20178.87847
20178.95552
20178.97566
20178.96297
20178.96637
20178.97589
20178.9645
20178.92189
20178.84604
20178.73953
20178.60626
20178.45445
20178.30941
20178.18317
20178.07478
20177.98686
20177.92707
20177.90354
20177.92163
20177.98305
20178.08624
20178.22731
20178.40101
20178.60151
20178.82306
20179.0603
20179.30835
20179.56282
20179.81965
20180.07503
20180.32529
20180.56728
20180.79826
20181.01626
20181.22016
20181.40962
20181.5849
20181.74664
20181.89547
20182.03174
20182.15526
20182.2652
20182.36014
20182.43828
20182.49788
20182.53774
20182.55771
20182.55903
20182.54418
20182.51649
20182.47949
20182.43638
20182.38978
20182.34168
20182.29348
20182.24593
20182.19921
20182.15316
20182.10762
20182.06279
20182.01916
20181.97741
20181.93816
20181.90183
20181.86861
20181.83849
20181.81131
20181.78686
20181.76489
20181.74518
20181.72754
20181.71181
20181.69783
20181.68541
20181.6744
20181.66461
20181.65587
20181.64801
20181.64089
20181.63437
20181.62835
20181.62274
20181.61748
20181.61251
20181.6078
20181.60331
20181.59902
20181.5949
20181.59096
20181.58716
20181.58351
20181.57999
20181.57659
20181.57331
20181.57014
20181.56708
20181.56412
20181.56125
20181.55847
20181.55577
20181.55315
20181.55061
20181.54814
20181.54574
20181.54339
20181.54111
20181.53889
20181.53672
20181.53459
20181.53251
20181.53048
20181.52849
20181.52653
20181.52461
20181.52272
20181.52086
20181.51903
20181.51722
20181.51543
20181.51367
20181.51192
20181.51019
20181.50847
20181.50676
20181.50507
20181.50338
20181.50169
20181.50001
20181.49833
20181.49665
20181.49497
20181.49329
20181.4916
20181.4899
20181.4882
20181.48649
20181.48476
20181.48303
20181.48303
20183.07956
20183.07956
20183.07405
20183.06667
20183.06012
20183.05586
20183.05471
20183.05717
20183.06331
20183.07267
20183.08437
20183.09743
20183.11099
20183.12446
20183.13739
20183.14931
20183.15979
20183.16848
20183.1751
20183.17894
20183.17495
20183.15359
20183.09631
20183.05741
20183.06599
20183.10472
20183.10305
20182.98762
20182.81345
20182.61789
20182.41128
20182.19782
20181.97937
20181.75668
20181.52998
20181.29917
20181.06403
20180.82427
20180.57972
20180.33165
20180.06475
20179.91276
20179.85088
20179.81014
20179.79469
20179.81565
20179.85227
20179.86634
20179.82209
20179.70355
20179.49879
20179.20617
20178.88467
20178.62251
20178.4644
20178.41021
20178.4269
20178.5337
20178.6974
20178.8223
20178.88743
20178.94214
20178.98591
20178.97423
20178.94993
20178.95418
20178.95843
20178.9287
20178.85894
20178.75584
20178.62832
20178.48391
20178.33133
20178.1871
20178.06106
20177.95575
20177.87481
20177.82467
20177.81183
20177.84057
20177.91197
20178.02418
20178.17316
20178.35359
20178.55967
20178.78576
20179.02667
20179.27779
20179.53497
20179.79433
20180.0522
20180.30485
20180.54898
20180.78176
20181.00102
20181.20562
20181.39522
20181.57021
20181.73142
20181.87968
20182.01557
20182.13904
20182.24937
20182.34514
20182.42445
20182.48536
20182.52639
20182.54715
20182.54875
20182.53376
20182.50569
20182.46832
20182.42499
20182.37834
20182.33042
20182.28268
20182.23588
20182.19011
20182.14499
20182.1002
20182.05587
20182.01257
20181.9711
20181.93218
20181.8963
20181.86364
20181.83417
20181.80769
20181.78392
20181.76261
20181.74351
20181.7264
20181.71111
20181.69747
20181.68533
20181.67451
20181.66485
20181.65618
20181.64836
20181.64124
20181.63472
20181.62867
20181.62304
20181.61775
20181.61275
20181.60801
20181.60349
20181.59918
20181.59504
20181.59107
20181.58726
20181.58359
20181.58006
20181.57665
20181.57336
20181.57019
20181.56712
20181.56415
20181.56127
20181.55849
20181.55579
20181.55317
20181.55063
20181.54815
20181.54575
20181.5434
20181.54112
20181.5389
20181.53672
20181.5346
20181.53252
20181.53049
20181.52849
20181.52654
20181.52462
20181.52273
20181.52087
20181.51904
20181.51723
20181.51545
20181.51368
20181.51193
20181.5102
20181.50849
20181.50678
20181.50508
20181.5034
20181.50171
20181.50003
20181.49835
20181.49668
20181.495
20181.49331
20181.49162
20181.48993
20181.48822
20181.48651
20181.48478
20181.48304
20181.48304
20183.06571
20183.06571
20183.06191
20183.05653
20183.05165
20183.04858
20183.04813
20183.05077
20183.05655
20183.06515
20183.0759
20183.08806
20183.10095
20183.11409
20183.12709
20183.13957
20183.15111
20183.16123
20183.1691
20183.17339
20183.16826
20183.15024
20183.11014
20183.08667
20183.1016
20183.14117
20183.13397
20183.00552
20182.82505
20182.62662
20182.41863
20182.20444
20181.98565
20181.76291
20181.53636
20181.30588
20181.07113
20180.83172
20180.58719
20180.33898
20180.06321
20179.8907
20179.81825
20179.77161
20179.74872
20179.7608
20179.79064
20179.80043
20179.75296
20179.62866
20179.41248
20179.10198
20178.77334
20178.51425
20178.36164
20178.31226
20178.33301
20178.44787
20178.65253
20178.8494
20178.96535
20179.02203
20179.03325
20178.98825
20178.94728
20178.93916
20178.92253
20178.86541
20178.76902
20178.64538
20178.50475
20178.35446
20178.20206
20178.05911
20177.93417
20177.83183
20177.7568
20177.715
20177.7119
20177.75087
20177.83232
20177.95394
20178.11139
20178.29914
20178.51134
20178.74237
20178.98728
20179.24172
20179.50185
20179.76403
20180.02471
20180.28016
20180.52687
20180.76183
20180.98269
20181.18818
20181.37802
20181.55272
20181.7133
20181.86086
20181.99618
20182.11944
20182.23001
20182.32653
20182.40702
20182.46934
20182.51172
20182.53345
20182.53546
20182.52037
20182.49196
20182.45427
20182.41076
20182.36413
20182.31645
20182.26926
20182.2234
20182.17882
20182.13491
20182.09111
20182.04746
20182.00461
20181.9635
20181.92499
20181.88962
20181.85761
20181.82888
20181.80319
20181.78023
20181.75969
20181.7413
20181.72484
20181.7101
20181.69692
20181.68513
20181.67457
20181.66508
20181.65653
20181.64877
20181.64167
20181.63514
20181.62908
20181.62341
20181.61808
20181.61305
20181.60827
20181.60372
20181.59938
20181.59521
20181.59122
20181.58739
20181.5837
20181.58015
20181.57673
20181.57343
20181.57025
20181.56717
20181.56419
20181.56131
20181.55852
20181.55582
20181.55319
20181.55064
20181.54817
20181.54576
20181.54342
20181.54113
20181.53891
20181.53673
20181.53461
20181.53253
20181.5305
20181.5285
20181.52655
20181.52463
20181.52274
20181.52088
20181.51905
20181.51724
20181.51546
20181.5137
20181.51195
20181.51022
20181.50851
20181.5068
20181.50511
20181.50342
20181.50174
20181.50006
20181.49838
20181.49671
20181.49503
20181.49334
20181.49166
20181.48996
20181.48825
20181.48654
20181.4848
20181.48305
20181.48305
20183.05284
20183.05284
20183.05021
20183.04634
20183.0428
20183.04074
20183.0409
20183.04369
20183.0492
20183.05716
20183.06709
20183.07841
20183.09056
20183.10315
20183.11586
20183.12838
20183.14038
20183.15136
20183.16022
20183.16546
20183.16066
20183.14856
20183.12422
20183.11528
20183.13717
20183.18135
20183.17183
20183.03143
20182.84173
20182.63822
20182.42767
20182.21223
20181.9929
20181.77007
20181.54374
20181.31365
20181.0794
20180.84044
20180.59595
20180.34794
20180.0638
20179.86961
20179.7843
20179.73106
20179.70101
20179.70447
20179.72742
20179.73295
20179.68198
20179.55182
20179.32592
20179.00569
20178.67583
20178.4263
20178.28137
20178.23288
20178.25694
20178.37877
20178.61255
20178.86853
20179.03381
20179.09802
20179.08614
20179.0152
20178.95343
20178.91795
20178.86826
20178.78175
20178.66396
20178.52633
20178.3773
20178.22295
20178.06982
20177.92701
20177.80255
20177.7024
20177.63218
20177.59764
20177.60359