# vtk DataFile Version 2.0
FlowField
ASCII
DATASET STRUCTURED_GRID
DIMENSIONS 200 1 200
POINTS 40000 float
0 0 0
0.15 0 0
0.3 0 0
0.45 0 0
0.6 0 0
0.75 0 0
0.9 0 0
1.05 0 0
1.2 0 0
1.35 0 0
1.5 0 0
1.65 0 0
1.8 0 0
1.95 0 0
2.1 0 0
2.25 0 0
2.4 0 0
2.55 0 0
2.7 0 0
2.85 0 0
3 0 0
3.15 0 0
3.3 0 0
3.45 0 0
3.6 0 0
3.75 0 0
3.9 0 0
4.05 0 0
4.2 0 0
4.35 0 0
4.5 0 0
4.65 0 0
4.8 0 0
4.95 0 0
5.1 0 0
5.25 0 0
5.4 0 0
5.55 0 0
5.7 0 0
5.85 0 0
6 0 0
6.15 0 0
6.3 0 0
6.45 0 0
6.6 0 0
6.75 0 0
6.9 0 0
7.05 0 0
7.2 0 0
7.35 0 0
7.5 0 0
7.65 0 0
7.8 0 0
7.95 0 0
8.1 0 0
8.25 0 0
8.4 0 0
8.55 0 0
8.7 0 0
8.85 0 0
9 0 0
9.15 0 0
9.3 0 0
9.45 0 0
9.6 0 0
9.75 0 0
9.9 0 0
10.05 0 0
10.2 0 0
10.35 0 0
10.5 0 0
10.65 0 0
10.8 0 0
10.95 0 0
11.1 0 0
11.25 0 0
11.4 0 0
11.55 0 0
11.7 0 0
11.85 0 0
12 0 0
12.15 0 0
12.3 0 0
12.45 0 0
12.6 0 0
12.75 0 0
12.9 0 0
13.05 0 0
13.2 0 0
13.35 0 0
13.5 0 0
13.65 0 0
13.8 0 0
13.95 0 0
14.1 0 0
14.25 0 0
14.4 0 0
14.55 0 0
14.7 0 0
14.85 0 0
15 0 0
15.15 0 0
15.3 0 0
15.45 0 0
15.6 0 0
15.75 0 0
15.9 0 0
16.05 0 0
16.2 0 0
16.35 0 0
16.5 0 0
16.65 0 0
16.8 0 0
16.95 0 0
17.1 0 0
17.25 0 0
17.4 0 0
17.55 0 0
17.7 0 0
17.85 0 0
18 0 0
18.15 0 0
18.3 0 0
18.45 0 0
18.6 0 0
18.75 0 0
18.9 0 0
19.05 0 0
19.2 0 0
19.35 0 0
19.5 0 0
19.65 0 0
19.8 0 0
19.95 0 0
20.1 0 0
20.25 0 0
20.4 0 0
20.55 0 0
20.7 0 0
20.85 0 0
21 0 0
21.15 0 0
21.3 0 0
21.45 0 0
21.6 0 0
21.75 0 0
21.9 0 0
22.05 0 0
22.2 0 0
22.35 0 0
22.5 0 0
22.65 0 0
22.8 0 0
22.95 0 0
23.1 0 0
23.25 0 0
23.4 0 0
23.55 0 0
23.7 0 0
23.85 0 0
24 0 0
24.15 0 0
24.3 0 0
24.45 0 0
24.6 0 0
24.75 0 0
24.9 0 0
25.05 0 0
25.2 0 0
25.35 0 0
25.5 0 0
25.65 0 0
25.8 0 0
25.95 0 0
26.1 0 0
26.25 0 0
26.4 0 0
26.55 0 0
26.7 0 0
26.85 0 0
27 0 0
27.15 0 0
27.3 0 0
27.45 0 0
27.6 0 0
27.75 0 0
27.9 0 0
28.05 0 0
28.2 0 0
28.35 0 0
28.5 0 0
28.65 0 0
28.8 0 0
28.95 0 0
29.1 0 0
29.25 0 0
29.4 0 0
29.55 0 0
29.7 0 0
29.85 0 0
0 0.075 0
0.15 0.075 0
0.3 0.075 0
0.45 0.075 0
0.6 0.075 0
0.75 0.075 0
0.9 0.075 0
1.05 0.075 0
1.2 0.075 0
1.35 0.075 0
1.5 0.075 0
1.65 0.075 0
1.8 0.075 0
1.95 0.075 0
2.1 0.075 0
2.25 0.075 0
2.4 0.075 0
2.55 0.075 0
2.7 0.075 0
2.85 0.075 0
3 0.075 0
3.15 0.075 0
3.3 0.075 0
3.45 0.075 0
3.6 0.075 0
3.75 0.075 0
3.9 0.075 0
4.05 0.075 0
4.2 0.075 0
4.35 0.075 0
4.5 0.075 0
4.65 0.075 0
4.8 0.075 0
4.95 0.075 0
5.1 0.075 0
5.25 0.075 0
5.4 0.075 0
5.55 0.075 0
5.7 0.075 0
5.85 0.075 0
6 0.075 0
6.15 0.075 0
6.3 0.075 0
6.45 0.075 0
6.6 0.075 0
6.75 0.075 0
6.9 0.075 0
7.05 0.075 0
7.2 0.075 0
7.35 0.075 0
7.5 0.075 0
7.65 0.075 0
7.8 0.075 0
7.95 0.075 0
8.1 0.075 0
8.25 0.075 0
8.4 0.075 0
8.55 0.075 0
8.7 0.075 0
8.85 0.075 0
9 0.075 0
9.15 0.075 0
9.3 0.075 0
9.45 0.075 0
9.6 0.075 0
9.75 0.075 0
9.9 0.075 0
10.05 0.075 0
10.2 0.075 0
10.35 0.075 0
10.5 0.075 0
10.65 0.075 0
10.8 0.075 0
10.95 0.075 0
11.1 0.075 0
11.25 0.075 0
11.4 0.075 0
11.55 0.075 0
11.7 0.075 0
11.85 0.075 0
12 0.075 0
12.15 0.075 0
12.3 0.075 0
12.45 0.075 0
12.6 0.075 0
12.75 0.075 0
12.9 0.075 0
13.05 0.075 0
13.2 0.075 0
13.35 0.075 0
13.5 0.075 0
13.65 0.075 0
13.8 0.075 0
13.95 0.075 0
14.1 0.075 0
14.25 0.075 0
14.4 0.075 0
14.55 0.075 0
14.7 0.075 0
14.85 0.075 0
15 0.075 0
15.15 0.075 0
15.3 0.075 0
15.45 0.075 0
15.6 0.075 0
15.75 0.075 0
15.9 0.075 0
16.05 0.075 0
16.2 0.075 0
16.35 0.075 0
16.5 0.075 0
16.65 0.075 0
16.8 0.075 0
16.95 0.075 0
17.1 0.075 0
17.25 0.075 0
17.4 0.075 0
17.55 0.075 0
17.7 0.075 0
17.85 0.075 0
18 0.075 0
18.15 0.075 0
18.3 0.075 0
18.45 0.075 0
18.6 0.075 0
18.75 0.075 0
18.9 0.075 0
19.05 0.075 0
19.2 0.075 0
19.35 0.075 0
19.5 0.075 0
19.65 0.075 0
19.8 0.075 0
19.95 0.075 0
20.1 0.075 0
20.25 0.075 0
20.4 0.075 0
20.55 0.075 0
20.7 0.075 0
20.85 0.075 0
21 0.075 0
21.15 0.075 0
21.3 0.075 0
21.45 0.075 0
21.6 0.075 0
21.75 0.075 0
21.9 0.075 0
22.05 0.075 0
22.2 0.075 0
22.35 0.075 0
22.5 0.075 0
22.65 0.075 0
22.8 0.075 0
22.95 0.075 0
23.1 0.075 0
23.25 0.075 0
23.4 0.075 0
23.55 0.075 0
23.7 0.075 0
23.85 0.075 0
24 0.075 0
24.15 0.075 0
24.3 0.075 0
24.45 0.075 0
24.6 0.075 0
24.75 0.075 0
24.9 0.075 0
25.05 0.075 0
25.2 0.075 0
25.35 0.075 0
25.5 0.075 0
25.65 0.075 0
25.8 0.075 0
25.95 0.075 0
26.1 0.075 0
26.25 0.075 0
26.4 0.075 0
26.55 0.075 0
26.7 0.075 0
26.85 0.075 0
27 0.075 0
27.15 0.075 0
27.3 0.075 0
27.45 0.075 0
27.6 0.075 0
27.75 0.075 0
27.9 0.075 0
28.05 0.075 0
28.2 0.075 0
28.35 0.075 0
28.5 0.075 0
28.65 0.075 0
28.8 0.075 0
28.95 0.075 0
29.1 0.075 0
29.25 0.075 0
29.4 0.075 0
29.55 0.075 0
29.7 0.075 0
29.85 0.075 0
0 0.15 0
0.15 0.15 0
0.3 0.15 0
0.45 0.15 0
0.6 0.15 0
0.75 0.15 0
0.9 0.15 0
1.05 0.15 0
1.2 0.15 0
1.35 0.15 0
1.5 0.15 0
1.65 0.15 0
1.8 0.15 0
1.95 0.15 0
2.1 0.15 0
2.25 0.15 0
2.4 0.15 0
2.55 0.15 0
2.7 0.15 0
2.85 0.15 0
3 0.15 0
3.15 0.15 0
3.3 0.15 0
3.45 0.15 0
3.6 0.15 0
3.75 0.15 0
3.9 0.15 0
4.05 0.15 0
4.2 0.15 0
4.35 0.15 0
4.5 0.15 0
4.65 0.15 0
4.8 0.15 0
4.95 0.15 0
5.1 0.15 0
5.25 0.15 0
5.4 0.15 0
5.55 0.15 0
5.7 0.15 0
5.85 0.15 0
6 0.15 0
6.15 0.15 0
6.3 0.15 0
6.45 0.15 0
6.6 0.15 0
6.75 0.15 0
6.9 0.15 0
7.05 0.15 0
7.2 0.15 0
7.35 0.15 0
7.5 0.15 0
7.65 0.15 0
7.8 0.15 0
7.95 0.15 0
8.1 0.15 0
8.25 0.15 0
8.4 0.15 0
8.55 0.15 0
8.7 0.15 0
8.85 0.15 0
9 0.15 0
9.15 0.15 0
9.3 0.15 0
9.45 0.15 0
9.6 0.15 0
9.75 0.15 0
9.9 0.15 0
10.05 0.15 0
10.2 0.15 0
10.35 0.15 0
10.5 0.15 0
10.65 0.15 0
10.8 0.15 0
10.95 0.15 0
11.1 0.15 0
11.25 0.15 0
11.4 0.15 0
11.55 0.15 0
11.7 0.15 0
11.85 0.15 0
12 0.15 0
12.15 0.15 0
12.3 0.15 0
12.45 0.15 0
12.6 0.15 0
12.75 0.15 0
12.9 0.15 0
13.05 0.15 0
13.2 0.15 0
13.35 0.15 0
13.5 0.15 0
13.65 0.15 0
13.8 0.15 0
13.95 0.15 0
14.1 0.15 0
14.25 0.15 0
14.4 0.15 0
14.55 0.15 0
14.7 0.15 0
14.85 0.15 0
15 0.15 0
15.15 0.15 0
15.3 0.15 0
15.45 0.15 0
15.6 0.15 0
15.75 0.15 0
15.9 0.15 0
16.05 0.15 0
16.2 0.15 0
16.35 0.15 0
16.5 0.15 0
16.65 0.15 0
16.8 0.15 0
16.95 0.15 0
17.1 0.15 0
17.25 0.15 0
17.4 0.15 0
17.55 0.15 0
17.7 0.15 0
17.85 0.15 0
18 0.15 0
18.15 0.15 0
18.3 0.15 0
18.45 0.15 0
18.6 0.15 0
18.75 0.15 0
18.9 0.15 0
19.05 0.15 0
19.2 0.15 0
19.35 0.15 0
19.5 0.15 0
19.65 0.15 0
19.8 0.15 0
19.95 0.15 0
20.1 0.15 0
20.25 0.15 0
20.4 0.15 0
20.55 0.15 0
20.7 0.15 0
20.85 0.15 0
21 0.15 0
21.15 0.15 0
21.3 0.15 0
21.45 0.15 0
21.6 0.15 0
21.75 0.15 0
21.9 0.15 0
22.05 0.15 0
22.2 0.15 0
22.35 0.15 0
22.5 0.15 0
22.65 0.15 0
22.8 0.15 0
22.95 0.15 0
23.1 0.15 0
23.25 0.15 0
23.4 0.15 0
23.55 0.15 0
23.7 0.15 0
23.85 0.15 0
24 0.15 0
24.15 0.15 0
24.3 0.15 0
24.45 0.15 0
24.6 0.15 0
24.75 0.15 0
24.9 0.15 0
25.05 0.15 0
25.2 0.15 0
25.35 0.15 0
25.5 0.15 0
25.65 0.15 0
25.8 0.15 0
25.95 0.15 0
26.1 0.15 0
26.25 0.15 0
26.4 0.15 0
26.55 0.15 0
26.7 0.15 0
26.85 0.15 0
27 0.15 0
27.15 0.15 0
27.3 0.15 0
27.45 0.15 0
27.6 0.15 0
27.75 0.15 0
27.9 0.15 0
28.05 0.15 0
28.2 0.15 0
28.35 0.15 0
28.5 0.15 0
28.65 0.15 0
28.8 0.15 0
28.95 0.15 0
29.1 0.15 0
29.25 0.15 0
29.4 0.15 0
29.55 0.15 0
29.7 0.15 0
29.85 0.15 0
0 0.225 0
0.15 0.225 0
0.3 0.225 0
0.45 0.225 0
0.6 0.225 0
0.75 0.225 0
0.9 0.225 0
1.05 0.225 0
1.2 0.225 0
1.35 0.225 0
1.5 0.225 0
1.65 0.225 0
1.8 0.225 0
1.95 0.225 0
2.1 0.225 0
2.25 0.225 0
2.4 0.225 0
2.55 0.225 0
2.7 0.225 0
2.85 0.225 0
3 0.225 0
3.15 0.225 0
3.3 0.225 0
3.45 0.225 0
3.6 0.225 0
3.75 0.225 0
3.9 0.225 0
4.05 0.225 0
4.2 0.225 0
4.35 0.225 0
4.5 0.225 0
4.65 0.225 0
4.8 0.225 0
4.95 0.225 0
5.1 0.225 0
5.25 0.225 0
5.4 0.225 0
5.55 0.225 0
5.7 0.225 0
5.85 0.225 0
6 0.225 0
6.15 0.225 0
6.3 0.225 0
6.45 0.225 0
6.6 0.225 0
6.75 0.225 0
6.9 0.225 0
7.05 0.225 0
7.2 0.225 0
7.35 0.225 0
7.5 0.225 0
7.65 0.225 0
7.8 0.225 0
7.95 0.225 0
8.1 0.225 0
8.25 0.225 0
8.4 0.225 0
8.55 0.225 0
8.7 0.225 0
8.85 0.225 0
9 0.225 0
9.15 0.225 0
9.3 0.225 0
9.45 0.225 0
9.6 0.225 0
9.75 0.225 0
9.9 0.225 0
10.05 0.225 0
10.2 0.225 0
10.35 0.225 0
10.5 0.225 0
10.65 0.225 0
10.8 0.225 0
10.95 0.225 0
11.1 0.225 0
11.25 0.225 0
11.4 0.225 0
11.55 0.225 0
11.7 0.225 0
11.85 0.225 0
12 0.225 0
12.15 0.225 0
12.3 0.225 0
12.45 0.225 0
12.6 0.225 0
12.75 0.225 0
12.9 0.225 0
13.05 0.225 0
13.2 0.225 0
13.35 0.225 0
13.5 0.225 0
13.65 0.225 0
13.8 0.225 0
13.95 0.225 0
14.1 0.225 0
14.25 0.225 0
14.4 0.225 0
14.55 0.225 0
14.7 0.225 0
14.85 0.225 0
15 0.225 0
15.15 0.225 0
15.3 0.225 0
15.45 0.225 0
15.6 0.225 0
15.75 0.225 0
15.9 0.225 0
16.05 0.225 0
16.2 0.225 0
16.35 0.225 0
16.5 0.225 0
16.65 0.225 0
16.8 0.225 0
16.95 0.225 0
17.1 0.225 0
17.25 0.225 0
17.4 0.225 0
17.55 0.225 0
17.7 0.225 0
17.85 0.225 0
18 0.225 0
18.15 0.225 0
18.3 0.225 0
18.45 0.225 0
18.6 0.225 0
18.75 0.225 0
18.9 0.225 0
19.05 0.225 0
19.2 0.225 0
19.35 0.225 0
19.5 0.225 0
19.65 0.225 0
19.8 0.225 0
19.95 0.225 0
20.1 0.225 0
20.25 0.225 0
20.4 0.225 0
20.55 0.225 0
20.7 0.225 0
20.85 0.225 0
21 0.225 0
21.15 0.225 0
21.3 0.225 0
21.45 0.225 0
21.6 0.225 0
21.75 0.225 0
21.9 0.225 0
22.05 0.225 0
22.2 0.225 0
22.35 0.225 0
22.5 0.225 0
22.65 0.225 0
22.8 0.225 0
22.95 0.225 0
23.1 0.225 0
23.25 0.225 0
23.4 0.225 0
23.55 0.225 0
23.7 0.225 0
23.85 0.225 0
24 0.225 0
24.15 0.225 0
24.3 0.225 0
24.45 0.225 0
24.6 0.225 0
24.75 0.225 0
24.9 0.225 0
25.05 0.225 0
25.2 0.225 0
25.35 0.225 0
25.5 0.225 0
25.65 0.225 0
25.8 0.225 0
25.95 0.225 0
26.1 0.225 0
26.25 0.225 0
26.4 0.225 0
26.55 0.225 0
26.7 0.225 0
26.85 0.225 0
27 0.225 0
27.15 0.225 0
27.3 0.225 0
27.45 0.225 0
27.6 0.225 0
27.75 0.225 0
27.9 0.225 0
28.05 0.225 0
28.2 0.225 0
28.35 0.225 0
28.5 0.225 0
28.65 0.225 0
28.8 0.225 0
28.95 0.225 0
29.1 0.225 0
29.25 0.225 0
29.4 0.225 0
29.55 0.225 0
29.7 0.225 0
29.85 0.225 0
0 0.3 0
0.15 0.3 0
0.3 0.3 0
0.45 0.3 0
0.6 0.3 0
0.75 0.3 0
0.9 0.3 0
1.05 0.3 0
1.2 0.3 0
1.35 0.3 0
1.5 0.3 0
1.65 0.3 0
1.8 0.3 0
1.95 0.3 0
2.1 0.3 0
2.25 0.3 0
2.4 0.3 0
2.55 0.3 0
2.7 0.3 0
2.85 0.3 0
3 0.3 0
3.15 0.3 0
3.3 0.3 0
3.45 0.3 0
3.6 0.3 0
3.75 0.3 0
3.9 0.3 0
4.05 0.3 0
4.2 0.3 0
4.35 0.3 0
4.5 0.3 0
4.65 0.3 0
4.8 0.3 0
4.95 0.3 0
5.1 0.3 0
5.25 0.3 0
5.4 0.3 0
5.55 0.3 0
5.7 0.3 0
5.85 0.3 0
6 0.3 0
6.15 0.3 0
[...]
POINT_DATA 40000

SCALARS p float 1
LOOKUP_TABLE default
20183.154
20183.154
20183.09854
20183.07076
20183.05238
20183.03956
20183.03247
20183.03238
20183.03942
20183.05176
20183.06651
20183.0811
20183.09415
20183.10546
20183.11537
20183.12392
20183.13102
20183.13685
20183.14169
20183.14469
20183.14282
20183.1337
20183.10262
20183.04237
20183.10623
20183.54392
20183.42218
20183.04923
20182.79866
20182.57779
20182.36284
20182.14703
20181.9284
20181.70641
20181.4809
20181.25164
20181.01811
20180.77906
20180.53163
20180.26934
20179.97759
20179.81908
20179.87116
20179.8073
20179.74251
20179.66832
20179.59382
20179.52073
20179.44572
20179.40151
20179.43954
20179.59402
20179.86711
20180.22406
20180.58854
20180.84867
20180.90566
20180.70667
20180.34831
20180.03556
20179.84613
20179.75703
20179.67733
20179.51342
20179.47648
20179.49476
20179.50028
20179.45899
20179.37819
20179.33123
20179.42031
20179.5224
20179.52365
20179.47708
20179.43046
20179.39878
20179.38183
20179.37061
20179.35741
20179.33877
20179.30614
20179.26342
20179.21298
20179.08239
20178.94156
20178.85548
20178.77529
20178.67226
20178.56095
20178.46544
20178.40279
20178.38138
20178.40345
20178.46763
20178.57063
20178.70817
20178.87554
20179.06785
20179.28017
20179.50769
20179.74572
20179.98974
20180.23554
20180.47937
20180.71802
20180.94884
20181.16978
20181.37946
20181.57711
20181.76223
20181.9346
20182.09402
20182.24015
20182.37239
20182.48982
20182.59128
20182.67546
20182.74111
20182.78729
20182.81362
20182.8204
20182.80879
20182.78069
20182.73856
20182.68516
20182.62334
20182.55586
20182.4853
20182.41385
20182.3433
20182.27506
20182.21027
20182.14982
20182.09429
20182.04384
20181.99818
20181.95679
20181.91917
20181.88494
20181.85387
20181.82576
20181.80033
20181.77719
20181.75576
20181.73539
20181.71554
20181.69607
20181.67725
20181.65941
20181.64258
20181.62633
20181.61006
20181.5933
20181.57585
20181.55775
20181.53925
20181.52074
20181.50269
20181.48559
20181.46989
20181.45597
20181.44415
20181.43467
20181.4277
20181.42325
20181.42115
20181.42108
20181.42255
20181.42503
20181.42799
20181.43099
20181.43369
20181.43583
20181.43728
20181.43799
20181.43793
20181.43713
20181.43563
20181.4335
20181.4308
20181.42758
20181.42389
20181.4198
20181.41533
20181.41053
20181.40543
20181.40005
20181.39442
20181.38855
20181.38246
20181.37616
20181.36966
20181.36298
20181.35612
20181.3491
20181.34195
20181.33468
20181.32735
20181.31996
20181.31996
20183.154
20183.154
20183.09854
20183.07076
20183.05238
20183.03956
20183.03247
20183.03238
20183.03942
20183.05176
20183.06651
20183.0811
20183.09415
20183.10546
20183.11537
20183.12392
20183.13102
20183.13685
20183.14169
20183.14469
20183.14282
20183.1337
20183.10262
20183.04237
20183.10623
20183.54392
20183.42218
20183.04923
20182.79866
20182.57779
20182.36284
20182.14703
20181.9284
20181.70641
20181.4809
20181.25164
20181.01811
20180.77906
20180.53163
20180.26934
20179.97759
20179.81908
20179.87116
20179.8073
20179.74251
20179.66832
20179.59382
20179.52073
20179.44572
20179.40151
20179.43954
20179.59402
20179.86711
20180.22406
20180.58854
20180.84867
20180.90566
20180.70667
20180.34831
20180.03556
20179.84613
20179.75703
20179.67733
20179.51342
20179.47648
20179.49476
20179.50028
20179.45899
20179.37819
20179.33123
20179.42031
20179.5224
20179.52365
20179.47708
20179.43046
20179.39878
20179.38183
20179.37061
20179.35741
20179.33877
20179.30614
20179.26342
20179.21298
20179.08239
20178.94156
20178.85548
20178.77529
20178.67226
20178.56095
20178.46544
20178.40279
20178.38138
20178.40345
20178.46763
20178.57063
20178.70817
20178.87554
20179.06785
20179.28017
20179.50769
20179.74572
20179.98974
20180.23554
20180.47937
20180.71802
20180.94884
20181.16978
20181.37946
20181.57711
20181.76223
20181.9346
20182.09402
20182.24015
20182.37239
20182.48982
20182.59128
20182.67546
20182.74111
20182.78729
20182.81362
20182.8204
20182.80879
20182.78069
20182.73856
20182.68516
20182.62334
20182.55586
20182.4853
20182.41385
20182.3433
20182.27506
20182.21027
20182.14982
20182.09429
20182.04384
20181.99818
20181.95679
20181.91917
20181.88494
20181.85387
20181.82576
20181.80033
20181.77719
20181.75576
20181.73539
20181.71554
20181.69607
20181.67725
20181.65941
20181.64258
20181.62633
20181.61006
20181.5933
20181.57585
20181.55775
20181.53925
20181.52074
20181.50269
20181.48559
20181.46989
20181.45597
20181.44415
20181.43467
20181.4277
20181.42325
20181.42115
20181.42108
20181.42255
20181.42503
20181.42799
20181.43099
20181.43369
20181.43583
20181.43728
20181.43799
20181.43793
20181.43713
20181.43563
20181.4335
20181.4308
20181.42758
20181.42389
20181.4198
20181.41533
20181.41053
20181.40543
20181.40005
20181.39442
20181.38855
20181.38246
20181.37616
20181.36966
20181.36298
20181.35612
20181.3491
20181.34195
20181.33468
20181.32735
20181.31996
20181.31996
20183.12141
20183.12141
20183.0895
20183.06633
20183.04999
20183.03874
20183.03289
20183.03352
20183.04078
20183.05303
20183.06762
20183.08208
20183.09503
20183.10626
20183.1161
20183.12455
20183.13151
20183.13718
20183.14194
20183.14539
20183.14499
20183.13362
20183.08422
20183.00066
20183.01101
20183.31943
20183.27978
20183.01951
20182.79153
20182.57637
20182.36306
20182.14772
20181.92922
20181.70727
20181.48181
20181.25269
20181.01947
20180.78111
20180.53528
20180.27655
20179.98952
20179.85038
20179.86249
20179.80559
20179.74716
20179.67257
20179.58699
20179.49709
20179.41063
20179.3623
20179.39928
20179.5522
20179.82197
20180.17341
20180.53215
20180.79199
20180.84532
20180.63652
20180.27767
20179.99506
20179.81378
20179.69281
20179.59647
20179.48349
20179.4766
20179.49675
20179.50873
20179.46451
20179.36041
20179.28897
20179.37732
20179.50472
20179.51886
20179.47387
20179.42825
20179.39741
20179.38117
20179.37052
20179.35708
20179.33869
20179.30786
20179.26147
20179.21794
20179.09663
20178.94598
20178.8415
20178.74838
20178.64103
20178.53101
20178.43909
20178.38041
20178.36254
20178.38752
20178.45401
20178.5588
20178.69775
20178.86626
20179.0595
20179.27262
20179.50085
20179.73953
20179.98415
20180.23052
20180.47487
20180.71396
20180.94512
20181.16629
20181.3761
20181.57375
20181.75878
20181.93098
20182.0902
20182.23613
20182.36818
20182.48547
20182.58682
20182.67094
20182.73658
20182.78281
20182.80922
20182.81613
20182.80467
20182.77676
20182.73486
20182.68174
20182.62021
20182.55304
20182.48279
20182.41167
20182.34146
20182.27356
20182.20908
20182.14892
20182.09367
20182.04348
20181.99804
20181.95681
20181.91928
20181.88509
20181.85405
20181.82596
20181.80059
20181.77752
20181.75617
20181.73586
20181.71601
20181.69649
20181.67759
20181.65972
20181.64292
20181.62675
20181.61054
20181.59381
20181.57634
20181.55819
20181.53961
20181.52101
20181.50287
20181.48568
20181.46989
20181.45588
20181.44397
20181.43442
20181.42739
20181.42292
20181.42084
20181.42081
20181.42234
20181.4249
20181.42793
20181.43099
20181.43372
20181.43589
20181.43736
20181.43807
20181.43801
20181.43721
20181.43571
20181.43358
20181.43087
20181.42764
20181.42395
20181.41984
20181.41537
20181.41057
20181.40547
20181.40009
20181.39445
20181.38858
20181.38249
20181.37618
20181.36968
20181.36299
20181.35613
20181.34911
20181.34195
20181.33468
20181.32734
20181.31995
20181.31995
20183.09576
20183.09576
20183.07632
20183.05843
20183.04489
20183.03571
20183.0314
20183.03278
20183.03999
20183.05183
20183.06613
20183.08072
20183.0942
20183.10608
20183.11639
20183.12503
20183.13204
20183.13767
20183.14255
20183.1467
20183.14694
20183.12985
20183.05966
20182.96765
20182.95369
20183.12422
20183.13824
20182.98184
20182.78159
20182.57462
20182.36382
20182.14922
20181.9309
20181.70901
20181.48364
20181.25477
20181.02212
20180.78507
20180.54224
20180.2907
20180.0193
20179.89421
20179.88159
20179.82062
20179.75533
20179.66692
20179.55628
20179.43815
20179.33363
20179.27886
20179.31396
20179.46373
20179.72688
20180.06867
20180.41799
20180.6733
20180.72103
20180.50235
20180.16622
20179.92968
20179.76057
20179.59449
20179.48021
20179.41189
20179.43517
20179.48785
20179.51659
20179.46092
20179.3158
20179.20527
20179.29301
20179.4605
20179.50072
20179.46199
20179.4218
20179.39588
20179.38199
20179.372
20179.35844
20179.33845
20179.31255
20179.26119
20179.19413
20179.06784
20178.91186
20178.78617
20178.6761
20178.56553
20178.46165
20178.37933
20178.33028
20178.3207
20178.35238
20178.42414
20178.53309
20178.67532
20178.84645
20179.04187
20179.25688
20179.48678
20179.72696
20179.97299
20180.22066
20180.46616
20180.70622
20180.93811
20181.15978
20181.36984
20181.56748
20181.75231
20181.9242
20182.08303
20182.22856
20182.36026
20182.47727
20182.57842
20182.66241
20182.72798
20182.7742
20182.80064
20182.80758
20182.79619
20182.76838
20182.72668
20182.67383
20182.61263
20182.54583
20182.47601
20182.40542
20182.33583
20182.26861
20182.20483
20182.14534
20182.09072
20182.04107
20181.99608
20181.9552
20181.91792
20181.88391
20181.85302
20181.82509
20181.79991
20181.77705
20181.75588
20181.73568
20181.71588
20181.69637
20181.67749
20181.65969
20181.64299
20181.62693
20181.61081
20181.5941
20181.57661
20181.55839
20181.5397
20181.52096
20181.50269
20181.4854
20181.46952
20181.45544
20181.44346
20181.43386
20181.42682
20181.42236
20181.42035
20181.42044
20181.42211
20181.4248
20181.42795
20181.43111
20181.4339
20181.43611
20181.4376
20181.43831
20181.43824
20181.43742
20181.43591
20181.43376
20181.43103
20181.42779
20181.42409
20181.41997
20181.41549
20181.41068
20181.40557
20181.40018
20181.39454
20181.38866
20181.38256
20181.37625
20181.36974
20181.36304
20181.35617
20181.34913
20181.34196
20181.33466
20181.3273
20181.31988
20181.31988
20183.07514
20183.07514
20183.06276
20183.04925
20183.03834
20183.03102
20183.02799
20183.0299
20183.03683
20183.04793
20183.06159
20183.07608
20183.09009
20183.10294
20183.11434
20183.12401
20183.13182
20183.13794
20183.14313
20183.14777
20183.14727
20183.12476
20183.04524
20182.96787
20182.95916
20183.04537
20183.06537
20182.95524
20182.77414
20182.5741
20182.36561
20182.15167
20181.93348
20181.71162
20181.48636
20181.2578
20181.02592
20180.79057
20180.55158
20180.30931
20180.0578
20179.94818
20179.92632
20179.85419
20179.76528
20179.64622
20179.50068
20179.35189
20179.2282
20179.16465
20179.19447
20179.33681
20179.58845
20179.91609
20180.2523
20180.49974
20180.5463
20180.34632
20180.05874
20179.86333
20179.70023
20179.50464
20179.36493
20179.29986
20179.34193
20179.4412
20179.49577
20179.43444
20179.25813
20179.11582
20179.19819
20179.39929
20179.47185
20179.44326
20179.41123
20179.39371
20179.38428
20179.37477
20179.36128
20179.33795
20179.29742
20179.22677
20179.12837
20178.98835
20178.82975
20178.69293
20178.57469
20178.4665
20178.37243
20178.30241
20178.26513
20178.26562
20178.30546
20178.38372
20178.49781
20178.64416
20178.81863
20179.01686
20179.23432
20179.46641
20179.7086
20179.95651
20180.20594
20180.45302
20180.69439
20180.9273
20181.14966
20181.36005
20181.55769
20181.74226
20181.91368
20182.07196
20182.21691
20182.34808
20182.46463
20182.56542
20182.64913
20182.71451
20182.76061
20182.787
20182.79394
20182.78257
20182.75488
20182.71343
20182.66099
20182.60032
20182.53411
20182.46496
20182.39514
20182.32645
20182.26022
20182.19745
20182.13893
20182.0852
20182.03635
20181.99203
20181.95171
20181.91487
20181.88123
20181.85068
20181.82308
20181.7982
20181.77558
20181.75458
20181.73448
20181.71479
20181.69541
20181.67668
20181.65902
20181.64245
20181.6265
20181.61047
20181.59383
20181.57638
20181.55813
20181.53938
20181.52057
20181.50224
20181.48492
20181.46903
20181.45494
20181.44294
20181.43332
20181.42628
20181.42187
20181.41995
20181.42017
20181.42201
20181.42485
20181.42814
20181.43139
20181.43424
20181.43648
20181.43797
20181.43867
20181.43858
20181.43774
20181.43621
20181.43403
20181.43128
20181.42802
20181.4243
20181.42017
20181.41567
20181.41085
20181.40573
20181.40033
20181.39469
20181.3888
20181.38269
20181.37637
20181.36985
20181.36314
20181.35625
20181.34918
20181.34198
20181.33462
20181.32721
20181.31971
20181.31971
20183.05776
20183.05776
20183.0496
20183.03954
20183.03096
20183.02525
20183.02323
20183.02543
20183.03195
20183.04216
20183.05489
20183.06882
20183.08289
20183.09641
20183.10893
20183.12001
20183.12931
20183.13676
20183.14275
20183.14732
20183.14515
20183.12083
20183.04453
20182.98552
20182.98751
20183.03898
20183.05005
20182.94599
20182.77252
20182.57611
20182.36888
20182.15522
20181.93699
20181.71508
20181.4899
20181.2617
20181.03065
20180.79713
20180.56215
20180.32923
20180.09537
20179.99648
20179.97046
20179.88718
20179.7669
20179.60851
20179.42538
20179.24627
20179.10239
20179.02717
20179.04808
20179.17906
20179.41504
20179.72499
20180.04678
20180.28835
20180.34674
20180.19367
20179.95578
20179.79523
20179.62418
20179.41284
20179.25346
20179.17916
20179.21624
20179.34388
20179.43291
20179.38285
20179.20757
20179.05902
20179.13329
20179.3454
20179.43972
20179.42118
20179.39762
20179.39024
20179.38719
20179.37836
20179.3576
20179.31725
20179.24874
20179.14842
20179.02326
20178.87412
20178.71794
20178.57979
20178.46128
20178.3588
20178.27514
20178.21717
20178.1914
20178.20191
20178.2501
20178.33514
20178.45475
20178.60561
20178.78381
20178.98522
20179.20551
20179.44018
20179.68479
20179.93499
20180.18656
20180.43559
20180.67863
20180.91284
20181.13608
20181.34693
20181.5446
20181.72887
20181.89975
20182.05734
20182.20156
20182.33203
20182.44795
20182.5482
20182.63145
20182.69647
20182.74232
20182.76856
20182.77543
20182.76405
20182.73645
20182.69529
20182.64341
20182.58352
20182.5182
20182.44999
20182.38122
20182.31374
20182.24881
20182.18734
20182.13007
20182.07748
20182.02962
20181.98616
20181.94653
20181.91028
20181.87719
20181.84718
20181.8201
20181.79561
20181.77321
20181.7523
20181.73226
20181.71267
20181.6935
20181.67504
20181.6576
20181.64115
20181.62528
20181.60932
20181.59278
20181.5754
20181.55722
20181.53854
20181.51981
20181.50159
20181.48439
20181.46863
20181.45464
20181.44271
20181.43311
20181.42609
20181.42171
20181.41988
20181.42022
20181.42219
20181.42517
20181.42856
20181.43188
20181.43477
20181.437
20181.43848
20181.43915
20181.43903
20181.43816
20181.43659
20181.43439
20181.43161
20181.42832
20181.42458
20181.42044
20181.41593
20181.41109
20181.40596
20181.40055
20181.3949
20181.389
20181.38289
20181.37655
20181.37002
20181.36328
20181.35636
20181.34925
20181.34199
20181.33457
20181.32705
20181.31942
20181.31942
20183.04251
20183.04251
20183.03698
20183.02958
20183.023
20183.01868
20183.01748
20183.0199
20183.026
20183.03533
20183.04703
20183.06013
20183.07378
20183.08738
20183.10052
20183.11273
20183.12358
20183.13274
20183.13995
20183.14436
20183.14065
20183.11779
20183.0552
20183.01331
20183.02532
20183.06802
20183.06794
20182.95271
20182.77778
20182.58132
20182.37392
20182.15994
20181.94142
20181.71935
20181.49422
20181.26634
20181.0361
20180.80428
20180.5728
20180.34771
20180.12528
20180.02881
20179.99733
20179.90352
20179.75182
20179.55414
20179.33492
20179.12656
20178.96223
20178.87378
20178.88365
20179.00091
20179.21863
20179.50852
20179.81468
20180.0549
20180.13829
20180.03069
20179.85091
20179.73023
20179.53242
20179.30215
20179.13006
20179.06057
20179.08747
20179.21581
20179.33822
20179.32152
20179.18084
20179.05314
20179.11951
20179.31761
20179.41062
20179.39526
20179.38007
20179.38462
20179.38786
20179.37336
20179.33399
20179.26341
20179.16221
20179.03671
20178.89576
20178.74388
20178.59278
20178.45793
20178.34281
20178.24693
20178.17287
20178.12576
20178.11059
20178.13064
20178.18703
20178.27895
20178.40427
20178.55991
20178.74216
20178.94706
20179.17049
20179.4081
20179.65551
20179.90838
20180.1625
20180.41388
20180.65895
20180.89477
20181.11915
20181.33061
20181.52842
20181.7124
20181.8827
20182.03952
20182.18291
20182.31255
20182.42769
20182.52723
20182.60983
20182.67426
20182.71967
20182.74564
20182.75239
20182.74097
20182.71343
20182.67254
20182.6213
20182.56241
20182.49829
20182.43135
20182.36394
20182.29795
20182.23463
20182.17479
20182.11905
20182.06784
20182.0212
20181.97877
20181.93998
20181.90442
20181.87201
20181.84272
20181.81633
20181.79237
20181.77024
20181.74935
20181.72925
20181.7097
20181.69075
20181.67263
20181.65549
20181.63922
20181.6234
20181.60747
20181.59098
20181.57367
20181.55562
20181.53711
20181.51863
20181.50072
20181.48385
20181.46841
20181.45469
20181.44295
20181.43346
20181.42649
20181.42216
20181.42037
20181.42079
20181.42284
20181.42589
20181.42933
20181.43266
20181.43552
20181.43772
20181.43915
20181.43977
20181.43959
20181.43867
20181.43706
20181.43482
20181.43201
20181.4287
20181.42494
20181.42077
20181.41625
20181.4114
20181.40626
20181.40085
20181.39518
20181.38927
20181.38314
20181.37679
20181.37024
20181.36347
20181.35651
20181.34935
20181.34203
20181.33451
20181.32686
20181.31903
20181.31903
20183.0287
20183.0287
20183.02489
20183.01949
20183.01457
20183.01145
20183.01096
20183.01355
20183.0193
20183.02786
20183.03861
20183.0508
20183.06376
20183.07702
20183.0902
20183.10294
20183.11483
20183.1254
20183.13385
20183.13858
20183.13377
20183.11455
20183.07124
20183.0461
20183.06471
20183.10847
20183.10153
20182.97132
20182.78942
20182.58978
20182.38076
20182.16582
20181.94673
20181.72438
20181.49923
20181.27163
20181.04207
20180.81162
20180.58268
20180.363
20180.14463
20180.04137
20180.00074
20179.89623
20179.71704
20179.48478
20179.23303
20178.99763
20178.81397
20178.7123
20178.7105
20178.81324
20179.01171
20179.28058
20179.57125
20179.81182
20179.92132
20179.86385
20179.75701
20179.64984
20179.42478
20179.16512
20178.99067
20178.94761
20178.96861
20179.08391
20179.23317
20179.26793
20179.18729
20179.10141
20179.16226
20179.32486
20179.3887
20179.36372
20179.35671
20179.37381
20179.37813
20179.34807
20179.27918
20179.17597
20179.04897
20178.90764
20178.75918
20178.6078
20178.46175
20178.33123
20178.22051
20178.13107
20178.06561
20178.02825
20178.02286
20178.05196
20178.11639
20178.21525
20178.34645
20178.50709
20178.69363
20178.9023
20179.12916
20179.37
20179.62054
20179.87647
20180.13354
20180.38767
20180.63517
20180.87298
20181.09879
20181.3111
20181.5092
20181.69299
20181.86274
20182.01879
20182.16129
20182.29001
20182.40427
20182.50295
20182.58469
20182.6483
20182.69299
20182.7185
20182.72506
20182.71362
20182.68618
20182.64561
20182.59504
20182.53728
20182.47464
20182.40933
20182.3436
20182.27938
20182.21794
20182.16001
20182.10609
20182.05652
20182.01132
20181.97009
20181.93227
20181.89753
20181.86589
20181.83743
20181.8119
20181.78862
20181.76685
20181.74598
20181.72574
20181.70612
20181.68735
20181.66962
20181.65289
20181.63687
20181.62111
20181.60514
20181.5886
20181.57133
20181.55341
20181.53516
20181.51703
20181.49955
20181.48316
20181.46821
20181.45494
20181.44357
20181.43435
20181.42753
20181.42329
20181.42156
20181.42201
20181.42409
20181.42714
20181.43053
20181.43379
20181.43657
20181.43868
20181.44
20181.44053
20181.44028
20181.4393
20181.43763
20181.43534
20181.4325
20181.42916
20181.42537
20181.42119
20181.41665
20181.41179
20181.40664
20181.40121
20181.39553
20181.38962
20181.38347
20181.3771
20181.37052
20181.36372
20181.35672
20181.3495
20181.34209
20181.33445
20181.32663
20181.31856
20181.31856
20183.01588
20183.01588
20183.01323
20183.00934
20183.00577
20183.00367
20183.00378
20183.00653
20183.01199
20183.01992
20183.02985
20183.04118
20183.0534
20183.06609
20183.07895
20183.09171
20183.10402
20183.11539
20183.12477
20183.13038
20183.12572
20183.1127
20183.08725
20183.0778
20183.10317
20183.15069
20183.14064
20182.99772
20182.80611
20182.60106
20182.38921
20182.17275
20181.95283
20181.73008
20181.50485
20181.27745
20181.04839
20180.81885
20180.59126
20180.37445
20180.15353
20180.03514
20179.98108
20179.86546
20179.6639
20179.40322
20179.12353
20178.86443
20178.6638
20178.55012
20178.53722
20178.62585
20178.80534
20179.05306
20179.32794
20179.56897
20179.70662
20179.71231
20179.65854
20179.52848
20179.30318
20179.02107
20178.85622
20178.8436
20178.86355
20178.96532
20179.13501
20179.23151
20179.22695
20179.19648
20179.25539
20179.36862
20179.38175
20179.33516
20179.33174
20179.35486