# vtk DataFile Version 2.0
FlowField
ASCII
DATASET STRUCTURED_GRID
DIMENSIONS 200 1 200
POINTS 40000 float
0 0 0
0.15 0 0
0.3 0 0
0.45 0 0
0.6 0 0
0.75 0 0
0.9 0 0
1.05 0 0
1.2 0 0
1.35 0 0
1.5 0 0
1.65 0 0
1.8 0 0
1.95 0 0
2.1 0 0
2.25 0 0
2.4 0 0
2.55 0 0
2.7 0 0
2.85 0 0
3 0 0
3.15 0 0
3.3 0 0
3.45 0 0
3.6 0 0
3.75 0 0
3.9 0 0
4.05 0 0
4.2 0 0
4.35 0 0
4.5 0 0
4.65 0 0
4.8 0 0
4.95 0 0
5.1 0 0
5.25 0 0
5.4 0 0
5.55 0 0
5.7 0 0
5.85 0 0
6 0 0
6.15 0 0
6.3 0 0
6.45 0 0
6.6 0 0
6.75 0 0
6.9 0 0
7.05 0 0
7.2 0 0
7.35 0 0
7.5 0 0
7.65 0 0
7.8 0 0
7.95 0 0
8.1 0 0
8.25 0 0
8.4 0 0
8.55 0 0
8.7 0 0
8.85 0 0
9 0 0
9.15 0 0
9.3 0 0
9.45 0 0
9.6 0 0
9.75 0 0
9.9 0 0
10.05 0 0
10.2 0 0
10.35 0 0
10.5 0 0
10.65 0 0
10.8 0 0
10.95 0 0
11.1 0 0
11.25 0 0
11.4 0 0
11.55 0 0
11.7 0 0
11.85 0 0
12 0 0
12.15 0 0
12.3 0 0
12.45 0 0
12.6 0 0
12.75 0 0
12.9 0 0
13.05 0 0
13.2 0 0
13.35 0 0
13.5 0 0
13.65 0 0
13.8 0 0
13.95 0 0
14.1 0 0
14.25 0 0
14.4 0 0
14.55 0 0
14.7 0 0
14.85 0 0
15 0 0
15.15 0 0
15.3 0 0
15.45 0 0
15.6 0 0
15.75 0 0
15.9 0 0
16.05 0 0
16.2 0 0
16.35 0 0
16.5 0 0
16.65 0 0
16.8 0 0
16.95 0 0
17.1 0 0
17.25 0 0
17.4 0 0
17.55 0 0
17.7 0 0
17.85 0 0
18 0 0
18.15 0 0
18.3 0 0
18.45 0 0
18.6 0 0
18.75 0 0
18.9 0 0
19.05 0 0
19.2 0 0
19.35 0 0
19.5 0 0
19.65 0 0
19.8 0 0
19.95 0 0
20.1 0 0
20.25 0 0
20.4 0 0
20.55 0 0
20.7 0 0
20.85 0 0
21 0 0
21.15 0 0
21.3 0 0
21.45 0 0
21.6 0 0
21.75 0 0
21.9 0 0
22.05 0 0
22.2 0 0
22.35 0 0
22.5 0 0
22.65 0 0
22.8 0 0
22.95 0 0
23.1 0 0
23.25 0 0
23.4 0 0
23.55 0 0
23.7 0 0
23.85 0 0
24 0 0
24.15 0 0
24.3 0 0
24.45 0 0
24.6 0 0
24.75 0 0
24.9 0 0
25.05 0 0
25.2 0 0
25.35 0 0
25.5 0 0
25.65 0 0
25.8 0 0
25.95 0 0
26.1 0 0
26.25 0 0
26.4 0 0
26.55 0 0
26.7 0 0
26.85 0 0
27 0 0
27.15 0 0
27.3 0 0
27.45 0 0
27.6 0 0
27.75 0 0
27.9 0 0
28.05 0 0
28.2 0 0
28.35 0 0
28.5 0 0
28.65 0 0
28.8 0 0
28.95 0 0
29.1 0 0
29.25 0 0
29.4 0 0
29.55 0 0
29.7 0 0
29.85 0 0
0 0.075 0
0.15 0.075 0
0.3 0.075 0
0.45 0.075 0
0.6 0.075 0
0.75 0.075 0
0.9 0.075 0
1.05 0.075 0
1.2 0.075 0
1.35 0.075 0
1.5 0.075 0
1.65 0.075 0
1.8 0.075 0
1.95 0.075 0
2.1 0.075 0
2.25 0.075 0
2.4 0.075 0
2.55 0.075 0
2.7 0.075 0
2.85 0.075 0
3 0.075 0
3.15 0.075 0
3.3 0.075 0
3.45 0.075 0
3.6 0.075 0
3.75 0.075 0
3.9 0.075 0
4.05 0.075 0
4.2 0.075 0
4.35 0.075 0
4.5 0.075 0
4.65 0.075 0
4.8 0.075 0
4.95 0.075 0
5.1 0.075 0
5.25 0.075 0
5.4 0.075 0
5.55 0.075 0
5.7 0.075 0
5.85 0.075 0
6 0.075 0
6.15 0.075 0
6.3 0.075 0
6.45 0.075 0
6.6 0.075 0
6.75 0.075 0
6.9 0.075 0
7.05 0.075 0
7.2 0.075 0
7.35 0.075 0
7.5 0.075 0
7.65 0.075 0
7.8 0.075 0
7.95 0.075 0
8.1 0.075 0
8.25 0.075 0
8.4 0.075 0
8.55 0.075 0
8.7 0.075 0
8.85 0.075 0
9 0.075 0
9.15 0.075 0
9.3 0.075 0
9.45 0.075 0
9.6 0.075 0
9.75 0.075 0
9.9 0.075 0
10.05 0.075 0
10.2 0.075 0
10.35 0.075 0
10.5 0.075 0
10.65 0.075 0
10.8 0.075 0
10.95 0.075 0
11.1 0.075 0
11.25 0.075 0
11.4 0.075 0
11.55 0.075 0
11.7 0.075 0
11.85 0.075 0
12 0.075 0
12.15 0.075 0
12.3 0.075 0
12.45 0.075 0
12.6 0.075 0
12.75 0.075 0
12.9 0.075 0
13.05 0.075 0
13.2 0.075 0
13.35 0.075 0
13.5 0.075 0
13.65 0.075 0
13.8 0.075 0
13.95 0.075 0
14.1 0.075 0
14.25 0.075 0
14.4 0.075 0
14.55 0.075 0
14.7 0.075 0
14.85 0.075 0
15 0.075 0
15.15 0.075 0
15.3 0.075 0
15.45 0.075 0
15.6 0.075 0
15.75 0.075 0
15.9 0.075 0
16.05 0.075 0
16.2 0.075 0
16.35 0.075 0
16.5 0.075 0
16.65 0.075 0
16.8 0.075 0
16.95 0.075 0
17.1 0.075 0
17.25 0.075 0
17.4 0.075 0
17.55 0.075 0
17.7 0.075 0
17.85 0.075 0
18 0.075 0
18.15 0.075 0
18.3 0.075 0
18.45 0.075 0
18.6 0.075 0
18.75 0.075 0
18.9 0.075 0
19.05 0.075 0
19.2 0.075 0
19.35 0.075 0
19.5 0.075 0
19.65 0.075 0
19.8 0.075 0
19.95 0.075 0
20.1 0.075 0
20.25 0.075 0
20.4 0.075 0
20.55 0.075 0
20.7 0.075 0
20.85 0.075 0
21 0.075 0
21.15 0.075 0
21.3 0.075 0
21.45 0.075 0
21.6 0.075 0
21.75 0.075 0
21.9 0.075 0
22.05 0.075 0
22.2 0.075 0
22.35 0.075 0
22.5 0.075 0
22.65 0.075 0
22.8 0.075 0
22.95 0.075 0
23.1 0.075 0
23.25 0.075 0
23.4 0.075 0
23.55 0.075 0
23.7 0.075 0
23.85 0.075 0
24 0.075 0
24.15 0.075 0
24.3 0.075 0
24.45 0.075 0
24.6 0.075 0
24.75 0.075 0
24.9 0.075 0
25.05 0.075 0
25.2 0.075 0
25.35 0.075 0
25.5 0.075 0
25.65 0.075 0
25.8 0.075 0
25.95 0.075 0
26.1 0.075 0
26.25 0.075 0
26.4 0.075 0
26.55 0.075 0
26.7 0.075 0
26.85 0.075 0
27 0.075 0
27.15 0.075 0
27.3 0.075 0
27.45 0.075 0
27.6 0.075 0
27.75 0.075 0
27.9 0.075 0
28.05 0.075 0
28.2 0.075 0
28.35 0.075 0
28.5 0.075 0
28.65 0.075 0
28.8 0.075 0
28.95 0.075 0
29.1 0.075 0
29.25 0.075 0
29.4 0.075 0
29.55 0.075 0
29.7 0.075 0
29.85 0.075 0
0 0.15 0
0.15 0.15 0
0.3 0.15 0
0.45 0.15 0
0.6 0.15 0
0.75 0.15 0
0.9 0.15 0
1.05 0.15 0
1.2 0.15 0
1.35 0.15 0
1.5 0.15 0
1.65 0.15 0
1.8 0.15 0
1.95 0.15 0
2.1 0.15 0
2.25 0.15 0
2.4 0.15 0
2.55 0.15 0
2.7 0.15 0
2.85 0.15 0
3 0.15 0
3.15 0.15 0
3.3 0.15 0
3.45 0.15 0
3.6 0.15 0
3.75 0.15 0
3.9 0.15 0
4.05 0.15 0
4.2 0.15 0
4.35 0.15 0
4.5 0.15 0
4.65 0.15 0
4.8 0.15 0
4.95 0.15 0
5.1 0.15 0
5.25 0.15 0
5.4 0.15 0
5.55 0.15 0
5.7 0.15 0
5.85 0.15 0
6 0.15 0
6.15 0.15 0
6.3 0.15 0
6.45 0.15 0
6.6 0.15 0
6.75 0.15 0
6.9 0.15 0
7.05 0.15 0
7.2 0.15 0
7.35 0.15 0
7.5 0.15 0
7.65 0.15 0
7.8 0.15 0
7.95 0.15 0
8.1 0.15 0
8.25 0.15 0
8.4 0.15 0
8.55 0.15 0
8.7 0.15 0
8.85 0.15 0
9 0.15 0
9.15 0.15 0
9.3 0.15 0
9.45 0.15 0
9.6 0.15 0
9.75 0.15 0
9.9 0.15 0
10.05 0.15 0
10.2 0.15 0
10.35 0.15 0
10.5 0.15 0
10.65 0.15 0
10.8 0.15 0
10.95 0.15 0
11.1 0.15 0
11.25 0.15 0
11.4 0.15 0
11.55 0.15 0
11.7 0.15 0
11.85 0.15 0
12 0.15 0
12.15 0.15 0
12.3 0.15 0
12.45 0.15 0
12.6 0.15 0
12.75 0.15 0
12.9 0.15 0
13.05 0.15 0
13.2 0.15 0
13.35 0.15 0
13.5 0.15 0
13.65 0.15 0
13.8 0.15 0
13.95 0.15 0
14.1 0.15 0
14.25 0.15 0
14.4 0.15 0
14.55 0.15 0
14.7 0.15 0
14.85 0.15 0
15 0.15 0
15.15 0.15 0
15.3 0.15 0
15.45 0.15 0
15.6 0.15 0
15.75 0.15 0
15.9 0.15 0
16.05 0.15 0
16.2 0.15 0
16.35 0.15 0
16.5 0.15 0
16.65 0.15 0
16.8 0.15 0
16.95 0.15 0
17.1 0.15 0
17.25 0.15 0
17.4 0.15 0
17.55 0.15 0
17.7 0.15 0
17.85 0.15 0
18 0.15 0
18.15 0.15 0
18.3 0.15 0
18.45 0.15 0
18.6 0.15 0
18.75 0.15 0
18.9 0.15 0
19.05 0.15 0
19.2 0.15 0
19.35 0.15 0
19.5 0.15 0
19.65 0.15 0
19.8 0.15 0
19.95 0.15 0
20.1 0.15 0
20.25 0.15 0
20.4 0.15 0
20.55 0.15 0
20.7 0.15 0
20.85 0.15 0
21 0.15 0
21.15 0.15 0
21.3 0.15 0
21.45 0.15 0
21.6 0.15 0
21.75 0.15 0
21.9 0.15 0
22.05 0.15 0
22.2 0.15 0
22.35 0.15 0
22.5 0.15 0
22.65 0.15 0
22.8 0.15 0
22.95 0.15 0
23.1 0.15 0
23.25 0.15 0
23.4 0.15 0
23.55 0.15 0
23.7 0.15 0
23.85 0.15 0
24 0.15 0
24.15 0.15 0
24.3 0.15 0
24.45 0.15 0
24.6 0.15 0
24.75 0.15 0
24.9 0.15 0
25.05 0.15 0
25.2 0.15 0
25.35 0.15 0
25.5 0.15 0
25.65 0.15 0
25.8 0.15 0
25.95 0.15 0
26.1 0.15 0
26.25 0.15 0
26.4 0.15 0
26.55 0.15 0
26.7 0.15 0
26.85 0.15 0
27 0.15 0
27.15 0.15 0
27.3 0.15 0
27.45 0.15 0
27.6 0.15 0
27.75 0.15 0
27.9 0.15 0
28.05 0.15 0
28.2 0.15 0
28.35 0.15 0
28.5 0.15 0
28.65 0.15 0
28.8 0.15 0
28.95 0.15 0
29.1 0.15 0
29.25 0.15 0
29.4 0.15 0
29.55 0.15 0
29.7 0.15 0
29.85 0.15 0
0 0.225 0
0.15 0.225 0
0.3 0.225 0
0.45 0.225 0
0.6 0.225 0
0.75 0.225 0
0.9 0.225 0
1.05 0.225 0
1.2 0.225 0
1.35 0.225 0
1.5 0.225 0
1.65 0.225 0
1.8 0.225 0
1.95 0.225 0
2.1 0.225 0
2.25 0.225 0
2.4 0.225 0
2.55 0.225 0
2.7 0.225 0
2.85 0.225 0
3 0.225 0
3.15 0.225 0
3.3 0.225 0
3.45 0.225 0
3.6 0.225 0
3.75 0.225 0
3.9 0.225 0
4.05 0.225 0
4.2 0.225 0
4.35 0.225 0
4.5 0.225 0
4.65 0.225 0
4.8 0.225 0
4.95 0.225 0
5.1 0.225 0
5.25 0.225 0
5.4 0.225 0
5.55 0.225 0
5.7 0.225 0
5.85 0.225 0
6 0.225 0
6.15 0.225 0
6.3 0.225 0
6.45 0.225 0
6.6 0.225 0
6.75 0.225 0
6.9 0.225 0
7.05 0.225 0
7.2 0.225 0
7.35 0.225 0
7.5 0.225 0
7.65 0.225 0
7.8 0.225 0
7.95 0.225 0
8.1 0.225 0
8.25 0.225 0
8.4 0.225 0
8.55 0.225 0
8.7 0.225 0
8.85 0.225 0
9 0.225 0
9.15 0.225 0
9.3 0.225 0
9.45 0.225 0
9.6 0.225 0
9.75 0.225 0
9.9 0.225 0
10.05 0.225 0
10.2 0.225 0
10.35 0.225 0
10.5 0.225 0
10.65 0.225 0
10.8 0.225 0
10.95 0.225 0
11.1 0.225 0
11.25 0.225 0
11.4 0.225 0
11.55 0.225 0
11.7 0.225 0
11.85 0.225 0
12 0.225 0
12.15 0.225 0
12.3 0.225 0
12.45 0.225 0
12.6 0.225 0
12.75 0.225 0
12.9 0.225 0
13.05 0.225 0
13.2 0.225 0
13.35 0.225 0
13.5 0.225 0
13.65 0.225 0
13.8 0.225 0
13.95 0.225 0
14.1 0.225 0
14.25 0.225 0
14.4 0.225 0
14.55 0.225 0
14.7 0.225 0
14.85 0.225 0
15 0.225 0
15.15 0.225 0
15.3 0.225 0
15.45 0.225 0
15.6 0.225 0
15.75 0.225 0
15.9 0.225 0
16.05 0.225 0
16.2 0.225 0
16.35 0.225 0
16.5 0.225 0
16.65 0.225 0
16.8 0.225 0
16.95 0.225 0
17.1 0.225 0
17.25 0.225 0
17.4 0.225 0
17.55 0.225 0
17.7 0.225 0
17.85 0.225 0
18 0.225 0
18.15 0.225 0
18.3 0.225 0
18.45 0.225 0
18.6 0.225 0
18.75 0.225 0
18.9 0.225 0
19.05 0.225 0
19.2 0.225 0
19.35 0.225 0
19.5 0.225 0
19.65 0.225 0
19.8 0.225 0
19.95 0.225 0
20.1 0.225 0
20.25 0.225 0
20.4 0.225 0
20.55 0.225 0
20.7 0.225 0
20.85 0.225 0
21 0.225 0
21.15 0.225 0
21.3 0.225 0
21.45 0.225 0
21.6 0.225 0
21.75 0.225 0
21.9 0.225 0
22.05 0.225 0
22.2 0.225 0
22.35 0.225 0
22.5 0.225 0
22.65 0.225 0
22.8 0.225 0
22.95 0.225 0
23.1 0.225 0
23.25 0.225 0
23.4 0.225 0
23.55 0.225 0
23.7 0.225 0
23.85 0.225 0
24 0.225 0
24.15 0.225 0
24.3 0.225 0
24.45 0.225 0
24.6 0.225 0
24.75 0.225 0
24.9 0.225 0
25.05 0.225 0
25.2 0.225 0
25.35 0.225 0
25.5 0.225 0
25.65 0.225 0
25.8 0.225 0
25.95 0.225 0
26.1 0.225 0
26.25 0.225 0
26.4 0.225 0
26.55 0.225 0
26.7 0.225 0
26.85 0.225 0
27 0.225 0
27.15 0.225 0
27.3 0.225 0
27.45 0.225 0
27.6 0.225 0
27.75 0.225 0
27.9 0.225 0
28.05 0.225 0
28.2 0.225 0
28.35 0.225 0
28.5 0.225 0
28.65 0.225 0
28.8 0.225 0
28.95 0.225 0
29.1 0.225 0
29.25 0.225 0
29.4 0.225 0
29.55 0.225 0
29.7 0.225 0
29.85 0.225 0
0 0.3 0
0.15 0.3 0
0.3 0.3 0
0.45 0.3 0
0.6 0.3 0
0.75 0.3 0
0.9 0.3 0
1.05 0.3 0
1.2 0.3 0
1.35 0.3 0
1.5 0.3 0
1.65 0.3 0
1.8 0.3 0
1.95 0.3 0
2.1 0.3 0
2.25 0.3 0
2.4 0.3 0
2.55 0.3 0
2.7 0.3 0
2.85 0.3 0
3 0.3 0
3.15 0.3 0
3.3 0.3 0
3.45 0.3 0
3.6 0.3 0
3.75 0.3 0
3.9 0.3 0
4.05 0.3 0
4.2 0.3 0
4.35 0.3 0
4.5 0.3 0
4.65 0.3 0
4.8 0.3 0
4.95 0.3 0
5.1 0.3 0
5.25 0.3 0
5.4 0.3 0
5.55 0.3 0
5.7 0.3 0
5.85 0.3 0
6 0.3 0
6.15 0.3 0
[...]
POINT_DATA 40000

SCALARS p float 1
LOOKUP_TABLE default
20183.88203
20183.88203
20183.82656
20183.79876
20183.78036
20183.7675
20183.76035
20183.76016
20183.76709
20183.77932
20183.79392
20183.80828
20183.82102
20183.83199
20183.84157
20183.84977
20183.8565
20183.86198
20183.86654
20183.86928
20183.86714
20183.85792
20183.82556
20183.76137
20183.82351
20184.28472
20184.15697
20183.76943
20183.511
20183.28348
20183.06166
20182.83824
20182.61094
20182.37903
20182.1422
20181.90027
20181.65303
20181.40026
20181.14159
20180.87561
20180.59616
20180.44561
20180.46415
20180.44785
20180.44226
20180.46818
20180.55957
20180.73893
20180.98849
20181.21775
20181.27765
20181.1154
20180.87747
20180.68699
20180.56186
20180.48828
20180.45185
20180.43431
20180.42442
20180.42722
20180.44542
20180.44967
20180.43922
20180.42725
20180.41383
20180.38942
20180.35298
20180.3075
20180.25098
20180.16552
20180.05169
20179.93314
20179.82201
20179.71786
20179.61956
20179.52949
20179.45225
20179.39257
20179.35385
20179.33827
20179.34727
20179.3818
20179.4424
20179.52929
20179.64228
20179.77965
20179.93753
20180.11048
20180.2931
20180.48155
20180.67353
20180.86834
20181.06544
20181.26463
20181.46545
20181.66835
20181.87356
20182.08077
20182.28964
20182.50039
20182.71317
20182.9253
20183.1343
20183.341
20183.54765
20183.74285
20183.86768
20183.86611
20183.77568
20183.65143
20183.54149
20183.45129
20183.31896
20183.11351
20182.89443
20182.81378
20182.77508
20182.72733
20182.69886
20182.6809
20182.65306
20182.60959
20182.55926
20182.51228
20182.47364
20182.44234
20182.41426
20182.38669
20182.35839
20182.32784
20182.29473
20182.26183
20182.23291
20182.20883
20182.18633
20182.16069
20182.1287
20182.08876
20182.04008
20181.98239
20181.91602
20181.842
20181.76189
20181.67756
20181.59099
20181.504
20181.41821
20181.33503
20181.25563
20181.18095
20181.11177
20181.04869
20180.99218
20180.94253
20180.89998
20180.86465
20180.83666
20180.81605
20180.80269
20180.79643
20180.79736
20180.80511
20180.81946
20180.84042
20180.86735
20180.90023
20180.93864
20180.98221
20181.03067
20181.0836
20181.14064
20181.20149
20181.26571
20181.33305
20181.40315
20181.4757
20181.55043
20181.62706
20181.70536
20181.78508
20181.86604
20181.94803
20182.0309
20182.11447
20182.19865
20182.28328
20182.36829
20182.45359
20182.53911
20182.62479
20182.71062
20182.79659
20182.88271
20182.96904
20183.05566
20183.14267
20183.23023
20183.31841
20183.40703
20183.40703
20183.88203
20183.88203
20183.82656
20183.79876
20183.78036
20183.7675
20183.76035
20183.76016
20183.76709
20183.77932
20183.79392
20183.80828
20183.82102
20183.83199
20183.84157
20183.84977
20183.8565
20183.86198
20183.86654
20183.86928
20183.86714
20183.85792
20183.82556
20183.76137
20183.82351
20184.28472
20184.15697
20183.76943
20183.511
20183.28348
20183.06166
20182.83824
20182.61094
20182.37903
20182.1422
20181.90027
20181.65303
20181.40026
20181.14159
20180.87561
20180.59616
20180.44561
20180.46415
20180.44785
20180.44226
20180.46818
20180.55957
20180.73893
20180.98849
20181.21775
20181.27765
20181.1154
20180.87747
20180.68699
20180.56186
20180.48828
20180.45185
20180.43431
20180.42442
20180.42722
20180.44542
20180.44967
20180.43922
20180.42725
20180.41383
20180.38942
20180.35298
20180.3075
20180.25098
20180.16552
20180.05169
20179.93314
20179.82201
20179.71786
20179.61956
20179.52949
20179.45225
20179.39257
20179.35385
20179.33827
20179.34727
20179.3818
20179.4424
20179.52929
20179.64228
20179.77965
20179.93753
20180.11048
20180.2931
20180.48155
20180.67353
20180.86834
20181.06544
20181.26463
20181.46545
20181.66835
20181.87356
20182.08077
20182.28964
20182.50039
20182.71317
20182.9253
20183.1343
20183.341
20183.54765
20183.74285
20183.86768
20183.86611
20183.77568
20183.65143
20183.54149
20183.45129
20183.31896
20183.11351
20182.89443
20182.81378
20182.77508
20182.72733
20182.69886
20182.6809
20182.65306
20182.60959
20182.55926
20182.51228
20182.47364
20182.44234
20182.41426
20182.38669
20182.35839
20182.32784
20182.29473
20182.26183
20182.23291
20182.20883
20182.18633
20182.16069
20182.1287
20182.08876
20182.04008
20181.98239
20181.91602
20181.842
20181.76189
20181.67756
20181.59099
20181.504
20181.41821
20181.33503
20181.25563
20181.18095
20181.11177
20181.04869
20180.99218
20180.94253
20180.89998
20180.86465
20180.83666
20180.81605
20180.80269
20180.79643
20180.79736
20180.80511
20180.81946
20180.84042
20180.86735
20180.90023
20180.93864
20180.98221
20181.03067
20181.0836
20181.14064
20181.20149
20181.26571
20181.33305
20181.40315
20181.4757
20181.55043
20181.62706
20181.70536
20181.78508
20181.86604
20181.94803
20182.0309
20182.11447
20182.19865
20182.28328
20182.36829
20182.45359
20182.53911
20182.62479
20182.71062
20182.79659
20182.88271
20182.96904
20183.05566
20183.14267
20183.23023
20183.31841
20183.40703
20183.40703
20183.84944
20183.84944
20183.81752
20183.79434
20183.77797
20183.76668
20183.76077
20183.76131
20183.76846
20183.78061
20183.79504
20183.80927
20183.8219
20183.8328
20183.8423
20183.85039
20183.85698
20183.86228
20183.86674
20183.86991
20183.86919
20183.85732
20183.80599
20183.71867
20183.72403
20184.04485
20184.00558
20183.7381
20183.50358
20183.28212
20183.06207
20182.83919
20182.61207
20182.38023
20182.14345
20181.90157
20181.65438
20181.40171
20181.14338
20180.87893
20180.60566
20180.48149
20180.46914
20180.44594
20180.43126
20180.4486
20180.53285
20180.70956
20180.96293
20181.19466
20181.25202
20181.08675
20180.84585
20180.65796
20180.54244
20180.48117
20180.45051
20180.4341
20180.42318
20180.42293
20180.44161
20180.44836
20180.43961
20180.42874
20180.41491
20180.38986
20180.35409
20180.30869
20180.25355
20180.17089
20180.05663
20179.93382
20179.81742
20179.70922
20179.60873
20179.51805
20179.44121
20179.38231
20179.34436
20179.32927
20179.33842
20179.3728
20179.43305
20179.51963
20179.63257
20179.77032
20179.92906
20180.10326
20180.28726
20180.47683
20180.66941
20180.86413
20181.06063
20181.25886
20181.45877
20181.66097
20181.86582
20182.07309
20182.28246
20182.49404
20182.70714
20182.91929
20183.12739
20183.33063
20183.53106
20183.72324
20183.85503
20183.85736
20183.76817
20183.64432
20183.52151
20183.41782
20183.28453
20183.07907
20182.88231
20182.81555
20182.7735
20182.72393
20182.69776
20182.68334
20182.65671
20182.61118
20182.55839
20182.51061
20182.47269
20182.44238
20182.41437
20182.38602
20182.35705
20182.32644
20182.29348
20182.26065
20182.23189
20182.20823
20182.18629
20182.16116
20182.1296
20182.09004
20182.04168
20181.98417
20181.91783
20181.84369
20181.76335
20181.67872
20181.5918
20181.50446
20181.41835
20181.33488
20181.25524
20181.18036
20181.11101
20181.04782
20180.99121
20180.94149
20180.89887
20180.86349
20180.83547
20180.81485
20180.80144
20180.79517
20180.79611
20180.80382
20180.81821
20180.83915
20180.86611
20180.89902
20180.93746
20180.98106
20181.02957
20181.08255
20181.13965
20181.20056
20181.26485
20181.33225
20181.40242
20181.47504
20181.54984
20181.62654
20181.70491
20181.7847
20181.86572
20181.94777
20182.03069
20182.11432
20182.19853
20182.28321
20182.36826
20182.45358
20182.53913
20182.62483
20182.71068
20182.79665
20182.88277
20182.96908
20183.05567
20183.14265
20183.23015
20183.31829
20183.40695
20183.40695
20183.8238
20183.8238
20183.80435
20183.78644
20183.77288
20183.76365
20183.75928
20183.76057
20183.76769
20183.77941
20183.79357
20183.80794
20183.82112
20183.83266
20183.84262
20183.85089
20183.85751
20183.86275
20183.86731
20183.87121
20183.87103
20183.85289
20183.7803
20183.68582
20183.66725
20183.8408
20183.85709
20183.69867
20183.49333
20183.28055
20183.06322
20182.84121
20182.61438
20182.38266
20182.14598
20181.90419
20181.6571
20181.40458
20181.14673
20180.88442
20180.61824
20180.50237
20180.47053
20180.43447
20180.40247
20180.4036
20180.47374
20180.64395
20180.90186
20181.13808
20181.18967
20181.01895
20180.77415
20180.59346
20180.49713
20180.45864
20180.44335
20180.43498
20180.42451
20180.42058
20180.43603
20180.44284
20180.43878
20180.4337
20180.41959
20180.39097
20180.35591
20180.3096
20180.24556
20180.15429
20180.03528
20179.90767
20179.78604
20179.67441
20179.57338
20179.48463
20179.41105
20179.35559
20179.3205
20179.30731
20179.31727
20179.35152
20179.41118
20179.49726
20179.61025
20179.74909
20179.91013
20180.08762
20180.27506
20180.46727
20180.66119
20180.85582
20181.05128
20181.24793
20181.44635
20181.64725
20181.85119
20182.05819
20182.26813
20182.48076
20182.69478
20182.90704
20183.11386
20183.3113
20183.49871
20183.67937
20183.81834
20183.8317
20183.74497
20183.62898
20183.49273
20183.35463
20183.20652
20183.01484
20182.84805
20182.78057
20182.74446
20182.71273
20182.69629
20182.68862
20182.66426
20182.61436
20182.55583
20182.50587
20182.4699
20182.44301
20182.4164
20182.38656
20182.35508
20182.32293
20182.28985
20182.25784
20182.23037
20182.20801
20182.18702
20182.16247
20182.13127
20182.09193
20182.0435
20181.98553
20181.91841
20181.84336
20181.76214
20181.67675
20181.58924
20181.50143
20181.41496
20181.33126
20181.25146
20181.17649
20181.1071
20181.04392
20180.98734
20180.93767
20180.89511
20180.8598
20180.83186
20180.81131
20180.79796
20180.7918
20180.79281
20180.80062
20180.81513
20180.83615
20180.86325
20180.89628
20180.93485
20180.9786
20181.02724
20181.08039
20181.13762
20181.19869
20181.26314
20181.33069
20181.40102
20181.47378
20181.54873
20181.62557
20181.70406
20181.78398
20181.86511
20181.94726
20182.03027
20182.11399
20182.19828
20182.28303
20182.36813
20182.45351
20182.53909
20182.62482
20182.71068
20182.79665
20182.88276
20182.96904
20183.05559
20183.14249
20183.22992
20183.318
20183.40675
20183.40675
20183.80318
20183.80318
20183.79079
20183.77727
20183.76633
20183.75896
20183.75587
20183.75769
20183.76453
20183.77552
20183.78904
20183.80333
20183.81706
20183.8296
20183.84065
20183.84994
20183.85734
20183.86303
20183.8679
20183.87235
20183.87142
20183.84745
20183.76506
20183.68591
20183.67446
20183.76026
20183.78179
20183.67113
20183.48583
20183.28041
20183.06563
20182.84447
20182.61792
20182.38634
20182.14979
20181.90813
20181.66118
20181.4088
20181.15127
20180.89036
20180.62487
20180.5041
20180.46031
20180.40922
20180.35612
20180.33378
20180.38084
20180.53664
20180.79401
20181.03458
20181.08136
20180.90781
20180.66614
20180.50221
20180.43236
20180.42272
20180.43225
20180.43986
20180.43324
20180.42543
20180.4309
20180.43329
20180.43669
20180.44138
20180.42772
20180.39283
20180.34836
20180.28947
20180.20921
20180.10461
20179.97987
20179.8503
20179.72804
20179.61755
20179.51991
20179.43628
20179.36844
20179.31825
20179.28729
20179.2768
20179.2879
20179.32201
20179.38084
20179.46608
20179.57888
20179.71882
20179.88262
20180.06417
20180.25593
20180.45149
20180.64739
20180.84254
20181.03749
20181.2329
20181.42969
20181.62885
20181.83103
20182.03669
20182.24585
20182.45841
20182.67338
20182.88592
20183.09172
20183.28396
20183.45663
20183.61361
20183.74847
20183.78406
20183.70068
20183.58991
20183.44786
20183.2724
20183.1029
20182.91899
20182.76747
20182.69934
20182.67868
20182.67741
20182.68559
20182.69272
20182.6733
20182.61764
20182.55012
20182.49569
20182.46237
20182.44194
20182.4192
20182.38813
20182.35257
20182.3171
20182.2832
20182.25263
20182.22768
20182.20761
20182.18799
20182.16401
20182.13283
20182.09299
20182.04351
20181.9841
20181.91544
20181.839
20181.75668
20181.67054
20181.58255
20181.49447
20181.40788
20181.32416
20181.24441
20181.16954
20181.1003
20181.03726
20180.98085
20180.93135
20180.88897
20180.85384
20180.82607
20180.80566
20180.79249
20180.78652
20180.78767
20180.79565
20180.81036
20180.83154
20180.85885
20180.89208
20180.93085
20180.97483
20181.02369
20181.07707
20181.13453
20181.19584
20181.26051
20181.32829
20181.39885
20181.47182
20181.54698
20181.62402
20181.70271
20181.78279
20181.86409
20181.9464
20182.02955
20182.11339
20182.19779
20182.28264
20182.36783
20182.45327
20182.53891
20182.62469
20182.71059
20182.79658
20182.88269
20182.96895
20183.05546
20183.14229
20183.22966
20183.31767
20183.40652
20183.40652
20183.78581
20183.78581
20183.77764
20183.76757
20183.75896
20183.7532
20183.7511
20183.75323
20183.75965
20183.76974
20183.78233
20183.79608
20183.8099
20183.82314
20183.83534
20183.84605
20183.85495
20183.86196
20183.86761
20183.87203
20183.86944
20183.84351
20183.76384
20183.70287
20183.70344
20183.75456
20183.7667
20183.66188
20183.48456
20183.28305
20183.06979
20182.84911
20182.62272
20182.39127
20182.15487
20181.9134
20181.66661
20181.41432
20181.15676
20180.89604
20180.6248
20180.48962
20180.43513
20180.36859
20180.29207
20180.23969
20180.25621
20180.39095
20180.64039
20180.88163
20180.92833
20180.75375
20180.52229
20180.38676
20180.35441
20180.37948
20180.41891
20180.44816
20180.45027
20180.43825
20180.42722
20180.42028
20180.43209
20180.447
20180.42997
20180.38232
20180.31936
20180.23984
20180.14164
20180.02629
20179.89957
20179.77265
20179.65453
20179.54914
20179.45766
20179.38087
20179.31975
20179.27538
20179.24887
20179.24118
20179.25334
20179.28706
20179.34463
20179.42847
20179.54055
20179.68123
20179.84767
20180.03341
20180.22974
20180.42894
20180.6272
20180.82358
20181.01888
20181.21391
20181.40963
20181.6072
20181.80741
20182.01088
20182.21761
20182.42735
20182.64061
20182.85292
20183.05758
20183.24661
20183.4112
20183.545
20183.6582
20183.70775
20183.63656
20183.524
20183.37552
20183.1672
20182.97289
20182.79327
20182.6511
20182.58246
20182.57263
20182.60346
20182.65027
20182.68359
20182.67505
20182.61573
20182.53828
20182.4772
20182.44626
20182.43499
20182.41919
20182.38832
20182.34859
20182.30898
20182.2738
20182.24498
20182.22332
20182.20628
20182.18839
20182.16479
20182.13293
20182.09157
20182.04008
20181.97859
20181.90814
20181.83035
20181.74719
20181.6606
20181.57242
20181.48433
20181.39784
20181.31428
20181.23473
20181.16007
20181.09106
20181.02826
20180.97209
20180.92283
20180.88069
20180.8458
20180.81826
20180.79807
20180.78512
20180.77938
20180.78073
20180.78895
20180.80391
20180.82531
20180.85288
20180.88638
20180.92541
20180.96968
20181.01884
20181.07249
20181.13026
20181.19189
20181.25683
20181.32494
20181.39578
20181.46903
20181.54447
20181.62177
20181.70071
20181.78103
20181.86255
20181.94505
20182.02839
20182.11239
20182.19695
20182.28193
20182.36724
20182.45279
20182.53853
20182.62439
20182.71036
20182.7964
20182.88255
20182.96882
20183.05534
20183.14215
20183.22949
20183.31743
20183.40632
20183.40632
20183.77058
20183.77058
20183.76504
20183.75762
20183.751
20183.74664
20183.74537
20183.7477
20183.7537
20183.76291
20183.77447
20183.78739
20183.80081
20183.81417
20183.82701
20183.83889
20183.84936
20183.85811
20183.86497
20183.86917
20183.86504
20183.84073
20183.7746
20183.73067
20183.7423
20183.78547
20183.78606
20183.66935
20183.49057
20183.28919
20183.07598
20182.85523
20182.62881
20182.39743
20182.16122
20181.91999
20181.67342
20181.42116
20181.16319
20180.90164
20180.6201
20180.46348
20180.39587
20180.31335
20180.21169
20180.12612
20180.10991
20180.22122
20180.45705
20180.69294
20180.74314
20180.57069
20180.35395
20180.25346
20180.26768
20180.33333
20180.40492
20180.45779
20180.47255
20180.45536
20180.42476
20180.40586
20180.42188
20180.43876
20180.4119
20180.34699
20180.2625
20180.16359
20180.05233
20179.93179
20179.80705
20179.68576
20179.5743
20179.47587
20179.39164
20179.32215
20179.26785
20179.22925
20179.20705
20179.20195
20179.21492
20179.24785
20179.30354
20179.38523
20179.49583
20179.63666
20179.8054
20179.99528
20180.19634
20180.39939
20180.60037
20180.79866
20180.99519
20181.19068
20181.38601
20181.5824
20181.7809
20181.9822
20182.18612
20182.39127
20182.59853
20182.80764
20183.00972
20183.19432
20183.35364
20183.477
20183.56574
20183.60719
20183.55705
20183.43923
20183.27069
20183.03653
20182.82262
20182.6445
20182.50828
20182.44137
20182.43599
20182.4888
20182.57675
20182.64716
20182.65833
20182.60246
20182.51807
20182.44924
20182.41952
20182.41925
20182.41326
20182.38442
20182.34153
20182.29836
20182.26221
20182.23548
20182.21747
20182.20364
20182.18734
20182.16363
20182.13031
20182.0867
20182.03277
20181.96917
20181.89716
20181.8184
20181.73472
20181.64795
20181.55978
20181.4718
20181.38548
20181.30213
20181.2228
20181.14837
20181.0796
20181.01707
20180.96116
20180.91218
20180.87032
20180.83571
20180.80844
20180.78851
20180.77582
20180.77035
20180.77196
20180.78044
20180.7957
20180.81738
20180.84526
20180.87909
20180.91843
20180.96305
20181.01258
20181.06656
20181.12472
20181.18672
20181.252
20181.32052
20181.39171
20181.46531
20181.54111
20181.61873
20181.69799
20181.77859
20181.86038
20181.94314
20182.02672
20182.11093
20182.19569
20182.28084
20182.36632
20182.45201
20182.53789
20182.62386
20182.70995
20182.79608
20182.88234
20182.96868
20183.05527
20183.1421
20183.22947
20183.31738
20183.40624
20183.40624
20183.75679
20183.75679
20183.75297
20183.74754
20183.74259
20183.73942
20183.73886
20183.74137
20183.74701
20183.75545
20183.76605
20183.77806
20183.79082
20183.80384
20183.81676
20183.8292
20183.84075
20183.85095
20183.85906
20183.86345
20183.85829
20183.83779
20183.79132
20183.76448
20183.78325
20183.82804
20183.82152
20183.68919
20183.50331
20183.29885
20183.08424
20182.86281
20182.63614
20182.40479
20182.16881
20181.92792
20181.68163
20181.42942
20181.17075
20180.90787
20180.61361
20180.43035
20180.34563
20180.24643
20180.11939
20180.00162
20179.95509
20180.04345
20180.26329
20180.49058
20180.54359
20180.3792
20180.18186
20180.11685
20180.17905
20180.2878
20180.39167
20180.46688
20180.49551
20180.47318
20180.42532
20180.39453
20180.40511
20180.41053
20180.36721
20180.28456
20180.1826
20180.07053
20179.95228
20179.83092
20179.71023
20179.59549
20179.4913
20179.40026
20179.32344
20179.2612
20179.21355
20179.18054
20179.16245
20179.15971
20179.17316
20179.20481
20179.25786
20179.33642
20179.4445
20179.58461
20179.75514
20179.94895
20180.15495
20180.3623
20180.56659
20180.76767
20180.96645
20181.16331
20181.35886
20181.55433
20181.75104
20181.95007
20182.1515
20182.35299
20182.55234
20182.75354
20182.9506
20183.12965
20183.28073
20183.39575
20183.46923
20183.49738
20183.46197
20183.3391
20183.14135
20182.88378
20182.65974
20182.48448
20182.35156
20182.28641
20182.28079
20182.34316
20182.46286
20182.57474
20182.61563
20182.57392
20182.48954
20182.41427
20182.38441
20182.39519
20182.40056
20182.37543
20182.33105
20182.28586
20182.24979
20182.22558
20182.21109
20182.19992
20182.18448
20182.15991
20182.12456
20182.07845
20182.02221
20181.95684
20181.88365
20181.80421
20181.72021
20181.63332
20181.54517
20181.45729
20181.3711
20181.28789
20181.20873
20181.13451
20181.06597
20181.0037
20180.94808
20180.8994
20180.85784
20180.82354
20180.79657
20180.77693
20180.76454
20180.75937
20180.76127
20180.77008
20180.78566
20180.80767
20180.83592
20180.8701
20180.90983
20180.95487
20181.00481
20181.05921
20181.11783
20181.18024
20181.24596
20181.31495
20181.38655
20181.46059
20181.53681
20181.61483
20181.69446
20181.77541
20181.85755
20181.94062
20182.02449
20182.10896
20182.19396
20182.27933
20182.36502
20182.45089
20182.53695
20182.62308
20182.70933
20182.79561
20182.88201
20182.96848
20183.05521
20183.14215
20183.22961
20183.31753
20183.40636
20183.40636
20183.74398
20183.74398
20183.74133
20183.73741
20183.73381
20183.73165
20183.7317
20183.73436
20183.73972
20183.74753
20183.75731
20183.76847
20183.78048
20183.79295
20183.80556
20183.81803
20183.83004
20183.84108
20183.85013
20183.85531
20183.85025
20183.83595
20183.80825
20183.79758
20183.82345
20183.87208
20183.86228
20183.71706
20183.52138
20183.31158
20183.09437
20182.87174
20182.64463
20182.41331
20182.17764
20181.93719
20181.69132
20181.43924
20181.17974
20180.91563
20180.60818
20180.39472
20180.28856
20180.17229
20180.02177
20179.87585
20179.80364
20179.87075
20180.0737
20180.29259
20180.34925
20180.20097
20180.02739
20179.99401
20180.09827
20180.24729
20180.38114
20180.47527
20180.51456
20180.48929
20180.43059
20180.38889
20180.38221
20180.36363
20180.30008
20180.20242
20180.089
20179.96966
20179.8486
20179.72847
20179.61218
20179.50371
20179.40654
20179.32278
20179.25331