# vtk DataFile Version 2.0
FlowField
ASCII
DATASET STRUCTURED_GRID
DIMENSIONS 200 1 200
POINTS 40000 float
0 0 0
0.15 0 0
0.3 0 0
0.45 0 0
0.6 0 0
0.75 0 0
0.9 0 0
1.05 0 0
1.2 0 0
1.35 0 0
1.5 0 0
1.65 0 0
1.8 0 0
1.95 0 0
2.1 0 0
2.25 0 0
2.4 0 0
2.55 0 0
2.7 0 0
2.85 0 0
3 0 0
3.15 0 0
3.3 0 0
3.45 0 0
3.6 0 0
3.75 0 0
3.9 0 0
4.05 0 0
4.2 0 0
4.35 0 0
4.5 0 0
4.65 0 0
4.8 0 0
4.95 0 0
5.1 0 0
5.25 0 0
5.4 0 0
5.55 0 0
5.7 0 0
5.85 0 0
6 0 0
6.15 0 0
6.3 0 0
6.45 0 0
6.6 0 0
6.75 0 0
6.9 0 0
7.05 0 0
7.2 0 0
7.35 0 0
7.5 0 0
7.65 0 0
7.8 0 0
7.95 0 0
8.1 0 0
8.25 0 0
8.4 0 0
8.55 0 0
8.7 0 0
8.85 0 0
9 0 0
9.15 0 0
9.3 0 0
9.45 0 0
9.6 0 0
9.75 0 0
9.9 0 0
10.05 0 0
10.2 0 0
10.35 0 0
10.5 0 0
10.65 0 0
10.8 0 0
10.95 0 0
11.1 0 0
11.25 0 0
11.4 0 0
11.55 0 0
11.7 0 0
11.85 0 0
12 0 0
12.15 0 0
12.3 0 0
12.45 0 0
12.6 0 0
12.75 0 0
12.9 0 0
13.05 0 0
13.2 0 0
13.35 0 0
13.5 0 0
13.65 0 0
13.8 0 0
13.95 0 0
14.1 0 0
14.25 0 0
14.4 0 0
14.55 0 0
14.7 0 0
14.85 0 0
15 0 0
15.15 0 0
15.3 0 0
15.45 0 0
15.6 0 0
15.75 0 0
15.9 0 0
16.05 0 0
16.2 0 0
16.35 0 0
16.5 0 0
16.65 0 0
16.8 0 0
16.95 0 0
17.1 0 0
17.25 0 0
17.4 0 0
17.55 0 0
17.7 0 0
17.85 0 0
18 0 0
18.15 0 0
18.3 0 0
18.45 0 0
18.6 0 0
18.75 0 0
18.9 0 0
19.05 0 0
19.2 0 0
19.35 0 0
19.5 0 0
19.65 0 0
19.8 0 0
19.95 0 0
20.1 0 0
20.25 0 0
20.4 0 0
20.55 0 0
20.7 0 0
20.85 0 0
21 0 0
21.15 0 0
21.3 0 0
21.45 0 0
21.6 0 0
21.75 0 0
21.9 0 0
22.05 0 0
22.2 0 0
22.35 0 0
22.5 0 0
22.65 0 0
22.8 0 0
22.95 0 0
23.1 0 0
23.25 0 0
23.4 0 0
23.55 0 0
23.7 0 0
23.85 0 0
24 0 0
24.15 0 0
24.3 0 0
24.45 0 0
24.6 0 0
24.75 0 0
24.9 0 0
25.05 0 0
25.2 0 0
25.35 0 0
25.5 0 0
25.65 0 0
25.8 0 0
25.95 0 0
26.1 0 0
26.25 0 0
26.4 0 0
26.55 0 0
26.7 0 0
26.85 0 0
27 0 0
27.15 0 0
27.3 0 0
27.45 0 0
27.6 0 0
27.75 0 0
27.9 0 0
28.05 0 0
28.2 0 0
28.35 0 0
28.5 0 0
28.65 0 0
28.8 0 0
28.95 0 0
29.1 0 0
29.25 0 0
29.4 0 0
29.55 0 0
29.7 0 0
29.85 0 0
0 0.075 0
0.15 0.075 0
0.3 0.075 0
0.45 0.075 0
0.6 0.075 0
0.75 0.075 0
0.9 0.075 0
1.05 0.075 0
1.2 0.075 0
1.35 0.075 0
1.5 0.075 0
1.65 0.075 0
1.8 0.075 0
1.95 0.075 0
2.1 0.075 0
2.25 0.075 0
2.4 0.075 0
2.55 0.075 0
2.7 0.075 0
2.85 0.075 0
3 0.075 0
3.15 0.075 0
3.3 0.075 0
3.45 0.075 0
3.6 0.075 0
3.75 0.075 0
3.9 0.075 0
4.05 0.075 0
4.2 0.075 0
4.35 0.075 0
4.5 0.075 0
4.65 0.075 0
4.8 0.075 0
4.95 0.075 0
5.1 0.075 0
5.25 0.075 0
5.4 0.075 0
5.55 0.075 0
5.7 0.075 0
5.85 0.075 0
6 0.075 0
6.15 0.075 0
6.3 0.075 0
6.45 0.075 0
6.6 0.075 0
6.75 0.075 0
6.9 0.075 0
7.05 0.075 0
7.2 0.075 0
7.35 0.075 0
7.5 0.075 0
7.65 0.075 0
7.8 0.075 0
7.95 0.075 0
8.1 0.075 0
8.25 0.075 0
8.4 0.075 0
8.55 0.075 0
8.7 0.075 0
8.85 0.075 0
9 0.075 0
9.15 0.075 0
9.3 0.075 0
9.45 0.075 0
9.6 0.075 0
9.75 0.075 0
9.9 0.075 0
10.05 0.075 0
10.2 0.075 0
10.35 0.075 0
10.5 0.075 0
10.65 0.075 0
10.8 0.075 0
10.95 0.075 0
11.1 0.075 0
11.25 0.075 0
11.4 0.075 0
11.55 0.075 0
11.7 0.075 0
11.85 0.075 0
12 0.075 0
12.15 0.075 0
12.3 0.075 0
12.45 0.075 0
12.6 0.075 0
12.75 0.075 0
12.9 0.075 0
13.05 0.075 0
13.2 0.075 0
13.35 0.075 0
13.5 0.075 0
13.65 0.075 0
13.8 0.075 0
13.95 0.075 0
14.1 0.075 0
14.25 0.075 0
14.4 0.075 0
14.55 0.075 0
14.7 0.075 0
14.85 0.075 0
15 0.075 0
15.15 0.075 0
15.3 0.075 0
15.45 0.075 0
15.6 0.075 0
15.75 0.075 0
15.9 0.075 0
16.05 0.075 0
16.2 0.075 0
16.35 0.075 0
16.5 0.075 0
16.65 0.075 0
16.8 0.075 0
16.95 0.075 0
17.1 0.075 0
17.25 0.075 0
17.4 0.075 0
17.55 0.075 0
17.7 0.075 0
17.85 0.075 0
18 0.075 0
18.15 0.075 0
18.3 0.075 0
18.45 0.075 0
18.6 0.075 0
18.75 0.075 0
18.9 0.075 0
19.05 0.075 0
19.2 0.075 0
19.35 0.075 0
19.5 0.075 0
19.65 0.075 0
19.8 0.075 0
19.95 0.075 0
20.1 0.075 0
20.25 0.075 0
20.4 0.075 0
20.55 0.075 0
20.7 0.075 0
20.85 0.075 0
21 0.075 0
21.15 0.075 0
21.3 0.075 0
21.45 0.075 0
21.6 0.075 0
21.75 0.075 0
21.9 0.075 0
22.05 0.075 0
22.2 0.075 0
22.35 0.075 0
22.5 0.075 0
22.65 0.075 0
22.8 0.075 0
22.95 0.075 0
23.1 0.075 0
23.25 0.075 0
23.4 0.075 0
23.55 0.075 0
23.7 0.075 0
23.85 0.075 0
24 0.075 0
24.15 0.075 0
24.3 0.075 0
24.45 0.075 0
24.6 0.075 0
24.75 0.075 0
24.9 0.075 0
25.05 0.075 0
25.2 0.075 0
25.35 0.075 0
25.5 0.075 0
25.65 0.075 0
25.8 0.075 0
25.95 0.075 0
26.1 0.075 0
26.25 0.075 0
26.4 0.075 0
26.55 0.075 0
26.7 0.075 0
26.85 0.075 0
27 0.075 0
27.15 0.075 0
27.3 0.075 0
27.45 0.075 0
27.6 0.075 0
27.75 0.075 0
27.9 0.075 0
28.05 0.075 0
28.2 0.075 0
28.35 0.075 0
28.5 0.075 0
28.65 0.075 0
28.8 0.075 0
28.95 0.075 0
29.1 0.075 0
29.25 0.075 0
29.4 0.075 0
29.55 0.075 0
29.7 0.075 0
29.85 0.075 0
0 0.15 0
0.15 0.15 0
0.3 0.15 0
0.45 0.15 0
0.6 0.15 0
0.75 0.15 0
0.9 0.15 0
1.05 0.15 0
1.2 0.15 0
1.35 0.15 0
1.5 0.15 0
1.65 0.15 0
1.8 0.15 0
1.95 0.15 0
2.1 0.15 0
2.25 0.15 0
2.4 0.15 0
2.55 0.15 0
2.7 0.15 0
2.85 0.15 0
3 0.15 0
3.15 0.15 0
3.3 0.15 0
3.45 0.15 0
3.6 0.15 0
3.75 0.15 0
3.9 0.15 0
4.05 0.15 0
4.2 0.15 0
4.35 0.15 0
4.5 0.15 0
4.65 0.15 0
4.8 0.15 0
4.95 0.15 0
5.1 0.15 0
5.25 0.15 0
5.4 0.15 0
5.55 0.15 0
5.7 0.15 0
5.85 0.15 0
6 0.15 0
6.15 0.15 0
6.3 0.15 0
6.45 0.15 0
6.6 0.15 0
6.75 0.15 0
6.9 0.15 0
7.05 0.15 0
7.2 0.15 0
7.35 0.15 0
7.5 0.15 0
7.65 0.15 0
7.8 0.15 0
7.95 0.15 0
8.1 0.15 0
8.25 0.15 0
8.4 0.15 0
8.55 0.15 0
8.7 0.15 0
8.85 0.15 0
9 0.15 0
9.15 0.15 0
9.3 0.15 0
9.45 0.15 0
9.6 0.15 0
9.75 0.15 0
9.9 0.15 0
10.05 0.15 0
10.2 0.15 0
10.35 0.15 0
10.5 0.15 0
10.65 0.15 0
10.8 0.15 0
10.95 0.15 0
11.1 0.15 0
11.25 0.15 0
11.4 0.15 0
11.55 0.15 0
11.7 0.15 0
11.85 0.15 0
12 0.15 0
12.15 0.15 0
12.3 0.15 0
12.45 0.15 0
12.6 0.15 0
12.75 0.15 0
12.9 0.15 0
13.05 0.15 0
13.2 0.15 0
13.35 0.15 0
13.5 0.15 0
13.65 0.15 0
13.8 0.15 0
13.95 0.15 0
14.1 0.15 0
14.25 0.15 0
14.4 0.15 0
14.55 0.15 0
14.7 0.15 0
14.85 0.15 0
15 0.15 0
15.15 0.15 0
15.3 0.15 0
15.45 0.15 0
15.6 0.15 0
15.75 0.15 0
15.9 0.15 0
16.05 0.15 0
16.2 0.15 0
16.35 0.15 0
16.5 0.15 0
16.65 0.15 0
16.8 0.15 0
16.95 0.15 0
17.1 0.15 0
17.25 0.15 0
17.4 0.15 0
17.55 0.15 0
17.7 0.15 0
17.85 0.15 0
18 0.15 0
18.15 0.15 0
18.3 0.15 0
18.45 0.15 0
18.6 0.15 0
18.75 0.15 0
18.9 0.15 0
19.05 0.15 0
19.2 0.15 0
19.35 0.15 0
19.5 0.15 0
19.65 0.15 0
19.8 0.15 0
19.95 0.15 0
20.1 0.15 0
20.25 0.15 0
20.4 0.15 0
20.55 0.15 0
20.7 0.15 0
20.85 0.15 0
21 0.15 0
21.15 0.15 0
21.3 0.15 0
21.45 0.15 0
21.6 0.15 0
21.75 0.15 0
21.9 0.15 0
22.05 0.15 0
22.2 0.15 0
22.35 0.15 0
22.5 0.15 0
22.65 0.15 0
22.8 0.15 0
22.95 0.15 0
23.1 0.15 0
23.25 0.15 0
23.4 0.15 0
23.55 0.15 0
23.7 0.15 0
23.85 0.15 0
24 0.15 0
24.15 0.15 0
24.3 0.15 0
24.45 0.15 0
24.6 0.15 0
24.75 0.15 0
24.9 0.15 0
25.05 0.15 0
25.2 0.15 0
25.35 0.15 0
25.5 0.15 0
25.65 0.15 0
25.8 0.15 0
25.95 0.15 0
26.1 0.15 0
26.25 0.15 0
26.4 0.15 0
26.55 0.15 0
26.7 0.15 0
26.85 0.15 0
27 0.15 0
27.15 0.15 0
27.3 0.15 0
27.45 0.15 0
27.6 0.15 0
27.75 0.15 0
27.9 0.15 0
28.05 0.15 0
28.2 0.15 0
28.35 0.15 0
28.5 0.15 0
28.65 0.15 0
28.8 0.15 0
28.95 0.15 0
29.1 0.15 0
29.25 0.15 0
29.4 0.15 0
29.55 0.15 0
29.7 0.15 0
29.85 0.15 0
0 0.225 0
0.15 0.225 0
0.3 0.225 0
0.45 0.225 0
0.6 0.225 0
0.75 0.225 0
0.9 0.225 0
1.05 0.225 0
1.2 0.225 0
1.35 0.225 0
1.5 0.225 0
1.65 0.225 0
1.8 0.225 0
1.95 0.225 0
2.1 0.225 0
2.25 0.225 0
2.4 0.225 0
2.55 0.225 0
2.7 0.225 0
2.85 0.225 0
3 0.225 0
3.15 0.225 0
3.3 0.225 0
3.45 0.225 0
3.6 0.225 0
3.75 0.225 0
3.9 0.225 0
4.05 0.225 0
4.2 0.225 0
4.35 0.225 0
4.5 0.225 0
4.65 0.225 0
4.8 0.225 0
4.95 0.225 0
5.1 0.225 0
5.25 0.225 0
5.4 0.225 0
5.55 0.225 0
5.7 0.225 0
5.85 0.225 0
6 0.225 0
6.15 0.225 0
6.3 0.225 0
6.45 0.225 0
6.6 0.225 0
6.75 0.225 0
6.9 0.225 0
7.05 0.225 0
7.2 0.225 0
7.35 0.225 0
7.5 0.225 0
7.65 0.225 0
7.8 0.225 0
7.95 0.225 0
8.1 0.225 0
8.25 0.225 0
8.4 0.225 0
8.55 0.225 0
8.7 0.225 0
8.85 0.225 0
9 0.225 0
9.15 0.225 0
9.3 0.225 0
9.45 0.225 0
9.6 0.225 0
9.75 0.225 0
9.9 0.225 0
10.05 0.225 0
10.2 0.225 0
10.35 0.225 0
10.5 0.225 0
10.65 0.225 0
10.8 0.225 0
10.95 0.225 0
11.1 0.225 0
11.25 0.225 0
11.4 0.225 0
11.55 0.225 0
11.7 0.225 0
11.85 0.225 0
12 0.225 0
12.15 0.225 0
12.3 0.225 0
12.45 0.225 0
12.6 0.225 0
12.75 0.225 0
12.9 0.225 0
13.05 0.225 0
13.2 0.225 0
13.35 0.225 0
13.5 0.225 0
13.65 0.225 0
13.8 0.225 0
13.95 0.225 0
14.1 0.225 0
14.25 0.225 0
14.4 0.225 0
14.55 0.225 0
14.7 0.225 0
14.85 0.225 0
15 0.225 0
15.15 0.225 0
15.3 0.225 0
15.45 0.225 0
15.6 0.225 0
15.75 0.225 0
15.9 0.225 0
16.05 0.225 0
16.2 0.225 0
16.35 0.225 0
16.5 0.225 0
16.65 0.225 0
16.8 0.225 0
16.95 0.225 0
17.1 0.225 0
17.25 0.225 0
17.4 0.225 0
17.55 0.225 0
17.7 0.225 0
17.85 0.225 0
18 0.225 0
18.15 0.225 0
18.3 0.225 0
18.45 0.225 0
18.6 0.225 0
18.75 0.225 0
18.9 0.225 0
19.05 0.225 0
19.2 0.225 0
19.35 0.225 0
19.5 0.225 0
19.65 0.225 0
19.8 0.225 0
19.95 0.225 0
20.1 0.225 0
20.25 0.225 0
20.4 0.225 0
20.55 0.225 0
20.7 0.225 0
20.85 0.225 0
21 0.225 0
21.15 0.225 0
21.3 0.225 0
21.45 0.225 0
21.6 0.225 0
21.75 0.225 0
21.9 0.225 0
22.05 0.225 0
22.2 0.225 0
22.35 0.225 0
22.5 0.225 0
22.65 0.225 0
22.8 0.225 0
22.95 0.225 0
23.1 0.225 0
23.25 0.225 0
23.4 0.225 0
23.55 0.225 0
23.7 0.225 0
23.85 0.225 0
24 0.225 0
24.15 0.225 0
24.3 0.225 0
24.45 0.225 0
24.6 0.225 0
24.75 0.225 0
24.9 0.225 0
25.05 0.225 0
25.2 0.225 0
25.35 0.225 0
25.5 0.225 0
25.65 0.225 0
25.8 0.225 0
25.95 0.225 0
26.1 0.225 0
26.25 0.225 0
26.4 0.225 0
26.55 0.225 0
26.7 0.225 0
26.85 0.225 0
27 0.225 0
27.15 0.225 0
27.3 0.225 0
27.45 0.225 0
27.6 0.225 0
27.75 0.225 0
27.9 0.225 0
28.05 0.225 0
28.2 0.225 0
28.35 0.225 0
28.5 0.225 0
28.65 0.225 0
28.8 0.225 0
28.95 0.225 0
29.1 0.225 0
29.25 0.225 0
29.4 0.225 0
29.55 0.225 0
29.7 0.225 0
29.85 0.225 0
0 0.3 0
0.15 0.3 0
0.3 0.3 0
0.45 0.3 0
0.6 0.3 0
0.75 0.3 0
0.9 0.3 0
1.05 0.3 0
1.2 0.3 0
1.35 0.3 0
1.5 0.3 0
1.65 0.3 0
1.8 0.3 0
1.95 0.3 0
2.1 0.3 0
2.25 0.3 0
2.4 0.3 0
2.55 0.3 0
2.7 0.3 0
2.85 0.3 0
3 0.3 0
3.15 0.3 0
3.3 0.3 0
3.45 0.3 0
3.6 0.3 0
3.75 0.3 0
3.9 0.3 0
4.05 0.3 0
4.2 0.3 0
4.35 0.3 0
4.5 0.3 0
4.65 0.3 0
4.8 0.3 0
4.95 0.3 0
5.1 0.3 0
5.25 0.3 0
5.4 0.3 0
5.55 0.3 0
5.7 0.3 0
5.85 0.3 0
6 0.3 0
6.15 0.3 0
[...]
POINT_DATA 40000

SCALARS p float 1
LOOKUP_TABLE default
20183.1832
20183.1832
20183.12781
20183.10014
20183.08191
20183.06926
20183.06239
20183.06255
20183.06988
20183.08253
20183.0976
20183.11252
20183.12592
20183.13759
20183.14786
20183.15678
20183.16425
20183.17044
20183.17561
20183.17886
20183.17712
20183.16801
20183.13711
20183.07914
20183.14579
20183.57446
20183.45584
20183.09085
20182.8458
20182.62996
20182.41999
20182.20916
20181.99548
20181.77828
20181.55721
20181.33168
20181.10058
20180.86174
20180.61103
20180.34081
20180.03982
20179.87862
20179.9633
20179.87494
20179.79145
20179.73146
20179.66235
20179.58132
20179.51118
20179.42134
20179.3197
20179.26714
20179.31009
20179.46514
20179.72282
20180.04909
20180.38224
20180.63847
20180.71664
20180.55221
20180.34368
20180.22089
20180.10646
20179.96401
20179.84315
20179.68171
20179.59537
20179.59659
20179.60092
20179.56545
20179.48362
20179.40702
20179.45581
20179.5975
20179.65215
20179.62393
20179.57737
20179.5403
20179.51846
20179.50913
20179.50252
20179.49209
20179.47678
20179.44766
20179.40714
20179.35792
20179.22807
20179.08745
20178.99517
20178.90346
20178.78922
20178.66851
20178.56434
20178.49272
20178.46172
20178.47375
20178.5278
20178.62094
20178.74917
20178.90791
20179.09237
20179.29776
20179.51936
20179.75268
20179.99353
20180.23812
20180.48319
20180.726
20180.96429
20181.19616
20181.41998
20181.63423
20181.8372
20182.02692
20182.20118
20182.35749
20182.4934
20182.60679
20182.69615
20182.76091
20182.80151
20182.81934
20182.81665
20182.79629
20182.76141
20182.71514
20182.6604
20182.59979
20182.5356
20182.46983
20182.4041
20182.3396
20182.27706
20182.21688
20182.15939
20182.10493
20182.0539
20182.00659
20181.9631
20181.92333
20181.88706
20181.85404
20181.82403
20181.79672
20181.77166
20181.74826
20181.72607
20181.70502
20181.68534
20181.66726
20181.6507
20181.63528
20181.62052
20181.60612
20181.59191
20181.57773
20181.56342
20181.54893
20181.53426
20181.51934
20181.50394
20181.4877
20181.4704
20181.45205
20181.43294
20181.41363
20181.39482
20181.37721
20181.36143
20181.34793
20181.33697
20181.32865
20181.32293
20181.31962
20181.31843
20181.31896
20181.3207
20181.32312
20181.3257
20181.32796
20181.32955
20181.33021
20181.32979
20181.32822
20181.32553
20181.32175
20181.31696
20181.31125
20181.30471
20181.29742
20181.28946
20181.28091
20181.27182
20181.26229
20181.25236
20181.24213
20181.23164
20181.22104
20181.21035
20181.21035
20183.1832
20183.1832
20183.12781
20183.10014
20183.08191
20183.06926
20183.06239
20183.06255
20183.06988
20183.08253
20183.0976
20183.11252
20183.12592
20183.13759
20183.14786
20183.15678
20183.16425
20183.17044
20183.17561
20183.17886
20183.17712
20183.16801
20183.13711
20183.07914
20183.14579
20183.57446
20183.45584
20183.09085
20182.8458
20182.62996
20182.41999
20182.20916
20181.99548
20181.77828
20181.55721
20181.33168
20181.10058
20180.86174
20180.61103
20180.34081
20180.03982
20179.87862
20179.9633
20179.87494
20179.79145
20179.73146
20179.66235
20179.58132
20179.51118
20179.42134
20179.3197
20179.26714
20179.31009
20179.46514
20179.72282
20180.04909
20180.38224
20180.63847
20180.71664
20180.55221
20180.34368
20180.22089
20180.10646
20179.96401
20179.84315
20179.68171
20179.59537
20179.59659
20179.60092
20179.56545
20179.48362
20179.40702
20179.45581
20179.5975
20179.65215
20179.62393
20179.57737
20179.5403
20179.51846
20179.50913
20179.50252
20179.49209
20179.47678
20179.44766
20179.40714
20179.35792
20179.22807
20179.08745
20178.99517
20178.90346
20178.78922
20178.66851
20178.56434
20178.49272
20178.46172
20178.47375
20178.5278
20178.62094
20178.74917
20178.90791
20179.09237
20179.29776
20179.51936
20179.75268
20179.99353
20180.23812
20180.48319
20180.726
20180.96429
20181.19616
20181.41998
20181.63423
20181.8372
20182.02692
20182.20118
20182.35749
20182.4934
20182.60679
20182.69615
20182.76091
20182.80151
20182.81934
20182.81665
20182.79629
20182.76141
20182.71514
20182.6604
20182.59979
20182.5356
20182.46983
20182.4041
20182.3396
20182.27706
20182.21688
20182.15939
20182.10493
20182.0539
20182.00659
20181.9631
20181.92333
20181.88706
20181.85404
20181.82403
20181.79672
20181.77166
20181.74826
20181.72607
20181.70502
20181.68534
20181.66726
20181.6507
20181.63528
20181.62052
20181.60612
20181.59191
20181.57773
20181.56342
20181.54893
20181.53426
20181.51934
20181.50394
20181.4877
20181.4704
20181.45205
20181.43294
20181.41363
20181.39482
20181.37721
20181.36143
20181.34793
20181.33697
20181.32865
20181.32293
20181.31962
20181.31843
20181.31896
20181.3207
20181.32312
20181.3257
20181.32796
20181.32955
20181.33021
20181.32979
20181.32822
20181.32553
20181.32175
20181.31696
20181.31125
20181.30471
20181.29742
20181.28946
20181.28091
20181.27182
20181.26229
20181.25236
20181.24213
20181.23164
20181.22104
20181.21035
20181.21035
20183.15059
20183.15059
20183.11874
20183.09568
20183.07949
20183.06842
20183.06278
20183.06368
20183.07122
20183.08379
20183.0987
20183.11349
20183.1268
20183.1384
20183.1486
20183.15742
20183.16474
20183.17077
20183.17588
20183.1796
20183.17937
20183.16797
20183.11876
20183.03807
20183.05267
20183.35614
20183.31693
20183.06172
20182.83878
20182.62856
20182.4202
20182.20986
20181.99634
20181.77923
20181.5583
20181.33304
20181.10247
20180.86465
20180.61581
20180.34829
20180.04301
20179.88486
20179.92265
20179.86069
20179.78628
20179.73231
20179.66783
20179.57905
20179.48725
20179.38238
20179.27795
20179.22737
20179.2717
20179.42587
20179.68054
20180.00238
20180.33007
20180.57931
20180.64525
20180.49274
20180.30754
20180.22057
20180.10107
20179.91213
20179.77236
20179.63999
20179.59061
20179.59741
20179.60746
20179.57309
20179.47252
20179.36834
20179.4072
20179.56776
20179.64373
20179.62028
20179.57467
20179.53915
20179.51785
20179.50864
20179.50221
20179.49155
20179.47679
20179.44977
20179.40541
20179.36289
20179.24226
20179.0917
20178.98161
20178.87776
20178.75947
20178.63983
20178.53886
20178.47085
20178.44312
20178.45788
20178.51413
20178.60903
20178.73867
20178.89857
20179.08401
20179.29023
20179.51257
20179.74654
20179.98796
20180.23303
20180.47846
20180.72153
20180.95996
20181.19186
20181.41566
20181.62984
20181.83275
20182.02245
20182.19673
20182.35311
20182.48912
20182.6026
20182.69203
20182.75684
20182.79745
20182.81529
20182.81261
20182.79228
20182.75747
20182.71134
20182.6568
20182.59643
20182.5325
20182.467
20182.40157
20182.3374
20182.27521
20182.21539
20182.15823
20182.10409
20182.05334
20182.00628
20181.963
20181.92338
20181.88721
20181.85424
20181.82427
20181.79701
20181.77202
20181.74868
20181.72649
20181.70539
20181.68565
20181.66755
20181.65102
20181.63564
20181.62092
20181.60653
20181.59232
20181.57813
20181.56381
20181.54929
20181.53461
20181.51973
20181.50438
20181.4882
20181.47092
20181.45252
20181.43332
20181.41388
20181.39491
20181.37717
20181.36127
20181.34767
20181.33665
20181.32829
20181.32254
20181.31924
20181.31808
20181.31865
20181.32047
20181.32297
20181.32562
20181.32796
20181.3296
20181.33029
20181.32989
20181.32833
20181.32564
20181.32185
20181.31706
20181.31134
20181.30479
20181.29749
20181.28951
20181.28095
20181.27186
20181.26232
20181.25237
20181.24213
20181.23163
20181.22101
20181.21032
20181.21032
20183.1249
20183.1249
20183.10552
20183.08773
20183.07434
20183.06534
20183.06125
20183.06289
20183.0704
20183.08255
20183.09718
20183.11212
20183.12595
20183.13821
20183.14888
20183.15789
20183.16527
20183.17127
20183.17651
20183.18097
20183.18141
20183.16423
20183.09417
20183.00518
20182.99549
20183.16432
20183.17787
20183.02462
20182.82896
20182.62682
20182.42095
20182.21137
20181.99809
20181.78115
20181.56047
20181.33574
20181.1062
20180.87037
20180.62532
20180.36485
20180.06787
20179.91219
20179.91997
20179.86211
20179.78551
20179.73017
20179.65638
20179.54649
20179.42218
20179.29574
20179.18854
20179.14218
20179.18906
20179.34136
20179.59017
20179.90374
20180.22333
20180.4646
20180.52698
20180.39681
20180.26022
20180.21143
20180.07632
20179.82713
20179.66152
20179.56199
20179.54726
20179.58273
20179.61242
20179.57339
20179.43752
20179.28885
20179.31188
20179.50187
20179.6162
20179.60491
20179.56453
20179.53599
20179.51899
20179.51033
20179.50301
20179.49221
20179.47672
20179.455
20179.40573
20179.3396
20179.21387
20179.05742
20178.92672
20178.80734
20178.68649
20178.57273
20178.48068
20178.4216
20178.40163
20178.42274
20178.48409
20178.58306
20178.71599
20178.87861
20179.06634
20179.27454
20179.49859
20179.73407
20179.97678
20180.22292
20180.46919
20180.71282
20180.95155
20181.18355
20181.40731
20181.62138
20181.8242
20182.0139
20182.18827
20182.34483
20182.48106
20182.59472
20182.68427
20182.7491
20182.78966
20182.80739
20182.80459
20182.78417
20182.74935
20182.70333
20182.64902
20182.58895
20182.52537
20182.46025
20182.39526
20182.33159
20182.26996
20182.21074
20182.15419
20182.10065
20182.05048
20182.00396
20181.96112
20181.92184
20181.88591
20181.85311
20181.82327
20181.79617
20181.77134
20181.74816
20181.7261
20181.70509
20181.68541
20181.66738
20181.65095
20181.63571
20181.6211
20181.60679
20181.59263
20181.57845
20181.56409
20181.54954
20181.53486
20181.52003
20181.50477
20181.48865
20181.47138
20181.4529
20181.43355
20181.4139
20181.39472
20181.37679
20181.36075
20181.34706
20181.33599
20181.32762
20181.3219
20181.31864
20181.31757
20181.31827
20181.32023
20181.32288
20181.32567
20181.32812
20181.32984
20181.33059
20181.33021
20181.32866
20181.32595
20181.32215
20181.31733
20181.31159
20181.30501
20181.29768
20181.28968
20181.2811
20181.27197
20181.2624
20181.25241
20181.24213
20181.23157
20181.22091
20181.21018
20181.21018
20183.10423
20183.10423
20183.0919
20183.07849
20183.06772
20183.06059
20183.05777
20183.05994
20183.06717
20183.07859
20183.09259
20183.10743
20183.1218
20183.13503
20183.14681
20183.15686
20183.16504
20183.17154
20183.17711
20183.18207
20183.18178
20183.15913
20183.07971
20183.00479
20182.99951
20183.08545
20183.1054
20182.99822
20182.82153
20182.62627
20182.42271
20182.21383
20182.00077
20181.784
20181.56368
20181.33968
20181.11157
20180.87849
20180.63887
20180.38961
20180.11341
20179.97617
20179.97055
20179.89862
20179.80695
20179.73038
20179.62532
20179.48051
20179.32386
20179.17877
20179.06838
20179.02431
20179.07123
20179.2184
20179.45727
20179.75839
20180.06726
20180.30537
20180.38654
20180.30363
20180.23117
20180.17858
20179.99641
20179.71596
20179.53917
20179.45375
20179.45778
20179.53274
20179.58979
20179.54944
20179.38501
20179.19949
20179.20432
20179.41681
20179.5732
20179.57974
20179.54787
20179.53049
20179.52157
20179.51431
20179.50456
20179.49351
20179.47602
20179.44019
20179.37202
20179.275
20179.13558
20178.97603
20178.83452
20178.70797
20178.58994
20178.48566
20178.40523
20178.35722
20178.34677
20178.37569
20178.44334
20178.54739
20178.68448
20178.85056
20179.04125
20179.252
20179.47831
20179.71578
20179.96021
20180.20779
20180.45518
20180.69955
20180.93869
20181.17081
20181.39449
20181.6084
20181.81107
20182.00073
20182.17519
20182.33195
20182.46841
20182.58227
20182.67191
20182.73671
20182.77715
20182.79472
20182.79174
20182.77118
20182.73636
20182.69053
20182.63659
20182.57704
20182.51402
20182.4495
20182.38515
20182.32221
20182.26137
20182.20298
20182.14726
20182.09452
20182.04512
20181.99933
20181.95715
20181.91842
20181.88291
20181.85046
20181.82092
20181.79407
20181.76947
20181.74652
20181.72472
20181.70395
20181.68446
20181.66656
20181.65025
20181.63515
20181.62072
20181.60659
20181.59252
20181.57835
20181.56398
20181.54942
20181.53478
20181.52005
20181.50491
20181.48889
20181.47164
20181.45311
20181.43362
20181.41378
20181.3944
20181.3763
20181.36015
20181.3464
20181.33531
20181.32695
20181.32126
20181.31808
20181.31712
20181.31796
20181.32009
20181.32292
20181.32588
20181.32846
20181.33027
20181.33107
20181.33071
20181.32916
20181.32643
20181.3226
20181.31774
20181.31197
20181.30535
20181.29799
20181.28995
20181.28132
20181.27215
20181.26253
20181.25247
20181.24211
20181.23146
20181.2207
20181.20985
20181.20985
20183.08678
20183.08678
20183.07867
20183.06871
20183.06027
20183.05474
20183.05293
20183.0554
20183.06221
20183.07274
20183.08581
20183.1001
20183.11454
20183.12844
20183.14135
20183.15282
20183.16251
20183.17036
20183.17673
20183.18162
20183.17965
20183.15525
20183.07919
20183.022
20183.02651
20183.07805
20183.0895
20182.98882
20182.81981
20182.62818
20182.42592
20182.21738
20182.00438
20181.78775
20181.56783
20181.34469
20181.11828
20180.88847
20180.65524
20180.41952
20180.16934
20180.05427
20180.04484
20179.96293
20179.8494
20179.73036
20179.57638
20179.39085
20179.2046
20179.04253
20178.92696
20178.88203
20178.92584
20179.06479
20179.29062
20179.57688
20179.87489
20180.11528
20180.22827
20180.21143
20180.19895
20180.1272
20179.88093
20179.57519
20179.4043
20179.33747
20179.34456
20179.43998
20179.5275
20179.49764
20179.33121
20179.13711
20179.12936
20179.34513
20179.52571
20179.54859
20179.52793
20179.52337
20179.52477
20179.52001
20179.50737
20179.48857
20179.45481
20179.39182
20179.29486
20179.17173
20179.02326
20178.86573
20178.72291
20178.59656
20178.48439
20178.39018
20178.32117
20178.28404
20178.2831
20178.32002
20178.39428
20178.50379
20178.64544
20178.8154
20179.00944
20179.22316
20179.45212
20179.69197
20179.93849
20180.18783
20180.4366
20180.6819
20180.92156
20181.15384
20181.37742
20181.59111
20181.79358
20181.98315
20182.15767
20182.31462
20182.45132
20182.56535
20182.65502
20182.71971
20182.75995
20182.77729
20182.7741
20182.7534
20182.71858
20182.67302
20182.61963
20182.56082
20182.49866
20182.43501
20182.37156
20182.30958
20182.24979
20182.19249
20182.13783
20182.08609
20182.03764
20181.99273
20181.95137
20181.91334
20181.87844
20181.84652
20181.81743
20181.79095
20181.76662
20181.74392
20181.72241
20181.70196
20181.68278
20181.66512
20181.64895
20181.63397
20181.61969
20181.60569
20181.59171
20181.57757
20181.56321
20181.5487
20181.53418
20181.51959
20181.50459
20181.48872
20181.47158
20181.45309
20181.43357
20181.41364
20181.39415
20181.37596
20181.35975
20181.34599
20181.3349
20181.32656
20181.3209
20181.31777
20181.31689
20181.31787
20181.32016
20181.32317
20181.32629
20181.32899
20181.33089
20181.33173
20181.33138
20181.32981
20181.32705
20181.32318
20181.31829
20181.31247
20181.30581
20181.2984
20181.29031
20181.28163
20181.27239
20181.26269
20181.25254
20181.24207
20181.23126
20181.22033
20181.20925
20181.20925
20183.07146
20183.07146
20183.06598
20183.05867
20183.05222
20183.04808
20183.0471
20183.04977
20183.05616
20183.06581
20183.07786
20183.09132
20183.10535
20183.11935
20183.13288
20183.14549
20183.15675
20183.16631
20183.1739
20183.17864
20183.17514
20183.15233
20183.09023
20183.04978
20183.06348
20183.10619
20183.10672
20182.99518
20182.82485
20182.63323
20182.43085
20182.22207
20182.00891
20181.79234
20181.57281
20181.35061
20181.12601
20180.89961
20180.67291
20180.45083
20180.2251
20180.12778
20180.11799
20180.03218
20179.89273
20179.72101
20179.51239
20179.28619
20179.07239
20178.89415
20178.77201
20178.72386
20178.76222
20178.89077
20179.1017
20179.37193
20179.65943
20179.90545
20180.05366
20180.09932
20180.12882
20180.04481
20179.76296
20179.43062
20179.27189
20179.23139
20179.23261
20179.32385
20179.4364
20179.43333
20179.29461
20179.12263
20179.1112
20179.3096
20179.48525
20179.51502
20179.5058
20179.51542
20179.52848
20179.52554
20179.50393
20179.46571
20179.40157
20179.30641
20179.18508
20179.04663
20178.89539
20178.74256
20178.60289
20178.48002
20178.3744
20178.28941
20178.23068
20178.20356
20178.21165
20178.25642
20178.33739
20178.45258
20178.59908
20178.77325
20178.97099
20179.18803
20179.42003
20179.66263
20179.91162
20180.16305
20180.41349
20180.65997
20180.90028
20181.13278
20181.35625
20181.56969
20181.77189
20181.96132
20182.13587
20182.29299
20182.4299
20182.54406
20182.63367
20182.69813
20182.73806
20182.75513
20182.75173
20182.73091
20182.69614
20182.65092
20182.59823
20182.54042
20182.4794
20182.41695
20182.35471
20182.29396
20182.23547
20182.1795
20182.12614
20182.07563
20182.02831
20181.98447
20181.94408
20181.90692
20181.87278
20181.84153
20181.81305
20181.78707
20181.7631
20181.74066
20181.71939
20181.69924
20181.68044
20181.66313
20181.64724
20181.6324
20181.61817
20181.60419
20181.5902
20181.57606
20181.56176
20181.54738
20181.53302
20181.51859
20181.50377
20181.48807
20181.47111
20181.45277
20181.43335
20181.4135
20181.39407
20181.37593
20181.35979
20181.34608
20181.33505
20181.32672
20181.32107
20181.31795
20181.31711
20181.31817
20181.32058
20181.32372
20181.32696
20181.32977
20181.33172
20181.33258
20181.33222
20181.33062
20181.32782
20181.3239
20181.31896
20181.31309
20181.30638
20181.29892
20181.29077
20181.28203
20181.27271
20181.26291
20181.25264
20181.24201
20181.23101
20181.21981
20181.2084
20181.2084
20183.05757
20183.05757
20183.05381
20183.04849
20183.0437
20183.04076
20183.04048
20183.04333
20183.04936
20183.05824
20183.06934
20183.08189
20183.09524
20183.1089
20183.12249
20183.13564
20183.14795
20183.15893
20183.16777
20183.17283
20183.16828
20183.14925
20183.10658
20183.08269
20183.10245
20183.14613
20183.13981
20183.01334
20182.83617
20182.64147
20182.43754
20182.22789
20182.0143
20181.79767
20181.57852
20181.35724
20181.13441
20180.91125
20180.69043
20180.48023
20180.273
20180.18504
20180.17321
20180.08485
20179.91871
20179.69523
20179.4356
20179.1721
20178.93297
20178.73995
20178.61095
20178.55834
20178.59006
20178.70725
20178.90247
20179.1559
20179.43235
20179.68394
20179.86456
20179.96462
20180.01568
20179.91919
20179.64148
20179.31013
20179.17207
20179.15126
20179.13768
20179.20826
20179.33762
20179.37526
20179.28815
20179.16113
20179.15399
20179.31837
20179.46007
20179.48002
20179.47878
20179.50447
20179.52885
20179.5225
20179.48279
20179.41378
20179.31622
20179.19533
20179.05862
20178.91282
20178.76193
20178.6138
20178.47825
20178.35971
20178.26031
20178.18349
20178.13391
20178.11597
20178.13262
20178.18507
20178.27279
20178.39385
20178.54545
20178.7241
20178.92586
20179.14655
20179.38192
20179.62765
20179.8795
20180.1334
20180.38584
20180.63376
20180.8749
20181.10771
20181.3311
20181.54423
20181.74612
20181.93535
20182.10987
20182.26712
20182.40421
20182.51844
20182.60791
20182.67198
20182.71147
20182.7282
20182.72465
20182.70382
20182.66923
20182.62447
20182.57264
20182.51603
20182.45644
20182.39552
20182.33483
20182.27563
20182.21868
20182.16425
20182.11241
20182.06333
20182.01736
20181.97476
20181.93551
20181.89938
20181.86613
20181.83569
20181.80795
20181.78259
20181.75909
20181.73695
20181.71589
20181.69599
20181.67755
20181.66071
20181.64523
20181.63064
20181.61645
20181.60236
20181.58821
20181.57399
20181.55975
20181.54558
20181.53145
20181.51723
20181.50256
20181.48702
20181.47023
20181.4521
20181.4329
20181.41328
20181.39409
20181.37619
20181.36027
20181.34675
20181.33585
20181.3276
20181.32196
20181.31882
20181.31797
20181.31903
20181.32149
20181.3247
20181.32801
20181.33085
20181.33282
20181.33366
20181.33326
20181.3316
20181.32874
20181.32477
20181.31976
20181.31383
20181.30706
20181.29955
20181.29134
20181.28251
20181.27311
20181.26319
20181.25278
20181.24195
20181.23071
20181.21918
20181.20732
20181.20732
20183.04465
20183.04465
20183.04205
20183.03824
20183.0348
20183.03287
20183.0332
20183.03619
20183.04194
20183.0502
20183.06046
20183.07217
20183.08477
20183.09787
20183.11115
20183.12433
20183.13708
20183.14888
20183.15867
20183.16462
20183.16029
20183.14753
20183.12281
20183.11445
20183.14065
20183.18809
20183.17858
20183.03928
20182.85248
20182.65247
20182.4458
20182.23472
20182.02044
20181.80366
20181.58481
20181.36438
20181.14315
20180.92279
20180.70662
20180.50546
20180.30904
20180.2207
20180.20243
20180.10956
20179.91857
20179.65068
20179.3482
20179.05247
20178.79124
20178.58567
20178.45038
20178.3931
20178.41799
20178.5238
20178.70309
20178.93918
20179.20349
20179.4582
20179.66515
20179.80325
20179.86082
20179.77864
20179.52383
20179.22891
20179.11687
20179.09887
20179.06528
20179.10916
20179.24814
20179.33531
20179.31521
20179.24664
20179.24923
20179.36827
20179.45355
20179.44517