# vtk DataFile Version 2.0
FlowField
ASCII
DATASET STRUCTURED_GRID
DIMENSIONS 200 1 200
POINTS 40000 float
0 0 0
0.15 0 0
0.3 0 0
0.45 0 0
0.6 0 0
0.75 0 0
0.9 0 0
1.05 0 0
1.2 0 0
1.35 0 0
1.5 0 0
1.65 0 0
1.8 0 0
1.95 0 0
2.1 0 0
2.25 0 0
2.4 0 0
2.55 0 0
2.7 0 0
2.85 0 0
3 0 0
3.15 0 0
3.3 0 0
3.45 0 0
3.6 0 0
3.75 0 0
3.9 0 0
4.05 0 0
4.2 0 0
4.35 0 0
4.5 0 0
4.65 0 0
4.8 0 0
4.95 0 0
5.1 0 0
5.25 0 0
5.4 0 0
5.55 0 0
5.7 0 0
5.85 0 0
6 0 0
6.15 0 0
6.3 0 0
6.45 0 0
6.6 0 0
6.75 0 0
6.9 0 0
7.05 0 0
7.2 0 0
7.35 0 0
7.5 0 0
7.65 0 0
7.8 0 0
7.95 0 0
8.1 0 0
8.25 0 0
8.4 0 0
8.55 0 0
8.7 0 0
8.85 0 0
9 0 0
9.15 0 0
9.3 0 0
9.45 0 0
9.6 0 0
9.75 0 0
9.9 0 0
10.05 0 0
10.2 0 0
10.35 0 0
10.5 0 0
10.65 0 0
10.8 0 0
10.95 0 0
11.1 0 0
11.25 0 0
11.4 0 0
11.55 0 0
11.7 0 0
11.85 0 0
12 0 0
12.15 0 0
12.3 0 0
12.45 0 0
12.6 0 0
12.75 0 0
12.9 0 0
13.05 0 0
13.2 0 0
13.35 0 0
13.5 0 0
13.65 0 0
13.8 0 0
13.95 0 0
14.1 0 0
14.25 0 0
14.4 0 0
14.55 0 0
14.7 0 0
14.85 0 0
15 0 0
15.15 0 0
15.3 0 0
15.45 0 0
15.6 0 0
15.75 0 0
15.9 0 0
16.05 0 0
16.2 0 0
16.35 0 0
16.5 0 0
16.65 0 0
16.8 0 0
16.95 0 0
17.1 0 0
17.25 0 0
17.4 0 0
17.55 0 0
17.7 0 0
17.85 0 0
18 0 0
18.15 0 0
18.3 0 0
18.45 0 0
18.6 0 0
18.75 0 0
18.9 0 0
19.05 0 0
19.2 0 0
19.35 0 0
19.5 0 0
19.65 0 0
19.8 0 0
19.95 0 0
20.1 0 0
20.25 0 0
20.4 0 0
20.55 0 0
20.7 0 0
20.85 0 0
21 0 0
21.15 0 0
21.3 0 0
21.45 0 0
21.6 0 0
21.75 0 0
21.9 0 0
22.05 0 0
22.2 0 0
22.35 0 0
22.5 0 0
22.65 0 0
22.8 0 0
22.95 0 0
23.1 0 0
23.25 0 0
23.4 0 0
23.55 0 0
23.7 0 0
23.85 0 0
24 0 0
24.15 0 0
24.3 0 0
24.45 0 0
24.6 0 0
24.75 0 0
24.9 0 0
25.05 0 0
25.2 0 0
25.35 0 0
25.5 0 0
25.65 0 0
25.8 0 0
25.95 0 0
26.1 0 0
26.25 0 0
26.4 0 0
26.55 0 0
26.7 0 0
26.85 0 0
27 0 0
27.15 0 0
27.3 0 0
27.45 0 0
27.6 0 0
27.75 0 0
27.9 0 0
28.05 0 0
28.2 0 0
28.35 0 0
28.5 0 0
28.65 0 0
28.8 0 0
28.95 0 0
29.1 0 0
29.25 0 0
29.4 0 0
29.55 0 0
29.7 0 0
29.85 0 0
0 0.075 0
0.15 0.075 0
0.3 0.075 0
0.45 0.075 0
0.6 0.075 0
0.75 0.075 0
0.9 0.075 0
1.05 0.075 0
1.2 0.075 0
1.35 0.075 0
1.5 0.075 0
1.65 0.075 0
1.8 0.075 0
1.95 0.075 0
2.1 0.075 0
2.25 0.075 0
2.4 0.075 0
2.55 0.075 0
2.7 0.075 0
2.85 0.075 0
3 0.075 0
3.15 0.075 0
3.3 0.075 0
3.45 0.075 0
3.6 0.075 0
3.75 0.075 0
3.9 0.075 0
4.05 0.075 0
4.2 0.075 0
4.35 0.075 0
4.5 0.075 0
4.65 0.075 0
4.8 0.075 0
4.95 0.075 0
5.1 0.075 0
5.25 0.075 0
5.4 0.075 0
5.55 0.075 0
5.7 0.075 0
5.85 0.075 0
6 0.075 0
6.15 0.075 0
6.3 0.075 0
6.45 0.075 0
6.6 0.075 0
6.75 0.075 0
6.9 0.075 0
7.05 0.075 0
7.2 0.075 0
7.35 0.075 0
7.5 0.075 0
7.65 0.075 0
7.8 0.075 0
7.95 0.075 0
8.1 0.075 0
8.25 0.075 0
8.4 0.075 0
8.55 0.075 0
8.7 0.075 0
8.85 0.075 0
9 0.075 0
9.15 0.075 0
9.3 0.075 0
9.45 0.075 0
9.6 0.075 0
9.75 0.075 0
9.9 0.075 0
10.05 0.075 0
10.2 0.075 0
10.35 0.075 0
10.5 0.075 0
10.65 0.075 0
10.8 0.075 0
10.95 0.075 0
11.1 0.075 0
11.25 0.075 0
11.4 0.075 0
11.55 0.075 0
11.7 0.075 0
11.85 0.075 0
12 0.075 0
12.15 0.075 0
12.3 0.075 0
12.45 0.075 0
12.6 0.075 0
12.75 0.075 0
12.9 0.075 0
13.05 0.075 0
13.2 0.075 0
13.35 0.075 0
13.5 0.075 0
13.65 0.075 0
13.8 0.075 0
13.95 0.075 0
14.1 0.075 0
14.25 0.075 0
14.4 0.075 0
14.55 0.075 0
14.7 0.075 0
14.85 0.075 0
15 0.075 0
15.15 0.075 0
15.3 0.075 0
15.45 0.075 0
15.6 0.075 0
15.75 0.075 0
15.9 0.075 0
16.05 0.075 0
16.2 0.075 0
16.35 0.075 0
16.5 0.075 0
16.65 0.075 0
16.8 0.075 0
16.95 0.075 0
17.1 0.075 0
17.25 0.075 0
17.4 0.075 0
17.55 0.075 0
17.7 0.075 0
17.85 0.075 0
18 0.075 0
18.15 0.075 0
18.3 0.075 0
18.45 0.075 0
18.6 0.075 0
18.75 0.075 0
18.9 0.075 0
19.05 0.075 0
19.2 0.075 0
19.35 0.075 0
19.5 0.075 0
19.65 0.075 0
19.8 0.075 0
19.95 0.075 0
20.1 0.075 0
20.25 0.075 0
20.4 0.075 0
20.55 0.075 0
20.7 0.075 0
20.85 0.075 0
21 0.075 0
21.15 0.075 0
21.3 0.075 0
21.45 0.075 0
21.6 0.075 0
21.75 0.075 0
21.9 0.075 0
22.05 0.075 0
22.2 0.075 0
22.35 0.075 0
22.5 0.075 0
22.65 0.075 0
22.8 0.075 0
22.95 0.075 0
23.1 0.075 0
23.25 0.075 0
23.4 0.075 0
23.55 0.075 0
23.7 0.075 0
23.85 0.075 0
24 0.075 0
24.15 0.075 0
24.3 0.075 0
24.45 0.075 0
24.6 0.075 0
24.75 0.075 0
24.9 0.075 0
25.05 0.075 0
25.2 0.075 0
25.35 0.075 0
25.5 0.075 0
25.65 0.075 0
25.8 0.075 0
25.95 0.075 0
26.1 0.075 0
26.25 0.075 0
26.4 0.075 0
26.55 0.075 0
26.7 0.075 0
26.85 0.075 0
27 0.075 0
27.15 0.075 0
27.3 0.075 0
27.45 0.075 0
27.6 0.075 0
27.75 0.075 0
27.9 0.075 0
28.05 0.075 0
28.2 0.075 0
28.35 0.075 0
28.5 0.075 0
28.65 0.075 0
28.8 0.075 0
28.95 0.075 0
29.1 0.075 0
29.25 0.075 0
29.4 0.075 0
29.55 0.075 0
29.7 0.075 0
29.85 0.075 0
0 0.15 0
0.15 0.15 0
0.3 0.15 0
0.45 0.15 0
0.6 0.15 0
0.75 0.15 0
0.9 0.15 0
1.05 0.15 0
1.2 0.15 0
1.35 0.15 0
1.5 0.15 0
1.65 0.15 0
1.8 0.15 0
1.95 0.15 0
2.1 0.15 0
2.25 0.15 0
2.4 0.15 0
2.55 0.15 0
2.7 0.15 0
2.85 0.15 0
3 0.15 0
3.15 0.15 0
3.3 0.15 0
3.45 0.15 0
3.6 0.15 0
3.75 0.15 0
3.9 0.15 0
4.05 0.15 0
4.2 0.15 0
4.35 0.15 0
4.5 0.15 0
4.65 0.15 0
4.8 0.15 0
4.95 0.15 0
5.1 0.15 0
5.25 0.15 0
5.4 0.15 0
5.55 0.15 0
5.7 0.15 0
5.85 0.15 0
6 0.15 0
6.15 0.15 0
6.3 0.15 0
6.45 0.15 0
6.6 0.15 0
6.75 0.15 0
6.9 0.15 0
7.05 0.15 0
7.2 0.15 0
7.35 0.15 0
7.5 0.15 0
7.65 0.15 0
7.8 0.15 0
7.95 0.15 0
8.1 0.15 0
8.25 0.15 0
8.4 0.15 0
8.55 0.15 0
8.7 0.15 0
8.85 0.15 0
9 0.15 0
9.15 0.15 0
9.3 0.15 0
9.45 0.15 0
9.6 0.15 0
9.75 0.15 0
9.9 0.15 0
10.05 0.15 0
10.2 0.15 0
10.35 0.15 0
10.5 0.15 0
10.65 0.15 0
10.8 0.15 0
10.95 0.15 0
11.1 0.15 0
11.25 0.15 0
11.4 0.15 0
11.55 0.15 0
11.7 0.15 0
11.85 0.15 0
12 0.15 0
12.15 0.15 0
12.3 0.15 0
12.45 0.15 0
12.6 0.15 0
12.75 0.15 0
12.9 0.15 0
13.05 0.15 0
13.2 0.15 0
13.35 0.15 0
13.5 0.15 0
13.65 0.15 0
13.8 0.15 0
13.95 0.15 0
14.1 0.15 0
14.25 0.15 0
14.4 0.15 0
14.55 0.15 0
14.7 0.15 0
14.85 0.15 0
15 0.15 0
15.15 0.15 0
15.3 0.15 0
15.45 0.15 0
15.6 0.15 0
15.75 0.15 0
15.9 0.15 0
16.05 0.15 0
16.2 0.15 0
16.35 0.15 0
16.5 0.15 0
16.65 0.15 0
16.8 0.15 0
16.95 0.15 0
17.1 0.15 0
17.25 0.15 0
17.4 0.15 0
17.55 0.15 0
17.7 0.15 0
17.85 0.15 0
18 0.15 0
18.15 0.15 0
18.3 0.15 0
18.45 0.15 0
18.6 0.15 0
18.75 0.15 0
18.9 0.15 0
19.05 0.15 0
19.2 0.15 0
19.35 0.15 0
19.5 0.15 0
19.65 0.15 0
19.8 0.15 0
19.95 0.15 0
20.1 0.15 0
20.25 0.15 0
20.4 0.15 0
20.55 0.15 0
20.7 0.15 0
20.85 0.15 0
21 0.15 0
21.15 0.15 0
21.3 0.15 0
21.45 0.15 0
21.6 0.15 0
21.75 0.15 0
21.9 0.15 0
22.05 0.15 0
22.2 0.15 0
22.35 0.15 0
22.5 0.15 0
22.65 0.15 0
22.8 0.15 0
22.95 0.15 0
23.1 0.15 0
23.25 0.15 0
23.4 0.15 0
23.55 0.15 0
23.7 0.15 0
23.85 0.15 0
24 0.15 0
24.15 0.15 0
24.3 0.15 0
24.45 0.15 0
24.6 0.15 0
24.75 0.15 0
24.9 0.15 0
25.05 0.15 0
25.2 0.15 0
25.35 0.15 0
25.5 0.15 0
25.65 0.15 0
25.8 0.15 0
25.95 0.15 0
26.1 0.15 0
26.25 0.15 0
26.4 0.15 0
26.55 0.15 0
26.7 0.15 0
26.85 0.15 0
27 0.15 0
27.15 0.15 0
27.3 0.15 0
27.45 0.15 0
27.6 0.15 0
27.75 0.15 0
27.9 0.15 0
28.05 0.15 0
28.2 0.15 0
28.35 0.15 0
28.5 0.15 0
28.65 0.15 0
28.8 0.15 0
28.95 0.15 0
29.1 0.15 0
29.25 0.15 0
29.4 0.15 0
29.55 0.15 0
29.7 0.15 0
29.85 0.15 0
0 0.225 0
0.15 0.225 0
0.3 0.225 0
0.45 0.225 0
0.6 0.225 0
0.75 0.225 0
0.9 0.225 0
1.05 0.225 0
1.2 0.225 0
1.35 0.225 0
1.5 0.225 0
1.65 0.225 0
1.8 0.225 0
1.95 0.225 0
2.1 0.225 0
2.25 0.225 0
2.4 0.225 0
2.55 0.225 0
2.7 0.225 0
2.85 0.225 0
3 0.225 0
3.15 0.225 0
3.3 0.225 0
3.45 0.225 0
3.6 0.225 0
3.75 0.225 0
3.9 0.225 0
4.05 0.225 0
4.2 0.225 0
4.35 0.225 0
4.5 0.225 0
4.65 0.225 0
4.8 0.225 0
4.95 0.225 0
5.1 0.225 0
5.25 0.225 0
5.4 0.225 0
5.55 0.225 0
5.7 0.225 0
5.85 0.225 0
6 0.225 0
6.15 0.225 0
6.3 0.225 0
6.45 0.225 0
6.6 0.225 0
6.75 0.225 0
6.9 0.225 0
7.05 0.225 0
7.2 0.225 0
7.35 0.225 0
7.5 0.225 0
7.65 0.225 0
7.8 0.225 0
7.95 0.225 0
8.1 0.225 0
8.25 0.225 0
8.4 0.225 0
8.55 0.225 0
8.7 0.225 0
8.85 0.225 0
9 0.225 0
9.15 0.225 0
9.3 0.225 0
9.45 0.225 0
9.6 0.225 0
9.75 0.225 0
9.9 0.225 0
10.05 0.225 0
10.2 0.225 0
10.35 0.225 0
10.5 0.225 0
10.65 0.225 0
10.8 0.225 0
10.95 0.225 0
11.1 0.225 0
11.25 0.225 0
11.4 0.225 0
11.55 0.225 0
11.7 0.225 0
11.85 0.225 0
12 0.225 0
12.15 0.225 0
12.3 0.225 0
12.45 0.225 0
12.6 0.225 0
12.75 0.225 0
12.9 0.225 0
13.05 0.225 0
13.2 0.225 0
13.35 0.225 0
13.5 0.225 0
13.65 0.225 0
13.8 0.225 0
13.95 0.225 0
14.1 0.225 0
14.25 0.225 0
14.4 0.225 0
14.55 0.225 0
14.7 0.225 0
14.85 0.225 0
15 0.225 0
15.15 0.225 0
15.3 0.225 0
15.45 0.225 0
15.6 0.225 0
15.75 0.225 0
15.9 0.225 0
16.05 0.225 0
16.2 0.225 0
16.35 0.225 0
16.5 0.225 0
16.65 0.225 0
16.8 0.225 0
16.95 0.225 0
17.1 0.225 0
17.25 0.225 0
17.4 0.225 0
17.55 0.225 0
17.7 0.225 0
17.85 0.225 0
18 0.225 0
18.15 0.225 0
18.3 0.225 0
18.45 0.225 0
18.6 0.225 0
18.75 0.225 0
18.9 0.225 0
19.05 0.225 0
19.2 0.225 0
19.35 0.225 0
19.5 0.225 0
19.65 0.225 0
19.8 0.225 0
19.95 0.225 0
20.1 0.225 0
20.25 0.225 0
20.4 0.225 0
20.55 0.225 0
20.7 0.225 0
20.85 0.225 0
21 0.225 0
21.15 0.225 0
21.3 0.225 0
21.45 0.225 0
21.6 0.225 0
21.75 0.225 0
21.9 0.225 0
22.05 0.225 0
22.2 0.225 0
22.35 0.225 0
22.5 0.225 0
22.65 0.225 0
22.8 0.225 0
22.95 0.225 0
23.1 0.225 0
23.25 0.225 0
23.4 0.225 0
23.55 0.225 0
23.7 0.225 0
23.85 0.225 0
24 0.225 0
24.15 0.225 0
24.3 0.225 0
24.45 0.225 0
24.6 0.225 0
24.75 0.225 0
24.9 0.225 0
25.05 0.225 0
25.2 0.225 0
25.35 0.225 0
25.5 0.225 0
25.65 0.225 0
25.8 0.225 0
25.95 0.225 0
26.1 0.225 0
26.25 0.225 0
26.4 0.225 0
26.55 0.225 0
26.7 0.225 0
26.85 0.225 0
27 0.225 0
27.15 0.225 0
27.3 0.225 0
27.45 0.225 0
27.6 0.225 0
27.75 0.225 0
27.9 0.225 0
28.05 0.225 0
28.2 0.225 0
28.35 0.225 0
28.5 0.225 0
28.65 0.225 0
28.8 0.225 0
28.95 0.225 0
29.1 0.225 0
29.25 0.225 0
29.4 0.225 0
29.55 0.225 0
29.7 0.225 0
29.85 0.225 0
0 0.3 0
0.15 0.3 0
0.3 0.3 0
0.45 0.3 0
0.6 0.3 0
0.75 0.3 0
0.9 0.3 0
1.05 0.3 0
1.2 0.3 0
1.35 0.3 0
1.5 0.3 0
1.65 0.3 0
1.8 0.3 0
1.95 0.3 0
2.1 0.3 0
2.25 0.3 0
2.4 0.3 0
2.55 0.3 0
2.7 0.3 0
2.85 0.3 0
3 0.3 0
3.15 0.3 0
3.3 0.3 0
3.45 0.3 0
3.6 0.3 0
3.75 0.3 0
3.9 0.3 0
4.05 0.3 0
4.2 0.3 0
4.35 0.3 0
4.5 0.3 0
4.65 0.3 0
4.8 0.3 0
4.95 0.3 0
5.1 0.3 0
5.25 0.3 0
5.4 0.3 0
5.55 0.3 0
5.7 0.3 0
5.85 0.3 0
6 0.3 0
6.15 0.3 0
[...]
POINT_DATA 40000

SCALARS p float 1
LOOKUP_TABLE default
20183.1535
20183.1535
20183.09802
20183.07021
20183.05178
20183.03887
20183.03167
20183.03143
20183.03829
20183.05044
20183.06494
20183.07923
20183.09191
20183.10282
20183.11229
20183.12037
20183.12697
20183.13228
20183.13656
20183.13894
20183.13642
20183.12684
20183.09618
20183.03661
20183.09869
20183.53519
20183.41247
20183.0375
20182.78492
20182.56202
20182.34498
20182.12698
20181.90603
20181.68163
20181.45372
20181.22232
20180.98734
20180.74848
20180.50465
20180.25244
20179.98094
20179.83227
20179.85919
20179.82391
20179.79208
20179.76397
20179.75333
20179.78568
20179.89062
20180.07837
20180.32354
20180.53884
20180.60776
20180.52171
20180.31678
20180.01725
20179.69596
20179.45719
20179.35638
20179.29983
20179.17107
20179.13479
20179.16173
20179.16662
20179.12859
20179.06275
20179.04747
20179.15955
20179.25005
20179.25188
20179.22157
20179.19566
20179.18329
20179.17677
20179.1661
20179.14856
20179.11483
20179.07964
20179.01415
20178.87092
20178.76332
20178.69685
20178.61313
20178.50908
20178.40912
20178.33486
20178.29823
20178.30354
20178.35054
20178.43663
20178.55805
20178.71063
20178.89001
20179.09174
20179.31131
20179.54415
20179.78563
20180.03129
20180.27688
20180.51863
20180.7534
20180.97886
20181.19346
20181.39641
20181.58745
20181.76683
20181.935
20182.09213
20182.23813
20182.37216
20182.49266
20182.59739
20182.68376
20182.74933
20182.79237
20182.81239
20182.81029
20182.78831
20182.74968
20182.69816
20182.63755
20182.57127
20182.50215
20182.43248
20182.36412
20182.29859
20182.23699
20182.17983
20182.12707
20182.07825
20182.03289
20181.99075
20181.95184
20181.91627
20181.88399
20181.85459
20181.82739
20181.80171
20181.77713
20181.75359
20181.73118
20181.70994
20181.68977
20181.67044
20181.65171
20181.63343
20181.61564
20181.59858
20181.58266
20181.56837
20181.55609
20181.54607
20181.53833
20181.53271
20181.52892
20181.52662
20181.52541
20181.52496
20181.52496
20181.52515
20181.52532
20181.52535
20181.52512
20181.52459
20181.52373
20181.52254
20181.52104
20181.51925
20181.5172
20181.51492
20181.51246
20181.50982
20181.50705
20181.50415
20181.50116
20181.49808
20181.49493
20181.49171
20181.48843
20181.4851
20181.48172
20181.47829
20181.47482
20181.47131
20181.46774
20181.46413
20181.46048
20181.45677
20181.45302
20181.44921
20181.44535
20181.44143
20181.43745
20181.43343
20181.42934
20181.42522
20181.42104
20181.41684
20181.41261
20181.41261
20183.1535
20183.1535
20183.09802
20183.07021
20183.05178
20183.03887
20183.03167
20183.03143
20183.03829
20183.05044
20183.06494
20183.07923
20183.09191
20183.10282
20183.11229
20183.12037
20183.12697
20183.13228
20183.13656
20183.13894
20183.13642
20183.12684
20183.09618
20183.03661
20183.09869
20183.53519
20183.41247
20183.0375
20182.78492
20182.56202
20182.34498
20182.12698
20181.90603
20181.68163
20181.45372
20181.22232
20180.98734
20180.74848
20180.50465
20180.25244
20179.98094
20179.83227
20179.85919
20179.82391
20179.79208
20179.76397
20179.75333
20179.78568
20179.89062
20180.07837
20180.32354
20180.53884
20180.60776
20180.52171
20180.31678
20180.01725
20179.69596
20179.45719
20179.35638
20179.29983
20179.17107
20179.13479
20179.16173
20179.16662
20179.12859
20179.06275
20179.04747
20179.15955
20179.25005
20179.25188
20179.22157
20179.19566
20179.18329
20179.17677
20179.1661
20179.14856
20179.11483
20179.07964
20179.01415
20178.87092
20178.76332
20178.69685
20178.61313
20178.50908
20178.40912
20178.33486
20178.29823
20178.30354
20178.35054
20178.43663
20178.55805
20178.71063
20178.89001
20179.09174
20179.31131
20179.54415
20179.78563
20180.03129
20180.27688
20180.51863
20180.7534
20180.97886
20181.19346
20181.39641
20181.58745
20181.76683
20181.935
20182.09213
20182.23813
20182.37216
20182.49266
20182.59739
20182.68376
20182.74933
20182.79237
20182.81239
20182.81029
20182.78831
20182.74968
20182.69816
20182.63755
20182.57127
20182.50215
20182.43248
20182.36412
20182.29859
20182.23699
20182.17983
20182.12707
20182.07825
20182.03289
20181.99075
20181.95184
20181.91627
20181.88399
20181.85459
20181.82739
20181.80171
20181.77713
20181.75359
20181.73118
20181.70994
20181.68977
20181.67044
20181.65171
20181.63343
20181.61564
20181.59858
20181.58266
20181.56837
20181.55609
20181.54607
20181.53833
20181.53271
20181.52892
20181.52662
20181.52541
20181.52496
20181.52496
20181.52515
20181.52532
20181.52535
20181.52512
20181.52459
20181.52373
20181.52254
20181.52104
20181.51925
20181.5172
20181.51492
20181.51246
20181.50982
20181.50705
20181.50415
20181.50116
20181.49808
20181.49493
20181.49171
20181.48843
20181.4851
20181.48172
20181.47829
20181.47482
20181.47131
20181.46774
20181.46413
20181.46048
20181.45677
20181.45302
20181.44921
20181.44535
20181.44143
20181.43745
20181.43343
20181.42934
20181.42522
20181.42104
20181.41684
20181.41261
20181.41261
20183.12092
20183.12092
20183.08899
20183.06578
20183.04939
20183.03805
20183.03208
20183.03257
20183.03966
20183.05172
20183.06606
20183.08021
20183.0928
20183.10363
20183.11303
20183.12101
20183.12746
20183.1326
20183.13682
20183.13963
20183.13856
20183.12679
20183.07802
20182.99512
20183.00346
20183.31069
20183.27013
20183.00779
20182.7778
20182.56063
20182.34523
20182.1277
20181.90687
20181.68249
20181.45458
20181.22319
20180.98829
20180.7497
20180.50671
20180.25719
20179.99332
20179.87104
20179.86547
20179.82749
20179.7907
20179.75359
20179.7347
20179.7619
20179.86352
20180.04722
20180.28317
20180.48991
20180.5736
20180.4981
20180.29173
20179.97616
20179.64855
20179.409
20179.29262
20179.22712
20179.13862
20179.13524
20179.16548
20179.17455
20179.13184
20179.04401
20179.0088
20179.12612
20179.24019
20179.24921
20179.21936
20179.19429
20179.18287
20179.17682
20179.1654
20179.14888
20179.11583
20179.07781
20179.02364
20178.88427
20178.76025
20178.67631
20178.58383
20178.47876
20178.38158
20178.31125
20178.27841
20178.28692
20178.33648
20178.42453
20178.54746
20178.70119
20178.88147
20179.08395
20179.30419
20179.53767
20179.77981
20180.02609
20180.27228
20180.51455
20180.74973
20180.97546
20181.19016
20181.39303
20181.58385
20181.76289
20181.93062
20182.08734
20182.23297
20182.36676
20182.48718
20182.59201
20182.67863
20182.74456
20182.78802
20182.80844
20182.8067
20182.78503
20182.74666
20182.69537
20182.635
20182.56897
20182.50013
20182.43071
20182.3626
20182.29731
20182.23597
20182.17911
20182.12662
20182.07803
20182.03282
20181.99075
20181.95187
20181.91633
20181.88411
20181.85479
20181.82769
20181.80206
20181.77749
20181.75393
20181.73149
20181.71025
20181.69009
20181.67077
20181.65205
20181.63376
20181.61591
20181.59876
20181.58274
20181.56834
20181.55598
20181.54591
20181.53816
20181.53254
20181.52878
20181.52651
20181.52534
20181.52492
20181.52495
20181.52516
20181.52536
20181.52539
20181.52518
20181.52465
20181.52379
20181.5226
20181.52109
20181.5193
20181.51725
20181.51497
20181.5125
20181.50986
20181.50708
20181.50418
20181.50119
20181.4981
20181.49495
20181.49173
20181.48845
20181.48512
20181.48174
20181.47831
20181.47484
20181.47132
20181.46776
20181.46415
20181.46049
20181.45678
20181.45303
20181.44922
20181.44535
20181.44144
20181.43746
20181.43343
20181.42935
20181.42522
20181.42104
20181.41683
20181.4126
20181.4126
20183.09528
20183.09528
20183.07582
20183.05789
20183.04429
20183.03503
20183.0306
20183.03184
20183.03889
20183.05053
20183.06458
20183.07888
20183.092
20183.10348
20183.11334
20183.12151
20183.128
20183.1331
20183.13744
20183.14098
20183.14053
20183.12311
20183.05369
20182.96223
20182.94614
20183.11544
20183.1286
20182.97009
20182.76786
20182.55892
20182.34605
20182.12926
20181.9086
20181.68423
20181.4563
20181.22493
20180.99018
20180.75204
20180.51046
20180.26551
20180.01534
20179.9072
20179.88096
20179.83216
20179.7787
20179.72444
20179.6917
20179.71029
20179.80602
20179.98317
20180.20797
20180.40671
20180.50357
20180.44323
20180.22624
20179.88891
20179.55213
20179.31478
20179.17541
20179.1007
20179.06026
20179.09553
20179.15459
20179.17928
20179.12541
20179.00191
20178.93572
20179.06119
20179.21261
20179.23617
20179.21061
20179.19164
20179.18452
20179.17895
20179.16592
20179.14863
20179.12164
20179.0705
20178.99563
20178.85614
20178.71832
20178.61152
20178.50859
20178.40612
20178.31778
20178.25755
20178.23386
20178.2499
20178.30538
20178.39799
20178.52441
20178.68081
20178.86321
20179.06746
20179.28931
20179.52432
20179.76796
20180.01569
20180.26322
20180.50663
20180.7427
20180.969
20181.18392
20181.38663
20181.577
20181.75535
20181.92223
20182.07811
20182.22304
20182.35637
20182.47665
20182.58165
20182.66872
20182.73524
20182.77933
20182.80032
20182.79905
20182.77775
20182.73966
20182.68862
20182.62852
20182.56286
20182.49445
20182.42551
20182.3579
20182.29315
20182.23238
20182.17609
20182.12413
20182.07598
20182.03111
20181.98929
20181.9506
20181.91523
20181.88315
20181.85398
20181.82699
20181.80148
20181.777
20181.75351
20181.73114
20181.70997
20181.68989
20181.67065
20181.65199
20181.63373
20181.61585
20181.59862
20181.58249
20181.568
20181.55559
20181.54551
20181.53779
20181.53224
20181.52856
20181.52636
20181.52527
20181.52491
20181.52499
20181.52524
20181.52547
20181.52552
20181.52531
20181.52479
20181.52392
20181.52273
20181.52121
20181.5194
20181.51734
20181.51505
20181.51257
20181.50993
20181.50714
20181.50424
20181.50124
20181.49815
20181.49499
20181.49177
20181.48848
20181.48515
20181.48177
20181.47834
20181.47487
20181.47135
20181.46779
20181.46418
20181.46052
20181.45681
20181.45306
20181.44925
20181.44538
20181.44146
20181.43748
20181.43345
20181.42936
20181.42523
20181.42104
20181.41682
20181.41257
20181.41257
20183.07466
20183.07466
20183.06227
20183.04872
20183.03775
20183.03034
20183.0272
20183.02896
20183.03573
20183.04664
20183.06006
20183.07426
20183.08792
20183.10038
20183.11135
20183.12054
20183.12782
20183.1334
20183.13806
20183.1421
20183.14095
20183.11809
20183.03915
20182.96218
20182.95162
20183.03658
20183.05561
20182.94344
20182.76042
20182.55846
20182.34792
20182.13181
20181.91127
20181.68686
20181.45889
20181.22753
20180.99292
20180.75527
20180.5152
20180.27484
20180.03491
20179.93142
20179.89357
20179.83009
20179.75364
20179.67879
20179.62958
20179.63582
20179.72109
20179.88797
20180.10222
20180.29628
20180.39724
20180.34706
20180.11686
20179.76194
20179.43032
20179.20186
20179.04697
20178.95973
20178.935
20178.99824
20179.10311
20179.15551
20179.09922
20178.95235
20178.86159
20178.98942
20179.17105
20179.21201
20179.19472
20179.18742
20179.18867
20179.18324
20179.16853
20179.14464
20179.10172
20179.02683
20178.92164
20178.77573
20178.63148
20178.51245
20178.40656
20178.31137
20178.23521
20178.18775
20178.17538
20178.20074
20178.26357
20178.36186
20178.49263
20178.65241
20178.83749
20179.04402
20179.26793
20179.50496
20179.7506
20180.00027
20180.24961
20180.49457
20180.73185
20180.95892
20181.17412
20181.37662
20181.56634
20181.74369
20181.90935
20182.06399
20182.20783
20182.34039
20182.46033
20182.56544
20182.65299
20182.72026
20182.76516
20182.78692
20182.78632
20182.76556
20182.72793
20182.67731
20182.61768
20182.5526
20182.48488
20182.41671
20182.34987
20182.28593
20182.22599
20182.17053
20182.11934
20182.07184
20182.02749
20181.98612
20181.94784
20181.91282
20181.881
20181.852
20181.82515
20181.79975
20181.7754
20181.75204
20181.72979
20181.70874
20181.68881
20181.66977
20181.65133
20181.63324
20181.61546
20181.59826
20181.58212
20181.56762
20181.55522
20181.54519
20181.53754
20181.53208
20181.52849
20181.52637
20181.52535
20181.52505
20181.52516
20181.52544
20181.52568
20181.52574
20181.52553
20181.525
20181.52413
20181.52291
20181.52138
20181.51956
20181.51748
20181.51518
20181.51268
20181.51002
20181.50723
20181.50432
20181.50131
20181.49822
20181.49506
20181.49183
20181.48854
20181.48521
20181.48183
20181.4784
20181.47492
20181.4714
20181.46784
20181.46423
20181.46057
20181.45687
20181.45311
20181.4493
20181.44543
20181.44151
20181.43753
20181.43349
20181.42939
20181.42525
20181.42104
20181.4168
20181.41251
20181.41251
20183.0573
20183.0573
20183.04912
20183.03903
20183.03039
20183.02459
20183.02244
20183.02451
20183.03086
20183.04087
20183.05337
20183.06702
20183.08076
20183.0939
20183.106
20183.11661
20183.12539
20183.1323
20183.13775
20183.14175
20183.13896
20183.11417
20183.03795
20182.97906
20182.97954
20183.02971
20183.03989
20182.9341
20182.75883
20182.56055
20182.35133
20182.1355
20181.9149
20181.69037
20181.46231
20181.23094
20180.99644
20180.75918
20180.52025
20180.28318
20180.04681
20179.93879
20179.89165
20179.81407
20179.71529
20179.61931
20179.55147
20179.54148
20179.61187
20179.76481
20179.96743
20180.15733
20180.25883
20180.21206
20179.97501
20179.61334
20179.30407
20179.08967
20178.92553
20178.824
20178.79431
20178.86087
20179.00017
20179.09326
20179.05502
20178.91539
20178.82199
20178.94493
20179.13129
20179.18065
20179.17293
20179.18181
20179.195
20179.18938
20179.16324
20179.118
20179.04387
20178.93843
20178.80981
20178.66101
20178.51801
20178.39708
20178.29412
20178.20813
20178.14436
20178.10958
20178.10858
20178.14347
20178.21399
20178.31831
20178.45378
20178.61723
20178.80527
20179.01433
20179.24061
20179.47999
20179.72803
20179.98008
20180.23165
20180.47857
20180.71736
20180.94543
20181.16102
20181.3633
20181.55222
20181.72831
20181.89242
20182.04542
20182.18777
20182.31921
20182.43854
20182.54361
20182.63163
20182.69972
20182.74558
20182.76826
20182.76846
20182.74845
20182.7115
20182.66151
20182.60254
20182.53829
20182.47158
20182.4045
20182.33876
20182.27588
20182.21703
20182.16264
20182.11243
20182.06575
20182.02208
20181.98132
20181.94362
20181.90914
20181.87775
20181.84902
20181.82234
20181.79706
20181.77283
20181.74958
20181.72743
20181.70651
20181.68679
20181.66803
20181.64992
20181.63216
20181.61468
20181.59771
20181.58176
20181.5674
20181.55513
20181.54522
20181.53768
20181.53231
20181.52878
20181.52671
20181.52572
20181.52543
20181.52555
20181.52582
20181.52605
20181.52609
20181.52586
20181.5253
20181.5244
20181.52316
20181.52161
20181.51976
20181.51766
20181.51534
20181.51283
20181.51016
20181.50735
20181.50443
20181.50142
20181.49832
20181.49515
20181.49192
20181.48863
20181.4853
20181.48191
20181.47848
20181.47501
20181.47149
20181.46792
20181.46431
20181.46066
20181.45695
20181.45319
20181.44938
20181.44551
20181.44158
20181.4376
20181.43355
20181.42944
20181.42528
20181.42104
20181.41676
20181.41242
20181.41242
20183.04208
20183.04208
20183.03654
20183.02909
20183.02244
20183.01804
20183.01672
20183.019
20183.02492
20183.03405
20183.04553
20183.05835
20183.07168
20183.08492
20183.09765
20183.1094
20183.11975
20183.12838
20183.13504
20183.13889
20183.13455
20183.11111
20183.04806
20183.00589
20183.01659
20183.058
20183.05725
20182.94071
20182.76415
20182.56589
20182.35653
20182.14041
20181.91951
20181.69475
20181.46656
20181.23513
20181.00066
20180.76359
20180.52515
20180.28961
20180.05025
20179.92956
20179.8721
20179.78241
20179.6645
20179.54799
20179.46001
20179.43093
20179.48323
20179.61964
20179.80955
20179.99342
20180.09551
20180.05083
20179.81208
20179.46681
20179.19038
20178.98708
20178.81437
20178.69741
20178.65926
20178.71392
20178.86441
20179.00227
20179.00775
20178.90714
20178.83448
20178.9467
20179.10898
20179.14701
20179.14532
20179.17287
20179.19775
20179.18496
20179.13551
20179.0556
20178.94782
20178.81897
20178.67799
20178.53051
20178.39238
20178.27461
20178.17717
20178.10041
20178.04811
20178.02511
20178.03496
20178.07919
20178.15745
20178.26797
20178.40831
20178.5756
20178.76676
20178.97854
20179.20742
20179.44946
20179.70028
20179.95514
20180.20941
20180.45871
20180.69941
20180.92875
20181.14492
20181.34705
20181.53511
20181.70976
20181.87202
20182.02301
20182.16348
20182.29341
20182.4118
20182.51659
20182.60497
20182.67391
20182.72084
20182.74456
20182.74567
20182.72652
20182.69048
20182.64138
20182.5833
20182.52007
20182.45464
20182.38901
20182.32471
20182.26322
20182.20571
20182.15262
20182.1036
20182.0579
20182.01503
20181.97498
20181.93803
20181.90429
20181.87353
20181.84522
20181.81877
20181.79362
20181.76949
20181.74633
20181.7243
20181.70351
20181.68397
20181.66551
20181.64777
20181.63043
20181.61338
20181.59685
20181.58131
20181.56732
20181.55537
20181.54571
20181.53833
20181.53306
20181.52958
20181.52751
20181.52649
20181.52616
20181.52622
20181.52644
20181.52661
20181.5266
20181.52632
20181.52571
20181.52477
20181.52349
20181.5219
20181.52002
20181.5179
20181.51555
20181.51302
20181.51033
20181.50752
20181.50458
20181.50156
20181.49845
20181.49528
20181.49204
20181.48875
20181.48541
20181.48203
20181.4786
20181.47512
20181.4716
20181.46804
20181.46443
20181.46077
20181.45706
20181.4533
20181.44949
20181.44562
20181.44169
20181.43769
20181.43364
20181.42951
20181.42532
20181.42105
20181.41673
20181.41231
20181.41231
20183.0283
20183.0283
20183.02447
20183.01903
20183.01404
20183.01083
20183.01023
20183.01267
20183.01825
20183.02661
20183.03713
20183.04905
20183.0617
20183.0746
20183.08739
20183.09969
20183.1111
20183.12115
20183.12904
20183.1332
20183.12775
20183.10786
20183.06373
20183.03796
20183.05527
20183.09783
20183.09043
20182.95927
20182.77588
20182.57452
20182.3636
20182.14655
20181.92507
20181.69998
20181.4716
20181.24007
20181.00555
20180.76841
20180.52974
20180.29409
20180.04685
20179.90706
20179.83696
20179.73677
20179.60296
20179.467
20179.35835
20179.30867
20179.34094
20179.45885
20179.63469
20179.8121
20179.91499
20179.87245
20179.64547
20179.3387
20179.08996
20178.88958
20178.70429
20178.57489
20178.53577
20178.57633
20178.72206
20178.90127
20178.97131
20178.93549
20178.90174
20178.99902
20179.11327
20179.11712
20179.11348
20179.15575
20179.18422
20179.15412
20179.07274
20178.95916
20178.82682
20178.68421
20178.53812
20178.39353
20178.26073
20178.14774
20178.05653
20177.98854
20177.94674
20177.93468
20177.95488
20178.00826
20178.09426
20178.21109
20178.3564
20178.52762
20178.72198
20178.93659
20179.16822
20179.41317
20179.66714
20179.92528
20180.18274
20180.43492
20180.67797
20180.90897
20181.126
20181.32815
20181.51542
20181.68854
20181.84876
20181.99745
20182.13567
20182.26371
20182.38079
20182.48498
20182.57349
20182.64319
20182.69128
20182.71618
20182.71831
20182.70008
20182.66508
20182.61718
20182.5603
20182.49831
20182.43434
20182.37042
20182.30791
20182.24815
20182.19228
20182.14073
20182.09306
20182.04847
20182.00647
20181.96723
20181.93117
20181.89838
20181.86845
20181.84073
20181.81457
20181.78954
20181.76548
20181.74244
20181.72055
20181.69993
20181.6806
20181.66239
20181.64497
20181.62803
20181.61146
20181.59547
20181.58053
20181.56715
20181.55574
20181.5465
20181.53942
20181.5343
20181.53087
20181.52878
20181.52768
20181.52725
20181.52721
20181.52732
20181.52739
20181.52729
20181.52693
20181.52625
20181.52524
20181.52391
20181.52227
20181.52035
20181.51819
20181.51582
20181.51326
20181.51055
20181.50772
20181.50477
20181.50174
20181.49862
20181.49544
20181.4922
20181.48891
20181.48556
20181.48218
20181.47874
20181.47527
20181.47175
20181.46818
20181.46457
20181.46092
20181.45721
20181.45345
20181.44963
20181.44576
20181.44182
20181.43782
20181.43375
20181.4296
20181.42539
20181.42108
20181.4167
20181.41219
20181.41219
20183.01551
20183.01551
20183.01285
20183.00891
20183.00528
20183.00308
20183.00308
20183.00568
20183.01097
20183.01871
20183.0284
20183.03947
20183.05137
20183.06372
20183.0762
20183.08853
20183.10037
20183.11124
20183.12006
20183.12507
20183.11976
20183.10597
20183.07955
20183.06926
20183.09336
20183.13984
20183.12944
20182.98573
20182.79273
20182.58602
20182.37233
20182.15379
20181.93151
20181.70599
20181.47739
20181.24575
20181.01109
20180.77366
20180.53409
20180.29719
20180.03919
20179.87575
20179.79027
20179.68033
20179.53318
20179.37936
20179.25068
20179.18029
20179.19189
20179.29035
20179.45099
20179.62086
20179.72514
20179.69093
20179.49254
20179.22601
20178.99162
20178.79085
20178.58943
20178.45253
20178.4205
20178.45347
20178.59078
20178.80493
20178.9509
20178.99741
20179.01478
20179.09534
20179.14856
20179.10448
20179.08764
20179.13032
20179.14631
20179.08945
20178.9778