# vtk DataFile Version 2.0
FlowField
ASCII
DATASET STRUCTURED_GRID
DIMENSIONS 200 1 200
POINTS 40000 float
0 0 0
0.15 0 0
0.3 0 0
0.45 0 0
0.6 0 0
0.75 0 0
0.9 0 0
1.05 0 0
1.2 0 0
1.35 0 0
1.5 0 0
1.65 0 0
1.8 0 0
1.95 0 0
2.1 0 0
2.25 0 0
2.4 0 0
2.55 0 0
2.7 0 0
2.85 0 0
3 0 0
3.15 0 0
3.3 0 0
3.45 0 0
3.6 0 0
3.75 0 0
3.9 0 0
4.05 0 0
4.2 0 0
4.35 0 0
4.5 0 0
4.65 0 0
4.8 0 0
4.95 0 0
5.1 0 0
5.25 0 0
5.4 0 0
5.55 0 0
5.7 0 0
5.85 0 0
6 0 0
6.15 0 0
6.3 0 0
6.45 0 0
6.6 0 0
6.75 0 0
6.9 0 0
7.05 0 0
7.2 0 0
7.35 0 0
7.5 0 0
7.65 0 0
7.8 0 0
7.95 0 0
8.1 0 0
8.25 0 0
8.4 0 0
8.55 0 0
8.7 0 0
8.85 0 0
9 0 0
9.15 0 0
9.3 0 0
9.45 0 0
9.6 0 0
9.75 0 0
9.9 0 0
10.05 0 0
10.2 0 0
10.35 0 0
10.5 0 0
10.65 0 0
10.8 0 0
10.95 0 0
11.1 0 0
11.25 0 0
11.4 0 0
11.55 0 0
11.7 0 0
11.85 0 0
12 0 0
12.15 0 0
12.3 0 0
12.45 0 0
12.6 0 0
12.75 0 0
12.9 0 0
13.05 0 0
13.2 0 0
13.35 0 0
13.5 0 0
13.65 0 0
13.8 0 0
13.95 0 0
14.1 0 0
14.25 0 0
14.4 0 0
14.55 0 0
14.7 0 0
14.85 0 0
15 0 0
15.15 0 0
15.3 0 0
15.45 0 0
15.6 0 0
15.75 0 0
15.9 0 0
16.05 0 0
16.2 0 0
16.35 0 0
16.5 0 0
16.65 0 0
16.8 0 0
16.95 0 0
17.1 0 0
17.25 0 0
17.4 0 0
17.55 0 0
17.7 0 0
17.85 0 0
18 0 0
18.15 0 0
18.3 0 0
18.45 0 0
18.6 0 0
18.75 0 0
18.9 0 0
19.05 0 0
19.2 0 0
19.35 0 0
19.5 0 0
19.65 0 0
19.8 0 0
19.95 0 0
20.1 0 0
20.25 0 0
20.4 0 0
20.55 0 0
20.7 0 0
20.85 0 0
21 0 0
21.15 0 0
21.3 0 0
21.45 0 0
21.6 0 0
21.75 0 0
21.9 0 0
22.05 0 0
22.2 0 0
22.35 0 0
22.5 0 0
22.65 0 0
22.8 0 0
22.95 0 0
23.1 0 0
23.25 0 0
23.4 0 0
23.55 0 0
23.7 0 0
23.85 0 0
24 0 0
24.15 0 0
24.3 0 0
24.45 0 0
24.6 0 0
24.75 0 0
24.9 0 0
25.05 0 0
25.2 0 0
25.35 0 0
25.5 0 0
25.65 0 0
25.8 0 0
25.95 0 0
26.1 0 0
26.25 0 0
26.4 0 0
26.55 0 0
26.7 0 0
26.85 0 0
27 0 0
27.15 0 0
27.3 0 0
27.45 0 0
27.6 0 0
27.75 0 0
27.9 0 0
28.05 0 0
28.2 0 0
28.35 0 0
28.5 0 0
28.65 0 0
28.8 0 0
28.95 0 0
29.1 0 0
29.25 0 0
29.4 0 0
29.55 0 0
29.7 0 0
29.85 0 0
0 0.075 0
0.15 0.075 0
0.3 0.075 0
0.45 0.075 0
0.6 0.075 0
0.75 0.075 0
0.9 0.075 0
1.05 0.075 0
1.2 0.075 0
1.35 0.075 0
1.5 0.075 0
1.65 0.075 0
1.8 0.075 0
1.95 0.075 0
2.1 0.075 0
2.25 0.075 0
2.4 0.075 0
2.55 0.075 0
2.7 0.075 0
2.85 0.075 0
3 0.075 0
3.15 0.075 0
3.3 0.075 0
3.45 0.075 0
3.6 0.075 0
3.75 0.075 0
3.9 0.075 0
4.05 0.075 0
4.2 0.075 0
4.35 0.075 0
4.5 0.075 0
4.65 0.075 0
4.8 0.075 0
4.95 0.075 0
5.1 0.075 0
5.25 0.075 0
5.4 0.075 0
5.55 0.075 0
5.7 0.075 0
5.85 0.075 0
6 0.075 0
6.15 0.075 0
6.3 0.075 0
6.45 0.075 0
6.6 0.075 0
6.75 0.075 0
6.9 0.075 0
7.05 0.075 0
7.2 0.075 0
7.35 0.075 0
7.5 0.075 0
7.65 0.075 0
7.8 0.075 0
7.95 0.075 0
8.1 0.075 0
8.25 0.075 0
8.4 0.075 0
8.55 0.075 0
8.7 0.075 0
8.85 0.075 0
9 0.075 0
9.15 0.075 0
9.3 0.075 0
9.45 0.075 0
9.6 0.075 0
9.75 0.075 0
9.9 0.075 0
10.05 0.075 0
10.2 0.075 0
10.35 0.075 0
10.5 0.075 0
10.65 0.075 0
10.8 0.075 0
10.95 0.075 0
11.1 0.075 0
11.25 0.075 0
11.4 0.075 0
11.55 0.075 0
11.7 0.075 0
11.85 0.075 0
12 0.075 0
12.15 0.075 0
12.3 0.075 0
12.45 0.075 0
12.6 0.075 0
12.75 0.075 0
12.9 0.075 0
13.05 0.075 0
13.2 0.075 0
13.35 0.075 0
13.5 0.075 0
13.65 0.075 0
13.8 0.075 0
13.95 0.075 0
14.1 0.075 0
14.25 0.075 0
14.4 0.075 0
14.55 0.075 0
14.7 0.075 0
14.85 0.075 0
15 0.075 0
15.15 0.075 0
15.3 0.075 0
15.45 0.075 0
15.6 0.075 0
15.75 0.075 0
15.9 0.075 0
16.05 0.075 0
16.2 0.075 0
16.35 0.075 0
16.5 0.075 0
16.65 0.075 0
16.8 0.075 0
16.95 0.075 0
17.1 0.075 0
17.25 0.075 0
17.4 0.075 0
17.55 0.075 0
17.7 0.075 0
17.85 0.075 0
18 0.075 0
18.15 0.075 0
18.3 0.075 0
18.45 0.075 0
18.6 0.075 0
18.75 0.075 0
18.9 0.075 0
19.05 0.075 0
19.2 0.075 0
19.35 0.075 0
19.5 0.075 0
19.65 0.075 0
19.8 0.075 0
19.95 0.075 0
20.1 0.075 0
20.25 0.075 0
20.4 0.075 0
20.55 0.075 0
20.7 0.075 0
20.85 0.075 0
21 0.075 0
21.15 0.075 0
21.3 0.075 0
21.45 0.075 0
21.6 0.075 0
21.75 0.075 0
21.9 0.075 0
22.05 0.075 0
22.2 0.075 0
22.35 0.075 0
22.5 0.075 0
22.65 0.075 0
22.8 0.075 0
22.95 0.075 0
23.1 0.075 0
23.25 0.075 0
23.4 0.075 0
23.55 0.075 0
23.7 0.075 0
23.85 0.075 0
24 0.075 0
24.15 0.075 0
24.3 0.075 0
24.45 0.075 0
24.6 0.075 0
24.75 0.075 0
24.9 0.075 0
25.05 0.075 0
25.2 0.075 0
25.35 0.075 0
25.5 0.075 0
25.65 0.075 0
25.8 0.075 0
25.95 0.075 0
26.1 0.075 0
26.25 0.075 0
26.4 0.075 0
26.55 0.075 0
26.7 0.075 0
26.85 0.075 0
27 0.075 0
27.15 0.075 0
27.3 0.075 0
27.45 0.075 0
27.6 0.075 0
27.75 0.075 0
27.9 0.075 0
28.05 0.075 0
28.2 0.075 0
28.35 0.075 0
28.5 0.075 0
28.65 0.075 0
28.8 0.075 0
28.95 0.075 0
29.1 0.075 0
29.25 0.075 0
29.4 0.075 0
29.55 0.075 0
29.7 0.075 0
29.85 0.075 0
0 0.15 0
0.15 0.15 0
0.3 0.15 0
0.45 0.15 0
0.6 0.15 0
0.75 0.15 0
0.9 0.15 0
1.05 0.15 0
1.2 0.15 0
1.35 0.15 0
1.5 0.15 0
1.65 0.15 0
1.8 0.15 0
1.95 0.15 0
2.1 0.15 0
2.25 0.15 0
2.4 0.15 0
2.55 0.15 0
2.7 0.15 0
2.85 0.15 0
3 0.15 0
3.15 0.15 0
3.3 0.15 0
3.45 0.15 0
3.6 0.15 0
3.75 0.15 0
3.9 0.15 0
4.05 0.15 0
4.2 0.15 0
4.35 0.15 0
4.5 0.15 0
4.65 0.15 0
4.8 0.15 0
4.95 0.15 0
5.1 0.15 0
5.25 0.15 0
5.4 0.15 0
5.55 0.15 0
5.7 0.15 0
5.85 0.15 0
6 0.15 0
6.15 0.15 0
6.3 0.15 0
6.45 0.15 0
6.6 0.15 0
6.75 0.15 0
6.9 0.15 0
7.05 0.15 0
7.2 0.15 0
7.35 0.15 0
7.5 0.15 0
7.65 0.15 0
7.8 0.15 0
7.95 0.15 0
8.1 0.15 0
8.25 0.15 0
8.4 0.15 0
8.55 0.15 0
8.7 0.15 0
8.85 0.15 0
9 0.15 0
9.15 0.15 0
9.3 0.15 0
9.45 0.15 0
9.6 0.15 0
9.75 0.15 0
9.9 0.15 0
10.05 0.15 0
10.2 0.15 0
10.35 0.15 0
10.5 0.15 0
10.65 0.15 0
10.8 0.15 0
10.95 0.15 0
11.1 0.15 0
11.25 0.15 0
11.4 0.15 0
11.55 0.15 0
11.7 0.15 0
11.85 0.15 0
12 0.15 0
12.15 0.15 0
12.3 0.15 0
12.45 0.15 0
12.6 0.15 0
12.75 0.15 0
12.9 0.15 0
13.05 0.15 0
13.2 0.15 0
13.35 0.15 0
13.5 0.15 0
13.65 0.15 0
13.8 0.15 0
13.95 0.15 0
14.1 0.15 0
14.25 0.15 0
14.4 0.15 0
14.55 0.15 0
14.7 0.15 0
14.85 0.15 0
15 0.15 0
15.15 0.15 0
15.3 0.15 0
15.45 0.15 0
15.6 0.15 0
15.75 0.15 0
15.9 0.15 0
16.05 0.15 0
16.2 0.15 0
16.35 0.15 0
16.5 0.15 0
16.65 0.15 0
16.8 0.15 0
16.95 0.15 0
17.1 0.15 0
17.25 0.15 0
17.4 0.15 0
17.55 0.15 0
17.7 0.15 0
17.85 0.15 0
18 0.15 0
18.15 0.15 0
18.3 0.15 0
18.45 0.15 0
18.6 0.15 0
18.75 0.15 0
18.9 0.15 0
19.05 0.15 0
19.2 0.15 0
19.35 0.15 0
19.5 0.15 0
19.65 0.15 0
19.8 0.15 0
19.95 0.15 0
20.1 0.15 0
20.25 0.15 0
20.4 0.15 0
20.55 0.15 0
20.7 0.15 0
20.85 0.15 0
21 0.15 0
21.15 0.15 0
21.3 0.15 0
21.45 0.15 0
21.6 0.15 0
21.75 0.15 0
21.9 0.15 0
22.05 0.15 0
22.2 0.15 0
22.35 0.15 0
22.5 0.15 0
22.65 0.15 0
22.8 0.15 0
22.95 0.15 0
23.1 0.15 0
23.25 0.15 0
23.4 0.15 0
23.55 0.15 0
23.7 0.15 0
23.85 0.15 0
24 0.15 0
24.15 0.15 0
24.3 0.15 0
24.45 0.15 0
24.6 0.15 0
24.75 0.15 0
24.9 0.15 0
25.05 0.15 0
25.2 0.15 0
25.35 0.15 0
25.5 0.15 0
25.65 0.15 0
25.8 0.15 0
25.95 0.15 0
26.1 0.15 0
26.25 0.15 0
26.4 0.15 0
26.55 0.15 0
26.7 0.15 0
26.85 0.15 0
27 0.15 0
27.15 0.15 0
27.3 0.15 0
27.45 0.15 0
27.6 0.15 0
27.75 0.15 0
27.9 0.15 0
28.05 0.15 0
28.2 0.15 0
28.35 0.15 0
28.5 0.15 0
28.65 0.15 0
28.8 0.15 0
28.95 0.15 0
29.1 0.15 0
29.25 0.15 0
29.4 0.15 0
29.55 0.15 0
29.7 0.15 0
29.85 0.15 0
0 0.225 0
0.15 0.225 0
0.3 0.225 0
0.45 0.225 0
0.6 0.225 0
0.75 0.225 0
0.9 0.225 0
1.05 0.225 0
1.2 0.225 0
1.35 0.225 0
1.5 0.225 0
1.65 0.225 0
1.8 0.225 0
1.95 0.225 0
2.1 0.225 0
2.25 0.225 0
2.4 0.225 0
2.55 0.225 0
2.7 0.225 0
2.85 0.225 0
3 0.225 0
3.15 0.225 0
3.3 0.225 0
3.45 0.225 0
3.6 0.225 0
3.75 0.225 0
3.9 0.225 0
4.05 0.225 0
4.2 0.225 0
4.35 0.225 0
4.5 0.225 0
4.65 0.225 0
4.8 0.225 0
4.95 0.225 0
5.1 0.225 0
5.25 0.225 0
5.4 0.225 0
5.55 0.225 0
5.7 0.225 0
5.85 0.225 0
6 0.225 0
6.15 0.225 0
6.3 0.225 0
6.45 0.225 0
6.6 0.225 0
6.75 0.225 0
6.9 0.225 0
7.05 0.225 0
7.2 0.225 0
7.35 0.225 0
7.5 0.225 0
7.65 0.225 0
7.8 0.225 0
7.95 0.225 0
8.1 0.225 0
8.25 0.225 0
8.4 0.225 0
8.55 0.225 0
8.7 0.225 0
8.85 0.225 0
9 0.225 0
9.15 0.225 0
9.3 0.225 0
9.45 0.225 0
9.6 0.225 0
9.75 0.225 0
9.9 0.225 0
10.05 0.225 0
10.2 0.225 0
10.35 0.225 0
10.5 0.225 0
10.65 0.225 0
10.8 0.225 0
10.95 0.225 0
11.1 0.225 0
11.25 0.225 0
11.4 0.225 0
11.55 0.225 0
11.7 0.225 0
11.85 0.225 0
12 0.225 0
12.15 0.225 0
12.3 0.225 0
12.45 0.225 0
12.6 0.225 0
12.75 0.225 0
12.9 0.225 0
13.05 0.225 0
13.2 0.225 0
13.35 0.225 0
13.5 0.225 0
13.65 0.225 0
13.8 0.225 0
13.95 0.225 0
14.1 0.225 0
14.25 0.225 0
14.4 0.225 0
14.55 0.225 0
14.7 0.225 0
14.85 0.225 0
15 0.225 0
15.15 0.225 0
15.3 0.225 0
15.45 0.225 0
15.6 0.225 0
15.75 0.225 0
15.9 0.225 0
16.05 0.225 0
16.2 0.225 0
16.35 0.225 0
16.5 0.225 0
16.65 0.225 0
16.8 0.225 0
16.95 0.225 0
17.1 0.225 0
17.25 0.225 0
17.4 0.225 0
17.55 0.225 0
17.7 0.225 0
17.85 0.225 0
18 0.225 0
18.15 0.225 0
18.3 0.225 0
18.45 0.225 0
18.6 0.225 0
18.75 0.225 0
18.9 0.225 0
19.05 0.225 0
19.2 0.225 0
19.35 0.225 0
19.5 0.225 0
19.65 0.225 0
19.8 0.225 0
19.95 0.225 0
20.1 0.225 0
20.25 0.225 0
20.4 0.225 0
20.55 0.225 0
20.7 0.225 0
20.85 0.225 0
21 0.225 0
21.15 0.225 0
21.3 0.225 0
21.45 0.225 0
21.6 0.225 0
21.75 0.225 0
21.9 0.225 0
22.05 0.225 0
22.2 0.225 0
22.35 0.225 0
22.5 0.225 0
22.65 0.225 0
22.8 0.225 0
22.95 0.225 0
23.1 0.225 0
23.25 0.225 0
23.4 0.225 0
23.55 0.225 0
23.7 0.225 0
23.85 0.225 0
24 0.225 0
24.15 0.225 0
24.3 0.225 0
24.45 0.225 0
24.6 0.225 0
24.75 0.225 0
24.9 0.225 0
25.05 0.225 0
25.2 0.225 0
25.35 0.225 0
25.5 0.225 0
25.65 0.225 0
25.8 0.225 0
25.95 0.225 0
26.1 0.225 0
26.25 0.225 0
26.4 0.225 0
26.55 0.225 0
26.7 0.225 0
26.85 0.225 0
27 0.225 0
27.15 0.225 0
27.3 0.225 0
27.45 0.225 0
27.6 0.225 0
27.75 0.225 0
27.9 0.225 0
28.05 0.225 0
28.2 0.225 0
28.35 0.225 0
28.5 0.225 0
28.65 0.225 0
28.8 0.225 0
28.95 0.225 0
29.1 0.225 0
29.25 0.225 0
29.4 0.225 0
29.55 0.225 0
29.7 0.225 0
29.85 0.225 0
0 0.3 0
0.15 0.3 0
0.3 0.3 0
0.45 0.3 0
0.6 0.3 0
0.75 0.3 0
0.9 0.3 0
1.05 0.3 0
1.2 0.3 0
1.35 0.3 0
1.5 0.3 0
1.65 0.3 0
1.8 0.3 0
1.95 0.3 0
2.1 0.3 0
2.25 0.3 0
2.4 0.3 0
2.55 0.3 0
2.7 0.3 0
2.85 0.3 0
3 0.3 0
3.15 0.3 0
3.3 0.3 0
3.45 0.3 0
3.6 0.3 0
3.75 0.3 0
3.9 0.3 0
4.05 0.3 0
4.2 0.3 0
4.35 0.3 0
4.5 0.3 0
4.65 0.3 0
4.8 0.3 0
4.95 0.3 0
5.1 0.3 0
5.25 0.3 0
5.4 0.3 0
5.55 0.3 0
5.7 0.3 0
5.85 0.3 0
6 0.3 0
6.15 0.3 0
[...]
POINT_DATA 40000

SCALARS p float 1
LOOKUP_TABLE default
20183.65718
20183.65718
20183.6017
20183.57387
20183.55542
20183.54247
20183.53518
20183.53481
20183.54154
20183.55353
20183.56781
20183.58177
20183.59403
20183.60448
20183.61346
20183.62101
20183.62704
20183.63175
20183.6355
20183.63726
20183.63391
20183.62349
20183.59118
20183.52953
20183.59132
20184.04642
20183.91812
20183.53026
20183.27036
20183.0411
20182.81735
20182.5917
20182.36178
20182.1267
20181.88597
20181.63919
20181.38593
20181.1257
20180.85786
20180.58095
20180.28969
20180.1346
20180.1614
20180.16697
20180.19846
20180.27087
20180.39595
20180.54193
20180.65187
20180.701
20180.67882
20180.60569
20180.52168
20180.44967
20180.39629
20180.3629
20180.34011
20180.32174
20180.30477
20180.29399
20180.27005
20180.23446
20180.20408
20180.17718
20180.13933
20180.08713
20180.02715
20179.94587
20179.83725
20179.72226
20179.61688
20179.52072
20179.42974
20179.34538
20179.2729
20179.21679
20179.17947
20179.16182
20179.16436
20179.18735
20179.23132
20179.29682
20179.3848
20179.49626
20179.63231
20179.79367
20179.97946
20180.18702
20180.41163
20180.64726
20180.88672
20181.12452
20181.3574
20181.58478
20181.8073
20182.02588
20182.23947
20182.44349
20182.63259
20182.80249
20182.95745
20183.09845
20183.2226
20183.3199
20183.36683
20183.34842
20183.28903
20183.22912
20183.16297
20183.03219
20182.83676
20182.59032
20182.44144
20182.41596
20182.38375
20182.35475
20182.3387
20182.31332
20182.26105
20182.19152
20182.13488
20182.10344
20182.084
20182.06687
20182.05009
20182.03713
20182.03062
20182.02557
20182.01504
20181.99917
20181.98275
20181.96766
20181.95077
20181.92755
20181.8952
20181.85243
20181.79869
20181.73408
20181.65951
20181.57664
20181.48761
20181.39467
20181.29994
20181.20542
20181.11287
20181.02378
20180.93937
20180.86079
20180.78899
20180.72473
20180.66858
20180.62098
20180.58225
20180.55254
20180.53187
20180.52015
20180.51705
20180.52234
20180.53589
20180.55693
20180.58498
20180.61989
20180.66054
20180.7068
20180.75793
20180.81331
20180.87252
20180.93492
20181.00006
20181.06751
20181.13677
20181.20753
20181.2794
20181.35207
20181.4253
20181.49885
20181.57254
20181.64621
20181.71975
20181.79305
20181.86605
20181.9387
20182.01096
20182.08283
20182.1543
20182.22538
20182.2961
20182.36648
20182.43657
20182.50639
20182.57602
20182.6455
20182.71492
20182.78436
20182.85393
20182.92372
20182.9939
20183.06451
20183.13554
20183.13554
20183.65718
20183.65718
20183.6017
20183.57387
20183.55542
20183.54247
20183.53518
20183.53481
20183.54154
20183.55353
20183.56781
20183.58177
20183.59403
20183.60448
20183.61346
20183.62101
20183.62704
20183.63175
20183.6355
20183.63726
20183.63391
20183.62349
20183.59118
20183.52953
20183.59132
20184.04642
20183.91812
20183.53026
20183.27036
20183.0411
20182.81735
20182.5917
20182.36178
20182.1267
20181.88597
20181.63919
20181.38593
20181.1257
20180.85786
20180.58095
20180.28969
20180.1346
20180.1614
20180.16697
20180.19846
20180.27087
20180.39595
20180.54193
20180.65187
20180.701
20180.67882
20180.60569
20180.52168
20180.44967
20180.39629
20180.3629
20180.34011
20180.32174
20180.30477
20180.29399
20180.27005
20180.23446
20180.20408
20180.17718
20180.13933
20180.08713
20180.02715
20179.94587
20179.83725
20179.72226
20179.61688
20179.52072
20179.42974
20179.34538
20179.2729
20179.21679
20179.17947
20179.16182
20179.16436
20179.18735
20179.23132
20179.29682
20179.3848
20179.49626
20179.63231
20179.79367
20179.97946
20180.18702
20180.41163
20180.64726
20180.88672
20181.12452
20181.3574
20181.58478
20181.8073
20182.02588
20182.23947
20182.44349
20182.63259
20182.80249
20182.95745
20183.09845
20183.2226
20183.3199
20183.36683
20183.34842
20183.28903
20183.22912
20183.16297
20183.03219
20182.83676
20182.59032
20182.44144
20182.41596
20182.38375
20182.35475
20182.3387
20182.31332
20182.26105
20182.19152
20182.13488
20182.10344
20182.084
20182.06687
20182.05009
20182.03713
20182.03062
20182.02557
20182.01504
20181.99917
20181.98275
20181.96766
20181.95077
20181.92755
20181.8952
20181.85243
20181.79869
20181.73408
20181.65951
20181.57664
20181.48761
20181.39467
20181.29994
20181.20542
20181.11287
20181.02378
20180.93937
20180.86079
20180.78899
20180.72473
20180.66858
20180.62098
20180.58225
20180.55254
20180.53187
20180.52015
20180.51705
20180.52234
20180.53589
20180.55693
20180.58498
20180.61989
20180.66054
20180.7068
20180.75793
20180.81331
20180.87252
20180.93492
20181.00006
20181.06751
20181.13677
20181.20753
20181.2794
20181.35207
20181.4253
20181.49885
20181.57254
20181.64621
20181.71975
20181.79305
20181.86605
20181.9387
20182.01096
20182.08283
20182.1543
20182.22538
20182.2961
20182.36648
20182.43657
20182.50639
20182.57602
20182.6455
20182.71492
20182.78436
20182.85393
20182.92372
20182.9939
20183.06451
20183.13554
20183.13554
20183.6246
20183.6246
20183.59266
20183.56945
20183.55303
20183.54165
20183.5356
20183.53597
20183.54292
20183.55483
20183.56894
20183.58276
20183.59492
20183.60529
20183.61421
20183.62164
20183.62752
20183.63206
20183.63572
20183.63794
20183.63603
20183.62296
20183.57185
20183.48759
20183.49288
20183.80955
20183.76857
20183.4992
20183.26301
20183.0398
20182.81782
20182.59275
20182.36305
20182.12808
20181.88745
20181.64078
20181.38763
20181.12756
20180.86008
20180.58448
20180.29776
20180.16663
20180.16162
20180.16106
20180.18661
20180.25523
20180.37818
20180.52489
20180.64019
20180.69397
20180.67266
20180.59684
20180.51081
20180.44089
20180.39324
20180.36371
20180.34108
20180.32166
20180.30228
20180.28889
20180.26484
20180.23159
20180.20465
20180.17955
20180.14159
20180.08772
20180.02835
20179.95021
20179.84189
20179.72338
20179.61315
20179.51297
20179.41965
20179.3345
20179.2623
20179.20701
20179.17071
20179.15404
20179.15738
20179.18087
20179.22501
20179.29035
20179.37787
20179.48862
20179.62386
20179.78441
20179.9696
20180.1769
20180.4019
20180.63858
20180.87975
20181.11933
20181.35346
20181.58055
20181.8009
20182.01582
20182.2257
20182.42816
20182.6181
20182.79134
20182.94852
20183.09137
20183.21776
20183.31902
20183.37035
20183.34979
20183.28176
20183.20618
20183.12703
20183.00005
20182.80112
20182.56401
20182.43774
20182.41613
20182.38087
20182.35339
20182.34117
20182.31929
20182.26579
20182.19001
20182.1285
20182.09833
20182.0822
20182.06702
20182.05023
20182.036
20182.02872
20182.02412
20182.01411
20181.9983
20181.98195
20181.96736
20181.95116
20181.92857
20181.89675
20181.85441
20181.80094
20181.7364
20181.66173
20181.5786
20181.48918
20181.3958
20181.30062
20181.20566
20181.11273
20181.02329
20180.93859
20180.85975
20180.78774
20180.72331
20180.66702
20180.6193
20180.5805
20180.55074
20180.53005
20180.51832
20180.51521
20180.52054
20180.53416
20180.55521
20180.58339
20180.61834
20180.65908
20180.70544
20180.75665
20180.81212
20180.87142
20180.93392
20180.99914
20181.06669
20181.13604
20181.20688
20181.27883
20181.35157
20181.42488
20181.49849
20181.57225
20181.64598
20181.71958
20181.79293
20181.86597
20181.93866
20182.01096
20182.08286
20182.15435
20182.22546
20182.29619
20182.36659
20182.43668
20182.50651
20182.57613
20182.64561
20182.71502
20182.78443
20182.85397
20182.92373
20182.99386
20183.06444
20183.13549
20183.13549
20183.59896
20183.59896
20183.57949
20183.56155
20183.54793
20183.53861
20183.5341
20183.53524
20183.54216
20183.55364
20183.56749
20183.58147
20183.59417
20183.60519
20183.61455
20183.62216
20183.62807
20183.63255
20183.63634
20183.63935
20183.63805
20183.61867
20183.54619
20183.45464
20183.43573
20183.60648
20183.62096
20183.45999
20183.25285
20183.03832
20182.81911
20182.59497
20182.36563
20182.13087
20181.89044
20181.64398
20181.39107
20181.13128
20180.86436
20180.59069
20180.30917
20180.1832
20180.15722
20180.14466
20180.15931
20180.22139
20180.34104
20180.49021
20180.61622
20180.67847
20180.6574
20180.57456
20180.48287
20180.4159
20180.37904
20180.36067
20180.3446
20180.32668
20180.30325
20180.28238
20180.25225
20180.22238
20180.20611
20180.18583
20180.1463
20180.09007
20180.02263
20179.93563
20179.82256
20179.69982
20179.58429
20179.47977
20179.38515
20179.30154
20179.23247
20179.1808
20179.14797
20179.13432
20179.14004
20179.16515
20179.20999
20179.2752
20179.36188
20179.47132
20179.60493
20179.76384
20179.94787
20180.15494
20180.3811
20180.6203
20180.86517
20181.10849
20181.34508
20181.5719
20181.78877
20181.99762
20182.20113
20182.39981
20182.59012
20182.76894
20182.93142
20183.0774
20183.20529
20183.31141
20183.37283
20183.35044
20183.27019
20183.17344
20183.06438
20182.92752
20182.72863
20182.51509
20182.40183
20182.37421
20182.35717
20182.34716
20182.34319
20182.32673
20182.27096
20182.1841
20182.11344
20182.08464
20182.0754
20182.0659
20182.05196
20182.03699
20182.02732
20182.02137
20182.01128
20181.99599
20181.98077
20181.96756
20181.95247
20181.93059
20181.89916
20181.85681
20181.80282
20181.73736
20181.66161
20181.57745
20181.48716
20181.39305
20181.29729
20181.2019
20181.10864
20181.01897
20180.9341
20180.85514
20180.78305
20180.71859
20180.66229
20180.61459
20180.57584
20180.54615
20180.52555
20180.51393
20180.51096
20180.5165
20180.53027
20180.55151
20180.57994
20180.61506
20180.65607
20180.70265
20180.75409
20180.8098
20180.86931
20180.93204
20180.99745
20181.06521
20181.13473
20181.20575
20181.27787
20181.35076
20181.42421
20181.49795
20181.57183
20181.64566
20181.71935
20181.79278
20181.86589
20181.93863
20182.01098
20182.08292
20182.15444
20182.22557
20182.29632
20182.36672
20182.43681
20182.50664
20182.57625
20182.64571
20182.71509
20182.78446
20182.85396
20182.92366
20182.99375
20183.06428
20183.13541
20183.13541
20183.57835
20183.57835
20183.56595
20183.55238
20183.54138
20183.53392
20183.53069
20183.53235
20183.53899
20183.54975
20183.56297
20183.57687
20183.59015
20183.60217
20183.61264
20183.62127
20183.62794
20183.63288
20183.63701
20183.64063
20183.63864
20183.61328
20183.53045
20183.45313
20183.44141
20183.52539
20183.54545
20183.43247
20183.24541
20183.0383
20182.82173
20182.59853
20182.36958
20182.13509
20181.89494
20181.6488
20181.39623
20181.1368
20180.87039
20180.59821
20180.31675
20180.18425
20180.14444
20180.11734
20180.11767
20180.16902
20180.28289
20180.43574
20180.5778
20180.65219
20180.63193
20180.54079
20180.44272
20180.37868
20180.35425
20180.3535
20180.35261
20180.34067
20180.31309
20180.27741
20180.23307
20180.20663
20180.20575
20180.19173
20180.14407
20180.07554
20179.99245
20179.89132
20179.77173
20179.64672
20179.52952
20179.42461
20179.33226
20179.25334
20179.19005
20179.14419
20179.11655
20179.10719
20179.1161
20179.14334
20179.18907
20179.25398
20179.33946
20179.44705
20179.5784
20179.73495
20179.91727
20180.12376
20180.35098
20180.59293
20180.84192
20181.08965
20181.32934
20181.55681
20181.77098
20181.97402
20182.17005
20182.36234
20182.55063
20182.73413
20182.90525
20183.05606
20183.18219
20183.28805
20183.36148
20183.34148
20183.24127
20183.12432
20182.98307
20182.82233
20182.62422
20182.42468
20182.31463
20182.28722
20182.29576
20182.31767
20182.33454
20182.32853
20182.27079
20182.16856
20182.08423
20182.05643
20182.05923
20182.06131
20182.05482
20182.0412
20182.02787
20182.01786
20182.00608
20181.99146
20181.97842
20181.96756
20181.95397
20181.93255
20181.90067
20181.85708
20181.80133
20181.734
20181.65662
20181.57125
20181.48014
20181.38552
20181.28948
20181.19398
20181.10069
20181.01104
20180.92622
20180.84733
20180.77533
20180.71095
20180.65475
20180.60717
20180.56855
20180.53901
20180.51858
20180.50714
20180.50443
20180.51026
20180.52427
20180.54583
20180.57463
20180.61005
20180.65143
20180.69836
20180.75014
20180.80621
20180.86606
20180.92911
20180.99483
20181.0629
20181.13268
20181.20399
20181.27634
20181.34945
20181.42312
20181.49704
20181.57109
20181.64507
20181.71889
20181.79243
20181.86564
20181.93846
20182.01088
20182.08286
20182.15443
20182.22559
20182.29636
20182.36677
20182.43688
20182.5067
20182.57631
20182.64576
20182.71513
20182.78448
20182.85395
20182.92362
20182.99369
20183.06418
20183.13538
20183.13538
20183.561
20183.561
20183.55281
20183.54269
20183.53401
20183.52815
20183.52593
20183.52789
20183.53411
20183.54397
20183.55626
20183.56964
20183.58304
20183.59577
20183.60739
20183.61745
20183.62563
20183.63188
20183.63679
20183.64041
20183.63677
20183.60931
20183.52862
20183.46833
20183.46855
20183.51839
20183.52956
20183.42308
20183.24418
20183.0411
20182.82615
20182.60356
20182.37492
20182.14073
20181.90095
20181.65524
20181.40311
20181.14408
20180.87797
20180.6064
20180.31974
20180.17269
20180.12046
20180.07804
20180.0611
20180.09723
20180.20232
20180.35964
20180.52132
20180.61098
20180.59144
20180.49165
20180.38962
20180.3322
20180.32257
20180.34266
20180.36317
20180.36218
20180.33295
20180.27719
20180.21165
20180.18633
20180.19553
20180.17885
20180.11851
20180.03301
20179.93272
20179.81986
20179.69689
20179.57342
20179.45889
20179.35756
20179.27034
20179.19796
20179.14166
20179.10249
20179.08066
20179.07595
20179.08826
20179.11762
20179.16411
20179.22847
20179.31234
20179.41756
20179.54609
20179.69981
20179.87997
20180.08563
20180.31377
20180.55855
20180.8116
20181.06355
20181.30603
20181.53411
20181.7462
20181.94488
20182.13475
20182.32017
20182.50331
20182.68687
20182.86678
20183.0254
20183.15105
20183.24688
20183.32053
20183.31398
20183.19354
20183.04852
20182.87803
20182.68348
20182.48239
20182.29563
20182.19101
20182.16263
20182.18905
20182.24871
20182.29998
20182.31234
20182.25643
20182.14013
20182.04139
20182.01369
20182.03178
20182.05155
20182.05668
20182.0466
20182.02976
20182.0142
20181.99933
20181.98513
20181.97477
20181.9667
20181.95449
20181.93276
20181.89922
20181.8532
20181.7949
20181.72544
20181.64656
20181.56032
20181.46881
20181.37411
20181.27818
20181.18286
20181.08978
20181.00032
20180.91567
20180.83692
20180.76505
20180.70079
20180.64471
20180.59727
20180.55879
20180.52942
20180.5092
20180.498
20180.4956
20180.50179
20180.51615
20180.53812
20180.56739
20180.60321
20180.64507
20180.69249
20180.74469
20180.80123
20180.86153
20180.92498
20180.99113
20181.0596
20181.12972
20181.20141
20181.27406
20181.34748
20181.42142
20181.49559
20181.56986
20181.64404
20181.71804
20181.79173
20181.86508
20181.93801
20182.01052
20182.08257
20182.15421
20182.2254
20182.29622
20182.36666
20182.43679
20182.50663
20182.57627
20182.64573
20182.71512
20182.78449
20182.85399
20182.92367
20182.99378
20183.06427
20183.13553
20183.13553
20183.54578
20183.54578
20183.54023
20183.53275
20183.52607
20183.5216
20183.5202
20183.52237
20183.52817
20183.53714
20183.5484
20183.56097
20183.57398
20183.58685
20183.59913
20183.61037
20183.62014
20183.62813
20183.63424
20183.6376
20183.63241
20183.60657
20183.53909
20183.4951
20183.50616
20183.54824
20183.54819
20183.43036
20183.25024
20183.04743
20182.83267
20182.61017
20182.38168
20182.14778
20181.90844
20181.66329
20181.41173
20181.15314
20180.88708
20180.61535
20180.31936
20180.15115
20180.08444
20180.02606
20179.9894
20180.00672
20180.09998
20180.26055
20180.44155
20180.54845
20180.5283
20180.42003
20180.31869
20180.27508
20180.28574
20180.32898
20180.37386
20180.38804
20180.36022
20180.28576
20180.19931
20180.16706
20180.16994
20180.13931
20180.06363
20179.96311
20179.85096
20179.73199
20179.60948
20179.49023
20179.38094
20179.28534
20179.20458
20179.13933
20179.09027
20179.0579
20179.04195
20179.04193
20179.05758
20179.08886
20179.13585
20179.19934
20179.28113
20179.38339
20179.50851
20179.65887
20179.83641
20180.04103
20180.27016
20180.51809
20180.77553
20181.03169
20181.27665
20181.50472
20181.71461
20181.90966
20182.0952
20182.27556
20182.4526
20182.63025
20182.81238
20182.97923
20183.11049
20183.19877
20183.25494
20183.25255
20183.12738
20182.94911
20182.74692
20182.52051
20182.31174
20182.13683
20182.03979
20182.01151
20182.04592
20182.13448
20182.22716
20182.26726
20182.22149
20182.10103
20181.99331
20181.96401
20181.99573
20182.03684
20182.05624
20182.05033
20182.03066
20182.01001
20181.99203
20181.97828
20181.97052
20181.96471
20181.95292
20181.92974
20181.89356
20181.8446
20181.78378
20181.71254
20181.63264
20181.54598
20181.45445
20181.35995
20181.26432
20181.1693
20181.07648
20180.98723
20180.90274
20180.82413
20180.75236
20180.68819
20180.63219
20180.58487
20180.54653
20180.51735
20180.49736
20180.48645
20180.48441
20180.49102
20180.50582
20180.52831
20180.55811
20180.59446
20180.63691
20180.68489
20180.73765
20180.79476
20180.8556
20180.91956
20180.98623
20181.05518
20181.12574
20181.1979
20181.27091
20181.34471
20181.41901
20181.49349
20181.56805
20181.64248
20181.71671
20181.79059
20181.86411
20181.93718
20182.00981
20182.08197
20182.15369
20182.22495
20182.29583
20182.36632
20182.43651
20182.50639
20182.57608
20182.64559
20182.71505
20182.78448
20182.85409
20182.92385
20182.99407
20183.06464
20183.13597
20183.13597
20183.53202
20183.53202
20183.52818
20183.5227
20183.51767
20183.5144
20183.51371
20183.51605
20183.52149
20183.52969
20183.54
20183.55167
20183.56402
20183.57657
20183.58894
20183.60077
20183.61164
20183.62108
20183.62841
20183.63191
20183.62573
20183.60373
20183.5558
20183.5285
20183.5465
20183.59024
20183.58318
20183.45005
20183.26304
20183.05731
20182.84131
20182.61832
20182.3898
20182.1562
20181.91741
20181.67295
20181.42211
20181.16406
20180.89787
20180.6256
20180.31765
20180.12247
20180.0372
20179.9621
20179.90438
20179.90065
20179.97963
20180.14041
20180.33649
20180.45957
20180.43669
20180.32092
20180.22575
20180.20451
20180.24323
20180.31252
20180.38236
20180.41466
20180.3909
20180.30513
20180.20362
20180.15354
20180.13085
20180.07711
20179.98625
20179.87561
20179.75755
20179.63693
20179.51715
20179.40311
20179.29988
20179.21062
20179.13667
20179.07858
20179.03668
20179.01101
20179.00089
20179.00555
20179.02444
20179.05744
20179.10463
20179.16686
20179.24603
20179.34461
20179.46555
20179.61174
20179.78591
20179.98891
20180.21881
20180.47007
20180.73259
20180.99364
20181.24157
20181.46985
20181.67768
20181.86924
20182.05094
20182.22787
20182.40128
20182.57088
20182.74638
20182.91498
20183.05014
20183.14124
20183.18131
20183.16053
20183.03511
20182.82854
20182.58982
20182.33936
20182.12771
20181.96291
20181.87095
20181.84547
20181.87972
20181.98294
20182.11316
20182.18877
20182.16446
20182.05455
20181.94708
20181.91552
20181.95645
20182.01792
20182.05234
20182.05064
20182.02923
20182.00533
20181.98563
20181.97279
20181.96694
20181.96183
20181.94883
20181.92308
20181.88384
20181.8321
20181.7692
20181.69667
20181.61614
20181.52931
20181.4379
20181.34366
20181.24832
20181.15357
20181.06096
20180.97187
20180.8875
20180.80896
20180.73723
20180.6731
20180.61716
20180.56992
20180.53171
20180.50272
20180.483
20180.47242
20180.47081
20180.47789
20180.49323
20180.51633
20180.54675
20180.58375
20180.62689
20180.67553
20180.72895
20180.78675
20180.84821
20180.91278
20180.98008
20181.04956
20181.12069
20181.19337
20181.26683
20181.3411
20181.41581
20181.49066
20181.56557
20181.64032
20181.71484
20181.78895
20181.86269
20181.93594
20182.00873
20182.08101
20182.15285
20182.2242
20182.29517
20182.36572
20182.43598
20182.50593
20182.57571
20182.6453
20182.71488
20182.78443
20182.85419
20182.92412
20182.99455
20183.06531
20183.13682
20183.13682
20183.51925
20183.51925
20183.51657
20183.5126
20183.50892
20183.50667
20183.50658
20183.50907
20183.51422
20183.52179
20183.53128
20183.5421
20183.55372
20183.56573
20183.57781
20183.58969
20183.60103
20183.61133
20183.61958
20183.6238
20183.61773
20183.60192
20183.57281
20183.56152
20183.58647
20183.63419
20183.62385
20183.47786
20183.2812
20183.0703
20182.85189
20182.62791
20182.3992
20182.16593
20181.92781
20181.68422
20181.43431
20181.17697
20180.9106
20180.63792
20180.31714
20180.09032
20179.9814
20179.88857
20179.80991
20179.78453
20179.84789
20180.00558
20180.21056
20180.34473
20180.31744
20180.19586
20180.11134
20180.11976
20180.19394
20180.29251
20180.38578
20180.43566
20180.4184
20180.32915
20180.21644
20180.13868
20180.07989
20180.00062
20179.89675
20179.78012
20179.65975
20179.53964
20179.42319
20179.31416
20179.2168
20179.1338
20179.06661
20179.01564
20178.98089
20178.96191
20178.95767