# vtk DataFile Version 2.0
FlowField
ASCII
DATASET STRUCTURED_GRID
DIMENSIONS 200 1 200
POINTS 40000 float
0 0 0
0.15 0 0
0.3 0 0
0.45 0 0
0.6 0 0
0.75 0 0
0.9 0 0
1.05 0 0
1.2 0 0
1.35 0 0
1.5 0 0
1.65 0 0
1.8 0 0
1.95 0 0
2.1 0 0
2.25 0 0
2.4 0 0
2.55 0 0
2.7 0 0
2.85 0 0
3 0 0
3.15 0 0
3.3 0 0
3.45 0 0
3.6 0 0
3.75 0 0
3.9 0 0
4.05 0 0
4.2 0 0
4.35 0 0
4.5 0 0
4.65 0 0
4.8 0 0
4.95 0 0
5.1 0 0
5.25 0 0
5.4 0 0
5.55 0 0
5.7 0 0
5.85 0 0
6 0 0
6.15 0 0
6.3 0 0
6.45 0 0
6.6 0 0
6.75 0 0
6.9 0 0
7.05 0 0
7.2 0 0
7.35 0 0
7.5 0 0
7.65 0 0
7.8 0 0
7.95 0 0
8.1 0 0
8.25 0 0
8.4 0 0
8.55 0 0
8.7 0 0
8.85 0 0
9 0 0
9.15 0 0
9.3 0 0
9.45 0 0
9.6 0 0
9.75 0 0
9.9 0 0
10.05 0 0
10.2 0 0
10.35 0 0
10.5 0 0
10.65 0 0
10.8 0 0
10.95 0 0
11.1 0 0
11.25 0 0
11.4 0 0
11.55 0 0
11.7 0 0
11.85 0 0
12 0 0
12.15 0 0
12.3 0 0
12.45 0 0
12.6 0 0
12.75 0 0
12.9 0 0
13.05 0 0
13.2 0 0
13.35 0 0
13.5 0 0
13.65 0 0
13.8 0 0
13.95 0 0
14.1 0 0
14.25 0 0
14.4 0 0
14.55 0 0
14.7 0 0
14.85 0 0
15 0 0
15.15 0 0
15.3 0 0
15.45 0 0
15.6 0 0
15.75 0 0
15.9 0 0
16.05 0 0
16.2 0 0
16.35 0 0
16.5 0 0
16.65 0 0
16.8 0 0
16.95 0 0
17.1 0 0
17.25 0 0
17.4 0 0
17.55 0 0
17.7 0 0
17.85 0 0
18 0 0
18.15 0 0
18.3 0 0
18.45 0 0
18.6 0 0
18.75 0 0
18.9 0 0
19.05 0 0
19.2 0 0
19.35 0 0
19.5 0 0
19.65 0 0
19.8 0 0
19.95 0 0
20.1 0 0
20.25 0 0
20.4 0 0
20.55 0 0
20.7 0 0
20.85 0 0
21 0 0
21.15 0 0
21.3 0 0
21.45 0 0
21.6 0 0
21.75 0 0
21.9 0 0
22.05 0 0
22.2 0 0
22.35 0 0
22.5 0 0
22.65 0 0
22.8 0 0
22.95 0 0
23.1 0 0
23.25 0 0
23.4 0 0
23.55 0 0
23.7 0 0
23.85 0 0
24 0 0
24.15 0 0
24.3 0 0
24.45 0 0
24.6 0 0
24.75 0 0
24.9 0 0
25.05 0 0
25.2 0 0
25.35 0 0
25.5 0 0
25.65 0 0
25.8 0 0
25.95 0 0
26.1 0 0
26.25 0 0
26.4 0 0
26.55 0 0
26.7 0 0
26.85 0 0
27 0 0
27.15 0 0
27.3 0 0
27.45 0 0
27.6 0 0
27.75 0 0
27.9 0 0
28.05 0 0
28.2 0 0
28.35 0 0
28.5 0 0
28.65 0 0
28.8 0 0
28.95 0 0
29.1 0 0
29.25 0 0
29.4 0 0
29.55 0 0
29.7 0 0
29.85 0 0
0 0.075 0
0.15 0.075 0
0.3 0.075 0
0.45 0.075 0
0.6 0.075 0
0.75 0.075 0
0.9 0.075 0
1.05 0.075 0
1.2 0.075 0
1.35 0.075 0
1.5 0.075 0
1.65 0.075 0
1.8 0.075 0
1.95 0.075 0
2.1 0.075 0
2.25 0.075 0
2.4 0.075 0
2.55 0.075 0
2.7 0.075 0
2.85 0.075 0
3 0.075 0
3.15 0.075 0
3.3 0.075 0
3.45 0.075 0
3.6 0.075 0
3.75 0.075 0
3.9 0.075 0
4.05 0.075 0
4.2 0.075 0
4.35 0.075 0
4.5 0.075 0
4.65 0.075 0
4.8 0.075 0
4.95 0.075 0
5.1 0.075 0
5.25 0.075 0
5.4 0.075 0
5.55 0.075 0
5.7 0.075 0
5.85 0.075 0
6 0.075 0
6.15 0.075 0
6.3 0.075 0
6.45 0.075 0
6.6 0.075 0
6.75 0.075 0
6.9 0.075 0
7.05 0.075 0
7.2 0.075 0
7.35 0.075 0
7.5 0.075 0
7.65 0.075 0
7.8 0.075 0
7.95 0.075 0
8.1 0.075 0
8.25 0.075 0
8.4 0.075 0
8.55 0.075 0
8.7 0.075 0
8.85 0.075 0
9 0.075 0
9.15 0.075 0
9.3 0.075 0
9.45 0.075 0
9.6 0.075 0
9.75 0.075 0
9.9 0.075 0
10.05 0.075 0
10.2 0.075 0
10.35 0.075 0
10.5 0.075 0
10.65 0.075 0
10.8 0.075 0
10.95 0.075 0
11.1 0.075 0
11.25 0.075 0
11.4 0.075 0
11.55 0.075 0
11.7 0.075 0
11.85 0.075 0
12 0.075 0
12.15 0.075 0
12.3 0.075 0
12.45 0.075 0
12.6 0.075 0
12.75 0.075 0
12.9 0.075 0
13.05 0.075 0
13.2 0.075 0
13.35 0.075 0
13.5 0.075 0
13.65 0.075 0
13.8 0.075 0
13.95 0.075 0
14.1 0.075 0
14.25 0.075 0
14.4 0.075 0
14.55 0.075 0
14.7 0.075 0
14.85 0.075 0
15 0.075 0
15.15 0.075 0
15.3 0.075 0
15.45 0.075 0
15.6 0.075 0
15.75 0.075 0
15.9 0.075 0
16.05 0.075 0
16.2 0.075 0
16.35 0.075 0
16.5 0.075 0
16.65 0.075 0
16.8 0.075 0
16.95 0.075 0
17.1 0.075 0
17.25 0.075 0
17.4 0.075 0
17.55 0.075 0
17.7 0.075 0
17.85 0.075 0
18 0.075 0
18.15 0.075 0
18.3 0.075 0
18.45 0.075 0
18.6 0.075 0
18.75 0.075 0
18.9 0.075 0
19.05 0.075 0
19.2 0.075 0
19.35 0.075 0
19.5 0.075 0
19.65 0.075 0
19.8 0.075 0
19.95 0.075 0
20.1 0.075 0
20.25 0.075 0
20.4 0.075 0
20.55 0.075 0
20.7 0.075 0
20.85 0.075 0
21 0.075 0
21.15 0.075 0
21.3 0.075 0
21.45 0.075 0
21.6 0.075 0
21.75 0.075 0
21.9 0.075 0
22.05 0.075 0
22.2 0.075 0
22.35 0.075 0
22.5 0.075 0
22.65 0.075 0
22.8 0.075 0
22.95 0.075 0
23.1 0.075 0
23.25 0.075 0
23.4 0.075 0
23.55 0.075 0
23.7 0.075 0
23.85 0.075 0
24 0.075 0
24.15 0.075 0
24.3 0.075 0
24.45 0.075 0
24.6 0.075 0
24.75 0.075 0
24.9 0.075 0
25.05 0.075 0
25.2 0.075 0
25.35 0.075 0
25.5 0.075 0
25.65 0.075 0
25.8 0.075 0
25.95 0.075 0
26.1 0.075 0
26.25 0.075 0
26.4 0.075 0
26.55 0.075 0
26.7 0.075 0
26.85 0.075 0
27 0.075 0
27.15 0.075 0
27.3 0.075 0
27.45 0.075 0
27.6 0.075 0
27.75 0.075 0
27.9 0.075 0
28.05 0.075 0
28.2 0.075 0
28.35 0.075 0
28.5 0.075 0
28.65 0.075 0
28.8 0.075 0
28.95 0.075 0
29.1 0.075 0
29.25 0.075 0
29.4 0.075 0
29.55 0.075 0
29.7 0.075 0
29.85 0.075 0
0 0.15 0
0.15 0.15 0
0.3 0.15 0
0.45 0.15 0
0.6 0.15 0
0.75 0.15 0
0.9 0.15 0
1.05 0.15 0
1.2 0.15 0
1.35 0.15 0
1.5 0.15 0
1.65 0.15 0
1.8 0.15 0
1.95 0.15 0
2.1 0.15 0
2.25 0.15 0
2.4 0.15 0
2.55 0.15 0
2.7 0.15 0
2.85 0.15 0
3 0.15 0
3.15 0.15 0
3.3 0.15 0
3.45 0.15 0
3.6 0.15 0
3.75 0.15 0
3.9 0.15 0
4.05 0.15 0
4.2 0.15 0
4.35 0.15 0
4.5 0.15 0
4.65 0.15 0
4.8 0.15 0
4.95 0.15 0
5.1 0.15 0
5.25 0.15 0
5.4 0.15 0
5.55 0.15 0
5.7 0.15 0
5.85 0.15 0
6 0.15 0
6.15 0.15 0
6.3 0.15 0
6.45 0.15 0
6.6 0.15 0
6.75 0.15 0
6.9 0.15 0
7.05 0.15 0
7.2 0.15 0
7.35 0.15 0
7.5 0.15 0
7.65 0.15 0
7.8 0.15 0
7.95 0.15 0
8.1 0.15 0
8.25 0.15 0
8.4 0.15 0
8.55 0.15 0
8.7 0.15 0
8.85 0.15 0
9 0.15 0
9.15 0.15 0
9.3 0.15 0
9.45 0.15 0
9.6 0.15 0
9.75 0.15 0
9.9 0.15 0
10.05 0.15 0
10.2 0.15 0
10.35 0.15 0
10.5 0.15 0
10.65 0.15 0
10.8 0.15 0
10.95 0.15 0
11.1 0.15 0
11.25 0.15 0
11.4 0.15 0
11.55 0.15 0
11.7 0.15 0
11.85 0.15 0
12 0.15 0
12.15 0.15 0
12.3 0.15 0
12.45 0.15 0
12.6 0.15 0
12.75 0.15 0
12.9 0.15 0
13.05 0.15 0
13.2 0.15 0
13.35 0.15 0
13.5 0.15 0
13.65 0.15 0
13.8 0.15 0
13.95 0.15 0
14.1 0.15 0
14.25 0.15 0
14.4 0.15 0
14.55 0.15 0
14.7 0.15 0
14.85 0.15 0
15 0.15 0
15.15 0.15 0
15.3 0.15 0
15.45 0.15 0
15.6 0.15 0
15.75 0.15 0
15.9 0.15 0
16.05 0.15 0
16.2 0.15 0
16.35 0.15 0
16.5 0.15 0
16.65 0.15 0
16.8 0.15 0
16.95 0.15 0
17.1 0.15 0
17.25 0.15 0
17.4 0.15 0
17.55 0.15 0
17.7 0.15 0
17.85 0.15 0
18 0.15 0
18.15 0.15 0
18.3 0.15 0
18.45 0.15 0
18.6 0.15 0
18.75 0.15 0
18.9 0.15 0
19.05 0.15 0
19.2 0.15 0
19.35 0.15 0
19.5 0.15 0
19.65 0.15 0
19.8 0.15 0
19.95 0.15 0
20.1 0.15 0
20.25 0.15 0
20.4 0.15 0
20.55 0.15 0
20.7 0.15 0
20.85 0.15 0
21 0.15 0
21.15 0.15 0
21.3 0.15 0
21.45 0.15 0
21.6 0.15 0
21.75 0.15 0
21.9 0.15 0
22.05 0.15 0
22.2 0.15 0
22.35 0.15 0
22.5 0.15 0
22.65 0.15 0
22.8 0.15 0
22.95 0.15 0
23.1 0.15 0
23.25 0.15 0
23.4 0.15 0
23.55 0.15 0
23.7 0.15 0
23.85 0.15 0
24 0.15 0
24.15 0.15 0
24.3 0.15 0
24.45 0.15 0
24.6 0.15 0
24.75 0.15 0
24.9 0.15 0
25.05 0.15 0
25.2 0.15 0
25.35 0.15 0
25.5 0.15 0
25.65 0.15 0
25.8 0.15 0
25.95 0.15 0
26.1 0.15 0
26.25 0.15 0
26.4 0.15 0
26.55 0.15 0
26.7 0.15 0
26.85 0.15 0
27 0.15 0
27.15 0.15 0
27.3 0.15 0
27.45 0.15 0
27.6 0.15 0
27.75 0.15 0
27.9 0.15 0
28.05 0.15 0
28.2 0.15 0
28.35 0.15 0
28.5 0.15 0
28.65 0.15 0
28.8 0.15 0
28.95 0.15 0
29.1 0.15 0
29.25 0.15 0
29.4 0.15 0
29.55 0.15 0
29.7 0.15 0
29.85 0.15 0
0 0.225 0
0.15 0.225 0
0.3 0.225 0
0.45 0.225 0
0.6 0.225 0
0.75 0.225 0
0.9 0.225 0
1.05 0.225 0
1.2 0.225 0
1.35 0.225 0
1.5 0.225 0
1.65 0.225 0
1.8 0.225 0
1.95 0.225 0
2.1 0.225 0
2.25 0.225 0
2.4 0.225 0
2.55 0.225 0
2.7 0.225 0
2.85 0.225 0
3 0.225 0
3.15 0.225 0
3.3 0.225 0
3.45 0.225 0
3.6 0.225 0
3.75 0.225 0
3.9 0.225 0
4.05 0.225 0
4.2 0.225 0
4.35 0.225 0
4.5 0.225 0
4.65 0.225 0
4.8 0.225 0
4.95 0.225 0
5.1 0.225 0
5.25 0.225 0
5.4 0.225 0
5.55 0.225 0
5.7 0.225 0
5.85 0.225 0
6 0.225 0
6.15 0.225 0
6.3 0.225 0
6.45 0.225 0
6.6 0.225 0
6.75 0.225 0
6.9 0.225 0
7.05 0.225 0
7.2 0.225 0
7.35 0.225 0
7.5 0.225 0
7.65 0.225 0
7.8 0.225 0
7.95 0.225 0
8.1 0.225 0
8.25 0.225 0
8.4 0.225 0
8.55 0.225 0
8.7 0.225 0
8.85 0.225 0
9 0.225 0
9.15 0.225 0
9.3 0.225 0
9.45 0.225 0
9.6 0.225 0
9.75 0.225 0
9.9 0.225 0
10.05 0.225 0
10.2 0.225 0
10.35 0.225 0
10.5 0.225 0
10.65 0.225 0
10.8 0.225 0
10.95 0.225 0
11.1 0.225 0
11.25 0.225 0
11.4 0.225 0
11.55 0.225 0
11.7 0.225 0
11.85 0.225 0
12 0.225 0
12.15 0.225 0
12.3 0.225 0
12.45 0.225 0
12.6 0.225 0
12.75 0.225 0
12.9 0.225 0
13.05 0.225 0
13.2 0.225 0
13.35 0.225 0
13.5 0.225 0
13.65 0.225 0
13.8 0.225 0
13.95 0.225 0
14.1 0.225 0
14.25 0.225 0
14.4 0.225 0
14.55 0.225 0
14.7 0.225 0
14.85 0.225 0
15 0.225 0
15.15 0.225 0
15.3 0.225 0
15.45 0.225 0
15.6 0.225 0
15.75 0.225 0
15.9 0.225 0
16.05 0.225 0
16.2 0.225 0
16.35 0.225 0
16.5 0.225 0
16.65 0.225 0
16.8 0.225 0
16.95 0.225 0
17.1 0.225 0
17.25 0.225 0
17.4 0.225 0
17.55 0.225 0
17.7 0.225 0
17.85 0.225 0
18 0.225 0
18.15 0.225 0
18.3 0.225 0
18.45 0.225 0
18.6 0.225 0
18.75 0.225 0
18.9 0.225 0
19.05 0.225 0
19.2 0.225 0
19.35 0.225 0
19.5 0.225 0
19.65 0.225 0
19.8 0.225 0
19.95 0.225 0
20.1 0.225 0
20.25 0.225 0
20.4 0.225 0
20.55 0.225 0
20.7 0.225 0
20.85 0.225 0
21 0.225 0
21.15 0.225 0
21.3 0.225 0
21.45 0.225 0
21.6 0.225 0
21.75 0.225 0
21.9 0.225 0
22.05 0.225 0
22.2 0.225 0
22.35 0.225 0
22.5 0.225 0
22.65 0.225 0
22.8 0.225 0
22.95 0.225 0
23.1 0.225 0
23.25 0.225 0
23.4 0.225 0
23.55 0.225 0
23.7 0.225 0
23.85 0.225 0
24 0.225 0
24.15 0.225 0
24.3 0.225 0
24.45 0.225 0
24.6 0.225 0
24.75 0.225 0
24.9 0.225 0
25.05 0.225 0
25.2 0.225 0
25.35 0.225 0
25.5 0.225 0
25.65 0.225 0
25.8 0.225 0
25.95 0.225 0
26.1 0.225 0
26.25 0.225 0
26.4 0.225 0
26.55 0.225 0
26.7 0.225 0
26.85 0.225 0
27 0.225 0
27.15 0.225 0
27.3 0.225 0
27.45 0.225 0
27.6 0.225 0
27.75 0.225 0
27.9 0.225 0
28.05 0.225 0
28.2 0.225 0
28.35 0.225 0
28.5 0.225 0
28.65 0.225 0
28.8 0.225 0
28.95 0.225 0
29.1 0.225 0
29.25 0.225 0
29.4 0.225 0
29.55 0.225 0
29.7 0.225 0
29.85 0.225 0
0 0.3 0
0.15 0.3 0
0.3 0.3 0
0.45 0.3 0
0.6 0.3 0
0.75 0.3 0
0.9 0.3 0
1.05 0.3 0
1.2 0.3 0
1.35 0.3 0
1.5 0.3 0
1.65 0.3 0
1.8 0.3 0
1.95 0.3 0
2.1 0.3 0
2.25 0.3 0
2.4 0.3 0
2.55 0.3 0
2.7 0.3 0
2.85 0.3 0
3 0.3 0
3.15 0.3 0
3.3 0.3 0
3.45 0.3 0
3.6 0.3 0
3.75 0.3 0
3.9 0.3 0
4.05 0.3 0
4.2 0.3 0
4.35 0.3 0
4.5 0.3 0
4.65 0.3 0
4.8 0.3 0
4.95 0.3 0
5.1 0.3 0
5.25 0.3 0
5.4 0.3 0
5.55 0.3 0
5.7 0.3 0
5.85 0.3 0
6 0.3 0
6.15 0.3 0
[...]
POINT_DATA 40000

SCALARS p float 1
LOOKUP_TABLE default
20185.71374
20185.71374
20185.65847
20185.63103
20185.61311
20185.60084
20185.59442
20185.59513
20185.60308
20185.61642
20185.63223
20185.64796
20185.66219
20185.67475
20185.68597
20185.6959
20185.70445
20185.71177
20185.71814
20185.72264
20185.72224
20185.71419
20185.68214
20185.62374
20185.69588
20186.12788
20186.01179
20185.65267
20185.41412
20185.20523
20185.00271
20184.80004
20184.5955
20184.38893
20184.18069
20183.97143
20183.76195
20183.55316
20183.34559
20183.13743
20182.9172
20182.78891
20182.79457
20182.72133
20182.66959
20182.61829
20182.56133
20182.612
20182.8056
20183.04507
20183.15525
20183.03316
20182.70379
20182.42905
20182.18928
20182.01307
20181.95651
20181.87252
20181.84502
20181.86315
20181.88423
20181.9153
20181.96652
20182.01722
20182.04603
20182.0565
20182.05778
20182.05579
20182.05518
20182.05698
20182.05655
20182.04575
20182.02395
20181.98742
20181.90547
20181.79017
20181.69589
20181.62525
20181.54541
20181.44999
20181.35515
20181.27502
20181.21583
20181.17956
20181.16692
20181.17888
20181.21678
20181.28168
20181.37418
20181.49437
20181.6418
20181.81514
20182.012
20182.22898
20182.462
20182.70658
20182.95808
20183.21179
20183.4635
20183.70946
20183.94598
20184.17022
20184.3797
20184.57319
20184.75016
20184.9118
20185.06137
20185.2039
20185.33964
20185.44592
20185.50217
20185.55189
20185.61022
20185.67452
20185.76726
20185.8988
20186.02619
20186.10422
20186.11962
20186.09921
20186.02938
20185.94677
20185.90654
20185.84738
20185.76684
20185.69196
20185.63575
20185.60133
20185.57914
20185.5598
20185.54454
20185.53812
20185.53766
20185.53377
20185.52099
20185.50191
20185.48327
20185.47166
20185.47179
20185.48511
20185.50865
20185.53641
20185.563
20185.58563
20185.60331
20185.61548
20185.62153
20185.62111
20185.61441
20185.60217
20185.58555
20185.5658
20185.54417
20185.52175
20185.4995
20185.47823
20185.45862
20185.44131
20185.42684
20185.41573
20185.40845
20185.40545
20185.40715
20185.41393
20185.42619
20185.44421
20185.46835
20185.49887
20185.53599
20185.57998
20185.63094
20185.68906
20185.75441
20185.82702
20185.90696
20185.99416
20186.08856
20186.19008
20186.29855
20186.41383
20186.5357
20186.66394
20186.79831
20186.93855
20187.08438
20187.23551
20187.39167
20187.55257
20187.71793
20187.88748
20188.06096
20188.23813
20188.41871
20188.60238
20188.78876
20188.97737
20189.16771
20189.35922
20189.55063
20189.55063
20185.71374
20185.71374
20185.65847
20185.63103
20185.61311
20185.60084
20185.59442
20185.59513
20185.60308
20185.61642
20185.63223
20185.64796
20185.66219
20185.67475
20185.68597
20185.6959
20185.70445
20185.71177
20185.71814
20185.72264
20185.72224
20185.71419
20185.68214
20185.62374
20185.69588
20186.12788
20186.01179
20185.65267
20185.41412
20185.20523
20185.00271
20184.80004
20184.5955
20184.38893
20184.18069
20183.97143
20183.76195
20183.55316
20183.34559
20183.13743
20182.9172
20182.78891
20182.79457
20182.72133
20182.66959
20182.61829
20182.56133
20182.612
20182.8056
20183.04507
20183.15525
20183.03316
20182.70379
20182.42905
20182.18928
20182.01307
20181.95651
20181.87252
20181.84502
20181.86315
20181.88423
20181.9153
20181.96652
20182.01722
20182.04603
20182.0565
20182.05778
20182.05579
20182.05518
20182.05698
20182.05655
20182.04575
20182.02395
20181.98742
20181.90547
20181.79017
20181.69589
20181.62525
20181.54541
20181.44999
20181.35515
20181.27502
20181.21583
20181.17956
20181.16692
20181.17888
20181.21678
20181.28168
20181.37418
20181.49437
20181.6418
20181.81514
20182.012
20182.22898
20182.462
20182.70658
20182.95808
20183.21179
20183.4635
20183.70946
20183.94598
20184.17022
20184.3797
20184.57319
20184.75016
20184.9118
20185.06137
20185.2039
20185.33964
20185.44592
20185.50217
20185.55189
20185.61022
20185.67452
20185.76726
20185.8988
20186.02619
20186.10422
20186.11962
20186.09921
20186.02938
20185.94677
20185.90654
20185.84738
20185.76684
20185.69196
20185.63575
20185.60133
20185.57914
20185.5598
20185.54454
20185.53812
20185.53766
20185.53377
20185.52099
20185.50191
20185.48327
20185.47166
20185.47179
20185.48511
20185.50865
20185.53641
20185.563
20185.58563
20185.60331
20185.61548
20185.62153
20185.62111
20185.61441
20185.60217
20185.58555
20185.5658
20185.54417
20185.52175
20185.4995
20185.47823
20185.45862
20185.44131
20185.42684
20185.41573
20185.40845
20185.40545
20185.40715
20185.41393
20185.42619
20185.44421
20185.46835
20185.49887
20185.53599
20185.57998
20185.63094
20185.68906
20185.75441
20185.82702
20185.90696
20185.99416
20186.08856
20186.19008
20186.29855
20186.41383
20186.5357
20186.66394
20186.79831
20186.93855
20187.08438
20187.23551
20187.39167
20187.55257
20187.71793
20187.88748
20188.06096
20188.23813
20188.41871
20188.60238
20188.78876
20188.97737
20189.16771
20189.35922
20189.55063
20189.55063
20185.6811
20185.6811
20185.64937
20185.62653
20185.61065
20185.59996
20185.59479
20185.59623
20185.60441
20185.61767
20185.63332
20185.64892
20185.66305
20185.67554
20185.6867
20185.69652
20185.70493
20185.71209
20185.71839
20185.72339
20185.72452
20185.71382
20185.66287
20185.58264
20185.60308
20185.90912
20185.87241
20185.62338
20185.407
20185.20371
20185.00276
20184.8005
20184.59601
20184.38934
20184.18094
20183.97148
20183.76178
20183.55286
20183.34574
20183.14042
20182.93077
20182.83366
20182.8068
20182.72552
20182.64627
20182.558
20182.49876
20182.5554
20182.74901
20182.97239
20183.07357
20182.93821
20182.64475
20182.39653
20182.13364
20181.92165
20181.85612
20181.83456
20181.84286
20181.86363
20181.88315
20181.91173
20181.96296
20182.0164
20182.04596
20182.05532
20182.05572
20182.05386
20182.05405
20182.05663
20182.05755
20182.04779
20182.02499
20181.99136
20181.91417
20181.79681
20181.69384
20181.61566
20181.53349
20181.43911
20181.34609
20181.26739
20181.20905
20181.17312
20181.16046
20181.17217
20181.20968
20181.27418
20181.36636
20181.48641
20181.63391
20181.80748
20182.00469
20182.22209
20182.45555
20182.70062
20182.95264
20183.20688
20183.45905
20183.70526
20183.94186
20184.16601
20184.37551
20184.56913
20184.74626
20184.90771
20185.05543
20185.19305
20185.32254
20185.42766
20185.49369
20185.54884
20185.61065
20185.67096
20185.75308
20185.87582
20185.99439
20186.06865
20186.09683
20186.092
20186.03027
20185.95259
20185.91011
20185.84627
20185.76489
20185.68939
20185.63257
20185.5995
20185.57897
20185.55949
20185.543
20185.53601
20185.53613
20185.53296
20185.52036
20185.50107
20185.4822
20185.47042
20185.47045
20185.48396
20185.508
20185.53629
20185.56325
20185.58614
20185.6041
20185.61655
20185.62283
20185.62252
20185.61581
20185.60348
20185.5867
20185.56677
20185.54495
20185.52236
20185.49996
20185.47855
20185.45881
20185.44137
20185.4268
20185.41557
20185.40818
20185.40509
20185.40669
20185.41338
20185.42555
20185.44348
20185.46755
20185.498
20185.53506
20185.57899
20185.62991
20185.68798
20185.7533
20185.8259
20185.90582
20185.99301
20186.08742
20186.18894
20186.29743
20186.41273
20186.53462
20186.6629
20186.7973
20186.93758
20187.08345
20187.23463
20187.39083
20187.55178
20187.71719
20187.88678
20188.06031
20188.23752
20188.41812
20188.60181
20188.7882
20188.97683
20189.16725
20189.35897
20189.55051
20189.55051
20185.65534
20185.65534
20185.63606
20185.61849
20185.60541
20185.59679
20185.59317
20185.59537
20185.60351
20185.61636
20185.63175
20185.6475
20185.66218
20185.67532
20185.68695
20185.69697
20185.70543
20185.71257
20185.71899
20185.72471
20185.72642
20185.70945
20185.63737
20185.55018
20185.54652
20185.7171
20185.73297
20185.58601
20185.39695
20185.20171
20185.00318
20184.80153
20184.59705
20184.39017
20184.18146
20183.97158
20183.76141
20183.55212
20183.3455
20183.1446
20182.95449
20182.88158
20182.83343
20182.72447
20182.58482
20182.44142
20182.37802
20182.44331
20182.63136
20182.83869
20182.93245
20182.79366
20182.55268
20182.33472
20182.04888
20181.78224
20181.70418
20181.76012
20181.82333
20181.85976
20181.88344
20181.911
20181.96173
20182.01659
20182.046
20182.05313
20182.05139
20182.04962
20182.05213
20182.05655
20182.05838
20182.0515
20182.02497
20181.97832
20181.89454
20181.77838
20181.6705
20181.58291
20181.49772
20181.40751
20181.32047
20181.24636
20181.1908
20181.15622
20181.14392
20181.15534
20181.19225
20181.25614
20181.34792
20181.46794
20181.61581
20181.7901
20181.98825
20182.20673
20182.44137
20182.68768
20182.941
20183.19651
20183.44966
20183.69643
20183.9333
20184.15747
20184.36712
20184.56097
20184.73853
20184.89999
20185.04565
20185.17719
20185.29735
20185.40012
20185.47719
20185.54255
20185.61193
20185.66619
20185.72905
20185.83622
20185.94478
20186.0128
20186.05021
20186.06045
20186.01264
20185.9367
20185.87736
20185.81659
20185.75051
20185.68166
20185.62652
20185.59647
20185.57906
20185.5595
20185.54119
20185.53314
20185.53315
20185.52948
20185.51573
20185.49573
20185.47735
20185.46698
20185.46853
20185.48321
20185.50805
20185.53678
20185.56387
20185.58685
20185.60497
20185.61758
20185.62385
20185.62331
20185.61618
20185.60335
20185.58608
20185.56573
20185.54356
20185.5207
20185.49808
20185.47649
20185.4566
20185.43902
20185.42432
20185.41297
20185.40546
20185.40226
20185.40374
20185.41033
20185.42239
20185.44023
20185.46421
20185.49458
20185.53159
20185.57546
20185.62634
20185.68439
20185.74969
20185.8223
20185.90224
20185.98947
20186.08393
20186.18551
20186.29409
20186.40948
20186.53148
20186.65987
20186.7944
20186.93481
20187.08082
20187.23214
20187.38849
20187.54958
20187.71514
20187.88488
20188.05853
20188.23585
20188.41654
20188.60031
20188.78678
20188.97554
20189.16617
20189.35829
20189.55017
20189.55017
20185.63457
20185.63457
20185.62234
20185.60914
20185.59867
20185.59192
20185.58958
20185.59231
20185.60017
20185.6123
20185.62707
20185.64273
20185.65796
20185.6721
20185.68485
20185.69591
20185.70517
20185.7128
20185.71954
20185.72571
20185.72653
20185.70389
20185.62284
20185.55013
20185.55032
20185.63767
20185.66003
20185.55926
20185.38921
20185.20079
20185.00444
20184.80328
20184.59868
20184.39145
20184.18225
20183.97175
20183.7608
20183.55072
20183.34394
20183.14613
20182.96942
20182.90886
20182.84748
20182.69801
20182.48503
20182.29685
20182.22845
20182.29169
20182.46668
20182.66226
20182.75296
20182.64287
20182.4541
20182.25015
20181.96409
20181.66811
20181.57062
20181.66712
20181.79055
20181.85813
20181.89229
20181.92216
20181.96987
20182.02061
20182.04667
20182.04977
20182.04474
20182.04309
20182.04871
20182.05617
20182.05499
20182.03841
20181.99899
20181.93557
20181.84303
20181.73014
20181.62398
20181.53357
20181.44884
20181.36421
20181.2841
20181.21555
20181.16359
20181.1309
20181.11915
20181.13022
20181.16644
20181.22975
20181.32124
20181.44138
20181.58985
20181.76518
20181.96464
20182.18461
20182.42079
20182.66866
20182.92353
20183.18049
20183.43484
20183.68236
20183.91967
20184.144
20184.35369
20184.54764
20184.72561
20184.88743
20185.03254
20185.1608
20185.27384
20185.37329
20185.45914
20185.53993
20185.61808
20185.6656
20185.70066
20185.78286
20185.88499
20185.94972
20185.9872
20186.00543
20185.96634
20185.88542
20185.80923
20185.74754
20185.70322
20185.65855
20185.61593
20185.59268
20185.57986
20185.55946
20185.53772
20185.52787
20185.52763
20185.52278
20185.50666
20185.48513
20185.46775
20185.46056
20185.46564
20185.48278
20185.50877
20185.53765
20185.56444
20185.58709
20185.60496
20185.61722
20185.62289
20185.62155
20185.61356
20185.59998
20185.58214
20185.56139
20185.53897
20185.51596
20185.49325
20185.47159
20185.45163
20185.434
20185.41923
20185.40781
20185.40023
20185.39693
20185.39833
20185.40483
20185.4168
20185.43456
20185.45846
20185.48876
20185.52572
20185.56954
20185.6204
20185.67844
20185.74375
20185.8164
20185.89638
20185.98368
20186.07826
20186.17994
20186.28867
20186.40421
20186.5264
20186.65499
20186.78974
20186.93037
20187.07662
20187.22819
20187.38478
20187.54613
20187.71192
20187.8819
20188.05578
20188.2333
20188.41418
20188.59812
20188.78477
20188.97377
20189.16471
20189.35726
20189.54962
20189.54962
20185.617
20185.617
20185.60899
20185.59923
20185.59108
20185.58593
20185.5846
20185.58762
20185.59507
20185.60631
20185.62015
20185.63528
20185.6506
20185.66544
20185.67934
20185.69184
20185.70262
20185.71159
20185.71909
20185.72516
20185.72419
20185.70001
20185.62316
20185.56788
20185.57682
20185.62992
20185.64386
20185.54949
20185.38709
20185.20223
20185.00701
20184.80592
20184.60096
20184.3932
20184.18333
20183.97198
20183.75993
20183.54848
20183.34028
20183.14211
20182.96559
20182.90105
20182.82505
20182.63413
20182.35867
20182.1374
20182.0591
20182.11187
20182.27107
20182.45973
20182.55869
20182.4927
20182.34608
20182.15664
20181.89149
20181.59768
20181.48771
20181.59044
20181.75606
20181.86028
20181.91236
20181.94846
20181.99088
20182.03176
20182.05006
20182.0465
20182.0372
20182.0362
20182.04361
20182.04659
20182.03362
20181.99991
20181.94342
20181.86669
20181.77128
20181.66555
20181.56572
20181.47748
20181.39547
20181.31612
20181.24206
20181.17858
20181.13009
20181.09926
20181.08798
20181.0986
20181.13408
20181.19681
20181.28806
20181.40837
20181.55755
20181.73404
20181.93497
20182.15661
20182.39451
20182.64406
20182.90064
20183.15915
20183.41486
20183.66338
20183.9013
20184.126
20184.33585
20184.52989
20184.70809
20184.87014
20185.01552
20185.1432
20185.25354
20185.35046
20185.4428
20185.5375
20185.62356
20185.67129
20185.68513
20185.73243
20185.81945
20185.88297
20185.91058
20185.92733
20185.90106
20185.81764
20185.72313
20185.64769
20185.61513
20185.60612
20185.59346
20185.58643
20185.58065
20185.55795
20185.53014
20185.51769
20185.51797
20185.51246
20185.49359
20185.46992
20185.45354
20185.45043
20185.4605
20185.48142
20185.50919
20185.53823
20185.56438
20185.58619
20185.60314
20185.61427
20185.61866
20185.61606
20185.60706
20185.59279
20185.57457
20185.55367
20185.53125
20185.50831
20185.48569
20185.46411
20185.44422
20185.42663
20185.41186
20185.40042
20185.3928
20185.38944
20185.39077
20185.39718
20185.40906
20185.42675
20185.45056
20185.4808
20185.5177
20185.56148
20185.61233
20185.67036
20185.73569
20185.8084
20185.88844
20185.97586
20186.07057
20186.17242
20186.28135
20186.39712
20186.51957
20186.64844
20186.78349
20186.92445
20187.07103
20187.22295
20187.3799
20187.5416
20187.70775
20187.87807
20188.05228
20188.23011
20188.41129
20188.59551
20188.78246
20188.97176
20189.16306
20189.356
20189.54888
20189.54888
20185.60154
20185.60154
20185.59615
20185.58903
20185.58287
20185.57911
20185.5786
20185.58183
20185.58886
20185.59921
20185.61204
20185.62634
20185.64127
20185.65622
20185.67077
20185.68445
20185.69681
20185.70751
20185.71623
20185.72208
20185.71957
20185.69741
20185.63546
20185.59676
20185.61382
20185.65821
20185.66111
20185.55551
20185.39169
20185.20672
20185.01119
20184.80955
20184.60393
20184.39544
20184.18473
20183.97233
20183.75884
20183.54536
20183.33423
20183.13171
20182.94237
20182.85804
20182.76327
20182.53752
20182.2176
20181.97118
20181.87851
20181.91723
20182.06154
20182.24537
20182.36156
20182.34237
20182.23563
20182.07139
20181.83809
20181.57076
20181.45984
20181.55034
20181.73163
20181.86438
20181.93792
20181.9839
20182.02126
20182.05051
20182.05821
20182.04642
20182.03316
20182.03031
20182.03152
20182.02059
20181.9888
20181.93648
20181.86696
20181.78467
20181.69229
20181.59542
20181.50317
20181.41913
20181.34067
20181.26587
20181.19669
20181.13736
20181.09178
20181.06249
20181.05143
20181.06142
20181.09605
20181.15815
20181.24909
20181.36957
20181.5195
20181.69722
20181.8997
20182.12315
20182.3629
20182.61426
20182.87275
20183.13302
20183.39029
20183.64009
20183.87882
20184.10409
20184.31428
20184.50857
20184.68686
20184.84904
20184.99491
20185.12316
20185.23379
20185.33089
20185.42497
20185.52167
20185.60958
20185.6644
20185.67848
20185.69656
20185.75591
20185.81384
20185.82854
20185.83357
20185.81902
20185.73785
20185.62825
20185.53469
20185.49527
20185.51669
20185.54883
20185.57134
20185.57728
20185.55252
20185.51736
20185.50213
20185.50387
20185.4985
20185.47712
20185.45117
20185.43562
20185.43672
20185.45233
20185.47781
20185.50793
20185.53731
20185.56268
20185.58322
20185.59859
20185.60796
20185.61067
20185.60674
20185.59688
20185.58221
20185.56391
20185.54315
20185.52097
20185.49828
20185.47589
20185.45451
20185.43476
20185.41725
20185.40252
20185.39108
20185.38342
20185.38
20185.38125
20185.38757
20185.39936
20185.41695
20185.44067
20185.47083
20185.50767
20185.55141
20185.60223
20185.66027
20185.72564
20185.79841
20185.87856
20185.96611
20186.06099
20186.16306
20186.27224
20186.3883
20186.51107
20186.6403
20186.77575
20186.91713
20187.06416
20187.21654
20187.37396
20187.53614
20187.70276
20187.87355
20188.04821
20188.22647
20188.40804
20188.59265
20188.77996
20188.96962
20189.16128
20189.35459
20189.54795
20189.54795
20185.58747
20185.58747
20185.58381
20185.57868
20185.57417
20185.57161
20185.5718
20185.5752
20185.58186
20185.59146
20185.60333
20185.61673
20185.63099
20185.64561
20185.66024
20185.67448
20185.68793
20185.70007
20185.71005
20185.71622
20185.71271
20185.69461
20185.65295
20185.63083
20185.65327
20185.69861
20185.69437
20185.57334
20185.40252
20185.21434
20185.01704
20184.81417
20184.60757
20184.39817
20184.18649
20183.97285
20183.75763
20183.54152
20183.32604
20183.11592
20182.90468
20182.78873
20182.67181
20182.42034
20182.07214
20181.80583
20181.69682
20181.72121
20181.85234
20182.03226
20182.16886
20182.19756
20182.13412
20182.00223
20181.80359
20181.57757
20181.47609
20181.54871
20181.72303
20181.86829
20181.96106
20182.01884
20182.05456
20182.07525
20182.07294
20182.05347
20182.03468
20182.02279
20182.00724
20181.97502
20181.92335
20181.85669
20181.78048
20181.69842
20181.61194
20181.52384
20181.43899
20181.35966
20181.28491
20181.21401
20181.14872
20181.09263
20181.04931
20181.0211
20181.00996
20181.01908
20181.05268
20181.11401
20181.20455
20181.32517
20181.47592
20181.65492
20181.85901
20182.08439
20182.32615
20182.57943
20182.84006
20183.10239
20183.36153
20183.61293
20183.85281
20184.07881
20184.28942
20184.48396
20184.66216
20184.82441
20184.97079
20185.10009
20185.21215
20185.31077
20185.40399
20185.49451
20185.57416
20185.63183
20185.65843
20185.66721
20185.69945
20185.74113
20185.74713
20185.73503
20185.71904
20185.64486
20185.52526
20185.41477
20185.35975
20185.39404
20185.47366
20185.53809
20185.56342
20185.54093
20185.50063
20185.48348
20185.48722
20185.48246
20185.45888
20185.43066
20185.41558
20185.42028
20185.44104
20185.47108
20185.50372
20185.5336
20185.55821
20185.57728
20185.59074
20185.59815
20185.59922
20185.59419
20185.5838
20185.56903
20185.55092
20185.53049
20185.50868
20185.48633
20185.46424
20185.44308
20185.42348
20185.40606
20185.39137
20185.37991
20185.37219
20185.36869
20185.36984
20185.37605
20185.38772
20185.40519
20185.42881
20185.45888
20185.49565
20185.53935
20185.59015
20185.64821
20185.71363
20185.78647
20185.86676
20185.95447
20186.04956
20186.1519
20186.26137
20186.37779
20186.50096
20186.63063
20186.76656
20186.90846
20187.05603
20187.20898
20187.367
20187.52977
20187.697
20187.86837
20188.04361
20188.22241
20188.4045
20188.58957
20188.77731
20188.96737
20189.1594
20189.35305
20189.54684
20189.54684
20185.57437
20185.57437
20185.57186
20185.56824
20185.56508
20185.56352
20185.56431
20185.56786
20185.57424
20185.5832
20185.59425
20185.6068
20185.62032
20185.6344
20185.64873
20185.66302
20185.67693
20185.68992
20185.70089
20185.70798
20185.70473
20185.6931
20185.67001
20185.66343
20185.69189
20185.74083
20185.73315
20185.59891
20185.41832
20185.22468
20185.0244
20184.81972
20184.61184
20184.40139
20184.18863
20183.97364
20183.75647
20183.53727
20183.31644
20183.09687
20182.85929
20182.70483
20182.5639
20182.29549
20181.93138
20181.64917
20181.52402
20181.53517
20181.65466
20181.83156
20181.98779
20182.0613
20182.04422
20181.9496
20181.78673
20181.60828
20181.52345
20181.57966
20181.73054
20181.87073
20181.97659
20182.04608
20182.08519
20182.1027
20182.09324
20182.0665
20182.03711
20182.00684
20181.96747
20181.91284
20181.84466
20181.76881
20181.69036
20181.6114
20181.53178
20181.45192
20181.37389