# vtk DataFile Version 2.0
FlowField
ASCII
DATASET STRUCTURED_GRID
DIMENSIONS 200 1 200
POINTS 40000 float
0 0 0
0.15 0 0
0.3 0 0
0.45 0 0
0.6 0 0
0.75 0 0
0.9 0 0
1.05 0 0
1.2 0 0
1.35 0 0
1.5 0 0
1.65 0 0
1.8 0 0
1.95 0 0
2.1 0 0
2.25 0 0
2.4 0 0
2.55 0 0
2.7 0 0
2.85 0 0
3 0 0
3.15 0 0
3.3 0 0
3.45 0 0
3.6 0 0
3.75 0 0
3.9 0 0
4.05 0 0
4.2 0 0
4.35 0 0
4.5 0 0
4.65 0 0
4.8 0 0
4.95 0 0
5.1 0 0
5.25 0 0
5.4 0 0
5.55 0 0
5.7 0 0
5.85 0 0
6 0 0
6.15 0 0
6.3 0 0
6.45 0 0
6.6 0 0
6.75 0 0
6.9 0 0
7.05 0 0
7.2 0 0
7.35 0 0
7.5 0 0
7.65 0 0
7.8 0 0
7.95 0 0
8.1 0 0
8.25 0 0
8.4 0 0
8.55 0 0
8.7 0 0
8.85 0 0
9 0 0
9.15 0 0
9.3 0 0
9.45 0 0
9.6 0 0
9.75 0 0
9.9 0 0
10.05 0 0
10.2 0 0
10.35 0 0
10.5 0 0
10.65 0 0
10.8 0 0
10.95 0 0
11.1 0 0
11.25 0 0
11.4 0 0
11.55 0 0
11.7 0 0
11.85 0 0
12 0 0
12.15 0 0
12.3 0 0
12.45 0 0
12.6 0 0
12.75 0 0
12.9 0 0
13.05 0 0
13.2 0 0
13.35 0 0
13.5 0 0
13.65 0 0
13.8 0 0
13.95 0 0
14.1 0 0
14.25 0 0
14.4 0 0
14.55 0 0
14.7 0 0
14.85 0 0
15 0 0
15.15 0 0
15.3 0 0
15.45 0 0
15.6 0 0
15.75 0 0
15.9 0 0
16.05 0 0
16.2 0 0
16.35 0 0
16.5 0 0
16.65 0 0
16.8 0 0
16.95 0 0
17.1 0 0
17.25 0 0
17.4 0 0
17.55 0 0
17.7 0 0
17.85 0 0
18 0 0
18.15 0 0
18.3 0 0
18.45 0 0
18.6 0 0
18.75 0 0
18.9 0 0
19.05 0 0
19.2 0 0
19.35 0 0
19.5 0 0
19.65 0 0
19.8 0 0
19.95 0 0
20.1 0 0
20.25 0 0
20.4 0 0
20.55 0 0
20.7 0 0
20.85 0 0
21 0 0
21.15 0 0
21.3 0 0
21.45 0 0
21.6 0 0
21.75 0 0
21.9 0 0
22.05 0 0
22.2 0 0
22.35 0 0
22.5 0 0
22.65 0 0
22.8 0 0
22.95 0 0
23.1 0 0
23.25 0 0
23.4 0 0
23.55 0 0
23.7 0 0
23.85 0 0
24 0 0
24.15 0 0
24.3 0 0
24.45 0 0
24.6 0 0
24.75 0 0
24.9 0 0
25.05 0 0
25.2 0 0
25.35 0 0
25.5 0 0
25.65 0 0
25.8 0 0
25.95 0 0
26.1 0 0
26.25 0 0
26.4 0 0
26.55 0 0
26.7 0 0
26.85 0 0
27 0 0
27.15 0 0
27.3 0 0
27.45 0 0
27.6 0 0
27.75 0 0
27.9 0 0
28.05 0 0
28.2 0 0
28.35 0 0
28.5 0 0
28.65 0 0
28.8 0 0
28.95 0 0
29.1 0 0
29.25 0 0
29.4 0 0
29.55 0 0
29.7 0 0
29.85 0 0
0 0.075 0
0.15 0.075 0
0.3 0.075 0
0.45 0.075 0
0.6 0.075 0
0.75 0.075 0
0.9 0.075 0
1.05 0.075 0
1.2 0.075 0
1.35 0.075 0
1.5 0.075 0
1.65 0.075 0
1.8 0.075 0
1.95 0.075 0
2.1 0.075 0
2.25 0.075 0
2.4 0.075 0
2.55 0.075 0
2.7 0.075 0
2.85 0.075 0
3 0.075 0
3.15 0.075 0
3.3 0.075 0
3.45 0.075 0
3.6 0.075 0
3.75 0.075 0
3.9 0.075 0
4.05 0.075 0
4.2 0.075 0
4.35 0.075 0
4.5 0.075 0
4.65 0.075 0
4.8 0.075 0
4.95 0.075 0
5.1 0.075 0
5.25 0.075 0
5.4 0.075 0
5.55 0.075 0
5.7 0.075 0
5.85 0.075 0
6 0.075 0
6.15 0.075 0
6.3 0.075 0
6.45 0.075 0
6.6 0.075 0
6.75 0.075 0
6.9 0.075 0
7.05 0.075 0
7.2 0.075 0
7.35 0.075 0
7.5 0.075 0
7.65 0.075 0
7.8 0.075 0
7.95 0.075 0
8.1 0.075 0
8.25 0.075 0
8.4 0.075 0
8.55 0.075 0
8.7 0.075 0
8.85 0.075 0
9 0.075 0
9.15 0.075 0
9.3 0.075 0
9.45 0.075 0
9.6 0.075 0
9.75 0.075 0
9.9 0.075 0
10.05 0.075 0
10.2 0.075 0
10.35 0.075 0
10.5 0.075 0
10.65 0.075 0
10.8 0.075 0
10.95 0.075 0
11.1 0.075 0
11.25 0.075 0
11.4 0.075 0
11.55 0.075 0
11.7 0.075 0
11.85 0.075 0
12 0.075 0
12.15 0.075 0
12.3 0.075 0
12.45 0.075 0
12.6 0.075 0
12.75 0.075 0
12.9 0.075 0
13.05 0.075 0
13.2 0.075 0
13.35 0.075 0
13.5 0.075 0
13.65 0.075 0
13.8 0.075 0
13.95 0.075 0
14.1 0.075 0
14.25 0.075 0
14.4 0.075 0
14.55 0.075 0
14.7 0.075 0
14.85 0.075 0
15 0.075 0
15.15 0.075 0
15.3 0.075 0
15.45 0.075 0
15.6 0.075 0
15.75 0.075 0
15.9 0.075 0
16.05 0.075 0
16.2 0.075 0
16.35 0.075 0
16.5 0.075 0
16.65 0.075 0
16.8 0.075 0
16.95 0.075 0
17.1 0.075 0
17.25 0.075 0
17.4 0.075 0
17.55 0.075 0
17.7 0.075 0
17.85 0.075 0
18 0.075 0
18.15 0.075 0
18.3 0.075 0
18.45 0.075 0
18.6 0.075 0
18.75 0.075 0
18.9 0.075 0
19.05 0.075 0
19.2 0.075 0
19.35 0.075 0
19.5 0.075 0
19.65 0.075 0
19.8 0.075 0
19.95 0.075 0
20.1 0.075 0
20.25 0.075 0
20.4 0.075 0
20.55 0.075 0
20.7 0.075 0
20.85 0.075 0
21 0.075 0
21.15 0.075 0
21.3 0.075 0
21.45 0.075 0
21.6 0.075 0
21.75 0.075 0
21.9 0.075 0
22.05 0.075 0
22.2 0.075 0
22.35 0.075 0
22.5 0.075 0
22.65 0.075 0
22.8 0.075 0
22.95 0.075 0
23.1 0.075 0
23.25 0.075 0
23.4 0.075 0
23.55 0.075 0
23.7 0.075 0
23.85 0.075 0
24 0.075 0
24.15 0.075 0
24.3 0.075 0
24.45 0.075 0
24.6 0.075 0
24.75 0.075 0
24.9 0.075 0
25.05 0.075 0
25.2 0.075 0
25.35 0.075 0
25.5 0.075 0
25.65 0.075 0
25.8 0.075 0
25.95 0.075 0
26.1 0.075 0
26.25 0.075 0
26.4 0.075 0
26.55 0.075 0
26.7 0.075 0
26.85 0.075 0
27 0.075 0
27.15 0.075 0
27.3 0.075 0
27.45 0.075 0
27.6 0.075 0
27.75 0.075 0
27.9 0.075 0
28.05 0.075 0
28.2 0.075 0
28.35 0.075 0
28.5 0.075 0
28.65 0.075 0
28.8 0.075 0
28.95 0.075 0
29.1 0.075 0
29.25 0.075 0
29.4 0.075 0
29.55 0.075 0
29.7 0.075 0
29.85 0.075 0
0 0.15 0
0.15 0.15 0
0.3 0.15 0
0.45 0.15 0
0.6 0.15 0
0.75 0.15 0
0.9 0.15 0
1.05 0.15 0
1.2 0.15 0
1.35 0.15 0
1.5 0.15 0
1.65 0.15 0
1.8 0.15 0
1.95 0.15 0
2.1 0.15 0
2.25 0.15 0
2.4 0.15 0
2.55 0.15 0
2.7 0.15 0
2.85 0.15 0
3 0.15 0
3.15 0.15 0
3.3 0.15 0
3.45 0.15 0
3.6 0.15 0
3.75 0.15 0
3.9 0.15 0
4.05 0.15 0
4.2 0.15 0
4.35 0.15 0
4.5 0.15 0
4.65 0.15 0
4.8 0.15 0
4.95 0.15 0
5.1 0.15 0
5.25 0.15 0
5.4 0.15 0
5.55 0.15 0
5.7 0.15 0
5.85 0.15 0
6 0.15 0
6.15 0.15 0
6.3 0.15 0
6.45 0.15 0
6.6 0.15 0
6.75 0.15 0
6.9 0.15 0
7.05 0.15 0
7.2 0.15 0
7.35 0.15 0
7.5 0.15 0
7.65 0.15 0
7.8 0.15 0
7.95 0.15 0
8.1 0.15 0
8.25 0.15 0
8.4 0.15 0
8.55 0.15 0
8.7 0.15 0
8.85 0.15 0
9 0.15 0
9.15 0.15 0
9.3 0.15 0
9.45 0.15 0
9.6 0.15 0
9.75 0.15 0
9.9 0.15 0
10.05 0.15 0
10.2 0.15 0
10.35 0.15 0
10.5 0.15 0
10.65 0.15 0
10.8 0.15 0
10.95 0.15 0
11.1 0.15 0
11.25 0.15 0
11.4 0.15 0
11.55 0.15 0
11.7 0.15 0
11.85 0.15 0
12 0.15 0
12.15 0.15 0
12.3 0.15 0
12.45 0.15 0
12.6 0.15 0
12.75 0.15 0
12.9 0.15 0
13.05 0.15 0
13.2 0.15 0
13.35 0.15 0
13.5 0.15 0
13.65 0.15 0
13.8 0.15 0
13.95 0.15 0
14.1 0.15 0
14.25 0.15 0
14.4 0.15 0
14.55 0.15 0
14.7 0.15 0
14.85 0.15 0
15 0.15 0
15.15 0.15 0
15.3 0.15 0
15.45 0.15 0
15.6 0.15 0
15.75 0.15 0
15.9 0.15 0
16.05 0.15 0
16.2 0.15 0
16.35 0.15 0
16.5 0.15 0
16.65 0.15 0
16.8 0.15 0
16.95 0.15 0
17.1 0.15 0
17.25 0.15 0
17.4 0.15 0
17.55 0.15 0
17.7 0.15 0
17.85 0.15 0
18 0.15 0
18.15 0.15 0
18.3 0.15 0
18.45 0.15 0
18.6 0.15 0
18.75 0.15 0
18.9 0.15 0
19.05 0.15 0
19.2 0.15 0
19.35 0.15 0
19.5 0.15 0
19.65 0.15 0
19.8 0.15 0
19.95 0.15 0
20.1 0.15 0
20.25 0.15 0
20.4 0.15 0
20.55 0.15 0
20.7 0.15 0
20.85 0.15 0
21 0.15 0
21.15 0.15 0
21.3 0.15 0
21.45 0.15 0
21.6 0.15 0
21.75 0.15 0
21.9 0.15 0
22.05 0.15 0
22.2 0.15 0
22.35 0.15 0
22.5 0.15 0
22.65 0.15 0
22.8 0.15 0
22.95 0.15 0
23.1 0.15 0
23.25 0.15 0
23.4 0.15 0
23.55 0.15 0
23.7 0.15 0
23.85 0.15 0
24 0.15 0
24.15 0.15 0
24.3 0.15 0
24.45 0.15 0
24.6 0.15 0
24.75 0.15 0
24.9 0.15 0
25.05 0.15 0
25.2 0.15 0
25.35 0.15 0
25.5 0.15 0
25.65 0.15 0
25.8 0.15 0
25.95 0.15 0
26.1 0.15 0
26.25 0.15 0
26.4 0.15 0
26.55 0.15 0
26.7 0.15 0
26.85 0.15 0
27 0.15 0
27.15 0.15 0
27.3 0.15 0
27.45 0.15 0
27.6 0.15 0
27.75 0.15 0
27.9 0.15 0
28.05 0.15 0
28.2 0.15 0
28.35 0.15 0
28.5 0.15 0
28.65 0.15 0
28.8 0.15 0
28.95 0.15 0
29.1 0.15 0
29.25 0.15 0
29.4 0.15 0
29.55 0.15 0
29.7 0.15 0
29.85 0.15 0
0 0.225 0
0.15 0.225 0
0.3 0.225 0
0.45 0.225 0
0.6 0.225 0
0.75 0.225 0
0.9 0.225 0
1.05 0.225 0
1.2 0.225 0
1.35 0.225 0
1.5 0.225 0
1.65 0.225 0
1.8 0.225 0
1.95 0.225 0
2.1 0.225 0
2.25 0.225 0
2.4 0.225 0
2.55 0.225 0
2.7 0.225 0
2.85 0.225 0
3 0.225 0
3.15 0.225 0
3.3 0.225 0
3.45 0.225 0
3.6 0.225 0
3.75 0.225 0
3.9 0.225 0
4.05 0.225 0
4.2 0.225 0
4.35 0.225 0
4.5 0.225 0
4.65 0.225 0
4.8 0.225 0
4.95 0.225 0
5.1 0.225 0
5.25 0.225 0
5.4 0.225 0
5.55 0.225 0
5.7 0.225 0
5.85 0.225 0
6 0.225 0
6.15 0.225 0
6.3 0.225 0
6.45 0.225 0
6.6 0.225 0
6.75 0.225 0
6.9 0.225 0
7.05 0.225 0
7.2 0.225 0
7.35 0.225 0
7.5 0.225 0
7.65 0.225 0
7.8 0.225 0
7.95 0.225 0
8.1 0.225 0
8.25 0.225 0
8.4 0.225 0
8.55 0.225 0
8.7 0.225 0
8.85 0.225 0
9 0.225 0
9.15 0.225 0
9.3 0.225 0
9.45 0.225 0
9.6 0.225 0
9.75 0.225 0
9.9 0.225 0
10.05 0.225 0
10.2 0.225 0
10.35 0.225 0
10.5 0.225 0
10.65 0.225 0
10.8 0.225 0
10.95 0.225 0
11.1 0.225 0
11.25 0.225 0
11.4 0.225 0
11.55 0.225 0
11.7 0.225 0
11.85 0.225 0
12 0.225 0
12.15 0.225 0
12.3 0.225 0
12.45 0.225 0
12.6 0.225 0
12.75 0.225 0
12.9 0.225 0
13.05 0.225 0
13.2 0.225 0
13.35 0.225 0
13.5 0.225 0
13.65 0.225 0
13.8 0.225 0
13.95 0.225 0
14.1 0.225 0
14.25 0.225 0
14.4 0.225 0
14.55 0.225 0
14.7 0.225 0
14.85 0.225 0
15 0.225 0
15.15 0.225 0
15.3 0.225 0
15.45 0.225 0
15.6 0.225 0
15.75 0.225 0
15.9 0.225 0
16.05 0.225 0
16.2 0.225 0
16.35 0.225 0
16.5 0.225 0
16.65 0.225 0
16.8 0.225 0
16.95 0.225 0
17.1 0.225 0
17.25 0.225 0
17.4 0.225 0
17.55 0.225 0
17.7 0.225 0
17.85 0.225 0
18 0.225 0
18.15 0.225 0
18.3 0.225 0
18.45 0.225 0
18.6 0.225 0
18.75 0.225 0
18.9 0.225 0
19.05 0.225 0
19.2 0.225 0
19.35 0.225 0
19.5 0.225 0
19.65 0.225 0
19.8 0.225 0
19.95 0.225 0
20.1 0.225 0
20.25 0.225 0
20.4 0.225 0
20.55 0.225 0
20.7 0.225 0
20.85 0.225 0
21 0.225 0
21.15 0.225 0
21.3 0.225 0
21.45 0.225 0
21.6 0.225 0
21.75 0.225 0
21.9 0.225 0
22.05 0.225 0
22.2 0.225 0
22.35 0.225 0
22.5 0.225 0
22.65 0.225 0
22.8 0.225 0
22.95 0.225 0
23.1 0.225 0
23.25 0.225 0
23.4 0.225 0
23.55 0.225 0
23.7 0.225 0
23.85 0.225 0
24 0.225 0
24.15 0.225 0
24.3 0.225 0
24.45 0.225 0
24.6 0.225 0
24.75 0.225 0
24.9 0.225 0
25.05 0.225 0
25.2 0.225 0
25.35 0.225 0
25.5 0.225 0
25.65 0.225 0
25.8 0.225 0
25.95 0.225 0
26.1 0.225 0
26.25 0.225 0
26.4 0.225 0
26.55 0.225 0
26.7 0.225 0
26.85 0.225 0
27 0.225 0
27.15 0.225 0
27.3 0.225 0
27.45 0.225 0
27.6 0.225 0
27.75 0.225 0
27.9 0.225 0
28.05 0.225 0
28.2 0.225 0
28.35 0.225 0
28.5 0.225 0
28.65 0.225 0
28.8 0.225 0
28.95 0.225 0
29.1 0.225 0
29.25 0.225 0
29.4 0.225 0
29.55 0.225 0
29.7 0.225 0
29.85 0.225 0
0 0.3 0
0.15 0.3 0
0.3 0.3 0
0.45 0.3 0
0.6 0.3 0
0.75 0.3 0
0.9 0.3 0
1.05 0.3 0
1.2 0.3 0
1.35 0.3 0
1.5 0.3 0
1.65 0.3 0
1.8 0.3 0
1.95 0.3 0
2.1 0.3 0
2.25 0.3 0
2.4 0.3 0
2.55 0.3 0
2.7 0.3 0
2.85 0.3 0
3 0.3 0
3.15 0.3 0
3.3 0.3 0
3.45 0.3 0
3.6 0.3 0
3.75 0.3 0
3.9 0.3 0
4.05 0.3 0
4.2 0.3 0
4.35 0.3 0
4.5 0.3 0
4.65 0.3 0
4.8 0.3 0
4.95 0.3 0
5.1 0.3 0
5.25 0.3 0
5.4 0.3 0
5.55 0.3 0
5.7 0.3 0
5.85 0.3 0
6 0.3 0
6.15 0.3 0
[...]
POINT_DATA 40000

SCALARS p float 1
LOOKUP_TABLE default
20183.30772
20183.30772
20183.25234
20183.22469
20183.20648
20183.19386
20183.18705
20183.18729
20183.19472
20183.20747
20183.22265
20183.23775
20183.25141
20183.26338
20183.27393
20183.28313
20183.29086
20183.29729
20183.30259
20183.30577
20183.30372
20183.29409
20183.26228
20183.20467
20183.27494
20183.70682
20183.58679
20183.2177
20182.96862
20182.74838
20182.53335
20182.3166
20182.09589
20181.87033
20181.63934
20181.40219
20181.15786
20180.90481
20180.64075
20180.36194
20180.06173
20179.90318
20179.94539
20179.93949
20179.94324
20179.93958
20179.92923
20179.91115
20179.88907
20179.8652
20179.83653
20179.79745
20179.74073
20179.65718
20179.54278
20179.4176
20179.31766
20179.25755
20179.22649
20179.20531
20179.17621
20179.13628
20179.08455
20178.9757
20178.86165
20178.83717
20178.86632
20178.88358
20178.86931
20178.85085
20178.8648
20178.92374
20179.0231
20179.16129
20179.3359
20179.53943
20179.7696
20180.02446
20180.3001
20180.59089
20180.88897
20181.18918
20181.48751
20181.7825
20182.07497
20182.35872
20182.61202
20182.79385
20182.84943
20182.77403
20182.65465
20182.4728
20182.22314
20182.01389
20181.89097
20181.72837
20181.43317
20181.3245
20181.34082
20181.31854
20181.29591
20181.27128
20181.24064
20181.20896
20181.18521
20181.17963
20181.19357
20181.21341
20181.22328
20181.2161
20181.19532
20181.16934
20181.14572
20181.13067
20181.13162
20181.1496
20181.16811
20181.16922
20181.14756
20181.10211
20181.02667
20180.92268
20180.80252
20180.67554
20180.54798
20180.4255
20180.31192
20180.20988
20180.12211
20180.0508
20179.99678
20179.96022
20179.94114
20179.9391
20179.953
20179.98184
20180.0248
20180.08049
20180.147
20180.22282
20180.30653
20180.39624
20180.49065
20180.58841
20180.68736
20180.78641
20180.88457
20180.98112
20181.07456
20181.16445
20181.24983
20181.33084
20181.40681
20181.47783
20181.54359
20181.60423
20181.65983
20181.71061
20181.75677
20181.79856
20181.83628
20181.87019
20181.90063
20181.92786
20181.95222
20181.97396
20181.99339
20182.01074
20182.02629
20182.04024
20182.05283
20182.06425
20182.07469
20182.08431
20182.09328
20182.10172
20182.10976
20182.11752
20182.12508
20182.13254
20182.13998
20182.14747
20182.15509
20182.16288
20182.17092
20182.17922
20182.18787
20182.19684
20182.20622
20182.21594
20182.22609
20182.23655
20182.24741
20182.25852
20182.26992
20182.28146
20182.29314
20182.30483
20182.31649
20182.31649
20183.30772
20183.30772
20183.25234
20183.22469
20183.20648
20183.19386
20183.18705
20183.18729
20183.19472
20183.20747
20183.22265
20183.23775
20183.25141
20183.26338
20183.27393
20183.28313
20183.29086
20183.29729
20183.30259
20183.30577
20183.30372
20183.29409
20183.26228
20183.20467
20183.27494
20183.70682
20183.58679
20183.2177
20182.96862
20182.74838
20182.53335
20182.3166
20182.09589
20181.87033
20181.63934
20181.40219
20181.15786
20180.90481
20180.64075
20180.36194
20180.06173
20179.90318
20179.94539
20179.93949
20179.94324
20179.93958
20179.92923
20179.91115
20179.88907
20179.8652
20179.83653
20179.79745
20179.74073
20179.65718
20179.54278
20179.4176
20179.31766
20179.25755
20179.22649
20179.20531
20179.17621
20179.13628
20179.08455
20178.9757
20178.86165
20178.83717
20178.86632
20178.88358
20178.86931
20178.85085
20178.8648
20178.92374
20179.0231
20179.16129
20179.3359
20179.53943
20179.7696
20180.02446
20180.3001
20180.59089
20180.88897
20181.18918
20181.48751
20181.7825
20182.07497
20182.35872
20182.61202
20182.79385
20182.84943
20182.77403
20182.65465
20182.4728
20182.22314
20182.01389
20181.89097
20181.72837
20181.43317
20181.3245
20181.34082
20181.31854
20181.29591
20181.27128
20181.24064
20181.20896
20181.18521
20181.17963
20181.19357
20181.21341
20181.22328
20181.2161
20181.19532
20181.16934
20181.14572
20181.13067
20181.13162
20181.1496
20181.16811
20181.16922
20181.14756
20181.10211
20181.02667
20180.92268
20180.80252
20180.67554
20180.54798
20180.4255
20180.31192
20180.20988
20180.12211
20180.0508
20179.99678
20179.96022
20179.94114
20179.9391
20179.953
20179.98184
20180.0248
20180.08049
20180.147
20180.22282
20180.30653
20180.39624
20180.49065
20180.58841
20180.68736
20180.78641
20180.88457
20180.98112
20181.07456
20181.16445
20181.24983
20181.33084
20181.40681
20181.47783
20181.54359
20181.60423
20181.65983
20181.71061
20181.75677
20181.79856
20181.83628
20181.87019
20181.90063
20181.92786
20181.95222
20181.97396
20181.99339
20182.01074
20182.02629
20182.04024
20182.05283
20182.06425
20182.07469
20182.08431
20182.09328
20182.10172
20182.10976
20182.11752
20182.12508
20182.13254
20182.13998
20182.14747
20182.15509
20182.16288
20182.17092
20182.17922
20182.18787
20182.19684
20182.20622
20182.21594
20182.22609
20182.23655
20182.24741
20182.25852
20182.26992
20182.28146
20182.29314
20182.30483
20182.31649
20182.31649
20183.27511
20183.27511
20183.24327
20183.22023
20183.20407
20183.19302
20183.18745
20183.18842
20183.19605
20183.20872
20183.22374
20183.23872
20183.25229
20183.26419
20183.27468
20183.28378
20183.29138
20183.29765
20183.30292
20183.30661
20183.30609
20183.29398
20183.24345
20183.16347
20183.18162
20183.48797
20183.44755
20183.18855
20182.9617
20182.74714
20182.53378
20182.31757
20182.09707
20181.87166
20181.64085
20181.40395
20181.15999
20180.90751
20180.64436
20180.36718
20180.06882
20179.92941
20179.93891
20179.93834
20179.94277
20179.93941
20179.92888
20179.91092
20179.88956
20179.86675
20179.83895
20179.80008
20179.74236
20179.65541
20179.53545
20179.40653
20179.30701
20179.25109
20179.22537
20179.20812
20179.17949
20179.13648
20179.08773
20178.98579
20178.86717
20178.82582
20178.8365
20178.84387
20178.83123
20178.81979
20178.84061
20178.90476
20179.00806
20179.14867
20179.32391
20179.52732
20179.75688
20180.01094
20180.28641
20180.57756
20180.87634
20181.17644
20181.47307
20181.76493
20182.05311
20182.33216
20182.58141
20182.76468
20182.83231
20182.75315
20182.6086
20182.43097
20182.20157
20181.98313
20181.83504
20181.65663
20181.40297
20181.33167
20181.34229
20181.31686
20181.29688
20181.27321
20181.24174
20181.20819
20181.18206
20181.1751
20181.18976
20181.21144
20181.22295
20181.21594
20181.1941
20181.16729
20181.1437
20181.12884
20181.13026
20181.14966
20181.16908
20181.17053
20181.14951
20181.10523
20181.03141
20180.9269
20180.80408
20180.67431
20180.54478
20180.42122
20180.30724
20180.20516
20180.11743
20180.04614
20179.99222
20179.95587
20179.93702
20179.93512
20179.94913
20179.97816
20180.02136
20180.07724
20180.14391
20180.21994
20180.30385
20180.39375
20180.48839
20180.58626
20180.68542
20180.78466
20180.88297
20180.97966
20181.07326
20181.16329
20181.2488
20181.32993
20181.40601
20181.47714
20181.54299
20181.60371
20181.6594
20181.71024
20181.75646
20181.79829
20181.83606
20181.87001
20181.90049
20181.92775
20181.95213
20181.9739
20181.99335
20182.01072
20182.02629
20182.04025
20182.05285
20182.06428
20182.07473
20182.08436
20182.09333
20182.10177
20182.10982
20182.11758
20182.12514
20182.1326
20182.14005
20182.14754
20182.15515
20182.16294
20182.17098
20182.17928
20182.18792
20182.19689
20182.20627
20182.21599
20182.22613
20182.23661
20182.24746
20182.25858
20182.26997
20182.28152
20182.2932
20182.30489
20182.31651
20182.31651
20183.24942
20183.24942
20183.23004
20183.21228
20183.19892
20183.18996
20183.18592
20183.18764
20183.19523
20183.20747
20183.22221
20183.23732
20183.25141
20183.26395
20183.27493
20183.28425
20183.2919
20183.29818
20183.30362
20183.3081
20183.30829
20183.29022
20183.21844
20183.13068
20183.1242
20183.29513
20183.30794
20183.15147
20182.95209
20182.74573
20182.53497
20182.31962
20182.09949
20181.87435
20181.64388
20181.40748
20181.16426
20180.9129
20180.65152
20180.3775
20180.08301
20179.94477
20179.93582
20179.93942
20179.94265
20179.93959
20179.92883
20179.91076
20179.89019
20179.86942
20179.84405
20179.80674
20179.74795
20179.65469
20179.52407
20179.3871
20179.28664
20179.23664
20179.21948
20179.20856
20179.18302
20179.13375
20179.06925
20178.96625
20178.84924
20178.78677
20178.76898
20178.76059
20178.75149
20178.75487
20178.78991
20178.86446
20178.97631
20179.12195
20179.2984
20179.50183
20179.7303
20179.98298
20180.25805
20180.55016
20180.85069
20181.15092
20181.44472
20181.73087
20182.01121
20182.28216
20182.52347
20182.70263
20182.78025
20182.71345
20182.54423
20182.36003
20182.14973
20181.91566
20181.7273
20181.54637
20181.35818
20181.29826
20181.30443
20181.30422
20181.29546
20181.27433
20181.24216
20181.20604
20181.17595
20181.16707
20181.18319
20181.20777
20181.22184
20181.21448
20181.18946
20181.15996
20181.13682
20181.12494
20181.13115
20181.15475
20181.17409
20181.17389
20181.1527
20181.10529
20181.02584
20180.91687
20180.79077
20180.65888
20180.52861
20180.40522
20180.29196
20180.19094
20180.10428
20180.03388
20179.98077
20179.94523
20179.92708
20179.92573
20179.94032
20179.97004
20180.01386
20180.07023
20180.13743
20180.21405
20180.29848
20180.38893
20180.48406
20180.58226
20180.68193
20180.78162
20180.88026
20180.97728
20181.07124
20181.16157
20181.24732
20181.32871
20181.40499
20181.47633
20181.54234
20181.60319
20181.659
20181.70994
20181.75624
20181.79815
20181.83597
20181.86997
20181.90048
20181.92777
20181.95217
20181.97395
20181.99341
20182.01079
20182.02635
20182.04031
20182.0529
20182.06432
20182.07476
20182.08438
20182.09334
20182.10178
20182.10982
20182.11757
20182.12512
20182.13257
20182.14001
20182.14749
20182.1551
20182.16288
20182.17092
20182.17921
20182.18786
20182.19683
20182.20622
20182.21595
20182.22611
20182.23661
20182.24748
20182.25863
20182.27005
20182.28165
20182.29335
20182.30506
20182.31671
20182.31671
20183.22873
20183.22873
20183.21641
20183.20303
20183.1923
20183.1852
20183.18246
20183.1847
20183.19201
20183.20353
20183.21764
20183.23263
20183.24722
20183.26071
20183.27278
20183.28313
20183.29162
20183.29843
20183.30426
20183.30923
20183.30861
20183.28504
20183.20392
20183.13058
20183.12835
20183.21562
20183.2351
20183.12522
20182.94503
20182.74569
20182.53738
20182.3229
20182.10316
20181.87838
20181.6484
20181.41274
20181.1706
20180.92084
20180.66193
20180.39211
20180.10018
20179.95605
20179.93782
20179.94185
20179.94279
20179.93963
20179.92866
20179.91051
20179.89098
20179.87312
20179.85185
20179.81782
20179.75837
20179.65713
20179.51425
20179.36814
20179.26485
20179.21828
20179.20741
20179.19799
20179.16608
20179.10571
20179.02333
20178.91344
20178.79623
20178.71689
20178.67726
20178.65943
20178.65724
20178.67682
20178.72721
20178.81352
20178.93454
20179.08522
20179.26261
20179.46505
20179.69114
20179.94117
20180.21486
20180.50792
20180.81104
20181.11248
20181.40349
20181.68233
20181.95217
20182.21227
20182.44342
20182.61333
20182.68859
20182.64164
20182.46604
20182.27161
20182.0686
20181.82001
20181.60655
20181.42581
20181.27129
20181.21163
20181.22373
20181.25606
20181.2764
20181.26968
20181.24052
20181.20221
20181.16624
20181.15434
20181.17203
20181.20074
20181.21899
20181.21096
20181.18032
20181.14594
20181.12363
20181.11869
20181.13581
20181.16576
20181.18274
20181.17648
20181.14758
20181.09025
20181.00178
20180.88833
20180.76119
20180.63006
20180.50151
20180.38012
20180.26881
20180.16966
20180.08473
20180.01581
20179.96397
20179.92952
20179.9123
20179.91179
20179.92732
20179.95802
20180.0027
20180.05978
20180.12779
20180.20529
20180.29045
20180.38163
20180.47753
20180.57626
20180.67655
20180.77687
20180.87609
20180.97357
20181.06798
20181.15873
20181.24487
20181.32665
20181.40322
20181.47487
20181.5411
20181.60215
20181.65816
20181.70925
20181.7557
20181.7977
20181.83563
20181.86969
20181.90026
20181.9276
20181.95204
20181.97385
20181.99332
20182.01071
20182.02628
20182.04024
20182.05283
20182.06425
20182.07467
20182.08428
20182.09323
20182.10166
20182.10968
20182.11741
20182.12496
20182.1324
20182.13983
20182.1473
20182.15491
20182.16267
20182.17072
20182.17901
20182.18767
20182.19665
20182.20606
20182.21583
20182.22602
20182.23657
20182.2475
20182.25872
20182.27022
20182.28189
20182.29368
20182.30546
20182.31723
20182.31723
20183.21127
20183.21127
20183.20317
20183.19324
20183.18484
20183.17936
20183.17762
20183.18017
20183.18707
20183.1977
20183.21089
20183.22533
20183.23996
20183.25408
20183.26724
20183.27898
20183.28897
20183.29713
20183.30377
20183.30865
20183.30628
20183.28106
20183.20377
20183.14824
20183.15555
20183.20792
20183.21909
20183.11617
20182.94385
20182.7483
20182.54147
20182.32754
20182.10812
20181.88373
20181.65437
20181.41965
20181.1789
20180.93118
20180.67527
20180.4104
20180.11983
20179.9662
20179.94091
20179.94312
20179.943
20179.93955
20179.9285
20179.9104
20179.89212
20179.87783
20179.86208
20179.83323
20179.7746
20179.66684
20179.51484
20179.36189
20179.25401
20179.20426
20179.18907
20179.17099
20179.12605
20179.05145
20178.95477
20178.83831
20178.71872
20178.6281
20178.57491
20178.55271
20178.55864
20178.59332
20178.65793
20178.75564
20178.88559
20179.04076
20179.21821
20179.41815
20179.63993
20179.88522
20180.15588
20180.44934
20180.75586
20181.06046
20181.35036
20181.62167
20181.87943
20182.12668
20182.34593
20182.50632
20182.57257
20182.53071
20182.37204
20182.1675
20181.9582
20181.7044
20181.47768
20181.2977
20181.16026
20181.09864
20181.10718
20181.16259
20181.22389
20181.24796
20181.23203
20181.19487
20181.15249
20181.13763
20181.15681
20181.19071
20181.21448
20181.2042
20181.16473
20181.12367
20181.10306
20181.11015
20181.14308
20181.17859
20181.18848
20181.17013
20181.12705
20181.05686
20180.96112
20180.84646
20180.72143
20180.59349
20180.46821
20180.34966
20180.24075
20180.1437
20180.06057
20179.99314
20179.94262
20179.9094
20179.89326
20179.89374
20179.91036
20179.94226
20179.988
20180.046
20180.11505
20180.19362
20180.27968
20180.37181
20180.46866
20180.56815
20180.66914
20180.77021
20180.8703
20180.96833
20181.0633
20181.15456
20181.24124
20181.32351
20181.40048
20181.47254
20181.53905
20181.60039
20181.65667
20181.70798
20181.75461
20181.79677
20181.83484
20181.86901
20181.89968
20181.92709
20181.9516
20181.97346
20181.99297
20182.01039
20182.02598
20182.03996
20182.05255
20182.06397
20182.07439
20182.084
20182.09294
20182.10135
20182.10936
20182.11709
20182.12462
20182.13205
20182.13947
20182.14693
20182.15454
20182.1623
20182.17035
20182.17865
20182.18733
20182.19635
20182.20579
20182.21561
20182.22586
20182.2365
20182.24752
20182.25885
20182.27047
20182.28227
20182.2942
20182.30612
20182.31809
20182.31809
20183.19594
20183.19594
20183.19047
20183.18318
20183.17678
20183.1727
20183.17179
20183.17456
20183.18105
20183.19081
20183.20298
20183.21659
20183.23079
20183.24498
20183.25872
20183.27156
20183.28306
20183.29289
20183.3007
20183.30543
20183.30144
20183.27796
20183.21551
20183.1767
20183.19256
20183.23584
20183.23642
20183.12309
20182.94962
20182.75424
20182.5475
20182.3336
20182.11433
20181.89035
20181.66172
20181.42813
20181.18904
20180.9437
20180.69119
20180.43191
20180.14226
20179.97691
20179.94397
20179.94357
20179.94346
20179.93977
20179.92876
20179.91089
20179.89395
20179.88353
20179.87415
20179.85206
20179.79662
20179.68744
20179.53387
20179.37912
20179.26484
20179.20291
20179.17041
20179.13221
20179.06947
20178.98232
20178.87581
20178.75276
20178.62854
20178.52922
20178.4671
20178.44378
20178.45895
20178.50811
20178.58585
20178.69427
20178.83266
20178.99171
20179.16821
20179.36386
20179.57879
20179.81624
20180.08089
20180.37277
20180.68262
20180.99258
20181.28463
20181.55008
20181.79504
20182.02836
20182.23591
20182.38395
20182.44456
20182.39769
20182.26006
20182.04843
20181.82474
20181.5739
20181.34221
20181.16317
20181.03459
20180.97386
20180.97379
20181.03447
20181.13039
20181.19855
20181.21012
20181.18154
20181.1366
20181.12091
20181.14017
20181.17902
20181.2072
20181.19019
20181.13776
20181.08901
20181.07256
20181.0963
20181.14516
20181.18157
20181.18052
20181.14724
20181.08964
20181.00992
20180.9112
20180.79832
20180.6771
20180.55316
20180.43128
20180.31547
20180.20881
20180.11365
20180.03204
20179.96593
20179.91669
20179.88475
20179.86977
20179.87138
20179.88926
20179.92251
20179.96947
20180.02865
20180.09899
20180.17878
20180.26594
20180.35926
20180.4572
20180.55767
20180.65953
20180.76151
20180.86267
20180.96138
20181.05702
20181.14888
20181.23632
20181.31915
20181.39665
20181.46919
20181.53606
20181.59778
20181.6544
20181.70599
20181.75287
20181.79524
20181.83349
20181.86781
20181.89862
20181.92614
20181.95075
20181.97269
20181.99227
20182.00975
20182.02538
20182.03939
20182.05201
20182.06345
20182.07388
20182.0835
20182.09243
20182.10085
20182.10886
20182.11658
20182.1241
20182.13153
20182.13894
20182.14639
20182.154
20182.16177
20182.16983
20182.17815
20182.18685
20182.19591
20182.20539
20182.21529
20182.22563
20182.23637
20182.24752
20182.25901
20182.2708
20182.28278
20182.2949
20182.307
20182.3192
20182.3192
20183.18202
20183.18202
20183.17828
20183.17299
20183.16825
20183.16537
20183.16518
20183.16812
20183.17426
20183.18326
20183.19449
20183.2072
20183.22072
20183.23456
20183.24833
20183.26167
20183.27417
20183.28534
20183.29429
20183.29934
20183.29419
20183.27476
20183.23248
20183.21016
20183.23153
20183.27592
20183.27003
20183.14207
20182.96185
20182.76354
20182.5555
20182.34106
20182.12174
20181.89816
20181.67035
20181.43808
20181.20088
20180.95822
20180.70938
20180.45629
20180.16792
20179.98956
20179.94757
20179.94428
20179.94445
20179.94072
20179.92992
20179.91248
20179.89691
20179.89022
20179.88734
20179.87284
20179.82326
20179.71922
20179.57215
20179.41978
20179.2963
20179.21278
20179.15154
20179.08671
20179.00646
20178.90951
20178.79473
20178.66377
20178.53262
20178.42533
20178.35768
20178.33672
20178.36277
20178.42614
20178.51619
20178.63441
20178.78017
20178.94248
20179.11738
20179.30713
20179.51259
20179.73854
20179.99283
20180.2792
20180.59028
20180.9065
20181.20429
20181.46781
20181.70056
20181.91701
20182.11449
20182.25046
20182.3047
20182.2553
20182.12511
20181.91754
20181.68274
20181.43272
20181.19902
20181.02448
20180.90188
20180.84018
20180.83342
20180.88923
20181.00273
20181.11641
20181.16968
20181.16088
20181.12208
20181.1083
20181.12486
20181.16771
20181.19592
20181.16455
20181.09416
20181.03745
20181.0289
20181.07079
20181.13123
20181.16424
20181.15229
20181.10709
20181.0402
20180.95627
20180.85787
20180.74805
20180.63074
20180.5103
20180.39119
20180.27756
20180.17272
20180.07906
20179.99868
20179.93373
20179.88575
20179.8551
20179.84137
20179.84429
20179.86363
20179.89837
20179.94674
20180.00739
20180.07925
20180.16043
20180.24894
20180.3437
20180.44285
20180.54453
20180.64751
20180.75063
20180.85292
20180.95246
20181.04899
20181.1416
20181.22997
20181.3134
20181.39161
20181.46469
20181.532
20181.59422
20181.65125
20181.70319
20181.75037
20181.793
20181.83149
20181.86601
20181.89699
20181.92466
20181.9494
20181.97145
20181.99113
20182.00869
20182.02439
20182.03847
20182.05113
20182.06261
20182.07307
20182.08272
20182.09167
20182.10011
20182.10812
20182.11585
20182.12338
20182.13081
20182.13822
20182.14567
20182.15329
20182.16106
20182.16914
20182.17748
20182.18622
20182.19533
20182.20488
20182.21486
20182.2253
20182.23618
20182.24749
20182.25917
20182.27117
20182.28339
20182.29574
20182.30808
20182.32049
20182.32049
20183.16909
20183.16909
20183.1665
20183.16273
20183.15934
20183.15747
20183.15789
20183.16099
20183.16685
20183.17524
20183.18565
20183.19751
20183.21029
20183.22357
20183.23702
20183.25037
20183.26326
20183.27519
20183.285
20183.29092
20183.28607
20183.27331
20183.2492
20183.24239
20183.27011
20183.31882
20183.30998
20183.16906
20182.97921
20182.77575
20182.56526
20182.34977
20182.13025
20181.90706
20181.68018
20181.44937
20181.21427
20180.97452
20180.7295
20180.48313
20180.1971
20180.00525
20179.95248
20179.94594
20179.94616
20179.94267
20179.93235
20179.91559
20179.90132
20179.89791
20179.90094
20179.89394
20179.8522
20179.75814
20179.62186
20179.47208
20179.33529
20179.22363
20179.12923
20179.0385
20178.94392
20178.83883
20178.71547
20178.57528
20178.43577
20178.32163
20178.25221
20178.2371
20178.27487
20178.35152
20178.45313
20178.58007
20178.73164
20178.89659
20179.06985
20179.25297