# vtk DataFile Version 2.0
FlowField
ASCII
DATASET STRUCTURED_GRID
DIMENSIONS 200 1 200
POINTS 40000 float
0 0 0
0.15 0 0
0.3 0 0
0.45 0 0
0.6 0 0
0.75 0 0
0.9 0 0
1.05 0 0
1.2 0 0
1.35 0 0
1.5 0 0
1.65 0 0
1.8 0 0
1.95 0 0
2.1 0 0
2.25 0 0
2.4 0 0
2.55 0 0
2.7 0 0
2.85 0 0
3 0 0
3.15 0 0
3.3 0 0
3.45 0 0
3.6 0 0
3.75 0 0
3.9 0 0
4.05 0 0
4.2 0 0
4.35 0 0
4.5 0 0
4.65 0 0
4.8 0 0
4.95 0 0
5.1 0 0
5.25 0 0
5.4 0 0
5.55 0 0
5.7 0 0
5.85 0 0
6 0 0
6.15 0 0
6.3 0 0
6.45 0 0
6.6 0 0
6.75 0 0
6.9 0 0
7.05 0 0
7.2 0 0
7.35 0 0
7.5 0 0
7.65 0 0
7.8 0 0
7.95 0 0
8.1 0 0
8.25 0 0
8.4 0 0
8.55 0 0
8.7 0 0
8.85 0 0
9 0 0
9.15 0 0
9.3 0 0
9.45 0 0
9.6 0 0
9.75 0 0
9.9 0 0
10.05 0 0
10.2 0 0
10.35 0 0
10.5 0 0
10.65 0 0
10.8 0 0
10.95 0 0
11.1 0 0
11.25 0 0
11.4 0 0
11.55 0 0
11.7 0 0
11.85 0 0
12 0 0
12.15 0 0
12.3 0 0
12.45 0 0
12.6 0 0
12.75 0 0
12.9 0 0
13.05 0 0
13.2 0 0
13.35 0 0
13.5 0 0
13.65 0 0
13.8 0 0
13.95 0 0
14.1 0 0
14.25 0 0
14.4 0 0
14.55 0 0
14.7 0 0
14.85 0 0
15 0 0
15.15 0 0
15.3 0 0
15.45 0 0
15.6 0 0
15.75 0 0
15.9 0 0
16.05 0 0
16.2 0 0
16.35 0 0
16.5 0 0
16.65 0 0
16.8 0 0
16.95 0 0
17.1 0 0
17.25 0 0
17.4 0 0
17.55 0 0
17.7 0 0
17.85 0 0
18 0 0
18.15 0 0
18.3 0 0
18.45 0 0
18.6 0 0
18.75 0 0
18.9 0 0
19.05 0 0
19.2 0 0
19.35 0 0
19.5 0 0
19.65 0 0
19.8 0 0
19.95 0 0
20.1 0 0
20.25 0 0
20.4 0 0
20.55 0 0
20.7 0 0
20.85 0 0
21 0 0
21.15 0 0
21.3 0 0
21.45 0 0
21.6 0 0
21.75 0 0
21.9 0 0
22.05 0 0
22.2 0 0
22.35 0 0
22.5 0 0
22.65 0 0
22.8 0 0
22.95 0 0
23.1 0 0
23.25 0 0
23.4 0 0
23.55 0 0
23.7 0 0
23.85 0 0
24 0 0
24.15 0 0
24.3 0 0
24.45 0 0
24.6 0 0
24.75 0 0
24.9 0 0
25.05 0 0
25.2 0 0
25.35 0 0
25.5 0 0
25.65 0 0
25.8 0 0
25.95 0 0
26.1 0 0
26.25 0 0
26.4 0 0
26.55 0 0
26.7 0 0
26.85 0 0
27 0 0
27.15 0 0
27.3 0 0
27.45 0 0
27.6 0 0
27.75 0 0
27.9 0 0
28.05 0 0
28.2 0 0
28.35 0 0
28.5 0 0
28.65 0 0
28.8 0 0
28.95 0 0
29.1 0 0
29.25 0 0
29.4 0 0
29.55 0 0
29.7 0 0
29.85 0 0
0 0.075 0
0.15 0.075 0
0.3 0.075 0
0.45 0.075 0
0.6 0.075 0
0.75 0.075 0
0.9 0.075 0
1.05 0.075 0
1.2 0.075 0
1.35 0.075 0
1.5 0.075 0
1.65 0.075 0
1.8 0.075 0
1.95 0.075 0
2.1 0.075 0
2.25 0.075 0
2.4 0.075 0
2.55 0.075 0
2.7 0.075 0
2.85 0.075 0
3 0.075 0
3.15 0.075 0
3.3 0.075 0
3.45 0.075 0
3.6 0.075 0
3.75 0.075 0
3.9 0.075 0
4.05 0.075 0
4.2 0.075 0
4.35 0.075 0
4.5 0.075 0
4.65 0.075 0
4.8 0.075 0
4.95 0.075 0
5.1 0.075 0
5.25 0.075 0
5.4 0.075 0
5.55 0.075 0
5.7 0.075 0
5.85 0.075 0
6 0.075 0
6.15 0.075 0
6.3 0.075 0
6.45 0.075 0
6.6 0.075 0
6.75 0.075 0
6.9 0.075 0
7.05 0.075 0
7.2 0.075 0
7.35 0.075 0
7.5 0.075 0
7.65 0.075 0
7.8 0.075 0
7.95 0.075 0
8.1 0.075 0
8.25 0.075 0
8.4 0.075 0
8.55 0.075 0
8.7 0.075 0
8.85 0.075 0
9 0.075 0
9.15 0.075 0
9.3 0.075 0
9.45 0.075 0
9.6 0.075 0
9.75 0.075 0
9.9 0.075 0
10.05 0.075 0
10.2 0.075 0
10.35 0.075 0
10.5 0.075 0
10.65 0.075 0
10.8 0.075 0
10.95 0.075 0
11.1 0.075 0
11.25 0.075 0
11.4 0.075 0
11.55 0.075 0
11.7 0.075 0
11.85 0.075 0
12 0.075 0
12.15 0.075 0
12.3 0.075 0
12.45 0.075 0
12.6 0.075 0
12.75 0.075 0
12.9 0.075 0
13.05 0.075 0
13.2 0.075 0
13.35 0.075 0
13.5 0.075 0
13.65 0.075 0
13.8 0.075 0
13.95 0.075 0
14.1 0.075 0
14.25 0.075 0
14.4 0.075 0
14.55 0.075 0
14.7 0.075 0
14.85 0.075 0
15 0.075 0
15.15 0.075 0
15.3 0.075 0
15.45 0.075 0
15.6 0.075 0
15.75 0.075 0
15.9 0.075 0
16.05 0.075 0
16.2 0.075 0
16.35 0.075 0
16.5 0.075 0
16.65 0.075 0
16.8 0.075 0
16.95 0.075 0
17.1 0.075 0
17.25 0.075 0
17.4 0.075 0
17.55 0.075 0
17.7 0.075 0
17.85 0.075 0
18 0.075 0
18.15 0.075 0
18.3 0.075 0
18.45 0.075 0
18.6 0.075 0
18.75 0.075 0
18.9 0.075 0
19.05 0.075 0
19.2 0.075 0
19.35 0.075 0
19.5 0.075 0
19.65 0.075 0
19.8 0.075 0
19.95 0.075 0
20.1 0.075 0
20.25 0.075 0
20.4 0.075 0
20.55 0.075 0
20.7 0.075 0
20.85 0.075 0
21 0.075 0
21.15 0.075 0
21.3 0.075 0
21.45 0.075 0
21.6 0.075 0
21.75 0.075 0
21.9 0.075 0
22.05 0.075 0
22.2 0.075 0
22.35 0.075 0
22.5 0.075 0
22.65 0.075 0
22.8 0.075 0
22.95 0.075 0
23.1 0.075 0
23.25 0.075 0
23.4 0.075 0
23.55 0.075 0
23.7 0.075 0
23.85 0.075 0
24 0.075 0
24.15 0.075 0
24.3 0.075 0
24.45 0.075 0
24.6 0.075 0
24.75 0.075 0
24.9 0.075 0
25.05 0.075 0
25.2 0.075 0
25.35 0.075 0
25.5 0.075 0
25.65 0.075 0
25.8 0.075 0
25.95 0.075 0
26.1 0.075 0
26.25 0.075 0
26.4 0.075 0
26.55 0.075 0
26.7 0.075 0
26.85 0.075 0
27 0.075 0
27.15 0.075 0
27.3 0.075 0
27.45 0.075 0
27.6 0.075 0
27.75 0.075 0
27.9 0.075 0
28.05 0.075 0
28.2 0.075 0
28.35 0.075 0
28.5 0.075 0
28.65 0.075 0
28.8 0.075 0
28.95 0.075 0
29.1 0.075 0
29.25 0.075 0
29.4 0.075 0
29.55 0.075 0
29.7 0.075 0
29.85 0.075 0
0 0.15 0
0.15 0.15 0
0.3 0.15 0
0.45 0.15 0
0.6 0.15 0
0.75 0.15 0
0.9 0.15 0
1.05 0.15 0
1.2 0.15 0
1.35 0.15 0
1.5 0.15 0
1.65 0.15 0
1.8 0.15 0
1.95 0.15 0
2.1 0.15 0
2.25 0.15 0
2.4 0.15 0
2.55 0.15 0
2.7 0.15 0
2.85 0.15 0
3 0.15 0
3.15 0.15 0
3.3 0.15 0
3.45 0.15 0
3.6 0.15 0
3.75 0.15 0
3.9 0.15 0
4.05 0.15 0
4.2 0.15 0
4.35 0.15 0
4.5 0.15 0
4.65 0.15 0
4.8 0.15 0
4.95 0.15 0
5.1 0.15 0
5.25 0.15 0
5.4 0.15 0
5.55 0.15 0
5.7 0.15 0
5.85 0.15 0
6 0.15 0
6.15 0.15 0
6.3 0.15 0
6.45 0.15 0
6.6 0.15 0
6.75 0.15 0
6.9 0.15 0
7.05 0.15 0
7.2 0.15 0
7.35 0.15 0
7.5 0.15 0
7.65 0.15 0
7.8 0.15 0
7.95 0.15 0
8.1 0.15 0
8.25 0.15 0
8.4 0.15 0
8.55 0.15 0
8.7 0.15 0
8.85 0.15 0
9 0.15 0
9.15 0.15 0
9.3 0.15 0
9.45 0.15 0
9.6 0.15 0
9.75 0.15 0
9.9 0.15 0
10.05 0.15 0
10.2 0.15 0
10.35 0.15 0
10.5 0.15 0
10.65 0.15 0
10.8 0.15 0
10.95 0.15 0
11.1 0.15 0
11.25 0.15 0
11.4 0.15 0
11.55 0.15 0
11.7 0.15 0
11.85 0.15 0
12 0.15 0
12.15 0.15 0
12.3 0.15 0
12.45 0.15 0
12.6 0.15 0
12.75 0.15 0
12.9 0.15 0
13.05 0.15 0
13.2 0.15 0
13.35 0.15 0
13.5 0.15 0
13.65 0.15 0
13.8 0.15 0
13.95 0.15 0
14.1 0.15 0
14.25 0.15 0
14.4 0.15 0
14.55 0.15 0
14.7 0.15 0
14.85 0.15 0
15 0.15 0
15.15 0.15 0
15.3 0.15 0
15.45 0.15 0
15.6 0.15 0
15.75 0.15 0
15.9 0.15 0
16.05 0.15 0
16.2 0.15 0
16.35 0.15 0
16.5 0.15 0
16.65 0.15 0
16.8 0.15 0
16.95 0.15 0
17.1 0.15 0
17.25 0.15 0
17.4 0.15 0
17.55 0.15 0
17.7 0.15 0
17.85 0.15 0
18 0.15 0
18.15 0.15 0
18.3 0.15 0
18.45 0.15 0
18.6 0.15 0
18.75 0.15 0
18.9 0.15 0
19.05 0.15 0
19.2 0.15 0
19.35 0.15 0
19.5 0.15 0
19.65 0.15 0
19.8 0.15 0
19.95 0.15 0
20.1 0.15 0
20.25 0.15 0
20.4 0.15 0
20.55 0.15 0
20.7 0.15 0
20.85 0.15 0
21 0.15 0
21.15 0.15 0
21.3 0.15 0
21.45 0.15 0
21.6 0.15 0
21.75 0.15 0
21.9 0.15 0
22.05 0.15 0
22.2 0.15 0
22.35 0.15 0
22.5 0.15 0
22.65 0.15 0
22.8 0.15 0
22.95 0.15 0
23.1 0.15 0
23.25 0.15 0
23.4 0.15 0
23.55 0.15 0
23.7 0.15 0
23.85 0.15 0
24 0.15 0
24.15 0.15 0
24.3 0.15 0
24.45 0.15 0
24.6 0.15 0
24.75 0.15 0
24.9 0.15 0
25.05 0.15 0
25.2 0.15 0
25.35 0.15 0
25.5 0.15 0
25.65 0.15 0
25.8 0.15 0
25.95 0.15 0
26.1 0.15 0
26.25 0.15 0
26.4 0.15 0
26.55 0.15 0
26.7 0.15 0
26.85 0.15 0
27 0.15 0
27.15 0.15 0
27.3 0.15 0
27.45 0.15 0
27.6 0.15 0
27.75 0.15 0
27.9 0.15 0
28.05 0.15 0
28.2 0.15 0
28.35 0.15 0
28.5 0.15 0
28.65 0.15 0
28.8 0.15 0
28.95 0.15 0
29.1 0.15 0
29.25 0.15 0
29.4 0.15 0
29.55 0.15 0
29.7 0.15 0
29.85 0.15 0
0 0.225 0
0.15 0.225 0
0.3 0.225 0
0.45 0.225 0
0.6 0.225 0
0.75 0.225 0
0.9 0.225 0
1.05 0.225 0
1.2 0.225 0
1.35 0.225 0
1.5 0.225 0
1.65 0.225 0
1.8 0.225 0
1.95 0.225 0
2.1 0.225 0
2.25 0.225 0
2.4 0.225 0
2.55 0.225 0
2.7 0.225 0
2.85 0.225 0
3 0.225 0
3.15 0.225 0
3.3 0.225 0
3.45 0.225 0
3.6 0.225 0
3.75 0.225 0
3.9 0.225 0
4.05 0.225 0
4.2 0.225 0
4.35 0.225 0
4.5 0.225 0
4.65 0.225 0
4.8 0.225 0
4.95 0.225 0
5.1 0.225 0
5.25 0.225 0
5.4 0.225 0
5.55 0.225 0
5.7 0.225 0
5.85 0.225 0
6 0.225 0
6.15 0.225 0
6.3 0.225 0
6.45 0.225 0
6.6 0.225 0
6.75 0.225 0
6.9 0.225 0
7.05 0.225 0
7.2 0.225 0
7.35 0.225 0
7.5 0.225 0
7.65 0.225 0
7.8 0.225 0
7.95 0.225 0
8.1 0.225 0
8.25 0.225 0
8.4 0.225 0
8.55 0.225 0
8.7 0.225 0
8.85 0.225 0
9 0.225 0
9.15 0.225 0
9.3 0.225 0
9.45 0.225 0
9.6 0.225 0
9.75 0.225 0
9.9 0.225 0
10.05 0.225 0
10.2 0.225 0
10.35 0.225 0
10.5 0.225 0
10.65 0.225 0
10.8 0.225 0
10.95 0.225 0
11.1 0.225 0
11.25 0.225 0
11.4 0.225 0
11.55 0.225 0
11.7 0.225 0
11.85 0.225 0
12 0.225 0
12.15 0.225 0
12.3 0.225 0
12.45 0.225 0
12.6 0.225 0
12.75 0.225 0
12.9 0.225 0
13.05 0.225 0
13.2 0.225 0
13.35 0.225 0
13.5 0.225 0
13.65 0.225 0
13.8 0.225 0
13.95 0.225 0
14.1 0.225 0
14.25 0.225 0
14.4 0.225 0
14.55 0.225 0
14.7 0.225 0
14.85 0.225 0
15 0.225 0
15.15 0.225 0
15.3 0.225 0
15.45 0.225 0
15.6 0.225 0
15.75 0.225 0
15.9 0.225 0
16.05 0.225 0
16.2 0.225 0
16.35 0.225 0
16.5 0.225 0
16.65 0.225 0
16.8 0.225 0
16.95 0.225 0
17.1 0.225 0
17.25 0.225 0
17.4 0.225 0
17.55 0.225 0
17.7 0.225 0
17.85 0.225 0
18 0.225 0
18.15 0.225 0
18.3 0.225 0
18.45 0.225 0
18.6 0.225 0
18.75 0.225 0
18.9 0.225 0
19.05 0.225 0
19.2 0.225 0
19.35 0.225 0
19.5 0.225 0
19.65 0.225 0
19.8 0.225 0
19.95 0.225 0
20.1 0.225 0
20.25 0.225 0
20.4 0.225 0
20.55 0.225 0
20.7 0.225 0
20.85 0.225 0
21 0.225 0
21.15 0.225 0
21.3 0.225 0
21.45 0.225 0
21.6 0.225 0
21.75 0.225 0
21.9 0.225 0
22.05 0.225 0
22.2 0.225 0
22.35 0.225 0
22.5 0.225 0
22.65 0.225 0
22.8 0.225 0
22.95 0.225 0
23.1 0.225 0
23.25 0.225 0
23.4 0.225 0
23.55 0.225 0
23.7 0.225 0
23.85 0.225 0
24 0.225 0
24.15 0.225 0
24.3 0.225 0
24.45 0.225 0
24.6 0.225 0
24.75 0.225 0
24.9 0.225 0
25.05 0.225 0
25.2 0.225 0
25.35 0.225 0
25.5 0.225 0
25.65 0.225 0
25.8 0.225 0
25.95 0.225 0
26.1 0.225 0
26.25 0.225 0
26.4 0.225 0
26.55 0.225 0
26.7 0.225 0
26.85 0.225 0
27 0.225 0
27.15 0.225 0
27.3 0.225 0
27.45 0.225 0
27.6 0.225 0
27.75 0.225 0
27.9 0.225 0
28.05 0.225 0
28.2 0.225 0
28.35 0.225 0
28.5 0.225 0
28.65 0.225 0
28.8 0.225 0
28.95 0.225 0
29.1 0.225 0
29.25 0.225 0
29.4 0.225 0
29.55 0.225 0
29.7 0.225 0
29.85 0.225 0
0 0.3 0
0.15 0.3 0
0.3 0.3 0
0.45 0.3 0
0.6 0.3 0
0.75 0.3 0
0.9 0.3 0
1.05 0.3 0
1.2 0.3 0
1.35 0.3 0
1.5 0.3 0
1.65 0.3 0
1.8 0.3 0
1.95 0.3 0
2.1 0.3 0
2.25 0.3 0
2.4 0.3 0
2.55 0.3 0
2.7 0.3 0
2.85 0.3 0
3 0.3 0
3.15 0.3 0
3.3 0.3 0
3.45 0.3 0
3.6 0.3 0
3.75 0.3 0
3.9 0.3 0
4.05 0.3 0
4.2 0.3 0
4.35 0.3 0
4.5 0.3 0
4.65 0.3 0
4.8 0.3 0
4.95 0.3 0
5.1 0.3 0
5.25 0.3 0
5.4 0.3 0
5.55 0.3 0
5.7 0.3 0
5.85 0.3 0
6 0.3 0
6.15 0.3 0
[...]
POINT_DATA 40000

SCALARS p float 1
LOOKUP_TABLE default
20183.39482
20183.39482
20183.33947
20183.31187
20183.2937
20183.28106
20183.27414
20183.27424
20183.2815
20183.29403
20183.30884
20183.32336
20183.33622
20183.34729
20183.35685
20183.36493
20183.37145
20183.37661
20183.38065
20183.38233
20183.37845
20183.36719
20183.33531
20183.28134
20183.35062
20183.7746
20183.65485
20183.28878
20183.04219
20182.82457
20182.61226
20182.39818
20182.17996
20181.95657
20181.72723
20181.49107
20181.24685
20180.99292
20180.72691
20180.44538
20180.14273
20179.98381
20180.02887
20180.02863
20180.03715
20180.02846
20179.98998
20179.91289
20179.80237
20179.67529
20179.54843
20179.43837
20179.3637
20179.34066
20179.37221
20179.44122
20179.52093
20179.5931
20179.64889
20179.67722
20179.66733
20179.63215
20179.58195
20179.54811
20179.43969
20179.32535
20179.31253
20179.26847
20179.19429
20179.11903
20179.05898
20179.01999
20179.00281
20179.00717
20179.03173
20179.0768
20179.14168
20179.22662
20179.33148
20179.45802
20179.60609
20179.776
20179.9679
20180.18
20180.41094
20180.66026
20180.92661
20181.20803
20181.5025
20181.80441
20182.10204
20182.37343
20182.58884
20182.74393
20182.85953
20182.91747
20182.86945
20182.70593
20182.51636
20182.36213
20182.25595
20182.12424
20181.89621
20181.71642
20181.68298
20181.63637
20181.57015
20181.50935
20181.45405
20181.40451
20181.35397
20181.29916
20181.26342
20181.29145
20181.38375
20181.47449
20181.51818
20181.51886
20181.49686
20181.47985
20181.49069
20181.51061
20181.51343
20181.50154
20181.48469
20181.46177
20181.42578
20181.37251
20181.30206
20181.21743
20181.12294
20181.02306
20180.9215
20180.82136
20180.7253
20180.63539
20180.55338
20180.48083
20180.41894
20180.36859
20180.33041
20180.30472
20180.29152
20180.29048
20180.30121
20180.32338
20180.35639
20180.39906
20180.45006
20180.50837
20180.57297
20180.6425
20180.71594
20180.79218
20180.86978
20180.94848
20181.02626
20181.10324
20181.17834
20181.25109
20181.32111
20181.38796
20181.45153
20181.51164
20181.56831
20181.62157
20181.67153
20181.71834
20181.76219
20181.80331
20181.84191
20181.87824
20181.91253
20181.945
20181.97589
20182.0054
20182.03375
20182.06111
20182.08767
20182.11357
20182.13897
20182.16398
20182.18874
20182.21331
20182.23782
20182.26231
20182.28688
20182.31154
20182.33638
20182.36139
20182.38665
20182.41215
20182.43793
20182.46396
20182.49029
20182.51684
20182.54361
20182.57051
20182.59748
20182.59748
20183.39482
20183.39482
20183.33947
20183.31187
20183.2937
20183.28106
20183.27414
20183.27424
20183.2815
20183.29403
20183.30884
20183.32336
20183.33622
20183.34729
20183.35685
20183.36493
20183.37145
20183.37661
20183.38065
20183.38233
20183.37845
20183.36719
20183.33531
20183.28134
20183.35062
20183.7746
20183.65485
20183.28878
20183.04219
20182.82457
20182.61226
20182.39818
20182.17996
20181.95657
20181.72723
20181.49107
20181.24685
20180.99292
20180.72691
20180.44538
20180.14273
20179.98381
20180.02887
20180.02863
20180.03715
20180.02846
20179.98998
20179.91289
20179.80237
20179.67529
20179.54843
20179.43837
20179.3637
20179.34066
20179.37221
20179.44122
20179.52093
20179.5931
20179.64889
20179.67722
20179.66733
20179.63215
20179.58195
20179.54811
20179.43969
20179.32535
20179.31253
20179.26847
20179.19429
20179.11903
20179.05898
20179.01999
20179.00281
20179.00717
20179.03173
20179.0768
20179.14168
20179.22662
20179.33148
20179.45802
20179.60609
20179.776
20179.9679
20180.18
20180.41094
20180.66026
20180.92661
20181.20803
20181.5025
20181.80441
20182.10204
20182.37343
20182.58884
20182.74393
20182.85953
20182.91747
20182.86945
20182.70593
20182.51636
20182.36213
20182.25595
20182.12424
20181.89621
20181.71642
20181.68298
20181.63637
20181.57015
20181.50935
20181.45405
20181.40451
20181.35397
20181.29916
20181.26342
20181.29145
20181.38375
20181.47449
20181.51818
20181.51886
20181.49686
20181.47985
20181.49069
20181.51061
20181.51343
20181.50154
20181.48469
20181.46177
20181.42578
20181.37251
20181.30206
20181.21743
20181.12294
20181.02306
20180.9215
20180.82136
20180.7253
20180.63539
20180.55338
20180.48083
20180.41894
20180.36859
20180.33041
20180.30472
20180.29152
20180.29048
20180.30121
20180.32338
20180.35639
20180.39906
20180.45006
20180.50837
20180.57297
20180.6425
20180.71594
20180.79218
20180.86978
20180.94848
20181.02626
20181.10324
20181.17834
20181.25109
20181.32111
20181.38796
20181.45153
20181.51164
20181.56831
20181.62157
20181.67153
20181.71834
20181.76219
20181.80331
20181.84191
20181.87824
20181.91253
20181.945
20181.97589
20182.0054
20182.03375
20182.06111
20182.08767
20182.11357
20182.13897
20182.16398
20182.18874
20182.21331
20182.23782
20182.26231
20182.28688
20182.31154
20182.33638
20182.36139
20182.38665
20182.41215
20182.43793
20182.46396
20182.49029
20182.51684
20182.54361
20182.57051
20182.59748
20182.59748
20183.36219
20183.36219
20183.33038
20183.30739
20183.29125
20183.28019
20183.27453
20183.27537
20183.28286
20183.29531
20183.30996
20183.32434
20183.33712
20183.34811
20183.35761
20183.36558
20183.37195
20183.37695
20183.38095
20183.38318
20183.38086
20183.36688
20183.31644
20183.24166
20183.25913
20183.55863
20183.51725
20183.25976
20183.03524
20182.82331
20182.6127
20182.3992
20182.18123
20181.95802
20181.72891
20181.49303
20181.24923
20180.99587
20180.73071
20180.45055
20180.14901
20180.00846
20180.02079
20180.02672
20180.03542
20180.02667
20179.98739
20179.90913
20179.79786
20179.66995
20179.54097
20179.42707
20179.34843
20179.32375
20179.35823
20179.43484
20179.52371
20179.60174
20179.65767
20179.68235
20179.66753
20179.63032
20179.57929
20179.54848
20179.45475
20179.33012
20179.29988
20179.25051
20179.1772
20179.10507
20179.04803
20179.01153
20178.99617
20179.0017
20179.02696
20179.07222
20179.13694
20179.2214
20179.32567
20179.45149
20179.59878
20179.76789
20179.95899
20180.17038
20180.40073
20180.64935
20180.91454
20181.19412
20181.48563
20181.78422
20182.08071
20182.35491
20182.57516
20182.7274
20182.8365
20182.88515
20182.81923
20182.66463
20182.49961
20182.35579
20182.23694
20182.09584
20181.8766
20181.71911
20181.68733
20181.63414
20181.56849
20181.50879
20181.45331
20181.40476
20181.35463
20181.29512
20181.25035
20181.27476
20181.37517
20181.47583
20181.52267
20181.52226
20181.49728
20181.47624
20181.48678
20181.5092
20181.51278
20181.50096
20181.48521
20181.46377
20181.42867
20181.3757
20181.30515
20181.21999
20181.12466
20181.02386
20180.92145
20180.82058
20180.72393
20180.63359
20180.55122
20180.4784
20180.41634
20180.36587
20180.32761
20180.30189
20180.28867
20180.28761
20180.29839
20180.32066
20180.35376
20180.39651
20180.44761
20180.50604
20180.57077
20180.64043
20180.71404
20180.79039
20180.86818
20180.94697
20181.02493
20181.10202
20181.17725
20181.25012
20181.32024
20181.38718
20181.45084
20181.51104
20181.56778
20181.62111
20181.67112
20181.71799
20181.76189
20181.80305
20181.84169
20181.87805
20181.91237
20181.94488
20181.9758
20182.00533
20182.0337
20182.06108
20182.08766
20182.11357
20182.13899
20182.16401
20182.18877
20182.21336
20182.23787
20182.26237
20182.28694
20182.31161
20182.33644
20182.36146
20182.38672
20182.41222
20182.43799
20182.46402
20182.49034
20182.51688
20182.54365
20182.57053
20182.59749
20182.59749
20183.33648
20183.33648
20183.31712
20183.29938
20183.28603
20183.27705
20183.27294
20183.27455
20183.28201
20183.29405
20183.30844
20183.323
20183.33632
20183.34797
20183.35793
20183.3661
20183.37251
20183.37748
20183.38169
20183.38482
20183.38325
20183.36287
20183.29091
20183.20907
20183.20218
20183.36694
20183.37818
20183.22258
20183.02551
20182.82185
20182.6139
20182.40134
20182.18381
20181.96096
20181.73227
20181.49699
20181.25401
20181.0018
20180.73829
20180.46083
20180.16177
20180.02071
20180.0143
20180.0259
20180.03315
20180.02393
20179.98318
20179.90244
20179.78934
20179.65973
20179.52621
20179.40369
20179.31509
20179.28474
20179.32319
20179.41442
20179.52316
20179.61843
20179.68007
20179.69922
20179.67214
20179.62882
20179.58115
20179.52791
20179.43576
20179.31441
20179.25735
20179.20038
20179.13285
20179.06997
20179.02115
20178.99104
20178.9802
20178.98865
20179.01558
20179.06132
20179.12589
20179.20949
20179.31264
20179.43696
20179.58288
20179.75053
20179.94016
20180.15054
20180.38003
20180.62725
20180.89017
20181.1662
20181.45218
20181.74388
20182.03527
20182.3122
20182.5434
20182.69645
20182.79035
20182.82522
20182.74161
20182.59674
20182.46733
20182.34116
20182.19989
20182.04398
20181.84945
20181.70394
20181.64912
20181.60417
20181.55695
20181.50328
20181.4486
20181.40145
20181.35105
20181.28278
20181.22226
20181.23991
20181.35362
20181.47118
20181.52292
20181.52144
20181.49661
20181.47474
20181.48497
20181.50753
20181.50996
20181.49862
20181.4856
20181.46637
20181.43138
20181.37676
20181.30385
20181.21647
20181.11939
20181.0173
20180.91401
20180.81259
20180.71563
20180.62514
20180.54278
20180.47005
20180.40813
20180.35788
20180.31987
20180.29441
20180.28144
20180.28069
20180.29185
20180.31451
20180.34793
20180.391
20180.44247
20180.5013
20180.5664
20180.63646
20180.71046
20180.78716
20180.86534
20180.9444
20181.02271
20181.10007
20181.17559
20181.24868
20181.31904
20181.38615
20181.44998
20181.51032
20181.56718
20181.62061
20181.67071
20181.71766
20181.76161
20181.80282
20181.8415
20181.8779
20181.91225
20181.94477
20181.97571
20182.00526
20182.03364
20182.06102
20182.08761
20182.11352
20182.13894
20182.16396
20182.18872
20182.21331
20182.23782
20182.26233
20182.2869
20182.31157
20182.33641
20182.36144
20182.38671
20182.41221
20182.438
20182.46405
20182.4904
20182.51696
20182.54376
20182.57064
20182.59759
20182.59759
20183.31577
20183.31577
20183.30346
20183.29008
20183.27934
20183.27222
20183.26939
20183.27153
20183.27871
20183.29003
20183.30382
20183.31831
20183.33221
20183.34486
20183.35593
20183.36514
20183.37235
20183.37783
20183.38245
20183.38624
20183.38398
20183.35756
20183.27505
20183.20563
20183.20344
20183.28607
20183.30425
20183.19584
20183.01821
20182.82172
20182.61634
20182.40476
20182.18774
20181.96536
20181.73731
20181.5029
20181.26113
20181.01059
20180.74944
20180.47561
20180.17737
20180.02805
20180.0111
20180.02399
20180.02994
20180.01959
20179.97676
20179.89313
20179.7781
20179.64623
20179.50579
20179.37001
20179.26529
20179.22471
20179.26773
20179.37945
20179.5171
20179.63959
20179.71365
20179.72852
20179.68642
20179.6231
20179.55739
20179.47678
20179.37389
20179.2617
20179.19236
20179.13391
20179.07567
20179.02444
20178.98595
20178.96366
20178.95842
20178.97045
20178.99932
20179.04559
20179.10997
20179.19261
20179.29425
20179.4167
20179.56077
20179.72639
20179.91394
20180.12258
20180.35035
20180.5952
20180.85474
20181.12604
20181.40533
20181.68788
20181.96808
20182.23903
20182.48018
20182.64879
20182.72501
20182.7387
20182.65516
20182.52835
20182.42943
20182.31773
20182.16498
20181.99682
20181.80529
20181.65072
20181.57255
20181.53439
20181.51275
20181.48143
20181.43635
20181.39271
20181.34152
20181.26038
20181.17681
20181.18215
20181.31122
20181.45183
20181.51098
20181.51086
20181.49337
20181.47835
20181.48945
20181.50806
20181.506
20181.49444
20181.48393
20181.46529
20181.42795
20181.36957
20181.29312
20181.20329
20181.10486
20181.00215
20180.89876
20180.79754
20180.70091
20180.61083
20180.52896
20180.45671
20180.39527
20180.34551
20180.308
20180.283
20180.27049
20180.27026
20180.28201
20180.30522
20180.33914
20180.38271
20180.43472
20180.49413
20180.55977
20180.6304
20180.70499
20180.78216
20180.86095
20180.94038
20181.01919
20181.097
20181.17288
20181.24634
20181.31701
20181.38439
20181.44847
20181.50901
20181.56606
20181.61965
20181.66987
20181.71694
20181.76097
20181.80227
20181.84101
20181.87746
20181.91185
20181.94441
20181.97538
20182.00495
20182.03335
20182.06074
20182.08734
20182.11326
20182.13868
20182.1637
20182.18847
20182.21307
20182.23759
20182.2621
20182.28668
20182.31138
20182.33624
20182.3613
20182.3866
20182.41215
20182.438
20182.46411
20182.49053
20182.51717
20182.54405
20182.57097
20182.59795
20182.59795
20183.2983
20183.2983
20183.29019
20183.28025
20183.27183
20183.2663
20183.26448
20183.26691
20183.27366
20183.28408
20183.29696
20183.31095
20183.32497
20183.33833
20183.35056
20183.36121
20183.36995
20183.37679
20183.38222
20183.38599
20183.38202
20183.35363
20183.27359
20183.21921
20183.22632
20183.27563
20183.28638
20183.18603
20183.01669
20182.82421
20182.62048
20182.40958
20182.19302
20181.97121
20181.74395
20181.51069
20181.2705
20181.02212
20180.76392
20180.49452
20180.19592
20180.03438
20180.0083
20180.01904
20180.02579
20180.01455
20179.96937
20179.88302
20179.76637
20179.63154
20179.48134
20179.32629
20179.1973
20179.14073
20179.18896
20179.32745
20179.50201
20179.65664
20179.74905
20179.76213
20179.69481
20179.59784
20179.49683
20179.39237
20179.28577
20179.1854
20179.11644
20179.06232
20179.01453
20178.97495
20178.94679
20178.93238
20178.93276
20178.94844
20178.97927
20179.02608
20179.09005
20179.17159
20179.27159
20179.39194
20179.5337
20179.69692
20179.88194
20180.08816
20180.31343
20180.55507
20180.8102
20181.07553
20181.34738
20181.62108
20181.89011
20182.1469
20182.38525
20182.57102
20182.64566
20182.64031
20182.56428
20182.4596
20182.38662
20182.29159
20182.13195
20181.94494
20181.74614
20181.57675
20181.47475
20181.43009
20181.42731
20181.42944
20181.40841
20181.37488
20181.32377
20181.2282
20181.11837
20181.10664
20181.24822
20181.41365
20181.48188
20181.48693
20181.48489
20181.48591
20181.50158
20181.51418
20181.505
20181.49094
20181.47933
20181.45733
20181.41504
20181.35208
20181.27257
20181.18134
20181.0827
20180.98041
20180.87773
20180.77732
20180.68146
20180.59213
20180.51098
20180.43939
20180.37856
20180.32941
20180.2925
20180.26807
20180.25612
20180.25652
20180.26893
20180.2928
20180.32738
20180.3716
20180.42427
20180.48439
20180.55073
20180.62209
20180.69742
20180.77524
20180.85481
20180.9347
20181.01414
20181.09254
20181.1689
20181.24285
20181.31392
20181.38165
20181.44607
20181.50687
20181.56417
20181.61798
20181.66837
20181.71561
20181.75976
20181.80119
20181.84001
20181.87656
20181.91102
20181.94363
20181.97465
20182.00426
20182.0327
20182.06013
20182.08674
20182.11268
20182.13812
20182.16316
20182.18795
20182.21256
20182.2371
20182.26164
20182.28625
20182.31098
20182.3359
20182.36101
20182.38638
20182.41202
20182.43797
20182.46421
20182.49077
20182.51757
20182.5446
20182.57163
20182.59867
20182.59867
20183.28294
20183.28294
20183.27746
20183.27016
20183.26372
20183.25958
20183.25858
20183.26121
20183.26753
20183.27707
20183.28893
20183.30211
20183.31576
20183.32926
20183.34216
20183.354
20183.36434
20183.37291
20183.37951
20183.38302
20183.37752
20183.35104
20183.28489
20183.24544
20183.26073
20183.30191
20183.3024
20183.19218
20183.02208
20182.83002
20182.62657
20182.41588
20182.19965
20181.97844
20181.75215
20181.52027
20181.28201
20181.03623
20180.7815
20180.51735
20180.21827
20180.0424
20180.00614
20180.01295
20180.02105
20180.00974
20179.96272
20179.87432
20179.75651
20179.61771
20179.45371
20179.27071
20179.10748
20179.02872
20179.0831
20179.25451
20179.47127
20179.65904
20179.76849
20179.77239
20179.66963
20179.53226
20179.40241
20179.28733
20179.18434
20179.09701
20179.03506
20178.98878
20178.95169
20178.92325
20178.90493
20178.89808
20178.9038
20178.92296
20178.95567
20179.00289
20179.06616
20179.14637
20179.24456
20179.36261
20179.50179
20179.66243
20179.84475
20180.04821
20180.27067
20180.50885
20180.75911
20181.01749
20181.28014
20181.54359
20181.80342
20182.04878
20182.27526
20182.46073
20182.55054
20182.5402
20182.47119
20182.39337
20182.33943
20182.25606
20182.09291
20181.87879
20181.6666
20181.48239
20181.36245
20181.30587
20181.30748
20181.34056
20181.35629
20181.34279
20181.29567
20181.19065
20181.06077
20181.0327
20181.17815
20181.36002
20181.43613
20181.45039
20181.47066
20181.49494
20181.51921
20181.52664
20181.50964
20181.48968
20181.47143
20181.44186
20181.39319
20181.3262
20181.2449
20181.15347
20181.05548
20180.9542
20180.85258
20180.75314
20180.65816
20180.56964
20180.48921
20180.41829
20180.35809
20180.30957
20180.27329
20180.24947
20180.23816
20180.23928
20180.25243
20180.27706
20180.31243
20180.35743
20180.41092
20180.47189
20180.53907
20180.61135
20180.68755
20180.76622
20180.84667
20180.92719
20181.00744
20181.08654
20181.16349
20181.23806
20181.3096
20181.37779
20181.44263
20181.50378
20181.5614
20181.61547
20181.66609
20181.71356
20181.75786
20181.79947
20181.8384
20181.87509
20181.90963
20181.94235
20181.97344
20182.00312
20182.03162
20182.0591
20182.08576
20182.11174
20182.13721
20182.16229
20182.18711
20182.21175
20182.23633
20182.26091
20182.28558
20182.31037
20182.33535
20182.36055
20182.38604
20182.4118
20182.43791
20182.46433
20182.49112
20182.51815
20182.54543
20182.57266
20182.59984
20182.59984
20183.269
20183.269
20183.26524
20183.25993
20183.25514
20183.25219
20183.2519
20183.2547
20183.26066
20183.26943
20183.28034
20183.29263
20183.30562
20183.31882
20183.33182
20183.34426
20183.35571
20183.36571
20183.37348
20183.37715
20183.37071
20183.34843
20183.30229
20183.27858
20183.299
20183.34161
20183.33539
20183.21049
20183.03393
20182.8392
20182.63466
20182.42362
20182.20757
20181.98699
20181.7618
20181.53156
20181.29553
20181.05277
20180.80195
20180.54393
20180.2453
20180.05423
20180.00612
20180.00798
20180.01656
20180.00617
20179.95855
20179.86926
20179.75075
20179.60637
20179.42267
20179.2024
20178.99636
20178.89033
20178.95107
20179.15836
20179.4175
20179.63502
20179.75307
20179.73081
20179.59123
20179.42681
20179.28565
20179.17058
20179.07634
20179.00295
20178.95122
20178.91483
20178.88825
20178.87034
20178.86119
20178.86144
20178.87203
20178.89433
20178.92861
20178.97592
20179.0381
20179.11649
20179.21243
20179.32783
20179.46415
20179.62203
20179.80165
20180.00239
20180.22215
20180.45725
20180.70323
20180.95527
20181.20863
20181.45938
20181.70648
20181.94178
20182.15784
20182.33701
20182.4377
20182.4355
20182.38134
20182.33319
20182.28714
20182.20159
20182.03754
20181.79296
20181.55927
20181.36386
20181.23149
20181.16617
20181.16581
20181.2185
20181.27518
20181.29271
20181.2573
20181.15385
20181.01692
20180.97957
20181.12109
20181.30455
20181.3835
20181.40886
20181.45341
20181.50276
20181.53771
20181.54199
20181.51754
20181.48841
20181.45922
20181.41993
20181.365
20181.29503
20181.21293
20181.12188
20181.02477
20180.92451
20180.82386
20180.72527
20180.63107
20180.54325
20180.46349
20180.3932
20180.33363
20180.28575
20180.25013
20180.22698
20180.21641
20180.21832
20180.23231
20180.25782
20180.2941
20180.34004
20180.3945
20180.45647
20180.52469
20180.59805
20180.67528
20180.75499
20180.83638
20180.91779
20180.99899
20181.07888
20181.15659
20181.23188
20181.30399
20181.37276
20181.43808
20181.49966
20181.55766
20181.61206
20181.66297
20181.7107
20181.7552
20181.79704
20181.83612
20181.87298
20181.90765
20181.94049
20181.97169
20182.00147
20182.03006
20182.05761
20182.08434
20182.11038
20182.13592
20182.16104
20182.18592
20182.21061
20182.23525
20182.2599
20182.28463
20182.3095
20182.33459
20182.3599
20182.38553
20182.41146
20182.43779
20182.46445
20182.49153
20182.51888
20182.54651
20182.57407
20182.60147
20182.60147
20183.25604
20183.25604
20183.25344
20183.24964
20183.2462
20183.24426
20183.24456
20183.24751
20183.25318
20183.26132
20183.27141
20183.28286
20183.29513
20183.3078
20183.32054
20183.33305
20183.34499
20183.35583
20183.3645
20183.36894
20183.36279
20183.34701
20183.31968
20183.31127
20183.33769
20183.38463
20183.37506
20183.23692
20183.05095
20182.85131
20182.64453
20182.43267
20182.21665
20181.99674
20181.77281
20181.54441
20181.31092
20181.07154
20180.82501
20180.57399
20180.27761
20180.07158
20180.00993
20180.006
20180.01406
20180.00528
20179.95863
20179.86986
20179.75096
20179.5988
20179.38987
20179.12741
20178.87447
20178.73739
20178.80188
20179.04195
20179.33711
20179.57364
20179.68553
20179.62826
20179.46449
20179.29392
20179.15644
20179.04853
20178.96712
20178.90833
20178.86864
20178.84305
20178.82645
20178.81804
20178.81702
20178.8237
20178.83847
20178.86335
20178.89875
20178.94561