# vtk DataFile Version 2.0
FlowField
ASCII
DATASET STRUCTURED_GRID
DIMENSIONS 200 1 200
POINTS 40000 float
0 0 0
0.15 0 0
0.3 0 0
0.45 0 0
0.6 0 0
0.75 0 0
0.9 0 0
1.05 0 0
1.2 0 0
1.35 0 0
1.5 0 0
1.65 0 0
1.8 0 0
1.95 0 0
2.1 0 0
2.25 0 0
2.4 0 0
2.55 0 0
2.7 0 0
2.85 0 0
3 0 0
3.15 0 0
3.3 0 0
3.45 0 0
3.6 0 0
3.75 0 0
3.9 0 0
4.05 0 0
4.2 0 0
4.35 0 0
4.5 0 0
4.65 0 0
4.8 0 0
4.95 0 0
5.1 0 0
5.25 0 0
5.4 0 0
5.55 0 0
5.7 0 0
5.85 0 0
6 0 0
6.15 0 0
6.3 0 0
6.45 0 0
6.6 0 0
6.75 0 0
6.9 0 0
7.05 0 0
7.2 0 0
7.35 0 0
7.5 0 0
7.65 0 0
7.8 0 0
7.95 0 0
8.1 0 0
8.25 0 0
8.4 0 0
8.55 0 0
8.7 0 0
8.85 0 0
9 0 0
9.15 0 0
9.3 0 0
9.45 0 0
9.6 0 0
9.75 0 0
9.9 0 0
10.05 0 0
10.2 0 0
10.35 0 0
10.5 0 0
10.65 0 0
10.8 0 0
10.95 0 0
11.1 0 0
11.25 0 0
11.4 0 0
11.55 0 0
11.7 0 0
11.85 0 0
12 0 0
12.15 0 0
12.3 0 0
12.45 0 0
12.6 0 0
12.75 0 0
12.9 0 0
13.05 0 0
13.2 0 0
13.35 0 0
13.5 0 0
13.65 0 0
13.8 0 0
13.95 0 0
14.1 0 0
14.25 0 0
14.4 0 0
14.55 0 0
14.7 0 0
14.85 0 0
15 0 0
15.15 0 0
15.3 0 0
15.45 0 0
15.6 0 0
15.75 0 0
15.9 0 0
16.05 0 0
16.2 0 0
16.35 0 0
16.5 0 0
16.65 0 0
16.8 0 0
16.95 0 0
17.1 0 0
17.25 0 0
17.4 0 0
17.55 0 0
17.7 0 0
17.85 0 0
18 0 0
18.15 0 0
18.3 0 0
18.45 0 0
18.6 0 0
18.75 0 0
18.9 0 0
19.05 0 0
19.2 0 0
19.35 0 0
19.5 0 0
19.65 0 0
19.8 0 0
19.95 0 0
20.1 0 0
20.25 0 0
20.4 0 0
20.55 0 0
20.7 0 0
20.85 0 0
21 0 0
21.15 0 0
21.3 0 0
21.45 0 0
21.6 0 0
21.75 0 0
21.9 0 0
22.05 0 0
22.2 0 0
22.35 0 0
22.5 0 0
22.65 0 0
22.8 0 0
22.95 0 0
23.1 0 0
23.25 0 0
23.4 0 0
23.55 0 0
23.7 0 0
23.85 0 0
24 0 0
24.15 0 0
24.3 0 0
24.45 0 0
24.6 0 0
24.75 0 0
24.9 0 0
25.05 0 0
25.2 0 0
25.35 0 0
25.5 0 0
25.65 0 0
25.8 0 0
25.95 0 0
26.1 0 0
26.25 0 0
26.4 0 0
26.55 0 0
26.7 0 0
26.85 0 0
27 0 0
27.15 0 0
27.3 0 0
27.45 0 0
27.6 0 0
27.75 0 0
27.9 0 0
28.05 0 0
28.2 0 0
28.35 0 0
28.5 0 0
28.65 0 0
28.8 0 0
28.95 0 0
29.1 0 0
29.25 0 0
29.4 0 0
29.55 0 0
29.7 0 0
29.85 0 0
0 0.075 0
0.15 0.075 0
0.3 0.075 0
0.45 0.075 0
0.6 0.075 0
0.75 0.075 0
0.9 0.075 0
1.05 0.075 0
1.2 0.075 0
1.35 0.075 0
1.5 0.075 0
1.65 0.075 0
1.8 0.075 0
1.95 0.075 0
2.1 0.075 0
2.25 0.075 0
2.4 0.075 0
2.55 0.075 0
2.7 0.075 0
2.85 0.075 0
3 0.075 0
3.15 0.075 0
3.3 0.075 0
3.45 0.075 0
3.6 0.075 0
3.75 0.075 0
3.9 0.075 0
4.05 0.075 0
4.2 0.075 0
4.35 0.075 0
4.5 0.075 0
4.65 0.075 0
4.8 0.075 0
4.95 0.075 0
5.1 0.075 0
5.25 0.075 0
5.4 0.075 0
5.55 0.075 0
5.7 0.075 0
5.85 0.075 0
6 0.075 0
6.15 0.075 0
6.3 0.075 0
6.45 0.075 0
6.6 0.075 0
6.75 0.075 0
6.9 0.075 0
7.05 0.075 0
7.2 0.075 0
7.35 0.075 0
7.5 0.075 0
7.65 0.075 0
7.8 0.075 0
7.95 0.075 0
8.1 0.075 0
8.25 0.075 0
8.4 0.075 0
8.55 0.075 0
8.7 0.075 0
8.85 0.075 0
9 0.075 0
9.15 0.075 0
9.3 0.075 0
9.45 0.075 0
9.6 0.075 0
9.75 0.075 0
9.9 0.075 0
10.05 0.075 0
10.2 0.075 0
10.35 0.075 0
10.5 0.075 0
10.65 0.075 0
10.8 0.075 0
10.95 0.075 0
11.1 0.075 0
11.25 0.075 0
11.4 0.075 0
11.55 0.075 0
11.7 0.075 0
11.85 0.075 0
12 0.075 0
12.15 0.075 0
12.3 0.075 0
12.45 0.075 0
12.6 0.075 0
12.75 0.075 0
12.9 0.075 0
13.05 0.075 0
13.2 0.075 0
13.35 0.075 0
13.5 0.075 0
13.65 0.075 0
13.8 0.075 0
13.95 0.075 0
14.1 0.075 0
14.25 0.075 0
14.4 0.075 0
14.55 0.075 0
14.7 0.075 0
14.85 0.075 0
15 0.075 0
15.15 0.075 0
15.3 0.075 0
15.45 0.075 0
15.6 0.075 0
15.75 0.075 0
15.9 0.075 0
16.05 0.075 0
16.2 0.075 0
16.35 0.075 0
16.5 0.075 0
16.65 0.075 0
16.8 0.075 0
16.95 0.075 0
17.1 0.075 0
17.25 0.075 0
17.4 0.075 0
17.55 0.075 0
17.7 0.075 0
17.85 0.075 0
18 0.075 0
18.15 0.075 0
18.3 0.075 0
18.45 0.075 0
18.6 0.075 0
18.75 0.075 0
18.9 0.075 0
19.05 0.075 0
19.2 0.075 0
19.35 0.075 0
19.5 0.075 0
19.65 0.075 0
19.8 0.075 0
19.95 0.075 0
20.1 0.075 0
20.25 0.075 0
20.4 0.075 0
20.55 0.075 0
20.7 0.075 0
20.85 0.075 0
21 0.075 0
21.15 0.075 0
21.3 0.075 0
21.45 0.075 0
21.6 0.075 0
21.75 0.075 0
21.9 0.075 0
22.05 0.075 0
22.2 0.075 0
22.35 0.075 0
22.5 0.075 0
22.65 0.075 0
22.8 0.075 0
22.95 0.075 0
23.1 0.075 0
23.25 0.075 0
23.4 0.075 0
23.55 0.075 0
23.7 0.075 0
23.85 0.075 0
24 0.075 0
24.15 0.075 0
24.3 0.075 0
24.45 0.075 0
24.6 0.075 0
24.75 0.075 0
24.9 0.075 0
25.05 0.075 0
25.2 0.075 0
25.35 0.075 0
25.5 0.075 0
25.65 0.075 0
25.8 0.075 0
25.95 0.075 0
26.1 0.075 0
26.25 0.075 0
26.4 0.075 0
26.55 0.075 0
26.7 0.075 0
26.85 0.075 0
27 0.075 0
27.15 0.075 0
27.3 0.075 0
27.45 0.075 0
27.6 0.075 0
27.75 0.075 0
27.9 0.075 0
28.05 0.075 0
28.2 0.075 0
28.35 0.075 0
28.5 0.075 0
28.65 0.075 0
28.8 0.075 0
28.95 0.075 0
29.1 0.075 0
29.25 0.075 0
29.4 0.075 0
29.55 0.075 0
29.7 0.075 0
29.85 0.075 0
0 0.15 0
0.15 0.15 0
0.3 0.15 0
0.45 0.15 0
0.6 0.15 0
0.75 0.15 0
0.9 0.15 0
1.05 0.15 0
1.2 0.15 0
1.35 0.15 0
1.5 0.15 0
1.65 0.15 0
1.8 0.15 0
1.95 0.15 0
2.1 0.15 0
2.25 0.15 0
2.4 0.15 0
2.55 0.15 0
2.7 0.15 0
2.85 0.15 0
3 0.15 0
3.15 0.15 0
3.3 0.15 0
3.45 0.15 0
3.6 0.15 0
3.75 0.15 0
3.9 0.15 0
4.05 0.15 0
4.2 0.15 0
4.35 0.15 0
4.5 0.15 0
4.65 0.15 0
4.8 0.15 0
4.95 0.15 0
5.1 0.15 0
5.25 0.15 0
5.4 0.15 0
5.55 0.15 0
5.7 0.15 0
5.85 0.15 0
6 0.15 0
6.15 0.15 0
6.3 0.15 0
6.45 0.15 0
6.6 0.15 0
6.75 0.15 0
6.9 0.15 0
7.05 0.15 0
7.2 0.15 0
7.35 0.15 0
7.5 0.15 0
7.65 0.15 0
7.8 0.15 0
7.95 0.15 0
8.1 0.15 0
8.25 0.15 0
8.4 0.15 0
8.55 0.15 0
8.7 0.15 0
8.85 0.15 0
9 0.15 0
9.15 0.15 0
9.3 0.15 0
9.45 0.15 0
9.6 0.15 0
9.75 0.15 0
9.9 0.15 0
10.05 0.15 0
10.2 0.15 0
10.35 0.15 0
10.5 0.15 0
10.65 0.15 0
10.8 0.15 0
10.95 0.15 0
11.1 0.15 0
11.25 0.15 0
11.4 0.15 0
11.55 0.15 0
11.7 0.15 0
11.85 0.15 0
12 0.15 0
12.15 0.15 0
12.3 0.15 0
12.45 0.15 0
12.6 0.15 0
12.75 0.15 0
12.9 0.15 0
13.05 0.15 0
13.2 0.15 0
13.35 0.15 0
13.5 0.15 0
13.65 0.15 0
13.8 0.15 0
13.95 0.15 0
14.1 0.15 0
14.25 0.15 0
14.4 0.15 0
14.55 0.15 0
14.7 0.15 0
14.85 0.15 0
15 0.15 0
15.15 0.15 0
15.3 0.15 0
15.45 0.15 0
15.6 0.15 0
15.75 0.15 0
15.9 0.15 0
16.05 0.15 0
16.2 0.15 0
16.35 0.15 0
16.5 0.15 0
16.65 0.15 0
16.8 0.15 0
16.95 0.15 0
17.1 0.15 0
17.25 0.15 0
17.4 0.15 0
17.55 0.15 0
17.7 0.15 0
17.85 0.15 0
18 0.15 0
18.15 0.15 0
18.3 0.15 0
18.45 0.15 0
18.6 0.15 0
18.75 0.15 0
18.9 0.15 0
19.05 0.15 0
19.2 0.15 0
19.35 0.15 0
19.5 0.15 0
19.65 0.15 0
19.8 0.15 0
19.95 0.15 0
20.1 0.15 0
20.25 0.15 0
20.4 0.15 0
20.55 0.15 0
20.7 0.15 0
20.85 0.15 0
21 0.15 0
21.15 0.15 0
21.3 0.15 0
21.45 0.15 0
21.6 0.15 0
21.75 0.15 0
21.9 0.15 0
22.05 0.15 0
22.2 0.15 0
22.35 0.15 0
22.5 0.15 0
22.65 0.15 0
22.8 0.15 0
22.95 0.15 0
23.1 0.15 0
23.25 0.15 0
23.4 0.15 0
23.55 0.15 0
23.7 0.15 0
23.85 0.15 0
24 0.15 0
24.15 0.15 0
24.3 0.15 0
24.45 0.15 0
24.6 0.15 0
24.75 0.15 0
24.9 0.15 0
25.05 0.15 0
25.2 0.15 0
25.35 0.15 0
25.5 0.15 0
25.65 0.15 0
25.8 0.15 0
25.95 0.15 0
26.1 0.15 0
26.25 0.15 0
26.4 0.15 0
26.55 0.15 0
26.7 0.15 0
26.85 0.15 0
27 0.15 0
27.15 0.15 0
27.3 0.15 0
27.45 0.15 0
27.6 0.15 0
27.75 0.15 0
27.9 0.15 0
28.05 0.15 0
28.2 0.15 0
28.35 0.15 0
28.5 0.15 0
28.65 0.15 0
28.8 0.15 0
28.95 0.15 0
29.1 0.15 0
29.25 0.15 0
29.4 0.15 0
29.55 0.15 0
29.7 0.15 0
29.85 0.15 0
0 0.225 0
0.15 0.225 0
0.3 0.225 0
0.45 0.225 0
0.6 0.225 0
0.75 0.225 0
0.9 0.225 0
1.05 0.225 0
1.2 0.225 0
1.35 0.225 0
1.5 0.225 0
1.65 0.225 0
1.8 0.225 0
1.95 0.225 0
2.1 0.225 0
2.25 0.225 0
2.4 0.225 0
2.55 0.225 0
2.7 0.225 0
2.85 0.225 0
3 0.225 0
3.15 0.225 0
3.3 0.225 0
3.45 0.225 0
3.6 0.225 0
3.75 0.225 0
3.9 0.225 0
4.05 0.225 0
4.2 0.225 0
4.35 0.225 0
4.5 0.225 0
4.65 0.225 0
4.8 0.225 0
4.95 0.225 0
5.1 0.225 0
5.25 0.225 0
5.4 0.225 0
5.55 0.225 0
5.7 0.225 0
5.85 0.225 0
6 0.225 0
6.15 0.225 0
6.3 0.225 0
6.45 0.225 0
6.6 0.225 0
6.75 0.225 0
6.9 0.225 0
7.05 0.225 0
7.2 0.225 0
7.35 0.225 0
7.5 0.225 0
7.65 0.225 0
7.8 0.225 0
7.95 0.225 0
8.1 0.225 0
8.25 0.225 0
8.4 0.225 0
8.55 0.225 0
8.7 0.225 0
8.85 0.225 0
9 0.225 0
9.15 0.225 0
9.3 0.225 0
9.45 0.225 0
9.6 0.225 0
9.75 0.225 0
9.9 0.225 0
10.05 0.225 0
10.2 0.225 0
10.35 0.225 0
10.5 0.225 0
10.65 0.225 0
10.8 0.225 0
10.95 0.225 0
11.1 0.225 0
11.25 0.225 0
11.4 0.225 0
11.55 0.225 0
11.7 0.225 0
11.85 0.225 0
12 0.225 0
12.15 0.225 0
12.3 0.225 0
12.45 0.225 0
12.6 0.225 0
12.75 0.225 0
12.9 0.225 0
13.05 0.225 0
13.2 0.225 0
13.35 0.225 0
13.5 0.225 0
13.65 0.225 0
13.8 0.225 0
13.95 0.225 0
14.1 0.225 0
14.25 0.225 0
14.4 0.225 0
14.55 0.225 0
14.7 0.225 0
14.85 0.225 0
15 0.225 0
15.15 0.225 0
15.3 0.225 0
15.45 0.225 0
15.6 0.225 0
15.75 0.225 0
15.9 0.225 0
16.05 0.225 0
16.2 0.225 0
16.35 0.225 0
16.5 0.225 0
16.65 0.225 0
16.8 0.225 0
16.95 0.225 0
17.1 0.225 0
17.25 0.225 0
17.4 0.225 0
17.55 0.225 0
17.7 0.225 0
17.85 0.225 0
18 0.225 0
18.15 0.225 0
18.3 0.225 0
18.45 0.225 0
18.6 0.225 0
18.75 0.225 0
18.9 0.225 0
19.05 0.225 0
19.2 0.225 0
19.35 0.225 0
19.5 0.225 0
19.65 0.225 0
19.8 0.225 0
19.95 0.225 0
20.1 0.225 0
20.25 0.225 0
20.4 0.225 0
20.55 0.225 0
20.7 0.225 0
20.85 0.225 0
21 0.225 0
21.15 0.225 0
21.3 0.225 0
21.45 0.225 0
21.6 0.225 0
21.75 0.225 0
21.9 0.225 0
22.05 0.225 0
22.2 0.225 0
22.35 0.225 0
22.5 0.225 0
22.65 0.225 0
22.8 0.225 0
22.95 0.225 0
23.1 0.225 0
23.25 0.225 0
23.4 0.225 0
23.55 0.225 0
23.7 0.225 0
23.85 0.225 0
24 0.225 0
24.15 0.225 0
24.3 0.225 0
24.45 0.225 0
24.6 0.225 0
24.75 0.225 0
24.9 0.225 0
25.05 0.225 0
25.2 0.225 0
25.35 0.225 0
25.5 0.225 0
25.65 0.225 0
25.8 0.225 0
25.95 0.225 0
26.1 0.225 0
26.25 0.225 0
26.4 0.225 0
26.55 0.225 0
26.7 0.225 0
26.85 0.225 0
27 0.225 0
27.15 0.225 0
27.3 0.225 0
27.45 0.225 0
27.6 0.225 0
27.75 0.225 0
27.9 0.225 0
28.05 0.225 0
28.2 0.225 0
28.35 0.225 0
28.5 0.225 0
28.65 0.225 0
28.8 0.225 0
28.95 0.225 0
29.1 0.225 0
29.25 0.225 0
29.4 0.225 0
29.55 0.225 0
29.7 0.225 0
29.85 0.225 0
0 0.3 0
0.15 0.3 0
0.3 0.3 0
0.45 0.3 0
0.6 0.3 0
0.75 0.3 0
0.9 0.3 0
1.05 0.3 0
1.2 0.3 0
1.35 0.3 0
1.5 0.3 0
1.65 0.3 0
1.8 0.3 0
1.95 0.3 0
2.1 0.3 0
2.25 0.3 0
2.4 0.3 0
2.55 0.3 0
2.7 0.3 0
2.85 0.3 0
3 0.3 0
3.15 0.3 0
3.3 0.3 0
3.45 0.3 0
3.6 0.3 0
3.75 0.3 0
3.9 0.3 0
4.05 0.3 0
4.2 0.3 0
4.35 0.3 0
4.5 0.3 0
4.65 0.3 0
4.8 0.3 0
4.95 0.3 0
5.1 0.3 0
5.25 0.3 0
5.4 0.3 0
5.55 0.3 0
5.7 0.3 0
5.85 0.3 0
6 0.3 0
6.15 0.3 0
[...]
POINT_DATA 40000

SCALARS p float 1
LOOKUP_TABLE default
20183.38144
20183.38144
20183.3261
20183.29851
20183.28036
20183.26775
20183.26088
20183.26104
20183.26837
20183.28098
20183.29589
20183.31053
20183.32355
20183.33479
20183.34453
20183.3528
20183.35953
20183.36491
20183.36916
20183.37105
20183.3674
20183.35632
20183.32448
20183.27057
20183.34047
20183.76379
20183.64464
20183.27982
20183.03412
20182.81732
20182.60583
20182.39265
20182.17543
20181.95317
20181.72515
20181.4905
20181.24802
20180.99605
20180.73216
20180.45269
20180.15154
20179.9928
20180.03714
20180.03342
20180.0367
20180.02247
20179.98104
20179.90564
20179.80091
20179.67897
20179.54974
20179.42354
20179.31659
20179.2515
20179.24609
20179.29678
20179.37698
20179.45957
20179.53029
20179.57744
20179.59026
20179.57242
20179.53137
20179.5027
20179.37567
20179.27636
20179.29164
20179.25587
20179.18431
20179.11404
20179.06217
20179.03455
20179.03009
20179.04815
20179.0861
20179.14377
20179.22083
20179.31894
20179.43743
20179.57719
20179.73992
20179.92541
20180.13375
20180.36434
20180.61419
20180.88011
20181.16014
20181.45147
20181.75109
20182.05131
20182.33254
20182.56595
20182.73228
20182.84432
20182.89945
20182.85544
20182.67888
20182.44829
20182.2551
20182.14007
20182.03043
20181.81818
20181.62807
20181.5965
20181.55634
20181.49162
20181.43192
20181.37811
20181.33059
20181.2858
20181.24058
20181.21303
20181.24199
20181.32756
20181.40818
20181.44521
20181.44417
20181.42164
20181.39843
20181.40205
20181.42455
20181.43371
20181.42488
20181.40861
20181.38645
20181.35183
20181.29951
20181.22884
20181.14312
20181.04734
20180.94628
20180.84403
20180.74379
20180.64812
20180.55938
20180.47936
20180.40939
20180.35062
20180.30395
20180.26988
20180.24867
20180.24038
20180.24478
20180.26123
20180.28874
20180.32658
20180.37415
20180.4304
20180.49388
20180.56317
20180.63722
20180.71477
20180.79461
20180.87606
20180.95741
20181.03875
20181.11829
20181.19591
20181.2709
20181.34284
20181.41145
20181.47642
20181.5377
20181.5952
20181.64898
20181.69912
20181.74579
20181.78916
20181.82945
20181.86689
20181.90173
20181.93422
20181.9646
20181.99312
20182.02002
20182.0455
20182.06979
20182.09308
20182.11556
20182.13737
20182.15868
20182.17961
20182.20029
20182.2208
20182.24126
20182.2617
20182.28223
20182.30286
20182.32367
20182.34467
20182.36592
20182.38741
20182.40918
20182.43119
20182.45348
20182.47597
20182.49866
20182.52143
20182.54424
20182.54424
20183.38144
20183.38144
20183.3261
20183.29851
20183.28036
20183.26775
20183.26088
20183.26104
20183.26837
20183.28098
20183.29589
20183.31053
20183.32355
20183.33479
20183.34453
20183.3528
20183.35953
20183.36491
20183.36916
20183.37105
20183.3674
20183.35632
20183.32448
20183.27057
20183.34047
20183.76379
20183.64464
20183.27982
20183.03412
20182.81732
20182.60583
20182.39265
20182.17543
20181.95317
20181.72515
20181.4905
20181.24802
20180.99605
20180.73216
20180.45269
20180.15154
20179.9928
20180.03714
20180.03342
20180.0367
20180.02247
20179.98104
20179.90564
20179.80091
20179.67897
20179.54974
20179.42354
20179.31659
20179.2515
20179.24609
20179.29678
20179.37698
20179.45957
20179.53029
20179.57744
20179.59026
20179.57242
20179.53137
20179.5027
20179.37567
20179.27636
20179.29164
20179.25587
20179.18431
20179.11404
20179.06217
20179.03455
20179.03009
20179.04815
20179.0861
20179.14377
20179.22083
20179.31894
20179.43743
20179.57719
20179.73992
20179.92541
20180.13375
20180.36434
20180.61419
20180.88011
20181.16014
20181.45147
20181.75109
20182.05131
20182.33254
20182.56595
20182.73228
20182.84432
20182.89945
20182.85544
20182.67888
20182.44829
20182.2551
20182.14007
20182.03043
20181.81818
20181.62807
20181.5965
20181.55634
20181.49162
20181.43192
20181.37811
20181.33059
20181.2858
20181.24058
20181.21303
20181.24199
20181.32756
20181.40818
20181.44521
20181.44417
20181.42164
20181.39843
20181.40205
20181.42455
20181.43371
20181.42488
20181.40861
20181.38645
20181.35183
20181.29951
20181.22884
20181.14312
20181.04734
20180.94628
20180.84403
20180.74379
20180.64812
20180.55938
20180.47936
20180.40939
20180.35062
20180.30395
20180.26988
20180.24867
20180.24038
20180.24478
20180.26123
20180.28874
20180.32658
20180.37415
20180.4304
20180.49388
20180.56317
20180.63722
20180.71477
20180.79461
20180.87606
20180.95741
20181.03875
20181.11829
20181.19591
20181.2709
20181.34284
20181.41145
20181.47642
20181.5377
20181.5952
20181.64898
20181.69912
20181.74579
20181.78916
20181.82945
20181.86689
20181.90173
20181.93422
20181.9646
20181.99312
20182.02002
20182.0455
20182.06979
20182.09308
20182.11556
20182.13737
20182.15868
20182.17961
20182.20029
20182.2208
20182.24126
20182.2617
20182.28223
20182.30286
20182.32367
20182.34467
20182.36592
20182.38741
20182.40918
20182.43119
20182.45348
20182.47597
20182.49866
20182.52143
20182.54424
20182.54424
20183.34881
20183.34881
20183.31701
20183.29402
20183.27791
20183.26689
20183.26127
20183.26217
20183.26973
20183.28226
20183.29701
20183.31152
20183.32444
20183.33561
20183.34528
20183.35346
20183.36004
20183.36525
20183.36946
20183.37191
20183.36982
20183.35604
20183.30561
20183.23085
20183.24916
20183.54853
20183.50744
20183.25088
20183.02719
20182.81605
20182.60625
20182.39364
20182.17666
20181.95458
20181.72677
20181.49241
20181.25035
20180.99897
20180.73597
20180.45799
20180.15824
20180.01801
20180.02956
20180.03203
20180.03563
20180.02153
20179.97961
20179.90362
20179.79879
20179.67666
20179.54579
20179.4157
20179.30356
20179.23402
20179.22818
20179.28441
20179.37442
20179.46606
20179.53994
20179.58492
20179.5933
20179.57314
20179.52887
20179.50513
20179.39353
20179.27788
20179.27301
20179.23293
20179.16411
20179.09838
20179.05048
20179.02581
20179.02344
20179.04272
20179.08137
20179.13925
20179.21621
20179.31385
20179.43167
20179.57068
20179.73253
20179.91709
20180.12439
20180.35376
20180.6023
20180.86697
20181.14554
20181.43512
20181.73221
20182.02978
20182.3122
20182.55029
20182.71541
20182.82045
20182.86884
20182.8071
20182.63126
20182.42408
20182.24566
20182.11991
20181.99967
20181.79433
20181.63023
20181.60242
20181.55497
20181.49008
20181.4313
20181.37735
20181.33026
20181.28592
20181.23714
20181.20173
20181.2271
20181.31989
20181.40916
20181.44884
20181.44713
20181.42272
20181.39561
20181.39773
20181.4225
20181.43283
20181.42403
20181.40881
20181.3883
20181.35478
20181.30288
20181.23209
20181.14572
20181.04897
20180.94686
20180.8437
20180.74273
20180.64648
20180.5573
20180.47697
20180.40678
20180.34785
20180.30106
20180.26693
20180.24569
20180.23743
20180.24188
20180.25834
20180.2859
20180.32385
20180.37155
20180.42792
20180.49151
20180.56092
20180.63513
20180.71279
20180.79283
20180.87439
20180.95593
20181.03738
20181.11707
20181.19481
20181.26993
20181.34198
20181.4107
20181.47576
20181.53713
20181.5947
20181.64855
20181.69876
20181.74548
20181.7889
20181.82923
20181.86671
20181.90158
20181.9341
20181.96452
20181.99306
20182.01997
20182.04547
20182.06978
20182.09308
20182.11557
20182.13739
20182.15872
20182.17965
20182.20034
20182.22086
20182.24131
20182.26176
20182.28229
20182.30293
20182.32374
20182.34474
20182.36599
20182.38748
20182.40924
20182.43125
20182.45353
20182.47602
20182.4987
20182.52146
20182.54425
20182.54425
20183.32309
20183.32309
20183.30374
20183.28602
20183.27269
20183.26374
20183.25968
20183.26135
20183.26887
20183.28099
20183.29548
20183.31016
20183.32364
20183.33546
20183.34559
20183.35396
20183.36059
20183.36578
20183.3702
20183.37355
20183.37221
20183.35205
20183.28012
20183.19828
20183.19222
20183.35731
20183.36875
20183.21381
20183.01748
20182.81457
20182.60742
20182.39573
20182.17917
20181.95743
20181.73004
20181.49626
20181.25502
20181.00481
20180.74356
20180.46852
20180.17186
20180.03164
20180.02441
20180.03242
20180.03467
20180.02049
20179.97776
20179.90048
20179.79529
20179.67298
20179.53899
20179.40071
20179.27642
20179.19542
20179.18622
20179.25198
20179.36188
20179.47536
20179.56037
20179.60459
20179.60342
20179.57699
20179.53071
20179.47889
20179.37491
20179.25868
20179.22051
20179.17438
20179.11476
20179.06085
20179.02296
20179.00547
20179.008
20179.03014
20179.07052
20179.12895
20179.20572
20179.30231
20179.41896
20179.5565
20179.71658
20179.89946
20180.10477
20180.33183
20180.57816
20180.84062
20181.11644
20181.40256
20181.69458
20181.986
20182.26744
20182.51416
20182.68511
20182.77492
20182.80844
20182.7294
20182.55267
20182.37851
20182.22601
20182.0824
20181.94201
20181.76144
20181.6171
20181.56699
20181.52613
20181.47921
20181.42619
20181.37319
20181.32699
20181.28284
20181.22703
20181.1775
20181.19639
20181.30093
20181.40452
20181.4478
20181.44495
20181.42131
20181.39424
20181.39628
20181.42126
20181.43009
20181.42095
20181.40828
20181.39033
20181.35711
20181.30341
20181.23005
20181.14137
20181.04285
20180.93952
20180.83555
20180.73409
20180.63763
20180.5484
20180.46812
20180.39808
20180.33936
20180.29282
20180.25895
20180.23804
20180.23011
20180.23486
20180.25161
20180.27954
20180.31795
20180.36606
20180.42277
20180.48672
20180.55652
20180.63111
20180.70915
20180.78958
20180.87146
20180.95339
20181.03512
20181.11514
20181.19314
20181.26852
20181.34078
20181.40972
20181.47495
20181.53647
20181.59417
20181.64814
20181.69844
20181.74524
20181.78872
20181.8291
20181.86662
20181.90152
20181.93407
20181.96449
20181.99304
20182.01996
20182.04546
20182.06977
20182.09307
20182.11556
20182.13737
20182.15869
20182.17962
20182.2003
20182.22082
20182.24127
20182.26172
20182.28225
20182.30289
20182.32371
20182.34472
20182.36598
20182.38748
20182.40926
20182.4313
20182.45361
20182.47612
20182.49882
20182.52158
20182.54437
20182.54437
20183.30238
20183.30238
20183.29007
20183.27671
20183.266
20183.25891
20183.25613
20183.25833
20183.26557
20183.27697
20183.29085
20183.30546
20183.31951
20183.33232
20183.34357
20183.35298
20183.36041
20183.36612
20183.37095
20183.37494
20183.37291
20183.34675
20183.26438
20183.19509
20183.19358
20183.27663
20183.29503
20183.18716
20183.0102
20182.81442
20182.60981
20182.39907
20182.18299
20181.96171
20181.73491
20181.50199
20181.26196
20181.01346
20180.75469
20180.48359
20180.1886
20180.04101
20180.02346
20180.03272
20180.0335
20180.0187
20179.97491
20179.89634
20179.79116
20179.66879
20179.53016
20179.37947
20179.23549
20179.13532
20179.11992
20179.19923
20179.33766
20179.48217
20179.58652
20179.63429
20179.62103
20179.57029
20179.50144
20179.41689
20179.30717
20179.19995
20179.1459
20179.1001
20179.05299
20179.01326
20178.98741
20178.97861
20178.98698
20179.01254
20179.05495
20179.11392
20179.1902
20179.28552
20179.40066
20179.5363
20179.69415
20179.87475
20180.07741
20180.30136
20180.54443
20180.80328
20181.07466
20181.35549
20181.64097
20181.92339
20182.19497
20182.4453
20182.63403
20182.71414
20182.72322
20182.63859
20182.47208
20182.32702
20182.19365
20182.0435
20181.89036
20181.71441
20181.56557
20181.49272
20181.45793
20181.43636
20181.40592
20181.36261
20181.31964
20181.27562
20181.2088
20181.1377
20181.14505
20181.26352
20181.38695
20181.43491
20181.43203
20181.41502
20181.39627
20181.40189
20181.42387
20181.42716
20181.41638
20181.40571
20181.38821
20181.35235
20181.29458
20181.21759
20181.12654
20181.02687
20180.92322
20180.81933
20180.7182
20180.62225
20180.53356
20180.4538
20180.38431
20180.32616
20180.28014
20180.2468
20180.22644
20180.21906
20180.22429
20180.24151
20180.27003
20180.30907
20180.35776
20180.41502
20180.47948
20180.54985
20180.62499
20180.70355
20180.78458
20180.8669
20180.94943
20181.03158
20181.11201
20181.19043
20181.26618
20181.33878
20181.40802
20181.4735
20181.53526
20181.59316
20181.64729
20181.69774
20181.74465
20181.78824
20181.82868
20181.86628
20181.90122
20181.93381
20181.96426
20181.99283
20182.01976
20182.04526
20182.06958
20182.09287
20182.11535
20182.13716
20182.15848
20182.1794
20182.20008
20182.2206
20182.24106
20182.26152
20182.28205
20182.30271
20182.32355
20182.34459
20182.36589
20182.38743
20182.40927
20182.43137
20182.45376
20182.47635
20182.49914
20182.52193
20182.54473
20182.54473
20183.28489
20183.28489
20183.2768
20183.26687
20183.25847
20183.25298
20183.25121
20183.2537
20183.26052
20183.27102
20183.28399
20183.29809
20183.31225
20183.32577
20183.33817
20183.34902
20183.35798
20183.36504
20183.37069
20183.37465
20183.37089
20183.34282
20183.26309
20183.20901
20183.21668
20183.26634
20183.27728
20183.17741
20183.00869
20182.81688
20182.61387
20182.40378
20182.18814
20181.96738
20181.74135
20181.50954
20181.27108
20181.02477
20180.76907
20180.50272
20180.2083
20180.04969
20180.02353
20180.03083
20180.0322
20180.01692
20179.97206
20179.89262
20179.78806
20179.66563
20179.52057
20179.35201
20179.17886
20179.05075
20179.02639
20179.12388
20179.29812
20179.47814
20179.60872
20179.66009
20179.62077
20179.53212
20179.42695
20179.31846
20179.20972
20179.11599
20179.06133
20179.02164
20178.9876
20178.96173
20178.94774
20178.94777
20178.962
20178.99101
20179.03524
20179.09464
20179.17023
20179.26401
20179.37728
20179.51084
20179.66628
20179.84429
20180.04404
20180.26452
20180.50364
20180.75773
20181.02303
20181.29636
20181.57397
20181.84836
20182.10748
20182.34695
20182.54515
20182.6392
20182.62788
20182.53815
20182.38987
20182.27108
20182.15709
20182.00476
20181.83595
20181.65443
20181.4921
20181.39546
20181.35436
20181.35247
20181.35665
20181.33771
20181.30518
20181.26236
20181.18226
20181.08557
20181.07689
20181.20666
20181.3514
20181.40438
20181.40409
20181.40102
20181.39997
20181.41497
20181.43327
20181.42846
20181.41362
20181.40078
20181.37904
20181.33746
20181.27476
20181.19479
20181.10262
20181.00309
20180.9002
20180.79725
20180.69711
20180.60212
20180.51427
20180.43527
20180.36652
20180.30906
20180.26369
20180.23098
20180.21127
20180.20453
20180.21035
20180.22818
20180.25739
20180.29716
20180.34657
20180.40454
20180.46966
20180.54074
20180.61657
20180.69581
20180.77761
20180.86051
20180.94384
20181.02649
20181.10747
20181.18646
20181.26267
20181.33572
20181.40536
20181.47117
20181.53326
20181.59141
20181.64578
20181.69643
20181.7435
20181.78724
20181.82779
20181.86549
20181.9005
20181.93316
20181.96365
20181.99226
20182.01922
20182.04474
20182.06907
20182.09237
20182.11487
20182.13668
20182.158
20182.17893
20182.19961
20182.22014
20182.24061
20182.26109
20182.28165
20182.30235
20182.32323
20182.34433
20182.3657
20182.38733
20182.40928
20182.4315
20182.45403
20182.47677
20182.4997
20182.5226
20182.54548
20182.54548
20183.26952
20183.26952
20183.26406
20183.25677
20183.25036
20183.24625
20183.2453
20183.248
20183.25439
20183.264
20183.27596
20183.28925
20183.30303
20183.31668
20183.32975
20183.34177
20183.35232
20183.36111
20183.36793
20183.37163
20183.36635
20183.3402
20183.27454
20183.2355
20183.25123
20183.29267
20183.29336
20183.18359
20183.01406
20182.82263
20182.61987
20182.40994
20182.19459
20181.97439
20181.74928
20181.51882
20181.28225
20181.03856
20180.78644
20180.52561
20180.23161
20180.06
20180.02453
20180.02836
20180.03113
20180.01609
20179.97064
20179.89109
20179.78791
20179.66526
20179.5112
20179.31748
20179.1056
20178.94182
20178.90606
20179.02478
20179.23853
20179.45602
20179.60861
20179.65006
20179.573
20179.44458
20179.31405
20179.19807
20179.09737
20179.01912
20178.97218
20178.94225
20178.92118
20178.90824
20178.90534
20178.91384
20178.93371
20178.96588
20179.01156
20179.0711
20179.14564
20179.23747
20179.34839
20179.47962
20179.63259
20179.80801
20180.00508
20180.22234
20180.45749
20180.70653
20180.96496
20181.22889
20181.49526
20181.76027
20182.01261
20182.23822
20182.42883
20182.54067
20182.52457
20182.43201
20182.30993
20182.21298
20182.1138
20181.96048
20181.76882
20181.57518
20181.3974
20181.28217
20181.22923
20181.2331
20181.27045
20181.28974
20181.27853
20181.24058
20181.15054
20181.03289
20181.00869
20181.14115
20181.29819
20181.35404
20181.35987
20181.37834
20181.40337
20181.43289
20181.44913
20181.43591
20181.41378
20181.39288
20181.36221
20181.31338
20181.24643
20181.16485
20181.0728
20180.97429
20180.8727
20180.77103
20180.67206
20180.57808
20180.4911
20180.41289
20180.34488
20180.28812
20180.24342
20180.21137
20180.19237
20180.18632
20180.19282
20180.21138
20180.2414
20180.282
20180.33227
20180.3911
20180.45705
20180.529
20180.60565
20180.68576
20180.76846
20180.85215
20180.93642
20181.01967
20181.10136
20181.18106
20181.25784
20181.33147
20181.4016
20181.46783
20181.53032
20181.58881
20181.64348
20181.69439
20181.74167
20181.78561
20181.8263
20181.86415
20181.89926
20181.93202
20181.96258
20181.99125
20182.01826
20182.04383
20182.06819
20182.09152
20182.11403
20182.13586
20182.1572
20182.17815
20182.19885
20182.2194
20182.2399
20182.26042
20182.28103
20182.30178
20182.32273
20182.34392
20182.36539
20182.38715
20182.40925
20182.43166
20182.4544
20182.47737
20182.50054
20182.52363
20182.54664
20182.54664
20183.25558
20183.25558
20183.25183
20183.24653
20183.24177
20183.23886
20183.23861
20183.24147
20183.2475
20183.25635
20183.26736
20183.27976
20183.29288
20183.30622
20183.31938
20183.332
20183.34364
20183.35385
20183.36184
20183.36572
20183.35948
20183.33754
20183.29197
20183.26871
20183.28951
20183.33237
20183.32638
20183.20191
20183.02588
20182.83173
20182.62783
20182.41752
20182.20229
20181.98267
20181.75861
20181.52972
20181.29535
20181.05466
20180.80651
20180.552
20180.25916
20180.07371
20180.02755
20180.02722
20180.0309
20180.01706
20179.9721
20179.89356
20179.79254
20179.66923
20179.50276
20179.27761
20179.02182
20178.81816
20178.76797
20178.90627
20179.15702
20179.40566
20179.56536
20179.57842
20179.4659
20179.31493
20179.1781
20179.06638
20178.97865
20178.91717
20178.88218
20178.86429
20178.85586
20178.85475
20178.86175
20178.87797
20178.90299
20178.93779
20178.98441
20179.04348
20179.11631
20179.2055
20179.31332
20179.44153
20179.59167
20179.76452
20179.9593
20180.17407
20180.40599
20180.6506
20180.90276
20181.15764
20181.41124
20181.66152
20181.9045
20182.12255
20182.30368
20182.41622
20182.41297
20182.33093
20182.2361
20182.15089
20182.05556
20181.90349
20181.68479
20181.46961
20181.27919
20181.15034
20181.08802
20181.0908
20181.14998
20181.21307
20181.23528
20181.20947
20181.11874
20180.9915
20180.95825
20181.08531
20181.2384
20181.29113
20181.30542
20181.34942
20181.40454
20181.45084
20181.46669
20181.44556
20181.41319
20181.38013
20181.33865
20181.28298
20181.21297
20181.13076
20181.03939
20180.94206
20180.8417
20180.7412
20180.64323
20180.55011
20180.46392
20180.38644
20180.31912
20180.26305
20180.21904
20180.18772
20180.16947
20180.16419
20180.17148
20180.19092
20180.22186
20180.26341
20180.31468
20180.37451
20180.44148
20180.51446
20180.59211
20180.6733
20180.75701
20180.84174
20180.92698
20181.01103
20181.09362
20181.17411
20181.2516
20181.32594
20181.39662
20181.4634
20181.52637
20181.58526
20181.6403
20181.69153
20181.73908
20181.78328
20181.82414
20181.86219
20181.89742
20181.93032
20181.96097
20181.98974
20182.01682
20182.04246
20182.06688
20182.09025
20182.11281
20182.13468
20182.15605
20182.17703
20182.19778
20182.21837
20182.23892
20182.25948
20182.28016
20182.30098
20182.32204
20182.34333
20182.36495
20182.38687
20182.40918
20182.43182
20182.45485
20182.47813
20182.50163
20182.52501
20182.54821
20182.54821
20183.2426
20183.2426
20183.24001
20183.23623
20183.23281
20183.23091
20183.23126
20183.23427
20183.24001
20183.24823
20183.25842
20183.26998
20183.28238
20183.29518
20183.30808
20183.32076
20183.33288
20183.34393
20183.3528
20183.35748
20183.35153
20183.33614
20183.30935
20183.30138
20183.32817
20183.3754
20183.36608
20183.22832
20183.04284
20182.84375
20182.63757
20182.42638
20182.21112
20181.99211
20181.76923
20181.54212
20181.31021
20181.07286
20180.82899
20180.58156
20180.29139
20180.09221
20180.03389
20180.02881
20180.03266
20180.02085
20179.9778
20179.90161
20179.80351
20179.6789
20179.49769
20179.24084
20178.94307
20178.69908
20178.62953
20178.77863
20179.05463
20179.31697
20179.46447
20179.44462
20179.31302
20179.16061
20179.03173
20178.93166
20178.86068
20178.81671
20178.79582
20178.79087
20178.79444
20178.80388
20178.8192
20178.84195
20178.87127
20178.90799
20178.95491
20179.01268