# vtk DataFile Version 2.0
FlowField
ASCII
DATASET STRUCTURED_GRID
DIMENSIONS 200 1 200
POINTS 40000 float
0 0 0
0.15 0 0
0.3 0 0
0.45 0 0
0.6 0 0
0.75 0 0
0.9 0 0
1.05 0 0
1.2 0 0
1.35 0 0
1.5 0 0
1.65 0 0
1.8 0 0
1.95 0 0
2.1 0 0
2.25 0 0
2.4 0 0
2.55 0 0
2.7 0 0
2.85 0 0
3 0 0
3.15 0 0
3.3 0 0
3.45 0 0
3.6 0 0
3.75 0 0
3.9 0 0
4.05 0 0
4.2 0 0
4.35 0 0
4.5 0 0
4.65 0 0
4.8 0 0
4.95 0 0
5.1 0 0
5.25 0 0
5.4 0 0
5.55 0 0
5.7 0 0
5.85 0 0
6 0 0
6.15 0 0
6.3 0 0
6.45 0 0
6.6 0 0
6.75 0 0
6.9 0 0
7.05 0 0
7.2 0 0
7.35 0 0
7.5 0 0
7.65 0 0
7.8 0 0
7.95 0 0
8.1 0 0
8.25 0 0
8.4 0 0
8.55 0 0
8.7 0 0
8.85 0 0
9 0 0
9.15 0 0
9.3 0 0
9.45 0 0
9.6 0 0
9.75 0 0
9.9 0 0
10.05 0 0
10.2 0 0
10.35 0 0
10.5 0 0
10.65 0 0
10.8 0 0
10.95 0 0
11.1 0 0
11.25 0 0
11.4 0 0
11.55 0 0
11.7 0 0
11.85 0 0
12 0 0
12.15 0 0
12.3 0 0
12.45 0 0
12.6 0 0
12.75 0 0
12.9 0 0
13.05 0 0
13.2 0 0
13.35 0 0
13.5 0 0
13.65 0 0
13.8 0 0
13.95 0 0
14.1 0 0
14.25 0 0
14.4 0 0
14.55 0 0
14.7 0 0
14.85 0 0
15 0 0
15.15 0 0
15.3 0 0
15.45 0 0
15.6 0 0
15.75 0 0
15.9 0 0
16.05 0 0
16.2 0 0
16.35 0 0
16.5 0 0
16.65 0 0
16.8 0 0
16.95 0 0
17.1 0 0
17.25 0 0
17.4 0 0
17.55 0 0
17.7 0 0
17.85 0 0
18 0 0
18.15 0 0
18.3 0 0
18.45 0 0
18.6 0 0
18.75 0 0
18.9 0 0
19.05 0 0
19.2 0 0
19.35 0 0
19.5 0 0
19.65 0 0
19.8 0 0
19.95 0 0
20.1 0 0
20.25 0 0
20.4 0 0
20.55 0 0
20.7 0 0
20.85 0 0
21 0 0
21.15 0 0
21.3 0 0
21.45 0 0
21.6 0 0
21.75 0 0
21.9 0 0
22.05 0 0
22.2 0 0
22.35 0 0
22.5 0 0
22.65 0 0
22.8 0 0
22.95 0 0
23.1 0 0
23.25 0 0
23.4 0 0
23.55 0 0
23.7 0 0
23.85 0 0
24 0 0
24.15 0 0
24.3 0 0
24.45 0 0
24.6 0 0
24.75 0 0
24.9 0 0
25.05 0 0
25.2 0 0
25.35 0 0
25.5 0 0
25.65 0 0
25.8 0 0
25.95 0 0
26.1 0 0
26.25 0 0
26.4 0 0
26.55 0 0
26.7 0 0
26.85 0 0
27 0 0
27.15 0 0
27.3 0 0
27.45 0 0
27.6 0 0
27.75 0 0
27.9 0 0
28.05 0 0
28.2 0 0
28.35 0 0
28.5 0 0
28.65 0 0
28.8 0 0
28.95 0 0
29.1 0 0
29.25 0 0
29.4 0 0
29.55 0 0
29.7 0 0
29.85 0 0
0 0.075 0
0.15 0.075 0
0.3 0.075 0
0.45 0.075 0
0.6 0.075 0
0.75 0.075 0
0.9 0.075 0
1.05 0.075 0
1.2 0.075 0
1.35 0.075 0
1.5 0.075 0
1.65 0.075 0
1.8 0.075 0
1.95 0.075 0
2.1 0.075 0
2.25 0.075 0
2.4 0.075 0
2.55 0.075 0
2.7 0.075 0
2.85 0.075 0
3 0.075 0
3.15 0.075 0
3.3 0.075 0
3.45 0.075 0
3.6 0.075 0
3.75 0.075 0
3.9 0.075 0
4.05 0.075 0
4.2 0.075 0
4.35 0.075 0
4.5 0.075 0
4.65 0.075 0
4.8 0.075 0
4.95 0.075 0
5.1 0.075 0
5.25 0.075 0
5.4 0.075 0
5.55 0.075 0
5.7 0.075 0
5.85 0.075 0
6 0.075 0
6.15 0.075 0
6.3 0.075 0
6.45 0.075 0
6.6 0.075 0
6.75 0.075 0
6.9 0.075 0
7.05 0.075 0
7.2 0.075 0
7.35 0.075 0
7.5 0.075 0
7.65 0.075 0
7.8 0.075 0
7.95 0.075 0
8.1 0.075 0
8.25 0.075 0
8.4 0.075 0
8.55 0.075 0
8.7 0.075 0
8.85 0.075 0
9 0.075 0
9.15 0.075 0
9.3 0.075 0
9.45 0.075 0
9.6 0.075 0
9.75 0.075 0
9.9 0.075 0
10.05 0.075 0
10.2 0.075 0
10.35 0.075 0
10.5 0.075 0
10.65 0.075 0
10.8 0.075 0
10.95 0.075 0
11.1 0.075 0
11.25 0.075 0
11.4 0.075 0
11.55 0.075 0
11.7 0.075 0
11.85 0.075 0
12 0.075 0
12.15 0.075 0
12.3 0.075 0
12.45 0.075 0
12.6 0.075 0
12.75 0.075 0
12.9 0.075 0
13.05 0.075 0
13.2 0.075 0
13.35 0.075 0
13.5 0.075 0
13.65 0.075 0
13.8 0.075 0
13.95 0.075 0
14.1 0.075 0
14.25 0.075 0
14.4 0.075 0
14.55 0.075 0
14.7 0.075 0
14.85 0.075 0
15 0.075 0
15.15 0.075 0
15.3 0.075 0
15.45 0.075 0
15.6 0.075 0
15.75 0.075 0
15.9 0.075 0
16.05 0.075 0
16.2 0.075 0
16.35 0.075 0
16.5 0.075 0
16.65 0.075 0
16.8 0.075 0
16.95 0.075 0
17.1 0.075 0
17.25 0.075 0
17.4 0.075 0
17.55 0.075 0
17.7 0.075 0
17.85 0.075 0
18 0.075 0
18.15 0.075 0
18.3 0.075 0
18.45 0.075 0
18.6 0.075 0
18.75 0.075 0
18.9 0.075 0
19.05 0.075 0
19.2 0.075 0
19.35 0.075 0
19.5 0.075 0
19.65 0.075 0
19.8 0.075 0
19.95 0.075 0
20.1 0.075 0
20.25 0.075 0
20.4 0.075 0
20.55 0.075 0
20.7 0.075 0
20.85 0.075 0
21 0.075 0
21.15 0.075 0
21.3 0.075 0
21.45 0.075 0
21.6 0.075 0
21.75 0.075 0
21.9 0.075 0
22.05 0.075 0
22.2 0.075 0
22.35 0.075 0
22.5 0.075 0
22.65 0.075 0
22.8 0.075 0
22.95 0.075 0
23.1 0.075 0
23.25 0.075 0
23.4 0.075 0
23.55 0.075 0
23.7 0.075 0
23.85 0.075 0
24 0.075 0
24.15 0.075 0
24.3 0.075 0
24.45 0.075 0
24.6 0.075 0
24.75 0.075 0
24.9 0.075 0
25.05 0.075 0
25.2 0.075 0
25.35 0.075 0
25.5 0.075 0
25.65 0.075 0
25.8 0.075 0
25.95 0.075 0
26.1 0.075 0
26.25 0.075 0
26.4 0.075 0
26.55 0.075 0
26.7 0.075 0
26.85 0.075 0
27 0.075 0
27.15 0.075 0
27.3 0.075 0
27.45 0.075 0
27.6 0.075 0
27.75 0.075 0
27.9 0.075 0
28.05 0.075 0
28.2 0.075 0
28.35 0.075 0
28.5 0.075 0
28.65 0.075 0
28.8 0.075 0
28.95 0.075 0
29.1 0.075 0
29.25 0.075 0
29.4 0.075 0
29.55 0.075 0
29.7 0.075 0
29.85 0.075 0
0 0.15 0
0.15 0.15 0
0.3 0.15 0
0.45 0.15 0
0.6 0.15 0
0.75 0.15 0
0.9 0.15 0
1.05 0.15 0
1.2 0.15 0
1.35 0.15 0
1.5 0.15 0
1.65 0.15 0
1.8 0.15 0
1.95 0.15 0
2.1 0.15 0
2.25 0.15 0
2.4 0.15 0
2.55 0.15 0
2.7 0.15 0
2.85 0.15 0
3 0.15 0
3.15 0.15 0
3.3 0.15 0
3.45 0.15 0
3.6 0.15 0
3.75 0.15 0
3.9 0.15 0
4.05 0.15 0
4.2 0.15 0
4.35 0.15 0
4.5 0.15 0
4.65 0.15 0
4.8 0.15 0
4.95 0.15 0
5.1 0.15 0
5.25 0.15 0
5.4 0.15 0
5.55 0.15 0
5.7 0.15 0
5.85 0.15 0
6 0.15 0
6.15 0.15 0
6.3 0.15 0
6.45 0.15 0
6.6 0.15 0
6.75 0.15 0
6.9 0.15 0
7.05 0.15 0
7.2 0.15 0
7.35 0.15 0
7.5 0.15 0
7.65 0.15 0
7.8 0.15 0
7.95 0.15 0
8.1 0.15 0
8.25 0.15 0
8.4 0.15 0
8.55 0.15 0
8.7 0.15 0
8.85 0.15 0
9 0.15 0
9.15 0.15 0
9.3 0.15 0
9.45 0.15 0
9.6 0.15 0
9.75 0.15 0
9.9 0.15 0
10.05 0.15 0
10.2 0.15 0
10.35 0.15 0
10.5 0.15 0
10.65 0.15 0
10.8 0.15 0
10.95 0.15 0
11.1 0.15 0
11.25 0.15 0
11.4 0.15 0
11.55 0.15 0
11.7 0.15 0
11.85 0.15 0
12 0.15 0
12.15 0.15 0
12.3 0.15 0
12.45 0.15 0
12.6 0.15 0
12.75 0.15 0
12.9 0.15 0
13.05 0.15 0
13.2 0.15 0
13.35 0.15 0
13.5 0.15 0
13.65 0.15 0
13.8 0.15 0
13.95 0.15 0
14.1 0.15 0
14.25 0.15 0
14.4 0.15 0
14.55 0.15 0
14.7 0.15 0
14.85 0.15 0
15 0.15 0
15.15 0.15 0
15.3 0.15 0
15.45 0.15 0
15.6 0.15 0
15.75 0.15 0
15.9 0.15 0
16.05 0.15 0
16.2 0.15 0
16.35 0.15 0
16.5 0.15 0
16.65 0.15 0
16.8 0.15 0
16.95 0.15 0
17.1 0.15 0
17.25 0.15 0
17.4 0.15 0
17.55 0.15 0
17.7 0.15 0
17.85 0.15 0
18 0.15 0
18.15 0.15 0
18.3 0.15 0
18.45 0.15 0
18.6 0.15 0
18.75 0.15 0
18.9 0.15 0
19.05 0.15 0
19.2 0.15 0
19.35 0.15 0
19.5 0.15 0
19.65 0.15 0
19.8 0.15 0
19.95 0.15 0
20.1 0.15 0
20.25 0.15 0
20.4 0.15 0
20.55 0.15 0
20.7 0.15 0
20.85 0.15 0
21 0.15 0
21.15 0.15 0
21.3 0.15 0
21.45 0.15 0
21.6 0.15 0
21.75 0.15 0
21.9 0.15 0
22.05 0.15 0
22.2 0.15 0
22.35 0.15 0
22.5 0.15 0
22.65 0.15 0
22.8 0.15 0
22.95 0.15 0
23.1 0.15 0
23.25 0.15 0
23.4 0.15 0
23.55 0.15 0
23.7 0.15 0
23.85 0.15 0
24 0.15 0
24.15 0.15 0
24.3 0.15 0
24.45 0.15 0
24.6 0.15 0
24.75 0.15 0
24.9 0.15 0
25.05 0.15 0
25.2 0.15 0
25.35 0.15 0
25.5 0.15 0
25.65 0.15 0
25.8 0.15 0
25.95 0.15 0
26.1 0.15 0
26.25 0.15 0
26.4 0.15 0
26.55 0.15 0
26.7 0.15 0
26.85 0.15 0
27 0.15 0
27.15 0.15 0
27.3 0.15 0
27.45 0.15 0
27.6 0.15 0
27.75 0.15 0
27.9 0.15 0
28.05 0.15 0
28.2 0.15 0
28.35 0.15 0
28.5 0.15 0
28.65 0.15 0
28.8 0.15 0
28.95 0.15 0
29.1 0.15 0
29.25 0.15 0
29.4 0.15 0
29.55 0.15 0
29.7 0.15 0
29.85 0.15 0
0 0.225 0
0.15 0.225 0
0.3 0.225 0
0.45 0.225 0
0.6 0.225 0
0.75 0.225 0
0.9 0.225 0
1.05 0.225 0
1.2 0.225 0
1.35 0.225 0
1.5 0.225 0
1.65 0.225 0
1.8 0.225 0
1.95 0.225 0
2.1 0.225 0
2.25 0.225 0
2.4 0.225 0
2.55 0.225 0
2.7 0.225 0
2.85 0.225 0
3 0.225 0
3.15 0.225 0
3.3 0.225 0
3.45 0.225 0
3.6 0.225 0
3.75 0.225 0
3.9 0.225 0
4.05 0.225 0
4.2 0.225 0
4.35 0.225 0
4.5 0.225 0
4.65 0.225 0
4.8 0.225 0
4.95 0.225 0
5.1 0.225 0
5.25 0.225 0
5.4 0.225 0
5.55 0.225 0
5.7 0.225 0
5.85 0.225 0
6 0.225 0
6.15 0.225 0
6.3 0.225 0
6.45 0.225 0
6.6 0.225 0
6.75 0.225 0
6.9 0.225 0
7.05 0.225 0
7.2 0.225 0
7.35 0.225 0
7.5 0.225 0
7.65 0.225 0
7.8 0.225 0
7.95 0.225 0
8.1 0.225 0
8.25 0.225 0
8.4 0.225 0
8.55 0.225 0
8.7 0.225 0
8.85 0.225 0
9 0.225 0
9.15 0.225 0
9.3 0.225 0
9.45 0.225 0
9.6 0.225 0
9.75 0.225 0
9.9 0.225 0
10.05 0.225 0
10.2 0.225 0
10.35 0.225 0
10.5 0.225 0
10.65 0.225 0
10.8 0.225 0
10.95 0.225 0
11.1 0.225 0
11.25 0.225 0
11.4 0.225 0
11.55 0.225 0
11.7 0.225 0
11.85 0.225 0
12 0.225 0
12.15 0.225 0
12.3 0.225 0
12.45 0.225 0
12.6 0.225 0
12.75 0.225 0
12.9 0.225 0
13.05 0.225 0
13.2 0.225 0
13.35 0.225 0
13.5 0.225 0
13.65 0.225 0
13.8 0.225 0
13.95 0.225 0
14.1 0.225 0
14.25 0.225 0
14.4 0.225 0
14.55 0.225 0
14.7 0.225 0
14.85 0.225 0
15 0.225 0
15.15 0.225 0
15.3 0.225 0
15.45 0.225 0
15.6 0.225 0
15.75 0.225 0
15.9 0.225 0
16.05 0.225 0
16.2 0.225 0
16.35 0.225 0
16.5 0.225 0
16.65 0.225 0
16.8 0.225 0
16.95 0.225 0
17.1 0.225 0
17.25 0.225 0
17.4 0.225 0
17.55 0.225 0
17.7 0.225 0
17.85 0.225 0
18 0.225 0
18.15 0.225 0
18.3 0.225 0
18.45 0.225 0
18.6 0.225 0
18.75 0.225 0
18.9 0.225 0
19.05 0.225 0
19.2 0.225 0
19.35 0.225 0
19.5 0.225 0
19.65 0.225 0
19.8 0.225 0
19.95 0.225 0
20.1 0.225 0
20.25 0.225 0
20.4 0.225 0
20.55 0.225 0
20.7 0.225 0
20.85 0.225 0
21 0.225 0
21.15 0.225 0
21.3 0.225 0
21.45 0.225 0
21.6 0.225 0
21.75 0.225 0
21.9 0.225 0
22.05 0.225 0
22.2 0.225 0
22.35 0.225 0
22.5 0.225 0
22.65 0.225 0
22.8 0.225 0
22.95 0.225 0
23.1 0.225 0
23.25 0.225 0
23.4 0.225 0
23.55 0.225 0
23.7 0.225 0
23.85 0.225 0
24 0.225 0
24.15 0.225 0
24.3 0.225 0
24.45 0.225 0
24.6 0.225 0
24.75 0.225 0
24.9 0.225 0
25.05 0.225 0
25.2 0.225 0
25.35 0.225 0
25.5 0.225 0
25.65 0.225 0
25.8 0.225 0
25.95 0.225 0
26.1 0.225 0
26.25 0.225 0
26.4 0.225 0
26.55 0.225 0
26.7 0.225 0
26.85 0.225 0
27 0.225 0
27.15 0.225 0
27.3 0.225 0
27.45 0.225 0
27.6 0.225 0
27.75 0.225 0
27.9 0.225 0
28.05 0.225 0
28.2 0.225 0
28.35 0.225 0
28.5 0.225 0
28.65 0.225 0
28.8 0.225 0
28.95 0.225 0
29.1 0.225 0
29.25 0.225 0
29.4 0.225 0
29.55 0.225 0
29.7 0.225 0
29.85 0.225 0
0 0.3 0
0.15 0.3 0
0.3 0.3 0
0.45 0.3 0
0.6 0.3 0
0.75 0.3 0
0.9 0.3 0
1.05 0.3 0
1.2 0.3 0
1.35 0.3 0
1.5 0.3 0
1.65 0.3 0
1.8 0.3 0
1.95 0.3 0
2.1 0.3 0
2.25 0.3 0
2.4 0.3 0
2.55 0.3 0
2.7 0.3 0
2.85 0.3 0
3 0.3 0
3.15 0.3 0
3.3 0.3 0
3.45 0.3 0
3.6 0.3 0
3.75 0.3 0
3.9 0.3 0
4.05 0.3 0
4.2 0.3 0
4.35 0.3 0
4.5 0.3 0
4.65 0.3 0
4.8 0.3 0
4.95 0.3 0
5.1 0.3 0
5.25 0.3 0
5.4 0.3 0
5.55 0.3 0
5.7 0.3 0
5.85 0.3 0
6 0.3 0
6.15 0.3 0
[...]
POINT_DATA 40000

SCALARS p float 1
LOOKUP_TABLE default
20183.19346
20183.19346
20183.13804
20183.11032
20183.09202
20183.07925
20183.07222
20183.07219
20183.0793
20183.0917
20183.10645
20183.121
20183.13397
20183.14518
20183.15493
20183.16327
20183.17008
20183.17554
20183.17991
20183.18238
20183.18041
20183.172
20183.14477
20183.08916
20183.14892
20183.56838
20183.45009
20183.08509
20182.83725
20182.61766
20182.40337
20182.18772
20181.96868
20181.74562
20181.51827
20181.28645
20181.04991
20180.80832
20180.56113
20180.30696
20180.04048
20179.8958
20179.91811
20179.91892
20179.94627
20179.99277
20180.04088
20180.037
20179.95182
20179.79079
20179.58948
20179.37105
20179.15308
20179.01623
20178.9559
20178.87934
20178.83384
20178.84455
20178.83438
20178.83696
20178.89104
20178.96602
20179.00243
20179.00059
20178.98738
20178.97612
20178.96427
20178.94212
20178.90684
20178.86062
20178.75773
20178.62657
20178.53415
20178.45558
20178.35988
20178.2566
20178.16945
20178.11719
20178.10975
20178.15
20178.23616
20178.36376
20178.52692
20178.71927
20178.93448
20179.16658
20179.41002
20179.65974
20179.9112
20180.16033
20180.40358
20180.63796
20180.86119
20181.07167
20181.26841
20181.4511
20181.61975
20181.77459
20181.91579
20182.04327
20182.15657
20182.2549
20182.3373
20182.40289
20182.45127
20182.48273
20182.49834
20182.4998
20182.48925
20182.46891
20182.44084
20182.4068
20182.36814
20182.32591
20182.28095
20182.2341
20182.18626
20182.13843
20182.0916
20182.04665
20182.00421
20181.96468
20181.92819
20181.8947
20181.86406
20181.83609
20181.81061
20181.78744
20181.76645
20181.7475
20181.73045
20181.71516
20181.70145
20181.68917
20181.67814
20181.6682
20181.6592
20181.651
20181.6435
20181.63658
20181.63017
20181.6242
20181.61861
20181.61336
20181.6084
20181.60371
20181.59927
20181.59504
20181.59101
20181.58716
20181.58348
20181.57995
20181.57658
20181.57333
20181.57021
20181.56721
20181.56432
20181.56154
20181.55885
20181.55625
20181.55374
20181.5513
20181.54895
20181.54666
20181.54444
20181.54228
20181.54018
20181.53814
20181.53615
20181.5342
20181.53231
20181.53045
20181.52864
20181.52686
20181.52512
20181.52341
20181.52172
20181.52007
20181.51844
20181.51684
20181.51525
20181.51369
20181.51214
20181.5106
20181.50908
20181.50757
20181.50607
20181.50458
20181.5031
20181.50162
20181.50014
20181.49866
20181.49719
20181.49571
20181.49423
20181.49275
20181.49126
20181.48977
20181.48827
20181.48827
20183.19346
20183.19346
20183.13804
20183.11032
20183.09202
20183.07925
20183.07222
20183.07219
20183.0793
20183.0917
20183.10645
20183.121
20183.13397
20183.14518
20183.15493
20183.16327
20183.17008
20183.17554
20183.17991
20183.18238
20183.18041
20183.172
20183.14477
20183.08916
20183.14892
20183.56838
20183.45009
20183.08509
20182.83725
20182.61766
20182.40337
20182.18772
20181.96868
20181.74562
20181.51827
20181.28645
20181.04991
20180.80832
20180.56113
20180.30696
20180.04048
20179.8958
20179.91811
20179.91892
20179.94627
20179.99277
20180.04088
20180.037
20179.95182
20179.79079
20179.58948
20179.37105
20179.15308
20179.01623
20178.9559
20178.87934
20178.83384
20178.84455
20178.83438
20178.83696
20178.89104
20178.96602
20179.00243
20179.00059
20178.98738
20178.97612
20178.96427
20178.94212
20178.90684
20178.86062
20178.75773
20178.62657
20178.53415
20178.45558
20178.35988
20178.2566
20178.16945
20178.11719
20178.10975
20178.15
20178.23616
20178.36376
20178.52692
20178.71927
20178.93448
20179.16658
20179.41002
20179.65974
20179.9112
20180.16033
20180.40358
20180.63796
20180.86119
20181.07167
20181.26841
20181.4511
20181.61975
20181.77459
20181.91579
20182.04327
20182.15657
20182.2549
20182.3373
20182.40289
20182.45127
20182.48273
20182.49834
20182.4998
20182.48925
20182.46891
20182.44084
20182.4068
20182.36814
20182.32591
20182.28095
20182.2341
20182.18626
20182.13843
20182.0916
20182.04665
20182.00421
20181.96468
20181.92819
20181.8947
20181.86406
20181.83609
20181.81061
20181.78744
20181.76645
20181.7475
20181.73045
20181.71516
20181.70145
20181.68917
20181.67814
20181.6682
20181.6592
20181.651
20181.6435
20181.63658
20181.63017
20181.6242
20181.61861
20181.61336
20181.6084
20181.60371
20181.59927
20181.59504
20181.59101
20181.58716
20181.58348
20181.57995
20181.57658
20181.57333
20181.57021
20181.56721
20181.56432
20181.56154
20181.55885
20181.55625
20181.55374
20181.5513
20181.54895
20181.54666
20181.54444
20181.54228
20181.54018
20181.53814
20181.53615
20181.5342
20181.53231
20181.53045
20181.52864
20181.52686
20181.52512
20181.52341
20181.52172
20181.52007
20181.51844
20181.51684
20181.51525
20181.51369
20181.51214
20181.5106
20181.50908
20181.50757
20181.50607
20181.50458
20181.5031
20181.50162
20181.50014
20181.49866
20181.49719
20181.49571
20181.49423
20181.49275
20181.49126
20181.48977
20181.48827
20181.48827
20183.16085
20183.16085
20183.12898
20183.10587
20183.08961
20183.07842
20183.07263
20183.07333
20183.08066
20183.09298
20183.10757
20183.12198
20183.13485
20183.14599
20183.15569
20183.16392
20183.17059
20183.17589
20183.18018
20183.18307
20183.18246
20183.17244
20183.12857
20183.04869
20183.05649
20183.35413
20183.31391
20183.05665
20182.83047
20182.6164
20182.40371
20182.18855
20181.96967
20181.74666
20181.51937
20181.28761
20181.05115
20180.80969
20180.56285
20180.30999
20180.04902
20179.92949
20179.9202
20179.91319
20179.93547
20179.98067
20180.02412
20180.01706
20179.93286
20179.78032
20179.57699
20179.3464
20179.11998
20178.96889
20178.89949
20178.84117
20178.8297
20178.84722
20178.83106
20178.82697
20178.88086
20178.96194
20179.0016
20178.99914
20178.98585
20178.97547
20178.96466
20178.94393
20178.90712
20178.86396
20178.76883
20178.63277
20178.52433
20178.43199
20178.33014
20178.22667
20178.14223
20178.09355
20178.0896
20178.1329
20178.22165
20178.35138
20178.51629
20178.71005
20178.9264
20179.15942
20179.40363
20179.65404
20179.90611
20180.15581
20180.39958
20180.63441
20180.85801
20181.06874
20181.26563
20181.44835
20181.61697
20181.77174
20181.9129
20182.04041
20182.15383
20182.25238
20182.33504
20182.4009
20182.4495
20182.48109
20182.49674
20182.49819
20182.48761
20182.46726
20182.43925
20182.40533
20182.36685
20182.32483
20182.28009
20182.23341
20182.1857
20182.13795
20182.09119
20182.04629
20182.00391
20181.96445
20181.92802
20181.8946
20181.86401
20181.83608
20181.81062
20181.78747
20181.76648
20181.74754
20181.73049
20181.71519
20181.70149
20181.68921
20181.67818
20181.66824
20181.65924
20181.65105
20181.64354
20181.63662
20181.63021
20181.62424
20181.61865
20181.61339
20181.60844
20181.60375
20181.5993
20181.59506
20181.59103
20181.58718
20181.5835
20181.57997
20181.57659
20181.57335
20181.57023
20181.56723
20181.56434
20181.56155
20181.55886
20181.55626
20181.55374
20181.55131
20181.54895
20181.54667
20181.54445
20181.54229
20181.54019
20181.53814
20181.53615
20181.53421
20181.53231
20181.53046
20181.52864
20181.52686
20181.52512
20181.52341
20181.52173
20181.52007
20181.51845
20181.51684
20181.51525
20181.51369
20181.51214
20181.51061
20181.50909
20181.50758
20181.50608
20181.50459
20181.5031
20181.50162
20181.50014
20181.49867
20181.49719
20181.49571
20181.49423
20181.49275
20181.49126
20181.48977
20181.48827
20181.48827
20183.13518
20183.13518
20183.11577
20183.09794
20183.08446
20183.07535
20183.0711
20183.07257
20183.07986
20183.09175
20183.10606
20183.12063
20183.13404
20183.14582
20183.15598
20183.16442
20183.17114
20183.17641
20183.1808
20183.18434
20183.18432
20183.16954
20183.10674
20183.01649
20182.99941
20183.16643
20183.17819
20183.02054
20182.82103
20182.61491
20182.40471
20182.19033
20181.97168
20181.74878
20181.52158
20181.28994
20181.05364
20180.81242
20180.56609
20180.31503
20180.05954
20179.94538
20179.91453
20179.89775
20179.91253
20179.95562
20179.99389
20179.9831
20179.89997
20179.75436
20179.54903
20179.29558
20179.05019
20178.87676
20178.79313
20178.7611
20178.78903
20178.82722
20178.82105
20178.81639
20178.87095
20178.95702
20178.99781
20178.99387
20178.98246
20178.97559
20178.96618
20178.94793
20178.90914
20178.84938
20178.7446
20178.60293
20178.47607
20178.36534
20178.25694
20178.15683
20178.08031
20178.0405
20178.04479
20178.0952
20178.1899
20178.32456
20178.49349
20178.69051
20178.9095
20179.14466
20179.39067
20179.64265
20179.89613
20180.14711
20180.39204
20180.62787
20180.85225
20181.06352
20181.2607
20181.44348
20181.61201
20181.76665
20181.90773
20182.03529
20182.14897
20182.24794
20182.33112
20182.39748
20182.44645
20182.47822
20182.49385
20182.49516
20182.48439
20182.46391
20182.43587
20182.40204
20182.36377
20182.32202
20182.27753
20182.23105
20182.18347
20182.13581
20182.08913
20182.04434
20182.00213
20181.96286
20181.92665
20181.89345
20181.86308
20181.83533
20181.81002
20181.78698
20181.7661
20181.74723
20181.73025
20181.71501
20181.70135
20181.68911
20181.67811
20181.6682
20181.65922
20181.65104
20181.64354
20181.63663
20181.63022
20181.62425
20181.61866
20181.61341
20181.60845
20181.60376
20181.5993
20181.59507
20181.59104
20181.58718
20181.5835
20181.57998
20181.57659
20181.57335
20181.57023
20181.56723
20181.56434
20181.56155
20181.55886
20181.55626
20181.55374
20181.55131
20181.54895
20181.54666
20181.54444
20181.54229
20181.54019
20181.53814
20181.53615
20181.53421
20181.53231
20181.53046
20181.52864
20181.52686
20181.52512
20181.52341
20181.52173
20181.52007
20181.51845
20181.51684
20181.51526
20181.51369
20181.51214
20181.51061
20181.50909
20181.50758
20181.50608
20181.50459
20181.5031
20181.50162
20181.50015
20181.49867
20181.49719
20181.49572
20181.49424
20181.49275
20181.49126
20181.48977
20181.48828
20181.48828
20183.11453
20183.11453
20183.10217
20183.08871
20183.07786
20183.07061
20183.06765
20183.06963
20183.07665
20183.08782
20183.10151
20183.11598
20183.12992
20183.14268
20183.15394
20183.16341
20183.17093
20183.17668
20183.18138
20183.18536
20183.18466
20183.16511
20183.09433
20183.01899
20183.00601
20183.09086
20183.10815
20182.99498
20182.81403
20182.61471
20182.40683
20182.19319
20181.97477
20181.75198
20181.5249
20181.29343
20181.05736
20180.81644
20180.57058
20180.32072
20180.0646
20179.94277
20179.89876
20179.87406
20179.88065
20179.91872
20179.95186
20179.93837
20179.85718
20179.71214
20179.49922
20179.22214
20178.95451
20178.76579
20178.67484
20178.65371
20178.70853
20178.78621
20178.81487
20178.82517
20178.87888
20178.95885
20178.99228
20178.98448
20178.97657
20178.97553
20178.96709
20178.93967
20178.88482
20178.79975
20178.67671
20178.52806
20178.38961
20178.26818
20178.15852
20178.06526
20177.99925
20177.97051
20177.98497
20178.04424
20178.14647
20178.28743
20178.46159
20178.66288
20178.88533
20179.12334
20179.37175
20179.62584
20179.88126
20180.134
20180.38053
20180.61777
20180.84325
20181.05527
20181.25286
20181.43573
20181.60413
20181.75856
20181.89949
20182.02713
20182.14115
20182.24072
20182.32465
20182.39174
20182.44126
20182.47328
20182.48888
20182.48995
20182.47889
20182.45817
20182.43004
20182.39633
20182.35836
20182.317
20182.2729
20182.22671
20182.1793
20182.13174
20182.08518
20182.04057
20181.99861
20181.95968
20181.92387
20181.89108
20181.86111
20181.83373
20181.80875
20181.786
20181.76535
20181.74667
20181.72984
20181.71472
20181.70116
20181.68899
20181.67805
20181.66817
20181.65922
20181.65106
20181.64357
20181.63667
20181.63026
20181.62429
20181.6187
20181.61344
20181.60848
20181.60378
20181.59932
20181.59509
20181.59105
20181.58719
20181.58351
20181.57998
20181.5766
20181.57335
20181.57023
20181.56723
20181.56433
20181.56155
20181.55885
20181.55625
20181.55374
20181.55131
20181.54895
20181.54666
20181.54444
20181.54228
20181.54018
20181.53814
20181.53615
20181.53421
20181.53231
20181.53045
20181.52864
20181.52686
20181.52512
20181.52341
20181.52173
20181.52007
20181.51845
20181.51684
20181.51526
20181.51369
20181.51214
20181.51061
20181.50909
20181.50758
20181.50609
20181.50459
20181.50311
20181.50163
20181.50015
20181.49868
20181.4972
20181.49573
20181.49425
20181.49276
20181.49127
20181.48977
20181.48828
20181.48828
20183.09711
20183.09711
20183.08897
20183.07896
20183.07043
20183.06479
20183.06283
20183.06512
20183.07172
20183.08199
20183.09475
20183.10869
20183.12272
20183.13615
20183.14853
20183.15941
20183.16842
20183.17549
20183.18098
20183.18497
20183.18279
20183.16135
20183.09387
20183.03837
20183.03585
20183.08438
20183.09252
20182.98593
20182.81268
20182.61704
20182.41052
20182.19727
20181.97896
20181.75625
20181.52932
20181.29808
20181.0623
20180.82171
20180.57617
20180.32673
20180.06509
20179.9285
20179.87506
20179.84412
20179.84278
20179.8734
20179.90125
20179.88533
20179.80472
20179.65589
20179.42806
20179.13083
20178.84525
20178.65099
20178.56118
20178.54392
20178.61267
20178.73467
20178.82105
20178.86414
20178.91639
20178.97644
20178.98997
20178.97375
20178.96922
20178.97006
20178.9528
20178.90546
20178.82463
20178.71359
20178.57559
20178.42353
20178.28116
20178.15639
20178.04906
20177.96348
20177.90788
20177.89007
20177.91487
20177.98346
20178.09387
20178.24188
20178.42199
20178.62821
20178.85471
20179.09607
20179.34734
20179.60395
20179.86172
20180.11665
20180.36518
20180.60417
20180.83106
20181.04406
20181.24218
20181.42517
20181.59339
20181.74753
20181.88827
20182.01595
20182.13038
20182.23071
20182.31561
20182.38366
20182.4339
20182.46625
20182.48179
20182.48253
20182.47105
20182.44999
20182.42172
20182.38815
20182.35058
20182.30979
20182.26625
20182.2205
20182.17335
20182.12594
20182.0795
20182.03509
20181.99346
20181.95498
20181.9197
20181.88748
20181.85808
20181.83126
20181.80678
20181.78448
20181.76422
20181.74586
20181.7293
20181.71438
20181.70097
20181.68891
20181.67805
20181.66823
20181.65931
20181.65116
20181.64368
20181.63678
20181.63036
20181.62438
20181.61878
20181.61351
20181.60854
20181.60384
20181.59937
20181.59513
20181.59108
20181.58722
20181.58353
20181.58
20181.57661
20181.57336
20181.57024
20181.56723
20181.56434
20181.56155
20181.55886
20181.55625
20181.55374
20181.5513
20181.54895
20181.54666
20181.54444
20181.54228
20181.54018
20181.53814
20181.53615
20181.5342
20181.53231
20181.53045
20181.52864
20181.52686
20181.52512
20181.52341
20181.52173
20181.52008
20181.51845
20181.51685
20181.51526
20181.5137
20181.51215
20181.51062
20181.5091
20181.50759
20181.50609
20181.5046
20181.50312
20181.50164
20181.50017
20181.49869
20181.49722
20181.49574
20181.49426
20181.49278
20181.49128
20181.48978
20181.48829
20181.48829
20183.08182
20183.08182
20183.07632
20183.06895
20183.06241
20183.05816
20183.05704
20183.05953
20183.0657
20183.0751
20183.08685
20183.09996
20183.11358
20183.12713
20183.14013
20183.15214
20183.1627
20183.17148
20183.17821
20183.18223
20183.17854
20183.15801
20183.10264
20183.06413
20183.07148
20183.10961
20183.10767
20182.99214
20182.81803
20182.62257
20182.41605
20182.20267
20181.98426
20181.76158
20181.53481
20181.30387
20181.06846
20180.82823
20180.58288
20180.3334
20180.06371
20179.90865
20179.84617
20179.8096
20179.8008
20179.82313
20179.84536
20179.8267
20179.74421
20179.58881
20179.34455
20179.03159
20178.73779
20178.5461
20178.46037
20178.44609
20178.52169
20178.68129
20178.83329
20178.92264
20178.97779
20179.01165
20178.99742
20178.96859
20178.96051
20178.95195
20178.91434
20178.84021
20178.73405
20178.60408
20178.45732
20178.30476
20178.16228
20178.03768
20177.93374
20177.85517
20177.80881
20177.80107
20177.83586
20177.91387
20178.03288
20178.18852
20178.37519
20178.58691
20178.81795
20179.06309
20179.31758
20179.57709
20179.83758
20180.09508
20180.34601
20180.58712
20180.81574
20181.02995
20181.22874
20181.41189
20181.57991
20181.73369
20181.87414
20182.00184
20182.11672
20182.21793
20182.304
20182.37323
20182.42435
20182.45711
20182.47256
20182.47287
20182.46084
20182.43933
20182.41086
20182.37744
20182.34038
20182.30036
20182.25762
20182.2125
20182.16575
20182.11854
20182.07226
20182.02809
20181.98685
20181.9489
20181.91426
20181.88273
20181.85404
20181.82791
20181.80408
20181.78237
20181.76264
20181.74474
20181.72854
20181.71392
20181.70073
20181.68884
20181.67809
20181.66834
20181.65946
20181.65133
20181.64386
20181.63695
20181.63053
20181.62453
20181.61892
20181.61363
20181.60865
20181.60393
20181.59945
20181.59519
20181.59114
20181.58727
20181.58357
20181.58003
20181.57664
20181.57338
20181.57026
20181.56725
20181.56435
20181.56156
20181.55886
20181.55626
20181.55374
20181.55131
20181.54895
20181.54666
20181.54444
20181.54228
20181.54018
20181.53814
20181.53615
20181.5342
20181.53231
20181.53045
20181.52864
20181.52686
20181.52512
20181.52341
20181.52173
20181.52008
20181.51845
20181.51685
20181.51527
20181.5137
20181.51216
20181.51063
20181.50911
20181.5076
20181.50611
20181.50462
20181.50314
20181.50166
20181.50018
20181.49871
20181.49724
20181.49576
20181.49428
20181.4928
20181.4913
20181.4898
20181.4883
20181.4883
20183.06797
20183.06797
20183.06418
20183.05881
20183.05393
20183.05088
20183.05046
20183.05313
20183.05895
20183.06758
20183.07838
20183.09059
20183.10355
20183.11675
20183.12983
20183.14239
20183.15401
20183.16423
20183.17222
20183.17672
20183.17194
20183.15466
20183.11573
20183.09254
20183.1065
20183.14544
20183.13827
20183.01002
20182.82968
20182.63136
20182.42346
20182.20935
20181.99062
20181.76792
20181.54136
20181.31079
20181.07584
20180.83605
20180.59083
20180.34136
20180.06297
20179.88747
20179.81449
20179.77203
20179.75621
20179.77036
20179.78683
20179.76514
20179.67935
20179.51617
20179.25911
20178.93523
20178.64299
20178.45901
20178.37583
20178.36288
20178.4429
20178.63139
20178.84396
20178.98287
20179.04677
20179.0584
20179.01773
20178.9728
20178.94903
20178.91679
20178.85116
20178.75132
20178.62598
20178.48401
20178.33237
20178.17992
20178.03806
20177.91435
20177.81346
20177.74069
20177.70228
20177.70371
20177.74811
20177.83564
20177.96367
20178.12751
20178.32135
20178.53912
20178.77514
20179.02441
20179.28247
20179.54518
20179.80872
20180.06918
20180.3229
20180.56654
20180.79724
20181.01295
20181.21258
20181.39597
20181.56376
20181.71708
20181.85713
20181.98475
20182.10007
20182.20226
20182.28968
20182.36031
20182.41249
20182.44573
20182.46106
20182.46084
20182.44814
20182.42606
20182.39733
20182.36408
20182.32765
20182.2886
20182.24691
20182.20264
20182.15643
20182.10952
20182.06346
20182.01959
20181.97881
20181.94151
20181.90764
20181.87695
20181.84909
20181.82375
20181.80068
20181.77967
20181.76056
20181.74321
20181.72748
20181.71324
20181.70035
20181.68868
20181.67808
20181.66843
20181.65962
20181.65152
20181.64406
20181.63715
20181.63072
20181.62471
20181.61908
20181.61378
20181.60877
20181.60404
20181.59955
20181.59527
20181.59121
20181.58733
20181.58362
20181.58007
20181.57667
20181.57341
20181.57028
20181.56726
20181.56436
20181.56157
20181.55887
20181.55626
20181.55374
20181.55131
20181.54895
20181.54666
20181.54444
20181.54228
20181.54018
20181.53813
20181.53614
20181.5342
20181.53231
20181.53045
20181.52864
20181.52686
20181.52512
20181.52341
20181.52174
20181.52008
20181.51846
20181.51686
20181.51528
20181.51371
20181.51217
20181.51064
20181.50912
20181.50762
20181.50612
20181.50463
20181.50315
20181.50168
20181.5002
20181.49873
20181.49726
20181.49578
20181.4943
20181.49282
20181.49133
20181.48983
20181.48832
20181.48832
20183.0551
20183.0551
20183.05247
20183.04861
20183.04509
20183.04304
20183.04323
20183.04605
20183.05159
20183.05959
20183.06957
20183.08094
20183.09316
20183.10582
20183.1186
20183.1312
20183.14329
20183.15437
20183.16337
20183.16884
20183.16446
20183.153
20183.12913
20183.12035
20183.14155
20183.18536
20183.17605
20183.03596
20182.8464
20182.643
20182.43256
20182.21722
20181.99798
20181.77522
20181.54892
20181.31881
20181.08444
20180.84522
20180.60019
20180.35119
20180.06482
20179.86791
20179.78212
20179.73304
20179.71057
20179.71726
20179.72834
20179.70365
20179.61438
20179.44481
20179.1799
20178.85149
20178.56688
20178.39146
20178.30648
20178.29053
20178.37665
20178.58777
20178.84683
20179.02876
20179.10464
20179.10316
20179.04342
20178.97961
20178.92861
20178.86418
20178.77027
20178.64976
20178.5109
20178.36081
20178.20541
20178.05208
20177.90992
20177.78647
20177.68767
20177.61946