# vtk DataFile Version 2.0
FlowField
ASCII
DATASET STRUCTURED_GRID
DIMENSIONS 200 1 200
POINTS 40000 float
0 0 0
0.15 0 0
0.3 0 0
0.45 0 0
0.6 0 0
0.75 0 0
0.9 0 0
1.05 0 0
1.2 0 0
1.35 0 0
1.5 0 0
1.65 0 0
1.8 0 0
1.95 0 0
2.1 0 0
2.25 0 0
2.4 0 0
2.55 0 0
2.7 0 0
2.85 0 0
3 0 0
3.15 0 0
3.3 0 0
3.45 0 0
3.6 0 0
3.75 0 0
3.9 0 0
4.05 0 0
4.2 0 0
4.35 0 0
4.5 0 0
4.65 0 0
4.8 0 0
4.95 0 0
5.1 0 0
5.25 0 0
5.4 0 0
5.55 0 0
5.7 0 0
5.85 0 0
6 0 0
6.15 0 0
6.3 0 0
6.45 0 0
6.6 0 0
6.75 0 0
6.9 0 0
7.05 0 0
7.2 0 0
7.35 0 0
7.5 0 0
7.65 0 0
7.8 0 0
7.95 0 0
8.1 0 0
8.25 0 0
8.4 0 0
8.55 0 0
8.7 0 0
8.85 0 0
9 0 0
9.15 0 0
9.3 0 0
9.45 0 0
9.6 0 0
9.75 0 0
9.9 0 0
10.05 0 0
10.2 0 0
10.35 0 0
10.5 0 0
10.65 0 0
10.8 0 0
10.95 0 0
11.1 0 0
11.25 0 0
11.4 0 0
11.55 0 0
11.7 0 0
11.85 0 0
12 0 0
12.15 0 0
12.3 0 0
12.45 0 0
12.6 0 0
12.75 0 0
12.9 0 0
13.05 0 0
13.2 0 0
13.35 0 0
13.5 0 0
13.65 0 0
13.8 0 0
13.95 0 0
14.1 0 0
14.25 0 0
14.4 0 0
14.55 0 0
14.7 0 0
14.85 0 0
15 0 0
15.15 0 0
15.3 0 0
15.45 0 0
15.6 0 0
15.75 0 0
15.9 0 0
16.05 0 0
16.2 0 0
16.35 0 0
16.5 0 0
16.65 0 0
16.8 0 0
16.95 0 0
17.1 0 0
17.25 0 0
17.4 0 0
17.55 0 0
17.7 0 0
17.85 0 0
18 0 0
18.15 0 0
18.3 0 0
18.45 0 0
18.6 0 0
18.75 0 0
18.9 0 0
19.05 0 0
19.2 0 0
19.35 0 0
19.5 0 0
19.65 0 0
19.8 0 0
19.95 0 0
20.1 0 0
20.25 0 0
20.4 0 0
20.55 0 0
20.7 0 0
20.85 0 0
21 0 0
21.15 0 0
21.3 0 0
21.45 0 0
21.6 0 0
21.75 0 0
21.9 0 0
22.05 0 0
22.2 0 0
22.35 0 0
22.5 0 0
22.65 0 0
22.8 0 0
22.95 0 0
23.1 0 0
23.25 0 0
23.4 0 0
23.55 0 0
23.7 0 0
23.85 0 0
24 0 0
24.15 0 0
24.3 0 0
24.45 0 0
24.6 0 0
24.75 0 0
24.9 0 0
25.05 0 0
25.2 0 0
25.35 0 0
25.5 0 0
25.65 0 0
25.8 0 0
25.95 0 0
26.1 0 0
26.25 0 0
26.4 0 0
26.55 0 0
26.7 0 0
26.85 0 0
27 0 0
27.15 0 0
27.3 0 0
27.45 0 0
27.6 0 0
27.75 0 0
27.9 0 0
28.05 0 0
28.2 0 0
28.35 0 0
28.5 0 0
28.65 0 0
28.8 0 0
28.95 0 0
29.1 0 0
29.25 0 0
29.4 0 0
29.55 0 0
29.7 0 0
29.85 0 0
0 0.075 0
0.15 0.075 0
0.3 0.075 0
0.45 0.075 0
0.6 0.075 0
0.75 0.075 0
0.9 0.075 0
1.05 0.075 0
1.2 0.075 0
1.35 0.075 0
1.5 0.075 0
1.65 0.075 0
1.8 0.075 0
1.95 0.075 0
2.1 0.075 0
2.25 0.075 0
2.4 0.075 0
2.55 0.075 0
2.7 0.075 0
2.85 0.075 0
3 0.075 0
3.15 0.075 0
3.3 0.075 0
3.45 0.075 0
3.6 0.075 0
3.75 0.075 0
3.9 0.075 0
4.05 0.075 0
4.2 0.075 0
4.35 0.075 0
4.5 0.075 0
4.65 0.075 0
4.8 0.075 0
4.95 0.075 0
5.1 0.075 0
5.25 0.075 0
5.4 0.075 0
5.55 0.075 0
5.7 0.075 0
5.85 0.075 0
6 0.075 0
6.15 0.075 0
6.3 0.075 0
6.45 0.075 0
6.6 0.075 0
6.75 0.075 0
6.9 0.075 0
7.05 0.075 0
7.2 0.075 0
7.35 0.075 0
7.5 0.075 0
7.65 0.075 0
7.8 0.075 0
7.95 0.075 0
8.1 0.075 0
8.25 0.075 0
8.4 0.075 0
8.55 0.075 0
8.7 0.075 0
8.85 0.075 0
9 0.075 0
9.15 0.075 0
9.3 0.075 0
9.45 0.075 0
9.6 0.075 0
9.75 0.075 0
9.9 0.075 0
10.05 0.075 0
10.2 0.075 0
10.35 0.075 0
10.5 0.075 0
10.65 0.075 0
10.8 0.075 0
10.95 0.075 0
11.1 0.075 0
11.25 0.075 0
11.4 0.075 0
11.55 0.075 0
11.7 0.075 0
11.85 0.075 0
12 0.075 0
12.15 0.075 0
12.3 0.075 0
12.45 0.075 0
12.6 0.075 0
12.75 0.075 0
12.9 0.075 0
13.05 0.075 0
13.2 0.075 0
13.35 0.075 0
13.5 0.075 0
13.65 0.075 0
13.8 0.075 0
13.95 0.075 0
14.1 0.075 0
14.25 0.075 0
14.4 0.075 0
14.55 0.075 0
14.7 0.075 0
14.85 0.075 0
15 0.075 0
15.15 0.075 0
15.3 0.075 0
15.45 0.075 0
15.6 0.075 0
15.75 0.075 0
15.9 0.075 0
16.05 0.075 0
16.2 0.075 0
16.35 0.075 0
16.5 0.075 0
16.65 0.075 0
16.8 0.075 0
16.95 0.075 0
17.1 0.075 0
17.25 0.075 0
17.4 0.075 0
17.55 0.075 0
17.7 0.075 0
17.85 0.075 0
18 0.075 0
18.15 0.075 0
18.3 0.075 0
18.45 0.075 0
18.6 0.075 0
18.75 0.075 0
18.9 0.075 0
19.05 0.075 0
19.2 0.075 0
19.35 0.075 0
19.5 0.075 0
19.65 0.075 0
19.8 0.075 0
19.95 0.075 0
20.1 0.075 0
20.25 0.075 0
20.4 0.075 0
20.55 0.075 0
20.7 0.075 0
20.85 0.075 0
21 0.075 0
21.15 0.075 0
21.3 0.075 0
21.45 0.075 0
21.6 0.075 0
21.75 0.075 0
21.9 0.075 0
22.05 0.075 0
22.2 0.075 0
22.35 0.075 0
22.5 0.075 0
22.65 0.075 0
22.8 0.075 0
22.95 0.075 0
23.1 0.075 0
23.25 0.075 0
23.4 0.075 0
23.55 0.075 0
23.7 0.075 0
23.85 0.075 0
24 0.075 0
24.15 0.075 0
24.3 0.075 0
24.45 0.075 0
24.6 0.075 0
24.75 0.075 0
24.9 0.075 0
25.05 0.075 0
25.2 0.075 0
25.35 0.075 0
25.5 0.075 0
25.65 0.075 0
25.8 0.075 0
25.95 0.075 0
26.1 0.075 0
26.25 0.075 0
26.4 0.075 0
26.55 0.075 0
26.7 0.075 0
26.85 0.075 0
27 0.075 0
27.15 0.075 0
27.3 0.075 0
27.45 0.075 0
27.6 0.075 0
27.75 0.075 0
27.9 0.075 0
28.05 0.075 0
28.2 0.075 0
28.35 0.075 0
28.5 0.075 0
28.65 0.075 0
28.8 0.075 0
28.95 0.075 0
29.1 0.075 0
29.25 0.075 0
29.4 0.075 0
29.55 0.075 0
29.7 0.075 0
29.85 0.075 0
0 0.15 0
0.15 0.15 0
0.3 0.15 0
0.45 0.15 0
0.6 0.15 0
0.75 0.15 0
0.9 0.15 0
1.05 0.15 0
1.2 0.15 0
1.35 0.15 0
1.5 0.15 0
1.65 0.15 0
1.8 0.15 0
1.95 0.15 0
2.1 0.15 0
2.25 0.15 0
2.4 0.15 0
2.55 0.15 0
2.7 0.15 0
2.85 0.15 0
3 0.15 0
3.15 0.15 0
3.3 0.15 0
3.45 0.15 0
3.6 0.15 0
3.75 0.15 0
3.9 0.15 0
4.05 0.15 0
4.2 0.15 0
4.35 0.15 0
4.5 0.15 0
4.65 0.15 0
4.8 0.15 0
4.95 0.15 0
5.1 0.15 0
5.25 0.15 0
5.4 0.15 0
5.55 0.15 0
5.7 0.15 0
5.85 0.15 0
6 0.15 0
6.15 0.15 0
6.3 0.15 0
6.45 0.15 0
6.6 0.15 0
6.75 0.15 0
6.9 0.15 0
7.05 0.15 0
7.2 0.15 0
7.35 0.15 0
7.5 0.15 0
7.65 0.15 0
7.8 0.15 0
7.95 0.15 0
8.1 0.15 0
8.25 0.15 0
8.4 0.15 0
8.55 0.15 0
8.7 0.15 0
8.85 0.15 0
9 0.15 0
9.15 0.15 0
9.3 0.15 0
9.45 0.15 0
9.6 0.15 0
9.75 0.15 0
9.9 0.15 0
10.05 0.15 0
10.2 0.15 0
10.35 0.15 0
10.5 0.15 0
10.65 0.15 0
10.8 0.15 0
10.95 0.15 0
11.1 0.15 0
11.25 0.15 0
11.4 0.15 0
11.55 0.15 0
11.7 0.15 0
11.85 0.15 0
12 0.15 0
12.15 0.15 0
12.3 0.15 0
12.45 0.15 0
12.6 0.15 0
12.75 0.15 0
12.9 0.15 0
13.05 0.15 0
13.2 0.15 0
13.35 0.15 0
13.5 0.15 0
13.65 0.15 0
13.8 0.15 0
13.95 0.15 0
14.1 0.15 0
14.25 0.15 0
14.4 0.15 0
14.55 0.15 0
14.7 0.15 0
14.85 0.15 0
15 0.15 0
15.15 0.15 0
15.3 0.15 0
15.45 0.15 0
15.6 0.15 0
15.75 0.15 0
15.9 0.15 0
16.05 0.15 0
16.2 0.15 0
16.35 0.15 0
16.5 0.15 0
16.65 0.15 0
16.8 0.15 0
16.95 0.15 0
17.1 0.15 0
17.25 0.15 0
17.4 0.15 0
17.55 0.15 0
17.7 0.15 0
17.85 0.15 0
18 0.15 0
18.15 0.15 0
18.3 0.15 0
18.45 0.15 0
18.6 0.15 0
18.75 0.15 0
18.9 0.15 0
19.05 0.15 0
19.2 0.15 0
19.35 0.15 0
19.5 0.15 0
19.65 0.15 0
19.8 0.15 0
19.95 0.15 0
20.1 0.15 0
20.25 0.15 0
20.4 0.15 0
20.55 0.15 0
20.7 0.15 0
20.85 0.15 0
21 0.15 0
21.15 0.15 0
21.3 0.15 0
21.45 0.15 0
21.6 0.15 0
21.75 0.15 0
21.9 0.15 0
22.05 0.15 0
22.2 0.15 0
22.35 0.15 0
22.5 0.15 0
22.65 0.15 0
22.8 0.15 0
22.95 0.15 0
23.1 0.15 0
23.25 0.15 0
23.4 0.15 0
23.55 0.15 0
23.7 0.15 0
23.85 0.15 0
24 0.15 0
24.15 0.15 0
24.3 0.15 0
24.45 0.15 0
24.6 0.15 0
24.75 0.15 0
24.9 0.15 0
25.05 0.15 0
25.2 0.15 0
25.35 0.15 0
25.5 0.15 0
25.65 0.15 0
25.8 0.15 0
25.95 0.15 0
26.1 0.15 0
26.25 0.15 0
26.4 0.15 0
26.55 0.15 0
26.7 0.15 0
26.85 0.15 0
27 0.15 0
27.15 0.15 0
27.3 0.15 0
27.45 0.15 0
27.6 0.15 0
27.75 0.15 0
27.9 0.15 0
28.05 0.15 0
28.2 0.15 0
28.35 0.15 0
28.5 0.15 0
28.65 0.15 0
28.8 0.15 0
28.95 0.15 0
29.1 0.15 0
29.25 0.15 0
29.4 0.15 0
29.55 0.15 0
29.7 0.15 0
29.85 0.15 0
0 0.225 0
0.15 0.225 0
0.3 0.225 0
0.45 0.225 0
0.6 0.225 0
0.75 0.225 0
0.9 0.225 0
1.05 0.225 0
1.2 0.225 0
1.35 0.225 0
1.5 0.225 0
1.65 0.225 0
1.8 0.225 0
1.95 0.225 0
2.1 0.225 0
2.25 0.225 0
2.4 0.225 0
2.55 0.225 0
2.7 0.225 0
2.85 0.225 0
3 0.225 0
3.15 0.225 0
3.3 0.225 0
3.45 0.225 0
3.6 0.225 0
3.75 0.225 0
3.9 0.225 0
4.05 0.225 0
4.2 0.225 0
4.35 0.225 0
4.5 0.225 0
4.65 0.225 0
4.8 0.225 0
4.95 0.225 0
5.1 0.225 0
5.25 0.225 0
5.4 0.225 0
5.55 0.225 0
5.7 0.225 0
5.85 0.225 0
6 0.225 0
6.15 0.225 0
6.3 0.225 0
6.45 0.225 0
6.6 0.225 0
6.75 0.225 0
6.9 0.225 0
7.05 0.225 0
7.2 0.225 0
7.35 0.225 0
7.5 0.225 0
7.65 0.225 0
7.8 0.225 0
7.95 0.225 0
8.1 0.225 0
8.25 0.225 0
8.4 0.225 0
8.55 0.225 0
8.7 0.225 0
8.85 0.225 0
9 0.225 0
9.15 0.225 0
9.3 0.225 0
9.45 0.225 0
9.6 0.225 0
9.75 0.225 0
9.9 0.225 0
10.05 0.225 0
10.2 0.225 0
10.35 0.225 0
10.5 0.225 0
10.65 0.225 0
10.8 0.225 0
10.95 0.225 0
11.1 0.225 0
11.25 0.225 0
11.4 0.225 0
11.55 0.225 0
11.7 0.225 0
11.85 0.225 0
12 0.225 0
12.15 0.225 0
12.3 0.225 0
12.45 0.225 0
12.6 0.225 0
12.75 0.225 0
12.9 0.225 0
13.05 0.225 0
13.2 0.225 0
13.35 0.225 0
13.5 0.225 0
13.65 0.225 0
13.8 0.225 0
13.95 0.225 0
14.1 0.225 0
14.25 0.225 0
14.4 0.225 0
14.55 0.225 0
14.7 0.225 0
14.85 0.225 0
15 0.225 0
15.15 0.225 0
15.3 0.225 0
15.45 0.225 0
15.6 0.225 0
15.75 0.225 0
15.9 0.225 0
16.05 0.225 0
16.2 0.225 0
16.35 0.225 0
16.5 0.225 0
16.65 0.225 0
16.8 0.225 0
16.95 0.225 0
17.1 0.225 0
17.25 0.225 0
17.4 0.225 0
17.55 0.225 0
17.7 0.225 0
17.85 0.225 0
18 0.225 0
18.15 0.225 0
18.3 0.225 0
18.45 0.225 0
18.6 0.225 0
18.75 0.225 0
18.9 0.225 0
19.05 0.225 0
19.2 0.225 0
19.35 0.225 0
19.5 0.225 0
19.65 0.225 0
19.8 0.225 0
19.95 0.225 0
20.1 0.225 0
20.25 0.225 0
20.4 0.225 0
20.55 0.225 0
20.7 0.225 0
20.85 0.225 0
21 0.225 0
21.15 0.225 0
21.3 0.225 0
21.45 0.225 0
21.6 0.225 0
21.75 0.225 0
21.9 0.225 0
22.05 0.225 0
22.2 0.225 0
22.35 0.225 0
22.5 0.225 0
22.65 0.225 0
22.8 0.225 0
22.95 0.225 0
23.1 0.225 0
23.25 0.225 0
23.4 0.225 0
23.55 0.225 0
23.7 0.225 0
23.85 0.225 0
24 0.225 0
24.15 0.225 0
24.3 0.225 0
24.45 0.225 0
24.6 0.225 0
24.75 0.225 0
24.9 0.225 0
25.05 0.225 0
25.2 0.225 0
25.35 0.225 0
25.5 0.225 0
25.65 0.225 0
25.8 0.225 0
25.95 0.225 0
26.1 0.225 0
26.25 0.225 0
26.4 0.225 0
26.55 0.225 0
26.7 0.225 0
26.85 0.225 0
27 0.225 0
27.15 0.225 0
27.3 0.225 0
27.45 0.225 0
27.6 0.225 0
27.75 0.225 0
27.9 0.225 0
28.05 0.225 0
28.2 0.225 0
28.35 0.225 0
28.5 0.225 0
28.65 0.225 0
28.8 0.225 0
28.95 0.225 0
29.1 0.225 0
29.25 0.225 0
29.4 0.225 0
29.55 0.225 0
29.7 0.225 0
29.85 0.225 0
0 0.3 0
0.15 0.3 0
0.3 0.3 0
0.45 0.3 0
0.6 0.3 0
0.75 0.3 0
0.9 0.3 0
1.05 0.3 0
1.2 0.3 0
1.35 0.3 0
1.5 0.3 0
1.65 0.3 0
1.8 0.3 0
1.95 0.3 0
2.1 0.3 0
2.25 0.3 0
2.4 0.3 0
2.55 0.3 0
2.7 0.3 0
2.85 0.3 0
3 0.3 0
3.15 0.3 0
3.3 0.3 0
3.45 0.3 0
3.6 0.3 0
3.75 0.3 0
3.9 0.3 0
4.05 0.3 0
4.2 0.3 0
4.35 0.3 0
4.5 0.3 0
4.65 0.3 0
4.8 0.3 0
4.95 0.3 0
5.1 0.3 0
5.25 0.3 0
5.4 0.3 0
5.55 0.3 0
5.7 0.3 0
5.85 0.3 0
6 0.3 0
6.15 0.3 0
[...]
POINT_DATA 40000

SCALARS p float 1
LOOKUP_TABLE default
20183.44034
20183.44034
20183.38531
20183.35827
20183.3408
20183.3289
20183.32276
20183.32374
20183.33202
20183.34561
20183.36133
20183.37646
20183.3897
20183.40107
20183.41092
20183.41924
20183.426
20183.43148
20183.43589
20183.43794
20183.43457
20183.4243
20183.39704
20183.35396
20183.4245
20183.79814
20183.69396
20183.36838
20183.15013
20182.95901
20182.77372
20182.58791
20182.39951
20182.2078
20182.01238
20181.81292
20181.60911
20181.40071
20181.18785
20180.97141
20180.75227
20180.62794
20180.6385
20180.65979
20180.76992
20180.84714
20180.67371
20180.48927
20180.41384
20180.42258
20180.43506
20180.44648
20180.45973
20180.46279
20180.44617
20180.42258
20180.39279
20180.34753
20180.29333
20180.23894
20180.17558
20180.10391
20180.02276
20179.92432
20179.80103
20179.65431
20179.49125
20179.32328
20179.16478
20179.03384
20178.93045
20178.8415
20178.76563
20178.69241
20178.59939
20178.50331
20178.41728
20178.37849
20178.39492
20178.39545
20178.40222
20178.45029
20178.46788
20178.47677
20178.46572
20178.43997
20178.40675
20178.38065
20178.42147
20178.57686
20178.74752
20178.8094
20178.77827
20178.72551
20178.68821
20178.66957
20178.66419
20178.66827
20178.67918
20178.6928
20178.70502
20178.71445
20178.7211
20178.72422
20178.72316
20178.7144
20178.68986
20178.66613
20178.61869
20178.50277
20178.38404
20178.3215
20178.29327
20178.26237
20178.21971
20178.17807
20178.15514
20178.16455
20178.21392
20178.30575
20178.43891
20178.60997
20178.81409
20179.04571
20179.29898
20179.56794
20179.84676
20180.12977
20180.41154
20180.68699
20180.9515
20181.20109
20181.43255
20181.64353
20181.83261
20181.9992
20182.1435
20182.26639
20182.36937
20182.45447
20182.52426
20182.58118
20182.62783
20182.66654
20182.69894
20182.72667
20182.75039
20182.77092
20182.78829
20182.80264
20182.81373
20182.82126
20182.82489
20182.82426
20182.81905
20182.80908
20182.79428
20182.77476
20182.7508
20182.72284
20182.69144
20182.65727
20182.62102
20182.58337
20182.54496
20182.50634
20182.46799
20182.43029
20182.39355
20182.35803
20182.32394
20182.29145
20182.2607
20182.23179
20182.2048
20182.17972
20182.15653
20182.13515
20182.11545
20182.0973
20182.08056
20182.06508
20182.05071
20182.03735
20182.02486
20182.01316
20182.00217
20181.99192
20181.98235
20181.97351
20181.96531
20181.95771
20181.95053
20181.94367
20181.93686
20181.93
20181.92272
20181.91507
20181.90631
20181.90631
20183.44034
20183.44034
20183.38531
20183.35827
20183.3408
20183.3289
20183.32276
20183.32374
20183.33202
20183.34561
20183.36133
20183.37646
20183.3897
20183.40107
20183.41092
20183.41924
20183.426
20183.43148
20183.43589
20183.43794
20183.43457
20183.4243
20183.39704
20183.35396
20183.4245
20183.79814
20183.69396
20183.36838
20183.15013
20182.95901
20182.77372
20182.58791
20182.39951
20182.2078
20182.01238
20181.81292
20181.60911
20181.40071
20181.18785
20180.97141
20180.75227
20180.62794
20180.6385
20180.65979
20180.76992
20180.84714
20180.67371
20180.48927
20180.41384
20180.42258
20180.43506
20180.44648
20180.45973
20180.46279
20180.44617
20180.42258
20180.39279
20180.34753
20180.29333
20180.23894
20180.17558
20180.10391
20180.02276
20179.92432
20179.80103
20179.65431
20179.49125
20179.32328
20179.16478
20179.03384
20178.93045
20178.8415
20178.76563
20178.69241
20178.59939
20178.50331
20178.41728
20178.37849
20178.39492
20178.39545
20178.40222
20178.45029
20178.46788
20178.47677
20178.46572
20178.43997
20178.40675
20178.38065
20178.42147
20178.57686
20178.74752
20178.8094
20178.77827
20178.72551
20178.68821
20178.66957
20178.66419
20178.66827
20178.67918
20178.6928
20178.70502
20178.71445
20178.7211
20178.72422
20178.72316
20178.7144
20178.68986
20178.66613
20178.61869
20178.50277
20178.38404
20178.3215
20178.29327
20178.26237
20178.21971
20178.17807
20178.15514
20178.16455
20178.21392
20178.30575
20178.43891
20178.60997
20178.81409
20179.04571
20179.29898
20179.56794
20179.84676
20180.12977
20180.41154
20180.68699
20180.9515
20181.20109
20181.43255
20181.64353
20181.83261
20181.9992
20182.1435
20182.26639
20182.36937
20182.45447
20182.52426
20182.58118
20182.62783
20182.66654
20182.69894
20182.72667
20182.75039
20182.77092
20182.78829
20182.80264
20182.81373
20182.82126
20182.82489
20182.82426
20182.81905
20182.80908
20182.79428
20182.77476
20182.7508
20182.72284
20182.69144
20182.65727
20182.62102
20182.58337
20182.54496
20182.50634
20182.46799
20182.43029
20182.39355
20182.35803
20182.32394
20182.29145
20182.2607
20182.23179
20182.2048
20182.17972
20182.15653
20182.13515
20182.11545
20182.0973
20182.08056
20182.06508
20182.05071
20182.03735
20182.02486
20182.01316
20182.00217
20181.99192
20181.98235
20181.97351
20181.96531
20181.95771
20181.95053
20181.94367
20181.93686
20181.93
20181.92272
20181.91507
20181.90631
20181.90631
20183.40761
20183.40761
20183.37609
20183.35363
20183.33819
20183.3279
20183.32306
20183.32484
20183.33338
20183.34691
20183.36247
20183.37746
20183.3906
20183.40189
20183.41167
20183.41986
20183.42646
20183.43177
20183.43614
20183.43873
20183.43697
20183.42446
20183.38018
20183.31747
20183.34281
20183.61228
20183.57367
20183.34228
20183.1436
20182.9576
20182.77386
20182.58854
20182.40032
20182.2087
20182.01336
20181.81399
20181.61023
20181.40179
20181.18872
20180.97211
20180.75606
20180.65504
20180.62947
20180.63399
20180.72301
20180.77043
20180.62172
20180.44429
20180.37031
20180.39405
20180.43186
20180.44812
20180.45883
20180.46239
20180.44606
20180.42351
20180.39498
20180.35145
20180.29606
20180.23841
20180.17325
20180.10032
20180.01761
20179.91711
20179.79173
20179.64301
20179.4783
20179.30944
20179.15225
20179.02472
20178.92291
20178.83576
20178.76964
20178.69464
20178.59276
20178.49373
20178.40333
20178.35565
20178.36111
20178.36865
20178.40216
20178.45431
20178.46878
20178.47818
20178.47063
20178.44434
20178.39834
20178.35302
20178.38185
20178.53622
20178.71683
20178.79073
20178.76673
20178.71743
20178.68342
20178.66792
20178.66394
20178.66813
20178.67887
20178.6924
20178.70453
20178.7139
20178.72079
20178.72426
20178.72327
20178.71632
20178.68974
20178.66499
20178.62568
20178.51512
20178.39096
20178.31571
20178.27446
20178.23528
20178.18983
20178.14916
20178.12902
20178.14173
20178.19424
20178.28877
20178.42414
20178.59693
20178.80237
20179.03499
20179.28899
20179.5585
20179.83776
20180.12116
20180.40331
20180.67917
20180.94414
20181.19422
20181.42618
20181.63768
20181.82729
20181.99441
20182.13924
20182.26264
20182.36608
20182.45159
20182.52168
20182.57884
20182.62568
20182.66452
20182.69705
20182.72489
20182.74871
20182.76934
20182.7868
20182.80125
20182.81244
20182.82007
20182.82382
20182.82331
20182.81822
20182.80836
20182.79367
20182.77423
20182.75035
20182.72244
20182.69109
20182.65694
20182.62072
20182.58309
20182.5447
20182.50611
20182.46779
20182.43013
20182.39342
20182.35793
20182.32385
20182.29137
20182.26064
20182.23175
20182.20476
20182.1797
20182.15653
20182.13517
20182.11549
20182.09737
20182.08065
20182.0652
20182.05086
20182.03752
20182.02504
20182.01335
20182.00237
20181.99211
20181.98255
20181.97371
20181.96552
20181.95793
20181.95078
20181.94393
20181.93717
20181.93032
20181.92309
20181.91533
20181.90616
20181.90616
20183.38171
20183.38171
20183.3626
20183.34535
20183.33266
20183.32445
20183.3212
20183.32379
20183.33234
20183.34549
20183.36085
20183.37611
20183.3899
20183.40187
20183.41206
20183.42039
20183.42701
20183.43226
20183.43684
20183.44035
20183.43937
20183.4209
20183.3562
20183.2853
20183.28674
20183.43914
20183.44805
20183.30798
20183.13419
20182.95574
20182.77442
20182.58991
20182.40199
20182.21054
20182.01536
20181.81615
20181.61252
20181.40403
20181.19048
20180.97268
20180.75455
20180.652
20180.59873
20180.58904
20180.65555
20180.67467
20180.53856
20180.36726
20180.29302
20180.33409
20180.41373
20180.4497
20180.46373
20180.46526
20180.44687
20180.42534
20180.39471
20180.34808
20180.28972
20180.22818
20180.16141
20180.08772
20180.00351
20179.90068
20179.77257
20179.62097
20179.45429
20179.28445
20179.12854
20179.00736
20178.90933
20178.82543
20178.77579
20178.69841
20178.58099
20178.47615
20178.37581
20178.31025
20178.2919
20178.30358
20178.36247
20178.43594
20178.46802
20178.48471
20178.4813
20178.44822
20178.37704
20178.30228
20178.31335
20178.46572
20178.66019
20178.75213
20178.73858
20178.69579
20178.66906
20178.66154
20178.66301
20178.66926
20178.68007
20178.69294
20178.70435
20178.71352
20178.72092
20178.7254
20178.72339
20178.71906
20178.69563
20178.65861
20178.60499
20178.49535
20178.36992
20178.27934
20178.21879
20178.16757
20178.11969
20178.0832
20178.07022
20178.0907
20178.15036
20178.25099
20178.39134
20178.56809
20178.77662
20179.01161
20179.26742
20179.53835
20179.81879
20180.10324
20180.38644
20180.66338
20180.92949
20181.18074
20181.41388
20181.62655
20181.81729
20181.98553
20182.13143
20182.25582
20182.36015
20182.44639
20182.51701
20182.57454
20182.62169
20182.66072
20182.69348
20182.72151
20182.74554
20182.76638
20182.78405
20182.7987
20182.8101
20182.81791
20182.82186
20182.82152
20182.8166
20182.80688
20182.79231
20182.77294
20182.74911
20182.72121
20182.68987
20182.6557
20182.61947
20182.58184
20182.54346
20182.50489
20182.46661
20182.42899
20182.39235
20182.35692
20182.32292
20182.29051
20182.25984
20182.23101
20182.20408
20182.17908
20182.15596
20182.13464
20182.11502
20182.09695
20182.08028
20182.06488
20182.05059
20182.03729
20182.02487
20182.01323
20182.00231
20181.99209
20181.98261
20181.97381
20181.96573
20181.9582
20181.95122
20181.94446
20181.93793
20181.93122
20181.92428
20181.91647
20181.9064
20181.9064
20183.36076
20183.36076
20183.34867
20183.33572
20183.3256
20183.31921
20183.31725
20183.32038
20183.32865
20183.3411
20183.35593
20183.37127
20183.3858
20183.3989
20183.41028
20183.41966
20183.42701
20183.43268
20183.43766
20183.44189
20183.44036
20183.41587
20183.34064
20183.27948
20183.28245
20183.36054
20183.37747
20183.28211
20183.12654
20182.9548
20182.77585
20182.59215
20182.40455
20182.21331
20182.01836
20181.81943
20181.61603
20181.40753
20181.19326
20180.973
20180.74471
20180.62501
20180.55595
20180.54065
20180.58709
20180.58016
20180.44482
20180.28634
20180.213
20180.26341
20180.38445
20180.45472
20180.4786
20180.47464
20180.4501
20180.42369
20180.38537
20180.33237
20180.27065
20180.20655
20180.13858
20180.06406
20179.9782
20179.87316
20179.74267
20179.58877
20179.42126
20179.25206
20179.09912
20178.98514
20178.89431
20178.81834
20178.77859
20178.69413
20178.56953
20178.46013
20178.34565
20178.2563
20178.21415
20178.21386
20178.27908
20178.38381
20178.45488
20178.49093
20178.49218
20178.44921
20178.3537
20178.25707
20178.25099
20178.39259
20178.59141
20178.69741
20178.69576
20178.66302
20178.64698
20178.65135
20178.66225
20178.67266
20178.68354
20178.69468
20178.70445
20178.71328
20178.72096
20178.72713
20178.72527
20178.71173
20178.67834
20178.62435
20178.54894
20178.43446
20178.3088
20178.20791
20178.13359
20178.07471
20178.02755
20177.99761
20177.99375
20178.02365
20178.0919
20178.19985
20178.34622
20178.52778
20178.74007
20178.97796
20179.23599
20179.50867
20179.79057
20180.07638
20180.36095
20180.63937
20180.90707
20181.16
20181.39486
20181.60923
20181.80166
20181.97154
20182.11906
20182.24498
20182.35069
20182.43808
20182.50953
20182.56768
20182.61528
20182.65463
20182.68771
20182.71599
20182.74033
20182.76143
20182.77939
20182.7943
20182.80601
20182.81407
20182.81833
20182.81823
20182.81357
20182.80407
20182.78968
20182.77043
20182.74669
20182.71881
20182.68748
20182.6533
20182.61705
20182.5794
20182.54103
20182.50249
20182.46427
20182.42672
20182.39019
20182.35487
20182.321
20182.28872
20182.25819
20182.22949
20182.2027
20182.17779
20182.15478
20182.13354
20182.114
20182.09599
20182.07939
20182.06403
20182.04982
20182.03658
20182.02425
20182.01268
20182.00189
20181.99178
20181.98247
20181.97381
20181.96596
20181.95859
20181.95191
20181.9454
20181.93935
20181.93304
20181.92678
20181.91941
20181.90937
20181.90937
20183.34298
20183.34298
20183.33508
20183.32553
20183.31768
20183.31286
20183.31188
20183.31529
20183.32311
20183.33465
20183.3486
20183.36355
20183.37837
20183.39238
20183.40511
20183.41607
20183.425
20183.43198
20183.43771
20183.44203
20183.43893
20183.41224
20183.33852
20183.29002
20183.29943
20183.34566
20183.35673
20183.27095
20183.12377
20182.95599
20182.77856
20182.5954
20182.40804
20182.21701
20182.02237
20181.82382
20181.6208
20181.41243
20181.19747
20180.97427
20180.7325
20180.59034
20180.51306
20180.49483
20180.52522
20180.49753
20180.3619
20180.2175
20180.14475
20180.19958
20180.35237
20180.45926
20180.49703
20180.48707
20180.45239
20180.41348
20180.36354
20180.304
20180.23943
20180.17319
20180.10381
20180.02811
20179.94078
20179.83428
20179.70274
20179.54833
20179.38198
20179.21575
20179.06859
20178.9623
20178.88156
20178.81655
20178.77724
20178.6859
20178.56284
20178.4433
20178.31014
20178.19204
20178.12838
20178.1118
20178.17388
20178.30053
20178.42085
20178.48691
20178.49526
20178.4481
20178.34201
20178.23832
20178.21842
20178.33851
20178.52487
20178.63155
20178.63959
20178.62086
20178.61986
20178.6388
20178.66133
20178.67741
20178.68858
20178.69731
20178.70468
20178.71313
20178.72158
20178.72332
20178.71194
20178.68244
20178.63032
20178.55619
20178.46199
20178.34302
20178.21878
20178.11362
20178.03232
20177.97011
20177.92541
20177.90227
20177.90727
20177.94635
20178.02311
20178.1385
20178.2911
20178.47773
20178.69405
20178.93507
20179.19552
20179.47011
20179.75363
20180.04098
20180.32717
20180.6074
20180.87711
20181.13219
20181.36928
20181.58587
20181.78049
20181.95254
20182.10221
20182.23022
20182.33783
20182.42681
20182.49947
20182.55849
20182.60669
20182.64646
20182.67992
20182.70846
20182.73313
20182.75447
20182.77277
20182.78794
20182.80001
20182.80835
20182.81301
20182.81325
20182.80896
20182.79978
20182.78569
20182.76666
20182.74311
20182.71531
20182.68405
20182.64985
20182.61362
20182.57595
20182.5376
20182.49908
20182.46094
20182.42347
20182.38707
20182.35188
20182.31818
20182.28607
20182.25573
20182.22721
20182.2006
20182.17587
20182.15301
20182.1319
20182.11247
20182.09454
20182.07802
20182.06273
20182.04858
20182.0354
20182.02317
20182.01171
20182.00109
20181.99116
20181.9821
20181.97366
20181.96612
20181.95906
20181.95282
20181.94677
20181.94139
20181.93587
20181.93073
20181.92477
20181.91711
20181.91711
20183.32727
20183.32727
20183.32198
20183.31504
20183.30914
20183.30568
20183.3055
20183.30908
20183.31644
20183.32707
20183.34002
20183.35422
20183.36879
20183.38312
20183.39673
20183.40912
20183.41986
20183.4287
20183.43563
20183.43972
20183.43519
20183.41029
20183.34856
20183.31288
20183.32837
20183.36582
20183.3677
20183.27415
20183.12706
20182.95998
20182.78285
20182.59975
20182.41245
20182.22163
20182.02736
20181.82935
20181.62691
20181.41894
20181.20364
20180.97817
20180.72391
20180.56016
20180.47808
20180.4582
20180.47611
20180.43439
20180.30101
20180.1679
20180.09614
20180.15209
20180.32282
20180.45598
20180.50635
20180.49165
20180.44502
20180.39033
20180.32927
20180.26398
20180.1961
20180.12726
20180.05597
20179.97882
20179.89049
20179.78382
20179.65336
20179.50106
20179.33858
20179.17843
20179.03965
20178.94195
20178.87171
20178.81568
20178.771
20178.67733
20178.55569
20178.41802
20178.2571
20178.11254
20178.0299
20177.99576
20178.05924
20178.20162
20178.36613
20178.46987
20178.49232
20178.44978
20178.35138
20178.25365
20178.2232
20178.31218
20178.46748
20178.55905
20178.57231
20178.57097
20178.58962
20178.62517
20178.65971
20178.682
20178.69401
20178.70029
20178.70553
20178.7119
20178.71454
20178.70479
20178.67625
20178.62628
20178.55456
20178.46358
20178.35667
20178.23512
20178.11291
20178.00673
20177.92244
20177.85926
20177.81742
20177.8004
20177.81331
20177.86078
20177.94558
20178.0682
20178.22703
20178.41884
20178.63933
20178.88362
20179.14659
20179.42316
20179.70836
20179.99735
20180.28534
20180.56765
20180.83973
20181.09744
20181.33724
20181.55655
20181.75382
20181.92851
20182.08082
20182.21146
20182.32156
20182.4127
20182.48703
20182.54726
20182.59625
20182.63656
20182.67041
20182.69921
20182.72419
20182.74571
20182.76431
20182.7797
20182.79212
20182.80078
20182.80587
20182.80654
20182.80271
20182.794
20182.78032
20182.76164
20182.73838
20182.71076
20182.67964
20182.64549
20182.6093
20182.57163
20182.53333
20182.49485
20182.45679
20182.41943
20182.38317
20182.34813
20182.31462
20182.2827
20182.25258
20182.22427
20182.19789
20182.17336
20182.1507
20182.12977
20182.11049
20182.09268
20182.07627
20182.06105
20182.04698
20182.03387
20182.02174
20182.01039
20181.99996
20181.99024
20181.98144
20181.97332
20181.96614
20181.95952
20181.95378
20181.94841
20181.94384
20181.93946
20181.9358
20181.93215
20181.92878
20181.92878
20183.31294
20183.31294
20183.30935
20183.30439
20183.30011
20183.29782
20183.29831
20183.30203
20183.309
20183.31883
20183.33083
20183.34417
20183.35817
20183.37232
20183.38621
20183.39944
20183.41156
20183.42211
20183.4304
20183.43463
20183.42944
20183.40854
20183.36477
20183.34298
20183.36223
20183.39998
20183.39525
20183.28857
20183.13616
20182.96692
20182.78878
20182.60519
20182.41776
20182.22711
20182.03331
20181.83599
20181.63439
20181.42724
20181.21227
20180.9861
20180.72281
20180.54084
20180.45489
20180.434
20180.4431
20180.3936
20180.26513
20180.14203
20180.07274
20180.12594
20180.29838
20180.43961
20180.49714
20180.47881
20180.42117
20180.35325
20180.28338
20180.21222
20180.14011
20180.06792
20179.99408
20179.91536
20179.82659
20179.72127
20179.59445
20179.44739
20179.29191
20179.14097
20179.01268
20178.92423
20178.86261
20178.81102
20178.75859
20178.66296
20178.53658
20178.3805
20178.18616
20178.02278
20177.91787
20177.86555
20177.94288
20178.10308
20178.30202
20178.44758
20178.49265
20178.46247
20178.38517
20178.30027
20178.26061
20178.31148
20178.41973
20178.48261
20178.49724
20178.51618
20178.55814
20178.61126
20178.65718
20178.68561
20178.69897
20178.70316
20178.70464
20178.70403
20178.69399
20178.66658
20178.61824
20178.54914
20178.46128
20178.35793
20178.24284
20178.11967
20177.99893
20177.89274
20177.80722
20177.7441
20177.70502
20177.69329
20177.71312
20177.76816
20177.86045
20177.99
20178.15498
20178.35201
20178.57676
20178.82439
20179.08991
20179.36845
20179.65529
20179.9459
20180.23575
20180.52032
20180.79512
20181.05588
20181.29891
20181.52142
20181.72176
20181.89942
20182.05472
20182.18843
20182.30159
20182.39555
20182.47219
20182.53411
20182.58422
20182.62525
20182.65956
20182.68863
20182.71383
20182.73546
20182.75425
20182.76978
20182.78245
20182.79142
20182.79692
20182.7981
20182.79478
20182.78668
20182.77353
20182.75535
20182.73249
20182.70516
20182.67427
20182.64024
20182.60414
20182.56653
20182.52828
20182.48987
20182.45192
20182.41468
20182.3786
20182.34375
20182.31045
20182.27875
20182.24886
20182.22078
20182.19464
20182.17035
20182.14792
20182.1272
20182.1081
20182.09046
20182.07416
20182.05906
20182.04507
20182.03205
20182.02001
20182.00881
20181.99854
20181.98907
20181.98053
20181.97278
20181.96597
20181.95986
20181.95468
20181.95009
20181.94642
20181.94338
20181.9414
20181.94046
20181.94183
20181.94183
20183.29954
20183.29954
20183.29711
20183.29363
20183.29068
20183.28937
20183.29044
20183.29428
20183.30094
20183.31013
20183.32129
20183.33382
20183.34714
20183.36085
20183.3746
20183.38809
20183.40094
20183.41263
20183.4221
20183.42719
20183.42239
20183.40732
20183.38127
20183.37325
20183.39704
20183.43797
20183.42967
20183.31071
20183.15004
20182.97647
20182.79621
20182.61162
20182.42387
20182.23341
20182.04017
20181.84373
20181.64329
20181.43744
20181.22367
20180.99887
20180.731
20180.53489
20180.44494
20180.4233
20180.42729
20180.37568
20180.25508
20180.14266
20180.0775
20180.12326
20180.28087
20180.41174
20180.46826
20180.44615
20180.38018
20180.30331
20180.22624
20180.14835
20180.07112
20179.99466
20179.91766
20179.83718
20179.74857
20179.64599
20179.52519
20179.3866
20179.24127
20179.1022
20178.98579
20178.90644
20178.85108
20178.80033
20178.74031
20178.64233
20178.50842
20178.3339
20178.11052