# vtk DataFile Version 2.0
FlowField
ASCII
DATASET STRUCTURED_GRID
DIMENSIONS 200 1 200
POINTS 40000 float
0 0 0
0.15 0 0
0.3 0 0
0.45 0 0
0.6 0 0
0.75 0 0
0.9 0 0
1.05 0 0
1.2 0 0
1.35 0 0
1.5 0 0
1.65 0 0
1.8 0 0
1.95 0 0
2.1 0 0
2.25 0 0
2.4 0 0
2.55 0 0
2.7 0 0
2.85 0 0
3 0 0
3.15 0 0
3.3 0 0
3.45 0 0
3.6 0 0
3.75 0 0
3.9 0 0
4.05 0 0
4.2 0 0
4.35 0 0
4.5 0 0
4.65 0 0
4.8 0 0
4.95 0 0
5.1 0 0
5.25 0 0
5.4 0 0
5.55 0 0
5.7 0 0
5.85 0 0
6 0 0
6.15 0 0
6.3 0 0
6.45 0 0
6.6 0 0
6.75 0 0
6.9 0 0
7.05 0 0
7.2 0 0
7.35 0 0
7.5 0 0
7.65 0 0
7.8 0 0
7.95 0 0
8.1 0 0
8.25 0 0
8.4 0 0
8.55 0 0
8.7 0 0
8.85 0 0
9 0 0
9.15 0 0
9.3 0 0
9.45 0 0
9.6 0 0
9.75 0 0
9.9 0 0
10.05 0 0
10.2 0 0
10.35 0 0
10.5 0 0
10.65 0 0
10.8 0 0
10.95 0 0
11.1 0 0
11.25 0 0
11.4 0 0
11.55 0 0
11.7 0 0
11.85 0 0
12 0 0
12.15 0 0
12.3 0 0
12.45 0 0
12.6 0 0
12.75 0 0
12.9 0 0
13.05 0 0
13.2 0 0
13.35 0 0
13.5 0 0
13.65 0 0
13.8 0 0
13.95 0 0
14.1 0 0
14.25 0 0
14.4 0 0
14.55 0 0
14.7 0 0
14.85 0 0
15 0 0
15.15 0 0
15.3 0 0
15.45 0 0
15.6 0 0
15.75 0 0
15.9 0 0
16.05 0 0
16.2 0 0
16.35 0 0
16.5 0 0
16.65 0 0
16.8 0 0
16.95 0 0
17.1 0 0
17.25 0 0
17.4 0 0
17.55 0 0
17.7 0 0
17.85 0 0
18 0 0
18.15 0 0
18.3 0 0
18.45 0 0
18.6 0 0
18.75 0 0
18.9 0 0
19.05 0 0
19.2 0 0
19.35 0 0
19.5 0 0
19.65 0 0
19.8 0 0
19.95 0 0
20.1 0 0
20.25 0 0
20.4 0 0
20.55 0 0
20.7 0 0
20.85 0 0
21 0 0
21.15 0 0
21.3 0 0
21.45 0 0
21.6 0 0
21.75 0 0
21.9 0 0
22.05 0 0
22.2 0 0
22.35 0 0
22.5 0 0
22.65 0 0
22.8 0 0
22.95 0 0
23.1 0 0
23.25 0 0
23.4 0 0
23.55 0 0
23.7 0 0
23.85 0 0
24 0 0
24.15 0 0
24.3 0 0
24.45 0 0
24.6 0 0
24.75 0 0
24.9 0 0
25.05 0 0
25.2 0 0
25.35 0 0
25.5 0 0
25.65 0 0
25.8 0 0
25.95 0 0
26.1 0 0
26.25 0 0
26.4 0 0
26.55 0 0
26.7 0 0
26.85 0 0
27 0 0
27.15 0 0
27.3 0 0
27.45 0 0
27.6 0 0
27.75 0 0
27.9 0 0
28.05 0 0
28.2 0 0
28.35 0 0
28.5 0 0
28.65 0 0
28.8 0 0
28.95 0 0
29.1 0 0
29.25 0 0
29.4 0 0
29.55 0 0
29.7 0 0
29.85 0 0
0 0.075 0
0.15 0.075 0
0.3 0.075 0
0.45 0.075 0
0.6 0.075 0
0.75 0.075 0
0.9 0.075 0
1.05 0.075 0
1.2 0.075 0
1.35 0.075 0
1.5 0.075 0
1.65 0.075 0
1.8 0.075 0
1.95 0.075 0
2.1 0.075 0
2.25 0.075 0
2.4 0.075 0
2.55 0.075 0
2.7 0.075 0
2.85 0.075 0
3 0.075 0
3.15 0.075 0
3.3 0.075 0
3.45 0.075 0
3.6 0.075 0
3.75 0.075 0
3.9 0.075 0
4.05 0.075 0
4.2 0.075 0
4.35 0.075 0
4.5 0.075 0
4.65 0.075 0
4.8 0.075 0
4.95 0.075 0
5.1 0.075 0
5.25 0.075 0
5.4 0.075 0
5.55 0.075 0
5.7 0.075 0
5.85 0.075 0
6 0.075 0
6.15 0.075 0
6.3 0.075 0
6.45 0.075 0
6.6 0.075 0
6.75 0.075 0
6.9 0.075 0
7.05 0.075 0
7.2 0.075 0
7.35 0.075 0
7.5 0.075 0
7.65 0.075 0
7.8 0.075 0
7.95 0.075 0
8.1 0.075 0
8.25 0.075 0
8.4 0.075 0
8.55 0.075 0
8.7 0.075 0
8.85 0.075 0
9 0.075 0
9.15 0.075 0
9.3 0.075 0
9.45 0.075 0
9.6 0.075 0
9.75 0.075 0
9.9 0.075 0
10.05 0.075 0
10.2 0.075 0
10.35 0.075 0
10.5 0.075 0
10.65 0.075 0
10.8 0.075 0
10.95 0.075 0
11.1 0.075 0
11.25 0.075 0
11.4 0.075 0
11.55 0.075 0
11.7 0.075 0
11.85 0.075 0
12 0.075 0
12.15 0.075 0
12.3 0.075 0
12.45 0.075 0
12.6 0.075 0
12.75 0.075 0
12.9 0.075 0
13.05 0.075 0
13.2 0.075 0
13.35 0.075 0
13.5 0.075 0
13.65 0.075 0
13.8 0.075 0
13.95 0.075 0
14.1 0.075 0
14.25 0.075 0
14.4 0.075 0
14.55 0.075 0
14.7 0.075 0
14.85 0.075 0
15 0.075 0
15.15 0.075 0
15.3 0.075 0
15.45 0.075 0
15.6 0.075 0
15.75 0.075 0
15.9 0.075 0
16.05 0.075 0
16.2 0.075 0
16.35 0.075 0
16.5 0.075 0
16.65 0.075 0
16.8 0.075 0
16.95 0.075 0
17.1 0.075 0
17.25 0.075 0
17.4 0.075 0
17.55 0.075 0
17.7 0.075 0
17.85 0.075 0
18 0.075 0
18.15 0.075 0
18.3 0.075 0
18.45 0.075 0
18.6 0.075 0
18.75 0.075 0
18.9 0.075 0
19.05 0.075 0
19.2 0.075 0
19.35 0.075 0
19.5 0.075 0
19.65 0.075 0
19.8 0.075 0
19.95 0.075 0
20.1 0.075 0
20.25 0.075 0
20.4 0.075 0
20.55 0.075 0
20.7 0.075 0
20.85 0.075 0
21 0.075 0
21.15 0.075 0
21.3 0.075 0
21.45 0.075 0
21.6 0.075 0
21.75 0.075 0
21.9 0.075 0
22.05 0.075 0
22.2 0.075 0
22.35 0.075 0
22.5 0.075 0
22.65 0.075 0
22.8 0.075 0
22.95 0.075 0
23.1 0.075 0
23.25 0.075 0
23.4 0.075 0
23.55 0.075 0
23.7 0.075 0
23.85 0.075 0
24 0.075 0
24.15 0.075 0
24.3 0.075 0
24.45 0.075 0
24.6 0.075 0
24.75 0.075 0
24.9 0.075 0
25.05 0.075 0
25.2 0.075 0
25.35 0.075 0
25.5 0.075 0
25.65 0.075 0
25.8 0.075 0
25.95 0.075 0
26.1 0.075 0
26.25 0.075 0
26.4 0.075 0
26.55 0.075 0
26.7 0.075 0
26.85 0.075 0
27 0.075 0
27.15 0.075 0
27.3 0.075 0
27.45 0.075 0
27.6 0.075 0
27.75 0.075 0
27.9 0.075 0
28.05 0.075 0
28.2 0.075 0
28.35 0.075 0
28.5 0.075 0
28.65 0.075 0
28.8 0.075 0
28.95 0.075 0
29.1 0.075 0
29.25 0.075 0
29.4 0.075 0
29.55 0.075 0
29.7 0.075 0
29.85 0.075 0
0 0.15 0
0.15 0.15 0
0.3 0.15 0
0.45 0.15 0
0.6 0.15 0
0.75 0.15 0
0.9 0.15 0
1.05 0.15 0
1.2 0.15 0
1.35 0.15 0
1.5 0.15 0
1.65 0.15 0
1.8 0.15 0
1.95 0.15 0
2.1 0.15 0
2.25 0.15 0
2.4 0.15 0
2.55 0.15 0
2.7 0.15 0
2.85 0.15 0
3 0.15 0
3.15 0.15 0
3.3 0.15 0
3.45 0.15 0
3.6 0.15 0
3.75 0.15 0
3.9 0.15 0
4.05 0.15 0
4.2 0.15 0
4.35 0.15 0
4.5 0.15 0
4.65 0.15 0
4.8 0.15 0
4.95 0.15 0
5.1 0.15 0
5.25 0.15 0
5.4 0.15 0
5.55 0.15 0
5.7 0.15 0
5.85 0.15 0
6 0.15 0
6.15 0.15 0
6.3 0.15 0
6.45 0.15 0
6.6 0.15 0
6.75 0.15 0
6.9 0.15 0
7.05 0.15 0
7.2 0.15 0
7.35 0.15 0
7.5 0.15 0
7.65 0.15 0
7.8 0.15 0
7.95 0.15 0
8.1 0.15 0
8.25 0.15 0
8.4 0.15 0
8.55 0.15 0
8.7 0.15 0
8.85 0.15 0
9 0.15 0
9.15 0.15 0
9.3 0.15 0
9.45 0.15 0
9.6 0.15 0
9.75 0.15 0
9.9 0.15 0
10.05 0.15 0
10.2 0.15 0
10.35 0.15 0
10.5 0.15 0
10.65 0.15 0
10.8 0.15 0
10.95 0.15 0
11.1 0.15 0
11.25 0.15 0
11.4 0.15 0
11.55 0.15 0
11.7 0.15 0
11.85 0.15 0
12 0.15 0
12.15 0.15 0
12.3 0.15 0
12.45 0.15 0
12.6 0.15 0
12.75 0.15 0
12.9 0.15 0
13.05 0.15 0
13.2 0.15 0
13.35 0.15 0
13.5 0.15 0
13.65 0.15 0
13.8 0.15 0
13.95 0.15 0
14.1 0.15 0
14.25 0.15 0
14.4 0.15 0
14.55 0.15 0
14.7 0.15 0
14.85 0.15 0
15 0.15 0
15.15 0.15 0
15.3 0.15 0
15.45 0.15 0
15.6 0.15 0
15.75 0.15 0
15.9 0.15 0
16.05 0.15 0
16.2 0.15 0
16.35 0.15 0
16.5 0.15 0
16.65 0.15 0
16.8 0.15 0
16.95 0.15 0
17.1 0.15 0
17.25 0.15 0
17.4 0.15 0
17.55 0.15 0
17.7 0.15 0
17.85 0.15 0
18 0.15 0
18.15 0.15 0
18.3 0.15 0
18.45 0.15 0
18.6 0.15 0
18.75 0.15 0
18.9 0.15 0
19.05 0.15 0
19.2 0.15 0
19.35 0.15 0
19.5 0.15 0
19.65 0.15 0
19.8 0.15 0
19.95 0.15 0
20.1 0.15 0
20.25 0.15 0
20.4 0.15 0
20.55 0.15 0
20.7 0.15 0
20.85 0.15 0
21 0.15 0
21.15 0.15 0
21.3 0.15 0
21.45 0.15 0
21.6 0.15 0
21.75 0.15 0
21.9 0.15 0
22.05 0.15 0
22.2 0.15 0
22.35 0.15 0
22.5 0.15 0
22.65 0.15 0
22.8 0.15 0
22.95 0.15 0
23.1 0.15 0
23.25 0.15 0
23.4 0.15 0
23.55 0.15 0
23.7 0.15 0
23.85 0.15 0
24 0.15 0
24.15 0.15 0
24.3 0.15 0
24.45 0.15 0
24.6 0.15 0
24.75 0.15 0
24.9 0.15 0
25.05 0.15 0
25.2 0.15 0
25.35 0.15 0
25.5 0.15 0
25.65 0.15 0
25.8 0.15 0
25.95 0.15 0
26.1 0.15 0
26.25 0.15 0
26.4 0.15 0
26.55 0.15 0
26.7 0.15 0
26.85 0.15 0
27 0.15 0
27.15 0.15 0
27.3 0.15 0
27.45 0.15 0
27.6 0.15 0
27.75 0.15 0
27.9 0.15 0
28.05 0.15 0
28.2 0.15 0
28.35 0.15 0
28.5 0.15 0
28.65 0.15 0
28.8 0.15 0
28.95 0.15 0
29.1 0.15 0
29.25 0.15 0
29.4 0.15 0
29.55 0.15 0
29.7 0.15 0
29.85 0.15 0
0 0.225 0
0.15 0.225 0
0.3 0.225 0
0.45 0.225 0
0.6 0.225 0
0.75 0.225 0
0.9 0.225 0
1.05 0.225 0
1.2 0.225 0
1.35 0.225 0
1.5 0.225 0
1.65 0.225 0
1.8 0.225 0
1.95 0.225 0
2.1 0.225 0
2.25 0.225 0
2.4 0.225 0
2.55 0.225 0
2.7 0.225 0
2.85 0.225 0
3 0.225 0
3.15 0.225 0
3.3 0.225 0
3.45 0.225 0
3.6 0.225 0
3.75 0.225 0
3.9 0.225 0
4.05 0.225 0
4.2 0.225 0
4.35 0.225 0
4.5 0.225 0
4.65 0.225 0
4.8 0.225 0
4.95 0.225 0
5.1 0.225 0
5.25 0.225 0
5.4 0.225 0
5.55 0.225 0
5.7 0.225 0
5.85 0.225 0
6 0.225 0
6.15 0.225 0
6.3 0.225 0
6.45 0.225 0
6.6 0.225 0
6.75 0.225 0
6.9 0.225 0
7.05 0.225 0
7.2 0.225 0
7.35 0.225 0
7.5 0.225 0
7.65 0.225 0
7.8 0.225 0
7.95 0.225 0
8.1 0.225 0
8.25 0.225 0
8.4 0.225 0
8.55 0.225 0
8.7 0.225 0
8.85 0.225 0
9 0.225 0
9.15 0.225 0
9.3 0.225 0
9.45 0.225 0
9.6 0.225 0
9.75 0.225 0
9.9 0.225 0
10.05 0.225 0
10.2 0.225 0
10.35 0.225 0
10.5 0.225 0
10.65 0.225 0
10.8 0.225 0
10.95 0.225 0
11.1 0.225 0
11.25 0.225 0
11.4 0.225 0
11.55 0.225 0
11.7 0.225 0
11.85 0.225 0
12 0.225 0
12.15 0.225 0
12.3 0.225 0
12.45 0.225 0
12.6 0.225 0
12.75 0.225 0
12.9 0.225 0
13.05 0.225 0
13.2 0.225 0
13.35 0.225 0
13.5 0.225 0
13.65 0.225 0
13.8 0.225 0
13.95 0.225 0
14.1 0.225 0
14.25 0.225 0
14.4 0.225 0
14.55 0.225 0
14.7 0.225 0
14.85 0.225 0
15 0.225 0
15.15 0.225 0
15.3 0.225 0
15.45 0.225 0
15.6 0.225 0
15.75 0.225 0
15.9 0.225 0
16.05 0.225 0
16.2 0.225 0
16.35 0.225 0
16.5 0.225 0
16.65 0.225 0
16.8 0.225 0
16.95 0.225 0
17.1 0.225 0
17.25 0.225 0
17.4 0.225 0
17.55 0.225 0
17.7 0.225 0
17.85 0.225 0
18 0.225 0
18.15 0.225 0
18.3 0.225 0
18.45 0.225 0
18.6 0.225 0
18.75 0.225 0
18.9 0.225 0
19.05 0.225 0
19.2 0.225 0
19.35 0.225 0
19.5 0.225 0
19.65 0.225 0
19.8 0.225 0
19.95 0.225 0
20.1 0.225 0
20.25 0.225 0
20.4 0.225 0
20.55 0.225 0
20.7 0.225 0
20.85 0.225 0
21 0.225 0
21.15 0.225 0
21.3 0.225 0
21.45 0.225 0
21.6 0.225 0
21.75 0.225 0
21.9 0.225 0
22.05 0.225 0
22.2 0.225 0
22.35 0.225 0
22.5 0.225 0
22.65 0.225 0
22.8 0.225 0
22.95 0.225 0
23.1 0.225 0
23.25 0.225 0
23.4 0.225 0
23.55 0.225 0
23.7 0.225 0
23.85 0.225 0
24 0.225 0
24.15 0.225 0
24.3 0.225 0
24.45 0.225 0
24.6 0.225 0
24.75 0.225 0
24.9 0.225 0
25.05 0.225 0
25.2 0.225 0
25.35 0.225 0
25.5 0.225 0
25.65 0.225 0
25.8 0.225 0
25.95 0.225 0
26.1 0.225 0
26.25 0.225 0
26.4 0.225 0
26.55 0.225 0
26.7 0.225 0
26.85 0.225 0
27 0.225 0
27.15 0.225 0
27.3 0.225 0
27.45 0.225 0
27.6 0.225 0
27.75 0.225 0
27.9 0.225 0
28.05 0.225 0
28.2 0.225 0
28.35 0.225 0
28.5 0.225 0
28.65 0.225 0
28.8 0.225 0
28.95 0.225 0
29.1 0.225 0
29.25 0.225 0
29.4 0.225 0
29.55 0.225 0
29.7 0.225 0
29.85 0.225 0
0 0.3 0
0.15 0.3 0
0.3 0.3 0
0.45 0.3 0
0.6 0.3 0
0.75 0.3 0
0.9 0.3 0
1.05 0.3 0
1.2 0.3 0
1.35 0.3 0
1.5 0.3 0
1.65 0.3 0
1.8 0.3 0
1.95 0.3 0
2.1 0.3 0
2.25 0.3 0
2.4 0.3 0
2.55 0.3 0
2.7 0.3 0
2.85 0.3 0
3 0.3 0
3.15 0.3 0
3.3 0.3 0
3.45 0.3 0
3.6 0.3 0
3.75 0.3 0
3.9 0.3 0
4.05 0.3 0
4.2 0.3 0
4.35 0.3 0
4.5 0.3 0
4.65 0.3 0
4.8 0.3 0
4.95 0.3 0
5.1 0.3 0
5.25 0.3 0
5.4 0.3 0
5.55 0.3 0
5.7 0.3 0
5.85 0.3 0
6 0.3 0
6.15 0.3 0
[...]
POINT_DATA 40000

SCALARS p float 1
LOOKUP_TABLE default
20182.64412
20182.64412
20182.58845
20182.56027
20182.54145
20182.52825
20182.52095
20182.52076
20182.52772
20182.54003
20182.55509
20182.57069
20182.58562
20182.59945
20182.6121
20182.62345
20182.63317
20182.64093
20182.64664
20182.65053
20182.65258
20182.65275
20182.65196
20182.64209
20182.66379
20182.94845
20182.85381
20182.53854
20182.2984
20182.07221
20181.84556
20181.61482
20181.37898
20181.13755
20180.88994
20180.63529
20180.37243
20180.09991
20179.81632
20179.52142
20179.21954
20179.06209
20179.09669
20179.19327
20179.12402
20178.9116
20178.70931
20178.63923
20178.61364
20178.60302
20178.60252
20178.58145
20178.54196
20178.4871
20178.39904
20178.29241
20178.18855
20178.07856
20177.9604
20177.84883
20177.76199
20177.71395
20177.71309
20177.76224
20177.8593
20177.99867
20178.17271
20178.37261
20178.5892
20178.81438
20179.04146
20179.26481
20179.4803
20179.68506
20179.87694
20180.05461
20180.21722
20180.36435
20180.49595
20180.61228
20180.71388
20180.80153
20180.8762
20180.93897
20180.991
20181.03347
20181.06754
20181.09433
20181.11487
20181.13011
20181.14091
20181.14802
20181.15211
20181.15377
20181.15347
20181.15165
20181.14865
20181.14476
20181.14023
20181.13526
20181.12999
20181.12456
20181.11907
20181.11359
20181.10818
20181.10289
20181.09776
20181.09279
20181.08801
20181.08342
20181.07904
20181.07485
20181.07086
20181.06707
20181.06346
20181.06003
20181.05677
20181.05367
20181.05074
20181.04795
20181.0453
20181.04278
20181.04039
20181.03811
20181.03595
20181.03389
20181.03193
20181.03005
20181.02827
20181.02656
20181.02494
20181.02338
20181.02189
20181.02046
20181.01909
20181.01778
20181.01652
20181.01531
20181.01414
20181.01302
20181.01194
20181.01089
20181.00989
20181.00891
20181.00797
20181.00706
20181.00618
20181.00533
20181.0045
20181.0037
20181.00292
20181.00216
20181.00142
20181.0007
20181
20180.99932
20180.99866
20180.99801
20180.99738
20180.99676
20180.99615
20180.99556
20180.99499
20180.99442
20180.99387
20180.99333
20180.9928
20180.99228
20180.99177
20180.99127
20180.99078
20180.9903
20180.98983
20180.98937
20180.98891
20180.98847
20180.98803
20180.9876
20180.98718
20180.98677
20180.98636
20180.98597
20180.98558
20180.98519
20180.98482
20180.98445
20180.98409
20180.98373
20180.98339
20180.98305
20180.98272
20180.98239
20180.98207
20180.98176
20180.98146
20180.98116
20180.98087
20180.98058
20180.98031
20180.98031
20182.64412
20182.64412
20182.58845
20182.56027
20182.54145
20182.52825
20182.52095
20182.52076
20182.52772
20182.54003
20182.55509
20182.57069
20182.58562
20182.59945
20182.6121
20182.62345
20182.63317
20182.64093
20182.64664
20182.65053
20182.65258
20182.65275
20182.65196
20182.64209
20182.66379
20182.94845
20182.85381
20182.53854
20182.2984
20182.07221
20181.84556
20181.61482
20181.37898
20181.13755
20180.88994
20180.63529
20180.37243
20180.09991
20179.81632
20179.52142
20179.21954
20179.06209
20179.09669
20179.19327
20179.12402
20178.9116
20178.70931
20178.63923
20178.61364
20178.60302
20178.60252
20178.58145
20178.54196
20178.4871
20178.39904
20178.29241
20178.18855
20178.07856
20177.9604
20177.84883
20177.76199
20177.71395
20177.71309
20177.76224
20177.8593
20177.99867
20178.17271
20178.37261
20178.5892
20178.81438
20179.04146
20179.26481
20179.4803
20179.68506
20179.87694
20180.05461
20180.21722
20180.36435
20180.49595
20180.61228
20180.71388
20180.80153
20180.8762
20180.93897
20180.991
20181.03347
20181.06754
20181.09433
20181.11487
20181.13011
20181.14091
20181.14802
20181.15211
20181.15377
20181.15347
20181.15165
20181.14865
20181.14476
20181.14023
20181.13526
20181.12999
20181.12456
20181.11907
20181.11359
20181.10818
20181.10289
20181.09776
20181.09279
20181.08801
20181.08342
20181.07904
20181.07485
20181.07086
20181.06707
20181.06346
20181.06003
20181.05677
20181.05367
20181.05074
20181.04795
20181.0453
20181.04278
20181.04039
20181.03811
20181.03595
20181.03389
20181.03193
20181.03005
20181.02827
20181.02656
20181.02494
20181.02338
20181.02189
20181.02046
20181.01909
20181.01778
20181.01652
20181.01531
20181.01414
20181.01302
20181.01194
20181.01089
20181.00989
20181.00891
20181.00797
20181.00706
20181.00618
20181.00533
20181.0045
20181.0037
20181.00292
20181.00216
20181.00142
20181.0007
20181
20180.99932
20180.99866
20180.99801
20180.99738
20180.99676
20180.99615
20180.99556
20180.99499
20180.99442
20180.99387
20180.99333
20180.9928
20180.99228
20180.99177
20180.99127
20180.99078
20180.9903
20180.98983
20180.98937
20180.98891
20180.98847
20180.98803
20180.9876
20180.98718
20180.98677
20180.98636
20180.98597
20180.98558
20180.98519
20180.98482
20180.98445
20180.98409
20180.98373
20180.98339
20180.98305
20180.98272
20180.98239
20180.98207
20180.98176
20180.98146
20180.98116
20180.98087
20180.98058
20180.98031
20180.98031
20182.61161
20182.61161
20182.57951
20182.55598
20182.53921
20182.52757
20182.52145
20182.52191
20182.529
20182.54119
20182.55606
20182.57155
20182.58643
20182.60025
20182.6129
20182.62425
20182.63397
20182.6417
20182.64733
20182.65117
20182.65344
20182.65393
20182.64975
20182.6231
20182.59628
20182.79168
20182.75684
20182.52036
20182.29509
20182.07234
20181.84656
20181.61607
20181.38035
20181.13906
20180.89166
20180.6373
20180.37479
20180.10261
20179.81908
20179.52312
20179.21597
20179.06998
20179.06428
20179.13375
20179.07256
20178.8572
20178.66136
20178.61026
20178.61078
20178.60826
20178.60563
20178.58253
20178.5428
20178.49105
20178.4065
20178.29616
20178.1828
20178.06453
20177.94194
20177.82897
20177.74241
20177.69549
20177.69611
20177.74693
20177.84574
20177.98689
20178.16266
20178.36413
20178.5821
20178.80847
20179.0365
20179.26058
20179.47668
20179.6819
20179.87419
20180.05224
20180.2152
20180.36268
20180.4946
20180.61122
20180.71308
20180.80096
20180.87582
20180.93873
20180.99087
20181.03342
20181.06754
20181.09436
20181.11491
20181.13015
20181.14095
20181.14805
20181.15213
20181.15377
20181.15346
20181.15163
20181.14861
20181.14472
20181.14018
20181.1352
20181.12993
20181.12449
20181.119
20181.11352
20181.10811
20181.10283
20181.09769
20181.09273
20181.08795
20181.08337
20181.07898
20181.0748
20181.07081
20181.06702
20181.06341
20181.05998
20181.05673
20181.05363
20181.0507
20181.04791
20181.04526
20181.04275
20181.04036
20181.03808
20181.03592
20181.03386
20181.0319
20181.03003
20181.02825
20181.02654
20181.02492
20181.02336
20181.02187
20181.02044
20181.01908
20181.01776
20181.0165
20181.01529
20181.01413
20181.013
20181.01192
20181.01088
20181.00987
20181.0089
20181.00796
20181.00705
20181.00617
20181.00532
20181.00449
20181.00369
20181.00291
20181.00215
20181.00141
20181.00069
20180.99999
20180.99931
20180.99865
20180.998
20180.99737
20180.99675
20180.99615
20180.99556
20180.99498
20180.99442
20180.99386
20180.99332
20180.99279
20180.99227
20180.99176
20180.99126
20180.99078
20180.9903
20180.98982
20180.98936
20180.98891
20180.98846
20180.98803
20180.9876
20180.98718
20180.98677
20180.98636
20180.98596
20180.98557
20180.98519
20180.98481
20180.98445
20180.98408
20180.98373
20180.98338
20180.98304
20180.98271
20180.98239
20180.98207
20180.98176
20180.98145
20180.98115
20180.98087
20180.98057
20180.98032
20180.98032
20182.58609
20182.58609
20182.56649
20182.54832
20182.53442
20182.52489
20182.52028
20182.52142
20182.5284
20182.5401
20182.55459
20182.57005
20182.58524
20182.59954
20182.61269
20182.62442
20182.6344
20182.64228
20182.64792
20182.65177
20182.65431
20182.65476
20182.64585
20182.60711
20182.55841
20182.66348
20182.66671
20182.4995
20182.29145
20182.07331
20181.84877
20181.61863
20181.38312
20181.1421
20180.89512
20180.64135
20180.37958
20180.10815
20179.82492
20179.52726
20179.20784
20179.04319
20179.01196
20179.05841
20178.99605
20178.7776
20178.58866
20178.5635
20178.60547
20178.62142
20178.61612
20178.58744
20178.54483
20178.48659
20178.39568
20178.27738
20178.15121
20178.02215
20177.89483
20177.78178
20177.69758
20177.65412
20177.65868
20177.71361
20177.81663
20177.96197
20178.14171
20178.34674
20178.56782
20178.79682
20179.02689
20179.25257
20179.46993
20179.67614
20179.86928
20180.04808
20180.21175
20180.35989
20180.49242
20180.6096
20180.71195
20180.80023
20180.8754
20180.93856
20180.99087
20181.03353
20181.06772
20181.09456
20181.11511
20181.13033
20181.14109
20181.14815
20181.15219
20181.15379
20181.15344
20181.15157
20181.14853
20181.14462
20181.14006
20181.13506
20181.12978
20181.12435
20181.11885
20181.11337
20181.10797
20181.10268
20181.09755
20181.09259
20181.08782
20181.08324
20181.07886
20181.07469
20181.0707
20181.06692
20181.06331
20181.05989
20181.05664
20181.05355
20181.05062
20181.04784
20181.0452
20181.04268
20181.0403
20181.03803
20181.03587
20181.03381
20181.03185
20181.02998
20181.0282
20181.0265
20181.02488
20181.02332
20181.02183
20181.02041
20181.01904
20181.01773
20181.01647
20181.01526
20181.0141
20181.01298
20181.0119
20181.01086
20181.00985
20181.00888
20181.00794
20181.00703
20181.00615
20181.0053
20181.00447
20181.00367
20181.00289
20181.00213
20181.0014
20181.00068
20180.99998
20180.9993
20180.99864
20180.99799
20180.99736
20180.99674
20180.99614
20180.99555
20180.99497
20180.99441
20180.99385
20180.99331
20180.99278
20180.99226
20180.99175
20180.99126
20180.99077
20180.99029
20180.98982
20180.98935
20180.9889
20180.98846
20180.98802
20180.98759
20180.98717
20180.98676
20180.98635
20180.98596
20180.98557
20180.98518
20180.98481
20180.98444
20180.98408
20180.98372
20180.98338
20180.98304
20180.98271
20180.98238
20180.98206
20180.98175
20180.98145
20180.98115
20180.98086
20180.98057
20180.98032
20180.98032
20182.56563
20182.56563
20182.55313
20182.5394
20182.52821
20182.52061
20182.51731
20182.51898
20182.52569
20182.53665
20182.55043
20182.56556
20182.5809
20182.59575
20182.60966
20182.62223
20182.633
20182.64151
20182.64755
20182.65157
20182.65408
20182.65395
20182.64242
20182.60879
20182.57047
20182.62699
20182.62985
20182.48875
20182.29091
20182.07605
20181.85241
20181.62254
20181.38726
20181.14665
20180.9003
20180.64743
20180.3868
20180.11665
20179.8343
20179.53548
20179.20062
20179.00642
20178.96229
20178.99433
20178.92403
20178.71306
20178.53723
20178.52818
20178.59803
20178.63258
20178.62721
20178.59097
20178.53879
20178.46612
20178.36219
20178.2337
20178.09682
20177.95969
20177.82934
20177.71715
20177.63601
20177.59673
20177.60613
20177.66631
20177.77488
20177.92587
20178.11105
20178.32106
20178.54653
20178.77919
20179.01215
20179.24008
20179.45918
20179.66679
20179.86112
20180.041
20180.20569
20180.35479
20180.48824
20180.60626
20180.70935
20180.79827
20180.87397
20180.93754
20180.99017
20181.03305
20181.06739
20181.09433
20181.11493
20181.13017
20181.14092
20181.14797
20181.15198
20181.15356
20181.15319
20181.1513
20181.14825
20181.14432
20181.13976
20181.13476
20181.12948
20181.12405
20181.11856
20181.11309
20181.10769
20181.10242
20181.0973
20181.09235
20181.08759
20181.08303
20181.07866
20181.0745
20181.07053
20181.06675
20181.06316
20181.05974
20181.0565
20181.05342
20181.0505
20181.04772
20181.04509
20181.04258
20181.0402
20181.03794
20181.03578
20181.03373
20181.03178
20181.02991
20181.02814
20181.02644
20181.02482
20181.02327
20181.02178
20181.02036
20181.019
20181.01769
20181.01643
20181.01522
20181.01406
20181.01294
20181.01186
20181.01082
20181.00982
20181.00885
20181.00791
20181.00701
20181.00613
20181.00527
20181.00445
20181.00365
20181.00287
20181.00211
20181.00138
20181.00066
20180.99996
20180.99928
20180.99862
20180.99797
20180.99734
20180.99672
20180.99612
20180.99553
20180.99495
20180.99439
20180.99384
20180.9933
20180.99277
20180.99225
20180.99174
20180.99124
20180.99075
20180.99028
20180.9898
20180.98934
20180.98889
20180.98845
20180.98801
20180.98758
20180.98716
20180.98675
20180.98634
20180.98595
20180.98556
20180.98517
20180.9848
20180.98443
20180.98407
20180.98372
20180.98337
20180.98303
20180.9827
20180.98237
20180.98205
20180.98174
20180.98144
20180.98114
20180.98085
20180.98056
20180.98032
20180.98032
20182.54844
20182.54844
20182.54019
20182.52997
20182.52118
20182.51524
20182.51301
20182.51503
20182.52139
20182.53151
20182.54436
20182.5588
20182.57388
20182.58891
20182.60338
20182.61679
20182.62858
20182.63816
20182.64515
20182.64978
20182.65212
20182.6514
20182.63921
20182.61847
20182.59717
20182.63697
20182.6323
20182.49123
20182.29533
20182.08121
20181.85767
20181.62782
20181.39275
20181.15265
20180.90714
20180.65548
20180.39645
20180.12821
20179.84772
20179.54978
20179.20247
20178.98019
20178.92748
20178.95234
20178.87947
20178.68499
20178.52426
20178.51578
20178.58787
20178.63144
20178.62748
20178.58545
20178.51977
20178.42957
20178.31197
20178.1743
20178.02932
20177.886
20177.75277
20177.64067
20177.56168
20177.52605
20177.54026
20177.6062
20177.72125
20177.87908
20178.07103
20178.28733
20178.51839
20178.75569
20178.99232
20179.2231
20179.44439
20179.65373
20179.84955
20180.03078
20180.19677
20180.34713
20180.48178
20180.60092
20180.70502
20180.79482
20180.87125
20180.93542
20180.98852
20181.03176
20181.06637
20181.09348
20181.1142
20181.12951
20181.14031
20181.14738
20181.1514
20181.15298
20181.15261
20181.15073
20181.14768
20181.14376
20181.13921
20181.13423
20181.12897
20181.12355
20181.11809
20181.11264
20181.10727
20181.10202
20181.09692
20181.092
20181.08726
20181.08272
20181.07837
20181.07422
20181.07027
20181.06651
20181.06293
20181.05953
20181.0563
20181.05324
20181.05033
20181.04756
20181.04494
20181.04244
20181.04007
20181.03781
20181.03567
20181.03362
20181.03167
20181.02982
20181.02804
20181.02635
20181.02474
20181.02319
20181.02171
20181.02029
20181.01893
20181.01763
20181.01637
20181.01517
20181.01401
20181.01289
20181.01182
20181.01078
20181.00978
20181.00881
20181.00787
20181.00697
20181.00609
20181.00524
20181.00442
20181.00362
20181.00284
20181.00208
20181.00135
20181.00063
20180.99994
20180.99926
20180.99859
20180.99795
20180.99732
20180.9967
20180.9961
20180.99551
20180.99494
20180.99437
20180.99382
20180.99328
20180.99275
20180.99223
20180.99173
20180.99123
20180.99074
20180.99026
20180.98979
20180.98933
20180.98888
20180.98843
20180.988
20180.98757
20180.98715
20180.98674
20180.98633
20180.98593
20180.98554
20180.98516
20180.98479
20180.98442
20180.98406
20180.9837
20180.98336
20180.98302
20180.98268
20180.98236
20180.98204
20180.98173
20180.98142
20180.98113
20180.98083
20180.98055
20180.98031
20180.98031
20182.5334
20182.5334
20182.52781
20182.52028
20182.51354
20182.50907
20182.50772
20182.51002
20182.51603
20182.52536
20182.53723
20182.55079
20182.56525
20182.58001
20182.59459
20182.6085
20182.62114
20182.6319
20182.64019
20182.64599
20182.64865
20182.64833
20182.63693
20182.62836
20182.62748
20182.66759
20182.65614
20182.50509
20182.30494
20182.08897
20181.86456
20181.63441
20181.39952
20181.16002
20180.91558
20180.66545
20180.40848
20180.14288
20179.86551
20179.57158
20179.21864
20178.97539
20178.91717
20178.93997
20178.873
20178.69964
20178.5481
20178.5233
20178.5789
20178.62142
20178.61739
20178.56908
20178.4893
20178.3832
20178.25349
20178.10723
20177.95466
20177.80497
20177.66765
20177.55395
20177.47566
20177.44276
20177.46155
20177.53364
20177.65605
20177.82194
20178.02198
20178.24592
20178.48376
20178.72668
20178.96774
20179.20191
20179.42574
20179.6371
20179.83463
20180.01745
20180.18498
20180.33687
20180.47301
20180.59354
20180.69891
20180.78983
20180.86722
20180.93218
20180.98591
20181.02965
20181.06462
20181.09201
20181.11292
20181.12837
20181.13926
20181.14638
20181.15045
20181.15206
20181.15172
20181.14986
20181.14683
20181.14294
20181.13842
20181.13347
20181.12824
20181.12286
20181.11743
20181.11202
20181.10669
20181.10147
20181.09641
20181.09152
20181.08681
20181.08229
20181.07798
20181.07386
20181.06993
20181.06619
20181.06263
20181.05925
20181.05604
20181.053
20181.0501
20181.04735
20181.04474
20181.04226
20181.03989
20181.03765
20181.03551
20181.03348
20181.03154
20181.02969
20181.02793
20181.02624
20181.02463
20181.02309
20181.02161
20181.0202
20181.01885
20181.01755
20181.0163
20181.0151
20181.01394
20181.01283
20181.01176
20181.01072
20181.00972
20181.00876
20181.00782
20181.00692
20181.00605
20181.0052
20181.00437
20181.00358
20181.0028
20181.00205
20181.00131
20181.0006
20180.9999
20180.99923
20180.99856
20180.99792
20180.99729
20180.99667
20180.99607
20180.99549
20180.99491
20180.99435
20180.9938
20180.99326
20180.99273
20180.99221
20180.99171
20180.99121
20180.99072
20180.99024
20180.98977
20180.98931
20180.98886
20180.98841
20180.98798
20180.98755
20180.98713
20180.98672
20180.98631
20180.98592
20180.98553
20180.98515
20180.98477
20180.9844
20180.98404
20180.98369
20180.98334
20180.983
20180.98267
20180.98234
20180.98202
20180.98171
20180.98141
20180.98111
20180.98082
20180.98053
20180.98028
20180.98028
20182.51983
20182.51983
20182.51597
20182.51048
20182.50544
20182.50222
20182.50163
20182.50416
20182.5099
20182.51855
20182.52953
20182.54218
20182.55586
20182.57007
20182.58439
20182.59837
20182.61152
20182.62324
20182.63293
20182.64039
20182.64437
20182.64617
20182.63862
20182.64157
20182.65765
20182.70536
20182.69098
20182.52695
20182.31887
20182.09905
20181.87293
20181.64219
20181.40744
20181.16868
20180.92551
20180.67724
20180.4228
20180.16059
20179.88765
20179.60114
20179.25066
20178.99472
20178.93253
20178.95686
20178.90295
20178.75361
20178.6081
20178.5592
20178.58856
20178.6182
20178.60608
20178.5473
20178.45345
20178.33335
20178.19226
20178.03671
20177.87549
20177.71804
20177.57481
20177.45762
20177.37846
20177.34736
20177.37051
20177.44918
20177.57988
20177.75507
20177.96461
20178.19753
20178.44332
20178.69281
20178.93899
20179.17697
20179.40362
20179.61716
20179.81654
20180.00111
20180.17038
20180.32403
20180.46191
20180.58411
20180.69102
20180.78331
20180.86188
20180.92782
20180.98235
20181.02672
20181.06217
20181.08993
20181.11111
20181.12676
20181.13778
20181.14501
20181.14915
20181.15082
20181.15053
20181.14871
20181.14573
20181.14188
20181.1374
20181.1325
20181.12732
20181.12199
20181.1166
20181.11124
20181.10595
20181.10078
20181.09576
20181.09091
20181.08625
20181.08177
20181.07749
20181.0734
20181.0695
20181.06579
20181.06226
20181.05891
20181.05572
20181.0527
20181.04982
20181.04709
20181.04449
20181.04203
20181.03968
20181.03745
20181.03533
20181.0333
20181.03137
20181.02954
20181.02778
20181.0261
20181.0245
20181.02297
20181.0215
20181.02009
20181.01874
20181.01745
20181.01621
20181.01501
20181.01386
20181.01275
20181.01168
20181.01065
20181.00966
20181.00869
20181.00776
20181.00686
20181.00599
20181.00515
20181.00433
20181.00353
20181.00276
20181.002
20181.00127
20181.00056
20180.99987
20180.99919
20180.99853
20180.99789
20180.99726
20180.99664
20180.99604
20180.99546
20180.99488
20180.99432
20180.99377
20180.99323
20180.99271
20180.99219
20180.99168
20180.99119
20180.9907
20180.99022
20180.98975
20180.98929
20180.98884
20180.98839
20180.98796
20180.98753
20180.98711
20180.9867
20180.9863
20180.9859
20180.98551
20180.98513
20180.98475
20180.98438
20180.98402
20180.98367
20180.98332
20180.98298
20180.98265
20180.98232
20180.98201
20180.98169
20180.98139
20180.98109
20180.9808
20180.98052
20180.98025
20180.98025
20182.50725
20182.50725
20182.50457
20182.50062
20182.49697
20182.4948
20182.49487
20182.49761
20182.50313
20182.51121
20182.52143
20182.53324
20182.54615
20182.5597
20182.57355
20182.58732
20182.60065
20182.61306
20182.62404
20182.63341
20182.63981
20182.64549
20182.64539
20182.66008
20182.68966
20182.74641
20182.72958
20182.55306
20182.33562
20182.11081
20181.88244
20181.65096
20181.41639
20181.1785
20180.93683
20180.69072
20180.43926
20180.18115
20179.91378
20179.63765
20179.29721
20179.03588
20178.97019
20178.99784
20178.96173
20178.83942
20178.70371
20178.6328
20178.6293
20178.63272
20178.60118
20178.52629
20178.41759
20178.28401
20178.13106
20177.9647
20177.79302
20177.62591
20177.47476
20177.35217
20177.27063
20177.24043
20177.26775
20177.35352
20177.49351
20177.67932
20177.89983
20178.14315
20178.39808
20178.65505
20178.90694
20179.14906
20179.37866
20179.5944
20179.79563
20179.98198
20180.1531
20180.30868