# vtk DataFile Version 2.0
FlowField
ASCII
DATASET STRUCTURED_GRID
DIMENSIONS 200 1 200
POINTS 40000 float
0 0 0
0.15 0 0
0.3 0 0
0.45 0 0
0.6 0 0
0.75 0 0
0.9 0 0
1.05 0 0
1.2 0 0
1.35 0 0
1.5 0 0
1.65 0 0
1.8 0 0
1.95 0 0
2.1 0 0
2.25 0 0
2.4 0 0
2.55 0 0
2.7 0 0
2.85 0 0
3 0 0
3.15 0 0
3.3 0 0
3.45 0 0
3.6 0 0
3.75 0 0
3.9 0 0
4.05 0 0
4.2 0 0
4.35 0 0
4.5 0 0
4.65 0 0
4.8 0 0
4.95 0 0
5.1 0 0
5.25 0 0
5.4 0 0
5.55 0 0
5.7 0 0
5.85 0 0
6 0 0
6.15 0 0
6.3 0 0
6.45 0 0
6.6 0 0
6.75 0 0
6.9 0 0
7.05 0 0
7.2 0 0
7.35 0 0
7.5 0 0
7.65 0 0
7.8 0 0
7.95 0 0
8.1 0 0
8.25 0 0
8.4 0 0
8.55 0 0
8.7 0 0
8.85 0 0
9 0 0
9.15 0 0
9.3 0 0
9.45 0 0
9.6 0 0
9.75 0 0
9.9 0 0
10.05 0 0
10.2 0 0
10.35 0 0
10.5 0 0
10.65 0 0
10.8 0 0
10.95 0 0
11.1 0 0
11.25 0 0
11.4 0 0
11.55 0 0
11.7 0 0
11.85 0 0
12 0 0
12.15 0 0
12.3 0 0
12.45 0 0
12.6 0 0
12.75 0 0
12.9 0 0
13.05 0 0
13.2 0 0
13.35 0 0
13.5 0 0
13.65 0 0
13.8 0 0
13.95 0 0
14.1 0 0
14.25 0 0
14.4 0 0
14.55 0 0
14.7 0 0
14.85 0 0
15 0 0
15.15 0 0
15.3 0 0
15.45 0 0
15.6 0 0
15.75 0 0
15.9 0 0
16.05 0 0
16.2 0 0
16.35 0 0
16.5 0 0
16.65 0 0
16.8 0 0
16.95 0 0
17.1 0 0
17.25 0 0
17.4 0 0
17.55 0 0
17.7 0 0
17.85 0 0
18 0 0
18.15 0 0
18.3 0 0
18.45 0 0
18.6 0 0
18.75 0 0
18.9 0 0
19.05 0 0
19.2 0 0
19.35 0 0
19.5 0 0
19.65 0 0
19.8 0 0
19.95 0 0
20.1 0 0
20.25 0 0
20.4 0 0
20.55 0 0
20.7 0 0
20.85 0 0
21 0 0
21.15 0 0
21.3 0 0
21.45 0 0
21.6 0 0
21.75 0 0
21.9 0 0
22.05 0 0
22.2 0 0
22.35 0 0
22.5 0 0
22.65 0 0
22.8 0 0
22.95 0 0
23.1 0 0
23.25 0 0
23.4 0 0
23.55 0 0
23.7 0 0
23.85 0 0
24 0 0
24.15 0 0
24.3 0 0
24.45 0 0
24.6 0 0
24.75 0 0
24.9 0 0
25.05 0 0
25.2 0 0
25.35 0 0
25.5 0 0
25.65 0 0
25.8 0 0
25.95 0 0
26.1 0 0
26.25 0 0
26.4 0 0
26.55 0 0
26.7 0 0
26.85 0 0
27 0 0
27.15 0 0
27.3 0 0
27.45 0 0
27.6 0 0
27.75 0 0
27.9 0 0
28.05 0 0
28.2 0 0
28.35 0 0
28.5 0 0
28.65 0 0
28.8 0 0
28.95 0 0
29.1 0 0
29.25 0 0
29.4 0 0
29.55 0 0
29.7 0 0
29.85 0 0
0 0.075 0
0.15 0.075 0
0.3 0.075 0
0.45 0.075 0
0.6 0.075 0
0.75 0.075 0
0.9 0.075 0
1.05 0.075 0
1.2 0.075 0
1.35 0.075 0
1.5 0.075 0
1.65 0.075 0
1.8 0.075 0
1.95 0.075 0
2.1 0.075 0
2.25 0.075 0
2.4 0.075 0
2.55 0.075 0
2.7 0.075 0
2.85 0.075 0
3 0.075 0
3.15 0.075 0
3.3 0.075 0
3.45 0.075 0
3.6 0.075 0
3.75 0.075 0
3.9 0.075 0
4.05 0.075 0
4.2 0.075 0
4.35 0.075 0
4.5 0.075 0
4.65 0.075 0
4.8 0.075 0
4.95 0.075 0
5.1 0.075 0
5.25 0.075 0
5.4 0.075 0
5.55 0.075 0
5.7 0.075 0
5.85 0.075 0
6 0.075 0
6.15 0.075 0
6.3 0.075 0
6.45 0.075 0
6.6 0.075 0
6.75 0.075 0
6.9 0.075 0
7.05 0.075 0
7.2 0.075 0
7.35 0.075 0
7.5 0.075 0
7.65 0.075 0
7.8 0.075 0
7.95 0.075 0
8.1 0.075 0
8.25 0.075 0
8.4 0.075 0
8.55 0.075 0
8.7 0.075 0
8.85 0.075 0
9 0.075 0
9.15 0.075 0
9.3 0.075 0
9.45 0.075 0
9.6 0.075 0
9.75 0.075 0
9.9 0.075 0
10.05 0.075 0
10.2 0.075 0
10.35 0.075 0
10.5 0.075 0
10.65 0.075 0
10.8 0.075 0
10.95 0.075 0
11.1 0.075 0
11.25 0.075 0
11.4 0.075 0
11.55 0.075 0
11.7 0.075 0
11.85 0.075 0
12 0.075 0
12.15 0.075 0
12.3 0.075 0
12.45 0.075 0
12.6 0.075 0
12.75 0.075 0
12.9 0.075 0
13.05 0.075 0
13.2 0.075 0
13.35 0.075 0
13.5 0.075 0
13.65 0.075 0
13.8 0.075 0
13.95 0.075 0
14.1 0.075 0
14.25 0.075 0
14.4 0.075 0
14.55 0.075 0
14.7 0.075 0
14.85 0.075 0
15 0.075 0
15.15 0.075 0
15.3 0.075 0
15.45 0.075 0
15.6 0.075 0
15.75 0.075 0
15.9 0.075 0
16.05 0.075 0
16.2 0.075 0
16.35 0.075 0
16.5 0.075 0
16.65 0.075 0
16.8 0.075 0
16.95 0.075 0
17.1 0.075 0
17.25 0.075 0
17.4 0.075 0
17.55 0.075 0
17.7 0.075 0
17.85 0.075 0
18 0.075 0
18.15 0.075 0
18.3 0.075 0
18.45 0.075 0
18.6 0.075 0
18.75 0.075 0
18.9 0.075 0
19.05 0.075 0
19.2 0.075 0
19.35 0.075 0
19.5 0.075 0
19.65 0.075 0
19.8 0.075 0
19.95 0.075 0
20.1 0.075 0
20.25 0.075 0
20.4 0.075 0
20.55 0.075 0
20.7 0.075 0
20.85 0.075 0
21 0.075 0
21.15 0.075 0
21.3 0.075 0
21.45 0.075 0
21.6 0.075 0
21.75 0.075 0
21.9 0.075 0
22.05 0.075 0
22.2 0.075 0
22.35 0.075 0
22.5 0.075 0
22.65 0.075 0
22.8 0.075 0
22.95 0.075 0
23.1 0.075 0
23.25 0.075 0
23.4 0.075 0
23.55 0.075 0
23.7 0.075 0
23.85 0.075 0
24 0.075 0
24.15 0.075 0
24.3 0.075 0
24.45 0.075 0
24.6 0.075 0
24.75 0.075 0
24.9 0.075 0
25.05 0.075 0
25.2 0.075 0
25.35 0.075 0
25.5 0.075 0
25.65 0.075 0
25.8 0.075 0
25.95 0.075 0
26.1 0.075 0
26.25 0.075 0
26.4 0.075 0
26.55 0.075 0
26.7 0.075 0
26.85 0.075 0
27 0.075 0
27.15 0.075 0
27.3 0.075 0
27.45 0.075 0
27.6 0.075 0
27.75 0.075 0
27.9 0.075 0
28.05 0.075 0
28.2 0.075 0
28.35 0.075 0
28.5 0.075 0
28.65 0.075 0
28.8 0.075 0
28.95 0.075 0
29.1 0.075 0
29.25 0.075 0
29.4 0.075 0
29.55 0.075 0
29.7 0.075 0
29.85 0.075 0
0 0.15 0
0.15 0.15 0
0.3 0.15 0
0.45 0.15 0
0.6 0.15 0
0.75 0.15 0
0.9 0.15 0
1.05 0.15 0
1.2 0.15 0
1.35 0.15 0
1.5 0.15 0
1.65 0.15 0
1.8 0.15 0
1.95 0.15 0
2.1 0.15 0
2.25 0.15 0
2.4 0.15 0
2.55 0.15 0
2.7 0.15 0
2.85 0.15 0
3 0.15 0
3.15 0.15 0
3.3 0.15 0
3.45 0.15 0
3.6 0.15 0
3.75 0.15 0
3.9 0.15 0
4.05 0.15 0
4.2 0.15 0
4.35 0.15 0
4.5 0.15 0
4.65 0.15 0
4.8 0.15 0
4.95 0.15 0
5.1 0.15 0
5.25 0.15 0
5.4 0.15 0
5.55 0.15 0
5.7 0.15 0
5.85 0.15 0
6 0.15 0
6.15 0.15 0
6.3 0.15 0
6.45 0.15 0
6.6 0.15 0
6.75 0.15 0
6.9 0.15 0
7.05 0.15 0
7.2 0.15 0
7.35 0.15 0
7.5 0.15 0
7.65 0.15 0
7.8 0.15 0
7.95 0.15 0
8.1 0.15 0
8.25 0.15 0
8.4 0.15 0
8.55 0.15 0
8.7 0.15 0
8.85 0.15 0
9 0.15 0
9.15 0.15 0
9.3 0.15 0
9.45 0.15 0
9.6 0.15 0
9.75 0.15 0
9.9 0.15 0
10.05 0.15 0
10.2 0.15 0
10.35 0.15 0
10.5 0.15 0
10.65 0.15 0
10.8 0.15 0
10.95 0.15 0
11.1 0.15 0
11.25 0.15 0
11.4 0.15 0
11.55 0.15 0
11.7 0.15 0
11.85 0.15 0
12 0.15 0
12.15 0.15 0
12.3 0.15 0
12.45 0.15 0
12.6 0.15 0
12.75 0.15 0
12.9 0.15 0
13.05 0.15 0
13.2 0.15 0
13.35 0.15 0
13.5 0.15 0
13.65 0.15 0
13.8 0.15 0
13.95 0.15 0
14.1 0.15 0
14.25 0.15 0
14.4 0.15 0
14.55 0.15 0
14.7 0.15 0
14.85 0.15 0
15 0.15 0
15.15 0.15 0
15.3 0.15 0
15.45 0.15 0
15.6 0.15 0
15.75 0.15 0
15.9 0.15 0
16.05 0.15 0
16.2 0.15 0
16.35 0.15 0
16.5 0.15 0
16.65 0.15 0
16.8 0.15 0
16.95 0.15 0
17.1 0.15 0
17.25 0.15 0
17.4 0.15 0
17.55 0.15 0
17.7 0.15 0
17.85 0.15 0
18 0.15 0
18.15 0.15 0
18.3 0.15 0
18.45 0.15 0
18.6 0.15 0
18.75 0.15 0
18.9 0.15 0
19.05 0.15 0
19.2 0.15 0
19.35 0.15 0
19.5 0.15 0
19.65 0.15 0
19.8 0.15 0
19.95 0.15 0
20.1 0.15 0
20.25 0.15 0
20.4 0.15 0
20.55 0.15 0
20.7 0.15 0
20.85 0.15 0
21 0.15 0
21.15 0.15 0
21.3 0.15 0
21.45 0.15 0
21.6 0.15 0
21.75 0.15 0
21.9 0.15 0
22.05 0.15 0
22.2 0.15 0
22.35 0.15 0
22.5 0.15 0
22.65 0.15 0
22.8 0.15 0
22.95 0.15 0
23.1 0.15 0
23.25 0.15 0
23.4 0.15 0
23.55 0.15 0
23.7 0.15 0
23.85 0.15 0
24 0.15 0
24.15 0.15 0
24.3 0.15 0
24.45 0.15 0
24.6 0.15 0
24.75 0.15 0
24.9 0.15 0
25.05 0.15 0
25.2 0.15 0
25.35 0.15 0
25.5 0.15 0
25.65 0.15 0
25.8 0.15 0
25.95 0.15 0
26.1 0.15 0
26.25 0.15 0
26.4 0.15 0
26.55 0.15 0
26.7 0.15 0
26.85 0.15 0
27 0.15 0
27.15 0.15 0
27.3 0.15 0
27.45 0.15 0
27.6 0.15 0
27.75 0.15 0
27.9 0.15 0
28.05 0.15 0
28.2 0.15 0
28.35 0.15 0
28.5 0.15 0
28.65 0.15 0
28.8 0.15 0
28.95 0.15 0
29.1 0.15 0
29.25 0.15 0
29.4 0.15 0
29.55 0.15 0
29.7 0.15 0
29.85 0.15 0
0 0.225 0
0.15 0.225 0
0.3 0.225 0
0.45 0.225 0
0.6 0.225 0
0.75 0.225 0
0.9 0.225 0
1.05 0.225 0
1.2 0.225 0
1.35 0.225 0
1.5 0.225 0
1.65 0.225 0
1.8 0.225 0
1.95 0.225 0
2.1 0.225 0
2.25 0.225 0
2.4 0.225 0
2.55 0.225 0
2.7 0.225 0
2.85 0.225 0
3 0.225 0
3.15 0.225 0
3.3 0.225 0
3.45 0.225 0
3.6 0.225 0
3.75 0.225 0
3.9 0.225 0
4.05 0.225 0
4.2 0.225 0
4.35 0.225 0
4.5 0.225 0
4.65 0.225 0
4.8 0.225 0
4.95 0.225 0
5.1 0.225 0
5.25 0.225 0
5.4 0.225 0
5.55 0.225 0
5.7 0.225 0
5.85 0.225 0
6 0.225 0
6.15 0.225 0
6.3 0.225 0
6.45 0.225 0
6.6 0.225 0
6.75 0.225 0
6.9 0.225 0
7.05 0.225 0
7.2 0.225 0
7.35 0.225 0
7.5 0.225 0
7.65 0.225 0
7.8 0.225 0
7.95 0.225 0
8.1 0.225 0
8.25 0.225 0
8.4 0.225 0
8.55 0.225 0
8.7 0.225 0
8.85 0.225 0
9 0.225 0
9.15 0.225 0
9.3 0.225 0
9.45 0.225 0
9.6 0.225 0
9.75 0.225 0
9.9 0.225 0
10.05 0.225 0
10.2 0.225 0
10.35 0.225 0
10.5 0.225 0
10.65 0.225 0
10.8 0.225 0
10.95 0.225 0
11.1 0.225 0
11.25 0.225 0
11.4 0.225 0
11.55 0.225 0
11.7 0.225 0
11.85 0.225 0
12 0.225 0
12.15 0.225 0
12.3 0.225 0
12.45 0.225 0
12.6 0.225 0
12.75 0.225 0
12.9 0.225 0
13.05 0.225 0
13.2 0.225 0
13.35 0.225 0
13.5 0.225 0
13.65 0.225 0
13.8 0.225 0
13.95 0.225 0
14.1 0.225 0
14.25 0.225 0
14.4 0.225 0
14.55 0.225 0
14.7 0.225 0
14.85 0.225 0
15 0.225 0
15.15 0.225 0
15.3 0.225 0
15.45 0.225 0
15.6 0.225 0
15.75 0.225 0
15.9 0.225 0
16.05 0.225 0
16.2 0.225 0
16.35 0.225 0
16.5 0.225 0
16.65 0.225 0
16.8 0.225 0
16.95 0.225 0
17.1 0.225 0
17.25 0.225 0
17.4 0.225 0
17.55 0.225 0
17.7 0.225 0
17.85 0.225 0
18 0.225 0
18.15 0.225 0
18.3 0.225 0
18.45 0.225 0
18.6 0.225 0
18.75 0.225 0
18.9 0.225 0
19.05 0.225 0
19.2 0.225 0
19.35 0.225 0
19.5 0.225 0
19.65 0.225 0
19.8 0.225 0
19.95 0.225 0
20.1 0.225 0
20.25 0.225 0
20.4 0.225 0
20.55 0.225 0
20.7 0.225 0
20.85 0.225 0
21 0.225 0
21.15 0.225 0
21.3 0.225 0
21.45 0.225 0
21.6 0.225 0
21.75 0.225 0
21.9 0.225 0
22.05 0.225 0
22.2 0.225 0
22.35 0.225 0
22.5 0.225 0
22.65 0.225 0
22.8 0.225 0
22.95 0.225 0
23.1 0.225 0
23.25 0.225 0
23.4 0.225 0
23.55 0.225 0
23.7 0.225 0
23.85 0.225 0
24 0.225 0
24.15 0.225 0
24.3 0.225 0
24.45 0.225 0
24.6 0.225 0
24.75 0.225 0
24.9 0.225 0
25.05 0.225 0
25.2 0.225 0
25.35 0.225 0
25.5 0.225 0
25.65 0.225 0
25.8 0.225 0
25.95 0.225 0
26.1 0.225 0
26.25 0.225 0
26.4 0.225 0
26.55 0.225 0
26.7 0.225 0
26.85 0.225 0
27 0.225 0
27.15 0.225 0
27.3 0.225 0
27.45 0.225 0
27.6 0.225 0
27.75 0.225 0
27.9 0.225 0
28.05 0.225 0
28.2 0.225 0
28.35 0.225 0
28.5 0.225 0
28.65 0.225 0
28.8 0.225 0
28.95 0.225 0
29.1 0.225 0
29.25 0.225 0
29.4 0.225 0
29.55 0.225 0
29.7 0.225 0
29.85 0.225 0
0 0.3 0
0.15 0.3 0
0.3 0.3 0
0.45 0.3 0
0.6 0.3 0
0.75 0.3 0
0.9 0.3 0
1.05 0.3 0
1.2 0.3 0
1.35 0.3 0
1.5 0.3 0
1.65 0.3 0
1.8 0.3 0
1.95 0.3 0
2.1 0.3 0
2.25 0.3 0
2.4 0.3 0
2.55 0.3 0
2.7 0.3 0
2.85 0.3 0
3 0.3 0
3.15 0.3 0
3.3 0.3 0
3.45 0.3 0
3.6 0.3 0
3.75 0.3 0
3.9 0.3 0
4.05 0.3 0
4.2 0.3 0
4.35 0.3 0
4.5 0.3 0
4.65 0.3 0
4.8 0.3 0
4.95 0.3 0
5.1 0.3 0
5.25 0.3 0
5.4 0.3 0
5.55 0.3 0
5.7 0.3 0
5.85 0.3 0
6 0.3 0
6.15 0.3 0
[...]
POINT_DATA 40000

SCALARS p float 1
LOOKUP_TABLE default
20183.16821
20183.16821
20183.11276
20183.08498
20183.0666
20183.05374
20183.04658
20183.04639
20183.05332
20183.06552
20183.08007
20183.09437
20183.10705
20183.11794
20183.12739
20183.13543
20183.14196
20183.14718
20183.15133
20183.15347
20183.15072
20183.14102
20183.11118
20183.05356
20183.11564
20183.54572
20183.42435
20183.05279
20182.80187
20182.58021
20182.36425
20182.14722
20181.9271
20181.70337
20181.47589
20181.24466
20181.00961
20180.77054
20180.5268
20180.27618
20180.01054
20179.86558
20179.89003
20179.87302
20179.86751
20179.8817
20179.93458
20180.03473
20180.17075
20180.29507
20180.33992
20180.21889
20180.0275
20179.79325
20179.52147
20179.27336
20179.13805
20179.08751
20178.99111
20178.93069
20178.96251
20178.97245
20178.93897
20178.88745
20178.90021
20179.01525
20179.09601
20179.10298
20179.08316
20179.0681
20179.06237
20179.05751
20179.04814
20179.02439
20178.9917
20178.94355
20178.80957
20178.69344
20178.63665
20178.56751
20178.46989
20178.37082
20178.29689
20178.26281
20178.27348
20178.32795
20178.42232
20178.55154
20178.71026
20178.89334
20179.09601
20179.31386
20179.54281
20179.77899
20180.01875
20180.25863
20180.49548
20180.72661
20180.94992
20181.16403
20181.36812
20181.56185
20181.74528
20181.91823
20182.08026
20182.23022
20182.36623
20182.48582
20182.58627
20182.66516
20182.72089
20182.75305
20182.76262
20182.75173
20182.72342
20182.6812
20182.62868
20182.56925
20182.50574
20182.44039
20182.3749
20182.31068
20182.2489
20182.19053
20182.13622
20182.08622
20182.04042
20181.99854
20181.96023
20181.92518
20181.89308
20181.86357
20181.8362
20181.81046
20181.78583
20181.76193
20181.73856
20181.71579
20181.69391
20181.67334
20181.65447
20181.63764
20181.62305
20181.61076
20181.60069
20181.59266
20181.5864
20181.58161
20181.57799
20181.57521
20181.57301
20181.57117
20181.56949
20181.56786
20181.56617
20181.56438
20181.56244
20181.56037
20181.55815
20181.55581
20181.55336
20181.55082
20181.54821
20181.54554
20181.54284
20181.54011
20181.53736
20181.5346
20181.53184
20181.52909
20181.52634
20181.5236
20181.52088
20181.51816
20181.51546
20181.51277
20181.51009
20181.50742
20181.50476
20181.5021
20181.49945
20181.49679
20181.49414
20181.49149
20181.48882
20181.48615
20181.48347
20181.48077
20181.47806
20181.47533
20181.47258
20181.46981
20181.46702
20181.46419
20181.46135
20181.45848
20181.45559
20181.45268
20181.44975
20181.44975
20183.16821
20183.16821
20183.11276
20183.08498
20183.0666
20183.05374
20183.04658
20183.04639
20183.05332
20183.06552
20183.08007
20183.09437
20183.10705
20183.11794
20183.12739
20183.13543
20183.14196
20183.14718
20183.15133
20183.15347
20183.15072
20183.14102
20183.11118
20183.05356
20183.11564
20183.54572
20183.42435
20183.05279
20182.80187
20182.58021
20182.36425
20182.14722
20181.9271
20181.70337
20181.47589
20181.24466
20181.00961
20180.77054
20180.5268
20180.27618
20180.01054
20179.86558
20179.89003
20179.87302
20179.86751
20179.8817
20179.93458
20180.03473
20180.17075
20180.29507
20180.33992
20180.21889
20180.0275
20179.79325
20179.52147
20179.27336
20179.13805
20179.08751
20178.99111
20178.93069
20178.96251
20178.97245
20178.93897
20178.88745
20178.90021
20179.01525
20179.09601
20179.10298
20179.08316
20179.0681
20179.06237
20179.05751
20179.04814
20179.02439
20178.9917
20178.94355
20178.80957
20178.69344
20178.63665
20178.56751
20178.46989
20178.37082
20178.29689
20178.26281
20178.27348
20178.32795
20178.42232
20178.55154
20178.71026
20178.89334
20179.09601
20179.31386
20179.54281
20179.77899
20180.01875
20180.25863
20180.49548
20180.72661
20180.94992
20181.16403
20181.36812
20181.56185
20181.74528
20181.91823
20182.08026
20182.23022
20182.36623
20182.48582
20182.58627
20182.66516
20182.72089
20182.75305
20182.76262
20182.75173
20182.72342
20182.6812
20182.62868
20182.56925
20182.50574
20182.44039
20182.3749
20182.31068
20182.2489
20182.19053
20182.13622
20182.08622
20182.04042
20181.99854
20181.96023
20181.92518
20181.89308
20181.86357
20181.8362
20181.81046
20181.78583
20181.76193
20181.73856
20181.71579
20181.69391
20181.67334
20181.65447
20181.63764
20181.62305
20181.61076
20181.60069
20181.59266
20181.5864
20181.58161
20181.57799
20181.57521
20181.57301
20181.57117
20181.56949
20181.56786
20181.56617
20181.56438
20181.56244
20181.56037
20181.55815
20181.55581
20181.55336
20181.55082
20181.54821
20181.54554
20181.54284
20181.54011
20181.53736
20181.5346
20181.53184
20181.52909
20181.52634
20181.5236
20181.52088
20181.51816
20181.51546
20181.51277
20181.51009
20181.50742
20181.50476
20181.5021
20181.49945
20181.49679
20181.49414
20181.49149
20181.48882
20181.48615
20181.48347
20181.48077
20181.47806
20181.47533
20181.47258
20181.46981
20181.46702
20181.46419
20181.46135
20181.45848
20181.45559
20181.45268
20181.44975
20181.44975
20183.13562
20183.13562
20183.10372
20183.08055
20183.0642
20183.05291
20183.04699
20183.04754
20183.05469
20183.06681
20183.08119
20183.09535
20183.10794
20183.11876
20183.12814
20183.13607
20183.14246
20183.14751
20183.1516
20183.15419
20183.15288
20183.14108
20183.09343
20183.01259
20183.02161
20183.32506
20183.2843
20183.02349
20182.79484
20182.57885
20182.36453
20182.14797
20181.92799
20181.70428
20181.47681
20181.24559
20181.01059
20180.77168
20180.5285
20180.27987
20180.02102
20179.90241
20179.89567
20179.87286
20179.86108
20179.86993
20179.91934
20180.01775
20180.15034
20180.26834
20180.30387
20180.19746
20180.01389
20179.77165
20179.48372
20179.2311
20179.08299
20179.02049
20178.94652
20178.92672
20178.96774
20178.97989
20178.93999
20178.86885
20178.86907
20178.99413
20179.09139
20179.10171
20179.0812
20179.06641
20179.06169
20179.05716
20179.04849
20179.02623
20178.98989
20178.95044
20178.82453
20178.69336
20178.61582
20178.53527
20178.43597
20178.34017
20178.27098
20178.24146
20178.25597
20178.31349
20178.41024
20178.54126
20178.70134
20178.88545
20179.08891
20179.3074
20179.5369
20179.77361
20180.01388
20180.25426
20180.49155
20180.72303
20180.94657
20181.16071
20181.36467
20181.55813
20181.74118
20181.91376
20182.07548
20182.22525
20182.36123
20182.48095
20182.58165
20182.66086
20182.71693
20182.74942
20182.75928
20182.74865
20182.72057
20182.67857
20182.62628
20182.56709
20182.50386
20182.43879
20182.37356
20182.30955
20182.24795
20182.18973
20182.13558
20182.08573
20182.04009
20181.99834
20181.96013
20181.92517
20181.89315
20181.86373
20181.83645
20181.8108
20181.78624
20181.76236
20181.73897
20181.71614
20181.69417
20181.67349
20181.65453
20181.63763
20181.62299
20181.61067
20181.60059
20181.59256
20181.58632
20181.58156
20181.57796
20181.5752
20181.57303
20181.5712
20181.56954
20181.56792
20181.56623
20181.56444
20181.56251
20181.56043
20181.55821
20181.55586
20181.55341
20181.55086
20181.54825
20181.54558
20181.54287
20181.54013
20181.53738
20181.53462
20181.53186
20181.52911
20181.52636
20181.52362
20181.52089
20181.51818
20181.51547
20181.51278
20181.5101
20181.50743
20181.50477
20181.50211
20181.49946
20181.4968
20181.49415
20181.49149
20181.48883
20181.48616
20181.48348
20181.48078
20181.47807
20181.47534
20181.47259
20181.46982
20181.46702
20181.4642
20181.46135
20181.45848
20181.45559
20181.45267
20181.44975
20181.44975
20183.10997
20183.10997
20183.09053
20183.07263
20183.05908
20183.04986
20183.04549
20183.04679
20183.0539
20183.0656
20183.0797
20183.09402
20183.10714
20183.11862
20183.12846
20183.13657
20183.143
20183.14803
20183.15225
20183.15557
20183.1549
20183.1376
20183.06954
20182.97992
20182.96439
20183.13218
20183.14458
20182.98627
20182.78505
20182.5772
20182.36539
20182.1496
20181.92981
20181.70613
20181.47867
20181.24747
20181.01255
20180.7739
20180.5316
20180.28612
20180.03731
20179.92933
20179.90196
20179.86742
20179.84222
20179.84207
20179.88602
20179.98133
20180.10944
20180.21958
20180.24313
20180.15818
20179.9806
20179.72038
20179.40526
20179.14235
20178.97521
20178.89532
20178.85548
20178.882
20178.94983
20178.97844
20178.9296
20178.83051
20178.81399
20178.95417
20179.07654
20179.09338
20179.075
20179.064
20179.06197
20179.0583
20179.04905
20179.03169
20178.98722
20178.92357
20178.7954
20178.65366
20178.54981
20178.45428
20178.35635
20178.27027
20178.21275
20178.19391
20178.21725
20178.28174
20178.38389
20178.51904
20178.68227
20178.86876
20179.07407
20179.29406
20179.52487
20179.7628
20180.00424
20180.24572
20180.48398
20180.71622
20180.94021
20181.15442
20181.3581
20181.55101
20181.73332
20181.90517
20182.06628
20182.21572
20182.35169
20182.47167
20182.57283
20182.6526
20182.70921
20182.74217
20182.75239
20182.74205
20182.71422
20182.67245
20182.62042
20182.56158
20182.49878
20182.43421
20182.36948
20182.30592
20182.24471
20182.18688
20182.13309
20182.08359
20182.03826
20181.99674
20181.95869
20181.92384
20181.89193
20181.86267
20181.83561
20181.81019
20181.78585
20181.76211
20181.73878
20181.71593
20181.69392
20181.67318
20181.65418
20181.63726
20181.62263
20181.61034
20181.6003
20181.59233
20181.58615
20181.58145
20181.57791
20181.57521
20181.57308
20181.57128
20181.56964
20181.56803
20181.56635
20181.56455
20181.56261
20181.56053
20181.5583
20181.55594
20181.55348
20181.55092
20181.5483
20181.54562
20181.54291
20181.54017
20181.53741
20181.53465
20181.53189
20181.52913
20181.52638
20181.52364
20181.52091
20181.51819
20181.51549
20181.5128
20181.51012
20181.50745
20181.50478
20181.50212
20181.49947
20181.49682
20181.49416
20181.49151
20181.48885
20181.48617
20181.48349
20181.4808
20181.47808
20181.47535
20181.4726
20181.46983
20181.46703
20181.46421
20181.46136
20181.45849
20181.45559
20181.45267
20181.44974
20181.44974
20183.08934
20183.08934
20183.07696
20183.06344
20183.05251
20183.04515
20183.04205
20183.04388
20183.05071
20183.06169
20183.07516
20183.08939
20183.10306
20183.11552
20183.12647
20183.13561
20183.14284
20183.14835
20183.1529
20183.15672
20183.15536
20183.13272
20183.05518
20182.97987
20182.96958
20183.05387
20183.0722
20182.95986
20182.77771
20182.5768
20182.36734
20182.15224
20181.9326
20181.70893
20181.48146
20181.25028
20181.01545
20180.77707
20180.53559
20180.29287
20180.04905
20179.94016
20179.9
20179.8524
20179.81195
20179.8007
20179.83633
20179.92554
20180.04735
20180.15171
20180.17188
20180.10077
20179.91917
20179.62984
20179.2937
20179.0234
20178.84372
20178.75101
20178.72539
20178.78033
20178.88656
20178.9453
20178.90097
20178.78931
20178.76236
20178.91199
20179.05338
20179.07675
20179.06354
20179.06064
20179.06309
20179.06071
20179.04778
20179.01496
20178.9485
20178.85178
20178.71235
20178.56533
20178.44694
20178.34513
20178.25363
20178.1807
20178.1376
20178.13178
20178.16593
20178.23907
20178.34798
20178.48837
20178.65559
20178.84514
20179.05282
20179.27475
20179.50726
20179.7468
20179.98981
20180.23279
20180.47238
20180.70564
20180.93024
20181.14455
20181.34782
20181.53994
20181.72117
20181.89192
20182.05213
20182.201
20182.33683
20182.45707
20182.55879
20182.63925
20182.69655
20182.73011
20182.74081
20182.73087
20182.70341
20182.662
20182.6104
20182.55211
20182.49004
20182.42629
20182.36238
20182.29955
20182.23902
20182.18182
20182.12866
20182.07973
20182.03486
20181.99367
20181.95582
20181.92108
20181.88929
20181.86021
20181.83342
20181.80833
20181.78428
20181.7608
20181.73766
20181.71497
20181.69309
20181.67248
20181.65358
20181.63677
20181.62223
20181.61004
20181.6001
20181.59222
20181.58612
20181.5815
20181.57801
20181.57536
20181.57326
20181.57148
20181.56985
20181.56824
20181.56655
20181.56474
20181.56278
20181.56068
20181.55843
20181.55606
20181.55358
20181.55102
20181.54838
20181.54569
20181.54297
20181.54022
20181.53746
20181.53469
20181.53193
20181.52916
20181.52641
20181.52367
20181.52094
20181.51822
20181.51552
20181.51282
20181.51014
20181.50747
20181.50481
20181.50215
20181.4995
20181.49684
20181.49419
20181.49153
20181.48887
20181.4862
20181.48352
20181.48083
20181.47811
20181.47538
20181.47263
20181.46986
20181.46706
20181.46424
20181.46138
20181.45851
20181.4556
20181.45267
20181.44971
20181.44971
20183.07196
20183.07196
20183.06379
20183.05372
20183.04512
20183.03936
20183.03727
20183.0394
20183.04581
20183.05588
20183.06843
20183.08213
20183.09589
20183.10904
20183.12112
20183.13169
20183.14042
20183.14726
20183.15259
20183.15638
20183.1534
20183.12881
20183.05386
20182.99651
20182.99709
20183.0465
20183.05615
20182.9505
20182.77615
20182.57895
20182.37083
20182.15606
20181.93641
20181.71267
20181.48517
20181.25401
20181.01925
20180.78104
20180.54005
20180.29888
20180.05383
20179.93536
20179.88505
20179.82602
20179.77143
20179.74763
20179.77224
20179.85224
20179.9658
20180.06461
20180.08681
20180.0169
20179.82612
20179.50781
20179.15988
20178.89071
20178.70499
20178.60235
20178.58013
20178.64374
20178.77752
20178.87808
20178.86196
20178.76656
20178.74521
20178.89333
20179.03237
20179.05407
20179.04683
20179.05561
20179.06415
20179.05571
20179.0247
20178.96188
20178.86381
20178.73981
20178.5932
20178.44746
20178.32578
20178.22492
20178.14207
20178.08237
20178.05343
20178.06065
20178.10597
20178.18828
20178.30454
20178.45071
20178.6224
20178.81538
20179.02575
20179.24989
20179.48438
20179.72582
20179.97073
20180.21556
20180.45683
20180.6914
20180.9168
20181.13128
20181.33406
20181.52515
20181.70501
20181.87431
20182.03327
20182.18131
20182.31683
20182.43727
20182.53956
20182.62079
20182.67889
20182.71314
20182.7244
20182.71495
20182.68797
20182.64706
20182.59603
20182.5385
20182.47745
20182.4149
20182.35219
20182.29046
20182.2309
20182.17463
20182.12235
20182.07423
20182.03002
20181.98928
20181.9517
20181.9171
20181.88544
20181.85655
20181.83004
20181.80527
20181.78155
20181.75837
20181.73552
20181.71315
20181.69161
20181.67134
20181.65277
20181.63625
20181.62196
20181.60996
20181.60018
20181.59241
20181.5864
20181.58184
20181.57839
20181.57575
20181.57366
20181.57187
20181.57022
20181.56858
20181.56687
20181.56503
20181.56304
20181.5609
20181.55863
20181.55623
20181.55373
20181.55115
20181.5485
20181.54579
20181.54306
20181.5403
20181.53753
20181.53476
20181.53198
20181.52922
20181.52646
20181.52372
20181.52098
20181.51826
20181.51556
20181.51286
20181.51018
20181.50751
20181.50485
20181.50219
20181.49954
20181.49688
20181.49423
20181.49158
20181.48891
20181.48625
20181.48356
20181.48087
20181.47816
20181.47543
20181.47268
20181.4699
20181.4671
20181.46427
20181.46142
20181.45853
20181.45561
20181.45266
20181.44968
20181.44968
20183.05671
20183.05671
20183.05118
20183.04375
20183.03714
20183.03278
20183.03151
20183.03384
20183.03983
20183.04902
20183.06055
20183.07342
20183.08678
20183.10004
20183.11276
20183.12449
20183.13479
20183.14334
20183.14988
20183.15355
20183.14902
20183.1257
20183.06369
20183.02273
20183.03325
20183.07368
20183.07273
20182.95691
20182.78143
20182.58433
20182.37614
20182.16112
20181.94124
20181.71735
20181.48978
20181.25863
20181.02391
20180.78575
20180.54478
20180.30389
20180.05268
20179.91821
20179.8575
20179.78893
20179.72173
20179.6845
20179.69619
20179.76463
20179.86908
20179.96198
20179.9846
20179.90948
20179.70551
20179.37053
20179.021
20178.76129
20178.57221
20178.45948
20178.43681
20178.4981
20178.64499
20178.79146
20178.82889
20178.77966
20178.7804
20178.91454
20179.02448
20179.02902
20179.0255
20179.04621
20179.05488
20179.02923
20178.96676
20178.86938
20178.74518
20178.60545
20178.45714
20178.31572
20178.19613
20178.09943
20178.02542
20177.97787
20177.96211
20177.98188
20178.03833
20178.13009
20178.25411
20178.40646
20178.58298
20178.77969
20178.99297
20179.21952
20179.4562
20179.69981
20179.94695
20180.19401
20180.43734
20180.67358
20180.90002
20181.1148
20181.31707
20181.50697
20181.6852
20181.8527
20182.01006
20182.15698
20182.29198
20182.4125
20182.51532
20182.59732
20182.65627
20182.69128
20182.70316
20182.69426
20182.66789
20182.62765
20182.57733
20182.5207
20182.46088
20182.39987
20182.33876
20182.27849
20182.22026
20182.16524
20182.11417
20182.06714
20182.02381
20181.98368
20181.94645
20181.91206
20181.88058
20181.85192
20181.82572
20181.80128
20181.77788
20181.75498
20181.73245
20181.71047
20181.6894
20181.66966
20181.65164
20181.63561
20181.62174
20181.61008
20181.60055
20181.59295
20181.58705
20181.58253
20181.5791
20181.57645
20181.57432
20181.57249
20181.57079
20181.56909
20181.56732
20181.56543
20181.56339
20181.56121
20181.5589
20181.55647
20181.55394
20181.55132
20181.54865
20181.54593
20181.54318
20181.54041
20181.53763
20181.53485
20181.53207
20181.52929
20181.52653
20181.52378
20181.52104
20181.51832
20181.51562
20181.51292
20181.51024
20181.50757
20181.5049
20181.50224
20181.49959
20181.49694
20181.49429
20181.49163
20181.48897
20181.48631
20181.48363
20181.48093
20181.47822
20181.47549
20181.47274
20181.46996
20181.46716
20181.46433
20181.46146
20181.45857
20181.45563
20181.45266
20181.44964
20181.44964
20183.0429
20183.0429
20183.03909
20183.03366
20183.0287
20183.02554
20183.02498
20183.02748
20183.03312
20183.04154
20183.05211
20183.06408
20183.07677
20183.0897
20183.10249
20183.11478
20183.12614
20183.13612
20183.14389
20183.14788
20183.14225
20183.12245
20183.07901
20183.05402
20183.07089
20183.11243
20183.10515
20182.97521
20182.79311
20182.593
20182.38331
20182.16744
20181.94707
20181.72293
20181.49528
20181.26413
20181.02943
20180.79119
20180.54978
20180.30823
20180.0478
20179.89282
20179.81998
20179.74293
20179.66438
20179.61342
20179.61101
20179.66619
20179.76038
20179.84753
20179.86863
20179.78575
20179.57011
20179.23087
20178.88972
20178.64401
20178.45079
20178.32834
20178.30407
20178.36001
20178.5112
20178.70211
20178.81192
20178.83347
20178.86832
20178.97864
20179.039
20179.01253
20179.00567
20179.02876
20179.02486
20178.97074
20178.87436
20178.74979
20178.60911
20178.46167
20178.31397
20178.17681
20178.06078
20177.96918
20177.90361
20177.86723
20177.86381
20177.89575
20177.96333
20178.06481
20178.19695
20178.35586
20178.53752
20178.73817
20178.9545
20179.18357
20179.42257
20179.66857
20179.91825
20180.16794
20180.41378
20180.65213
20180.87997
20181.09527
20181.29712
20181.48574
20181.66209
20181.82749
20181.9829
20182.12836
20182.2626
20182.38302
20182.48625
20182.56897
20182.62877
20182.66462
20182.67719
20182.66889
20182.64323
20182.6039
20182.55454
20182.49894
20182.44047
20182.38121
20182.32203
20182.26359
20182.20703
20182.1536
20182.10407
20182.05845
20182.01624
20181.97688
20181.94011
20181.90601
20181.87478
20181.84643
20181.82058
20181.79651
20181.77343
20181.75081
20181.72858
20181.70699
20181.68646
20181.66736
20181.65003
20181.63466
20181.62139
20181.61021
20181.60104
20181.5937
20181.58795
20181.58352
20181.5801
20181.57743
20181.57524
20181.57334
20181.57155
20181.56977
20181.56792
20181.56596
20181.56385
20181.56161
20181.55925
20181.55677
20181.5542
20181.55155
20181.54885
20181.54611
20181.54334
20181.54055
20181.53775
20181.53496
20181.53217
20181.52939
20181.52662
20181.52387
20181.52113
20181.5184
20181.51569
20181.51299
20181.51031
20181.50764
20181.50497
20181.50231
20181.49966
20181.49701
20181.49436
20181.49171
20181.48905
20181.48638
20181.4837
20181.48101
20181.4783
20181.47557
20181.47282
20181.47004
20181.46723
20181.4644
20181.46153
20181.45862
20181.45567
20181.45267
20181.44961
20181.44961
20183.03009
20183.03009
20183.02743
20183.02352
20183.01991
20183.01776
20183.0178
20183.02045
20183.0258
20183.0336
20183.04334
20183.05446
20183.06641
20183.07878
20183.09128
20183.1036
20183.11542
20183.12623
20183.13493
20183.1398
20183.13433
20183.12062
20183.09452
20183.08466
20183.10822
20183.15391
20183.1438
20183.00147
20182.80989
20182.60454
20182.39216
20182.1749
20181.95381
20181.72936
20181.50163
20181.27051
20181.03583
20180.79743
20180.55522
20180.31258
20180.04166
20179.86317
20179.77579
20179.69046
20179.60153
20179.53706
20179.52007
20179.56107
20179.64406
20179.72476
20179.74348
20179.65425
20179.43293
20179.09701
20178.77273
20178.5402
20178.34009
20178.20976
20178.18551
20178.23813
20178.38969
20178.62013
20178.81057
20178.91678
20178.99299
20179.07704
20179.08252
20179.01977
20178.99724
20179.00287
20178.97007
20178.88283
20178.75909
20178.61669
20178.46603
20178.31414