# vtk DataFile Version 2.0
FlowField
ASCII
DATASET STRUCTURED_GRID
DIMENSIONS 200 1 200
POINTS 40000 float
0 0 0
0.15 0 0
0.3 0 0
0.45 0 0
0.6 0 0
0.75 0 0
0.9 0 0
1.05 0 0
1.2 0 0
1.35 0 0
1.5 0 0
1.65 0 0
1.8 0 0
1.95 0 0
2.1 0 0
2.25 0 0
2.4 0 0
2.55 0 0
2.7 0 0
2.85 0 0
3 0 0
3.15 0 0
3.3 0 0
3.45 0 0
3.6 0 0
3.75 0 0
3.9 0 0
4.05 0 0
4.2 0 0
4.35 0 0
4.5 0 0
4.65 0 0
4.8 0 0
4.95 0 0
5.1 0 0
5.25 0 0
5.4 0 0
5.55 0 0
5.7 0 0
5.85 0 0
6 0 0
6.15 0 0
6.3 0 0
6.45 0 0
6.6 0 0
6.75 0 0
6.9 0 0
7.05 0 0
7.2 0 0
7.35 0 0
7.5 0 0
7.65 0 0
7.8 0 0
7.95 0 0
8.1 0 0
8.25 0 0
8.4 0 0
8.55 0 0
8.7 0 0
8.85 0 0
9 0 0
9.15 0 0
9.3 0 0
9.45 0 0
9.6 0 0
9.75 0 0
9.9 0 0
10.05 0 0
10.2 0 0
10.35 0 0
10.5 0 0
10.65 0 0
10.8 0 0
10.95 0 0
11.1 0 0
11.25 0 0
11.4 0 0
11.55 0 0
11.7 0 0
11.85 0 0
12 0 0
12.15 0 0
12.3 0 0
12.45 0 0
12.6 0 0
12.75 0 0
12.9 0 0
13.05 0 0
13.2 0 0
13.35 0 0
13.5 0 0
13.65 0 0
13.8 0 0
13.95 0 0
14.1 0 0
14.25 0 0
14.4 0 0
14.55 0 0
14.7 0 0
14.85 0 0
15 0 0
15.15 0 0
15.3 0 0
15.45 0 0
15.6 0 0
15.75 0 0
15.9 0 0
16.05 0 0
16.2 0 0
16.35 0 0
16.5 0 0
16.65 0 0
16.8 0 0
16.95 0 0
17.1 0 0
17.25 0 0
17.4 0 0
17.55 0 0
17.7 0 0
17.85 0 0
18 0 0
18.15 0 0
18.3 0 0
18.45 0 0
18.6 0 0
18.75 0 0
18.9 0 0
19.05 0 0
19.2 0 0
19.35 0 0
19.5 0 0
19.65 0 0
19.8 0 0
19.95 0 0
20.1 0 0
20.25 0 0
20.4 0 0
20.55 0 0
20.7 0 0
20.85 0 0
21 0 0
21.15 0 0
21.3 0 0
21.45 0 0
21.6 0 0
21.75 0 0
21.9 0 0
22.05 0 0
22.2 0 0
22.35 0 0
22.5 0 0
22.65 0 0
22.8 0 0
22.95 0 0
23.1 0 0
23.25 0 0
23.4 0 0
23.55 0 0
23.7 0 0
23.85 0 0
24 0 0
24.15 0 0
24.3 0 0
24.45 0 0
24.6 0 0
24.75 0 0
24.9 0 0
25.05 0 0
25.2 0 0
25.35 0 0
25.5 0 0
25.65 0 0
25.8 0 0
25.95 0 0
26.1 0 0
26.25 0 0
26.4 0 0
26.55 0 0
26.7 0 0
26.85 0 0
27 0 0
27.15 0 0
27.3 0 0
27.45 0 0
27.6 0 0
27.75 0 0
27.9 0 0
28.05 0 0
28.2 0 0
28.35 0 0
28.5 0 0
28.65 0 0
28.8 0 0
28.95 0 0
29.1 0 0
29.25 0 0
29.4 0 0
29.55 0 0
29.7 0 0
29.85 0 0
0 0.075 0
0.15 0.075 0
0.3 0.075 0
0.45 0.075 0
0.6 0.075 0
0.75 0.075 0
0.9 0.075 0
1.05 0.075 0
1.2 0.075 0
1.35 0.075 0
1.5 0.075 0
1.65 0.075 0
1.8 0.075 0
1.95 0.075 0
2.1 0.075 0
2.25 0.075 0
2.4 0.075 0
2.55 0.075 0
2.7 0.075 0
2.85 0.075 0
3 0.075 0
3.15 0.075 0
3.3 0.075 0
3.45 0.075 0
3.6 0.075 0
3.75 0.075 0
3.9 0.075 0
4.05 0.075 0
4.2 0.075 0
4.35 0.075 0
4.5 0.075 0
4.65 0.075 0
4.8 0.075 0
4.95 0.075 0
5.1 0.075 0
5.25 0.075 0
5.4 0.075 0
5.55 0.075 0
5.7 0.075 0
5.85 0.075 0
6 0.075 0
6.15 0.075 0
6.3 0.075 0
6.45 0.075 0
6.6 0.075 0
6.75 0.075 0
6.9 0.075 0
7.05 0.075 0
7.2 0.075 0
7.35 0.075 0
7.5 0.075 0
7.65 0.075 0
7.8 0.075 0
7.95 0.075 0
8.1 0.075 0
8.25 0.075 0
8.4 0.075 0
8.55 0.075 0
8.7 0.075 0
8.85 0.075 0
9 0.075 0
9.15 0.075 0
9.3 0.075 0
9.45 0.075 0
9.6 0.075 0
9.75 0.075 0
9.9 0.075 0
10.05 0.075 0
10.2 0.075 0
10.35 0.075 0
10.5 0.075 0
10.65 0.075 0
10.8 0.075 0
10.95 0.075 0
11.1 0.075 0
11.25 0.075 0
11.4 0.075 0
11.55 0.075 0
11.7 0.075 0
11.85 0.075 0
12 0.075 0
12.15 0.075 0
12.3 0.075 0
12.45 0.075 0
12.6 0.075 0
12.75 0.075 0
12.9 0.075 0
13.05 0.075 0
13.2 0.075 0
13.35 0.075 0
13.5 0.075 0
13.65 0.075 0
13.8 0.075 0
13.95 0.075 0
14.1 0.075 0
14.25 0.075 0
14.4 0.075 0
14.55 0.075 0
14.7 0.075 0
14.85 0.075 0
15 0.075 0
15.15 0.075 0
15.3 0.075 0
15.45 0.075 0
15.6 0.075 0
15.75 0.075 0
15.9 0.075 0
16.05 0.075 0
16.2 0.075 0
16.35 0.075 0
16.5 0.075 0
16.65 0.075 0
16.8 0.075 0
16.95 0.075 0
17.1 0.075 0
17.25 0.075 0
17.4 0.075 0
17.55 0.075 0
17.7 0.075 0
17.85 0.075 0
18 0.075 0
18.15 0.075 0
18.3 0.075 0
18.45 0.075 0
18.6 0.075 0
18.75 0.075 0
18.9 0.075 0
19.05 0.075 0
19.2 0.075 0
19.35 0.075 0
19.5 0.075 0
19.65 0.075 0
19.8 0.075 0
19.95 0.075 0
20.1 0.075 0
20.25 0.075 0
20.4 0.075 0
20.55 0.075 0
20.7 0.075 0
20.85 0.075 0
21 0.075 0
21.15 0.075 0
21.3 0.075 0
21.45 0.075 0
21.6 0.075 0
21.75 0.075 0
21.9 0.075 0
22.05 0.075 0
22.2 0.075 0
22.35 0.075 0
22.5 0.075 0
22.65 0.075 0
22.8 0.075 0
22.95 0.075 0
23.1 0.075 0
23.25 0.075 0
23.4 0.075 0
23.55 0.075 0
23.7 0.075 0
23.85 0.075 0
24 0.075 0
24.15 0.075 0
24.3 0.075 0
24.45 0.075 0
24.6 0.075 0
24.75 0.075 0
24.9 0.075 0
25.05 0.075 0
25.2 0.075 0
25.35 0.075 0
25.5 0.075 0
25.65 0.075 0
25.8 0.075 0
25.95 0.075 0
26.1 0.075 0
26.25 0.075 0
26.4 0.075 0
26.55 0.075 0
26.7 0.075 0
26.85 0.075 0
27 0.075 0
27.15 0.075 0
27.3 0.075 0
27.45 0.075 0
27.6 0.075 0
27.75 0.075 0
27.9 0.075 0
28.05 0.075 0
28.2 0.075 0
28.35 0.075 0
28.5 0.075 0
28.65 0.075 0
28.8 0.075 0
28.95 0.075 0
29.1 0.075 0
29.25 0.075 0
29.4 0.075 0
29.55 0.075 0
29.7 0.075 0
29.85 0.075 0
0 0.15 0
0.15 0.15 0
0.3 0.15 0
0.45 0.15 0
0.6 0.15 0
0.75 0.15 0
0.9 0.15 0
1.05 0.15 0
1.2 0.15 0
1.35 0.15 0
1.5 0.15 0
1.65 0.15 0
1.8 0.15 0
1.95 0.15 0
2.1 0.15 0
2.25 0.15 0
2.4 0.15 0
2.55 0.15 0
2.7 0.15 0
2.85 0.15 0
3 0.15 0
3.15 0.15 0
3.3 0.15 0
3.45 0.15 0
3.6 0.15 0
3.75 0.15 0
3.9 0.15 0
4.05 0.15 0
4.2 0.15 0
4.35 0.15 0
4.5 0.15 0
4.65 0.15 0
4.8 0.15 0
4.95 0.15 0
5.1 0.15 0
5.25 0.15 0
5.4 0.15 0
5.55 0.15 0
5.7 0.15 0
5.85 0.15 0
6 0.15 0
6.15 0.15 0
6.3 0.15 0
6.45 0.15 0
6.6 0.15 0
6.75 0.15 0
6.9 0.15 0
7.05 0.15 0
7.2 0.15 0
7.35 0.15 0
7.5 0.15 0
7.65 0.15 0
7.8 0.15 0
7.95 0.15 0
8.1 0.15 0
8.25 0.15 0
8.4 0.15 0
8.55 0.15 0
8.7 0.15 0
8.85 0.15 0
9 0.15 0
9.15 0.15 0
9.3 0.15 0
9.45 0.15 0
9.6 0.15 0
9.75 0.15 0
9.9 0.15 0
10.05 0.15 0
10.2 0.15 0
10.35 0.15 0
10.5 0.15 0
10.65 0.15 0
10.8 0.15 0
10.95 0.15 0
11.1 0.15 0
11.25 0.15 0
11.4 0.15 0
11.55 0.15 0
11.7 0.15 0
11.85 0.15 0
12 0.15 0
12.15 0.15 0
12.3 0.15 0
12.45 0.15 0
12.6 0.15 0
12.75 0.15 0
12.9 0.15 0
13.05 0.15 0
13.2 0.15 0
13.35 0.15 0
13.5 0.15 0
13.65 0.15 0
13.8 0.15 0
13.95 0.15 0
14.1 0.15 0
14.25 0.15 0
14.4 0.15 0
14.55 0.15 0
14.7 0.15 0
14.85 0.15 0
15 0.15 0
15.15 0.15 0
15.3 0.15 0
15.45 0.15 0
15.6 0.15 0
15.75 0.15 0
15.9 0.15 0
16.05 0.15 0
16.2 0.15 0
16.35 0.15 0
16.5 0.15 0
16.65 0.15 0
16.8 0.15 0
16.95 0.15 0
17.1 0.15 0
17.25 0.15 0
17.4 0.15 0
17.55 0.15 0
17.7 0.15 0
17.85 0.15 0
18 0.15 0
18.15 0.15 0
18.3 0.15 0
18.45 0.15 0
18.6 0.15 0
18.75 0.15 0
18.9 0.15 0
19.05 0.15 0
19.2 0.15 0
19.35 0.15 0
19.5 0.15 0
19.65 0.15 0
19.8 0.15 0
19.95 0.15 0
20.1 0.15 0
20.25 0.15 0
20.4 0.15 0
20.55 0.15 0
20.7 0.15 0
20.85 0.15 0
21 0.15 0
21.15 0.15 0
21.3 0.15 0
21.45 0.15 0
21.6 0.15 0
21.75 0.15 0
21.9 0.15 0
22.05 0.15 0
22.2 0.15 0
22.35 0.15 0
22.5 0.15 0
22.65 0.15 0
22.8 0.15 0
22.95 0.15 0
23.1 0.15 0
23.25 0.15 0
23.4 0.15 0
23.55 0.15 0
23.7 0.15 0
23.85 0.15 0
24 0.15 0
24.15 0.15 0
24.3 0.15 0
24.45 0.15 0
24.6 0.15 0
24.75 0.15 0
24.9 0.15 0
25.05 0.15 0
25.2 0.15 0
25.35 0.15 0
25.5 0.15 0
25.65 0.15 0
25.8 0.15 0
25.95 0.15 0
26.1 0.15 0
26.25 0.15 0
26.4 0.15 0
26.55 0.15 0
26.7 0.15 0
26.85 0.15 0
27 0.15 0
27.15 0.15 0
27.3 0.15 0
27.45 0.15 0
27.6 0.15 0
27.75 0.15 0
27.9 0.15 0
28.05 0.15 0
28.2 0.15 0
28.35 0.15 0
28.5 0.15 0
28.65 0.15 0
28.8 0.15 0
28.95 0.15 0
29.1 0.15 0
29.25 0.15 0
29.4 0.15 0
29.55 0.15 0
29.7 0.15 0
29.85 0.15 0
0 0.225 0
0.15 0.225 0
0.3 0.225 0
0.45 0.225 0
0.6 0.225 0
0.75 0.225 0
0.9 0.225 0
1.05 0.225 0
1.2 0.225 0
1.35 0.225 0
1.5 0.225 0
1.65 0.225 0
1.8 0.225 0
1.95 0.225 0
2.1 0.225 0
2.25 0.225 0
2.4 0.225 0
2.55 0.225 0
2.7 0.225 0
2.85 0.225 0
3 0.225 0
3.15 0.225 0
3.3 0.225 0
3.45 0.225 0
3.6 0.225 0
3.75 0.225 0
3.9 0.225 0
4.05 0.225 0
4.2 0.225 0
4.35 0.225 0
4.5 0.225 0
4.65 0.225 0
4.8 0.225 0
4.95 0.225 0
5.1 0.225 0
5.25 0.225 0
5.4 0.225 0
5.55 0.225 0
5.7 0.225 0
5.85 0.225 0
6 0.225 0
6.15 0.225 0
6.3 0.225 0
6.45 0.225 0
6.6 0.225 0
6.75 0.225 0
6.9 0.225 0
7.05 0.225 0
7.2 0.225 0
7.35 0.225 0
7.5 0.225 0
7.65 0.225 0
7.8 0.225 0
7.95 0.225 0
8.1 0.225 0
8.25 0.225 0
8.4 0.225 0
8.55 0.225 0
8.7 0.225 0
8.85 0.225 0
9 0.225 0
9.15 0.225 0
9.3 0.225 0
9.45 0.225 0
9.6 0.225 0
9.75 0.225 0
9.9 0.225 0
10.05 0.225 0
10.2 0.225 0
10.35 0.225 0
10.5 0.225 0
10.65 0.225 0
10.8 0.225 0
10.95 0.225 0
11.1 0.225 0
11.25 0.225 0
11.4 0.225 0
11.55 0.225 0
11.7 0.225 0
11.85 0.225 0
12 0.225 0
12.15 0.225 0
12.3 0.225 0
12.45 0.225 0
12.6 0.225 0
12.75 0.225 0
12.9 0.225 0
13.05 0.225 0
13.2 0.225 0
13.35 0.225 0
13.5 0.225 0
13.65 0.225 0
13.8 0.225 0
13.95 0.225 0
14.1 0.225 0
14.25 0.225 0
14.4 0.225 0
14.55 0.225 0
14.7 0.225 0
14.85 0.225 0
15 0.225 0
15.15 0.225 0
15.3 0.225 0
15.45 0.225 0
15.6 0.225 0
15.75 0.225 0
15.9 0.225 0
16.05 0.225 0
16.2 0.225 0
16.35 0.225 0
16.5 0.225 0
16.65 0.225 0
16.8 0.225 0
16.95 0.225 0
17.1 0.225 0
17.25 0.225 0
17.4 0.225 0
17.55 0.225 0
17.7 0.225 0
17.85 0.225 0
18 0.225 0
18.15 0.225 0
18.3 0.225 0
18.45 0.225 0
18.6 0.225 0
18.75 0.225 0
18.9 0.225 0
19.05 0.225 0
19.2 0.225 0
19.35 0.225 0
19.5 0.225 0
19.65 0.225 0
19.8 0.225 0
19.95 0.225 0
20.1 0.225 0
20.25 0.225 0
20.4 0.225 0
20.55 0.225 0
20.7 0.225 0
20.85 0.225 0
21 0.225 0
21.15 0.225 0
21.3 0.225 0
21.45 0.225 0
21.6 0.225 0
21.75 0.225 0
21.9 0.225 0
22.05 0.225 0
22.2 0.225 0
22.35 0.225 0
22.5 0.225 0
22.65 0.225 0
22.8 0.225 0
22.95 0.225 0
23.1 0.225 0
23.25 0.225 0
23.4 0.225 0
23.55 0.225 0
23.7 0.225 0
23.85 0.225 0
24 0.225 0
24.15 0.225 0
24.3 0.225 0
24.45 0.225 0
24.6 0.225 0
24.75 0.225 0
24.9 0.225 0
25.05 0.225 0
25.2 0.225 0
25.35 0.225 0
25.5 0.225 0
25.65 0.225 0
25.8 0.225 0
25.95 0.225 0
26.1 0.225 0
26.25 0.225 0
26.4 0.225 0
26.55 0.225 0
26.7 0.225 0
26.85 0.225 0
27 0.225 0
27.15 0.225 0
27.3 0.225 0
27.45 0.225 0
27.6 0.225 0
27.75 0.225 0
27.9 0.225 0
28.05 0.225 0
28.2 0.225 0
28.35 0.225 0
28.5 0.225 0
28.65 0.225 0
28.8 0.225 0
28.95 0.225 0
29.1 0.225 0
29.25 0.225 0
29.4 0.225 0
29.55 0.225 0
29.7 0.225 0
29.85 0.225 0
0 0.3 0
0.15 0.3 0
0.3 0.3 0
0.45 0.3 0
0.6 0.3 0
0.75 0.3 0
0.9 0.3 0
1.05 0.3 0
1.2 0.3 0
1.35 0.3 0
1.5 0.3 0
1.65 0.3 0
1.8 0.3 0
1.95 0.3 0
2.1 0.3 0
2.25 0.3 0
2.4 0.3 0
2.55 0.3 0
2.7 0.3 0
2.85 0.3 0
3 0.3 0
3.15 0.3 0
3.3 0.3 0
3.45 0.3 0
3.6 0.3 0
3.75 0.3 0
3.9 0.3 0
4.05 0.3 0
4.2 0.3 0
4.35 0.3 0
4.5 0.3 0
4.65 0.3 0
4.8 0.3 0
4.95 0.3 0
5.1 0.3 0
5.25 0.3 0
5.4 0.3 0
5.55 0.3 0
5.7 0.3 0
5.85 0.3 0
6 0.3 0
6.15 0.3 0
[...]
POINT_DATA 40000

SCALARS p float 1
LOOKUP_TABLE default
20183.14855
20183.14855
20183.09307
20183.06526
20183.04684
20183.03395
20183.02678
20183.02659
20183.03351
20183.04573
20183.06033
20183.07475
20183.0876
20183.0987
20183.10839
20183.11671
20183.12357
20183.12915
20183.13374
20183.13649
20183.13437
20183.12507
20183.09403
20183.03352
20183.09635
20183.53541
20183.41272
20183.03756
20182.78526
20182.56276
20182.34618
20182.1287
20181.90836
20181.68464
20181.45744
20181.22665
20180.99198
20180.75259
20180.50635
20180.24788
20179.96324
20179.80796
20179.84758
20179.79444
20179.73896
20179.678
20179.61736
20179.5585
20179.52763
20179.57149
20179.72413
20179.98772
20180.32151
20180.64007
20180.83988
20180.8306
20180.61103
20180.24298
20179.89458
20179.68508
20179.60656
20179.52281
20179.37278
20179.35747
20179.37886
20179.38043
20179.33464
20179.25648
20179.23133
20179.34205
20179.42896
20179.42157
20179.37971
20179.34113
20179.31694
20179.30323
20179.29018
20179.27416
20179.24994
20179.20827
20179.16874
20179.07338
20178.92429
20178.82071
20178.74451
20178.65201
20178.54527
20178.44644
20178.37487
20178.34169
20178.35117
20178.40323
20178.49533
20178.62355
20178.78327
20178.96957
20179.17741
20179.40174
20179.63769
20179.88063
20180.12624
20180.37061
20180.61037
20180.84272
20181.06546
20181.27697
20181.47639
20181.66328
20181.83757
20181.99947
20182.14917
20182.28663
20182.41144
20182.52271
20182.61905
20182.69877
20182.76013
20182.80169
20182.82275
20182.82348
20182.80511
20182.7698
20182.72051
20182.66058
20182.59342
20182.52216
20182.44953
20182.37778
20182.3086
20182.24315
20182.182
20182.12538
20182.07334
20182.02596
20181.98324
20181.94495
20181.91057
20181.87933
20181.85047
20181.82347
20181.79806
20181.77408
20181.75138
20181.7299
20181.70958
20181.69031
20181.67175
20181.65343
20181.63499
20181.61634
20181.59764
20181.57917
20181.5612
20181.54396
20181.52771
20181.51273
20181.49933
20181.48788
20181.47869
20181.47192
20181.46755
20181.46535
20181.46491
20181.46576
20181.46741
20181.46942
20181.47145
20181.47325
20181.47464
20181.47553
20181.47586
20181.47563
20181.47485
20181.47355
20181.47177
20181.46956
20181.46697
20181.46403
20181.46079
20181.45729
20181.45355
20181.44959
20181.44545
20181.44113
20181.43666
20181.43203
20181.42726
20181.42235
20181.41731
20181.41214
20181.40685
20181.40143
20181.3959
20181.39026
20181.3845
20181.37866
20181.37274
20181.36677
20181.36075
20181.36075
20183.14855
20183.14855
20183.09307
20183.06526
20183.04684
20183.03395
20183.02678
20183.02659
20183.03351
20183.04573
20183.06033
20183.07475
20183.0876
20183.0987
20183.10839
20183.11671
20183.12357
20183.12915
20183.13374
20183.13649
20183.13437
20183.12507
20183.09403
20183.03352
20183.09635
20183.53541
20183.41272
20183.03756
20182.78526
20182.56276
20182.34618
20182.1287
20181.90836
20181.68464
20181.45744
20181.22665
20180.99198
20180.75259
20180.50635
20180.24788
20179.96324
20179.80796
20179.84758
20179.79444
20179.73896
20179.678
20179.61736
20179.5585
20179.52763
20179.57149
20179.72413
20179.98772
20180.32151
20180.64007
20180.83988
20180.8306
20180.61103
20180.24298
20179.89458
20179.68508
20179.60656
20179.52281
20179.37278
20179.35747
20179.37886
20179.38043
20179.33464
20179.25648
20179.23133
20179.34205
20179.42896
20179.42157
20179.37971
20179.34113
20179.31694
20179.30323
20179.29018
20179.27416
20179.24994
20179.20827
20179.16874
20179.07338
20178.92429
20178.82071
20178.74451
20178.65201
20178.54527
20178.44644
20178.37487
20178.34169
20178.35117
20178.40323
20178.49533
20178.62355
20178.78327
20178.96957
20179.17741
20179.40174
20179.63769
20179.88063
20180.12624
20180.37061
20180.61037
20180.84272
20181.06546
20181.27697
20181.47639
20181.66328
20181.83757
20181.99947
20182.14917
20182.28663
20182.41144
20182.52271
20182.61905
20182.69877
20182.76013
20182.80169
20182.82275
20182.82348
20182.80511
20182.7698
20182.72051
20182.66058
20182.59342
20182.52216
20182.44953
20182.37778
20182.3086
20182.24315
20182.182
20182.12538
20182.07334
20182.02596
20181.98324
20181.94495
20181.91057
20181.87933
20181.85047
20181.82347
20181.79806
20181.77408
20181.75138
20181.7299
20181.70958
20181.69031
20181.67175
20181.65343
20181.63499
20181.61634
20181.59764
20181.57917
20181.5612
20181.54396
20181.52771
20181.51273
20181.49933
20181.48788
20181.47869
20181.47192
20181.46755
20181.46535
20181.46491
20181.46576
20181.46741
20181.46942
20181.47145
20181.47325
20181.47464
20181.47553
20181.47586
20181.47563
20181.47485
20181.47355
20181.47177
20181.46956
20181.46697
20181.46403
20181.46079
20181.45729
20181.45355
20181.44959
20181.44545
20181.44113
20181.43666
20181.43203
20181.42726
20181.42235
20181.41731
20181.41214
20181.40685
20181.40143
20181.3959
20181.39026
20181.3845
20181.37866
20181.37274
20181.36677
20181.36075
20181.36075
20183.11597
20183.11597
20183.08404
20183.06084
20183.04445
20183.03313
20183.0272
20183.02774
20183.03488
20183.047
20183.06144
20183.07573
20183.08849
20183.09951
20183.10913
20183.11735
20183.12406
20183.12948
20183.13399
20183.13717
20183.13652
20183.125
20183.07567
20182.99176
20183.00073
20183.30974
20183.26967
20183.00772
20182.77811
20182.56135
20182.34641
20182.12941
20181.90918
20181.68549
20181.45831
20181.22761
20180.99314
20180.75427
20180.50936
20180.2543
20179.97643
20179.84468
20179.84787
20179.79723
20179.74399
20179.67644
20179.60253
20179.53213
20179.49509
20179.53574
20179.68537
20179.94446
20180.27296
20180.59048
20180.79211
20180.7861
20180.55431
20180.17481
20179.84343
20179.63713
20179.53439
20179.44549
20179.35026
20179.3587
20179.3818
20179.38938
20179.33763
20179.23436
20179.18753
20179.30338
20179.41663
20179.4183
20179.37744
20179.3396
20179.31576
20179.30254
20179.28985
20179.27359
20179.25161
20179.20782
20179.16902
20179.08556
20178.93444
20178.81404
20178.72241
20178.62249
20178.51503
20178.41888
20178.35104
20178.32147
20178.33404
20178.38861
20178.48269
20178.61248
20178.77346
20178.96081
20179.16953
20179.39464
20179.6313
20179.87489
20180.1211
20180.36603
20180.60626
20180.839
20181.06202
20181.2737
20181.47316
20181.65995
20181.83404
20181.99566
20182.14504
20182.28218
20182.40673
20182.51781
20182.61408
20182.69383
20182.7553
20182.79706
20182.81836
20182.81938
20182.80132
20182.76632
20182.71731
20182.65765
20182.59076
20182.51977
20182.44742
20182.37594
20182.30708
20182.24196
20182.18114
20182.1248
20182.07297
20182.02572
20181.98311
20181.94494
20181.91069
20181.87956
20181.85079
20181.82383
20181.79842
20181.77443
20181.75173
20181.73024
20181.70993
20181.69069
20181.67218
20181.6539
20181.63546
20181.61676
20181.59799
20181.57946
20181.56143
20181.54414
20181.52783
20181.51277
20181.49928
20181.48774
20181.47847
20181.47166
20181.46728
20181.46511
20181.46472
20181.46563
20181.46733
20181.46939
20181.47146
20181.47329
20181.4747
20181.4756
20181.47593
20181.4757
20181.47492
20181.47362
20181.47183
20181.46962
20181.46702
20181.46408
20181.46084
20181.45733
20181.45358
20181.44963
20181.44548
20181.44116
20181.43668
20181.43205
20181.42728
20181.42237
20181.41732
20181.41216
20181.40686
20181.40144
20181.39591
20181.39026
20181.38451
20181.37867
20181.37274
20181.36676
20181.36074
20181.36074
20183.09033
20183.09033
20183.07087
20183.05295
20183.03936
20183.03012
20183.02572
20183.02701
20183.0341
20183.04581
20183.05996
20183.07439
20183.08767
20183.09935
20183.10943
20183.11783
20183.12459
20183.12997
20183.13459
20183.13849
20183.13846
20183.12124
20183.05116
20182.95875
20182.94336
20183.11381
20183.12763
20182.96992
20182.76815
20182.55961
20182.34719
20182.13093
20181.91088
20181.68721
20181.46007
20181.2295
20180.99541
20180.75748
20180.51497
20180.26635
20180.0047
20179.88863
20179.86939
20179.81157
20179.74633
20179.65931
20179.561
20179.47164
20179.42451
20179.45956
20179.60338
20179.85432
20180.17395
20180.48702
20180.68966
20180.68712
20180.43419
20180.05556
20179.75246
20179.55466
20179.41685
20179.327
20179.28296
20179.32148
20179.37633
20179.39671
20179.32941
20179.18384
20179.10253
20179.2267
20179.3829
20179.40396
20179.36849
20179.33617
20179.31556
20179.30286
20179.2906
20179.27393
20179.25402
20179.21307
20179.15434
20179.05703
20178.90485
20178.76802
20178.65627
20178.54816
20178.44363
20178.35576
20178.29734
20178.27637
20178.29611
20178.35643
20178.45507
20178.58849
20178.75243
20178.94222
20179.15303
20179.37998
20179.6183
20179.86339
20180.11096
20180.35711
20180.5984
20180.83197
20181.05559
20181.26762
20181.46713
20181.65372
20181.8274
20181.98846
20182.1372
20182.27374
20182.39778
20182.50851
20182.60461
20182.68436
20182.74597
20182.78796
20182.80955
20182.8109
20182.79315
20182.75846
20182.70973
20182.65037
20182.58383
20182.51324
20182.44136
20182.37043
20182.30219
20182.23775
20182.17761
20182.12187
20182.07055
20182.02369
20181.98139
20181.94349
20181.90948
20181.87861
20181.85006
20181.82325
20181.79792
20181.77396
20181.75131
20181.72991
20181.70973
20181.69064
20181.67226
20181.65404
20181.63558
20181.61682
20181.59798
20181.57938
20181.5613
20181.54398
20181.52762
20181.51249
20181.49892
20181.48729
20181.47797
20181.47115
20181.46682
20181.46474
20181.46447
20181.4655
20181.46731
20181.46945
20181.47158
20181.47345
20181.47488
20181.47578
20181.47612
20181.47588
20181.47509
20181.47377
20181.47198
20181.46975
20181.46714
20181.46419
20181.46094
20181.45742
20181.45367
20181.4497
20181.44555
20181.44123
20181.43674
20181.43211
20181.42733
20181.42242
20181.41738
20181.41221
20181.40691
20181.40149
20181.39595
20181.3903
20181.38453
20181.37868
20181.37273
20181.36674
20181.36069
20181.36069
20183.06972
20183.06972
20183.05732
20183.04378
20183.03283
20183.02544
20183.02233
20183.02413
20183.03096
20183.04193
20183.05544
20183.06976
20183.08358
20183.09622
20183.10741
20183.11684
20183.12439
20183.13025
20183.13519
20183.13956
20183.13881
20183.11616
20183.03669
20182.95894
20182.94904
20183.0349
20183.05459
20182.94325
20182.76069
20182.55912
20182.34902
20182.13341
20181.91348
20181.6898
20181.46268
20181.23228
20180.99867
20180.76192
20180.52232
20180.28128
20180.03661
20179.93233
20179.90323
20179.83234
20179.74083
20179.62386
20179.49686
20179.3862
20179.32559
20179.35092
20179.48466
20179.7234
20180.03053
20180.33437
20180.53417
20180.53184
20180.27601
20179.92426
20179.65566
20179.46993
20179.30765
20179.20238
20179.16777
20179.23148
20179.33342
20179.37586
20179.30007
20179.12359
20179.01406
20179.14051
20179.33395
20179.38016
20179.35388
20179.33073
20179.31612
20179.30414
20179.29149
20179.2759
20179.24583
20179.1883
20179.10166
20178.98051
20178.82492
20178.68001
20178.55774
20178.4481
20178.35086
20178.27437
20178.22779
20178.21736
20178.24585
20178.31323
20178.41751
20178.55545
20178.72311
20178.91601
20179.1295
20179.35887
20179.59938
20179.84647
20180.09588
20180.3437
20180.58642
20180.82114
20181.04559
20181.2581
20181.4577
20181.64401
20181.8171
20181.97736
20182.12518
20182.26081
20182.38406
20182.4942
20182.58994
20182.66957
20182.73125
20182.77345
20182.79534
20182.79708
20182.77979
20182.74555
20182.69727
20182.63839
20182.5724
20182.50249
20182.43135
20182.36123
20182.29388
20182.23038
20182.1712
20182.11635
20182.06581
20182.01963
20181.97788
20181.94045
20181.90684
20181.87631
20181.84804
20181.82144
20181.79624
20181.7724
20181.74989
20181.72868
20181.70872
20181.68982
20181.67156
20181.65339
20181.63495
20181.61621
20181.5974
20181.57883
20181.5608
20181.54353
20181.52722
20181.5121
20181.49851
20181.48685
20181.47751
20181.47071
20181.46646
20181.46449
20181.46436
20181.46552
20181.46744
20181.46967
20181.47185
20181.47374
20181.47518
20181.47608
20181.47641
20181.47615
20181.47534
20181.47401
20181.47219
20181.46995
20181.46732
20181.46435
20181.46109
20181.45756
20181.4538
20181.44983
20181.44567
20181.44134
20181.43685
20181.43222
20181.42744
20181.42252
20181.41747
20181.4123
20181.40699
20181.40157
20181.39602
20181.39035
20181.38457
20181.37869
20181.37271
20181.36668
20181.36058
20181.36058
20183.05235
20183.05235
20183.04418
20183.03409
20183.02547
20183.01969
20183.01758
20183.01969
20183.0261
20183.03617
20183.04875
20183.06252
20183.07641
20183.08972
20183.10202
20183.11286
20183.12191
20183.1291
20183.13482
20183.13915
20183.13673
20183.11222
20183.03579
20182.9764
20182.97746
20183.02852
20183.03923
20182.93399
20182.75909
20182.56117
20182.35235
20182.13701
20181.91702
20181.69325
20181.46612
20181.23589
20181.00276
20180.7672
20180.53037
20180.29624
20180.06373
20179.96392
20179.92827
20179.84362
20179.72173
20179.57185
20179.41541
20179.28143
20179.20369
20179.21517
20179.33476
20179.55763
20179.84921
20180.14254
20180.33866
20180.3381
20180.11275
20179.79564
20179.56357
20179.38738
20179.20999
20179.0873
20179.04067
20179.10211
20179.2382
20179.31491
20179.25018
20179.07627
20178.96159
20179.08301
20179.28951
20179.35381
20179.33701
20179.32383
20179.31673
20179.30644
20179.29021
20179.26284
20179.20923
20179.12204
20179.00652
20178.86784
20178.7125
20178.56796
20178.44436
20178.33818
20178.24976
20178.18473
20178.14978
20178.14981
20178.18716
20178.26184
20178.37208
20178.51491
20178.68664
20178.88305
20179.09962
20179.33179
20179.57491
20179.82444
20180.0761
20180.32597
20180.5705
20180.80669
20181.03221
20181.24536
20181.44511
20181.63111
20181.8035
20181.96275
20182.10941
20182.24385
20182.36602
20182.4753
20182.57047
20182.64982
20182.71146
20182.75377
20182.77591
20182.77805
20182.76132
20182.72773
20182.6801
20182.6219
20182.55673
20182.48779
20182.41774
20182.34875
20182.28255
20182.22024
20182.16225
20182.10852
20182.05898
20182.0137
20181.97277
20181.93604
20181.90297
20181.87283
20181.84482
20181.81841
20181.79339
20181.76975
20181.74751
20181.72659
20181.7069
20181.68816
20181.66997
20181.65183
20181.63343
20181.61477
20181.59608
20181.57768
20181.55987
20181.54283
20181.52675
20181.51181
20181.49832
20181.48671
20181.4774
20181.47065
20181.46648
20181.46462
20181.4646
20181.46586
20181.46786
20181.47012
20181.47232
20181.4742
20181.47562
20181.4765
20181.47679
20181.47651
20181.47567
20181.47431
20181.47247
20181.4702
20181.46755
20181.46457
20181.46129
20181.45775
20181.45398
20181.45
20181.44584
20181.4415
20181.43701
20181.43237
20181.42759
20181.42267
20181.41762
20181.41244
20181.40712
20181.40169
20181.39612
20181.39044
20181.38463
20181.37872
20181.37269
20181.36659
20181.36038
20181.36038
20183.03713
20183.03713
20183.03159
20183.02415
20183.01752
20183.01314
20183.01186
20183.01418
20183.02017
20183.02936
20183.04092
20183.05385
20183.06732
20183.08073
20183.09364
20183.10562
20183.11622
20183.12512
20183.13206
20183.13623
20183.13227
20183.10916
20183.04625
20183.00391
20183.01519
20183.0575
20183.05709
20182.94074
20182.76441
20182.56645
20182.35747
20182.14181
20181.92151
20181.69753
20181.47034
20181.24023
20181.00753
20180.77295
20180.53826
20180.30915
20180.08171
20179.97741
20179.93356
20179.83604
20179.6863
20179.50542
20179.32019
20179.16168
20179.06462
20179.05972
20179.16255
20179.36707
20179.64058
20179.92128
20180.1167
20180.13298
20179.94744
20179.66951
20179.48081
20179.30141
20179.11189
20178.97415
20178.91846
20178.96471
20179.10831
20179.22357
20179.1948
20179.05765
20178.96187
20179.07357
20179.26652
20179.33031
20179.31797
20179.31477
20179.31675
20179.30521
20179.27601
20179.22215
20179.13524
20179.01933
20178.88419
20178.73725
20178.58536
20178.44518
20178.32468
20178.2239
20178.14407
20178.08946
20178.06514
20178.07502
20178.12095
20178.20289
20178.31922
20178.46715
20178.64323
20178.84345
20179.06344
20179.29878
20179.54491
20179.79729
20180.05163
20180.30395
20180.55068
20180.78869
20181.01558
20181.22959
20181.42962
20181.61535
20181.78698
20181.9451
20182.0904
20182.22342
20182.34426
20182.45243
20182.5468
20182.62568
20182.68712
20182.72941
20182.75166
20182.7541
20182.73794
20182.70515
20182.65842
20182.60114
20182.53701
20182.46934
20182.40074
20182.33324
20182.2685
20182.20763
20182.15104
20182.09865
20182.05032
20182.00615
20181.96626
20181.93047
20181.89814
20181.86846
20181.84069
20181.8144
20181.78952
20181.76616
20181.74431
20181.72381
20181.70442
20181.68583
20181.66764
20181.64948
20181.6311
20181.61255
20181.59405
20181.57593
20181.55846
20181.54183
20181.52616
20181.5116
20181.49841
20181.487
20181.47782
20181.47117
20181.46709
20181.46531
20181.46536
20181.46666
20181.46866
20181.4709
20181.47305
20181.47487
20181.47624
20181.47705
20181.4773
20181.47697
20181.47608
20181.47468
20181.47281
20181.47052
20181.46785
20181.46484
20181.46155
20181.45799
20181.45421
20181.45023
20181.44606
20181.44172
20181.43722
20181.43258
20181.42779
20181.42287
20181.41781
20181.41263
20181.4073
20181.40186
20181.39627
20181.39057
20181.38472
20181.37876
20181.37267
20181.36647
20181.36013
20181.36013
20183.02335
20183.02335
20183.01952
20183.01409
20183.00912
20183.00594
20183.00537
20183.00786
20183.01349
20183.02193
20183.03253
20183.04455
20183.05734
20183.0704
20183.08336
20183.09587
20183.10751
20183.11782
20183.12601
20183.13049
20183.12541
20183.10591
20183.06214
20183.0365
20183.05448
20183.09789
20183.09066
20182.95941
20182.77613
20182.575
20182.36441
20182.1478
20181.92691
20181.70259
20181.47528
20181.24524
20181.01284
20180.77891
20180.54542
20180.31906
20180.08979
20179.97249
20179.91716
20179.80774
20179.63497
20179.42687
20179.21458
20179.03193
20178.91521
20178.89311
20178.97814
20179.16311
20179.41748
20179.6852
20179.88231
20179.92203
20179.77395
20179.55569
20179.40493
20179.20677
20178.9973
20178.85034
20178.80389
20178.83731
20178.97095
20179.12164
20179.14987
20179.07494
20179.01665
20179.11653
20179.27272
20179.3117
20179.29535
20179.3022
20179.31121
20179.29106
20179.23665
20179.14829
20179.03119
20178.89531
20178.74961
20178.60006
20178.45232
20178.31712
20178.20097
20178.1059
20178.03393
20177.98865
20177.97402
20177.99314
20178.04736
20178.13649
20178.25899
20178.4122
20178.59284
20178.79711
20179.02083
20179.25967
20179.50916
20179.7648
20180.02224
20180.27745
20180.52679
20180.76704
20180.99565
20181.2108
20181.41133
20181.59692
20181.76784
20181.92479
20182.06863
20182.20006
20182.31934
20182.42615
20182.51948
20182.5977
20182.65881
20182.70096
20182.72317
20182.72573
20182.71002
20182.67809
20182.63248
20182.57641
20182.51358
20182.44742
20182.38057
20182.31492
20182.25199
20182.19283
20182.13787
20182.087
20182.04007
20181.99718
20181.95854
20181.9239
20181.89249
20181.86339
20181.83586
20181.80963
20181.78486
20181.7618
20181.74047
20181.72051
20181.7015
20181.68303
20181.6648
20181.64654
20181.62816
20181.60972
20181.59145
20181.57365
20181.55659
20181.54045
20181.52531
20181.51128
20181.49858
20181.48758
20181.47871
20181.47229
20181.46836
20181.46667
20181.46674
20181.46801
20181.46993
20181.47207
20181.4741
20181.47581
20181.47706
20181.47778
20181.47794
20181.47754
20181.47659
20181.47514
20181.47323
20181.4709
20181.4682
20181.46518
20181.46186
20181.4583
20181.4545
20181.45051
20181.44633
20181.44199
20181.43749
20181.43284
20181.42805
20181.42312
20181.41806
20181.41287
20181.40753
20181.40207
20181.39647
20181.39073
20181.38485
20181.37883
20181.37266
20181.36635
20181.35983
20181.35983
20183.01056
20183.01056
20183.0079
20183.00397
20183.00036
20182.99819
20182.99822
20183.00087
20183.00622
20183.01402
20183.0238
20183.03497
20183.04701
20183.0595
20183.07215
20183.08468
20183.09674
20183.10786
20183.11697
20183.12231
20183.11737
20183.10402
20183.07808
20183.0681
20183.09291
20183.14011
20183.12979
20182.98591
20182.79294
20182.5864
20182.37299
20182.15486
20181.93313
20181.70838
20181.48089
20181.25085
20181.0186
20180.78494
20180.55162
20180.32592
20180.08954
20179.95226
20179.88189
20179.76123
20179.57019
20179.33909
20179.10256
20178.89778
20178.7626
20178.72398
20178.79143
20178.95666
20179.19143
20179.44623
20179.64625
20179.71136
20179.61237
20179.45783
20179.31235
20179.09849
20178.866
20178.7194
20178.69544
20178.72294
20178.84443
20179.02523
20179.12272
20179.12615
20179.11786
20179.20599
20179.31005
20179.30554
20179.27648
20179.28784
20179.29402
20179.25391