# vtk DataFile Version 2.0
FlowField
ASCII
DATASET STRUCTURED_GRID
DIMENSIONS 200 1 200
POINTS 40000 float
0 0 0
0.15 0 0
0.3 0 0
0.45 0 0
0.6 0 0
0.75 0 0
0.9 0 0
1.05 0 0
1.2 0 0
1.35 0 0
1.5 0 0
1.65 0 0
1.8 0 0
1.95 0 0
2.1 0 0
2.25 0 0
2.4 0 0
2.55 0 0
2.7 0 0
2.85 0 0
3 0 0
3.15 0 0
3.3 0 0
3.45 0 0
3.6 0 0
3.75 0 0
3.9 0 0
4.05 0 0
4.2 0 0
4.35 0 0
4.5 0 0
4.65 0 0
4.8 0 0
4.95 0 0
5.1 0 0
5.25 0 0
5.4 0 0
5.55 0 0
5.7 0 0
5.85 0 0
6 0 0
6.15 0 0
6.3 0 0
6.45 0 0
6.6 0 0
6.75 0 0
6.9 0 0
7.05 0 0
7.2 0 0
7.35 0 0
7.5 0 0
7.65 0 0
7.8 0 0
7.95 0 0
8.1 0 0
8.25 0 0
8.4 0 0
8.55 0 0
8.7 0 0
8.85 0 0
9 0 0
9.15 0 0
9.3 0 0
9.45 0 0
9.6 0 0
9.75 0 0
9.9 0 0
10.05 0 0
10.2 0 0
10.35 0 0
10.5 0 0
10.65 0 0
10.8 0 0
10.95 0 0
11.1 0 0
11.25 0 0
11.4 0 0
11.55 0 0
11.7 0 0
11.85 0 0
12 0 0
12.15 0 0
12.3 0 0
12.45 0 0
12.6 0 0
12.75 0 0
12.9 0 0
13.05 0 0
13.2 0 0
13.35 0 0
13.5 0 0
13.65 0 0
13.8 0 0
13.95 0 0
14.1 0 0
14.25 0 0
14.4 0 0
14.55 0 0
14.7 0 0
14.85 0 0
15 0 0
15.15 0 0
15.3 0 0
15.45 0 0
15.6 0 0
15.75 0 0
15.9 0 0
16.05 0 0
16.2 0 0
16.35 0 0
16.5 0 0
16.65 0 0
16.8 0 0
16.95 0 0
17.1 0 0
17.25 0 0
17.4 0 0
17.55 0 0
17.7 0 0
17.85 0 0
18 0 0
18.15 0 0
18.3 0 0
18.45 0 0
18.6 0 0
18.75 0 0
18.9 0 0
19.05 0 0
19.2 0 0
19.35 0 0
19.5 0 0
19.65 0 0
19.8 0 0
19.95 0 0
20.1 0 0
20.25 0 0
20.4 0 0
20.55 0 0
20.7 0 0
20.85 0 0
21 0 0
21.15 0 0
21.3 0 0
21.45 0 0
21.6 0 0
21.75 0 0
21.9 0 0
22.05 0 0
22.2 0 0
22.35 0 0
22.5 0 0
22.65 0 0
22.8 0 0
22.95 0 0
23.1 0 0
23.25 0 0
23.4 0 0
23.55 0 0
23.7 0 0
23.85 0 0
24 0 0
24.15 0 0
24.3 0 0
24.45 0 0
24.6 0 0
24.75 0 0
24.9 0 0
25.05 0 0
25.2 0 0
25.35 0 0
25.5 0 0
25.65 0 0
25.8 0 0
25.95 0 0
26.1 0 0
26.25 0 0
26.4 0 0
26.55 0 0
26.7 0 0
26.85 0 0
27 0 0
27.15 0 0
27.3 0 0
27.45 0 0
27.6 0 0
27.75 0 0
27.9 0 0
28.05 0 0
28.2 0 0
28.35 0 0
28.5 0 0
28.65 0 0
28.8 0 0
28.95 0 0
29.1 0 0
29.25 0 0
29.4 0 0
29.55 0 0
29.7 0 0
29.85 0 0
0 0.075 0
0.15 0.075 0
0.3 0.075 0
0.45 0.075 0
0.6 0.075 0
0.75 0.075 0
0.9 0.075 0
1.05 0.075 0
1.2 0.075 0
1.35 0.075 0
1.5 0.075 0
1.65 0.075 0
1.8 0.075 0
1.95 0.075 0
2.1 0.075 0
2.25 0.075 0
2.4 0.075 0
2.55 0.075 0
2.7 0.075 0
2.85 0.075 0
3 0.075 0
3.15 0.075 0
3.3 0.075 0
3.45 0.075 0
3.6 0.075 0
3.75 0.075 0
3.9 0.075 0
4.05 0.075 0
4.2 0.075 0
4.35 0.075 0
4.5 0.075 0
4.65 0.075 0
4.8 0.075 0
4.95 0.075 0
5.1 0.075 0
5.25 0.075 0
5.4 0.075 0
5.55 0.075 0
5.7 0.075 0
5.85 0.075 0
6 0.075 0
6.15 0.075 0
6.3 0.075 0
6.45 0.075 0
6.6 0.075 0
6.75 0.075 0
6.9 0.075 0
7.05 0.075 0
7.2 0.075 0
7.35 0.075 0
7.5 0.075 0
7.65 0.075 0
7.8 0.075 0
7.95 0.075 0
8.1 0.075 0
8.25 0.075 0
8.4 0.075 0
8.55 0.075 0
8.7 0.075 0
8.85 0.075 0
9 0.075 0
9.15 0.075 0
9.3 0.075 0
9.45 0.075 0
9.6 0.075 0
9.75 0.075 0
9.9 0.075 0
10.05 0.075 0
10.2 0.075 0
10.35 0.075 0
10.5 0.075 0
10.65 0.075 0
10.8 0.075 0
10.95 0.075 0
11.1 0.075 0
11.25 0.075 0
11.4 0.075 0
11.55 0.075 0
11.7 0.075 0
11.85 0.075 0
12 0.075 0
12.15 0.075 0
12.3 0.075 0
12.45 0.075 0
12.6 0.075 0
12.75 0.075 0
12.9 0.075 0
13.05 0.075 0
13.2 0.075 0
13.35 0.075 0
13.5 0.075 0
13.65 0.075 0
13.8 0.075 0
13.95 0.075 0
14.1 0.075 0
14.25 0.075 0
14.4 0.075 0
14.55 0.075 0
14.7 0.075 0
14.85 0.075 0
15 0.075 0
15.15 0.075 0
15.3 0.075 0
15.45 0.075 0
15.6 0.075 0
15.75 0.075 0
15.9 0.075 0
16.05 0.075 0
16.2 0.075 0
16.35 0.075 0
16.5 0.075 0
16.65 0.075 0
16.8 0.075 0
16.95 0.075 0
17.1 0.075 0
17.25 0.075 0
17.4 0.075 0
17.55 0.075 0
17.7 0.075 0
17.85 0.075 0
18 0.075 0
18.15 0.075 0
18.3 0.075 0
18.45 0.075 0
18.6 0.075 0
18.75 0.075 0
18.9 0.075 0
19.05 0.075 0
19.2 0.075 0
19.35 0.075 0
19.5 0.075 0
19.65 0.075 0
19.8 0.075 0
19.95 0.075 0
20.1 0.075 0
20.25 0.075 0
20.4 0.075 0
20.55 0.075 0
20.7 0.075 0
20.85 0.075 0
21 0.075 0
21.15 0.075 0
21.3 0.075 0
21.45 0.075 0
21.6 0.075 0
21.75 0.075 0
21.9 0.075 0
22.05 0.075 0
22.2 0.075 0
22.35 0.075 0
22.5 0.075 0
22.65 0.075 0
22.8 0.075 0
22.95 0.075 0
23.1 0.075 0
23.25 0.075 0
23.4 0.075 0
23.55 0.075 0
23.7 0.075 0
23.85 0.075 0
24 0.075 0
24.15 0.075 0
24.3 0.075 0
24.45 0.075 0
24.6 0.075 0
24.75 0.075 0
24.9 0.075 0
25.05 0.075 0
25.2 0.075 0
25.35 0.075 0
25.5 0.075 0
25.65 0.075 0
25.8 0.075 0
25.95 0.075 0
26.1 0.075 0
26.25 0.075 0
26.4 0.075 0
26.55 0.075 0
26.7 0.075 0
26.85 0.075 0
27 0.075 0
27.15 0.075 0
27.3 0.075 0
27.45 0.075 0
27.6 0.075 0
27.75 0.075 0
27.9 0.075 0
28.05 0.075 0
28.2 0.075 0
28.35 0.075 0
28.5 0.075 0
28.65 0.075 0
28.8 0.075 0
28.95 0.075 0
29.1 0.075 0
29.25 0.075 0
29.4 0.075 0
29.55 0.075 0
29.7 0.075 0
29.85 0.075 0
0 0.15 0
0.15 0.15 0
0.3 0.15 0
0.45 0.15 0
0.6 0.15 0
0.75 0.15 0
0.9 0.15 0
1.05 0.15 0
1.2 0.15 0
1.35 0.15 0
1.5 0.15 0
1.65 0.15 0
1.8 0.15 0
1.95 0.15 0
2.1 0.15 0
2.25 0.15 0
2.4 0.15 0
2.55 0.15 0
2.7 0.15 0
2.85 0.15 0
3 0.15 0
3.15 0.15 0
3.3 0.15 0
3.45 0.15 0
3.6 0.15 0
3.75 0.15 0
3.9 0.15 0
4.05 0.15 0
4.2 0.15 0
4.35 0.15 0
4.5 0.15 0
4.65 0.15 0
4.8 0.15 0
4.95 0.15 0
5.1 0.15 0
5.25 0.15 0
5.4 0.15 0
5.55 0.15 0
5.7 0.15 0
5.85 0.15 0
6 0.15 0
6.15 0.15 0
6.3 0.15 0
6.45 0.15 0
6.6 0.15 0
6.75 0.15 0
6.9 0.15 0
7.05 0.15 0
7.2 0.15 0
7.35 0.15 0
7.5 0.15 0
7.65 0.15 0
7.8 0.15 0
7.95 0.15 0
8.1 0.15 0
8.25 0.15 0
8.4 0.15 0
8.55 0.15 0
8.7 0.15 0
8.85 0.15 0
9 0.15 0
9.15 0.15 0
9.3 0.15 0
9.45 0.15 0
9.6 0.15 0
9.75 0.15 0
9.9 0.15 0
10.05 0.15 0
10.2 0.15 0
10.35 0.15 0
10.5 0.15 0
10.65 0.15 0
10.8 0.15 0
10.95 0.15 0
11.1 0.15 0
11.25 0.15 0
11.4 0.15 0
11.55 0.15 0
11.7 0.15 0
11.85 0.15 0
12 0.15 0
12.15 0.15 0
12.3 0.15 0
12.45 0.15 0
12.6 0.15 0
12.75 0.15 0
12.9 0.15 0
13.05 0.15 0
13.2 0.15 0
13.35 0.15 0
13.5 0.15 0
13.65 0.15 0
13.8 0.15 0
13.95 0.15 0
14.1 0.15 0
14.25 0.15 0
14.4 0.15 0
14.55 0.15 0
14.7 0.15 0
14.85 0.15 0
15 0.15 0
15.15 0.15 0
15.3 0.15 0
15.45 0.15 0
15.6 0.15 0
15.75 0.15 0
15.9 0.15 0
16.05 0.15 0
16.2 0.15 0
16.35 0.15 0
16.5 0.15 0
16.65 0.15 0
16.8 0.15 0
16.95 0.15 0
17.1 0.15 0
17.25 0.15 0
17.4 0.15 0
17.55 0.15 0
17.7 0.15 0
17.85 0.15 0
18 0.15 0
18.15 0.15 0
18.3 0.15 0
18.45 0.15 0
18.6 0.15 0
18.75 0.15 0
18.9 0.15 0
19.05 0.15 0
19.2 0.15 0
19.35 0.15 0
19.5 0.15 0
19.65 0.15 0
19.8 0.15 0
19.95 0.15 0
20.1 0.15 0
20.25 0.15 0
20.4 0.15 0
20.55 0.15 0
20.7 0.15 0
20.85 0.15 0
21 0.15 0
21.15 0.15 0
21.3 0.15 0
21.45 0.15 0
21.6 0.15 0
21.75 0.15 0
21.9 0.15 0
22.05 0.15 0
22.2 0.15 0
22.35 0.15 0
22.5 0.15 0
22.65 0.15 0
22.8 0.15 0
22.95 0.15 0
23.1 0.15 0
23.25 0.15 0
23.4 0.15 0
23.55 0.15 0
23.7 0.15 0
23.85 0.15 0
24 0.15 0
24.15 0.15 0
24.3 0.15 0
24.45 0.15 0
24.6 0.15 0
24.75 0.15 0
24.9 0.15 0
25.05 0.15 0
25.2 0.15 0
25.35 0.15 0
25.5 0.15 0
25.65 0.15 0
25.8 0.15 0
25.95 0.15 0
26.1 0.15 0
26.25 0.15 0
26.4 0.15 0
26.55 0.15 0
26.7 0.15 0
26.85 0.15 0
27 0.15 0
27.15 0.15 0
27.3 0.15 0
27.45 0.15 0
27.6 0.15 0
27.75 0.15 0
27.9 0.15 0
28.05 0.15 0
28.2 0.15 0
28.35 0.15 0
28.5 0.15 0
28.65 0.15 0
28.8 0.15 0
28.95 0.15 0
29.1 0.15 0
29.25 0.15 0
29.4 0.15 0
29.55 0.15 0
29.7 0.15 0
29.85 0.15 0
0 0.225 0
0.15 0.225 0
0.3 0.225 0
0.45 0.225 0
0.6 0.225 0
0.75 0.225 0
0.9 0.225 0
1.05 0.225 0
1.2 0.225 0
1.35 0.225 0
1.5 0.225 0
1.65 0.225 0
1.8 0.225 0
1.95 0.225 0
2.1 0.225 0
2.25 0.225 0
2.4 0.225 0
2.55 0.225 0
2.7 0.225 0
2.85 0.225 0
3 0.225 0
3.15 0.225 0
3.3 0.225 0
3.45 0.225 0
3.6 0.225 0
3.75 0.225 0
3.9 0.225 0
4.05 0.225 0
4.2 0.225 0
4.35 0.225 0
4.5 0.225 0
4.65 0.225 0
4.8 0.225 0
4.95 0.225 0
5.1 0.225 0
5.25 0.225 0
5.4 0.225 0
5.55 0.225 0
5.7 0.225 0
5.85 0.225 0
6 0.225 0
6.15 0.225 0
6.3 0.225 0
6.45 0.225 0
6.6 0.225 0
6.75 0.225 0
6.9 0.225 0
7.05 0.225 0
7.2 0.225 0
7.35 0.225 0
7.5 0.225 0
7.65 0.225 0
7.8 0.225 0
7.95 0.225 0
8.1 0.225 0
8.25 0.225 0
8.4 0.225 0
8.55 0.225 0
8.7 0.225 0
8.85 0.225 0
9 0.225 0
9.15 0.225 0
9.3 0.225 0
9.45 0.225 0
9.6 0.225 0
9.75 0.225 0
9.9 0.225 0
10.05 0.225 0
10.2 0.225 0
10.35 0.225 0
10.5 0.225 0
10.65 0.225 0
10.8 0.225 0
10.95 0.225 0
11.1 0.225 0
11.25 0.225 0
11.4 0.225 0
11.55 0.225 0
11.7 0.225 0
11.85 0.225 0
12 0.225 0
12.15 0.225 0
12.3 0.225 0
12.45 0.225 0
12.6 0.225 0
12.75 0.225 0
12.9 0.225 0
13.05 0.225 0
13.2 0.225 0
13.35 0.225 0
13.5 0.225 0
13.65 0.225 0
13.8 0.225 0
13.95 0.225 0
14.1 0.225 0
14.25 0.225 0
14.4 0.225 0
14.55 0.225 0
14.7 0.225 0
14.85 0.225 0
15 0.225 0
15.15 0.225 0
15.3 0.225 0
15.45 0.225 0
15.6 0.225 0
15.75 0.225 0
15.9 0.225 0
16.05 0.225 0
16.2 0.225 0
16.35 0.225 0
16.5 0.225 0
16.65 0.225 0
16.8 0.225 0
16.95 0.225 0
17.1 0.225 0
17.25 0.225 0
17.4 0.225 0
17.55 0.225 0
17.7 0.225 0
17.85 0.225 0
18 0.225 0
18.15 0.225 0
18.3 0.225 0
18.45 0.225 0
18.6 0.225 0
18.75 0.225 0
18.9 0.225 0
19.05 0.225 0
19.2 0.225 0
19.35 0.225 0
19.5 0.225 0
19.65 0.225 0
19.8 0.225 0
19.95 0.225 0
20.1 0.225 0
20.25 0.225 0
20.4 0.225 0
20.55 0.225 0
20.7 0.225 0
20.85 0.225 0
21 0.225 0
21.15 0.225 0
21.3 0.225 0
21.45 0.225 0
21.6 0.225 0
21.75 0.225 0
21.9 0.225 0
22.05 0.225 0
22.2 0.225 0
22.35 0.225 0
22.5 0.225 0
22.65 0.225 0
22.8 0.225 0
22.95 0.225 0
23.1 0.225 0
23.25 0.225 0
23.4 0.225 0
23.55 0.225 0
23.7 0.225 0
23.85 0.225 0
24 0.225 0
24.15 0.225 0
24.3 0.225 0
24.45 0.225 0
24.6 0.225 0
24.75 0.225 0
24.9 0.225 0
25.05 0.225 0
25.2 0.225 0
25.35 0.225 0
25.5 0.225 0
25.65 0.225 0
25.8 0.225 0
25.95 0.225 0
26.1 0.225 0
26.25 0.225 0
26.4 0.225 0
26.55 0.225 0
26.7 0.225 0
26.85 0.225 0
27 0.225 0
27.15 0.225 0
27.3 0.225 0
27.45 0.225 0
27.6 0.225 0
27.75 0.225 0
27.9 0.225 0
28.05 0.225 0
28.2 0.225 0
28.35 0.225 0
28.5 0.225 0
28.65 0.225 0
28.8 0.225 0
28.95 0.225 0
29.1 0.225 0
29.25 0.225 0
29.4 0.225 0
29.55 0.225 0
29.7 0.225 0
29.85 0.225 0
0 0.3 0
0.15 0.3 0
0.3 0.3 0
0.45 0.3 0
0.6 0.3 0
0.75 0.3 0
0.9 0.3 0
1.05 0.3 0
1.2 0.3 0
1.35 0.3 0
1.5 0.3 0
1.65 0.3 0
1.8 0.3 0
1.95 0.3 0
2.1 0.3 0
2.25 0.3 0
2.4 0.3 0
2.55 0.3 0
2.7 0.3 0
2.85 0.3 0
3 0.3 0
3.15 0.3 0
3.3 0.3 0
3.45 0.3 0
3.6 0.3 0
3.75 0.3 0
3.9 0.3 0
4.05 0.3 0
4.2 0.3 0
4.35 0.3 0
4.5 0.3 0
4.65 0.3 0
4.8 0.3 0
4.95 0.3 0
5.1 0.3 0
5.25 0.3 0
5.4 0.3 0
5.55 0.3 0
5.7 0.3 0
5.85 0.3 0
6 0.3 0
6.15 0.3 0
[...]
POINT_DATA 40000

SCALARS p float 1
LOOKUP_TABLE default
20183.40066
20183.40066
20183.34555
20183.31838
20183.30076
20183.28873
20183.2825
20183.28337
20183.29153
20183.30504
20183.32078
20183.33609
20183.34961
20183.36131
20183.37157
20183.38037
20183.38766
20183.3937
20183.39875
20183.40165
20183.39936
20183.39012
20183.36201
20183.31317
20183.38241
20183.77888
20183.67019
20183.33226
20183.10724
20182.91042
20182.71964
20182.52841
20182.33476
20182.13815
20181.93847
20181.73582
20181.53054
20181.32348
20181.11659
20180.91375
20180.72021
20180.6064
20180.59758
20180.6091
20180.72145
20180.75612
20180.4758
20180.29545
20180.23762
20180.24438
20180.25602
20180.27676
20180.30625
20180.31506
20180.31306
20180.30763
20180.28119
20180.23366
20180.2115
20180.18472
20180.14886
20180.13377
20180.15044
20180.19164
20180.23546
20180.25349
20180.2172
20180.10571
20179.91803
20179.67253
20179.44249
20179.23971
20179.05994
20178.92704
20178.82334
20178.71545
20178.6177
20178.59392
20178.60421
20178.55914
20178.59139
20178.65215
20178.68864
20178.71079
20178.7085
20178.69062
20178.68151
20178.73565
20178.87318
20178.99704
20179.03609
20179.01688
20178.98344
20178.95604
20178.93963
20178.9341
20178.93647
20178.94178
20178.94615
20178.9476
20178.94504
20178.93799
20178.92244
20178.89286
20178.85993
20178.79808
20178.68848
20178.57582
20178.48536
20178.40588
20178.32484
20178.24246
20178.16771
20178.11159
20178.08333
20178.08919
20178.1326
20178.21459
20178.33445
20178.49013
20178.67869
20178.89658
20179.1399
20179.40446
20179.68588
20179.97952
20180.28045
20180.58344
20180.88297
20181.17338
20181.44921
20181.70546
20181.938
20182.14385
20182.32135
20182.47026
20182.5916
20182.68741
20182.76054
20182.81412
20182.85135
20182.87514
20182.88796
20182.89183
20182.88827
20182.87847
20182.86326
20182.8434
20182.81945
20182.79203
20182.76164
20182.72885
20182.69413
20182.65798
20182.62081
20182.58303
20182.54496
20182.50694
20182.46923
20182.43215
20182.39593
20182.36083
20182.32705
20182.29475
20182.26403
20182.2349
20182.20735
20182.18131
20182.15668
20182.13335
20182.11121
20182.09018
20182.07017
20182.05114
20182.03305
20182.01588
20181.9996
20181.98416
20181.96949
20181.95554
20181.94225
20181.92965
20181.91768
20181.90632
20181.89546
20181.88501
20181.8748
20181.86477
20181.8548
20181.84499
20181.83528
20181.82593
20181.81687
20181.80838
20181.80015
20181.79243
20181.78459
20181.77693
20181.76851
20181.76851
20183.40066
20183.40066
20183.34555
20183.31838
20183.30076
20183.28873
20183.2825
20183.28337
20183.29153
20183.30504
20183.32078
20183.33609
20183.34961
20183.36131
20183.37157
20183.38037
20183.38766
20183.3937
20183.39875
20183.40165
20183.39936
20183.39012
20183.36201
20183.31317
20183.38241
20183.77888
20183.67019
20183.33226
20183.10724
20182.91042
20182.71964
20182.52841
20182.33476
20182.13815
20181.93847
20181.73582
20181.53054
20181.32348
20181.11659
20180.91375
20180.72021
20180.6064
20180.59758
20180.6091
20180.72145
20180.75612
20180.4758
20180.29545
20180.23762
20180.24438
20180.25602
20180.27676
20180.30625
20180.31506
20180.31306
20180.30763
20180.28119
20180.23366
20180.2115
20180.18472
20180.14886
20180.13377
20180.15044
20180.19164
20180.23546
20180.25349
20180.2172
20180.10571
20179.91803
20179.67253
20179.44249
20179.23971
20179.05994
20178.92704
20178.82334
20178.71545
20178.6177
20178.59392
20178.60421
20178.55914
20178.59139
20178.65215
20178.68864
20178.71079
20178.7085
20178.69062
20178.68151
20178.73565
20178.87318
20178.99704
20179.03609
20179.01688
20178.98344
20178.95604
20178.93963
20178.9341
20178.93647
20178.94178
20178.94615
20178.9476
20178.94504
20178.93799
20178.92244
20178.89286
20178.85993
20178.79808
20178.68848
20178.57582
20178.48536
20178.40588
20178.32484
20178.24246
20178.16771
20178.11159
20178.08333
20178.08919
20178.1326
20178.21459
20178.33445
20178.49013
20178.67869
20178.89658
20179.1399
20179.40446
20179.68588
20179.97952
20180.28045
20180.58344
20180.88297
20181.17338
20181.44921
20181.70546
20181.938
20182.14385
20182.32135
20182.47026
20182.5916
20182.68741
20182.76054
20182.81412
20182.85135
20182.87514
20182.88796
20182.89183
20182.88827
20182.87847
20182.86326
20182.8434
20182.81945
20182.79203
20182.76164
20182.72885
20182.69413
20182.65798
20182.62081
20182.58303
20182.54496
20182.50694
20182.46923
20182.43215
20182.39593
20182.36083
20182.32705
20182.29475
20182.26403
20182.2349
20182.20735
20182.18131
20182.15668
20182.13335
20182.11121
20182.09018
20182.07017
20182.05114
20182.03305
20182.01588
20181.9996
20181.98416
20181.96949
20181.95554
20181.94225
20181.92965
20181.91768
20181.90632
20181.89546
20181.88501
20181.8748
20181.86477
20181.8548
20181.84499
20181.83528
20181.82593
20181.81687
20181.80838
20181.80015
20181.79243
20181.78459
20181.77693
20181.76851
20181.76851
20183.36796
20183.36796
20183.33637
20183.31378
20183.29819
20183.28777
20183.28282
20183.28447
20183.29288
20183.30632
20183.32191
20183.33707
20183.35049
20183.36212
20183.3723
20183.38098
20183.38813
20183.39399
20183.39898
20183.40239
20183.40165
20183.39014
20183.34447
20183.27476
20183.29604
20183.57936
20183.54196
20183.30481
20183.10045
20182.90898
20182.71976
20182.529
20182.33549
20182.1389
20181.93919
20181.73646
20181.53097
20181.32343
20181.11559
20180.91152
20180.72165
20180.63187
20180.58065
20180.57353
20180.66053
20180.64694
20180.41634
20180.2511
20180.19322
20180.22326
20180.25585
20180.27674
20180.30382
20180.31388
20180.3137
20180.30991
20180.28616
20180.23589
20180.20066
20180.16675
20180.1308
20180.11716
20180.1346
20180.17553
20180.21835
20180.23495
20180.19628
20180.08187
20179.88948
20179.65041
20179.4196
20179.21616
20179.04259
20178.92323
20178.81932
20178.69238
20178.58468
20178.55382
20178.55833
20178.54075
20178.59668
20178.65394
20178.69054
20178.71645
20178.71336
20178.68592
20178.66132
20178.70585
20178.84682
20178.98351
20179.03126
20179.01419
20178.98111
20178.95434
20178.93837
20178.93305
20178.93567
20178.94119
20178.94563
20178.94721
20178.94479
20178.93789
20178.92407
20178.89316
20178.86055
20178.80479
20178.69768
20178.58033
20178.48153
20178.39405
20178.30762
20178.22273
20178.14759
20178.09231
20178.06545
20178.07288
20178.11782
20178.20121
20178.32228
20178.47899
20178.66839
20178.88694
20179.13075
20179.39567
20179.67735
20179.97121
20180.27236
20180.57561
20180.87546
20181.16627
20181.44254
20181.69928
20181.9323
20182.1386
20182.31651
20182.46576
20182.58737
20182.68339
20182.75671
20182.81047
20182.84789
20182.8719
20182.88499
20182.88917
20182.88593
20182.87644
20182.86153
20182.84194
20182.81824
20182.79102
20182.76079
20182.72815
20182.69354
20182.65749
20182.6204
20182.5827
20182.54469
20182.50672
20182.46905
20182.43199
20182.39579
20182.36071
20182.32694
20182.29465
20182.26394
20182.23483
20182.20731
20182.18129
20182.15669
20182.13339
20182.11127
20182.09027
20182.07028
20182.05126
20182.03318
20182.01603
20181.99976
20181.98434
20181.96968
20181.95574
20181.94246
20181.92986
20181.91789
20181.90654
20181.8957
20181.88526
20181.87506
20181.86504
20181.85506
20181.84523
20181.83549
20181.82611
20181.81702
20181.8085
20181.80027
20181.79254
20181.7847
20181.77694
20181.76825
20181.76825
20183.34211
20183.34211
20183.32294
20183.30558
20183.29276
20183.28441
20183.28103
20183.28348
20183.29189
20183.30494
20183.32031
20183.33571
20183.34974
20183.36205
20183.37266
20183.38149
20183.38866
20183.39447
20183.39962
20183.40388
20183.40388
20183.38642
20183.32019
20183.24237
20183.2397
20183.39849
20183.41056
20183.26918
20183.09076
20182.90707
20182.7203
20182.5303
20182.33699
20182.14043
20181.94067
20181.73779
20181.5319
20181.32344
20181.11362
20180.90577
20180.70999
20180.6159
20180.53013
20180.50653
20180.56971
20180.52545
20180.33989
20180.17639
20180.11562
20180.17662
20180.25024
20180.28307
20180.30693
20180.31285
20180.314
20180.30782
20180.27376
20180.21492
20180.16361
20180.12073
20180.0866
20180.07679
20180.09649
20180.13774
20180.17975
20180.19466
20180.15325
20180.03534
20179.83926
20179.60411
20179.37617
20179.17437
20179.01094
20178.9148
20178.81159
20178.65048
20178.52443
20178.47935
20178.4727
20178.48644
20178.56326
20178.64085
20178.69574
20178.72628
20178.7171
20178.66905
20178.61683
20178.64526
20178.79321
20178.95256
20179.01591
20179.00371
20178.97282
20178.9493
20178.93617
20178.93233
20178.93554
20178.94121
20178.94561
20178.94733
20178.9455
20178.938
20178.92696
20178.89837
20178.85566
20178.79004
20178.68156
20178.5599
20178.45041
20178.35187
20178.25862
20178.1718
20178.09824
20178.04641
20178.02369
20178.03529
20178.0841
20178.17093
20178.29498
20178.4542
20178.64565
20178.86583
20179.11088
20179.37673
20179.65912
20179.95359
20180.25535
20180.5593
20180.85998
20181.15177
20181.42912
20181.68697
20181.92109
20182.12838
20182.30716
20182.45711
20182.57923
20182.67564
20182.74925
20182.80326
20182.84099
20182.86538
20182.87893
20182.88365
20182.88099
20182.87209
20182.85774
20182.83867
20182.81539
20182.78856
20182.75863
20182.72624
20182.69183
20182.65596
20182.619
20182.58143
20182.54351
20182.50564
20182.46805
20182.43106
20182.39492
20182.3599
20182.32618
20182.29394
20182.26327
20182.2342
20182.20671
20182.18073
20182.15615
20182.13289
20182.11081
20182.08983
20182.06987
20182.05088
20182.03284
20182.01571
20181.99947
20181.98408
20181.96947
20181.95557
20181.94235
20181.9298
20181.91789
20181.9066
20181.8958
20181.88542
20181.87527
20181.86529
20181.85534
20181.84552
20181.8358
20181.82644
20181.81739
20181.80892
20181.80078
20181.79312
20181.78534
20181.77734
20181.76755
20181.76755
20183.32121
20183.32121
20183.30908
20183.29605
20183.2858
20183.27929
20183.2772
20183.28018
20183.28832
20183.30065
20183.31546
20183.33088
20183.34561
20183.35901
20183.37079
20183.38067
20183.38859
20183.39483
20183.40035
20183.40527
20183.40467
20183.38138
20183.30506
20183.2388
20183.23876
20183.31958
20183.33887
20183.24284
20183.08304
20182.90615
20182.72171
20182.53243
20182.3393
20182.14275
20181.94293
20181.73985
20181.53344
20181.32373
20181.11102
20180.89668
20180.68294
20180.56529
20180.46145
20180.42899
20180.47234
20180.42053
20180.25812
20180.09398
20180.03474
20180.11898
20180.24074
20180.299
20180.31953
20180.31477
20180.30791
20180.28725
20180.23469
20180.16458
20180.10254
20180.05453
20180.02255
20180.01601
20180.03725
20180.07788
20180.11842
20180.13142
20180.08767
20179.96784
20179.77214
20179.53864
20179.31673
20179.12582
20178.97897
20178.90005
20178.79396
20178.6102
20178.46336
20178.40076
20178.38101
20178.39962
20178.48418
20178.59791
20178.68793
20178.73017
20178.71365
20178.64243
20178.5619
20178.57197
20178.72413
20178.90693
20178.98949
20178.98495
20178.95845
20178.94098
20178.93339
20178.93242
20178.93636
20178.9419
20178.94616
20178.94769
20178.94701
20178.93999
20178.92196
20178.88496
20178.82769
20178.74629
20178.63269
20178.50757
20178.39053
20178.28431
20178.18708
20178.1006
20178.03045
20177.98362
20177.9664
20177.98336
20178.03708
20178.1283
20178.25615
20178.41857
20178.61265
20178.83489
20179.0815
20179.34849
20179.63174
20179.92692
20180.22942
20180.53426
20180.83605
20181.12917
20181.40804
20181.6675
20181.9032
20182.11198
20182.29205
20182.44306
20182.566
20182.66303
20182.7371
20182.79154
20182.82975
20182.85471
20182.86898
20182.87452
20182.87276
20182.86477
20182.85129
20182.83302
20182.81043
20182.7842
20182.75474
20182.72276
20182.68865
20182.65306
20182.61632
20182.57893
20182.54118
20182.50346
20182.466
20182.42915
20182.39314
20182.35824
20182.32464
20182.29251
20182.26193
20182.23294
20182.20551
20182.17957
20182.15503
20182.13179
20182.10973
20182.08877
20182.06884
20182.04989
20182.03188
20182.01479
20181.9986
20181.98326
20181.96872
20181.95491
20181.9418
20181.92935
20181.91755
20181.90635
20181.89566
20181.88538
20181.87535
20181.86548
20181.85566
20181.84594
20181.83637
20181.82711
20181.81826
20181.80993
20181.80206
20181.79458
20181.78706
20181.7788
20181.76751
20181.76751
20183.30351
20183.30351
20183.29557
20183.28595
20183.27799
20183.27306
20183.27195
20183.27522
20183.28291
20183.29434
20183.30825
20183.32324
20183.3382
20183.35245
20183.36553
20183.37695
20183.38643
20183.394
20183.40028
20183.40526
20183.4031
20183.37775
20183.30353
20183.25188
20183.25954
20183.3075
20183.31982
20183.23214
20183.0805
20182.90747
20182.72445
20182.53556
20182.34248
20182.14589
20181.94599
20181.74271
20181.53576
20181.32464
20181.10858
20180.88637
20180.64973
20180.5023
20180.39184
20180.35509
20180.38228
20180.32715
20180.17588
20180.02202
20179.96877
20180.0671
20180.22712
20180.31312
20180.3334
20180.3152
20180.28904
20180.24257
20180.17103
20180.0921
20180.02333
20179.97187
20179.94073
20179.93577
20179.95736
20179.99642
20180.03485
20180.04637
20180.002
20179.88296
20179.69104
20179.46267
20179.24899
20179.07595
20178.95069
20178.88179
20178.76979
20178.57963
20178.41599
20178.33204
20178.29316
20178.3071
20178.38555
20178.51866
20178.65104
20178.71547
20178.69757
20178.61311
20178.51584
20178.5118
20178.66166
20178.85817
20178.95629
20178.96007
20178.93992
20178.93013
20178.9296
20178.93258
20178.93769
20178.94304
20178.94723
20178.9493
20178.9454
20178.93058
20178.89923
20178.84654
20178.77254
20178.67711
20178.55894
20178.43234
20178.31166
20178.20152
20178.1027
20178.01767
20177.9513
20177.90955
20177.89787
20177.92032
20177.97922
20178.07514
20178.20716
20178.37317
20178.5702
20178.79477
20179.04311
20179.31135
20179.59549
20179.89143
20180.19473
20180.50058
20180.80371
20181.09851
20181.37932
20181.64086
20181.87865
20182.0894
20182.27122
20182.42368
20182.54775
20182.64563
20182.72035
20182.77536
20182.81421
20182.83994
20182.85517
20182.86181
20182.86126
20182.85451
20182.84222
20182.82505
20182.80341
20182.77799
20182.7492
20182.71777
20182.6841
20182.64888
20182.61243
20182.57531
20182.53778
20182.50026
20182.46299
20182.42632
20182.39048
20182.35576
20182.32233
20182.29036
20182.25992
20182.23106
20182.20373
20182.17786
20182.15337
20182.13016
20182.10813
20182.08718
20182.06727
20182.04833
20182.03036
20182.01331
20181.99718
20181.98191
20181.96747
20181.95377
20181.9408
20181.92849
20181.91684
20181.90576
20181.89523
20181.88507
20181.87524
20181.86553
20181.85597
20181.84646
20181.8372
20181.8282
20181.81973
20181.81172
20181.80435
20181.79728
20181.79033
20181.78227
20181.77053
20181.77053
20183.28788
20183.28788
20183.28256
20183.27556
20183.26956
20183.266
20183.2657
20183.26915
20183.27639
20183.28691
20183.29981
20183.31402
20183.32869
20183.34321
20183.3571
20183.36988
20183.38111
20183.39051
20183.39802
20183.4028
20183.39922
20183.37563
20183.31392
20183.27651
20183.29153
20183.33084
20183.33321
20183.23636
20183.08429
20182.9117
20182.7288
20182.53978
20182.34653
20182.14984
20181.94988
20181.74646
20181.53904
20181.32659
20181.10727
20180.87752
20180.61888
20180.44285
20180.33021
20180.29203
20180.30837
20180.25448
20180.11458
20179.97717
20179.93112
20180.03254
20180.21011
20180.31333
20180.33441
20180.30301
20180.25008
20180.1765
20180.08986
20180.00337
20179.92889
20179.87397
20179.84212
20179.83716
20179.85803
20179.89513
20179.93105
20179.94173
20179.89901
20179.78443
20179.60052
20179.38175
20179.17985
20179.02693
20178.92314
20178.85964
20178.74399
20178.55573
20178.37525
20178.25946
20178.1992
20178.21724
20178.28807
20178.4191
20178.58283
20178.6791
20178.67151
20178.59053
20178.49474
20178.48438
20178.62407
20178.81819
20178.9212
20178.93133
20178.91922
20178.91798
20178.92466
20178.9321
20178.9389
20178.94465
20178.94816
20178.94605
20178.93283
20178.90338
20178.85471
20178.78576
20178.69783
20178.59231
20178.47086
20178.34361
20178.22126
20178.10911
20178.0097
20177.92621
20177.86325
20177.8261
20177.8196
20177.84739
20177.91148
20178.01229
20178.14875
20178.31865
20178.51892
20178.74605
20178.99629
20179.26584
20179.5509
20179.84756
20180.15168
20180.45864
20180.7633
20181.06008
20181.34324
20181.60733
20181.8477
20182.06091
20182.24492
20182.39921
20182.52472
20182.62367
20182.69918
20182.75489
20182.79449
20182.82115
20182.83757
20182.84557
20182.84655
20182.84136
20182.8306
20182.81482
20182.79443
20182.77006
20182.74213
20182.7114
20182.6783
20182.64354
20182.60748
20182.57068
20182.53345
20182.49618
20182.45916
20182.4227
20182.38708
20182.35255
20182.31934
20182.28755
20182.25731
20182.2286
20182.20141
20182.17565
20182.15125
20182.12808
20182.10609
20182.08515
20182.06527
20182.04635
20182.02841
20182.0114
20181.99534
20181.98014
20181.96581
20181.95224
20181.93944
20181.92729
20181.91583
20181.9049
20181.89454
20181.88453
20181.8749
20181.8654
20181.85617
20181.84698
20181.83817
20181.82958
20181.82168
20181.81421
20181.80756
20181.80122
20181.79529
20181.78833
20181.77841
20181.77841
20183.27364
20183.27364
20183.27003
20183.26501
20183.26065
20183.25826
20183.25864
20183.26223
20183.26909
20183.27883
20183.29077
20183.30411
20183.31818
20183.33246
20183.34657
20183.36012
20183.37265
20183.38371
20183.39258
20183.39757
20183.39324
20183.37353
20183.33023
20183.30772
20183.32743
20183.36744
20183.36299
20183.25207
20183.09407
20182.91897
20182.73481
20182.54508
20182.35145
20182.1546
20181.95462
20181.75117
20181.54345
20181.33001
20181.10805
20180.87244
20180.59567
20180.39456
20180.27959
20180.24138
20180.25253
20180.20528
20180.08145
20179.96499
20179.92719
20180.02075
20180.19191
20180.29743
20180.31522
20180.26937
20180.18987
20180.09469
20179.99608
20179.90142
20179.82112
20179.76202
20179.72805
20179.72175
20179.74088
20179.77603
20179.8098
20179.82033
20179.78153
20179.6753
20179.50389
20179.29938
20179.11289
20178.97867
20178.89341
20178.83252
20178.71462
20178.51707
20178.31365
20178.156
20178.08042
20178.12018
20178.19582
20178.31843
20178.4962
20178.62843
20178.64591
20178.58401
20178.50577
20178.49643
20178.61944
20178.7946
20178.88832
20178.90059
20178.89723
20178.905
20178.91866
20178.93077
20178.9397
20178.94491
20178.94415
20178.93224
20178.90426
20178.85797
20178.79322
20178.71073
20178.61211
20178.49923
20178.37487
20178.24668
20178.12306
20178.00955
20177.90981
20177.82763
20177.76755
20177.73446
20177.73273
20177.76563
20177.8349
20177.94072
20178.08185
20178.2559
20178.4597
20178.6896
20178.94186
20179.21276
20179.49869
20179.79603
20180.10091
20180.409
20180.71534
20181.01437
20181.30025
20181.56734
20181.81078
20182.02691
20182.21356
20182.37008
20182.49732
20182.59752
20182.67392
20182.7304
20182.77081
20182.79852
20182.81627
20182.82589
20182.82869
20182.82537
20182.81648
20182.8024
20182.78354
20182.76045
20182.73361
20182.70373
20182.67133
20182.63712
20182.60155
20182.56513
20182.52827
20182.4913
20182.45459
20182.41838
20182.38304
20182.34874
20182.31576
20182.28419
20182.25415
20182.22563
20182.19861
20182.17299
20182.1487
20182.1256
20182.10367
20182.08277
20182.06292
20182.04402
20182.02613
20182.00917
20181.99317
20181.97807
20181.96386
20181.95043
20181.9378
20181.92583
20181.91457
20181.90383
20181.89366
20181.88382
20181.87439
20181.86512
20181.85619
20181.84739
20181.83907
20181.83106
20181.82383
20181.81712
20181.81135
20181.80607
20181.80156
20181.79671
20181.79084
20181.79084
20183.26034
20183.26034
20183.25788
20183.25436
20183.25133
20183.24993
20183.25089
20183.25462
20183.26117
20183.27026
20183.28137
20183.29388
20183.30725
20183.32106
20183.33499
20183.34873
20183.36193
20183.37406
20183.38408
20183.38995
20183.38594
20183.37214
20183.34674
20183.33869
20183.36368
20183.40711
20183.3991
20183.27552
20183.10873
20182.92891
20182.74235
20182.55138
20182.35716
20182.16012
20181.96019
20181.75688
20181.54918
20181.33526
20181.11165
20180.87273
20180.58289
20180.36046
20180.24131
20180.20383
20180.21556
20180.18057
20180.0776
20179.98417
20179.95443
20180.03069
20180.17457
20180.26945
20180.27702
20180.21412
20180.11292
20180.00201
20179.89225
20179.78869
20179.70204
20179.63781
20179.60045
20179.59155
20179.60809
20179.64118
20179.67376
20179.68524
20179.6524
20179.55803
20179.40328
20179.21698
20179.04787
20178.93047
20178.85914
20178.80007
20178.68006
20178.45568
20178.21798