# vtk DataFile Version 2.0
FlowField
ASCII
DATASET STRUCTURED_GRID
DIMENSIONS 200 1 200
POINTS 40000 float
0 0 0
0.15 0 0
0.3 0 0
0.45 0 0
0.6 0 0
0.75 0 0
0.9 0 0
1.05 0 0
1.2 0 0
1.35 0 0
1.5 0 0
1.65 0 0
1.8 0 0
1.95 0 0
2.1 0 0
2.25 0 0
2.4 0 0
2.55 0 0
2.7 0 0
2.85 0 0
3 0 0
3.15 0 0
3.3 0 0
3.45 0 0
3.6 0 0
3.75 0 0
3.9 0 0
4.05 0 0
4.2 0 0
4.35 0 0
4.5 0 0
4.65 0 0
4.8 0 0
4.95 0 0
5.1 0 0
5.25 0 0
5.4 0 0
5.55 0 0
5.7 0 0
5.85 0 0
6 0 0
6.15 0 0
6.3 0 0
6.45 0 0
6.6 0 0
6.75 0 0
6.9 0 0
7.05 0 0
7.2 0 0
7.35 0 0
7.5 0 0
7.65 0 0
7.8 0 0
7.95 0 0
8.1 0 0
8.25 0 0
8.4 0 0
8.55 0 0
8.7 0 0
8.85 0 0
9 0 0
9.15 0 0
9.3 0 0
9.45 0 0
9.6 0 0
9.75 0 0
9.9 0 0
10.05 0 0
10.2 0 0
10.35 0 0
10.5 0 0
10.65 0 0
10.8 0 0
10.95 0 0
11.1 0 0
11.25 0 0
11.4 0 0
11.55 0 0
11.7 0 0
11.85 0 0
12 0 0
12.15 0 0
12.3 0 0
12.45 0 0
12.6 0 0
12.75 0 0
12.9 0 0
13.05 0 0
13.2 0 0
13.35 0 0
13.5 0 0
13.65 0 0
13.8 0 0
13.95 0 0
14.1 0 0
14.25 0 0
14.4 0 0
14.55 0 0
14.7 0 0
14.85 0 0
15 0 0
15.15 0 0
15.3 0 0
15.45 0 0
15.6 0 0
15.75 0 0
15.9 0 0
16.05 0 0
16.2 0 0
16.35 0 0
16.5 0 0
16.65 0 0
16.8 0 0
16.95 0 0
17.1 0 0
17.25 0 0
17.4 0 0
17.55 0 0
17.7 0 0
17.85 0 0
18 0 0
18.15 0 0
18.3 0 0
18.45 0 0
18.6 0 0
18.75 0 0
18.9 0 0
19.05 0 0
19.2 0 0
19.35 0 0
19.5 0 0
19.65 0 0
19.8 0 0
19.95 0 0
20.1 0 0
20.25 0 0
20.4 0 0
20.55 0 0
20.7 0 0
20.85 0 0
21 0 0
21.15 0 0
21.3 0 0
21.45 0 0
21.6 0 0
21.75 0 0
21.9 0 0
22.05 0 0
22.2 0 0
22.35 0 0
22.5 0 0
22.65 0 0
22.8 0 0
22.95 0 0
23.1 0 0
23.25 0 0
23.4 0 0
23.55 0 0
23.7 0 0
23.85 0 0
24 0 0
24.15 0 0
24.3 0 0
24.45 0 0
24.6 0 0
24.75 0 0
24.9 0 0
25.05 0 0
25.2 0 0
25.35 0 0
25.5 0 0
25.65 0 0
25.8 0 0
25.95 0 0
26.1 0 0
26.25 0 0
26.4 0 0
26.55 0 0
26.7 0 0
26.85 0 0
27 0 0
27.15 0 0
27.3 0 0
27.45 0 0
27.6 0 0
27.75 0 0
27.9 0 0
28.05 0 0
28.2 0 0
28.35 0 0
28.5 0 0
28.65 0 0
28.8 0 0
28.95 0 0
29.1 0 0
29.25 0 0
29.4 0 0
29.55 0 0
29.7 0 0
29.85 0 0
0 0.075 0
0.15 0.075 0
0.3 0.075 0
0.45 0.075 0
0.6 0.075 0
0.75 0.075 0
0.9 0.075 0
1.05 0.075 0
1.2 0.075 0
1.35 0.075 0
1.5 0.075 0
1.65 0.075 0
1.8 0.075 0
1.95 0.075 0
2.1 0.075 0
2.25 0.075 0
2.4 0.075 0
2.55 0.075 0
2.7 0.075 0
2.85 0.075 0
3 0.075 0
3.15 0.075 0
3.3 0.075 0
3.45 0.075 0
3.6 0.075 0
3.75 0.075 0
3.9 0.075 0
4.05 0.075 0
4.2 0.075 0
4.35 0.075 0
4.5 0.075 0
4.65 0.075 0
4.8 0.075 0
4.95 0.075 0
5.1 0.075 0
5.25 0.075 0
5.4 0.075 0
5.55 0.075 0
5.7 0.075 0
5.85 0.075 0
6 0.075 0
6.15 0.075 0
6.3 0.075 0
6.45 0.075 0
6.6 0.075 0
6.75 0.075 0
6.9 0.075 0
7.05 0.075 0
7.2 0.075 0
7.35 0.075 0
7.5 0.075 0
7.65 0.075 0
7.8 0.075 0
7.95 0.075 0
8.1 0.075 0
8.25 0.075 0
8.4 0.075 0
8.55 0.075 0
8.7 0.075 0
8.85 0.075 0
9 0.075 0
9.15 0.075 0
9.3 0.075 0
9.45 0.075 0
9.6 0.075 0
9.75 0.075 0
9.9 0.075 0
10.05 0.075 0
10.2 0.075 0
10.35 0.075 0
10.5 0.075 0
10.65 0.075 0
10.8 0.075 0
10.95 0.075 0
11.1 0.075 0
11.25 0.075 0
11.4 0.075 0
11.55 0.075 0
11.7 0.075 0
11.85 0.075 0
12 0.075 0
12.15 0.075 0
12.3 0.075 0
12.45 0.075 0
12.6 0.075 0
12.75 0.075 0
12.9 0.075 0
13.05 0.075 0
13.2 0.075 0
13.35 0.075 0
13.5 0.075 0
13.65 0.075 0
13.8 0.075 0
13.95 0.075 0
14.1 0.075 0
14.25 0.075 0
14.4 0.075 0
14.55 0.075 0
14.7 0.075 0
14.85 0.075 0
15 0.075 0
15.15 0.075 0
15.3 0.075 0
15.45 0.075 0
15.6 0.075 0
15.75 0.075 0
15.9 0.075 0
16.05 0.075 0
16.2 0.075 0
16.35 0.075 0
16.5 0.075 0
16.65 0.075 0
16.8 0.075 0
16.95 0.075 0
17.1 0.075 0
17.25 0.075 0
17.4 0.075 0
17.55 0.075 0
17.7 0.075 0
17.85 0.075 0
18 0.075 0
18.15 0.075 0
18.3 0.075 0
18.45 0.075 0
18.6 0.075 0
18.75 0.075 0
18.9 0.075 0
19.05 0.075 0
19.2 0.075 0
19.35 0.075 0
19.5 0.075 0
19.65 0.075 0
19.8 0.075 0
19.95 0.075 0
20.1 0.075 0
20.25 0.075 0
20.4 0.075 0
20.55 0.075 0
20.7 0.075 0
20.85 0.075 0
21 0.075 0
21.15 0.075 0
21.3 0.075 0
21.45 0.075 0
21.6 0.075 0
21.75 0.075 0
21.9 0.075 0
22.05 0.075 0
22.2 0.075 0
22.35 0.075 0
22.5 0.075 0
22.65 0.075 0
22.8 0.075 0
22.95 0.075 0
23.1 0.075 0
23.25 0.075 0
23.4 0.075 0
23.55 0.075 0
23.7 0.075 0
23.85 0.075 0
24 0.075 0
24.15 0.075 0
24.3 0.075 0
24.45 0.075 0
24.6 0.075 0
24.75 0.075 0
24.9 0.075 0
25.05 0.075 0
25.2 0.075 0
25.35 0.075 0
25.5 0.075 0
25.65 0.075 0
25.8 0.075 0
25.95 0.075 0
26.1 0.075 0
26.25 0.075 0
26.4 0.075 0
26.55 0.075 0
26.7 0.075 0
26.85 0.075 0
27 0.075 0
27.15 0.075 0
27.3 0.075 0
27.45 0.075 0
27.6 0.075 0
27.75 0.075 0
27.9 0.075 0
28.05 0.075 0
28.2 0.075 0
28.35 0.075 0
28.5 0.075 0
28.65 0.075 0
28.8 0.075 0
28.95 0.075 0
29.1 0.075 0
29.25 0.075 0
29.4 0.075 0
29.55 0.075 0
29.7 0.075 0
29.85 0.075 0
0 0.15 0
0.15 0.15 0
0.3 0.15 0
0.45 0.15 0
0.6 0.15 0
0.75 0.15 0
0.9 0.15 0
1.05 0.15 0
1.2 0.15 0
1.35 0.15 0
1.5 0.15 0
1.65 0.15 0
1.8 0.15 0
1.95 0.15 0
2.1 0.15 0
2.25 0.15 0
2.4 0.15 0
2.55 0.15 0
2.7 0.15 0
2.85 0.15 0
3 0.15 0
3.15 0.15 0
3.3 0.15 0
3.45 0.15 0
3.6 0.15 0
3.75 0.15 0
3.9 0.15 0
4.05 0.15 0
4.2 0.15 0
4.35 0.15 0
4.5 0.15 0
4.65 0.15 0
4.8 0.15 0
4.95 0.15 0
5.1 0.15 0
5.25 0.15 0
5.4 0.15 0
5.55 0.15 0
5.7 0.15 0
5.85 0.15 0
6 0.15 0
6.15 0.15 0
6.3 0.15 0
6.45 0.15 0
6.6 0.15 0
6.75 0.15 0
6.9 0.15 0
7.05 0.15 0
7.2 0.15 0
7.35 0.15 0
7.5 0.15 0
7.65 0.15 0
7.8 0.15 0
7.95 0.15 0
8.1 0.15 0
8.25 0.15 0
8.4 0.15 0
8.55 0.15 0
8.7 0.15 0
8.85 0.15 0
9 0.15 0
9.15 0.15 0
9.3 0.15 0
9.45 0.15 0
9.6 0.15 0
9.75 0.15 0
9.9 0.15 0
10.05 0.15 0
10.2 0.15 0
10.35 0.15 0
10.5 0.15 0
10.65 0.15 0
10.8 0.15 0
10.95 0.15 0
11.1 0.15 0
11.25 0.15 0
11.4 0.15 0
11.55 0.15 0
11.7 0.15 0
11.85 0.15 0
12 0.15 0
12.15 0.15 0
12.3 0.15 0
12.45 0.15 0
12.6 0.15 0
12.75 0.15 0
12.9 0.15 0
13.05 0.15 0
13.2 0.15 0
13.35 0.15 0
13.5 0.15 0
13.65 0.15 0
13.8 0.15 0
13.95 0.15 0
14.1 0.15 0
14.25 0.15 0
14.4 0.15 0
14.55 0.15 0
14.7 0.15 0
14.85 0.15 0
15 0.15 0
15.15 0.15 0
15.3 0.15 0
15.45 0.15 0
15.6 0.15 0
15.75 0.15 0
15.9 0.15 0
16.05 0.15 0
16.2 0.15 0
16.35 0.15 0
16.5 0.15 0
16.65 0.15 0
16.8 0.15 0
16.95 0.15 0
17.1 0.15 0
17.25 0.15 0
17.4 0.15 0
17.55 0.15 0
17.7 0.15 0
17.85 0.15 0
18 0.15 0
18.15 0.15 0
18.3 0.15 0
18.45 0.15 0
18.6 0.15 0
18.75 0.15 0
18.9 0.15 0
19.05 0.15 0
19.2 0.15 0
19.35 0.15 0
19.5 0.15 0
19.65 0.15 0
19.8 0.15 0
19.95 0.15 0
20.1 0.15 0
20.25 0.15 0
20.4 0.15 0
20.55 0.15 0
20.7 0.15 0
20.85 0.15 0
21 0.15 0
21.15 0.15 0
21.3 0.15 0
21.45 0.15 0
21.6 0.15 0
21.75 0.15 0
21.9 0.15 0
22.05 0.15 0
22.2 0.15 0
22.35 0.15 0
22.5 0.15 0
22.65 0.15 0
22.8 0.15 0
22.95 0.15 0
23.1 0.15 0
23.25 0.15 0
23.4 0.15 0
23.55 0.15 0
23.7 0.15 0
23.85 0.15 0
24 0.15 0
24.15 0.15 0
24.3 0.15 0
24.45 0.15 0
24.6 0.15 0
24.75 0.15 0
24.9 0.15 0
25.05 0.15 0
25.2 0.15 0
25.35 0.15 0
25.5 0.15 0
25.65 0.15 0
25.8 0.15 0
25.95 0.15 0
26.1 0.15 0
26.25 0.15 0
26.4 0.15 0
26.55 0.15 0
26.7 0.15 0
26.85 0.15 0
27 0.15 0
27.15 0.15 0
27.3 0.15 0
27.45 0.15 0
27.6 0.15 0
27.75 0.15 0
27.9 0.15 0
28.05 0.15 0
28.2 0.15 0
28.35 0.15 0
28.5 0.15 0
28.65 0.15 0
28.8 0.15 0
28.95 0.15 0
29.1 0.15 0
29.25 0.15 0
29.4 0.15 0
29.55 0.15 0
29.7 0.15 0
29.85 0.15 0
0 0.225 0
0.15 0.225 0
0.3 0.225 0
0.45 0.225 0
0.6 0.225 0
0.75 0.225 0
0.9 0.225 0
1.05 0.225 0
1.2 0.225 0
1.35 0.225 0
1.5 0.225 0
1.65 0.225 0
1.8 0.225 0
1.95 0.225 0
2.1 0.225 0
2.25 0.225 0
2.4 0.225 0
2.55 0.225 0
2.7 0.225 0
2.85 0.225 0
3 0.225 0
3.15 0.225 0
3.3 0.225 0
3.45 0.225 0
3.6 0.225 0
3.75 0.225 0
3.9 0.225 0
4.05 0.225 0
4.2 0.225 0
4.35 0.225 0
4.5 0.225 0
4.65 0.225 0
4.8 0.225 0
4.95 0.225 0
5.1 0.225 0
5.25 0.225 0
5.4 0.225 0
5.55 0.225 0
5.7 0.225 0
5.85 0.225 0
6 0.225 0
6.15 0.225 0
6.3 0.225 0
6.45 0.225 0
6.6 0.225 0
6.75 0.225 0
6.9 0.225 0
7.05 0.225 0
7.2 0.225 0
7.35 0.225 0
7.5 0.225 0
7.65 0.225 0
7.8 0.225 0
7.95 0.225 0
8.1 0.225 0
8.25 0.225 0
8.4 0.225 0
8.55 0.225 0
8.7 0.225 0
8.85 0.225 0
9 0.225 0
9.15 0.225 0
9.3 0.225 0
9.45 0.225 0
9.6 0.225 0
9.75 0.225 0
9.9 0.225 0
10.05 0.225 0
10.2 0.225 0
10.35 0.225 0
10.5 0.225 0
10.65 0.225 0
10.8 0.225 0
10.95 0.225 0
11.1 0.225 0
11.25 0.225 0
11.4 0.225 0
11.55 0.225 0
11.7 0.225 0
11.85 0.225 0
12 0.225 0
12.15 0.225 0
12.3 0.225 0
12.45 0.225 0
12.6 0.225 0
12.75 0.225 0
12.9 0.225 0
13.05 0.225 0
13.2 0.225 0
13.35 0.225 0
13.5 0.225 0
13.65 0.225 0
13.8 0.225 0
13.95 0.225 0
14.1 0.225 0
14.25 0.225 0
14.4 0.225 0
14.55 0.225 0
14.7 0.225 0
14.85 0.225 0
15 0.225 0
15.15 0.225 0
15.3 0.225 0
15.45 0.225 0
15.6 0.225 0
15.75 0.225 0
15.9 0.225 0
16.05 0.225 0
16.2 0.225 0
16.35 0.225 0
16.5 0.225 0
16.65 0.225 0
16.8 0.225 0
16.95 0.225 0
17.1 0.225 0
17.25 0.225 0
17.4 0.225 0
17.55 0.225 0
17.7 0.225 0
17.85 0.225 0
18 0.225 0
18.15 0.225 0
18.3 0.225 0
18.45 0.225 0
18.6 0.225 0
18.75 0.225 0
18.9 0.225 0
19.05 0.225 0
19.2 0.225 0
19.35 0.225 0
19.5 0.225 0
19.65 0.225 0
19.8 0.225 0
19.95 0.225 0
20.1 0.225 0
20.25 0.225 0
20.4 0.225 0
20.55 0.225 0
20.7 0.225 0
20.85 0.225 0
21 0.225 0
21.15 0.225 0
21.3 0.225 0
21.45 0.225 0
21.6 0.225 0
21.75 0.225 0
21.9 0.225 0
22.05 0.225 0
22.2 0.225 0
22.35 0.225 0
22.5 0.225 0
22.65 0.225 0
22.8 0.225 0
22.95 0.225 0
23.1 0.225 0
23.25 0.225 0
23.4 0.225 0
23.55 0.225 0
23.7 0.225 0
23.85 0.225 0
24 0.225 0
24.15 0.225 0
24.3 0.225 0
24.45 0.225 0
24.6 0.225 0
24.75 0.225 0
24.9 0.225 0
25.05 0.225 0
25.2 0.225 0
25.35 0.225 0
25.5 0.225 0
25.65 0.225 0
25.8 0.225 0
25.95 0.225 0
26.1 0.225 0
26.25 0.225 0
26.4 0.225 0
26.55 0.225 0
26.7 0.225 0
26.85 0.225 0
27 0.225 0
27.15 0.225 0
27.3 0.225 0
27.45 0.225 0
27.6 0.225 0
27.75 0.225 0
27.9 0.225 0
28.05 0.225 0
28.2 0.225 0
28.35 0.225 0
28.5 0.225 0
28.65 0.225 0
28.8 0.225 0
28.95 0.225 0
29.1 0.225 0
29.25 0.225 0
29.4 0.225 0
29.55 0.225 0
29.7 0.225 0
29.85 0.225 0
0 0.3 0
0.15 0.3 0
0.3 0.3 0
0.45 0.3 0
0.6 0.3 0
0.75 0.3 0
0.9 0.3 0
1.05 0.3 0
1.2 0.3 0
1.35 0.3 0
1.5 0.3 0
1.65 0.3 0
1.8 0.3 0
1.95 0.3 0
2.1 0.3 0
2.25 0.3 0
2.4 0.3 0
2.55 0.3 0
2.7 0.3 0
2.85 0.3 0
3 0.3 0
3.15 0.3 0
3.3 0.3 0
3.45 0.3 0
3.6 0.3 0
3.75 0.3 0
3.9 0.3 0
4.05 0.3 0
4.2 0.3 0
4.35 0.3 0
4.5 0.3 0
4.65 0.3 0
4.8 0.3 0
4.95 0.3 0
5.1 0.3 0
5.25 0.3 0
5.4 0.3 0
5.55 0.3 0
5.7 0.3 0
5.85 0.3 0
6 0.3 0
6.15 0.3 0
[...]
POINT_DATA 40000

SCALARS p float 1
LOOKUP_TABLE default
20183.16637
20183.16637
20183.11089
20183.08306
20183.06463
20183.05176
20183.04468
20183.04462
20183.0517
20183.06408
20183.0789
20183.09369
20183.10711
20183.11886
20183.12914
20183.13795
20183.14518
20183.15089
20183.15502
20183.15676
20183.15452
20183.14821
20183.13089
20183.08632
20183.12651
20183.52263
20183.40785
20183.0501
20182.80268
20182.58035
20182.36155
20182.14022
20181.91457
20181.68404
20181.44836
20181.20727
20180.96054
20180.70807
20180.45017
20180.18794
20179.92233
20179.77884
20179.78958
20179.81661
20179.88939
20179.88416
20179.76537
20179.5538
20179.34366
20179.19094
20179.1001
20179.03641
20179.00474
20179.01599
20179.04547
20179.07111
20179.07462
20179.06142
20179.04085
20179.01171
20178.97118
20178.90962
20178.80902
20178.69035
20178.58181
20178.47735
20178.36796
20178.26164
20178.17481
20178.12199
20178.11195
20178.14786
20178.22855
20178.34997
20178.50644
20178.69143
20178.89821
20179.12028
20179.35154
20179.58643
20179.82005
20180.04824
20180.26767
20180.47587
20180.67117
20180.85263
20181.01995
20181.17324
20181.31293
20181.43959
20181.55385
20181.65625
20181.74725
20181.82717
20181.89621
20181.95449
20182.00208
20182.03913
20182.06593
20182.08293
20182.09086
20182.09062
20182.08333
20182.07017
20182.05238
20182.03112
20182.00747
20181.98236
20181.95658
20181.93075
20181.90535
20181.88074
20181.85716
20181.83478
20181.81367
20181.79389
20181.77541
20181.75822
20181.74224
20181.72743
20181.7137
20181.70098
20181.6892
20181.67828
20181.66815
20181.65875
20181.65001
20181.64188
20181.63431
20181.62724
20181.62064
20181.61447
20181.60869
20181.60326
20181.59816
20181.59337
20181.58885
20181.58459
20181.58056
20181.57675
20181.57314
20181.56972
20181.56648
20181.56339
20181.56045
20181.55766
20181.55499
20181.55244
20181.55001
20181.54768
20181.54546
20181.54332
20181.54127
20181.53931
20181.53742
20181.5356
20181.53385
20181.53217
20181.53054
20181.52898
20181.52747
20181.526
20181.52459
20181.52322
20181.5219
20181.52062
20181.51937
20181.51816
20181.51699
20181.51585
20181.51474
20181.51366
20181.51261
20181.51159
20181.51059
20181.50962
20181.50867
20181.50774
20181.50683
20181.50594
20181.50507
20181.50422
20181.50338
20181.50256
20181.50176
20181.50097
20181.50019
20181.49943
20181.49867
20181.49793
20181.4972
20181.49648
20181.49577
20181.49506
20181.49436
20181.49366
20181.49298
20181.49229
20181.49162
20181.49162
20183.16637
20183.16637
20183.11089
20183.08306
20183.06463
20183.05176
20183.04468
20183.04462
20183.0517
20183.06408
20183.0789
20183.09369
20183.10711
20183.11886
20183.12914
20183.13795
20183.14518
20183.15089
20183.15502
20183.15676
20183.15452
20183.14821
20183.13089
20183.08632
20183.12651
20183.52263
20183.40785
20183.0501
20182.80268
20182.58035
20182.36155
20182.14022
20181.91457
20181.68404
20181.44836
20181.20727
20180.96054
20180.70807
20180.45017
20180.18794
20179.92233
20179.77884
20179.78958
20179.81661
20179.88939
20179.88416
20179.76537
20179.5538
20179.34366
20179.19094
20179.1001
20179.03641
20179.00474
20179.01599
20179.04547
20179.07111
20179.07462
20179.06142
20179.04085
20179.01171
20178.97118
20178.90962
20178.80902
20178.69035
20178.58181
20178.47735
20178.36796
20178.26164
20178.17481
20178.12199
20178.11195
20178.14786
20178.22855
20178.34997
20178.50644
20178.69143
20178.89821
20179.12028
20179.35154
20179.58643
20179.82005
20180.04824
20180.26767
20180.47587
20180.67117
20180.85263
20181.01995
20181.17324
20181.31293
20181.43959
20181.55385
20181.65625
20181.74725
20181.82717
20181.89621
20181.95449
20182.00208
20182.03913
20182.06593
20182.08293
20182.09086
20182.09062
20182.08333
20182.07017
20182.05238
20182.03112
20182.00747
20181.98236
20181.95658
20181.93075
20181.90535
20181.88074
20181.85716
20181.83478
20181.81367
20181.79389
20181.77541
20181.75822
20181.74224
20181.72743
20181.7137
20181.70098
20181.6892
20181.67828
20181.66815
20181.65875
20181.65001
20181.64188
20181.63431
20181.62724
20181.62064
20181.61447
20181.60869
20181.60326
20181.59816
20181.59337
20181.58885
20181.58459
20181.58056
20181.57675
20181.57314
20181.56972
20181.56648
20181.56339
20181.56045
20181.55766
20181.55499
20181.55244
20181.55001
20181.54768
20181.54546
20181.54332
20181.54127
20181.53931
20181.53742
20181.5356
20181.53385
20181.53217
20181.53054
20181.52898
20181.52747
20181.526
20181.52459
20181.52322
20181.5219
20181.52062
20181.51937
20181.51816
20181.51699
20181.51585
20181.51474
20181.51366
20181.51261
20181.51159
20181.51059
20181.50962
20181.50867
20181.50774
20181.50683
20181.50594
20181.50507
20181.50422
20181.50338
20181.50256
20181.50176
20181.50097
20181.50019
20181.49943
20181.49867
20181.49793
20181.4972
20181.49648
20181.49577
20181.49506
20181.49436
20181.49366
20181.49298
20181.49229
20181.49162
20181.49162
20183.13379
20183.13379
20183.10186
20183.07865
20183.06226
20183.05097
20183.0451
20183.04576
20183.05304
20183.06533
20183.07999
20183.09466
20183.10799
20183.11969
20183.12992
20183.13864
20183.14574
20183.15131
20183.15543
20183.15748
20183.15608
20183.14904
20183.11998
20183.05065
20183.0376
20183.31353
20183.27608
20183.02335
20182.79667
20182.57952
20182.36218
20182.14128
20181.91577
20181.6853
20181.44968
20181.20865
20180.96195
20180.70939
20180.45123
20180.1888
20179.92619
20179.80525
20179.77975
20179.79463
20179.8557
20179.85197
20179.73165
20179.52987
20179.31592
20179.15257
20179.05732
20179.01447
20179.00483
20179.01857
20179.0456
20179.07113
20179.07439
20179.06095
20179.04144
20179.01344
20178.97311
20178.91436
20178.81674
20178.69397
20178.57542
20178.46145
20178.34659
20178.23872
20178.15274
20178.10186
20178.09409
20178.13224
20178.21496
20178.33819
20178.4962
20178.68251
20178.89043
20179.11349
20179.34565
20179.58135
20179.81569
20180.04452
20180.2645
20180.47314
20180.66877
20180.85049
20181.01797
20181.17136
20181.31112
20181.43782
20181.55212
20181.65459
20181.74568
20181.82574
20181.89495
20181.95343
20182.00124
20182.03852
20182.06553
20182.08271
20182.09076
20182.09062
20182.08336
20182.07021
20182.0524
20182.03111
20182.00743
20181.98229
20181.95648
20181.93063
20181.90522
20181.8806
20181.85702
20181.83464
20181.81354
20181.79377
20181.7753
20181.75811
20181.74215
20181.72734
20181.71362
20181.70091
20181.68913
20181.67822
20181.6681
20181.6587
20181.64997
20181.64184
20181.63427
20181.62721
20181.62062
20181.61445
20181.60867
20181.60324
20181.59815
20181.59335
20181.58883
20181.58457
20181.58055
20181.57674
20181.57313
20181.56971
20181.56647
20181.56338
20181.56045
20181.55765
20181.55498
20181.55244
20181.55
20181.54768
20181.54545
20181.54331
20181.54127
20181.5393
20181.53741
20181.5356
20181.53385
20181.53216
20181.53054
20181.52897
20181.52746
20181.526
20181.52459
20181.52322
20181.5219
20181.52061
20181.51937
20181.51816
20181.51699
20181.51585
20181.51474
20181.51366
20181.51261
20181.51159
20181.51059
20181.50961
20181.50866
20181.50773
20181.50683
20181.50594
20181.50507
20181.50422
20181.50338
20181.50256
20181.50176
20181.50097
20181.50019
20181.49943
20181.49867
20181.49793
20181.4972
20181.49648
20181.49576
20181.49506
20181.49436
20181.49366
20181.49298
20181.49229
20181.49162
20181.49162
20183.10816
20183.10816
20183.0887
20183.07078
20183.0572
20183.04799
20183.04366
20183.04505
20183.05227
20183.06412
20183.07848
20183.09326
20183.10708
20183.11941
20183.13014
20183.13913
20183.14633
20183.15196
20183.15628
20183.15888
20183.15777
20183.14764
20183.10499
20183.02181
20182.98503
20183.1372
20183.14854
20182.99025
20182.78866
20182.57885
20182.36373
20182.1435
20181.9182
20181.68785
20181.45235
20181.21145
20180.96481
20180.71211
20180.45334
20180.18964
20179.92393
20179.79923
20179.7476
20179.75257
20179.80182
20179.79578
20179.67498
20179.4818
20179.26363
20179.0829
20178.97967
20178.97061
20179.00339
20179.03116
20179.05583
20179.07563
20179.07466
20179.0603
20179.04265
20179.01706
20178.97371
20178.90547
20178.80057
20178.67007
20178.53849
20178.41209
20178.29115
20178.18348
20178.10145
20178.05606
20178.05405
20178.09762
20178.18521
20178.31268
20178.47433
20178.66373
20178.87429
20179.09966
20179.33385
20179.57137
20179.80733
20180.03758
20180.25874
20180.46832
20180.66466
20180.84686
20181.01466
20181.16824
20181.3081
20181.43488
20181.54925
20181.65182
20181.74308
20181.82338
20181.89291
20181.95175
20181.99997
20182.03763
20182.06498
20182.08242
20182.09065
20182.09058
20182.08332
20182.07011
20182.05221
20182.03081
20182.00703
20181.98182
20181.95595
20181.93006
20181.90464
20181.88003
20181.85647
20181.83411
20181.81305
20181.79331
20181.77488
20181.75773
20181.7418
20181.72703
20181.71334
20181.70066
20181.68891
20181.67802
20181.66792
20181.65854
20181.64982
20181.64171
20181.63415
20181.6271
20181.62052
20181.61436
20181.60858
20181.60317
20181.59808
20181.59329
20181.58878
20181.58452
20181.5805
20181.57669
20181.57309
20181.56967
20181.56643
20181.56335
20181.56041
20181.55762
20181.55495
20181.55241
20181.54998
20181.54765
20181.54543
20181.54329
20181.54125
20181.53928
20181.53739
20181.53558
20181.53383
20181.53215
20181.53052
20181.52896
20181.52745
20181.52599
20181.52457
20181.52321
20181.52188
20181.5206
20181.51936
20181.51815
20181.51698
20181.51584
20181.51473
20181.51365
20181.5126
20181.51158
20181.51058
20181.50961
20181.50866
20181.50773
20181.50682
20181.50593
20181.50506
20181.50421
20181.50338
20181.50256
20181.50175
20181.50096
20181.50019
20181.49942
20181.49867
20181.49793
20181.4972
20181.49648
20181.49576
20181.49506
20181.49436
20181.49366
20181.49298
20181.49229
20181.49163
20181.49163
20183.08755
20183.08755
20183.07516
20183.06163
20183.0507
20183.04336
20183.04031
20183.04222
20183.04916
20183.06028
20183.07399
20183.08861
20183.10289
20183.1161
20183.12789
20183.13792
20183.146
20183.15227
20183.15705
20183.16012
20183.15857
20183.14482
20183.09678
20183.02586
20182.99482
20183.07154
20183.08599
20182.96807
20182.78348
20182.57976
20182.36663
20182.147
20181.9219
20181.6917
20181.45637
20181.21568
20180.96917
20180.71632
20180.45664
20180.19031
20179.91295
20179.76848
20179.70188
20179.70006
20179.73841
20179.72624
20179.60988
20179.41937
20179.19964
20179.00977
20178.90031
20178.91637
20178.99707
20179.05284
20179.07775
20179.08673
20179.07714
20179.06057
20179.04221
20179.01124
20178.95649
20178.8719
20178.75385
20178.61395
20178.47203
20178.33711
20178.21326
20178.10811
20178.03186
20177.99359
20177.99892
20178.04945
20178.14338
20178.27644
20178.44293
20178.63648
20178.85064
20179.07917
20179.3162
20179.55628
20179.79454
20180.02679
20180.24964
20180.46057
20180.65793
20180.84085
20181.0091
20181.16295
20181.30295
20181.42981
20181.54428
20181.64699
20181.73849
20181.81913
20181.88911
20181.9485
20181.9973
20182.03556
20182.06343
20182.08129
20182.0898
20182.08987
20182.08264
20182.06937
20182.05136
20182.02985
20182.00597
20181.98067
20181.95477
20181.92888
20181.90348
20181.87892
20181.85542
20181.83315
20181.81216
20181.7925
20181.77415
20181.75708
20181.74122
20181.72651
20181.71288
20181.70024
20181.68854
20181.67769
20181.66762
20181.65827
20181.64958
20181.6415
20181.63396
20181.62693
20181.62036
20181.61421
20181.60845
20181.60305
20181.59797
20181.59319
20181.58868
20181.58443
20181.58042
20181.57662
20181.57302
20181.56961
20181.56637
20181.56329
20181.56036
20181.55757
20181.55491
20181.55237
20181.54994
20181.54761
20181.54539
20181.54326
20181.54121
20181.53925
20181.53736
20181.53555
20181.5338
20181.53212
20181.5305
20181.52894
20181.52743
20181.52597
20181.52455
20181.52319
20181.52186
20181.52058
20181.51934
20181.51813
20181.51696
20181.51582
20181.51471
20181.51364
20181.51259
20181.51157
20181.51057
20181.5096
20181.50865
20181.50772
20181.50681
20181.50592
20181.50505
20181.5042
20181.50337
20181.50255
20181.50175
20181.50096
20181.50018
20181.49942
20181.49866
20181.49792
20181.49719
20181.49647
20181.49576
20181.49505
20181.49436
20181.49366
20181.49298
20181.49229
20181.49164
20181.49164
20183.07019
20183.07019
20183.06202
20183.05195
20183.04336
20183.03764
20183.03561
20183.03783
20183.04436
20183.05459
20183.06736
20183.08141
20183.09567
20183.10944
20183.12224
20183.13362
20183.14318
20183.15083
20183.15657
20183.15996
20183.15738
20183.14149
20183.09592
20183.04567
20183.02701
20183.06971
20183.07456
20182.96208
20182.78409
20182.58338
20182.37128
20182.15189
20181.92688
20181.69682
20181.46174
20181.22136
20180.97511
20180.72219
20180.46151
20180.19196
20179.89884
20179.72801
20179.65115
20179.64363
20179.67336
20179.65602
20179.54478
20179.35453
20179.137
20178.94765
20178.83868
20178.86892
20178.98647
20179.0719
20179.10148
20179.10136
20179.0824
20179.0601
20179.03399
20178.98956
20178.91696
20178.81407
20178.68324
20178.53573
20178.38719
20178.24735
20178.12249
20178.02034
20177.94985
20177.91879
20177.9318
20177.98995
20178.09105
20178.23061
20178.40283
20178.60138
20178.81992
20179.05234
20179.29289
20179.53619
20179.77737
20180.0122
20180.23723
20180.4499
20180.64857
20180.83239
20181.00122
20181.15539
20181.29556
20181.4225
20181.53705
20181.63992
20181.73168
20181.81272
20181.88326
20181.94334
20181.99293
20182.03198
20182.06059
20182.07906
20182.088
20182.08832
20182.08117
20182.06787
20182.04977
20182.02814
20182.00415
20181.97879
20181.95287
20181.92701
20181.90168
20181.87721
20181.85384
20181.83169
20181.81084
20181.79131
20181.77309
20181.75613
20181.74038
20181.72576
20181.71221
20181.69966
20181.68802
20181.67723
20181.66721
20181.65791
20181.64926
20181.6412
20181.6337
20181.62669
20181.62014
20181.61402
20181.60827
20181.60288
20181.59782
20181.59305
20181.58856
20181.58431
20181.58031
20181.57652
20181.57293
20181.56952
20181.56629
20181.56321
20181.56029
20181.5575
20181.55484
20181.5523
20181.54988
20181.54756
20181.54534
20181.54321
20181.54117
20181.53921
20181.53732
20181.53551
20181.53377
20181.53209
20181.53047
20181.5289
20181.52739
20181.52594
20181.52453
20181.52316
20181.52184
20181.52056
20181.51932
20181.51811
20181.51694
20181.5158
20181.5147
20181.51362
20181.51257
20181.51155
20181.51055
20181.50958
20181.50863
20181.5077
20181.5068
20181.50591
20181.50504
20181.50419
20181.50336
20181.50254
20181.50174
20181.50095
20181.50017
20181.49941
20181.49866
20181.49792
20181.49719
20181.49647
20181.49575
20181.49505
20181.49435
20181.49366
20181.49298
20181.49229
20181.49165
20181.49165
20183.05496
20183.05496
20183.04943
20183.04202
20183.03543
20183.03112
20183.02993
20183.03236
20183.03849
20183.04785
20183.05961
20183.0728
20183.0866
20183.10038
20183.11369
20183.12608
20183.13709
20183.14635
20183.15339
20183.15723
20183.15361
20183.13779
20183.09876
20183.0655
20183.06117
20183.09493
20183.09122
20182.97093
20182.79142
20182.5903
20182.37787
20182.15823
20181.93313
20181.70319
20181.46844
20181.2285
20180.98269
20180.72993
20180.46847
20180.19624
20179.88725
20179.68832
20179.60122
20179.58849
20179.61255
20179.59321
20179.4867
20179.30082
20179.08885
20178.9069
20178.8046
20178.8412
20178.97638
20179.07947
20179.11579
20179.11183
20179.08612
20179.055
20179.01433
20178.9512
20178.85957
20178.74058
20178.59914
20178.44529
20178.2917
20178.14819
20178.02249
20177.92275
20177.85733
20177.83309
20177.85389
20177.92011
20178.02908
20178.17593
20178.35468
20178.55898
20178.78259
20179.01955
20179.26426
20179.51141
20179.75611
20179.99406
20180.22174
20180.43653
20180.63678
20180.82169
20180.9912
20181.14573
20181.28604
20181.41304
20181.52762
20181.6306
20181.72261
20181.80409
20181.87526
20181.93617
20181.98673
20182.0268
20182.05637
20182.07566
20182.08521
20182.08591
20182.07894
20182.06565
20182.04747
20182.02573
20182.00164
20181.97622
20181.95029
20181.92448
20181.89925
20181.87492
20181.85171
20181.82974
20181.80907
20181.78972
20181.77166
20181.75486
20181.73925
20181.72476
20181.71133
20181.69888
20181.68733
20181.67661
20181.66667
20181.65742
20181.64882
20181.64082
20181.63335
20181.62638
20181.61986
20181.61376
20181.60804
20181.60267
20181.59762
20181.59287
20181.58839
20181.58416
20181.58017
20181.57638
20181.5728
20181.56941
20181.56618
20181.56311
20181.56019
20181.55741
20181.55476
20181.55223
20181.54981
20181.54749
20181.54527
20181.54315
20181.54111
20181.53915
20181.53727
20181.53546
20181.53372
20181.53204
20181.53042
20181.52886
20181.52735
20181.5259
20181.52449
20181.52313
20181.52181
20181.52053
20181.51928
20181.51808
20181.51691
20181.51577
20181.51467
20181.51359
20181.51255
20181.51152
20181.51053
20181.50956
20181.50861
20181.50768
20181.50678
20181.50589
20181.50502
20181.50417
20181.50334
20181.50252
20181.50172
20181.50093
20181.50016
20181.4994
20181.49865
20181.49791
20181.49718
20181.49646
20181.49575
20181.49504
20181.49435
20181.49366
20181.49298
20181.4923
20181.49165
20181.49165
20183.04118
20183.04118
20183.03737
20183.03197
20183.02705
20183.02394
20183.02347
20183.02608
20183.03186
20183.04048
20183.05129
20183.06357
20183.07666
20183.09005
20183.10334
20183.11617
20183.1281
20183.13866
20183.14695
20183.15157
20183.14773
20183.13439
20183.10363
20183.08442
20183.09254
20183.13044
20183.12385
20182.99145
20182.80499
20182.60047
20182.38639
20182.16594
20181.94058
20181.71076
20181.47643
20181.23712
20180.992
20180.73974
20180.47803
20180.20458
20179.88224
20179.65576
20179.55645
20179.53867
20179.55997
20179.54249
20179.44321
20179.26759
20179.06378
20178.89282
20178.80392
20178.84275
20178.97193
20179.07369
20179.11541
20179.11244
20179.08324
20179.04133
20178.98322
20178.90091
20178.79206
20178.6594
20178.50844
20178.34808
20178.18924
20178.04185
20177.91471
20177.81651
20177.75539
20177.73758
20177.76621
20177.84095
20177.95845
20178.11334
20178.29935
20178.51006
20178.73933
20178.98141
20179.23084
20179.48241
20179.7312
20179.97279
20180.20356
20180.42082
20180.6229
20180.80906
20180.97931
20181.1342
20181.27462
20181.40159
20181.51612
20181.61913
20181.71134
20181.79323
20181.86509
20181.92693
20181.97862
20182.01993
20182.0507
20182.07104
20182.0814
20182.08262
20182.07593
20182.06273
20182.0445
20182.02267
20181.99849
20181.97302
20181.94709
20181.92134
20181.89623
20181.87207
20181.84905
20181.82729
20181.80685
20181.78771
20181.76986
20181.75325
20181.73782
20181.7235
20181.71021
20181.69788
20181.68644
20181.67583
20181.66597
20181.6568
20181.64827
20181.64032
20181.6329
20181.62597
20181.61949
20181.61342
20181.60773
20181.60239
20181.59737
20181.59263
20181.58817
20181.58396
20181.57998
20181.57621
20181.57264
20181.56926
20181.56604
20181.56298
20181.56007
20181.5573
20181.55465
20181.55212
20181.54971
20181.5474
20181.54519
20181.54307
20181.54103
20181.53908
20181.5372
20181.53539
20181.53366
20181.53198
20181.53037
20181.52881
20181.5273
20181.52585
20181.52444
20181.52308
20181.52176
20181.52049
20181.51925
20181.51804
20181.51688
20181.51574
20181.51464
20181.51356
20181.51252
20181.5115
20181.5105
20181.50953
20181.50858
20181.50766
20181.50675
20181.50587
20181.505
20181.50415
20181.50332
20181.50251
20181.5017
20181.50092
20181.50014
20181.49938
20181.49863
20181.49789
20181.49717
20181.49645
20181.49574
20181.49504
20181.49434
20181.49366
20181.49298
20181.4923
20181.49165
20181.49165
20183.02838
20183.02838
20183.02574
20183.02185
20183.01829
20183.0162
20183.01634
20183.01912
20183.02463
20183.03262
20183.04262
20183.05405
20183.06638
20183.07918
20183.09213
20183.10493
20183.11723
20183.12853
20183.13781
20183.14359
20183.14109
20183.1323
20183.11108
20183.10576
20183.12663
20183.17408
20183.1661
20183.0202
20182.82353
20182.61342
20182.39659
20182.17489
20181.94912
20181.71947
20181.48568
20181.2472
20181.00307
20180.75179
20180.49056
20180.21796
20179.88643
20179.63435
20179.52057
20179.49757
20179.5187
20179.50718
20179.41907
20179.25851
20179.06565
20178.90594
20178.8307
20178.86417
20178.96947
20179.05927
20179.10381
20179.10399
20179.07244
20179.01932
20178.94432
20178.84462
20178.72052
20178.57538
20178.41476
20178.24687
20178.0818
20177.92969
20177.80017
20177.7025
20177.64486
20177.63308
20177.66961
20177.75329
20177.87998
20178.04365