# vtk DataFile Version 2.0
FlowField
ASCII
DATASET STRUCTURED_GRID
DIMENSIONS 200 1 200
POINTS 40000 float
0 0 0
0.15 0 0
0.3 0 0
0.45 0 0
0.6 0 0
0.75 0 0
0.9 0 0
1.05 0 0
1.2 0 0
1.35 0 0
1.5 0 0
1.65 0 0
1.8 0 0
1.95 0 0
2.1 0 0
2.25 0 0
2.4 0 0
2.55 0 0
2.7 0 0
2.85 0 0
3 0 0
3.15 0 0
3.3 0 0
3.45 0 0
3.6 0 0
3.75 0 0
3.9 0 0
4.05 0 0
4.2 0 0
4.35 0 0
4.5 0 0
4.65 0 0
4.8 0 0
4.95 0 0
5.1 0 0
5.25 0 0
5.4 0 0
5.55 0 0
5.7 0 0
5.85 0 0
6 0 0
6.15 0 0
6.3 0 0
6.45 0 0
6.6 0 0
6.75 0 0
6.9 0 0
7.05 0 0
7.2 0 0
7.35 0 0
7.5 0 0
7.65 0 0
7.8 0 0
7.95 0 0
8.1 0 0
8.25 0 0
8.4 0 0
8.55 0 0
8.7 0 0
8.85 0 0
9 0 0
9.15 0 0
9.3 0 0
9.45 0 0
9.6 0 0
9.75 0 0
9.9 0 0
10.05 0 0
10.2 0 0
10.35 0 0
10.5 0 0
10.65 0 0
10.8 0 0
10.95 0 0
11.1 0 0
11.25 0 0
11.4 0 0
11.55 0 0
11.7 0 0
11.85 0 0
12 0 0
12.15 0 0
12.3 0 0
12.45 0 0
12.6 0 0
12.75 0 0
12.9 0 0
13.05 0 0
13.2 0 0
13.35 0 0
13.5 0 0
13.65 0 0
13.8 0 0
13.95 0 0
14.1 0 0
14.25 0 0
14.4 0 0
14.55 0 0
14.7 0 0
14.85 0 0
15 0 0
15.15 0 0
15.3 0 0
15.45 0 0
15.6 0 0
15.75 0 0
15.9 0 0
16.05 0 0
16.2 0 0
16.35 0 0
16.5 0 0
16.65 0 0
16.8 0 0
16.95 0 0
17.1 0 0
17.25 0 0
17.4 0 0
17.55 0 0
17.7 0 0
17.85 0 0
18 0 0
18.15 0 0
18.3 0 0
18.45 0 0
18.6 0 0
18.75 0 0
18.9 0 0
19.05 0 0
19.2 0 0
19.35 0 0
19.5 0 0
19.65 0 0
19.8 0 0
19.95 0 0
20.1 0 0
20.25 0 0
20.4 0 0
20.55 0 0
20.7 0 0
20.85 0 0
21 0 0
21.15 0 0
21.3 0 0
21.45 0 0
21.6 0 0
21.75 0 0
21.9 0 0
22.05 0 0
22.2 0 0
22.35 0 0
22.5 0 0
22.65 0 0
22.8 0 0
22.95 0 0
23.1 0 0
23.25 0 0
23.4 0 0
23.55 0 0
23.7 0 0
23.85 0 0
24 0 0
24.15 0 0
24.3 0 0
24.45 0 0
24.6 0 0
24.75 0 0
24.9 0 0
25.05 0 0
25.2 0 0
25.35 0 0
25.5 0 0
25.65 0 0
25.8 0 0
25.95 0 0
26.1 0 0
26.25 0 0
26.4 0 0
26.55 0 0
26.7 0 0
26.85 0 0
27 0 0
27.15 0 0
27.3 0 0
27.45 0 0
27.6 0 0
27.75 0 0
27.9 0 0
28.05 0 0
28.2 0 0
28.35 0 0
28.5 0 0
28.65 0 0
28.8 0 0
28.95 0 0
29.1 0 0
29.25 0 0
29.4 0 0
29.55 0 0
29.7 0 0
29.85 0 0
0 0.075 0
0.15 0.075 0
0.3 0.075 0
0.45 0.075 0
0.6 0.075 0
0.75 0.075 0
0.9 0.075 0
1.05 0.075 0
1.2 0.075 0
1.35 0.075 0
1.5 0.075 0
1.65 0.075 0
1.8 0.075 0
1.95 0.075 0
2.1 0.075 0
2.25 0.075 0
2.4 0.075 0
2.55 0.075 0
2.7 0.075 0
2.85 0.075 0
3 0.075 0
3.15 0.075 0
3.3 0.075 0
3.45 0.075 0
3.6 0.075 0
3.75 0.075 0
3.9 0.075 0
4.05 0.075 0
4.2 0.075 0
4.35 0.075 0
4.5 0.075 0
4.65 0.075 0
4.8 0.075 0
4.95 0.075 0
5.1 0.075 0
5.25 0.075 0
5.4 0.075 0
5.55 0.075 0
5.7 0.075 0
5.85 0.075 0
6 0.075 0
6.15 0.075 0
6.3 0.075 0
6.45 0.075 0
6.6 0.075 0
6.75 0.075 0
6.9 0.075 0
7.05 0.075 0
7.2 0.075 0
7.35 0.075 0
7.5 0.075 0
7.65 0.075 0
7.8 0.075 0
7.95 0.075 0
8.1 0.075 0
8.25 0.075 0
8.4 0.075 0
8.55 0.075 0
8.7 0.075 0
8.85 0.075 0
9 0.075 0
9.15 0.075 0
9.3 0.075 0
9.45 0.075 0
9.6 0.075 0
9.75 0.075 0
9.9 0.075 0
10.05 0.075 0
10.2 0.075 0
10.35 0.075 0
10.5 0.075 0
10.65 0.075 0
10.8 0.075 0
10.95 0.075 0
11.1 0.075 0
11.25 0.075 0
11.4 0.075 0
11.55 0.075 0
11.7 0.075 0
11.85 0.075 0
12 0.075 0
12.15 0.075 0
12.3 0.075 0
12.45 0.075 0
12.6 0.075 0
12.75 0.075 0
12.9 0.075 0
13.05 0.075 0
13.2 0.075 0
13.35 0.075 0
13.5 0.075 0
13.65 0.075 0
13.8 0.075 0
13.95 0.075 0
14.1 0.075 0
14.25 0.075 0
14.4 0.075 0
14.55 0.075 0
14.7 0.075 0
14.85 0.075 0
15 0.075 0
15.15 0.075 0
15.3 0.075 0
15.45 0.075 0
15.6 0.075 0
15.75 0.075 0
15.9 0.075 0
16.05 0.075 0
16.2 0.075 0
16.35 0.075 0
16.5 0.075 0
16.65 0.075 0
16.8 0.075 0
16.95 0.075 0
17.1 0.075 0
17.25 0.075 0
17.4 0.075 0
17.55 0.075 0
17.7 0.075 0
17.85 0.075 0
18 0.075 0
18.15 0.075 0
18.3 0.075 0
18.45 0.075 0
18.6 0.075 0
18.75 0.075 0
18.9 0.075 0
19.05 0.075 0
19.2 0.075 0
19.35 0.075 0
19.5 0.075 0
19.65 0.075 0
19.8 0.075 0
19.95 0.075 0
20.1 0.075 0
20.25 0.075 0
20.4 0.075 0
20.55 0.075 0
20.7 0.075 0
20.85 0.075 0
21 0.075 0
21.15 0.075 0
21.3 0.075 0
21.45 0.075 0
21.6 0.075 0
21.75 0.075 0
21.9 0.075 0
22.05 0.075 0
22.2 0.075 0
22.35 0.075 0
22.5 0.075 0
22.65 0.075 0
22.8 0.075 0
22.95 0.075 0
23.1 0.075 0
23.25 0.075 0
23.4 0.075 0
23.55 0.075 0
23.7 0.075 0
23.85 0.075 0
24 0.075 0
24.15 0.075 0
24.3 0.075 0
24.45 0.075 0
24.6 0.075 0
24.75 0.075 0
24.9 0.075 0
25.05 0.075 0
25.2 0.075 0
25.35 0.075 0
25.5 0.075 0
25.65 0.075 0
25.8 0.075 0
25.95 0.075 0
26.1 0.075 0
26.25 0.075 0
26.4 0.075 0
26.55 0.075 0
26.7 0.075 0
26.85 0.075 0
27 0.075 0
27.15 0.075 0
27.3 0.075 0
27.45 0.075 0
27.6 0.075 0
27.75 0.075 0
27.9 0.075 0
28.05 0.075 0
28.2 0.075 0
28.35 0.075 0
28.5 0.075 0
28.65 0.075 0
28.8 0.075 0
28.95 0.075 0
29.1 0.075 0
29.25 0.075 0
29.4 0.075 0
29.55 0.075 0
29.7 0.075 0
29.85 0.075 0
0 0.15 0
0.15 0.15 0
0.3 0.15 0
0.45 0.15 0
0.6 0.15 0
0.75 0.15 0
0.9 0.15 0
1.05 0.15 0
1.2 0.15 0
1.35 0.15 0
1.5 0.15 0
1.65 0.15 0
1.8 0.15 0
1.95 0.15 0
2.1 0.15 0
2.25 0.15 0
2.4 0.15 0
2.55 0.15 0
2.7 0.15 0
2.85 0.15 0
3 0.15 0
3.15 0.15 0
3.3 0.15 0
3.45 0.15 0
3.6 0.15 0
3.75 0.15 0
3.9 0.15 0
4.05 0.15 0
4.2 0.15 0
4.35 0.15 0
4.5 0.15 0
4.65 0.15 0
4.8 0.15 0
4.95 0.15 0
5.1 0.15 0
5.25 0.15 0
5.4 0.15 0
5.55 0.15 0
5.7 0.15 0
5.85 0.15 0
6 0.15 0
6.15 0.15 0
6.3 0.15 0
6.45 0.15 0
6.6 0.15 0
6.75 0.15 0
6.9 0.15 0
7.05 0.15 0
7.2 0.15 0
7.35 0.15 0
7.5 0.15 0
7.65 0.15 0
7.8 0.15 0
7.95 0.15 0
8.1 0.15 0
8.25 0.15 0
8.4 0.15 0
8.55 0.15 0
8.7 0.15 0
8.85 0.15 0
9 0.15 0
9.15 0.15 0
9.3 0.15 0
9.45 0.15 0
9.6 0.15 0
9.75 0.15 0
9.9 0.15 0
10.05 0.15 0
10.2 0.15 0
10.35 0.15 0
10.5 0.15 0
10.65 0.15 0
10.8 0.15 0
10.95 0.15 0
11.1 0.15 0
11.25 0.15 0
11.4 0.15 0
11.55 0.15 0
11.7 0.15 0
11.85 0.15 0
12 0.15 0
12.15 0.15 0
12.3 0.15 0
12.45 0.15 0
12.6 0.15 0
12.75 0.15 0
12.9 0.15 0
13.05 0.15 0
13.2 0.15 0
13.35 0.15 0
13.5 0.15 0
13.65 0.15 0
13.8 0.15 0
13.95 0.15 0
14.1 0.15 0
14.25 0.15 0
14.4 0.15 0
14.55 0.15 0
14.7 0.15 0
14.85 0.15 0
15 0.15 0
15.15 0.15 0
15.3 0.15 0
15.45 0.15 0
15.6 0.15 0
15.75 0.15 0
15.9 0.15 0
16.05 0.15 0
16.2 0.15 0
16.35 0.15 0
16.5 0.15 0
16.65 0.15 0
16.8 0.15 0
16.95 0.15 0
17.1 0.15 0
17.25 0.15 0
17.4 0.15 0
17.55 0.15 0
17.7 0.15 0
17.85 0.15 0
18 0.15 0
18.15 0.15 0
18.3 0.15 0
18.45 0.15 0
18.6 0.15 0
18.75 0.15 0
18.9 0.15 0
19.05 0.15 0
19.2 0.15 0
19.35 0.15 0
19.5 0.15 0
19.65 0.15 0
19.8 0.15 0
19.95 0.15 0
20.1 0.15 0
20.25 0.15 0
20.4 0.15 0
20.55 0.15 0
20.7 0.15 0
20.85 0.15 0
21 0.15 0
21.15 0.15 0
21.3 0.15 0
21.45 0.15 0
21.6 0.15 0
21.75 0.15 0
21.9 0.15 0
22.05 0.15 0
22.2 0.15 0
22.35 0.15 0
22.5 0.15 0
22.65 0.15 0
22.8 0.15 0
22.95 0.15 0
23.1 0.15 0
23.25 0.15 0
23.4 0.15 0
23.55 0.15 0
23.7 0.15 0
23.85 0.15 0
24 0.15 0
24.15 0.15 0
24.3 0.15 0
24.45 0.15 0
24.6 0.15 0
24.75 0.15 0
24.9 0.15 0
25.05 0.15 0
25.2 0.15 0
25.35 0.15 0
25.5 0.15 0
25.65 0.15 0
25.8 0.15 0
25.95 0.15 0
26.1 0.15 0
26.25 0.15 0
26.4 0.15 0
26.55 0.15 0
26.7 0.15 0
26.85 0.15 0
27 0.15 0
27.15 0.15 0
27.3 0.15 0
27.45 0.15 0
27.6 0.15 0
27.75 0.15 0
27.9 0.15 0
28.05 0.15 0
28.2 0.15 0
28.35 0.15 0
28.5 0.15 0
28.65 0.15 0
28.8 0.15 0
28.95 0.15 0
29.1 0.15 0
29.25 0.15 0
29.4 0.15 0
29.55 0.15 0
29.7 0.15 0
29.85 0.15 0
0 0.225 0
0.15 0.225 0
0.3 0.225 0
0.45 0.225 0
0.6 0.225 0
0.75 0.225 0
0.9 0.225 0
1.05 0.225 0
1.2 0.225 0
1.35 0.225 0
1.5 0.225 0
1.65 0.225 0
1.8 0.225 0
1.95 0.225 0
2.1 0.225 0
2.25 0.225 0
2.4 0.225 0
2.55 0.225 0
2.7 0.225 0
2.85 0.225 0
3 0.225 0
3.15 0.225 0
3.3 0.225 0
3.45 0.225 0
3.6 0.225 0
3.75 0.225 0
3.9 0.225 0
4.05 0.225 0
4.2 0.225 0
4.35 0.225 0
4.5 0.225 0
4.65 0.225 0
4.8 0.225 0
4.95 0.225 0
5.1 0.225 0
5.25 0.225 0
5.4 0.225 0
5.55 0.225 0
5.7 0.225 0
5.85 0.225 0
6 0.225 0
6.15 0.225 0
6.3 0.225 0
6.45 0.225 0
6.6 0.225 0
6.75 0.225 0
6.9 0.225 0
7.05 0.225 0
7.2 0.225 0
7.35 0.225 0
7.5 0.225 0
7.65 0.225 0
7.8 0.225 0
7.95 0.225 0
8.1 0.225 0
8.25 0.225 0
8.4 0.225 0
8.55 0.225 0
8.7 0.225 0
8.85 0.225 0
9 0.225 0
9.15 0.225 0
9.3 0.225 0
9.45 0.225 0
9.6 0.225 0
9.75 0.225 0
9.9 0.225 0
10.05 0.225 0
10.2 0.225 0
10.35 0.225 0
10.5 0.225 0
10.65 0.225 0
10.8 0.225 0
10.95 0.225 0
11.1 0.225 0
11.25 0.225 0
11.4 0.225 0
11.55 0.225 0
11.7 0.225 0
11.85 0.225 0
12 0.225 0
12.15 0.225 0
12.3 0.225 0
12.45 0.225 0
12.6 0.225 0
12.75 0.225 0
12.9 0.225 0
13.05 0.225 0
13.2 0.225 0
13.35 0.225 0
13.5 0.225 0
13.65 0.225 0
13.8 0.225 0
13.95 0.225 0
14.1 0.225 0
14.25 0.225 0
14.4 0.225 0
14.55 0.225 0
14.7 0.225 0
14.85 0.225 0
15 0.225 0
15.15 0.225 0
15.3 0.225 0
15.45 0.225 0
15.6 0.225 0
15.75 0.225 0
15.9 0.225 0
16.05 0.225 0
16.2 0.225 0
16.35 0.225 0
16.5 0.225 0
16.65 0.225 0
16.8 0.225 0
16.95 0.225 0
17.1 0.225 0
17.25 0.225 0
17.4 0.225 0
17.55 0.225 0
17.7 0.225 0
17.85 0.225 0
18 0.225 0
18.15 0.225 0
18.3 0.225 0
18.45 0.225 0
18.6 0.225 0
18.75 0.225 0
18.9 0.225 0
19.05 0.225 0
19.2 0.225 0
19.35 0.225 0
19.5 0.225 0
19.65 0.225 0
19.8 0.225 0
19.95 0.225 0
20.1 0.225 0
20.25 0.225 0
20.4 0.225 0
20.55 0.225 0
20.7 0.225 0
20.85 0.225 0
21 0.225 0
21.15 0.225 0
21.3 0.225 0
21.45 0.225 0
21.6 0.225 0
21.75 0.225 0
21.9 0.225 0
22.05 0.225 0
22.2 0.225 0
22.35 0.225 0
22.5 0.225 0
22.65 0.225 0
22.8 0.225 0
22.95 0.225 0
23.1 0.225 0
23.25 0.225 0
23.4 0.225 0
23.55 0.225 0
23.7 0.225 0
23.85 0.225 0
24 0.225 0
24.15 0.225 0
24.3 0.225 0
24.45 0.225 0
24.6 0.225 0
24.75 0.225 0
24.9 0.225 0
25.05 0.225 0
25.2 0.225 0
25.35 0.225 0
25.5 0.225 0
25.65 0.225 0
25.8 0.225 0
25.95 0.225 0
26.1 0.225 0
26.25 0.225 0
26.4 0.225 0
26.55 0.225 0
26.7 0.225 0
26.85 0.225 0
27 0.225 0
27.15 0.225 0
27.3 0.225 0
27.45 0.225 0
27.6 0.225 0
27.75 0.225 0
27.9 0.225 0
28.05 0.225 0
28.2 0.225 0
28.35 0.225 0
28.5 0.225 0
28.65 0.225 0
28.8 0.225 0
28.95 0.225 0
29.1 0.225 0
29.25 0.225 0
29.4 0.225 0
29.55 0.225 0
29.7 0.225 0
29.85 0.225 0
0 0.3 0
0.15 0.3 0
0.3 0.3 0
0.45 0.3 0
0.6 0.3 0
0.75 0.3 0
0.9 0.3 0
1.05 0.3 0
1.2 0.3 0
1.35 0.3 0
1.5 0.3 0
1.65 0.3 0
1.8 0.3 0
1.95 0.3 0
2.1 0.3 0
2.25 0.3 0
2.4 0.3 0
2.55 0.3 0
2.7 0.3 0
2.85 0.3 0
3 0.3 0
3.15 0.3 0
3.3 0.3 0
3.45 0.3 0
3.6 0.3 0
3.75 0.3 0
3.9 0.3 0
4.05 0.3 0
4.2 0.3 0
4.35 0.3 0
4.5 0.3 0
4.65 0.3 0
4.8 0.3 0
4.95 0.3 0
5.1 0.3 0
5.25 0.3 0
5.4 0.3 0
5.55 0.3 0
5.7 0.3 0
5.85 0.3 0
6 0.3 0
6.15 0.3 0
[...]
POINT_DATA 40000

SCALARS p float 1
LOOKUP_TABLE default
20183.36356
20183.36356
20183.30829
20183.28083
20183.26285
20183.25042
20183.24372
20183.24406
20183.2516
20183.26445
20183.27955
20183.29426
20183.30724
20183.3184
20183.32808
20183.33627
20183.34293
20183.34827
20183.35257
20183.35466
20183.35138
20183.34111
20183.31182
20183.26018
20183.3267
20183.73833
20183.62283
20183.2679
20183.0297
20182.82004
20182.61581
20182.41006
20182.20043
20181.98582
20181.76538
20181.5381
20181.30273
20181.05796
20180.80311
20180.54058
20180.2837
20180.14673
20180.17202
20180.34439
20180.29106
20180.04235
20179.89636
20179.86299
20179.8508
20179.85892
20179.86485
20179.85734
20179.84132
20179.80196
20179.74038
20179.67992
20179.62502
20179.56624
20179.52675
20179.54735
20179.65015
20179.83608
20180.09255
20180.394
20180.70174
20180.96727
20181.13958
20181.18372
20181.11515
20180.93978
20180.5048
20180.02053
20179.76578
20179.66963
20179.59146
20179.50117
20179.4991
20179.54813
20179.57631
20179.54886
20179.49051
20179.46299
20179.49342
20179.52589
20179.52739
20179.51006
20179.49081
20179.47814
20179.47464
20179.47799
20179.48264
20179.4841
20179.48111
20179.47191
20179.44615
20179.41375
20179.35824
20179.2314
20179.10469
20179.01405
20178.9231
20178.8152
20178.70201
20178.60152
20178.52743
20178.4877
20178.48591
20178.52282
20178.59749
20178.70792
20178.85146
20179.02503
20179.22526
20179.44854
20179.69111
20179.94893
20180.21775
20180.49294
20180.76961
20181.04256
20181.3065
20181.55625
20181.78691
20181.99431
20182.17545
20182.32851
20182.4531
20182.55011
20182.62156
20182.67021
20182.69928
20182.71204
20182.71159
20182.70071
20182.68184
20182.65703
20182.62807
20182.59647
20182.56349
20182.53012
20182.49709
20182.46486
20182.43365
20182.40352
20182.37447
20182.34645
20182.31947
20182.29356
20182.2688
20182.24523
20182.2229
20182.20178
20182.18185
20182.16308
20182.14541
20182.12878
20182.11313
20182.09836
20182.08438
20182.0711
20182.05845
20182.04642
20182.03505
20182.02439
20182.01452
20182.00558
20181.99774
20181.99117
20181.98596
20181.98212
20181.9796
20181.97831
20181.97814
20181.97903
20181.98098
20181.98409
20181.98849
20181.99424
20182.00127
20182.00944
20182.01856
20182.02854
20182.03935
20182.05112
20182.06388
20182.07781
20182.09282
20182.10899
20182.12612
20182.14431
20182.16341
20182.18371
20182.20515
20182.22805
20182.25227
20182.27783
20182.30448
20182.33167
20182.35978
20182.35978
20183.36356
20183.36356
20183.30829
20183.28083
20183.26285
20183.25042
20183.24372
20183.24406
20183.2516
20183.26445
20183.27955
20183.29426
20183.30724
20183.3184
20183.32808
20183.33627
20183.34293
20183.34827
20183.35257
20183.35466
20183.35138
20183.34111
20183.31182
20183.26018
20183.3267
20183.73833
20183.62283
20183.2679
20183.0297
20182.82004
20182.61581
20182.41006
20182.20043
20181.98582
20181.76538
20181.5381
20181.30273
20181.05796
20180.80311
20180.54058
20180.2837
20180.14673
20180.17202
20180.34439
20180.29106
20180.04235
20179.89636
20179.86299
20179.8508
20179.85892
20179.86485
20179.85734
20179.84132
20179.80196
20179.74038
20179.67992
20179.62502
20179.56624
20179.52675
20179.54735
20179.65015
20179.83608
20180.09255
20180.394
20180.70174
20180.96727
20181.13958
20181.18372
20181.11515
20180.93978
20180.5048
20180.02053
20179.76578
20179.66963
20179.59146
20179.50117
20179.4991
20179.54813
20179.57631
20179.54886
20179.49051
20179.46299
20179.49342
20179.52589
20179.52739
20179.51006
20179.49081
20179.47814
20179.47464
20179.47799
20179.48264
20179.4841
20179.48111
20179.47191
20179.44615
20179.41375
20179.35824
20179.2314
20179.10469
20179.01405
20178.9231
20178.8152
20178.70201
20178.60152
20178.52743
20178.4877
20178.48591
20178.52282
20178.59749
20178.70792
20178.85146
20179.02503
20179.22526
20179.44854
20179.69111
20179.94893
20180.21775
20180.49294
20180.76961
20181.04256
20181.3065
20181.55625
20181.78691
20181.99431
20182.17545
20182.32851
20182.4531
20182.55011
20182.62156
20182.67021
20182.69928
20182.71204
20182.71159
20182.70071
20182.68184
20182.65703
20182.62807
20182.59647
20182.56349
20182.53012
20182.49709
20182.46486
20182.43365
20182.40352
20182.37447
20182.34645
20182.31947
20182.29356
20182.2688
20182.24523
20182.2229
20182.20178
20182.18185
20182.16308
20182.14541
20182.12878
20182.11313
20182.09836
20182.08438
20182.0711
20182.05845
20182.04642
20182.03505
20182.02439
20182.01452
20182.00558
20181.99774
20181.99117
20181.98596
20181.98212
20181.9796
20181.97831
20181.97814
20181.97903
20181.98098
20181.98409
20181.98849
20181.99424
20182.00127
20182.00944
20182.01856
20182.02854
20182.03935
20182.05112
20182.06388
20182.07781
20182.09282
20182.10899
20182.12612
20182.14431
20182.16341
20182.18371
20182.20515
20182.22805
20182.25227
20182.27783
20182.30448
20182.33167
20182.35978
20182.35978
20183.33091
20183.33091
20183.29917
20183.27631
20183.26036
20183.24951
20183.24408
20183.24518
20183.25296
20183.26573
20183.28067
20183.29525
20183.30814
20183.31922
20183.32883
20183.33691
20183.34341
20183.34858
20183.35282
20183.35541
20183.35367
20183.34104
20183.29396
20183.22099
20183.23705
20183.52884
20183.48901
20183.23954
20183.02285
20182.81875
20182.61619
20182.41101
20182.20165
20181.98725
20181.76705
20181.54007
20181.30503
20181.06042
20180.80497
20180.5392
20180.26974
20180.13805
20180.11592
20180.24376
20180.20771
20179.98086
20179.84991
20179.84473
20179.85193
20179.86156
20179.86526
20179.85707
20179.84407
20179.80718
20179.74002
20179.66464
20179.59504
20179.53078
20179.49266
20179.51609
20179.62086
20179.80747
20180.06355
20180.36401
20180.67084
20180.9367
20181.11202
20181.1598
20181.07119
20180.8518
20180.41711
20179.9446
20179.71219
20179.62443
20179.552
20179.48643
20179.49921
20179.55333
20179.58653
20179.55401
20179.48222
20179.4464
20179.48128
20179.52211
20179.52686
20179.50961
20179.49021
20179.47738
20179.47371
20179.47704
20179.48178
20179.48343
20179.48032
20179.47262
20179.4474
20179.41268
20179.3654
20179.24399
20179.10811
20179.00356
20178.90288
20178.79123
20178.67831
20178.57991
20178.50839
20178.47106
20178.47129
20178.50982
20178.58575
20178.69713
20178.84138
20179.01545
20179.21602
20179.43951
20179.68219
20179.94007
20180.20892
20180.48417
20180.76095
20181.03411
20181.29839
20181.54858
20181.77975
20181.98776
20182.16954
20182.32322
20182.4484
20182.54594
20182.61785
20182.66691
20182.69633
20182.70941
20182.70926
20182.69868
20182.68008
20182.65553
20182.62678
20182.59537
20182.56255
20182.52933
20182.49643
20182.46431
20182.43319
20182.40316
20182.37418
20182.34623
20182.31929
20182.29342
20182.26869
20182.24516
20182.22285
20182.20176
20182.18186
20182.16311
20182.14547
20182.12889
20182.11327
20182.09853
20182.08458
20182.07133
20182.05869
20182.04667
20182.03531
20182.02465
20182.01477
20182.00581
20181.99793
20181.99132
20181.98608
20181.98223
20181.9797
20181.97841
20181.97823
20181.9791
20181.98101
20181.98409
20181.98845
20181.99419
20182.00123
20182.00942
20182.01855
20182.02854
20182.03933
20182.05108
20182.06382
20182.07776
20182.09279
20182.10899
20182.12613
20182.14433
20182.16342
20182.1837
20182.20512
20182.22798
20182.25221
20182.27776
20182.30445
20182.33159
20182.35978
20182.35978
20183.30515
20183.30515
20183.28585
20183.26824
20183.25507
20183.24629
20183.24242
20183.2443
20183.25206
20183.26443
20183.27913
20183.29391
20183.30738
20183.31913
20183.32918
20183.33743
20183.34396
20183.34908
20183.3535
20183.35697
20183.35598
20183.33736
20183.26941
20183.18829
20183.18012
20183.34161
20183.35314
20183.20305
20183.01319
20182.81719
20182.61725
20182.41303
20182.20413
20181.99013
20181.77043
20181.54407
20181.30972
20181.06557
20180.80933
20180.53833
20180.24668
20180.08812
20180.03907
20180.12679
20180.09412
20179.88774
20179.77609
20179.81147
20179.85449
20179.87073
20179.86801
20179.85369
20179.83355
20179.78585
20179.70387
20179.60871
20179.52114
20179.45114
20179.41773
20179.44761
20179.55643
20179.74455
20180.0002
20180.29917
20180.60464
20180.8705
20181.04847
20181.10027
20180.99728
20180.72558
20180.26409
20179.80458
20179.61232
20179.55362
20179.49412
20179.44831
20179.47875
20179.55273
20179.59461
20179.55085
20179.45566
20179.40732
20179.45194
20179.50903
20179.52087
20179.50514
20179.48764
20179.47686
20179.47406
20179.47725
20179.48143
20179.48323
20179.48041
20179.47329
20179.45357
20179.40964
20179.34435
20179.22118
20179.07931
20178.95815
20178.84503
20178.73063
20178.62157
20178.52967
20178.46487
20178.43347
20178.43856
20178.48093
20178.55985
20178.67351
20178.81947
20178.9948
20179.19626
20179.42036
20179.66344
20179.92159
20180.19065
20180.46615
20180.74331
20181.01705
20181.2821
20181.53325
20181.76556
20181.97483
20182.15787
20182.31279
20182.43908
20182.53759
20182.61032
20182.66006
20182.69007
20182.70368
20182.70404
20182.69394
20182.67582
20182.65172
20182.62341
20182.59241
20182.55998
20182.52711
20182.49451
20182.46266
20182.43176
20182.4019
20182.37306
20182.34522
20182.31839
20182.2926
20182.26793
20182.24444
20182.22217
20182.2011
20182.18122
20182.16249
20182.14487
20182.12831
20182.11271
20182.09799
20182.08404
20182.07078
20182.05814
20182.04615
20182.03483
20182.02425
20182.01445
20182.00555
20181.99771
20181.99111
20181.98588
20181.98204
20181.97952
20181.97824
20181.97807
20181.97893
20181.9808
20181.98383
20181.98815
20181.99389
20182.00093
20182.00915
20182.01828
20182.02825
20182.03899
20182.05071
20182.06342
20182.07738
20182.09242
20182.1087
20182.12588
20182.14414
20182.16324
20182.18352
20182.20494
20182.22782
20182.25211
20182.2777
20182.30441
20182.33143
20182.35945
20182.35945
20183.28438
20183.28438
20183.27212
20183.25886
20183.24828
20183.24136
20183.23877
20183.24118
20183.24866
20183.26031
20183.27441
20183.28917
20183.30327
20183.31607
20183.32727
20183.33656
20183.34386
20183.34944
20183.35426
20183.35841
20183.35687
20183.33235
20183.25393
20183.18468
20183.18058
20183.26186
20183.28035
20183.17656
20183.0058
20182.81686
20182.61948
20182.41624
20182.2079
20181.99446
20181.77548
20181.55009
20181.31688
20181.07371
20180.81718
20180.54125
20180.22476
20180.02862
20179.97018
20180.03419
20179.99393
20179.80761
20179.71619
20179.77818
20179.85238
20179.87873
20179.86739
20179.83887
20179.79854
20179.72791
20179.62531
20179.51296
20179.41387
20179.34213
20179.31435
20179.35059
20179.46286
20179.65126
20179.9048
20180.20054
20180.50339
20180.76835
20180.94667
20180.99737
20180.88642
20180.57808
20180.10126
20179.6604
20179.50223
20179.47864
20179.42503
20179.38071
20179.42135
20179.52336
20179.57959
20179.52744
20179.40719
20179.34473
20179.40321
20179.48433
20179.50814
20179.49611
20179.48275
20179.47661
20179.47597
20179.47881
20179.48169
20179.48289
20179.48217
20179.47059
20179.43834
20179.37646
20179.28639
20179.15575
20179.01134
20178.88121
20178.76205
20178.64915
20178.54683
20178.46357
20178.40717
20178.38302
20178.39403
20178.44109
20178.52363
20178.64007
20178.7881
20178.96493
20179.16741
20179.39216
20179.63562
20179.89397
20180.16317
20180.43888
20180.71643
20180.99084
20181.25689
20181.50934
20181.74324
20181.95429
20182.13918
20182.29591
20182.42389
20182.5239
20182.59791
20182.64874
20182.67968
20182.69412
20182.69525
20182.68592
20182.66853
20182.64514
20182.61752
20182.58717
20182.55536
20182.52307
20182.491
20182.45958
20182.42905
20182.39948
20182.37087
20182.34322
20182.31654
20182.2909
20182.26636
20182.24296
20182.22075
20182.19972
20182.17984
20182.16111
20182.14349
20182.12692
20182.1113
20182.09655
20182.08255
20182.06926
20182.05662
20182.04466
20182.03344
20182.023
20182.01338
20182.00464
20181.99692
20181.9904
20181.98523
20181.98144
20181.97898
20181.97774
20181.9776
20181.97848
20181.98034
20181.98334
20181.98762
20181.99336
20182.0004
20182.00863
20182.01773
20182.02768
20182.03834
20182.05003
20182.06269
20182.0767
20182.09178
20182.10819
20182.12544
20182.14383
20182.16299
20182.18334
20182.20483
20182.22778
20182.25221
20182.27785
20182.30459
20182.3312
20182.35819
20182.35819
20183.26682
20183.26682
20183.25877
20183.24894
20183.24066
20183.23533
20183.23373
20183.23643
20183.24348
20183.25422
20183.26742
20183.2817
20183.29598
20183.30956
20183.32197
20183.33276
20183.34161
20183.34854
20183.35415
20183.35837
20183.35525
20183.3286
20183.25199
20183.19773
20183.20279
20183.251
20183.26217
20183.16646
20183.00396
20182.81903
20182.62329
20182.42078
20182.21296
20182.00019
20181.78217
20181.5581
20181.32655
20181.08514
20180.8296
20180.55142
20180.21484
20179.98316
20179.91915
20179.97349
20179.92811
20179.76156
20179.68778
20179.75644
20179.8412
20179.87382
20179.85371
20179.80508
20179.73586
20179.63721
20179.51454
20179.38975
20179.28412
20179.21227
20179.18904
20179.22985
20179.34376
20179.53046
20179.77976
20180.07027
20180.36903
20180.63193
20180.80979
20180.85877
20180.74316
20180.41921
20179.95498
20179.54738
20179.41524
20179.40214
20179.34047
20179.2861
20179.32311
20179.4508
20179.52943
20179.47876
20179.34236
20179.26984
20179.34391
20179.45215
20179.4906
20179.4842
20179.47599
20179.47572
20179.47848
20179.48114
20179.4828
20179.48275
20179.47488
20179.4475
20179.39187
20179.30645
20179.19655
20179.06145
20178.9189
20178.7873
20178.66774
20178.55875
20178.46369
20178.38889
20178.34066
20178.32365
20178.34058
20178.3924
20178.4787
20178.59805
20178.74825
20178.92662
20179.13013
20179.35549
20179.59922
20179.85764
20180.12685
20180.40265
20180.68054
20180.95565
20181.22285
20181.4769
20181.7128
20181.92613
20182.11344
20182.27258
20182.40284
20182.50492
20182.58072
20182.63308
20182.66532
20182.6809
20182.6831
20182.67478
20182.65839
20182.63596
20182.60926
20182.57979
20182.5488
20182.51728
20182.48589
20182.45508
20182.42505
20182.39587
20182.36758
20182.3402
20182.31376
20182.28832
20182.26396
20182.24072
20182.21861
20182.19765
20182.17781
20182.15909
20182.14145
20182.12485
20182.10918
20182.09435
20182.08029
20182.06694
20182.05429
20182.04238
20182.03125
20182.02096
20182.01154
20182.00301
20181.99548
20181.98913
20181.98408
20181.98039
20181.978
20181.97684
20181.97675
20181.97767
20181.97953
20181.98253
20181.9868
20181.99253
20181.99956
20182.00779
20182.01684
20182.02679
20182.03738
20182.04907
20182.06168
20182.07579
20182.09093
20182.10753
20182.12493
20182.1435
20182.16281
20182.1833
20182.20496
20182.22806
20182.25274
20182.27848
20182.30528
20182.3312
20182.35604
20182.35604
20183.25137
20183.25137
20183.24595
20183.23874
20183.23244
20183.22848
20183.2277
20183.23059
20183.2372
20183.24705
20183.25923
20183.27271
20183.28665
20183.30043
20183.31358
20183.32565
20183.33618
20183.3449
20183.35174
20183.35575
20183.35117
20183.32617
20183.26214
20183.22262
20183.23621
20183.27613
20183.27713
20183.17186
20183.00879
20182.82437
20182.62897
20182.42671
20182.21931
20182.00727
20181.79042
20181.56804
20181.33873
20181.10007
20180.84738
20180.57141
20180.22466
20179.9671
20179.9005
20179.95357
20179.90895
20179.75738
20179.68793
20179.74431
20179.8224
20179.85276
20179.82146
20179.74928
20179.64904
20179.52303
20179.3828
20179.24835
20179.13817
20179.06643
20179.04629
20179.08978
20179.20352
20179.38657
20179.62953
20179.91284
20180.20573
20180.46523
20180.64222
20180.69021
20180.57241
20180.26064
20179.82898
20179.46774
20179.35776
20179.33315
20179.24192
20179.15845
20179.18724
20179.33793
20179.44646
20179.41158
20179.27618
20179.20235
20179.28883
20179.41856
20179.47011
20179.47026
20179.46778
20179.47394
20179.48109
20179.48429
20179.48301
20179.47442
20179.44823
20179.39522
20179.31454
20179.21063
20179.08945
20178.95371
20178.81509
20178.6856
20178.56826
20178.46378
20178.37534
20178.30806
20178.26717
20178.25676
20178.27931
20178.33579
20178.42584
20178.54813
20178.70056
20178.88052
20179.08505
20179.31095
20179.55485
20179.81318
20180.08222
20180.35796
20180.63607
20180.91185
20181.18028
20181.43617
20181.67442
20181.8905
20182.08078
20182.24292
20182.37606
20182.48079
20182.55893
20182.61329
20182.64724
20182.66431
20182.66786
20182.66081
20182.64565
20182.62442
20182.59886
20182.57046
20182.54048
20182.50987
20182.47933
20182.44924
20182.41982
20182.39115
20182.36327
20182.33623
20182.31008
20182.28492
20182.2608
20182.23776
20182.21581
20182.19495
20182.17518
20182.1565
20182.13887
20182.12224
20182.10651
20182.0916
20182.07746
20182.06406
20182.05141
20182.03956
20182.02853
20182.01836
20182.00909
20182.00076
20181.99345
20181.98731
20181.98243
20181.97888
20181.97659
20181.9755
20181.97547
20181.97642
20181.97832
20181.98134
20181.98562
20181.99134
20181.99832
20182.00654
20182.01556
20182.02552
20182.03608
20182.04782
20182.06046
20182.07469
20182.08997
20182.10679
20182.12441
20182.14325
20182.16284
20182.18356
20182.20555
20182.2289
20182.254
20182.27994
20182.30692
20182.33214
20182.35423
20182.35423
20183.23734
20183.23734
20183.23362
20183.2284
20183.22375
20183.22098
20183.22089
20183.22393
20183.23017
20183.23924
20183.25046
20183.26306
20183.27636
20183.28987
20183.30319
20183.31593
20183.32767
20183.33795
20183.34607
20183.35025
20183.34486
20183.32373
20183.27842
20183.25433
20183.27338
20183.3144
20183.30865
20183.18909
20183.01988
20182.83295
20182.63654
20182.43399
20182.22685
20182.01561
20181.80014
20181.57981
20181.35336
20181.11853
20180.87079
20180.60222
20180.25756
20179.9876
20179.92167
20179.9775
20179.93782
20179.79445
20179.71447
20179.74456
20179.80437
20179.82129
20179.77256
20179.67446
20179.54426
20179.39357
20179.23788
20179.09501
20178.98125
20178.90963
20178.89149
20178.9362
20179.04827
20179.22602
20179.4608
20179.73503
20180.02039
20180.27601
20180.4527
20180.50181
20180.38827
20180.10515
20179.7145
20179.40525
20179.31133
20179.26483
20179.12771
20178.99734
20179.01842
20179.1959
20179.34303
20179.34054
20179.22682
20179.1626
20179.25417
20179.39064
20179.44746
20179.45223
20179.45681
20179.47122
20179.48371
20179.48589
20179.47607
20179.44856
20179.39586
20179.31733
20179.2177
20179.10236
20178.9758
20178.84122
20178.70652
20178.58011
20178.46577
20178.36561
20178.28292
20178.22212
20178.18771
20178.18329
20178.21112
20178.27207
20178.36582
20178.49108
20178.64579
20178.82738
20179.03294
20179.25934
20179.50329
20179.76139
20180.03006
20180.30552
20180.58366
20180.86
20181.12967
20181.38752
20181.62842
20181.84766
20182.04142
20182.20713
20182.34374
20182.45168
20182.53271
20182.5896
20182.6257
20182.64462
20182.64982
20182.6443
20182.63061
20182.61078
20182.58656
20182.55942
20182.53059
20182.50104
20182.47144
20182.44219
20182.41348
20182.38539
20182.358
20182.33138
20182.3056
20182.28077
20182.25694
20182.23414
20182.21238
20182.19166
20182.172
20182.15339
20182.1358
20182.11917
20182.10341
20182.08843
20182.07422
20182.06077
20182.04814
20182.03636
20182.02543
20182.01537
20182.00622
20181.99803
20181.99091
20181.98499
20181.98035
20181.97699
20181.97483
20181.97379
20181.97377
20181.97473
20181.97666
20181.97974
20181.98406
20181.98977
20181.99671
20182.00486
20182.01385
20182.02383
20182.03445
20182.04631
20182.05907
20182.07346
20182.08895
20182.106
20182.12394
20182.14309
20182.1631
20182.1842
20182.20669
20182.23049
20182.25619
20182.28257
20182.30993
20182.33492
20182.35518
20182.35518
20183.22427
20183.22427
20183.22171
20183.21799
20183.21468
20183.2129
20183.21341
20183.21659
20183.22253
20183.23096
20183.24135
20183.25312
20183.2657
20183.2787
20183.29179
20183.30466
20183.31698
20183.32822
20183.33737
20183.34236
20183.33724
20183.32218
20183.29503
20183.28591
20183.31086
20183.35573
20183.34659
20183.21425
20183.03601
20182.84437
20182.6458
20182.44248
20182.23546
20182.02508
20181.81119
20181.59326
20181.37025
20181.14029
20180.89952
20180.64315
20180.31266
20180.04437
20179.98265
20180.04286
20180.01148
20179.87419
20179.77544
20179.76998
20179.79852
20179.78833
20179.71331
20179.58651
20179.42784
20179.25513
20179.08558
20178.93538
20178.8189
20178.74746
20178.73041
20178.77494
20178.88398
20179.05508
20179.2801
20179.54341
20179.81937
20180.07013
20180.24749
20180.30354
20180.2044
20179.94975
20179.60472
20179.34476
20179.25638
20179.18305
20178.99648
20178.81446