# vtk DataFile Version 2.0
FlowField
ASCII
DATASET STRUCTURED_GRID
DIMENSIONS 200 1 200
POINTS 40000 float
0 0 0
0.15 0 0
0.3 0 0
0.45 0 0
0.6 0 0
0.75 0 0
0.9 0 0
1.05 0 0
1.2 0 0
1.35 0 0
1.5 0 0
1.65 0 0
1.8 0 0
1.95 0 0
2.1 0 0
2.25 0 0
2.4 0 0
2.55 0 0
2.7 0 0
2.85 0 0
3 0 0
3.15 0 0
3.3 0 0
3.45 0 0
3.6 0 0
3.75 0 0
3.9 0 0
4.05 0 0
4.2 0 0
4.35 0 0
4.5 0 0
4.65 0 0
4.8 0 0
4.95 0 0
5.1 0 0
5.25 0 0
5.4 0 0
5.55 0 0
5.7 0 0
5.85 0 0
6 0 0
6.15 0 0
6.3 0 0
6.45 0 0
6.6 0 0
6.75 0 0
6.9 0 0
7.05 0 0
7.2 0 0
7.35 0 0
7.5 0 0
7.65 0 0
7.8 0 0
7.95 0 0
8.1 0 0
8.25 0 0
8.4 0 0
8.55 0 0
8.7 0 0
8.85 0 0
9 0 0
9.15 0 0
9.3 0 0
9.45 0 0
9.6 0 0
9.75 0 0
9.9 0 0
10.05 0 0
10.2 0 0
10.35 0 0
10.5 0 0
10.65 0 0
10.8 0 0
10.95 0 0
11.1 0 0
11.25 0 0
11.4 0 0
11.55 0 0
11.7 0 0
11.85 0 0
12 0 0
12.15 0 0
12.3 0 0
12.45 0 0
12.6 0 0
12.75 0 0
12.9 0 0
13.05 0 0
13.2 0 0
13.35 0 0
13.5 0 0
13.65 0 0
13.8 0 0
13.95 0 0
14.1 0 0
14.25 0 0
14.4 0 0
14.55 0 0
14.7 0 0
14.85 0 0
15 0 0
15.15 0 0
15.3 0 0
15.45 0 0
15.6 0 0
15.75 0 0
15.9 0 0
16.05 0 0
16.2 0 0
16.35 0 0
16.5 0 0
16.65 0 0
16.8 0 0
16.95 0 0
17.1 0 0
17.25 0 0
17.4 0 0
17.55 0 0
17.7 0 0
17.85 0 0
18 0 0
18.15 0 0
18.3 0 0
18.45 0 0
18.6 0 0
18.75 0 0
18.9 0 0
19.05 0 0
19.2 0 0
19.35 0 0
19.5 0 0
19.65 0 0
19.8 0 0
19.95 0 0
20.1 0 0
20.25 0 0
20.4 0 0
20.55 0 0
20.7 0 0
20.85 0 0
21 0 0
21.15 0 0
21.3 0 0
21.45 0 0
21.6 0 0
21.75 0 0
21.9 0 0
22.05 0 0
22.2 0 0
22.35 0 0
22.5 0 0
22.65 0 0
22.8 0 0
22.95 0 0
23.1 0 0
23.25 0 0
23.4 0 0
23.55 0 0
23.7 0 0
23.85 0 0
24 0 0
24.15 0 0
24.3 0 0
24.45 0 0
24.6 0 0
24.75 0 0
24.9 0 0
25.05 0 0
25.2 0 0
25.35 0 0
25.5 0 0
25.65 0 0
25.8 0 0
25.95 0 0
26.1 0 0
26.25 0 0
26.4 0 0
26.55 0 0
26.7 0 0
26.85 0 0
27 0 0
27.15 0 0
27.3 0 0
27.45 0 0
27.6 0 0
27.75 0 0
27.9 0 0
28.05 0 0
28.2 0 0
28.35 0 0
28.5 0 0
28.65 0 0
28.8 0 0
28.95 0 0
29.1 0 0
29.25 0 0
29.4 0 0
29.55 0 0
29.7 0 0
29.85 0 0
0 0.075 0
0.15 0.075 0
0.3 0.075 0
0.45 0.075 0
0.6 0.075 0
0.75 0.075 0
0.9 0.075 0
1.05 0.075 0
1.2 0.075 0
1.35 0.075 0
1.5 0.075 0
1.65 0.075 0
1.8 0.075 0
1.95 0.075 0
2.1 0.075 0
2.25 0.075 0
2.4 0.075 0
2.55 0.075 0
2.7 0.075 0
2.85 0.075 0
3 0.075 0
3.15 0.075 0
3.3 0.075 0
3.45 0.075 0
3.6 0.075 0
3.75 0.075 0
3.9 0.075 0
4.05 0.075 0
4.2 0.075 0
4.35 0.075 0
4.5 0.075 0
4.65 0.075 0
4.8 0.075 0
4.95 0.075 0
5.1 0.075 0
5.25 0.075 0
5.4 0.075 0
5.55 0.075 0
5.7 0.075 0
5.85 0.075 0
6 0.075 0
6.15 0.075 0
6.3 0.075 0
6.45 0.075 0
6.6 0.075 0
6.75 0.075 0
6.9 0.075 0
7.05 0.075 0
7.2 0.075 0
7.35 0.075 0
7.5 0.075 0
7.65 0.075 0
7.8 0.075 0
7.95 0.075 0
8.1 0.075 0
8.25 0.075 0
8.4 0.075 0
8.55 0.075 0
8.7 0.075 0
8.85 0.075 0
9 0.075 0
9.15 0.075 0
9.3 0.075 0
9.45 0.075 0
9.6 0.075 0
9.75 0.075 0
9.9 0.075 0
10.05 0.075 0
10.2 0.075 0
10.35 0.075 0
10.5 0.075 0
10.65 0.075 0
10.8 0.075 0
10.95 0.075 0
11.1 0.075 0
11.25 0.075 0
11.4 0.075 0
11.55 0.075 0
11.7 0.075 0
11.85 0.075 0
12 0.075 0
12.15 0.075 0
12.3 0.075 0
12.45 0.075 0
12.6 0.075 0
12.75 0.075 0
12.9 0.075 0
13.05 0.075 0
13.2 0.075 0
13.35 0.075 0
13.5 0.075 0
13.65 0.075 0
13.8 0.075 0
13.95 0.075 0
14.1 0.075 0
14.25 0.075 0
14.4 0.075 0
14.55 0.075 0
14.7 0.075 0
14.85 0.075 0
15 0.075 0
15.15 0.075 0
15.3 0.075 0
15.45 0.075 0
15.6 0.075 0
15.75 0.075 0
15.9 0.075 0
16.05 0.075 0
16.2 0.075 0
16.35 0.075 0
16.5 0.075 0
16.65 0.075 0
16.8 0.075 0
16.95 0.075 0
17.1 0.075 0
17.25 0.075 0
17.4 0.075 0
17.55 0.075 0
17.7 0.075 0
17.85 0.075 0
18 0.075 0
18.15 0.075 0
18.3 0.075 0
18.45 0.075 0
18.6 0.075 0
18.75 0.075 0
18.9 0.075 0
19.05 0.075 0
19.2 0.075 0
19.35 0.075 0
19.5 0.075 0
19.65 0.075 0
19.8 0.075 0
19.95 0.075 0
20.1 0.075 0
20.25 0.075 0
20.4 0.075 0
20.55 0.075 0
20.7 0.075 0
20.85 0.075 0
21 0.075 0
21.15 0.075 0
21.3 0.075 0
21.45 0.075 0
21.6 0.075 0
21.75 0.075 0
21.9 0.075 0
22.05 0.075 0
22.2 0.075 0
22.35 0.075 0
22.5 0.075 0
22.65 0.075 0
22.8 0.075 0
22.95 0.075 0
23.1 0.075 0
23.25 0.075 0
23.4 0.075 0
23.55 0.075 0
23.7 0.075 0
23.85 0.075 0
24 0.075 0
24.15 0.075 0
24.3 0.075 0
24.45 0.075 0
24.6 0.075 0
24.75 0.075 0
24.9 0.075 0
25.05 0.075 0
25.2 0.075 0
25.35 0.075 0
25.5 0.075 0
25.65 0.075 0
25.8 0.075 0
25.95 0.075 0
26.1 0.075 0
26.25 0.075 0
26.4 0.075 0
26.55 0.075 0
26.7 0.075 0
26.85 0.075 0
27 0.075 0
27.15 0.075 0
27.3 0.075 0
27.45 0.075 0
27.6 0.075 0
27.75 0.075 0
27.9 0.075 0
28.05 0.075 0
28.2 0.075 0
28.35 0.075 0
28.5 0.075 0
28.65 0.075 0
28.8 0.075 0
28.95 0.075 0
29.1 0.075 0
29.25 0.075 0
29.4 0.075 0
29.55 0.075 0
29.7 0.075 0
29.85 0.075 0
0 0.15 0
0.15 0.15 0
0.3 0.15 0
0.45 0.15 0
0.6 0.15 0
0.75 0.15 0
0.9 0.15 0
1.05 0.15 0
1.2 0.15 0
1.35 0.15 0
1.5 0.15 0
1.65 0.15 0
1.8 0.15 0
1.95 0.15 0
2.1 0.15 0
2.25 0.15 0
2.4 0.15 0
2.55 0.15 0
2.7 0.15 0
2.85 0.15 0
3 0.15 0
3.15 0.15 0
3.3 0.15 0
3.45 0.15 0
3.6 0.15 0
3.75 0.15 0
3.9 0.15 0
4.05 0.15 0
4.2 0.15 0
4.35 0.15 0
4.5 0.15 0
4.65 0.15 0
4.8 0.15 0
4.95 0.15 0
5.1 0.15 0
5.25 0.15 0
5.4 0.15 0
5.55 0.15 0
5.7 0.15 0
5.85 0.15 0
6 0.15 0
6.15 0.15 0
6.3 0.15 0
6.45 0.15 0
6.6 0.15 0
6.75 0.15 0
6.9 0.15 0
7.05 0.15 0
7.2 0.15 0
7.35 0.15 0
7.5 0.15 0
7.65 0.15 0
7.8 0.15 0
7.95 0.15 0
8.1 0.15 0
8.25 0.15 0
8.4 0.15 0
8.55 0.15 0
8.7 0.15 0
8.85 0.15 0
9 0.15 0
9.15 0.15 0
9.3 0.15 0
9.45 0.15 0
9.6 0.15 0
9.75 0.15 0
9.9 0.15 0
10.05 0.15 0
10.2 0.15 0
10.35 0.15 0
10.5 0.15 0
10.65 0.15 0
10.8 0.15 0
10.95 0.15 0
11.1 0.15 0
11.25 0.15 0
11.4 0.15 0
11.55 0.15 0
11.7 0.15 0
11.85 0.15 0
12 0.15 0
12.15 0.15 0
12.3 0.15 0
12.45 0.15 0
12.6 0.15 0
12.75 0.15 0
12.9 0.15 0
13.05 0.15 0
13.2 0.15 0
13.35 0.15 0
13.5 0.15 0
13.65 0.15 0
13.8 0.15 0
13.95 0.15 0
14.1 0.15 0
14.25 0.15 0
14.4 0.15 0
14.55 0.15 0
14.7 0.15 0
14.85 0.15 0
15 0.15 0
15.15 0.15 0
15.3 0.15 0
15.45 0.15 0
15.6 0.15 0
15.75 0.15 0
15.9 0.15 0
16.05 0.15 0
16.2 0.15 0
16.35 0.15 0
16.5 0.15 0
16.65 0.15 0
16.8 0.15 0
16.95 0.15 0
17.1 0.15 0
17.25 0.15 0
17.4 0.15 0
17.55 0.15 0
17.7 0.15 0
17.85 0.15 0
18 0.15 0
18.15 0.15 0
18.3 0.15 0
18.45 0.15 0
18.6 0.15 0
18.75 0.15 0
18.9 0.15 0
19.05 0.15 0
19.2 0.15 0
19.35 0.15 0
19.5 0.15 0
19.65 0.15 0
19.8 0.15 0
19.95 0.15 0
20.1 0.15 0
20.25 0.15 0
20.4 0.15 0
20.55 0.15 0
20.7 0.15 0
20.85 0.15 0
21 0.15 0
21.15 0.15 0
21.3 0.15 0
21.45 0.15 0
21.6 0.15 0
21.75 0.15 0
21.9 0.15 0
22.05 0.15 0
22.2 0.15 0
22.35 0.15 0
22.5 0.15 0
22.65 0.15 0
22.8 0.15 0
22.95 0.15 0
23.1 0.15 0
23.25 0.15 0
23.4 0.15 0
23.55 0.15 0
23.7 0.15 0
23.85 0.15 0
24 0.15 0
24.15 0.15 0
24.3 0.15 0
24.45 0.15 0
24.6 0.15 0
24.75 0.15 0
24.9 0.15 0
25.05 0.15 0
25.2 0.15 0
25.35 0.15 0
25.5 0.15 0
25.65 0.15 0
25.8 0.15 0
25.95 0.15 0
26.1 0.15 0
26.25 0.15 0
26.4 0.15 0
26.55 0.15 0
26.7 0.15 0
26.85 0.15 0
27 0.15 0
27.15 0.15 0
27.3 0.15 0
27.45 0.15 0
27.6 0.15 0
27.75 0.15 0
27.9 0.15 0
28.05 0.15 0
28.2 0.15 0
28.35 0.15 0
28.5 0.15 0
28.65 0.15 0
28.8 0.15 0
28.95 0.15 0
29.1 0.15 0
29.25 0.15 0
29.4 0.15 0
29.55 0.15 0
29.7 0.15 0
29.85 0.15 0
0 0.225 0
0.15 0.225 0
0.3 0.225 0
0.45 0.225 0
0.6 0.225 0
0.75 0.225 0
0.9 0.225 0
1.05 0.225 0
1.2 0.225 0
1.35 0.225 0
1.5 0.225 0
1.65 0.225 0
1.8 0.225 0
1.95 0.225 0
2.1 0.225 0
2.25 0.225 0
2.4 0.225 0
2.55 0.225 0
2.7 0.225 0
2.85 0.225 0
3 0.225 0
3.15 0.225 0
3.3 0.225 0
3.45 0.225 0
3.6 0.225 0
3.75 0.225 0
3.9 0.225 0
4.05 0.225 0
4.2 0.225 0
4.35 0.225 0
4.5 0.225 0
4.65 0.225 0
4.8 0.225 0
4.95 0.225 0
5.1 0.225 0
5.25 0.225 0
5.4 0.225 0
5.55 0.225 0
5.7 0.225 0
5.85 0.225 0
6 0.225 0
6.15 0.225 0
6.3 0.225 0
6.45 0.225 0
6.6 0.225 0
6.75 0.225 0
6.9 0.225 0
7.05 0.225 0
7.2 0.225 0
7.35 0.225 0
7.5 0.225 0
7.65 0.225 0
7.8 0.225 0
7.95 0.225 0
8.1 0.225 0
8.25 0.225 0
8.4 0.225 0
8.55 0.225 0
8.7 0.225 0
8.85 0.225 0
9 0.225 0
9.15 0.225 0
9.3 0.225 0
9.45 0.225 0
9.6 0.225 0
9.75 0.225 0
9.9 0.225 0
10.05 0.225 0
10.2 0.225 0
10.35 0.225 0
10.5 0.225 0
10.65 0.225 0
10.8 0.225 0
10.95 0.225 0
11.1 0.225 0
11.25 0.225 0
11.4 0.225 0
11.55 0.225 0
11.7 0.225 0
11.85 0.225 0
12 0.225 0
12.15 0.225 0
12.3 0.225 0
12.45 0.225 0
12.6 0.225 0
12.75 0.225 0
12.9 0.225 0
13.05 0.225 0
13.2 0.225 0
13.35 0.225 0
13.5 0.225 0
13.65 0.225 0
13.8 0.225 0
13.95 0.225 0
14.1 0.225 0
14.25 0.225 0
14.4 0.225 0
14.55 0.225 0
14.7 0.225 0
14.85 0.225 0
15 0.225 0
15.15 0.225 0
15.3 0.225 0
15.45 0.225 0
15.6 0.225 0
15.75 0.225 0
15.9 0.225 0
16.05 0.225 0
16.2 0.225 0
16.35 0.225 0
16.5 0.225 0
16.65 0.225 0
16.8 0.225 0
16.95 0.225 0
17.1 0.225 0
17.25 0.225 0
17.4 0.225 0
17.55 0.225 0
17.7 0.225 0
17.85 0.225 0
18 0.225 0
18.15 0.225 0
18.3 0.225 0
18.45 0.225 0
18.6 0.225 0
18.75 0.225 0
18.9 0.225 0
19.05 0.225 0
19.2 0.225 0
19.35 0.225 0
19.5 0.225 0
19.65 0.225 0
19.8 0.225 0
19.95 0.225 0
20.1 0.225 0
20.25 0.225 0
20.4 0.225 0
20.55 0.225 0
20.7 0.225 0
20.85 0.225 0
21 0.225 0
21.15 0.225 0
21.3 0.225 0
21.45 0.225 0
21.6 0.225 0
21.75 0.225 0
21.9 0.225 0
22.05 0.225 0
22.2 0.225 0
22.35 0.225 0
22.5 0.225 0
22.65 0.225 0
22.8 0.225 0
22.95 0.225 0
23.1 0.225 0
23.25 0.225 0
23.4 0.225 0
23.55 0.225 0
23.7 0.225 0
23.85 0.225 0
24 0.225 0
24.15 0.225 0
24.3 0.225 0
24.45 0.225 0
24.6 0.225 0
24.75 0.225 0
24.9 0.225 0
25.05 0.225 0
25.2 0.225 0
25.35 0.225 0
25.5 0.225 0
25.65 0.225 0
25.8 0.225 0
25.95 0.225 0
26.1 0.225 0
26.25 0.225 0
26.4 0.225 0
26.55 0.225 0
26.7 0.225 0
26.85 0.225 0
27 0.225 0
27.15 0.225 0
27.3 0.225 0
27.45 0.225 0
27.6 0.225 0
27.75 0.225 0
27.9 0.225 0
28.05 0.225 0
28.2 0.225 0
28.35 0.225 0
28.5 0.225 0
28.65 0.225 0
28.8 0.225 0
28.95 0.225 0
29.1 0.225 0
29.25 0.225 0
29.4 0.225 0
29.55 0.225 0
29.7 0.225 0
29.85 0.225 0
0 0.3 0
0.15 0.3 0
0.3 0.3 0
0.45 0.3 0
0.6 0.3 0
0.75 0.3 0
0.9 0.3 0
1.05 0.3 0
1.2 0.3 0
1.35 0.3 0
1.5 0.3 0
1.65 0.3 0
1.8 0.3 0
1.95 0.3 0
2.1 0.3 0
2.25 0.3 0
2.4 0.3 0
2.55 0.3 0
2.7 0.3 0
2.85 0.3 0
3 0.3 0
3.15 0.3 0
3.3 0.3 0
3.45 0.3 0
3.6 0.3 0
3.75 0.3 0
3.9 0.3 0
4.05 0.3 0
4.2 0.3 0
4.35 0.3 0
4.5 0.3 0
4.65 0.3 0
4.8 0.3 0
4.95 0.3 0
5.1 0.3 0
5.25 0.3 0
5.4 0.3 0
5.55 0.3 0
5.7 0.3 0
5.85 0.3 0
6 0.3 0
6.15 0.3 0
[...]
POINT_DATA 40000

SCALARS p float 1
LOOKUP_TABLE default
20183.19329
20183.19329
20183.13787
20183.11015
20183.09184
20183.07908
20183.07206
20183.07204
20183.07917
20183.09159
20183.10637
20183.12096
20183.134
20183.14529
20183.15513
20183.16354
20183.17043
20183.17597
20183.18042
20183.18302
20183.1813
20183.17341
20183.14714
20183.09166
20183.14946
20183.56822
20183.45024
20183.0857
20182.83801
20182.6184
20182.40398
20182.18813
20181.96882
20181.74543
20181.51768
20181.28537
20181.04824
20180.80596
20180.55801
20180.30315
20180.03644
20179.8917
20179.91356
20179.91726
20179.95064
20179.99636
20180.02544
20179.97766
20179.84557
20179.67134
20179.47816
20179.24982
20179.06847
20178.98054
20178.91408
20178.84546
20178.84427
20178.84444
20178.85177
20178.90239
20178.9706
20179.00662
20179.00829
20178.99716
20178.98476
20178.9688
20178.94081
20178.90269
20178.84264
20178.72663
20178.60298
20178.51203
20178.42574
20178.32553
20178.2245
20178.14464
20178.10225
20178.10555
20178.1564
20178.25252
20178.38915
20178.56025
20178.75926
20178.9797
20179.21539
20179.46067
20179.7104
20179.96008
20180.20579
20180.44421
20180.67265
20180.88912
20181.09223
20181.28126
20181.45591
20181.61624
20181.7624
20181.89448
20182.01241
20182.1159
20182.20458
20182.27815
20182.33658
20182.38025
20182.40992
20182.42666
20182.43169
20182.42625
20182.4115
20182.38853
20182.35844
20182.32246
20182.28195
20182.23843
20182.19343
20182.14829
20182.10414
20182.06174
20182.02153
20181.98371
20181.94833
20181.91535
20181.88469
20181.85631
20181.83015
20181.80613
20181.78421
20181.76427
20181.74621
20181.72988
20181.71514
20181.70183
20181.68979
20181.67887
20181.66893
20181.65985
20181.65153
20181.64387
20181.63678
20181.6302
20181.62407
20181.61835
20181.61297
20181.60792
20181.60316
20181.59866
20181.5944
20181.59035
20181.58651
20181.58284
20181.57935
20181.57601
20181.57282
20181.56976
20181.56683
20181.56401
20181.5613
20181.5587
20181.55619
20181.55377
20181.55143
20181.54917
20181.54698
20181.54487
20181.54281
20181.54082
20181.53889
20181.53701
20181.53518
20181.5334
20181.53166
20181.52996
20181.5283
20181.52668
20181.52509
20181.52354
20181.52201
20181.52051
20181.51904
20181.51759
20181.51616
20181.51475
20181.51336
20181.51198
20181.51062
20181.50928
20181.50794
20181.50661
20181.50529
20181.50398
20181.50267
20181.50137
20181.50007
20181.49877
20181.49747
20181.49617
20181.49487
20181.49356
20181.49226
20181.49226
20183.19329
20183.19329
20183.13787
20183.11015
20183.09184
20183.07908
20183.07206
20183.07204
20183.07917
20183.09159
20183.10637
20183.12096
20183.134
20183.14529
20183.15513
20183.16354
20183.17043
20183.17597
20183.18042
20183.18302
20183.1813
20183.17341
20183.14714
20183.09166
20183.14946
20183.56822
20183.45024
20183.0857
20182.83801
20182.6184
20182.40398
20182.18813
20181.96882
20181.74543
20181.51768
20181.28537
20181.04824
20180.80596
20180.55801
20180.30315
20180.03644
20179.8917
20179.91356
20179.91726
20179.95064
20179.99636
20180.02544
20179.97766
20179.84557
20179.67134
20179.47816
20179.24982
20179.06847
20178.98054
20178.91408
20178.84546
20178.84427
20178.84444
20178.85177
20178.90239
20178.9706
20179.00662
20179.00829
20178.99716
20178.98476
20178.9688
20178.94081
20178.90269
20178.84264
20178.72663
20178.60298
20178.51203
20178.42574
20178.32553
20178.2245
20178.14464
20178.10225
20178.10555
20178.1564
20178.25252
20178.38915
20178.56025
20178.75926
20178.9797
20179.21539
20179.46067
20179.7104
20179.96008
20180.20579
20180.44421
20180.67265
20180.88912
20181.09223
20181.28126
20181.45591
20181.61624
20181.7624
20181.89448
20182.01241
20182.1159
20182.20458
20182.27815
20182.33658
20182.38025
20182.40992
20182.42666
20182.43169
20182.42625
20182.4115
20182.38853
20182.35844
20182.32246
20182.28195
20182.23843
20182.19343
20182.14829
20182.10414
20182.06174
20182.02153
20181.98371
20181.94833
20181.91535
20181.88469
20181.85631
20181.83015
20181.80613
20181.78421
20181.76427
20181.74621
20181.72988
20181.71514
20181.70183
20181.68979
20181.67887
20181.66893
20181.65985
20181.65153
20181.64387
20181.63678
20181.6302
20181.62407
20181.61835
20181.61297
20181.60792
20181.60316
20181.59866
20181.5944
20181.59035
20181.58651
20181.58284
20181.57935
20181.57601
20181.57282
20181.56976
20181.56683
20181.56401
20181.5613
20181.5587
20181.55619
20181.55377
20181.55143
20181.54917
20181.54698
20181.54487
20181.54281
20181.54082
20181.53889
20181.53701
20181.53518
20181.5334
20181.53166
20181.52996
20181.5283
20181.52668
20181.52509
20181.52354
20181.52201
20181.52051
20181.51904
20181.51759
20181.51616
20181.51475
20181.51336
20181.51198
20181.51062
20181.50928
20181.50794
20181.50661
20181.50529
20181.50398
20181.50267
20181.50137
20181.50007
20181.49877
20181.49747
20181.49617
20181.49487
20181.49356
20181.49226
20181.49226
20183.16068
20183.16068
20183.12881
20183.1057
20183.08943
20183.07824
20183.07246
20183.07318
20183.08052
20183.09286
20183.10748
20183.12194
20183.13489
20183.14611
20183.15588
20183.1642
20183.17094
20183.17631
20183.18069
20183.18368
20183.18329
20183.17392
20183.13147
20183.05129
20183.05698
20183.35387
20183.31409
20183.05734
20182.83127
20182.61716
20182.40434
20182.18898
20181.96983
20181.74649
20181.51879
20181.28654
20181.0495
20180.80735
20180.55971
20180.30607
20180.04471
20179.92491
20179.9149
20179.91015
20179.93779
20179.98173
20180.0048
20179.95796
20179.83552
20179.66181
20179.45333
20179.21776
20179.02561
20178.92735
20178.86651
20178.83192
20178.84581
20178.84238
20178.84412
20178.89474
20178.96785
20179.00636
20179.00737
20178.99599
20178.98417
20178.96954
20178.94235
20178.90323
20178.84832
20178.7371
20178.60548
20178.49947
20178.40159
20178.29671
20178.19603
20178.11886
20178.07982
20178.08632
20178.13999
20178.23849
20178.3771
20178.54984
20178.75023
20178.9718
20179.20844
20179.45453
20179.70498
20179.95529
20180.20158
20180.4405
20180.66937
20180.88617
20181.08952
20181.27868
20181.45339
20181.61373
20181.75989
20181.89202
20182.01004
20182.11367
20182.2025
20182.27622
20182.33476
20182.3785
20182.40821
20182.42499
20182.4301
20182.42478
20182.41019
20182.38741
20182.3575
20182.32165
20182.28124
20182.23778
20182.19281
20182.14773
20182.10365
20182.06133
20182.02121
20181.98349
20181.94819
20181.91527
20181.88466
20181.8563
20181.83015
20181.80614
20181.78421
20181.76428
20181.74622
20181.7299
20181.71516
20181.70185
20181.68981
20181.67889
20181.66896
20181.65988
20181.65156
20181.6439
20181.63681
20181.63023
20181.6241
20181.61837
20181.613
20181.60794
20181.60318
20181.59868
20181.59441
20181.59037
20181.58652
20181.58286
20181.57936
20181.57602
20181.57283
20181.56977
20181.56684
20181.56402
20181.56131
20181.55871
20181.5562
20181.55377
20181.55144
20181.54918
20181.54699
20181.54487
20181.54282
20181.54083
20181.53889
20181.53701
20181.53518
20181.5334
20181.53166
20181.52996
20181.52831
20181.52668
20181.5251
20181.52354
20181.52201
20181.52051
20181.51904
20181.51759
20181.51616
20181.51475
20181.51336
20181.51199
20181.51062
20181.50928
20181.50794
20181.50661
20181.5053
20181.50398
20181.50268
20181.50137
20181.50007
20181.49877
20181.49747
20181.49617
20181.49487
20181.49357
20181.49226
20181.49226
20183.13501
20183.13501
20183.1156
20183.09777
20183.08429
20183.07518
20183.07094
20183.07241
20183.07972
20183.09163
20183.10597
20183.12059
20183.13406
20183.14593
20183.15617
20183.16469
20183.17149
20183.17683
20183.1813
20183.18492
20183.18507
20183.17115
20183.11035
20183.01926
20183.00011
20183.16689
20183.17887
20183.02141
20182.82192
20182.61573
20182.40537
20182.19078
20181.97188
20181.74865
20181.52105
20181.28892
20181.05204
20180.81011
20180.56294
20180.3109
20180.0544
20179.93921
20179.90722
20179.89262
20179.91228
20179.95352
20179.9706
20179.9238
20179.81073
20179.63985
20179.40798
20179.15108
20178.94254
20178.82883
20178.77838
20178.78292
20178.82282
20178.83377
20178.83912
20178.89048
20178.96641
20179.00481
20179.00405
20178.99377
20178.98432
20178.97123
20178.94679
20178.90168
20178.83142
20178.71341
20178.57309
20178.44864
20178.33562
20178.22649
20178.12985
20178.06032
20178.02952
20178.04361
20178.10382
20178.20783
20178.35104
20178.52761
20178.73116
20178.95537
20179.19422
20179.44219
20179.69427
20179.94603
20180.19359
20180.43363
20180.66343
20180.88094
20181.08478
20181.2742
20181.449
20181.60934
20181.75551
20181.88771
20182.00591
20182.10981
20182.19895
20182.27293
20182.33166
20182.37547
20182.40518
20182.42195
20182.42708
20182.42188
20182.40747
20182.38491
20182.35519
20182.31946
20182.27909
20182.23563
20182.19066
20182.14562
20182.10164
20182.05949
20182.01958
20181.98207
20181.94699
20181.91426
20181.88382
20181.8556
20181.82956
20181.80565
20181.7838
20181.76394
20181.74594
20181.72967
20181.71497
20181.7017
20181.68969
20181.6788
20181.66889
20181.65983
20181.65152
20181.64386
20181.63678
20181.63021
20181.62408
20181.61836
20181.61299
20181.60793
20181.60317
20181.59867
20181.59441
20181.59036
20181.58651
20181.58285
20181.57935
20181.57602
20181.57282
20181.56976
20181.56683
20181.56401
20181.56131
20181.5587
20181.55619
20181.55377
20181.55143
20181.54917
20181.54698
20181.54487
20181.54281
20181.54082
20181.53889
20181.53701
20181.53518
20181.5334
20181.53166
20181.52996
20181.5283
20181.52668
20181.52509
20181.52354
20181.52201
20181.52051
20181.51904
20181.51759
20181.51616
20181.51475
20181.51336
20181.51199
20181.51063
20181.50928
20181.50794
20181.50662
20181.5053
20181.50399
20181.50268
20181.50138
20181.50008
20181.49878
20181.49748
20181.49618
20181.49488
20181.49357
20181.49227
20181.49227
20183.11436
20183.11436
20183.102
20183.08854
20183.0777
20183.07045
20183.0675
20183.06949
20183.07652
20183.0877
20183.10142
20183.11593
20183.12994
20183.14277
20183.15411
20183.16366
20183.17126
20183.17709
20183.18187
20183.18593
20183.18543
20183.16688
20183.09859
20183.02258
20183.0075
20183.09231
20183.10951
20182.99607
20182.81503
20182.61559
20182.40755
20182.19369
20181.97501
20181.7519
20181.52443
20181.29249
20181.05584
20180.8142
20180.56743
20180.31638
20180.05854
20179.93484
20179.88944
20179.86727
20179.8784
20179.91385
20179.92659
20179.88003
20179.77074
20179.59698
20179.34388
20179.06317
20178.844
20178.72418
20178.67559
20178.70105
20178.77846
20178.82846
20178.85342
20178.9051
20178.97354
20179.00374
20178.99846
20178.99008
20178.98481
20178.97035
20178.93581
20178.87325
20178.77906
20178.64715
20178.49884
20178.36255
20178.241
20178.13221
20178.0427
20177.98317
20177.96265
20177.98614
20178.05455
20178.16557
20178.31471
20178.49628
20178.70402
20178.93174
20179.17356
20179.42407
20179.67839
20179.93214
20180.18148
20180.42309
20180.6542
20180.87272
20181.07724
20181.26704
20181.44197
20181.60231
20181.74846
20181.88075
20181.9992
20182.10349
20182.19307
20182.26745
20182.32642
20182.37032
20182.39999
20182.41668
20182.42182
20182.41674
20182.4026
20182.38036
20182.35093
20182.3154
20182.27508
20182.2316
20182.18661
20182.14163
20182.09781
20182.05592
20182.01634
20181.97922
20181.94451
20181.91215
20181.88204
20181.85413
20181.82835
20181.80467
20181.78303
20181.76332
20181.74546
20181.7293
20181.7147
20181.70149
20181.68954
20181.67869
20181.66881
20181.65977
20181.65148
20181.64383
20181.63676
20181.63019
20181.62407
20181.61835
20181.61298
20181.60793
20181.60316
20181.59866
20181.5944
20181.59035
20181.5865
20181.58284
20181.57934
20181.57601
20181.57281
20181.56975
20181.56682
20181.564
20181.5613
20181.55869
20181.55618
20181.55376
20181.55142
20181.54916
20181.54698
20181.54486
20181.54281
20181.54082
20181.53888
20181.537
20181.53517
20181.53339
20181.53165
20181.52996
20181.5283
20181.52668
20181.52509
20181.52353
20181.52201
20181.52051
20181.51904
20181.51759
20181.51616
20181.51475
20181.51336
20181.51199
20181.51063
20181.50928
20181.50795
20181.50662
20181.5053
20181.50399
20181.50268
20181.50138
20181.50008
20181.49878
20181.49749
20181.49618
20181.49488
20181.49357
20181.49227
20181.49227
20183.09694
20183.09694
20183.0888
20183.07879
20183.07027
20183.06463
20183.06268
20183.06498
20183.0716
20183.08189
20183.09468
20183.10865
20183.12273
20183.13623
20183.14868
20183.15963
20183.16872
20183.17588
20183.18147
20183.18558
20183.18366
20183.16319
20183.09833
20183.04287
20183.03838
20183.08651
20183.09426
20182.9872
20182.81378
20182.61799
20182.4113
20182.19783
20181.97926
20181.75624
20181.52893
20181.29724
20181.0609
20180.81958
20180.57309
20180.32227
20180.05838
20179.91927
20179.86433
20179.83612
20179.83924
20179.86684
20179.87527
20179.82834
20179.71837
20179.53548
20179.26518
20178.96749
20178.74528
20178.62648
20178.5775
20178.61059
20178.72289
20178.82892
20178.89165
20178.94516
20178.99559
20179.00756
20178.99392
20178.98625
20178.97919
20178.95346
20178.89813
20178.81031
20178.69282
20178.54944
20178.39731
20178.25647
20178.13247
20178.02675
20177.94494
20177.89531
20177.88503
20177.91817
20177.99529
20178.114
20178.26984
20178.45715
20178.6698
20178.90168
20179.14703
20179.40061
20179.65766
20179.91387
20180.16542
20180.40901
20180.64178
20180.86159
20181.067
20181.25727
20181.43236
20181.59267
20181.73879
20181.87117
20181.98993
20182.09473
20182.1849
20182.25979
20182.31908
20182.36305
20182.39261
20182.40915
20182.41422
20182.40927
20182.39545
20182.37367
20182.34469
20182.30946
20182.26927
20182.22577
20182.18075
20182.13582
20182.0922
20182.05066
20182.01154
20181.97492
20181.94074
20181.9089
20181.87929
20181.85184
20181.82649
20181.80319
20181.78187
20181.76244
20181.7448
20181.72882
20181.71436
20181.70126
20181.68939
20181.6786
20181.66875
20181.65974
20181.65147
20181.64384
20181.63677
20181.63021
20181.62408
20181.61836
20181.61299
20181.60793
20181.60317
20181.59866
20181.5944
20181.59035
20181.5865
20181.58284
20181.57934
20181.576
20181.57281
20181.56975
20181.56681
20181.56399
20181.56129
20181.55868
20181.55617
20181.55375
20181.55141
20181.54915
20181.54697
20181.54485
20181.5428
20181.54081
20181.53887
20181.53699
20181.53516
20181.53338
20181.53165
20181.52995
20181.52829
20181.52667
20181.52509
20181.52353
20181.52201
20181.52051
20181.51904
20181.51759
20181.51616
20181.51475
20181.51336
20181.51199
20181.51063
20181.50928
20181.50795
20181.50662
20181.50531
20181.504
20181.50269
20181.50139
20181.50009
20181.49879
20181.4975
20181.4962
20181.49489
20181.49358
20181.49229
20181.49229
20183.08166
20183.08166
20183.07615
20183.06878
20183.06226
20183.05801
20183.0569
20183.0594
20183.06559
20183.07501
20183.08679
20183.09993
20183.11361
20183.1272
20183.14027
20183.15235
20183.16299
20183.17186
20183.17869
20183.18289
20183.1795
20183.15978
20183.10656
20183.06839
20183.07411
20183.11152
20183.10928
20182.99351
20182.81924
20182.6236
20182.4169
20182.2033
20181.98463
20181.76165
20181.53454
20181.30316
20181.06721
20180.82627
20180.57994
20180.32901
20180.05674
20179.89874
20179.83469
20179.80082
20179.79662
20179.81623
20179.81997
20179.77116
20179.65761
20179.46439
20179.18101
20178.87657
20178.65715
20178.54056
20178.48999
20178.5252
20178.66594
20178.83147
20178.94101
20179.00087
20179.03123
20179.02065
20178.99512
20178.98076
20178.96061
20178.91281
20178.83142
20178.72007
20178.58573
20178.43542
20178.28227
20178.14056
20178.01687
20177.91484
20177.84
20177.79925
20177.79853
20177.8411
20177.92711
20178.05396
20178.2171
20178.4108
20178.62895
20178.86554
20179.11495
20179.37206
20179.63227
20179.89136
20180.14555
20180.39149
20180.6263
20180.84769
20181.05419
20181.24505
20181.42032
20181.58058
20181.72662
20181.8591
20181.97824
20182.08366
20182.17458
20182.25012
20182.30978
20182.3538
20182.38317
20182.39943
20182.40434
20182.39947
20182.38604
20182.36485
20182.33648
20182.30169
20182.26169
20182.2182
20182.17314
20182.12828
20182.08492
20182.04382
20182.00528
20181.96932
20181.9358
20181.9046
20181.87561
20181.84874
20181.82394
20181.80114
20181.78027
20181.76123
20181.74391
20181.72819
20181.71392
20181.70098
20181.68921
20181.6785
20181.66871
20181.65974
20181.65148
20181.64386
20181.6368
20181.63024
20181.62412
20181.61839
20181.61301
20181.60796
20181.60319
20181.59868
20181.59441
20181.59036
20181.5865
20181.58284
20181.57934
20181.576
20181.5728
20181.56974
20181.5668
20181.56399
20181.56128
20181.55867
20181.55616
20181.55374
20181.5514
20181.54914
20181.54695
20181.54484
20181.54279
20181.5408
20181.53886
20181.53698
20181.53516
20181.53337
20181.53164
20181.52994
20181.52829
20181.52667
20181.52508
20181.52353
20181.522
20181.52051
20181.51903
20181.51759
20181.51616
20181.51475
20181.51337
20181.51199
20181.51063
20181.50929
20181.50796
20181.50663
20181.50532
20181.50401
20181.5027
20181.5014
20181.50011
20181.49881
20181.49751
20181.49621
20181.49491
20181.4936
20181.4923
20181.4923
20183.0678
20183.0678
20183.06401
20183.05865
20183.05378
20183.05073
20183.05033
20183.05301
20183.05884
20183.0675
20183.07833
20183.09058
20183.10358
20183.11684
20183.12997
20183.14259
20183.15429
20183.1646
20183.17272
20183.17743
20183.173
20183.15644
20183.11872
20183.09577
20183.1085
20183.14679
20183.13966
20183.01146
20182.83098
20182.63248
20182.42438
20182.21006
20181.99108
20181.7681
20181.54121
20181.31023
20181.07478
20180.83432
20180.58815
20180.33723
20180.05616
20179.8775
20179.80284
20179.76299
20179.75207
20179.76433
20179.76352
20179.71212
20179.59392
20179.39247
20179.10183
20178.79835
20178.58422
20178.46751
20178.41177
20178.44907
20178.6136
20178.82987
20178.98381
20179.05536
20179.07184
20179.04135
20179.00112
20178.96925
20178.92433
20178.8493
20178.74386
20178.61467
20178.46925
20178.31465
20178.16102
20178.01925
20177.89638
20177.79754
20177.7285
20177.69548
20177.70354
20177.75525
20177.85029
20177.98572
20178.1567
20178.3574
20178.58162
20178.82344
20179.07736
20179.3384
20179.60216
20179.86454
20180.12178
20180.37049
20180.6077
20180.831
20181.03881
20181.2304
20181.4059
20181.56608
20181.71201
20181.84458
20181.96415
20182.07034
20182.16217
20182.2385
20182.29861
20182.34266
20182.37172
20182.38758
20182.39219
20182.38735
20182.37434
20182.35385
20182.32626
20182.29205
20182.25233
20182.20887
20182.16377
20182.11899
20182.07596
20182.03543
20181.99763
20181.96248
20181.92977
20181.89935
20181.87108
20181.8449
20181.82074
20181.79853
20181.77819
20181.75962
20181.7427
20181.72731
20181.7133
20181.70055
20181.68894
20181.67833
20181.66862
20181.65969
20181.65147
20181.64388
20181.63683
20181.63027
20181.62415
20181.61842
20181.61304
20181.60798
20181.6032
20181.59869
20181.59442
20181.59036
20181.58651
20181.58283
20181.57933
20181.57599
20181.57279
20181.56973
20181.56679
20181.56397
20181.56126
20181.55866
20181.55614
20181.55372
20181.55138
20181.54912
20181.54694
20181.54482
20181.54277
20181.54078
20181.53885
20181.53697
20181.53514
20181.53336
20181.53163
20181.52993
20181.52828
20181.52666
20181.52507
20181.52352
20181.522
20181.5205
20181.51903
20181.51759
20181.51616
20181.51475
20181.51337
20181.512
20181.51064
20181.5093
20181.50796
20181.50664
20181.50533
20181.50402
20181.50272
20181.50142
20181.50012
20181.49883
20181.49753
20181.49623
20181.49493
20181.49362
20181.49232
20181.49232
20183.05493
20183.05493
20183.0523
20183.04845
20183.04493
20183.0429
20183.0431
20183.04593
20183.05149
20183.05952
20183.06953
20183.08094
20183.0932
20183.10591
20183.11875
20183.13141
20183.14357
20183.15475
20183.16389
20183.1696
20183.16568
20183.15478
20183.13131
20183.12267
20183.14307
20183.18657
20183.1775
20183.03753
20182.84781
20182.64421
20182.43356
20182.218
20181.99853
20181.77551
20181.54891
20181.31844
20181.08362
20180.8438
20180.59789
20180.34753
20180.0586
20179.85847
20179.77093
20179.72437
20179.70723
20179.71322
20179.70852
20179.65489
20179.53311
20179.32729
20179.03599
20178.73681
20178.52729
20178.40761
20178.34529
20178.38745
20178.56986
20178.82085
20179.00932
20179.09364
20179.10366
20179.05951
20179.00246
20178.94504
20178.87073
20178.77007
20178.64547
20178.50328
20178.34987
20178.19148
20178.03643
20177.89386
20177.77115
20177.67448
20177.61001
20177.58365
20177.59983
20177.66049
20177.76476