# vtk DataFile Version 2.0
FlowField
ASCII
DATASET STRUCTURED_GRID
DIMENSIONS 200 1 200
POINTS 40000 float
0 0 0
0.15 0 0
0.3 0 0
0.45 0 0
0.6 0 0
0.75 0 0
0.9 0 0
1.05 0 0
1.2 0 0
1.35 0 0
1.5 0 0
1.65 0 0
1.8 0 0
1.95 0 0
2.1 0 0
2.25 0 0
2.4 0 0
2.55 0 0
2.7 0 0
2.85 0 0
3 0 0
3.15 0 0
3.3 0 0
3.45 0 0
3.6 0 0
3.75 0 0
3.9 0 0
4.05 0 0
4.2 0 0
4.35 0 0
4.5 0 0
4.65 0 0
4.8 0 0
4.95 0 0
5.1 0 0
5.25 0 0
5.4 0 0
5.55 0 0
5.7 0 0
5.85 0 0
6 0 0
6.15 0 0
6.3 0 0
6.45 0 0
6.6 0 0
6.75 0 0
6.9 0 0
7.05 0 0
7.2 0 0
7.35 0 0
7.5 0 0
7.65 0 0
7.8 0 0
7.95 0 0
8.1 0 0
8.25 0 0
8.4 0 0
8.55 0 0
8.7 0 0
8.85 0 0
9 0 0
9.15 0 0
9.3 0 0
9.45 0 0
9.6 0 0
9.75 0 0
9.9 0 0
10.05 0 0
10.2 0 0
10.35 0 0
10.5 0 0
10.65 0 0
10.8 0 0
10.95 0 0
11.1 0 0
11.25 0 0
11.4 0 0
11.55 0 0
11.7 0 0
11.85 0 0
12 0 0
12.15 0 0
12.3 0 0
12.45 0 0
12.6 0 0
12.75 0 0
12.9 0 0
13.05 0 0
13.2 0 0
13.35 0 0
13.5 0 0
13.65 0 0
13.8 0 0
13.95 0 0
14.1 0 0
14.25 0 0
14.4 0 0
14.55 0 0
14.7 0 0
14.85 0 0
15 0 0
15.15 0 0
15.3 0 0
15.45 0 0
15.6 0 0
15.75 0 0
15.9 0 0
16.05 0 0
16.2 0 0
16.35 0 0
16.5 0 0
16.65 0 0
16.8 0 0
16.95 0 0
17.1 0 0
17.25 0 0
17.4 0 0
17.55 0 0
17.7 0 0
17.85 0 0
18 0 0
18.15 0 0
18.3 0 0
18.45 0 0
18.6 0 0
18.75 0 0
18.9 0 0
19.05 0 0
19.2 0 0
19.35 0 0
19.5 0 0
19.65 0 0
19.8 0 0
19.95 0 0
20.1 0 0
20.25 0 0
20.4 0 0
20.55 0 0
20.7 0 0
20.85 0 0
21 0 0
21.15 0 0
21.3 0 0
21.45 0 0
21.6 0 0
21.75 0 0
21.9 0 0
22.05 0 0
22.2 0 0
22.35 0 0
22.5 0 0
22.65 0 0
22.8 0 0
22.95 0 0
23.1 0 0
23.25 0 0
23.4 0 0
23.55 0 0
23.7 0 0
23.85 0 0
24 0 0
24.15 0 0
24.3 0 0
24.45 0 0
24.6 0 0
24.75 0 0
24.9 0 0
25.05 0 0
25.2 0 0
25.35 0 0
25.5 0 0
25.65 0 0
25.8 0 0
25.95 0 0
26.1 0 0
26.25 0 0
26.4 0 0
26.55 0 0
26.7 0 0
26.85 0 0
27 0 0
27.15 0 0
27.3 0 0
27.45 0 0
27.6 0 0
27.75 0 0
27.9 0 0
28.05 0 0
28.2 0 0
28.35 0 0
28.5 0 0
28.65 0 0
28.8 0 0
28.95 0 0
29.1 0 0
29.25 0 0
29.4 0 0
29.55 0 0
29.7 0 0
29.85 0 0
0 0.075 0
0.15 0.075 0
0.3 0.075 0
0.45 0.075 0
0.6 0.075 0
0.75 0.075 0
0.9 0.075 0
1.05 0.075 0
1.2 0.075 0
1.35 0.075 0
1.5 0.075 0
1.65 0.075 0
1.8 0.075 0
1.95 0.075 0
2.1 0.075 0
2.25 0.075 0
2.4 0.075 0
2.55 0.075 0
2.7 0.075 0
2.85 0.075 0
3 0.075 0
3.15 0.075 0
3.3 0.075 0
3.45 0.075 0
3.6 0.075 0
3.75 0.075 0
3.9 0.075 0
4.05 0.075 0
4.2 0.075 0
4.35 0.075 0
4.5 0.075 0
4.65 0.075 0
4.8 0.075 0
4.95 0.075 0
5.1 0.075 0
5.25 0.075 0
5.4 0.075 0
5.55 0.075 0
5.7 0.075 0
5.85 0.075 0
6 0.075 0
6.15 0.075 0
6.3 0.075 0
6.45 0.075 0
6.6 0.075 0
6.75 0.075 0
6.9 0.075 0
7.05 0.075 0
7.2 0.075 0
7.35 0.075 0
7.5 0.075 0
7.65 0.075 0
7.8 0.075 0
7.95 0.075 0
8.1 0.075 0
8.25 0.075 0
8.4 0.075 0
8.55 0.075 0
8.7 0.075 0
8.85 0.075 0
9 0.075 0
9.15 0.075 0
9.3 0.075 0
9.45 0.075 0
9.6 0.075 0
9.75 0.075 0
9.9 0.075 0
10.05 0.075 0
10.2 0.075 0
10.35 0.075 0
10.5 0.075 0
10.65 0.075 0
10.8 0.075 0
10.95 0.075 0
11.1 0.075 0
11.25 0.075 0
11.4 0.075 0
11.55 0.075 0
11.7 0.075 0
11.85 0.075 0
12 0.075 0
12.15 0.075 0
12.3 0.075 0
12.45 0.075 0
12.6 0.075 0
12.75 0.075 0
12.9 0.075 0
13.05 0.075 0
13.2 0.075 0
13.35 0.075 0
13.5 0.075 0
13.65 0.075 0
13.8 0.075 0
13.95 0.075 0
14.1 0.075 0
14.25 0.075 0
14.4 0.075 0
14.55 0.075 0
14.7 0.075 0
14.85 0.075 0
15 0.075 0
15.15 0.075 0
15.3 0.075 0
15.45 0.075 0
15.6 0.075 0
15.75 0.075 0
15.9 0.075 0
16.05 0.075 0
16.2 0.075 0
16.35 0.075 0
16.5 0.075 0
16.65 0.075 0
16.8 0.075 0
16.95 0.075 0
17.1 0.075 0
17.25 0.075 0
17.4 0.075 0
17.55 0.075 0
17.7 0.075 0
17.85 0.075 0
18 0.075 0
18.15 0.075 0
18.3 0.075 0
18.45 0.075 0
18.6 0.075 0
18.75 0.075 0
18.9 0.075 0
19.05 0.075 0
19.2 0.075 0
19.35 0.075 0
19.5 0.075 0
19.65 0.075 0
19.8 0.075 0
19.95 0.075 0
20.1 0.075 0
20.25 0.075 0
20.4 0.075 0
20.55 0.075 0
20.7 0.075 0
20.85 0.075 0
21 0.075 0
21.15 0.075 0
21.3 0.075 0
21.45 0.075 0
21.6 0.075 0
21.75 0.075 0
21.9 0.075 0
22.05 0.075 0
22.2 0.075 0
22.35 0.075 0
22.5 0.075 0
22.65 0.075 0
22.8 0.075 0
22.95 0.075 0
23.1 0.075 0
23.25 0.075 0
23.4 0.075 0
23.55 0.075 0
23.7 0.075 0
23.85 0.075 0
24 0.075 0
24.15 0.075 0
24.3 0.075 0
24.45 0.075 0
24.6 0.075 0
24.75 0.075 0
24.9 0.075 0
25.05 0.075 0
25.2 0.075 0
25.35 0.075 0
25.5 0.075 0
25.65 0.075 0
25.8 0.075 0
25.95 0.075 0
26.1 0.075 0
26.25 0.075 0
26.4 0.075 0
26.55 0.075 0
26.7 0.075 0
26.85 0.075 0
27 0.075 0
27.15 0.075 0
27.3 0.075 0
27.45 0.075 0
27.6 0.075 0
27.75 0.075 0
27.9 0.075 0
28.05 0.075 0
28.2 0.075 0
28.35 0.075 0
28.5 0.075 0
28.65 0.075 0
28.8 0.075 0
28.95 0.075 0
29.1 0.075 0
29.25 0.075 0
29.4 0.075 0
29.55 0.075 0
29.7 0.075 0
29.85 0.075 0
0 0.15 0
0.15 0.15 0
0.3 0.15 0
0.45 0.15 0
0.6 0.15 0
0.75 0.15 0
0.9 0.15 0
1.05 0.15 0
1.2 0.15 0
1.35 0.15 0
1.5 0.15 0
1.65 0.15 0
1.8 0.15 0
1.95 0.15 0
2.1 0.15 0
2.25 0.15 0
2.4 0.15 0
2.55 0.15 0
2.7 0.15 0
2.85 0.15 0
3 0.15 0
3.15 0.15 0
3.3 0.15 0
3.45 0.15 0
3.6 0.15 0
3.75 0.15 0
3.9 0.15 0
4.05 0.15 0
4.2 0.15 0
4.35 0.15 0
4.5 0.15 0
4.65 0.15 0
4.8 0.15 0
4.95 0.15 0
5.1 0.15 0
5.25 0.15 0
5.4 0.15 0
5.55 0.15 0
5.7 0.15 0
5.85 0.15 0
6 0.15 0
6.15 0.15 0
6.3 0.15 0
6.45 0.15 0
6.6 0.15 0
6.75 0.15 0
6.9 0.15 0
7.05 0.15 0
7.2 0.15 0
7.35 0.15 0
7.5 0.15 0
7.65 0.15 0
7.8 0.15 0
7.95 0.15 0
8.1 0.15 0
8.25 0.15 0
8.4 0.15 0
8.55 0.15 0
8.7 0.15 0
8.85 0.15 0
9 0.15 0
9.15 0.15 0
9.3 0.15 0
9.45 0.15 0
9.6 0.15 0
9.75 0.15 0
9.9 0.15 0
10.05 0.15 0
10.2 0.15 0
10.35 0.15 0
10.5 0.15 0
10.65 0.15 0
10.8 0.15 0
10.95 0.15 0
11.1 0.15 0
11.25 0.15 0
11.4 0.15 0
11.55 0.15 0
11.7 0.15 0
11.85 0.15 0
12 0.15 0
12.15 0.15 0
12.3 0.15 0
12.45 0.15 0
12.6 0.15 0
12.75 0.15 0
12.9 0.15 0
13.05 0.15 0
13.2 0.15 0
13.35 0.15 0
13.5 0.15 0
13.65 0.15 0
13.8 0.15 0
13.95 0.15 0
14.1 0.15 0
14.25 0.15 0
14.4 0.15 0
14.55 0.15 0
14.7 0.15 0
14.85 0.15 0
15 0.15 0
15.15 0.15 0
15.3 0.15 0
15.45 0.15 0
15.6 0.15 0
15.75 0.15 0
15.9 0.15 0
16.05 0.15 0
16.2 0.15 0
16.35 0.15 0
16.5 0.15 0
16.65 0.15 0
16.8 0.15 0
16.95 0.15 0
17.1 0.15 0
17.25 0.15 0
17.4 0.15 0
17.55 0.15 0
17.7 0.15 0
17.85 0.15 0
18 0.15 0
18.15 0.15 0
18.3 0.15 0
18.45 0.15 0
18.6 0.15 0
18.75 0.15 0
18.9 0.15 0
19.05 0.15 0
19.2 0.15 0
19.35 0.15 0
19.5 0.15 0
19.65 0.15 0
19.8 0.15 0
19.95 0.15 0
20.1 0.15 0
20.25 0.15 0
20.4 0.15 0
20.55 0.15 0
20.7 0.15 0
20.85 0.15 0
21 0.15 0
21.15 0.15 0
21.3 0.15 0
21.45 0.15 0
21.6 0.15 0
21.75 0.15 0
21.9 0.15 0
22.05 0.15 0
22.2 0.15 0
22.35 0.15 0
22.5 0.15 0
22.65 0.15 0
22.8 0.15 0
22.95 0.15 0
23.1 0.15 0
23.25 0.15 0
23.4 0.15 0
23.55 0.15 0
23.7 0.15 0
23.85 0.15 0
24 0.15 0
24.15 0.15 0
24.3 0.15 0
24.45 0.15 0
24.6 0.15 0
24.75 0.15 0
24.9 0.15 0
25.05 0.15 0
25.2 0.15 0
25.35 0.15 0
25.5 0.15 0
25.65 0.15 0
25.8 0.15 0
25.95 0.15 0
26.1 0.15 0
26.25 0.15 0
26.4 0.15 0
26.55 0.15 0
26.7 0.15 0
26.85 0.15 0
27 0.15 0
27.15 0.15 0
27.3 0.15 0
27.45 0.15 0
27.6 0.15 0
27.75 0.15 0
27.9 0.15 0
28.05 0.15 0
28.2 0.15 0
28.35 0.15 0
28.5 0.15 0
28.65 0.15 0
28.8 0.15 0
28.95 0.15 0
29.1 0.15 0
29.25 0.15 0
29.4 0.15 0
29.55 0.15 0
29.7 0.15 0
29.85 0.15 0
0 0.225 0
0.15 0.225 0
0.3 0.225 0
0.45 0.225 0
0.6 0.225 0
0.75 0.225 0
0.9 0.225 0
1.05 0.225 0
1.2 0.225 0
1.35 0.225 0
1.5 0.225 0
1.65 0.225 0
1.8 0.225 0
1.95 0.225 0
2.1 0.225 0
2.25 0.225 0
2.4 0.225 0
2.55 0.225 0
2.7 0.225 0
2.85 0.225 0
3 0.225 0
3.15 0.225 0
3.3 0.225 0
3.45 0.225 0
3.6 0.225 0
3.75 0.225 0
3.9 0.225 0
4.05 0.225 0
4.2 0.225 0
4.35 0.225 0
4.5 0.225 0
4.65 0.225 0
4.8 0.225 0
4.95 0.225 0
5.1 0.225 0
5.25 0.225 0
5.4 0.225 0
5.55 0.225 0
5.7 0.225 0
5.85 0.225 0
6 0.225 0
6.15 0.225 0
6.3 0.225 0
6.45 0.225 0
6.6 0.225 0
6.75 0.225 0
6.9 0.225 0
7.05 0.225 0
7.2 0.225 0
7.35 0.225 0
7.5 0.225 0
7.65 0.225 0
7.8 0.225 0
7.95 0.225 0
8.1 0.225 0
8.25 0.225 0
8.4 0.225 0
8.55 0.225 0
8.7 0.225 0
8.85 0.225 0
9 0.225 0
9.15 0.225 0
9.3 0.225 0
9.45 0.225 0
9.6 0.225 0
9.75 0.225 0
9.9 0.225 0
10.05 0.225 0
10.2 0.225 0
10.35 0.225 0
10.5 0.225 0
10.65 0.225 0
10.8 0.225 0
10.95 0.225 0
11.1 0.225 0
11.25 0.225 0
11.4 0.225 0
11.55 0.225 0
11.7 0.225 0
11.85 0.225 0
12 0.225 0
12.15 0.225 0
12.3 0.225 0
12.45 0.225 0
12.6 0.225 0
12.75 0.225 0
12.9 0.225 0
13.05 0.225 0
13.2 0.225 0
13.35 0.225 0
13.5 0.225 0
13.65 0.225 0
13.8 0.225 0
13.95 0.225 0
14.1 0.225 0
14.25 0.225 0
14.4 0.225 0
14.55 0.225 0
14.7 0.225 0
14.85 0.225 0
15 0.225 0
15.15 0.225 0
15.3 0.225 0
15.45 0.225 0
15.6 0.225 0
15.75 0.225 0
15.9 0.225 0
16.05 0.225 0
16.2 0.225 0
16.35 0.225 0
16.5 0.225 0
16.65 0.225 0
16.8 0.225 0
16.95 0.225 0
17.1 0.225 0
17.25 0.225 0
17.4 0.225 0
17.55 0.225 0
17.7 0.225 0
17.85 0.225 0
18 0.225 0
18.15 0.225 0
18.3 0.225 0
18.45 0.225 0
18.6 0.225 0
18.75 0.225 0
18.9 0.225 0
19.05 0.225 0
19.2 0.225 0
19.35 0.225 0
19.5 0.225 0
19.65 0.225 0
19.8 0.225 0
19.95 0.225 0
20.1 0.225 0
20.25 0.225 0
20.4 0.225 0
20.55 0.225 0
20.7 0.225 0
20.85 0.225 0
21 0.225 0
21.15 0.225 0
21.3 0.225 0
21.45 0.225 0
21.6 0.225 0
21.75 0.225 0
21.9 0.225 0
22.05 0.225 0
22.2 0.225 0
22.35 0.225 0
22.5 0.225 0
22.65 0.225 0
22.8 0.225 0
22.95 0.225 0
23.1 0.225 0
23.25 0.225 0
23.4 0.225 0
23.55 0.225 0
23.7 0.225 0
23.85 0.225 0
24 0.225 0
24.15 0.225 0
24.3 0.225 0
24.45 0.225 0
24.6 0.225 0
24.75 0.225 0
24.9 0.225 0
25.05 0.225 0
25.2 0.225 0
25.35 0.225 0
25.5 0.225 0
25.65 0.225 0
25.8 0.225 0
25.95 0.225 0
26.1 0.225 0
26.25 0.225 0
26.4 0.225 0
26.55 0.225 0
26.7 0.225 0
26.85 0.225 0
27 0.225 0
27.15 0.225 0
27.3 0.225 0
27.45 0.225 0
27.6 0.225 0
27.75 0.225 0
27.9 0.225 0
28.05 0.225 0
28.2 0.225 0
28.35 0.225 0
28.5 0.225 0
28.65 0.225 0
28.8 0.225 0
28.95 0.225 0
29.1 0.225 0
29.25 0.225 0
29.4 0.225 0
29.55 0.225 0
29.7 0.225 0
29.85 0.225 0
0 0.3 0
0.15 0.3 0
0.3 0.3 0
0.45 0.3 0
0.6 0.3 0
0.75 0.3 0
0.9 0.3 0
1.05 0.3 0
1.2 0.3 0
1.35 0.3 0
1.5 0.3 0
1.65 0.3 0
1.8 0.3 0
1.95 0.3 0
2.1 0.3 0
2.25 0.3 0
2.4 0.3 0
2.55 0.3 0
2.7 0.3 0
2.85 0.3 0
3 0.3 0
3.15 0.3 0
3.3 0.3 0
3.45 0.3 0
3.6 0.3 0
3.75 0.3 0
3.9 0.3 0
4.05 0.3 0
4.2 0.3 0
4.35 0.3 0
4.5 0.3 0
4.65 0.3 0
4.8 0.3 0
4.95 0.3 0
5.1 0.3 0
5.25 0.3 0
5.4 0.3 0
5.55 0.3 0
5.7 0.3 0
5.85 0.3 0
6 0.3 0
6.15 0.3 0
[...]
POINT_DATA 40000

SCALARS p float 1
LOOKUP_TABLE default
17479.47525
17479.47525
17479.42044
17479.38992
17479.36623
17479.34907
17479.34268
17479.34648
17479.35573
17479.36654
17479.37725
17479.38762
17479.39782
17479.4081
17479.41868
17479.42979
17479.44169
17479.45477
17479.46959
17479.48693
17479.50798
17479.53383
17479.56739
17479.6052
17479.65227
17479.70766
17479.62955
17479.3109
17479.00367
17478.70734
17478.41808
17478.1309
17477.8407
17477.54266
17477.23267
17476.90634
17476.56076
17476.1935
17475.79996
17475.38139
17474.9215
17474.66996
17474.48642
17474.05293
17473.77049
17474.06093
17474.75796
17475.50073
17476.09321
17476.507
17476.7791
17476.95565
17477.07295
17477.15519
17477.21717
17477.26732
17477.3102
17477.34818
17477.38246
17477.4137
17477.44229
17477.46848
17477.49249
17477.51447
17477.53458
17477.55293
17477.56965
17477.58484
17477.59861
17477.61104
17477.62221
17477.6322
17477.64108
17477.64892
17477.65576
17477.66167
17477.66668
17477.67086
17477.67423
17477.67683
17477.67871
17477.67989
17477.6804
17477.68027
17477.67952
17477.67818
17477.67627
17477.6738
17477.6708
17477.66728
17477.66325
17477.65874
17477.65375
17477.64829
17477.64238
17477.63603
17477.62924
17477.62203
17477.6144
17477.60637
17477.59793
17477.58909
17477.57986
17477.57025
17477.56026
17477.5499
17477.53916
17477.52805
17477.51658
17477.50476
17477.49257
17477.48003
17477.46713
17477.45389
17477.44029
17477.42636
17477.41207
17477.39744
17477.38248
17477.36717
17477.35152
17477.33553
17477.3192
17477.30253
17477.28553
17477.26819
17477.25052
17477.23251
17477.21416
17477.19548
17477.17646
17477.15711
17477.13742
17477.1174
17477.09703
17477.07634
17477.0553
17477.03393
17477.01222
17476.99017
17476.96779
17476.94506
17476.922
17476.8986
17476.87485
17476.85077
17476.82634
17476.80157
17476.77646
17476.75101
17476.72521
17476.69906
17476.67258
17476.64574
17476.61856
17476.59103
17476.56316
17476.53493
17476.50636
17476.47744
17476.44816
17476.41854
17476.38857
17476.35824
17476.32756
17476.29653
17476.26514
17476.2334
17476.2013
17476.16885
17476.13605
17476.10289
17476.06937
17476.03549
17476.00126
17475.96667
17475.93172
17475.89642
17475.86075
17475.82473
17475.78835
17475.7516
17475.7145
17475.67704
17475.63922
17475.60105
17475.56251
17475.52361
17475.48436
17475.44475
17475.40478
17475.36445
17475.32376
17475.28275
17475.24132
17475.19966
17475.15749
17475.11516
17475.07203
17475.07203
17479.47525
17479.47525
17479.42044
17479.38992
17479.36623
17479.34907
17479.34268
17479.34648
17479.35573
17479.36654
17479.37725
17479.38762
17479.39782
17479.4081
17479.41868
17479.42979
17479.44169
17479.45477
17479.46959
17479.48693
17479.50798
17479.53383
17479.56739
17479.6052
17479.65227
17479.70766
17479.62955
17479.3109
17479.00367
17478.70734
17478.41808
17478.1309
17477.8407
17477.54266
17477.23267
17476.90634
17476.56076
17476.1935
17475.79996
17475.38139
17474.9215
17474.66996
17474.48642
17474.05293
17473.77049
17474.06093
17474.75796
17475.50073
17476.09321
17476.507
17476.7791
17476.95565
17477.07295
17477.15519
17477.21717
17477.26732
17477.3102
17477.34818
17477.38246
17477.4137
17477.44229
17477.46848
17477.49249
17477.51447
17477.53458
17477.55293
17477.56965
17477.58484
17477.59861
17477.61104
17477.62221
17477.6322
17477.64108
17477.64892
17477.65576
17477.66167
17477.66668
17477.67086
17477.67423
17477.67683
17477.67871
17477.67989
17477.6804
17477.68027
17477.67952
17477.67818
17477.67627
17477.6738
17477.6708
17477.66728
17477.66325
17477.65874
17477.65375
17477.64829
17477.64238
17477.63603
17477.62924
17477.62203
17477.6144
17477.60637
17477.59793
17477.58909
17477.57986
17477.57025
17477.56026
17477.5499
17477.53916
17477.52805
17477.51658
17477.50476
17477.49257
17477.48003
17477.46713
17477.45389
17477.44029
17477.42636
17477.41207
17477.39744
17477.38248
17477.36717
17477.35152
17477.33553
17477.3192
17477.30253
17477.28553
17477.26819
17477.25052
17477.23251
17477.21416
17477.19548
17477.17646
17477.15711
17477.13742
17477.1174
17477.09703
17477.07634
17477.0553
17477.03393
17477.01222
17476.99017
17476.96779
17476.94506
17476.922
17476.8986
17476.87485
17476.85077
17476.82634
17476.80157
17476.77646
17476.75101
17476.72521
17476.69906
17476.67258
17476.64574
17476.61856
17476.59103
17476.56316
17476.53493
17476.50636
17476.47744
17476.44816
17476.41854
17476.38857
17476.35824
17476.32756
17476.29653
17476.26514
17476.2334
17476.2013
17476.16885
17476.13605
17476.10289
17476.06937
17476.03549
17476.00126
17475.96667
17475.93172
17475.89642
17475.86075
17475.82473
17475.78835
17475.7516
17475.7145
17475.67704
17475.63922
17475.60105
17475.56251
17475.52361
17475.48436
17475.44475
17475.40478
17475.36445
17475.32376
17475.28275
17475.24132
17475.19966
17475.15749
17475.11516
17475.07203
17475.07203
17479.44423
17479.44423
17479.41275
17479.38715
17479.36596
17479.35042
17479.3445
17479.34798
17479.35677
17479.36725
17479.37778
17479.38805
17479.39819
17479.40843
17479.41896
17479.43
17479.44181
17479.45474
17479.46934
17479.48638
17479.50705
17479.53243
17479.56559
17479.60377
17479.65153
17479.71888
17479.6246
17479.31126
17479.00441
17478.70899
17478.42095
17478.13503
17477.84599
17477.54902
17477.23987
17476.91462
17476.5697
17476.20209
17475.80998
17475.39593
17474.97701
17474.76128
17474.43432
17473.88306
17473.57813
17473.91836
17474.67391
17475.45452
17476.06916
17476.49495
17476.77328
17476.95279
17477.07136
17477.15415
17477.2164
17477.26674
17477.30977
17477.34786
17477.38223
17477.41354
17477.44219
17477.46843
17477.49247
17477.51447
17477.53459
17477.55296
17477.56969
17477.58489
17477.59866
17477.61109
17477.62226
17477.63225
17477.64113
17477.64896
17477.6558
17477.6617
17477.66672
17477.67089
17477.67425
17477.67686
17477.67873
17477.67991
17477.68041
17477.68028
17477.67953
17477.67818
17477.67626
17477.67379
17477.67079
17477.66726
17477.66323
17477.65871
17477.65372
17477.64826
17477.64235
17477.63599
17477.6292
17477.62199
17477.61436
17477.60632
17477.59788
17477.58904
17477.57981
17477.5702
17477.5602
17477.54984
17477.5391
17477.52799
17477.51652
17477.50469
17477.4925
17477.47995
17477.46706
17477.45381
17477.44022
17477.42628
17477.41199
17477.39736
17477.38239
17477.36708
17477.35143
17477.33544
17477.31911
17477.30244
17477.28544
17477.2681
17477.25042
17477.23241
17477.21406
17477.19538
17477.17636
17477.15701
17477.13732
17477.11729
17477.09693
17477.07623
17477.05519
17477.03382
17477.01211
17476.99006
17476.96767
17476.94495
17476.92188
17476.89848
17476.87473
17476.85065
17476.82622
17476.80145
17476.77634
17476.75088
17476.72508
17476.69894
17476.67245
17476.64561
17476.61843
17476.5909
17476.56303
17476.5348
17476.50623
17476.4773
17476.44803
17476.41841
17476.38843
17476.3581
17476.32742
17476.29639
17476.265
17476.23326
17476.20117
17476.16872
17476.13591
17476.10275
17476.06923
17476.03535
17476.00112
17475.96653
17475.93158
17475.89627
17475.86061
17475.82458
17475.7882
17475.75146
17475.71436
17475.6769
17475.63908
17475.6009
17475.56236
17475.52347
17475.48421
17475.4446
17475.40463
17475.3643
17475.32362
17475.2826
17475.24118
17475.1995
17475.15736
17475.11502
17475.07171
17475.07171
17479.42063
17479.42063
17479.40177
17479.3821
17479.36504
17479.35255
17479.34762
17479.35046
17479.35821
17479.36792
17479.37802
17479.38806
17479.39806
17479.40819
17479.4186
17479.42948
17479.44105
17479.45363
17479.46771
17479.48398
17479.50355
17479.5276
17479.5589
17479.59621
17479.6451
17479.71596
17479.61738
17479.30717
17479.00059
17478.7071
17478.42161
17478.13827
17477.85158
17477.55675
17477.24942
17476.92587
17476.58295
17476.21516
17475.82278
17475.41077
17475.00109
17474.75824
17474.25722
17473.53533
17473.19973
17473.6393
17474.5101
17475.36286
17476.01693
17476.46467
17476.75549
17476.94207
17477.0647
17477.14993
17477.21373
17477.26506
17477.30873
17477.34725
17477.3819
17477.4134
17477.44217
17477.4685
17477.49259
17477.51464
17477.53478
17477.55316
17477.5699
17477.5851
17477.59887
17477.61129
17477.62246
17477.63244
17477.64131
17477.64913
17477.65596
17477.66185
17477.66685
17477.67101
17477.67437
17477.67696
17477.67882
17477.67999
17477.68048
17477.68034
17477.67958
17477.67823
17477.6763
17477.67382
17477.67081
17477.66728
17477.66324
17477.65872
17477.65372
17477.64825
17477.64233
17477.63597
17477.62918
17477.62196
17477.61433
17477.60628
17477.59783
17477.58899
17477.57976
17477.57014
17477.56014
17477.54977
17477.53903
17477.52792
17477.51644
17477.50461
17477.49242
17477.47987
17477.46697
17477.45372
17477.44012
17477.42618
17477.41189
17477.39726
17477.38229
17477.36697
17477.35132
17477.33533
17477.319
17477.30233
17477.28532
17477.26798
17477.2503
17477.23229
17477.21394
17477.19525
17477.17623
17477.15688
17477.13718
17477.11716
17477.09679
17477.07609
17477.05505
17477.03368
17477.01197
17476.98992
17476.96753
17476.9448
17476.92174
17476.89833
17476.87458
17476.8505
17476.82607
17476.8013
17476.77618
17476.75073
17476.72493
17476.69878
17476.67229
17476.64545
17476.61827
17476.59074
17476.56286
17476.53464
17476.50606
17476.47714
17476.44787
17476.41824
17476.38826
17476.35794
17476.32725
17476.29622
17476.26483
17476.23309
17476.20099
17476.16854
17476.13574
17476.10257
17476.06905
17476.03518
17476.00094
17475.96635
17475.9314
17475.8961
17475.86043
17475.82441
17475.78802
17475.75128
17475.71418
17475.67672
17475.6389
17475.60072
17475.56218
17475.52329
17475.48403
17475.44442
17475.40444
17475.36412
17475.32343
17475.2824
17475.241
17475.19929
17475.15718
17475.11482
17475.07128
17475.07128
17479.40239
17479.40239
17479.39083
17479.37624
17479.36303
17479.35345
17479.34974
17479.35227
17479.35916
17479.36813
17479.37775
17479.3875
17479.39731
17479.40727
17479.41749
17479.4281
17479.4393
17479.45132
17479.46455
17479.47961
17479.4974
17479.51916
17479.54728
17479.58193
17479.63012
17479.70724
17479.61132
17479.29912
17478.9934
17478.70328
17478.42187
17478.14247
17477.85932
17477.5676
17477.26325
17476.94193
17476.60126
17476.23561
17475.84131
17475.422
17474.9526
17474.60753
17473.96468
17473.07375
17472.70533
17473.27277
17474.29506
17475.23852
17475.94088
17476.41724
17476.72596
17476.92357
17477.05301
17477.14255
17477.20915
17477.2623
17477.30716
17477.34643
17477.38157
17477.41339
17477.44236
17477.46881
17477.49299
17477.51508
17477.53525
17477.55364
17477.57037
17477.58556
17477.59932
17477.61172
17477.62287
17477.63283
17477.64168
17477.64947
17477.65628
17477.66215
17477.66713
17477.67127
17477.67461
17477.67719
17477.67903
17477.68018
17477.68066
17477.6805
17477.67973
17477.67836
17477.67642
17477.67393
17477.67091
17477.66737
17477.66332
17477.65879
17477.65378
17477.6483
17477.64238
17477.63601
17477.6292
17477.62198
17477.61434
17477.60628
17477.59783
17477.58898
17477.57974
17477.57012
17477.56012
17477.54974
17477.53899
17477.52788
17477.5164
17477.50456
17477.49236
17477.47981
17477.46691
17477.45365
17477.44005
17477.42611
17477.41181
17477.39718
17477.3822
17477.36689
17477.35123
17477.33523
17477.3189
17477.30223
17477.28522
17477.26788
17477.2502
17477.23218
17477.21383
17477.19514
17477.17612
17477.15676
17477.13706
17477.11703
17477.09667
17477.07596
17477.05492
17477.03355
17477.01183
17476.98978
17476.96739
17476.94466
17476.9216
17476.89819
17476.87444
17476.85035
17476.82592
17476.80115
17476.77604
17476.75058
17476.72478
17476.69863
17476.67214
17476.6453
17476.61812
17476.59059
17476.56271
17476.53448
17476.5059
17476.47698
17476.4477
17476.41808
17476.3881
17476.35777
17476.32709
17476.29605
17476.26467
17476.23292
17476.20083
17476.16837
17476.13557
17476.1024
17476.06888
17476.035
17476.00077
17475.96618
17475.93123
17475.89592
17475.86025
17475.82423
17475.78785
17475.7511
17475.714
17475.67654
17475.63872
17475.60054
17475.562
17475.5231
17475.48385
17475.44423
17475.40426
17475.36393
17475.32325
17475.28221
17475.24081
17475.19908
17475.15699
17475.11459
17475.07089
17475.07089
17479.38771
17479.38771
17479.38059
17479.37002
17479.36004
17479.35285
17479.35027
17479.35279
17479.35915
17479.36757
17479.3768
17479.38628
17479.39589
17479.40564
17479.4156
17479.42587
17479.43656
17479.44784
17479.45997
17479.47341
17479.48885
17479.5074
17479.5311
17479.56089
17479.60425
17479.68647
17479.59666
17479.28448
17478.98214
17478.69753
17478.42197
17478.14789
17477.86944
17477.58179
17477.28118
17476.96354
17476.625
17476.26282
17475.86812
17475.43817
17474.89112
17474.40845
17473.63129
17472.58864
17472.19411
17472.89929
17474.07949
17475.10815
17475.85385
17476.35938
17476.68863
17476.89987
17477.03807
17477.13326
17477.20354
17477.25909
17477.30549
17477.34574
17477.3815
17477.4137
17477.44291
17477.46951
17477.49376
17477.51589
17477.53607
17477.55444
17477.57116
17477.58632
17477.60004
17477.61241
17477.62352
17477.63344
17477.64225
17477.65002
17477.65679
17477.66263
17477.66758
17477.67169
17477.675
17477.67755
17477.67937
17477.68049
17477.68095
17477.68077
17477.67998
17477.67859
17477.67663
17477.67413
17477.67109
17477.66753
17477.66347
17477.65892
17477.6539
17477.64841
17477.64247
17477.63609
17477.62928
17477.62204
17477.61439
17477.60633
17477.59787
17477.58901
17477.57977
17477.57014
17477.56013
17477.54974
17477.53899
17477.52786
17477.51638
17477.50453
17477.49233
17477.47978
17477.46687
17477.45361
17477.44
17477.42605
17477.41176
17477.39712
17477.38214
17477.36682
17477.35115
17477.33516
17477.31882
17477.30214
17477.28513
17477.26779
17477.2501
17477.23208
17477.21373
17477.19504
17477.17601
17477.15665
17477.13695
17477.11692
17477.09655
17477.07585
17477.0548
17477.03343
17477.01171
17476.98966
17476.96726
17476.94453
17476.92146
17476.89806
17476.87431
17476.85022
17476.82578
17476.80101
17476.77589
17476.75043
17476.72463
17476.69848
17476.67199
17476.64515
17476.61796
17476.59043
17476.56255
17476.53432
17476.50575
17476.47682
17476.44754
17476.41792
17476.38794
17476.35761
17476.32693
17476.29589
17476.2645
17476.23276
17476.20066
17476.16821
17476.1354
17476.10223
17476.06871
17476.03483
17476.0006
17475.96601
17475.93106
17475.89575
17475.86008
17475.82405
17475.78767
17475.75093
17475.71382
17475.67636
17475.63854
17475.60036
17475.56182
17475.52292
17475.48367
17475.44405
17475.40408
17475.36375
17475.32306
17475.28202
17475.24062
17475.19888
17475.15678
17475.11435
17475.07056
17475.07056
17479.3754
17479.3754
17479.37112
17479.36363
17479.35629
17479.35106
17479.3495
17479.35215
17479.3582
17479.36624
17479.37516
17479.3844
17479.3938
17479.40331
17479.41298
17479.42283
17479.43293
17479.44332
17479.45415
17479.46564
17479.47825
17479.49281
17479.51089
17479.53358
17479.56673
17479.63607
17479.55466
17479.26092
17478.96649
17478.69011
17478.4222
17478.15483
17477.88212
17477.59956
17477.30322
17476.98995
17476.65536
17476.29589
17475.90298
17475.47198
17474.87683
17474.25685
17473.34774
17472.20301
17471.8026
17472.62388
17473.9239
17475.00329
17475.77226
17476.29975
17476.64837
17476.87379
17477.02157
17477.12311
17477.19756
17477.25585
17477.30402
17477.34539
17477.38184
17477.41446
17477.44392
17477.47064
17477.49496
17477.5171
17477.53726
17477.55561
17477.57228
17477.58739
17477.60105
17477.61337
17477.62442
17477.63429
17477.64305
17477.65076
17477.65749
17477.66328
17477.66819
17477.67226
17477.67553
17477.67804
17477.67983
17477.68092
17477.68135
17477.68114
17477.68032
17477.67891
17477.67693
17477.6744
17477.67134
17477.66776
17477.66368
17477.65912
17477.65408
17477.64858
17477.64262
17477.63623
17477.6294
17477.62216
17477.61449
17477.60642
17477.59795
17477.58908
17477.57983
17477.57019
17477.56017
17477.54977
17477.53901
17477.52788
17477.51639
17477.50454
17477.49233
17477.47977
17477.46685
17477.45359
17477.43998
17477.42602
17477.41172
17477.39707
17477.38209
17477.36676
17477.3511
17477.33509
17477.31875
17477.30207
17477.28506
17477.26771
17477.25002
17477.232
17477.21364
17477.19495
17477.17592
17477.15655
17477.13685
17477.11682
17477.09645
17477.07574
17477.05469
17477.03331
17477.01159
17476.98954
17476.96714
17476.94441
17476.92134
17476.89793
17476.87418
17476.85008
17476.82565
17476.80087
17476.77576
17476.75029
17476.72449
17476.69834
17476.67185
17476.645
17476.61782
17476.59028
17476.5624
17476.53417
17476.5056
17476.47667
17476.44739
17476.41776
17476.38778
17476.35745
17476.32677
17476.29573
17476.26434
17476.23259
17476.20049
17476.16804
17476.13523
17476.10207
17476.06854
17476.03467
17476.00043
17475.96584
17475.93088
17475.89558
17475.85991
17475.82388
17475.7875
17475.75075
17475.71365
17475.67619
17475.63836
17475.60018
17475.56164
17475.52274
17475.48348
17475.44387
17475.40389
17475.36356
17475.32287
17475.28183
17475.24042
17475.19867
17475.15656
17475.1141
17475.07027
17475.07027
17479.36475
17479.36475
17479.36235
17479.35721
17479.35199
17479.34839
17479.34772
17479.35059
17479.35646
17479.36421
17479.37287
17479.38189
17479.39106
17479.40033
17479.40966
17479.41906
17479.42849
17479.43791
17479.44728
17479.45661
17479.46603
17479.47596
17479.48745
17479.50135
17479.52088
17479.56054
17479.48584
17479.22588
17478.94635
17478.68137
17478.42299
17478.16365
17477.89766
17477.62085
17477.33012
17477.02112
17476.69271
17476.33804
17475.9457
17475.51848
17474.90437
17474.18278
17473.20379
17472.03966
17471.65669
17472.53926
17473.87824
17474.94922
17475.71102
17476.24748
17476.61058
17476.8485
17477.00535
17477.11317
17477.19187
17477.25298
17477.30298
17477.34552
17477.38269
17477.41573
17477.44542
17477.47226
17477.49661
17477.51874
17477.53886
17477.55714
17477.57374
17477.58878
17477.60236
17477.6146
17477.62558
17477.63538
17477.64406
17477.65171
17477.65837
17477.66411
17477.66896
17477.67298
17477.6762
17477.67867
17477.68041
17477.68147
17477.68186
17477.68162
17477.68076
17477.67932
17477.67731
17477.67476
17477.67167
17477.66807
17477.66397
17477.65938
17477.65432
17477.6488
17477.64283
17477.63642
17477.62958
17477.62232
17477.61464
17477.60655
17477.59807
17477.58919
17477.57992
17477.57027
17477.56024
17477.54984
17477.53907
17477.52793
17477.51643
17477.50457
17477.49235
17477.47978
17477.46686
17477.45359
17477.43997
17477.42601
17477.4117
17477.39705
17477.38206
17477.36673
17477.35106
17477.33505
17477.3187
17477.30202
17477.285
17477.26764
17477.24995
17477.23193
17477.21356
17477.19487
17477.17583
17477.15647
17477.13676
17477.11672
17477.09635
17477.07564
17477.05459
17477.03321
17477.01149
17476.98943
17476.96703
17476.9443
17476.92122
17476.89781
17476.87405
17476.84996
17476.82552
17476.80075
17476.77562
17476.75016
17476.72435
17476.6982
17476.67171
17476.64486
17476.61768
17476.59014
17476.56226
17476.53403
17476.50545
17476.47652
17476.44724
17476.41761
17476.38763
17476.35729
17476.32661
17476.29557
17476.26418
17476.23243
17476.20033
17476.16788
17476.13507
17476.1019
17476.06838
17476.0345
17476.00026
17475.96567
17475.93072
17475.89541
17475.85974
17475.82371
17475.78732
17475.75058
17475.71347
17475.67601
17475.63819
17475.60001
17475.56146
17475.52256
17475.4833
17475.44369
17475.40371
17475.36337
17475.32268
17475.28163
17475.24023
17475.19846
17475.15634
17475.11386
17475.07
17475.07
17479.35527
17479.35527
17479.35415
17479.35079
17479.34728
17479.34502
17479.34516
17479.34828
17479.35405
17479.36157
17479.36999
17479.37879
17479.38774
17479.39673
17479.40572
17479.41463
17479.42335
17479.43174
17479.43958
17479.44663
17479.45264
17479.45755
17479.46174
17479.46586
17479.47209
17479.49077
17479.41576
17479.17967
17478.9219
17478.67176
17478.42503
17478.175
17477.91663
17477.64594
17477.36135
17477.05785
17476.73443
17476.38755
17475.99813
17475.57008
17474.96732
17474.21481
17473.26251
17472.1628
17471.81683
17472.69035
17473.96283
17474.95645
17475.6793
17476.20987
17476.5801
17476.82691
17476.99115
17477.10447
17477.18708
17477.25085
17477.30261
17477.34627
17477.38412
17477.41755
17477.44744
17477.47437
17477.49872
17477.52081
17477.54085
17477.55905
17477.57555
17477.59048
17477.60397
17477.6161
17477.62699
17477.63669
17477.6453
17477.65286
17477.65945
17477.66511
17477.6699
17477.67385
17477.67702