# vtk DataFile Version 2.0
FlowField
ASCII
DATASET STRUCTURED_GRID
DIMENSIONS 200 1 200
POINTS 40000 float
0 0 0
0.15 0 0
0.3 0 0
0.45 0 0
0.6 0 0
0.75 0 0
0.9 0 0
1.05 0 0
1.2 0 0
1.35 0 0
1.5 0 0
1.65 0 0
1.8 0 0
1.95 0 0
2.1 0 0
2.25 0 0
2.4 0 0
2.55 0 0
2.7 0 0
2.85 0 0
3 0 0
3.15 0 0
3.3 0 0
3.45 0 0
3.6 0 0
3.75 0 0
3.9 0 0
4.05 0 0
4.2 0 0
4.35 0 0
4.5 0 0
4.65 0 0
4.8 0 0
4.95 0 0
5.1 0 0
5.25 0 0
5.4 0 0
5.55 0 0
5.7 0 0
5.85 0 0
6 0 0
6.15 0 0
6.3 0 0
6.45 0 0
6.6 0 0
6.75 0 0
6.9 0 0
7.05 0 0
7.2 0 0
7.35 0 0
7.5 0 0
7.65 0 0
7.8 0 0
7.95 0 0
8.1 0 0
8.25 0 0
8.4 0 0
8.55 0 0
8.7 0 0
8.85 0 0
9 0 0
9.15 0 0
9.3 0 0
9.45 0 0
9.6 0 0
9.75 0 0
9.9 0 0
10.05 0 0
10.2 0 0
10.35 0 0
10.5 0 0
10.65 0 0
10.8 0 0
10.95 0 0
11.1 0 0
11.25 0 0
11.4 0 0
11.55 0 0
11.7 0 0
11.85 0 0
12 0 0
12.15 0 0
12.3 0 0
12.45 0 0
12.6 0 0
12.75 0 0
12.9 0 0
13.05 0 0
13.2 0 0
13.35 0 0
13.5 0 0
13.65 0 0
13.8 0 0
13.95 0 0
14.1 0 0
14.25 0 0
14.4 0 0
14.55 0 0
14.7 0 0
14.85 0 0
15 0 0
15.15 0 0
15.3 0 0
15.45 0 0
15.6 0 0
15.75 0 0
15.9 0 0
16.05 0 0
16.2 0 0
16.35 0 0
16.5 0 0
16.65 0 0
16.8 0 0
16.95 0 0
17.1 0 0
17.25 0 0
17.4 0 0
17.55 0 0
17.7 0 0
17.85 0 0
18 0 0
18.15 0 0
18.3 0 0
18.45 0 0
18.6 0 0
18.75 0 0
18.9 0 0
19.05 0 0
19.2 0 0
19.35 0 0
19.5 0 0
19.65 0 0
19.8 0 0
19.95 0 0
20.1 0 0
20.25 0 0
20.4 0 0
20.55 0 0
20.7 0 0
20.85 0 0
21 0 0
21.15 0 0
21.3 0 0
21.45 0 0
21.6 0 0
21.75 0 0
21.9 0 0
22.05 0 0
22.2 0 0
22.35 0 0
22.5 0 0
22.65 0 0
22.8 0 0
22.95 0 0
23.1 0 0
23.25 0 0
23.4 0 0
23.55 0 0
23.7 0 0
23.85 0 0
24 0 0
24.15 0 0
24.3 0 0
24.45 0 0
24.6 0 0
24.75 0 0
24.9 0 0
25.05 0 0
25.2 0 0
25.35 0 0
25.5 0 0
25.65 0 0
25.8 0 0
25.95 0 0
26.1 0 0
26.25 0 0
26.4 0 0
26.55 0 0
26.7 0 0
26.85 0 0
27 0 0
27.15 0 0
27.3 0 0
27.45 0 0
27.6 0 0
27.75 0 0
27.9 0 0
28.05 0 0
28.2 0 0
28.35 0 0
28.5 0 0
28.65 0 0
28.8 0 0
28.95 0 0
29.1 0 0
29.25 0 0
29.4 0 0
29.55 0 0
29.7 0 0
29.85 0 0
0 0.075 0
0.15 0.075 0
0.3 0.075 0
0.45 0.075 0
0.6 0.075 0
0.75 0.075 0
0.9 0.075 0
1.05 0.075 0
1.2 0.075 0
1.35 0.075 0
1.5 0.075 0
1.65 0.075 0
1.8 0.075 0
1.95 0.075 0
2.1 0.075 0
2.25 0.075 0
2.4 0.075 0
2.55 0.075 0
2.7 0.075 0
2.85 0.075 0
3 0.075 0
3.15 0.075 0
3.3 0.075 0
3.45 0.075 0
3.6 0.075 0
3.75 0.075 0
3.9 0.075 0
4.05 0.075 0
4.2 0.075 0
4.35 0.075 0
4.5 0.075 0
4.65 0.075 0
4.8 0.075 0
4.95 0.075 0
5.1 0.075 0
5.25 0.075 0
5.4 0.075 0
5.55 0.075 0
5.7 0.075 0
5.85 0.075 0
6 0.075 0
6.15 0.075 0
6.3 0.075 0
6.45 0.075 0
6.6 0.075 0
6.75 0.075 0
6.9 0.075 0
7.05 0.075 0
7.2 0.075 0
7.35 0.075 0
7.5 0.075 0
7.65 0.075 0
7.8 0.075 0
7.95 0.075 0
8.1 0.075 0
8.25 0.075 0
8.4 0.075 0
8.55 0.075 0
8.7 0.075 0
8.85 0.075 0
9 0.075 0
9.15 0.075 0
9.3 0.075 0
9.45 0.075 0
9.6 0.075 0
9.75 0.075 0
9.9 0.075 0
10.05 0.075 0
10.2 0.075 0
10.35 0.075 0
10.5 0.075 0
10.65 0.075 0
10.8 0.075 0
10.95 0.075 0
11.1 0.075 0
11.25 0.075 0
11.4 0.075 0
11.55 0.075 0
11.7 0.075 0
11.85 0.075 0
12 0.075 0
12.15 0.075 0
12.3 0.075 0
12.45 0.075 0
12.6 0.075 0
12.75 0.075 0
12.9 0.075 0
13.05 0.075 0
13.2 0.075 0
13.35 0.075 0
13.5 0.075 0
13.65 0.075 0
13.8 0.075 0
13.95 0.075 0
14.1 0.075 0
14.25 0.075 0
14.4 0.075 0
14.55 0.075 0
14.7 0.075 0
14.85 0.075 0
15 0.075 0
15.15 0.075 0
15.3 0.075 0
15.45 0.075 0
15.6 0.075 0
15.75 0.075 0
15.9 0.075 0
16.05 0.075 0
16.2 0.075 0
16.35 0.075 0
16.5 0.075 0
16.65 0.075 0
16.8 0.075 0
16.95 0.075 0
17.1 0.075 0
17.25 0.075 0
17.4 0.075 0
17.55 0.075 0
17.7 0.075 0
17.85 0.075 0
18 0.075 0
18.15 0.075 0
18.3 0.075 0
18.45 0.075 0
18.6 0.075 0
18.75 0.075 0
18.9 0.075 0
19.05 0.075 0
19.2 0.075 0
19.35 0.075 0
19.5 0.075 0
19.65 0.075 0
19.8 0.075 0
19.95 0.075 0
20.1 0.075 0
20.25 0.075 0
20.4 0.075 0
20.55 0.075 0
20.7 0.075 0
20.85 0.075 0
21 0.075 0
21.15 0.075 0
21.3 0.075 0
21.45 0.075 0
21.6 0.075 0
21.75 0.075 0
21.9 0.075 0
22.05 0.075 0
22.2 0.075 0
22.35 0.075 0
22.5 0.075 0
22.65 0.075 0
22.8 0.075 0
22.95 0.075 0
23.1 0.075 0
23.25 0.075 0
23.4 0.075 0
23.55 0.075 0
23.7 0.075 0
23.85 0.075 0
24 0.075 0
24.15 0.075 0
24.3 0.075 0
24.45 0.075 0
24.6 0.075 0
24.75 0.075 0
24.9 0.075 0
25.05 0.075 0
25.2 0.075 0
25.35 0.075 0
25.5 0.075 0
25.65 0.075 0
25.8 0.075 0
25.95 0.075 0
26.1 0.075 0
26.25 0.075 0
26.4 0.075 0
26.55 0.075 0
26.7 0.075 0
26.85 0.075 0
27 0.075 0
27.15 0.075 0
27.3 0.075 0
27.45 0.075 0
27.6 0.075 0
27.75 0.075 0
27.9 0.075 0
28.05 0.075 0
28.2 0.075 0
28.35 0.075 0
28.5 0.075 0
28.65 0.075 0
28.8 0.075 0
28.95 0.075 0
29.1 0.075 0
29.25 0.075 0
29.4 0.075 0
29.55 0.075 0
29.7 0.075 0
29.85 0.075 0
0 0.15 0
0.15 0.15 0
0.3 0.15 0
0.45 0.15 0
0.6 0.15 0
0.75 0.15 0
0.9 0.15 0
1.05 0.15 0
1.2 0.15 0
1.35 0.15 0
1.5 0.15 0
1.65 0.15 0
1.8 0.15 0
1.95 0.15 0
2.1 0.15 0
2.25 0.15 0
2.4 0.15 0
2.55 0.15 0
2.7 0.15 0
2.85 0.15 0
3 0.15 0
3.15 0.15 0
3.3 0.15 0
3.45 0.15 0
3.6 0.15 0
3.75 0.15 0
3.9 0.15 0
4.05 0.15 0
4.2 0.15 0
4.35 0.15 0
4.5 0.15 0
4.65 0.15 0
4.8 0.15 0
4.95 0.15 0
5.1 0.15 0
5.25 0.15 0
5.4 0.15 0
5.55 0.15 0
5.7 0.15 0
5.85 0.15 0
6 0.15 0
6.15 0.15 0
6.3 0.15 0
6.45 0.15 0
6.6 0.15 0
6.75 0.15 0
6.9 0.15 0
7.05 0.15 0
7.2 0.15 0
7.35 0.15 0
7.5 0.15 0
7.65 0.15 0
7.8 0.15 0
7.95 0.15 0
8.1 0.15 0
8.25 0.15 0
8.4 0.15 0
8.55 0.15 0
8.7 0.15 0
8.85 0.15 0
9 0.15 0
9.15 0.15 0
9.3 0.15 0
9.45 0.15 0
9.6 0.15 0
9.75 0.15 0
9.9 0.15 0
10.05 0.15 0
10.2 0.15 0
10.35 0.15 0
10.5 0.15 0
10.65 0.15 0
10.8 0.15 0
10.95 0.15 0
11.1 0.15 0
11.25 0.15 0
11.4 0.15 0
11.55 0.15 0
11.7 0.15 0
11.85 0.15 0
12 0.15 0
12.15 0.15 0
12.3 0.15 0
12.45 0.15 0
12.6 0.15 0
12.75 0.15 0
12.9 0.15 0
13.05 0.15 0
13.2 0.15 0
13.35 0.15 0
13.5 0.15 0
13.65 0.15 0
13.8 0.15 0
13.95 0.15 0
14.1 0.15 0
14.25 0.15 0
14.4 0.15 0
14.55 0.15 0
14.7 0.15 0
14.85 0.15 0
15 0.15 0
15.15 0.15 0
15.3 0.15 0
15.45 0.15 0
15.6 0.15 0
15.75 0.15 0
15.9 0.15 0
16.05 0.15 0
16.2 0.15 0
16.35 0.15 0
16.5 0.15 0
16.65 0.15 0
16.8 0.15 0
16.95 0.15 0
17.1 0.15 0
17.25 0.15 0
17.4 0.15 0
17.55 0.15 0
17.7 0.15 0
17.85 0.15 0
18 0.15 0
18.15 0.15 0
18.3 0.15 0
18.45 0.15 0
18.6 0.15 0
18.75 0.15 0
18.9 0.15 0
19.05 0.15 0
19.2 0.15 0
19.35 0.15 0
19.5 0.15 0
19.65 0.15 0
19.8 0.15 0
19.95 0.15 0
20.1 0.15 0
20.25 0.15 0
20.4 0.15 0
20.55 0.15 0
20.7 0.15 0
20.85 0.15 0
21 0.15 0
21.15 0.15 0
21.3 0.15 0
21.45 0.15 0
21.6 0.15 0
21.75 0.15 0
21.9 0.15 0
22.05 0.15 0
22.2 0.15 0
22.35 0.15 0
22.5 0.15 0
22.65 0.15 0
22.8 0.15 0
22.95 0.15 0
23.1 0.15 0
23.25 0.15 0
23.4 0.15 0
23.55 0.15 0
23.7 0.15 0
23.85 0.15 0
24 0.15 0
24.15 0.15 0
24.3 0.15 0
24.45 0.15 0
24.6 0.15 0
24.75 0.15 0
24.9 0.15 0
25.05 0.15 0
25.2 0.15 0
25.35 0.15 0
25.5 0.15 0
25.65 0.15 0
25.8 0.15 0
25.95 0.15 0
26.1 0.15 0
26.25 0.15 0
26.4 0.15 0
26.55 0.15 0
26.7 0.15 0
26.85 0.15 0
27 0.15 0
27.15 0.15 0
27.3 0.15 0
27.45 0.15 0
27.6 0.15 0
27.75 0.15 0
27.9 0.15 0
28.05 0.15 0
28.2 0.15 0
28.35 0.15 0
28.5 0.15 0
28.65 0.15 0
28.8 0.15 0
28.95 0.15 0
29.1 0.15 0
29.25 0.15 0
29.4 0.15 0
29.55 0.15 0
29.7 0.15 0
29.85 0.15 0
0 0.225 0
0.15 0.225 0
0.3 0.225 0
0.45 0.225 0
0.6 0.225 0
0.75 0.225 0
0.9 0.225 0
1.05 0.225 0
1.2 0.225 0
1.35 0.225 0
1.5 0.225 0
1.65 0.225 0
1.8 0.225 0
1.95 0.225 0
2.1 0.225 0
2.25 0.225 0
2.4 0.225 0
2.55 0.225 0
2.7 0.225 0
2.85 0.225 0
3 0.225 0
3.15 0.225 0
3.3 0.225 0
3.45 0.225 0
3.6 0.225 0
3.75 0.225 0
3.9 0.225 0
4.05 0.225 0
4.2 0.225 0
4.35 0.225 0
4.5 0.225 0
4.65 0.225 0
4.8 0.225 0
4.95 0.225 0
5.1 0.225 0
5.25 0.225 0
5.4 0.225 0
5.55 0.225 0
5.7 0.225 0
5.85 0.225 0
6 0.225 0
6.15 0.225 0
6.3 0.225 0
6.45 0.225 0
6.6 0.225 0
6.75 0.225 0
6.9 0.225 0
7.05 0.225 0
7.2 0.225 0
7.35 0.225 0
7.5 0.225 0
7.65 0.225 0
7.8 0.225 0
7.95 0.225 0
8.1 0.225 0
8.25 0.225 0
8.4 0.225 0
8.55 0.225 0
8.7 0.225 0
8.85 0.225 0
9 0.225 0
9.15 0.225 0
9.3 0.225 0
9.45 0.225 0
9.6 0.225 0
9.75 0.225 0
9.9 0.225 0
10.05 0.225 0
10.2 0.225 0
10.35 0.225 0
10.5 0.225 0
10.65 0.225 0
10.8 0.225 0
10.95 0.225 0
11.1 0.225 0
11.25 0.225 0
11.4 0.225 0
11.55 0.225 0
11.7 0.225 0
11.85 0.225 0
12 0.225 0
12.15 0.225 0
12.3 0.225 0
12.45 0.225 0
12.6 0.225 0
12.75 0.225 0
12.9 0.225 0
13.05 0.225 0
13.2 0.225 0
13.35 0.225 0
13.5 0.225 0
13.65 0.225 0
13.8 0.225 0
13.95 0.225 0
14.1 0.225 0
14.25 0.225 0
14.4 0.225 0
14.55 0.225 0
14.7 0.225 0
14.85 0.225 0
15 0.225 0
15.15 0.225 0
15.3 0.225 0
15.45 0.225 0
15.6 0.225 0
15.75 0.225 0
15.9 0.225 0
16.05 0.225 0
16.2 0.225 0
16.35 0.225 0
16.5 0.225 0
16.65 0.225 0
16.8 0.225 0
16.95 0.225 0
17.1 0.225 0
17.25 0.225 0
17.4 0.225 0
17.55 0.225 0
17.7 0.225 0
17.85 0.225 0
18 0.225 0
18.15 0.225 0
18.3 0.225 0
18.45 0.225 0
18.6 0.225 0
18.75 0.225 0
18.9 0.225 0
19.05 0.225 0
19.2 0.225 0
19.35 0.225 0
19.5 0.225 0
19.65 0.225 0
19.8 0.225 0
19.95 0.225 0
20.1 0.225 0
20.25 0.225 0
20.4 0.225 0
20.55 0.225 0
20.7 0.225 0
20.85 0.225 0
21 0.225 0
21.15 0.225 0
21.3 0.225 0
21.45 0.225 0
21.6 0.225 0
21.75 0.225 0
21.9 0.225 0
22.05 0.225 0
22.2 0.225 0
22.35 0.225 0
22.5 0.225 0
22.65 0.225 0
22.8 0.225 0
22.95 0.225 0
23.1 0.225 0
23.25 0.225 0
23.4 0.225 0
23.55 0.225 0
23.7 0.225 0
23.85 0.225 0
24 0.225 0
24.15 0.225 0
24.3 0.225 0
24.45 0.225 0
24.6 0.225 0
24.75 0.225 0
24.9 0.225 0
25.05 0.225 0
25.2 0.225 0
25.35 0.225 0
25.5 0.225 0
25.65 0.225 0
25.8 0.225 0
25.95 0.225 0
26.1 0.225 0
26.25 0.225 0
26.4 0.225 0
26.55 0.225 0
26.7 0.225 0
26.85 0.225 0
27 0.225 0
27.15 0.225 0
27.3 0.225 0
27.45 0.225 0
27.6 0.225 0
27.75 0.225 0
27.9 0.225 0
28.05 0.225 0
28.2 0.225 0
28.35 0.225 0
28.5 0.225 0
28.65 0.225 0
28.8 0.225 0
28.95 0.225 0
29.1 0.225 0
29.25 0.225 0
29.4 0.225 0
29.55 0.225 0
29.7 0.225 0
29.85 0.225 0
0 0.3 0
0.15 0.3 0
0.3 0.3 0
0.45 0.3 0
0.6 0.3 0
0.75 0.3 0
0.9 0.3 0
1.05 0.3 0
1.2 0.3 0
1.35 0.3 0
1.5 0.3 0
1.65 0.3 0
1.8 0.3 0
1.95 0.3 0
2.1 0.3 0
2.25 0.3 0
2.4 0.3 0
2.55 0.3 0
2.7 0.3 0
2.85 0.3 0
3 0.3 0
3.15 0.3 0
3.3 0.3 0
3.45 0.3 0
3.6 0.3 0
3.75 0.3 0
3.9 0.3 0
4.05 0.3 0
4.2 0.3 0
4.35 0.3 0
4.5 0.3 0
4.65 0.3 0
4.8 0.3 0
4.95 0.3 0
5.1 0.3 0
5.25 0.3 0
5.4 0.3 0
5.55 0.3 0
5.7 0.3 0
5.85 0.3 0
6 0.3 0
6.15 0.3 0
[...]
POINT_DATA 40000

SCALARS p float 1
LOOKUP_TABLE default
20183.43875
20183.43875
20183.38373
20183.35672
20183.33927
20183.32737
20183.32119
20183.3221
20183.33032
20183.34383
20183.35939
20183.37425
20183.38712
20183.39809
20183.40752
20183.41537
20183.42165
20183.42665
20183.4306
20183.43209
20183.42808
20183.41738
20183.39128
20183.35039
20183.41842
20183.78769
20183.68387
20183.35993
20183.14268
20182.95244
20182.76804
20182.58311
20182.39561
20182.20481
20182.01034
20181.81194
20181.60943
20181.40284
20181.19287
20180.98147
20180.77173
20180.65221
20180.65767
20180.67475
20180.78889
20180.89739
20180.80264
20180.62493
20180.52173
20180.49703
20180.49639
20180.50327
20180.50879
20180.51159
20180.48947
20180.45266
20180.41074
20180.36033
20180.29581
20180.21684
20180.1233
20180.01304
20179.8849
20179.7387
20179.5764
20179.4075
20179.24082
20179.0808
20178.9341
20178.80025
20178.67672
20178.56643
20178.45463
20178.34841
20178.25732
20178.18201
20178.14064
20178.13542
20178.15057
20178.15815
20178.17861
20178.21427
20178.23017
20178.23192
20178.2055
20178.15992
20178.10584
20178.04786
20178.00545
20178.03921
20178.16495
20178.30588
20178.38781
20178.41422
20178.42048
20178.42894
20178.44422
20178.46372
20178.48538
20178.50939
20178.5342
20178.55627
20178.57413
20178.58885
20178.60119
20178.60976
20178.61573
20178.6133
20178.59116
20178.59477
20178.51502
20178.34672
20178.30725
20178.36517
20178.39599
20178.37848
20178.34683
20178.33218
20178.35169
20178.41154
20178.51138
20178.64749
20178.81461
20179.00691
20179.21865
20179.44446
20179.67948
20179.91942
20180.16054
20180.39959
20180.63373
20180.86048
20181.07766
20181.28334
20181.4759
20181.65402
20181.81679
20181.96372
20182.0948
20182.21049
20182.31162
20182.39939
20182.47535
20182.5407
20182.59672
20182.64486
20182.68568
20182.72024
20182.74912
20182.7726
20182.79125
20182.80532
20182.81498
20182.82045
20182.82206
20182.81987
20182.81417
20182.80508
20182.79286
20182.77759
20182.75943
20182.7384
20182.71463
20182.6881
20182.65889
20182.62708
20182.59285
20182.55642
20182.51816
20182.47847
20182.43785
20182.39681
20182.35586
20182.31544
20182.27593
20182.23763
20182.20076
20182.16546
20182.1318
20182.09983
20182.06956
20182.04096
20182.01402
20181.98866
20181.96484
20181.94243
20181.92136
20181.90145
20181.88258
20181.86454
20181.84717
20181.83027
20181.81368
20181.7973
20181.78089
20181.76456
20181.7478
20181.73098
20181.71302
20181.71302
20183.43875
20183.43875
20183.38373
20183.35672
20183.33927
20183.32737
20183.32119
20183.3221
20183.33032
20183.34383
20183.35939
20183.37425
20183.38712
20183.39809
20183.40752
20183.41537
20183.42165
20183.42665
20183.4306
20183.43209
20183.42808
20183.41738
20183.39128
20183.35039
20183.41842
20183.78769
20183.68387
20183.35993
20183.14268
20182.95244
20182.76804
20182.58311
20182.39561
20182.20481
20182.01034
20181.81194
20181.60943
20181.40284
20181.19287
20180.98147
20180.77173
20180.65221
20180.65767
20180.67475
20180.78889
20180.89739
20180.80264
20180.62493
20180.52173
20180.49703
20180.49639
20180.50327
20180.50879
20180.51159
20180.48947
20180.45266
20180.41074
20180.36033
20180.29581
20180.21684
20180.1233
20180.01304
20179.8849
20179.7387
20179.5764
20179.4075
20179.24082
20179.0808
20178.9341
20178.80025
20178.67672
20178.56643
20178.45463
20178.34841
20178.25732
20178.18201
20178.14064
20178.13542
20178.15057
20178.15815
20178.17861
20178.21427
20178.23017
20178.23192
20178.2055
20178.15992
20178.10584
20178.04786
20178.00545
20178.03921
20178.16495
20178.30588
20178.38781
20178.41422
20178.42048
20178.42894
20178.44422
20178.46372
20178.48538
20178.50939
20178.5342
20178.55627
20178.57413
20178.58885
20178.60119
20178.60976
20178.61573
20178.6133
20178.59116
20178.59477
20178.51502
20178.34672
20178.30725
20178.36517
20178.39599
20178.37848
20178.34683
20178.33218
20178.35169
20178.41154
20178.51138
20178.64749
20178.81461
20179.00691
20179.21865
20179.44446
20179.67948
20179.91942
20180.16054
20180.39959
20180.63373
20180.86048
20181.07766
20181.28334
20181.4759
20181.65402
20181.81679
20181.96372
20182.0948
20182.21049
20182.31162
20182.39939
20182.47535
20182.5407
20182.59672
20182.64486
20182.68568
20182.72024
20182.74912
20182.7726
20182.79125
20182.80532
20182.81498
20182.82045
20182.82206
20182.81987
20182.81417
20182.80508
20182.79286
20182.77759
20182.75943
20182.7384
20182.71463
20182.6881
20182.65889
20182.62708
20182.59285
20182.55642
20182.51816
20182.47847
20182.43785
20182.39681
20182.35586
20182.31544
20182.27593
20182.23763
20182.20076
20182.16546
20182.1318
20182.09983
20182.06956
20182.04096
20182.01402
20181.98866
20181.96484
20181.94243
20181.92136
20181.90145
20181.88258
20181.86454
20181.84717
20181.83027
20181.81368
20181.7973
20181.78089
20181.76456
20181.7478
20181.73098
20181.71302
20181.71302
20183.40601
20183.40601
20183.37451
20183.35207
20183.33665
20183.32636
20183.32149
20183.32321
20183.3317
20183.34514
20183.36054
20183.37525
20183.38802
20183.39891
20183.40826
20183.41598
20183.4221
20183.42693
20183.43083
20183.43287
20183.43044
20183.4176
20183.37492
20183.31461
20183.33737
20183.60313
20183.56448
20183.33398
20183.13617
20182.95104
20182.76817
20182.58374
20182.39642
20182.2057
20182.0113
20181.81295
20181.61042
20181.40367
20181.19322
20180.9811
20180.77346
20180.67718
20180.64698
20180.64569
20180.74295
20180.83773
20180.75337
20180.58535
20180.48594
20180.46779
20180.48999
20180.50649
20180.50927
20180.51012
20180.48862
20180.45256
20180.41216
20180.36298
20180.29937
20180.22013
20180.12528
20180.01323
20179.88325
20179.7349
20179.57083
20179.40133
20179.23456
20179.07495
20178.9288
20178.7943
20178.6752
20178.56597
20178.45035
20178.34524
20178.25312
20178.17309
20178.12669
20178.1162
20178.13038
20178.14858
20178.18206
20178.21741
20178.23139
20178.23291
20178.20844
20178.16479
20178.10597
20178.03302
20177.97963
20178.00901
20178.13532
20178.28348
20178.37382
20178.40612
20178.41613
20178.42735
20178.44483
20178.46486
20178.48598
20178.50942
20178.53403
20178.55602
20178.57376
20178.58837
20178.60088
20178.60984
20178.61582
20178.6157
20178.58584
20178.59488
20178.533
20178.36378
20178.30342
20178.34017
20178.36059
20178.34286
20178.31546
20178.30605
20178.33027
20178.39393
20178.49673
20178.6351
20178.80392
20178.99753
20179.21026
20179.43681
20179.67239
20179.91276
20180.15422
20180.39355
20180.62796
20180.85498
20181.07245
20181.27845
20181.47137
20181.6499
20181.8131
20181.96046
20182.09198
20182.20805
20182.30954
20182.39762
20182.47381
20182.53932
20182.5955
20182.64371
20182.68463
20182.71919
20182.74813
20182.7716
20182.79025
20182.80431
20182.81393
20182.81937
20182.82096
20182.81872
20182.813
20182.80389
20182.79166
20182.77641
20182.7583
20182.73732
20182.71363
20182.6872
20182.6581
20182.62639
20182.59228
20182.55594
20182.51777
20182.47815
20182.4376
20182.39661
20182.3557
20182.31532
20182.27585
20182.23759
20182.20075
20182.16547
20182.13185
20182.0999
20182.06965
20182.04106
20182.01413
20181.98878
20181.96497
20181.94257
20181.92152
20181.90161
20181.88277
20181.86474
20181.8474
20181.83052
20181.81394
20181.79757
20181.78117
20181.76486
20181.74813
20181.73123
20181.71282
20181.71282
20183.38011
20183.38011
20183.36101
20183.34377
20183.33109
20183.32287
20183.3196
20183.32214
20183.33064
20183.34372
20183.35893
20183.37393
20183.38737
20183.39894
20183.40868
20183.41653
20183.42265
20183.42742
20183.43155
20183.43453
20183.43291
20183.41419
20183.35133
20183.28255
20183.28146
20183.43091
20183.43956
20183.29984
20183.12678
20182.94917
20182.76873
20182.58511
20182.39809
20182.20752
20182.01325
20181.815
20181.61247
20181.4054
20181.19396
20180.97961
20180.76749
20180.66877
20180.613
20180.59719
20180.67514
20180.75021
20180.66903
20180.51729
20180.4211
20180.40911
20180.46599
20180.50819
20180.51556
20180.51333
20180.48905
20180.45345
20180.41567
20180.3675
20180.30377
20180.22358
20180.12689
20180.01237
20179.87962
20179.72812
20179.56114
20179.3904
20179.22336
20179.06389
20178.91864
20178.78313
20178.67176
20178.56493
20178.44123
20178.33869
20178.2449
20178.15447
20178.09822
20178.07521
20178.08347
20178.11392
20178.16576
20178.21485
20178.23772
20178.24122
20178.21847
20178.17369
20178.10161
20178.00677
20177.94078
20177.96476
20178.08912
20178.2446
20178.34565
20178.38574
20178.40168
20178.41876
20178.44213
20178.46597
20178.48827
20178.51132
20178.53514
20178.55631
20178.57356
20178.58815
20178.60101
20178.61075
20178.61385
20178.62127
20178.59084
20178.57039
20178.50409
20178.35593
20178.27842
20178.2784
20178.27966
20178.26296
20178.24554
20178.24789
20178.28261
20178.35478
20178.46422
20178.60773
20178.78053
20178.9772
20179.19229
20179.42066
20179.65764
20179.8991
20180.14143
20180.38151
20180.61659
20180.84428
20181.06245
20181.2692
20181.46294
20181.64234
20181.80645
20181.95474
20182.08713
20182.20399
20182.30615
20182.39479
20182.47137
20182.53715
20182.5936
20182.64189
20182.68298
20182.71757
20182.74659
20182.77005
20182.7887
20182.80274
20182.8123
20182.81767
20182.81919
20182.81684
20182.81105
20182.80185
20182.78958
20182.77428
20182.75618
20182.7352
20182.71159
20182.68522
20182.65623
20182.6246
20182.5906
20182.55433
20182.51624
20182.47668
20182.4362
20182.39526
20182.35443
20182.31411
20182.27474
20182.23656
20182.19984
20182.16466
20182.13116
20182.0993
20182.06916
20182.04065
20182.01382
20181.98852
20181.9648
20181.94244
20181.92148
20181.90162
20181.88287
20181.8649
20181.84766
20181.83085
20181.8144
20181.79812
20181.7819
20181.76571
20181.74925
20181.73234
20181.71322
20181.71322
20183.35914
20183.35914
20183.34706
20183.33412
20183.32399
20183.3176
20183.31561
20183.3187
20183.32692
20183.33929
20183.35398
20183.3691
20183.38331
20183.39604
20183.40698
20183.41586
20183.42269
20183.42786
20183.43242
20183.4362
20183.43411
20183.40926
20183.33542
20183.27564
20183.27662
20183.35271
20183.36924
20183.27401
20183.11913
20182.94822
20182.77015
20182.58735
20182.40064
20182.21027
20182.01619
20181.81812
20181.61563
20181.40821
20181.19537
20180.9772
20180.75217
20180.63538
20180.56694
20180.54816
20180.60868
20180.65874
20180.57843
20180.44631
20180.35265
20180.34322
20180.42901
20180.50875
20180.53148
20180.52542
20180.49458
20180.45757
20180.41989
20180.37065
20180.3054
20180.2236
20180.12486
20180.00781
20179.87216
20179.71784
20179.54838
20179.37639
20179.20923
20179.0493
20178.90482
20178.7723
20178.66739
20178.56024
20178.43286
20178.33197
20178.23315
20178.12979
20178.0639
20178.02826
20178.02866
20178.06328
20178.12795
20178.20003
20178.24413
20178.25461
20178.23281
20178.18447
20178.09726
20177.98997
20177.91737
20177.93152
20178.04486
20178.1981
20178.30502
20178.35356
20178.37821
20178.40403
20178.43646
20178.46792
20178.49365
20178.51634
20178.53812
20178.55725
20178.57352
20178.58821
20178.60047
20178.61261
20178.61249
20178.60255
20178.56278
20178.51202
20178.42867
20178.2999
20178.21618
20178.1898
20178.17752
20178.16404
20178.15818
20178.17378
20178.22052
20178.30263
20178.42003
20178.56983
20178.74756
20178.94811
20179.16623
20179.39695
20179.63575
20179.87864
20180.12214
20180.36322
20180.59923
20180.82786
20181.04701
20181.25485
20181.44976
20181.63043
20181.7959
20181.94556
20182.07929
20182.19738
20182.30061
20182.39014
20182.46735
20182.5336
20182.59045
20182.63892
20182.68026
20182.7149
20182.74404
20182.76751
20182.78615
20182.80016
20182.80961
20182.81488
20182.81627
20182.81374
20182.80783
20182.79845
20182.78608
20182.7707
20182.75256
20182.73157
20182.70804
20182.68174
20182.65287
20182.62134
20182.58748
20182.55129
20182.51332
20182.47381
20182.43343
20182.39255
20182.35184
20182.31162
20182.27241
20182.23438
20182.19786
20182.16287
20182.12958
20182.09791
20182.06799
20182.03964
20182.013
20181.98784
20181.96429
20181.94206
20181.92124
20181.9015
20181.8829
20181.86504
20181.84798
20181.83132
20181.81511
20181.79904
20181.7832
20181.76735
20181.75151
20181.73511
20181.71659
20181.71659
20183.34135
20183.34135
20183.33345
20183.32391
20183.31604
20183.31121
20183.3102
20183.31356
20183.32132
20183.33278
20183.3466
20183.36135
20183.3759
20183.38958
20183.4019
20183.41239
20183.4208
20183.42726
20183.43257
20183.43651
20183.43291
20183.40558
20183.3324
20183.28454
20183.29247
20183.33737
20183.34826
20183.26277
20183.11631
20182.94938
20182.77285
20182.59059
20182.40412
20182.21396
20182.02013
20181.82235
20181.62002
20181.41231
20181.19798
20180.97538
20180.73411
20180.59391
20180.51972
20180.50188
20180.54922
20180.57789
20180.49932
20180.38121
20180.29025
20180.28387
20180.39012
20180.50683
20180.55107
20180.54347
20180.50541
20180.46412
20180.42234
20180.36956
20180.30192
20180.21818
20180.11729
20179.99801
20179.85994
20179.70385
20179.53325
20179.36045
20179.19309
20179.03263
20178.88949
20178.76339
20178.66116
20178.55276
20178.42884
20178.32585
20178.21484
20178.10042
20178.02648
20177.97819
20177.97313
20178.01048
20178.08164
20178.17116
20178.24166
20178.26488
20178.24455
20178.19403
20178.09838
20177.99172
20177.91795
20177.91694
20178.01041
20178.14951
20178.25364
20178.30945
20178.34635
20178.38491
20178.42912
20178.47063
20178.5015
20178.52403
20178.54279
20178.55887
20178.57357
20178.58836
20178.59984
20178.60182
20178.58727
20178.55338
20178.49384
20178.41936
20178.32501
20178.21073
20178.12789
20178.08786
20178.06829
20178.05848
20178.06277
20178.09039
20178.14854
20178.24057
20178.36623
20178.5228
20178.70602
20178.91096
20179.13257
20179.36604
20179.607
20179.8516
20180.09649
20180.33879
20180.57596
20180.80576
20181.02616
20181.23536
20181.43177
20181.61406
20181.78124
20181.9327
20182.06821
20182.18801
20182.29278
20182.3836
20182.46176
20182.52875
20182.58615
20182.6349
20182.67657
20182.71128
20182.74052
20182.76402
20182.78259
20182.79656
20182.80585
20182.81095
20182.81214
20182.80936
20182.80323
20182.79361
20182.78106
20182.76554
20182.74732
20182.7263
20182.70287
20182.67668
20182.64797
20182.61663
20182.58298
20182.54695
20182.50914
20182.46974
20182.42949
20182.38871
20182.34813
20182.30805
20182.26903
20182.2312
20182.19492
20182.16017
20182.12716
20182.09575
20182.06609
20182.038
20182.01162
20181.9867
20181.96338
20181.94138
20181.92077
20181.90123
20181.88282
20181.86516
20181.84831
20181.83189
20181.816
20181.80029
20181.78496
20181.76973
20181.75484
20181.73975
20181.72393
20181.72393
20183.32563
20183.32563
20183.32034
20183.3134
20183.30748
20183.304
20183.30378
20183.3073
20183.3146
20183.32513
20183.33795
20183.35197
20183.3663
20183.38034
20183.39359
20183.40556
20183.41581
20183.42415
20183.43065
20183.43435
20183.42933
20183.40363
20183.34152
20183.30591
20183.32036
20183.35687
20183.35876
20183.26576
20183.11951
20182.95333
20182.77713
20182.59494
20182.40854
20182.21857
20182.02507
20181.8277
20181.62573
20181.41798
20181.20248
20180.97608
20180.71935
20180.55576
20180.47751
20180.46118
20180.49949
20180.51342
20180.4363
20180.32643
20180.23972
20180.23791
20180.35783
20180.50149
20180.56455
20180.55822
20180.51547
20180.46823
20180.41997
20180.3625
20180.29161
20180.20525
20180.10195
20179.9808
20179.8413
20179.68486
20179.51493
20179.34226
20179.17491
20179.0148
20178.87377
20178.75344
20178.65098
20178.54365
20178.42594
20178.31742
20178.18766
20178.06557
20177.98178
20177.91981
20177.91245
20177.95686
20178.03618
20178.13686
20178.22977
20178.27013
20178.25404
20178.20367
20178.10883
20178.00697
20177.93373
20177.91571
20177.98352
20178.09865
20178.19249
20178.25446
20178.30716
20178.36271
20178.42114
20178.47347
20178.51003
20178.53273
20178.5483
20178.56087
20178.574
20178.58451
20178.58516
20178.56884
20178.53111
20178.47296
20178.39605
20178.30774
20178.20905
20178.10484
20178.02477
20177.97828
20177.95495
20177.94835
20177.96095
20177.99897
20178.06761
20178.16925
20178.30332
20178.46703
20178.6562
20178.86601
20179.09154
20179.32811
20179.57153
20179.81808
20180.0646
20180.30833
20180.54688
20180.77808
20181
20181.21084
20181.40902
20181.59321
20181.76241
20181.91596
20182.05363
20182.17557
20182.28235
20182.37492
20182.45449
20182.52259
20182.58076
20182.63
20182.67205
20182.70691
20182.73623
20182.75979
20182.7782
20182.7921
20182.80116
20182.80601
20182.80689
20182.80379
20182.79731
20182.78737
20182.77453
20182.75881
20182.74044
20182.71938
20182.69604
20182.67001
20182.64152
20182.61046
20182.57712
20182.54135
20182.5038
20182.46462
20182.42455
20182.38393
20182.34352
20182.30362
20182.26481
20182.22722
20182.19121
20182.15675
20182.12403
20182.09293
20182.06357
20182.03579
20182.0097
20181.9851
20181.96206
20181.94036
20181.92002
20181.90076
20181.8826
20181.8652
20181.84861
20181.8325
20181.81695
20181.8017
20181.78696
20181.77253
20181.75879
20181.74562
20181.73366
20181.73366
20183.31129
20183.31129
20183.3077
20183.30273
20183.29843
20183.29611
20183.29656
20183.30021
20183.30711
20183.31684
20183.3287
20183.34187
20183.35565
20183.36953
20183.3831
20183.39595
20183.40765
20183.41774
20183.4256
20183.42938
20183.42374
20183.40199
20183.35721
20183.33508
20183.35348
20183.39041
20183.3858
20183.27993
20183.1285
20182.96022
20182.78304
20182.60039
20182.41386
20182.22407
20182.031
20181.83422
20181.63287
20181.42549
20181.2095
20180.98093
20180.71191
20180.52704
20180.4439
20180.42867
20180.46175
20180.46757
20180.39289
20180.28959
20180.20834
20180.21115
20180.33745
20180.49301
20180.56651
20180.56233
20180.51789
20180.46541
20180.41059
20180.34766
20180.27229
20180.18226
20180.0762
20179.95351
20179.81382
20179.65863
20179.4913
20179.32031
20179.15392
20178.99524
20178.85639
20178.73952
20178.63658
20178.53225
20178.41946
20178.30337
20178.15662
20178.02739
20177.92337
20177.84919
20177.84442
20177.90044
20177.99449
20178.1058
20178.21656
20178.27708
20178.26849
20178.21902
20178.13209
20178.03121
20177.95369
20177.91806
20177.95739
20178.04249
20178.12206
20178.19094
20178.26294
20178.33876
20178.41287
20178.47539
20178.51743
20178.5409
20178.5537
20178.56243
20178.56933
20178.56784
20178.54926
20178.50948
20178.44945
20178.37321
20178.28461
20178.18878
20178.08865
20177.99043
20177.91242
20177.86262
20177.8373
20177.83345
20177.85293
20177.90005
20177.97841
20178.08942
20178.23202
20178.4032
20178.59874
20178.81382
20179.04363
20179.28361
20179.52972
20179.77842
20180.02672
20180.27204
20180.51216
20180.74502
20180.96875
20181.18156
20181.38184
20181.56821
20181.73965
20181.8955
20182.03551
20182.15984
20182.26897
20182.36374
20182.44519
20182.51486
20182.57414
20182.6242
20182.66676
20182.70192
20182.73135
20182.75499
20182.77321
20182.78698
20182.79574
20182.80025
20182.80069
20182.79719
20182.79022
20182.77984
20182.76659
20182.75059
20182.73194
20182.71083
20182.68754
20182.6617
20182.63347
20182.60282
20182.56988
20182.53451
20182.49732
20182.45847
20182.41866
20182.37829
20182.33811
20182.29844
20182.25987
20182.22257
20182.18685
20182.15273
20182.12032
20182.08958
20182.06053
20182.03311
20182.00732
20181.98308
20181.96035
20181.93901
20181.91897
20181.90006
20181.88217
20181.86511
20181.8488
20181.83304
20181.81786
20181.80312
20181.78896
20181.7754
20181.76284
20181.75168
20181.7434
20181.7434
20183.29789
20183.29789
20183.29545
20183.29196
20183.28898
20183.28764
20183.28866
20183.29244
20183.29901
20183.30809
20183.31912
20183.33146
20183.34457
20183.35802
20183.37148
20183.38464
20183.39712
20183.4084
20183.41745
20183.42203
20183.4168
20183.40075
20183.3735
20183.36492
20183.38784
20183.42792
20183.41976
20183.30181
20183.14225
20182.96972
20182.79046
20182.60684
20182.42002
20182.2304
20182.03787
20181.84189
20181.64151
20181.43504
20181.21951
20180.991
20180.71404
20180.51084
20180.42131
20180.40645
20180.43761
20180.44141
20180.37208
20180.27682
20180.20223
20180.20818
20180.33158
20180.48249
20180.55713
20180.55401
20180.50973
20180.45349
20180.39258
20180.32292
20180.24165
20180.14674
20180.03755
20179.9136
20179.77496
20179.62265
20179.45976
20179.29241
20179.12848
20178.97222
20178.83517
20178.71994
20178.61751
20178.51719
20178.40707
20178.28123
20178.12369
20177.98432
20177.8551
20177.77535
20177.7776