# vtk DataFile Version 2.0
FlowField
ASCII
DATASET STRUCTURED_GRID
DIMENSIONS 200 1 200
POINTS 40000 float
0 0 0
0.15 0 0
0.3 0 0
0.45 0 0
0.6 0 0
0.75 0 0
0.9 0 0
1.05 0 0
1.2 0 0
1.35 0 0
1.5 0 0
1.65 0 0
1.8 0 0
1.95 0 0
2.1 0 0
2.25 0 0
2.4 0 0
2.55 0 0
2.7 0 0
2.85 0 0
3 0 0
3.15 0 0
3.3 0 0
3.45 0 0
3.6 0 0
3.75 0 0
3.9 0 0
4.05 0 0
4.2 0 0
4.35 0 0
4.5 0 0
4.65 0 0
4.8 0 0
4.95 0 0
5.1 0 0
5.25 0 0
5.4 0 0
5.55 0 0
5.7 0 0
5.85 0 0
6 0 0
6.15 0 0
6.3 0 0
6.45 0 0
6.6 0 0
6.75 0 0
6.9 0 0
7.05 0 0
7.2 0 0
7.35 0 0
7.5 0 0
7.65 0 0
7.8 0 0
7.95 0 0
8.1 0 0
8.25 0 0
8.4 0 0
8.55 0 0
8.7 0 0
8.85 0 0
9 0 0
9.15 0 0
9.3 0 0
9.45 0 0
9.6 0 0
9.75 0 0
9.9 0 0
10.05 0 0
10.2 0 0
10.35 0 0
10.5 0 0
10.65 0 0
10.8 0 0
10.95 0 0
11.1 0 0
11.25 0 0
11.4 0 0
11.55 0 0
11.7 0 0
11.85 0 0
12 0 0
12.15 0 0
12.3 0 0
12.45 0 0
12.6 0 0
12.75 0 0
12.9 0 0
13.05 0 0
13.2 0 0
13.35 0 0
13.5 0 0
13.65 0 0
13.8 0 0
13.95 0 0
14.1 0 0
14.25 0 0
14.4 0 0
14.55 0 0
14.7 0 0
14.85 0 0
15 0 0
15.15 0 0
15.3 0 0
15.45 0 0
15.6 0 0
15.75 0 0
15.9 0 0
16.05 0 0
16.2 0 0
16.35 0 0
16.5 0 0
16.65 0 0
16.8 0 0
16.95 0 0
17.1 0 0
17.25 0 0
17.4 0 0
17.55 0 0
17.7 0 0
17.85 0 0
18 0 0
18.15 0 0
18.3 0 0
18.45 0 0
18.6 0 0
18.75 0 0
18.9 0 0
19.05 0 0
19.2 0 0
19.35 0 0
19.5 0 0
19.65 0 0
19.8 0 0
19.95 0 0
20.1 0 0
20.25 0 0
20.4 0 0
20.55 0 0
20.7 0 0
20.85 0 0
21 0 0
21.15 0 0
21.3 0 0
21.45 0 0
21.6 0 0
21.75 0 0
21.9 0 0
22.05 0 0
22.2 0 0
22.35 0 0
22.5 0 0
22.65 0 0
22.8 0 0
22.95 0 0
23.1 0 0
23.25 0 0
23.4 0 0
23.55 0 0
23.7 0 0
23.85 0 0
24 0 0
24.15 0 0
24.3 0 0
24.45 0 0
24.6 0 0
24.75 0 0
24.9 0 0
25.05 0 0
25.2 0 0
25.35 0 0
25.5 0 0
25.65 0 0
25.8 0 0
25.95 0 0
26.1 0 0
26.25 0 0
26.4 0 0
26.55 0 0
26.7 0 0
26.85 0 0
27 0 0
27.15 0 0
27.3 0 0
27.45 0 0
27.6 0 0
27.75 0 0
27.9 0 0
28.05 0 0
28.2 0 0
28.35 0 0
28.5 0 0
28.65 0 0
28.8 0 0
28.95 0 0
29.1 0 0
29.25 0 0
29.4 0 0
29.55 0 0
29.7 0 0
29.85 0 0
0 0.075 0
0.15 0.075 0
0.3 0.075 0
0.45 0.075 0
0.6 0.075 0
0.75 0.075 0
0.9 0.075 0
1.05 0.075 0
1.2 0.075 0
1.35 0.075 0
1.5 0.075 0
1.65 0.075 0
1.8 0.075 0
1.95 0.075 0
2.1 0.075 0
2.25 0.075 0
2.4 0.075 0
2.55 0.075 0
2.7 0.075 0
2.85 0.075 0
3 0.075 0
3.15 0.075 0
3.3 0.075 0
3.45 0.075 0
3.6 0.075 0
3.75 0.075 0
3.9 0.075 0
4.05 0.075 0
4.2 0.075 0
4.35 0.075 0
4.5 0.075 0
4.65 0.075 0
4.8 0.075 0
4.95 0.075 0
5.1 0.075 0
5.25 0.075 0
5.4 0.075 0
5.55 0.075 0
5.7 0.075 0
5.85 0.075 0
6 0.075 0
6.15 0.075 0
6.3 0.075 0
6.45 0.075 0
6.6 0.075 0
6.75 0.075 0
6.9 0.075 0
7.05 0.075 0
7.2 0.075 0
7.35 0.075 0
7.5 0.075 0
7.65 0.075 0
7.8 0.075 0
7.95 0.075 0
8.1 0.075 0
8.25 0.075 0
8.4 0.075 0
8.55 0.075 0
8.7 0.075 0
8.85 0.075 0
9 0.075 0
9.15 0.075 0
9.3 0.075 0
9.45 0.075 0
9.6 0.075 0
9.75 0.075 0
9.9 0.075 0
10.05 0.075 0
10.2 0.075 0
10.35 0.075 0
10.5 0.075 0
10.65 0.075 0
10.8 0.075 0
10.95 0.075 0
11.1 0.075 0
11.25 0.075 0
11.4 0.075 0
11.55 0.075 0
11.7 0.075 0
11.85 0.075 0
12 0.075 0
12.15 0.075 0
12.3 0.075 0
12.45 0.075 0
12.6 0.075 0
12.75 0.075 0
12.9 0.075 0
13.05 0.075 0
13.2 0.075 0
13.35 0.075 0
13.5 0.075 0
13.65 0.075 0
13.8 0.075 0
13.95 0.075 0
14.1 0.075 0
14.25 0.075 0
14.4 0.075 0
14.55 0.075 0
14.7 0.075 0
14.85 0.075 0
15 0.075 0
15.15 0.075 0
15.3 0.075 0
15.45 0.075 0
15.6 0.075 0
15.75 0.075 0
15.9 0.075 0
16.05 0.075 0
16.2 0.075 0
16.35 0.075 0
16.5 0.075 0
16.65 0.075 0
16.8 0.075 0
16.95 0.075 0
17.1 0.075 0
17.25 0.075 0
17.4 0.075 0
17.55 0.075 0
17.7 0.075 0
17.85 0.075 0
18 0.075 0
18.15 0.075 0
18.3 0.075 0
18.45 0.075 0
18.6 0.075 0
18.75 0.075 0
18.9 0.075 0
19.05 0.075 0
19.2 0.075 0
19.35 0.075 0
19.5 0.075 0
19.65 0.075 0
19.8 0.075 0
19.95 0.075 0
20.1 0.075 0
20.25 0.075 0
20.4 0.075 0
20.55 0.075 0
20.7 0.075 0
20.85 0.075 0
21 0.075 0
21.15 0.075 0
21.3 0.075 0
21.45 0.075 0
21.6 0.075 0
21.75 0.075 0
21.9 0.075 0
22.05 0.075 0
22.2 0.075 0
22.35 0.075 0
22.5 0.075 0
22.65 0.075 0
22.8 0.075 0
22.95 0.075 0
23.1 0.075 0
23.25 0.075 0
23.4 0.075 0
23.55 0.075 0
23.7 0.075 0
23.85 0.075 0
24 0.075 0
24.15 0.075 0
24.3 0.075 0
24.45 0.075 0
24.6 0.075 0
24.75 0.075 0
24.9 0.075 0
25.05 0.075 0
25.2 0.075 0
25.35 0.075 0
25.5 0.075 0
25.65 0.075 0
25.8 0.075 0
25.95 0.075 0
26.1 0.075 0
26.25 0.075 0
26.4 0.075 0
26.55 0.075 0
26.7 0.075 0
26.85 0.075 0
27 0.075 0
27.15 0.075 0
27.3 0.075 0
27.45 0.075 0
27.6 0.075 0
27.75 0.075 0
27.9 0.075 0
28.05 0.075 0
28.2 0.075 0
28.35 0.075 0
28.5 0.075 0
28.65 0.075 0
28.8 0.075 0
28.95 0.075 0
29.1 0.075 0
29.25 0.075 0
29.4 0.075 0
29.55 0.075 0
29.7 0.075 0
29.85 0.075 0
0 0.15 0
0.15 0.15 0
0.3 0.15 0
0.45 0.15 0
0.6 0.15 0
0.75 0.15 0
0.9 0.15 0
1.05 0.15 0
1.2 0.15 0
1.35 0.15 0
1.5 0.15 0
1.65 0.15 0
1.8 0.15 0
1.95 0.15 0
2.1 0.15 0
2.25 0.15 0
2.4 0.15 0
2.55 0.15 0
2.7 0.15 0
2.85 0.15 0
3 0.15 0
3.15 0.15 0
3.3 0.15 0
3.45 0.15 0
3.6 0.15 0
3.75 0.15 0
3.9 0.15 0
4.05 0.15 0
4.2 0.15 0
4.35 0.15 0
4.5 0.15 0
4.65 0.15 0
4.8 0.15 0
4.95 0.15 0
5.1 0.15 0
5.25 0.15 0
5.4 0.15 0
5.55 0.15 0
5.7 0.15 0
5.85 0.15 0
6 0.15 0
6.15 0.15 0
6.3 0.15 0
6.45 0.15 0
6.6 0.15 0
6.75 0.15 0
6.9 0.15 0
7.05 0.15 0
7.2 0.15 0
7.35 0.15 0
7.5 0.15 0
7.65 0.15 0
7.8 0.15 0
7.95 0.15 0
8.1 0.15 0
8.25 0.15 0
8.4 0.15 0
8.55 0.15 0
8.7 0.15 0
8.85 0.15 0
9 0.15 0
9.15 0.15 0
9.3 0.15 0
9.45 0.15 0
9.6 0.15 0
9.75 0.15 0
9.9 0.15 0
10.05 0.15 0
10.2 0.15 0
10.35 0.15 0
10.5 0.15 0
10.65 0.15 0
10.8 0.15 0
10.95 0.15 0
11.1 0.15 0
11.25 0.15 0
11.4 0.15 0
11.55 0.15 0
11.7 0.15 0
11.85 0.15 0
12 0.15 0
12.15 0.15 0
12.3 0.15 0
12.45 0.15 0
12.6 0.15 0
12.75 0.15 0
12.9 0.15 0
13.05 0.15 0
13.2 0.15 0
13.35 0.15 0
13.5 0.15 0
13.65 0.15 0
13.8 0.15 0
13.95 0.15 0
14.1 0.15 0
14.25 0.15 0
14.4 0.15 0
14.55 0.15 0
14.7 0.15 0
14.85 0.15 0
15 0.15 0
15.15 0.15 0
15.3 0.15 0
15.45 0.15 0
15.6 0.15 0
15.75 0.15 0
15.9 0.15 0
16.05 0.15 0
16.2 0.15 0
16.35 0.15 0
16.5 0.15 0
16.65 0.15 0
16.8 0.15 0
16.95 0.15 0
17.1 0.15 0
17.25 0.15 0
17.4 0.15 0
17.55 0.15 0
17.7 0.15 0
17.85 0.15 0
18 0.15 0
18.15 0.15 0
18.3 0.15 0
18.45 0.15 0
18.6 0.15 0
18.75 0.15 0
18.9 0.15 0
19.05 0.15 0
19.2 0.15 0
19.35 0.15 0
19.5 0.15 0
19.65 0.15 0
19.8 0.15 0
19.95 0.15 0
20.1 0.15 0
20.25 0.15 0
20.4 0.15 0
20.55 0.15 0
20.7 0.15 0
20.85 0.15 0
21 0.15 0
21.15 0.15 0
21.3 0.15 0
21.45 0.15 0
21.6 0.15 0
21.75 0.15 0
21.9 0.15 0
22.05 0.15 0
22.2 0.15 0
22.35 0.15 0
22.5 0.15 0
22.65 0.15 0
22.8 0.15 0
22.95 0.15 0
23.1 0.15 0
23.25 0.15 0
23.4 0.15 0
23.55 0.15 0
23.7 0.15 0
23.85 0.15 0
24 0.15 0
24.15 0.15 0
24.3 0.15 0
24.45 0.15 0
24.6 0.15 0
24.75 0.15 0
24.9 0.15 0
25.05 0.15 0
25.2 0.15 0
25.35 0.15 0
25.5 0.15 0
25.65 0.15 0
25.8 0.15 0
25.95 0.15 0
26.1 0.15 0
26.25 0.15 0
26.4 0.15 0
26.55 0.15 0
26.7 0.15 0
26.85 0.15 0
27 0.15 0
27.15 0.15 0
27.3 0.15 0
27.45 0.15 0
27.6 0.15 0
27.75 0.15 0
27.9 0.15 0
28.05 0.15 0
28.2 0.15 0
28.35 0.15 0
28.5 0.15 0
28.65 0.15 0
28.8 0.15 0
28.95 0.15 0
29.1 0.15 0
29.25 0.15 0
29.4 0.15 0
29.55 0.15 0
29.7 0.15 0
29.85 0.15 0
0 0.225 0
0.15 0.225 0
0.3 0.225 0
0.45 0.225 0
0.6 0.225 0
0.75 0.225 0
0.9 0.225 0
1.05 0.225 0
1.2 0.225 0
1.35 0.225 0
1.5 0.225 0
1.65 0.225 0
1.8 0.225 0
1.95 0.225 0
2.1 0.225 0
2.25 0.225 0
2.4 0.225 0
2.55 0.225 0
2.7 0.225 0
2.85 0.225 0
3 0.225 0
3.15 0.225 0
3.3 0.225 0
3.45 0.225 0
3.6 0.225 0
3.75 0.225 0
3.9 0.225 0
4.05 0.225 0
4.2 0.225 0
4.35 0.225 0
4.5 0.225 0
4.65 0.225 0
4.8 0.225 0
4.95 0.225 0
5.1 0.225 0
5.25 0.225 0
5.4 0.225 0
5.55 0.225 0
5.7 0.225 0
5.85 0.225 0
6 0.225 0
6.15 0.225 0
6.3 0.225 0
6.45 0.225 0
6.6 0.225 0
6.75 0.225 0
6.9 0.225 0
7.05 0.225 0
7.2 0.225 0
7.35 0.225 0
7.5 0.225 0
7.65 0.225 0
7.8 0.225 0
7.95 0.225 0
8.1 0.225 0
8.25 0.225 0
8.4 0.225 0
8.55 0.225 0
8.7 0.225 0
8.85 0.225 0
9 0.225 0
9.15 0.225 0
9.3 0.225 0
9.45 0.225 0
9.6 0.225 0
9.75 0.225 0
9.9 0.225 0
10.05 0.225 0
10.2 0.225 0
10.35 0.225 0
10.5 0.225 0
10.65 0.225 0
10.8 0.225 0
10.95 0.225 0
11.1 0.225 0
11.25 0.225 0
11.4 0.225 0
11.55 0.225 0
11.7 0.225 0
11.85 0.225 0
12 0.225 0
12.15 0.225 0
12.3 0.225 0
12.45 0.225 0
12.6 0.225 0
12.75 0.225 0
12.9 0.225 0
13.05 0.225 0
13.2 0.225 0
13.35 0.225 0
13.5 0.225 0
13.65 0.225 0
13.8 0.225 0
13.95 0.225 0
14.1 0.225 0
14.25 0.225 0
14.4 0.225 0
14.55 0.225 0
14.7 0.225 0
14.85 0.225 0
15 0.225 0
15.15 0.225 0
15.3 0.225 0
15.45 0.225 0
15.6 0.225 0
15.75 0.225 0
15.9 0.225 0
16.05 0.225 0
16.2 0.225 0
16.35 0.225 0
16.5 0.225 0
16.65 0.225 0
16.8 0.225 0
16.95 0.225 0
17.1 0.225 0
17.25 0.225 0
17.4 0.225 0
17.55 0.225 0
17.7 0.225 0
17.85 0.225 0
18 0.225 0
18.15 0.225 0
18.3 0.225 0
18.45 0.225 0
18.6 0.225 0
18.75 0.225 0
18.9 0.225 0
19.05 0.225 0
19.2 0.225 0
19.35 0.225 0
19.5 0.225 0
19.65 0.225 0
19.8 0.225 0
19.95 0.225 0
20.1 0.225 0
20.25 0.225 0
20.4 0.225 0
20.55 0.225 0
20.7 0.225 0
20.85 0.225 0
21 0.225 0
21.15 0.225 0
21.3 0.225 0
21.45 0.225 0
21.6 0.225 0
21.75 0.225 0
21.9 0.225 0
22.05 0.225 0
22.2 0.225 0
22.35 0.225 0
22.5 0.225 0
22.65 0.225 0
22.8 0.225 0
22.95 0.225 0
23.1 0.225 0
23.25 0.225 0
23.4 0.225 0
23.55 0.225 0
23.7 0.225 0
23.85 0.225 0
24 0.225 0
24.15 0.225 0
24.3 0.225 0
24.45 0.225 0
24.6 0.225 0
24.75 0.225 0
24.9 0.225 0
25.05 0.225 0
25.2 0.225 0
25.35 0.225 0
25.5 0.225 0
25.65 0.225 0
25.8 0.225 0
25.95 0.225 0
26.1 0.225 0
26.25 0.225 0
26.4 0.225 0
26.55 0.225 0
26.7 0.225 0
26.85 0.225 0
27 0.225 0
27.15 0.225 0
27.3 0.225 0
27.45 0.225 0
27.6 0.225 0
27.75 0.225 0
27.9 0.225 0
28.05 0.225 0
28.2 0.225 0
28.35 0.225 0
28.5 0.225 0
28.65 0.225 0
28.8 0.225 0
28.95 0.225 0
29.1 0.225 0
29.25 0.225 0
29.4 0.225 0
29.55 0.225 0
29.7 0.225 0
29.85 0.225 0
0 0.3 0
0.15 0.3 0
0.3 0.3 0
0.45 0.3 0
0.6 0.3 0
0.75 0.3 0
0.9 0.3 0
1.05 0.3 0
1.2 0.3 0
1.35 0.3 0
1.5 0.3 0
1.65 0.3 0
1.8 0.3 0
1.95 0.3 0
2.1 0.3 0
2.25 0.3 0
2.4 0.3 0
2.55 0.3 0
2.7 0.3 0
2.85 0.3 0
3 0.3 0
3.15 0.3 0
3.3 0.3 0
3.45 0.3 0
3.6 0.3 0
3.75 0.3 0
3.9 0.3 0
4.05 0.3 0
4.2 0.3 0
4.35 0.3 0
4.5 0.3 0
4.65 0.3 0
4.8 0.3 0
4.95 0.3 0
5.1 0.3 0
5.25 0.3 0
5.4 0.3 0
5.55 0.3 0
5.7 0.3 0
5.85 0.3 0
6 0.3 0
6.15 0.3 0
[...]
POINT_DATA 40000

SCALARS p float 1
LOOKUP_TABLE default
20183.43992
20183.43992
20183.3849
20183.35787
20183.34042
20183.32851
20183.32233
20183.32326
20183.33148
20183.345
20183.3606
20183.37553
20183.38852
20183.3996
20183.40915
20183.41714
20183.42355
20183.42868
20183.43274
20183.43437
20183.4305
20183.41984
20183.39317
20183.35175
20183.42111
20183.79076
20183.68689
20183.36258
20183.14485
20182.95408
20182.7691
20182.58354
20182.39531
20182.20365
20182.00814
20181.80841
20181.60414
20181.39513
20181.1817
20180.9652
20180.74781
20180.62495
20180.63429
20180.65603
20180.7722
20180.8732
20180.75184
20180.57597
20180.48615
20180.47862
20180.48573
20180.49463
20180.50109
20180.50072
20180.47689
20180.44366
20180.40598
20180.35795
20180.29596
20180.22499
20180.14304
20180.04713
20179.93532
20179.80474
20179.65584
20179.49745
20179.33813
20179.18492
20179.0428
20178.91434
20178.80265
20178.69906
20178.59343
20178.49763
20178.40396
20178.31985
20178.26032
20178.22966
20178.23714
20178.24697
20178.26889
20178.31737
20178.33832
20178.3421
20178.32058
20178.28342
20178.23919
20178.19314
20178.1818
20178.2744
20178.44306
20178.56368
20178.5892
20178.56536
20178.54095
20178.53108
20178.53341
20178.5431
20178.55817
20178.57733
20178.59704
20178.61395
20178.62746
20178.63807
20178.64489
20178.64762
20178.64509
20178.62434
20178.60893
20178.57512
20178.44131
20178.31841
20178.2994
20178.32235
20178.31992
20178.28859
20178.25557
20178.24559
20178.27262
20178.34171
20178.45228
20178.60065
20178.78158
20178.98923
20179.21768
20179.46119
20179.71442
20179.97243
20180.23076
20180.4854
20180.73283
20180.96996
20181.1942
20181.40344
20181.59608
20181.77103
20181.92773
20182.06613
20182.18676
20182.2907
20182.37944
20182.4546
20182.51824
20182.57213
20182.61765
20182.65645
20182.68916
20182.71689
20182.74001
20182.75894
20182.77404
20182.78541
20182.79317
20182.79739
20182.79806
20182.79509
20182.78844
20182.77796
20182.76359
20182.74521
20182.72283
20182.69651
20182.66647
20182.633
20182.59658
20182.55774
20182.51708
20182.47525
20182.43285
20182.39044
20182.34848
20182.30734
20182.2673
20182.22855
20182.19124
20182.15545
20182.12125
20182.08866
20182.05769
20182.0283
20182.00044
20181.97401
20181.94886
20181.92482
20181.90172
20181.87934
20181.85749
20181.83595
20181.81452
20181.79303
20181.77137
20181.74942
20181.72717
20181.70455
20181.68145
20181.65789
20181.63348
20181.60856
20181.5821
20181.5821
20183.43992
20183.43992
20183.3849
20183.35787
20183.34042
20183.32851
20183.32233
20183.32326
20183.33148
20183.345
20183.3606
20183.37553
20183.38852
20183.3996
20183.40915
20183.41714
20183.42355
20183.42868
20183.43274
20183.43437
20183.4305
20183.41984
20183.39317
20183.35175
20183.42111
20183.79076
20183.68689
20183.36258
20183.14485
20182.95408
20182.7691
20182.58354
20182.39531
20182.20365
20182.00814
20181.80841
20181.60414
20181.39513
20181.1817
20180.9652
20180.74781
20180.62495
20180.63429
20180.65603
20180.7722
20180.8732
20180.75184
20180.57597
20180.48615
20180.47862
20180.48573
20180.49463
20180.50109
20180.50072
20180.47689
20180.44366
20180.40598
20180.35795
20180.29596
20180.22499
20180.14304
20180.04713
20179.93532
20179.80474
20179.65584
20179.49745
20179.33813
20179.18492
20179.0428
20178.91434
20178.80265
20178.69906
20178.59343
20178.49763
20178.40396
20178.31985
20178.26032
20178.22966
20178.23714
20178.24697
20178.26889
20178.31737
20178.33832
20178.3421
20178.32058
20178.28342
20178.23919
20178.19314
20178.1818
20178.2744
20178.44306
20178.56368
20178.5892
20178.56536
20178.54095
20178.53108
20178.53341
20178.5431
20178.55817
20178.57733
20178.59704
20178.61395
20178.62746
20178.63807
20178.64489
20178.64762
20178.64509
20178.62434
20178.60893
20178.57512
20178.44131
20178.31841
20178.2994
20178.32235
20178.31992
20178.28859
20178.25557
20178.24559
20178.27262
20178.34171
20178.45228
20178.60065
20178.78158
20178.98923
20179.21768
20179.46119
20179.71442
20179.97243
20180.23076
20180.4854
20180.73283
20180.96996
20181.1942
20181.40344
20181.59608
20181.77103
20181.92773
20182.06613
20182.18676
20182.2907
20182.37944
20182.4546
20182.51824
20182.57213
20182.61765
20182.65645
20182.68916
20182.71689
20182.74001
20182.75894
20182.77404
20182.78541
20182.79317
20182.79739
20182.79806
20182.79509
20182.78844
20182.77796
20182.76359
20182.74521
20182.72283
20182.69651
20182.66647
20182.633
20182.59658
20182.55774
20182.51708
20182.47525
20182.43285
20182.39044
20182.34848
20182.30734
20182.2673
20182.22855
20182.19124
20182.15545
20182.12125
20182.08866
20182.05769
20182.0283
20182.00044
20181.97401
20181.94886
20181.92482
20181.90172
20181.87934
20181.85749
20181.83595
20181.81452
20181.79303
20181.77137
20181.74942
20181.72717
20181.70455
20181.68145
20181.65789
20181.63348
20181.60856
20181.5821
20181.5821
20183.40719
20183.40719
20183.37568
20183.35323
20183.33779
20183.32749
20183.32263
20183.32436
20183.33285
20183.34631
20183.36174
20183.37653
20183.38941
20183.40043
20183.40989
20183.41775
20183.424
20183.42896
20183.43298
20183.43516
20183.4329
20183.42005
20183.37663
20183.31581
20183.3401
20183.60662
20183.56769
20183.33667
20183.13835
20182.95269
20182.76925
20182.58419
20182.39615
20182.20459
20182.00917
20181.80953
20181.6053
20181.39621
20181.18245
20180.96545
20180.75024
20180.65036
20180.62432
20180.6287
20180.72637
20180.8077
20180.70277
20180.53396
20180.44683
20180.44966
20180.48149
20180.49756
20180.50104
20180.49976
20180.47626
20180.444
20180.4077
20180.36106
20180.29981
20180.22767
20180.14403
20180.0463
20179.93247
20179.79956
20179.64881
20179.48955
20179.33029
20179.17717
20179.03484
20178.90906
20178.80192
20178.69519
20178.59103
20178.4995
20178.40102
20178.30956
20178.24283
20178.2052
20178.21029
20178.2304
20178.27097
20178.32192
20178.34065
20178.3438
20178.32451
20178.2886
20178.23583
20178.17205
20178.14829
20178.23654
20178.40875
20178.54028
20178.57447
20178.55609
20178.53513
20178.52884
20178.53352
20178.5436
20178.55823
20178.57709
20178.59675
20178.61362
20178.62709
20178.63781
20178.64496
20178.64744
20178.64704
20178.62371
20178.60553
20178.58373
20178.45818
20178.32645
20178.28854
20178.29496
20178.2852
20178.25418
20178.22506
20178.21983
20178.2512
20178.32384
20178.43718
20178.58766
20178.77018
20178.97903
20179.20838
20179.45257
20179.70632
20179.96477
20180.22347
20180.47848
20180.72627
20180.96379
20181.18843
20181.3981
20181.59119
20181.76662
20181.9238
20182.06269
20182.1838
20182.28817
20182.37725
20182.45271
20182.51659
20182.57063
20182.61631
20182.65518
20182.68798
20182.71573
20182.73889
20182.75779
20182.7729
20182.78424
20182.79198
20182.7962
20182.79688
20182.79392
20182.78733
20182.77691
20182.76263
20182.74434
20182.72207
20182.69586
20182.66592
20182.63253
20182.59618
20182.55739
20182.51679
20182.47499
20182.43264
20182.39026
20182.34834
20182.30724
20182.26724
20182.22853
20182.19125
20182.15549
20182.12131
20182.08874
20182.05778
20182.02842
20182.00058
20181.97416
20181.94904
20181.92503
20181.90196
20181.87962
20181.85781
20181.83629
20181.8149
20181.79342
20181.77178
20181.74982
20181.72759
20181.70495
20181.68187
20181.6583
20181.63388
20181.60886
20181.58189
20181.58189
20183.38128
20183.38128
20183.36218
20183.34493
20183.33224
20183.32402
20183.32075
20183.3233
20183.3318
20183.34488
20183.36013
20183.37521
20183.38874
20183.40043
20183.41031
20183.4183
20183.42456
20183.42946
20183.4337
20183.43681
20183.43536
20183.41657
20183.35285
20183.28368
20183.28406
20183.43444
20183.44283
20183.30255
20183.12898
20182.95084
20182.76984
20182.5856
20182.39788
20182.20651
20182.01125
20181.81179
20181.60766
20181.39845
20181.18399
20180.96526
20180.74634
20180.64414
20180.59222
20180.58274
20180.65995
20180.71783
20180.6192
20180.4613
20180.37568
20180.38957
20180.46065
20180.4996
20180.5068
20180.50274
20180.47663
20180.44545
20180.41036
20180.3629
20180.30077
20180.22697
20180.14142
20180.0416
20179.92516
20179.78916
20179.63568
20179.47505
20179.31585
20179.16297
20179.02053
20178.89926
20178.79995
20178.6871
20178.58547
20178.50316
20178.39533
20178.29048
20178.20894
20178.15566
20178.15177
20178.18273
20178.24598
20178.31441
20178.34543
20178.35199
20178.33498
20178.29607
20178.22492
20178.1358
20178.09553
20178.17686
20178.35171
20178.49631
20178.54256
20178.53215
20178.51797
20178.51945
20178.53098
20178.54464
20178.55998
20178.57833
20178.59726
20178.61361
20178.62707
20178.63808
20178.64608
20178.6469
20178.64874
20178.63095
20178.59714
20178.55591
20178.43825
20178.30928
20178.24804
20178.22737
20178.20567
20178.17712
20178.15731
20178.16276
20178.20375
20178.28427
20178.4038
20178.55907
20178.74527
20178.95694
20179.18846
20179.43434
20179.68944
20179.949
20180.20871
20180.46465
20180.71335
20180.95179
20181.17738
20181.38801
20181.58209
20181.75852
20181.91671
20182.0566
20182.17865
20182.28382
20182.37355
20182.44953
20182.51381
20182.56809
20182.61401
20182.65301
20182.68595
20182.71376
20182.73698
20182.75588
20182.771
20182.7823
20182.79001
20182.7942
20182.79487
20182.7919
20182.78536
20182.77498
20182.76079
20182.74258
20182.72041
20182.69427
20182.66441
20182.63107
20182.59477
20182.556
20182.51542
20182.47365
20182.43134
20182.38901
20182.34716
20182.30613
20182.26623
20182.22761
20182.19044
20182.15477
20182.1207
20182.08821
20182.05735
20182.02806
20182.0003
20181.97396
20181.94892
20181.92498
20181.90201
20181.87973
20181.85803
20181.83658
20181.81531
20181.79389
20181.77238
20181.75048
20181.72838
20181.70582
20181.68289
20181.65941
20181.63517
20181.61005
20181.58215
20181.58215
20183.36032
20183.36032
20183.34823
20183.33529
20183.32516
20183.31876
20183.31678
20183.31987
20183.3281
20183.34047
20183.3552
20183.37037
20183.38467
20183.39751
20183.40858
20183.4176
20183.42458
20183.42989
20183.43455
20183.43843
20183.43646
20183.41159
20183.33704
20183.27702
20183.27915
20183.35599
20183.37243
20183.27673
20183.12135
20182.94992
20182.7713
20182.5879
20182.40052
20182.20939
20182.0144
20181.81521
20181.6113
20181.40199
20181.18656
20180.96472
20180.73406
20180.61401
20180.5483
20180.53515
20180.59409
20180.62583
20180.52661
20180.38544
20180.30147
20180.32033
20180.42682
20180.50224
20180.52223
20180.51349
20180.48128
20180.4479
20180.41009
20180.35929
20180.295
20180.21951
20180.13215
20180.03027
20179.91122
20179.77255
20179.61681
20179.45525
20179.29672
20179.14435
20179.00411
20178.88901
20178.79487
20178.67898
20178.58194
20178.50294
20178.38503
20178.26699
20178.17231
20178.09989
20178.08382
20178.11653
20178.19108
20178.28398
20178.34288
20178.36183
20178.34772
20178.3034
20178.21436
20178.11074
20178.05814
20178.12465
20178.29078
20178.43874
20178.49526
20178.49545
20178.49176
20178.50421
20178.52654
20178.5473
20178.56463
20178.58186
20178.59881
20178.61391
20178.62744
20178.63845
20178.64733
20178.64887
20178.63911
20178.60978
20178.5576
20178.48852
20178.37166
20178.24891
20178.17317
20178.13332
20178.10434
20178.0808
20178.07206
20178.08975
20178.14181
20178.23152
20178.3584
20178.51944
20178.71015
20178.92532
20179.15955
20179.40757
20179.6644
20179.92543
20180.18646
20180.44367
20180.69365
20180.93339
20181.16033
20181.37236
20181.56788
20181.74579
20181.90549
20182.04688
20182.17036
20182.2768
20182.36757
20182.4444
20182.50928
20182.56398
20182.61027
20182.64945
20182.68262
20182.71049
20182.73382
20182.75269
20182.76781
20182.77903
20182.78667
20182.7908
20182.79142
20182.78842
20182.78192
20182.77158
20182.75751
20182.73939
20182.71736
20182.69133
20182.66159
20182.62829
20182.59207
20182.55331
20182.51278
20182.47102
20182.42877
20182.3865
20182.34477
20182.30385
20182.26411
20182.22565
20182.18866
20182.15318
20182.11929
20182.08698
20182.0563
20182.02716
20181.99957
20181.97336
20181.94846
20181.92464
20181.90181
20181.87964
20181.85809
20181.83677
20181.81569
20181.79442
20181.77315
20181.75144
20181.72962
20181.70728
20181.68471
20181.66153
20181.6378
20181.61297
20181.58519
20181.58519
20183.34254
20183.34254
20183.33464
20183.32509
20183.31722
20183.31239
20183.31138
20183.31475
20183.32252
20183.33399
20183.34784
20183.36263
20183.37726
20183.39103
20183.40346
20183.41408
20183.42264
20183.42925
20183.43466
20183.43867
20183.43515
20183.40791
20183.3344
20183.28646
20183.29519
20183.34061
20183.3514
20183.26551
20183.11856
20182.95112
20182.77406
20182.59123
20182.40412
20182.21325
20182.0186
20181.81982
20181.61628
20181.40701
20181.19063
20180.96525
20180.71964
20180.57639
20180.50359
20180.49002
20180.5349
20180.54494
20180.44591
20180.31907
20180.23653
20180.25841
20180.39032
20180.50324
20180.54144
20180.52935
20180.48924
20180.44867
20180.40365
20180.34794
20180.28114
20180.20377
20180.11453
20180.01076
20179.88967
20179.74956
20179.59306
20179.43166
20179.27461
20179.12385
20178.9883
20178.87954
20178.78692
20178.67594
20178.58384
20178.49668
20178.36949
20178.23989
20178.13132
20178.03971
20178.01467
20178.04654
20178.12366
20178.2322
20178.3248
20178.36471
20178.35555
20178.30967
20178.21374
20178.11066
20178.05163
20178.095
20178.23789
20178.37436
20178.43411
20178.44666
20178.45844
20178.48554
20178.52108
20178.551
20178.57137
20178.58712
20178.60119
20178.6144
20178.62786
20178.63953
20178.6428
20178.63287
20178.60458
20178.5535
20178.47997
20178.38983
20178.27355
20178.15823
20178.077
20178.0273
20177.99533
20177.97716
20177.97849
20178.00743
20178.07002
20178.16882
20178.30322
20178.47037
20178.66596
20178.885
20179.12228
20179.37274
20179.63156
20179.89431
20180.15692
20180.41569
20180.66727
20180.90868
20181.13737
20181.3512
20181.54858
20181.72839
20181.89005
20182.03343
20182.15884
20182.26706
20182.35934
20182.43739
20182.50315
20182.55846
20182.60524
20182.64466
20182.6781
20182.70601
20182.72942
20182.74822
20182.76326
20182.77437
20182.78185
20182.78587
20182.78637
20182.78331
20182.77684
20182.76654
20182.75264
20182.73467
20182.71285
20182.68701
20182.65746
20182.62428
20182.58819
20182.54949
20182.50903
20182.46732
20182.42515
20182.38295
20182.34135
20182.30058
20182.26102
20182.22276
20182.18601
20182.15075
20182.11713
20182.08505
20182.05463
20182.02572
20181.99836
20181.97236
20181.94767
20181.92404
20181.90139
20181.87938
20181.85801
20181.83687
20181.81601
20181.79499
20181.77401
20181.75264
20181.73122
20181.70931
20181.68727
20181.66468
20181.64179
20181.61803
20181.59243
20181.59243
20183.32682
20183.32682
20183.32153
20183.31459
20183.30867
20183.30519
20183.30498
20183.30851
20183.31582
20183.32637
20183.33922
20183.35328
20183.36767
20183.38178
20183.39513
20183.40721
20183.4176
20183.42607
20183.43267
20183.43643
20183.43148
20183.40597
20183.34395
20183.3084
20183.32333
20183.36016
20183.36194
20183.26854
20183.1218
20182.95513
20182.7784
20182.59567
20182.40868
20182.21806
20182.02384
20181.82563
20181.62268
20181.41375
20181.19681
20180.96864
20180.70911
20180.54297
20180.46529
20180.45205
20180.48674
20180.48195
20180.38447
20180.26707
20180.18709
20180.21188
20180.35898
20180.49944
20180.55394
20180.54061
20180.49332
20180.44266
20180.389
20180.32807
20180.25798
20180.17804
20180.08661
20179.98124
20179.85909
20179.7192
20179.56419
20179.40465
20179.25033
20179.10318
20178.97362
20178.87
20178.77724
20178.6741
20178.58441
20178.48553
20178.34838
20178.20678
20178.0741
20177.96688
20177.94029
20177.97259
20178.05257
20178.17064
20178.29284
20178.35938
20178.35982
20178.31806
20178.22887
20178.13397
20178.07212
20178.08811
20178.1949
20178.30562
20178.36137
20178.38763
20178.41971
20178.4652
20178.51512
20178.55444
20178.57829
20178.59286
20178.60378
20178.61521
20178.62673
20178.63133
20178.62112
20178.59116
20178.53952
20178.46703
20178.37699
20178.27491
20178.16048
20178.05171
20177.96947
20177.91527
20177.88246
20177.86898
20177.87868
20177.91739
20177.98959
20178.09706
20178.23896
20178.4124
20178.61315
20178.83636
20179.07698
20179.3301
20179.59112
20179.85579
20180.12021
20180.38079
20180.63429
20180.87774
20181.10856
20181.3246
20181.5242
20181.70628
20181.87026
20182.01602
20182.14384
20182.25438
20182.34874
20182.42849
20182.49552
20182.55175
20182.59916
20182.63894
20182.67265
20182.70058
20182.724
20182.74268
20182.75751
20182.76843
20182.77563
20182.77946
20182.77974
20182.77657
20182.77008
20182.75983
20182.74611
20182.72836
20182.70683
20182.6813
20182.65204
20182.6191
20182.58323
20182.54467
20182.50432
20182.46271
20182.42065
20182.37856
20182.33711
20182.29652
20182.25717
20182.21915
20182.18265
20182.14766
20182.11431
20182.08252
20182.05239
20182.02377
20181.9967
20181.97098
20181.94656
20181.92317
20181.90075
20181.87898
20181.85781
20181.83691
20181.81628
20181.79558
20181.77493
20181.754
20181.73304
20181.71171
20181.69032
20181.66855
20181.64677
20181.62475
20181.60278
20181.60278
20183.31249
20183.31249
20183.3089
20183.30393
20183.29963
20183.29731
20183.29777
20183.30144
20183.30835
20183.3181
20183.32999
20183.3432
20183.35704
20183.37098
20183.38464
20183.39758
20183.40939
20183.41959
20183.42754
20183.4314
20183.42582
20183.40429
20183.3599
20183.33795
20183.35665
20183.39379
20183.38904
20183.28275
20183.13083
20182.96206
20182.78439
20182.60123
20182.41416
20182.22379
20182.0301
20181.83265
20181.63058
20181.42243
20181.20567
20180.97642
20180.70646
20180.52018
20180.43753
20180.4245
20180.45257
20180.4394
20180.34505
20180.23511
20180.15916
20180.18569
20180.33701
20180.48852
20180.55263
20180.53887
20180.48618
20180.42655
20180.36512
20180.29845
20180.22389
20180.1404
20180.04633
20179.93958
20179.81754
20179.67964
20179.52863
20179.37323
20179.22339
20179.08181
20178.95848
20178.85854
20178.76551
20178.66754
20178.57705
20178.46956
20178.32283
20178.16666
20177.99513
20177.87932
20177.8613
20177.89493
20177.98061
20178.10798
20178.25541
20178.35334
20178.36933
20178.33512
20178.26191
20178.17477
20178.10833
20178.09464
20178.15678
20178.23171
20178.2797
20178.32186
20178.37809
20178.44447
20178.5086
20178.55649
20178.58391
20178.59793
20178.60596
20178.61326
20178.61666
20178.60661
20178.5762
20178.52392
20178.45174
20178.36315
20178.26232
20178.15403
20178.04148
20177.93727
20177.8553
20177.799
20177.76619
20177.75655
20177.77315
20177.82028
20177.90121
20178.01697
20178.16632
20178.3462
20178.55236
20178.77998
20179.02414
20179.2801
20179.54344
20179.81014
20180.0765
20180.33911
20180.5948
20180.84067
20181.07407
20181.29276
20181.49501
20181.67967
20181.84621
20181.99459
20182.12511
20182.23839
20182.33537
20182.41743
20182.48627
20182.54385
20182.59217
20182.63249
20182.66653
20182.6945
20182.71784
20182.73634
20182.7508
20182.76143
20182.76819
20182.77169
20182.77163
20182.76827
20182.76165
20182.75145
20182.7379
20182.72042
20182.69925
20182.67416
20182.64529
20182.61271
20182.57718
20182.53886
20182.49871
20182.45727
20182.41535
20182.37343
20182.33216
20182.29177
20182.25267
20182.21492
20182.17871
20182.14403
20182.11098
20182.07952
20182.0497
20182.02141
20181.99466
20181.96927
20181.94515
20181.92208
20181.89992
20181.87843
20181.85751
20181.83689
20181.81653
20181.79619
20181.77588
20181.75544
20181.73496
20181.71428
20181.69359
20181.67277
20181.65218
20181.63208
20181.61381
20181.61381
20183.29909
20183.29909
20183.29665
20183.29316
20183.29019
20183.28886
20183.28989
20183.29368
20183.30027
20183.30937
20183.32043
20183.33282
20183.34599
20183.3595
20183.37303
20183.38626
20183.39883
20183.4102
20183.41933
20183.42401
20183.41884
20183.40307
20183.37629
20183.36794
20183.39111
20183.4314
20183.4231
20183.30469
20183.14463
20182.97162
20182.79189
20182.6078
20182.42049
20182.23037
20182.03732
20181.84085
20181.64001
20181.43321
20181.21759
20180.98952
20180.71377
20180.51107
20180.42268
20180.40942
20180.43407
20180.41828
20180.32968
20180.22805
20180.1575
20180.18294
20180.32602
20180.47043
20180.53604
20180.5214
20180.46532
20180.39934
20180.33115
20180.25763
20180.17735
20180.08913
20179.9919
20179.8838
20179.76289
20179.62859
20179.48382
20179.33512
20179.19186
20179.05738
20178.94004
20178.84252
20178.74938
20178.65435
20178.56179
20178.44767
20178.29267
20178.11794
20177.91033
20177.79301
20177.78406