# vtk DataFile Version 2.0
FlowField
ASCII
DATASET STRUCTURED_GRID
DIMENSIONS 200 1 200
POINTS 40000 float
0 0 0
0.15 0 0
0.3 0 0
0.45 0 0
0.6 0 0
0.75 0 0
0.9 0 0
1.05 0 0
1.2 0 0
1.35 0 0
1.5 0 0
1.65 0 0
1.8 0 0
1.95 0 0
2.1 0 0
2.25 0 0
2.4 0 0
2.55 0 0
2.7 0 0
2.85 0 0
3 0 0
3.15 0 0
3.3 0 0
3.45 0 0
3.6 0 0
3.75 0 0
3.9 0 0
4.05 0 0
4.2 0 0
4.35 0 0
4.5 0 0
4.65 0 0
4.8 0 0
4.95 0 0
5.1 0 0
5.25 0 0
5.4 0 0
5.55 0 0
5.7 0 0
5.85 0 0
6 0 0
6.15 0 0
6.3 0 0
6.45 0 0
6.6 0 0
6.75 0 0
6.9 0 0
7.05 0 0
7.2 0 0
7.35 0 0
7.5 0 0
7.65 0 0
7.8 0 0
7.95 0 0
8.1 0 0
8.25 0 0
8.4 0 0
8.55 0 0
8.7 0 0
8.85 0 0
9 0 0
9.15 0 0
9.3 0 0
9.45 0 0
9.6 0 0
9.75 0 0
9.9 0 0
10.05 0 0
10.2 0 0
10.35 0 0
10.5 0 0
10.65 0 0
10.8 0 0
10.95 0 0
11.1 0 0
11.25 0 0
11.4 0 0
11.55 0 0
11.7 0 0
11.85 0 0
12 0 0
12.15 0 0
12.3 0 0
12.45 0 0
12.6 0 0
12.75 0 0
12.9 0 0
13.05 0 0
13.2 0 0
13.35 0 0
13.5 0 0
13.65 0 0
13.8 0 0
13.95 0 0
14.1 0 0
14.25 0 0
14.4 0 0
14.55 0 0
14.7 0 0
14.85 0 0
15 0 0
15.15 0 0
15.3 0 0
15.45 0 0
15.6 0 0
15.75 0 0
15.9 0 0
16.05 0 0
16.2 0 0
16.35 0 0
16.5 0 0
16.65 0 0
16.8 0 0
16.95 0 0
17.1 0 0
17.25 0 0
17.4 0 0
17.55 0 0
17.7 0 0
17.85 0 0
18 0 0
18.15 0 0
18.3 0 0
18.45 0 0
18.6 0 0
18.75 0 0
18.9 0 0
19.05 0 0
19.2 0 0
19.35 0 0
19.5 0 0
19.65 0 0
19.8 0 0
19.95 0 0
20.1 0 0
20.25 0 0
20.4 0 0
20.55 0 0
20.7 0 0
20.85 0 0
21 0 0
21.15 0 0
21.3 0 0
21.45 0 0
21.6 0 0
21.75 0 0
21.9 0 0
22.05 0 0
22.2 0 0
22.35 0 0
22.5 0 0
22.65 0 0
22.8 0 0
22.95 0 0
23.1 0 0
23.25 0 0
23.4 0 0
23.55 0 0
23.7 0 0
23.85 0 0
24 0 0
24.15 0 0
24.3 0 0
24.45 0 0
24.6 0 0
24.75 0 0
24.9 0 0
25.05 0 0
25.2 0 0
25.35 0 0
25.5 0 0
25.65 0 0
25.8 0 0
25.95 0 0
26.1 0 0
26.25 0 0
26.4 0 0
26.55 0 0
26.7 0 0
26.85 0 0
27 0 0
27.15 0 0
27.3 0 0
27.45 0 0
27.6 0 0
27.75 0 0
27.9 0 0
28.05 0 0
28.2 0 0
28.35 0 0
28.5 0 0
28.65 0 0
28.8 0 0
28.95 0 0
29.1 0 0
29.25 0 0
29.4 0 0
29.55 0 0
29.7 0 0
29.85 0 0
0 0.075 0
0.15 0.075 0
0.3 0.075 0
0.45 0.075 0
0.6 0.075 0
0.75 0.075 0
0.9 0.075 0
1.05 0.075 0
1.2 0.075 0
1.35 0.075 0
1.5 0.075 0
1.65 0.075 0
1.8 0.075 0
1.95 0.075 0
2.1 0.075 0
2.25 0.075 0
2.4 0.075 0
2.55 0.075 0
2.7 0.075 0
2.85 0.075 0
3 0.075 0
3.15 0.075 0
3.3 0.075 0
3.45 0.075 0
3.6 0.075 0
3.75 0.075 0
3.9 0.075 0
4.05 0.075 0
4.2 0.075 0
4.35 0.075 0
4.5 0.075 0
4.65 0.075 0
4.8 0.075 0
4.95 0.075 0
5.1 0.075 0
5.25 0.075 0
5.4 0.075 0
5.55 0.075 0
5.7 0.075 0
5.85 0.075 0
6 0.075 0
6.15 0.075 0
6.3 0.075 0
6.45 0.075 0
6.6 0.075 0
6.75 0.075 0
6.9 0.075 0
7.05 0.075 0
7.2 0.075 0
7.35 0.075 0
7.5 0.075 0
7.65 0.075 0
7.8 0.075 0
7.95 0.075 0
8.1 0.075 0
8.25 0.075 0
8.4 0.075 0
8.55 0.075 0
8.7 0.075 0
8.85 0.075 0
9 0.075 0
9.15 0.075 0
9.3 0.075 0
9.45 0.075 0
9.6 0.075 0
9.75 0.075 0
9.9 0.075 0
10.05 0.075 0
10.2 0.075 0
10.35 0.075 0
10.5 0.075 0
10.65 0.075 0
10.8 0.075 0
10.95 0.075 0
11.1 0.075 0
11.25 0.075 0
11.4 0.075 0
11.55 0.075 0
11.7 0.075 0
11.85 0.075 0
12 0.075 0
12.15 0.075 0
12.3 0.075 0
12.45 0.075 0
12.6 0.075 0
12.75 0.075 0
12.9 0.075 0
13.05 0.075 0
13.2 0.075 0
13.35 0.075 0
13.5 0.075 0
13.65 0.075 0
13.8 0.075 0
13.95 0.075 0
14.1 0.075 0
14.25 0.075 0
14.4 0.075 0
14.55 0.075 0
14.7 0.075 0
14.85 0.075 0
15 0.075 0
15.15 0.075 0
15.3 0.075 0
15.45 0.075 0
15.6 0.075 0
15.75 0.075 0
15.9 0.075 0
16.05 0.075 0
16.2 0.075 0
16.35 0.075 0
16.5 0.075 0
16.65 0.075 0
16.8 0.075 0
16.95 0.075 0
17.1 0.075 0
17.25 0.075 0
17.4 0.075 0
17.55 0.075 0
17.7 0.075 0
17.85 0.075 0
18 0.075 0
18.15 0.075 0
18.3 0.075 0
18.45 0.075 0
18.6 0.075 0
18.75 0.075 0
18.9 0.075 0
19.05 0.075 0
19.2 0.075 0
19.35 0.075 0
19.5 0.075 0
19.65 0.075 0
19.8 0.075 0
19.95 0.075 0
20.1 0.075 0
20.25 0.075 0
20.4 0.075 0
20.55 0.075 0
20.7 0.075 0
20.85 0.075 0
21 0.075 0
21.15 0.075 0
21.3 0.075 0
21.45 0.075 0
21.6 0.075 0
21.75 0.075 0
21.9 0.075 0
22.05 0.075 0
22.2 0.075 0
22.35 0.075 0
22.5 0.075 0
22.65 0.075 0
22.8 0.075 0
22.95 0.075 0
23.1 0.075 0
23.25 0.075 0
23.4 0.075 0
23.55 0.075 0
23.7 0.075 0
23.85 0.075 0
24 0.075 0
24.15 0.075 0
24.3 0.075 0
24.45 0.075 0
24.6 0.075 0
24.75 0.075 0
24.9 0.075 0
25.05 0.075 0
25.2 0.075 0
25.35 0.075 0
25.5 0.075 0
25.65 0.075 0
25.8 0.075 0
25.95 0.075 0
26.1 0.075 0
26.25 0.075 0
26.4 0.075 0
26.55 0.075 0
26.7 0.075 0
26.85 0.075 0
27 0.075 0
27.15 0.075 0
27.3 0.075 0
27.45 0.075 0
27.6 0.075 0
27.75 0.075 0
27.9 0.075 0
28.05 0.075 0
28.2 0.075 0
28.35 0.075 0
28.5 0.075 0
28.65 0.075 0
28.8 0.075 0
28.95 0.075 0
29.1 0.075 0
29.25 0.075 0
29.4 0.075 0
29.55 0.075 0
29.7 0.075 0
29.85 0.075 0
0 0.15 0
0.15 0.15 0
0.3 0.15 0
0.45 0.15 0
0.6 0.15 0
0.75 0.15 0
0.9 0.15 0
1.05 0.15 0
1.2 0.15 0
1.35 0.15 0
1.5 0.15 0
1.65 0.15 0
1.8 0.15 0
1.95 0.15 0
2.1 0.15 0
2.25 0.15 0
2.4 0.15 0
2.55 0.15 0
2.7 0.15 0
2.85 0.15 0
3 0.15 0
3.15 0.15 0
3.3 0.15 0
3.45 0.15 0
3.6 0.15 0
3.75 0.15 0
3.9 0.15 0
4.05 0.15 0
4.2 0.15 0
4.35 0.15 0
4.5 0.15 0
4.65 0.15 0
4.8 0.15 0
4.95 0.15 0
5.1 0.15 0
5.25 0.15 0
5.4 0.15 0
5.55 0.15 0
5.7 0.15 0
5.85 0.15 0
6 0.15 0
6.15 0.15 0
6.3 0.15 0
6.45 0.15 0
6.6 0.15 0
6.75 0.15 0
6.9 0.15 0
7.05 0.15 0
7.2 0.15 0
7.35 0.15 0
7.5 0.15 0
7.65 0.15 0
7.8 0.15 0
7.95 0.15 0
8.1 0.15 0
8.25 0.15 0
8.4 0.15 0
8.55 0.15 0
8.7 0.15 0
8.85 0.15 0
9 0.15 0
9.15 0.15 0
9.3 0.15 0
9.45 0.15 0
9.6 0.15 0
9.75 0.15 0
9.9 0.15 0
10.05 0.15 0
10.2 0.15 0
10.35 0.15 0
10.5 0.15 0
10.65 0.15 0
10.8 0.15 0
10.95 0.15 0
11.1 0.15 0
11.25 0.15 0
11.4 0.15 0
11.55 0.15 0
11.7 0.15 0
11.85 0.15 0
12 0.15 0
12.15 0.15 0
12.3 0.15 0
12.45 0.15 0
12.6 0.15 0
12.75 0.15 0
12.9 0.15 0
13.05 0.15 0
13.2 0.15 0
13.35 0.15 0
13.5 0.15 0
13.65 0.15 0
13.8 0.15 0
13.95 0.15 0
14.1 0.15 0
14.25 0.15 0
14.4 0.15 0
14.55 0.15 0
14.7 0.15 0
14.85 0.15 0
15 0.15 0
15.15 0.15 0
15.3 0.15 0
15.45 0.15 0
15.6 0.15 0
15.75 0.15 0
15.9 0.15 0
16.05 0.15 0
16.2 0.15 0
16.35 0.15 0
16.5 0.15 0
16.65 0.15 0
16.8 0.15 0
16.95 0.15 0
17.1 0.15 0
17.25 0.15 0
17.4 0.15 0
17.55 0.15 0
17.7 0.15 0
17.85 0.15 0
18 0.15 0
18.15 0.15 0
18.3 0.15 0
18.45 0.15 0
18.6 0.15 0
18.75 0.15 0
18.9 0.15 0
19.05 0.15 0
19.2 0.15 0
19.35 0.15 0
19.5 0.15 0
19.65 0.15 0
19.8 0.15 0
19.95 0.15 0
20.1 0.15 0
20.25 0.15 0
20.4 0.15 0
20.55 0.15 0
20.7 0.15 0
20.85 0.15 0
21 0.15 0
21.15 0.15 0
21.3 0.15 0
21.45 0.15 0
21.6 0.15 0
21.75 0.15 0
21.9 0.15 0
22.05 0.15 0
22.2 0.15 0
22.35 0.15 0
22.5 0.15 0
22.65 0.15 0
22.8 0.15 0
22.95 0.15 0
23.1 0.15 0
23.25 0.15 0
23.4 0.15 0
23.55 0.15 0
23.7 0.15 0
23.85 0.15 0
24 0.15 0
24.15 0.15 0
24.3 0.15 0
24.45 0.15 0
24.6 0.15 0
24.75 0.15 0
24.9 0.15 0
25.05 0.15 0
25.2 0.15 0
25.35 0.15 0
25.5 0.15 0
25.65 0.15 0
25.8 0.15 0
25.95 0.15 0
26.1 0.15 0
26.25 0.15 0
26.4 0.15 0
26.55 0.15 0
26.7 0.15 0
26.85 0.15 0
27 0.15 0
27.15 0.15 0
27.3 0.15 0
27.45 0.15 0
27.6 0.15 0
27.75 0.15 0
27.9 0.15 0
28.05 0.15 0
28.2 0.15 0
28.35 0.15 0
28.5 0.15 0
28.65 0.15 0
28.8 0.15 0
28.95 0.15 0
29.1 0.15 0
29.25 0.15 0
29.4 0.15 0
29.55 0.15 0
29.7 0.15 0
29.85 0.15 0
0 0.225 0
0.15 0.225 0
0.3 0.225 0
0.45 0.225 0
0.6 0.225 0
0.75 0.225 0
0.9 0.225 0
1.05 0.225 0
1.2 0.225 0
1.35 0.225 0
1.5 0.225 0
1.65 0.225 0
1.8 0.225 0
1.95 0.225 0
2.1 0.225 0
2.25 0.225 0
2.4 0.225 0
2.55 0.225 0
2.7 0.225 0
2.85 0.225 0
3 0.225 0
3.15 0.225 0
3.3 0.225 0
3.45 0.225 0
3.6 0.225 0
3.75 0.225 0
3.9 0.225 0
4.05 0.225 0
4.2 0.225 0
4.35 0.225 0
4.5 0.225 0
4.65 0.225 0
4.8 0.225 0
4.95 0.225 0
5.1 0.225 0
5.25 0.225 0
5.4 0.225 0
5.55 0.225 0
5.7 0.225 0
5.85 0.225 0
6 0.225 0
6.15 0.225 0
6.3 0.225 0
6.45 0.225 0
6.6 0.225 0
6.75 0.225 0
6.9 0.225 0
7.05 0.225 0
7.2 0.225 0
7.35 0.225 0
7.5 0.225 0
7.65 0.225 0
7.8 0.225 0
7.95 0.225 0
8.1 0.225 0
8.25 0.225 0
8.4 0.225 0
8.55 0.225 0
8.7 0.225 0
8.85 0.225 0
9 0.225 0
9.15 0.225 0
9.3 0.225 0
9.45 0.225 0
9.6 0.225 0
9.75 0.225 0
9.9 0.225 0
10.05 0.225 0
10.2 0.225 0
10.35 0.225 0
10.5 0.225 0
10.65 0.225 0
10.8 0.225 0
10.95 0.225 0
11.1 0.225 0
11.25 0.225 0
11.4 0.225 0
11.55 0.225 0
11.7 0.225 0
11.85 0.225 0
12 0.225 0
12.15 0.225 0
12.3 0.225 0
12.45 0.225 0
12.6 0.225 0
12.75 0.225 0
12.9 0.225 0
13.05 0.225 0
13.2 0.225 0
13.35 0.225 0
13.5 0.225 0
13.65 0.225 0
13.8 0.225 0
13.95 0.225 0
14.1 0.225 0
14.25 0.225 0
14.4 0.225 0
14.55 0.225 0
14.7 0.225 0
14.85 0.225 0
15 0.225 0
15.15 0.225 0
15.3 0.225 0
15.45 0.225 0
15.6 0.225 0
15.75 0.225 0
15.9 0.225 0
16.05 0.225 0
16.2 0.225 0
16.35 0.225 0
16.5 0.225 0
16.65 0.225 0
16.8 0.225 0
16.95 0.225 0
17.1 0.225 0
17.25 0.225 0
17.4 0.225 0
17.55 0.225 0
17.7 0.225 0
17.85 0.225 0
18 0.225 0
18.15 0.225 0
18.3 0.225 0
18.45 0.225 0
18.6 0.225 0
18.75 0.225 0
18.9 0.225 0
19.05 0.225 0
19.2 0.225 0
19.35 0.225 0
19.5 0.225 0
19.65 0.225 0
19.8 0.225 0
19.95 0.225 0
20.1 0.225 0
20.25 0.225 0
20.4 0.225 0
20.55 0.225 0
20.7 0.225 0
20.85 0.225 0
21 0.225 0
21.15 0.225 0
21.3 0.225 0
21.45 0.225 0
21.6 0.225 0
21.75 0.225 0
21.9 0.225 0
22.05 0.225 0
22.2 0.225 0
22.35 0.225 0
22.5 0.225 0
22.65 0.225 0
22.8 0.225 0
22.95 0.225 0
23.1 0.225 0
23.25 0.225 0
23.4 0.225 0
23.55 0.225 0
23.7 0.225 0
23.85 0.225 0
24 0.225 0
24.15 0.225 0
24.3 0.225 0
24.45 0.225 0
24.6 0.225 0
24.75 0.225 0
24.9 0.225 0
25.05 0.225 0
25.2 0.225 0
25.35 0.225 0
25.5 0.225 0
25.65 0.225 0
25.8 0.225 0
25.95 0.225 0
26.1 0.225 0
26.25 0.225 0
26.4 0.225 0
26.55 0.225 0
26.7 0.225 0
26.85 0.225 0
27 0.225 0
27.15 0.225 0
27.3 0.225 0
27.45 0.225 0
27.6 0.225 0
27.75 0.225 0
27.9 0.225 0
28.05 0.225 0
28.2 0.225 0
28.35 0.225 0
28.5 0.225 0
28.65 0.225 0
28.8 0.225 0
28.95 0.225 0
29.1 0.225 0
29.25 0.225 0
29.4 0.225 0
29.55 0.225 0
29.7 0.225 0
29.85 0.225 0
0 0.3 0
0.15 0.3 0
0.3 0.3 0
0.45 0.3 0
0.6 0.3 0
0.75 0.3 0
0.9 0.3 0
1.05 0.3 0
1.2 0.3 0
1.35 0.3 0
1.5 0.3 0
1.65 0.3 0
1.8 0.3 0
1.95 0.3 0
2.1 0.3 0
2.25 0.3 0
2.4 0.3 0
2.55 0.3 0
2.7 0.3 0
2.85 0.3 0
3 0.3 0
3.15 0.3 0
3.3 0.3 0
3.45 0.3 0
3.6 0.3 0
3.75 0.3 0
3.9 0.3 0
4.05 0.3 0
4.2 0.3 0
4.35 0.3 0
4.5 0.3 0
4.65 0.3 0
4.8 0.3 0
4.95 0.3 0
5.1 0.3 0
5.25 0.3 0
5.4 0.3 0
5.55 0.3 0
5.7 0.3 0
5.85 0.3 0
6 0.3 0
6.15 0.3 0
[...]
POINT_DATA 40000

SCALARS p float 1
LOOKUP_TABLE default
20183.32067
20183.32067
20183.26544
20183.23805
20183.22016
20183.20782
20183.20122
20183.20167
20183.20934
20183.22232
20183.23755
20183.25236
20183.2654
20183.27662
20183.28637
20183.29465
20183.30141
20183.30689
20183.31137
20183.31376
20183.31096
20183.30126
20183.27226
20183.22005
20183.28633
20183.69886
20183.58388
20183.23024
20182.99372
20182.78595
20182.58376
20182.38026
20182.17314
20181.96146
20181.74467
20181.52227
20181.29389
20181.05973
20180.82167
20180.58612
20180.37071
20180.2508
20180.23019
20180.32383
20180.48462
20180.37669
20180.18872
20180.0711
20180.07005
20180.08254
20180.10706
20180.13811
20180.14146
20180.11446
20180.08171
20180.02175
20179.95753
20179.93824
20179.89356
20179.83111
20179.80893
20179.85744
20179.98207
20180.16917
20180.39123
20180.60912
20180.77466
20180.84292
20180.78175
20180.57575
20180.25793
20179.91929
20179.58334
20179.29376
20179.08049
20178.99991
20179.03562
20178.99586
20178.9211
20178.93171
20178.92779
20178.95278
20178.98288
20179
20179.0257
20179.09393
20179.17518
20179.21503
20179.21683
20179.20456
20179.19262
20179.18671
20179.18747
20179.19126
20179.19388
20179.19282
20179.18732
20179.17664
20179.1532
20179.11892
20179.07609
20178.97789
20178.85152
20178.74752
20178.65636
20178.55867
20178.454
20178.35352
20178.26974
20178.21223
20178.18696
20178.19703
20178.24342
20178.32564
20178.44214
20178.59063
20178.76827
20178.9718
20179.19761
20179.44185
20179.70047
20179.96929
20180.24397
20180.5201
20180.79323
20181.05897
20181.31311
20181.5518
20181.77162
20181.96982
20182.1444
20182.29422
20182.41901
20182.51931
20182.5964
20182.65211
20182.6887
20182.70862
20182.71436
20182.70831
20182.69267
20182.66937
20182.64009
20182.60624
20182.56903
20182.52946
20182.48845
20182.44673
20182.40496
20182.36364
20182.32316
20182.28378
20182.24561
20182.20869
20182.17296
20182.13834
20182.10475
20182.07212
20182.04042
20182.00964
20181.97977
20181.95079
20181.92267
20181.89539
20181.86893
20181.84326
20181.8183
20181.79394
20181.76998
20181.7462
20181.72238
20181.69843
20181.67433
20181.6502
20181.62617
20181.6024
20181.57894
20181.55583
20181.53301
20181.51046
20181.48812
20181.46604
20181.44421
20181.42272
20181.40147
20181.38044
20181.35941
20181.33826
20181.31676
20181.29481
20181.27226
20181.24914
20181.22537
20181.20099
20181.17587
20181.15009
20181.12341
20181.09621
20181.06809
20181.06809
20183.32067
20183.32067
20183.26544
20183.23805
20183.22016
20183.20782
20183.20122
20183.20167
20183.20934
20183.22232
20183.23755
20183.25236
20183.2654
20183.27662
20183.28637
20183.29465
20183.30141
20183.30689
20183.31137
20183.31376
20183.31096
20183.30126
20183.27226
20183.22005
20183.28633
20183.69886
20183.58388
20183.23024
20182.99372
20182.78595
20182.58376
20182.38026
20182.17314
20181.96146
20181.74467
20181.52227
20181.29389
20181.05973
20180.82167
20180.58612
20180.37071
20180.2508
20180.23019
20180.32383
20180.48462
20180.37669
20180.18872
20180.0711
20180.07005
20180.08254
20180.10706
20180.13811
20180.14146
20180.11446
20180.08171
20180.02175
20179.95753
20179.93824
20179.89356
20179.83111
20179.80893
20179.85744
20179.98207
20180.16917
20180.39123
20180.60912
20180.77466
20180.84292
20180.78175
20180.57575
20180.25793
20179.91929
20179.58334
20179.29376
20179.08049
20178.99991
20179.03562
20178.99586
20178.9211
20178.93171
20178.92779
20178.95278
20178.98288
20179
20179.0257
20179.09393
20179.17518
20179.21503
20179.21683
20179.20456
20179.19262
20179.18671
20179.18747
20179.19126
20179.19388
20179.19282
20179.18732
20179.17664
20179.1532
20179.11892
20179.07609
20178.97789
20178.85152
20178.74752
20178.65636
20178.55867
20178.454
20178.35352
20178.26974
20178.21223
20178.18696
20178.19703
20178.24342
20178.32564
20178.44214
20178.59063
20178.76827
20178.9718
20179.19761
20179.44185
20179.70047
20179.96929
20180.24397
20180.5201
20180.79323
20181.05897
20181.31311
20181.5518
20181.77162
20181.96982
20182.1444
20182.29422
20182.41901
20182.51931
20182.5964
20182.65211
20182.6887
20182.70862
20182.71436
20182.70831
20182.69267
20182.66937
20182.64009
20182.60624
20182.56903
20182.52946
20182.48845
20182.44673
20182.40496
20182.36364
20182.32316
20182.28378
20182.24561
20182.20869
20182.17296
20182.13834
20182.10475
20182.07212
20182.04042
20182.00964
20181.97977
20181.95079
20181.92267
20181.89539
20181.86893
20181.84326
20181.8183
20181.79394
20181.76998
20181.7462
20181.72238
20181.69843
20181.67433
20181.6502
20181.62617
20181.6024
20181.57894
20181.55583
20181.53301
20181.51046
20181.48812
20181.46604
20181.44421
20181.42272
20181.40147
20181.38044
20181.35941
20181.33826
20181.31676
20181.29481
20181.27226
20181.24914
20181.22537
20181.20099
20181.17587
20181.15009
20181.12341
20181.09621
20181.06809
20181.06809
20183.28801
20183.28801
20183.25631
20183.23351
20183.21765
20183.2069
20183.20157
20183.20279
20183.2107
20183.22361
20183.23868
20183.25335
20183.26629
20183.27743
20183.28711
20183.29528
20183.30188
20183.30718
20183.3116
20183.31446
20183.31318
20183.30118
20183.25443
20183.18063
20183.19641
20183.48889
20183.44971
20183.20178
20182.98681
20182.78461
20182.5841
20182.38115
20182.17425
20181.96271
20181.74604
20181.52372
20181.2953
20181.06068
20180.82104
20180.58121
20180.3578
20180.24911
20180.18015
20180.25113
20180.39672
20180.32111
20180.13053
20180.01418
20180.03279
20180.07825
20180.11097
20180.14053
20180.14179
20180.11318
20180.0829
20180.02876
20179.95318
20179.90951
20179.85474
20179.79432
20179.77679
20179.82867
20179.95467
20180.1415
20180.36247
20180.57891
20180.74312
20180.80924
20180.7445
20180.53943
20180.22547
20179.88452
20179.53843
20179.24394
20179.03919
20178.95796
20178.96862
20178.93494
20178.91399
20178.93203
20178.92099
20178.95038
20178.98594
20178.99877
20179.01482
20179.08051
20179.16915
20179.21451
20179.21707
20179.2045
20179.19238
20179.1862
20179.18682
20179.19058
20179.19317
20179.19225
20179.18669
20179.17679
20179.15484
20179.11813
20179.07969
20178.98825
20178.85895
20178.74541
20178.64494
20178.54148
20178.43464
20178.33432
20178.25181
20178.19591
20178.17223
20178.1837
20178.23125
20178.31442
20178.43168
20178.58078
20178.7589
20178.9628
20179.1889
20179.43337
20179.69219
20179.9612
20180.23608
20180.51245
20180.78586
20181.05194
20181.3065
20181.54565
20181.76599
20181.96473
20182.13987
20182.29023
20182.41553
20182.51629
20182.59378
20182.64983
20182.6867
20182.70685
20182.71278
20182.7069
20182.69141
20182.66826
20182.63911
20182.60539
20182.56829
20182.52883
20182.4879
20182.44625
20182.40454
20182.36327
20182.32283
20182.28349
20182.24536
20182.20848
20182.1728
20182.13822
20182.10467
20182.07208
20182.04041
20182.00966
20181.97981
20181.95086
20181.92277
20181.89552
20181.86908
20181.84343
20181.8185
20181.79418
20181.77027
20181.74654
20181.72276
20181.69882
20181.67471
20181.65056
20181.62651
20181.60272
20181.57924
20181.55611
20181.53328
20181.51072
20181.48836
20181.46625
20181.44441
20181.42289
20181.40165
20181.38061
20181.3596
20181.33845
20181.31697
20181.29501
20181.27247
20181.24933
20181.22556
20181.20117
20181.17603
20181.15025
20181.12352
20181.09624
20181.06793
20181.06793
20183.26223
20183.26223
20183.24296
20183.22541
20183.21232
20183.20364
20183.19988
20183.20189
20183.20978
20183.22229
20183.23712
20183.25201
20183.26555
20183.27736
20183.28747
20183.2958
20183.30243
20183.30767
20183.31223
20183.31593
20183.31536
20183.29741
20183.22995
20183.14789
20183.1394
20183.3014
20183.31357
20183.16514
20182.97706
20182.78297
20182.58507
20182.38304
20182.17653
20181.96525
20181.74883
20181.52671
20181.29825
20181.06284
20180.82034
20180.57198
20180.32187
20180.18581
20180.08623
20180.13946
20180.27114
20180.22441
20180.03424
20179.91935
20179.96348
20180.0643
20180.12267
20180.15446
20180.14902
20180.11463
20180.07386
20180.006
20179.91274
20179.83823
20179.77024
20179.71558
20179.70732
20179.76581
20179.89454
20180.08119
20180.30041
20180.51465
20180.67706
20180.74104
20180.67265
20180.46399
20180.16152
20179.81534
20179.45712
20179.15759
20178.97237
20178.88575
20178.84747
20178.81844
20178.84179
20178.88955
20178.90534
20178.94842
20178.99087
20178.99352
20178.99044
20179.05111
20179.15282
20179.20838
20179.21317
20179.20166
20179.19157
20179.18668
20179.18746
20179.19086
20179.19296
20179.19211
20179.18698
20179.17681
20179.15974
20179.12038
20179.06672
20178.97012
20178.83904
20178.71513
20178.60251
20178.49231
20178.38468
20178.28726
20178.20918
20178.15787
20178.13835
20178.15335
20178.20382
20178.28935
20178.40854
20178.55919
20178.73855
20178.94345
20179.17035
20179.41549
20179.67489
20179.94444
20180.21988
20180.49685
20180.77097
20181.03786
20181.29334
20181.53351
20181.75493
20181.95479
20182.13103
20182.28244
20182.4087
20182.51031
20182.58852
20182.64517
20182.68251
20182.70304
20182.70928
20182.70366
20182.6884
20182.66548
20182.63656
20182.60306
20182.56617
20182.52692
20182.48618
20182.44471
20182.40316
20182.36203
20182.32172
20182.28248
20182.24445
20182.20764
20182.17202
20182.13751
20182.10401
20182.07147
20182.03984
20182.00913
20181.97932
20181.9504
20181.92234
20181.89513
20181.86873
20181.84312
20181.81822
20181.79395
20181.77008
20181.74643
20181.72272
20181.69886
20181.6748
20181.6507
20181.62666
20181.6029
20181.57943
20181.55633
20181.53351
20181.51098
20181.48863
20181.46653
20181.44468
20181.42317
20181.40196
20181.38095
20181.35999
20181.33887
20181.31742
20181.29547
20181.27294
20181.2498
20181.22604
20181.20168
20181.17655
20181.15077
20181.12394
20181.0964
20181.06727
20181.06727
20183.24143
20183.24143
20183.2292
20183.21599
20183.20549
20183.19866
20183.19618
20183.19872
20183.20634
20183.21813
20183.23238
20183.24726
20183.26146
20183.27434
20183.2856
20183.29496
20183.30235
20183.30802
20183.31295
20183.31732
20183.31617
20183.29237
20183.21466
20183.14473
20183.1401
20183.22157
20183.24061
20183.13847
20182.96954
20182.78253
20182.58717
20182.38607
20182.18
20181.96909
20181.75304
20181.53127
20181.3029
20181.06668
20180.8208
20180.56206
20180.27774
20180.09959
20179.99165
20180.03349
20180.14709
20180.11021
20179.93745
20179.83267
20179.89128
20180.04192
20180.13911
20180.17881
20180.16299
20180.11099
20180.04184
20179.94373
20179.83001
20179.73496
20179.65988
20179.61159
20179.61193
20179.67599
20179.806
20179.99074
20180.20623
20180.4166
20180.57635
20180.63904
20180.56951
20180.3605
20180.06826
20179.71315
20179.3517
20179.0677
20178.90197
20178.80214
20178.7248
20178.66905
20178.69742
20178.80028
20178.87661
20178.94532
20178.99501
20178.98432
20178.95484
20179.0064
20179.12422
20179.19467
20179.20404
20179.19555
20179.19017
20179.18852
20179.18975
20179.19218
20179.19333
20179.19201
20179.18868
20179.17691
20179.15033
20179.09915
20179.02522
20178.91733
20178.78422
20178.65438
20178.5346
20178.42151
20178.31592
20178.22351
20178.15147
20178.10606
20178.09175
20178.11113
20178.16521
20178.25367
20178.37523
20178.52779
20178.70869
20178.9148
20179.14268
20179.38861
20179.6487
20179.9189
20180.19504
20180.4728
20180.74784
20181.01585
20181.27261
20181.51422
20181.7372
20181.93869
20182.11656
20182.26955
20182.39728
20182.5002
20182.57954
20182.63714
20182.67526
20182.69641
20182.70316
20182.69797
20182.6831
20182.66054
20182.63197
20182.59881
20182.56226
20182.52334
20182.48292
20182.44176
20182.40049
20182.35964
20182.31958
20182.28055
20182.24269
20182.20602
20182.1705
20182.13608
20182.10265
20182.07017
20182.0386
20182.00794
20181.97817
20181.9493
20181.92129
20181.89412
20181.86776
20181.84219
20181.81731
20181.79306
20181.76923
20181.74563
20181.72202
20181.6983
20181.67437
20181.6504
20181.62646
20181.6028
20181.57941
20181.5564
20181.53367
20181.51123
20181.48895
20181.46691
20181.44512
20181.42368
20181.40253
20181.38159
20181.3607
20181.33964
20181.31824
20181.29631
20181.27381
20181.2507
20181.22699
20181.2027
20181.17765
20181.1519
20181.12499
20181.09694
20181.06622
20181.06622
20183.22384
20183.22384
20183.21581
20183.20603
20183.19782
20183.19258
20183.19109
20183.19392
20183.20111
20183.21199
20183.22534
20183.23976
20183.25415
20183.26784
20183.28035
20183.29123
20183.30016
20183.30717
20183.31287
20183.31731
20183.3146
20183.28867
20183.21286
20183.1582
20183.16258
20183.21068
20183.22227
20183.12816
20182.96753
20182.78455
20182.59083
20182.39039
20182.18471
20181.97421
20181.75869
20181.53749
20181.30948
20181.07277
20180.82397
20180.556
20180.2404
20180.02153
20179.91062
20179.94417
20180.04085
20180.00915
20179.86397
20179.77272
20179.83624
20180.01485
20180.14543
20180.19529
20180.16731
20180.08664
20179.97696
20179.84791
20179.71859
20179.61164
20179.5328
20179.48893
20179.49512
20179.56239
20179.69164
20179.87249
20180.08248
20180.28753
20180.44433
20180.5063
20180.43857
20180.23609
20179.9452
20179.58822
20179.23628
20178.98253
20178.83682
20178.72049
20178.61033
20178.51586
20178.52341
20178.67009
20178.82647
20178.93534
20178.99368
20178.97278
20178.91791
20178.95789
20179.08941
20179.17558
20179.19113
20179.18731
20179.18805
20179.19084
20179.19296
20179.19414
20179.19443
20179.19301
20179.18482
20179.16201
20179.11758
20179.04758
20178.95523
20178.83851
20178.70544
20178.57447
20178.45255
20178.33966
20178.23735
20178.15024
20178.08419
20178.04458
20178.03544
20178.05924
20178.11702
20178.20855
20178.33262
20178.48724
20178.66978
20178.87721
20179.10613
20179.35291
20179.61374
20179.88466
20180.16156
20180.44024
20180.71642
20180.98579
20181.24418
20181.48765
20181.71267
20181.9163
20182.09635
20182.25146
20182.38118
20182.4859
20182.56684
20182.62578
20182.66502
20182.68707
20182.69455
20182.68998
20182.67564
20182.65357
20182.62548
20182.59279
20182.55669
20182.51821
20182.47821
20182.43746
20182.39659
20182.35611
20182.31639
20182.27766
20182.24005
20182.20359
20182.16824
20182.13393
20182.1006
20182.06821
20182.03671
20182.00612
20181.97642
20181.94761
20181.91965
20181.89255
20181.86624
20181.84071
20181.81587
20181.79164
20181.76781
20181.74426
20181.72072
20181.69713
20181.67337
20181.64959
20181.62583
20181.60234
20181.5791
20181.55626
20181.53369
20181.51142
20181.4893
20181.46741
20181.44575
20181.42441
20181.40339
20181.38256
20181.36179
20181.34082
20181.3195
20181.29764
20181.27522
20181.25219
20181.22864
20181.20448
20181.17963
20181.15397
20181.12707
20181.09847
20181.06582
20181.06582
20183.20835
20183.20835
20183.20295
20183.19578
20183.18956
20183.18569
20183.18501
20183.18802
20183.19477
20183.20476
20183.21709
20183.23072
20183.24479
20183.2587
20183.27199
20183.28417
20183.29482
20183.30363
20183.31057
20183.31481
20183.31066
20183.28634
20183.22292
20183.18308
20183.19603
20183.23568
20183.23701
20183.13331
20182.97216
20182.78973
20182.59633
20182.39607
20182.19066
20181.98062
20181.76577
20181.54541
20181.31817
20181.08166
20180.83127
20180.55755
20180.21884
20179.96612
20179.85093
20179.87915
20179.96491
20179.94057
20179.82221
20179.74707
20179.80919
20179.98808
20180.13106
20180.18595
20180.14243
20180.02794
20179.88147
20179.72972
20179.58908
20179.47434
20179.39283
20179.3513
20179.36072
20179.42892
20179.5556
20179.73069
20179.93366
20180.13224
20180.28584
20180.34878
20180.28606
20180.0921
20179.80308
20179.45689
20179.12702
20178.90883
20178.77986
20178.64421
20178.50714
20178.38302
20178.35908
20178.52202
20178.75251
20178.91346
20178.98723
20178.96438
20178.89456
20178.92291
20179.0587
20179.15481
20179.1762
20179.17842
20179.18567
20179.19315
20179.19655
20179.19696
20179.19537
20179.18805
20179.16666
20179.12438
20179.05919
20178.97231
20178.86745
20178.74586
20178.61414
20178.48431
20178.36271
20178.25124
20178.15225
20178.06986
20178.00912
20177.97474
20177.97039
20177.99842
20178.05982
20178.15444
20178.2811
20178.43785
20178.62213
20178.83095
20179.06096
20179.30862
20179.57021
20179.84186
20180.11959
20180.39928
20180.67673
20180.9477
20181.20803
20181.45374
20181.68126
20181.88756
20182.07033
20182.22812
20182.36038
20182.46743
20182.55042
20182.61114
20182.65186
20182.67513
20182.6836
20182.67984
20182.6662
20182.64476
20182.61726
20182.58516
20182.54963
20182.5117
20182.47224
20182.43199
20182.39159
20182.35155
20182.31224
20182.27388
20182.2366
20182.2004
20182.16526
20182.13113
20182.09794
20182.06566
20182.03427
20182.00378
20181.97416
20181.94543
20181.91755
20181.89052
20181.86428
20181.83883
20181.81404
20181.78986
20181.76605
20181.74254
20181.71904
20181.69555
20181.67193
20181.64834
20181.6248
20181.60153
20181.57852
20181.55589
20181.53355
20181.51149
20181.48962
20181.46794
20181.4465
20181.42534
20181.40449
20181.38381
20181.36318
20181.34235
20181.32118
20181.29944
20181.27721
20181.25436
20181.23109
20181.2072
20181.18269
20181.15729
20181.13064
20181.10182
20181.06803
20181.06803
20183.19426
20183.19426
20183.19057
20183.1854
20183.18081
20183.17812
20183.17814
20183.1813
20183.18767
20183.19688
20183.20826
20183.22101
20183.23446
20183.24812
20183.26159
20183.27448
20183.28637
20183.2968
20183.30506
20183.30949
20183.30452
20183.28399
20183.23904
20183.21457
20183.23306
20183.27372
20183.26822
20183.15025
20182.98305
20182.79815
20182.60372
20182.40309
20182.19778
20181.98825
20181.77427
20181.55507
20181.32914
20181.09379
20180.84371
20180.56898
20180.21734
20179.93917
20179.81761
20179.84209
20179.92281
20179.90755
20179.8121
20179.75626
20179.81252
20179.96627
20180.09902
20180.14615
20180.08135
20179.93589
20179.76393
20179.59729
20179.44756
20179.32713
20179.24322
20179.20237
20179.21293
20179.28011
20179.40279
20179.57069
20179.76526
20179.95662
20180.10682
20180.17233
20180.11782
20179.93566
20179.65688
20179.33002
20179.0306
20178.84738
20178.73049
20178.5763
20178.42126
20178.28795
20178.23566
20178.38848
20178.66776
20178.88255
20178.9805
20178.96716
20178.89677
20178.91523
20179.04218
20179.13625
20179.16039
20179.16899
20179.18323
20179.19565
20179.20062
20179.1991
20179.19105
20179.16967
20179.12818
20179.06521
20178.98281
20178.8838
20178.77116
20178.647
20178.51658
20178.38825
20178.26767
20178.15785
20178.06175
20177.98333
20177.9271
20177.89731
20177.89731
20177.9293
20177.99423
20178.09191
20178.22121
20178.38018
20178.56628
20178.77654
20179.00768
20179.25622
20179.51855
20179.7909
20180.06943
20180.35015
20180.62896
20180.9017
20181.16422
20181.41254
20181.64298
20181.85244
20182.03847
20182.1995
20182.33486
20182.44477
20182.53032
20182.59325
20182.63585
20182.66067
20182.67041
20182.66768
20182.65493
20182.63426
20182.60748
20182.57607
20182.54122
20182.50395
20182.46512
20182.42546
20182.38562
20182.34609
20182.30724
20182.2693
20182.23238
20182.1965
20182.16163
20182.12772
20182.09471
20182.06259
20182.03134
20182.00097
20181.97146
20181.94284
20181.91505
20181.88812
20181.86197
20181.83662
20181.81192
20181.78782
20181.76408
20181.74062
20181.71717
20181.69374
20181.67024
20181.6468
20181.62348
20181.60044
20181.57771
20181.55532
20181.53325
20181.51143
20181.48983
20181.46842
20181.44727
20181.42635
20181.40573
20181.38524
20181.3648
20181.34413
20181.32317
20181.30163
20181.2797
20181.25715
20181.23429
20181.21084
20181.18687
20181.16196
20181.13597
20181.10765
20181.07467
20181.07467
20183.18114
20183.18114
20183.1786
20183.17493
20183.17168
20183.16999
20183.17059
20183.1739
20183.17997
20183.18854
20183.19908
20183.211
20183.22375
20183.23691
20183.25017
20183.26322
20183.27572
20183.28715
20183.29651
20183.30176
20183.29704
20183.28243
20183.25551
20183.24596
20183.27035
20183.31465
20183.3057
20183.17509
20182.99898
20182.80942
20182.61282
20182.41134
20182.206
20181.99702
20181.78412
20181.56644
20181.34245
20181.10936
20180.86173
20180.59106
20180.2371
20179.94249
20179.81412
20179.83647
20179.91611
20179.90989
20179.83061
20179.7888
20179.83355
20179.94875
20180.05644
20180.08119
20179.9897
20179.82023
20179.63289
20179.45574
20179.29858
20179.1737
20179.08722
20179.04567
20179.05557
20179.12021
20179.23779
20179.39787
20179.58316
20179.76682
20179.91368
20179.98311
20179.94012
20179.77453
20179.5139
20179.21318
20178.94907
20178.79666
20178.68595
20178.51779
20178.35299