# vtk DataFile Version 2.0
FlowField
ASCII
DATASET STRUCTURED_GRID
DIMENSIONS 200 1 200
POINTS 40000 float
0 0 0
0.15 0 0
0.3 0 0
0.45 0 0
0.6 0 0
0.75 0 0
0.9 0 0
1.05 0 0
1.2 0 0
1.35 0 0
1.5 0 0
1.65 0 0
1.8 0 0
1.95 0 0
2.1 0 0
2.25 0 0
2.4 0 0
2.55 0 0
2.7 0 0
2.85 0 0
3 0 0
3.15 0 0
3.3 0 0
3.45 0 0
3.6 0 0
3.75 0 0
3.9 0 0
4.05 0 0
4.2 0 0
4.35 0 0
4.5 0 0
4.65 0 0
4.8 0 0
4.95 0 0
5.1 0 0
5.25 0 0
5.4 0 0
5.55 0 0
5.7 0 0
5.85 0 0
6 0 0
6.15 0 0
6.3 0 0
6.45 0 0
6.6 0 0
6.75 0 0
6.9 0 0
7.05 0 0
7.2 0 0
7.35 0 0
7.5 0 0
7.65 0 0
7.8 0 0
7.95 0 0
8.1 0 0
8.25 0 0
8.4 0 0
8.55 0 0
8.7 0 0
8.85 0 0
9 0 0
9.15 0 0
9.3 0 0
9.45 0 0
9.6 0 0
9.75 0 0
9.9 0 0
10.05 0 0
10.2 0 0
10.35 0 0
10.5 0 0
10.65 0 0
10.8 0 0
10.95 0 0
11.1 0 0
11.25 0 0
11.4 0 0
11.55 0 0
11.7 0 0
11.85 0 0
12 0 0
12.15 0 0
12.3 0 0
12.45 0 0
12.6 0 0
12.75 0 0
12.9 0 0
13.05 0 0
13.2 0 0
13.35 0 0
13.5 0 0
13.65 0 0
13.8 0 0
13.95 0 0
14.1 0 0
14.25 0 0
14.4 0 0
14.55 0 0
14.7 0 0
14.85 0 0
15 0 0
15.15 0 0
15.3 0 0
15.45 0 0
15.6 0 0
15.75 0 0
15.9 0 0
16.05 0 0
16.2 0 0
16.35 0 0
16.5 0 0
16.65 0 0
16.8 0 0
16.95 0 0
17.1 0 0
17.25 0 0
17.4 0 0
17.55 0 0
17.7 0 0
17.85 0 0
18 0 0
18.15 0 0
18.3 0 0
18.45 0 0
18.6 0 0
18.75 0 0
18.9 0 0
19.05 0 0
19.2 0 0
19.35 0 0
19.5 0 0
19.65 0 0
19.8 0 0
19.95 0 0
20.1 0 0
20.25 0 0
20.4 0 0
20.55 0 0
20.7 0 0
20.85 0 0
21 0 0
21.15 0 0
21.3 0 0
21.45 0 0
21.6 0 0
21.75 0 0
21.9 0 0
22.05 0 0
22.2 0 0
22.35 0 0
22.5 0 0
22.65 0 0
22.8 0 0
22.95 0 0
23.1 0 0
23.25 0 0
23.4 0 0
23.55 0 0
23.7 0 0
23.85 0 0
24 0 0
24.15 0 0
24.3 0 0
24.45 0 0
24.6 0 0
24.75 0 0
24.9 0 0
25.05 0 0
25.2 0 0
25.35 0 0
25.5 0 0
25.65 0 0
25.8 0 0
25.95 0 0
26.1 0 0
26.25 0 0
26.4 0 0
26.55 0 0
26.7 0 0
26.85 0 0
27 0 0
27.15 0 0
27.3 0 0
27.45 0 0
27.6 0 0
27.75 0 0
27.9 0 0
28.05 0 0
28.2 0 0
28.35 0 0
28.5 0 0
28.65 0 0
28.8 0 0
28.95 0 0
29.1 0 0
29.25 0 0
29.4 0 0
29.55 0 0
29.7 0 0
29.85 0 0
0 0.075 0
0.15 0.075 0
0.3 0.075 0
0.45 0.075 0
0.6 0.075 0
0.75 0.075 0
0.9 0.075 0
1.05 0.075 0
1.2 0.075 0
1.35 0.075 0
1.5 0.075 0
1.65 0.075 0
1.8 0.075 0
1.95 0.075 0
2.1 0.075 0
2.25 0.075 0
2.4 0.075 0
2.55 0.075 0
2.7 0.075 0
2.85 0.075 0
3 0.075 0
3.15 0.075 0
3.3 0.075 0
3.45 0.075 0
3.6 0.075 0
3.75 0.075 0
3.9 0.075 0
4.05 0.075 0
4.2 0.075 0
4.35 0.075 0
4.5 0.075 0
4.65 0.075 0
4.8 0.075 0
4.95 0.075 0
5.1 0.075 0
5.25 0.075 0
5.4 0.075 0
5.55 0.075 0
5.7 0.075 0
5.85 0.075 0
6 0.075 0
6.15 0.075 0
6.3 0.075 0
6.45 0.075 0
6.6 0.075 0
6.75 0.075 0
6.9 0.075 0
7.05 0.075 0
7.2 0.075 0
7.35 0.075 0
7.5 0.075 0
7.65 0.075 0
7.8 0.075 0
7.95 0.075 0
8.1 0.075 0
8.25 0.075 0
8.4 0.075 0
8.55 0.075 0
8.7 0.075 0
8.85 0.075 0
9 0.075 0
9.15 0.075 0
9.3 0.075 0
9.45 0.075 0
9.6 0.075 0
9.75 0.075 0
9.9 0.075 0
10.05 0.075 0
10.2 0.075 0
10.35 0.075 0
10.5 0.075 0
10.65 0.075 0
10.8 0.075 0
10.95 0.075 0
11.1 0.075 0
11.25 0.075 0
11.4 0.075 0
11.55 0.075 0
11.7 0.075 0
11.85 0.075 0
12 0.075 0
12.15 0.075 0
12.3 0.075 0
12.45 0.075 0
12.6 0.075 0
12.75 0.075 0
12.9 0.075 0
13.05 0.075 0
13.2 0.075 0
13.35 0.075 0
13.5 0.075 0
13.65 0.075 0
13.8 0.075 0
13.95 0.075 0
14.1 0.075 0
14.25 0.075 0
14.4 0.075 0
14.55 0.075 0
14.7 0.075 0
14.85 0.075 0
15 0.075 0
15.15 0.075 0
15.3 0.075 0
15.45 0.075 0
15.6 0.075 0
15.75 0.075 0
15.9 0.075 0
16.05 0.075 0
16.2 0.075 0
16.35 0.075 0
16.5 0.075 0
16.65 0.075 0
16.8 0.075 0
16.95 0.075 0
17.1 0.075 0
17.25 0.075 0
17.4 0.075 0
17.55 0.075 0
17.7 0.075 0
17.85 0.075 0
18 0.075 0
18.15 0.075 0
18.3 0.075 0
18.45 0.075 0
18.6 0.075 0
18.75 0.075 0
18.9 0.075 0
19.05 0.075 0
19.2 0.075 0
19.35 0.075 0
19.5 0.075 0
19.65 0.075 0
19.8 0.075 0
19.95 0.075 0
20.1 0.075 0
20.25 0.075 0
20.4 0.075 0
20.55 0.075 0
20.7 0.075 0
20.85 0.075 0
21 0.075 0
21.15 0.075 0
21.3 0.075 0
21.45 0.075 0
21.6 0.075 0
21.75 0.075 0
21.9 0.075 0
22.05 0.075 0
22.2 0.075 0
22.35 0.075 0
22.5 0.075 0
22.65 0.075 0
22.8 0.075 0
22.95 0.075 0
23.1 0.075 0
23.25 0.075 0
23.4 0.075 0
23.55 0.075 0
23.7 0.075 0
23.85 0.075 0
24 0.075 0
24.15 0.075 0
24.3 0.075 0
24.45 0.075 0
24.6 0.075 0
24.75 0.075 0
24.9 0.075 0
25.05 0.075 0
25.2 0.075 0
25.35 0.075 0
25.5 0.075 0
25.65 0.075 0
25.8 0.075 0
25.95 0.075 0
26.1 0.075 0
26.25 0.075 0
26.4 0.075 0
26.55 0.075 0
26.7 0.075 0
26.85 0.075 0
27 0.075 0
27.15 0.075 0
27.3 0.075 0
27.45 0.075 0
27.6 0.075 0
27.75 0.075 0
27.9 0.075 0
28.05 0.075 0
28.2 0.075 0
28.35 0.075 0
28.5 0.075 0
28.65 0.075 0
28.8 0.075 0
28.95 0.075 0
29.1 0.075 0
29.25 0.075 0
29.4 0.075 0
29.55 0.075 0
29.7 0.075 0
29.85 0.075 0
0 0.15 0
0.15 0.15 0
0.3 0.15 0
0.45 0.15 0
0.6 0.15 0
0.75 0.15 0
0.9 0.15 0
1.05 0.15 0
1.2 0.15 0
1.35 0.15 0
1.5 0.15 0
1.65 0.15 0
1.8 0.15 0
1.95 0.15 0
2.1 0.15 0
2.25 0.15 0
2.4 0.15 0
2.55 0.15 0
2.7 0.15 0
2.85 0.15 0
3 0.15 0
3.15 0.15 0
3.3 0.15 0
3.45 0.15 0
3.6 0.15 0
3.75 0.15 0
3.9 0.15 0
4.05 0.15 0
4.2 0.15 0
4.35 0.15 0
4.5 0.15 0
4.65 0.15 0
4.8 0.15 0
4.95 0.15 0
5.1 0.15 0
5.25 0.15 0
5.4 0.15 0
5.55 0.15 0
5.7 0.15 0
5.85 0.15 0
6 0.15 0
6.15 0.15 0
6.3 0.15 0
6.45 0.15 0
6.6 0.15 0
6.75 0.15 0
6.9 0.15 0
7.05 0.15 0
7.2 0.15 0
7.35 0.15 0
7.5 0.15 0
7.65 0.15 0
7.8 0.15 0
7.95 0.15 0
8.1 0.15 0
8.25 0.15 0
8.4 0.15 0
8.55 0.15 0
8.7 0.15 0
8.85 0.15 0
9 0.15 0
9.15 0.15 0
9.3 0.15 0
9.45 0.15 0
9.6 0.15 0
9.75 0.15 0
9.9 0.15 0
10.05 0.15 0
10.2 0.15 0
10.35 0.15 0
10.5 0.15 0
10.65 0.15 0
10.8 0.15 0
10.95 0.15 0
11.1 0.15 0
11.25 0.15 0
11.4 0.15 0
11.55 0.15 0
11.7 0.15 0
11.85 0.15 0
12 0.15 0
12.15 0.15 0
12.3 0.15 0
12.45 0.15 0
12.6 0.15 0
12.75 0.15 0
12.9 0.15 0
13.05 0.15 0
13.2 0.15 0
13.35 0.15 0
13.5 0.15 0
13.65 0.15 0
13.8 0.15 0
13.95 0.15 0
14.1 0.15 0
14.25 0.15 0
14.4 0.15 0
14.55 0.15 0
14.7 0.15 0
14.85 0.15 0
15 0.15 0
15.15 0.15 0
15.3 0.15 0
15.45 0.15 0
15.6 0.15 0
15.75 0.15 0
15.9 0.15 0
16.05 0.15 0
16.2 0.15 0
16.35 0.15 0
16.5 0.15 0
16.65 0.15 0
16.8 0.15 0
16.95 0.15 0
17.1 0.15 0
17.25 0.15 0
17.4 0.15 0
17.55 0.15 0
17.7 0.15 0
17.85 0.15 0
18 0.15 0
18.15 0.15 0
18.3 0.15 0
18.45 0.15 0
18.6 0.15 0
18.75 0.15 0
18.9 0.15 0
19.05 0.15 0
19.2 0.15 0
19.35 0.15 0
19.5 0.15 0
19.65 0.15 0
19.8 0.15 0
19.95 0.15 0
20.1 0.15 0
20.25 0.15 0
20.4 0.15 0
20.55 0.15 0
20.7 0.15 0
20.85 0.15 0
21 0.15 0
21.15 0.15 0
21.3 0.15 0
21.45 0.15 0
21.6 0.15 0
21.75 0.15 0
21.9 0.15 0
22.05 0.15 0
22.2 0.15 0
22.35 0.15 0
22.5 0.15 0
22.65 0.15 0
22.8 0.15 0
22.95 0.15 0
23.1 0.15 0
23.25 0.15 0
23.4 0.15 0
23.55 0.15 0
23.7 0.15 0
23.85 0.15 0
24 0.15 0
24.15 0.15 0
24.3 0.15 0
24.45 0.15 0
24.6 0.15 0
24.75 0.15 0
24.9 0.15 0
25.05 0.15 0
25.2 0.15 0
25.35 0.15 0
25.5 0.15 0
25.65 0.15 0
25.8 0.15 0
25.95 0.15 0
26.1 0.15 0
26.25 0.15 0
26.4 0.15 0
26.55 0.15 0
26.7 0.15 0
26.85 0.15 0
27 0.15 0
27.15 0.15 0
27.3 0.15 0
27.45 0.15 0
27.6 0.15 0
27.75 0.15 0
27.9 0.15 0
28.05 0.15 0
28.2 0.15 0
28.35 0.15 0
28.5 0.15 0
28.65 0.15 0
28.8 0.15 0
28.95 0.15 0
29.1 0.15 0
29.25 0.15 0
29.4 0.15 0
29.55 0.15 0
29.7 0.15 0
29.85 0.15 0
0 0.225 0
0.15 0.225 0
0.3 0.225 0
0.45 0.225 0
0.6 0.225 0
0.75 0.225 0
0.9 0.225 0
1.05 0.225 0
1.2 0.225 0
1.35 0.225 0
1.5 0.225 0
1.65 0.225 0
1.8 0.225 0
1.95 0.225 0
2.1 0.225 0
2.25 0.225 0
2.4 0.225 0
2.55 0.225 0
2.7 0.225 0
2.85 0.225 0
3 0.225 0
3.15 0.225 0
3.3 0.225 0
3.45 0.225 0
3.6 0.225 0
3.75 0.225 0
3.9 0.225 0
4.05 0.225 0
4.2 0.225 0
4.35 0.225 0
4.5 0.225 0
4.65 0.225 0
4.8 0.225 0
4.95 0.225 0
5.1 0.225 0
5.25 0.225 0
5.4 0.225 0
5.55 0.225 0
5.7 0.225 0
5.85 0.225 0
6 0.225 0
6.15 0.225 0
6.3 0.225 0
6.45 0.225 0
6.6 0.225 0
6.75 0.225 0
6.9 0.225 0
7.05 0.225 0
7.2 0.225 0
7.35 0.225 0
7.5 0.225 0
7.65 0.225 0
7.8 0.225 0
7.95 0.225 0
8.1 0.225 0
8.25 0.225 0
8.4 0.225 0
8.55 0.225 0
8.7 0.225 0
8.85 0.225 0
9 0.225 0
9.15 0.225 0
9.3 0.225 0
9.45 0.225 0
9.6 0.225 0
9.75 0.225 0
9.9 0.225 0
10.05 0.225 0
10.2 0.225 0
10.35 0.225 0
10.5 0.225 0
10.65 0.225 0
10.8 0.225 0
10.95 0.225 0
11.1 0.225 0
11.25 0.225 0
11.4 0.225 0
11.55 0.225 0
11.7 0.225 0
11.85 0.225 0
12 0.225 0
12.15 0.225 0
12.3 0.225 0
12.45 0.225 0
12.6 0.225 0
12.75 0.225 0
12.9 0.225 0
13.05 0.225 0
13.2 0.225 0
13.35 0.225 0
13.5 0.225 0
13.65 0.225 0
13.8 0.225 0
13.95 0.225 0
14.1 0.225 0
14.25 0.225 0
14.4 0.225 0
14.55 0.225 0
14.7 0.225 0
14.85 0.225 0
15 0.225 0
15.15 0.225 0
15.3 0.225 0
15.45 0.225 0
15.6 0.225 0
15.75 0.225 0
15.9 0.225 0
16.05 0.225 0
16.2 0.225 0
16.35 0.225 0
16.5 0.225 0
16.65 0.225 0
16.8 0.225 0
16.95 0.225 0
17.1 0.225 0
17.25 0.225 0
17.4 0.225 0
17.55 0.225 0
17.7 0.225 0
17.85 0.225 0
18 0.225 0
18.15 0.225 0
18.3 0.225 0
18.45 0.225 0
18.6 0.225 0
18.75 0.225 0
18.9 0.225 0
19.05 0.225 0
19.2 0.225 0
19.35 0.225 0
19.5 0.225 0
19.65 0.225 0
19.8 0.225 0
19.95 0.225 0
20.1 0.225 0
20.25 0.225 0
20.4 0.225 0
20.55 0.225 0
20.7 0.225 0
20.85 0.225 0
21 0.225 0
21.15 0.225 0
21.3 0.225 0
21.45 0.225 0
21.6 0.225 0
21.75 0.225 0
21.9 0.225 0
22.05 0.225 0
22.2 0.225 0
22.35 0.225 0
22.5 0.225 0
22.65 0.225 0
22.8 0.225 0
22.95 0.225 0
23.1 0.225 0
23.25 0.225 0
23.4 0.225 0
23.55 0.225 0
23.7 0.225 0
23.85 0.225 0
24 0.225 0
24.15 0.225 0
24.3 0.225 0
24.45 0.225 0
24.6 0.225 0
24.75 0.225 0
24.9 0.225 0
25.05 0.225 0
25.2 0.225 0
25.35 0.225 0
25.5 0.225 0
25.65 0.225 0
25.8 0.225 0
25.95 0.225 0
26.1 0.225 0
26.25 0.225 0
26.4 0.225 0
26.55 0.225 0
26.7 0.225 0
26.85 0.225 0
27 0.225 0
27.15 0.225 0
27.3 0.225 0
27.45 0.225 0
27.6 0.225 0
27.75 0.225 0
27.9 0.225 0
28.05 0.225 0
28.2 0.225 0
28.35 0.225 0
28.5 0.225 0
28.65 0.225 0
28.8 0.225 0
28.95 0.225 0
29.1 0.225 0
29.25 0.225 0
29.4 0.225 0
29.55 0.225 0
29.7 0.225 0
29.85 0.225 0
0 0.3 0
0.15 0.3 0
0.3 0.3 0
0.45 0.3 0
0.6 0.3 0
0.75 0.3 0
0.9 0.3 0
1.05 0.3 0
1.2 0.3 0
1.35 0.3 0
1.5 0.3 0
1.65 0.3 0
1.8 0.3 0
1.95 0.3 0
2.1 0.3 0
2.25 0.3 0
2.4 0.3 0
2.55 0.3 0
2.7 0.3 0
2.85 0.3 0
3 0.3 0
3.15 0.3 0
3.3 0.3 0
3.45 0.3 0
3.6 0.3 0
3.75 0.3 0
3.9 0.3 0
4.05 0.3 0
4.2 0.3 0
4.35 0.3 0
4.5 0.3 0
4.65 0.3 0
4.8 0.3 0
4.95 0.3 0
5.1 0.3 0
5.25 0.3 0
5.4 0.3 0
5.55 0.3 0
5.7 0.3 0
5.85 0.3 0
6 0.3 0
6.15 0.3 0
[...]
POINT_DATA 40000

SCALARS p float 1
LOOKUP_TABLE default
20183.33164
20183.33164
20183.27635
20183.24888
20183.23087
20183.21841
20183.21169
20183.21201
20183.21953
20183.23236
20183.24745
20183.26218
20183.27522
20183.28645
20183.2962
20183.30447
20183.31121
20183.31663
20183.32098
20183.3231
20183.3198
20183.30937
20183.27981
20183.22848
20183.29583
20183.706
20183.59078
20183.23637
20182.99808
20182.78819
20182.58372
20182.37779
20182.16803
20181.95336
20181.73287
20181.50541
20181.26949
20181.0233
20180.76542
20180.49744
20180.23317
20180.09592
20180.13824
20180.27041
20180.11766
20179.91063
20179.84259
20179.82179
20179.81927
20179.81194
20179.77814
20179.71727
20179.63524
20179.55118
20179.46363
20179.37804
20179.31751
20179.30516
20179.35559
20179.47483
20179.66258
20179.9108
20180.20078
20180.50302
20180.77925
20180.98757
20181.0998
20181.08069
20180.81154
20180.46556
20180.23817
20180.09205
20179.94098
20179.78853
20179.73324
20179.73187
20179.70859
20179.62847
20179.52103
20179.46989
20179.51303
20179.57101
20179.58939
20179.57945
20179.56294
20179.55112
20179.54797
20179.55208
20179.55794
20179.56043
20179.55768
20179.54725
20179.51976
20179.48677
20179.423
20179.28985
20179.16174
20179.06741
20178.97187
20178.86085
20178.74689
20178.64835
20178.57893
20178.54625
20178.55333
20178.60026
20178.6854
20178.80614
20178.9593
20179.14137
20179.34868
20179.57745
20179.82384
20180.08392
20180.3536
20180.62858
20180.90418
20181.17538
20181.43692
20181.68353
20181.91008
20182.11202
20182.28608
20182.43021
20182.54402
20182.62862
20182.68635
20182.72042
20182.73443
20182.73207
20182.7168
20182.69178
20182.65979
20182.62322
20182.58407
20182.54388
20182.50375
20182.46438
20182.42612
20182.38916
20182.35354
20182.31933
20182.2866
20182.2554
20182.22576
20182.19769
20182.17111
20182.14594
20182.12207
20182.09939
20182.0778
20182.05725
20182.03771
20182.01922
20182.00174
20181.98518
20181.96935
20181.95408
20181.93926
20181.92484
20181.91092
20181.89777
20181.88565
20181.87465
20181.86469
20181.85558
20181.8472
20181.83952
20181.83257
20181.82637
20181.82095
20181.81628
20181.81227
20181.80877
20181.80567
20181.80293
20181.80054
20181.79852
20181.7968
20181.79531
20181.79388
20181.79242
20181.79086
20181.78937
20181.78819
20181.78774
20181.78834
20181.79031
20181.7936
20181.7981
20181.80327
20181.80876
20181.81387
20181.81853
20181.82232
20181.82561
20181.82837
20181.83099
20181.83409
20181.83409
20183.33164
20183.33164
20183.27635
20183.24888
20183.23087
20183.21841
20183.21169
20183.21201
20183.21953
20183.23236
20183.24745
20183.26218
20183.27522
20183.28645
20183.2962
20183.30447
20183.31121
20183.31663
20183.32098
20183.3231
20183.3198
20183.30937
20183.27981
20183.22848
20183.29583
20183.706
20183.59078
20183.23637
20182.99808
20182.78819
20182.58372
20182.37779
20182.16803
20181.95336
20181.73287
20181.50541
20181.26949
20181.0233
20180.76542
20180.49744
20180.23317
20180.09592
20180.13824
20180.27041
20180.11766
20179.91063
20179.84259
20179.82179
20179.81927
20179.81194
20179.77814
20179.71727
20179.63524
20179.55118
20179.46363
20179.37804
20179.31751
20179.30516
20179.35559
20179.47483
20179.66258
20179.9108
20180.20078
20180.50302
20180.77925
20180.98757
20181.0998
20181.08069
20180.81154
20180.46556
20180.23817
20180.09205
20179.94098
20179.78853
20179.73324
20179.73187
20179.70859
20179.62847
20179.52103
20179.46989
20179.51303
20179.57101
20179.58939
20179.57945
20179.56294
20179.55112
20179.54797
20179.55208
20179.55794
20179.56043
20179.55768
20179.54725
20179.51976
20179.48677
20179.423
20179.28985
20179.16174
20179.06741
20178.97187
20178.86085
20178.74689
20178.64835
20178.57893
20178.54625
20178.55333
20178.60026
20178.6854
20178.80614
20178.9593
20179.14137
20179.34868
20179.57745
20179.82384
20180.08392
20180.3536
20180.62858
20180.90418
20181.17538
20181.43692
20181.68353
20181.91008
20182.11202
20182.28608
20182.43021
20182.54402
20182.62862
20182.68635
20182.72042
20182.73443
20182.73207
20182.7168
20182.69178
20182.65979
20182.62322
20182.58407
20182.54388
20182.50375
20182.46438
20182.42612
20182.38916
20182.35354
20182.31933
20182.2866
20182.2554
20182.22576
20182.19769
20182.17111
20182.14594
20182.12207
20182.09939
20182.0778
20182.05725
20182.03771
20182.01922
20182.00174
20181.98518
20181.96935
20181.95408
20181.93926
20181.92484
20181.91092
20181.89777
20181.88565
20181.87465
20181.86469
20181.85558
20181.8472
20181.83952
20181.83257
20181.82637
20181.82095
20181.81628
20181.81227
20181.80877
20181.80567
20181.80293
20181.80054
20181.79852
20181.7968
20181.79531
20181.79388
20181.79242
20181.79086
20181.78937
20181.78819
20181.78774
20181.78834
20181.79031
20181.7936
20181.7981
20181.80327
20181.80876
20181.81387
20181.81853
20181.82232
20181.82561
20181.82837
20181.83099
20181.83409
20181.83409
20183.29899
20183.29899
20183.26724
20183.24436
20183.22839
20183.21751
20183.21206
20183.21314
20183.22089
20183.23364
20183.24857
20183.26317
20183.27612
20183.28727
20183.29695
20183.30511
20183.31169
20183.31694
20183.32125
20183.32388
20183.32214
20183.30934
20183.26194
20183.18939
20183.20654
20183.49774
20183.45769
20183.20815
20182.99126
20182.7869
20182.58409
20182.37872
20182.16924
20181.95479
20181.73457
20181.50749
20181.27201
20181.02616
20180.76787
20180.49653
20180.21883
20180.08356
20180.08352
20180.17723
20180.04774
20179.863
20179.81825
20179.81967
20179.82416
20179.81579
20179.78079
20179.72237
20179.63828
20179.54483
20179.44809
20179.35682
20179.29341
20179.28002
20179.33063
20179.45049
20179.63831
20179.88598
20180.17604
20180.48005
20180.75858
20180.96447
20181.05727
20181.00669
20180.75551
20180.42407
20180.21018
20180.06294
20179.90673
20179.76768
20179.7288
20179.73625
20179.71768
20179.62799
20179.50232
20179.44198
20179.49237
20179.56379
20179.58848
20179.57927
20179.56263
20179.5506
20179.54715
20179.55125
20179.55726
20179.55987
20179.55685
20179.5481
20179.52066
20179.4861
20179.43117
20179.30209
20179.16356
20179.05474
20178.94938
20178.83481
20178.72149
20178.62545
20178.55898
20178.52902
20178.53836
20178.5871
20178.67365
20178.79546
20178.94941
20179.13205
20179.33973
20179.56873
20179.81522
20180.07532
20180.34498
20180.61992
20180.89554
20181.16686
20181.42867
20181.67565
20181.90268
20182.10521
20182.27987
20182.42461
20182.53899
20182.62408
20182.68225
20182.7167
20182.73108
20182.72907
20182.71413
20182.68941
20182.65769
20182.62138
20182.58245
20182.54248
20182.50255
20182.46337
20182.42529
20182.38847
20182.35299
20182.31889
20182.28624
20182.25511
20182.22554
20182.19752
20182.171
20182.14589
20182.12207
20182.09944
20182.0779
20182.05737
20182.03786
20182.01939
20182.00194
20181.98541
20181.96962
20181.9544
20181.9396
20181.92517
20181.91122
20181.89803
20181.88588
20181.87488
20181.86492
20181.8558
20181.8474
20181.83969
20181.8327
20181.82646
20181.82101
20181.81633
20181.81232
20181.80881
20181.8057
20181.80293
20181.80051
20181.79847
20181.79676
20181.79529
20181.79388
20181.79242
20181.79084
20181.7893
20181.78803
20181.78749
20181.788
20181.78994
20181.79322
20181.79778
20181.803
20181.80858
20181.81374
20181.81843
20181.82218
20181.82542
20181.8281
20181.83069
20181.83406
20181.83406
20183.27324
20183.27324
20183.25393
20183.2363
20183.22311
20183.21431
20183.21041
20183.21227
20183.22
20183.23234
20183.24702
20183.26182
20183.27534
20183.28716
20183.29728
20183.30562
20183.31224
20183.31746
20183.32195
20183.32546
20183.32449
20183.30571
20183.23737
20183.15666
20183.14955
20183.3111
20183.32236
20183.17183
20182.98165
20182.78534
20182.58513
20182.3807
20182.17168
20181.95766
20181.738
20181.51166
20181.27712
20181.03211
20180.7735
20180.49676
20180.19184
20180.0185
20179.9974
20180.0677
20179.95206
20179.79053
20179.77656
20179.81561
20179.83641
20179.82546
20179.78201
20179.71392
20179.61852
20179.50987
20179.40003
20179.30183
20179.23606
20179.22251
20179.27376
20179.39434
20179.58241
20179.8298
20180.11995
20180.4251
20180.70525
20180.91228
20180.99658
20180.91191
20180.6599
20180.3573
20180.16098
20180.00685
20179.8431
20179.70331
20179.6923
20179.72744
20179.71563
20179.6073
20179.45224
20179.3797
20179.44534
20179.5421
20179.58035
20179.57458
20179.56009
20179.55028
20179.5478
20179.55187
20179.55751
20179.56018
20179.55689
20179.54903
20179.52668
20179.48084
20179.40834
20179.27683
20179.13038
20179.00441
20178.88697
20178.77031
20178.66165
20178.57293
20178.51391
20178.49048
20178.50515
20178.55809
20178.64791
20178.77222
20178.92805
20179.11207
20179.32072
20179.55033
20179.79719
20180.05746
20180.3272
20180.60222
20180.87801
20181.1497
20181.41213
20181.65996
20181.88802
20182.09176
20182.26765
20182.41356
20182.52898
20182.61496
20182.67387
20182.70897
20182.72394
20182.72249
20182.70809
20182.6839
20182.6527
20182.61688
20182.57844
20182.53894
20182.49946
20182.46068
20182.42296
20182.38646
20182.35125
20182.31738
20182.28492
20182.25395
20182.22451
20182.1966
20182.17016
20182.14511
20182.12136
20182.09879
20182.0773
20182.05681
20182.03731
20182.01884
20182.00139
20181.98488
20181.96913
20181.95397
20181.93926
20181.92492
20181.91105
20181.89792
20181.88585
20181.87493
20181.86503
20181.85595
20181.84755
20181.83982
20181.83281
20181.82655
20181.8211
20181.81643
20181.81243
20181.80893
20181.80579
20181.80297
20181.80051
20181.79845
20181.79674
20181.7953
20181.79392
20181.79248
20181.79087
20181.78925
20181.78785
20181.78719
20181.78759
20181.78949
20181.79278
20181.79746
20181.80279
20181.80853
20181.81371
20181.81843
20181.82202
20181.82508
20181.82741
20181.82974
20181.8331
20181.8331
20183.25248
20183.25248
20183.24022
20183.22694
20183.21634
20183.20939
20183.20678
20183.20916
20183.21662
20183.22823
20183.24232
20183.25709
20183.27122
20183.28408
20183.29534
20183.30472
20183.31212
20183.31781
20183.3227
20183.32688
20183.32533
20183.30069
20183.22191
20183.15301
20183.14984
20183.23147
20183.24981
20183.14548
20182.97431
20182.785
20182.58732
20182.38386
20182.1754
20181.96196
20181.74311
20181.51792
20181.28486
20181.04145
20180.78345
20180.50243
20180.16863
20179.94793
20179.91832
20179.98093
20179.87741
20179.73654
20179.73948
20179.80602
20179.84284
20179.82685
20179.76881
20179.68149
20179.56797
20179.4428
20179.32073
20179.21661
20179.14935
20179.13613
20179.18788
20179.30847
20179.49582
20179.74182
20180.03037
20180.3337
20180.61129
20180.81667
20180.90228
20180.81436
20180.56894
20180.29639
20180.10124
20179.93142
20179.74433
20179.58624
20179.60127
20179.67705
20179.67918
20179.55656
20179.37367
20179.28983
20179.37502
20179.50551
20179.56414
20179.56507
20179.55499
20179.55002
20179.55002
20179.55418
20179.55883
20179.56078
20179.55895
20179.54533
20179.50961
20179.44323
20179.34535
20179.20622
20179.0561
20178.92122
20178.79861
20178.68451
20178.58367
20178.50457
20178.45479
20178.43929
20178.46041
20178.51844
20178.61222
20178.73956
20178.89767
20179.08334
20179.2931
20179.5234
20179.77058
20180.03093
20180.30062
20180.57559
20180.85147
20181.12353
20181.38668
20181.63562
20181.8651
20182.07051
20182.24814
20182.39576
20182.51274
20182.60008
20182.66014
20182.69623
20182.71211
20182.71154
20182.69802
20182.67468
20182.64431
20182.6093
20182.57165
20182.5329
20182.49413
20182.45599
20182.41883
20182.38282
20182.34803
20182.31453
20182.2824
20182.25171
20182.2225
20182.19476
20182.16844
20182.14348
20182.11979
20182.09728
20182.07584
20182.05539
20182.03591
20182.01742
20181.99994
20181.9834
20181.96767
20181.9526
20181.93802
20181.92387
20181.91021
20181.8973
20181.88541
20181.87466
20181.8649
20181.85592
20181.84758
20181.83988
20181.83289
20181.82666
20181.82125
20181.81663
20181.81269
20181.80922
20181.80605
20181.80317
20181.80064
20181.79855
20181.79684
20181.79544
20181.79411
20181.79272
20181.79108
20181.78938
20181.78784
20181.78705
20181.78731
20181.7892
20181.7925
20181.79734
20181.80278
20181.8087
20181.81388
20181.81857
20181.82189
20181.82456
20181.82624
20181.8277
20181.83
20181.83
20183.23494
20183.23494
20183.22688
20183.21703
20183.20874
20183.20338
20183.20176
20183.20444
20183.21146
20183.22217
20183.23535
20183.24963
20183.26392
20183.27754
20183.29001
20183.30087
20183.30982
20183.31685
20183.32254
20183.32677
20183.32361
20183.2969
20183.22015
20183.16625
20183.17206
20183.22069
20183.23176
20183.13548
20182.97249
20182.78714
20182.59107
20182.38832
20182.18038
20181.96765
20181.74985
20181.5262
20181.29524
20181.05442
20180.79887
20180.51796
20180.16648
20179.91177
20179.87934
20179.93942
20179.8455
20179.71425
20179.715
20179.78744
20179.8304
20179.80692
20179.73095
20179.62139
20179.48866
20179.34807
20179.21541
20179.10637
20179.03795
20179.02485
20179.07634
20179.1957
20179.3809
20179.62411
20179.90975
20180.21013
20180.48484
20180.68614
20180.7692
20180.69646
20180.47945
20180.23076
20180.03731
20179.84109
20179.60992
20179.42862
20179.45619
20179.57397
20179.60038
20179.47851
20179.28309
20179.19481
20179.29903
20179.46286
20179.54382
20179.55361
20179.54865
20179.54908
20179.55265
20179.55741
20179.56135
20179.56143
20179.55128
20179.51995
20179.45883
20179.36671
20179.24849
20179.10521
20178.95687
20178.82113
20178.69923
20178.59022
20178.49773
20178.42807
20178.38726
20178.37956
20178.40713
20178.47036
20178.56824
20178.69878
20178.85931
20179.04671
20179.25763
20179.48858
20179.73599
20179.99627
20180.26571
20180.54044
20180.81626
20181.08862
20181.35254
20181.60275
20181.83398
20182.04147
20182.22137
20182.37126
20182.49035
20182.57954
20182.64118
20182.67864
20182.69576
20182.69638
20182.68404
20182.66187
20182.63265
20182.59875
20182.56218
20182.52444
20182.48662
20182.44934
20182.41294
20182.37757
20182.34334
20182.31035
20182.27867
20182.24839
20182.21951
20182.19203
20182.1659
20182.14106
20182.11745
20182.095
20182.07361
20182.05321
20182.03375
20182.01527
20181.99776
20181.9812
20181.96547
20181.95045
20181.93601
20181.92207
20181.9087
20181.89609
20181.88449
20181.87397
20181.8644
20181.85559
20181.84738
20181.83979
20181.83287
20181.82672
20181.8214
20181.81688
20181.81302
20181.8096
20181.80643
20181.80353
20181.80095
20181.79885
20181.79717
20181.79585
20181.7946
20181.79328
20181.79165
20181.78992
20181.78824
20181.78734
20181.78746
20181.78934
20181.79263
20181.79764
20181.80316
20181.80926
20181.81439
20181.81898
20181.82193
20181.82398
20181.82469
20181.82446
20181.82394
20181.82394
20183.2195
20183.2195
20183.21407
20183.20685
20183.20053
20183.19656
20183.19575
20183.19862
20183.2052
20183.21503
20183.22719
20183.24067
20183.25461
20183.26841
20183.2816
20183.29371
20183.30432
20183.31314
20183.32004
20183.32404
20183.31942
20183.29441
20183.23057
20183.19148
20183.20561
20183.24588
20183.24681
20183.14096
20182.97732
20182.79243
20182.59665
20182.39413
20182.1866
20181.97464
20181.75812
20181.53639
20181.30817
20181.0711
20180.82037
20180.54578
20180.19352
20179.92637
20179.89556
20179.95286
20179.86403
20179.72941
20179.70972
20179.76859
20179.80251
20179.76508
20179.66917
20179.53782
20179.38637
20179.23158
20179.08973
20178.97647
20178.90684
20178.89324
20178.94345
20179.06028
20179.24166
20179.48025
20179.7612
20180.05769
20180.33126
20180.53365
20180.61782
20180.55805
20180.37008
20180.14673
20179.95632
20179.73369
20179.45214
20179.24132
20179.27567
20179.43151
20179.49143
20179.38948
20179.20431
20179.12191
20179.23847
20179.42459
20179.52348
20179.54207
20179.54189
20179.54711
20179.55491
20179.56109
20179.56226
20179.55288
20179.52257
20179.46337
20179.37524
20179.26326
20179.13372
20178.99053
20178.84665
20178.71387
20178.59529
20178.49191
20178.40706
20178.3458
20178.31311
20178.31265
20178.34639
20178.41472
20178.51674
20178.65056
20178.8136
20179.00283
20179.21495
20179.44654
20179.6941
20179.95415
20180.22315
20180.49741
20180.77297
20181.04547
20181.31011
20181.56169
20181.79491
20182.00486
20182.18751
20182.3402
20182.46195
20182.55354
20182.61724
20182.65647
20182.67517
20182.67729
20182.66643
20182.64574
20182.61796
20182.58545
20182.55021
20182.51374
20182.47708
20182.44085
20182.40537
20182.3708
20182.33728
20182.30491
20182.2738
20182.24402
20182.21558
20182.18844
20182.16256
20182.1379
20182.11441
20182.09205
20182.07073
20182.05038
20182.03098
20182.01254
20181.99506
20181.9785
20181.96278
20181.94779
20181.93344
20181.9197
20181.90663
20181.89439
20181.88312
20181.87287
20181.86352
20181.8549
20181.84686
20181.83943
20181.83265
20181.82665
20181.82146
20181.81707
20181.8133
20181.80995
20181.80684
20181.80397
20181.80144
20181.79939
20181.7978
20181.79661
20181.79549
20181.79431
20181.79275
20181.79107
20181.78933
20181.78838
20181.78838
20181.79025
20181.7935
20181.79865
20181.80418
20181.81042
20181.81542
20181.81982
20181.82232
20181.82356
20181.82306
20181.82034
20181.81486
20181.81486
20183.20548
20183.20548
20183.20176
20183.19653
20183.19186
20183.18907
20183.18896
20183.19198
20183.1982
20183.20724
20183.21845
20183.23104
20183.24434
20183.25786
20183.27119
20183.28396
20183.29575
20183.30609
20183.31426
20183.31845
20183.31298
20183.29189
20183.24701
20183.22339
20183.24283
20183.28417
20183.27838
20183.15823
20182.98839
20182.80094
20182.6041
20182.40126
20182.19398
20181.98283
20181.76778
20181.54834
20181.32348
20181.09129
20180.84778
20180.58565
20180.24902
20179.98965
20179.96461
20180.0188
20179.93393
20179.79121
20179.73966
20179.76579
20179.77167
20179.70961
20179.59029
20179.43669
20179.26683
20179.09884
20178.94891
20178.83185
20178.76081
20178.74611
20178.7942
20178.90754
20179.08361
20179.31552
20179.58959
20179.88089
20180.15334
20180.35964
20180.4546
20180.41189
20180.242
20180.05272
20179.85602
20179.61261
20179.28934
20179.04685
20179.08485
20179.27452
20179.37447
20179.31044
20179.15784
20179.09185
20179.21094
20179.4003
20179.50511
20179.52796
20179.53226
20179.54346
20179.55651
20179.56229
20179.55452
20179.52474
20179.46596
20179.3794
20179.27104
20179.14714
20179.01262
20178.87143
20178.73221
20178.60338
20178.48879
20178.39073
20178.31257
20178.25865
20178.2332
20178.23939
20178.27897
20178.35228
20178.45844
20178.59562
20178.76128
20178.95244
20179.16584
20179.39807
20179.64574
20179.90544
20180.1738
20180.44734
20180.72237
20180.99481
20181.26004
20181.513
20181.74836
20181.96107
20182.14686
20182.30283
20182.4278
20182.52233
20182.58862
20182.63007
20182.65072
20182.65465
20182.64555
20182.62661
20182.60055
20182.56969
20182.53601
20182.50101
20182.4657
20182.43069
20182.39628
20182.36265
20182.32995
20182.29832
20182.26788
20182.2387
20182.21077
20182.18404
20182.15848
20182.13405
20182.11073
20182.0885
20182.06728
20182.04702
20182.0277
20182.00933
20181.99192
20181.97542
20181.95973
20181.94476
20181.93049
20181.91692
20181.90414
20181.89227
20181.88139
20181.87146
20181.86234
20181.85388
20181.84601
20181.83874
20181.83218
20181.82639
20181.82139
20181.81713
20181.81345
20181.81017
20181.80715
20181.80441
20181.80202
20181.80014
20181.79872
20181.79772
20181.79679
20181.79581
20181.79442
20181.79289
20181.79121
20181.79032
20181.79028
20181.79217
20181.79535
20181.80056
20181.80603
20181.8123
20181.81711
20181.82124
20181.82327
20181.82363
20181.82185
20181.81616
20181.80397
20181.80397
20183.19243
20183.19243
20183.18986
20183.18614
20183.18281
20183.18101
20183.1815
20183.18466
20183.19058
20183.19899
20183.20937
20183.22112
20183.2337
20183.2467
20183.2598
20183.27268
20183.28502
20183.29629
20183.30546
20183.31047
20183.30529
20183.29035
20183.26363
20183.255
20183.28031
20183.32552
20183.31638
20183.1834
20183.00447
20182.81225
20182.61321
20182.40955
20182.20237
20181.99208
20181.77868
20181.56182
20181.34086
20181.11454
20180.88014
20180.63511
20180.32647
20180.08957
20180.0736
20180.12586
20180.04797
20179.89998
20179.81166
20179.78727
20179.74655
20179.64846
20179.50085
20179.32345
20179.1355
20178.95533
20178.79836
20178.67805
20178.60563
20178.58955
20178.63509
20178.74423
20178.91378
20179.13736
20179.40265
20179.68734
20179.9577
20180.16906
20180.27855
20180.2586
20180.12003
20179.95403
20179.74141
20179.48912
20179.14145
20178.8742
20178.91177
20179.1287
20179.27101
20179.25763