# vtk DataFile Version 2.0
FlowField
ASCII
DATASET STRUCTURED_GRID
DIMENSIONS 200 1 200
POINTS 40000 float
0 0 0
0.15 0 0
0.3 0 0
0.45 0 0
0.6 0 0
0.75 0 0
0.9 0 0
1.05 0 0
1.2 0 0
1.35 0 0
1.5 0 0
1.65 0 0
1.8 0 0
1.95 0 0
2.1 0 0
2.25 0 0
2.4 0 0
2.55 0 0
2.7 0 0
2.85 0 0
3 0 0
3.15 0 0
3.3 0 0
3.45 0 0
3.6 0 0
3.75 0 0
3.9 0 0
4.05 0 0
4.2 0 0
4.35 0 0
4.5 0 0
4.65 0 0
4.8 0 0
4.95 0 0
5.1 0 0
5.25 0 0
5.4 0 0
5.55 0 0
5.7 0 0
5.85 0 0
6 0 0
6.15 0 0
6.3 0 0
6.45 0 0
6.6 0 0
6.75 0 0
6.9 0 0
7.05 0 0
7.2 0 0
7.35 0 0
7.5 0 0
7.65 0 0
7.8 0 0
7.95 0 0
8.1 0 0
8.25 0 0
8.4 0 0
8.55 0 0
8.7 0 0
8.85 0 0
9 0 0
9.15 0 0
9.3 0 0
9.45 0 0
9.6 0 0
9.75 0 0
9.9 0 0
10.05 0 0
10.2 0 0
10.35 0 0
10.5 0 0
10.65 0 0
10.8 0 0
10.95 0 0
11.1 0 0
11.25 0 0
11.4 0 0
11.55 0 0
11.7 0 0
11.85 0 0
12 0 0
12.15 0 0
12.3 0 0
12.45 0 0
12.6 0 0
12.75 0 0
12.9 0 0
13.05 0 0
13.2 0 0
13.35 0 0
13.5 0 0
13.65 0 0
13.8 0 0
13.95 0 0
14.1 0 0
14.25 0 0
14.4 0 0
14.55 0 0
14.7 0 0
14.85 0 0
15 0 0
15.15 0 0
15.3 0 0
15.45 0 0
15.6 0 0
15.75 0 0
15.9 0 0
16.05 0 0
16.2 0 0
16.35 0 0
16.5 0 0
16.65 0 0
16.8 0 0
16.95 0 0
17.1 0 0
17.25 0 0
17.4 0 0
17.55 0 0
17.7 0 0
17.85 0 0
18 0 0
18.15 0 0
18.3 0 0
18.45 0 0
18.6 0 0
18.75 0 0
18.9 0 0
19.05 0 0
19.2 0 0
19.35 0 0
19.5 0 0
19.65 0 0
19.8 0 0
19.95 0 0
20.1 0 0
20.25 0 0
20.4 0 0
20.55 0 0
20.7 0 0
20.85 0 0
21 0 0
21.15 0 0
21.3 0 0
21.45 0 0
21.6 0 0
21.75 0 0
21.9 0 0
22.05 0 0
22.2 0 0
22.35 0 0
22.5 0 0
22.65 0 0
22.8 0 0
22.95 0 0
23.1 0 0
23.25 0 0
23.4 0 0
23.55 0 0
23.7 0 0
23.85 0 0
24 0 0
24.15 0 0
24.3 0 0
24.45 0 0
24.6 0 0
24.75 0 0
24.9 0 0
25.05 0 0
25.2 0 0
25.35 0 0
25.5 0 0
25.65 0 0
25.8 0 0
25.95 0 0
26.1 0 0
26.25 0 0
26.4 0 0
26.55 0 0
26.7 0 0
26.85 0 0
27 0 0
27.15 0 0
27.3 0 0
27.45 0 0
27.6 0 0
27.75 0 0
27.9 0 0
28.05 0 0
28.2 0 0
28.35 0 0
28.5 0 0
28.65 0 0
28.8 0 0
28.95 0 0
29.1 0 0
29.25 0 0
29.4 0 0
29.55 0 0
29.7 0 0
29.85 0 0
0 0.075 0
0.15 0.075 0
0.3 0.075 0
0.45 0.075 0
0.6 0.075 0
0.75 0.075 0
0.9 0.075 0
1.05 0.075 0
1.2 0.075 0
1.35 0.075 0
1.5 0.075 0
1.65 0.075 0
1.8 0.075 0
1.95 0.075 0
2.1 0.075 0
2.25 0.075 0
2.4 0.075 0
2.55 0.075 0
2.7 0.075 0
2.85 0.075 0
3 0.075 0
3.15 0.075 0
3.3 0.075 0
3.45 0.075 0
3.6 0.075 0
3.75 0.075 0
3.9 0.075 0
4.05 0.075 0
4.2 0.075 0
4.35 0.075 0
4.5 0.075 0
4.65 0.075 0
4.8 0.075 0
4.95 0.075 0
5.1 0.075 0
5.25 0.075 0
5.4 0.075 0
5.55 0.075 0
5.7 0.075 0
5.85 0.075 0
6 0.075 0
6.15 0.075 0
6.3 0.075 0
6.45 0.075 0
6.6 0.075 0
6.75 0.075 0
6.9 0.075 0
7.05 0.075 0
7.2 0.075 0
7.35 0.075 0
7.5 0.075 0
7.65 0.075 0
7.8 0.075 0
7.95 0.075 0
8.1 0.075 0
8.25 0.075 0
8.4 0.075 0
8.55 0.075 0
8.7 0.075 0
8.85 0.075 0
9 0.075 0
9.15 0.075 0
9.3 0.075 0
9.45 0.075 0
9.6 0.075 0
9.75 0.075 0
9.9 0.075 0
10.05 0.075 0
10.2 0.075 0
10.35 0.075 0
10.5 0.075 0
10.65 0.075 0
10.8 0.075 0
10.95 0.075 0
11.1 0.075 0
11.25 0.075 0
11.4 0.075 0
11.55 0.075 0
11.7 0.075 0
11.85 0.075 0
12 0.075 0
12.15 0.075 0
12.3 0.075 0
12.45 0.075 0
12.6 0.075 0
12.75 0.075 0
12.9 0.075 0
13.05 0.075 0
13.2 0.075 0
13.35 0.075 0
13.5 0.075 0
13.65 0.075 0
13.8 0.075 0
13.95 0.075 0
14.1 0.075 0
14.25 0.075 0
14.4 0.075 0
14.55 0.075 0
14.7 0.075 0
14.85 0.075 0
15 0.075 0
15.15 0.075 0
15.3 0.075 0
15.45 0.075 0
15.6 0.075 0
15.75 0.075 0
15.9 0.075 0
16.05 0.075 0
16.2 0.075 0
16.35 0.075 0
16.5 0.075 0
16.65 0.075 0
16.8 0.075 0
16.95 0.075 0
17.1 0.075 0
17.25 0.075 0
17.4 0.075 0
17.55 0.075 0
17.7 0.075 0
17.85 0.075 0
18 0.075 0
18.15 0.075 0
18.3 0.075 0
18.45 0.075 0
18.6 0.075 0
18.75 0.075 0
18.9 0.075 0
19.05 0.075 0
19.2 0.075 0
19.35 0.075 0
19.5 0.075 0
19.65 0.075 0
19.8 0.075 0
19.95 0.075 0
20.1 0.075 0
20.25 0.075 0
20.4 0.075 0
20.55 0.075 0
20.7 0.075 0
20.85 0.075 0
21 0.075 0
21.15 0.075 0
21.3 0.075 0
21.45 0.075 0
21.6 0.075 0
21.75 0.075 0
21.9 0.075 0
22.05 0.075 0
22.2 0.075 0
22.35 0.075 0
22.5 0.075 0
22.65 0.075 0
22.8 0.075 0
22.95 0.075 0
23.1 0.075 0
23.25 0.075 0
23.4 0.075 0
23.55 0.075 0
23.7 0.075 0
23.85 0.075 0
24 0.075 0
24.15 0.075 0
24.3 0.075 0
24.45 0.075 0
24.6 0.075 0
24.75 0.075 0
24.9 0.075 0
25.05 0.075 0
25.2 0.075 0
25.35 0.075 0
25.5 0.075 0
25.65 0.075 0
25.8 0.075 0
25.95 0.075 0
26.1 0.075 0
26.25 0.075 0
26.4 0.075 0
26.55 0.075 0
26.7 0.075 0
26.85 0.075 0
27 0.075 0
27.15 0.075 0
27.3 0.075 0
27.45 0.075 0
27.6 0.075 0
27.75 0.075 0
27.9 0.075 0
28.05 0.075 0
28.2 0.075 0
28.35 0.075 0
28.5 0.075 0
28.65 0.075 0
28.8 0.075 0
28.95 0.075 0
29.1 0.075 0
29.25 0.075 0
29.4 0.075 0
29.55 0.075 0
29.7 0.075 0
29.85 0.075 0
0 0.15 0
0.15 0.15 0
0.3 0.15 0
0.45 0.15 0
0.6 0.15 0
0.75 0.15 0
0.9 0.15 0
1.05 0.15 0
1.2 0.15 0
1.35 0.15 0
1.5 0.15 0
1.65 0.15 0
1.8 0.15 0
1.95 0.15 0
2.1 0.15 0
2.25 0.15 0
2.4 0.15 0
2.55 0.15 0
2.7 0.15 0
2.85 0.15 0
3 0.15 0
3.15 0.15 0
3.3 0.15 0
3.45 0.15 0
3.6 0.15 0
3.75 0.15 0
3.9 0.15 0
4.05 0.15 0
4.2 0.15 0
4.35 0.15 0
4.5 0.15 0
4.65 0.15 0
4.8 0.15 0
4.95 0.15 0
5.1 0.15 0
5.25 0.15 0
5.4 0.15 0
5.55 0.15 0
5.7 0.15 0
5.85 0.15 0
6 0.15 0
6.15 0.15 0
6.3 0.15 0
6.45 0.15 0
6.6 0.15 0
6.75 0.15 0
6.9 0.15 0
7.05 0.15 0
7.2 0.15 0
7.35 0.15 0
7.5 0.15 0
7.65 0.15 0
7.8 0.15 0
7.95 0.15 0
8.1 0.15 0
8.25 0.15 0
8.4 0.15 0
8.55 0.15 0
8.7 0.15 0
8.85 0.15 0
9 0.15 0
9.15 0.15 0
9.3 0.15 0
9.45 0.15 0
9.6 0.15 0
9.75 0.15 0
9.9 0.15 0
10.05 0.15 0
10.2 0.15 0
10.35 0.15 0
10.5 0.15 0
10.65 0.15 0
10.8 0.15 0
10.95 0.15 0
11.1 0.15 0
11.25 0.15 0
11.4 0.15 0
11.55 0.15 0
11.7 0.15 0
11.85 0.15 0
12 0.15 0
12.15 0.15 0
12.3 0.15 0
12.45 0.15 0
12.6 0.15 0
12.75 0.15 0
12.9 0.15 0
13.05 0.15 0
13.2 0.15 0
13.35 0.15 0
13.5 0.15 0
13.65 0.15 0
13.8 0.15 0
13.95 0.15 0
14.1 0.15 0
14.25 0.15 0
14.4 0.15 0
14.55 0.15 0
14.7 0.15 0
14.85 0.15 0
15 0.15 0
15.15 0.15 0
15.3 0.15 0
15.45 0.15 0
15.6 0.15 0
15.75 0.15 0
15.9 0.15 0
16.05 0.15 0
16.2 0.15 0
16.35 0.15 0
16.5 0.15 0
16.65 0.15 0
16.8 0.15 0
16.95 0.15 0
17.1 0.15 0
17.25 0.15 0
17.4 0.15 0
17.55 0.15 0
17.7 0.15 0
17.85 0.15 0
18 0.15 0
18.15 0.15 0
18.3 0.15 0
18.45 0.15 0
18.6 0.15 0
18.75 0.15 0
18.9 0.15 0
19.05 0.15 0
19.2 0.15 0
19.35 0.15 0
19.5 0.15 0
19.65 0.15 0
19.8 0.15 0
19.95 0.15 0
20.1 0.15 0
20.25 0.15 0
20.4 0.15 0
20.55 0.15 0
20.7 0.15 0
20.85 0.15 0
21 0.15 0
21.15 0.15 0
21.3 0.15 0
21.45 0.15 0
21.6 0.15 0
21.75 0.15 0
21.9 0.15 0
22.05 0.15 0
22.2 0.15 0
22.35 0.15 0
22.5 0.15 0
22.65 0.15 0
22.8 0.15 0
22.95 0.15 0
23.1 0.15 0
23.25 0.15 0
23.4 0.15 0
23.55 0.15 0
23.7 0.15 0
23.85 0.15 0
24 0.15 0
24.15 0.15 0
24.3 0.15 0
24.45 0.15 0
24.6 0.15 0
24.75 0.15 0
24.9 0.15 0
25.05 0.15 0
25.2 0.15 0
25.35 0.15 0
25.5 0.15 0
25.65 0.15 0
25.8 0.15 0
25.95 0.15 0
26.1 0.15 0
26.25 0.15 0
26.4 0.15 0
26.55 0.15 0
26.7 0.15 0
26.85 0.15 0
27 0.15 0
27.15 0.15 0
27.3 0.15 0
27.45 0.15 0
27.6 0.15 0
27.75 0.15 0
27.9 0.15 0
28.05 0.15 0
28.2 0.15 0
28.35 0.15 0
28.5 0.15 0
28.65 0.15 0
28.8 0.15 0
28.95 0.15 0
29.1 0.15 0
29.25 0.15 0
29.4 0.15 0
29.55 0.15 0
29.7 0.15 0
29.85 0.15 0
0 0.225 0
0.15 0.225 0
0.3 0.225 0
0.45 0.225 0
0.6 0.225 0
0.75 0.225 0
0.9 0.225 0
1.05 0.225 0
1.2 0.225 0
1.35 0.225 0
1.5 0.225 0
1.65 0.225 0
1.8 0.225 0
1.95 0.225 0
2.1 0.225 0
2.25 0.225 0
2.4 0.225 0
2.55 0.225 0
2.7 0.225 0
2.85 0.225 0
3 0.225 0
3.15 0.225 0
3.3 0.225 0
3.45 0.225 0
3.6 0.225 0
3.75 0.225 0
3.9 0.225 0
4.05 0.225 0
4.2 0.225 0
4.35 0.225 0
4.5 0.225 0
4.65 0.225 0
4.8 0.225 0
4.95 0.225 0
5.1 0.225 0
5.25 0.225 0
5.4 0.225 0
5.55 0.225 0
5.7 0.225 0
5.85 0.225 0
6 0.225 0
6.15 0.225 0
6.3 0.225 0
6.45 0.225 0
6.6 0.225 0
6.75 0.225 0
6.9 0.225 0
7.05 0.225 0
7.2 0.225 0
7.35 0.225 0
7.5 0.225 0
7.65 0.225 0
7.8 0.225 0
7.95 0.225 0
8.1 0.225 0
8.25 0.225 0
8.4 0.225 0
8.55 0.225 0
8.7 0.225 0
8.85 0.225 0
9 0.225 0
9.15 0.225 0
9.3 0.225 0
9.45 0.225 0
9.6 0.225 0
9.75 0.225 0
9.9 0.225 0
10.05 0.225 0
10.2 0.225 0
10.35 0.225 0
10.5 0.225 0
10.65 0.225 0
10.8 0.225 0
10.95 0.225 0
11.1 0.225 0
11.25 0.225 0
11.4 0.225 0
11.55 0.225 0
11.7 0.225 0
11.85 0.225 0
12 0.225 0
12.15 0.225 0
12.3 0.225 0
12.45 0.225 0
12.6 0.225 0
12.75 0.225 0
12.9 0.225 0
13.05 0.225 0
13.2 0.225 0
13.35 0.225 0
13.5 0.225 0
13.65 0.225 0
13.8 0.225 0
13.95 0.225 0
14.1 0.225 0
14.25 0.225 0
14.4 0.225 0
14.55 0.225 0
14.7 0.225 0
14.85 0.225 0
15 0.225 0
15.15 0.225 0
15.3 0.225 0
15.45 0.225 0
15.6 0.225 0
15.75 0.225 0
15.9 0.225 0
16.05 0.225 0
16.2 0.225 0
16.35 0.225 0
16.5 0.225 0
16.65 0.225 0
16.8 0.225 0
16.95 0.225 0
17.1 0.225 0
17.25 0.225 0
17.4 0.225 0
17.55 0.225 0
17.7 0.225 0
17.85 0.225 0
18 0.225 0
18.15 0.225 0
18.3 0.225 0
18.45 0.225 0
18.6 0.225 0
18.75 0.225 0
18.9 0.225 0
19.05 0.225 0
19.2 0.225 0
19.35 0.225 0
19.5 0.225 0
19.65 0.225 0
19.8 0.225 0
19.95 0.225 0
20.1 0.225 0
20.25 0.225 0
20.4 0.225 0
20.55 0.225 0
20.7 0.225 0
20.85 0.225 0
21 0.225 0
21.15 0.225 0
21.3 0.225 0
21.45 0.225 0
21.6 0.225 0
21.75 0.225 0
21.9 0.225 0
22.05 0.225 0
22.2 0.225 0
22.35 0.225 0
22.5 0.225 0
22.65 0.225 0
22.8 0.225 0
22.95 0.225 0
23.1 0.225 0
23.25 0.225 0
23.4 0.225 0
23.55 0.225 0
23.7 0.225 0
23.85 0.225 0
24 0.225 0
24.15 0.225 0
24.3 0.225 0
24.45 0.225 0
24.6 0.225 0
24.75 0.225 0
24.9 0.225 0
25.05 0.225 0
25.2 0.225 0
25.35 0.225 0
25.5 0.225 0
25.65 0.225 0
25.8 0.225 0
25.95 0.225 0
26.1 0.225 0
26.25 0.225 0
26.4 0.225 0
26.55 0.225 0
26.7 0.225 0
26.85 0.225 0
27 0.225 0
27.15 0.225 0
27.3 0.225 0
27.45 0.225 0
27.6 0.225 0
27.75 0.225 0
27.9 0.225 0
28.05 0.225 0
28.2 0.225 0
28.35 0.225 0
28.5 0.225 0
28.65 0.225 0
28.8 0.225 0
28.95 0.225 0
29.1 0.225 0
29.25 0.225 0
29.4 0.225 0
29.55 0.225 0
29.7 0.225 0
29.85 0.225 0
0 0.3 0
0.15 0.3 0
0.3 0.3 0
0.45 0.3 0
0.6 0.3 0
0.75 0.3 0
0.9 0.3 0
1.05 0.3 0
1.2 0.3 0
1.35 0.3 0
1.5 0.3 0
1.65 0.3 0
1.8 0.3 0
1.95 0.3 0
2.1 0.3 0
2.25 0.3 0
2.4 0.3 0
2.55 0.3 0
2.7 0.3 0
2.85 0.3 0
3 0.3 0
3.15 0.3 0
3.3 0.3 0
3.45 0.3 0
3.6 0.3 0
3.75 0.3 0
3.9 0.3 0
4.05 0.3 0
4.2 0.3 0
4.35 0.3 0
4.5 0.3 0
4.65 0.3 0
4.8 0.3 0
4.95 0.3 0
5.1 0.3 0
5.25 0.3 0
5.4 0.3 0
5.55 0.3 0
5.7 0.3 0
5.85 0.3 0
6 0.3 0
6.15 0.3 0
[...]
POINT_DATA 40000

SCALARS p float 1
LOOKUP_TABLE default
20183.30754
20183.30754
20183.25236
20183.22506
20183.2072
20183.19478
20183.18794
20183.18804
20183.19532
20183.20782
20183.22227
20183.23583
20183.24724
20183.25667
20183.26453
20183.27079
20183.27546
20183.27887
20183.28136
20183.28186
20183.2775
20183.26697
20183.24217
20183.19769
20183.2556
20183.62664
20183.51895
20183.18615
20182.96141
20182.76423
20182.57328
20182.3822
20182.18897
20181.99293
20181.79379
20181.59134
20181.38527
20181.17517
20180.9604
20180.73969
20180.50877
20180.37823
20180.39976
20180.40623
20180.4367
20180.44198
20180.41244
20180.35564
20180.30604
20180.26237
20180.21282
20180.15582
20180.10305
20180.05458
20180.00926
20179.98194
20179.98336
20179.99629
20180.01793
20180.04886
20180.078
20180.08574
20180.06449
20180.00896
20179.91849
20179.7902
20179.61902
20179.40474
20179.15017
20178.87258
20178.60304
20178.38135
20178.25098
20178.24969
20178.37991
20178.56506
20178.58397
20178.51162
20178.63454
20178.64701
20178.63729
20178.60208
20178.54738
20178.48039
20178.41342
20178.36821
20178.34635
20178.35052
20178.37578
20178.40305
20178.41291
20178.39754
20178.36119
20178.3253
20178.30495
20178.29196
20178.28024
20178.26802
20178.25534
20178.24433
20178.23632
20178.23121
20178.22931
20178.21937
20178.2448
20178.27348
20178.05222
20177.94949
20178.12594
20178.25489
20178.34745
20178.42937
20178.50321
20178.59999
20178.71276
20178.84787
20178.99929
20179.16384
20179.33945
20179.51884
20179.70495
20179.88806
20180.07399
20180.25478
20180.43323
20180.6085
20180.77623
20180.9432
20181.10048
20181.2563
20181.40425
20181.54687
20181.68482
20181.81344
20181.93866
20182.05304
20182.16223
20182.26184
20182.35306
20182.43647
20182.50926
20182.57504
20182.63056
20182.67953
20182.71944
20182.75324
20182.78021
20182.80135
20182.81658
20182.82637
20182.8312
20182.83149
20182.8282
20182.82116
20182.81089
20182.79714
20182.78034
20182.7604
20182.73788
20182.7128
20182.68579
20182.65701
20182.62702
20182.59593
20182.56424
20182.53201
20182.49972
20182.46754
20182.43593
20182.40507
20182.37542
20182.34706
20182.32034
20182.29516
20182.27177
20182.25001
20182.23017
20182.21208
20182.19614
20182.18214
20182.17055
20182.1611
20182.15425
20182.14965
20182.14763
20182.14768
20182.15
20182.15387
20182.15943
20182.16595
20182.1737
20182.1821
20182.19166
20182.20205
20182.21396
20182.22717
20182.2424
20182.25901
20182.27778
20182.27778
20183.30754
20183.30754
20183.25236
20183.22506
20183.2072
20183.19478
20183.18794
20183.18804
20183.19532
20183.20782
20183.22227
20183.23583
20183.24724
20183.25667
20183.26453
20183.27079
20183.27546
20183.27887
20183.28136
20183.28186
20183.2775
20183.26697
20183.24217
20183.19769
20183.2556
20183.62664
20183.51895
20183.18615
20182.96141
20182.76423
20182.57328
20182.3822
20182.18897
20181.99293
20181.79379
20181.59134
20181.38527
20181.17517
20180.9604
20180.73969
20180.50877
20180.37823
20180.39976
20180.40623
20180.4367
20180.44198
20180.41244
20180.35564
20180.30604
20180.26237
20180.21282
20180.15582
20180.10305
20180.05458
20180.00926
20179.98194
20179.98336
20179.99629
20180.01793
20180.04886
20180.078
20180.08574
20180.06449
20180.00896
20179.91849
20179.7902
20179.61902
20179.40474
20179.15017
20178.87258
20178.60304
20178.38135
20178.25098
20178.24969
20178.37991
20178.56506
20178.58397
20178.51162
20178.63454
20178.64701
20178.63729
20178.60208
20178.54738
20178.48039
20178.41342
20178.36821
20178.34635
20178.35052
20178.37578
20178.40305
20178.41291
20178.39754
20178.36119
20178.3253
20178.30495
20178.29196
20178.28024
20178.26802
20178.25534
20178.24433
20178.23632
20178.23121
20178.22931
20178.21937
20178.2448
20178.27348
20178.05222
20177.94949
20178.12594
20178.25489
20178.34745
20178.42937
20178.50321
20178.59999
20178.71276
20178.84787
20178.99929
20179.16384
20179.33945
20179.51884
20179.70495
20179.88806
20180.07399
20180.25478
20180.43323
20180.6085
20180.77623
20180.9432
20181.10048
20181.2563
20181.40425
20181.54687
20181.68482
20181.81344
20181.93866
20182.05304
20182.16223
20182.26184
20182.35306
20182.43647
20182.50926
20182.57504
20182.63056
20182.67953
20182.71944
20182.75324
20182.78021
20182.80135
20182.81658
20182.82637
20182.8312
20182.83149
20182.8282
20182.82116
20182.81089
20182.79714
20182.78034
20182.7604
20182.73788
20182.7128
20182.68579
20182.65701
20182.62702
20182.59593
20182.56424
20182.53201
20182.49972
20182.46754
20182.43593
20182.40507
20182.37542
20182.34706
20182.32034
20182.29516
20182.27177
20182.25001
20182.23017
20182.21208
20182.19614
20182.18214
20182.17055
20182.1611
20182.15425
20182.14965
20182.14763
20182.14768
20182.15
20182.15387
20182.15943
20182.16595
20182.1737
20182.1821
20182.19166
20182.20205
20182.21396
20182.22717
20182.2424
20182.25901
20182.27778
20182.27778
20183.27486
20183.27486
20183.2432
20183.22047
20183.20463
20183.19381
20183.18828
20183.18919
20183.19675
20183.20918
20183.22345
20183.23686
20183.24815
20183.25749
20183.26527
20183.27138
20183.27589
20183.27912
20183.28152
20183.28243
20183.27953
20183.26759
20183.22729
20183.16071
20183.17207
20183.43858
20183.39772
20183.15987
20182.95478
20182.76274
20182.57332
20182.38272
20182.18965
20181.99368
20181.7946
20181.59222
20181.38626
20181.17631
20180.96186
20180.74221
20180.51603
20180.40973
20180.40063
20180.39887
20180.42273
20180.4295
20180.39737
20180.34628
20180.30251
20180.25968
20180.20937
20180.15069
20180.09399
20180.04311
20179.99973
20179.97911
20179.98408
20179.99671
20180.01715
20180.04734
20180.07553
20180.0829
20180.06074
20180.00564
20179.9156
20179.7867
20179.61399
20179.39628
20179.13672
20178.85306
20178.57586
20178.34438
20178.20158
20178.18179
20178.28639
20178.45026
20178.49929
20178.5157
20178.64548
20178.64655
20178.64114
20178.60522
20178.54952
20178.47954
20178.41109
20178.36613
20178.34191
20178.34239
20178.36674
20178.39438
20178.40586
20178.39122
20178.35533
20178.32231
20178.30402
20178.29182
20178.28027
20178.2677
20178.25462
20178.24362
20178.23593
20178.23081
20178.23188
20178.21364
20178.22875
20178.28989
20178.07068
20177.94951
20178.11112
20178.23031
20178.32208
20178.40628
20178.48421
20178.58515
20178.70061
20178.83873
20178.9916
20179.1579
20179.33445
20179.51482
20179.70166
20179.88527
20180.0718
20180.25264
20180.43161
20180.6066
20180.77471
20180.94135
20181.09871
20181.2544
20181.40203
20181.54482
20181.6822
20181.81121
20181.93596
20182.05067
20182.15977
20182.25937
20182.3509
20182.43404
20182.50734
20182.57287
20182.62889
20182.67763
20182.71788
20182.75159
20182.77857
20182.79965
20182.8149
20182.82489
20182.82991
20182.83037
20182.82707
20182.8201
20182.80984
20182.79621
20182.77949
20182.75966
20182.73721
20182.71222
20182.68523
20182.6565
20182.62652
20182.59547
20182.5638
20182.5316
20182.49932
20182.46715
20182.43551
20182.40464
20182.37495
20182.34658
20182.31984
20182.29467
20182.27126
20182.24951
20182.22963
20182.21154
20182.19554
20182.18153
20182.16987
20182.16041
20182.1535
20182.14891
20182.14685
20182.14697
20182.14928
20182.15325
20182.15885
20182.16547
20182.17324
20182.18171
20182.19127
20182.20172
20182.21363
20182.22693
20182.2423
20182.25917
20182.27844
20182.27844
20183.24905
20183.24905
20183.2298
20183.21228
20183.19918
20183.19042
20183.18648
20183.18822
20183.19579
20183.20785
20183.22194
20183.23564
20183.24761
20183.25762
20183.26575
20183.27196
20183.27645
20183.27958
20183.28209
20183.28377
20183.28161
20183.26478
20183.20542
20183.12762
20183.11442
20183.26441
20183.27162
20183.12539
20182.94517
20182.76068
20182.57369
20182.38388
20182.19107
20181.99521
20181.79624
20181.59401
20181.38824
20181.17858
20180.96464
20180.7464
20180.52448
20180.4223
20180.39269
20180.38406
20180.40031
20180.40638
20180.37389
20180.33111
20180.2959
20180.25467
20180.20231
20180.1406
20180.0763
20180.01729
20179.97536
20179.96575
20179.98109
20180.00046
20180.02332
20180.0522
20180.07697
20180.08148
20180.05712
20180.00208
20179.91282
20179.78293
20179.60735
20179.38269
20179.1123
20178.81555
20178.52172
20178.27017
20178.10299
20178.04866
20178.10803
20178.23466
20178.32865
20178.43617
20178.59163
20178.6444
20178.65263
20178.61518
20178.55545
20178.4813
20178.41049
20178.35906
20178.32518
20178.3188
20178.34255
20178.3749
20178.39246
20178.3801
20178.34653
20178.31735
20178.30157
20178.29089
20178.28
20178.2671
20178.25347
20178.24253
20178.23538
20178.22824
20178.22815
20178.22161
20178.19989
20178.23373
20178.07338
20177.96214
20178.06908
20178.16952
20178.26049
20178.34964
20178.43916
20178.54868
20178.67266
20178.81661
20178.97446
20179.14421
20179.32341
20179.50637
20179.69426
20179.88029
20180.06691
20180.24929
20180.42827
20180.60323
20180.772
20180.93746
20181.09583
20181.25026
20181.39826
20181.54064
20181.67745
20181.80708
20181.93088
20182.0466
20182.15519
20182.25532
20182.34707
20182.43015
20182.50418
20182.56953
20182.62621
20182.67471
20182.71541
20182.74898
20182.77594
20182.79694
20182.81226
20182.82252
20182.82787
20182.82859
20182.82533
20182.81847
20182.80825
20182.79476
20182.77817
20182.7585
20182.73617
20182.7113
20182.68434
20182.65564
20182.62567
20182.59462
20182.56296
20182.53078
20182.49849
20182.46633
20182.43466
20182.40377
20182.37402
20182.34562
20182.31884
20182.29367
20182.27024
20182.2485
20182.22859
20182.21049
20182.19443
20182.18039
20182.16865
20182.15915
20182.15214
20182.14754
20182.14542
20182.14558
20182.14788
20182.15192
20182.15752
20182.1642
20182.17196
20182.18045
20182.18996
20182.20045
20182.21238
20182.22589
20182.24169
20182.25958
20182.28131
20182.28131
20183.22821
20183.22821
20183.21599
20183.20277
20183.19223
20183.18529
20183.18263
20183.1849
20183.1922
20183.20355
20183.21711
20183.23095
20183.24373
20183.25493
20183.26425
20183.27146
20183.27659
20183.28002
20183.28284
20183.28522
20183.28271
20183.26043
20183.19063
20183.12223
20183.11121
20183.1869
20183.20158
20183.09938
20182.93727
20182.75947
20182.57483
20182.3858
20182.19325
20181.99753
20181.7987
20181.59668
20181.3912
20181.18193
20180.96854
20180.75124
20180.52831
20180.41858
20180.3781
20180.36717
20180.37703
20180.37874
20180.34926
20180.31531
20180.28632
20180.2458
20180.19163
20180.12696
20180.05614
20179.98827
20179.94346
20179.94304
20179.97545
20180.0106
20180.04052
20180.06743
20180.08573
20180.08428
20180.05649
20180.00079
20179.91148
20179.77974
20179.5995
20179.36486
20179.07969
20178.76448
20178.44825
20178.17239
20177.9774
20177.88726
20177.90272
20177.99151
20178.09985
20178.25254
20178.45397
20178.59649
20178.65347
20178.63086
20178.5656
20178.48537
20178.41029
20178.346
20178.29641
20178.28425
20178.31027
20178.34915
20178.37305
20178.36346
20178.33366
20178.30937
20178.29749
20178.28962
20178.27994
20178.26653
20178.25206
20178.24097
20178.23289
20178.22479
20178.20292
20178.18071
20178.14153
20178.12469
20178.01716
20177.93896
20178.00411
20178.09124
20178.18278
20178.27963
20178.38251
20178.50195
20178.6368
20178.78723
20178.95182
20179.12569
20179.30832
20179.49472
20179.68379
20179.87298
20180.05968
20180.24403
20180.42312
20180.59812
20180.7676
20180.93169
20181.09097
20181.24398
20181.39225
20181.53422
20181.6704
20181.80061
20181.92351
20182.04008
20182.14833
20182.24897
20182.34106
20182.4243
20182.49903
20182.56444
20182.6217
20182.67021
20182.71125
20182.74481
20182.77178
20182.79279
20182.80824
20182.81873
20182.8245
20182.82561
20182.82252
20182.81585
20182.80573
20182.79243
20182.77603
20182.75658
20182.73442
20182.70974
20182.68287
20182.65423
20182.62427
20182.59322
20182.56155
20182.5294
20182.4971
20182.46496
20182.43327
20182.40237
20182.37256
20182.34411
20182.31726
20182.29209
20182.26864
20182.24693
20182.22698
20182.20889
20182.19275
20182.17867
20182.1668
20182.15724
20182.1501
20182.14545
20182.14322
20182.14339
20182.14563
20182.14972
20182.15529
20182.162
20182.16967
20182.17815
20182.18754
20182.19803
20182.20996
20182.22378
20182.24016
20182.25967
20182.28498
20182.28498
20183.21059
20183.21059
20183.20255
20183.19273
20183.18446
20183.17908
20183.17738
20183.17993
20183.18678
20183.1972
20183.20989
20183.22337
20183.23653
20183.24871
20183.25945
20183.26826
20183.27494
20183.27959
20183.28308
20183.28565
20183.28183
20183.25696
20183.18723
20183.13276
20183.12998
20183.17316
20183.18126
20183.08797
20182.93413
20182.7603
20182.57719
20182.38865
20182.19624
20182.00062
20181.80197
20181.60022
20181.39513
20181.18634
20180.97348
20180.75666
20180.52945
20180.40768
20180.36144
20180.34963
20180.3551
20180.35259
20180.3269
20180.29989
20180.27405
20180.23356
20180.1785
20180.11167
20180.03622
20179.96156
20179.91288
20179.9184
20179.96764
20180.02259
20180.06336
20180.08932
20180.10048
20180.09213
20180.06047
20180.00337
20179.91291
20179.77799
20179.5903
20179.34178
20179.03734
20178.69748
20178.35365
20178.05052
20177.82654
20177.7034
20177.68299
20177.74169
20177.84875
20178.01284
20178.23952
20178.46677
20178.61213
20178.63373
20178.57602
20178.489
20178.40441
20178.32506
20178.26046
20178.24527
20178.27516
20178.31986
20178.34864
20178.34212
20178.31644
20178.29783
20178.29194
20178.28857
20178.28062
20178.26634
20178.25038
20178.23766
20178.21921
20178.1871
20178.14083
20178.09047
20178.03746
20177.99614
20177.92347
20177.87887
20177.92624
20178.00742
20178.1021
20178.20721
20178.3225
20178.45177
20178.59687
20178.75426
20178.92543
20179.10421
20179.29048
20179.48069
20179.67145
20179.8634
20180.05089
20180.23665
20180.4164
20180.59142
20180.76141
20180.92457
20181.08392
20181.23604
20181.38394
20181.52566
20181.66127
20181.79163
20181.91414
20182.03096
20182.13932
20182.24028
20182.33282
20182.41645
20182.49171
20182.55752
20182.61515
20182.66397
20182.70524
20182.73897
20182.76603
20182.78717
20182.80282
20182.81351
20182.81965
20182.8212
20182.81844
20182.81207
20182.80219
20182.7891
20182.77297
20182.75379
20182.73184
20182.70743
20182.6807
20182.65216
20182.62225
20182.59122
20182.55953
20182.52742
20182.4951
20182.46298
20182.43129
20182.40038
20182.37051
20182.34202
20182.31508
20182.28991
20182.26641
20182.24474
20182.22474
20182.20667
20182.19043
20182.17631
20182.16429
20182.15464
20182.14731
20182.14257
20182.14021
20182.14033
20182.14252
20182.14662
20182.15216
20182.15886
20182.16644
20182.17484
20182.18406
20182.1945
20182.20637
20182.22047
20182.23739
20182.25844
20182.2866
20182.2866
20183.19507
20183.19507
20183.18964
20183.18243
20183.1761
20183.17207
20183.17117
20183.17388
20183.18025
20183.18975
20183.20142
20183.21418
20183.22714
20183.23971
20183.25142
20183.26176
20183.2703
20183.27684
20183.28154
20183.28396
20183.27876
20183.25476
20183.19434
20183.15328
20183.15909
20183.1931
20183.19164
20183.09058
20182.93692
20182.76385
20182.58103
20182.39249
20182.20005
20182.00447
20181.80601
20181.60461
20181.4
20181.19179
20180.97949
20180.76308
20180.53059
20180.39578
20180.34525
20180.33226
20180.33474
20180.32971
20180.3075
20180.28503
20180.26018
20180.21954
20180.16448
20180.09682
20180.01922
20179.94137
20179.8904
20179.89876
20179.95955
20180.03125
20180.08294
20180.10983
20180.11614
20180.10262
20180.06785
20180.00887
20179.91592
20179.77541
20179.57624
20179.30871
20178.979
20178.6078
20178.23176
20177.89847
20177.64462
20177.49177
20177.44233
20177.47857
20177.58176
20177.75038
20177.98239
20178.25848
20178.49874
20178.59905
20178.57118
20178.48513
20178.39043
20178.29816
20178.22281
20178.20574
20178.2406
20178.29015
20178.32169
20178.31733
20178.29546
20178.28338
20178.28532
20178.28774
20178.28169
20178.26613
20178.24554
20178.21815
20178.17247
20178.10726
20178.03496
20177.96712
20177.90729
20177.86152
20177.81387
20177.79583
20177.84085
20177.92149
20178.02119
20178.13464
20178.26089
20178.3999
20178.55405
20178.71883
20178.89602
20179.08009
20179.27025
20179.46412
20179.65739
20179.85152
20180.0407
20180.22741
20180.40813
20180.58326
20180.75331
20180.91611
20181.07481
20181.22649
20181.37362
20181.51499
20181.65015
20181.78018
20181.90271
20182.01939
20182.1281
20182.22937
20182.32237
20182.40658
20182.4823
20182.54871
20182.60669
20182.65595
20182.69743
20182.73145
20182.75868
20182.78002
20182.79595
20182.80687
20182.81336
20182.81534
20182.81302
20182.80703
20182.79755
20182.78473
20182.76892
20182.75007
20182.72838
20182.70427
20182.67776
20182.64934
20182.61954
20182.58856
20182.55687
20182.52479
20182.49244
20182.46035
20182.42865
20182.39777
20182.36785
20182.33932
20182.31229
20182.28711
20182.26354
20182.24192
20182.22187
20182.2038
20182.18748
20182.17327
20182.1611
20182.1513
20182.1438
20182.13889
20182.13638
20182.1364
20182.13855
20182.14261
20182.14814
20182.15479
20182.16227
20182.17054
20182.17956
20182.18986
20182.20161
20182.21585
20182.23319
20182.25528
20182.28486
20182.28486
20183.18096
20183.18096
20183.17723
20183.17199
20183.16728
20183.16441
20183.16418
20183.16703
20183.17299
20183.18168
20183.19239
20183.2043
20183.21671
20183.22914
20183.2412
20183.25247
20183.26251
20183.27089
20183.27707
20183.27964
20183.27372
20183.25269
20183.20752
20183.18023
20183.19168
20183.22558
20183.21749
20183.10401
20182.94537
20182.77026
20182.58646
20182.39736
20182.20465
20182.00905
20181.81081
20181.60981
20181.40579
20181.19829
20180.98668
20180.77097
20180.53361
20180.38591
20180.33067
20180.31587
20180.31624
20180.31022
20180.29092
20180.271
20180.2462
20180.20561
20180.15114
20180.08412
20180.00752
20179.93088
20179.88013
20179.8886
20179.95374
20180.03451
20180.09361
20180.12296
20180.12809
20180.11236
20180.07568
20180.01434
20179.91681
20179.7671
20179.55164
20179.25979
20178.89871
20178.49109
20178.07957
20177.71433
20177.43195
20177.25362
20177.17865
20177.19584
20177.29418
20177.46928
20177.70503
20178.0006
20178.31072
20178.50578
20178.53455
20178.46331
20178.36546
20178.26998
20178.19156
20178.17198
20178.21033
20178.26334
20178.29505
20178.29047
20178.2718
20178.26709
20178.27781
20178.28625
20178.28134
20178.26111
20178.22445
20178.16634
20178.0832
20177.98988
20177.90226
20177.82669
20177.76722
20177.72631
20177.69781
20177.70026
20177.7502
20177.83412
20177.94003
20178.06181
20178.19787
20178.34643
20178.50881
20178.68116
20178.86408
20179.0535
20179.24775
20179.4451
20179.64151
20179.83764
20180.02904
20180.21669
20180.39841
20180.57383
20180.74363
20180.90627
20181.06408
20181.21532
20181.36158
20181.50233
20181.63708
20181.76652
20181.8891
20182.00558
20182.11462
20182.21624
20182.30974
20182.39462
20182.47088
20182.53795
20182.59638
20182.64612
20182.68789
20182.72226
20182.74974
20182.77134
20182.7876
20182.79881
20182.80564
20182.80809
20182.80625
20182.8007
20182.79173
20182.77927
20182.76382
20182.74535
20182.72397
20182.70016
20182.67394
20182.64568
20182.61602
20182.58516
20182.5535
20182.52145
20182.48908
20182.457
20182.4253
20182.39445
20182.36451
20182.33598
20182.30887
20182.28368
20182.26005
20182.23845
20182.21838
20182.20028
20182.1839
20182.16957
20182.15727
20182.14727
20182.13958
20182.13445
20182.13179
20182.13164
20182.13374
20182.13771
20182.14323
20182.14977
20182.15714
20182.16519
20182.17397
20182.18402
20182.19558
20182.20979
20182.22732
20182.24996
20182.27994
20182.27994
20183.16782
20183.16782
20183.16524
20183.16148
20183.1581
20183.15621
20183.15655
20183.15952
20183.16516
20183.17319
20183.18306
20183.19414
20183.20589
20183.2179
20183.22985
20183.24144
20183.25232
20183.26198
20183.26948
20183.27288
20183.26714
20183.2509
20183.22173
20183.20788
20183.22465
20183.26092
20183.24934
20183.12485
20182.95851
20182.77926
20182.59334
20182.40316
20182.20996
20182.0143
20181.8163
20181.6158
20181.41249
20181.20585
20180.99511
20180.78067
20180.53954
20180.37939
20180.31818
20180.30082
20180.29962
20180.29366
20180.27684
20180.25829
20180.23334
20180.19318
20180.13965
20180.07447
20180.00163
20179.93021
20179.88273
20179.88993
20179.9523
20180.03281
20180.0944
20180.12691
20180.13379
20180.11819
20180.08036
20180.01568
20179.91095
20179.74855
20179.51261
20179.19268
20178.79608
20178.34911
20177.90065
20177.50499
20177.19976
20177.00069
20176.90143
20176.89915
20176.98737
20177.16589