# vtk DataFile Version 2.0
FlowField
ASCII
DATASET STRUCTURED_GRID
DIMENSIONS 400 1 200
POINTS 80000 float
0 0 0
0.08 0 0
0.16 0 0
0.24 0 0
0.32 0 0
0.4 0 0
0.48 0 0
0.56 0 0
0.64 0 0
0.72 0 0
0.8 0 0
0.88 0 0
0.96 0 0
1.04 0 0
1.12 0 0
1.2 0 0
1.28 0 0
1.36 0 0
1.44 0 0
1.52 0 0
1.6 0 0
1.68 0 0
1.76 0 0
1.84 0 0
1.92 0 0
2 0 0
2.08 0 0
2.16 0 0
2.24 0 0
2.32 0 0
2.4 0 0
2.48 0 0
2.56 0 0
2.64 0 0
2.72 0 0
2.8 0 0
2.88 0 0
2.96 0 0
3.04 0 0
3.12 0 0
3.2 0 0
3.28 0 0
3.36 0 0
3.44 0 0
3.52 0 0
3.6 0 0
3.68 0 0
3.76 0 0
3.84 0 0
3.92 0 0
4 0 0
4.08 0 0
4.16 0 0
4.24 0 0
4.32 0 0
4.4 0 0
4.48 0 0
4.56 0 0
4.64 0 0
4.72 0 0
4.8 0 0
4.88 0 0
4.96 0 0
5.04 0 0
5.12 0 0
5.2 0 0
5.28 0 0
5.36 0 0
5.44 0 0
5.52 0 0
5.6 0 0
5.68 0 0
5.76 0 0
5.84 0 0
5.92 0 0
6 0 0
6.08 0 0
6.16 0 0
6.24 0 0
6.32 0 0
6.4 0 0
6.48 0 0
6.56 0 0
6.64 0 0
6.72 0 0
6.8 0 0
6.88 0 0
6.96 0 0
7.04 0 0
7.12 0 0
7.2 0 0
7.28 0 0
7.36 0 0
7.44 0 0
7.52 0 0
7.6 0 0
7.68 0 0
7.76 0 0
7.84 0 0
7.92 0 0
8 0 0
8.08 0 0
8.16 0 0
8.24 0 0
8.32 0 0
8.4 0 0
8.48 0 0
8.56 0 0
8.64 0 0
8.72 0 0
8.8 0 0
8.88 0 0
8.96 0 0
9.04 0 0
9.12 0 0
9.2 0 0
9.28 0 0
9.36 0 0
9.44 0 0
9.52 0 0
9.6 0 0
9.68 0 0
9.76 0 0
9.84 0 0
9.92 0 0
10 0 0
10.08 0 0
10.16 0 0
10.24 0 0
10.32 0 0
10.4 0 0
10.48 0 0
10.56 0 0
10.64 0 0
10.72 0 0
10.8 0 0
10.88 0 0
10.96 0 0
11.04 0 0
11.12 0 0
11.2 0 0
11.28 0 0
11.36 0 0
11.44 0 0
11.52 0 0
11.6 0 0
11.68 0 0
11.76 0 0
11.84 0 0
11.92 0 0
12 0 0
12.08 0 0
12.16 0 0
12.24 0 0
12.32 0 0
12.4 0 0
12.48 0 0
12.56 0 0
12.64 0 0
12.72 0 0
12.8 0 0
12.88 0 0
12.96 0 0
13.04 0 0
13.12 0 0
13.2 0 0
13.28 0 0
13.36 0 0
13.44 0 0
13.52 0 0
13.6 0 0
13.68 0 0
13.76 0 0
13.84 0 0
13.92 0 0
14 0 0
14.08 0 0
14.16 0 0
14.24 0 0
14.32 0 0
14.4 0 0
14.48 0 0
14.56 0 0
14.64 0 0
14.72 0 0
14.8 0 0
14.88 0 0
14.96 0 0
15.04 0 0
15.12 0 0
15.2 0 0
15.28 0 0
15.36 0 0
15.44 0 0
15.52 0 0
15.6 0 0
15.68 0 0
15.76 0 0
15.84 0 0
15.92 0 0
16 0 0
16.08 0 0
16.16 0 0
16.24 0 0
16.32 0 0
16.4 0 0
16.48 0 0
16.56 0 0
16.64 0 0
16.72 0 0
16.8 0 0
16.88 0 0
16.96 0 0
17.04 0 0
17.12 0 0
17.2 0 0
17.28 0 0
17.36 0 0
17.44 0 0
17.52 0 0
17.6 0 0
17.68 0 0
17.76 0 0
17.84 0 0
17.92 0 0
18 0 0
18.08 0 0
18.16 0 0
18.24 0 0
18.32 0 0
18.4 0 0
18.48 0 0
18.56 0 0
18.64 0 0
18.72 0 0
18.8 0 0
18.88 0 0
18.96 0 0
19.04 0 0
19.12 0 0
19.2 0 0
19.28 0 0
19.36 0 0
19.44 0 0
19.52 0 0
19.6 0 0
19.68 0 0
19.76 0 0
19.84 0 0
19.92 0 0
20 0 0
20.08 0 0
20.16 0 0
20.24 0 0
20.32 0 0
20.4 0 0
20.48 0 0
20.56 0 0
20.64 0 0
20.72 0 0
20.8 0 0
20.88 0 0
20.96 0 0
21.04 0 0
21.12 0 0
21.2 0 0
21.28 0 0
21.36 0 0
21.44 0 0
21.52 0 0
21.6 0 0
21.68 0 0
21.76 0 0
21.84 0 0
21.92 0 0
22 0 0
22.08 0 0
22.16 0 0
22.24 0 0
22.32 0 0
22.4 0 0
22.48 0 0
22.56 0 0
22.64 0 0
22.72 0 0
22.8 0 0
22.88 0 0
22.96 0 0
23.04 0 0
23.12 0 0
23.2 0 0
23.28 0 0
23.36 0 0
23.44 0 0
23.52 0 0
23.6 0 0
23.68 0 0
23.76 0 0
23.84 0 0
23.92 0 0
24 0 0
24.08 0 0
24.16 0 0
24.24 0 0
24.32 0 0
24.4 0 0
24.48 0 0
24.56 0 0
24.64 0 0
24.72 0 0
24.8 0 0
24.88 0 0
24.96 0 0
25.04 0 0
25.12 0 0
25.2 0 0
25.28 0 0
25.36 0 0
25.44 0 0
25.52 0 0
25.6 0 0
25.68 0 0
25.76 0 0
25.84 0 0
25.92 0 0
26 0 0
26.08 0 0
26.16 0 0
26.24 0 0
26.32 0 0
26.4 0 0
26.48 0 0
26.56 0 0
26.64 0 0
26.72 0 0
26.8 0 0
26.88 0 0
26.96 0 0
27.04 0 0
27.12 0 0
27.2 0 0
27.28 0 0
27.36 0 0
27.44 0 0
27.52 0 0
27.6 0 0
27.68 0 0
27.76 0 0
27.84 0 0
27.92 0 0
28 0 0
28.08 0 0
28.16 0 0
28.24 0 0
28.32 0 0
28.4 0 0
28.48 0 0
28.56 0 0
28.64 0 0
28.72 0 0
28.8 0 0
28.88 0 0
28.96 0 0
29.04 0 0
29.12 0 0
29.2 0 0
29.28 0 0
29.36 0 0
29.44 0 0
29.52 0 0
29.6 0 0
29.68 0 0
29.76 0 0
29.84 0 0
29.92 0 0
30 0 0
30.08 0 0
30.16 0 0
30.24 0 0
30.32 0 0
30.4 0 0
30.48 0 0
30.56 0 0
30.64 0 0
30.72 0 0
30.8 0 0
30.88 0 0
30.96 0 0
31.04 0 0
31.12 0 0
31.2 0 0
31.28 0 0
31.36 0 0
31.44 0 0
31.52 0 0
31.6 0 0
31.68 0 0
31.76 0 0
31.84 0 0
31.92 0 0
0 0.005 0
0.08 0.005 0
0.16 0.005 0
0.24 0.005 0
0.32 0.005 0
0.4 0.005 0
0.48 0.005 0
0.56 0.005 0
0.64 0.005 0
0.72 0.005 0
0.8 0.005 0
0.88 0.005 0
0.96 0.005 0
1.04 0.005 0
1.12 0.005 0
1.2 0.005 0
1.28 0.005 0
1.36 0.005 0
1.44 0.005 0
1.52 0.005 0
1.6 0.005 0
1.68 0.005 0
1.76 0.005 0
1.84 0.005 0
1.92 0.005 0
2 0.005 0
2.08 0.005 0
2.16 0.005 0
2.24 0.005 0
2.32 0.005 0
2.4 0.005 0
2.48 0.005 0
2.56 0.005 0
2.64 0.005 0
2.72 0.005 0
2.8 0.005 0
2.88 0.005 0
2.96 0.005 0
3.04 0.005 0
3.12 0.005 0
3.2 0.005 0
3.28 0.005 0
3.36 0.005 0
3.44 0.005 0
3.52 0.005 0
3.6 0.005 0
3.68 0.005 0
3.76 0.005 0
3.84 0.005 0
3.92 0.005 0
4 0.005 0
4.08 0.005 0
4.16 0.005 0
4.24 0.005 0
4.32 0.005 0
4.4 0.005 0
4.48 0.005 0
4.56 0.005 0
4.64 0.005 0
4.72 0.005 0
4.8 0.005 0
4.88 0.005 0
4.96 0.005 0
5.04 0.005 0
5.12 0.005 0
5.2 0.005 0
5.28 0.005 0
5.36 0.005 0
5.44 0.005 0
5.52 0.005 0
5.6 0.005 0
5.68 0.005 0
5.76 0.005 0
5.84 0.005 0
5.92 0.005 0
6 0.005 0
6.08 0.005 0
6.16 0.005 0
6.24 0.005 0
6.32 0.005 0
6.4 0.005 0
6.48 0.005 0
6.56 0.005 0
6.64 0.005 0
6.72 0.005 0
6.8 0.005 0
6.88 0.005 0
6.96 0.005 0
7.04 0.005 0
7.12 0.005 0
7.2 0.005 0
7.28 0.005 0
7.36 0.005 0
7.44 0.005 0
7.52 0.005 0
7.6 0.005 0
7.68 0.005 0
7.76 0.005 0
7.84 0.005 0
7.92 0.005 0
8 0.005 0
8.08 0.005 0
8.16 0.005 0
8.24 0.005 0
8.32 0.005 0
8.4 0.005 0
8.48 0.005 0
8.56 0.005 0
8.64 0.005 0
8.72 0.005 0
8.8 0.005 0
8.88 0.005 0
8.96 0.005 0
9.04 0.005 0
9.12 0.005 0
9.2 0.005 0
9.28 0.005 0
9.36 0.005 0
9.44 0.005 0
9.52 0.005 0
9.6 0.005 0
9.68 0.005 0
9.76 0.005 0
9.84 0.005 0
9.92 0.005 0
10 0.005 0
10.08 0.005 0
10.16 0.005 0
10.24 0.005 0
10.32 0.005 0
10.4 0.005 0
10.48 0.005 0
10.56 0.005 0
10.64 0.005 0
10.72 0.005 0
10.8 0.005 0
10.88 0.005 0
10.96 0.005 0
11.04 0.005 0
11.12 0.005 0
11.2 0.005 0
11.28 0.005 0
11.36 0.005 0
11.44 0.005 0
11.52 0.005 0
11.6 0.005 0
11.68 0.005 0
11.76 0.005 0
11.84 0.005 0
11.92 0.005 0
12 0.005 0
12.08 0.005 0
12.16 0.005 0
12.24 0.005 0
12.32 0.005 0
12.4 0.005 0
12.48 0.005 0
12.56 0.005 0
12.64 0.005 0
12.72 0.005 0
12.8 0.005 0
12.88 0.005 0
12.96 0.005 0
13.04 0.005 0
13.12 0.005 0
13.2 0.005 0
13.28 0.005 0
13.36 0.005 0
13.44 0.005 0
13.52 0.005 0
13.6 0.005 0
13.68 0.005 0
13.76 0.005 0
13.84 0.005 0
13.92 0.005 0
14 0.005 0
14.08 0.005 0
14.16 0.005 0
14.24 0.005 0
14.32 0.005 0
14.4 0.005 0
14.48 0.005 0
14.56 0.005 0
14.64 0.005 0
14.72 0.005 0
14.8 0.005 0
14.88 0.005 0
14.96 0.005 0
15.04 0.005 0
15.12 0.005 0
15.2 0.005 0
15.28 0.005 0
15.36 0.005 0
15.44 0.005 0
15.52 0.005 0
15.6 0.005 0
15.68 0.005 0
15.76 0.005 0
15.84 0.005 0
15.92 0.005 0
16 0.005 0
16.08 0.005 0
16.16 0.005 0
16.24 0.005 0
16.32 0.005 0
16.4 0.005 0
16.48 0.005 0
16.56 0.005 0
16.64 0.005 0
16.72 0.005 0
16.8 0.005 0
16.88 0.005 0
16.96 0.005 0
17.04 0.005 0
17.12 0.005 0
17.2 0.005 0
17.28 0.005 0
17.36 0.005 0
17.44 0.005 0
17.52 0.005 0
17.6 0.005 0
17.68 0.005 0
17.76 0.005 0
17.84 0.005 0
17.92 0.005 0
18 0.005 0
18.08 0.005 0
18.16 0.005 0
18.24 0.005 0
18.32 0.005 0
18.4 0.005 0
18.48 0.005 0
18.56 0.005 0
18.64 0.005 0
18.72 0.005 0
18.8 0.005 0
18.88 0.005 0
18.96 0.005 0
19.04 0.005 0
19.12 0.005 0
19.2 0.005 0
19.28 0.005 0
19.36 0.005 0
19.44 0.005 0
19.52 0.005 0
19.6 0.005 0
19.68 0.005 0
19.76 0.005 0
19.84 0.005 0
19.92 0.005 0
20 0.005 0
20.08 0.005 0
20.16 0.005 0
20.24 0.005 0
20.32 0.005 0
20.4 0.005 0
20.48 0.005 0
20.56 0.005 0
20.64 0.005 0
20.72 0.005 0
20.8 0.005 0
20.88 0.005 0
20.96 0.005 0
21.04 0.005 0
21.12 0.005 0
21.2 0.005 0
21.28 0.005 0
21.36 0.005 0
21.44 0.005 0
21.52 0.005 0
21.6 0.005 0
21.68 0.005 0
21.76 0.005 0
21.84 0.005 0
21.92 0.005 0
22 0.005 0
22.08 0.005 0
22.16 0.005 0
22.24 0.005 0
22.32 0.005 0
22.4 0.005 0
22.48 0.005 0
22.56 0.005 0
22.64 0.005 0
22.72 0.005 0
22.8 0.005 0
22.88 0.005 0
22.96 0.005 0
23.04 0.005 0
23.12 0.005 0
23.2 0.005 0
23.28 0.005 0
23.36 0.005 0
23.44 0.005 0
23.52 0.005 0
23.6 0.005 0
23.68 0.005 0
23.76 0.005 0
23.84 0.005 0
23.92 0.005 0
24 0.005 0
24.08 0.005 0
24.16 0.005 0
24.24 0.005 0
24.32 0.005 0
24.4 0.005 0
24.48 0.005 0
24.56 0.005 0
24.64 0.005 0
24.72 0.005 0
24.8 0.005 0
24.88 0.005 0
24.96 0.005 0
25.04 0.005 0
25.12 0.005 0
25.2 0.005 0
25.28 0.005 0
25.36 0.005 0
25.44 0.005 0
25.52 0.005 0
25.6 0.005 0
25.68 0.005 0
25.76 0.005 0
25.84 0.005 0
25.92 0.005 0
26 0.005 0
26.08 0.005 0
26.16 0.005 0
26.24 0.005 0
26.32 0.005 0
26.4 0.005 0
26.48 0.005 0
26.56 0.005 0
26.64 0.005 0
26.72 0.005 0
26.8 0.005 0
26.88 0.005 0
26.96 0.005 0
27.04 0.005 0
27.12 0.005 0
27.2 0.005 0
27.28 0.005 0
27.36 0.005 0
27.44 0.005 0
27.52 0.005 0
27.6 0.005 0
27.68 0.005 0
27.76 0.005 0
27.84 0.005 0
27.92 0.005 0
28 0.005 0
28.08 0.005 0
28.16 0.005 0
28.24 0.005 0
28.32 0.005 0
28.4 0.005 0
28.48 0.005 0
28.56 0.005 0
28.64 0.005 0
28.72 0.005 0
28.8 0.005 0
28.88 0.005 0
28.96 0.005 0
29.04 0.005 0
29.12 0.005 0
29.2 0.005 0
29.28 0.005 0
29.36 0.005 0
29.44 0.005 0
29.52 0.005 0
29.6 0.005 0
29.68 0.005 0
29.76 0.005 0
29.84 0.005 0
29.92 0.005 0
30 0.005 0
30.08 0.005 0
30.16 0.005 0
30.24 0.005 0
30.32 0.005 0
30.4 0.005 0
30.48 0.005 0
30.56 0.005 0
30.64 0.005 0
30.72 0.005 0
30.8 0.005 0
30.88 0.005 0
30.96 0.005 0
31.04 0.005 0
31.12 0.005 0
31.2 0.005 0
31.28 0.005 0
31.36 0.005 0
31.44 0.005 0
31.52 0.005 0
31.6 0.005 0
31.68 0.005 0
31.76 0.005 0
31.84 0.005 0
31.92 0.005 0
0 0.01 0
0.08 0.01 0
0.16 0.01 0
0.24 0.01 0
0.32 0.01 0
0.4 0.01 0
0.48 0.01 0
0.56 0.01 0
0.64 0.01 0
0.72 0.01 0
0.8 0.01 0
0.88 0.01 0
0.96 0.01 0
1.04 0.01 0
1.12 0.01 0
1.2 0.01 0
1.28 0.01 0
1.36 0.01 0
1.44 0.01 0
1.52 0.01 0
1.6 0.01 0
1.68 0.01 0
1.76 0.01 0
1.84 0.01 0
1.92 0.01 0
2 0.01 0
2.08 0.01 0
2.16 0.01 0
2.24 0.01 0
2.32 0.01 0
2.4 0.01 0
2.48 0.01 0
2.56 0.01 0
2.64 0.01 0
2.72 0.01 0
2.8 0.01 0
2.88 0.01 0
2.96 0.01 0
3.04 0.01 0
3.12 0.01 0
3.2 0.01 0
3.28 0.01 0
3.36 0.01 0
3.44 0.01 0
3.52 0.01 0
3.6 0.01 0
3.68 0.01 0
3.76 0.01 0
3.84 0.01 0
3.92 0.01 0
4 0.01 0
4.08 0.01 0
4.16 0.01 0
4.24 0.01 0
4.32 0.01 0
4.4 0.01 0
4.48 0.01 0
4.56 0.01 0
4.64 0.01 0
4.72 0.01 0
4.8 0.01 0
4.88 0.01 0
4.96 0.01 0
5.04 0.01 0
5.12 0.01 0
[...]
POINT_DATA 80000

SCALARS v float 1
LOOKUP_TABLE default
0
0
0
0
0
0
0
0
0
0
0
0
0
0
0
0
0
0
0
0
0
0
0
0
0
0
0
0
0
0
0
0
0
0
0
0
0
0
0
0
0
0
0
0
0
0
0
0
0
0
0
0
0
0
0
0
0
0
0
0
0
0
0
0
0
0
0
0
0
0
0
0
0
0
0
0
0
0
0
0
0
0
0
0
0
0
0
0
0
0
0
0
0
0
0
0
0
0
0
0
0
0
0
0
0
0
0
0
0
0
0
0
0
0
0
0
0
0
0
0
0
0
0
0
0
0
0
0
0
0
0
0
0
0
0
0
0
0
0
0
0
0
0
0
0
0
0
0
0
0
0
0
0
0
0
0
0
0
0
0
0
0
0
0
0
0
0
0
0
0
0
0
0
0
0
0
0
0
0
0
0
0
0
0
0
0
0
0
0
0
0
0
0
0
0
0
0
0
0
0
0
0
0
0
0
0
0
0
0
0
0
0
0
0
0
0
0
0
0
0
0
0
0
0
0
0
0
0
0
0
0
0
0
0
0
0
0
0
0
0
0
0
0
0
0
0
0
0
0
0
0
0
0
0
0
0
0
0
0
0
0
0
0
0
0
0
0
0
0
0
0
0
0
0
0
0
0
0
0
0
0
0
0
0
0
0
0
0
0
0
0
0
0
0
0
0
0
0
0
0
0
0
0
0
0
0
0
0
0
0
0
0
0
0
0
0
0
0
0
0
0
0
0
0
0
0
0
0
0
0
0
0
0
0
0
0
0
0
0
0
0
0
0
0
0
0
0
0
0
0
0
0
0
0
0
0
0
0
0
0
0
0
0
0
0
0
0
0
0
0
0
0
0
0
0
0
0
0
0
0
0
0
0
0
0
0
0
0
0
0
0
0
0
0
0
0
0
0
0
0
-0.0542711
0.0542711
0.00396209
0.00099833
0.00049226
0.000302696
0.00020732
0.000151692
0.00011625
9.22938e-05
7.53807e-05
6.30201e-05
5.37196e-05
4.65411e-05
4.08733e-05
3.63062e-05
3.25587e-05
2.94337e-05
2.67906e-05
2.45275e-05
2.25686e-05
2.08572e-05
1.935e-05
1.80131e-05
1.68201e-05
1.57496e-05
1.47845e-05
1.39105e-05
1.31161e-05
1.23915e-05
1.17283e-05
1.11195e-05
1.05592e-05
1.00421e-05
9.56378e-06
9.1203e-06
8.70824e-06
8.32462e-06
7.96678e-06
7.63239e-06
7.31938e-06
7.02589e-06
6.75029e-06
6.49109e-06
6.24696e-06
6.01673e-06
5.79931e-06
5.59373e-06
5.39912e-06
5.21466e-06
5.03965e-06
4.87341e-06
4.71534e-06
4.56489e-06
4.42155e-06
4.28486e-06
4.15439e-06
4.02975e-06
3.91057e-06
3.79653e-06
3.68731e-06
3.58262e-06
3.48221e-06
3.38583e-06
3.29325e-06
3.20425e-06
3.11865e-06
3.03626e-06
2.95691e-06
2.88043e-06
2.80668e-06
2.73553e-06
2.66684e-06
2.60048e-06
2.53635e-06
2.47434e-06
2.41435e-06
2.35628e-06
2.30005e-06
2.24557e-06
2.19276e-06
2.14155e-06
2.09188e-06
2.04367e-06
1.99686e-06
1.9514e-06
1.90724e-06
1.86431e-06
1.82257e-06
1.78197e-06
1.74247e-06
1.70403e-06
1.66661e-06
1.63017e-06
1.59467e-06
1.56009e-06
1.52638e-06
1.49353e-06
1.46149e-06
1.43025e-06
1.39977e-06
1.37003e-06
1.34101e-06
1.31268e-06
1.28502e-06
1.25802e-06
1.23165e-06
1.20589e-06
1.18072e-06
1.15613e-06
1.1321e-06
1.10862e-06
1.08566e-06
1.06322e-06
1.04127e-06
1.01982e-06
9.98834e-07
9.78311e-07
9.58236e-07
9.38597e-07
9.19384e-07
9.00585e-07
8.8219e-07
8.64189e-07
8.46573e-07
8.2933e-07
8.12453e-07
7.95933e-07
7.79761e-07
7.63929e-07
7.48429e-07
7.33252e-07
7.18393e-07
7.03842e-07
6.89594e-07
6.75641e-07
6.61976e-07
6.48593e-07
6.35487e-07
6.2265e-07
6.10076e-07
5.97761e-07
5.85697e-07
5.73881e-07
5.62305e-07
5.50966e-07
5.39858e-07
5.28976e-07
5.18316e-07
5.07872e-07
4.9764e-07
4.87616e-07
4.77794e-07
4.68172e-07
4.58744e-07
4.49507e-07
4.40457e-07
4.31589e-07
4.22901e-07
4.14388e-07
4.06046e-07
3.97873e-07
3.89864e-07
3.82017e-07
3.74327e-07
3.66793e-07
3.5941e-07
3.52176e-07
3.45087e-07
3.38141e-07
3.31334e-07
3.24664e-07
3.18128e-07
3.11724e-07
3.05448e-07
2.99298e-07
2.93272e-07
2.87367e-07
2.8158e-07
2.7591e-07
2.70353e-07
2.64908e-07
2.59572e-07
2.54344e-07
2.4922e-07
2.442e-07
2.3928e-07
2.34459e-07
2.29734e-07
2.25105e-07
2.20568e-07
2.16123e-07
2.11766e-07
2.07498e-07
2.03315e-07
1.99216e-07
1.95199e-07
1.91263e-07
1.87407e-07
1.83627e-07
1.79924e-07
1.76295e-07
1.72739e-07
1.69254e-07
1.6584e-07
1.62494e-07
1.59215e-07
1.56002e-07
1.52854e-07
1.4977e-07
1.46747e-07
1.43785e-07
1.40883e-07
1.38039e-07
1.35252e-07
1.32522e-07
1.29846e-07
1.27225e-07
1.24656e-07
1.22138e-07
1.19672e-07
1.17255e-07
1.14887e-07
1.12566e-07
1.10292e-07
1.08064e-07
1.05881e-07
1.03742e-07
1.01646e-07
9.95923e-08
9.75798e-08
9.56079e-08
9.36757e-08
9.17825e-08
8.99274e-08
8.81097e-08
8.63287e-08
8.45835e-08
8.28736e-08
8.11982e-08
7.95566e-08
7.79481e-08
7.63722e-08
7.48281e-08
7.33152e-08
7.1833e-08
7.03808e-08
6.8958e-08
6.7564e-08
6.61983e-08
6.48603e-08
6.35495e-08
6.22652e-08
6.1007e-08
5.97743e-08
5.85666e-08
5.73832e-08
5.62238e-08
5.50877e-08
5.39744e-08
5.28834e-08
5.18141e-08
5.0766e-08
4.97385e-08
4.87311e-08
4.77432e-08
4.67742e-08
4.58237e-08
4.4891e-08
4.39755e-08
4.30767e-08
4.21941e-08
4.1327e-08
4.04749e-08
3.96372e-08
3.88133e-08
3.80028e-08
3.7205e-08
3.64194e-08
3.56456e-08
3.48829e-08
3.41309e-08
3.33892e-08
3.26572e-08
3.19345e-08
3.12207e-08
3.05155e-08
2.98183e-08
2.9129e-08
2.84472e-08
2.77725e-08
2.71048e-08
2.64437e-08
2.57892e-08
2.5141e-08
2.44989e-08
2.38629e-08
2.32329e-08
2.26088e-08
2.19905e-08
2.13782e-08
2.07717e-08
2.01712e-08
1.95767e-08
1.89883e-08
1.84061e-08
1.78303e-08
1.72611e-08
1.66986e-08
1.6143e-08
1.55945e-08
1.50534e-08
1.45199e-08
1.39942e-08
1.34766e-08
1.29674e-08
1.24667e-08
1.19749e-08
1.14922e-08
1.10188e-08
1.0555e-08
1.0101e-08
9.65699e-09
9.22322e-09
8.79987e-09
8.38711e-09
7.9851e-09
7.59398e-09
7.21387e-09
6.84487e-09
6.48708e-09
6.14052e-09
5.80528e-09
5.48134e-09
5.16877e-09
4.86749e-09
4.57752e-09
4.29876e-09
4.03118e-09
3.7746e-09
3.52902e-09
3.29417e-09
3.07005e-09
2.85634e-09
2.65304e-09
2.45972e-09
2.27642e-09
2.10263e-09
1.93839e-09
1.78312e-09
1.63693e-09
1.49909e-09
1.36985e-09
1.24832e-09
1.13486e-09
1.02843e-09
9.29541e-10
8.36948e-10
7.514e-10
6.71385e-10
5.97953e-10
5.29276e-10
4.66791e-10
4.08228e-10
3.55519e-10
3.05876e-10
2.61864e-10
2.20002e-10
1.83617e-10
1.48434e-10
1.18733e-10
8.9212e-11
6.53246e-11
4.0524e-11
2.16869e-11
7.66289e-13
-1.37416e-11
-3.15691e-11
-4.2395e-11
-5.77726e-11
-6.55416e-11
-7.89374e-11
-8.43082e-11
-9.59192e-11
-9.97734e-11
-1.09292e-10
-1.13119e-10
-1.19339e-10
-1.25908e-10
-1.25715e-10
-1.40862e-10
-1.26768e-10
-1.63578e-10
-1.16431e-10
-2.06797e-10
-6.50963e-11
-2.96501e-10
3.31871e-10
-1.74402e-10
-1.74402e-10
-0.0952159
0.0952159
0.0129756
0.00385462
0.00193431
0.0011962
0.000821741
0.000602314
0.000462067
0.000367041
0.000299831
0.000250645
0.000213602
0.000184994
0.0001624
0.000144195
0.00012926
0.00011681
0.000106285
9.72762e-05
8.9483e-05
8.26777e-05
7.66869e-05
7.13754e-05
6.66372e-05
6.23871e-05
5.85565e-05
5.50887e-05
5.19373e-05
4.90631e-05
4.64331e-05
4.40194e-05
4.17981e-05
3.97484e-05
3.78526e-05
3.60951e-05
3.44623e-05
3.29422e-05
3.15245e-05
3.01998e-05
2.89598e-05
2.77973e-05
2.67056e-05
2.5679e-05
2.47121e-05
2.38003e-05
2.29393e-05
2.21253e-05
2.13546e-05
2.06243e-05
1.99313e-05
1.92731e-05
1.86473e-05
1.80517e-05
1.74842e-05
1.69431e-05
1.64266e-05
1.59332e-05
1.54615e-05
1.50101e-05
1.45778e-05
1.41634e-05
1.3766e-05
1.33846e-05
1.30182e-05
1.2666e-05
1.23272e-05
1.20012e-05
1.16872e-05
1.13846e-05
1.10928e-05
1.08112e-05
1.05394e-05
1.02769e-05
1.00232e-05
9.77784e-06
9.5405e-06
9.31078e-06
9.08833e-06
8.87282e-06
8.66393e-06
8.46138e-06
8.2649e-06
8.07422e-06
7.88909e-06
7.7093e-06
7.53462e-06
7.36484e-06
7.19977e-06
7.03923e-06
6.88305e-06
6.73104e-06
6.58307e-06
6.43899e-06
6.29864e-06
6.1619e-06
6.02864e-06
5.89874e-06
5.77209e-06
5.64857e-06
5.52808e-06
5.41052e-06
5.29581e-06
5.18383e-06
5.07452e-06
4.96779e-06
4.86355e-06
4.76174e-06
4.66228e-06
4.5651e-06
4.47014e-06
4.37733e-06
4.28661e-06
4.19793e-06
4.11122e-06
4.02644e-06
3.94353e-06
3.86244e-06
3.78312e-06
3.70553e-06
3.62962e-06
3.55536e-06
3.48269e-06
3.41157e-06
3.34198e-06
3.27387e-06
3.2072e-06
3.14195e-06
3.07807e-06
3.01553e-06
2.95431e-06
2.89437e-06
2.83568e-06
2.77821e-06
2.72194e-06
2.66683e-06
2.61286e-06
2.56001e-06
2.50825e-06
2.45756e-06
2.40791e-06
2.35928e-06
2.31164e-06
2.26498e-06
2.21928e-06
2.1745e-06
2.13064e-06
2.08768e-06
2.04559e-06
2.00435e-06
1.96395e-06
1.92438e-06
1.8856e-06
1.84761e-06
1.81039e-06
1.77393e-06
1.7382e-06
1.70319e-06
1.66889e-06
1.63529e-06
1.60236e-06
1.57009e-06
1.53848e-06
1.5075e-06
1.47715e-06
1.44741e-06
1.41827e-06
1.38971e-06
1.36173e-06
1.33432e-06
1.30745e-06
1.28112e-06
1.25533e-06
1.23005e-06
1.20528e-06
1.18101e-06
1.15722e-06
1.13392e-06
1.11108e-06
1.0887e-06
1.06677e-06
1.04528e-06
1.02423e-06
1.00359e-06
9.83371e-07
9.63557e-07
9.44141e-07
9.25115e-07
9.06472e-07
8.88203e-07
8.703e-07
8.52758e-07
8.35568e-07
8.18723e-07
8.02216e-07
7.86042e-07
7.70192e-07
7.54661e-07
7.39442e-07
7.24528e-07
7.09915e-07
6.95595e-07
6.81564e-07
6.67814e-07
6.54341e-07
6.41139e-07
6.28202e-07
6.15526e-07
6.03104e-07
5.90933e-07
5.79006e-07
5.6732e-07
5.55869e-07
5.44648e-07
5.33653e-07
5.22879e-07
5.12323e-07
5.01978e-07
4.91843e-07
4.81911e-07
4.72179e-07
4.62643e-07
4.533e-07
4.44144e-07
4.35173e-07
4.26383e-07
4.1777e-07
4.0933e-07
4.0106e-07
3.92957e-07
3.85017e-07
3.77238e-07
3.69614e-07
3.62145e-07
3.54826e-07
3.47655e-07
3.40628e-07
3.33743e-07
3.26997e-07
3.20388e-07
3.13911e-07
3.07566e-07
3.01348e-07
2.95257e-07
2.89288e-07
2.83441e-07
2.77712e-07
2.72098e-07
2.66599e-07
2.61211e-07
2.55933e-07
2.50761e-07
2.45694e-07
2.4073e-07
2.35867e-07
2.31101e-07
2.26432e-07
2.21857e-07
2.17374e-07
2.12981e-07
2.08675e-07
2.04455e-07
2.00318e-07
1.96262e-07
1.92285e-07
1.88385e-07
1.84559e-07
1.80805e-07
1.77121e-07
1.73504e-07
1.69953e-07
1.66465e-07
1.63038e-07
1.59669e-07
1.56357e-07
1.53098e-07
1.49892e-07
1.46735e-07
1.43627e-07
1.40563e-07
1.37543e-07
1.34565e-07
1.31627e-07
1.28726e-07
1.25862e-07
1.23032e-07
1.20236e-07
1.17471e-07
1.14737e-07
1.12031e-07
1.09354e-07
1.06704e-07
1.0408e-07
1.01482e-07
9.89078e-08
9.63583e-08
9.38327e-08
9.13306e-08
8.88519e-08
8.63964e-08
8.39643e-08
8.15556e-08
7.91707e-08
7.68098e-08
7.44733e-08
7.21619e-08
6.98761e-08
6.76166e-08
6.53842e-08
6.31796e-08
6.10037e-08
5.88576e-08
5.6742e-08
5.4658e-08
5.26067e-08
5.0589e-08
4.86059e-08
4.66585e-08
4.47478e-08
4.28747e-08
4.10402e-08
3.92451e-08
3.74904e-08
3.57768e-08
3.41051e-08
3.24759e-08
3.08899e-08
2.93475e-08
2.78494e-08
2.63957e-08
2.4987e-08
2.36233e-08
2.23048e-08
2.10316e-08
1.98037e-08
1.8621e-08
1.74834e-08
1.63905e-08
1.53422e-08
1.43377e-08
1.3377e-08
1.24591e-08
1.15838e-08
1.07498e-08
9.95716e-09
9.2042e-09
8.49091e-09
7.81532e-09
7.17757e-09
6.57532e-09
6.00894e-09
5.47566e-09
4.97623e-09
4.50734e-09
4.07019e-09
3.66082e-09
3.28111e-09
2.92625e-09
2.599e-09
2.2936e-09
2.01397e-09
1.75311e-09
1.51636e-09
1.29519e-09
1.09677e-09
9.10571e-10
7.46074e-10
5.90284e-10
4.55579e-10
3.25897e-10
2.17207e-10
1.09646e-10
2.35718e-11
-6.55398e-11
-1.32067e-10
-2.06103e-10
-2.5588e-10
-3.17865e-10
-3.53433e-10
-4.05901e-10
-4.29654e-10
-4.74442e-10
-4.88951e-10
-5.26831e-10
-5.35478e-10
-5.65458e-10
-5.7371e-10
-5.91415e-10
-6.09626e-10
-6.03627e-10
-6.53381e-10
-5.96144e-10
-7.25837e-10
-5.46902e-10
-8.73797e-10
-3.47213e-10
-1.18723e-09
1.10939e-09
-7.34976e-10
-7.34976e-10
-0.125293
0.125293
0.0249359
0.00835802
0.004278
0.00266152
0.00183374
0.00134635
0.00103388
0.000821704
0.000671387
0.00056125
0.000478232
0.000414085
0.00036341
0.000322576
0.000289079
0.000261164
0.000237571
0.000217385
0.000199929
0.000184691
0.000171281
0.000159395
0.000148795
0.00013929
0.000130724
0.000122972
0.000115928
0.000109505
0.000103628
9.8235e-05
9.32725e-05
8.86939e-05
8.44594e-05
8.0534e-05
7.68875e-05
7.34931e-05
7.03272e-05
6.73692e-05
6.46006e-05
6.20051e-05
5.95679e-05
5.7276e-05
5.51176e-05
5.30822e-05
5.11602e-05
4.93431e-05
4.7623e-05
4.59928e-05
4.44462e-05
4.29772e-05
4.15805e-05
4.02511e-05
3.89848e-05
3.77772e-05
3.66246e-05
3.55236e-05
3.44709e-05
3.34636e-05
3.2499e-05
3.15745e-05
3.06878e-05
2.98367e-05
2.90192e-05
2.82334e-05
2.74776e-05
2.67502e-05
2.60497e-05
2.53746e-05
2.47236e-05
2.40956e-05
2.34893e-05
2.29036e-05
2.23377e-05
2.17904e-05
2.1261e-05
2.07487e-05
2.02525e-05
1.97718e-05
1.93059e-05
1.88542e-05
1.8416e-05
1.79908e-05
1.75779e-05
1.7177e-05
1.67874e-05
1.64088e-05
1.60408e-05
1.56828e-05
1.53345e-05
1.49956e-05
1.46657e-05
1.43444e-05
1.40315e-05
1.37266e-05
1.34296e-05
1.314e-05
1.28576e-05
1.25823e-05
1.23137e-05
1.20516e-05
1.17959e-05
1.15463e-05
1.13026e-05
1.10647e-05
1.08324e-05
1.06055e-05
1.03838e-05
1.01672e-05
9.9556e-06
9.74876e-06
9.5466e-06
9.34896e-06
9.15574e-06
8.96681e-06
8.78205e-06
8.60136e-06
8.42462e-06
8.25173e-06
8.0826e-06
7.91712e-06
7.7552e-06
7.59676e-06
7.44171e-06
7.28996e-06
7.14144e-06
6.99606e-06
6.85375e-06
6.71443e-06
6.57804e-06
6.44451e-06
6.31377e-06
6.18576e-06
6.06041e-06
5.93766e-06
5.81745e-06
5.69973e-06
5.58444e-06
5.47153e-06
5.36094e-06
5.25262e-06
5.14652e-06
5.0426e-06
4.94081e-06
4.84109e-06
4.74341e-06
4.64772e-06
4.55398e-06
4.46215e-06
4.37218e-06
4.28405e-06
4.1977e-06
4.1131e-06
4.03022e-06
3.94901e-06
3.86945e-06
3.7915e-06
3.71512e-06
3.64029e-06
3.56697e-06
3.49512e-06
3.42473e-06
3.35576e-06
3.28818e-06
3.22195e-06
3.15707e-06
3.09349e-06
3.03119e-06
2.97014e-06
2.91033e-06
2.85172e-06
2.79428e-06
2.738e-06
2.68286e-06
2.62882e-06
2.57587e-06
2.52398e-06
2.47313e-06
2.42331e-06
2.37449e-06
2.32665e-06
2.27977e-06
2.23383e-06
2.18882e-06
2.14471e-06
2.10149e-06
2.05913e-06
2.01763e-06
1.97696e-06
1.93711e-06
1.89806e-06
1.85979e-06
1.82229e-06
1.78555e-06
1.74954e-06
1.71426e-06
1.67969e-06
1.64581e-06
1.61261e-06
1.58008e-06
1.54821e-06
1.51697e-06
1.48637e-06
1.45638e-06
1.42699e-06
1.39819e-06
1.36998e-06
1.34233e-06
1.31524e-06
1.28869e-06
1.26268e-06
1.23719e-06
1.21221e-06
1.18774e-06
1.16376e-06
1.14026e-06
1.11724e-06
1.09468e-06
1.07257e-06
1.05091e-06
1.02969e-06
1.00889e-06
9.88511e-07
9.68543e-07
9.48978e-07
9.29807e-07
9.11023e-07
8.92617e-07
8.74581e-07
8.5691e-07
8.39594e-07
8.22627e-07
8.06003e-07
7.89713e-07
7.73752e-07
7.58113e-07
7.4279e-07
7.27776e-07
7.13064e-07
6.9865e-07
6.84527e-07
6.7069e-07
6.57132e-07
6.43849e-07
6.30834e-07
6.18083e-07
6.0559e-07
5.93351e-07
5.81359e-07
5.69611e-07
5.58101e-07
5.46824e-07
5.35775e-07
5.2495e-07
5.14343e-07
5.03951e-07
4.93767e-07
4.83788e-07
4.74009e-07
4.64423e-07
4.55028e-07
4.45817e-07
4.36787e-07
4.27931e-07
4.19245e-07
4.10725e-07
4.02364e-07
3.94158e-07
3.86102e-07
3.78191e-07
3.70419e-07
3.62782e-07
3.55274e-07
3.47891e-07
3.40628e-07
3.33479e-07
3.26441e-07
3.19507e-07
3.12675e-07
3.05938e-07
2.99294e-07
2.92737e-07
2.86265e-07
2.79872e-07
2.73556e-07
2.67313e-07
2.61141e-07
2.55035e-07
2.48995e-07
2.43016e-07
2.37098e-07
2.31237e-07
2.25434e-07
2.19685e-07
2.13991e-07
2.0835e-07
2.02761e-07
1.97225e-07
1.91741e-07
1.8631e-07
1.80931e-07
1.75606e-07
1.70335e-07
1.65119e-07
1.59959e-07
1.54858e-07
1.49816e-07
1.44835e-07
1.39917e-07
1.35064e-07
1.30278e-07
1.25562e-07
1.20916e-07
1.16345e-07
1.1185e-07
1.07432e-07
1.03096e-07
9.88419e-08
9.46729e-08
9.05909e-08
8.65979e-08
8.26957e-08
7.8886e-08
7.51705e-08
7.15507e-08
6.8028e-08
6.46033e-08
6.12779e-08
5.80523e-08
5.49274e-08
5.19034e-08
4.89809e-08
4.61596e-08
4.34399e-08
4.08212e-08
3.83034e-08
3.58854e-08
3.35671e-08
3.13466e-08
2.92237e-08
2.71962e-08
2.52637e-08
2.34235e-08
2.16751e-08
2.00151e-08
1.84433e-08
1.69554e-08
1.55515e-08
1.42265e-08
1.29811e-08
1.18092e-08
1.07123e-08
9.68317e-09
8.72426e-09
7.82694e-09
6.9951e-09
6.2184e-09
5.50256e-09
4.83521e-09
4.22453e-09
3.65549e-09
3.13941e-09
2.65794e-09
2.2263e-09
1.82189e-09
1.4649e-09
1.12742e-09
8.35886e-10
5.5584e-10
3.21393e-10
8.99662e-11
-9.49134e-11
-2.85827e-10
-4.27969e-10
-5.85807e-10
-6.91361e-10
-8.22788e-10
-8.97353e-10
-1.00792e-09
-1.05677e-09
-1.15056e-09
-1.17924e-09
-1.25804e-09
-1.27381e-09
-1.33567e-09
-1.35023e-09
-1.38597e-09
-1.42137e-09
-1.40686e-09
-1.50889e-09
-1.38607e-09
-1.65719e-09
-1.27742e-09
-1.96522e-09
-8.52228e-10
-2.61499e-09
2.18796e-09
-1.6661e-09
-1.6661e-09
-0.146488
0.146488
0.0383105
0.014234
0.00745602
0.00467275
0.00323055
0.00237653
0.00182708
0.00145306
0.00118762
0.000992883
0.000845958
0.000732363
0.000642595
0.000570249
0.000510907
0.00046146
0.000419681
0.000383945
0.00035305
0.00032609
0.000302371
0.000281354
0.000262615
0.000245814
0.000230678
0.000216981
0.000204538
0.000193192
0.000182814
0.000173291
0.000164528
0.000156444
0.000148969
0.000142039
0.000135602
0.000129611
0.000124023
0.000118802
0.000113916
0.000109336
0.000105035
0.00010099
9.71815e-05
9.359e-05
9.01987e-05
8.69925e-05
8.39576e-05
8.10814e-05
7.83527e-05
7.5761e-05
7.3297e-05
7.09519e-05
6.87178e-05
6.65875e-05
6.45544e-05
6.26122e-05
6.07553e-05
5.89785e-05
5.7277e-05
5.56463e-05
5.40823e-05
5.25812e-05
5.11393e-05
4.97535e-05
4.84205e-05
4.71376e-05
4.59022e-05
4.47116e-05
4.35636e-05
4.2456e-05
4.13869e-05
4.03542e-05
3.93562e-05
3.83912e-05
3.74578e-05
3.65543e-05
3.56794e-05
3.48319e-05
3.40105e-05
3.32141e-05
3.24415e-05
3.16918e-05
3.09639e-05
3.02571e-05
2.95704e-05
2.8903e-05
2.82541e-05
2.76231e-05
2.70092e-05
2.64118e-05
2.58302e-05
2.5264e-05
2.47125e-05
2.41751e-05
2.36515e-05
2.31411e-05
2.26435e-05
2.21582e-05
2.16849e-05
2.12231e-05
2.07724e-05
2.03326e-05
1.99032e-05
1.9484e-05
1.90746e-05
1.86748e-05
1.82842e-05
1.79026e-05
1.75297e-05
1.71653e-05
1.68091e-05
1.64609e-05
1.61205e-05
1.57876e-05
1.54621e-05
1.51438e-05
1.48325e-05
1.45279e-05
1.423e-05
1.39385e-05
1.36533e-05
1.33742e-05
1.31011e-05
1.28338e-05
1.25722e-05
1.23161e-05
1.20655e-05
1.18201e-05
1.15799e-05
1.13447e-05
1.11144e-05
1.0889e-05
1.06682e-05
1.04521e-05
1.02404e-05
1.00331e-05
9.83005e-06
9.63121e-06
9.43647e-06
9.24573e-06
9.05891e-06
8.87592e-06
8.69667e-06
8.52109e-06
8.3491e-06
8.18061e-06
8.01556e-06
7.85387e-06
7.69547e-06
7.54029e-06
7.38826e-06
7.23932e-06
7.09339e-06
6.95042e-06
6.81035e-06
6.67311e-06
6.53865e-06
6.40691e-06
6.27783e-06
6.15135e-06
6.02743e-06
5.90601e-06
5.78704e-06
5.67046e-06
5.55624e-06
5.44432e-06
5.33465e-06
5.22719e-06
5.1219e-06
5.01872e-06
4.91762e-06
4.81856e-06
4.72148e-06
4.62636e-06
4.53316e-06
4.44183e-06
4.35233e-06
4.26464e-06
4.1787e-06
4.0945e-06
4.01198e-06
3.93113e-06
3.8519e-06
3.77426e-06
3.69819e-06
3.62364e-06
3.55059e-06
3.47901e-06
3.40887e-06
3.34014e-06
3.27279e-06
3.20679e-06
3.14212e-06
3.07875e-06
3.01666e-06
2.95581e-06
2.89619e-06
2.83776e-06
2.78051e-06
2.72441e-06
2.66944e-06
2.61558e-06
2.5628e-06
2.51108e-06
2.4604e-06
2.41075e-06
2.36209e-06
2.31441e-06
2.26769e-06
2.22191e-06
2.17706e-06
2.1331e-06
2.09003e-06
2.04783e-06
2.00648e-06
1.96597e-06
1.92626e-06
1.88736e-06
1.84924e-06
1.81189e-06
1.77529e-06
1.73943e-06
1.7043e-06
1.66987e-06
1.63613e-06
1.60307e-06
1.57068e-06
1.53895e-06
1.50785e-06
1.47738e-06
1.44752e-06
1.41827e-06
1.3896e-06
1.36152e-06
1.334e-06
1.30703e-06
1.28061e-06
1.25472e-06
1.22936e-06
1.20451e-06
1.18016e-06
1.1563e-06
1.13293e-06
1.11003e-06
1.08759e-06
1.06561e-06
1.04407e-06
1.02297e-06
1.00229e-06
9.82039e-07
9.62194e-07
9.42752e-07
9.23702e-07
9.05037e-07
8.86748e-07
8.68826e-07
8.51263e-07
8.34051e-07
8.17181e-07
8.00644e-07
7.84432e-07
7.68535e-07
7.52945e-07
7.37654e-07
7.22653e-07
7.07931e-07
6.93482e-07
6.79294e-07
6.65361e-07
6.51672e-07
6.38219e-07
6.24993e-07
6.11984e-07
5.99186e-07
5.86588e-07
5.74182e-07
5.61961e-07
5.49916e-07
5.38039e-07
5.26323e-07
5.14761e-07
5.03345e-07
4.9207e-07
4.80929e-07
4.69916e-07
4.59026e-07
4.48254e-07
4.37595e-07
4.27046e-07
4.16602e-07
4.0626e-07
3.96018e-07
3.85874e-07
3.75825e-07
3.6587e-07
3.56008e-07
3.4624e-07
3.36563e-07
3.2698e-07
3.17491e-07
3.08097e-07
2.98799e-07
2.896e-07
2.80501e-07
2.71506e-07
2.62616e-07
2.53836e-07
2.45168e-07
2.36616e-07
2.28184e-07
2.19876e-07
2.11695e-07
2.03645e-07
1.95731e-07
1.87956e-07
1.80325e-07
1.72841e-07
1.65508e-07
1.5833e-07
1.5131e-07
1.44452e-07
1.37758e-07
1.31231e-07
1.24874e-07
1.18689e-07
1.12677e-07
1.06842e-07
1.01184e-07
9.57034e-08
9.04016e-08
8.52794e-08
8.03361e-08
7.55723e-08
7.09868e-08
6.65795e-08
6.23483e-08
5.82927e-08
5.44097e-08
5.06987e-08
4.71557e-08
4.37799e-08
4.05665e-08
3.75146e-08
3.46181e-08
3.18766e-08
2.92824e-08
2.68357e-08
2.45275e-08
2.23588e-08
2.0319e-08
1.84106e-08
1.66209e-08
1.49541e-08
1.33952e-08
1.19506e-08
1.06026e-08
9.36081e-09
8.20389e-09
7.14565e-09
6.16037e-09
5.26715e-09
4.43458e-09
3.68846e-09
2.99015e-09
2.3739e-09
1.79216e-09
1.28971e-09
8.07843e-10
4.04529e-10
7.17648e-12
-3.10226e-10
-6.37221e-10
-8.80598e-10
-1.15021e-09
-1.33034e-09
-1.55414e-09
-1.68077e-09
-1.86846e-09
-1.95068e-09
-2.10937e-09
-2.15674e-09
-2.28972e-09
-2.31463e-09
-2.41875e-09
-2.44107e-09
-2.50105e-09
-2.558e-09
-2.53341e-09
-2.70219e-09
-2.49564e-09
-2.94876e-09
-2.31096e-09
-3.46386e-09
-1.59744e-09
-4.5426e-09
3.42511e-09
-2.96215e-09
-2.96215e-09
-0.160438
0.160438
0.0519966
0.0211683
0.0113796