# vtk DataFile Version 2.0
FlowField
ASCII
DATASET STRUCTURED_GRID
DIMENSIONS 400 1 200
POINTS 80000 float
0 0 0
0.08 0 0
0.16 0 0
0.24 0 0
0.32 0 0
0.4 0 0
0.48 0 0
0.56 0 0
0.64 0 0
0.72 0 0
0.8 0 0
0.88 0 0
0.96 0 0
1.04 0 0
1.12 0 0
1.2 0 0
1.28 0 0
1.36 0 0
1.44 0 0
1.52 0 0
1.6 0 0
1.68 0 0
1.76 0 0
1.84 0 0
1.92 0 0
2 0 0
2.08 0 0
2.16 0 0
2.24 0 0
2.32 0 0
2.4 0 0
2.48 0 0
2.56 0 0
2.64 0 0
2.72 0 0
2.8 0 0
2.88 0 0
2.96 0 0
3.04 0 0
3.12 0 0
3.2 0 0
3.28 0 0
3.36 0 0
3.44 0 0
3.52 0 0
3.6 0 0
3.68 0 0
3.76 0 0
3.84 0 0
3.92 0 0
4 0 0
4.08 0 0
4.16 0 0
4.24 0 0
4.32 0 0
4.4 0 0
4.48 0 0
4.56 0 0
4.64 0 0
4.72 0 0
4.8 0 0
4.88 0 0
4.96 0 0
5.04 0 0
5.12 0 0
5.2 0 0
5.28 0 0
5.36 0 0
5.44 0 0
5.52 0 0
5.6 0 0
5.68 0 0
5.76 0 0
5.84 0 0
5.92 0 0
6 0 0
6.08 0 0
6.16 0 0
6.24 0 0
6.32 0 0
6.4 0 0
6.48 0 0
6.56 0 0
6.64 0 0
6.72 0 0
6.8 0 0
6.88 0 0
6.96 0 0
7.04 0 0
7.12 0 0
7.2 0 0
7.28 0 0
7.36 0 0
7.44 0 0
7.52 0 0
7.6 0 0
7.68 0 0
7.76 0 0
7.84 0 0
7.92 0 0
8 0 0
8.08 0 0
8.16 0 0
8.24 0 0
8.32 0 0
8.4 0 0
8.48 0 0
8.56 0 0
8.64 0 0
8.72 0 0
8.8 0 0
8.88 0 0
8.96 0 0
9.04 0 0
9.12 0 0
9.2 0 0
9.28 0 0
9.36 0 0
9.44 0 0
9.52 0 0
9.6 0 0
9.68 0 0
9.76 0 0
9.84 0 0
9.92 0 0
10 0 0
10.08 0 0
10.16 0 0
10.24 0 0
10.32 0 0
10.4 0 0
10.48 0 0
10.56 0 0
10.64 0 0
10.72 0 0
10.8 0 0
10.88 0 0
10.96 0 0
11.04 0 0
11.12 0 0
11.2 0 0
11.28 0 0
11.36 0 0
11.44 0 0
11.52 0 0
11.6 0 0
11.68 0 0
11.76 0 0
11.84 0 0
11.92 0 0
12 0 0
12.08 0 0
12.16 0 0
12.24 0 0
12.32 0 0
12.4 0 0
12.48 0 0
12.56 0 0
12.64 0 0
12.72 0 0
12.8 0 0
12.88 0 0
12.96 0 0
13.04 0 0
13.12 0 0
13.2 0 0
13.28 0 0
13.36 0 0
13.44 0 0
13.52 0 0
13.6 0 0
13.68 0 0
13.76 0 0
13.84 0 0
13.92 0 0
14 0 0
14.08 0 0
14.16 0 0
14.24 0 0
14.32 0 0
14.4 0 0
14.48 0 0
14.56 0 0
14.64 0 0
14.72 0 0
14.8 0 0
14.88 0 0
14.96 0 0
15.04 0 0
15.12 0 0
15.2 0 0
15.28 0 0
15.36 0 0
15.44 0 0
15.52 0 0
15.6 0 0
15.68 0 0
15.76 0 0
15.84 0 0
15.92 0 0
16 0 0
16.08 0 0
16.16 0 0
16.24 0 0
16.32 0 0
16.4 0 0
16.48 0 0
16.56 0 0
16.64 0 0
16.72 0 0
16.8 0 0
16.88 0 0
16.96 0 0
17.04 0 0
17.12 0 0
17.2 0 0
17.28 0 0
17.36 0 0
17.44 0 0
17.52 0 0
17.6 0 0
17.68 0 0
17.76 0 0
17.84 0 0
17.92 0 0
18 0 0
18.08 0 0
18.16 0 0
18.24 0 0
18.32 0 0
18.4 0 0
18.48 0 0
18.56 0 0
18.64 0 0
18.72 0 0
18.8 0 0
18.88 0 0
18.96 0 0
19.04 0 0
19.12 0 0
19.2 0 0
19.28 0 0
19.36 0 0
19.44 0 0
19.52 0 0
19.6 0 0
19.68 0 0
19.76 0 0
19.84 0 0
19.92 0 0
20 0 0
20.08 0 0
20.16 0 0
20.24 0 0
20.32 0 0
20.4 0 0
20.48 0 0
20.56 0 0
20.64 0 0
20.72 0 0
20.8 0 0
20.88 0 0
20.96 0 0
21.04 0 0
21.12 0 0
21.2 0 0
21.28 0 0
21.36 0 0
21.44 0 0
21.52 0 0
21.6 0 0
21.68 0 0
21.76 0 0
21.84 0 0
21.92 0 0
22 0 0
22.08 0 0
22.16 0 0
22.24 0 0
22.32 0 0
22.4 0 0
22.48 0 0
22.56 0 0
22.64 0 0
22.72 0 0
22.8 0 0
22.88 0 0
22.96 0 0
23.04 0 0
23.12 0 0
23.2 0 0
23.28 0 0
23.36 0 0
23.44 0 0
23.52 0 0
23.6 0 0
23.68 0 0
23.76 0 0
23.84 0 0
23.92 0 0
24 0 0
24.08 0 0
24.16 0 0
24.24 0 0
24.32 0 0
24.4 0 0
24.48 0 0
24.56 0 0
24.64 0 0
24.72 0 0
24.8 0 0
24.88 0 0
24.96 0 0
25.04 0 0
25.12 0 0
25.2 0 0
25.28 0 0
25.36 0 0
25.44 0 0
25.52 0 0
25.6 0 0
25.68 0 0
25.76 0 0
25.84 0 0
25.92 0 0
26 0 0
26.08 0 0
26.16 0 0
26.24 0 0
26.32 0 0
26.4 0 0
26.48 0 0
26.56 0 0
26.64 0 0
26.72 0 0
26.8 0 0
26.88 0 0
26.96 0 0
27.04 0 0
27.12 0 0
27.2 0 0
27.28 0 0
27.36 0 0
27.44 0 0
27.52 0 0
27.6 0 0
27.68 0 0
27.76 0 0
27.84 0 0
27.92 0 0
28 0 0
28.08 0 0
28.16 0 0
28.24 0 0
28.32 0 0
28.4 0 0
28.48 0 0
28.56 0 0
28.64 0 0
28.72 0 0
28.8 0 0
28.88 0 0
28.96 0 0
29.04 0 0
29.12 0 0
29.2 0 0
29.28 0 0
29.36 0 0
29.44 0 0
29.52 0 0
29.6 0 0
29.68 0 0
29.76 0 0
29.84 0 0
29.92 0 0
30 0 0
30.08 0 0
30.16 0 0
30.24 0 0
30.32 0 0
30.4 0 0
30.48 0 0
30.56 0 0
30.64 0 0
30.72 0 0
30.8 0 0
30.88 0 0
30.96 0 0
31.04 0 0
31.12 0 0
31.2 0 0
31.28 0 0
31.36 0 0
31.44 0 0
31.52 0 0
31.6 0 0
31.68 0 0
31.76 0 0
31.84 0 0
31.92 0 0
0 0.005 0
0.08 0.005 0
0.16 0.005 0
0.24 0.005 0
0.32 0.005 0
0.4 0.005 0
0.48 0.005 0
0.56 0.005 0
0.64 0.005 0
0.72 0.005 0
0.8 0.005 0
0.88 0.005 0
0.96 0.005 0
1.04 0.005 0
1.12 0.005 0
1.2 0.005 0
1.28 0.005 0
1.36 0.005 0
1.44 0.005 0
1.52 0.005 0
1.6 0.005 0
1.68 0.005 0
1.76 0.005 0
1.84 0.005 0
1.92 0.005 0
2 0.005 0
2.08 0.005 0
2.16 0.005 0
2.24 0.005 0
2.32 0.005 0
2.4 0.005 0
2.48 0.005 0
2.56 0.005 0
2.64 0.005 0
2.72 0.005 0
2.8 0.005 0
2.88 0.005 0
2.96 0.005 0
3.04 0.005 0
3.12 0.005 0
3.2 0.005 0
3.28 0.005 0
3.36 0.005 0
3.44 0.005 0
3.52 0.005 0
3.6 0.005 0
3.68 0.005 0
3.76 0.005 0
3.84 0.005 0
3.92 0.005 0
4 0.005 0
4.08 0.005 0
4.16 0.005 0
4.24 0.005 0
4.32 0.005 0
4.4 0.005 0
4.48 0.005 0
4.56 0.005 0
4.64 0.005 0
4.72 0.005 0
4.8 0.005 0
4.88 0.005 0
4.96 0.005 0
5.04 0.005 0
5.12 0.005 0
5.2 0.005 0
5.28 0.005 0
5.36 0.005 0
5.44 0.005 0
5.52 0.005 0
5.6 0.005 0
5.68 0.005 0
5.76 0.005 0
5.84 0.005 0
5.92 0.005 0
6 0.005 0
6.08 0.005 0
6.16 0.005 0
6.24 0.005 0
6.32 0.005 0
6.4 0.005 0
6.48 0.005 0
6.56 0.005 0
6.64 0.005 0
6.72 0.005 0
6.8 0.005 0
6.88 0.005 0
6.96 0.005 0
7.04 0.005 0
7.12 0.005 0
7.2 0.005 0
7.28 0.005 0
7.36 0.005 0
7.44 0.005 0
7.52 0.005 0
7.6 0.005 0
7.68 0.005 0
7.76 0.005 0
7.84 0.005 0
7.92 0.005 0
8 0.005 0
8.08 0.005 0
8.16 0.005 0
8.24 0.005 0
8.32 0.005 0
8.4 0.005 0
8.48 0.005 0
8.56 0.005 0
8.64 0.005 0
8.72 0.005 0
8.8 0.005 0
8.88 0.005 0
8.96 0.005 0
9.04 0.005 0
9.12 0.005 0
9.2 0.005 0
9.28 0.005 0
9.36 0.005 0
9.44 0.005 0
9.52 0.005 0
9.6 0.005 0
9.68 0.005 0
9.76 0.005 0
9.84 0.005 0
9.92 0.005 0
10 0.005 0
10.08 0.005 0
10.16 0.005 0
10.24 0.005 0
10.32 0.005 0
10.4 0.005 0
10.48 0.005 0
10.56 0.005 0
10.64 0.005 0
10.72 0.005 0
10.8 0.005 0
10.88 0.005 0
10.96 0.005 0
11.04 0.005 0
11.12 0.005 0
11.2 0.005 0
11.28 0.005 0
11.36 0.005 0
11.44 0.005 0
11.52 0.005 0
11.6 0.005 0
11.68 0.005 0
11.76 0.005 0
11.84 0.005 0
11.92 0.005 0
12 0.005 0
12.08 0.005 0
12.16 0.005 0
12.24 0.005 0
12.32 0.005 0
12.4 0.005 0
12.48 0.005 0
12.56 0.005 0
12.64 0.005 0
12.72 0.005 0
12.8 0.005 0
12.88 0.005 0
12.96 0.005 0
13.04 0.005 0
13.12 0.005 0
13.2 0.005 0
13.28 0.005 0
13.36 0.005 0
13.44 0.005 0
13.52 0.005 0
13.6 0.005 0
13.68 0.005 0
13.76 0.005 0
13.84 0.005 0
13.92 0.005 0
14 0.005 0
14.08 0.005 0
14.16 0.005 0
14.24 0.005 0
14.32 0.005 0
14.4 0.005 0
14.48 0.005 0
14.56 0.005 0
14.64 0.005 0
14.72 0.005 0
14.8 0.005 0
14.88 0.005 0
14.96 0.005 0
15.04 0.005 0
15.12 0.005 0
15.2 0.005 0
15.28 0.005 0
15.36 0.005 0
15.44 0.005 0
15.52 0.005 0
15.6 0.005 0
15.68 0.005 0
15.76 0.005 0
15.84 0.005 0
15.92 0.005 0
16 0.005 0
16.08 0.005 0
16.16 0.005 0
16.24 0.005 0
16.32 0.005 0
16.4 0.005 0
16.48 0.005 0
16.56 0.005 0
16.64 0.005 0
16.72 0.005 0
16.8 0.005 0
16.88 0.005 0
16.96 0.005 0
17.04 0.005 0
17.12 0.005 0
17.2 0.005 0
17.28 0.005 0
17.36 0.005 0
17.44 0.005 0
17.52 0.005 0
17.6 0.005 0
17.68 0.005 0
17.76 0.005 0
17.84 0.005 0
17.92 0.005 0
18 0.005 0
18.08 0.005 0
18.16 0.005 0
18.24 0.005 0
18.32 0.005 0
18.4 0.005 0
18.48 0.005 0
18.56 0.005 0
18.64 0.005 0
18.72 0.005 0
18.8 0.005 0
18.88 0.005 0
18.96 0.005 0
19.04 0.005 0
19.12 0.005 0
19.2 0.005 0
19.28 0.005 0
19.36 0.005 0
19.44 0.005 0
19.52 0.005 0
19.6 0.005 0
19.68 0.005 0
19.76 0.005 0
19.84 0.005 0
19.92 0.005 0
20 0.005 0
20.08 0.005 0
20.16 0.005 0
20.24 0.005 0
20.32 0.005 0
20.4 0.005 0
20.48 0.005 0
20.56 0.005 0
20.64 0.005 0
20.72 0.005 0
20.8 0.005 0
20.88 0.005 0
20.96 0.005 0
21.04 0.005 0
21.12 0.005 0
21.2 0.005 0
21.28 0.005 0
21.36 0.005 0
21.44 0.005 0
21.52 0.005 0
21.6 0.005 0
21.68 0.005 0
21.76 0.005 0
21.84 0.005 0
21.92 0.005 0
22 0.005 0
22.08 0.005 0
22.16 0.005 0
22.24 0.005 0
22.32 0.005 0
22.4 0.005 0
22.48 0.005 0
22.56 0.005 0
22.64 0.005 0
22.72 0.005 0
22.8 0.005 0
22.88 0.005 0
22.96 0.005 0
23.04 0.005 0
23.12 0.005 0
23.2 0.005 0
23.28 0.005 0
23.36 0.005 0
23.44 0.005 0
23.52 0.005 0
23.6 0.005 0
23.68 0.005 0
23.76 0.005 0
23.84 0.005 0
23.92 0.005 0
24 0.005 0
24.08 0.005 0
24.16 0.005 0
24.24 0.005 0
24.32 0.005 0
24.4 0.005 0
24.48 0.005 0
24.56 0.005 0
24.64 0.005 0
24.72 0.005 0
24.8 0.005 0
24.88 0.005 0
24.96 0.005 0
25.04 0.005 0
25.12 0.005 0
25.2 0.005 0
25.28 0.005 0
25.36 0.005 0
25.44 0.005 0
25.52 0.005 0
25.6 0.005 0
25.68 0.005 0
25.76 0.005 0
25.84 0.005 0
25.92 0.005 0
26 0.005 0
26.08 0.005 0
26.16 0.005 0
26.24 0.005 0
26.32 0.005 0
26.4 0.005 0
26.48 0.005 0
26.56 0.005 0
26.64 0.005 0
26.72 0.005 0
26.8 0.005 0
26.88 0.005 0
26.96 0.005 0
27.04 0.005 0
27.12 0.005 0
27.2 0.005 0
27.28 0.005 0
27.36 0.005 0
27.44 0.005 0
27.52 0.005 0
27.6 0.005 0
27.68 0.005 0
27.76 0.005 0
27.84 0.005 0
27.92 0.005 0
28 0.005 0
28.08 0.005 0
28.16 0.005 0
28.24 0.005 0
28.32 0.005 0
28.4 0.005 0
28.48 0.005 0
28.56 0.005 0
28.64 0.005 0
28.72 0.005 0
28.8 0.005 0
28.88 0.005 0
28.96 0.005 0
29.04 0.005 0
29.12 0.005 0
29.2 0.005 0
29.28 0.005 0
29.36 0.005 0
29.44 0.005 0
29.52 0.005 0
29.6 0.005 0
29.68 0.005 0
29.76 0.005 0
29.84 0.005 0
29.92 0.005 0
30 0.005 0
30.08 0.005 0
30.16 0.005 0
30.24 0.005 0
30.32 0.005 0
30.4 0.005 0
30.48 0.005 0
30.56 0.005 0
30.64 0.005 0
30.72 0.005 0
30.8 0.005 0
30.88 0.005 0
30.96 0.005 0
31.04 0.005 0
31.12 0.005 0
31.2 0.005 0
31.28 0.005 0
31.36 0.005 0
31.44 0.005 0
31.52 0.005 0
31.6 0.005 0
31.68 0.005 0
31.76 0.005 0
31.84 0.005 0
31.92 0.005 0
0 0.01 0
0.08 0.01 0
0.16 0.01 0
0.24 0.01 0
0.32 0.01 0
0.4 0.01 0
0.48 0.01 0
0.56 0.01 0
0.64 0.01 0
0.72 0.01 0
0.8 0.01 0
0.88 0.01 0
0.96 0.01 0
1.04 0.01 0
1.12 0.01 0
1.2 0.01 0
1.28 0.01 0
1.36 0.01 0
1.44 0.01 0
1.52 0.01 0
1.6 0.01 0
1.68 0.01 0
1.76 0.01 0
1.84 0.01 0
1.92 0.01 0
2 0.01 0
2.08 0.01 0
2.16 0.01 0
2.24 0.01 0
2.32 0.01 0
2.4 0.01 0
2.48 0.01 0
2.56 0.01 0
2.64 0.01 0
2.72 0.01 0
2.8 0.01 0
2.88 0.01 0
2.96 0.01 0
3.04 0.01 0
3.12 0.01 0
3.2 0.01 0
3.28 0.01 0
3.36 0.01 0
3.44 0.01 0
3.52 0.01 0
3.6 0.01 0
3.68 0.01 0
3.76 0.01 0
3.84 0.01 0
3.92 0.01 0
4 0.01 0
4.08 0.01 0
4.16 0.01 0
4.24 0.01 0
4.32 0.01 0
4.4 0.01 0
4.48 0.01 0
4.56 0.01 0
4.64 0.01 0
4.72 0.01 0
4.8 0.01 0
4.88 0.01 0
4.96 0.01 0
5.04 0.01 0
5.12 0.01 0
[...]
POINT_DATA 80000

SCALARS v float 1
LOOKUP_TABLE default
0
0
0
0
0
0
0
0
0
0
0
0
0
0
0
0
0
0
0
0
0
0
0
0
0
0
0
0
0
0
0
0
0
0
0
0
0
0
0
0
0
0
0
0
0
0
0
0
0
0
0
0
0
0
0
0
0
0
0
0
0
0
0
0
0
0
0
0
0
0
0
0
0
0
0
0
0
0
0
0
0
0
0
0
0
0
0
0
0
0
0
0
0
0
0
0
0
0
0
0
0
0
0
0
0
0
0
0
0
0
0
0
0
0
0
0
0
0
0
0
0
0
0
0
0
0
0
0
0
0
0
0
0
0
0
0
0
0
0
0
0
0
0
0
0
0
0
0
0
0
0
0
0
0
0
0
0
0
0
0
0
0
0
0
0
0
0
0
0
0
0
0
0
0
0
0
0
0
0
0
0
0
0
0
0
0
0
0
0
0
0
0
0
0
0
0
0
0
0
0
0
0
0
0
0
0
0
0
0
0
0
0
0
0
0
0
0
0
0
0
0
0
0
0
0
0
0
0
0
0
0
0
0
0
0
0
0
0
0
0
0
0
0
0
0
0
0
0
0
0
0
0
0
0
0
0
0
0
0
0
0
0
0
0
0
0
0
0
0
0
0
0
0
0
0
0
0
0
0
0
0
0
0
0
0
0
0
0
0
0
0
0
0
0
0
0
0
0
0
0
0
0
0
0
0
0
0
0
0
0
0
0
0
0
0
0
0
0
0
0
0
0
0
0
0
0
0
0
0
0
0
0
0
0
0
0
0
0
0
0
0
0
0
0
0
0
0
0
0
0
0
0
0
0
0
0
0
0
0
0
0
0
0
0
0
0
0
0
0
0
0
0
0
0
0
0
0
0
0
0
0
0
0
0
0
0
0
0
0
0
0
0
0
0
0
0
0
0
0
0
-0.0542711
0.0542711
0.00396209
0.00099833
0.00049226
0.000302696
0.00020732
0.000151692
0.00011625
9.22938e-05
7.53807e-05
6.30201e-05
5.37196e-05
4.65411e-05
4.08733e-05
3.63062e-05
3.25587e-05
2.94337e-05
2.67906e-05
2.45275e-05
2.25686e-05
2.08572e-05
1.935e-05
1.80131e-05
1.68201e-05
1.57496e-05
1.47845e-05
1.39105e-05
1.31161e-05
1.23915e-05
1.17283e-05
1.11195e-05
1.05592e-05
1.00421e-05
9.56378e-06
9.1203e-06
8.70824e-06
8.32462e-06
7.96678e-06
7.63239e-06
7.31938e-06
7.02589e-06
6.75029e-06
6.49108e-06
6.24696e-06
6.01673e-06
5.79931e-06
5.59373e-06
5.39911e-06
5.21466e-06
5.03965e-06
4.87341e-06
4.71534e-06
4.56489e-06
4.42155e-06
4.28486e-06
4.15439e-06
4.02975e-06
3.91057e-06
3.79653e-06
3.6873e-06
3.58262e-06
3.48221e-06
3.38583e-06
3.29325e-06
3.20425e-06
3.11865e-06
3.03626e-06
2.9569e-06
2.88043e-06
2.80668e-06
2.73553e-06
2.66684e-06
2.60048e-06
2.53635e-06
2.47434e-06
2.41435e-06
2.35628e-06
2.30005e-06
2.24557e-06
2.19276e-06
2.14155e-06
2.09188e-06
2.04367e-06
1.99686e-06
1.9514e-06
1.90723e-06
1.86431e-06
1.82257e-06
1.78197e-06
1.74247e-06
1.70403e-06
1.66661e-06
1.63017e-06
1.59467e-06
1.56009e-06
1.52638e-06
1.49353e-06
1.46149e-06
1.43024e-06
1.39977e-06
1.37003e-06
1.34101e-06
1.31268e-06
1.28502e-06
1.25802e-06
1.23165e-06
1.20589e-06
1.18072e-06
1.15613e-06
1.1321e-06
1.10862e-06
1.08566e-06
1.06322e-06
1.04127e-06
1.01982e-06
9.98833e-07
9.7831e-07
9.58235e-07
9.38596e-07
9.19383e-07
9.00584e-07
8.82189e-07
8.64189e-07
8.46572e-07
8.29329e-07
8.12453e-07
7.95932e-07
7.7976e-07
7.63928e-07
7.48428e-07
7.33252e-07
7.18392e-07
7.03841e-07
6.89593e-07
6.7564e-07
6.61975e-07
6.48592e-07
6.35486e-07
6.22649e-07
6.10075e-07
5.9776e-07
5.85696e-07
5.7388e-07
5.62304e-07
5.50965e-07
5.39857e-07
5.28975e-07
5.18315e-07
5.07871e-07
4.97639e-07
4.87614e-07
4.77793e-07
4.68171e-07
4.58743e-07
4.49506e-07
4.40456e-07
4.31588e-07
4.229e-07
4.14387e-07
4.06045e-07
3.97872e-07
3.89863e-07
3.82016e-07
3.74326e-07
3.66792e-07
3.59409e-07
3.52175e-07
3.45086e-07
3.3814e-07
3.31333e-07
3.24663e-07
3.18127e-07
3.11723e-07
3.05447e-07
2.99297e-07
2.93271e-07
2.87366e-07
2.81579e-07
2.75909e-07
2.70352e-07
2.64907e-07
2.59572e-07
2.54343e-07
2.49219e-07
2.44199e-07
2.39279e-07
2.34458e-07
2.29733e-07
2.25104e-07
2.20567e-07
2.16122e-07
2.11766e-07
2.07497e-07
2.03314e-07
1.99215e-07
1.95198e-07
1.91263e-07
1.87406e-07
1.83626e-07
1.79923e-07
1.76294e-07
1.72738e-07
1.69253e-07
1.65839e-07
1.62493e-07
1.59214e-07
1.56002e-07
1.52854e-07
1.49769e-07
1.46746e-07
1.43784e-07
1.40882e-07
1.38038e-07
1.35252e-07
1.32521e-07
1.29845e-07
1.27224e-07
1.24655e-07
1.22138e-07
1.19671e-07
1.17254e-07
1.14886e-07
1.12565e-07
1.10292e-07
1.08064e-07
1.05881e-07
1.03741e-07
1.01645e-07
9.95915e-08
9.7579e-08
9.56071e-08
9.36749e-08
9.17817e-08
8.99266e-08
8.81089e-08
8.63278e-08
8.45827e-08
8.28728e-08
8.11973e-08
7.95557e-08
7.79472e-08
7.63713e-08
7.48272e-08
7.33143e-08
7.1832e-08
7.03797e-08
6.89569e-08
6.75629e-08
6.61972e-08
6.48591e-08
6.35482e-08
6.22639e-08
6.10057e-08
5.97729e-08
5.85652e-08
5.73818e-08
5.62224e-08
5.50863e-08
5.39731e-08
5.28822e-08
5.1813e-08
5.0765e-08
4.97377e-08
4.87306e-08
4.7743e-08
4.67744e-08
4.58243e-08
4.48921e-08
4.39772e-08
4.30791e-08
4.21972e-08
4.1331e-08
4.04798e-08
3.96431e-08
3.88204e-08
3.80111e-08
3.72147e-08
3.64306e-08
3.56582e-08
3.48972e-08
3.4147e-08
3.34071e-08
3.26771e-08
3.19564e-08
3.12448e-08
3.05417e-08
2.98469e-08
2.91599e-08
2.84805e-08
2.78083e-08
2.71431e-08
2.64846e-08
2.58327e-08
2.51871e-08
2.45476e-08
2.39143e-08
2.32868e-08
2.26653e-08
2.20496e-08
2.14398e-08
2.08357e-08
2.02376e-08
1.96454e-08
1.90593e-08
1.84793e-08
1.79056e-08
1.73383e-08
1.67776e-08
1.62237e-08
1.56768e-08
1.51372e-08
1.4605e-08
1.40804e-08
1.35638e-08
1.30554e-08
1.25554e-08
1.20641e-08
1.15818e-08
1.11086e-08
1.06448e-08
1.01907e-08
9.74646e-09
9.31227e-09
8.88836e-09
8.47486e-09
8.072e-09
7.67986e-09
7.29863e-09
6.92837e-09
6.5692e-09
6.22115e-09
5.88433e-09
5.5587e-09
5.24435e-09
4.9412e-09
4.64931e-09
4.36852e-09
4.09888e-09
3.84019e-09
3.59245e-09
3.3554e-09
3.12906e-09
2.91311e-09
2.70755e-09
2.51198e-09
2.32642e-09
2.15039e-09
1.98392e-09
1.82645e-09
1.67808e-09
1.53811e-09
1.40677e-09
1.28319e-09
1.16772e-09
1.05935e-09
9.58574e-10
8.64158e-10
7.76858e-10
6.95161e-10
6.20099e-10
5.49864e-10
4.85888e-10
4.25908e-10
3.71862e-10
3.20957e-10
2.75732e-10
2.32749e-10
1.95306e-10
1.59141e-10
1.28493e-10
9.81251e-11
7.34301e-11
4.79093e-11
2.83769e-11
6.84486e-12
-8.25178e-12
-2.6582e-11
-3.78841e-11
-5.36751e-11
-6.18429e-11
-7.5561e-11
-8.12535e-11
-9.31154e-11
-9.72393e-11
-1.06939e-10
-1.10969e-10
-1.17335e-10
-1.24045e-10
-1.24007e-10
-1.39166e-10
-1.25297e-10
-1.61929e-10
-1.15221e-10
-2.04987e-10
-6.44584e-11
-2.9415e-10
3.29265e-10
-1.73157e-10
-1.73157e-10
-0.0952159
0.0952159
0.0129756
0.00385462
0.00193431
0.0011962
0.000821741
0.000602314
0.000462067
0.000367041
0.000299831
0.000250645
0.000213602
0.000184994
0.0001624
0.000144195
0.00012926
0.00011681
0.000106285
9.72762e-05
8.9483e-05
8.26777e-05
7.66869e-05
7.13754e-05
6.66372e-05
6.23871e-05
5.85565e-05
5.50887e-05
5.19373e-05
4.90631e-05
4.64331e-05
4.40194e-05
4.17981e-05
3.97484e-05
3.78526e-05
3.60951e-05
3.44623e-05
3.29422e-05
3.15245e-05
3.01998e-05
2.89598e-05
2.77973e-05
2.67056e-05
2.5679e-05
2.47121e-05
2.38003e-05
2.29393e-05
2.21253e-05
2.13546e-05
2.06243e-05
1.99313e-05
1.92731e-05
1.86473e-05
1.80517e-05
1.74842e-05
1.69431e-05
1.64266e-05
1.59332e-05
1.54615e-05
1.50101e-05
1.45778e-05
1.41634e-05
1.3766e-05
1.33846e-05
1.30182e-05
1.2666e-05
1.23272e-05
1.20012e-05
1.16872e-05
1.13846e-05
1.10928e-05
1.08112e-05
1.05394e-05
1.02769e-05
1.00232e-05
9.77784e-06
9.5405e-06
9.31078e-06
9.08833e-06
8.87281e-06
8.66393e-06
8.46138e-06
8.2649e-06
8.07422e-06
7.88909e-06
7.7093e-06
7.53462e-06
7.36484e-06
7.19977e-06
7.03923e-06
6.88304e-06
6.73104e-06
6.58307e-06
6.43898e-06
6.29864e-06
6.1619e-06
6.02864e-06
5.89874e-06
5.77209e-06
5.64857e-06
5.52808e-06
5.41052e-06
5.2958e-06
5.18383e-06
5.07452e-06
4.96778e-06
4.86355e-06
4.76174e-06
4.66228e-06
4.5651e-06
4.47014e-06
4.37733e-06
4.28661e-06
4.19793e-06
4.11122e-06
4.02644e-06
3.94353e-06
3.86244e-06
3.78312e-06
3.70553e-06
3.62962e-06
3.55535e-06
3.48268e-06
3.41157e-06
3.34198e-06
3.27387e-06
3.2072e-06
3.14194e-06
3.07807e-06
3.01553e-06
2.95431e-06
2.89436e-06
2.83567e-06
2.77821e-06
2.72193e-06
2.66683e-06
2.61286e-06
2.56001e-06
2.50825e-06
2.45756e-06
2.40791e-06
2.35928e-06
2.31164e-06
2.26498e-06
2.21927e-06
2.1745e-06
2.13064e-06
2.08768e-06
2.04559e-06
2.00435e-06
1.96395e-06
1.92437e-06
1.8856e-06
1.84761e-06
1.81039e-06
1.77392e-06
1.7382e-06
1.70319e-06
1.66889e-06
1.63528e-06
1.60236e-06
1.57009e-06
1.53848e-06
1.5075e-06
1.47715e-06
1.44741e-06
1.41827e-06
1.38971e-06
1.36173e-06
1.33431e-06
1.30745e-06
1.28112e-06
1.25533e-06
1.23005e-06
1.20528e-06
1.18101e-06
1.15722e-06
1.13392e-06
1.11108e-06
1.0887e-06
1.06677e-06
1.04528e-06
1.02422e-06
1.00359e-06
9.8337e-07
9.63556e-07
9.4414e-07
9.25114e-07
9.06471e-07
8.88201e-07
8.70299e-07
8.52757e-07
8.35567e-07
8.18722e-07
8.02215e-07
7.86041e-07
7.70191e-07
7.5466e-07
7.39441e-07
7.24527e-07
7.09914e-07
6.95594e-07
6.81563e-07
6.67813e-07
6.5434e-07
6.41138e-07
6.28201e-07
6.15525e-07
6.03103e-07
5.90932e-07
5.79005e-07
5.67319e-07
5.55868e-07
5.44647e-07
5.33652e-07
5.22878e-07
5.12322e-07
5.01977e-07
4.91842e-07
4.8191e-07
4.72178e-07
4.62642e-07
4.53299e-07
4.44143e-07
4.35172e-07
4.26382e-07
4.17769e-07
4.09329e-07
4.01059e-07
3.92956e-07
3.85016e-07
3.77237e-07
3.69614e-07
3.62144e-07
3.54825e-07
3.47654e-07
3.40627e-07
3.33742e-07
3.26996e-07
3.20386e-07
3.1391e-07
3.07564e-07
3.01347e-07
2.95255e-07
2.89287e-07
2.83439e-07
2.7771e-07
2.72096e-07
2.66597e-07
2.61209e-07
2.5593e-07
2.50758e-07
2.45691e-07
2.40727e-07
2.35864e-07
2.31098e-07
2.26429e-07
2.21854e-07
2.17372e-07
2.12979e-07
2.08673e-07
2.04454e-07
2.00317e-07
1.96262e-07
1.92287e-07
1.88387e-07
1.84563e-07
1.80811e-07
1.77129e-07
1.73515e-07
1.69967e-07
1.66482e-07
1.63059e-07
1.59694e-07
1.56386e-07
1.53132e-07
1.49931e-07
1.4678e-07
1.43677e-07
1.4062e-07
1.37607e-07
1.34636e-07
1.31705e-07
1.28813e-07
1.25957e-07
1.23136e-07
1.20349e-07
1.17593e-07
1.14868e-07
1.12173e-07
1.09506e-07
1.06866e-07
1.04252e-07
1.01664e-07
9.91005e-08
9.65615e-08
9.40463e-08
9.15546e-08
8.90862e-08
8.66409e-08
8.42188e-08
8.18199e-08
7.94444e-08
7.70927e-08
7.47652e-08
7.24623e-08
7.01845e-08
6.79327e-08
6.57073e-08
6.35094e-08
6.13397e-08
5.9199e-08
5.70884e-08
5.50088e-08
5.29612e-08
5.09466e-08
4.89661e-08
4.70205e-08
4.5111e-08
4.32384e-08
4.14038e-08
3.96081e-08
3.7852e-08
3.61364e-08
3.44622e-08
3.28298e-08
3.12401e-08
2.96936e-08
2.81907e-08
2.67318e-08
2.53174e-08
2.39475e-08
2.26225e-08
2.13423e-08
2.01072e-08
1.89169e-08
1.77714e-08
1.66703e-08
1.56137e-08
1.46006e-08
1.36312e-08
1.27044e-08
1.18201e-08
1.09771e-08
1.01754e-08
9.41335e-09
8.691e-09
8.00643e-09
7.35977e-09
6.74871e-09
6.17365e-09
5.63183e-09
5.12403e-09
4.64695e-09
4.20183e-09
3.78471e-09
3.39748e-09
3.03537e-09
2.70113e-09
2.38903e-09
2.10294e-09
1.83592e-09
1.59326e-09
1.36649e-09
1.16272e-09
9.71514e-10
8.02235e-10
6.42014e-10
5.03093e-10
3.69523e-10
2.57139e-10
1.46213e-10
5.69403e-11
-3.50634e-11
-1.04344e-10
-1.80792e-10
-2.32896e-10
-2.96855e-10
-3.34367e-10
-3.88441e-10
-4.13816e-10
-4.5987e-10
-4.75731e-10
-5.14601e-10
-5.24325e-10
-5.5508e-10
-5.64157e-10
-5.82481e-10
-6.01252e-10
-5.95852e-10
-6.45761e-10
-5.89378e-10
-7.18474e-10
-5.41238e-10
-8.65953e-10
-3.43727e-10
-1.17758e-09
1.10094e-09
-7.29393e-10
-7.29393e-10
-0.125293
0.125293
0.0249359
0.00835802
0.004278
0.00266152
0.00183374
0.00134635
0.00103388
0.000821704
0.000671387
0.00056125
0.000478232
0.000414085
0.00036341
0.000322576
0.000289079
0.000261164
0.000237571
0.000217385
0.000199929
0.000184691
0.000171281
0.000159395
0.000148795
0.00013929
0.000130724
0.000122972
0.000115928
0.000109505
0.000103628
9.8235e-05
9.32725e-05
8.86939e-05
8.44594e-05
8.0534e-05
7.68875e-05
7.3493e-05
7.03272e-05
6.73692e-05
6.46006e-05
6.20051e-05
5.95679e-05
5.7276e-05
5.51176e-05
5.30822e-05
5.11602e-05
4.93431e-05
4.7623e-05
4.59928e-05
4.44462e-05
4.29772e-05
4.15804e-05
4.02511e-05
3.89848e-05
3.77772e-05
3.66246e-05
3.55236e-05
3.44709e-05
3.34636e-05
3.2499e-05
3.15745e-05
3.06878e-05
2.98367e-05
2.90192e-05
2.82334e-05
2.74776e-05
2.67502e-05
2.60497e-05
2.53746e-05
2.47236e-05
2.40956e-05
2.34892e-05
2.29036e-05
2.23377e-05
2.17904e-05
2.1261e-05
2.07487e-05
2.02525e-05
1.97718e-05
1.93059e-05
1.88542e-05
1.8416e-05
1.79908e-05
1.75779e-05
1.7177e-05
1.67874e-05
1.64088e-05
1.60408e-05
1.56828e-05
1.53345e-05
1.49956e-05
1.46657e-05
1.43444e-05
1.40315e-05
1.37266e-05
1.34296e-05
1.314e-05
1.28576e-05
1.25823e-05
1.23137e-05
1.20516e-05
1.17959e-05
1.15463e-05
1.13026e-05
1.10647e-05
1.08324e-05
1.06055e-05
1.03838e-05
1.01672e-05
9.9556e-06
9.74876e-06
9.54659e-06
9.34896e-06
9.15574e-06
8.96681e-06
8.78205e-06
8.60136e-06
8.42462e-06
8.25173e-06
8.0826e-06
7.91712e-06
7.7552e-06
7.59676e-06
7.44171e-06
7.28996e-06
7.14143e-06
6.99605e-06
6.85374e-06
6.71443e-06
6.57804e-06
6.44451e-06
6.31377e-06
6.18575e-06
6.0604e-06
5.93765e-06
5.81745e-06
5.69973e-06
5.58444e-06
5.47153e-06
5.36093e-06
5.25262e-06
5.14652e-06
5.0426e-06
4.9408e-06
4.84109e-06
4.74341e-06
4.64772e-06
4.55398e-06
4.46215e-06
4.37218e-06
4.28404e-06
4.19769e-06
4.1131e-06
4.03021e-06
3.94901e-06
3.86945e-06
3.79149e-06
3.71512e-06
3.64028e-06
3.56696e-06
3.49512e-06
3.42473e-06
3.35575e-06
3.28817e-06
3.22195e-06
3.15707e-06
3.09349e-06
3.03119e-06
2.97014e-06
2.91033e-06
2.85171e-06
2.79428e-06
2.738e-06
2.68285e-06
2.62882e-06
2.57586e-06
2.52398e-06
2.47313e-06
2.42331e-06
2.37449e-06
2.32665e-06
2.27977e-06
2.23383e-06
2.18882e-06
2.14471e-06
2.10149e-06
2.05913e-06
2.01763e-06
1.97696e-06
1.93711e-06
1.89805e-06
1.85979e-06
1.82229e-06
1.78555e-06
1.74954e-06
1.71426e-06
1.67969e-06
1.64581e-06
1.61261e-06
1.58008e-06
1.54821e-06
1.51697e-06
1.48637e-06
1.45638e-06
1.42699e-06
1.39819e-06
1.36998e-06
1.34233e-06
1.31524e-06
1.28869e-06
1.26268e-06
1.23719e-06
1.21221e-06
1.18774e-06
1.16376e-06
1.14026e-06
1.11724e-06
1.09468e-06
1.07257e-06
1.05091e-06
1.02968e-06
1.00889e-06
9.88509e-07
9.68542e-07
9.48977e-07
9.29806e-07
9.11022e-07
8.92615e-07
8.7458e-07
8.56909e-07
8.39593e-07
8.22626e-07
8.06002e-07
7.89712e-07
7.73751e-07
7.58112e-07
7.42789e-07
7.27774e-07
7.13063e-07
6.98649e-07
6.84525e-07
6.70688e-07
6.5713e-07
6.43846e-07
6.30831e-07
6.1808e-07
6.05587e-07
5.93347e-07
5.81355e-07
5.69607e-07
5.58096e-07
5.46819e-07
5.3577e-07
5.24945e-07
5.14338e-07
5.03946e-07
4.93763e-07
4.83784e-07
4.74005e-07
4.64421e-07
4.55027e-07
4.45818e-07
4.3679e-07
4.27937e-07
4.19255e-07
4.10738e-07
4.02382e-07
3.94181e-07
3.86131e-07
3.78226e-07
3.70462e-07
3.62833e-07
3.55335e-07
3.47962e-07
3.40709e-07
3.33573e-07
3.26547e-07
3.19627e-07
3.12809e-07
3.06088e-07
2.9946e-07
2.92921e-07
2.86467e-07
2.80093e-07
2.73797e-07
2.67574e-07
2.61423e-07
2.55339e-07
2.4932e-07
2.43364e-07
2.37469e-07
2.31631e-07
2.25851e-07
2.20126e-07
2.14455e-07
2.08837e-07
2.03272e-07
1.97759e-07
1.92298e-07
1.86889e-07
1.81531e-07
1.76227e-07
1.70977e-07
1.6578e-07
1.6064e-07
1.55556e-07
1.5053e-07
1.45565e-07
1.40662e-07
1.35822e-07
1.31048e-07
1.26343e-07
1.21707e-07
1.17143e-07
1.12654e-07
1.08242e-07
1.03909e-07
9.96578e-08
9.54897e-08
9.14071e-08
8.7412e-08
8.35064e-08
7.9692e-08
7.59704e-08
7.23432e-08
6.88119e-08
6.53774e-08
6.2041e-08
5.88034e-08
5.56655e-08
5.26275e-08
4.969e-08
4.6853e-08
4.41168e-08
4.14808e-08
3.89452e-08
3.65088e-08
3.41715e-08
3.19318e-08
2.97893e-08
2.77418e-08
2.57892e-08
2.39287e-08
2.216e-08
2.04797e-08
1.88877e-08
1.73796e-08
1.59559e-08
1.46112e-08
1.33464e-08
1.21555e-08
1.10399e-08
9.99256e-09
9.0159e-09
8.10136e-09
7.25283e-09
6.46003e-09
5.72869e-09
5.04644e-09
4.42144e-09
3.83875e-09
3.30959e-09
2.81572e-09
2.37226e-09
1.95676e-09
1.58922e-09
1.24194e-09
9.41104e-10
6.52488e-10
4.09897e-10
1.71047e-10
-2.09059e-11
-2.18161e-10
-3.66367e-10
-5.29498e-10
-6.40174e-10
-7.75952e-10
-8.5481e-10
-9.68905e-10
-1.02132e-09
-1.11791e-09
-1.14952e-09
-1.23052e-09
-1.24866e-09
-1.31223e-09
-1.32861e-09
-1.36572e-09
-1.40233e-09
-1.38916e-09
-1.49153e-09
-1.37057e-09
-1.64047e-09
-1.26434e-09
-1.94755e-09
-8.43779e-10
-2.59364e-09
2.17147e-09
-1.65331e-09
-1.65331e-09
-0.146488
0.146488
0.0383105
0.014234
0.00745602
0.00467275
0.00323055
0.00237653
0.00182708
0.00145306
0.00118762
0.000992883
0.000845958
0.000732363
0.000642595
0.000570249
0.000510907
0.00046146
0.000419681
0.000383945
0.00035305
0.00032609
0.000302371
0.000281354
0.000262615
0.000245814
0.000230678
0.000216981
0.000204538
0.000193192
0.000182814
0.000173291
0.000164528
0.000156444
0.000148969
0.000142039
0.000135602
0.000129611
0.000124023
0.000118802
0.000113916
0.000109336
0.000105035
0.00010099
9.71815e-05
9.359e-05
9.01987e-05
8.69925e-05
8.39576e-05
8.10814e-05
7.83527e-05
7.5761e-05
7.3297e-05
7.09519e-05
6.87178e-05
6.65875e-05
6.45544e-05
6.26122e-05
6.07553e-05
5.89785e-05
5.7277e-05
5.56463e-05
5.40823e-05
5.25812e-05
5.11393e-05
4.97535e-05
4.84205e-05
4.71376e-05
4.59022e-05
4.47116e-05
4.35636e-05
4.2456e-05
4.13869e-05
4.03542e-05
3.93562e-05
3.83912e-05
3.74578e-05
3.65543e-05
3.56794e-05
3.48319e-05
3.40105e-05
3.32141e-05
3.24415e-05
3.16918e-05
3.09639e-05
3.02571e-05
2.95704e-05
2.8903e-05
2.82541e-05
2.76231e-05
2.70092e-05
2.64118e-05
2.58302e-05
2.5264e-05
2.47125e-05
2.41751e-05
2.36515e-05
2.31411e-05
2.26435e-05
2.21582e-05
2.16849e-05
2.12231e-05
2.07724e-05
2.03326e-05
1.99032e-05
1.9484e-05
1.90746e-05
1.86748e-05
1.82842e-05
1.79026e-05
1.75297e-05
1.71653e-05
1.68091e-05
1.64609e-05
1.61205e-05
1.57876e-05
1.54621e-05
1.51438e-05
1.48325e-05
1.45279e-05
1.423e-05
1.39385e-05
1.36533e-05
1.33742e-05
1.31011e-05
1.28338e-05
1.25722e-05
1.23161e-05
1.20655e-05
1.18201e-05
1.15799e-05
1.13447e-05
1.11144e-05
1.0889e-05
1.06682e-05
1.04521e-05
1.02404e-05
1.00331e-05
9.83004e-06
9.63121e-06
9.43646e-06
9.24573e-06
9.0589e-06
8.87591e-06
8.69667e-06
8.52109e-06
8.34909e-06
8.18061e-06
8.01556e-06
7.85387e-06
7.69547e-06
7.54029e-06
7.38826e-06
7.23931e-06
7.09339e-06
6.95042e-06
6.81035e-06
6.67311e-06
6.53865e-06
6.4069e-06
6.27782e-06
6.15135e-06
6.02742e-06
5.906e-06
5.78703e-06
5.67046e-06
5.55623e-06
5.44431e-06
5.33464e-06
5.22719e-06
5.12189e-06
5.01872e-06
4.91762e-06
4.81855e-06
4.72148e-06
4.62636e-06
4.53315e-06
4.44182e-06
4.35233e-06
4.26463e-06
4.1787e-06
4.09449e-06
4.01198e-06
3.93113e-06
3.8519e-06
3.77426e-06
3.69819e-06
3.62364e-06
3.55059e-06
3.47901e-06
3.40887e-06
3.34014e-06
3.27279e-06
3.20679e-06
3.14212e-06
3.07875e-06
3.01665e-06
2.95581e-06
2.89618e-06
2.83776e-06
2.78051e-06
2.72441e-06
2.66944e-06
2.61558e-06
2.5628e-06
2.51108e-06
2.4604e-06
2.41075e-06
2.36209e-06
2.31441e-06
2.26769e-06
2.22191e-06
2.17706e-06
2.1331e-06
2.09003e-06
2.04783e-06
2.00648e-06
1.96596e-06
1.92626e-06
1.88736e-06
1.84924e-06
1.81189e-06
1.77529e-06
1.73943e-06
1.7043e-06
1.66987e-06
1.63613e-06
1.60307e-06
1.57068e-06
1.53895e-06
1.50785e-06
1.47738e-06
1.44752e-06
1.41827e-06
1.3896e-06
1.36152e-06
1.334e-06
1.30703e-06
1.28061e-06
1.25472e-06
1.22936e-06
1.20451e-06
1.18016e-06
1.1563e-06
1.13292e-06
1.11002e-06
1.08758e-06
1.0656e-06
1.04406e-06
1.02296e-06
1.00229e-06
9.82031e-07
9.62187e-07
9.42744e-07
9.23694e-07
9.05029e-07
8.8674e-07
8.68819e-07
8.51258e-07
8.34047e-07
8.17179e-07
8.00645e-07
7.84436e-07
7.68544e-07
7.5296e-07
7.37675e-07
7.2268e-07
7.07967e-07
6.93527e-07
6.79351e-07
6.6543e-07
6.51754e-07
6.38317e-07
6.25107e-07
6.12117e-07
5.99338e-07
5.86761e-07
5.74379e-07
5.62182e-07
5.50163e-07
5.38315e-07
5.26628e-07
5.15097e-07
5.03714e-07
4.92472e-07
4.81366e-07
4.7039e-07
4.59537e-07
4.48803e-07
4.38184e-07
4.27674e-07
4.17271e-07
4.0697e-07
3.9677e-07
3.86667e-07
3.76659e-07
3.66746e-07
3.56925e-07
3.47196e-07
3.3756e-07
3.28016e-07
3.18565e-07
3.09207e-07
2.99945e-07
2.9078e-07
2.81714e-07
2.72749e-07
2.63889e-07
2.55136e-07
2.46493e-07
2.37964e-07
2.29553e-07
2.21263e-07
2.13097e-07
2.05061e-07
1.97158e-07
1.89392e-07
1.81766e-07
1.74286e-07
1.66954e-07
1.59774e-07
1.5275e-07
1.45885e-07
1.39181e-07
1.32643e-07
1.26272e-07
1.20072e-07
1.14043e-07
1.08188e-07
1.02507e-07
9.70036e-08
9.16767e-08
8.65277e-08
8.15562e-08
7.67629e-08
7.21466e-08
6.77076e-08
6.34436e-08
5.93544e-08
5.54372e-08
5.16914e-08
4.8113e-08
4.47017e-08
4.14524e-08
3.83646e-08
3.54322e-08
3.26549e-08
3.00252e-08
2.75434e-08
2.52006e-08
2.29977e-08
2.09245e-08
1.89833e-08
1.71616e-08
1.54636e-08
1.38745e-08
1.24006e-08
1.10244e-08
9.75543e-09
8.57244e-09
7.48913e-09
6.47996e-09
5.56386e-09
4.70964e-09
3.94287e-09
3.22521e-09
2.59058e-09
1.99173e-09
1.47307e-09
9.76266e-10
5.58757e-10
1.48471e-10
-1.81216e-10
-5.19222e-10
-7.73116e-10
-1.05195e-09
-1.24097e-09
-1.47233e-09
-1.60639e-09
-1.80019e-09
-1.88859e-09
-2.05214e-09
-2.10461e-09
-2.24139e-09
-2.27041e-09
-2.37748e-09
-2.40295e-09
-2.4653e-09
-2.52435e-09
-2.50208e-09
-2.67147e-09
-2.46808e-09
-2.91919e-09
-2.28752e-09
-3.43279e-09
-1.58182e-09
-4.50544e-09
3.39947e-09
-2.93929e-09
-2.93929e-09
-0.160438
0.160438
0.0519966
0.0211683