# vtk DataFile Version 2.0
FlowField
ASCII
DATASET STRUCTURED_GRID
DIMENSIONS 400 1 200
POINTS 80000 float
0 0 0
0.08 0 0
0.16 0 0
0.24 0 0
0.32 0 0
0.4 0 0
0.48 0 0
0.56 0 0
0.64 0 0
0.72 0 0
0.8 0 0
0.88 0 0
0.96 0 0
1.04 0 0
1.12 0 0
1.2 0 0
1.28 0 0
1.36 0 0
1.44 0 0
1.52 0 0
1.6 0 0
1.68 0 0
1.76 0 0
1.84 0 0
1.92 0 0
2 0 0
2.08 0 0
2.16 0 0
2.24 0 0
2.32 0 0
2.4 0 0
2.48 0 0
2.56 0 0
2.64 0 0
2.72 0 0
2.8 0 0
2.88 0 0
2.96 0 0
3.04 0 0
3.12 0 0
3.2 0 0
3.28 0 0
3.36 0 0
3.44 0 0
3.52 0 0
3.6 0 0
3.68 0 0
3.76 0 0
3.84 0 0
3.92 0 0
4 0 0
4.08 0 0
4.16 0 0
4.24 0 0
4.32 0 0
4.4 0 0
4.48 0 0
4.56 0 0
4.64 0 0
4.72 0 0
4.8 0 0
4.88 0 0
4.96 0 0
5.04 0 0
5.12 0 0
5.2 0 0
5.28 0 0
5.36 0 0
5.44 0 0
5.52 0 0
5.6 0 0
5.68 0 0
5.76 0 0
5.84 0 0
5.92 0 0
6 0 0
6.08 0 0
6.16 0 0
6.24 0 0
6.32 0 0
6.4 0 0
6.48 0 0
6.56 0 0
6.64 0 0
6.72 0 0
6.8 0 0
6.88 0 0
6.96 0 0
7.04 0 0
7.12 0 0
7.2 0 0
7.28 0 0
7.36 0 0
7.44 0 0
7.52 0 0
7.6 0 0
7.68 0 0
7.76 0 0
7.84 0 0
7.92 0 0
8 0 0
8.08 0 0
8.16 0 0
8.24 0 0
8.32 0 0
8.4 0 0
8.48 0 0
8.56 0 0
8.64 0 0
8.72 0 0
8.8 0 0
8.88 0 0
8.96 0 0
9.04 0 0
9.12 0 0
9.2 0 0
9.28 0 0
9.36 0 0
9.44 0 0
9.52 0 0
9.6 0 0
9.68 0 0
9.76 0 0
9.84 0 0
9.92 0 0
10 0 0
10.08 0 0
10.16 0 0
10.24 0 0
10.32 0 0
10.4 0 0
10.48 0 0
10.56 0 0
10.64 0 0
10.72 0 0
10.8 0 0
10.88 0 0
10.96 0 0
11.04 0 0
11.12 0 0
11.2 0 0
11.28 0 0
11.36 0 0
11.44 0 0
11.52 0 0
11.6 0 0
11.68 0 0
11.76 0 0
11.84 0 0
11.92 0 0
12 0 0
12.08 0 0
12.16 0 0
12.24 0 0
12.32 0 0
12.4 0 0
12.48 0 0
12.56 0 0
12.64 0 0
12.72 0 0
12.8 0 0
12.88 0 0
12.96 0 0
13.04 0 0
13.12 0 0
13.2 0 0
13.28 0 0
13.36 0 0
13.44 0 0
13.52 0 0
13.6 0 0
13.68 0 0
13.76 0 0
13.84 0 0
13.92 0 0
14 0 0
14.08 0 0
14.16 0 0
14.24 0 0
14.32 0 0
14.4 0 0
14.48 0 0
14.56 0 0
14.64 0 0
14.72 0 0
14.8 0 0
14.88 0 0
14.96 0 0
15.04 0 0
15.12 0 0
15.2 0 0
15.28 0 0
15.36 0 0
15.44 0 0
15.52 0 0
15.6 0 0
15.68 0 0
15.76 0 0
15.84 0 0
15.92 0 0
16 0 0
16.08 0 0
16.16 0 0
16.24 0 0
16.32 0 0
16.4 0 0
16.48 0 0
16.56 0 0
16.64 0 0
16.72 0 0
16.8 0 0
16.88 0 0
16.96 0 0
17.04 0 0
17.12 0 0
17.2 0 0
17.28 0 0
17.36 0 0
17.44 0 0
17.52 0 0
17.6 0 0
17.68 0 0
17.76 0 0
17.84 0 0
17.92 0 0
18 0 0
18.08 0 0
18.16 0 0
18.24 0 0
18.32 0 0
18.4 0 0
18.48 0 0
18.56 0 0
18.64 0 0
18.72 0 0
18.8 0 0
18.88 0 0
18.96 0 0
19.04 0 0
19.12 0 0
19.2 0 0
19.28 0 0
19.36 0 0
19.44 0 0
19.52 0 0
19.6 0 0
19.68 0 0
19.76 0 0
19.84 0 0
19.92 0 0
20 0 0
20.08 0 0
20.16 0 0
20.24 0 0
20.32 0 0
20.4 0 0
20.48 0 0
20.56 0 0
20.64 0 0
20.72 0 0
20.8 0 0
20.88 0 0
20.96 0 0
21.04 0 0
21.12 0 0
21.2 0 0
21.28 0 0
21.36 0 0
21.44 0 0
21.52 0 0
21.6 0 0
21.68 0 0
21.76 0 0
21.84 0 0
21.92 0 0
22 0 0
22.08 0 0
22.16 0 0
22.24 0 0
22.32 0 0
22.4 0 0
22.48 0 0
22.56 0 0
22.64 0 0
22.72 0 0
22.8 0 0
22.88 0 0
22.96 0 0
23.04 0 0
23.12 0 0
23.2 0 0
23.28 0 0
23.36 0 0
23.44 0 0
23.52 0 0
23.6 0 0
23.68 0 0
23.76 0 0
23.84 0 0
23.92 0 0
24 0 0
24.08 0 0
24.16 0 0
24.24 0 0
24.32 0 0
24.4 0 0
24.48 0 0
24.56 0 0
24.64 0 0
24.72 0 0
24.8 0 0
24.88 0 0
24.96 0 0
25.04 0 0
25.12 0 0
25.2 0 0
25.28 0 0
25.36 0 0
25.44 0 0
25.52 0 0
25.6 0 0
25.68 0 0
25.76 0 0
25.84 0 0
25.92 0 0
26 0 0
26.08 0 0
26.16 0 0
26.24 0 0
26.32 0 0
26.4 0 0
26.48 0 0
26.56 0 0
26.64 0 0
26.72 0 0
26.8 0 0
26.88 0 0
26.96 0 0
27.04 0 0
27.12 0 0
27.2 0 0
27.28 0 0
27.36 0 0
27.44 0 0
27.52 0 0
27.6 0 0
27.68 0 0
27.76 0 0
27.84 0 0
27.92 0 0
28 0 0
28.08 0 0
28.16 0 0
28.24 0 0
28.32 0 0
28.4 0 0
28.48 0 0
28.56 0 0
28.64 0 0
28.72 0 0
28.8 0 0
28.88 0 0
28.96 0 0
29.04 0 0
29.12 0 0
29.2 0 0
29.28 0 0
29.36 0 0
29.44 0 0
29.52 0 0
29.6 0 0
29.68 0 0
29.76 0 0
29.84 0 0
29.92 0 0
30 0 0
30.08 0 0
30.16 0 0
30.24 0 0
30.32 0 0
30.4 0 0
30.48 0 0
30.56 0 0
30.64 0 0
30.72 0 0
30.8 0 0
30.88 0 0
30.96 0 0
31.04 0 0
31.12 0 0
31.2 0 0
31.28 0 0
31.36 0 0
31.44 0 0
31.52 0 0
31.6 0 0
31.68 0 0
31.76 0 0
31.84 0 0
31.92 0 0
0 0.005 0
0.08 0.005 0
0.16 0.005 0
0.24 0.005 0
0.32 0.005 0
0.4 0.005 0
0.48 0.005 0
0.56 0.005 0
0.64 0.005 0
0.72 0.005 0
0.8 0.005 0
0.88 0.005 0
0.96 0.005 0
1.04 0.005 0
1.12 0.005 0
1.2 0.005 0
1.28 0.005 0
1.36 0.005 0
1.44 0.005 0
1.52 0.005 0
1.6 0.005 0
1.68 0.005 0
1.76 0.005 0
1.84 0.005 0
1.92 0.005 0
2 0.005 0
2.08 0.005 0
2.16 0.005 0
2.24 0.005 0
2.32 0.005 0
2.4 0.005 0
2.48 0.005 0
2.56 0.005 0
2.64 0.005 0
2.72 0.005 0
2.8 0.005 0
2.88 0.005 0
2.96 0.005 0
3.04 0.005 0
3.12 0.005 0
3.2 0.005 0
3.28 0.005 0
3.36 0.005 0
3.44 0.005 0
3.52 0.005 0
3.6 0.005 0
3.68 0.005 0
3.76 0.005 0
3.84 0.005 0
3.92 0.005 0
4 0.005 0
4.08 0.005 0
4.16 0.005 0
4.24 0.005 0
4.32 0.005 0
4.4 0.005 0
4.48 0.005 0
4.56 0.005 0
4.64 0.005 0
4.72 0.005 0
4.8 0.005 0
4.88 0.005 0
4.96 0.005 0
5.04 0.005 0
5.12 0.005 0
5.2 0.005 0
5.28 0.005 0
5.36 0.005 0
5.44 0.005 0
5.52 0.005 0
5.6 0.005 0
5.68 0.005 0
5.76 0.005 0
5.84 0.005 0
5.92 0.005 0
6 0.005 0
6.08 0.005 0
6.16 0.005 0
6.24 0.005 0
6.32 0.005 0
6.4 0.005 0
6.48 0.005 0
6.56 0.005 0
6.64 0.005 0
6.72 0.005 0
6.8 0.005 0
6.88 0.005 0
6.96 0.005 0
7.04 0.005 0
7.12 0.005 0
7.2 0.005 0
7.28 0.005 0
7.36 0.005 0
7.44 0.005 0
7.52 0.005 0
7.6 0.005 0
7.68 0.005 0
7.76 0.005 0
7.84 0.005 0
7.92 0.005 0
8 0.005 0
8.08 0.005 0
8.16 0.005 0
8.24 0.005 0
8.32 0.005 0
8.4 0.005 0
8.48 0.005 0
8.56 0.005 0
8.64 0.005 0
8.72 0.005 0
8.8 0.005 0
8.88 0.005 0
8.96 0.005 0
9.04 0.005 0
9.12 0.005 0
9.2 0.005 0
9.28 0.005 0
9.36 0.005 0
9.44 0.005 0
9.52 0.005 0
9.6 0.005 0
9.68 0.005 0
9.76 0.005 0
9.84 0.005 0
9.92 0.005 0
10 0.005 0
10.08 0.005 0
10.16 0.005 0
10.24 0.005 0
10.32 0.005 0
10.4 0.005 0
10.48 0.005 0
10.56 0.005 0
10.64 0.005 0
10.72 0.005 0
10.8 0.005 0
10.88 0.005 0
10.96 0.005 0
11.04 0.005 0
11.12 0.005 0
11.2 0.005 0
11.28 0.005 0
11.36 0.005 0
11.44 0.005 0
11.52 0.005 0
11.6 0.005 0
11.68 0.005 0
11.76 0.005 0
11.84 0.005 0
11.92 0.005 0
12 0.005 0
12.08 0.005 0
12.16 0.005 0
12.24 0.005 0
12.32 0.005 0
12.4 0.005 0
12.48 0.005 0
12.56 0.005 0
12.64 0.005 0
12.72 0.005 0
12.8 0.005 0
12.88 0.005 0
12.96 0.005 0
13.04 0.005 0
13.12 0.005 0
13.2 0.005 0
13.28 0.005 0
13.36 0.005 0
13.44 0.005 0
13.52 0.005 0
13.6 0.005 0
13.68 0.005 0
13.76 0.005 0
13.84 0.005 0
13.92 0.005 0
14 0.005 0
14.08 0.005 0
14.16 0.005 0
14.24 0.005 0
14.32 0.005 0
14.4 0.005 0
14.48 0.005 0
14.56 0.005 0
14.64 0.005 0
14.72 0.005 0
14.8 0.005 0
14.88 0.005 0
14.96 0.005 0
15.04 0.005 0
15.12 0.005 0
15.2 0.005 0
15.28 0.005 0
15.36 0.005 0
15.44 0.005 0
15.52 0.005 0
15.6 0.005 0
15.68 0.005 0
15.76 0.005 0
15.84 0.005 0
15.92 0.005 0
16 0.005 0
16.08 0.005 0
16.16 0.005 0
16.24 0.005 0
16.32 0.005 0
16.4 0.005 0
16.48 0.005 0
16.56 0.005 0
16.64 0.005 0
16.72 0.005 0
16.8 0.005 0
16.88 0.005 0
16.96 0.005 0
17.04 0.005 0
17.12 0.005 0
17.2 0.005 0
17.28 0.005 0
17.36 0.005 0
17.44 0.005 0
17.52 0.005 0
17.6 0.005 0
17.68 0.005 0
17.76 0.005 0
17.84 0.005 0
17.92 0.005 0
18 0.005 0
18.08 0.005 0
18.16 0.005 0
18.24 0.005 0
18.32 0.005 0
18.4 0.005 0
18.48 0.005 0
18.56 0.005 0
18.64 0.005 0
18.72 0.005 0
18.8 0.005 0
18.88 0.005 0
18.96 0.005 0
19.04 0.005 0
19.12 0.005 0
19.2 0.005 0
19.28 0.005 0
19.36 0.005 0
19.44 0.005 0
19.52 0.005 0
19.6 0.005 0
19.68 0.005 0
19.76 0.005 0
19.84 0.005 0
19.92 0.005 0
20 0.005 0
20.08 0.005 0
20.16 0.005 0
20.24 0.005 0
20.32 0.005 0
20.4 0.005 0
20.48 0.005 0
20.56 0.005 0
20.64 0.005 0
20.72 0.005 0
20.8 0.005 0
20.88 0.005 0
20.96 0.005 0
21.04 0.005 0
21.12 0.005 0
21.2 0.005 0
21.28 0.005 0
21.36 0.005 0
21.44 0.005 0
21.52 0.005 0
21.6 0.005 0
21.68 0.005 0
21.76 0.005 0
21.84 0.005 0
21.92 0.005 0
22 0.005 0
22.08 0.005 0
22.16 0.005 0
22.24 0.005 0
22.32 0.005 0
22.4 0.005 0
22.48 0.005 0
22.56 0.005 0
22.64 0.005 0
22.72 0.005 0
22.8 0.005 0
22.88 0.005 0
22.96 0.005 0
23.04 0.005 0
23.12 0.005 0
23.2 0.005 0
23.28 0.005 0
23.36 0.005 0
23.44 0.005 0
23.52 0.005 0
23.6 0.005 0
23.68 0.005 0
23.76 0.005 0
23.84 0.005 0
23.92 0.005 0
24 0.005 0
24.08 0.005 0
24.16 0.005 0
24.24 0.005 0
24.32 0.005 0
24.4 0.005 0
24.48 0.005 0
24.56 0.005 0
24.64 0.005 0
24.72 0.005 0
24.8 0.005 0
24.88 0.005 0
24.96 0.005 0
25.04 0.005 0
25.12 0.005 0
25.2 0.005 0
25.28 0.005 0
25.36 0.005 0
25.44 0.005 0
25.52 0.005 0
25.6 0.005 0
25.68 0.005 0
25.76 0.005 0
25.84 0.005 0
25.92 0.005 0
26 0.005 0
26.08 0.005 0
26.16 0.005 0
26.24 0.005 0
26.32 0.005 0
26.4 0.005 0
26.48 0.005 0
26.56 0.005 0
26.64 0.005 0
26.72 0.005 0
26.8 0.005 0
26.88 0.005 0
26.96 0.005 0
27.04 0.005 0
27.12 0.005 0
27.2 0.005 0
27.28 0.005 0
27.36 0.005 0
27.44 0.005 0
27.52 0.005 0
27.6 0.005 0
27.68 0.005 0
27.76 0.005 0
27.84 0.005 0
27.92 0.005 0
28 0.005 0
28.08 0.005 0
28.16 0.005 0
28.24 0.005 0
28.32 0.005 0
28.4 0.005 0
28.48 0.005 0
28.56 0.005 0
28.64 0.005 0
28.72 0.005 0
28.8 0.005 0
28.88 0.005 0
28.96 0.005 0
29.04 0.005 0
29.12 0.005 0
29.2 0.005 0
29.28 0.005 0
29.36 0.005 0
29.44 0.005 0
29.52 0.005 0
29.6 0.005 0
29.68 0.005 0
29.76 0.005 0
29.84 0.005 0
29.92 0.005 0
30 0.005 0
30.08 0.005 0
30.16 0.005 0
30.24 0.005 0
30.32 0.005 0
30.4 0.005 0
30.48 0.005 0
30.56 0.005 0
30.64 0.005 0
30.72 0.005 0
30.8 0.005 0
30.88 0.005 0
30.96 0.005 0
31.04 0.005 0
31.12 0.005 0
31.2 0.005 0
31.28 0.005 0
31.36 0.005 0
31.44 0.005 0
31.52 0.005 0
31.6 0.005 0
31.68 0.005 0
31.76 0.005 0
31.84 0.005 0
31.92 0.005 0
0 0.01 0
0.08 0.01 0
0.16 0.01 0
0.24 0.01 0
0.32 0.01 0
0.4 0.01 0
0.48 0.01 0
0.56 0.01 0
0.64 0.01 0
0.72 0.01 0
0.8 0.01 0
0.88 0.01 0
0.96 0.01 0
1.04 0.01 0
1.12 0.01 0
1.2 0.01 0
1.28 0.01 0
1.36 0.01 0
1.44 0.01 0
1.52 0.01 0
1.6 0.01 0
1.68 0.01 0
1.76 0.01 0
1.84 0.01 0
1.92 0.01 0
2 0.01 0
2.08 0.01 0
2.16 0.01 0
2.24 0.01 0
2.32 0.01 0
2.4 0.01 0
2.48 0.01 0
2.56 0.01 0
2.64 0.01 0
2.72 0.01 0
2.8 0.01 0
2.88 0.01 0
2.96 0.01 0
3.04 0.01 0
3.12 0.01 0
3.2 0.01 0
3.28 0.01 0
3.36 0.01 0
3.44 0.01 0
3.52 0.01 0
3.6 0.01 0
3.68 0.01 0
3.76 0.01 0
3.84 0.01 0
3.92 0.01 0
4 0.01 0
4.08 0.01 0
4.16 0.01 0
4.24 0.01 0
4.32 0.01 0
4.4 0.01 0
4.48 0.01 0
4.56 0.01 0
4.64 0.01 0
4.72 0.01 0
4.8 0.01 0
4.88 0.01 0
4.96 0.01 0
5.04 0.01 0
5.12 0.01 0
[...]
POINT_DATA 80000

SCALARS u float 1
LOOKUP_TABLE default
0
-0.131663
-0.0682692
-0.052296
-0.0444198
-0.0395767
-0.0362596
-0.0338326
-0.0319726
-0.0304959
-0.0292899
-0.0282815
-0.0274221
-0.0266774
-0.0260235
-0.0254426
-0.0249216
-0.0244507
-0.0240221
-0.0236296
-0.0232686
-0.0229349
-0.0226253
-0.0223371
-0.022068
-0.021816
-0.0215794
-0.0213569
-0.021147
-0.0209487
-0.0207611
-0.0205832
-0.0204142
-0.0202536
-0.0201005
-0.0199546
-0.0198153
-0.0196821
-0.0195546
-0.0194325
-0.0193154
-0.019203
-0.019095
-0.0189911
-0.0188912
-0.0187949
-0.0187021
-0.0186126
-0.0185262
-0.0184428
-0.0183622
-0.0182843
-0.0182089
-0.0181359
-0.0180652
-0.0179967
-0.0179303
-0.017866
-0.0178036
-0.017743
-0.0176843
-0.0176272
-0.0175718
-0.0175181
-0.0174659
-0.0174153
-0.0173662
-0.0173186
-0.0172726
-0.017228
-0.017185
-0.0171436
-0.0171037
-0.0170655
-0.0170289
-0.0169938
-0.0169603
-0.0169284
-0.016898
-0.0168691
-0.0168417
-0.0168158
-0.0167912
-0.0167679
-0.0167458
-0.0167249
-0.0167052
-0.0166866
-0.0166691
-0.0166527
-0.0166373
-0.0166229
-0.0166094
-0.0165967
-0.0165849
-0.0165738
-0.0165635
-0.016554
-0.0165452
-0.0165372
-0.0165298
-0.0165231
-0.0165169
-0.0165112
-0.016506
-0.0165012
-0.0164968
-0.0164928
-0.0164893
-0.0164863
-0.0164837
-0.0164816
-0.0164799
-0.0164787
-0.0164777
-0.0164771
-0.0164767
-0.0164765
-0.0164764
-0.0164764
-0.0164766
-0.0164768
-0.016477
-0.0164773
-0.0164776
-0.0164779
-0.0164782
-0.0164786
-0.016479
-0.0164793
-0.0164797
-0.01648
-0.0164804
-0.0164808
-0.0164811
-0.0164815
-0.0164819
-0.0164822
-0.0164826
-0.016483
-0.0164833
-0.0164837
-0.0164841
-0.0164844
-0.0164848
-0.0164852
-0.0164855
-0.0164859
-0.0164863
-0.0164866
-0.016487
-0.0164874
-0.0164877
-0.0164881
-0.0164885
-0.0164888
-0.0164892
-0.0164896
-0.01649
-0.0164903
-0.0164907
-0.0164911
-0.0164914
-0.0164918
-0.0164922
-0.0164925
-0.0164929
-0.0164933
-0.0164937
-0.016494
-0.0164944
-0.0164948
-0.0164951
-0.0164955
-0.0164959
-0.0164963
-0.0164966
-0.016497
-0.0164974
-0.0164978
-0.0164981
-0.0164985
-0.0164989
-0.0164992
-0.0164996
-0.0165
-0.0165004
-0.0165007
-0.0165011
-0.0165015
-0.0165019
-0.0165022
-0.0165026
-0.016503
-0.0165034
-0.0165038
-0.0165041
-0.0165045
-0.0165049
-0.0165053
-0.0165056
-0.016506
-0.0165064
-0.0165068
-0.0165071
-0.0165075
-0.0165079
-0.0165083
-0.0165087
-0.016509
-0.0165094
-0.0165098
-0.0165102
-0.0165106
-0.0165109
-0.0165113
-0.0165117
-0.0165121
-0.0165125
-0.0165128
-0.0165132
-0.0165136
-0.016514
-0.0165144
-0.0165147
-0.0165151
-0.0165155
-0.0165159
-0.0165163
-0.0165167
-0.016517
-0.0165174
-0.0165178
-0.0165182
-0.0165186
-0.016519
-0.0165193
-0.0165197
-0.0165201
-0.0165205
-0.0165209
-0.0165213
-0.0165216
-0.016522
-0.0165224
-0.0165228
-0.0165232
-0.0165236
-0.016524
-0.0165243
-0.0165247
-0.0165251
-0.0165255
-0.0165259
-0.0165263
-0.0165267
-0.0165271
-0.0165274
-0.0165278
-0.0165282
-0.0165286
-0.016529
-0.0165294
-0.0165298
-0.0165302
-0.0165306
-0.0165309
-0.0165313
-0.0165317
-0.0165321
-0.0165325
-0.0165329
-0.0165333
-0.0165337
-0.0165341
-0.0165345
-0.0165348
-0.0165352
-0.0165356
-0.016536
-0.0165364
-0.0165368
-0.0165372
-0.0165376
-0.016538
-0.0165384
-0.0165388
-0.0165392
-0.0165396
-0.0165399
-0.0165403
-0.0165407
-0.0165411
-0.0165415
-0.0165419
-0.0165423
-0.0165427
-0.0165431
-0.0165435
-0.0165439
-0.0165443
-0.0165447
-0.0165451
-0.0165455
-0.0165459
-0.0165463
-0.0165467
-0.0165471
-0.0165475
-0.0165479
-0.0165483
-0.0165487
-0.0165491
-0.0165495
-0.0165498
-0.0165502
-0.0165506
-0.016551
-0.0165514
-0.0165518
-0.0165522
-0.0165526
-0.016553
-0.0165534
-0.0165538
-0.0165542
-0.0165546
-0.016555
-0.0165554
-0.0165558
-0.0165563
-0.0165567
-0.0165571
-0.0165575
-0.0165579
-0.0165583
-0.0165587
-0.0165591
-0.0165595
-0.0165599
-0.0165603
-0.0165607
-0.0165611
-0.0165615
-0.0165619
-0.0165623
-0.0165627
-0.0165631
-0.0165635
-0.0165639
-0.0165643
-0.0165647
-0.0165651
-0.0165655
-0.0165659
-0.0165664
-0.0165668
-0.0165672
-0.0165676
-0.016568
-0.0165684
-0.0165688
-0.0165692
-0.0165696
-0.01657
-0.0165704
-0.0165708
-0.0165712
-0.0165717
-0.0165721
-0.0165725
-0.0165729
-0.0165733
-0.0165737
-0.0165741
-0.0165745
-0.0165749
-0.0165753
-0.0165758
-0.0165762
-0.0165766
-0.016577
-0.0165774
-0.0165778
-0.0165782
-0.0165786
-0.016579
-0.0165795
-0.0165799
-0.0165803
-0.0165807
-0.0165811
-0.0165816
-0.0165819
-0.0165825
-0.0165827
-0.0165834
-0.0165827
-0.0165827
-0.0165827
1
0.131663
0.0682692
0.052296
0.0444198
0.0395767
0.0362596
0.0338326
0.0319726
0.0304959
0.0292899
0.0282815
0.0274221
0.0266774
0.0260235
0.0254426
0.0249216
0.0244507
0.0240221
0.0236296
0.0232686
0.0229349
0.0226253
0.0223371
0.022068
0.021816
0.0215794
0.0213569
0.021147
0.0209487
0.0207611
0.0205832
0.0204142
0.0202536
0.0201005
0.0199546
0.0198153
0.0196821
0.0195546
0.0194325
0.0193154
0.019203
0.019095
0.0189911
0.0188912
0.0187949
0.0187021
0.0186126
0.0185262
0.0184428
0.0183622
0.0182843
0.0182089
0.0181359
0.0180652
0.0179967
0.0179303
0.017866
0.0178036
0.017743
0.0176843
0.0176272
0.0175718
0.0175181
0.0174659
0.0174153
0.0173662
0.0173186
0.0172726
0.017228
0.017185
0.0171436
0.0171037
0.0170655
0.0170289
0.0169938
0.0169603
0.0169284
0.016898
0.0168691
0.0168417
0.0168158
0.0167912
0.0167679
0.0167458
0.0167249
0.0167052
0.0166866
0.0166691
0.0166527
0.0166373
0.0166229
0.0166094
0.0165967
0.0165849
0.0165738
0.0165635
0.016554
0.0165452
0.0165372
0.0165298
0.0165231
0.0165169
0.0165112
0.016506
0.0165012
0.0164968
0.0164928
0.0164893
0.0164863
0.0164837
0.0164816
0.0164799
0.0164787
0.0164777
0.0164771
0.0164767
0.0164765
0.0164764
0.0164764
0.0164766
0.0164768
0.016477
0.0164773
0.0164776
0.0164779
0.0164782
0.0164786
0.016479
0.0164793
0.0164797
0.01648
0.0164804
0.0164808
0.0164811
0.0164815
0.0164819
0.0164822
0.0164826
0.016483
0.0164833
0.0164837
0.0164841
0.0164844
0.0164848
0.0164852
0.0164855
0.0164859
0.0164863
0.0164866
0.016487
0.0164874
0.0164877
0.0164881
0.0164885
0.0164888
0.0164892
0.0164896
0.01649
0.0164903
0.0164907
0.0164911
0.0164914
0.0164918
0.0164922
0.0164925
0.0164929
0.0164933
0.0164937
0.016494
0.0164944
0.0164948
0.0164951
0.0164955
0.0164959
0.0164963
0.0164966
0.016497
0.0164974
0.0164978
0.0164981
0.0164985
0.0164989
0.0164992
0.0164996
0.0165
0.0165004
0.0165007
0.0165011
0.0165015
0.0165019
0.0165022
0.0165026
0.016503
0.0165034
0.0165038
0.0165041
0.0165045
0.0165049
0.0165053
0.0165056
0.016506
0.0165064
0.0165068
0.0165071
0.0165075
0.0165079
0.0165083
0.0165087
0.016509
0.0165094
0.0165098
0.0165102
0.0165106
0.0165109
0.0165113
0.0165117
0.0165121
0.0165125
0.0165128
0.0165132
0.0165136
0.016514
0.0165144
0.0165147
0.0165151
0.0165155
0.0165159
0.0165163
0.0165167
0.016517
0.0165174
0.0165178
0.0165182
0.0165186
0.016519
0.0165193
0.0165197
0.0165201
0.0165205
0.0165209
0.0165213
0.0165216
0.016522
0.0165224
0.0165228
0.0165232
0.0165236
0.016524
0.0165243
0.0165247
0.0165251
0.0165255
0.0165259
0.0165263
0.0165267
0.0165271
0.0165274
0.0165278
0.0165282
0.0165286
0.016529
0.0165294
0.0165298
0.0165302
0.0165306
0.0165309
0.0165313
0.0165317
0.0165321
0.0165325
0.0165329
0.0165333
0.0165337
0.0165341
0.0165345
0.0165348
0.0165352
0.0165356
0.016536
0.0165364
0.0165368
0.0165372
0.0165376
0.016538
0.0165384
0.0165388
0.0165392
0.0165396
0.0165399
0.0165403
0.0165407
0.0165411
0.0165415
0.0165419
0.0165423
0.0165427
0.0165431
0.0165435
0.0165439
0.0165443
0.0165447
0.0165451
0.0165455
0.0165459
0.0165463
0.0165467
0.0165471
0.0165475
0.0165479
0.0165483
0.0165487
0.0165491
0.0165495
0.0165498
0.0165502
0.0165506
0.016551
0.0165514
0.0165518
0.0165522
0.0165526
0.016553
0.0165534
0.0165538
0.0165542
0.0165546
0.016555
0.0165554
0.0165558
0.0165563
0.0165567
0.0165571
0.0165575
0.0165579
0.0165583
0.0165587
0.0165591
0.0165595
0.0165599
0.0165603
0.0165607
0.0165611
0.0165615
0.0165619
0.0165623
0.0165627
0.0165631
0.0165635
0.0165639
0.0165643
0.0165647
0.0165651
0.0165655
0.0165659
0.0165664
0.0165668
0.0165672
0.0165676
0.016568
0.0165684
0.0165688
0.0165692
0.0165696
0.01657
0.0165704
0.0165708
0.0165712
0.0165717
0.0165721
0.0165725
0.0165729
0.0165733
0.0165737
0.0165741
0.0165745
0.0165749
0.0165753
0.0165758
0.0165762
0.0165766
0.016577
0.0165774
0.0165778
0.0165782
0.0165786
0.016579
0.0165795
0.0165799
0.0165803
0.0165807
0.0165811
0.0165816
0.0165819
0.0165825
0.0165827
0.0165834
0.0165827
0.0165827
0.0165827
1
0.344884
0.200668
0.154967
0.131895
0.117599
0.107768
0.100558
0.095025
0.0906291
0.087038
0.084036
0.081478
0.0792628
0.0773184
0.0755922
0.074045
0.0726471
0.0713752
0.0702112
0.0691406
0.0681515
0.0672342
0.0663804
0.0655834
0.0648372
0.0641369
0.063478
0.0628569
0.0622702
0.0617149
0.0611885
0.0606887
0.0602134
0.0597608
0.0593292
0.0589171
0.0585233
0.0581463
0.0577853
0.057439
0.0571067
0.0567874
0.0564804
0.0561849
0.0559004
0.0556262
0.0553617
0.0551065
0.05486
0.0546218
0.0543915
0.0541688
0.0539532
0.0537444
0.0535421
0.0533461
0.0531561
0.0529719
0.0527931
0.0526197
0.0524514
0.0522881
0.0521296
0.0519758
0.0518267
0.0516822
0.0515422
0.0514067
0.0512758
0.0511496
0.0510281
0.0509114
0.0507995
0.0506923
0.0505898
0.050492
0.0503988
0.0503102
0.0502261
0.0501463
0.0500708
0.0499993
0.0499316
0.0498675
0.0498068
0.0497496
0.0496957
0.0496451
0.0495976
0.0495531
0.0495114
0.0494723
0.0494357
0.0494015
0.0493695
0.0493399
0.0493126
0.0492874
0.0492644
0.0492434
0.0492241
0.0492064
0.0491902
0.0491753
0.0491616
0.0491492
0.0491381
0.0491284
0.04912
0.0491129
0.0491072
0.0491027
0.0490994
0.0490969
0.0490953
0.0490943
0.0490938
0.0490937
0.0490939
0.0490944
0.049095
0.0490958
0.0490967
0.0490976
0.0490986
0.0490996
0.0491006
0.0491017
0.0491028
0.0491039
0.0491049
0.049106
0.0491071
0.0491082
0.0491093
0.0491104
0.0491115
0.0491126
0.0491137
0.0491148
0.0491158
0.0491169
0.049118
0.0491191
0.0491202
0.0491213
0.0491224
0.0491235
0.0491246
0.0491257
0.0491268
0.0491279
0.049129
0.0491301
0.0491312
0.0491323
0.0491334
0.0491345
0.0491356
0.0491367
0.0491378
0.0491389
0.04914
0.0491411
0.0491422
0.0491433
0.0491444
0.0491455
0.0491467
0.0491478
0.0491489
0.04915
0.0491511
0.0491522
0.0491533
0.0491544
0.0491555
0.0491567
0.0491578
0.0491589
0.04916
0.0491611
0.0491622
0.0491633
0.0491645
0.0491656
0.0491667
0.0491678
0.0491689
0.04917
0.0491712
0.0491723
0.0491734
0.0491745
0.0491757
0.0491768
0.0491779
0.049179
0.0491801
0.0491813
0.0491824
0.0491835
0.0491846
0.0491858
0.0491869
0.049188
0.0491892
0.0491903
0.0491914
0.0491925
0.0491937
0.0491948
0.0491959
0.0491971
0.0491982
0.0491993
0.0492005
0.0492016
0.0492027
0.0492039
0.049205
0.0492061
0.0492073
0.0492084
0.0492096
0.0492107
0.0492118
0.049213
0.0492141
0.0492153
0.0492164
0.0492175
0.0492187
0.0492198
0.049221
0.0492221
0.0492233
0.0492244
0.0492256
0.0492267
0.0492278
0.049229
0.0492301
0.0492313
0.0492324
0.0492336
0.0492347
0.0492359
0.049237
0.0492382
0.0492393
0.0492405
0.0492417
0.0492428
0.049244
0.0492451
0.0492463
0.0492474
0.0492486
0.0492497
0.0492509
0.0492521
0.0492532
0.0492544
0.0492555
0.0492567
0.0492579
0.049259
0.0492602
0.0492613
0.0492625
0.0492637
0.0492648
0.049266
0.0492672
0.0492683
0.0492695
0.0492707
0.0492718
0.049273
0.0492742
0.0492753
0.0492765
0.0492777
0.0492788
0.04928
0.0492812
0.0492824
0.0492835
0.0492847
0.0492859
0.0492871
0.0492882
0.0492894
0.0492906
0.0492918
0.0492929
0.0492941
0.0492953
0.0492965
0.0492977
0.0492988
0.0493
0.0493012
0.0493024
0.0493036
0.0493048
0.0493059
0.0493071
0.0493083
0.0493095
0.0493107
0.0493119
0.0493131
0.0493142
0.0493154
0.0493166
0.0493178
0.049319
0.0493202
0.0493214
0.0493226
0.0493238
0.049325
0.0493262
0.0493273
0.0493285
0.0493297
0.0493309
0.0493321
0.0493333
0.0493345
0.0493357
0.0493369
0.0493381
0.0493393
0.0493405
0.0493417
0.0493429
0.0493441
0.0493453
0.0493465
0.0493477
0.0493489
0.0493501
0.0493514
0.0493526
0.0493538
0.049355
0.0493562
0.0493574
0.0493586
0.0493598
0.049361
0.0493622
0.0493634
0.0493647
0.0493659
0.0493671
0.0493683
0.0493695
0.0493707
0.0493719
0.0493732
0.0493744
0.0493756
0.0493768
0.049378
0.0493792
0.0493805
0.0493817
0.0493829
0.0493841
0.0493853
0.0493866
0.0493878
0.049389
0.0493902
0.0493915
0.0493927
0.0493939
0.0493951
0.0493964
0.0493976
0.0493988
0.0494001
0.0494013
0.0494025
0.0494038
0.049405
0.0494062
0.0494076
0.0494086
0.0494102
0.0494109
0.049413
0.0494113
0.0494113
0.0494113
1
0.518766
0.327402
0.255348
0.217849
0.194404
0.178212
0.166308
0.157159
0.149884
0.143939
0.13897
0.134736
0.13107
0.127854
0.125
0.122443
0.120134
0.118033
0.116111
0.114344
0.112712
0.111199
0.10979
0.108476
0.107245
0.106091
0.105005
0.103981
0.103014
0.102099
0.101231
0.100408
0.0996247
0.098879
0.0981679
0.0974891
0.0968403
0.0962195
0.0956248
0.0950545
0.0945072
0.0939814
0.0934759
0.0929894
0.0925209
0.0920695
0.091634
0.0912138
0.090808
0.090416
0.0900369
0.0896703
0.0893154
0.0889718
0.088639
0.0883165
0.0880039
0.0877008
0.0874068
0.0871216
0.0868449
0.0865764
0.0863159
0.0860633
0.0858184
0.0855812
0.0853514
0.0851293
0.0849148
0.0847081
0.0845092
0.0843183
0.0841353
0.0839602
0.0837929
0.0836333
0.0834813
0.0833369
0.0831999
0.0830701
0.0829472
0.0828309
0.0827208
0.0826165
0.082518
0.0824251
0.0823377
0.0822556
0.0821786
0.0821065
0.082039
0.0819757
0.0819165
0.0818611
0.0818096
0.0817618
0.0817177
0.0816773
0.0816402
0.0816064
0.0815754
0.081547
0.081521
0.0814971
0.0814753
0.0814557
0.0814382
0.0814228
0.0814097
0.0813988
0.08139
0.0813832
0.081378
0.0813744
0.081372
0.0813706
0.08137
0.08137
0.0813705
0.0813713
0.0813724
0.0813737
0.0813752
0.0813768
0.0813784
0.0813801
0.0813819
0.0813836
0.0813854
0.0813872
0.081389
0.0813908
0.0813926
0.0813944
0.0813962
0.081398
0.0813998
0.0814016
0.0814034
0.0814053
0.0814071
0.0814089
0.0814107
0.0814125
0.0814143
0.0814161
0.0814179
0.0814198
0.0814216
0.0814234
0.0814252
0.081427
0.0814289
0.0814307
0.0814325
0.0814343
0.0814362
0.081438
0.0814398
0.0814416
0.0814435
0.0814453
0.0814471
0.0814489
0.0814508
0.0814526
0.0814544
0.0814563
0.0814581
0.08146
0.0814618
0.0814636
0.0814655
0.0814673
0.0814692
0.081471
0.0814728
0.0814747
0.0814765
0.0814784
0.0814802
0.0814821
0.0814839
0.0814858
0.0814876
0.0814895
0.0814913
0.0814932
0.081495
0.0814969
0.0814987
0.0815006
0.0815024
0.0815043
0.0815062
0.081508
0.0815099
0.0815117
0.0815136
0.0815155
0.0815173
0.0815192
0.0815211
0.0815229
0.0815248
0.0815267
0.0815285
0.0815304
0.0815323
0.0815341
0.081536
0.0815379
0.0815398
0.0815416
0.0815435
0.0815454
0.0815473
0.0815492
0.081551
0.0815529
0.0815548
0.0815567
0.0815586
0.0815605
0.0815623
0.0815642
0.0815661
0.081568
0.0815699
0.0815718
0.0815737
0.0815756
0.0815775
0.0815793
0.0815812
0.0815831
0.081585
0.0815869
0.0815888
0.0815907
0.0815926
0.0815945
0.0815964
0.0815983
0.0816002
0.0816021
0.081604
0.081606
0.0816079
0.0816098
0.0816117
0.0816136
0.0816155
0.0816174
0.0816193
0.0816212
0.0816231
0.0816251
0.081627
0.0816289
0.0816308
0.0816327
0.0816347
0.0816366
0.0816385
0.0816404
0.0816423
0.0816443
0.0816462
0.0816481
0.08165
0.081652
0.0816539
0.0816558
0.0816578
0.0816597
0.0816616
0.0816636
0.0816655
0.0816674
0.0816694
0.0816713
0.0816732
0.0816752
0.0816771
0.0816791
0.081681
0.0816829
0.0816849
0.0816868
0.0816888
0.0816907
0.0816927
0.0816946
0.0816966
0.0816985
0.0817005
0.0817024
0.0817044
0.0817063
0.0817083
0.0817102
0.0817122
0.0817141
0.0817161
0.0817181
0.08172
0.081722
0.0817239
0.0817259
0.0817279
0.0817298
0.0817318
0.0817338
0.0817357
0.0817377
0.0817397
0.0817416
0.0817436
0.0817456
0.0817476
0.0817495
0.0817515
0.0817535
0.0817555
0.0817574
0.0817594
0.0817614
0.0817634
0.0817654
0.0817673
0.0817693
0.0817713
0.0817733
0.0817753
0.0817773
0.0817793
0.0817812
0.0817832
0.0817852
0.0817872
0.0817892
0.0817912
0.0817932
0.0817952
0.0817972
0.0817992
0.0818012
0.0818032
0.0818052
0.0818072
0.0818092
0.0818112
0.0818132
0.0818152
0.0818172
0.0818192
0.0818212
0.0818232
0.0818252
0.0818273
0.0818293
0.0818313
0.0818333
0.0818353
0.0818373
0.0818394
0.0818414
0.0818434
0.0818454
0.0818474
0.0818494
0.0818515
0.0818535
0.0818555
0.0818575
0.0818596
0.0818616
0.0818636
0.0818656
0.0818677
0.0818697
0.0818718
0.0818738
0.0818758
0.0818779
0.0818799
0.0818819
0.081884
0.0818861
0.081888
0.0818903
0.0818921
0.0818946
0.0818959
0.0818992
0.0818968
0.0818968
0.0818968
1
0.660887
0.446894
0.352878
0.30203
0.26985
0.247501
0.231019
0.218328
0.208226
0.199967
0.193061
0.187177
0.182085
0.177618
0.173655
0.170106
0.166902
0.163988
0.161323
0.158873
0.156611
0.154513
0.152562
0.150741
0.149037
0.147438
0.145933
0.144516
0.143177
0.14191
0.140709
0.139569
0.138485
0.137453
0.136469
0.135529
0.134631
0.133772
0.132949
0.13216
0.131403
0.130676
0.129976
0.129303
0.128655
0.128031
0.127428
0.126847
0.126286
0.125744
0.125219
0.124712
0.124222
0.123747
0.123286
0.122841
0.122408
0.12199
0.121583
0.121189
0.120807
0.120436
0.120076
0.119728
0.11939
0.119062
0.118745
0.118439
0.118144
0.117859
0.117586
0.117323
0.117072
0.116831
0.116602
0.116383
0.116174
0.115976
0.115789
0.115611
0.115443
0.115283
0.115133
0.11499
0.114856
0.114729
0.114609
0.114497
0.114392
0.114294
0.114202
0.114116
0.114035
0.11396
0.11389
0.113825
0.113765
0.11371
0.11366
0.113614
0.113573
0.113534
0.113499
0.113467
0.113438
0.113411
0.113388
0.113368
0.113351
0.113336
0.113325
0.113316
0.113309
0.113305
0.113302
0.1133
0.1133
0.1133
0.113301
0.113302
0.113303
0.113305
0.113307
0.11331
0.113312
0.113314
0.113317
0.113319
0.113322
0.113324
0.113327
0.113329
0.113332
0.113334
0.113337
0.113339
0.113342
0.113344
0.113347
0.113349
0.113352
0.113354
0.113357
0.113359
0.113362
0.113364
0.113367
0.113369
0.113372
0.113374
0.113377
0.11338
0.113382
0.113385
0.113387
0.11339
0.113392
0.113395
0.113397
0.1134
0.113402
0.113405
0.113407
0.11341
0.113413
0.113415
0.113418
0.11342
0.113423
0.113425
0.113428
0.11343
0.113433
0.113436
0.113438
0.113441
0.113443
0.113446
0.113448
0.113451
0.113453
0.113456
0.113459
0.113461
0.113464
0.113466
0.113469
0.113472
0.113474
0.113477
0.113479
0.113482
0.113484
0.113487
0.11349
0.113492
0.113495
0.113497
0.1135
0.113503
0.113505
0.113508
0.11351
0.113513
0.113515
0.113518
0.113521
0.113523
0.113526
0.113528
0.113531
0.113534
0.113536
0.113539
0.113542
0.113544
0.113547
0.113549
0.113552
0.113555
0.113557
0.11356
0.113562
0.113565
0.113568
0.11357
0.113573
0.113576
0.113578
0.113581
0.113583
0.113586
0.113589
0.113591
0.113594
0.113597
0.113599
0.113602
0.113605
0.113607
0.11361
0.113612
0.113615
0.113618
0.11362
0.113623
0.113626
0.113628
0.113631
0.113634
0.113636
0.113639
0.113642
0.113644
0.113647
0.11365
0.113652
0.113655
0.113658
0.11366
0.113663
0.113666
0.113668
0.113671
0.113674
0.113676
0.113679
0.113682
0.113684
0.113687
0.11369
0.113692
0.113695
0.113698
0.1137
0.113703
0.113706
0.113708
0.113711
0.113714
0.113717
0.113719
0.113722
0.113725
0.113727
0.11373
0.113733
0.113735
0.113738
0.113741
0.113744
0.113746
0.113749
0.113752
0.113754
0.113757
0.11376
0.113762
0.113765
0.113768
0.113771
0.113773
0.113776
0.113779
0.113782
0.113784
0.113787
0.11379
0.113792
0.113795
0.113798
0.113801
0.113803
0.113806
0.113809
0.113812
0.113814
0.113817
0.11382
0.113822
0.113825
0.113828
0.113831
0.113833
0.113836
0.113839
0.113842
0.113844
0.113847
0.11385
0.113853
0.113856
0.113858
0.113861
0.113864
0.113867
0.113869
0.113872
0.113875
0.113878
0.11388
0.113883
0.113886
0.113889
0.113891
0.113894
0.113897
0.1139
0.113903
0.113905
0.113908
0.113911
0.113914
0.113917
0.113919
0.113922
0.113925
0.113928
0.11393
0.113933
0.113936
0.113939
0.113942
0.113944
0.113947
0.11395
0.113953
0.113956
0.113958
0.113961
0.113964
0.113967
0.11397
0.113973
0.113975
0.113978
0.113981
0.113984
0.113987
0.113989
0.113992
0.113995
0.113998
0.114001
0.114004
0.114006
0.114009
0.114012
0.114015
0.114018
0.114021
0.114024
0.114026
0.11403
0.114032
0.114036
0.114033
0.114033
0.114033
1
0.776802
0.557825
0.446878
0.384102
0.343744
0.315511
0.294605
0.278469
0.265607
0.255082
0.246278
0.238777
0.232285
0.226591
0.221542
0.21702
0.212939
0.209229
0.205836
0.202718
0.199839
0.197171
0.194689
0.192373
0.190205
0.188172
0.186259
0.184457