# vtk DataFile Version 2.0
FlowField
ASCII
DATASET STRUCTURED_GRID
DIMENSIONS 400 1 200
POINTS 80000 float
0 0 0
0.08 0 0
0.16 0 0
0.24 0 0
0.32 0 0
0.4 0 0
0.48 0 0
0.56 0 0
0.64 0 0
0.72 0 0
0.8 0 0
0.88 0 0
0.96 0 0
1.04 0 0
1.12 0 0
1.2 0 0
1.28 0 0
1.36 0 0
1.44 0 0
1.52 0 0
1.6 0 0
1.68 0 0
1.76 0 0
1.84 0 0
1.92 0 0
2 0 0
2.08 0 0
2.16 0 0
2.24 0 0
2.32 0 0
2.4 0 0
2.48 0 0
2.56 0 0
2.64 0 0
2.72 0 0
2.8 0 0
2.88 0 0
2.96 0 0
3.04 0 0
3.12 0 0
3.2 0 0
3.28 0 0
3.36 0 0
3.44 0 0
3.52 0 0
3.6 0 0
3.68 0 0
3.76 0 0
3.84 0 0
3.92 0 0
4 0 0
4.08 0 0
4.16 0 0
4.24 0 0
4.32 0 0
4.4 0 0
4.48 0 0
4.56 0 0
4.64 0 0
4.72 0 0
4.8 0 0
4.88 0 0
4.96 0 0
5.04 0 0
5.12 0 0
5.2 0 0
5.28 0 0
5.36 0 0
5.44 0 0
5.52 0 0
5.6 0 0
5.68 0 0
5.76 0 0
5.84 0 0
5.92 0 0
6 0 0
6.08 0 0
6.16 0 0
6.24 0 0
6.32 0 0
6.4 0 0
6.48 0 0
6.56 0 0
6.64 0 0
6.72 0 0
6.8 0 0
6.88 0 0
6.96 0 0
7.04 0 0
7.12 0 0
7.2 0 0
7.28 0 0
7.36 0 0
7.44 0 0
7.52 0 0
7.6 0 0
7.68 0 0
7.76 0 0
7.84 0 0
7.92 0 0
8 0 0
8.08 0 0
8.16 0 0
8.24 0 0
8.32 0 0
8.4 0 0
8.48 0 0
8.56 0 0
8.64 0 0
8.72 0 0
8.8 0 0
8.88 0 0
8.96 0 0
9.04 0 0
9.12 0 0
9.2 0 0
9.28 0 0
9.36 0 0
9.44 0 0
9.52 0 0
9.6 0 0
9.68 0 0
9.76 0 0
9.84 0 0
9.92 0 0
10 0 0
10.08 0 0
10.16 0 0
10.24 0 0
10.32 0 0
10.4 0 0
10.48 0 0
10.56 0 0
10.64 0 0
10.72 0 0
10.8 0 0
10.88 0 0
10.96 0 0
11.04 0 0
11.12 0 0
11.2 0 0
11.28 0 0
11.36 0 0
11.44 0 0
11.52 0 0
11.6 0 0
11.68 0 0
11.76 0 0
11.84 0 0
11.92 0 0
12 0 0
12.08 0 0
12.16 0 0
12.24 0 0
12.32 0 0
12.4 0 0
12.48 0 0
12.56 0 0
12.64 0 0
12.72 0 0
12.8 0 0
12.88 0 0
12.96 0 0
13.04 0 0
13.12 0 0
13.2 0 0
13.28 0 0
13.36 0 0
13.44 0 0
13.52 0 0
13.6 0 0
13.68 0 0
13.76 0 0
13.84 0 0
13.92 0 0
14 0 0
14.08 0 0
14.16 0 0
14.24 0 0
14.32 0 0
14.4 0 0
14.48 0 0
14.56 0 0
14.64 0 0
14.72 0 0
14.8 0 0
14.88 0 0
14.96 0 0
15.04 0 0
15.12 0 0
15.2 0 0
15.28 0 0
15.36 0 0
15.44 0 0
15.52 0 0
15.6 0 0
15.68 0 0
15.76 0 0
15.84 0 0
15.92 0 0
16 0 0
16.08 0 0
16.16 0 0
16.24 0 0
16.32 0 0
16.4 0 0
16.48 0 0
16.56 0 0
16.64 0 0
16.72 0 0
16.8 0 0
16.88 0 0
16.96 0 0
17.04 0 0
17.12 0 0
17.2 0 0
17.28 0 0
17.36 0 0
17.44 0 0
17.52 0 0
17.6 0 0
17.68 0 0
17.76 0 0
17.84 0 0
17.92 0 0
18 0 0
18.08 0 0
18.16 0 0
18.24 0 0
18.32 0 0
18.4 0 0
18.48 0 0
18.56 0 0
18.64 0 0
18.72 0 0
18.8 0 0
18.88 0 0
18.96 0 0
19.04 0 0
19.12 0 0
19.2 0 0
19.28 0 0
19.36 0 0
19.44 0 0
19.52 0 0
19.6 0 0
19.68 0 0
19.76 0 0
19.84 0 0
19.92 0 0
20 0 0
20.08 0 0
20.16 0 0
20.24 0 0
20.32 0 0
20.4 0 0
20.48 0 0
20.56 0 0
20.64 0 0
20.72 0 0
20.8 0 0
20.88 0 0
20.96 0 0
21.04 0 0
21.12 0 0
21.2 0 0
21.28 0 0
21.36 0 0
21.44 0 0
21.52 0 0
21.6 0 0
21.68 0 0
21.76 0 0
21.84 0 0
21.92 0 0
22 0 0
22.08 0 0
22.16 0 0
22.24 0 0
22.32 0 0
22.4 0 0
22.48 0 0
22.56 0 0
22.64 0 0
22.72 0 0
22.8 0 0
22.88 0 0
22.96 0 0
23.04 0 0
23.12 0 0
23.2 0 0
23.28 0 0
23.36 0 0
23.44 0 0
23.52 0 0
23.6 0 0
23.68 0 0
23.76 0 0
23.84 0 0
23.92 0 0
24 0 0
24.08 0 0
24.16 0 0
24.24 0 0
24.32 0 0
24.4 0 0
24.48 0 0
24.56 0 0
24.64 0 0
24.72 0 0
24.8 0 0
24.88 0 0
24.96 0 0
25.04 0 0
25.12 0 0
25.2 0 0
25.28 0 0
25.36 0 0
25.44 0 0
25.52 0 0
25.6 0 0
25.68 0 0
25.76 0 0
25.84 0 0
25.92 0 0
26 0 0
26.08 0 0
26.16 0 0
26.24 0 0
26.32 0 0
26.4 0 0
26.48 0 0
26.56 0 0
26.64 0 0
26.72 0 0
26.8 0 0
26.88 0 0
26.96 0 0
27.04 0 0
27.12 0 0
27.2 0 0
27.28 0 0
27.36 0 0
27.44 0 0
27.52 0 0
27.6 0 0
27.68 0 0
27.76 0 0
27.84 0 0
27.92 0 0
28 0 0
28.08 0 0
28.16 0 0
28.24 0 0
28.32 0 0
28.4 0 0
28.48 0 0
28.56 0 0
28.64 0 0
28.72 0 0
28.8 0 0
28.88 0 0
28.96 0 0
29.04 0 0
29.12 0 0
29.2 0 0
29.28 0 0
29.36 0 0
29.44 0 0
29.52 0 0
29.6 0 0
29.68 0 0
29.76 0 0
29.84 0 0
29.92 0 0
30 0 0
30.08 0 0
30.16 0 0
30.24 0 0
30.32 0 0
30.4 0 0
30.48 0 0
30.56 0 0
30.64 0 0
30.72 0 0
30.8 0 0
30.88 0 0
30.96 0 0
31.04 0 0
31.12 0 0
31.2 0 0
31.28 0 0
31.36 0 0
31.44 0 0
31.52 0 0
31.6 0 0
31.68 0 0
31.76 0 0
31.84 0 0
31.92 0 0
0 0.005 0
0.08 0.005 0
0.16 0.005 0
0.24 0.005 0
0.32 0.005 0
0.4 0.005 0
0.48 0.005 0
0.56 0.005 0
0.64 0.005 0
0.72 0.005 0
0.8 0.005 0
0.88 0.005 0
0.96 0.005 0
1.04 0.005 0
1.12 0.005 0
1.2 0.005 0
1.28 0.005 0
1.36 0.005 0
1.44 0.005 0
1.52 0.005 0
1.6 0.005 0
1.68 0.005 0
1.76 0.005 0
1.84 0.005 0
1.92 0.005 0
2 0.005 0
2.08 0.005 0
2.16 0.005 0
2.24 0.005 0
2.32 0.005 0
2.4 0.005 0
2.48 0.005 0
2.56 0.005 0
2.64 0.005 0
2.72 0.005 0
2.8 0.005 0
2.88 0.005 0
2.96 0.005 0
3.04 0.005 0
3.12 0.005 0
3.2 0.005 0
3.28 0.005 0
3.36 0.005 0
3.44 0.005 0
3.52 0.005 0
3.6 0.005 0
3.68 0.005 0
3.76 0.005 0
3.84 0.005 0
3.92 0.005 0
4 0.005 0
4.08 0.005 0
4.16 0.005 0
4.24 0.005 0
4.32 0.005 0
4.4 0.005 0
4.48 0.005 0
4.56 0.005 0
4.64 0.005 0
4.72 0.005 0
4.8 0.005 0
4.88 0.005 0
4.96 0.005 0
5.04 0.005 0
5.12 0.005 0
5.2 0.005 0
5.28 0.005 0
5.36 0.005 0
5.44 0.005 0
5.52 0.005 0
5.6 0.005 0
5.68 0.005 0
5.76 0.005 0
5.84 0.005 0
5.92 0.005 0
6 0.005 0
6.08 0.005 0
6.16 0.005 0
6.24 0.005 0
6.32 0.005 0
6.4 0.005 0
6.48 0.005 0
6.56 0.005 0
6.64 0.005 0
6.72 0.005 0
6.8 0.005 0
6.88 0.005 0
6.96 0.005 0
7.04 0.005 0
7.12 0.005 0
7.2 0.005 0
7.28 0.005 0
7.36 0.005 0
7.44 0.005 0
7.52 0.005 0
7.6 0.005 0
7.68 0.005 0
7.76 0.005 0
7.84 0.005 0
7.92 0.005 0
8 0.005 0
8.08 0.005 0
8.16 0.005 0
8.24 0.005 0
8.32 0.005 0
8.4 0.005 0
8.48 0.005 0
8.56 0.005 0
8.64 0.005 0
8.72 0.005 0
8.8 0.005 0
8.88 0.005 0
8.96 0.005 0
9.04 0.005 0
9.12 0.005 0
9.2 0.005 0
9.28 0.005 0
9.36 0.005 0
9.44 0.005 0
9.52 0.005 0
9.6 0.005 0
9.68 0.005 0
9.76 0.005 0
9.84 0.005 0
9.92 0.005 0
10 0.005 0
10.08 0.005 0
10.16 0.005 0
10.24 0.005 0
10.32 0.005 0
10.4 0.005 0
10.48 0.005 0
10.56 0.005 0
10.64 0.005 0
10.72 0.005 0
10.8 0.005 0
10.88 0.005 0
10.96 0.005 0
11.04 0.005 0
11.12 0.005 0
11.2 0.005 0
11.28 0.005 0
11.36 0.005 0
11.44 0.005 0
11.52 0.005 0
11.6 0.005 0
11.68 0.005 0
11.76 0.005 0
11.84 0.005 0
11.92 0.005 0
12 0.005 0
12.08 0.005 0
12.16 0.005 0
12.24 0.005 0
12.32 0.005 0
12.4 0.005 0
12.48 0.005 0
12.56 0.005 0
12.64 0.005 0
12.72 0.005 0
12.8 0.005 0
12.88 0.005 0
12.96 0.005 0
13.04 0.005 0
13.12 0.005 0
13.2 0.005 0
13.28 0.005 0
13.36 0.005 0
13.44 0.005 0
13.52 0.005 0
13.6 0.005 0
13.68 0.005 0
13.76 0.005 0
13.84 0.005 0
13.92 0.005 0
14 0.005 0
14.08 0.005 0
14.16 0.005 0
14.24 0.005 0
14.32 0.005 0
14.4 0.005 0
14.48 0.005 0
14.56 0.005 0
14.64 0.005 0
14.72 0.005 0
14.8 0.005 0
14.88 0.005 0
14.96 0.005 0
15.04 0.005 0
15.12 0.005 0
15.2 0.005 0
15.28 0.005 0
15.36 0.005 0
15.44 0.005 0
15.52 0.005 0
15.6 0.005 0
15.68 0.005 0
15.76 0.005 0
15.84 0.005 0
15.92 0.005 0
16 0.005 0
16.08 0.005 0
16.16 0.005 0
16.24 0.005 0
16.32 0.005 0
16.4 0.005 0
16.48 0.005 0
16.56 0.005 0
16.64 0.005 0
16.72 0.005 0
16.8 0.005 0
16.88 0.005 0
16.96 0.005 0
17.04 0.005 0
17.12 0.005 0
17.2 0.005 0
17.28 0.005 0
17.36 0.005 0
17.44 0.005 0
17.52 0.005 0
17.6 0.005 0
17.68 0.005 0
17.76 0.005 0
17.84 0.005 0
17.92 0.005 0
18 0.005 0
18.08 0.005 0
18.16 0.005 0
18.24 0.005 0
18.32 0.005 0
18.4 0.005 0
18.48 0.005 0
18.56 0.005 0
18.64 0.005 0
18.72 0.005 0
18.8 0.005 0
18.88 0.005 0
18.96 0.005 0
19.04 0.005 0
19.12 0.005 0
19.2 0.005 0
19.28 0.005 0
19.36 0.005 0
19.44 0.005 0
19.52 0.005 0
19.6 0.005 0
19.68 0.005 0
19.76 0.005 0
19.84 0.005 0
19.92 0.005 0
20 0.005 0
20.08 0.005 0
20.16 0.005 0
20.24 0.005 0
20.32 0.005 0
20.4 0.005 0
20.48 0.005 0
20.56 0.005 0
20.64 0.005 0
20.72 0.005 0
20.8 0.005 0
20.88 0.005 0
20.96 0.005 0
21.04 0.005 0
21.12 0.005 0
21.2 0.005 0
21.28 0.005 0
21.36 0.005 0
21.44 0.005 0
21.52 0.005 0
21.6 0.005 0
21.68 0.005 0
21.76 0.005 0
21.84 0.005 0
21.92 0.005 0
22 0.005 0
22.08 0.005 0
22.16 0.005 0
22.24 0.005 0
22.32 0.005 0
22.4 0.005 0
22.48 0.005 0
22.56 0.005 0
22.64 0.005 0
22.72 0.005 0
22.8 0.005 0
22.88 0.005 0
22.96 0.005 0
23.04 0.005 0
23.12 0.005 0
23.2 0.005 0
23.28 0.005 0
23.36 0.005 0
23.44 0.005 0
23.52 0.005 0
23.6 0.005 0
23.68 0.005 0
23.76 0.005 0
23.84 0.005 0
23.92 0.005 0
24 0.005 0
24.08 0.005 0
24.16 0.005 0
24.24 0.005 0
24.32 0.005 0
24.4 0.005 0
24.48 0.005 0
24.56 0.005 0
24.64 0.005 0
24.72 0.005 0
24.8 0.005 0
24.88 0.005 0
24.96 0.005 0
25.04 0.005 0
25.12 0.005 0
25.2 0.005 0
25.28 0.005 0
25.36 0.005 0
25.44 0.005 0
25.52 0.005 0
25.6 0.005 0
25.68 0.005 0
25.76 0.005 0
25.84 0.005 0
25.92 0.005 0
26 0.005 0
26.08 0.005 0
26.16 0.005 0
26.24 0.005 0
26.32 0.005 0
26.4 0.005 0
26.48 0.005 0
26.56 0.005 0
26.64 0.005 0
26.72 0.005 0
26.8 0.005 0
26.88 0.005 0
26.96 0.005 0
27.04 0.005 0
27.12 0.005 0
27.2 0.005 0
27.28 0.005 0
27.36 0.005 0
27.44 0.005 0
27.52 0.005 0
27.6 0.005 0
27.68 0.005 0
27.76 0.005 0
27.84 0.005 0
27.92 0.005 0
28 0.005 0
28.08 0.005 0
28.16 0.005 0
28.24 0.005 0
28.32 0.005 0
28.4 0.005 0
28.48 0.005 0
28.56 0.005 0
28.64 0.005 0
28.72 0.005 0
28.8 0.005 0
28.88 0.005 0
28.96 0.005 0
29.04 0.005 0
29.12 0.005 0
29.2 0.005 0
29.28 0.005 0
29.36 0.005 0
29.44 0.005 0
29.52 0.005 0
29.6 0.005 0
29.68 0.005 0
29.76 0.005 0
29.84 0.005 0
29.92 0.005 0
30 0.005 0
30.08 0.005 0
30.16 0.005 0
30.24 0.005 0
30.32 0.005 0
30.4 0.005 0
30.48 0.005 0
30.56 0.005 0
30.64 0.005 0
30.72 0.005 0
30.8 0.005 0
30.88 0.005 0
30.96 0.005 0
31.04 0.005 0
31.12 0.005 0
31.2 0.005 0
31.28 0.005 0
31.36 0.005 0
31.44 0.005 0
31.52 0.005 0
31.6 0.005 0
31.68 0.005 0
31.76 0.005 0
31.84 0.005 0
31.92 0.005 0
0 0.01 0
0.08 0.01 0
0.16 0.01 0
0.24 0.01 0
0.32 0.01 0
0.4 0.01 0
0.48 0.01 0
0.56 0.01 0
0.64 0.01 0
0.72 0.01 0
0.8 0.01 0
0.88 0.01 0
0.96 0.01 0
1.04 0.01 0
1.12 0.01 0
1.2 0.01 0
1.28 0.01 0
1.36 0.01 0
1.44 0.01 0
1.52 0.01 0
1.6 0.01 0
1.68 0.01 0
1.76 0.01 0
1.84 0.01 0
1.92 0.01 0
2 0.01 0
2.08 0.01 0
2.16 0.01 0
2.24 0.01 0
2.32 0.01 0
2.4 0.01 0
2.48 0.01 0
2.56 0.01 0
2.64 0.01 0
2.72 0.01 0
2.8 0.01 0
2.88 0.01 0
2.96 0.01 0
3.04 0.01 0
3.12 0.01 0
3.2 0.01 0
3.28 0.01 0
3.36 0.01 0
3.44 0.01 0
3.52 0.01 0
3.6 0.01 0
3.68 0.01 0
3.76 0.01 0
3.84 0.01 0
3.92 0.01 0
4 0.01 0
4.08 0.01 0
4.16 0.01 0
4.24 0.01 0
4.32 0.01 0
4.4 0.01 0
4.48 0.01 0
4.56 0.01 0
4.64 0.01 0
4.72 0.01 0
4.8 0.01 0
4.88 0.01 0
4.96 0.01 0
5.04 0.01 0
5.12 0.01 0
[...]
POINT_DATA 80000

SCALARS v float 1
LOOKUP_TABLE default
0
0
0
0
0
0
0
0
0
0
0
0
0
0
0
0
0
0
0
0
0
0
0
0
0
0
0
0
0
0
0
0
0
0
0
0
0
0
0
0
0
0
0
0
0
0
0
0
0
0
0
0
0
0
0
0
0
0
0
0
0
0
0
0
0
0
0
0
0
0
0
0
0
0
0
0
0
0
0
0
0
0
0
0
0
0
0
0
0
0
0
0
0
0
0
0
0
0
0
0
0
0
0
0
0
0
0
0
0
0
0
0
0
0
0
0
0
0
0
0
0
0
0
0
0
0
0
0
0
0
0
0
0
0
0
0
0
0
0
0
0
0
0
0
0
0
0
0
0
0
0
0
0
0
0
0
0
0
0
0
0
0
0
0
0
0
0
0
0
0
0
0
0
0
0
0
0
0
0
0
0
0
0
0
0
0
0
0
0
0
0
0
0
0
0
0
0
0
0
0
0
0
0
0
0
0
0
0
0
0
0
0
0
0
0
0
0
0
0
0
0
0
0
0
0
0
0
0
0
0
0
0
0
0
0
0
0
0
0
0
0
0
0
0
0
0
0
0
0
0
0
0
0
0
0
0
0
0
0
0
0
0
0
0
0
0
0
0
0
0
0
0
0
0
0
0
0
0
0
0
0
0
0
0
0
0
0
0
0
0
0
0
0
0
0
0
0
0
0
0
0
0
0
0
0
0
0
0
0
0
0
0
0
0
0
0
0
0
0
0
0
0
0
0
0
0
0
0
0
0
0
0
0
0
0
0
0
0
0
0
0
0
0
0
0
0
0
0
0
0
0
0
0
0
0
0
0
0
0
0
0
0
0
0
0
0
0
0
0
0
0
0
0
0
0
0
0
0
0
0
0
0
0
0
0
0
0
0
0
0
0
0
0
0
0
0
0
0
0
0
-0.0542711
0.0542711
0.00396209
0.00099833
0.00049226
0.000302696
0.00020732
0.000151692
0.00011625
9.22938e-05
7.53807e-05
6.30201e-05
5.37196e-05
4.65411e-05
4.08733e-05
3.63062e-05
3.25587e-05
2.94337e-05
2.67906e-05
2.45275e-05
2.25686e-05
2.08572e-05
1.935e-05
1.80131e-05
1.68201e-05
1.57496e-05
1.47845e-05
1.39105e-05
1.31161e-05
1.23915e-05
1.17283e-05
1.11195e-05
1.05592e-05
1.00421e-05
9.56378e-06
9.1203e-06
8.70824e-06
8.32462e-06
7.96678e-06
7.63239e-06
7.31938e-06
7.02589e-06
6.75029e-06
6.49109e-06
6.24696e-06
6.01673e-06
5.79931e-06
5.59373e-06
5.39912e-06
5.21466e-06
5.03965e-06
4.87341e-06
4.71534e-06
4.56489e-06
4.42155e-06
4.28486e-06
4.15439e-06
4.02975e-06
3.91057e-06
3.79653e-06
3.68731e-06
3.58262e-06
3.48221e-06
3.38583e-06
3.29325e-06
3.20425e-06
3.11865e-06
3.03626e-06
2.95691e-06
2.88043e-06
2.80668e-06
2.73553e-06
2.66684e-06
2.60048e-06
2.53635e-06
2.47434e-06
2.41435e-06
2.35628e-06
2.30005e-06
2.24557e-06
2.19276e-06
2.14155e-06
2.09188e-06
2.04367e-06
1.99686e-06
1.9514e-06
1.90724e-06
1.86431e-06
1.82257e-06
1.78197e-06
1.74247e-06
1.70403e-06
1.66661e-06
1.63017e-06
1.59467e-06
1.56009e-06
1.52638e-06
1.49353e-06
1.46149e-06
1.43025e-06
1.39977e-06
1.37003e-06
1.34101e-06
1.31268e-06
1.28502e-06
1.25802e-06
1.23165e-06
1.20589e-06
1.18072e-06
1.15613e-06
1.1321e-06
1.10862e-06
1.08566e-06
1.06322e-06
1.04128e-06
1.01982e-06
9.98835e-07
9.78311e-07
9.58236e-07
9.38598e-07
9.19384e-07
9.00586e-07
8.82191e-07
8.6419e-07
8.46573e-07
8.29331e-07
8.12454e-07
7.95934e-07
7.79762e-07
7.6393e-07
7.48429e-07
7.33253e-07
7.18393e-07
7.03843e-07
6.89594e-07
6.75641e-07
6.61976e-07
6.48594e-07
6.35487e-07
6.2265e-07
6.10077e-07
5.97761e-07
5.85698e-07
5.73881e-07
5.62306e-07
5.50967e-07
5.39859e-07
5.28977e-07
5.18316e-07
5.07872e-07
4.9764e-07
4.87616e-07
4.77795e-07
4.68172e-07
4.58745e-07
4.49508e-07
4.40457e-07
4.3159e-07
4.22901e-07
4.14388e-07
4.06047e-07
3.97873e-07
3.89865e-07
3.82017e-07
3.74328e-07
3.66793e-07
3.59411e-07
3.52176e-07
3.45087e-07
3.38141e-07
3.31334e-07
3.24664e-07
3.18129e-07
3.11724e-07
3.05448e-07
2.99299e-07
2.93272e-07
2.87367e-07
2.81581e-07
2.7591e-07
2.70354e-07
2.64909e-07
2.59573e-07
2.54344e-07
2.49221e-07
2.442e-07
2.3928e-07
2.34459e-07
2.29735e-07
2.25105e-07
2.20568e-07
2.16123e-07
2.11767e-07
2.07498e-07
2.03315e-07
1.99216e-07
1.952e-07
1.91264e-07
1.87407e-07
1.83627e-07
1.79924e-07
1.76295e-07
1.72739e-07
1.69254e-07
1.6584e-07
1.62494e-07
1.59215e-07
1.56003e-07
1.52855e-07
1.4977e-07
1.46747e-07
1.43786e-07
1.40883e-07
1.38039e-07
1.35253e-07
1.32522e-07
1.29847e-07
1.27225e-07
1.24656e-07
1.22139e-07
1.19672e-07
1.17255e-07
1.14887e-07
1.12567e-07
1.10293e-07
1.08065e-07
1.05882e-07
1.03743e-07
1.01646e-07
9.95926e-08
9.75802e-08
9.56083e-08
9.36761e-08
9.17828e-08
8.99277e-08
8.811e-08
8.6329e-08
8.45839e-08
8.28739e-08
8.11985e-08
7.95569e-08
7.79485e-08
7.63726e-08
7.48285e-08
7.33156e-08
7.18334e-08
7.03812e-08
6.89584e-08
6.75645e-08
6.61988e-08
6.48609e-08
6.355e-08
6.22658e-08
6.10076e-08
5.97749e-08
5.85672e-08
5.73838e-08
5.62244e-08
5.50883e-08
5.3975e-08
5.28839e-08
5.18146e-08
5.07664e-08
4.97388e-08
4.87312e-08
4.77432e-08
4.67741e-08
4.58233e-08
4.48904e-08
4.39747e-08
4.30756e-08
4.21926e-08
4.13252e-08
4.04726e-08
3.96345e-08
3.88101e-08
3.7999e-08
3.72007e-08
3.64145e-08
3.56399e-08
3.48766e-08
3.41238e-08
3.33813e-08
3.26484e-08
3.19248e-08
3.12101e-08
3.05039e-08
2.98058e-08
2.91154e-08
2.84325e-08
2.77568e-08
2.7088e-08
2.64258e-08
2.57702e-08
2.51208e-08
2.44776e-08
2.38405e-08
2.32094e-08
2.25842e-08
2.19648e-08
2.13514e-08
2.07438e-08
2.01423e-08
1.95468e-08
1.89574e-08
1.83743e-08
1.77977e-08
1.72276e-08
1.66643e-08
1.6108e-08
1.55589e-08
1.50172e-08
1.44831e-08
1.3957e-08
1.3439e-08
1.29293e-08
1.24284e-08
1.19364e-08
1.14535e-08
1.098e-08
1.05163e-08
1.00623e-08
9.61846e-09
9.18488e-09
8.76182e-09
8.34939e-09
7.94776e-09
7.55709e-09
7.17748e-09
6.80903e-09
6.45184e-09
6.10593e-09
5.7714e-09
5.4482e-09
5.13641e-09
4.83594e-09
4.54682e-09
4.26893e-09
4.00224e-09
3.74658e-09
3.50193e-09
3.26803e-09
3.04487e-09
2.83214e-09
2.62981e-09
2.43746e-09
2.25514e-09
2.0823e-09
1.91903e-09
1.7647e-09
1.61944e-09
1.48252e-09
1.35418e-09
1.23352e-09
1.12091e-09
1.01532e-09
9.17245e-10
8.25429e-10
7.40632e-10
6.61345e-10
5.88603e-10
5.20594e-10
4.58727e-10
4.00767e-10
3.48637e-10
2.99544e-10
2.56028e-10
2.14637e-10
1.78704e-10
1.43935e-10
1.14627e-10
8.54619e-11
6.19231e-11
3.7434e-11
1.8887e-11
-1.78427e-12
-1.60435e-11
-3.36717e-11
-4.42781e-11
-5.95003e-11
-6.70839e-11
-8.03655e-11
-8.55845e-11
-9.70983e-11
-1.00835e-10
-1.10276e-10
-1.14015e-10
-1.20171e-10
-1.2669e-10
-1.26447e-10
-1.41581e-10
-1.274e-10
-1.64279e-10
-1.16937e-10
-2.07577e-10
-6.5378e-11
-2.97504e-10
3.32996e-10
-1.74946e-10
-1.74946e-10
-0.0952159
0.0952159
0.0129756
0.00385462
0.00193431
0.0011962
0.000821741
0.000602314
0.000462067
0.000367041
0.000299831
0.000250645
0.000213602
0.000184994
0.0001624
0.000144195
0.00012926
0.00011681
0.000106285
9.72762e-05
8.9483e-05
8.26777e-05
7.66869e-05
7.13754e-05
6.66372e-05
6.23871e-05
5.85565e-05
5.50887e-05
5.19373e-05
4.90631e-05
4.64331e-05
4.40195e-05
4.17981e-05
3.97484e-05
3.78526e-05
3.60951e-05
3.44623e-05
3.29422e-05
3.15245e-05
3.01998e-05
2.89598e-05
2.77973e-05
2.67056e-05
2.5679e-05
2.47121e-05
2.38003e-05
2.29393e-05
2.21253e-05
2.13546e-05
2.06243e-05
1.99313e-05
1.92731e-05
1.86473e-05
1.80517e-05
1.74842e-05
1.69431e-05
1.64266e-05
1.59332e-05
1.54615e-05
1.50101e-05
1.45778e-05
1.41634e-05
1.3766e-05
1.33846e-05
1.30182e-05
1.2666e-05
1.23272e-05
1.20012e-05
1.16872e-05
1.13846e-05
1.10928e-05
1.08112e-05
1.05394e-05
1.02769e-05
1.00232e-05
9.77784e-06
9.5405e-06
9.31078e-06
9.08833e-06
8.87282e-06
8.66393e-06
8.46138e-06
8.2649e-06
8.07422e-06
7.88909e-06
7.7093e-06
7.53462e-06
7.36484e-06
7.19977e-06
7.03923e-06
6.88305e-06
6.73104e-06
6.58307e-06
6.43899e-06
6.29864e-06
6.1619e-06
6.02864e-06
5.89874e-06
5.77209e-06
5.64857e-06
5.52808e-06
5.41052e-06
5.29581e-06
5.18383e-06
5.07452e-06
4.96779e-06
4.86355e-06
4.76174e-06
4.66228e-06
4.5651e-06
4.47014e-06
4.37733e-06
4.28661e-06
4.19793e-06
4.11122e-06
4.02644e-06
3.94353e-06
3.86244e-06
3.78312e-06
3.70553e-06
3.62963e-06
3.55536e-06
3.48269e-06
3.41157e-06
3.34198e-06
3.27387e-06
3.2072e-06
3.14195e-06
3.07807e-06
3.01553e-06
2.95431e-06
2.89437e-06
2.83568e-06
2.77821e-06
2.72194e-06
2.66683e-06
2.61287e-06
2.56002e-06
2.50826e-06
2.45756e-06
2.40791e-06
2.35928e-06
2.31164e-06
2.26498e-06
2.21928e-06
2.1745e-06
2.13064e-06
2.08768e-06
2.04559e-06
2.00435e-06
1.96395e-06
1.92438e-06
1.8856e-06
1.84761e-06
1.81039e-06
1.77393e-06
1.7382e-06
1.70319e-06
1.66889e-06
1.63529e-06
1.60236e-06
1.57009e-06
1.53848e-06
1.5075e-06
1.47715e-06
1.44741e-06
1.41827e-06
1.38971e-06
1.36173e-06
1.33432e-06
1.30745e-06
1.28112e-06
1.25533e-06
1.23005e-06
1.20528e-06
1.18101e-06
1.15722e-06
1.13392e-06
1.11108e-06
1.0887e-06
1.06677e-06
1.04528e-06
1.02423e-06
1.00359e-06
9.83371e-07
9.63558e-07
9.44142e-07
9.25116e-07
9.06472e-07
8.88203e-07
8.70301e-07
8.52758e-07
8.35568e-07
8.18723e-07
8.02217e-07
7.86042e-07
7.70192e-07
7.54661e-07
7.39442e-07
7.24529e-07
7.09915e-07
6.95596e-07
6.81564e-07
6.67814e-07
6.54341e-07
6.41139e-07
6.28203e-07
6.15526e-07
6.03105e-07
5.90933e-07
5.79007e-07
5.6732e-07
5.55869e-07
5.44648e-07
5.33653e-07
5.2288e-07
5.12323e-07
5.01979e-07
4.91843e-07
4.81911e-07
4.7218e-07
4.62644e-07
4.533e-07
4.44145e-07
4.35174e-07
4.26383e-07
4.1777e-07
4.0933e-07
4.01061e-07
3.92958e-07
3.85018e-07
3.77238e-07
3.69615e-07
3.62146e-07
3.54827e-07
3.47655e-07
3.40629e-07
3.33744e-07
3.26998e-07
3.20388e-07
3.13912e-07
3.07566e-07
3.01349e-07
2.95257e-07
2.89289e-07
2.83441e-07
2.77712e-07
2.72099e-07
2.666e-07
2.61212e-07
2.55934e-07
2.50762e-07
2.45695e-07
2.40731e-07
2.35868e-07
2.31103e-07
2.26434e-07
2.21859e-07
2.17376e-07
2.12982e-07
2.08676e-07
2.04456e-07
2.00318e-07
1.96262e-07
1.92284e-07
1.88383e-07
1.84556e-07
1.80802e-07
1.77117e-07
1.73499e-07
1.69947e-07
1.66457e-07
1.63028e-07
1.59658e-07
1.56344e-07
1.53083e-07
1.49875e-07
1.46716e-07
1.43604e-07
1.40538e-07
1.37515e-07
1.34534e-07
1.31592e-07
1.28688e-07
1.2582e-07
1.22987e-07
1.20186e-07
1.17418e-07
1.14679e-07
1.11969e-07
1.09288e-07
1.06633e-07
1.04005e-07
1.01402e-07
9.88236e-08
9.62696e-08
9.37395e-08
9.12329e-08
8.87497e-08
8.62899e-08
8.38535e-08
8.14406e-08
7.90516e-08
7.66868e-08
7.43466e-08
7.20316e-08
6.97423e-08
6.74796e-08
6.52441e-08
6.30367e-08
6.08583e-08
5.87098e-08
5.65922e-08
5.45064e-08
5.24535e-08
5.04345e-08
4.84504e-08
4.65023e-08
4.45911e-08
4.27179e-08
4.08835e-08
3.90888e-08
3.73347e-08
3.5622e-08
3.39515e-08
3.23237e-08
3.07394e-08
2.91989e-08
2.77029e-08
2.62515e-08
2.48453e-08
2.34842e-08
2.21687e-08
2.08984e-08
1.96738e-08
1.84944e-08
1.73603e-08
1.62709e-08
1.52262e-08
1.42254e-08
1.32685e-08
1.23544e-08
1.14829e-08
1.06529e-08
9.86417e-09
9.11511e-09
8.40572e-09
7.734e-09
7.10008e-09
6.50161e-09
5.93896e-09
5.40935e-09
4.9135e-09
4.44811e-09
4.01439e-09
3.60833e-09
3.23181e-09
2.88005e-09
2.55579e-09
2.25326e-09
1.97638e-09
1.71814e-09
1.4839e-09
1.26512e-09
1.06896e-09
8.84893e-10
7.22422e-10
5.68507e-10
4.35593e-10
3.07547e-10
2.00424e-10
9.42703e-11
9.56772e-12
-7.83379e-11
-1.43701e-10
-2.16736e-10
-2.65529e-10
-3.26681e-10
-3.61429e-10
-4.13217e-10
-4.36304e-10
-4.80554e-10
-4.94504e-10
-5.31965e-10
-5.40153e-10
-5.69833e-10
-5.77726e-10
-5.95176e-10
-6.13176e-10
-6.06905e-10
-6.56631e-10
-5.99028e-10
-7.28962e-10
-5.49304e-10
-8.77153e-10
-3.48689e-10
-1.19137e-09
1.11304e-09
-7.37397e-10
-7.37397e-10
-0.125293
0.125293
0.0249359
0.00835802
0.004278
0.00266152
0.00183374
0.00134635
0.00103388
0.000821704
0.000671387
0.00056125
0.000478232
0.000414085
0.00036341
0.000322576
0.000289079
0.000261164
0.000237571
0.000217385
0.000199929
0.000184691
0.000171281
0.000159395
0.000148795
0.00013929
0.000130724
0.000122972
0.000115928
0.000109505
0.000103628
9.8235e-05
9.32725e-05
8.86939e-05
8.44594e-05
8.0534e-05
7.68875e-05
7.34931e-05
7.03272e-05
6.73692e-05
6.46006e-05
6.20051e-05
5.95679e-05
5.7276e-05
5.51176e-05
5.30822e-05
5.11602e-05
4.93431e-05
4.7623e-05
4.59928e-05
4.44462e-05
4.29772e-05
4.15805e-05
4.02511e-05
3.89848e-05
3.77772e-05
3.66246e-05
3.55236e-05
3.44709e-05
3.34636e-05
3.2499e-05
3.15745e-05
3.06878e-05
2.98367e-05
2.90192e-05
2.82334e-05
2.74776e-05
2.67502e-05
2.60497e-05
2.53746e-05
2.47236e-05
2.40956e-05
2.34893e-05
2.29036e-05
2.23377e-05
2.17904e-05
2.1261e-05
2.07487e-05
2.02525e-05
1.97718e-05
1.93059e-05
1.88542e-05
1.8416e-05
1.79908e-05
1.75779e-05
1.7177e-05
1.67874e-05
1.64088e-05
1.60408e-05
1.56828e-05
1.53345e-05
1.49956e-05
1.46657e-05
1.43444e-05
1.40315e-05
1.37266e-05
1.34296e-05
1.314e-05
1.28576e-05
1.25823e-05
1.23137e-05
1.20516e-05
1.17959e-05
1.15463e-05
1.13026e-05
1.10647e-05
1.08324e-05
1.06055e-05
1.03838e-05
1.01672e-05
9.9556e-06
9.74876e-06
9.5466e-06
9.34896e-06
9.15574e-06
8.96681e-06
8.78205e-06
8.60136e-06
8.42462e-06
8.25173e-06
8.0826e-06
7.91712e-06
7.75521e-06
7.59676e-06
7.44171e-06
7.28996e-06
7.14144e-06
6.99606e-06
6.85375e-06
6.71443e-06
6.57804e-06
6.44451e-06
6.31377e-06
6.18576e-06
6.06041e-06
5.93766e-06
5.81745e-06
5.69973e-06
5.58444e-06
5.47153e-06
5.36094e-06
5.25262e-06
5.14652e-06
5.0426e-06
4.94081e-06
4.84109e-06
4.74341e-06
4.64772e-06
4.55398e-06
4.46215e-06
4.37218e-06
4.28405e-06
4.1977e-06
4.1131e-06
4.03022e-06
3.94901e-06
3.86945e-06
3.7915e-06
3.71512e-06
3.64029e-06
3.56697e-06
3.49512e-06
3.42473e-06
3.35576e-06
3.28818e-06
3.22196e-06
3.15707e-06
3.09349e-06
3.03119e-06
2.97015e-06
2.91033e-06
2.85172e-06
2.79428e-06
2.738e-06
2.68286e-06
2.62882e-06
2.57587e-06
2.52398e-06
2.47314e-06
2.42331e-06
2.37449e-06
2.32665e-06
2.27977e-06
2.23384e-06
2.18882e-06
2.14471e-06
2.10149e-06
2.05913e-06
2.01763e-06
1.97696e-06
1.93711e-06
1.89806e-06
1.85979e-06
1.82229e-06
1.78555e-06
1.74954e-06
1.71426e-06
1.67969e-06
1.64581e-06
1.61261e-06
1.58008e-06
1.54821e-06
1.51697e-06
1.48637e-06
1.45638e-06
1.42699e-06
1.39819e-06
1.36998e-06
1.34233e-06
1.31524e-06
1.28869e-06
1.26268e-06
1.23719e-06
1.21221e-06
1.18774e-06
1.16376e-06
1.14026e-06
1.11724e-06
1.09468e-06
1.07257e-06
1.05091e-06
1.02969e-06
1.00889e-06
9.88511e-07
9.68544e-07
9.48979e-07
9.29808e-07
9.11023e-07
8.92617e-07
8.74582e-07
8.5691e-07
8.39595e-07
8.22628e-07
8.06003e-07
7.89714e-07
7.73753e-07
7.58114e-07
7.4279e-07
7.27776e-07
7.13065e-07
6.98651e-07
6.84528e-07
6.70691e-07
6.57133e-07
6.4385e-07
6.30835e-07
6.18084e-07
6.05592e-07
5.93352e-07
5.81361e-07
5.69613e-07
5.58103e-07
5.46826e-07
5.35777e-07
5.24952e-07
5.14346e-07
5.03953e-07
4.93769e-07
4.8379e-07
4.7401e-07
4.64424e-07
4.55028e-07
4.45817e-07
4.36785e-07
4.27928e-07
4.19241e-07
4.10719e-07
4.02356e-07
3.94148e-07
3.86089e-07
3.78174e-07
3.70399e-07
3.62759e-07
3.55247e-07
3.4786e-07
3.40591e-07
3.33438e-07
3.26393e-07
3.19454e-07
3.12615e-07
3.05872e-07
2.9922e-07
2.92656e-07
2.86175e-07
2.79775e-07
2.7345e-07
2.67199e-07
2.61017e-07
2.54902e-07
2.48852e-07
2.42863e-07
2.36935e-07
2.31065e-07
2.25251e-07
2.19492e-07
2.13788e-07
2.08137e-07
2.02538e-07
1.96992e-07
1.91499e-07
1.86058e-07
1.8067e-07
1.75335e-07
1.70056e-07
1.64831e-07
1.59664e-07
1.54555e-07
1.49506e-07
1.44518e-07
1.39594e-07
1.34736e-07
1.29945e-07
1.25224e-07
1.20575e-07
1.16e-07
1.11502e-07
1.07083e-07
1.02745e-07
9.849e-08
9.43208e-08
9.02393e-08
8.62473e-08
8.23467e-08
7.85392e-08
7.48265e-08
7.121e-08
6.76912e-08
6.42709e-08
6.09503e-08
5.773e-08
5.46109e-08
5.1593e-08
4.8677e-08
4.58626e-08
4.31502e-08
4.05389e-08
3.80289e-08
3.56189e-08
3.33087e-08
3.10966e-08
2.89822e-08
2.69633e-08
2.50396e-08
2.3208e-08
2.14685e-08
1.98172e-08
1.82542e-08
1.67749e-08
1.53796e-08
1.4063e-08
1.28259e-08
1.16622e-08
1.05733e-08
9.55191e-09
8.60061e-09
7.71064e-09
6.88594e-09
6.11609e-09
5.40691e-09
4.74589e-09
4.1413e-09
3.57809e-09
3.06759e-09
2.59138e-09
2.16475e-09
1.76505e-09
1.41252e-09
1.0792e-09
7.91601e-10
5.15183e-10
2.84183e-10
5.58899e-11
-1.26015e-10
-3.14263e-10
-4.53847e-10
-6.09461e-10
-7.12856e-10
-8.42433e-10
-9.15221e-10
-1.02431e-09
-1.07166e-09
-1.16428e-09
-1.19172e-09
-1.26963e-09
-1.2844e-09
-1.34555e-09
-1.35935e-09
-1.39452e-09
-1.42943e-09
-1.41435e-09
-1.51626e-09
-1.39265e-09
-1.66431e-09
-1.28299e-09
-1.97277e-09
-8.55829e-10
-2.62416e-09
2.19509e-09
-1.67163e-09
-1.67163e-09
-0.146488
0.146488
0.0383105
0.014234
0.00745602
0.00467275
0.00323055
0.00237653
0.00182708
0.00145306
0.00118762
0.000992883
0.000845958
0.000732363
0.000642595
0.000570249
0.000510907
0.00046146
0.000419681
0.000383945
0.00035305
0.00032609
0.000302371
0.000281354
0.000262615
0.000245814
0.000230678
0.000216982
0.000204538
0.000193192
0.000182814
0.000173291
0.000164528
0.000156444
0.000148969
0.000142039
0.000135602
0.000129611
0.000124023
0.000118802
0.000113916
0.000109336
0.000105035
0.00010099
9.71815e-05
9.359e-05
9.01987e-05
8.69925e-05
8.39576e-05
8.10814e-05
7.83527e-05
7.5761e-05
7.3297e-05
7.09519e-05
6.87178e-05
6.65875e-05
6.45544e-05
6.26122e-05
6.07553e-05
5.89785e-05
5.7277e-05
5.56463e-05
5.40823e-05
5.25812e-05
5.11393e-05
4.97535e-05
4.84205e-05
4.71376e-05
4.59022e-05
4.47116e-05
4.35636e-05
4.2456e-05
4.13869e-05
4.03542e-05
3.93562e-05
3.83912e-05
3.74578e-05
3.65543e-05
3.56794e-05
3.48319e-05
3.40105e-05
3.32141e-05
3.24415e-05
3.16918e-05
3.09639e-05
3.02571e-05
2.95704e-05
2.8903e-05
2.82541e-05
2.76231e-05
2.70092e-05
2.64118e-05
2.58302e-05
2.5264e-05
2.47125e-05
2.41751e-05
2.36515e-05
2.31411e-05
2.26435e-05
2.21582e-05
2.16849e-05
2.12231e-05
2.07724e-05
2.03326e-05
1.99032e-05
1.9484e-05
1.90746e-05
1.86748e-05
1.82842e-05
1.79026e-05
1.75297e-05
1.71653e-05
1.68091e-05
1.64609e-05
1.61205e-05
1.57876e-05
1.54621e-05
1.51438e-05
1.48325e-05
1.45279e-05
1.423e-05
1.39385e-05
1.36533e-05
1.33742e-05
1.31011e-05
1.28338e-05
1.25722e-05
1.23161e-05
1.20655e-05
1.18201e-05
1.15799e-05
1.13447e-05
1.11144e-05
1.0889e-05
1.06682e-05
1.04521e-05
1.02404e-05
1.00331e-05
9.83005e-06
9.63121e-06
9.43647e-06
9.24573e-06
9.05891e-06
8.87592e-06
8.69667e-06
8.52109e-06
8.3491e-06
8.18061e-06
8.01556e-06
7.85387e-06
7.69547e-06
7.54029e-06
7.38826e-06
7.23932e-06
7.09339e-06
6.95043e-06
6.81035e-06
6.67312e-06
6.53865e-06
6.40691e-06
6.27783e-06
6.15135e-06
6.02743e-06
5.90601e-06
5.78704e-06
5.67046e-06
5.55624e-06
5.44432e-06
5.33465e-06
5.22719e-06
5.1219e-06
5.01872e-06
4.91762e-06
4.81856e-06
4.72149e-06
4.62637e-06
4.53316e-06
4.44183e-06
4.35233e-06
4.26464e-06
4.1787e-06
4.0945e-06
4.01199e-06
3.93113e-06
3.8519e-06
3.77427e-06
3.69819e-06
3.62364e-06
3.55059e-06
3.47901e-06
3.40887e-06
3.34014e-06
3.27279e-06
3.20679e-06
3.14212e-06
3.07875e-06
3.01666e-06
2.95581e-06
2.89619e-06
2.83776e-06
2.78051e-06
2.72441e-06
2.66944e-06
2.61558e-06
2.5628e-06
2.51108e-06
2.4604e-06
2.41075e-06
2.36209e-06
2.31441e-06
2.26769e-06
2.22191e-06
2.17706e-06
2.1331e-06
2.09004e-06
2.04783e-06
2.00648e-06
1.96597e-06
1.92626e-06
1.88736e-06
1.84924e-06
1.81189e-06
1.7753e-06
1.73943e-06
1.7043e-06
1.66987e-06
1.63613e-06
1.60308e-06
1.57069e-06
1.53895e-06
1.50785e-06
1.47738e-06
1.44752e-06
1.41827e-06
1.3896e-06
1.36152e-06
1.334e-06
1.30703e-06
1.28061e-06
1.25473e-06
1.22936e-06
1.20451e-06
1.18016e-06
1.1563e-06
1.13293e-06
1.11003e-06
1.08759e-06
1.06561e-06
1.04407e-06
1.02297e-06
1.0023e-06
9.82042e-07
9.62198e-07
9.42755e-07
9.23705e-07
9.0504e-07
8.86751e-07
8.68829e-07
8.51266e-07
8.34053e-07
8.17181e-07
8.00643e-07
7.84429e-07
7.68531e-07
7.52939e-07
7.37645e-07
7.2264e-07
7.07915e-07
6.93461e-07
6.79269e-07
6.6533e-07
6.51635e-07
6.38175e-07
6.24941e-07
6.11925e-07
5.99118e-07
5.8651e-07
5.74095e-07
5.61862e-07
5.49806e-07
5.37917e-07
5.26188e-07
5.14612e-07
5.03183e-07
4.91893e-07
4.80736e-07
4.69708e-07
4.58801e-07
4.48013e-07
4.37337e-07
4.2677e-07
4.16309e-07
4.05949e-07
3.9569e-07
3.85527e-07
3.75461e-07
3.65488e-07
3.55609e-07
3.45823e-07
3.36129e-07
3.2653e-07
3.17024e-07
3.07614e-07
2.98301e-07
2.89087e-07
2.79975e-07
2.70966e-07
2.62064e-07
2.53273e-07
2.44594e-07
2.36033e-07
2.27592e-07
2.19276e-07
2.11088e-07
2.03033e-07
1.95115e-07
1.87337e-07
1.79703e-07
1.72218e-07
1.64885e-07
1.57708e-07
1.5069e-07
1.43835e-07
1.37145e-07
1.30623e-07
1.24272e-07
1.18094e-07
1.12091e-07
1.06265e-07
1.00616e-07
9.51458e-08
8.98551e-08
8.47445e-08
7.98135e-08
7.50627e-08
7.04905e-08
6.60971e-08
6.188e-08
5.7839e-08
5.39708e-08
5.02749e-08
4.67471e-08
4.33868e-08
4.01888e-08
3.71525e-08
3.42715e-08
3.15453e-08
2.89664e-08
2.65347e-08
2.42414e-08
2.20873e-08
2.00619e-08
1.81675e-08
1.63915e-08
1.4738e-08
1.31921e-08
1.176e-08
1.04241e-08
9.19386e-09
8.04805e-09
7.0005e-09
6.0254e-09
5.1419e-09
4.31854e-09
3.58116e-09
2.89108e-09
2.28263e-09
1.70812e-09
1.21253e-09
7.36993e-10
3.39673e-10
-5.2233e-11
-3.6444e-10
-6.86796e-10
-9.25735e-10
-1.19147e-09
-1.36786e-09
-1.58849e-09
-1.712e-09
-1.89714e-09
-1.97675e-09
-2.13344e-09
-2.17867e-09
-2.31007e-09
-2.33326e-09
-2.43618e-09
-2.45717e-09
-2.51616e-09
-2.57225e-09
-2.5467e-09
-2.71525e-09
-2.50736e-09
-2.96136e-09
-2.32094e-09
-3.47717e-09
-1.6041e-09
-4.55857e-09
3.43618e-09
-2.97199e-09
-2.97199e-09
-0.160438
0.160438
0.0519966
0.0211683
0.0113796
0.00719514