# vtk DataFile Version 2.0
FlowField
ASCII
DATASET STRUCTURED_GRID
DIMENSIONS 400 1 200
POINTS 80000 float
0 0 0
0.08 0 0
0.16 0 0
0.24 0 0
0.32 0 0
0.4 0 0
0.48 0 0
0.56 0 0
0.64 0 0
0.72 0 0
0.8 0 0
0.88 0 0
0.96 0 0
1.04 0 0
1.12 0 0
1.2 0 0
1.28 0 0
1.36 0 0
1.44 0 0
1.52 0 0
1.6 0 0
1.68 0 0
1.76 0 0
1.84 0 0
1.92 0 0
2 0 0
2.08 0 0
2.16 0 0
2.24 0 0
2.32 0 0
2.4 0 0
2.48 0 0
2.56 0 0
2.64 0 0
2.72 0 0
2.8 0 0
2.88 0 0
2.96 0 0
3.04 0 0
3.12 0 0
3.2 0 0
3.28 0 0
3.36 0 0
3.44 0 0
3.52 0 0
3.6 0 0
3.68 0 0
3.76 0 0
3.84 0 0
3.92 0 0
4 0 0
4.08 0 0
4.16 0 0
4.24 0 0
4.32 0 0
4.4 0 0
4.48 0 0
4.56 0 0
4.64 0 0
4.72 0 0
4.8 0 0
4.88 0 0
4.96 0 0
5.04 0 0
5.12 0 0
5.2 0 0
5.28 0 0
5.36 0 0
5.44 0 0
5.52 0 0
5.6 0 0
5.68 0 0
5.76 0 0
5.84 0 0
5.92 0 0
6 0 0
6.08 0 0
6.16 0 0
6.24 0 0
6.32 0 0
6.4 0 0
6.48 0 0
6.56 0 0
6.64 0 0
6.72 0 0
6.8 0 0
6.88 0 0
6.96 0 0
7.04 0 0
7.12 0 0
7.2 0 0
7.28 0 0
7.36 0 0
7.44 0 0
7.52 0 0
7.6 0 0
7.68 0 0
7.76 0 0
7.84 0 0
7.92 0 0
8 0 0
8.08 0 0
8.16 0 0
8.24 0 0
8.32 0 0
8.4 0 0
8.48 0 0
8.56 0 0
8.64 0 0
8.72 0 0
8.8 0 0
8.88 0 0
8.96 0 0
9.04 0 0
9.12 0 0
9.2 0 0
9.28 0 0
9.36 0 0
9.44 0 0
9.52 0 0
9.6 0 0
9.68 0 0
9.76 0 0
9.84 0 0
9.92 0 0
10 0 0
10.08 0 0
10.16 0 0
10.24 0 0
10.32 0 0
10.4 0 0
10.48 0 0
10.56 0 0
10.64 0 0
10.72 0 0
10.8 0 0
10.88 0 0
10.96 0 0
11.04 0 0
11.12 0 0
11.2 0 0
11.28 0 0
11.36 0 0
11.44 0 0
11.52 0 0
11.6 0 0
11.68 0 0
11.76 0 0
11.84 0 0
11.92 0 0
12 0 0
12.08 0 0
12.16 0 0
12.24 0 0
12.32 0 0
12.4 0 0
12.48 0 0
12.56 0 0
12.64 0 0
12.72 0 0
12.8 0 0
12.88 0 0
12.96 0 0
13.04 0 0
13.12 0 0
13.2 0 0
13.28 0 0
13.36 0 0
13.44 0 0
13.52 0 0
13.6 0 0
13.68 0 0
13.76 0 0
13.84 0 0
13.92 0 0
14 0 0
14.08 0 0
14.16 0 0
14.24 0 0
14.32 0 0
14.4 0 0
14.48 0 0
14.56 0 0
14.64 0 0
14.72 0 0
14.8 0 0
14.88 0 0
14.96 0 0
15.04 0 0
15.12 0 0
15.2 0 0
15.28 0 0
15.36 0 0
15.44 0 0
15.52 0 0
15.6 0 0
15.68 0 0
15.76 0 0
15.84 0 0
15.92 0 0
16 0 0
16.08 0 0
16.16 0 0
16.24 0 0
16.32 0 0
16.4 0 0
16.48 0 0
16.56 0 0
16.64 0 0
16.72 0 0
16.8 0 0
16.88 0 0
16.96 0 0
17.04 0 0
17.12 0 0
17.2 0 0
17.28 0 0
17.36 0 0
17.44 0 0
17.52 0 0
17.6 0 0
17.68 0 0
17.76 0 0
17.84 0 0
17.92 0 0
18 0 0
18.08 0 0
18.16 0 0
18.24 0 0
18.32 0 0
18.4 0 0
18.48 0 0
18.56 0 0
18.64 0 0
18.72 0 0
18.8 0 0
18.88 0 0
18.96 0 0
19.04 0 0
19.12 0 0
19.2 0 0
19.28 0 0
19.36 0 0
19.44 0 0
19.52 0 0
19.6 0 0
19.68 0 0
19.76 0 0
19.84 0 0
19.92 0 0
20 0 0
20.08 0 0
20.16 0 0
20.24 0 0
20.32 0 0
20.4 0 0
20.48 0 0
20.56 0 0
20.64 0 0
20.72 0 0
20.8 0 0
20.88 0 0
20.96 0 0
21.04 0 0
21.12 0 0
21.2 0 0
21.28 0 0
21.36 0 0
21.44 0 0
21.52 0 0
21.6 0 0
21.68 0 0
21.76 0 0
21.84 0 0
21.92 0 0
22 0 0
22.08 0 0
22.16 0 0
22.24 0 0
22.32 0 0
22.4 0 0
22.48 0 0
22.56 0 0
22.64 0 0
22.72 0 0
22.8 0 0
22.88 0 0
22.96 0 0
23.04 0 0
23.12 0 0
23.2 0 0
23.28 0 0
23.36 0 0
23.44 0 0
23.52 0 0
23.6 0 0
23.68 0 0
23.76 0 0
23.84 0 0
23.92 0 0
24 0 0
24.08 0 0
24.16 0 0
24.24 0 0
24.32 0 0
24.4 0 0
24.48 0 0
24.56 0 0
24.64 0 0
24.72 0 0
24.8 0 0
24.88 0 0
24.96 0 0
25.04 0 0
25.12 0 0
25.2 0 0
25.28 0 0
25.36 0 0
25.44 0 0
25.52 0 0
25.6 0 0
25.68 0 0
25.76 0 0
25.84 0 0
25.92 0 0
26 0 0
26.08 0 0
26.16 0 0
26.24 0 0
26.32 0 0
26.4 0 0
26.48 0 0
26.56 0 0
26.64 0 0
26.72 0 0
26.8 0 0
26.88 0 0
26.96 0 0
27.04 0 0
27.12 0 0
27.2 0 0
27.28 0 0
27.36 0 0
27.44 0 0
27.52 0 0
27.6 0 0
27.68 0 0
27.76 0 0
27.84 0 0
27.92 0 0
28 0 0
28.08 0 0
28.16 0 0
28.24 0 0
28.32 0 0
28.4 0 0
28.48 0 0
28.56 0 0
28.64 0 0
28.72 0 0
28.8 0 0
28.88 0 0
28.96 0 0
29.04 0 0
29.12 0 0
29.2 0 0
29.28 0 0
29.36 0 0
29.44 0 0
29.52 0 0
29.6 0 0
29.68 0 0
29.76 0 0
29.84 0 0
29.92 0 0
30 0 0
30.08 0 0
30.16 0 0
30.24 0 0
30.32 0 0
30.4 0 0
30.48 0 0
30.56 0 0
30.64 0 0
30.72 0 0
30.8 0 0
30.88 0 0
30.96 0 0
31.04 0 0
31.12 0 0
31.2 0 0
31.28 0 0
31.36 0 0
31.44 0 0
31.52 0 0
31.6 0 0
31.68 0 0
31.76 0 0
31.84 0 0
31.92 0 0
0 0.005 0
0.08 0.005 0
0.16 0.005 0
0.24 0.005 0
0.32 0.005 0
0.4 0.005 0
0.48 0.005 0
0.56 0.005 0
0.64 0.005 0
0.72 0.005 0
0.8 0.005 0
0.88 0.005 0
0.96 0.005 0
1.04 0.005 0
1.12 0.005 0
1.2 0.005 0
1.28 0.005 0
1.36 0.005 0
1.44 0.005 0
1.52 0.005 0
1.6 0.005 0
1.68 0.005 0
1.76 0.005 0
1.84 0.005 0
1.92 0.005 0
2 0.005 0
2.08 0.005 0
2.16 0.005 0
2.24 0.005 0
2.32 0.005 0
2.4 0.005 0
2.48 0.005 0
2.56 0.005 0
2.64 0.005 0
2.72 0.005 0
2.8 0.005 0
2.88 0.005 0
2.96 0.005 0
3.04 0.005 0
3.12 0.005 0
3.2 0.005 0
3.28 0.005 0
3.36 0.005 0
3.44 0.005 0
3.52 0.005 0
3.6 0.005 0
3.68 0.005 0
3.76 0.005 0
3.84 0.005 0
3.92 0.005 0
4 0.005 0
4.08 0.005 0
4.16 0.005 0
4.24 0.005 0
4.32 0.005 0
4.4 0.005 0
4.48 0.005 0
4.56 0.005 0
4.64 0.005 0
4.72 0.005 0
4.8 0.005 0
4.88 0.005 0
4.96 0.005 0
5.04 0.005 0
5.12 0.005 0
5.2 0.005 0
5.28 0.005 0
5.36 0.005 0
5.44 0.005 0
5.52 0.005 0
5.6 0.005 0
5.68 0.005 0
5.76 0.005 0
5.84 0.005 0
5.92 0.005 0
6 0.005 0
6.08 0.005 0
6.16 0.005 0
6.24 0.005 0
6.32 0.005 0
6.4 0.005 0
6.48 0.005 0
6.56 0.005 0
6.64 0.005 0
6.72 0.005 0
6.8 0.005 0
6.88 0.005 0
6.96 0.005 0
7.04 0.005 0
7.12 0.005 0
7.2 0.005 0
7.28 0.005 0
7.36 0.005 0
7.44 0.005 0
7.52 0.005 0
7.6 0.005 0
7.68 0.005 0
7.76 0.005 0
7.84 0.005 0
7.92 0.005 0
8 0.005 0
8.08 0.005 0
8.16 0.005 0
8.24 0.005 0
8.32 0.005 0
8.4 0.005 0
8.48 0.005 0
8.56 0.005 0
8.64 0.005 0
8.72 0.005 0
8.8 0.005 0
8.88 0.005 0
8.96 0.005 0
9.04 0.005 0
9.12 0.005 0
9.2 0.005 0
9.28 0.005 0
9.36 0.005 0
9.44 0.005 0
9.52 0.005 0
9.6 0.005 0
9.68 0.005 0
9.76 0.005 0
9.84 0.005 0
9.92 0.005 0
10 0.005 0
10.08 0.005 0
10.16 0.005 0
10.24 0.005 0
10.32 0.005 0
10.4 0.005 0
10.48 0.005 0
10.56 0.005 0
10.64 0.005 0
10.72 0.005 0
10.8 0.005 0
10.88 0.005 0
10.96 0.005 0
11.04 0.005 0
11.12 0.005 0
11.2 0.005 0
11.28 0.005 0
11.36 0.005 0
11.44 0.005 0
11.52 0.005 0
11.6 0.005 0
11.68 0.005 0
11.76 0.005 0
11.84 0.005 0
11.92 0.005 0
12 0.005 0
12.08 0.005 0
12.16 0.005 0
12.24 0.005 0
12.32 0.005 0
12.4 0.005 0
12.48 0.005 0
12.56 0.005 0
12.64 0.005 0
12.72 0.005 0
12.8 0.005 0
12.88 0.005 0
12.96 0.005 0
13.04 0.005 0
13.12 0.005 0
13.2 0.005 0
13.28 0.005 0
13.36 0.005 0
13.44 0.005 0
13.52 0.005 0
13.6 0.005 0
13.68 0.005 0
13.76 0.005 0
13.84 0.005 0
13.92 0.005 0
14 0.005 0
14.08 0.005 0
14.16 0.005 0
14.24 0.005 0
14.32 0.005 0
14.4 0.005 0
14.48 0.005 0
14.56 0.005 0
14.64 0.005 0
14.72 0.005 0
14.8 0.005 0
14.88 0.005 0
14.96 0.005 0
15.04 0.005 0
15.12 0.005 0
15.2 0.005 0
15.28 0.005 0
15.36 0.005 0
15.44 0.005 0
15.52 0.005 0
15.6 0.005 0
15.68 0.005 0
15.76 0.005 0
15.84 0.005 0
15.92 0.005 0
16 0.005 0
16.08 0.005 0
16.16 0.005 0
16.24 0.005 0
16.32 0.005 0
16.4 0.005 0
16.48 0.005 0
16.56 0.005 0
16.64 0.005 0
16.72 0.005 0
16.8 0.005 0
16.88 0.005 0
16.96 0.005 0
17.04 0.005 0
17.12 0.005 0
17.2 0.005 0
17.28 0.005 0
17.36 0.005 0
17.44 0.005 0
17.52 0.005 0
17.6 0.005 0
17.68 0.005 0
17.76 0.005 0
17.84 0.005 0
17.92 0.005 0
18 0.005 0
18.08 0.005 0
18.16 0.005 0
18.24 0.005 0
18.32 0.005 0
18.4 0.005 0
18.48 0.005 0
18.56 0.005 0
18.64 0.005 0
18.72 0.005 0
18.8 0.005 0
18.88 0.005 0
18.96 0.005 0
19.04 0.005 0
19.12 0.005 0
19.2 0.005 0
19.28 0.005 0
19.36 0.005 0
19.44 0.005 0
19.52 0.005 0
19.6 0.005 0
19.68 0.005 0
19.76 0.005 0
19.84 0.005 0
19.92 0.005 0
20 0.005 0
20.08 0.005 0
20.16 0.005 0
20.24 0.005 0
20.32 0.005 0
20.4 0.005 0
20.48 0.005 0
20.56 0.005 0
20.64 0.005 0
20.72 0.005 0
20.8 0.005 0
20.88 0.005 0
20.96 0.005 0
21.04 0.005 0
21.12 0.005 0
21.2 0.005 0
21.28 0.005 0
21.36 0.005 0
21.44 0.005 0
21.52 0.005 0
21.6 0.005 0
21.68 0.005 0
21.76 0.005 0
21.84 0.005 0
21.92 0.005 0
22 0.005 0
22.08 0.005 0
22.16 0.005 0
22.24 0.005 0
22.32 0.005 0
22.4 0.005 0
22.48 0.005 0
22.56 0.005 0
22.64 0.005 0
22.72 0.005 0
22.8 0.005 0
22.88 0.005 0
22.96 0.005 0
23.04 0.005 0
23.12 0.005 0
23.2 0.005 0
23.28 0.005 0
23.36 0.005 0
23.44 0.005 0
23.52 0.005 0
23.6 0.005 0
23.68 0.005 0
23.76 0.005 0
23.84 0.005 0
23.92 0.005 0
24 0.005 0
24.08 0.005 0
24.16 0.005 0
24.24 0.005 0
24.32 0.005 0
24.4 0.005 0
24.48 0.005 0
24.56 0.005 0
24.64 0.005 0
24.72 0.005 0
24.8 0.005 0
24.88 0.005 0
24.96 0.005 0
25.04 0.005 0
25.12 0.005 0
25.2 0.005 0
25.28 0.005 0
25.36 0.005 0
25.44 0.005 0
25.52 0.005 0
25.6 0.005 0
25.68 0.005 0
25.76 0.005 0
25.84 0.005 0
25.92 0.005 0
26 0.005 0
26.08 0.005 0
26.16 0.005 0
26.24 0.005 0
26.32 0.005 0
26.4 0.005 0
26.48 0.005 0
26.56 0.005 0
26.64 0.005 0
26.72 0.005 0
26.8 0.005 0
26.88 0.005 0
26.96 0.005 0
27.04 0.005 0
27.12 0.005 0
27.2 0.005 0
27.28 0.005 0
27.36 0.005 0
27.44 0.005 0
27.52 0.005 0
27.6 0.005 0
27.68 0.005 0
27.76 0.005 0
27.84 0.005 0
27.92 0.005 0
28 0.005 0
28.08 0.005 0
28.16 0.005 0
28.24 0.005 0
28.32 0.005 0
28.4 0.005 0
28.48 0.005 0
28.56 0.005 0
28.64 0.005 0
28.72 0.005 0
28.8 0.005 0
28.88 0.005 0
28.96 0.005 0
29.04 0.005 0
29.12 0.005 0
29.2 0.005 0
29.28 0.005 0
29.36 0.005 0
29.44 0.005 0
29.52 0.005 0
29.6 0.005 0
29.68 0.005 0
29.76 0.005 0
29.84 0.005 0
29.92 0.005 0
30 0.005 0
30.08 0.005 0
30.16 0.005 0
30.24 0.005 0
30.32 0.005 0
30.4 0.005 0
30.48 0.005 0
30.56 0.005 0
30.64 0.005 0
30.72 0.005 0
30.8 0.005 0
30.88 0.005 0
30.96 0.005 0
31.04 0.005 0
31.12 0.005 0
31.2 0.005 0
31.28 0.005 0
31.36 0.005 0
31.44 0.005 0
31.52 0.005 0
31.6 0.005 0
31.68 0.005 0
31.76 0.005 0
31.84 0.005 0
31.92 0.005 0
0 0.01 0
0.08 0.01 0
0.16 0.01 0
0.24 0.01 0
0.32 0.01 0
0.4 0.01 0
0.48 0.01 0
0.56 0.01 0
0.64 0.01 0
0.72 0.01 0
0.8 0.01 0
0.88 0.01 0
0.96 0.01 0
1.04 0.01 0
1.12 0.01 0
1.2 0.01 0
1.28 0.01 0
1.36 0.01 0
1.44 0.01 0
1.52 0.01 0
1.6 0.01 0
1.68 0.01 0
1.76 0.01 0
1.84 0.01 0
1.92 0.01 0
2 0.01 0
2.08 0.01 0
2.16 0.01 0
2.24 0.01 0
2.32 0.01 0
2.4 0.01 0
2.48 0.01 0
2.56 0.01 0
2.64 0.01 0
2.72 0.01 0
2.8 0.01 0
2.88 0.01 0
2.96 0.01 0
3.04 0.01 0
3.12 0.01 0
3.2 0.01 0
3.28 0.01 0
3.36 0.01 0
3.44 0.01 0
3.52 0.01 0
3.6 0.01 0
3.68 0.01 0
3.76 0.01 0
3.84 0.01 0
3.92 0.01 0
4 0.01 0
4.08 0.01 0
4.16 0.01 0
4.24 0.01 0
4.32 0.01 0
4.4 0.01 0
4.48 0.01 0
4.56 0.01 0
4.64 0.01 0
4.72 0.01 0
4.8 0.01 0
4.88 0.01 0
4.96 0.01 0
5.04 0.01 0
5.12 0.01 0
[...]
POINT_DATA 80000

SCALARS p float 1
LOOKUP_TABLE default
1
56.6147
56.3129
56.2718
56.2517
56.2373
56.2253
56.2145
56.2045
56.195
56.1859
56.177
56.1684
56.16
56.1518
56.1438
56.1359
56.1282
56.1207
56.1134
56.1061
56.099
56.0921
56.0852
56.0785
56.0719
56.0654
56.059
56.0526
56.0464
56.0403
56.0342
56.0282
56.0223
56.0165
56.0107
56.005
55.9994
55.9938
55.9883
55.9828
55.9774
55.972
55.9667
55.9615
55.9562
55.9511
55.946
55.9409
55.9358
55.9309
55.9259
55.921
55.9161
55.9113
55.9065
55.9017
55.8969
55.8922
55.8876
55.8829
55.8783
55.8738
55.8692
55.8647
55.8603
55.8558
55.8515
55.8471
55.8428
55.8385
55.8342
55.83
55.8258
55.8217
55.8176
55.8135
55.8094
55.8054
55.8013
55.7974
55.7934
55.7895
55.7855
55.7816
55.7778
55.7739
55.7701
55.7663
55.7625
55.7587
55.7549
55.7511
55.7474
55.7437
55.7399
55.7362
55.7325
55.7289
55.7252
55.7215
55.7179
55.7142
55.7106
55.707
55.7033
55.6997
55.6961
55.6925
55.6889
55.6853
55.6817
55.6781
55.6746
55.671
55.6674
55.6638
55.6602
55.6566
55.653
55.6494
55.6459
55.6423
55.6387
55.6351
55.6315
55.6279
55.6243
55.6207
55.6172
55.6136
55.61
55.6064
55.6028
55.5992
55.5956
55.592
55.5884
55.5849
55.5813
55.5777
55.5741
55.5705
55.5669
55.5633
55.5597
55.5561
55.5526
55.549
55.5454
55.5418
55.5382
55.5346
55.531
55.5274
55.5238
55.5202
55.5167
55.5131
55.5095
55.5059
55.5023
55.4987
55.4951
55.4915
55.4879
55.4843
55.4808
55.4772
55.4736
55.47
55.4664
55.4628
55.4592
55.4556
55.452
55.4484
55.4448
55.4412
55.4377
55.4341
55.4305
55.4269
55.4233
55.4197
55.4161
55.4125
55.4089
55.4053
55.4017
55.3981
55.3945
55.391
55.3874
55.3838
55.3802
55.3766
55.373
55.3694
55.3658
55.3622
55.3586
55.355
55.3514
55.3478
55.3442
55.3407
55.3371
55.3335
55.3299
55.3263
55.3227
55.3191
55.3155
55.3119
55.3083
55.3047
55.3011
55.2975
55.2939
55.2903
55.2867
55.2831
55.2795
55.2759
55.2724
55.2688
55.2652
55.2616
55.258
55.2544
55.2508
55.2472
55.2436
55.24
55.2364
55.2328
55.2292
55.2256
55.222
55.2184
55.2148
55.2112
55.2076
55.204
55.2004
55.1968
55.1932
55.1896
55.186
55.1824
55.1788
55.1753
55.1717
55.1681
55.1645
55.1609
55.1573
55.1537
55.1501
55.1465
55.1429
55.1393
55.1357
55.1321
55.1285
55.1249
55.1213
55.1177
55.1141
55.1105
55.1069
55.1033
55.0997
55.0961
55.0925
55.0889
55.0853
55.0817
55.0781
55.0745
55.0709
55.0673
55.0637
55.0601
55.0565
55.0529
55.0493
55.0457
55.0421
55.0385
55.0349
55.0313
55.0277
55.0241
55.0205
55.0169
55.0133
55.0097
55.0061
55.0025
54.9989
54.9953
54.9917
54.9881
54.9845
54.9809
54.9773
54.9737
54.9701
54.9665
54.9629
54.9593
54.9557
54.952
54.9484
54.9448
54.9412
54.9376
54.934
54.9304
54.9268
54.9232
54.9196
54.916
54.9124
54.9088
54.9052
54.9016
54.898
54.8944
54.8908
54.8872
54.8836
54.88
54.8764
54.8728
54.8692
54.8656
54.862
54.8584
54.8547
54.8511
54.8475
54.8439
54.8403
54.8367
54.8331
54.8295
54.8259
54.8223
54.8187
54.8151
54.8115
54.8079
54.8043
54.8007
54.7971
54.7934
54.7898
54.7862
54.7826
54.779
54.7754
54.7718
54.7682
54.7646
54.761
54.7574
54.7538
54.7502
54.7466
54.7429
54.7393
54.7357
54.7321
54.7285
54.7249
54.7213
54.7177
54.7141
54.7105
54.7069
54.7033
54.6996
54.696
54.6924
54.6888
54.6852
54.6816
54.678
54.6744
54.6708
54.6672
54.6635
54.6599
54.6563
54.6527
54.6491
0.5
56.6147
56.6147
56.3129
56.2718
56.2517
56.2373
56.2253
56.2145
56.2045
56.195
56.1859
56.177
56.1684
56.16
56.1518
56.1438
56.1359
56.1282
56.1207
56.1134
56.1061
56.099
56.0921
56.0852
56.0785
56.0719
56.0654
56.059
56.0526
56.0464
56.0403
56.0342
56.0282
56.0223
56.0165
56.0107
56.005
55.9994
55.9938
55.9883
55.9828
55.9774
55.972
55.9667
55.9615
55.9562
55.9511
55.946
55.9409
55.9358
55.9309
55.9259
55.921
55.9161
55.9113
55.9065
55.9017
55.8969
55.8922
55.8876
55.8829
55.8783
55.8738
55.8692
55.8647
55.8603
55.8558
55.8515
55.8471
55.8428
55.8385
55.8342
55.83
55.8258
55.8217
55.8176
55.8135
55.8094
55.8054
55.8013
55.7974
55.7934
55.7895
55.7855
55.7816
55.7778
55.7739
55.7701
55.7663
55.7625
55.7587
55.7549
55.7511
55.7474
55.7437
55.7399
55.7362
55.7325
55.7289
55.7252
55.7215
55.7179
55.7142
55.7106
55.707
55.7033
55.6997
55.6961
55.6925
55.6889
55.6853
55.6817
55.6781
55.6746
55.671
55.6674
55.6638
55.6602
55.6566
55.653
55.6494
55.6459
55.6423
55.6387
55.6351
55.6315
55.6279
55.6243
55.6207
55.6172
55.6136
55.61
55.6064
55.6028
55.5992
55.5956
55.592
55.5884
55.5849
55.5813
55.5777
55.5741
55.5705
55.5669
55.5633
55.5597
55.5561
55.5526
55.549
55.5454
55.5418
55.5382
55.5346
55.531
55.5274
55.5238
55.5202
55.5167
55.5131
55.5095
55.5059
55.5023
55.4987
55.4951
55.4915
55.4879
55.4843
55.4808
55.4772
55.4736
55.47
55.4664
55.4628
55.4592
55.4556
55.452
55.4484
55.4448
55.4412
55.4377
55.4341
55.4305
55.4269
55.4233
55.4197
55.4161
55.4125
55.4089
55.4053
55.4017
55.3981
55.3945
55.391
55.3874
55.3838
55.3802
55.3766
55.373
55.3694
55.3658
55.3622
55.3586
55.355
55.3514
55.3478
55.3442
55.3407
55.3371
55.3335
55.3299
55.3263
55.3227
55.3191
55.3155
55.3119
55.3083
55.3047
55.3011
55.2975
55.2939
55.2903
55.2867
55.2831
55.2795
55.2759
55.2724
55.2688
55.2652
55.2616
55.258
55.2544
55.2508
55.2472
55.2436
55.24
55.2364
55.2328
55.2292
55.2256
55.222
55.2184
55.2148
55.2112
55.2076
55.204
55.2004
55.1968
55.1932
55.1896
55.186
55.1824
55.1788
55.1753
55.1717
55.1681
55.1645
55.1609
55.1573
55.1537
55.1501
55.1465
55.1429
55.1393
55.1357
55.1321
55.1285
55.1249
55.1213
55.1177
55.1141
55.1105
55.1069
55.1033
55.0997
55.0961
55.0925
55.0889
55.0853
55.0817
55.0781
55.0745
55.0709
55.0673
55.0637
55.0601
55.0565
55.0529
55.0493
55.0457
55.0421
55.0385
55.0349
55.0313
55.0277
55.0241
55.0205
55.0169
55.0133
55.0097
55.0061
55.0025
54.9989
54.9953
54.9917
54.9881
54.9845
54.9809
54.9773
54.9737
54.9701
54.9665
54.9629
54.9593
54.9557
54.952
54.9484
54.9448
54.9412
54.9376
54.934
54.9304
54.9268
54.9232
54.9196
54.916
54.9124
54.9088
54.9052
54.9016
54.898
54.8944
54.8908
54.8872
54.8836
54.88
54.8764
54.8728
54.8692
54.8656
54.862
54.8584
54.8547
54.8511
54.8475
54.8439
54.8403
54.8367
54.8331
54.8295
54.8259
54.8223
54.8187
54.8151
54.8115
54.8079
54.8043
54.8007
54.7971
54.7934
54.7898
54.7862
54.7826
54.779
54.7754
54.7718
54.7682
54.7646
54.761
54.7574
54.7538
54.7502
54.7466
54.7429
54.7393
54.7357
54.7321
54.7285
54.7249
54.7213
54.7177
54.7141
54.7105
54.7069
54.7033
54.6996
54.696
54.6924
54.6888
54.6852
54.6816
54.678
54.6744
54.6708
54.6672
54.6635
54.6599
54.6563
54.6527
54.6491
54.6491
56.6001
56.6001
56.3168
56.273
56.2523
56.2377
56.2255
56.2147
56.2047
56.1951
56.186
56.1771
56.1685
56.16
56.1518
56.1438
56.136
56.1283
56.1208
56.1134
56.1062
56.0991
56.0921
56.0852
56.0785
56.0719
56.0654
56.059
56.0526
56.0464
56.0403
56.0342
56.0282
56.0223
56.0165
56.0107
56.005
55.9994
55.9938
55.9883
55.9828
55.9774
55.972
55.9667
55.9615
55.9563
55.9511
55.946
55.9409
55.9359
55.9309
55.9259
55.921
55.9161
55.9113
55.9065
55.9017
55.8969
55.8922
55.8876
55.8829
55.8783
55.8738
55.8692
55.8647
55.8603
55.8559
55.8515
55.8471
55.8428
55.8385
55.8342
55.83
55.8258
55.8217
55.8176
55.8135
55.8094
55.8054
55.8013
55.7974
55.7934
55.7895
55.7855
55.7816
55.7778
55.7739
55.7701
55.7663
55.7625
55.7587
55.7549
55.7511
55.7474
55.7437
55.7399
55.7362
55.7325
55.7289
55.7252
55.7215
55.7179
55.7142
55.7106
55.707
55.7033
55.6997
55.6961
55.6925
55.6889
55.6853
55.6817
55.6781
55.6746
55.671
55.6674
55.6638
55.6602
55.6566
55.653
55.6494
55.6459
55.6423
55.6387
55.6351
55.6315
55.6279
55.6243
55.6207
55.6172
55.6136
55.61
55.6064
55.6028
55.5992
55.5956
55.592
55.5884
55.5849
55.5813
55.5777
55.5741
55.5705
55.5669
55.5633
55.5597
55.5561
55.5526
55.549
55.5454
55.5418
55.5382
55.5346
55.531
55.5274
55.5238
55.5202
55.5167
55.5131
55.5095
55.5059
55.5023
55.4987
55.4951
55.4915
55.4879
55.4843
55.4808
55.4772
55.4736
55.47
55.4664
55.4628
55.4592
55.4556
55.452
55.4484
55.4448
55.4412
55.4377
55.4341
55.4305
55.4269
55.4233
55.4197
55.4161
55.4125
55.4089
55.4053
55.4017
55.3981
55.3945
55.391
55.3874
55.3838
55.3802
55.3766
55.373
55.3694
55.3658
55.3622
55.3586
55.355
55.3514
55.3478
55.3442
55.3407
55.3371
55.3335
55.3299
55.3263
55.3227
55.3191
55.3155
55.3119
55.3083
55.3047
55.3011
55.2975
55.2939
55.2903
55.2867
55.2831
55.2795
55.2759
55.2724
55.2688
55.2652
55.2616
55.258
55.2544
55.2508
55.2472
55.2436
55.24
55.2364
55.2328
55.2292
55.2256
55.222
55.2184
55.2148
55.2112
55.2076
55.204
55.2004
55.1968
55.1932
55.1896
55.186
55.1824
55.1788
55.1753
55.1717
55.1681
55.1645
55.1609
55.1573
55.1537
55.1501
55.1465
55.1429
55.1393
55.1357
55.1321
55.1285
55.1249
55.1213
55.1177
55.1141
55.1105
55.1069
55.1033
55.0997
55.0961
55.0925
55.0889
55.0853
55.0817
55.0781
55.0745
55.0709
55.0673
55.0637
55.0601
55.0565
55.0529
55.0493
55.0457
55.0421
55.0385
55.0349
55.0313
55.0277
55.0241
55.0205
55.0169
55.0133
55.0097
55.0061
55.0025
54.9989
54.9953
54.9917
54.9881
54.9845
54.9809
54.9773
54.9737
54.9701
54.9665
54.9629
54.9593
54.9557
54.952
54.9484
54.9448
54.9412
54.9376
54.934
54.9304
54.9268
54.9232
54.9196
54.916
54.9124
54.9088
54.9052
54.9016
54.898
54.8944
54.8908
54.8872
54.8836
54.88
54.8764
54.8728
54.8692
54.8656
54.862
54.8584
54.8547
54.8511
54.8475
54.8439
54.8403
54.8367
54.8331
54.8295
54.8259
54.8223
54.8187
54.8151
54.8115
54.8079
54.8043
54.8007
54.7971
54.7934
54.7898
54.7862
54.7826
54.779
54.7754
54.7718
54.7682
54.7646
54.761
54.7574
54.7538
54.7502
54.7466
54.7429
54.7393
54.7357
54.7321
54.7285
54.7249
54.7213
54.7177
54.7141
54.7105
54.7069
54.7033
54.6996
54.696
54.6924
54.6888
54.6852
54.6816
54.678
54.6744
54.6708
54.6672
54.6635
54.6599
54.6563
54.6527
54.6491
54.6491
56.5841
56.5841
56.32
56.2742
56.2529
56.238
56.2258
56.2149
56.2048
56.1953
56.1861
56.1772
56.1685
56.1601
56.1519
56.1439
56.136
56.1283
56.1208
56.1134
56.1062
56.0991
56.0921
56.0853
56.0785
56.0719
56.0654
56.059
56.0527
56.0464
56.0403
56.0342
56.0282
56.0223
56.0165
56.0107
56.005
55.9994
55.9938
55.9883
55.9828
55.9774
55.972
55.9667
55.9615
55.9563
55.9511
55.946
55.9409
55.9359
55.9309
55.9259
55.921
55.9161
55.9113
55.9065
55.9017
55.897
55.8923
55.8876
55.8829
55.8783
55.8738
55.8692
55.8647
55.8603
55.8559
55.8515
55.8471
55.8428
55.8385
55.8342
55.83
55.8258
55.8217
55.8176
55.8135
55.8094
55.8054
55.8013
55.7974
55.7934
55.7895
55.7855
55.7816
55.7778
55.7739
55.7701
55.7663
55.7625
55.7587
55.7549
55.7511
55.7474
55.7437
55.7399
55.7362
55.7325
55.7289
55.7252
55.7215
55.7179
55.7142
55.7106
55.707
55.7033
55.6997
55.6961
55.6925
55.6889
55.6853
55.6817
55.6781
55.6746
55.671
55.6674
55.6638
55.6602
55.6566
55.653
55.6494
55.6459
55.6423
55.6387
55.6351
55.6315
55.6279
55.6243
55.6207
55.6172
55.6136
55.61
55.6064
55.6028
55.5992
55.5956
55.592
55.5884
55.5849
55.5813
55.5777
55.5741
55.5705
55.5669
55.5633
55.5597
55.5561
55.5526
55.549
55.5454
55.5418
55.5382
55.5346
55.531
55.5274
55.5238
55.5202
55.5167
55.5131
55.5095
55.5059
55.5023
55.4987
55.4951
55.4915
55.4879
55.4843
55.4808
55.4772
55.4736
55.47
55.4664
55.4628
55.4592
55.4556
55.452
55.4484
55.4448
55.4412
55.4377
55.4341
55.4305
55.4269
55.4233
55.4197
55.4161
55.4125
55.4089
55.4053
55.4017
55.3981
55.3945
55.391
55.3874
55.3838
55.3802
55.3766
55.373
55.3694
55.3658
55.3622
55.3586
55.355
55.3514
55.3478
55.3442
55.3407
55.3371
55.3335
55.3299
55.3263
55.3227
55.3191
55.3155
55.3119
55.3083
55.3047
55.3011
55.2975
55.2939
55.2903
55.2867
55.2831
55.2795
55.2759
55.2724
55.2688
55.2652
55.2616
55.258
55.2544
55.2508
55.2472
55.2436
55.24
55.2364
55.2328
55.2292
55.2256
55.222
55.2184
55.2148
55.2112
55.2076
55.204
55.2004
55.1968
55.1932
55.1896
55.186
55.1824
55.1788
55.1753
55.1717
55.1681
55.1645
55.1609
55.1573
55.1537
55.1501
55.1465
55.1429
55.1393
55.1357
55.1321
55.1285
55.1249
55.1213
55.1177
55.1141
55.1105
55.1069
55.1033
55.0997
55.0961
55.0925
55.0889
55.0853
55.0817
55.0781
55.0745
55.0709
55.0673
55.0637
55.0601
55.0565
55.0529
55.0493
55.0457
55.0421
55.0385
55.0349
55.0313
55.0277
55.0241
55.0205
55.0169
55.0133
55.0097
55.0061
55.0025
54.9989
54.9953
54.9917
54.9881
54.9845
54.9809
54.9773
54.9737
54.9701
54.9665
54.9629
54.9593
54.9557
54.952
54.9484
54.9448
54.9412
54.9376
54.934
54.9304
54.9268
54.9232
54.9196
54.916
54.9124
54.9088
54.9052
54.9016
54.898
54.8944
54.8908
54.8872
54.8836
54.88
54.8764
54.8728
54.8692
54.8656
54.862
54.8584
54.8547
54.8511
54.8475
54.8439
54.8403
54.8367
54.8331
54.8295
54.8259
54.8223
54.8187
54.8151
54.8115
54.8079
54.8043
54.8007
54.7971
54.7934
54.7898
54.7862
54.7826
54.779
54.7754
54.7718
54.7682
54.7646
54.761
54.7574
54.7538
54.7502
54.7466
54.7429
54.7393
54.7357
54.7321
54.7285
54.7249
54.7213
54.7177
54.7141
54.7105
54.7069
54.7033
54.6996
54.696
54.6924
54.6888
54.6852
54.6816
54.678
54.6744
54.6708
54.6672
54.6635
54.6599
54.6563
54.6527
54.6491
54.6491
56.5682
56.5682
56.3228
56.2754
56.2535
56.2384
56.2261
56.2151
56.205
56.1954
56.1862
56.1773
56.1686
56.1602
56.1519
56.1439
56.136
56.1284
56.1208
56.1134
56.1062
56.0991
56.0921
56.0853
56.0786
56.0719
56.0654
56.059
56.0527
56.0464
56.0403
56.0342
56.0283
56.0223
56.0165
56.0107
56.005
55.9994
55.9938
55.9883
55.9828
55.9774
55.972
55.9667
55.9615
55.9563
55.9511
55.946
55.9409
55.9359
55.9309
55.9259
55.921
55.9161
55.9113
55.9065
55.9017
55.897
55.8923
55.8876
55.883
55.8783
55.8738
55.8692
55.8648
55.8603
55.8559
55.8515
55.8471
55.8428
55.8385
55.8342
55.83
55.8258
55.8217
55.8176
55.8135
55.8094
55.8054
55.8013
55.7974
55.7934
55.7895
55.7855
55.7817
55.7778
55.7739
55.7701
55.7663
55.7625
55.7587
55.7549
55.7511
55.7474
55.7437
55.7399
55.7362
55.7325
55.7289
55.7252
55.7215
55.7179
55.7142
55.7106
55.707
55.7033
55.6997
55.6961
55.6925
55.6889
55.6853
55.6817
55.6781
55.6746
55.671
55.6674
55.6638
55.6602
55.6566
55.653
55.6494
55.6459
55.6423
55.6387
55.6351
55.6315
55.6279
55.6243
55.6207
55.6172
55.6136
55.61
55.6064
55.6028
55.5992
55.5956
55.592
55.5884
55.5849
55.5813
55.5777
55.5741
55.5705
55.5669
55.5633
55.5597
55.5561
55.5526
55.549
55.5454
55.5418
55.5382
55.5346
55.531
55.5274
55.5238
55.5202
55.5167
55.5131
55.5095
55.5059
55.5023
55.4987
55.4951
55.4915
55.4879
55.4843
55.4808
55.4772
55.4736
55.47
55.4664
55.4628
55.4592
55.4556
55.452
55.4484
55.4448
55.4412
55.4377
55.4341
55.4305
55.4269
55.4233
55.4197
55.4161
55.4125
55.4089
55.4053
55.4017
55.3981
55.3945
55.391
55.3874
55.3838
55.3802
55.3766
55.373
55.3694
55.3658
55.3622
55.3586
55.355
55.3514
55.3478
55.3442
55.3407
55.3371
55.3335
55.3299
55.3263
55.3227
55.3191
55.3155
55.3119
55.3083
55.3047
55.3011
55.2975
55.2939
55.2903
55.2867
55.2831
55.2795
55.2759
55.2724
55.2688
55.2652
55.2616
55.258
55.2544
55.2508
55.2472
55.2436
55.24
55.2364
55.2328
55.2292
55.2256
55.222
55.2184
55.2148
55.2112
55.2076
55.204
55.2004
55.1968
55.1932
55.1896
55.186
55.1824
55.1788
55.1753
55.1717
55.1681
55.1645
55.1609
55.1573
55.1537
55.1501
55.1465
55.1429
55.1393
55.1357
55.1321
55.1285
55.1249
55.1213
55.1177
55.1141
55.1105
55.1069
55.1033
55.0997
55.0961
55.0925
55.0889
55.0853
55.0817
55.0781
55.0745
55.0709
55.0673
55.0637
55.0601
55.0565
55.0529
55.0493
55.0457
55.0421
55.0385
55.0349
55.0313
55.0277
55.0241
55.0205
55.0169
55.0133
55.0097
55.0061
55.0025
54.9989
54.9953
54.9917
54.9881
54.9845
54.9809
54.9773
54.9737
54.9701
54.9665
54.9629
54.9593
54.9557
54.952
54.9484
54.9448
54.9412
54.9376
54.934
54.9304
54.9268
54.9232
54.9196
54.916
54.9124
54.9088
54.9052
54.9016
54.898
54.8944
54.8908
54.8872
54.8836
54.88
54.8764
54.8728
54.8692
54.8656
54.862
54.8584
54.8547
54.8511
54.8475
54.8439
54.8403
54.8367
54.8331
54.8295
54.8259
54.8223
54.8187
54.8151
54.8115
54.8079
54.8043
54.8007
54.7971
54.7934
54.7898
54.7862
54.7826
54.779
54.7754
54.7718
54.7682
54.7646
54.761
54.7574
54.7538
54.7502
54.7466
54.7429
54.7393
54.7357
54.7321
54.7285
54.7249
54.7213
54.7177
54.7141
54.7105
54.7069
54.7033
54.6996
54.696
54.6924
54.6888
54.6852
54.6816
54.678
54.6744
54.6708
54.6672
54.6635
54.6599
54.6563
54.6527
54.6491
54.6491
56.5531
56.5531
56.3256
56.2765
56.2541
56.2388
56.2263
56.2153
56.2051
56.1955
56.1863
56.1773
56.1687
56.1602
56.152
56.1439
56.1361
56.1284
56.1209
56.1135
56.1062
56.0991
56.0922
56.0853
56.0786
56.072
56.0654
56.059
56.0527
56.0465
56.0403
56.0343
56.0283
56.0224
56.0165
56.0107
56.005
55.9994
55.9938
55.9883
55.9828
55.9774
55.9721
55.9667
55.9615
55.9563
55.9511
55.946
55.9409
55.9359
55.9309
55.9259
55.921
55.9161
55.9113
55.9065
55.9017
55.897
55.8923
55.8876
55.883
55.8784
55.8738
55.8693
55.8648
55.8603
55.8559
55.8515
55.8471
55.8428
55.8385
55.8342
55.83
55.8258
55.8217
55.8176
55.8135
55.8094
55.8054
55.8014
55.7974
55.7934
55.7895
55.7855
55.7817
55.7778
55.7739
55.7701
55.7663
55.7625
55.7587
55.7549
55.7511
55.7474
55.7437
55.74
55.7362
55.7325
55.7289
55.7252
55.7215
55.7179
55.7142
55.7106
55.707
55.7033
55.6997
55.6961
55.6925
55.6889
55.6853
55.6817
55.6781
55.6746
55.671
55.6674
55.6638
55.6602
55.6566
55.653
55.6494
55.6459
55.6423
55.6387
55.6351
55.6315
55.6279
55.6243
55.6207
55.6172
55.6136
55.61
55.6064
55.6028
55.5992
55.5956
55.592
55.5884
55.5849
55.5813
55.5777
55.5741
55.5705
55.5669
55.5633
55.5597
55.5561
55.5526
55.549
55.5454
55.5418
55.5382
55.5346
55.531
55.5274
55.5238
55.5202
55.5167
55.5131
55.5095
55.5059
55.5023
55.4987
55.4951
55.4915
55.4879
55.4843
55.4808
55.4772
55.4736
55.47
55.4664
55.4628
55.4592
55.4556
55.452
55.4484
55.4448
55.4412
55.4377
55.4341
55.4305
55.4269
55.4233
55.4197
55.4161
55.4125
55.4089
55.4053
55.4017
55.3981
55.3945
55.391
55.3874
55.3838
55.3802
55.3766
55.373
55.3694
55.3658
55.3622
55.3586
55.355
55.3514
55.3478
55.3442
55.3407
55.3371
55.3335
55.3299
55.3263
55.3227
55.3191
55.3155
55.3119
55.3083
55.3047
55.3011
55.2975
55.2939
55.2903
55.2867
55.2831
55.2795
55.2759
55.2724
55.2688
55.2652
55.2616
55.258
55.2544
55.2508
55.2472
55.2436
55.24
55.2364
55.2328
55.2292
55.2256
55.222
55.2184
55.2148
55.2112
55.2076
55.204
55.2004
55.1968
55.1932
55.1896
55.186
55.1824
55.1788
55.1753
55.1717
55.1681
55.1645
55.1609
55.1573
55.1537
55.1501
55.1465
55.1429
55.1393
55.1357
55.1321
55.1285
55.1249
55.1213
55.1177
55.1141
55.1105
55.1069
55.1033
55.0997
55.0961
55.0925
55.0889
55.0853
55.0817
55.0781
55.0745
55.0709
55.0673
55.0637
55.0601
55.0565
55.0529
55.0493
55.0457
55.0421
55.0385
55.0349
55.0313
55.0277
55.0241
55.0205
55.0169
55.0133
55.0097
55.0061
55.0025
54.9989
54.9953
54.9917
54.9881
54.9845
54.9809
54.9773
54.9737
54.9701
54.9665
54.9629
54.9593
54.9557
54.952
54.9484
54.9448
54.9412
54.9376
54.934
54.9304
54.9268
54.9232
54.9196
54.916
54.9124
54.9088
54.9052
54.9016
54.898
54.8944
54.8908
54.8872
54.8836
54.88
54.8764
54.8728
54.8692
54.8656
54.862
54.8584
54.8547
54.8511
54.8475
54.8439
54.8403
54.8367
54.8331
54.8295
54.8259
54.8223
54.8187
54.8151
54.8115
54.8079
54.8043
54.8007
54.7971
54.7934
54.7898
54.7862
54.7826
54.779
54.7754
54.7718
54.7682
54.7646
54.761
54.7574
54.7538
54.7502
54.7466
54.7429
54.7393
54.7357
54.7321
54.7285
54.7249
54.7213
54.7177
54.7141
54.7105
54.7069
54.7033
54.6996
54.696
54.6924
54.6888
54.6852
54.6816
54.678
54.6744
54.6708
54.6672
54.6635
54.6599
54.6563
54.6527
54.6491
54.6491
56.5391
56.5391
56.3281
56.2776
56.2547
56.2392
56.2266
56.2155
56.2053
56.1956
56.1864
56.1774
56.1687
56.1603
56.152
56.144
56.1361
56.1284
56.1209
56.1135
56.1063
56.0992
56.0922
56.0853
56.0786
56.072
56.0655
56.059
56.0527
56.0465
56.0403
56.0343
56.0283
56.0224
56.0165
56.0108
56.005
55.9994
55.9938
55.9883
55.9828
55.9774
55.9721
55.9668
55.9615
55.9563
55.9511
55.946
55.9409
55.9359
55.9309
55.9259
55.921
55.9161
55.9113
55.9065
55.9017
55.897
55.8923
55.8876
55.883
55.8784
55.8738
55.8693
55.8648
55.8603
55.8559
55.8515
55.8471
55.8428
55.8385
55.8342
55.83
55.8258
55.8217
55.8176
55.8135
55.8094
55.8054
55.8014
55.7974
55.7934
55.7895
55.7855
55.7817
55.7778
55.7739
55.7701
55.7663
55.7625
55.7587
55.7549
55.7511
55.7474
55.7437
55.74
55.7362
55.7325
55.7289
55.7252
55.7215
55.7179
55.7142
55.7106
55.707
55.7033
55.6997
55.6961
55.6925
55.6889
55.6853
55.6817
55.6781
55.6746
55.671
55.6674
55.6638
55.6602
55.6566
55.653
55.6494
55.6459
55.6423
55.6387
55.6351
55.6315
55.6279
55.6243