# vtk DataFile Version 2.0
FlowField
ASCII
DATASET STRUCTURED_GRID
DIMENSIONS 400 1 200
POINTS 80000 float
0 0 0
0.08 0 0
0.16 0 0
0.24 0 0
0.32 0 0
0.4 0 0
0.48 0 0
0.56 0 0
0.64 0 0
0.72 0 0
0.8 0 0
0.88 0 0
0.96 0 0
1.04 0 0
1.12 0 0
1.2 0 0
1.28 0 0
1.36 0 0
1.44 0 0
1.52 0 0
1.6 0 0
1.68 0 0
1.76 0 0
1.84 0 0
1.92 0 0
2 0 0
2.08 0 0
2.16 0 0
2.24 0 0
2.32 0 0
2.4 0 0
2.48 0 0
2.56 0 0
2.64 0 0
2.72 0 0
2.8 0 0
2.88 0 0
2.96 0 0
3.04 0 0
3.12 0 0
3.2 0 0
3.28 0 0
3.36 0 0
3.44 0 0
3.52 0 0
3.6 0 0
3.68 0 0
3.76 0 0
3.84 0 0
3.92 0 0
4 0 0
4.08 0 0
4.16 0 0
4.24 0 0
4.32 0 0
4.4 0 0
4.48 0 0
4.56 0 0
4.64 0 0
4.72 0 0
4.8 0 0
4.88 0 0
4.96 0 0
5.04 0 0
5.12 0 0
5.2 0 0
5.28 0 0
5.36 0 0
5.44 0 0
5.52 0 0
5.6 0 0
5.68 0 0
5.76 0 0
5.84 0 0
5.92 0 0
6 0 0
6.08 0 0
6.16 0 0
6.24 0 0
6.32 0 0
6.4 0 0
6.48 0 0
6.56 0 0
6.64 0 0
6.72 0 0
6.8 0 0
6.88 0 0
6.96 0 0
7.04 0 0
7.12 0 0
7.2 0 0
7.28 0 0
7.36 0 0
7.44 0 0
7.52 0 0
7.6 0 0
7.68 0 0
7.76 0 0
7.84 0 0
7.92 0 0
8 0 0
8.08 0 0
8.16 0 0
8.24 0 0
8.32 0 0
8.4 0 0
8.48 0 0
8.56 0 0
8.64 0 0
8.72 0 0
8.8 0 0
8.88 0 0
8.96 0 0
9.04 0 0
9.12 0 0
9.2 0 0
9.28 0 0
9.36 0 0
9.44 0 0
9.52 0 0
9.6 0 0
9.68 0 0
9.76 0 0
9.84 0 0
9.92 0 0
10 0 0
10.08 0 0
10.16 0 0
10.24 0 0
10.32 0 0
10.4 0 0
10.48 0 0
10.56 0 0
10.64 0 0
10.72 0 0
10.8 0 0
10.88 0 0
10.96 0 0
11.04 0 0
11.12 0 0
11.2 0 0
11.28 0 0
11.36 0 0
11.44 0 0
11.52 0 0
11.6 0 0
11.68 0 0
11.76 0 0
11.84 0 0
11.92 0 0
12 0 0
12.08 0 0
12.16 0 0
12.24 0 0
12.32 0 0
12.4 0 0
12.48 0 0
12.56 0 0
12.64 0 0
12.72 0 0
12.8 0 0
12.88 0 0
12.96 0 0
13.04 0 0
13.12 0 0
13.2 0 0
13.28 0 0
13.36 0 0
13.44 0 0
13.52 0 0
13.6 0 0
13.68 0 0
13.76 0 0
13.84 0 0
13.92 0 0
14 0 0
14.08 0 0
14.16 0 0
14.24 0 0
14.32 0 0
14.4 0 0
14.48 0 0
14.56 0 0
14.64 0 0
14.72 0 0
14.8 0 0
14.88 0 0
14.96 0 0
15.04 0 0
15.12 0 0
15.2 0 0
15.28 0 0
15.36 0 0
15.44 0 0
15.52 0 0
15.6 0 0
15.68 0 0
15.76 0 0
15.84 0 0
15.92 0 0
16 0 0
16.08 0 0
16.16 0 0
16.24 0 0
16.32 0 0
16.4 0 0
16.48 0 0
16.56 0 0
16.64 0 0
16.72 0 0
16.8 0 0
16.88 0 0
16.96 0 0
17.04 0 0
17.12 0 0
17.2 0 0
17.28 0 0
17.36 0 0
17.44 0 0
17.52 0 0
17.6 0 0
17.68 0 0
17.76 0 0
17.84 0 0
17.92 0 0
18 0 0
18.08 0 0
18.16 0 0
18.24 0 0
18.32 0 0
18.4 0 0
18.48 0 0
18.56 0 0
18.64 0 0
18.72 0 0
18.8 0 0
18.88 0 0
18.96 0 0
19.04 0 0
19.12 0 0
19.2 0 0
19.28 0 0
19.36 0 0
19.44 0 0
19.52 0 0
19.6 0 0
19.68 0 0
19.76 0 0
19.84 0 0
19.92 0 0
20 0 0
20.08 0 0
20.16 0 0
20.24 0 0
20.32 0 0
20.4 0 0
20.48 0 0
20.56 0 0
20.64 0 0
20.72 0 0
20.8 0 0
20.88 0 0
20.96 0 0
21.04 0 0
21.12 0 0
21.2 0 0
21.28 0 0
21.36 0 0
21.44 0 0
21.52 0 0
21.6 0 0
21.68 0 0
21.76 0 0
21.84 0 0
21.92 0 0
22 0 0
22.08 0 0
22.16 0 0
22.24 0 0
22.32 0 0
22.4 0 0
22.48 0 0
22.56 0 0
22.64 0 0
22.72 0 0
22.8 0 0
22.88 0 0
22.96 0 0
23.04 0 0
23.12 0 0
23.2 0 0
23.28 0 0
23.36 0 0
23.44 0 0
23.52 0 0
23.6 0 0
23.68 0 0
23.76 0 0
23.84 0 0
23.92 0 0
24 0 0
24.08 0 0
24.16 0 0
24.24 0 0
24.32 0 0
24.4 0 0
24.48 0 0
24.56 0 0
24.64 0 0
24.72 0 0
24.8 0 0
24.88 0 0
24.96 0 0
25.04 0 0
25.12 0 0
25.2 0 0
25.28 0 0
25.36 0 0
25.44 0 0
25.52 0 0
25.6 0 0
25.68 0 0
25.76 0 0
25.84 0 0
25.92 0 0
26 0 0
26.08 0 0
26.16 0 0
26.24 0 0
26.32 0 0
26.4 0 0
26.48 0 0
26.56 0 0
26.64 0 0
26.72 0 0
26.8 0 0
26.88 0 0
26.96 0 0
27.04 0 0
27.12 0 0
27.2 0 0
27.28 0 0
27.36 0 0
27.44 0 0
27.52 0 0
27.6 0 0
27.68 0 0
27.76 0 0
27.84 0 0
27.92 0 0
28 0 0
28.08 0 0
28.16 0 0
28.24 0 0
28.32 0 0
28.4 0 0
28.48 0 0
28.56 0 0
28.64 0 0
28.72 0 0
28.8 0 0
28.88 0 0
28.96 0 0
29.04 0 0
29.12 0 0
29.2 0 0
29.28 0 0
29.36 0 0
29.44 0 0
29.52 0 0
29.6 0 0
29.68 0 0
29.76 0 0
29.84 0 0
29.92 0 0
30 0 0
30.08 0 0
30.16 0 0
30.24 0 0
30.32 0 0
30.4 0 0
30.48 0 0
30.56 0 0
30.64 0 0
30.72 0 0
30.8 0 0
30.88 0 0
30.96 0 0
31.04 0 0
31.12 0 0
31.2 0 0
31.28 0 0
31.36 0 0
31.44 0 0
31.52 0 0
31.6 0 0
31.68 0 0
31.76 0 0
31.84 0 0
31.92 0 0
0 0.005 0
0.08 0.005 0
0.16 0.005 0
0.24 0.005 0
0.32 0.005 0
0.4 0.005 0
0.48 0.005 0
0.56 0.005 0
0.64 0.005 0
0.72 0.005 0
0.8 0.005 0
0.88 0.005 0
0.96 0.005 0
1.04 0.005 0
1.12 0.005 0
1.2 0.005 0
1.28 0.005 0
1.36 0.005 0
1.44 0.005 0
1.52 0.005 0
1.6 0.005 0
1.68 0.005 0
1.76 0.005 0
1.84 0.005 0
1.92 0.005 0
2 0.005 0
2.08 0.005 0
2.16 0.005 0
2.24 0.005 0
2.32 0.005 0
2.4 0.005 0
2.48 0.005 0
2.56 0.005 0
2.64 0.005 0
2.72 0.005 0
2.8 0.005 0
2.88 0.005 0
2.96 0.005 0
3.04 0.005 0
3.12 0.005 0
3.2 0.005 0
3.28 0.005 0
3.36 0.005 0
3.44 0.005 0
3.52 0.005 0
3.6 0.005 0
3.68 0.005 0
3.76 0.005 0
3.84 0.005 0
3.92 0.005 0
4 0.005 0
4.08 0.005 0
4.16 0.005 0
4.24 0.005 0
4.32 0.005 0
4.4 0.005 0
4.48 0.005 0
4.56 0.005 0
4.64 0.005 0
4.72 0.005 0
4.8 0.005 0
4.88 0.005 0
4.96 0.005 0
5.04 0.005 0
5.12 0.005 0
5.2 0.005 0
5.28 0.005 0
5.36 0.005 0
5.44 0.005 0
5.52 0.005 0
5.6 0.005 0
5.68 0.005 0
5.76 0.005 0
5.84 0.005 0
5.92 0.005 0
6 0.005 0
6.08 0.005 0
6.16 0.005 0
6.24 0.005 0
6.32 0.005 0
6.4 0.005 0
6.48 0.005 0
6.56 0.005 0
6.64 0.005 0
6.72 0.005 0
6.8 0.005 0
6.88 0.005 0
6.96 0.005 0
7.04 0.005 0
7.12 0.005 0
7.2 0.005 0
7.28 0.005 0
7.36 0.005 0
7.44 0.005 0
7.52 0.005 0
7.6 0.005 0
7.68 0.005 0
7.76 0.005 0
7.84 0.005 0
7.92 0.005 0
8 0.005 0
8.08 0.005 0
8.16 0.005 0
8.24 0.005 0
8.32 0.005 0
8.4 0.005 0
8.48 0.005 0
8.56 0.005 0
8.64 0.005 0
8.72 0.005 0
8.8 0.005 0
8.88 0.005 0
8.96 0.005 0
9.04 0.005 0
9.12 0.005 0
9.2 0.005 0
9.28 0.005 0
9.36 0.005 0
9.44 0.005 0
9.52 0.005 0
9.6 0.005 0
9.68 0.005 0
9.76 0.005 0
9.84 0.005 0
9.92 0.005 0
10 0.005 0
10.08 0.005 0
10.16 0.005 0
10.24 0.005 0
10.32 0.005 0
10.4 0.005 0
10.48 0.005 0
10.56 0.005 0
10.64 0.005 0
10.72 0.005 0
10.8 0.005 0
10.88 0.005 0
10.96 0.005 0
11.04 0.005 0
11.12 0.005 0
11.2 0.005 0
11.28 0.005 0
11.36 0.005 0
11.44 0.005 0
11.52 0.005 0
11.6 0.005 0
11.68 0.005 0
11.76 0.005 0
11.84 0.005 0
11.92 0.005 0
12 0.005 0
12.08 0.005 0
12.16 0.005 0
12.24 0.005 0
12.32 0.005 0
12.4 0.005 0
12.48 0.005 0
12.56 0.005 0
12.64 0.005 0
12.72 0.005 0
12.8 0.005 0
12.88 0.005 0
12.96 0.005 0
13.04 0.005 0
13.12 0.005 0
13.2 0.005 0
13.28 0.005 0
13.36 0.005 0
13.44 0.005 0
13.52 0.005 0
13.6 0.005 0
13.68 0.005 0
13.76 0.005 0
13.84 0.005 0
13.92 0.005 0
14 0.005 0
14.08 0.005 0
14.16 0.005 0
14.24 0.005 0
14.32 0.005 0
14.4 0.005 0
14.48 0.005 0
14.56 0.005 0
14.64 0.005 0
14.72 0.005 0
14.8 0.005 0
14.88 0.005 0
14.96 0.005 0
15.04 0.005 0
15.12 0.005 0
15.2 0.005 0
15.28 0.005 0
15.36 0.005 0
15.44 0.005 0
15.52 0.005 0
15.6 0.005 0
15.68 0.005 0
15.76 0.005 0
15.84 0.005 0
15.92 0.005 0
16 0.005 0
16.08 0.005 0
16.16 0.005 0
16.24 0.005 0
16.32 0.005 0
16.4 0.005 0
16.48 0.005 0
16.56 0.005 0
16.64 0.005 0
16.72 0.005 0
16.8 0.005 0
16.88 0.005 0
16.96 0.005 0
17.04 0.005 0
17.12 0.005 0
17.2 0.005 0
17.28 0.005 0
17.36 0.005 0
17.44 0.005 0
17.52 0.005 0
17.6 0.005 0
17.68 0.005 0
17.76 0.005 0
17.84 0.005 0
17.92 0.005 0
18 0.005 0
18.08 0.005 0
18.16 0.005 0
18.24 0.005 0
18.32 0.005 0
18.4 0.005 0
18.48 0.005 0
18.56 0.005 0
18.64 0.005 0
18.72 0.005 0
18.8 0.005 0
18.88 0.005 0
18.96 0.005 0
19.04 0.005 0
19.12 0.005 0
19.2 0.005 0
19.28 0.005 0
19.36 0.005 0
19.44 0.005 0
19.52 0.005 0
19.6 0.005 0
19.68 0.005 0
19.76 0.005 0
19.84 0.005 0
19.92 0.005 0
20 0.005 0
20.08 0.005 0
20.16 0.005 0
20.24 0.005 0
20.32 0.005 0
20.4 0.005 0
20.48 0.005 0
20.56 0.005 0
20.64 0.005 0
20.72 0.005 0
20.8 0.005 0
20.88 0.005 0
20.96 0.005 0
21.04 0.005 0
21.12 0.005 0
21.2 0.005 0
21.28 0.005 0
21.36 0.005 0
21.44 0.005 0
21.52 0.005 0
21.6 0.005 0
21.68 0.005 0
21.76 0.005 0
21.84 0.005 0
21.92 0.005 0
22 0.005 0
22.08 0.005 0
22.16 0.005 0
22.24 0.005 0
22.32 0.005 0
22.4 0.005 0
22.48 0.005 0
22.56 0.005 0
22.64 0.005 0
22.72 0.005 0
22.8 0.005 0
22.88 0.005 0
22.96 0.005 0
23.04 0.005 0
23.12 0.005 0
23.2 0.005 0
23.28 0.005 0
23.36 0.005 0
23.44 0.005 0
23.52 0.005 0
23.6 0.005 0
23.68 0.005 0
23.76 0.005 0
23.84 0.005 0
23.92 0.005 0
24 0.005 0
24.08 0.005 0
24.16 0.005 0
24.24 0.005 0
24.32 0.005 0
24.4 0.005 0
24.48 0.005 0
24.56 0.005 0
24.64 0.005 0
24.72 0.005 0
24.8 0.005 0
24.88 0.005 0
24.96 0.005 0
25.04 0.005 0
25.12 0.005 0
25.2 0.005 0
25.28 0.005 0
25.36 0.005 0
25.44 0.005 0
25.52 0.005 0
25.6 0.005 0
25.68 0.005 0
25.76 0.005 0
25.84 0.005 0
25.92 0.005 0
26 0.005 0
26.08 0.005 0
26.16 0.005 0
26.24 0.005 0
26.32 0.005 0
26.4 0.005 0
26.48 0.005 0
26.56 0.005 0
26.64 0.005 0
26.72 0.005 0
26.8 0.005 0
26.88 0.005 0
26.96 0.005 0
27.04 0.005 0
27.12 0.005 0
27.2 0.005 0
27.28 0.005 0
27.36 0.005 0
27.44 0.005 0
27.52 0.005 0
27.6 0.005 0
27.68 0.005 0
27.76 0.005 0
27.84 0.005 0
27.92 0.005 0
28 0.005 0
28.08 0.005 0
28.16 0.005 0
28.24 0.005 0
28.32 0.005 0
28.4 0.005 0
28.48 0.005 0
28.56 0.005 0
28.64 0.005 0
28.72 0.005 0
28.8 0.005 0
28.88 0.005 0
28.96 0.005 0
29.04 0.005 0
29.12 0.005 0
29.2 0.005 0
29.28 0.005 0
29.36 0.005 0
29.44 0.005 0
29.52 0.005 0
29.6 0.005 0
29.68 0.005 0
29.76 0.005 0
29.84 0.005 0
29.92 0.005 0
30 0.005 0
30.08 0.005 0
30.16 0.005 0
30.24 0.005 0
30.32 0.005 0
30.4 0.005 0
30.48 0.005 0
30.56 0.005 0
30.64 0.005 0
30.72 0.005 0
30.8 0.005 0
30.88 0.005 0
30.96 0.005 0
31.04 0.005 0
31.12 0.005 0
31.2 0.005 0
31.28 0.005 0
31.36 0.005 0
31.44 0.005 0
31.52 0.005 0
31.6 0.005 0
31.68 0.005 0
31.76 0.005 0
31.84 0.005 0
31.92 0.005 0
0 0.01 0
0.08 0.01 0
0.16 0.01 0
0.24 0.01 0
0.32 0.01 0
0.4 0.01 0
0.48 0.01 0
0.56 0.01 0
0.64 0.01 0
0.72 0.01 0
0.8 0.01 0
0.88 0.01 0
0.96 0.01 0
1.04 0.01 0
1.12 0.01 0
1.2 0.01 0
1.28 0.01 0
1.36 0.01 0
1.44 0.01 0
1.52 0.01 0
1.6 0.01 0
1.68 0.01 0
1.76 0.01 0
1.84 0.01 0
1.92 0.01 0
2 0.01 0
2.08 0.01 0
2.16 0.01 0
2.24 0.01 0
2.32 0.01 0
2.4 0.01 0
2.48 0.01 0
2.56 0.01 0
2.64 0.01 0
2.72 0.01 0
2.8 0.01 0
2.88 0.01 0
2.96 0.01 0
3.04 0.01 0
3.12 0.01 0
3.2 0.01 0
3.28 0.01 0
3.36 0.01 0
3.44 0.01 0
3.52 0.01 0
3.6 0.01 0
3.68 0.01 0
3.76 0.01 0
3.84 0.01 0
3.92 0.01 0
4 0.01 0
4.08 0.01 0
4.16 0.01 0
4.24 0.01 0
4.32 0.01 0
4.4 0.01 0
4.48 0.01 0
4.56 0.01 0
4.64 0.01 0
4.72 0.01 0
4.8 0.01 0
4.88 0.01 0
4.96 0.01 0
5.04 0.01 0
5.12 0.01 0
[...]
POINT_DATA 80000

SCALARS u float 1
LOOKUP_TABLE default
0
-0.131663
-0.068269
-0.0522958
-0.0444196
-0.0395765
-0.0362593
-0.0338323
-0.0319723
-0.0304956
-0.0292895
-0.0282812
-0.0274216
-0.026677
-0.026023
-0.0254421
-0.0249212
-0.0244502
-0.0240216
-0.0236291
-0.023268
-0.0229343
-0.0226247
-0.0223365
-0.0220674
-0.0218154
-0.0215788
-0.0213563
-0.0211464
-0.0209482
-0.0207605
-0.0205826
-0.0204136
-0.020253
-0.0200999
-0.019954
-0.0198147
-0.0196815
-0.019554
-0.0194319
-0.0193148
-0.0192024
-0.0190944
-0.0189905
-0.0188906
-0.0187943
-0.0187015
-0.018612
-0.0185256
-0.0184422
-0.0183616
-0.0182836
-0.0182081
-0.0181351
-0.0180643
-0.0179958
-0.0179293
-0.0178648
-0.0178023
-0.0177415
-0.0176825
-0.0176252
-0.0175695
-0.0175153
-0.0174626
-0.0174114
-0.0173615
-0.0173129
-0.0172656
-0.0172195
-0.0171746
-0.0171308
-0.0170881
-0.0170465
-0.0170059
-0.0169664
-0.0169277
-0.01689
-0.0168532
-0.0168173
-0.0167822
-0.0167479
-0.0167145
-0.0166818
-0.0166498
-0.0166186
-0.0165881
-0.0165583
-0.0165291
-0.0165006
-0.0164727
-0.0164454
-0.0164188
-0.0163927
-0.0163672
-0.0163422
-0.0163178
-0.0162939
-0.0162705
-0.0162476
-0.0162252
-0.0162033
-0.0161818
-0.0161608
-0.0161403
-0.0161202
-0.0161004
-0.0160812
-0.0160623
-0.0160438
-0.0160257
-0.0160079
-0.0159905
-0.0159735
-0.0159569
-0.0159406
-0.0159246
-0.0159089
-0.0158936
-0.0158786
-0.0158639
-0.0158494
-0.0158353
-0.0158215
-0.015808
-0.0157947
-0.0157817
-0.015769
-0.0157565
-0.0157443
-0.0157323
-0.0157205
-0.015709
-0.0156978
-0.0156868
-0.0156759
-0.0156654
-0.015655
-0.0156448
-0.0156348
-0.0156251
-0.0156155
-0.0156061
-0.015597
-0.015588
-0.0155791
-0.0155705
-0.015562
-0.0155538
-0.0155456
-0.0155377
-0.0155299
-0.0155222
-0.0155147
-0.0155074
-0.0155002
-0.0154931
-0.0154862
-0.0154795
-0.0154728
-0.0154663
-0.01546
-0.0154537
-0.0154476
-0.0154416
-0.0154358
-0.01543
-0.0154244
-0.0154189
-0.0154134
-0.0154081
-0.015403
-0.0153979
-0.0153929
-0.015388
-0.0153832
-0.0153785
-0.0153739
-0.0153694
-0.015365
-0.0153607
-0.0153564
-0.0153523
-0.0153482
-0.0153442
-0.0153403
-0.0153365
-0.0153327
-0.015329
-0.0153254
-0.0153219
-0.0153185
-0.0153151
-0.0153117
-0.0153085
-0.0153053
-0.0153022
-0.0152991
-0.0152961
-0.0152932
-0.0152903
-0.0152875
-0.0152847
-0.015282
-0.0152794
-0.0152768
-0.0152742
-0.0152717
-0.0152693
-0.0152669
-0.0152645
-0.0152622
-0.01526
-0.0152578
-0.0152556
-0.0152535
-0.0152514
-0.0152494
-0.0152474
-0.0152454
-0.0152435
-0.0152416
-0.0152398
-0.015238
-0.0152362
-0.0152345
-0.0152328
-0.0152311
-0.0152295
-0.0152279
-0.0152263
-0.0152248
-0.0152233
-0.0152218
-0.0152204
-0.015219
-0.0152176
-0.0152163
-0.0152149
-0.0152136
-0.0152124
-0.0152111
-0.0152099
-0.0152087
-0.0152075
-0.0152064
-0.0152052
-0.0152041
-0.0152031
-0.015202
-0.015201
-0.0151999
-0.0151989
-0.015198
-0.015197
-0.0151961
-0.0151952
-0.0151943
-0.0151934
-0.0151925
-0.0151917
-0.0151908
-0.01519
-0.0151892
-0.0151884
-0.0151877
-0.0151869
-0.0151862
-0.0151855
-0.0151848
-0.0151841
-0.0151834
-0.0151828
-0.0151821
-0.0151815
-0.0151808
-0.0151802
-0.0151796
-0.0151791
-0.0151785
-0.0151779
-0.0151774
-0.0151768
-0.0151763
-0.0151758
-0.0151753
-0.0151748
-0.0151743
-0.0151739
-0.0151734
-0.015173
-0.0151725
-0.0151721
-0.0151717
-0.0151713
-0.0151709
-0.0151705
-0.0151702
-0.0151698
-0.0151694
-0.0151691
-0.0151688
-0.0151684
-0.0151681
-0.0151678
-0.0151675
-0.0151673
-0.015167
-0.0151667
-0.0151665
-0.0151662
-0.015166
-0.0151657
-0.0151655
-0.0151653
-0.0151651
-0.0151649
-0.0151647
-0.0151645
-0.0151643
-0.0151642
-0.015164
-0.0151638
-0.0151637
-0.0151636
-0.0151634
-0.0151633
-0.0151632
-0.0151631
-0.015163
-0.0151629
-0.0151628
-0.0151627
-0.0151626
-0.0151625
-0.0151624
-0.0151623
-0.0151623
-0.0151622
-0.0151622
-0.0151621
-0.015162
-0.015162
-0.015162
-0.0151619
-0.0151619
-0.0151618
-0.0151618
-0.0151618
-0.0151618
-0.0151617
-0.0151617
-0.0151617
-0.0151617
-0.0151617
-0.0151616
-0.0151616
-0.0151616
-0.0151616
-0.0151616
-0.0151616
-0.0151616
-0.0151616
-0.0151616
-0.0151616
-0.0151616
-0.0151616
-0.0151616
-0.0151615
-0.0151615
-0.0151615
-0.0151615
-0.0151615
-0.0151615
-0.0151615
-0.0151615
-0.0151616
-0.0151616
-0.0151616
-0.0151616
-0.0151616
-0.0151616
-0.0151616
-0.0151616
-0.0151616
-0.0151616
-0.0151616
-0.0151616
-0.0151616
-0.0151616
-0.0151616
-0.0151616
-0.0151616
-0.0151616
-0.0151616
-0.0151616
-0.0151616
-0.0151616
-0.0151616
-0.0151616
1
0.131663
0.068269
0.0522958
0.0444196
0.0395765
0.0362593
0.0338323
0.0319723
0.0304956
0.0292895
0.0282812
0.0274216
0.026677
0.026023
0.0254421
0.0249212
0.0244502
0.0240216
0.0236291
0.023268
0.0229343
0.0226247
0.0223365
0.0220674
0.0218154
0.0215788
0.0213563
0.0211464
0.0209482
0.0207605
0.0205826
0.0204136
0.020253
0.0200999
0.019954
0.0198147
0.0196815
0.019554
0.0194319
0.0193148
0.0192024
0.0190944
0.0189905
0.0188906
0.0187943
0.0187015
0.018612
0.0185256
0.0184422
0.0183616
0.0182836
0.0182081
0.0181351
0.0180643
0.0179958
0.0179293
0.0178648
0.0178023
0.0177415
0.0176825
0.0176252
0.0175695
0.0175153
0.0174626
0.0174114
0.0173615
0.0173129
0.0172656
0.0172195
0.0171746
0.0171308
0.0170881
0.0170465
0.0170059
0.0169664
0.0169277
0.01689
0.0168532
0.0168173
0.0167822
0.0167479
0.0167145
0.0166818
0.0166498
0.0166186
0.0165881
0.0165583
0.0165291
0.0165006
0.0164727
0.0164454
0.0164188
0.0163927
0.0163672
0.0163422
0.0163178
0.0162939
0.0162705
0.0162476
0.0162252
0.0162033
0.0161818
0.0161608
0.0161403
0.0161202
0.0161004
0.0160812
0.0160623
0.0160438
0.0160257
0.0160079
0.0159905
0.0159735
0.0159569
0.0159406
0.0159246
0.0159089
0.0158936
0.0158786
0.0158639
0.0158494
0.0158353
0.0158215
0.015808
0.0157947
0.0157817
0.015769
0.0157565
0.0157443
0.0157323
0.0157205
0.015709
0.0156978
0.0156868
0.0156759
0.0156654
0.015655
0.0156448
0.0156348
0.0156251
0.0156155
0.0156061
0.015597
0.015588
0.0155791
0.0155705
0.015562
0.0155538
0.0155456
0.0155377
0.0155299
0.0155222
0.0155147
0.0155074
0.0155002
0.0154931
0.0154862
0.0154795
0.0154728
0.0154663
0.01546
0.0154537
0.0154476
0.0154416
0.0154358
0.01543
0.0154244
0.0154189
0.0154134
0.0154081
0.015403
0.0153979
0.0153929
0.015388
0.0153832
0.0153785
0.0153739
0.0153694
0.015365
0.0153607
0.0153564
0.0153523
0.0153482
0.0153442
0.0153403
0.0153365
0.0153327
0.015329
0.0153254
0.0153219
0.0153185
0.0153151
0.0153117
0.0153085
0.0153053
0.0153022
0.0152991
0.0152961
0.0152932
0.0152903
0.0152875
0.0152847
0.015282
0.0152794
0.0152768
0.0152742
0.0152717
0.0152693
0.0152669
0.0152645
0.0152622
0.01526
0.0152578
0.0152556
0.0152535
0.0152514
0.0152494
0.0152474
0.0152454
0.0152435
0.0152416
0.0152398
0.015238
0.0152362
0.0152345
0.0152328
0.0152311
0.0152295
0.0152279
0.0152263
0.0152248
0.0152233
0.0152218
0.0152204
0.015219
0.0152176
0.0152163
0.0152149
0.0152136
0.0152124
0.0152111
0.0152099
0.0152087
0.0152075
0.0152064
0.0152052
0.0152041
0.0152031
0.015202
0.015201
0.0151999
0.0151989
0.015198
0.015197
0.0151961
0.0151952
0.0151943
0.0151934
0.0151925
0.0151917
0.0151908
0.01519
0.0151892
0.0151884
0.0151877
0.0151869
0.0151862
0.0151855
0.0151848
0.0151841
0.0151834
0.0151828
0.0151821
0.0151815
0.0151808
0.0151802
0.0151796
0.0151791
0.0151785
0.0151779
0.0151774
0.0151768
0.0151763
0.0151758
0.0151753
0.0151748
0.0151743
0.0151739
0.0151734
0.015173
0.0151725
0.0151721
0.0151717
0.0151713
0.0151709
0.0151705
0.0151702
0.0151698
0.0151694
0.0151691
0.0151688
0.0151684
0.0151681
0.0151678
0.0151675
0.0151673
0.015167
0.0151667
0.0151665
0.0151662
0.015166
0.0151657
0.0151655
0.0151653
0.0151651
0.0151649
0.0151647
0.0151645
0.0151643
0.0151642
0.015164
0.0151638
0.0151637
0.0151636
0.0151634
0.0151633
0.0151632
0.0151631
0.015163
0.0151629
0.0151628
0.0151627
0.0151626
0.0151625
0.0151624
0.0151623
0.0151623
0.0151622
0.0151622
0.0151621
0.015162
0.015162
0.015162
0.0151619
0.0151619
0.0151618
0.0151618
0.0151618
0.0151618
0.0151617
0.0151617
0.0151617
0.0151617
0.0151617
0.0151616
0.0151616
0.0151616
0.0151616
0.0151616
0.0151616
0.0151616
0.0151616
0.0151616
0.0151616
0.0151616
0.0151616
0.0151616
0.0151615
0.0151615
0.0151615
0.0151615
0.0151615
0.0151615
0.0151615
0.0151615
0.0151616
0.0151616
0.0151616
0.0151616
0.0151616
0.0151616
0.0151616
0.0151616
0.0151616
0.0151616
0.0151616
0.0151616
0.0151616
0.0151616
0.0151616
0.0151616
0.0151616
0.0151616
0.0151616
0.0151616
0.0151616
0.0151616
0.0151616
0.0151616
1
0.344884
0.200667
0.154967
0.131894
0.117598
0.107767
0.100557
0.0950241
0.0906281
0.0870369
0.0840349
0.0814768
0.0792615
0.0773171
0.0755909
0.0740437
0.0726457
0.0713738
0.0702098
0.0691391
0.06815
0.0672326
0.0663788
0.0655818
0.0648355
0.0641352
0.0634763
0.0628552
0.0622685
0.0617132
0.0611868
0.060687
0.0602117
0.059759
0.0593274
0.0589154
0.0585215
0.0581446
0.0577835
0.0574372
0.0571049
0.0567856
0.0564786
0.0561832
0.0558986
0.0556244
0.0553599
0.0551046
0.054858
0.0546198
0.0543894
0.0541665
0.0539507
0.0537417
0.0535391
0.0533428
0.0531523
0.0529675
0.0527881
0.0526139
0.0524446
0.05228
0.05212
0.0519644
0.0518131
0.0516657
0.0515223
0.0513826
0.0512465
0.051114
0.0509847
0.0508588
0.050736
0.0506162
0.0504993
0.0503853
0.050274
0.0501654
0.0500594
0.0499558
0.0498547
0.0497559
0.0496595
0.0495652
0.0494731
0.049383
0.049295
0.049209
0.0491249
0.0490426
0.0489622
0.0488835
0.0488066
0.0487313
0.0486577
0.0485856
0.0485152
0.0484462
0.0483787
0.0483126
0.048248
0.0481847
0.0481228
0.0480621
0.0480028
0.0479447
0.0478878
0.0478321
0.0477775
0.0477241
0.0476718
0.0476206
0.0475705
0.0475213
0.0474732
0.0474261
0.04738
0.0473348
0.0472905
0.0472471
0.0472047
0.0471631
0.0471223
0.0470824
0.0470433
0.0470049
0.0469674
0.0469306
0.0468946
0.0468593
0.0468247
0.0467909
0.0467577
0.0467251
0.0466933
0.0466621
0.0466315
0.0466015
0.0465722
0.0465434
0.0465152
0.0464876
0.0464605
0.046434
0.0464081
0.0463826
0.0463577
0.0463332
0.0463093
0.0462858
0.0462628
0.0462403
0.0462182
0.0461966
0.0461754
0.0461547
0.0461343
0.0461144
0.0460948
0.0460757
0.0460569
0.0460386
0.0460206
0.0460029
0.0459856
0.0459687
0.0459521
0.0459358
0.0459199
0.0459043
0.045889
0.045874
0.0458593
0.0458449
0.0458308
0.0458169
0.0458034
0.0457901
0.0457771
0.0457644
0.0457519
0.0457397
0.0457277
0.0457159
0.0457044
0.0456931
0.0456821
0.0456713
0.0456606
0.0456502
0.0456401
0.0456301
0.0456203
0.0456107
0.0456013
0.0455921
0.0455831
0.0455743
0.0455656
0.0455571
0.0455488
0.0455407
0.0455327
0.0455249
0.0455172
0.0455097
0.0455024
0.0454952
0.0454881
0.0454812
0.0454744
0.0454678
0.0454613
0.0454549
0.0454487
0.0454425
0.0454366
0.0454307
0.0454249
0.0454193
0.0454138
0.0454083
0.045403
0.0453978
0.0453927
0.0453878
0.0453829
0.0453781
0.0453734
0.0453688
0.0453643
0.0453599
0.0453555
0.0453513
0.0453471
0.0453431
0.0453391
0.0453352
0.0453313
0.0453276
0.0453239
0.0453203
0.0453168
0.0453133
0.04531
0.0453066
0.0453034
0.0453002
0.0452971
0.045294
0.045291
0.0452881
0.0452852
0.0452824
0.0452796
0.0452769
0.0452743
0.0452717
0.0452691
0.0452667
0.0452642
0.0452618
0.0452595
0.0452572
0.0452549
0.0452527
0.0452506
0.0452484
0.0452464
0.0452443
0.0452424
0.0452404
0.0452385
0.0452366
0.0452348
0.045233
0.0452313
0.0452295
0.0452279
0.0452262
0.0452246
0.045223
0.0452215
0.04522
0.0452185
0.0452171
0.0452157
0.0452143
0.045213
0.0452117
0.0452104
0.0452092
0.0452079
0.0452068
0.0452056
0.0452045
0.0452034
0.0452023
0.0452013
0.0452003
0.0451993
0.0451984
0.0451975
0.0451966
0.0451957
0.0451949
0.0451941
0.0451933
0.0451925
0.0451918
0.0451911
0.0451904
0.0451898
0.0451891
0.0451885
0.045188
0.0451874
0.0451869
0.0451864
0.0451859
0.0451854
0.045185
0.0451845
0.0451841
0.0451837
0.0451834
0.045183
0.0451827
0.0451824
0.0451821
0.0451818
0.0451815
0.0451813
0.045181
0.0451808
0.0451806
0.0451804
0.0451802
0.0451801
0.0451799
0.0451798
0.0451796
0.0451795
0.0451794
0.0451793
0.0451792
0.0451791
0.045179
0.0451789
0.0451788
0.0451788
0.0451787
0.0451787
0.0451786
0.0451786
0.0451785
0.0451785
0.0451785
0.0451784
0.0451784
0.0451784
0.0451784
0.0451784
0.0451784
0.0451783
0.0451783
0.0451783
0.0451783
0.0451783
0.0451783
0.0451783
0.0451783
0.0451783
0.0451783
0.0451783
0.0451783
0.0451783
0.0451783
0.0451784
0.0451784
0.0451784
0.0451784
0.0451784
0.0451784
0.0451784
0.0451784
0.0451784
0.0451784
0.0451784
0.0451784
0.0451784
0.0451785
0.0451785
0.0451785
0.0451785
0.0451785
0.0451785
0.0451785
0.0451785
1
0.518765
0.327401
0.255347
0.217848
0.194403
0.178211
0.166306
0.157157
0.149882
0.143938
0.138968
0.134734
0.131068
0.127852
0.124998
0.122441
0.120131
0.118031
0.116109
0.114342
0.11271
0.111196
0.109788
0.108473
0.107243
0.106088
0.105002
0.103978
0.103011
0.102096
0.101229
0.100405
0.0996218
0.0988761
0.0981651
0.0974863
0.0968375
0.0962166
0.0956219
0.0950517
0.0945043
0.0939785
0.093473
0.0929865
0.092518
0.0920665
0.091631
0.0912107
0.0908048
0.0904125
0.0900333
0.0896663
0.0893112
0.0889671
0.0886338
0.0883106
0.0879972
0.087693
0.0873978
0.087111
0.0868325
0.0865617
0.0862985
0.0860425
0.0857934
0.085551
0.085315
0.0850852
0.0848614
0.0846433
0.0844307
0.0842235
0.0840215
0.0838245
0.0836323
0.0834447
0.0832617
0.0830831
0.0829087
0.0827384
0.0825722
0.0824097
0.0822511
0.082096
0.0819446
0.0817965
0.0816518
0.0815104
0.0813721
0.0812368
0.0811046
0.0809753
0.0808488
0.0807251
0.080604
0.0804856
0.0803698
0.0802564
0.0801455
0.0800369
0.0799306
0.0798266
0.0797248
0.0796252
0.0795276
0.0794321
0.0793386
0.0792471
0.0791574
0.0790697
0.0789837
0.0788996
0.0788172
0.0787364
0.0786574
0.07858
0.0785042
0.0784299
0.0783572
0.0782859
0.0782161
0.0781478
0.0780808
0.0780152
0.0779509
0.077888
0.0778263
0.0777659
0.0777067
0.0776488
0.077592
0.0775363
0.0774818
0.0774284
0.077376
0.0773248
0.0772745
0.0772253
0.0771771
0.0771298
0.0770835
0.0770382
0.0769937
0.0769502
0.0769075
0.0768657
0.0768248
0.0767846
0.0767453
0.0767068
0.076669
0.076632
0.0765958
0.0765603
0.0765255
0.0764914
0.0764579
0.0764252
0.0763931
0.0763617
0.0763309
0.0763007
0.0762711
0.0762422
0.0762138
0.0761859
0.0761587
0.076132
0.0761058
0.0760802
0.076055
0.0760304
0.0760063
0.0759826
0.0759595
0.0759368
0.0759145
0.0758927
0.0758714
0.0758505
0.07583
0.0758099
0.0757902
0.0757709
0.075752
0.0757335
0.0757153
0.0756976
0.0756801
0.0756631
0.0756463
0.07563
0.0756139
0.0755982
0.0755827
0.0755676
0.0755528
0.0755383
0.0755241
0.0755102
0.0754966
0.0754832
0.0754701
0.0754573
0.0754447
0.0754324
0.0754203
0.0754085
0.0753969
0.0753855
0.0753744
0.0753635
0.0753528
0.0753424
0.0753321
0.0753221
0.0753122
0.0753026
0.0752931
0.0752839
0.0752748
0.0752659
0.0752572
0.0752487
0.0752403
0.0752321
0.0752241
0.0752162
0.0752085
0.0752009
0.0751936
0.0751863
0.0751792
0.0751722
0.0751654
0.0751587
0.0751522
0.0751458
0.0751395
0.0751333
0.0751273
0.0751214
0.0751156
0.0751099
0.0751044
0.0750989
0.0750936
0.0750884
0.0750833
0.0750782
0.0750733
0.0750685
0.0750638
0.0750592
0.0750546
0.0750502
0.0750458
0.0750416
0.0750374
0.0750333
0.0750293
0.0750254
0.0750215
0.0750177
0.075014
0.0750104
0.0750069
0.0750034
0.075
0.0749967
0.0749934
0.0749902
0.0749871
0.074984
0.074981
0.0749781
0.0749752
0.0749724
0.0749696
0.0749669
0.0749643
0.0749617
0.0749592
0.0749567
0.0749543
0.074952
0.0749497
0.0749474
0.0749452
0.0749431
0.074941
0.074939
0.074937
0.074935
0.0749332
0.0749313
0.0749295
0.0749278
0.0749261
0.0749245
0.0749229
0.0749213
0.0749198
0.0749184
0.074917
0.0749156
0.0749143
0.074913
0.0749118
0.0749106
0.0749095
0.0749084
0.0749073
0.0749063
0.0749053
0.0749043
0.0749034
0.0749026
0.0749017
0.0749009
0.0749002
0.0748994
0.0748987
0.0748981
0.0748975
0.0748969
0.0748963
0.0748958
0.0748952
0.0748948
0.0748943
0.0748939
0.0748935
0.0748931
0.0748927
0.0748924
0.0748921
0.0748918
0.0748915
0.0748913
0.074891
0.0748908
0.0748906
0.0748904
0.0748902
0.0748901
0.0748899
0.0748898
0.0748897
0.0748895
0.0748894
0.0748894
0.0748893
0.0748892
0.0748891
0.0748891
0.074889
0.074889
0.0748889
0.0748889
0.0748889
0.0748888
0.0748888
0.0748888
0.0748888
0.0748888
0.0748888
0.0748888
0.0748887
0.0748887
0.0748887
0.0748887
0.0748888
0.0748888
0.0748888
0.0748888
0.0748888
0.0748888
0.0748888
0.0748888
0.0748888
0.0748888
0.0748888
0.0748889
0.0748889
0.0748889
0.0748889
0.0748889
0.0748889
0.0748889
0.0748889
0.074889
0.074889
0.074889
0.074889
0.074889
0.074889
0.074889
0.074889
1
0.660887
0.446893
0.352877
0.302028
0.269849
0.2475
0.231017
0.218326
0.208224
0.199964
0.193058
0.187175
0.182082
0.177615
0.173652
0.170103
0.166898
0.163985
0.16132
0.15887
0.156607
0.15451
0.152559
0.150738
0.149033
0.147434
0.14593
0.144512
0.143173
0.141906
0.140705
0.139565
0.138481
0.137449
0.136465
0.135525
0.134627
0.133768
0.132945
0.132156
0.131399
0.130672
0.129972
0.129299
0.128651
0.128026
0.127424
0.126843
0.126281
0.125739
0.125214
0.124707
0.124216
0.12374
0.123279
0.122832
0.122399
0.121978
0.12157
0.121173
0.120788
0.120414
0.12005
0.119696
0.119352
0.119017
0.11869
0.118373
0.118063
0.117762
0.117468
0.117182
0.116903
0.11663
0.116365
0.116106
0.115853
0.115606
0.115365
0.11513
0.1149
0.114675
0.114456
0.114242
0.114033
0.113828
0.113628
0.113433
0.113242
0.113055
0.112872
0.112694
0.112519
0.112348
0.112181
0.112017
0.111857
0.111701
0.111548
0.111398
0.111251
0.111107
0.110967
0.110829
0.110694
0.110563
0.110433
0.110307
0.110183
0.110062
0.109943
0.109827
0.109713
0.109602
0.109493
0.109386
0.109281
0.109179
0.109078
0.10898
0.108884
0.108789
0.108697
0.108606
0.108518
0.108431
0.108346
0.108262
0.108181
0.1081
0.108022
0.107945
0.10787
0.107796
0.107724
0.107653
0.107584
0.107516
0.107449
0.107384
0.10732
0.107258
0.107196
0.107136
0.107077
0.10702
0.106963
0.106908
0.106854
0.1068
0.106748
0.106697
0.106647
0.106598
0.10655
0.106503
0.106457
0.106412
0.106368
0.106324
0.106282
0.10624
0.106199
0.106159
0.10612
0.106082
0.106044
0.106007
0.105971
0.105936
0.105901
0.105867
0.105834
0.105801
0.105769
0.105738
0.105707
0.105677
0.105648
0.105619
0.105591
0.105563
0.105536
0.105509
0.105483
0.105457
0.105432
0.105408
0.105384
0.10536
0.105337
0.105315
0.105293
0.105271
0.10525
0.105229
0.105208
0.105188
0.105169
0.105149
0.105131
0.105112
0.105094
0.105076
0.105059
0.105042
0.105025
0.105009
0.104993
0.104977
0.104962
0.104947
0.104932
0.104918
0.104904
0.10489
0.104876
0.104863
0.10485
0.104837
0.104825
0.104812
0.1048
0.104789
0.104777
0.104766
0.104755
0.104744
0.104733
0.104723
0.104713
0.104703
0.104693
0.104683
0.104674
0.104665
0.104656
0.104647
0.104638
0.10463
0.104621
0.104613
0.104605
0.104597
0.10459
0.104582
0.104575
0.104568
0.10456
0.104554
0.104547
0.10454
0.104534
0.104527
0.104521
0.104515
0.104509
0.104503
0.104497
0.104492
0.104486
0.104481
0.104475
0.10447
0.104465
0.10446
0.104455
0.10445
0.104446
0.104441
0.104437
0.104432
0.104428
0.104424
0.104419
0.104415
0.104411
0.104408
0.104404
0.1044
0.104396
0.104393
0.104389
0.104386
0.104383
0.104379
0.104376
0.104373
0.10437
0.104367
0.104364
0.104362
0.104359
0.104356
0.104354
0.104351
0.104349
0.104346
0.104344
0.104342
0.104339
0.104337
0.104335
0.104333
0.104331
0.104329
0.104328
0.104326
0.104324
0.104323
0.104321
0.104319
0.104318
0.104317
0.104315
0.104314
0.104313
0.104312
0.10431
0.104309
0.104308
0.104307
0.104306
0.104305
0.104305
0.104304
0.104303
0.104302
0.104302
0.104301
0.1043
0.1043
0.104299
0.104299
0.104298
0.104298
0.104297
0.104297
0.104296
0.104296
0.104296
0.104296
0.104295
0.104295
0.104295
0.104295
0.104294
0.104294
0.104294
0.104294
0.104294
0.104294
0.104293
0.104293
0.104293
0.104293
0.104293
0.104293
0.104293
0.104293
0.104293
0.104293
0.104293
0.104293
0.104293
0.104293
0.104293
0.104293
0.104293
0.104293
0.104293
0.104293
0.104293
0.104293
0.104293
0.104293
0.104293
0.104293
0.104293
0.104293
0.104293
0.104293
0.104293
0.104293
0.104293
0.104293
0.104293
0.104293
0.104293
0.104293
0.104293
0.104293
0.104293
0.104293
0.104293
0.104293
0.104293
0.104293
0.104293
1
0.776802
0.557824
0.446877
0.3841
0.343742
0.315509
0.294602
0.278467
0.265605
0.255079
0.246275
0.238774
0.232282
0.226588
0.221538
0.217016
0.212935
0.209225
0.205832
0.202714
0.199835
0.197167
0.194685
0.192368
0.190201
0.188167
0.186254