# vtk DataFile Version 2.0
FlowField
ASCII
DATASET STRUCTURED_GRID
DIMENSIONS 400 1 200
POINTS 80000 float
0 0 0
0.08 0 0
0.16 0 0
0.24 0 0
0.32 0 0
0.4 0 0
0.48 0 0
0.56 0 0
0.64 0 0
0.72 0 0
0.8 0 0
0.88 0 0
0.96 0 0
1.04 0 0
1.12 0 0
1.2 0 0
1.28 0 0
1.36 0 0
1.44 0 0
1.52 0 0
1.6 0 0
1.68 0 0
1.76 0 0
1.84 0 0
1.92 0 0
2 0 0
2.08 0 0
2.16 0 0
2.24 0 0
2.32 0 0
2.4 0 0
2.48 0 0
2.56 0 0
2.64 0 0
2.72 0 0
2.8 0 0
2.88 0 0
2.96 0 0
3.04 0 0
3.12 0 0
3.2 0 0
3.28 0 0
3.36 0 0
3.44 0 0
3.52 0 0
3.6 0 0
3.68 0 0
3.76 0 0
3.84 0 0
3.92 0 0
4 0 0
4.08 0 0
4.16 0 0
4.24 0 0
4.32 0 0
4.4 0 0
4.48 0 0
4.56 0 0
4.64 0 0
4.72 0 0
4.8 0 0
4.88 0 0
4.96 0 0
5.04 0 0
5.12 0 0
5.2 0 0
5.28 0 0
5.36 0 0
5.44 0 0
5.52 0 0
5.6 0 0
5.68 0 0
5.76 0 0
5.84 0 0
5.92 0 0
6 0 0
6.08 0 0
6.16 0 0
6.24 0 0
6.32 0 0
6.4 0 0
6.48 0 0
6.56 0 0
6.64 0 0
6.72 0 0
6.8 0 0
6.88 0 0
6.96 0 0
7.04 0 0
7.12 0 0
7.2 0 0
7.28 0 0
7.36 0 0
7.44 0 0
7.52 0 0
7.6 0 0
7.68 0 0
7.76 0 0
7.84 0 0
7.92 0 0
8 0 0
8.08 0 0
8.16 0 0
8.24 0 0
8.32 0 0
8.4 0 0
8.48 0 0
8.56 0 0
8.64 0 0
8.72 0 0
8.8 0 0
8.88 0 0
8.96 0 0
9.04 0 0
9.12 0 0
9.2 0 0
9.28 0 0
9.36 0 0
9.44 0 0
9.52 0 0
9.6 0 0
9.68 0 0
9.76 0 0
9.84 0 0
9.92 0 0
10 0 0
10.08 0 0
10.16 0 0
10.24 0 0
10.32 0 0
10.4 0 0
10.48 0 0
10.56 0 0
10.64 0 0
10.72 0 0
10.8 0 0
10.88 0 0
10.96 0 0
11.04 0 0
11.12 0 0
11.2 0 0
11.28 0 0
11.36 0 0
11.44 0 0
11.52 0 0
11.6 0 0
11.68 0 0
11.76 0 0
11.84 0 0
11.92 0 0
12 0 0
12.08 0 0
12.16 0 0
12.24 0 0
12.32 0 0
12.4 0 0
12.48 0 0
12.56 0 0
12.64 0 0
12.72 0 0
12.8 0 0
12.88 0 0
12.96 0 0
13.04 0 0
13.12 0 0
13.2 0 0
13.28 0 0
13.36 0 0
13.44 0 0
13.52 0 0
13.6 0 0
13.68 0 0
13.76 0 0
13.84 0 0
13.92 0 0
14 0 0
14.08 0 0
14.16 0 0
14.24 0 0
14.32 0 0
14.4 0 0
14.48 0 0
14.56 0 0
14.64 0 0
14.72 0 0
14.8 0 0
14.88 0 0
14.96 0 0
15.04 0 0
15.12 0 0
15.2 0 0
15.28 0 0
15.36 0 0
15.44 0 0
15.52 0 0
15.6 0 0
15.68 0 0
15.76 0 0
15.84 0 0
15.92 0 0
16 0 0
16.08 0 0
16.16 0 0
16.24 0 0
16.32 0 0
16.4 0 0
16.48 0 0
16.56 0 0
16.64 0 0
16.72 0 0
16.8 0 0
16.88 0 0
16.96 0 0
17.04 0 0
17.12 0 0
17.2 0 0
17.28 0 0
17.36 0 0
17.44 0 0
17.52 0 0
17.6 0 0
17.68 0 0
17.76 0 0
17.84 0 0
17.92 0 0
18 0 0
18.08 0 0
18.16 0 0
18.24 0 0
18.32 0 0
18.4 0 0
18.48 0 0
18.56 0 0
18.64 0 0
18.72 0 0
18.8 0 0
18.88 0 0
18.96 0 0
19.04 0 0
19.12 0 0
19.2 0 0
19.28 0 0
19.36 0 0
19.44 0 0
19.52 0 0
19.6 0 0
19.68 0 0
19.76 0 0
19.84 0 0
19.92 0 0
20 0 0
20.08 0 0
20.16 0 0
20.24 0 0
20.32 0 0
20.4 0 0
20.48 0 0
20.56 0 0
20.64 0 0
20.72 0 0
20.8 0 0
20.88 0 0
20.96 0 0
21.04 0 0
21.12 0 0
21.2 0 0
21.28 0 0
21.36 0 0
21.44 0 0
21.52 0 0
21.6 0 0
21.68 0 0
21.76 0 0
21.84 0 0
21.92 0 0
22 0 0
22.08 0 0
22.16 0 0
22.24 0 0
22.32 0 0
22.4 0 0
22.48 0 0
22.56 0 0
22.64 0 0
22.72 0 0
22.8 0 0
22.88 0 0
22.96 0 0
23.04 0 0
23.12 0 0
23.2 0 0
23.28 0 0
23.36 0 0
23.44 0 0
23.52 0 0
23.6 0 0
23.68 0 0
23.76 0 0
23.84 0 0
23.92 0 0
24 0 0
24.08 0 0
24.16 0 0
24.24 0 0
24.32 0 0
24.4 0 0
24.48 0 0
24.56 0 0
24.64 0 0
24.72 0 0
24.8 0 0
24.88 0 0
24.96 0 0
25.04 0 0
25.12 0 0
25.2 0 0
25.28 0 0
25.36 0 0
25.44 0 0
25.52 0 0
25.6 0 0
25.68 0 0
25.76 0 0
25.84 0 0
25.92 0 0
26 0 0
26.08 0 0
26.16 0 0
26.24 0 0
26.32 0 0
26.4 0 0
26.48 0 0
26.56 0 0
26.64 0 0
26.72 0 0
26.8 0 0
26.88 0 0
26.96 0 0
27.04 0 0
27.12 0 0
27.2 0 0
27.28 0 0
27.36 0 0
27.44 0 0
27.52 0 0
27.6 0 0
27.68 0 0
27.76 0 0
27.84 0 0
27.92 0 0
28 0 0
28.08 0 0
28.16 0 0
28.24 0 0
28.32 0 0
28.4 0 0
28.48 0 0
28.56 0 0
28.64 0 0
28.72 0 0
28.8 0 0
28.88 0 0
28.96 0 0
29.04 0 0
29.12 0 0
29.2 0 0
29.28 0 0
29.36 0 0
29.44 0 0
29.52 0 0
29.6 0 0
29.68 0 0
29.76 0 0
29.84 0 0
29.92 0 0
30 0 0
30.08 0 0
30.16 0 0
30.24 0 0
30.32 0 0
30.4 0 0
30.48 0 0
30.56 0 0
30.64 0 0
30.72 0 0
30.8 0 0
30.88 0 0
30.96 0 0
31.04 0 0
31.12 0 0
31.2 0 0
31.28 0 0
31.36 0 0
31.44 0 0
31.52 0 0
31.6 0 0
31.68 0 0
31.76 0 0
31.84 0 0
31.92 0 0
0 0.005 0
0.08 0.005 0
0.16 0.005 0
0.24 0.005 0
0.32 0.005 0
0.4 0.005 0
0.48 0.005 0
0.56 0.005 0
0.64 0.005 0
0.72 0.005 0
0.8 0.005 0
0.88 0.005 0
0.96 0.005 0
1.04 0.005 0
1.12 0.005 0
1.2 0.005 0
1.28 0.005 0
1.36 0.005 0
1.44 0.005 0
1.52 0.005 0
1.6 0.005 0
1.68 0.005 0
1.76 0.005 0
1.84 0.005 0
1.92 0.005 0
2 0.005 0
2.08 0.005 0
2.16 0.005 0
2.24 0.005 0
2.32 0.005 0
2.4 0.005 0
2.48 0.005 0
2.56 0.005 0
2.64 0.005 0
2.72 0.005 0
2.8 0.005 0
2.88 0.005 0
2.96 0.005 0
3.04 0.005 0
3.12 0.005 0
3.2 0.005 0
3.28 0.005 0
3.36 0.005 0
3.44 0.005 0
3.52 0.005 0
3.6 0.005 0
3.68 0.005 0
3.76 0.005 0
3.84 0.005 0
3.92 0.005 0
4 0.005 0
4.08 0.005 0
4.16 0.005 0
4.24 0.005 0
4.32 0.005 0
4.4 0.005 0
4.48 0.005 0
4.56 0.005 0
4.64 0.005 0
4.72 0.005 0
4.8 0.005 0
4.88 0.005 0
4.96 0.005 0
5.04 0.005 0
5.12 0.005 0
5.2 0.005 0
5.28 0.005 0
5.36 0.005 0
5.44 0.005 0
5.52 0.005 0
5.6 0.005 0
5.68 0.005 0
5.76 0.005 0
5.84 0.005 0
5.92 0.005 0
6 0.005 0
6.08 0.005 0
6.16 0.005 0
6.24 0.005 0
6.32 0.005 0
6.4 0.005 0
6.48 0.005 0
6.56 0.005 0
6.64 0.005 0
6.72 0.005 0
6.8 0.005 0
6.88 0.005 0
6.96 0.005 0
7.04 0.005 0
7.12 0.005 0
7.2 0.005 0
7.28 0.005 0
7.36 0.005 0
7.44 0.005 0
7.52 0.005 0
7.6 0.005 0
7.68 0.005 0
7.76 0.005 0
7.84 0.005 0
7.92 0.005 0
8 0.005 0
8.08 0.005 0
8.16 0.005 0
8.24 0.005 0
8.32 0.005 0
8.4 0.005 0
8.48 0.005 0
8.56 0.005 0
8.64 0.005 0
8.72 0.005 0
8.8 0.005 0
8.88 0.005 0
8.96 0.005 0
9.04 0.005 0
9.12 0.005 0
9.2 0.005 0
9.28 0.005 0
9.36 0.005 0
9.44 0.005 0
9.52 0.005 0
9.6 0.005 0
9.68 0.005 0
9.76 0.005 0
9.84 0.005 0
9.92 0.005 0
10 0.005 0
10.08 0.005 0
10.16 0.005 0
10.24 0.005 0
10.32 0.005 0
10.4 0.005 0
10.48 0.005 0
10.56 0.005 0
10.64 0.005 0
10.72 0.005 0
10.8 0.005 0
10.88 0.005 0
10.96 0.005 0
11.04 0.005 0
11.12 0.005 0
11.2 0.005 0
11.28 0.005 0
11.36 0.005 0
11.44 0.005 0
11.52 0.005 0
11.6 0.005 0
11.68 0.005 0
11.76 0.005 0
11.84 0.005 0
11.92 0.005 0
12 0.005 0
12.08 0.005 0
12.16 0.005 0
12.24 0.005 0
12.32 0.005 0
12.4 0.005 0
12.48 0.005 0
12.56 0.005 0
12.64 0.005 0
12.72 0.005 0
12.8 0.005 0
12.88 0.005 0
12.96 0.005 0
13.04 0.005 0
13.12 0.005 0
13.2 0.005 0
13.28 0.005 0
13.36 0.005 0
13.44 0.005 0
13.52 0.005 0
13.6 0.005 0
13.68 0.005 0
13.76 0.005 0
13.84 0.005 0
13.92 0.005 0
14 0.005 0
14.08 0.005 0
14.16 0.005 0
14.24 0.005 0
14.32 0.005 0
14.4 0.005 0
14.48 0.005 0
14.56 0.005 0
14.64 0.005 0
14.72 0.005 0
14.8 0.005 0
14.88 0.005 0
14.96 0.005 0
15.04 0.005 0
15.12 0.005 0
15.2 0.005 0
15.28 0.005 0
15.36 0.005 0
15.44 0.005 0
15.52 0.005 0
15.6 0.005 0
15.68 0.005 0
15.76 0.005 0
15.84 0.005 0
15.92 0.005 0
16 0.005 0
16.08 0.005 0
16.16 0.005 0
16.24 0.005 0
16.32 0.005 0
16.4 0.005 0
16.48 0.005 0
16.56 0.005 0
16.64 0.005 0
16.72 0.005 0
16.8 0.005 0
16.88 0.005 0
16.96 0.005 0
17.04 0.005 0
17.12 0.005 0
17.2 0.005 0
17.28 0.005 0
17.36 0.005 0
17.44 0.005 0
17.52 0.005 0
17.6 0.005 0
17.68 0.005 0
17.76 0.005 0
17.84 0.005 0
17.92 0.005 0
18 0.005 0
18.08 0.005 0
18.16 0.005 0
18.24 0.005 0
18.32 0.005 0
18.4 0.005 0
18.48 0.005 0
18.56 0.005 0
18.64 0.005 0
18.72 0.005 0
18.8 0.005 0
18.88 0.005 0
18.96 0.005 0
19.04 0.005 0
19.12 0.005 0
19.2 0.005 0
19.28 0.005 0
19.36 0.005 0
19.44 0.005 0
19.52 0.005 0
19.6 0.005 0
19.68 0.005 0
19.76 0.005 0
19.84 0.005 0
19.92 0.005 0
20 0.005 0
20.08 0.005 0
20.16 0.005 0
20.24 0.005 0
20.32 0.005 0
20.4 0.005 0
20.48 0.005 0
20.56 0.005 0
20.64 0.005 0
20.72 0.005 0
20.8 0.005 0
20.88 0.005 0
20.96 0.005 0
21.04 0.005 0
21.12 0.005 0
21.2 0.005 0
21.28 0.005 0
21.36 0.005 0
21.44 0.005 0
21.52 0.005 0
21.6 0.005 0
21.68 0.005 0
21.76 0.005 0
21.84 0.005 0
21.92 0.005 0
22 0.005 0
22.08 0.005 0
22.16 0.005 0
22.24 0.005 0
22.32 0.005 0
22.4 0.005 0
22.48 0.005 0
22.56 0.005 0
22.64 0.005 0
22.72 0.005 0
22.8 0.005 0
22.88 0.005 0
22.96 0.005 0
23.04 0.005 0
23.12 0.005 0
23.2 0.005 0
23.28 0.005 0
23.36 0.005 0
23.44 0.005 0
23.52 0.005 0
23.6 0.005 0
23.68 0.005 0
23.76 0.005 0
23.84 0.005 0
23.92 0.005 0
24 0.005 0
24.08 0.005 0
24.16 0.005 0
24.24 0.005 0
24.32 0.005 0
24.4 0.005 0
24.48 0.005 0
24.56 0.005 0
24.64 0.005 0
24.72 0.005 0
24.8 0.005 0
24.88 0.005 0
24.96 0.005 0
25.04 0.005 0
25.12 0.005 0
25.2 0.005 0
25.28 0.005 0
25.36 0.005 0
25.44 0.005 0
25.52 0.005 0
25.6 0.005 0
25.68 0.005 0
25.76 0.005 0
25.84 0.005 0
25.92 0.005 0
26 0.005 0
26.08 0.005 0
26.16 0.005 0
26.24 0.005 0
26.32 0.005 0
26.4 0.005 0
26.48 0.005 0
26.56 0.005 0
26.64 0.005 0
26.72 0.005 0
26.8 0.005 0
26.88 0.005 0
26.96 0.005 0
27.04 0.005 0
27.12 0.005 0
27.2 0.005 0
27.28 0.005 0
27.36 0.005 0
27.44 0.005 0
27.52 0.005 0
27.6 0.005 0
27.68 0.005 0
27.76 0.005 0
27.84 0.005 0
27.92 0.005 0
28 0.005 0
28.08 0.005 0
28.16 0.005 0
28.24 0.005 0
28.32 0.005 0
28.4 0.005 0
28.48 0.005 0
28.56 0.005 0
28.64 0.005 0
28.72 0.005 0
28.8 0.005 0
28.88 0.005 0
28.96 0.005 0
29.04 0.005 0
29.12 0.005 0
29.2 0.005 0
29.28 0.005 0
29.36 0.005 0
29.44 0.005 0
29.52 0.005 0
29.6 0.005 0
29.68 0.005 0
29.76 0.005 0
29.84 0.005 0
29.92 0.005 0
30 0.005 0
30.08 0.005 0
30.16 0.005 0
30.24 0.005 0
30.32 0.005 0
30.4 0.005 0
30.48 0.005 0
30.56 0.005 0
30.64 0.005 0
30.72 0.005 0
30.8 0.005 0
30.88 0.005 0
30.96 0.005 0
31.04 0.005 0
31.12 0.005 0
31.2 0.005 0
31.28 0.005 0
31.36 0.005 0
31.44 0.005 0
31.52 0.005 0
31.6 0.005 0
31.68 0.005 0
31.76 0.005 0
31.84 0.005 0
31.92 0.005 0
0 0.01 0
0.08 0.01 0
0.16 0.01 0
0.24 0.01 0
0.32 0.01 0
0.4 0.01 0
0.48 0.01 0
0.56 0.01 0
0.64 0.01 0
0.72 0.01 0
0.8 0.01 0
0.88 0.01 0
0.96 0.01 0
1.04 0.01 0
1.12 0.01 0
1.2 0.01 0
1.28 0.01 0
1.36 0.01 0
1.44 0.01 0
1.52 0.01 0
1.6 0.01 0
1.68 0.01 0
1.76 0.01 0
1.84 0.01 0
1.92 0.01 0
2 0.01 0
2.08 0.01 0
2.16 0.01 0
2.24 0.01 0
2.32 0.01 0
2.4 0.01 0
2.48 0.01 0
2.56 0.01 0
2.64 0.01 0
2.72 0.01 0
2.8 0.01 0
2.88 0.01 0
2.96 0.01 0
3.04 0.01 0
3.12 0.01 0
3.2 0.01 0
3.28 0.01 0
3.36 0.01 0
3.44 0.01 0
3.52 0.01 0
3.6 0.01 0
3.68 0.01 0
3.76 0.01 0
3.84 0.01 0
3.92 0.01 0
4 0.01 0
4.08 0.01 0
4.16 0.01 0
4.24 0.01 0
4.32 0.01 0
4.4 0.01 0
4.48 0.01 0
4.56 0.01 0
4.64 0.01 0
4.72 0.01 0
4.8 0.01 0
4.88 0.01 0
4.96 0.01 0
5.04 0.01 0
5.12 0.01 0
[...]
POINT_DATA 80000

SCALARS v float 1
LOOKUP_TABLE default
0
0
0
0
0
0
0
0
0
0
0
0
0
0
0
0
0
0
0
0
0
0
0
0
0
0
0
0
0
0
0
0
0
0
0
0
0
0
0
0
0
0
0
0
0
0
0
0
0
0
0
0
0
0
0
0
0
0
0
0
0
0
0
0
0
0
0
0
0
0
0
0
0
0
0
0
0
0
0
0
0
0
0
0
0
0
0
0
0
0
0
0
0
0
0
0
0
0
0
0
0
0
0
0
0
0
0
0
0
0
0
0
0
0
0
0
0
0
0
0
0
0
0
0
0
0
0
0
0
0
0
0
0
0
0
0
0
0
0
0
0
0
0
0
0
0
0
0
0
0
0
0
0
0
0
0
0
0
0
0
0
0
0
0
0
0
0
0
0
0
0
0
0
0
0
0
0
0
0
0
0
0
0
0
0
0
0
0
0
0
0
0
0
0
0
0
0
0
0
0
0
0
0
0
0
0
0
0
0
0
0
0
0
0
0
0
0
0
0
0
0
0
0
0
0
0
0
0
0
0
0
0
0
0
0
0
0
0
0
0
0
0
0
0
0
0
0
0
0
0
0
0
0
0
0
0
0
0
0
0
0
0
0
0
0
0
0
0
0
0
0
0
0
0
0
0
0
0
0
0
0
0
0
0
0
0
0
0
0
0
0
0
0
0
0
0
0
0
0
0
0
0
0
0
0
0
0
0
0
0
0
0
0
0
0
0
0
0
0
0
0
0
0
0
0
0
0
0
0
0
0
0
0
0
0
0
0
0
0
0
0
0
0
0
0
0
0
0
0
0
0
0
0
0
0
0
0
0
0
0
0
0
0
0
0
0
0
0
0
0
0
0
0
0
0
0
0
0
0
0
0
0
0
0
0
0
0
0
0
0
0
0
0
0
0
0
0
0
0
0
-0.0542711
0.0542711
0.0039621
0.000998336
0.000492267
0.000302703
0.000207326
0.000151698
0.000116257
9.23002e-05
7.5387e-05
6.30264e-05
5.3726e-05
4.65475e-05
4.08797e-05
3.63126e-05
3.2565e-05
2.94401e-05
2.6797e-05
2.45339e-05
2.2575e-05
2.08636e-05
1.93564e-05
1.80195e-05
1.68265e-05
1.5756e-05
1.47909e-05
1.3917e-05
1.31226e-05
1.23979e-05
1.17347e-05
1.1126e-05
1.05656e-05
1.00485e-05
9.57021e-06
9.12672e-06
8.71467e-06
8.33105e-06
7.97321e-06
7.63883e-06
7.32581e-06
7.03233e-06
6.75672e-06
6.49752e-06
6.2534e-06
6.02317e-06
5.80575e-06
5.60018e-06
5.40556e-06
5.22111e-06
5.0461e-06
4.87986e-06
4.7218e-06
4.57135e-06
4.42801e-06
4.29132e-06
4.16086e-06
4.03622e-06
3.91704e-06
3.803e-06
3.69378e-06
3.5891e-06
3.48869e-06
3.39231e-06
3.29974e-06
3.21075e-06
3.12515e-06
3.04276e-06
2.96341e-06
2.88694e-06
2.8132e-06
2.74205e-06
2.67336e-06
2.60701e-06
2.54289e-06
2.48088e-06
2.42089e-06
2.36283e-06
2.3066e-06
2.25213e-06
2.19933e-06
2.14813e-06
2.09846e-06
2.05025e-06
2.00345e-06
1.958e-06
1.91384e-06
1.87091e-06
1.82918e-06
1.78859e-06
1.74909e-06
1.71066e-06
1.67324e-06
1.63681e-06
1.60131e-06
1.56673e-06
1.53303e-06
1.50018e-06
1.46814e-06
1.4369e-06
1.40642e-06
1.37668e-06
1.34766e-06
1.31933e-06
1.29167e-06
1.26467e-06
1.23829e-06
1.21253e-06
1.18736e-06
1.16276e-06
1.13873e-06
1.11524e-06
1.09227e-06
1.06982e-06
1.04787e-06
1.02641e-06
1.00542e-06
9.84886e-07
9.64802e-07
9.45155e-07
9.25934e-07
9.07128e-07
8.88728e-07
8.70723e-07
8.53103e-07
8.35861e-07
8.18986e-07
8.02473e-07
7.86312e-07
7.70494e-07
7.55012e-07
7.39856e-07
7.25018e-07
7.10489e-07
6.9626e-07
6.8232e-07
6.68658e-07
6.55261e-07
6.42116e-07
6.2921e-07
6.16529e-07
6.0406e-07
5.91787e-07
5.79695e-07
5.67768e-07
5.55991e-07
5.44347e-07
5.32823e-07
5.21406e-07
5.10085e-07
4.98849e-07
4.87686e-07
4.76586e-07
4.6554e-07
4.54541e-07
4.43585e-07
4.3267e-07
4.21793e-07
4.10955e-07
4.00153e-07
3.89387e-07
3.78657e-07
3.67967e-07
3.57323e-07
3.46733e-07
3.36203e-07
3.2574e-07
3.15347e-07
3.05029e-07
2.94792e-07
2.84643e-07
2.74595e-07
2.6466e-07
2.54849e-07
2.4517e-07
2.35627e-07
2.26224e-07
2.16965e-07
2.07856e-07
1.98908e-07
1.90134e-07
1.81547e-07
1.73155e-07
1.64964e-07
1.56972e-07
1.49179e-07
1.41584e-07
1.34192e-07
1.2701e-07
1.20049e-07
1.13319e-07
1.06827e-07
1.00573e-07
9.45523e-08
8.87584e-08
8.31853e-08
7.78306e-08
7.2696e-08
6.7787e-08
6.31095e-08
5.86671e-08
5.44592e-08
5.04799e-08
4.67198e-08
4.31682e-08
3.98158e-08
3.66565e-08
3.36881e-08
3.09106e-08
2.83247e-08
2.59294e-08
2.37204e-08
2.16896e-08
1.9826e-08
1.81173e-08
1.65515e-08
1.51186e-08
1.38114e-08
1.26248e-08
1.15556e-08
1.06007e-08
9.75607e-09
9.01619e-09
8.37351e-09
7.81893e-09
7.34249e-09
6.93414e-09
6.5845e-09
6.28534e-09
6.02973e-09
5.81189e-09
5.62692e-09
5.47054e-09
5.3387e-09
5.22752e-09
5.13324e-09
5.05229e-09
4.98141e-09
4.91784e-09
4.85933e-09
4.80426e-09
4.75147e-09
4.70027e-09
4.65027e-09
4.60127e-09
4.55314e-09
4.5058e-09
4.4591e-09
4.41294e-09
4.36713e-09
4.32154e-09
4.27601e-09
4.23047e-09
4.18484e-09
4.13913e-09
4.09333e-09
4.04746e-09
4.00156e-09
3.95566e-09
3.90978e-09
3.86393e-09
3.81812e-09
3.77231e-09
3.72653e-09
3.68074e-09
3.63494e-09
3.58912e-09
3.54329e-09
3.49744e-09
3.45156e-09
3.40566e-09
3.35975e-09
3.31383e-09
3.2679e-09
3.22196e-09
3.17602e-09
3.13007e-09
3.08413e-09
3.03815e-09
2.99218e-09
2.9462e-09
2.90021e-09
2.8542e-09
2.80819e-09
2.76218e-09
2.71614e-09
2.6701e-09
2.62404e-09
2.57797e-09
2.53188e-09
2.48581e-09
2.43971e-09
2.3936e-09
2.34748e-09
2.30136e-09
2.25521e-09
2.20907e-09
2.1629e-09
2.11674e-09
2.07056e-09
2.02437e-09
1.97816e-09
1.93194e-09
1.88571e-09
1.83947e-09
1.79323e-09
1.74698e-09
1.70069e-09
1.65442e-09
1.60812e-09
1.56183e-09
1.51551e-09
1.46919e-09
1.42284e-09
1.37652e-09
1.33013e-09
1.28378e-09
1.23737e-09
1.19101e-09
1.14457e-09
1.0982e-09
1.05172e-09
1.00534e-09
9.58812e-10
9.12434e-10
8.65869e-10
8.19488e-10
7.72874e-10
7.26489e-10
6.79827e-10
6.33463e-10
5.86732e-10
5.40389e-10
4.93569e-10
4.47277e-10
4.00357e-10
3.54127e-10
3.07104e-10
2.60948e-10
2.13776e-10
1.67726e-10
1.20385e-10
7.44971e-11
2.69135e-11
-1.87762e-11
-6.66221e-11
-1.12043e-10
-1.60226e-10
-2.0532e-10
-2.53956e-10
-2.98583e-10
-3.47785e-10
-3.91816e-10
-4.41729e-10
-4.85011e-10
-5.35825e-10
-5.78114e-10
-6.30092e-10
-6.71112e-10
-7.24544e-10
-7.63973e-10
-8.19253e-10
-8.56598e-10
-9.14241e-10
-9.48973e-10
-1.00957e-09
-1.041e-09
-1.1053e-09
-1.13257e-09
-1.2015e-09
-1.22361e-09
-1.29822e-09
-1.31402e-09
-1.3955e-09
-1.40373e-09
-1.49334e-09
-1.49276e-09
-1.59156e-09
-1.58132e-09
-1.68974e-09
-1.67004e-09
-1.78694e-09
-1.76046e-09
-1.88119e-09
-1.85605e-09
-1.96847e-09
-1.96441e-09
-2.04058e-09
-2.10252e-09
-2.08001e-09
-2.30912e-09
-2.04463e-09
-2.67529e-09
-1.80718e-09
-3.41705e-09
-7.94972e-10
-4.98119e-09
6.64744e-09
-2.62256e-09
-2.62256e-09
-0.0952159
0.0952159
0.0129756
0.00385463
0.00193432
0.00119621
0.000821749
0.000602322
0.000462075
0.000367049
0.000299839
0.000250653
0.00021361
0.000185002
0.000162409
0.000144203
0.000129268
0.000116818
0.000106293
9.72844e-05
8.94912e-05
8.26859e-05
7.6695e-05
7.13836e-05
6.66454e-05
6.23954e-05
5.85647e-05
5.5097e-05
5.19455e-05
4.90713e-05
4.64414e-05
4.40277e-05
4.18063e-05
3.97567e-05
3.78609e-05
3.61034e-05
3.44705e-05
3.29505e-05
3.15328e-05
3.02081e-05
2.89681e-05
2.78056e-05
2.67139e-05
2.56873e-05
2.47205e-05
2.38087e-05
2.29477e-05
2.21336e-05
2.1363e-05
2.06326e-05
1.99397e-05
1.92815e-05
1.86557e-05
1.80601e-05
1.74926e-05
1.69515e-05
1.6435e-05
1.59417e-05
1.54699e-05
1.50185e-05
1.45862e-05
1.41719e-05
1.37745e-05
1.33931e-05
1.30267e-05
1.26745e-05
1.23358e-05
1.20098e-05
1.16958e-05
1.13932e-05
1.11014e-05
1.08199e-05
1.05481e-05
1.02856e-05
1.00319e-05
9.78656e-06
9.54924e-06
9.31955e-06
9.09711e-06
8.88162e-06
8.67276e-06
8.47024e-06
8.27378e-06
8.08312e-06
7.89802e-06
7.71825e-06
7.54359e-06
7.37383e-06
7.20879e-06
7.04827e-06
6.8921e-06
6.74012e-06
6.59217e-06
6.44809e-06
6.30776e-06
6.17104e-06
6.03779e-06
5.9079e-06
5.78126e-06
5.65774e-06
5.53726e-06
5.4197e-06
5.30498e-06
5.19301e-06
5.08369e-06
4.97694e-06
4.8727e-06
4.77087e-06
4.67139e-06
4.5742e-06
4.47921e-06
4.38638e-06
4.29563e-06
4.20692e-06
4.12018e-06
4.03537e-06
3.95242e-06
3.87129e-06
3.79194e-06
3.71431e-06
3.63837e-06
3.56407e-06
3.49138e-06
3.42024e-06
3.35063e-06
3.28252e-06
3.21585e-06
3.15061e-06
3.08676e-06
3.02427e-06
2.96309e-06
2.90321e-06
2.84457e-06
2.78714e-06
2.73089e-06
2.67577e-06
2.62174e-06
2.56875e-06
2.51673e-06
2.46564e-06
2.41543e-06
2.36603e-06
2.31739e-06
2.26944e-06
2.22213e-06
2.17539e-06
2.12916e-06
2.08338e-06
2.03801e-06
1.99301e-06
1.94832e-06
1.9039e-06
1.85973e-06
1.81575e-06
1.77196e-06
1.72833e-06
1.68485e-06
1.64153e-06
1.59835e-06
1.55532e-06
1.51243e-06
1.46969e-06
1.42711e-06
1.38472e-06
1.34256e-06
1.30065e-06
1.259e-06
1.21765e-06
1.1766e-06
1.13589e-06
1.09554e-06
1.05562e-06
1.01615e-06
9.77195e-07
9.38773e-07
9.00905e-07
8.63606e-07
8.26892e-07
7.90794e-07
7.55356e-07
7.20627e-07
6.86653e-07
6.53467e-07
6.21085e-07
5.89506e-07
5.58726e-07
5.28748e-07
4.9959e-07
4.71284e-07
4.43872e-07
4.17388e-07
3.91853e-07
3.67266e-07
3.43609e-07
3.20857e-07
2.98989e-07
2.77998e-07
2.57893e-07
2.38692e-07
2.20417e-07
2.03078e-07
1.86669e-07
1.71163e-07
1.56525e-07
1.42713e-07
1.29692e-07
1.17441e-07
1.05951e-07
9.52217e-08
8.52525e-08
7.60362e-08
6.75528e-08
5.97684e-08
5.26391e-08
4.61167e-08
4.01556e-08
3.47179e-08
2.97756e-08
2.53094e-08
2.13053e-08
1.77495e-08
1.46245e-08
1.19063e-08
9.56368e-09
7.56028e-09
5.85681e-09
4.41427e-09
3.19658e-09
2.1722e-09
1.31454e-09
6.0136e-10
1.37963e-11
-4.64999e-10
-8.50761e-10
-1.1586e-09
-1.40314e-09
-1.59802e-09
-1.75553e-09
-1.88607e-09
-1.99792e-09
-2.09717e-09
-2.18791e-09
-2.27268e-09
-2.35289e-09
-2.42929e-09
-2.50233e-09
-2.5724e-09
-2.63999e-09
-2.70565e-09
-2.77e-09
-2.83361e-09
-2.89696e-09
-2.96039e-09
-3.02411e-09
-3.08816e-09
-3.15251e-09
-3.21704e-09
-3.28164e-09
-3.34622e-09
-3.41068e-09
-3.47501e-09
-3.53921e-09
-3.6033e-09
-3.66732e-09
-3.73134e-09
-3.79536e-09
-3.85943e-09
-3.92354e-09
-3.98772e-09
-4.05194e-09
-4.1162e-09
-4.18049e-09
-4.24479e-09
-4.3091e-09
-4.37341e-09
-4.43771e-09
-4.50202e-09
-4.56632e-09
-4.63063e-09
-4.69494e-09
-4.75928e-09
-4.82361e-09
-4.88796e-09
-4.95232e-09
-5.0167e-09
-5.0811e-09
-5.1455e-09
-5.20993e-09
-5.27437e-09
-5.33882e-09
-5.40328e-09
-5.46775e-09
-5.53224e-09
-5.59674e-09
-5.66125e-09
-5.72578e-09
-5.79031e-09
-5.85489e-09
-5.91943e-09
-5.98403e-09
-6.04863e-09
-6.11325e-09
-6.17786e-09
-6.24252e-09
-6.30716e-09
-6.37186e-09
-6.43651e-09
-6.50125e-09
-6.56593e-09
-6.6307e-09
-6.6954e-09
-6.76023e-09
-6.82495e-09
-6.88982e-09
-6.95455e-09
-7.01948e-09
-7.0842e-09
-7.14919e-09
-7.21393e-09
-7.27898e-09
-7.34371e-09
-7.40883e-09
-7.47354e-09
-7.53876e-09
-7.60345e-09
-7.66877e-09
-7.7334e-09
-7.79885e-09
-7.86342e-09
-7.92903e-09
-7.99348e-09
-8.05929e-09
-8.12358e-09
-8.18963e-09
-8.25374e-09
-8.32009e-09
-8.3839e-09
-8.45064e-09
-8.5141e-09
-8.58131e-09
-8.64431e-09
-8.71214e-09
-8.77451e-09
-8.8431e-09
-8.90467e-09
-8.97424e-09
-9.03477e-09
-9.1056e-09
-9.16477e-09
-9.2372e-09
-9.29462e-09
-9.36907e-09
-9.42426e-09
-9.50133e-09
-9.5536e-09
-9.63399e-09
-9.68254e-09
-9.76718e-09
-9.81097e-09
-9.90101e-09
-9.9387e-09
-1.00356e-08
-1.00656e-08
-1.01712e-08
-1.01913e-08
-1.03079e-08
-1.03156e-08
-1.0446e-08
-1.04381e-08
-1.05858e-08
-1.05585e-08
-1.07273e-08
-1.06764e-08
-1.08709e-08
-1.07916e-08
-1.10164e-08
-1.0904e-08
-1.11632e-08
-1.10146e-08
-1.13098e-08
-1.11255e-08
-1.14527e-08
-1.12424e-08
-1.15846e-08
-1.13783e-08
-1.16908e-08
-1.15614e-08
-1.17413e-08
-1.18547e-08
-1.1672e-08
-1.24022e-08
-1.13294e-08
-1.35412e-08
-1.02479e-08
-1.60637e-08
-6.31968e-09
-2.15031e-08
2.09975e-08
-1.27311e-08
-1.27311e-08
-0.125293
0.125293
0.0249359
0.00835803
0.00427801
0.00266153
0.00183374
0.00134636
0.00103389
0.000821713
0.000671396
0.000561259
0.000478242
0.000414095
0.00036342
0.000322585
0.000289089
0.000261173
0.000237581
0.000217395
0.000199939
0.000184701
0.00017129
0.000159405
0.000148805
0.0001393
0.000130734
0.000122982
0.000115938
0.000109515
0.000103638
9.8245e-05
9.32825e-05
8.87039e-05
8.44694e-05
8.05441e-05
7.68975e-05
7.35031e-05
7.03373e-05
6.73793e-05
6.46107e-05
6.20152e-05
5.9578e-05
5.72861e-05
5.51277e-05
5.30924e-05
5.11704e-05
4.93533e-05
4.76332e-05
4.6003e-05
4.44564e-05
4.29874e-05
4.15907e-05
4.02615e-05
3.89951e-05
3.77875e-05
3.6635e-05
3.5534e-05
3.44813e-05
3.34741e-05
3.25095e-05
3.1585e-05
3.06983e-05
2.98472e-05
2.90298e-05
2.8244e-05
2.74883e-05
2.67609e-05
2.60604e-05
2.53854e-05
2.47344e-05
2.41064e-05
2.35002e-05
2.29146e-05
2.23487e-05
2.18015e-05
2.12721e-05
2.07598e-05
2.02637e-05
1.97831e-05
1.93172e-05
1.88656e-05
1.84274e-05
1.80022e-05
1.75894e-05
1.71885e-05
1.6799e-05
1.64205e-05
1.60525e-05
1.56945e-05
1.53463e-05
1.50074e-05
1.46776e-05
1.43563e-05
1.40435e-05
1.37386e-05
1.34416e-05
1.3152e-05
1.28697e-05
1.25943e-05
1.23257e-05
1.20637e-05
1.1808e-05
1.15584e-05
1.13147e-05
1.10768e-05
1.08444e-05
1.06175e-05
1.03958e-05
1.01791e-05
9.96744e-06
9.76055e-06
9.55831e-06
9.36061e-06
9.16732e-06
8.97831e-06
8.79348e-06
8.6127e-06
8.43588e-06
8.2629e-06
8.09369e-06
7.92814e-06
7.76616e-06
7.60766e-06
7.45257e-06
7.30079e-06
7.15226e-06
7.00689e-06
6.86463e-06
6.72538e-06
6.58906e-06
6.45561e-06
6.32493e-06
6.19694e-06
6.07155e-06
5.94868e-06
5.8282e-06
5.71001e-06
5.59399e-06
5.48001e-06
5.36795e-06
5.25768e-06
5.14907e-06
5.04199e-06
4.93629e-06
4.83183e-06
4.72849e-06
4.62614e-06
4.52467e-06
4.424e-06
4.32401e-06
4.22463e-06
4.12575e-06
4.02733e-06
3.92929e-06
3.83162e-06
3.7343e-06
3.63732e-06
3.54067e-06
3.44435e-06
3.34835e-06
3.2527e-06
3.15745e-06
3.06263e-06
2.96833e-06
2.87461e-06
2.78151e-06
2.68907e-06
2.59735e-06
2.5064e-06
2.41631e-06
2.32718e-06
2.2391e-06
2.15218e-06
2.06648e-06
1.98204e-06
1.89889e-06
1.81708e-06
1.73667e-06
1.65776e-06
1.58046e-06
1.50488e-06
1.43107e-06
1.35906e-06
1.28886e-06
1.22046e-06
1.15388e-06
1.08914e-06
1.02634e-06
9.65544e-07
9.06834e-07
8.50248e-07
7.9578e-07
7.43389e-07
6.93022e-07
6.44637e-07
5.9822e-07
5.53792e-07
5.11393e-07
4.71064e-07
4.32822e-07
3.96647e-07
3.6248e-07
3.30238e-07
2.99833e-07
2.71192e-07
2.44269e-07
2.19045e-07
1.95515e-07
1.73677e-07
1.53508e-07
1.34958e-07
1.17951e-07
1.02388e-07
8.81633e-08
7.51781e-08
6.33508e-08
5.26206e-08
4.29447e-08
3.42902e-08
2.66239e-08
1.99038e-08
1.40738e-08
9.06335e-09
4.79067e-09
1.16901e-09
-1.88693e-09
-4.45558e-09
-6.60537e-09
-8.39398e-09
-9.86975e-09
-1.1074e-08
-1.20438e-08
-1.28135e-08
-1.34165e-08
-1.38844e-08
-1.42469e-08
-1.45304e-08
-1.4757e-08
-1.49442e-08
-1.51048e-08
-1.52475e-08
-1.53774e-08
-1.54975e-08
-1.56093e-08
-1.57139e-08
-1.58122e-08
-1.59052e-08
-1.59941e-08
-1.60803e-08
-1.6165e-08
-1.62493e-08
-1.63337e-08
-1.64188e-08
-1.65045e-08
-1.65908e-08
-1.66776e-08
-1.67644e-08
-1.68511e-08
-1.69376e-08
-1.70237e-08
-1.71096e-08
-1.71953e-08
-1.72807e-08
-1.73662e-08
-1.74517e-08
-1.75372e-08
-1.76229e-08
-1.77087e-08
-1.77945e-08
-1.78805e-08
-1.79664e-08
-1.80524e-08
-1.81384e-08
-1.82244e-08
-1.83103e-08
-1.83962e-08
-1.84821e-08
-1.85681e-08
-1.8654e-08
-1.87399e-08
-1.88258e-08
-1.89118e-08
-1.89978e-08
-1.90838e-08
-1.91698e-08
-1.92558e-08
-1.93419e-08
-1.94279e-08
-1.9514e-08
-1.96001e-08
-1.96862e-08
-1.97723e-08
-1.98585e-08
-1.99446e-08
-2.00308e-08
-2.0117e-08
-2.02032e-08
-2.02894e-08
-2.03757e-08
-2.04619e-08
-2.05482e-08
-2.06345e-08
-2.07208e-08
-2.08071e-08
-2.08935e-08
-2.09798e-08
-2.10663e-08
-2.11527e-08
-2.12392e-08
-2.13255e-08
-2.14121e-08
-2.14985e-08
-2.15852e-08
-2.16715e-08
-2.17583e-08
-2.18447e-08
-2.19315e-08
-2.20179e-08
-2.21048e-08
-2.21911e-08
-2.22783e-08
-2.23645e-08
-2.24518e-08
-2.25379e-08
-2.26254e-08
-2.27114e-08
-2.27992e-08
-2.2885e-08
-2.29731e-08
-2.30586e-08
-2.31471e-08
-2.32323e-08
-2.33212e-08
-2.3406e-08
-2.34956e-08
-2.35797e-08
-2.36701e-08
-2.37534e-08
-2.38448e-08
-2.39271e-08
-2.40197e-08
-2.41007e-08
-2.4195e-08
-2.42742e-08
-2.43705e-08
-2.44475e-08
-2.45465e-08
-2.46205e-08
-2.47229e-08
-2.47932e-08
-2.48999e-08
-2.49653e-08
-2.50776e-08
-2.51368e-08
-2.52561e-08
-2.53073e-08
-2.54357e-08
-2.54767e-08
-2.56167e-08
-2.56446e-08
-2.57992e-08
-2.58105e-08
-2.59837e-08
-2.5974e-08
-2.61707e-08
-2.61343e-08
-2.63605e-08
-2.62908e-08
-2.65538e-08
-2.64426e-08
-2.6751e-08
-2.6589e-08
-2.69523e-08
-2.67295e-08
-2.71577e-08
-2.6864e-08
-2.73659e-08
-2.69942e-08
-2.75736e-08
-2.7125e-08
-2.77735e-08
-2.72684e-08
-2.79502e-08
-2.74516e-08
-2.80725e-08
-2.77348e-08
-2.80775e-08
-2.82523e-08
-2.78304e-08
-2.93101e-08
-2.70093e-08
-3.16243e-08
-2.46361e-08
-3.68627e-08
-1.62686e-08
-4.8109e-08
4.07715e-08
-2.96354e-08
-2.96354e-08
-0.146488
0.146488
0.0383105
0.0142341
0.00745603
0.00467276
0.00323056
0.00237654
0.00182709
0.00145307
0.00118763
0.000992893
0.000845969
0.000732374
0.000642606
0.00057026
0.000510919
0.000461472
0.000419692
0.000383956
0.000353062
0.000326101
0.000302382
0.000281365
0.000262626
0.000245826
0.00023069
0.000216993
0.00020455
0.000193204
0.000182825
0.000173302
0.00016454
0.000156456
0.00014898
0.000142051
0.000135614
0.000129622
0.000124035
0.000118814
0.000113928
0.000109347
0.000105046
0.000101002
9.71935e-05
9.36019e-05
9.02107e-05
8.70045e-05
8.39696e-05
8.10935e-05
7.83648e-05
7.57732e-05
7.33091e-05
7.09641e-05
6.873e-05
6.65998e-05
6.45667e-05
6.26245e-05
6.07677e-05
5.8991e-05
5.72895e-05
5.56589e-05
5.40949e-05
5.25938e-05
5.1152e-05
4.97662e-05
4.84334e-05
4.71506e-05
4.59152e-05
4.47247e-05
4.35767e-05
4.24693e-05
4.14001e-05
4.03675e-05
3.93696e-05
3.84048e-05
3.74714e-05
3.6568e-05
3.56932e-05
3.48458e-05
3.40245e-05
3.32281e-05
3.24557e-05
3.1706e-05
3.09783e-05
3.02715e-05
2.95849e-05
2.89176e-05
2.82688e-05
2.76379e-05
2.70241e-05
2.64267e-05
2.58453e-05
2.52791e-05
2.47276e-05
2.41903e-05
2.36668e-05
2.31564e-05
2.26588e-05
2.21736e-05
2.17002e-05
2.12384e-05
2.07878e-05
2.03479e-05
1.99186e-05
1.94993e-05
1.90899e-05
1.869e-05
1.82993e-05
1.79176e-05
1.75446e-05
1.71801e-05
1.68238e-05
1.64755e-05
1.61349e-05
1.58019e-05
1.54763e-05
1.51578e-05
1.48463e-05
1.45416e-05
1.42435e-05
1.39519e-05
1.36666e-05
1.33874e-05
1.31142e-05
1.28468e-05
1.25852e-05
1.23291e-05
1.20785e-05
1.18332e-05
1.15931e-05
1.13579e-05
1.11277e-05
1.09022e-05
1.06812e-05
1.04647e-05
1.02523e-05
1.0044e-05
9.8394e-06
9.63839e-06
9.44072e-06
9.24617e-06
9.05451e-06
8.86549e-06
8.67887e-06
8.4944e-06
8.31185e-06
8.13102e-06
7.95173e-06
7.7738e-06
7.59706e-06
7.42135e-06
7.24654e-06
7.0725e-06
6.89914e-06
6.72643e-06
6.55435e-06
6.38286e-06
6.21198e-06
6.04169e-06
5.87199e-06
5.70293e-06
5.53459e-06
5.36707e-06
5.20048e-06
5.03495e-06
4.87054e-06
4.70735e-06
4.54545e-06
4.38497e-06
4.22604e-06
4.06884e-06
3.91357e-06
3.76036e-06
3.60933e-06
3.46056e-06
3.31411e-06
3.17007e-06
3.02854e-06
2.88972e-06
2.75377e-06
2.62087e-06
2.49112e-06
2.36459e-06
2.24126e-06
2.12113e-06
2.00423e-06
1.89063e-06
1.78047e-06
1.67387e-06
1.57098e-06
1.47183e-06
1.37642e-06
1.28467e-06
1.1965e-06
1.11183e-06
1.03065e-06
9.52995e-07
8.78929e-07
8.08517e-07
7.41779e-07
6.7867e-07
6.19086e-07
5.6288e-07
5.09903e-07
4.60031e-07
4.13186e-07
3.69334e-07
3.28465e-07
2.90565e-07
2.55588e-07
2.23441e-07
1.93985e-07
1.67047e-07
1.42443e-07
1.20004e-07
9.95899e-08
8.10956e-08
6.44457e-08
4.95797e-08
3.64352e-08
2.49341e-08
1.4974e-08
6.42856e-09
-8.46177e-10
-7.00157e-09
-1.21852e-08
-1.65323e-08
-2.01602e-08
-2.31684e-08
-2.564e-08
-2.76467e-08
-2.92527e-08
-3.05179e-08
-3.15e-08
-3.22536e-08
-3.28295e-08
-3.32725e-08
-3.36202e-08
-3.3902e-08
-3.41392e-08
-3.43462e-08
-3.45315e-08
-3.47e-08
-3.48545e-08
-3.49966e-08
-3.5128e-08
-3.52505e-08
-3.53662e-08
-3.54775e-08
-3.55864e-08
-3.56945e-08
-3.58031e-08
-3.59127e-08
-3.60235e-08
-3.61352e-08
-3.62476e-08
-3.636e-08
-3.64723e-08
-3.65841e-08
-3.66953e-08
-3.68061e-08
-3.69164e-08
-3.70266e-08
-3.71366e-08
-3.72467e-08
-3.73569e-08
-3.74673e-08
-3.75779e-08
-3.76886e-08
-3.77994e-08
-3.79103e-08
-3.80212e-08
-3.8132e-08
-3.82429e-08
-3.83537e-08
-3.84644e-08
-3.85751e-08
-3.86859e-08
-3.87966e-08
-3.89073e-08
-3.9018e-08
-3.91288e-08
-3.92395e-08
-3.93503e-08
-3.94611e-08
-3.9572e-08
-3.96828e-08
-3.97937e-08
-3.99046e-08
-4.00155e-08
-4.01265e-08
-4.02374e-08
-4.03484e-08
-4.04593e-08
-4.05703e-08
-4.06813e-08
-4.07924e-08
-4.09034e-08
-4.10145e-08
-4.11256e-08
-4.12367e-08
-4.13478e-08
-4.14591e-08
-4.15702e-08
-4.16815e-08
-4.17927e-08
-4.19041e-08
-4.20152e-08
-4.21267e-08
-4.22379e-08
-4.23495e-08
-4.24606e-08
-4.25723e-08
-4.26835e-08
-4.27953e-08
-4.29065e-08
-4.30184e-08
-4.31295e-08
-4.32417e-08
-4.33527e-08
-4.3465e-08
-4.35759e-08
-4.36886e-08
-4.37993e-08
-4.39123e-08
-4.40227e-08
-4.41361e-08
-4.42462e-08
-4.43601e-08
-4.44698e-08
-4.45844e-08
-4.46934e-08
-4.48088e-08
-4.4917e-08
-4.50335e-08
-4.51407e-08
-4.52584e-08
-4.53642e-08
-4.54837e-08
-4.55877e-08
-4.57093e-08
-4.58111e-08
-4.59354e-08
-4.60342e-08
-4.6162e-08
-4.62569e-08
-4.63892e-08
-4.64791e-08
-4.66172e-08
-4.67007e-08
-4.68461e-08
-4.69214e-08
-4.70762e-08
-4.71409e-08
-4.73078e-08
-4.73588e-08
-4.7541e-08
-4.75747e-08
-4.77765e-08
-4.77879e-08
-4.80147e-08
-4.79978e-08
-4.82562e-08
-4.82034e-08
-4.85018e-08
-4.84036e-08
-4.87523e-08