# vtk DataFile Version 2.0
FlowField
ASCII
DATASET STRUCTURED_GRID
DIMENSIONS 400 1 200
POINTS 80000 float
0 0 0
0.08 0 0
0.16 0 0
0.24 0 0
0.32 0 0
0.4 0 0
0.48 0 0
0.56 0 0
0.64 0 0
0.72 0 0
0.8 0 0
0.88 0 0
0.96 0 0
1.04 0 0
1.12 0 0
1.2 0 0
1.28 0 0
1.36 0 0
1.44 0 0
1.52 0 0
1.6 0 0
1.68 0 0
1.76 0 0
1.84 0 0
1.92 0 0
2 0 0
2.08 0 0
2.16 0 0
2.24 0 0
2.32 0 0
2.4 0 0
2.48 0 0
2.56 0 0
2.64 0 0
2.72 0 0
2.8 0 0
2.88 0 0
2.96 0 0
3.04 0 0
3.12 0 0
3.2 0 0
3.28 0 0
3.36 0 0
3.44 0 0
3.52 0 0
3.6 0 0
3.68 0 0
3.76 0 0
3.84 0 0
3.92 0 0
4 0 0
4.08 0 0
4.16 0 0
4.24 0 0
4.32 0 0
4.4 0 0
4.48 0 0
4.56 0 0
4.64 0 0
4.72 0 0
4.8 0 0
4.88 0 0
4.96 0 0
5.04 0 0
5.12 0 0
5.2 0 0
5.28 0 0
5.36 0 0
5.44 0 0
5.52 0 0
5.6 0 0
5.68 0 0
5.76 0 0
5.84 0 0
5.92 0 0
6 0 0
6.08 0 0
6.16 0 0
6.24 0 0
6.32 0 0
6.4 0 0
6.48 0 0
6.56 0 0
6.64 0 0
6.72 0 0
6.8 0 0
6.88 0 0
6.96 0 0
7.04 0 0
7.12 0 0
7.2 0 0
7.28 0 0
7.36 0 0
7.44 0 0
7.52 0 0
7.6 0 0
7.68 0 0
7.76 0 0
7.84 0 0
7.92 0 0
8 0 0
8.08 0 0
8.16 0 0
8.24 0 0
8.32 0 0
8.4 0 0
8.48 0 0
8.56 0 0
8.64 0 0
8.72 0 0
8.8 0 0
8.88 0 0
8.96 0 0
9.04 0 0
9.12 0 0
9.2 0 0
9.28 0 0
9.36 0 0
9.44 0 0
9.52 0 0
9.6 0 0
9.68 0 0
9.76 0 0
9.84 0 0
9.92 0 0
10 0 0
10.08 0 0
10.16 0 0
10.24 0 0
10.32 0 0
10.4 0 0
10.48 0 0
10.56 0 0
10.64 0 0
10.72 0 0
10.8 0 0
10.88 0 0
10.96 0 0
11.04 0 0
11.12 0 0
11.2 0 0
11.28 0 0
11.36 0 0
11.44 0 0
11.52 0 0
11.6 0 0
11.68 0 0
11.76 0 0
11.84 0 0
11.92 0 0
12 0 0
12.08 0 0
12.16 0 0
12.24 0 0
12.32 0 0
12.4 0 0
12.48 0 0
12.56 0 0
12.64 0 0
12.72 0 0
12.8 0 0
12.88 0 0
12.96 0 0
13.04 0 0
13.12 0 0
13.2 0 0
13.28 0 0
13.36 0 0
13.44 0 0
13.52 0 0
13.6 0 0
13.68 0 0
13.76 0 0
13.84 0 0
13.92 0 0
14 0 0
14.08 0 0
14.16 0 0
14.24 0 0
14.32 0 0
14.4 0 0
14.48 0 0
14.56 0 0
14.64 0 0
14.72 0 0
14.8 0 0
14.88 0 0
14.96 0 0
15.04 0 0
15.12 0 0
15.2 0 0
15.28 0 0
15.36 0 0
15.44 0 0
15.52 0 0
15.6 0 0
15.68 0 0
15.76 0 0
15.84 0 0
15.92 0 0
16 0 0
16.08 0 0
16.16 0 0
16.24 0 0
16.32 0 0
16.4 0 0
16.48 0 0
16.56 0 0
16.64 0 0
16.72 0 0
16.8 0 0
16.88 0 0
16.96 0 0
17.04 0 0
17.12 0 0
17.2 0 0
17.28 0 0
17.36 0 0
17.44 0 0
17.52 0 0
17.6 0 0
17.68 0 0
17.76 0 0
17.84 0 0
17.92 0 0
18 0 0
18.08 0 0
18.16 0 0
18.24 0 0
18.32 0 0
18.4 0 0
18.48 0 0
18.56 0 0
18.64 0 0
18.72 0 0
18.8 0 0
18.88 0 0
18.96 0 0
19.04 0 0
19.12 0 0
19.2 0 0
19.28 0 0
19.36 0 0
19.44 0 0
19.52 0 0
19.6 0 0
19.68 0 0
19.76 0 0
19.84 0 0
19.92 0 0
20 0 0
20.08 0 0
20.16 0 0
20.24 0 0
20.32 0 0
20.4 0 0
20.48 0 0
20.56 0 0
20.64 0 0
20.72 0 0
20.8 0 0
20.88 0 0
20.96 0 0
21.04 0 0
21.12 0 0
21.2 0 0
21.28 0 0
21.36 0 0
21.44 0 0
21.52 0 0
21.6 0 0
21.68 0 0
21.76 0 0
21.84 0 0
21.92 0 0
22 0 0
22.08 0 0
22.16 0 0
22.24 0 0
22.32 0 0
22.4 0 0
22.48 0 0
22.56 0 0
22.64 0 0
22.72 0 0
22.8 0 0
22.88 0 0
22.96 0 0
23.04 0 0
23.12 0 0
23.2 0 0
23.28 0 0
23.36 0 0
23.44 0 0
23.52 0 0
23.6 0 0
23.68 0 0
23.76 0 0
23.84 0 0
23.92 0 0
24 0 0
24.08 0 0
24.16 0 0
24.24 0 0
24.32 0 0
24.4 0 0
24.48 0 0
24.56 0 0
24.64 0 0
24.72 0 0
24.8 0 0
24.88 0 0
24.96 0 0
25.04 0 0
25.12 0 0
25.2 0 0
25.28 0 0
25.36 0 0
25.44 0 0
25.52 0 0
25.6 0 0
25.68 0 0
25.76 0 0
25.84 0 0
25.92 0 0
26 0 0
26.08 0 0
26.16 0 0
26.24 0 0
26.32 0 0
26.4 0 0
26.48 0 0
26.56 0 0
26.64 0 0
26.72 0 0
26.8 0 0
26.88 0 0
26.96 0 0
27.04 0 0
27.12 0 0
27.2 0 0
27.28 0 0
27.36 0 0
27.44 0 0
27.52 0 0
27.6 0 0
27.68 0 0
27.76 0 0
27.84 0 0
27.92 0 0
28 0 0
28.08 0 0
28.16 0 0
28.24 0 0
28.32 0 0
28.4 0 0
28.48 0 0
28.56 0 0
28.64 0 0
28.72 0 0
28.8 0 0
28.88 0 0
28.96 0 0
29.04 0 0
29.12 0 0
29.2 0 0
29.28 0 0
29.36 0 0
29.44 0 0
29.52 0 0
29.6 0 0
29.68 0 0
29.76 0 0
29.84 0 0
29.92 0 0
30 0 0
30.08 0 0
30.16 0 0
30.24 0 0
30.32 0 0
30.4 0 0
30.48 0 0
30.56 0 0
30.64 0 0
30.72 0 0
30.8 0 0
30.88 0 0
30.96 0 0
31.04 0 0
31.12 0 0
31.2 0 0
31.28 0 0
31.36 0 0
31.44 0 0
31.52 0 0
31.6 0 0
31.68 0 0
31.76 0 0
31.84 0 0
31.92 0 0
0 0.005 0
0.08 0.005 0
0.16 0.005 0
0.24 0.005 0
0.32 0.005 0
0.4 0.005 0
0.48 0.005 0
0.56 0.005 0
0.64 0.005 0
0.72 0.005 0
0.8 0.005 0
0.88 0.005 0
0.96 0.005 0
1.04 0.005 0
1.12 0.005 0
1.2 0.005 0
1.28 0.005 0
1.36 0.005 0
1.44 0.005 0
1.52 0.005 0
1.6 0.005 0
1.68 0.005 0
1.76 0.005 0
1.84 0.005 0
1.92 0.005 0
2 0.005 0
2.08 0.005 0
2.16 0.005 0
2.24 0.005 0
2.32 0.005 0
2.4 0.005 0
2.48 0.005 0
2.56 0.005 0
2.64 0.005 0
2.72 0.005 0
2.8 0.005 0
2.88 0.005 0
2.96 0.005 0
3.04 0.005 0
3.12 0.005 0
3.2 0.005 0
3.28 0.005 0
3.36 0.005 0
3.44 0.005 0
3.52 0.005 0
3.6 0.005 0
3.68 0.005 0
3.76 0.005 0
3.84 0.005 0
3.92 0.005 0
4 0.005 0
4.08 0.005 0
4.16 0.005 0
4.24 0.005 0
4.32 0.005 0
4.4 0.005 0
4.48 0.005 0
4.56 0.005 0
4.64 0.005 0
4.72 0.005 0
4.8 0.005 0
4.88 0.005 0
4.96 0.005 0
5.04 0.005 0
5.12 0.005 0
5.2 0.005 0
5.28 0.005 0
5.36 0.005 0
5.44 0.005 0
5.52 0.005 0
5.6 0.005 0
5.68 0.005 0
5.76 0.005 0
5.84 0.005 0
5.92 0.005 0
6 0.005 0
6.08 0.005 0
6.16 0.005 0
6.24 0.005 0
6.32 0.005 0
6.4 0.005 0
6.48 0.005 0
6.56 0.005 0
6.64 0.005 0
6.72 0.005 0
6.8 0.005 0
6.88 0.005 0
6.96 0.005 0
7.04 0.005 0
7.12 0.005 0
7.2 0.005 0
7.28 0.005 0
7.36 0.005 0
7.44 0.005 0
7.52 0.005 0
7.6 0.005 0
7.68 0.005 0
7.76 0.005 0
7.84 0.005 0
7.92 0.005 0
8 0.005 0
8.08 0.005 0
8.16 0.005 0
8.24 0.005 0
8.32 0.005 0
8.4 0.005 0
8.48 0.005 0
8.56 0.005 0
8.64 0.005 0
8.72 0.005 0
8.8 0.005 0
8.88 0.005 0
8.96 0.005 0
9.04 0.005 0
9.12 0.005 0
9.2 0.005 0
9.28 0.005 0
9.36 0.005 0
9.44 0.005 0
9.52 0.005 0
9.6 0.005 0
9.68 0.005 0
9.76 0.005 0
9.84 0.005 0
9.92 0.005 0
10 0.005 0
10.08 0.005 0
10.16 0.005 0
10.24 0.005 0
10.32 0.005 0
10.4 0.005 0
10.48 0.005 0
10.56 0.005 0
10.64 0.005 0
10.72 0.005 0
10.8 0.005 0
10.88 0.005 0
10.96 0.005 0
11.04 0.005 0
11.12 0.005 0
11.2 0.005 0
11.28 0.005 0
11.36 0.005 0
11.44 0.005 0
11.52 0.005 0
11.6 0.005 0
11.68 0.005 0
11.76 0.005 0
11.84 0.005 0
11.92 0.005 0
12 0.005 0
12.08 0.005 0
12.16 0.005 0
12.24 0.005 0
12.32 0.005 0
12.4 0.005 0
12.48 0.005 0
12.56 0.005 0
12.64 0.005 0
12.72 0.005 0
12.8 0.005 0
12.88 0.005 0
12.96 0.005 0
13.04 0.005 0
13.12 0.005 0
13.2 0.005 0
13.28 0.005 0
13.36 0.005 0
13.44 0.005 0
13.52 0.005 0
13.6 0.005 0
13.68 0.005 0
13.76 0.005 0
13.84 0.005 0
13.92 0.005 0
14 0.005 0
14.08 0.005 0
14.16 0.005 0
14.24 0.005 0
14.32 0.005 0
14.4 0.005 0
14.48 0.005 0
14.56 0.005 0
14.64 0.005 0
14.72 0.005 0
14.8 0.005 0
14.88 0.005 0
14.96 0.005 0
15.04 0.005 0
15.12 0.005 0
15.2 0.005 0
15.28 0.005 0
15.36 0.005 0
15.44 0.005 0
15.52 0.005 0
15.6 0.005 0
15.68 0.005 0
15.76 0.005 0
15.84 0.005 0
15.92 0.005 0
16 0.005 0
16.08 0.005 0
16.16 0.005 0
16.24 0.005 0
16.32 0.005 0
16.4 0.005 0
16.48 0.005 0
16.56 0.005 0
16.64 0.005 0
16.72 0.005 0
16.8 0.005 0
16.88 0.005 0
16.96 0.005 0
17.04 0.005 0
17.12 0.005 0
17.2 0.005 0
17.28 0.005 0
17.36 0.005 0
17.44 0.005 0
17.52 0.005 0
17.6 0.005 0
17.68 0.005 0
17.76 0.005 0
17.84 0.005 0
17.92 0.005 0
18 0.005 0
18.08 0.005 0
18.16 0.005 0
18.24 0.005 0
18.32 0.005 0
18.4 0.005 0
18.48 0.005 0
18.56 0.005 0
18.64 0.005 0
18.72 0.005 0
18.8 0.005 0
18.88 0.005 0
18.96 0.005 0
19.04 0.005 0
19.12 0.005 0
19.2 0.005 0
19.28 0.005 0
19.36 0.005 0
19.44 0.005 0
19.52 0.005 0
19.6 0.005 0
19.68 0.005 0
19.76 0.005 0
19.84 0.005 0
19.92 0.005 0
20 0.005 0
20.08 0.005 0
20.16 0.005 0
20.24 0.005 0
20.32 0.005 0
20.4 0.005 0
20.48 0.005 0
20.56 0.005 0
20.64 0.005 0
20.72 0.005 0
20.8 0.005 0
20.88 0.005 0
20.96 0.005 0
21.04 0.005 0
21.12 0.005 0
21.2 0.005 0
21.28 0.005 0
21.36 0.005 0
21.44 0.005 0
21.52 0.005 0
21.6 0.005 0
21.68 0.005 0
21.76 0.005 0
21.84 0.005 0
21.92 0.005 0
22 0.005 0
22.08 0.005 0
22.16 0.005 0
22.24 0.005 0
22.32 0.005 0
22.4 0.005 0
22.48 0.005 0
22.56 0.005 0
22.64 0.005 0
22.72 0.005 0
22.8 0.005 0
22.88 0.005 0
22.96 0.005 0
23.04 0.005 0
23.12 0.005 0
23.2 0.005 0
23.28 0.005 0
23.36 0.005 0
23.44 0.005 0
23.52 0.005 0
23.6 0.005 0
23.68 0.005 0
23.76 0.005 0
23.84 0.005 0
23.92 0.005 0
24 0.005 0
24.08 0.005 0
24.16 0.005 0
24.24 0.005 0
24.32 0.005 0
24.4 0.005 0
24.48 0.005 0
24.56 0.005 0
24.64 0.005 0
24.72 0.005 0
24.8 0.005 0
24.88 0.005 0
24.96 0.005 0
25.04 0.005 0
25.12 0.005 0
25.2 0.005 0
25.28 0.005 0
25.36 0.005 0
25.44 0.005 0
25.52 0.005 0
25.6 0.005 0
25.68 0.005 0
25.76 0.005 0
25.84 0.005 0
25.92 0.005 0
26 0.005 0
26.08 0.005 0
26.16 0.005 0
26.24 0.005 0
26.32 0.005 0
26.4 0.005 0
26.48 0.005 0
26.56 0.005 0
26.64 0.005 0
26.72 0.005 0
26.8 0.005 0
26.88 0.005 0
26.96 0.005 0
27.04 0.005 0
27.12 0.005 0
27.2 0.005 0
27.28 0.005 0
27.36 0.005 0
27.44 0.005 0
27.52 0.005 0
27.6 0.005 0
27.68 0.005 0
27.76 0.005 0
27.84 0.005 0
27.92 0.005 0
28 0.005 0
28.08 0.005 0
28.16 0.005 0
28.24 0.005 0
28.32 0.005 0
28.4 0.005 0
28.48 0.005 0
28.56 0.005 0
28.64 0.005 0
28.72 0.005 0
28.8 0.005 0
28.88 0.005 0
28.96 0.005 0
29.04 0.005 0
29.12 0.005 0
29.2 0.005 0
29.28 0.005 0
29.36 0.005 0
29.44 0.005 0
29.52 0.005 0
29.6 0.005 0
29.68 0.005 0
29.76 0.005 0
29.84 0.005 0
29.92 0.005 0
30 0.005 0
30.08 0.005 0
30.16 0.005 0
30.24 0.005 0
30.32 0.005 0
30.4 0.005 0
30.48 0.005 0
30.56 0.005 0
30.64 0.005 0
30.72 0.005 0
30.8 0.005 0
30.88 0.005 0
30.96 0.005 0
31.04 0.005 0
31.12 0.005 0
31.2 0.005 0
31.28 0.005 0
31.36 0.005 0
31.44 0.005 0
31.52 0.005 0
31.6 0.005 0
31.68 0.005 0
31.76 0.005 0
31.84 0.005 0
31.92 0.005 0
0 0.01 0
0.08 0.01 0
0.16 0.01 0
0.24 0.01 0
0.32 0.01 0
0.4 0.01 0
0.48 0.01 0
0.56 0.01 0
0.64 0.01 0
0.72 0.01 0
0.8 0.01 0
0.88 0.01 0
0.96 0.01 0
1.04 0.01 0
1.12 0.01 0
1.2 0.01 0
1.28 0.01 0
1.36 0.01 0
1.44 0.01 0
1.52 0.01 0
1.6 0.01 0
1.68 0.01 0
1.76 0.01 0
1.84 0.01 0
1.92 0.01 0
2 0.01 0
2.08 0.01 0
2.16 0.01 0
2.24 0.01 0
2.32 0.01 0
2.4 0.01 0
2.48 0.01 0
2.56 0.01 0
2.64 0.01 0
2.72 0.01 0
2.8 0.01 0
2.88 0.01 0
2.96 0.01 0
3.04 0.01 0
3.12 0.01 0
3.2 0.01 0
3.28 0.01 0
3.36 0.01 0
3.44 0.01 0
3.52 0.01 0
3.6 0.01 0
3.68 0.01 0
3.76 0.01 0
3.84 0.01 0
3.92 0.01 0
4 0.01 0
4.08 0.01 0
4.16 0.01 0
4.24 0.01 0
4.32 0.01 0
4.4 0.01 0
4.48 0.01 0
4.56 0.01 0
4.64 0.01 0
4.72 0.01 0
4.8 0.01 0
4.88 0.01 0
4.96 0.01 0
5.04 0.01 0
5.12 0.01 0
[...]
POINT_DATA 80000

SCALARS v float 1
LOOKUP_TABLE default
0
0
0
0
0
0
0
0
0
0
0
0
0
0
0
0
0
0
0
0
0
0
0
0
0
0
0
0
0
0
0
0
0
0
0
0
0
0
0
0
0
0
0
0
0
0
0
0
0
0
0
0
0
0
0
0
0
0
0
0
0
0
0
0
0
0
0
0
0
0
0
0
0
0
0
0
0
0
0
0
0
0
0
0
0
0
0
0
0
0
0
0
0
0
0
0
0
0
0
0
0
0
0
0
0
0
0
0
0
0
0
0
0
0
0
0
0
0
0
0
0
0
0
0
0
0
0
0
0
0
0
0
0
0
0
0
0
0
0
0
0
0
0
0
0
0
0
0
0
0
0
0
0
0
0
0
0
0
0
0
0
0
0
0
0
0
0
0
0
0
0
0
0
0
0
0
0
0
0
0
0
0
0
0
0
0
0
0
0
0
0
0
0
0
0
0
0
0
0
0
0
0
0
0
0
0
0
0
0
0
0
0
0
0
0
0
0
0
0
0
0
0
0
0
0
0
0
0
0
0
0
0
0
0
0
0
0
0
0
0
0
0
0
0
0
0
0
0
0
0
0
0
0
0
0
0
0
0
0
0
0
0
0
0
0
0
0
0
0
0
0
0
0
0
0
0
0
0
0
0
0
0
0
0
0
0
0
0
0
0
0
0
0
0
0
0
0
0
0
0
0
0
0
0
0
0
0
0
0
0
0
0
0
0
0
0
0
0
0
0
0
0
0
0
0
0
0
0
0
0
0
0
0
0
0
0
0
0
0
0
0
0
0
0
0
0
0
0
0
0
0
0
0
0
0
0
0
0
0
0
0
0
0
0
0
0
0
0
0
0
0
0
0
0
0
0
0
0
0
0
0
0
0
0
0
0
0
0
0
0
0
0
0
0
0
0
0
0
0
0
-0.0542711
0.0542711
0.0039621
0.000998331
0.000492262
0.000302698
0.000207322
0.000151693
0.000116252
9.22954e-05
7.53822e-05
6.30216e-05
5.37212e-05
4.65427e-05
4.08749e-05
3.63078e-05
3.25602e-05
2.94352e-05
2.67922e-05
2.4529e-05
2.25701e-05
2.08588e-05
1.93515e-05
1.80147e-05
1.68216e-05
1.57512e-05
1.4786e-05
1.39121e-05
1.31177e-05
1.23931e-05
1.17299e-05
1.11211e-05
1.05608e-05
1.00437e-05
9.56536e-06
9.12188e-06
8.70982e-06
8.3262e-06
7.96836e-06
7.63397e-06
7.32096e-06
7.02747e-06
6.75187e-06
6.49267e-06
6.24855e-06
6.01831e-06
5.80089e-06
5.59531e-06
5.4007e-06
5.21625e-06
5.04123e-06
4.87499e-06
4.71693e-06
4.56648e-06
4.42314e-06
4.28645e-06
4.15598e-06
4.03134e-06
3.91216e-06
3.79811e-06
3.68889e-06
3.58421e-06
3.4838e-06
3.38742e-06
3.29484e-06
3.20584e-06
3.12024e-06
3.03785e-06
2.9585e-06
2.88202e-06
2.80828e-06
2.73712e-06
2.66843e-06
2.60208e-06
2.53795e-06
2.47594e-06
2.41595e-06
2.35788e-06
2.30165e-06
2.24717e-06
2.19436e-06
2.14316e-06
2.09349e-06
2.04528e-06
1.99847e-06
1.95302e-06
1.90885e-06
1.86592e-06
1.82418e-06
1.78359e-06
1.74409e-06
1.70565e-06
1.66823e-06
1.63179e-06
1.5963e-06
1.56172e-06
1.52802e-06
1.49516e-06
1.46313e-06
1.43188e-06
1.40141e-06
1.37167e-06
1.34265e-06
1.31433e-06
1.28667e-06
1.25967e-06
1.2333e-06
1.20754e-06
1.18238e-06
1.15779e-06
1.13376e-06
1.11028e-06
1.08733e-06
1.06489e-06
1.04294e-06
1.02149e-06
1.00051e-06
9.79984e-07
9.5991e-07
9.40273e-07
9.21061e-07
9.02263e-07
8.83868e-07
8.65867e-07
8.48251e-07
8.31008e-07
8.14131e-07
7.9761e-07
7.81438e-07
7.65604e-07
7.50103e-07
7.34925e-07
7.20063e-07
7.05511e-07
6.9126e-07
6.77304e-07
6.63637e-07
6.50252e-07
6.37142e-07
6.24302e-07
6.11725e-07
5.99406e-07
5.87339e-07
5.75518e-07
5.63939e-07
5.52596e-07
5.41484e-07
5.30598e-07
5.19934e-07
5.09486e-07
4.9925e-07
4.89222e-07
4.79397e-07
4.69772e-07
4.60341e-07
4.51101e-07
4.42048e-07
4.33178e-07
4.24488e-07
4.15974e-07
4.07632e-07
3.99459e-07
3.91451e-07
3.83606e-07
3.7592e-07
3.68391e-07
3.61014e-07
3.53787e-07
3.46707e-07
3.39771e-07
3.32976e-07
3.26318e-07
3.19796e-07
3.13404e-07
3.07141e-07
3.01003e-07
2.94986e-07
2.89086e-07
2.83301e-07
2.77625e-07
2.72055e-07
2.66587e-07
2.61217e-07
2.5594e-07
2.50753e-07
2.45649e-07
2.40626e-07
2.35678e-07
2.30802e-07
2.25993e-07
2.21247e-07
2.1656e-07
2.11927e-07
2.07346e-07
2.02812e-07
1.98322e-07
1.93874e-07
1.89464e-07
1.8509e-07
1.8075e-07
1.76441e-07
1.72162e-07
1.67911e-07
1.63688e-07
1.59492e-07
1.55321e-07
1.51177e-07
1.47058e-07
1.42965e-07
1.38899e-07
1.34861e-07
1.30852e-07
1.26873e-07
1.22925e-07
1.19011e-07
1.15132e-07
1.1129e-07
1.07487e-07
1.03727e-07
1.00011e-07
9.63425e-08
9.27237e-08
8.91568e-08
8.56442e-08
8.21886e-08
7.87928e-08
7.54598e-08
7.21923e-08
6.89926e-08
6.58628e-08
6.28044e-08
5.9819e-08
5.69083e-08
5.40739e-08
5.13178e-08
4.86419e-08
4.60476e-08
4.35358e-08
4.1107e-08
3.87611e-08
3.6498e-08
3.43178e-08
3.22208e-08
3.02074e-08
2.82778e-08
2.64323e-08
2.46702e-08
2.29904e-08
2.13915e-08
1.98719e-08
1.84298e-08
1.70639e-08
1.5773e-08
1.45561e-08
1.3412e-08
1.23389e-08
1.13349e-08
1.03973e-08
9.52346e-09
8.71045e-09
7.95558e-09
7.25641e-09
6.61075e-09
6.0165e-09
5.47157e-09
4.97362e-09
4.5201e-09
4.1082e-09
3.73495e-09
3.39744e-09
3.09291e-09
2.81884e-09
2.573e-09
2.35338e-09
2.15812e-09
1.98539e-09
1.83331e-09
1.69996e-09
1.58337e-09
1.48155e-09
1.39267e-09
1.31501e-09
1.24703e-09
1.18744e-09
1.13513e-09
1.08912e-09
1.04855e-09
1.01266e-09
9.80689e-10
9.51962e-10
9.25863e-10
9.01792e-10
8.79307e-10
8.58002e-10
8.37584e-10
8.17835e-10
7.98601e-10
7.79793e-10
7.61318e-10
7.43124e-10
7.25148e-10
7.07334e-10
6.89655e-10
6.72046e-10
6.54477e-10
6.36912e-10
6.19372e-10
6.018e-10
5.84231e-10
5.66639e-10
5.49074e-10
5.31495e-10
5.13942e-10
4.96372e-10
4.7882e-10
4.61262e-10
4.43715e-10
4.26141e-10
4.08587e-10
3.91008e-10
3.73449e-10
3.55843e-10
3.38271e-10
3.20648e-10
3.03087e-10
2.85442e-10
2.67882e-10
2.50232e-10
2.32678e-10
2.15006e-10
1.97457e-10
1.79763e-10
1.62215e-10
1.44488e-10
1.26968e-10
1.09204e-10
9.16897e-11
7.38987e-11
5.64239e-11
3.85747e-11
2.11407e-11
3.22318e-12
-1.41458e-11
-3.2156e-11
-4.94488e-11
-6.75544e-11
-8.47479e-11
-1.0298e-10
-1.20052e-10
-1.38446e-10
-1.55348e-10
-1.73941e-10
-1.9063e-10
-2.09492e-10
-2.2589e-10
-2.45091e-10
-2.61117e-10
-2.8074e-10
-2.96311e-10
-3.16461e-10
-3.31427e-10
-3.52272e-10
-3.66478e-10
-3.88176e-10
-4.01415e-10
-4.24201e-10
-4.36209e-10
-4.60355e-10
-4.70826e-10
-4.96669e-10
-5.0525e-10
-5.3315e-10
-5.39404e-10
-5.69827e-10
-5.73281e-10
-6.06648e-10
-6.06883e-10
-6.43576e-10
-6.40276e-10
-6.80429e-10
-6.73673e-10
-7.16821e-10
-7.07646e-10
-7.52014e-10
-7.43485e-10
-7.84487e-10
-7.84042e-10
-8.11181e-10
-8.35703e-10
-8.25632e-10
-9.13137e-10
-8.12354e-10
-1.05096e-09
-7.24492e-10
-1.33151e-09
-3.49288e-10
-1.92524e-09
2.43462e-09
-1.04994e-09
-1.04994e-09
-0.0952159
0.0952159
0.0129756
0.00385462
0.00193431
0.0011962
0.000821743
0.000602316
0.000462069
0.000367043
0.000299833
0.000250647
0.000213604
0.000184996
0.000162402
0.000144197
0.000129262
0.000116812
0.000106287
9.72782e-05
8.9485e-05
8.26798e-05
7.66889e-05
7.13775e-05
6.66392e-05
6.23892e-05
5.85585e-05
5.50908e-05
5.19393e-05
4.90651e-05
4.64351e-05
4.40215e-05
4.18001e-05
3.97505e-05
3.78547e-05
3.60971e-05
3.44643e-05
3.29443e-05
3.15265e-05
3.02018e-05
2.89618e-05
2.77993e-05
2.67076e-05
2.5681e-05
2.47142e-05
2.38024e-05
2.29414e-05
2.21273e-05
2.13567e-05
2.06263e-05
1.99334e-05
1.92752e-05
1.86494e-05
1.80537e-05
1.74863e-05
1.69452e-05
1.64287e-05
1.59353e-05
1.54636e-05
1.50121e-05
1.45798e-05
1.41655e-05
1.37681e-05
1.33866e-05
1.30202e-05
1.26681e-05
1.23293e-05
1.20033e-05
1.16893e-05
1.13867e-05
1.10949e-05
1.08133e-05
1.05415e-05
1.0279e-05
1.00253e-05
9.77995e-06
9.54262e-06
9.3129e-06
9.09045e-06
8.87494e-06
8.66606e-06
8.46352e-06
8.26704e-06
8.07637e-06
7.89125e-06
7.71146e-06
7.53678e-06
7.36701e-06
7.20195e-06
7.04142e-06
6.88524e-06
6.73325e-06
6.58528e-06
6.4412e-06
6.30086e-06
6.16413e-06
6.03088e-06
5.90099e-06
5.77435e-06
5.65084e-06
5.53036e-06
5.41281e-06
5.2981e-06
5.18614e-06
5.07683e-06
4.97011e-06
4.86588e-06
4.76408e-06
4.66463e-06
4.56746e-06
4.4725e-06
4.3797e-06
4.28899e-06
4.20032e-06
4.11362e-06
4.02884e-06
3.94593e-06
3.86485e-06
3.78554e-06
3.70795e-06
3.63205e-06
3.55778e-06
3.48511e-06
3.414e-06
3.34441e-06
3.2763e-06
3.20963e-06
3.14437e-06
3.08049e-06
3.01795e-06
2.95672e-06
2.89677e-06
2.83807e-06
2.7806e-06
2.72432e-06
2.6692e-06
2.61522e-06
2.56236e-06
2.51059e-06
2.45988e-06
2.41022e-06
2.36157e-06
2.31392e-06
2.26725e-06
2.22153e-06
2.17674e-06
2.13286e-06
2.08988e-06
2.04777e-06
2.00652e-06
1.96611e-06
1.92652e-06
1.88773e-06
1.84973e-06
1.81249e-06
1.77602e-06
1.74028e-06
1.70526e-06
1.67096e-06
1.63734e-06
1.60441e-06
1.57215e-06
1.54054e-06
1.50958e-06
1.47924e-06
1.44951e-06
1.42039e-06
1.39187e-06
1.36392e-06
1.33654e-06
1.30971e-06
1.28343e-06
1.25768e-06
1.23244e-06
1.20771e-06
1.18347e-06
1.15971e-06
1.1364e-06
1.11354e-06
1.09112e-06
1.0691e-06
1.04749e-06
1.02625e-06
1.00538e-06
9.84856e-07
9.64659e-07
9.44773e-07
9.2518e-07
9.05865e-07
8.86808e-07
8.67995e-07
8.49407e-07
8.31031e-07
8.12852e-07
7.94856e-07
7.77031e-07
7.59365e-07
7.41846e-07
7.24466e-07
7.07214e-07
6.90084e-07
6.7307e-07
6.56167e-07
6.39372e-07
6.22681e-07
6.06093e-07
5.89606e-07
5.73222e-07
5.56942e-07
5.40769e-07
5.24708e-07
5.08765e-07
4.92943e-07
4.7725e-07
4.61691e-07
4.46275e-07
4.31009e-07
4.15905e-07
4.00973e-07
3.86223e-07
3.71665e-07
3.57309e-07
3.43163e-07
3.29239e-07
3.15545e-07
3.02095e-07
2.88899e-07
2.75968e-07
2.63312e-07
2.50936e-07
2.3885e-07
2.27057e-07
2.15566e-07
2.04382e-07
1.93514e-07
1.82967e-07
1.72749e-07
1.62861e-07
1.53306e-07
1.44082e-07
1.3519e-07
1.2663e-07
1.18403e-07
1.10511e-07
1.02953e-07
9.57306e-08
8.88402e-08
8.22775e-08
7.60363e-08
7.01099e-08
6.44921e-08
5.91773e-08
5.41607e-08
4.94377e-08
4.50027e-08
4.0849e-08
3.69679e-08
3.33491e-08
2.99814e-08
2.68537e-08
2.39552e-08
2.12764e-08
1.88083e-08
1.65426e-08
1.44706e-08
1.25828e-08
1.08687e-08
9.31719e-09
7.9166e-09
6.65541e-09
5.52284e-09
4.50911e-09
3.60545e-09
2.80393e-09
2.0971e-09
1.47765e-09
9.38101e-10
4.70792e-10
6.7944e-11
-2.78107e-10
-5.74575e-10
-8.2809e-10
-1.04445e-09
-1.22868e-09
-1.38508e-09
-1.51739e-09
-1.62894e-09
-1.72278e-09
-1.80175e-09
-1.86847e-09
-1.9254e-09
-1.97465e-09
-2.01801e-09
-2.05694e-09
-2.09256e-09
-2.12565e-09
-2.15675e-09
-2.1863e-09
-2.21456e-09
-2.24178e-09
-2.26817e-09
-2.29392e-09
-2.31922e-09
-2.34425e-09
-2.3691e-09
-2.39392e-09
-2.41872e-09
-2.44357e-09
-2.4684e-09
-2.49326e-09
-2.51809e-09
-2.54292e-09
-2.56766e-09
-2.59244e-09
-2.61712e-09
-2.64185e-09
-2.66651e-09
-2.69127e-09
-2.71594e-09
-2.74075e-09
-2.76542e-09
-2.79026e-09
-2.81495e-09
-2.83983e-09
-2.8645e-09
-2.8894e-09
-2.91404e-09
-2.93897e-09
-2.96358e-09
-2.98857e-09
-3.01313e-09
-3.03819e-09
-3.06269e-09
-3.08785e-09
-3.11227e-09
-3.13755e-09
-3.16187e-09
-3.18729e-09
-3.21147e-09
-3.23705e-09
-3.26105e-09
-3.28686e-09
-3.31063e-09
-3.33671e-09
-3.36018e-09
-3.38664e-09
-3.40972e-09
-3.43663e-09
-3.4592e-09
-3.48671e-09
-3.50863e-09
-3.53688e-09
-3.55797e-09
-3.58717e-09
-3.60718e-09
-3.63762e-09
-3.65625e-09
-3.68825e-09
-3.7051e-09
-3.73908e-09
-3.7537e-09
-3.7902e-09
-3.80193e-09
-3.84163e-09
-3.84972e-09
-3.89345e-09
-3.89696e-09
-3.94574e-09
-3.9435e-09
-3.99857e-09
-3.9892e-09
-4.05199e-09
-4.0339e-09
-4.10606e-09
-4.07749e-09
-4.16067e-09
-4.11997e-09
-4.21559e-09
-4.16159e-09
-4.27018e-09
-4.20318e-09
-4.32306e-09
-4.24679e-09
-4.37145e-09
-4.29719e-09
-4.40978e-09
-4.36499e-09
-4.42686e-09
-4.47394e-09
-4.39906e-09
-4.67854e-09
-4.26996e-09
-5.10712e-09
-3.86834e-09
-6.06175e-09
-2.41142e-09
-8.12869e-09
7.807e-09
-4.87671e-09
-4.87671e-09
-0.125293
0.125293
0.0249359
0.00835802
0.004278
0.00266152
0.00183374
0.00134635
0.00103389
0.000821706
0.000671389
0.000561252
0.000478234
0.000414087
0.000363413
0.000322578
0.000289082
0.000261166
0.000237573
0.000217388
0.000199931
0.000184693
0.000171283
0.000159398
0.000148798
0.000139292
0.000130727
0.000122975
0.00011593
0.000109507
0.00010363
9.82375e-05
9.32749e-05
8.86964e-05
8.44618e-05
8.05365e-05
7.689e-05
7.34955e-05
7.03297e-05
6.73717e-05
6.46031e-05
6.20076e-05
5.95704e-05
5.72785e-05
5.51201e-05
5.30847e-05
5.11627e-05
4.93456e-05
4.76255e-05
4.59953e-05
4.44487e-05
4.29797e-05
4.1583e-05
4.02537e-05
3.89873e-05
3.77797e-05
3.66271e-05
3.55261e-05
3.44735e-05
3.34662e-05
3.25015e-05
3.1577e-05
3.06903e-05
2.98392e-05
2.90217e-05
2.8236e-05
2.74802e-05
2.67528e-05
2.60523e-05
2.53772e-05
2.47262e-05
2.40982e-05
2.34919e-05
2.29063e-05
2.23403e-05
2.17931e-05
2.12637e-05
2.07513e-05
2.02552e-05
1.97745e-05
1.93086e-05
1.88569e-05
1.84187e-05
1.79935e-05
1.75807e-05
1.71797e-05
1.67902e-05
1.64116e-05
1.60436e-05
1.56856e-05
1.53373e-05
1.49984e-05
1.46685e-05
1.43473e-05
1.40344e-05
1.37296e-05
1.34325e-05
1.31429e-05
1.28606e-05
1.25853e-05
1.23167e-05
1.20546e-05
1.17989e-05
1.15494e-05
1.13057e-05
1.10679e-05
1.08356e-05
1.06086e-05
1.0387e-05
1.01704e-05
9.95881e-06
9.752e-06
9.54984e-06
9.35223e-06
9.15902e-06
8.97011e-06
8.78536e-06
8.60468e-06
8.42795e-06
8.25507e-06
8.08594e-06
7.92047e-06
7.75856e-06
7.60012e-06
7.44507e-06
7.29332e-06
7.14479e-06
6.99941e-06
6.85709e-06
6.71776e-06
6.58136e-06
6.44782e-06
6.31706e-06
6.18903e-06
6.06366e-06
5.94089e-06
5.82066e-06
5.70291e-06
5.58759e-06
5.47465e-06
5.36403e-06
5.25568e-06
5.14955e-06
5.04559e-06
4.94376e-06
4.84401e-06
4.74629e-06
4.65057e-06
4.5568e-06
4.46493e-06
4.37493e-06
4.28676e-06
4.20038e-06
4.11575e-06
4.03284e-06
3.95161e-06
3.87202e-06
3.79405e-06
3.71766e-06
3.64281e-06
3.56949e-06
3.49765e-06
3.42727e-06
3.35831e-06
3.29076e-06
3.22458e-06
3.15974e-06
3.09622e-06
3.03399e-06
2.97302e-06
2.91329e-06
2.85476e-06
2.79741e-06
2.74121e-06
2.68613e-06
2.63214e-06
2.5792e-06
2.52729e-06
2.47636e-06
2.42638e-06
2.37733e-06
2.32915e-06
2.28181e-06
2.23528e-06
2.1895e-06
2.14446e-06
2.10009e-06
2.05638e-06
2.01327e-06
1.97073e-06
1.92873e-06
1.88722e-06
1.84618e-06
1.80557e-06
1.76536e-06
1.72553e-06
1.68605e-06
1.64689e-06
1.60804e-06
1.56947e-06
1.53117e-06
1.49313e-06
1.45533e-06
1.41778e-06
1.38046e-06
1.34337e-06
1.30651e-06
1.26988e-06
1.23348e-06
1.19733e-06
1.16144e-06
1.12581e-06
1.09046e-06
1.0554e-06
1.02065e-06
9.86225e-07
9.52145e-07
9.18433e-07
8.85112e-07
8.52207e-07
8.19738e-07
7.87728e-07
7.56197e-07
7.25167e-07
6.94663e-07
6.6471e-07
6.35333e-07
6.06555e-07
5.78396e-07
5.50873e-07
5.24e-07
4.97791e-07
4.7226e-07
4.47423e-07
4.23296e-07
3.99893e-07
3.77226e-07
3.553e-07
3.34119e-07
3.13683e-07
2.9399e-07
2.75041e-07
2.56838e-07
2.39383e-07
2.22678e-07
2.0672e-07
1.91504e-07
1.77018e-07
1.63249e-07
1.50182e-07
1.37803e-07
1.26098e-07
1.15058e-07
1.04671e-07
9.49237e-08
8.5801e-08
7.72826e-08
6.93454e-08
6.19645e-08
5.51149e-08
4.87731e-08
4.29175e-08
3.75284e-08
3.25865e-08
2.80722e-08
2.3964e-08
2.02383e-08
1.68702e-08
1.38336e-08
1.11034e-08
8.65571e-09
6.46906e-09
4.52409e-09
2.80321e-09
1.28978e-09
-3.2604e-11
-1.18058e-09
-2.17122e-09
-3.0217e-09
-3.74882e-09
-4.36839e-09
-4.89481e-09
-5.34068e-09
-5.71696e-09
-6.03298e-09
-6.29691e-09
-6.51604e-09
-6.69704e-09
-6.84608e-09
-6.96897e-09
-7.07088e-09
-7.15644e-09
-7.22948e-09
-7.29309e-09
-7.34961e-09
-7.40074e-09
-7.44765e-09
-7.49118e-09
-7.53197e-09
-7.57054e-09
-7.60732e-09
-7.64277e-09
-7.67728e-09
-7.71122e-09
-7.74481e-09
-7.77834e-09
-7.8118e-09
-7.84534e-09
-7.87888e-09
-7.91246e-09
-7.94594e-09
-7.97943e-09
-8.01274e-09
-8.0461e-09
-8.07926e-09
-8.11254e-09
-8.14565e-09
-8.17896e-09
-8.21207e-09
-8.24546e-09
-8.27861e-09
-8.31209e-09
-8.34523e-09
-8.37877e-09
-8.41186e-09
-8.44545e-09
-8.47845e-09
-8.51211e-09
-8.54503e-09
-8.5788e-09
-8.61161e-09
-8.64553e-09
-8.67821e-09
-8.71231e-09
-8.74482e-09
-8.77914e-09
-8.81143e-09
-8.84604e-09
-8.87804e-09
-8.91302e-09
-8.9446e-09
-8.98004e-09
-9.01112e-09
-9.04715e-09
-9.07757e-09
-9.11437e-09
-9.14395e-09
-9.18174e-09
-9.21024e-09
-9.24926e-09
-9.27636e-09
-9.31698e-09
-9.34226e-09
-9.38492e-09
-9.4079e-09
-9.45317e-09
-9.47318e-09
-9.52179e-09
-9.538e-09
-9.59084e-09
-9.60222e-09
-9.66044e-09
-9.66566e-09
-9.73072e-09
-9.72815e-09
-9.80179e-09
-9.7894e-09
-9.87385e-09
-9.84914e-09
-9.94704e-09
-9.90704e-09
-1.00215e-08
-9.96279e-09
-1.00972e-08
-1.00161e-08
-1.01742e-08
-1.0067e-08
-1.02517e-08
-1.01159e-08
-1.03285e-08
-1.01647e-08
-1.04017e-08
-1.02177e-08
-1.04653e-08
-1.02849e-08
-1.05077e-08
-1.0389e-08
-1.05053e-08
-1.05805e-08
-1.04083e-08
-1.09753e-08
-1.00987e-08
-1.1846e-08
-9.21696e-09
-1.38292e-08
-6.11378e-09
-1.81055e-08
1.52224e-08
-1.12637e-08
-1.12637e-08
-0.146488
0.146488
0.0383105
0.014234
0.00745603
0.00467275
0.00323055
0.00237653
0.00182708
0.00145306
0.00118763
0.000992885
0.000845961
0.000732366
0.000642598
0.000570252
0.00051091
0.000461463
0.000419684
0.000383948
0.000353053
0.000326093
0.000302373
0.000281356
0.000262618
0.000245817
0.000230681
0.000216984
0.000204541
0.000193195
0.000182817
0.000173294
0.000164531
0.000156447
0.000148972
0.000142042
0.000135605
0.000129614
0.000124026
0.000118805
0.000113919
0.000109338
0.000105038
0.000100993
9.71845e-05
9.35929e-05
9.02016e-05
8.69954e-05
8.39605e-05
8.10844e-05
7.83557e-05
7.5764e-05
7.32999e-05
7.09548e-05
6.87208e-05
6.65905e-05
6.45574e-05
6.26152e-05
6.07583e-05
5.89815e-05
5.728e-05
5.56494e-05
5.40854e-05
5.25842e-05
5.11424e-05
4.97565e-05
4.84236e-05
4.71407e-05
4.59053e-05
4.47147e-05
4.35667e-05
4.24592e-05
4.139e-05
4.03573e-05
3.93594e-05
3.83944e-05
3.7461e-05
3.65575e-05
3.56827e-05
3.48352e-05
3.40138e-05
3.32174e-05
3.24448e-05
3.16951e-05
3.09673e-05
3.02605e-05
2.95738e-05
2.89064e-05
2.82576e-05
2.76266e-05
2.70127e-05
2.64153e-05
2.58338e-05
2.52676e-05
2.47161e-05
2.41788e-05
2.36552e-05
2.31449e-05
2.26473e-05
2.2162e-05
2.16887e-05
2.1227e-05
2.07763e-05
2.03366e-05
1.99072e-05
1.9488e-05
1.90787e-05
1.86789e-05
1.82883e-05
1.79068e-05
1.75339e-05
1.71695e-05
1.68133e-05
1.64652e-05
1.61248e-05
1.5792e-05
1.54665e-05
1.51482e-05
1.48369e-05
1.45323e-05
1.42344e-05
1.39429e-05
1.36577e-05
1.33786e-05
1.31055e-05
1.28382e-05
1.25766e-05
1.23206e-05
1.20699e-05
1.18245e-05
1.15843e-05
1.13491e-05
1.11188e-05
1.08933e-05
1.06725e-05
1.04563e-05
1.02446e-05
1.00372e-05
9.83415e-06
9.63526e-06
9.44046e-06
9.24966e-06
9.06278e-06
8.87973e-06
8.70042e-06
8.52478e-06
8.35272e-06
8.18417e-06
8.01906e-06
7.85731e-06
7.69885e-06
7.54361e-06
7.39152e-06
7.24252e-06
7.09655e-06
6.95353e-06
6.81342e-06
6.67615e-06
6.54166e-06
6.4099e-06
6.28081e-06
6.15434e-06
6.03043e-06
5.90905e-06
5.79012e-06
5.67361e-06
5.55947e-06
5.44765e-06
5.33809e-06
5.23076e-06
5.1256e-06
5.02256e-06
4.92159e-06
4.82264e-06
4.72566e-06
4.63058e-06
4.53736e-06
4.44592e-06
4.35622e-06
4.26819e-06
4.18176e-06
4.09687e-06
4.01345e-06
3.93144e-06
3.85075e-06
3.77133e-06
3.69311e-06
3.61601e-06
3.53997e-06
3.46493e-06
3.39081e-06
3.31757e-06
3.24513e-06
3.17344e-06
3.10245e-06
3.03212e-06
2.9624e-06
2.89325e-06
2.82462e-06
2.7565e-06
2.68885e-06
2.62165e-06
2.55489e-06
2.48855e-06
2.42263e-06
2.35712e-06
2.29201e-06
2.22732e-06
2.16305e-06
2.09922e-06
2.03585e-06
1.97296e-06
1.91057e-06
1.8487e-06
1.78739e-06
1.72666e-06
1.66656e-06
1.60711e-06
1.54837e-06
1.49038e-06
1.43317e-06
1.37677e-06
1.32124e-06
1.26661e-06
1.21292e-06
1.16021e-06
1.10853e-06
1.05792e-06
1.00841e-06
9.60032e-07
9.12812e-07
8.66773e-07
8.2194e-07
7.7834e-07
7.36001e-07
6.94946e-07
6.55195e-07
6.16757e-07
5.79637e-07
5.43834e-07
5.09346e-07
4.76174e-07
4.44321e-07
4.1379e-07
3.84582e-07
3.56692e-07
3.30109e-07
3.04812e-07
2.80776e-07
2.57976e-07
2.36386e-07
2.15984e-07
1.96751e-07
1.78665e-07
1.61703e-07
1.45835e-07
1.31027e-07
1.17236e-07
1.04419e-07
9.25316e-08
8.15331e-08
7.13855e-08
6.20536e-08
5.35032e-08
4.56988e-08
3.86022e-08
3.21717e-08
2.63629e-08
2.11307e-08
1.64309e-08
1.22221e-08
8.46679e-09
5.13127e-09
2.18459e-09
-4.02542e-10
-2.65912e-09
-4.61443e-09
-6.29843e-09
-7.74108e-09
-8.97157e-09
-1.00172e-08
-1.09029e-08
-1.16502e-08
-1.22781e-08
-1.28026e-08
-1.32379e-08
-1.35966e-08
-1.38902e-08
-1.41295e-08
-1.43242e-08
-1.44835e-08
-1.46151e-08
-1.47256e-08
-1.48201e-08
-1.49026e-08
-1.49759e-08
-1.50421e-08
-1.51026e-08
-1.51584e-08
-1.52104e-08
-1.52594e-08
-1.53063e-08
-1.53515e-08
-1.53958e-08
-1.54395e-08
-1.54831e-08
-1.55267e-08
-1.55703e-08
-1.56139e-08
-1.56576e-08
-1.57011e-08
-1.57447e-08
-1.57879e-08
-1.58312e-08
-1.58741e-08
-1.59173e-08
-1.59601e-08
-1.60033e-08
-1.60462e-08
-1.60896e-08
-1.61325e-08
-1.6176e-08
-1.62189e-08
-1.62624e-08
-1.63052e-08
-1.63489e-08
-1.63915e-08
-1.64353e-08
-1.64778e-08
-1.65217e-08
-1.65641e-08
-1.66082e-08
-1.66503e-08
-1.66948e-08
-1.67366e-08
-1.67815e-08
-1.68229e-08
-1.68682e-08
-1.69091e-08
-1.69551e-08
-1.69953e-08
-1.7042e-08
-1.70813e-08
-1.71291e-08
-1.71673e-08
-1.72163e-08
-1.72531e-08
-1.73038e-08
-1.73387e-08
-1.73915e-08
-1.7424e-08
-1.74796e-08
-1.7509e-08
-1.7568e-08
-1.75935e-08
-1.76569e-08
-1.76774e-08
-1.77464e-08
-1.77604e-08
-1.78367e-08
-1.78424e-08
-1.79279e-08
-1.79231e-08
-1.80202e-08
-1.80022e-08
-1.81138e-08
-1.80791e-08
-1.82091e-08
-1.81534e-08
-1.83063e-08
-1.82245e-08
-1.84056e-08
-1.8292e-08
-1.85071e-08
-1.83552e-08
-1.86106e-08
-1.84143e-08