# vtk DataFile Version 2.0
FlowField
ASCII
DATASET STRUCTURED_GRID
DIMENSIONS 400 1 200
POINTS 80000 float
0 0 0
0.08 0 0
0.16 0 0
0.24 0 0
0.32 0 0
0.4 0 0
0.48 0 0
0.56 0 0
0.64 0 0
0.72 0 0
0.8 0 0
0.88 0 0
0.96 0 0
1.04 0 0
1.12 0 0
1.2 0 0
1.28 0 0
1.36 0 0
1.44 0 0
1.52 0 0
1.6 0 0
1.68 0 0
1.76 0 0
1.84 0 0
1.92 0 0
2 0 0
2.08 0 0
2.16 0 0
2.24 0 0
2.32 0 0
2.4 0 0
2.48 0 0
2.56 0 0
2.64 0 0
2.72 0 0
2.8 0 0
2.88 0 0
2.96 0 0
3.04 0 0
3.12 0 0
3.2 0 0
3.28 0 0
3.36 0 0
3.44 0 0
3.52 0 0
3.6 0 0
3.68 0 0
3.76 0 0
3.84 0 0
3.92 0 0
4 0 0
4.08 0 0
4.16 0 0
4.24 0 0
4.32 0 0
4.4 0 0
4.48 0 0
4.56 0 0
4.64 0 0
4.72 0 0
4.8 0 0
4.88 0 0
4.96 0 0
5.04 0 0
5.12 0 0
5.2 0 0
5.28 0 0
5.36 0 0
5.44 0 0
5.52 0 0
5.6 0 0
5.68 0 0
5.76 0 0
5.84 0 0
5.92 0 0
6 0 0
6.08 0 0
6.16 0 0
6.24 0 0
6.32 0 0
6.4 0 0
6.48 0 0
6.56 0 0
6.64 0 0
6.72 0 0
6.8 0 0
6.88 0 0
6.96 0 0
7.04 0 0
7.12 0 0
7.2 0 0
7.28 0 0
7.36 0 0
7.44 0 0
7.52 0 0
7.6 0 0
7.68 0 0
7.76 0 0
7.84 0 0
7.92 0 0
8 0 0
8.08 0 0
8.16 0 0
8.24 0 0
8.32 0 0
8.4 0 0
8.48 0 0
8.56 0 0
8.64 0 0
8.72 0 0
8.8 0 0
8.88 0 0
8.96 0 0
9.04 0 0
9.12 0 0
9.2 0 0
9.28 0 0
9.36 0 0
9.44 0 0
9.52 0 0
9.6 0 0
9.68 0 0
9.76 0 0
9.84 0 0
9.92 0 0
10 0 0
10.08 0 0
10.16 0 0
10.24 0 0
10.32 0 0
10.4 0 0
10.48 0 0
10.56 0 0
10.64 0 0
10.72 0 0
10.8 0 0
10.88 0 0
10.96 0 0
11.04 0 0
11.12 0 0
11.2 0 0
11.28 0 0
11.36 0 0
11.44 0 0
11.52 0 0
11.6 0 0
11.68 0 0
11.76 0 0
11.84 0 0
11.92 0 0
12 0 0
12.08 0 0
12.16 0 0
12.24 0 0
12.32 0 0
12.4 0 0
12.48 0 0
12.56 0 0
12.64 0 0
12.72 0 0
12.8 0 0
12.88 0 0
12.96 0 0
13.04 0 0
13.12 0 0
13.2 0 0
13.28 0 0
13.36 0 0
13.44 0 0
13.52 0 0
13.6 0 0
13.68 0 0
13.76 0 0
13.84 0 0
13.92 0 0
14 0 0
14.08 0 0
14.16 0 0
14.24 0 0
14.32 0 0
14.4 0 0
14.48 0 0
14.56 0 0
14.64 0 0
14.72 0 0
14.8 0 0
14.88 0 0
14.96 0 0
15.04 0 0
15.12 0 0
15.2 0 0
15.28 0 0
15.36 0 0
15.44 0 0
15.52 0 0
15.6 0 0
15.68 0 0
15.76 0 0
15.84 0 0
15.92 0 0
16 0 0
16.08 0 0
16.16 0 0
16.24 0 0
16.32 0 0
16.4 0 0
16.48 0 0
16.56 0 0
16.64 0 0
16.72 0 0
16.8 0 0
16.88 0 0
16.96 0 0
17.04 0 0
17.12 0 0
17.2 0 0
17.28 0 0
17.36 0 0
17.44 0 0
17.52 0 0
17.6 0 0
17.68 0 0
17.76 0 0
17.84 0 0
17.92 0 0
18 0 0
18.08 0 0
18.16 0 0
18.24 0 0
18.32 0 0
18.4 0 0
18.48 0 0
18.56 0 0
18.64 0 0
18.72 0 0
18.8 0 0
18.88 0 0
18.96 0 0
19.04 0 0
19.12 0 0
19.2 0 0
19.28 0 0
19.36 0 0
19.44 0 0
19.52 0 0
19.6 0 0
19.68 0 0
19.76 0 0
19.84 0 0
19.92 0 0
20 0 0
20.08 0 0
20.16 0 0
20.24 0 0
20.32 0 0
20.4 0 0
20.48 0 0
20.56 0 0
20.64 0 0
20.72 0 0
20.8 0 0
20.88 0 0
20.96 0 0
21.04 0 0
21.12 0 0
21.2 0 0
21.28 0 0
21.36 0 0
21.44 0 0
21.52 0 0
21.6 0 0
21.68 0 0
21.76 0 0
21.84 0 0
21.92 0 0
22 0 0
22.08 0 0
22.16 0 0
22.24 0 0
22.32 0 0
22.4 0 0
22.48 0 0
22.56 0 0
22.64 0 0
22.72 0 0
22.8 0 0
22.88 0 0
22.96 0 0
23.04 0 0
23.12 0 0
23.2 0 0
23.28 0 0
23.36 0 0
23.44 0 0
23.52 0 0
23.6 0 0
23.68 0 0
23.76 0 0
23.84 0 0
23.92 0 0
24 0 0
24.08 0 0
24.16 0 0
24.24 0 0
24.32 0 0
24.4 0 0
24.48 0 0
24.56 0 0
24.64 0 0
24.72 0 0
24.8 0 0
24.88 0 0
24.96 0 0
25.04 0 0
25.12 0 0
25.2 0 0
25.28 0 0
25.36 0 0
25.44 0 0
25.52 0 0
25.6 0 0
25.68 0 0
25.76 0 0
25.84 0 0
25.92 0 0
26 0 0
26.08 0 0
26.16 0 0
26.24 0 0
26.32 0 0
26.4 0 0
26.48 0 0
26.56 0 0
26.64 0 0
26.72 0 0
26.8 0 0
26.88 0 0
26.96 0 0
27.04 0 0
27.12 0 0
27.2 0 0
27.28 0 0
27.36 0 0
27.44 0 0
27.52 0 0
27.6 0 0
27.68 0 0
27.76 0 0
27.84 0 0
27.92 0 0
28 0 0
28.08 0 0
28.16 0 0
28.24 0 0
28.32 0 0
28.4 0 0
28.48 0 0
28.56 0 0
28.64 0 0
28.72 0 0
28.8 0 0
28.88 0 0
28.96 0 0
29.04 0 0
29.12 0 0
29.2 0 0
29.28 0 0
29.36 0 0
29.44 0 0
29.52 0 0
29.6 0 0
29.68 0 0
29.76 0 0
29.84 0 0
29.92 0 0
30 0 0
30.08 0 0
30.16 0 0
30.24 0 0
30.32 0 0
30.4 0 0
30.48 0 0
30.56 0 0
30.64 0 0
30.72 0 0
30.8 0 0
30.88 0 0
30.96 0 0
31.04 0 0
31.12 0 0
31.2 0 0
31.28 0 0
31.36 0 0
31.44 0 0
31.52 0 0
31.6 0 0
31.68 0 0
31.76 0 0
31.84 0 0
31.92 0 0
0 0.005 0
0.08 0.005 0
0.16 0.005 0
0.24 0.005 0
0.32 0.005 0
0.4 0.005 0
0.48 0.005 0
0.56 0.005 0
0.64 0.005 0
0.72 0.005 0
0.8 0.005 0
0.88 0.005 0
0.96 0.005 0
1.04 0.005 0
1.12 0.005 0
1.2 0.005 0
1.28 0.005 0
1.36 0.005 0
1.44 0.005 0
1.52 0.005 0
1.6 0.005 0
1.68 0.005 0
1.76 0.005 0
1.84 0.005 0
1.92 0.005 0
2 0.005 0
2.08 0.005 0
2.16 0.005 0
2.24 0.005 0
2.32 0.005 0
2.4 0.005 0
2.48 0.005 0
2.56 0.005 0
2.64 0.005 0
2.72 0.005 0
2.8 0.005 0
2.88 0.005 0
2.96 0.005 0
3.04 0.005 0
3.12 0.005 0
3.2 0.005 0
3.28 0.005 0
3.36 0.005 0
3.44 0.005 0
3.52 0.005 0
3.6 0.005 0
3.68 0.005 0
3.76 0.005 0
3.84 0.005 0
3.92 0.005 0
4 0.005 0
4.08 0.005 0
4.16 0.005 0
4.24 0.005 0
4.32 0.005 0
4.4 0.005 0
4.48 0.005 0
4.56 0.005 0
4.64 0.005 0
4.72 0.005 0
4.8 0.005 0
4.88 0.005 0
4.96 0.005 0
5.04 0.005 0
5.12 0.005 0
5.2 0.005 0
5.28 0.005 0
5.36 0.005 0
5.44 0.005 0
5.52 0.005 0
5.6 0.005 0
5.68 0.005 0
5.76 0.005 0
5.84 0.005 0
5.92 0.005 0
6 0.005 0
6.08 0.005 0
6.16 0.005 0
6.24 0.005 0
6.32 0.005 0
6.4 0.005 0
6.48 0.005 0
6.56 0.005 0
6.64 0.005 0
6.72 0.005 0
6.8 0.005 0
6.88 0.005 0
6.96 0.005 0
7.04 0.005 0
7.12 0.005 0
7.2 0.005 0
7.28 0.005 0
7.36 0.005 0
7.44 0.005 0
7.52 0.005 0
7.6 0.005 0
7.68 0.005 0
7.76 0.005 0
7.84 0.005 0
7.92 0.005 0
8 0.005 0
8.08 0.005 0
8.16 0.005 0
8.24 0.005 0
8.32 0.005 0
8.4 0.005 0
8.48 0.005 0
8.56 0.005 0
8.64 0.005 0
8.72 0.005 0
8.8 0.005 0
8.88 0.005 0
8.96 0.005 0
9.04 0.005 0
9.12 0.005 0
9.2 0.005 0
9.28 0.005 0
9.36 0.005 0
9.44 0.005 0
9.52 0.005 0
9.6 0.005 0
9.68 0.005 0
9.76 0.005 0
9.84 0.005 0
9.92 0.005 0
10 0.005 0
10.08 0.005 0
10.16 0.005 0
10.24 0.005 0
10.32 0.005 0
10.4 0.005 0
10.48 0.005 0
10.56 0.005 0
10.64 0.005 0
10.72 0.005 0
10.8 0.005 0
10.88 0.005 0
10.96 0.005 0
11.04 0.005 0
11.12 0.005 0
11.2 0.005 0
11.28 0.005 0
11.36 0.005 0
11.44 0.005 0
11.52 0.005 0
11.6 0.005 0
11.68 0.005 0
11.76 0.005 0
11.84 0.005 0
11.92 0.005 0
12 0.005 0
12.08 0.005 0
12.16 0.005 0
12.24 0.005 0
12.32 0.005 0
12.4 0.005 0
12.48 0.005 0
12.56 0.005 0
12.64 0.005 0
12.72 0.005 0
12.8 0.005 0
12.88 0.005 0
12.96 0.005 0
13.04 0.005 0
13.12 0.005 0
13.2 0.005 0
13.28 0.005 0
13.36 0.005 0
13.44 0.005 0
13.52 0.005 0
13.6 0.005 0
13.68 0.005 0
13.76 0.005 0
13.84 0.005 0
13.92 0.005 0
14 0.005 0
14.08 0.005 0
14.16 0.005 0
14.24 0.005 0
14.32 0.005 0
14.4 0.005 0
14.48 0.005 0
14.56 0.005 0
14.64 0.005 0
14.72 0.005 0
14.8 0.005 0
14.88 0.005 0
14.96 0.005 0
15.04 0.005 0
15.12 0.005 0
15.2 0.005 0
15.28 0.005 0
15.36 0.005 0
15.44 0.005 0
15.52 0.005 0
15.6 0.005 0
15.68 0.005 0
15.76 0.005 0
15.84 0.005 0
15.92 0.005 0
16 0.005 0
16.08 0.005 0
16.16 0.005 0
16.24 0.005 0
16.32 0.005 0
16.4 0.005 0
16.48 0.005 0
16.56 0.005 0
16.64 0.005 0
16.72 0.005 0
16.8 0.005 0
16.88 0.005 0
16.96 0.005 0
17.04 0.005 0
17.12 0.005 0
17.2 0.005 0
17.28 0.005 0
17.36 0.005 0
17.44 0.005 0
17.52 0.005 0
17.6 0.005 0
17.68 0.005 0
17.76 0.005 0
17.84 0.005 0
17.92 0.005 0
18 0.005 0
18.08 0.005 0
18.16 0.005 0
18.24 0.005 0
18.32 0.005 0
18.4 0.005 0
18.48 0.005 0
18.56 0.005 0
18.64 0.005 0
18.72 0.005 0
18.8 0.005 0
18.88 0.005 0
18.96 0.005 0
19.04 0.005 0
19.12 0.005 0
19.2 0.005 0
19.28 0.005 0
19.36 0.005 0
19.44 0.005 0
19.52 0.005 0
19.6 0.005 0
19.68 0.005 0
19.76 0.005 0
19.84 0.005 0
19.92 0.005 0
20 0.005 0
20.08 0.005 0
20.16 0.005 0
20.24 0.005 0
20.32 0.005 0
20.4 0.005 0
20.48 0.005 0
20.56 0.005 0
20.64 0.005 0
20.72 0.005 0
20.8 0.005 0
20.88 0.005 0
20.96 0.005 0
21.04 0.005 0
21.12 0.005 0
21.2 0.005 0
21.28 0.005 0
21.36 0.005 0
21.44 0.005 0
21.52 0.005 0
21.6 0.005 0
21.68 0.005 0
21.76 0.005 0
21.84 0.005 0
21.92 0.005 0
22 0.005 0
22.08 0.005 0
22.16 0.005 0
22.24 0.005 0
22.32 0.005 0
22.4 0.005 0
22.48 0.005 0
22.56 0.005 0
22.64 0.005 0
22.72 0.005 0
22.8 0.005 0
22.88 0.005 0
22.96 0.005 0
23.04 0.005 0
23.12 0.005 0
23.2 0.005 0
23.28 0.005 0
23.36 0.005 0
23.44 0.005 0
23.52 0.005 0
23.6 0.005 0
23.68 0.005 0
23.76 0.005 0
23.84 0.005 0
23.92 0.005 0
24 0.005 0
24.08 0.005 0
24.16 0.005 0
24.24 0.005 0
24.32 0.005 0
24.4 0.005 0
24.48 0.005 0
24.56 0.005 0
24.64 0.005 0
24.72 0.005 0
24.8 0.005 0
24.88 0.005 0
24.96 0.005 0
25.04 0.005 0
25.12 0.005 0
25.2 0.005 0
25.28 0.005 0
25.36 0.005 0
25.44 0.005 0
25.52 0.005 0
25.6 0.005 0
25.68 0.005 0
25.76 0.005 0
25.84 0.005 0
25.92 0.005 0
26 0.005 0
26.08 0.005 0
26.16 0.005 0
26.24 0.005 0
26.32 0.005 0
26.4 0.005 0
26.48 0.005 0
26.56 0.005 0
26.64 0.005 0
26.72 0.005 0
26.8 0.005 0
26.88 0.005 0
26.96 0.005 0
27.04 0.005 0
27.12 0.005 0
27.2 0.005 0
27.28 0.005 0
27.36 0.005 0
27.44 0.005 0
27.52 0.005 0
27.6 0.005 0
27.68 0.005 0
27.76 0.005 0
27.84 0.005 0
27.92 0.005 0
28 0.005 0
28.08 0.005 0
28.16 0.005 0
28.24 0.005 0
28.32 0.005 0
28.4 0.005 0
28.48 0.005 0
28.56 0.005 0
28.64 0.005 0
28.72 0.005 0
28.8 0.005 0
28.88 0.005 0
28.96 0.005 0
29.04 0.005 0
29.12 0.005 0
29.2 0.005 0
29.28 0.005 0
29.36 0.005 0
29.44 0.005 0
29.52 0.005 0
29.6 0.005 0
29.68 0.005 0
29.76 0.005 0
29.84 0.005 0
29.92 0.005 0
30 0.005 0
30.08 0.005 0
30.16 0.005 0
30.24 0.005 0
30.32 0.005 0
30.4 0.005 0
30.48 0.005 0
30.56 0.005 0
30.64 0.005 0
30.72 0.005 0
30.8 0.005 0
30.88 0.005 0
30.96 0.005 0
31.04 0.005 0
31.12 0.005 0
31.2 0.005 0
31.28 0.005 0
31.36 0.005 0
31.44 0.005 0
31.52 0.005 0
31.6 0.005 0
31.68 0.005 0
31.76 0.005 0
31.84 0.005 0
31.92 0.005 0
0 0.01 0
0.08 0.01 0
0.16 0.01 0
0.24 0.01 0
0.32 0.01 0
0.4 0.01 0
0.48 0.01 0
0.56 0.01 0
0.64 0.01 0
0.72 0.01 0
0.8 0.01 0
0.88 0.01 0
0.96 0.01 0
1.04 0.01 0
1.12 0.01 0
1.2 0.01 0
1.28 0.01 0
1.36 0.01 0
1.44 0.01 0
1.52 0.01 0
1.6 0.01 0
1.68 0.01 0
1.76 0.01 0
1.84 0.01 0
1.92 0.01 0
2 0.01 0
2.08 0.01 0
2.16 0.01 0
2.24 0.01 0
2.32 0.01 0
2.4 0.01 0
2.48 0.01 0
2.56 0.01 0
2.64 0.01 0
2.72 0.01 0
2.8 0.01 0
2.88 0.01 0
2.96 0.01 0
3.04 0.01 0
3.12 0.01 0
3.2 0.01 0
3.28 0.01 0
3.36 0.01 0
3.44 0.01 0
3.52 0.01 0
3.6 0.01 0
3.68 0.01 0
3.76 0.01 0
3.84 0.01 0
3.92 0.01 0
4 0.01 0
4.08 0.01 0
4.16 0.01 0
4.24 0.01 0
4.32 0.01 0
4.4 0.01 0
4.48 0.01 0
4.56 0.01 0
4.64 0.01 0
4.72 0.01 0
4.8 0.01 0
4.88 0.01 0
4.96 0.01 0
5.04 0.01 0
5.12 0.01 0
[...]
POINT_DATA 80000

SCALARS v float 1
LOOKUP_TABLE default
0
0
0
0
0
0
0
0
0
0
0
0
0
0
0
0
0
0
0
0
0
0
0
0
0
0
0
0
0
0
0
0
0
0
0
0
0
0
0
0
0
0
0
0
0
0
0
0
0
0
0
0
0
0
0
0
0
0
0
0
0
0
0
0
0
0
0
0
0
0
0
0
0
0
0
0
0
0
0
0
0
0
0
0
0
0
0
0
0
0
0
0
0
0
0
0
0
0
0
0
0
0
0
0
0
0
0
0
0
0
0
0
0
0
0
0
0
0
0
0
0
0
0
0
0
0
0
0
0
0
0
0
0
0
0
0
0
0
0
0
0
0
0
0
0
0
0
0
0
0
0
0
0
0
0
0
0
0
0
0
0
0
0
0
0
0
0
0
0
0
0
0
0
0
0
0
0
0
0
0
0
0
0
0
0
0
0
0
0
0
0
0
0
0
0
0
0
0
0
0
0
0
0
0
0
0
0
0
0
0
0
0
0
0
0
0
0
0
0
0
0
0
0
0
0
0
0
0
0
0
0
0
0
0
0
0
0
0
0
0
0
0
0
0
0
0
0
0
0
0
0
0
0
0
0
0
0
0
0
0
0
0
0
0
0
0
0
0
0
0
0
0
0
0
0
0
0
0
0
0
0
0
0
0
0
0
0
0
0
0
0
0
0
0
0
0
0
0
0
0
0
0
0
0
0
0
0
0
0
0
0
0
0
0
0
0
0
0
0
0
0
0
0
0
0
0
0
0
0
0
0
0
0
0
0
0
0
0
0
0
0
0
0
0
0
0
0
0
0
0
0
0
0
0
0
0
0
0
0
0
0
0
0
0
0
0
0
0
0
0
0
0
0
0
0
0
0
0
0
0
0
0
0
0
0
0
0
0
0
0
0
0
0
0
0
0
0
0
0
0
-0.0542711
0.0542711
0.0039621
0.000998334
0.000492265
0.000302701
0.000207324
0.000151696
0.000116255
9.22982e-05
7.5385e-05
6.30244e-05
5.37239e-05
4.65455e-05
4.08776e-05
3.63106e-05
3.2563e-05
2.9438e-05
2.6795e-05
2.45318e-05
2.25729e-05
2.08616e-05
1.93543e-05
1.80175e-05
1.68244e-05
1.5754e-05
1.47888e-05
1.39149e-05
1.31205e-05
1.23958e-05
1.17327e-05
1.11239e-05
1.05636e-05
1.00465e-05
9.56816e-06
9.12467e-06
8.71262e-06
8.32899e-06
7.97116e-06
7.63677e-06
7.32376e-06
7.03027e-06
6.75467e-06
6.49547e-06
6.25135e-06
6.02111e-06
5.80369e-06
5.59812e-06
5.4035e-06
5.21905e-06
5.04404e-06
4.8778e-06
4.71973e-06
4.56928e-06
4.42595e-06
4.28926e-06
4.15879e-06
4.03415e-06
3.91497e-06
3.80093e-06
3.69171e-06
3.58703e-06
3.48662e-06
3.39024e-06
3.29766e-06
3.20867e-06
3.12307e-06
3.04068e-06
2.96133e-06
2.88485e-06
2.81111e-06
2.73996e-06
2.67127e-06
2.60492e-06
2.54079e-06
2.47878e-06
2.4188e-06
2.36073e-06
2.3045e-06
2.25002e-06
2.19722e-06
2.14602e-06
2.09635e-06
2.04814e-06
2.00134e-06
1.95589e-06
1.91172e-06
1.8688e-06
1.82706e-06
1.78647e-06
1.74698e-06
1.70854e-06
1.67112e-06
1.63469e-06
1.59919e-06
1.56461e-06
1.53091e-06
1.49806e-06
1.46603e-06
1.43478e-06
1.40431e-06
1.37457e-06
1.34555e-06
1.31723e-06
1.28957e-06
1.26257e-06
1.2362e-06
1.21044e-06
1.18527e-06
1.16068e-06
1.13665e-06
1.11317e-06
1.09021e-06
1.06777e-06
1.04582e-06
1.02436e-06
1.00337e-06
9.82845e-07
9.62765e-07
9.43121e-07
9.23902e-07
9.05097e-07
8.86696e-07
8.68689e-07
8.51065e-07
8.33816e-07
8.16932e-07
8.00405e-07
7.84226e-07
7.68388e-07
7.52881e-07
7.37699e-07
7.22835e-07
7.08281e-07
6.9403e-07
6.80077e-07
6.66415e-07
6.53038e-07
6.39939e-07
6.27112e-07
6.14552e-07
6.02253e-07
5.90209e-07
5.78414e-07
5.66861e-07
5.55543e-07
5.44453e-07
5.33582e-07
5.22924e-07
5.12469e-07
5.0221e-07
4.92136e-07
4.82237e-07
4.72503e-07
4.62924e-07
4.53489e-07
4.44188e-07
4.35011e-07
4.25949e-07
4.1699e-07
4.08124e-07
3.99343e-07
3.90638e-07
3.82002e-07
3.73429e-07
3.64911e-07
3.56445e-07
3.48024e-07
3.39645e-07
3.31303e-07
3.22998e-07
3.14729e-07
3.06497e-07
2.98302e-07
2.90144e-07
2.82025e-07
2.73945e-07
2.65907e-07
2.57917e-07
2.49979e-07
2.42098e-07
2.3428e-07
2.26527e-07
2.18845e-07
2.11236e-07
2.03707e-07
1.96264e-07
1.88914e-07
1.81666e-07
1.74527e-07
1.675e-07
1.60589e-07
1.53797e-07
1.47128e-07
1.40588e-07
1.34184e-07
1.27925e-07
1.21817e-07
1.15865e-07
1.1007e-07
1.04433e-07
9.89541e-08
9.36339e-08
8.84761e-08
8.34857e-08
7.8668e-08
7.4027e-08
6.95644e-08
6.52788e-08
6.11667e-08
5.72242e-08
5.3448e-08
4.9837e-08
4.63919e-08
4.31145e-08
4.00061e-08
3.70664e-08
3.42925e-08
3.16793e-08
2.92201e-08
2.69083e-08
2.4738e-08
2.27055e-08
2.08081e-08
1.90443e-08
1.74123e-08
1.59089e-08
1.45292e-08
1.32665e-08
1.21131e-08
1.10609e-08
1.01026e-08
9.23175e-09
8.44341e-09
7.73369e-09
7.09918e-09
6.53639e-09
6.04126e-09
5.60891e-09
5.23366e-09
4.90933e-09
4.62969e-09
4.38876e-09
4.18125e-09
4.00256e-09
3.84886e-09
3.71691e-09
3.60389e-09
3.50726e-09
3.42452e-09
3.35333e-09
3.29145e-09
3.23678e-09
3.18752e-09
3.14218e-09
3.09958e-09
3.05891e-09
3.01961e-09
2.98137e-09
2.94395e-09
2.90724e-09
2.87115e-09
2.83557e-09
2.80039e-09
2.76547e-09
2.73071e-09
2.69604e-09
2.66136e-09
2.62664e-09
2.59187e-09
2.55704e-09
2.52218e-09
2.48731e-09
2.45243e-09
2.41759e-09
2.38275e-09
2.34793e-09
2.31312e-09
2.27833e-09
2.24352e-09
2.20871e-09
2.17388e-09
2.13903e-09
2.10417e-09
2.0693e-09
2.03441e-09
1.99952e-09
1.96461e-09
1.92971e-09
1.89479e-09
1.85988e-09
1.82496e-09
1.79003e-09
1.75509e-09
1.72015e-09
1.6852e-09
1.65025e-09
1.61528e-09
1.58031e-09
1.54531e-09
1.51033e-09
1.47532e-09
1.44032e-09
1.4053e-09
1.37028e-09
1.33525e-09
1.30021e-09
1.26516e-09
1.23011e-09
1.19504e-09
1.15999e-09
1.12489e-09
1.08981e-09
1.0547e-09
1.01962e-09
9.84485e-10
9.49391e-10
9.14226e-10
8.79119e-10
8.43951e-10
8.08829e-10
7.73621e-10
7.38492e-10
7.03262e-10
6.68136e-10
6.32864e-10
5.9774e-10
5.62434e-10
5.27318e-10
4.91973e-10
4.56853e-10
4.21463e-10
3.86376e-10
3.50921e-10
3.15855e-10
2.80331e-10
2.4531e-10
2.09702e-10
1.74746e-10
1.39028e-10
1.04155e-10
6.83013e-11
3.35441e-11
-2.47195e-12
-3.70862e-11
-7.3305e-11
-1.07721e-10
-1.44208e-10
-1.78346e-10
-2.15165e-10
-2.48973e-10
-2.86224e-10
-3.1958e-10
-3.57352e-10
-3.90141e-10
-4.28603e-10
-4.60643e-10
-4.99977e-10
-5.31074e-10
-5.71484e-10
-6.0138e-10
-6.43183e-10
-6.71517e-10
-7.15096e-10
-7.41465e-10
-7.87259e-10
-8.11128e-10
-8.59705e-10
-8.80464e-10
-9.32515e-10
-9.49388e-10
-1.0057e-09
-1.01783e-09
-1.07929e-09
-1.08573e-09
-1.15328e-09
-1.15312e-09
-1.22753e-09
-1.22012e-09
-1.30172e-09
-1.28724e-09
-1.37514e-09
-1.35558e-09
-1.44628e-09
-1.4278e-09
-1.51211e-09
-1.50963e-09
-1.56646e-09
-1.61389e-09
-1.59615e-09
-1.7699e-09
-1.56959e-09
-2.04668e-09
-1.39115e-09
-2.60808e-09
-6.2941e-10
-3.7931e-09
4.98743e-09
-2.01747e-09
-2.01747e-09
-0.0952159
0.0952159
0.0129756
0.00385462
0.00193431
0.0011962
0.000821746
0.00060232
0.000462072
0.000367046
0.000299836
0.00025065
0.000213607
0.000184999
0.000162406
0.000144201
0.000129265
0.000116815
0.00010629
9.72818e-05
8.94885e-05
8.26833e-05
7.66924e-05
7.1381e-05
6.66428e-05
6.23927e-05
5.8562e-05
5.50943e-05
5.19429e-05
4.90687e-05
4.64387e-05
4.40251e-05
4.18037e-05
3.97541e-05
3.78582e-05
3.61007e-05
3.44679e-05
3.29479e-05
3.15301e-05
3.02054e-05
2.89654e-05
2.78029e-05
2.67113e-05
2.56846e-05
2.47178e-05
2.3806e-05
2.2945e-05
2.21309e-05
2.13603e-05
2.06299e-05
1.9937e-05
1.92788e-05
1.8653e-05
1.80574e-05
1.74899e-05
1.69488e-05
1.64323e-05
1.5939e-05
1.54672e-05
1.50158e-05
1.45835e-05
1.41692e-05
1.37718e-05
1.33903e-05
1.30239e-05
1.26718e-05
1.2333e-05
1.2007e-05
1.1693e-05
1.13904e-05
1.10986e-05
1.08171e-05
1.05453e-05
1.02828e-05
1.00291e-05
9.78374e-06
9.54642e-06
9.31671e-06
9.09427e-06
8.87878e-06
8.66991e-06
8.46737e-06
8.27091e-06
8.08024e-06
7.89514e-06
7.71536e-06
7.54069e-06
7.37093e-06
7.20589e-06
7.04536e-06
6.88919e-06
6.73721e-06
6.58926e-06
6.44518e-06
6.30485e-06
6.16813e-06
6.03489e-06
5.905e-06
5.77836e-06
5.65486e-06
5.53438e-06
5.41684e-06
5.30213e-06
5.19016e-06
5.08086e-06
4.97413e-06
4.8699e-06
4.76809e-06
4.66863e-06
4.57145e-06
4.47648e-06
4.38367e-06
4.29295e-06
4.20425e-06
4.11754e-06
4.03274e-06
3.94981e-06
3.86871e-06
3.78937e-06
3.71176e-06
3.63583e-06
3.56154e-06
3.48884e-06
3.4177e-06
3.34808e-06
3.27994e-06
3.21324e-06
3.14796e-06
3.08405e-06
3.02149e-06
2.96024e-06
2.90028e-06
2.84157e-06
2.78408e-06
2.7278e-06
2.67269e-06
2.61873e-06
2.5659e-06
2.51416e-06
2.4635e-06
2.4139e-06
2.36532e-06
2.31774e-06
2.27115e-06
2.2255e-06
2.18078e-06
2.13695e-06
2.09399e-06
2.05185e-06
2.01051e-06
1.96992e-06
1.93006e-06
1.89088e-06
1.85234e-06
1.8144e-06
1.77701e-06
1.74014e-06
1.70375e-06
1.66779e-06
1.63224e-06
1.59703e-06
1.56215e-06
1.52756e-06
1.49323e-06
1.45914e-06
1.42526e-06
1.39158e-06
1.35807e-06
1.32472e-06
1.29151e-06
1.25845e-06
1.22553e-06
1.19275e-06
1.16012e-06
1.12764e-06
1.09531e-06
1.06315e-06
1.03116e-06
9.9936e-07
9.67776e-07
9.36428e-07
9.05334e-07
8.7451e-07
8.43972e-07
8.13737e-07
7.83828e-07
7.54272e-07
7.25101e-07
6.96343e-07
6.68025e-07
6.40163e-07
6.12771e-07
5.85864e-07
5.59457e-07
5.33576e-07
5.08249e-07
4.83506e-07
4.59374e-07
4.35866e-07
4.12992e-07
3.90751e-07
3.69145e-07
3.48181e-07
3.27872e-07
3.08237e-07
2.89295e-07
2.71061e-07
2.53539e-07
2.36722e-07
2.20596e-07
2.05147e-07
1.90364e-07
1.76241e-07
1.62782e-07
1.49993e-07
1.37878e-07
1.26432e-07
1.15642e-07
1.05488e-07
9.59428e-08
8.69813e-08
7.85817e-08
7.07287e-08
6.34127e-08
5.6626e-08
5.03597e-08
4.45997e-08
3.93251e-08
3.45091e-08
3.01209e-08
2.6129e-08
2.25049e-08
1.92242e-08
1.62676e-08
1.36196e-08
1.1266e-08
9.19225e-09
7.38138e-09
5.81337e-09
4.46542e-09
3.31321e-09
2.33235e-09
1.49992e-09
7.95438e-10
2.0139e-10
-2.96951e-10
-7.12121e-10
-1.05508e-09
-1.33586e-09
-1.56403e-09
-1.74874e-09
-1.89863e-09
-2.02161e-09
-2.12454e-09
-2.21297e-09
-2.29122e-09
-2.36229e-09
-2.4282e-09
-2.49015e-09
-2.54892e-09
-2.60497e-09
-2.65871e-09
-2.71056e-09
-2.76094e-09
-2.81029e-09
-2.85906e-09
-2.90759e-09
-2.95611e-09
-3.00477e-09
-3.05361e-09
-3.10262e-09
-3.15174e-09
-3.20087e-09
-3.24998e-09
-3.29899e-09
-3.34791e-09
-3.39674e-09
-3.4455e-09
-3.49424e-09
-3.54297e-09
-3.59173e-09
-3.64054e-09
-3.68938e-09
-3.73825e-09
-3.78717e-09
-3.8361e-09
-3.88504e-09
-3.934e-09
-3.98295e-09
-4.0319e-09
-4.08084e-09
-4.12978e-09
-4.17871e-09
-4.22768e-09
-4.27663e-09
-4.3256e-09
-4.37458e-09
-4.42357e-09
-4.47258e-09
-4.5216e-09
-4.57061e-09
-4.61968e-09
-4.66871e-09
-4.71778e-09
-4.76683e-09
-4.81592e-09
-4.865e-09
-4.91412e-09
-4.96319e-09
-5.01236e-09
-5.06144e-09
-5.11063e-09
-5.15972e-09
-5.20895e-09
-5.25806e-09
-5.30732e-09
-5.35643e-09
-5.40573e-09
-5.45485e-09
-5.5042e-09
-5.55331e-09
-5.60271e-09
-5.6518e-09
-5.70129e-09
-5.75035e-09
-5.7999e-09
-5.84893e-09
-5.89859e-09
-5.94756e-09
-5.99734e-09
-6.04621e-09
-6.09614e-09
-6.1449e-09
-6.195e-09
-6.24363e-09
-6.29395e-09
-6.34238e-09
-6.39299e-09
-6.44112e-09
-6.4921e-09
-6.53988e-09
-6.59131e-09
-6.63863e-09
-6.69064e-09
-6.73735e-09
-6.7901e-09
-6.83602e-09
-6.88971e-09
-6.93462e-09
-6.9895e-09
-7.0331e-09
-7.08953e-09
-7.13141e-09
-7.18979e-09
-7.2295e-09
-7.29038e-09
-7.32728e-09
-7.39135e-09
-7.42467e-09
-7.49279e-09
-7.52153e-09
-7.59482e-09
-7.61771e-09
-7.69754e-09
-7.71305e-09
-7.80113e-09
-7.80728e-09
-7.90571e-09
-7.90018e-09
-8.01151e-09
-7.99145e-09
-8.11865e-09
-8.0808e-09
-8.22724e-09
-8.16805e-09
-8.33718e-09
-8.25319e-09
-8.44804e-09
-8.33684e-09
-8.55861e-09
-8.42066e-09
-8.66624e-09
-8.50897e-09
-8.76539e-09
-8.61137e-09
-8.84497e-09
-8.74923e-09
-8.88235e-09
-8.97023e-09
-8.82939e-09
-9.38332e-09
-8.57087e-09
-1.02442e-08
-7.75705e-09
-1.21536e-08
-4.80036e-09
-1.62757e-08
1.58167e-08
-9.67373e-09
-9.67373e-09
-0.125293
0.125293
0.0249359
0.00835802
0.004278
0.00266153
0.00183374
0.00134636
0.00103389
0.00082171
0.000671393
0.000561256
0.000478239
0.000414092
0.000363417
0.000322582
0.000289086
0.00026117
0.000237578
0.000217392
0.000199936
0.000184697
0.000171287
0.000159402
0.000148802
0.000139297
0.000130731
0.000122979
0.000115935
0.000109511
0.000103635
9.82418e-05
9.32793e-05
8.87007e-05
8.44662e-05
8.05409e-05
7.68943e-05
7.34999e-05
7.03341e-05
6.73761e-05
6.46075e-05
6.2012e-05
5.95748e-05
5.72829e-05
5.51245e-05
5.30891e-05
5.11671e-05
4.935e-05
4.76299e-05
4.59998e-05
4.44531e-05
4.29841e-05
4.15874e-05
4.02581e-05
3.89918e-05
3.77842e-05
3.66316e-05
3.55306e-05
3.4478e-05
3.34707e-05
3.25061e-05
3.15816e-05
3.06949e-05
2.98438e-05
2.90263e-05
2.82406e-05
2.74848e-05
2.67574e-05
2.60569e-05
2.53819e-05
2.47309e-05
2.41029e-05
2.34966e-05
2.2911e-05
2.23451e-05
2.17979e-05
2.12685e-05
2.07562e-05
2.026e-05
1.97794e-05
1.93136e-05
1.88619e-05
1.84237e-05
1.79985e-05
1.75857e-05
1.71848e-05
1.67953e-05
1.64167e-05
1.60487e-05
1.56907e-05
1.53425e-05
1.50036e-05
1.46738e-05
1.43525e-05
1.40397e-05
1.37348e-05
1.34378e-05
1.31482e-05
1.28659e-05
1.25906e-05
1.2322e-05
1.206e-05
1.18043e-05
1.15547e-05
1.13111e-05
1.10732e-05
1.08409e-05
1.06139e-05
1.03923e-05
1.01757e-05
9.96404e-06
9.7572e-06
9.55501e-06
9.35736e-06
9.16411e-06
8.97515e-06
8.79036e-06
8.60962e-06
8.43284e-06
8.25991e-06
8.09072e-06
7.92519e-06
7.76322e-06
7.60472e-06
7.4496e-06
7.29779e-06
7.1492e-06
7.00375e-06
6.86137e-06
6.722e-06
6.58555e-06
6.45197e-06
6.32118e-06
6.19313e-06
6.06775e-06
5.94499e-06
5.82479e-06
5.7071e-06
5.59186e-06
5.47901e-06
5.3685e-06
5.26028e-06
5.15429e-06
5.05048e-06
4.94878e-06
4.84912e-06
4.75145e-06
4.65568e-06
4.56175e-06
4.46958e-06
4.37909e-06
4.29019e-06
4.20278e-06
4.11678e-06
4.0321e-06
3.94863e-06
3.86631e-06
3.78502e-06
3.70469e-06
3.62523e-06
3.54654e-06
3.46856e-06
3.39121e-06
3.31444e-06
3.23818e-06
3.16239e-06
3.08703e-06
3.01205e-06
2.93742e-06
2.86311e-06
2.78913e-06
2.71547e-06
2.64213e-06
2.56913e-06
2.49646e-06
2.42416e-06
2.35222e-06
2.28069e-06
2.2096e-06
2.13901e-06
2.06895e-06
1.99948e-06
1.93063e-06
1.86243e-06
1.79493e-06
1.72818e-06
1.66224e-06
1.59717e-06
1.53305e-06
1.46992e-06
1.40783e-06
1.34681e-06
1.28688e-06
1.22809e-06
1.1705e-06
1.11416e-06
1.05914e-06
1.0055e-06
9.53263e-07
9.02449e-07
8.53061e-07
8.05102e-07
7.58589e-07
7.13552e-07
6.70031e-07
6.28068e-07
5.8769e-07
5.48902e-07
5.11689e-07
4.7602e-07
4.41864e-07
4.09196e-07
3.7801e-07
3.4831e-07
3.20107e-07
2.93405e-07
2.68194e-07
2.44441e-07
2.22098e-07
2.01108e-07
1.81415e-07
1.62972e-07
1.45746e-07
1.29715e-07
1.1486e-07
1.01158e-07
8.85753e-08
7.70644e-08
6.6564e-08
5.70057e-08
4.8321e-08
4.04472e-08
3.33314e-08
2.69311e-08
2.12112e-08
1.61396e-08
1.16825e-08
7.80076e-09
4.44913e-09
1.57661e-09
-8.70676e-10
-2.9462e-09
-4.69992e-09
-6.17629e-09
-7.41331e-09
-8.44304e-09
-9.29278e-09
-9.98658e-09
-1.05465e-08
-1.09935e-08
-1.13476e-08
-1.16275e-08
-1.18503e-08
-1.20306e-08
-1.21803e-08
-1.23084e-08
-1.24213e-08
-1.25232e-08
-1.26166e-08
-1.27031e-08
-1.27839e-08
-1.28596e-08
-1.29314e-08
-1.3e-08
-1.30666e-08
-1.31319e-08
-1.31968e-08
-1.32616e-08
-1.33268e-08
-1.33924e-08
-1.34583e-08
-1.35244e-08
-1.35905e-08
-1.36565e-08
-1.37223e-08
-1.37878e-08
-1.38532e-08
-1.39185e-08
-1.39837e-08
-1.40489e-08
-1.41141e-08
-1.41794e-08
-1.42448e-08
-1.43102e-08
-1.43757e-08
-1.44413e-08
-1.45068e-08
-1.45724e-08
-1.4638e-08
-1.47035e-08
-1.4769e-08
-1.48345e-08
-1.49e-08
-1.49655e-08
-1.5031e-08
-1.50965e-08
-1.5162e-08
-1.52276e-08
-1.52932e-08
-1.53588e-08
-1.54244e-08
-1.549e-08
-1.55556e-08
-1.56213e-08
-1.56869e-08
-1.57526e-08
-1.58182e-08
-1.58839e-08
-1.59496e-08
-1.60154e-08
-1.6081e-08
-1.61468e-08
-1.62125e-08
-1.62784e-08
-1.6344e-08
-1.64099e-08
-1.64756e-08
-1.65416e-08
-1.66072e-08
-1.66733e-08
-1.67389e-08
-1.68051e-08
-1.68706e-08
-1.6937e-08
-1.70024e-08
-1.70689e-08
-1.71343e-08
-1.7201e-08
-1.72662e-08
-1.73331e-08
-1.73981e-08
-1.74653e-08
-1.75301e-08
-1.75976e-08
-1.7662e-08
-1.77301e-08
-1.7794e-08
-1.78627e-08
-1.7926e-08
-1.79954e-08
-1.80579e-08
-1.81283e-08
-1.81898e-08
-1.82614e-08
-1.83216e-08
-1.83947e-08
-1.84533e-08
-1.85284e-08
-1.85847e-08
-1.86624e-08
-1.87159e-08
-1.87968e-08
-1.88466e-08
-1.89317e-08
-1.89769e-08
-1.90673e-08
-1.91064e-08
-1.92036e-08
-1.92351e-08
-1.93409e-08
-1.93625e-08
-1.94794e-08
-1.94885e-08
-1.96194e-08
-1.96127e-08
-1.97611e-08
-1.97344e-08
-1.9905e-08
-1.98532e-08
-2.00514e-08
-1.99685e-08
-2.02006e-08
-2.00796e-08
-2.03529e-08
-2.01861e-08
-2.0508e-08
-2.0288e-08
-2.0665e-08
-2.03865e-08
-2.08215e-08
-2.04853e-08
-2.09716e-08
-2.05934e-08
-2.11039e-08
-2.07311e-08
-2.11947e-08
-2.0944e-08
-2.11967e-08
-2.13335e-08
-2.10085e-08
-2.21313e-08
-2.03887e-08
-2.38804e-08
-1.86026e-08
-2.78461e-08
-1.23046e-08
-3.63702e-08
3.07457e-08
-2.24703e-08
-2.24703e-08
-0.146488
0.146488
0.0383105
0.0142341
0.00745603
0.00467276
0.00323055
0.00237654
0.00182708
0.00145307
0.00118763
0.00099289
0.000845966
0.00073237
0.000642603
0.000570257
0.000510915
0.000461468
0.000419688
0.000383953
0.000353058
0.000326098
0.000302378
0.000281361
0.000262623
0.000245822
0.000230686
0.000216989
0.000204546
0.0001932
0.000182822
0.000173299
0.000164536
0.000156452
0.000148977
0.000142047
0.00013561
0.000129619
0.000124031
0.00011881
0.000113924
0.000109344
0.000105043
0.000100998
9.71896e-05
9.35981e-05
9.02069e-05
8.70007e-05
8.39657e-05
8.10896e-05
7.83609e-05
7.57693e-05
7.33052e-05
7.09601e-05
6.87261e-05
6.65958e-05
6.45627e-05
6.26205e-05
6.07637e-05
5.89869e-05
5.72855e-05
5.56548e-05
5.40908e-05
5.25897e-05
5.11479e-05
4.97621e-05
4.84292e-05
4.71463e-05
4.59109e-05
4.47204e-05
4.35724e-05
4.24649e-05
4.13958e-05
4.03631e-05
3.93652e-05
3.84003e-05
3.74669e-05
3.65635e-05
3.56887e-05
3.48412e-05
3.40199e-05
3.32235e-05
3.2451e-05
3.17013e-05
3.09736e-05
3.02668e-05
2.95801e-05
2.89128e-05
2.8264e-05
2.76331e-05
2.70192e-05
2.64219e-05
2.58404e-05
2.52742e-05
2.47228e-05
2.41855e-05
2.3662e-05
2.31516e-05
2.26541e-05
2.21688e-05
2.16955e-05
2.12338e-05
2.07832e-05
2.03434e-05
1.9914e-05
1.94949e-05
1.90855e-05
1.86856e-05
1.82951e-05
1.79134e-05
1.75405e-05
1.71761e-05
1.68199e-05
1.64716e-05
1.61312e-05
1.57983e-05
1.54727e-05
1.51543e-05
1.48429e-05
1.45383e-05
1.42402e-05
1.39486e-05
1.36633e-05
1.33841e-05
1.31109e-05
1.28435e-05
1.25818e-05
1.23256e-05
1.20748e-05
1.18294e-05
1.1589e-05
1.13538e-05
1.11234e-05
1.08979e-05
1.06771e-05
1.04609e-05
1.02492e-05
1.00419e-05
9.83899e-06
9.64024e-06
9.44562e-06
9.25502e-06
9.06834e-06
8.88549e-06
8.70634e-06
8.53079e-06
8.35871e-06
8.18997e-06
8.02445e-06
7.862e-06
7.70248e-06
7.54574e-06
7.39162e-06
7.23994e-06
7.09055e-06
6.94329e-06
6.79799e-06
6.65451e-06
6.51269e-06
6.37236e-06
6.23339e-06
6.09563e-06
5.95898e-06
5.82331e-06
5.68855e-06
5.5546e-06
5.42139e-06
5.28886e-06
5.15693e-06
5.02559e-06
4.89482e-06
4.76463e-06
4.63501e-06
4.506e-06
4.3776e-06
4.24985e-06
4.12277e-06
3.99643e-06
3.8709e-06
3.74626e-06
3.6226e-06
3.49999e-06
3.3785e-06
3.2582e-06
3.13915e-06
3.02145e-06
2.90522e-06
2.79056e-06
2.6776e-06
2.56642e-06
2.45709e-06
2.34967e-06
2.24421e-06
2.1408e-06
2.03951e-06
1.94048e-06
1.84379e-06
1.74955e-06
1.65781e-06
1.56859e-06
1.4819e-06
1.39775e-06
1.31617e-06
1.23721e-06
1.16095e-06
1.08744e-06
1.01673e-06
9.48829e-07
8.83706e-07
8.21307e-07
7.61578e-07
7.0448e-07
6.5e-07
5.98145e-07
5.48932e-07
5.02362e-07
4.58411e-07
4.17021e-07
3.78105e-07
3.41562e-07
3.07296e-07
2.75228e-07
2.45299e-07
2.17469e-07
1.91702e-07
1.67955e-07
1.46165e-07
1.26245e-07
1.08085e-07
9.15669e-08
7.65711e-08
6.29896e-08
5.07308e-08
3.97205e-08
2.98964e-08
2.12005e-08
1.35715e-08
6.939e-09
1.22213e-09
-3.66898e-09
-7.82843e-09
-1.13489e-08
-1.43167e-08
-1.68082e-08
-1.88887e-08
-2.06136e-08
-2.20299e-08
-2.31795e-08
-2.41006e-08
-2.48295e-08
-2.54009e-08
-2.58468e-08
-2.61965e-08
-2.64747e-08
-2.67014e-08
-2.68919e-08
-2.70567e-08
-2.72029e-08
-2.73347e-08
-2.74548e-08
-2.75649e-08
-2.76667e-08
-2.77617e-08
-2.78515e-08
-2.79379e-08
-2.80223e-08
-2.81059e-08
-2.81896e-08
-2.82739e-08
-2.83587e-08
-2.84441e-08
-2.85298e-08
-2.86155e-08
-2.8701e-08
-2.87862e-08
-2.88709e-08
-2.89554e-08
-2.90396e-08
-2.91237e-08
-2.92078e-08
-2.92919e-08
-2.93762e-08
-2.94606e-08
-2.95452e-08
-2.96298e-08
-2.97144e-08
-2.97991e-08
-2.98838e-08
-2.99684e-08
-3.0053e-08
-3.01376e-08
-3.02221e-08
-3.03067e-08
-3.03912e-08
-3.04757e-08
-3.05603e-08
-3.06448e-08
-3.07295e-08
-3.08141e-08
-3.08987e-08
-3.09833e-08
-3.10681e-08
-3.11527e-08
-3.12374e-08
-3.13221e-08
-3.14069e-08
-3.14915e-08
-3.15764e-08
-3.1661e-08
-3.17459e-08
-3.18306e-08
-3.19155e-08
-3.20002e-08
-3.20852e-08
-3.21699e-08
-3.2255e-08
-3.23396e-08
-3.24248e-08
-3.25094e-08
-3.25948e-08
-3.26793e-08
-3.27648e-08
-3.28492e-08
-3.2935e-08
-3.30192e-08
-3.31052e-08
-3.31893e-08
-3.32756e-08
-3.33594e-08
-3.34461e-08
-3.35295e-08
-3.36167e-08
-3.36997e-08
-3.37875e-08
-3.38699e-08
-3.39584e-08
-3.404e-08
-3.41296e-08
-3.42102e-08
-3.4301e-08
-3.43802e-08
-3.44727e-08
-3.45501e-08
-3.46446e-08
-3.47199e-08
-3.4817e-08
-3.48893e-08
-3.49898e-08
-3.50584e-08
-3.51632e-08
-3.5227e-08
-3.53373e-08
-3.53948e-08
-3.55123e-08
-3.55618e-08
-3.56883e-08
-3.57275e-08
-3.58656e-08
-3.58917e-08
-3.60445e-08
-3.60539e-08
-3.62254e-08
-3.62135e-08
-3.64088e-08
-3.63699e-08
-3.65951e-08
-3.65222e-08
-3.6785e-08
-3.66694e-08
-3.69792e-08
-3.68106e-08
-3.71782e-08