# vtk DataFile Version 2.0
FlowField
ASCII
DATASET STRUCTURED_GRID
DIMENSIONS 400 1 200
POINTS 80000 float
0 0 0
0.08 0 0
0.16 0 0
0.24 0 0
0.32 0 0
0.4 0 0
0.48 0 0
0.56 0 0
0.64 0 0
0.72 0 0
0.8 0 0
0.88 0 0
0.96 0 0
1.04 0 0
1.12 0 0
1.2 0 0
1.28 0 0
1.36 0 0
1.44 0 0
1.52 0 0
1.6 0 0
1.68 0 0
1.76 0 0
1.84 0 0
1.92 0 0
2 0 0
2.08 0 0
2.16 0 0
2.24 0 0
2.32 0 0
2.4 0 0
2.48 0 0
2.56 0 0
2.64 0 0
2.72 0 0
2.8 0 0
2.88 0 0
2.96 0 0
3.04 0 0
3.12 0 0
3.2 0 0
3.28 0 0
3.36 0 0
3.44 0 0
3.52 0 0
3.6 0 0
3.68 0 0
3.76 0 0
3.84 0 0
3.92 0 0
4 0 0
4.08 0 0
4.16 0 0
4.24 0 0
4.32 0 0
4.4 0 0
4.48 0 0
4.56 0 0
4.64 0 0
4.72 0 0
4.8 0 0
4.88 0 0
4.96 0 0
5.04 0 0
5.12 0 0
5.2 0 0
5.28 0 0
5.36 0 0
5.44 0 0
5.52 0 0
5.6 0 0
5.68 0 0
5.76 0 0
5.84 0 0
5.92 0 0
6 0 0
6.08 0 0
6.16 0 0
6.24 0 0
6.32 0 0
6.4 0 0
6.48 0 0
6.56 0 0
6.64 0 0
6.72 0 0
6.8 0 0
6.88 0 0
6.96 0 0
7.04 0 0
7.12 0 0
7.2 0 0
7.28 0 0
7.36 0 0
7.44 0 0
7.52 0 0
7.6 0 0
7.68 0 0
7.76 0 0
7.84 0 0
7.92 0 0
8 0 0
8.08 0 0
8.16 0 0
8.24 0 0
8.32 0 0
8.4 0 0
8.48 0 0
8.56 0 0
8.64 0 0
8.72 0 0
8.8 0 0
8.88 0 0
8.96 0 0
9.04 0 0
9.12 0 0
9.2 0 0
9.28 0 0
9.36 0 0
9.44 0 0
9.52 0 0
9.6 0 0
9.68 0 0
9.76 0 0
9.84 0 0
9.92 0 0
10 0 0
10.08 0 0
10.16 0 0
10.24 0 0
10.32 0 0
10.4 0 0
10.48 0 0
10.56 0 0
10.64 0 0
10.72 0 0
10.8 0 0
10.88 0 0
10.96 0 0
11.04 0 0
11.12 0 0
11.2 0 0
11.28 0 0
11.36 0 0
11.44 0 0
11.52 0 0
11.6 0 0
11.68 0 0
11.76 0 0
11.84 0 0
11.92 0 0
12 0 0
12.08 0 0
12.16 0 0
12.24 0 0
12.32 0 0
12.4 0 0
12.48 0 0
12.56 0 0
12.64 0 0
12.72 0 0
12.8 0 0
12.88 0 0
12.96 0 0
13.04 0 0
13.12 0 0
13.2 0 0
13.28 0 0
13.36 0 0
13.44 0 0
13.52 0 0
13.6 0 0
13.68 0 0
13.76 0 0
13.84 0 0
13.92 0 0
14 0 0
14.08 0 0
14.16 0 0
14.24 0 0
14.32 0 0
14.4 0 0
14.48 0 0
14.56 0 0
14.64 0 0
14.72 0 0
14.8 0 0
14.88 0 0
14.96 0 0
15.04 0 0
15.12 0 0
15.2 0 0
15.28 0 0
15.36 0 0
15.44 0 0
15.52 0 0
15.6 0 0
15.68 0 0
15.76 0 0
15.84 0 0
15.92 0 0
16 0 0
16.08 0 0
16.16 0 0
16.24 0 0
16.32 0 0
16.4 0 0
16.48 0 0
16.56 0 0
16.64 0 0
16.72 0 0
16.8 0 0
16.88 0 0
16.96 0 0
17.04 0 0
17.12 0 0
17.2 0 0
17.28 0 0
17.36 0 0
17.44 0 0
17.52 0 0
17.6 0 0
17.68 0 0
17.76 0 0
17.84 0 0
17.92 0 0
18 0 0
18.08 0 0
18.16 0 0
18.24 0 0
18.32 0 0
18.4 0 0
18.48 0 0
18.56 0 0
18.64 0 0
18.72 0 0
18.8 0 0
18.88 0 0
18.96 0 0
19.04 0 0
19.12 0 0
19.2 0 0
19.28 0 0
19.36 0 0
19.44 0 0
19.52 0 0
19.6 0 0
19.68 0 0
19.76 0 0
19.84 0 0
19.92 0 0
20 0 0
20.08 0 0
20.16 0 0
20.24 0 0
20.32 0 0
20.4 0 0
20.48 0 0
20.56 0 0
20.64 0 0
20.72 0 0
20.8 0 0
20.88 0 0
20.96 0 0
21.04 0 0
21.12 0 0
21.2 0 0
21.28 0 0
21.36 0 0
21.44 0 0
21.52 0 0
21.6 0 0
21.68 0 0
21.76 0 0
21.84 0 0
21.92 0 0
22 0 0
22.08 0 0
22.16 0 0
22.24 0 0
22.32 0 0
22.4 0 0
22.48 0 0
22.56 0 0
22.64 0 0
22.72 0 0
22.8 0 0
22.88 0 0
22.96 0 0
23.04 0 0
23.12 0 0
23.2 0 0
23.28 0 0
23.36 0 0
23.44 0 0
23.52 0 0
23.6 0 0
23.68 0 0
23.76 0 0
23.84 0 0
23.92 0 0
24 0 0
24.08 0 0
24.16 0 0
24.24 0 0
24.32 0 0
24.4 0 0
24.48 0 0
24.56 0 0
24.64 0 0
24.72 0 0
24.8 0 0
24.88 0 0
24.96 0 0
25.04 0 0
25.12 0 0
25.2 0 0
25.28 0 0
25.36 0 0
25.44 0 0
25.52 0 0
25.6 0 0
25.68 0 0
25.76 0 0
25.84 0 0
25.92 0 0
26 0 0
26.08 0 0
26.16 0 0
26.24 0 0
26.32 0 0
26.4 0 0
26.48 0 0
26.56 0 0
26.64 0 0
26.72 0 0
26.8 0 0
26.88 0 0
26.96 0 0
27.04 0 0
27.12 0 0
27.2 0 0
27.28 0 0
27.36 0 0
27.44 0 0
27.52 0 0
27.6 0 0
27.68 0 0
27.76 0 0
27.84 0 0
27.92 0 0
28 0 0
28.08 0 0
28.16 0 0
28.24 0 0
28.32 0 0
28.4 0 0
28.48 0 0
28.56 0 0
28.64 0 0
28.72 0 0
28.8 0 0
28.88 0 0
28.96 0 0
29.04 0 0
29.12 0 0
29.2 0 0
29.28 0 0
29.36 0 0
29.44 0 0
29.52 0 0
29.6 0 0
29.68 0 0
29.76 0 0
29.84 0 0
29.92 0 0
30 0 0
30.08 0 0
30.16 0 0
30.24 0 0
30.32 0 0
30.4 0 0
30.48 0 0
30.56 0 0
30.64 0 0
30.72 0 0
30.8 0 0
30.88 0 0
30.96 0 0
31.04 0 0
31.12 0 0
31.2 0 0
31.28 0 0
31.36 0 0
31.44 0 0
31.52 0 0
31.6 0 0
31.68 0 0
31.76 0 0
31.84 0 0
31.92 0 0
0 0.005 0
0.08 0.005 0
0.16 0.005 0
0.24 0.005 0
0.32 0.005 0
0.4 0.005 0
0.48 0.005 0
0.56 0.005 0
0.64 0.005 0
0.72 0.005 0
0.8 0.005 0
0.88 0.005 0
0.96 0.005 0
1.04 0.005 0
1.12 0.005 0
1.2 0.005 0
1.28 0.005 0
1.36 0.005 0
1.44 0.005 0
1.52 0.005 0
1.6 0.005 0
1.68 0.005 0
1.76 0.005 0
1.84 0.005 0
1.92 0.005 0
2 0.005 0
2.08 0.005 0
2.16 0.005 0
2.24 0.005 0
2.32 0.005 0
2.4 0.005 0
2.48 0.005 0
2.56 0.005 0
2.64 0.005 0
2.72 0.005 0
2.8 0.005 0
2.88 0.005 0
2.96 0.005 0
3.04 0.005 0
3.12 0.005 0
3.2 0.005 0
3.28 0.005 0
3.36 0.005 0
3.44 0.005 0
3.52 0.005 0
3.6 0.005 0
3.68 0.005 0
3.76 0.005 0
3.84 0.005 0
3.92 0.005 0
4 0.005 0
4.08 0.005 0
4.16 0.005 0
4.24 0.005 0
4.32 0.005 0
4.4 0.005 0
4.48 0.005 0
4.56 0.005 0
4.64 0.005 0
4.72 0.005 0
4.8 0.005 0
4.88 0.005 0
4.96 0.005 0
5.04 0.005 0
5.12 0.005 0
5.2 0.005 0
5.28 0.005 0
5.36 0.005 0
5.44 0.005 0
5.52 0.005 0
5.6 0.005 0
5.68 0.005 0
5.76 0.005 0
5.84 0.005 0
5.92 0.005 0
6 0.005 0
6.08 0.005 0
6.16 0.005 0
6.24 0.005 0
6.32 0.005 0
6.4 0.005 0
6.48 0.005 0
6.56 0.005 0
6.64 0.005 0
6.72 0.005 0
6.8 0.005 0
6.88 0.005 0
6.96 0.005 0
7.04 0.005 0
7.12 0.005 0
7.2 0.005 0
7.28 0.005 0
7.36 0.005 0
7.44 0.005 0
7.52 0.005 0
7.6 0.005 0
7.68 0.005 0
7.76 0.005 0
7.84 0.005 0
7.92 0.005 0
8 0.005 0
8.08 0.005 0
8.16 0.005 0
8.24 0.005 0
8.32 0.005 0
8.4 0.005 0
8.48 0.005 0
8.56 0.005 0
8.64 0.005 0
8.72 0.005 0
8.8 0.005 0
8.88 0.005 0
8.96 0.005 0
9.04 0.005 0
9.12 0.005 0
9.2 0.005 0
9.28 0.005 0
9.36 0.005 0
9.44 0.005 0
9.52 0.005 0
9.6 0.005 0
9.68 0.005 0
9.76 0.005 0
9.84 0.005 0
9.92 0.005 0
10 0.005 0
10.08 0.005 0
10.16 0.005 0
10.24 0.005 0
10.32 0.005 0
10.4 0.005 0
10.48 0.005 0
10.56 0.005 0
10.64 0.005 0
10.72 0.005 0
10.8 0.005 0
10.88 0.005 0
10.96 0.005 0
11.04 0.005 0
11.12 0.005 0
11.2 0.005 0
11.28 0.005 0
11.36 0.005 0
11.44 0.005 0
11.52 0.005 0
11.6 0.005 0
11.68 0.005 0
11.76 0.005 0
11.84 0.005 0
11.92 0.005 0
12 0.005 0
12.08 0.005 0
12.16 0.005 0
12.24 0.005 0
12.32 0.005 0
12.4 0.005 0
12.48 0.005 0
12.56 0.005 0
12.64 0.005 0
12.72 0.005 0
12.8 0.005 0
12.88 0.005 0
12.96 0.005 0
13.04 0.005 0
13.12 0.005 0
13.2 0.005 0
13.28 0.005 0
13.36 0.005 0
13.44 0.005 0
13.52 0.005 0
13.6 0.005 0
13.68 0.005 0
13.76 0.005 0
13.84 0.005 0
13.92 0.005 0
14 0.005 0
14.08 0.005 0
14.16 0.005 0
14.24 0.005 0
14.32 0.005 0
14.4 0.005 0
14.48 0.005 0
14.56 0.005 0
14.64 0.005 0
14.72 0.005 0
14.8 0.005 0
14.88 0.005 0
14.96 0.005 0
15.04 0.005 0
15.12 0.005 0
15.2 0.005 0
15.28 0.005 0
15.36 0.005 0
15.44 0.005 0
15.52 0.005 0
15.6 0.005 0
15.68 0.005 0
15.76 0.005 0
15.84 0.005 0
15.92 0.005 0
16 0.005 0
16.08 0.005 0
16.16 0.005 0
16.24 0.005 0
16.32 0.005 0
16.4 0.005 0
16.48 0.005 0
16.56 0.005 0
16.64 0.005 0
16.72 0.005 0
16.8 0.005 0
16.88 0.005 0
16.96 0.005 0
17.04 0.005 0
17.12 0.005 0
17.2 0.005 0
17.28 0.005 0
17.36 0.005 0
17.44 0.005 0
17.52 0.005 0
17.6 0.005 0
17.68 0.005 0
17.76 0.005 0
17.84 0.005 0
17.92 0.005 0
18 0.005 0
18.08 0.005 0
18.16 0.005 0
18.24 0.005 0
18.32 0.005 0
18.4 0.005 0
18.48 0.005 0
18.56 0.005 0
18.64 0.005 0
18.72 0.005 0
18.8 0.005 0
18.88 0.005 0
18.96 0.005 0
19.04 0.005 0
19.12 0.005 0
19.2 0.005 0
19.28 0.005 0
19.36 0.005 0
19.44 0.005 0
19.52 0.005 0
19.6 0.005 0
19.68 0.005 0
19.76 0.005 0
19.84 0.005 0
19.92 0.005 0
20 0.005 0
20.08 0.005 0
20.16 0.005 0
20.24 0.005 0
20.32 0.005 0
20.4 0.005 0
20.48 0.005 0
20.56 0.005 0
20.64 0.005 0
20.72 0.005 0
20.8 0.005 0
20.88 0.005 0
20.96 0.005 0
21.04 0.005 0
21.12 0.005 0
21.2 0.005 0
21.28 0.005 0
21.36 0.005 0
21.44 0.005 0
21.52 0.005 0
21.6 0.005 0
21.68 0.005 0
21.76 0.005 0
21.84 0.005 0
21.92 0.005 0
22 0.005 0
22.08 0.005 0
22.16 0.005 0
22.24 0.005 0
22.32 0.005 0
22.4 0.005 0
22.48 0.005 0
22.56 0.005 0
22.64 0.005 0
22.72 0.005 0
22.8 0.005 0
22.88 0.005 0
22.96 0.005 0
23.04 0.005 0
23.12 0.005 0
23.2 0.005 0
23.28 0.005 0
23.36 0.005 0
23.44 0.005 0
23.52 0.005 0
23.6 0.005 0
23.68 0.005 0
23.76 0.005 0
23.84 0.005 0
23.92 0.005 0
24 0.005 0
24.08 0.005 0
24.16 0.005 0
24.24 0.005 0
24.32 0.005 0
24.4 0.005 0
24.48 0.005 0
24.56 0.005 0
24.64 0.005 0
24.72 0.005 0
24.8 0.005 0
24.88 0.005 0
24.96 0.005 0
25.04 0.005 0
25.12 0.005 0
25.2 0.005 0
25.28 0.005 0
25.36 0.005 0
25.44 0.005 0
25.52 0.005 0
25.6 0.005 0
25.68 0.005 0
25.76 0.005 0
25.84 0.005 0
25.92 0.005 0
26 0.005 0
26.08 0.005 0
26.16 0.005 0
26.24 0.005 0
26.32 0.005 0
26.4 0.005 0
26.48 0.005 0
26.56 0.005 0
26.64 0.005 0
26.72 0.005 0
26.8 0.005 0
26.88 0.005 0
26.96 0.005 0
27.04 0.005 0
27.12 0.005 0
27.2 0.005 0
27.28 0.005 0
27.36 0.005 0
27.44 0.005 0
27.52 0.005 0
27.6 0.005 0
27.68 0.005 0
27.76 0.005 0
27.84 0.005 0
27.92 0.005 0
28 0.005 0
28.08 0.005 0
28.16 0.005 0
28.24 0.005 0
28.32 0.005 0
28.4 0.005 0
28.48 0.005 0
28.56 0.005 0
28.64 0.005 0
28.72 0.005 0
28.8 0.005 0
28.88 0.005 0
28.96 0.005 0
29.04 0.005 0
29.12 0.005 0
29.2 0.005 0
29.28 0.005 0
29.36 0.005 0
29.44 0.005 0
29.52 0.005 0
29.6 0.005 0
29.68 0.005 0
29.76 0.005 0
29.84 0.005 0
29.92 0.005 0
30 0.005 0
30.08 0.005 0
30.16 0.005 0
30.24 0.005 0
30.32 0.005 0
30.4 0.005 0
30.48 0.005 0
30.56 0.005 0
30.64 0.005 0
30.72 0.005 0
30.8 0.005 0
30.88 0.005 0
30.96 0.005 0
31.04 0.005 0
31.12 0.005 0
31.2 0.005 0
31.28 0.005 0
31.36 0.005 0
31.44 0.005 0
31.52 0.005 0
31.6 0.005 0
31.68 0.005 0
31.76 0.005 0
31.84 0.005 0
31.92 0.005 0
0 0.01 0
0.08 0.01 0
0.16 0.01 0
0.24 0.01 0
0.32 0.01 0
0.4 0.01 0
0.48 0.01 0
0.56 0.01 0
0.64 0.01 0
0.72 0.01 0
0.8 0.01 0
0.88 0.01 0
0.96 0.01 0
1.04 0.01 0
1.12 0.01 0
1.2 0.01 0
1.28 0.01 0
1.36 0.01 0
1.44 0.01 0
1.52 0.01 0
1.6 0.01 0
1.68 0.01 0
1.76 0.01 0
1.84 0.01 0
1.92 0.01 0
2 0.01 0
2.08 0.01 0
2.16 0.01 0
2.24 0.01 0
2.32 0.01 0
2.4 0.01 0
2.48 0.01 0
2.56 0.01 0
2.64 0.01 0
2.72 0.01 0
2.8 0.01 0
2.88 0.01 0
2.96 0.01 0
3.04 0.01 0
3.12 0.01 0
3.2 0.01 0
3.28 0.01 0
3.36 0.01 0
3.44 0.01 0
3.52 0.01 0
3.6 0.01 0
3.68 0.01 0
3.76 0.01 0
3.84 0.01 0
3.92 0.01 0
4 0.01 0
4.08 0.01 0
4.16 0.01 0
4.24 0.01 0
4.32 0.01 0
4.4 0.01 0
4.48 0.01 0
4.56 0.01 0
4.64 0.01 0
4.72 0.01 0
4.8 0.01 0
4.88 0.01 0
4.96 0.01 0
5.04 0.01 0
5.12 0.01 0
[...]
POINT_DATA 80000

SCALARS v float 1
LOOKUP_TABLE default
0
0
0
0
0
0
0
0
0
0
0
0
0
0
0
0
0
0
0
0
0
0
0
0
0
0
0
0
0
0
0
0
0
0
0
0
0
0
0
0
0
0
0
0
0
0
0
0
0
0
0
0
0
0
0
0
0
0
0
0
0
0
0
0
0
0
0
0
0
0
0
0
0
0
0
0
0
0
0
0
0
0
0
0
0
0
0
0
0
0
0
0
0
0
0
0
0
0
0
0
0
0
0
0
0
0
0
0
0
0
0
0
0
0
0
0
0
0
0
0
0
0
0
0
0
0
0
0
0
0
0
0
0
0
0
0
0
0
0
0
0
0
0
0
0
0
0
0
0
0
0
0
0
0
0
0
0
0
0
0
0
0
0
0
0
0
0
0
0
0
0
0
0
0
0
0
0
0
0
0
0
0
0
0
0
0
0
0
0
0
0
0
0
0
0
0
0
0
0
0
0
0
0
0
0
0
0
0
0
0
0
0
0
0
0
0
0
0
0
0
0
0
0
0
0
0
0
0
0
0
0
0
0
0
0
0
0
0
0
0
0
0
0
0
0
0
0
0
0
0
0
0
0
0
0
0
0
0
0
0
0
0
0
0
0
0
0
0
0
0
0
0
0
0
0
0
0
0
0
0
0
0
0
0
0
0
0
0
0
0
0
0
0
0
0
0
0
0
0
0
0
0
0
0
0
0
0
0
0
0
0
0
0
0
0
0
0
0
0
0
0
0
0
0
0
0
0
0
0
0
0
0
0
0
0
0
0
0
0
0
0
0
0
0
0
0
0
0
0
0
0
0
0
0
0
0
0
0
0
0
0
0
0
0
0
0
0
0
0
0
0
0
0
0
0
0
0
0
0
0
0
0
0
0
0
0
0
0
0
0
0
0
0
0
0
0
0
0
0
0
-0.0542711
0.0542711
0.00396209
0.00099833
0.00049226
0.000302696
0.00020732
0.000151692
0.00011625
9.22938e-05
7.53807e-05
6.30201e-05
5.37196e-05
4.65411e-05
4.08733e-05
3.63062e-05
3.25587e-05
2.94337e-05
2.67906e-05
2.45275e-05
2.25686e-05
2.08572e-05
1.935e-05
1.80131e-05
1.68201e-05
1.57496e-05
1.47845e-05
1.39105e-05
1.31161e-05
1.23915e-05
1.17283e-05
1.11195e-05
1.05592e-05
1.00421e-05
9.56378e-06
9.1203e-06
8.70824e-06
8.32462e-06
7.96678e-06
7.63239e-06
7.31938e-06
7.02589e-06
6.75029e-06
6.49108e-06
6.24696e-06
6.01673e-06
5.79931e-06
5.59373e-06
5.39911e-06
5.21466e-06
5.03965e-06
4.87341e-06
4.71534e-06
4.56489e-06
4.42155e-06
4.28486e-06
4.15439e-06
4.02975e-06
3.91057e-06
3.79653e-06
3.6873e-06
3.58262e-06
3.48221e-06
3.38583e-06
3.29325e-06
3.20425e-06
3.11865e-06
3.03626e-06
2.9569e-06
2.88043e-06
2.80668e-06
2.73553e-06
2.66683e-06
2.60048e-06
2.53635e-06
2.47434e-06
2.41435e-06
2.35628e-06
2.30005e-06
2.24557e-06
2.19276e-06
2.14155e-06
2.09188e-06
2.04367e-06
1.99686e-06
1.9514e-06
1.90723e-06
1.8643e-06
1.82256e-06
1.78197e-06
1.74247e-06
1.70403e-06
1.66661e-06
1.63017e-06
1.59467e-06
1.56009e-06
1.52638e-06
1.49353e-06
1.46149e-06
1.43024e-06
1.39977e-06
1.37003e-06
1.34101e-06
1.31268e-06
1.28502e-06
1.25802e-06
1.23165e-06
1.20588e-06
1.18072e-06
1.15613e-06
1.1321e-06
1.10862e-06
1.08566e-06
1.06322e-06
1.04127e-06
1.01982e-06
9.98833e-07
9.78309e-07
9.58234e-07
9.38596e-07
9.19382e-07
9.00584e-07
8.82189e-07
8.64188e-07
8.46571e-07
8.29329e-07
8.12452e-07
7.95932e-07
7.7976e-07
7.63928e-07
7.48427e-07
7.33251e-07
7.18391e-07
7.03841e-07
6.89592e-07
6.75639e-07
6.61974e-07
6.48592e-07
6.35485e-07
6.22648e-07
6.10074e-07
5.97759e-07
5.85696e-07
5.73879e-07
5.62304e-07
5.50965e-07
5.39857e-07
5.28975e-07
5.18314e-07
5.0787e-07
4.97638e-07
4.87614e-07
4.77792e-07
4.6817e-07
4.58742e-07
4.49505e-07
4.40455e-07
4.31588e-07
4.22899e-07
4.14386e-07
4.06044e-07
3.97871e-07
3.89862e-07
3.82015e-07
3.74326e-07
3.66791e-07
3.59408e-07
3.52174e-07
3.45085e-07
3.38139e-07
3.31332e-07
3.24662e-07
3.18127e-07
3.11722e-07
3.05446e-07
2.99297e-07
2.9327e-07
2.87365e-07
2.81579e-07
2.75908e-07
2.70352e-07
2.64907e-07
2.59571e-07
2.54342e-07
2.49219e-07
2.44198e-07
2.39278e-07
2.34457e-07
2.29733e-07
2.25103e-07
2.20567e-07
2.16121e-07
2.11765e-07
2.07496e-07
2.03313e-07
1.99215e-07
1.95198e-07
1.91262e-07
1.87405e-07
1.83626e-07
1.79922e-07
1.76293e-07
1.72737e-07
1.69253e-07
1.65838e-07
1.62492e-07
1.59214e-07
1.56001e-07
1.52853e-07
1.49768e-07
1.46746e-07
1.43784e-07
1.40882e-07
1.38038e-07
1.35251e-07
1.3252e-07
1.29845e-07
1.27223e-07
1.24654e-07
1.22137e-07
1.1967e-07
1.17254e-07
1.14885e-07
1.12565e-07
1.10291e-07
1.08063e-07
1.0588e-07
1.03741e-07
1.01645e-07
9.95909e-08
9.75785e-08
9.56066e-08
9.36744e-08
9.17811e-08
8.9926e-08
8.81083e-08
8.63273e-08
8.45821e-08
8.28722e-08
8.11967e-08
7.95551e-08
7.79466e-08
7.63707e-08
7.48265e-08
7.33136e-08
7.18313e-08
7.0379e-08
6.89562e-08
6.75621e-08
6.61963e-08
6.48583e-08
6.35473e-08
6.2263e-08
6.10047e-08
5.9772e-08
5.85642e-08
5.73808e-08
5.62214e-08
5.50853e-08
5.39721e-08
5.28813e-08
5.18122e-08
5.07643e-08
4.97372e-08
4.87302e-08
4.77428e-08
4.67745e-08
4.58246e-08
4.48928e-08
4.39783e-08
4.30807e-08
4.21993e-08
4.13336e-08
4.04831e-08
3.96471e-08
3.88252e-08
3.80168e-08
3.72212e-08
3.64381e-08
3.56669e-08
3.4907e-08
3.4158e-08
3.34194e-08
3.26907e-08
3.19715e-08
3.12614e-08
3.05599e-08
2.98666e-08
2.91813e-08
2.85036e-08
2.78332e-08
2.71697e-08
2.65131e-08
2.5863e-08
2.52192e-08
2.45816e-08
2.39501e-08
2.33245e-08
2.27048e-08
2.2091e-08
2.14829e-08
2.08806e-08
2.02842e-08
1.96937e-08
1.91092e-08
1.85307e-08
1.79585e-08
1.73926e-08
1.68333e-08
1.62806e-08
1.57349e-08
1.51963e-08
1.4665e-08
1.41414e-08
1.36255e-08
1.31177e-08
1.26183e-08
1.21274e-08
1.16453e-08
1.11723e-08
1.07086e-08
1.02544e-08
9.81002e-09
9.37556e-09
8.95126e-09
8.53729e-09
8.13384e-09
7.74103e-09
7.35902e-09
6.9879e-09
6.62778e-09
6.27871e-09
5.94077e-09
5.61398e-09
5.29838e-09
4.99393e-09
4.70067e-09
4.41848e-09
4.14739e-09
3.8872e-09
3.63795e-09
3.39935e-09
3.17145e-09
2.9539e-09
2.74674e-09
2.54958e-09
2.36241e-09
2.18478e-09
2.01674e-09
1.8577e-09
1.70779e-09
1.5663e-09
1.43344e-09
1.30841e-09
1.1915e-09
1.08174e-09
9.7961e-10
8.83891e-10
7.95323e-10
7.12408e-10
6.36182e-10
5.64834e-10
4.99781e-10
4.38779e-10
3.83774e-10
3.31948e-10
2.85855e-10
2.4206e-10
2.03831e-10
1.66958e-10
1.35649e-10
1.04652e-10
7.93752e-11
5.33299e-11
3.32905e-11
1.13054e-11
-4.212e-12
-2.29095e-11
-3.45787e-11
-5.06575e-11
-5.91224e-11
-7.3082e-11
-7.90185e-11
-9.10467e-11
-9.53792e-11
-1.05228e-10
-1.09397e-10
-1.15894e-10
-1.22681e-10
-1.22754e-10
-1.37934e-10
-1.24219e-10
-1.60729e-10
-1.1435e-10
-2.03678e-10
-6.3985e-11
-2.92482e-10
3.2743e-10
-1.7226e-10
-1.7226e-10
-0.0952159
0.0952159
0.0129756
0.00385462
0.00193431
0.0011962
0.000821741
0.000602314
0.000462067
0.000367041
0.000299831
0.000250645
0.000213602
0.000184994
0.0001624
0.000144195
0.00012926
0.00011681
0.000106285
9.72762e-05
8.9483e-05
8.26777e-05
7.66868e-05
7.13754e-05
6.66372e-05
6.23871e-05
5.85565e-05
5.50887e-05
5.19373e-05
4.90631e-05
4.64331e-05
4.40194e-05
4.17981e-05
3.97484e-05
3.78526e-05
3.60951e-05
3.44623e-05
3.29422e-05
3.15245e-05
3.01998e-05
2.89598e-05
2.77973e-05
2.67056e-05
2.5679e-05
2.47121e-05
2.38003e-05
2.29393e-05
2.21253e-05
2.13546e-05
2.06243e-05
1.99313e-05
1.92731e-05
1.86473e-05
1.80517e-05
1.74842e-05
1.69431e-05
1.64266e-05
1.59332e-05
1.54615e-05
1.50101e-05
1.45778e-05
1.41634e-05
1.3766e-05
1.33846e-05
1.30182e-05
1.2666e-05
1.23272e-05
1.20012e-05
1.16872e-05
1.13846e-05
1.10928e-05
1.08112e-05
1.05394e-05
1.02769e-05
1.00232e-05
9.77784e-06
9.5405e-06
9.31078e-06
9.08833e-06
8.87281e-06
8.66393e-06
8.46138e-06
8.2649e-06
8.07421e-06
7.88909e-06
7.7093e-06
7.53462e-06
7.36484e-06
7.19977e-06
7.03923e-06
6.88304e-06
6.73104e-06
6.58307e-06
6.43898e-06
6.29864e-06
6.1619e-06
6.02864e-06
5.89874e-06
5.77209e-06
5.64857e-06
5.52808e-06
5.41052e-06
5.2958e-06
5.18383e-06
5.07452e-06
4.96778e-06
4.86355e-06
4.76174e-06
4.66228e-06
4.5651e-06
4.47014e-06
4.37733e-06
4.28661e-06
4.19793e-06
4.11122e-06
4.02644e-06
3.94353e-06
3.86244e-06
3.78312e-06
3.70553e-06
3.62962e-06
3.55535e-06
3.48268e-06
3.41157e-06
3.34198e-06
3.27387e-06
3.2072e-06
3.14194e-06
3.07806e-06
3.01553e-06
2.95431e-06
2.89436e-06
2.83567e-06
2.77821e-06
2.72193e-06
2.66683e-06
2.61286e-06
2.56001e-06
2.50825e-06
2.45756e-06
2.40791e-06
2.35927e-06
2.31164e-06
2.26498e-06
2.21927e-06
2.1745e-06
2.13064e-06
2.08768e-06
2.04558e-06
2.00435e-06
1.96395e-06
1.92437e-06
1.8856e-06
1.84761e-06
1.81039e-06
1.77392e-06
1.73819e-06
1.70319e-06
1.66889e-06
1.63528e-06
1.60235e-06
1.57009e-06
1.53848e-06
1.5075e-06
1.47715e-06
1.44741e-06
1.41827e-06
1.38971e-06
1.36173e-06
1.33431e-06
1.30745e-06
1.28112e-06
1.25532e-06
1.23005e-06
1.20528e-06
1.18101e-06
1.15722e-06
1.13392e-06
1.11108e-06
1.0887e-06
1.06677e-06
1.04528e-06
1.02422e-06
1.00359e-06
9.83369e-07
9.63555e-07
9.44139e-07
9.25113e-07
9.0647e-07
8.88201e-07
8.70298e-07
8.52756e-07
8.35566e-07
8.18721e-07
8.02215e-07
7.8604e-07
7.7019e-07
7.54659e-07
7.3944e-07
7.24527e-07
7.09913e-07
6.95594e-07
6.81562e-07
6.67812e-07
6.54339e-07
6.41137e-07
6.28201e-07
6.15524e-07
6.03103e-07
5.90931e-07
5.79005e-07
5.67318e-07
5.55867e-07
5.44646e-07
5.33651e-07
5.22878e-07
5.12321e-07
5.01977e-07
4.91841e-07
4.81909e-07
4.72177e-07
4.62642e-07
4.53298e-07
4.44143e-07
4.35172e-07
4.26381e-07
4.17768e-07
4.09328e-07
4.01059e-07
3.92955e-07
3.85016e-07
3.77236e-07
3.69613e-07
3.62143e-07
3.54825e-07
3.47653e-07
3.40627e-07
3.33742e-07
3.26996e-07
3.20386e-07
3.13909e-07
3.07564e-07
3.01346e-07
2.95254e-07
2.89286e-07
2.83438e-07
2.77708e-07
2.72095e-07
2.66595e-07
2.61207e-07
2.55928e-07
2.50756e-07
2.45689e-07
2.40725e-07
2.35861e-07
2.31096e-07
2.26427e-07
2.21852e-07
2.1737e-07
2.12977e-07
2.08672e-07
2.04453e-07
2.00317e-07
1.96262e-07
1.92287e-07
1.88389e-07
1.84566e-07
1.80815e-07
1.77135e-07
1.73523e-07
1.69976e-07
1.66494e-07
1.63072e-07
1.5971e-07
1.56405e-07
1.53155e-07
1.49958e-07
1.4681e-07
1.43712e-07
1.40659e-07
1.37651e-07
1.34685e-07
1.31759e-07
1.28872e-07
1.26022e-07
1.23208e-07
1.20426e-07
1.17677e-07
1.14959e-07
1.12271e-07
1.09611e-07
1.06978e-07
1.04371e-07
1.01791e-07
9.92348e-08
9.67033e-08
9.41955e-08
9.17113e-08
8.92502e-08
8.68121e-08
8.43971e-08
8.20052e-08
7.96366e-08
7.72915e-08
7.49703e-08
7.26734e-08
7.04015e-08
6.81552e-08
6.5935e-08
6.37419e-08
6.15766e-08
5.94401e-08
5.73331e-08
5.52568e-08
5.3212e-08
5.11997e-08
4.92211e-08
4.72769e-08
4.53684e-08
4.34964e-08
4.16619e-08
3.98657e-08
3.81089e-08
3.63921e-08
3.47161e-08
3.30817e-08
3.14895e-08
2.994e-08
2.84339e-08
2.69714e-08
2.55531e-08
2.41789e-08
2.28494e-08
2.15644e-08
2.03242e-08
1.91285e-08
1.79775e-08
1.68707e-08
1.58082e-08
1.47891e-08
1.38135e-08
1.28804e-08
1.19898e-08
1.11404e-08
1.03323e-08
9.56381e-09
8.83505e-09
8.14406e-09
7.49106e-09
6.87373e-09
6.29248e-09
5.74459e-09
5.23081e-09
4.74788e-09
4.29704e-09
3.87439e-09
3.48176e-09
3.11446e-09
2.7752e-09
2.45829e-09
2.16754e-09
1.89608e-09
1.64917e-09
1.41837e-09
1.21074e-09
1.0159e-09
8.43175e-10
6.79749e-10
5.37774e-10
4.01385e-10
2.86311e-10
1.72947e-10
8.13345e-11
-1.27446e-11
-8.40347e-11
-1.6224e-10
-2.16055e-10
-2.81468e-10
-3.20418e-10
-3.75646e-10
-4.02237e-10
-4.4922e-10
-4.66054e-10
-5.05658e-10
-5.16184e-10
-5.47506e-10
-5.57207e-10
-5.76003e-10
-5.95171e-10
-5.90216e-10
-6.40246e-10
-5.84492e-10
-7.13172e-10
-5.37165e-10
-8.60347e-10
-3.41223e-10
-1.17072e-09
1.09496e-09
-7.25437e-10
-7.25437e-10
-0.125293
0.125293
0.0249359
0.00835802
0.004278
0.00266152
0.00183374
0.00134635
0.00103388
0.000821704
0.000671387
0.00056125
0.000478232
0.000414085
0.00036341
0.000322576
0.000289079
0.000261164
0.000237571
0.000217385
0.000199929
0.000184691
0.000171281
0.000159395
0.000148795
0.00013929
0.000130724
0.000122972
0.000115928
0.000109505
0.000103628
9.8235e-05
9.32725e-05
8.86939e-05
8.44594e-05
8.0534e-05
7.68875e-05
7.3493e-05
7.03272e-05
6.73692e-05
6.46006e-05
6.20051e-05
5.95679e-05
5.7276e-05
5.51176e-05
5.30822e-05
5.11602e-05
4.93431e-05
4.7623e-05
4.59928e-05
4.44462e-05
4.29772e-05
4.15804e-05
4.02511e-05
3.89848e-05
3.77772e-05
3.66246e-05
3.55236e-05
3.44709e-05
3.34636e-05
3.2499e-05
3.15745e-05
3.06878e-05
2.98367e-05
2.90192e-05
2.82334e-05
2.74776e-05
2.67502e-05
2.60497e-05
2.53746e-05
2.47236e-05
2.40956e-05
2.34892e-05
2.29036e-05
2.23377e-05
2.17904e-05
2.1261e-05
2.07487e-05
2.02525e-05
1.97718e-05
1.93059e-05
1.88542e-05
1.8416e-05
1.79908e-05
1.75779e-05
1.7177e-05
1.67874e-05
1.64088e-05
1.60408e-05
1.56828e-05
1.53345e-05
1.49956e-05
1.46657e-05
1.43444e-05
1.40315e-05
1.37266e-05
1.34296e-05
1.314e-05
1.28576e-05
1.25823e-05
1.23137e-05
1.20516e-05
1.17959e-05
1.15463e-05
1.13026e-05
1.10647e-05
1.08324e-05
1.06055e-05
1.03838e-05
1.01672e-05
9.9556e-06
9.74876e-06
9.54659e-06
9.34896e-06
9.15574e-06
8.96681e-06
8.78205e-06
8.60135e-06
8.42462e-06
8.25173e-06
8.08259e-06
7.91712e-06
7.7552e-06
7.59676e-06
7.44171e-06
7.28996e-06
7.14143e-06
6.99605e-06
6.85374e-06
6.71443e-06
6.57804e-06
6.44451e-06
6.31377e-06
6.18575e-06
6.0604e-06
5.93765e-06
5.81745e-06
5.69973e-06
5.58444e-06
5.47152e-06
5.36093e-06
5.25261e-06
5.14652e-06
5.0426e-06
4.9408e-06
4.84108e-06
4.7434e-06
4.64772e-06
4.55398e-06
4.46214e-06
4.37218e-06
4.28404e-06
4.19769e-06
4.11309e-06
4.03021e-06
3.94901e-06
3.86944e-06
3.79149e-06
3.71512e-06
3.64028e-06
3.56696e-06
3.49512e-06
3.42473e-06
3.35575e-06
3.28817e-06
3.22195e-06
3.15706e-06
3.09348e-06
3.03119e-06
2.97014e-06
2.91032e-06
2.85171e-06
2.79428e-06
2.738e-06
2.68285e-06
2.62881e-06
2.57586e-06
2.52397e-06
2.47313e-06
2.42331e-06
2.37449e-06
2.32665e-06
2.27977e-06
2.23383e-06
2.18882e-06
2.14471e-06
2.10149e-06
2.05913e-06
2.01763e-06
1.97696e-06
1.93711e-06
1.89805e-06
1.85979e-06
1.82229e-06
1.78554e-06
1.74954e-06
1.71426e-06
1.67968e-06
1.64581e-06
1.61261e-06
1.58008e-06
1.54821e-06
1.51697e-06
1.48637e-06
1.45637e-06
1.42699e-06
1.39819e-06
1.36998e-06
1.34233e-06
1.31523e-06
1.28869e-06
1.26267e-06
1.23719e-06
1.21221e-06
1.18774e-06
1.16376e-06
1.14026e-06
1.11724e-06
1.09467e-06
1.07257e-06
1.05091e-06
1.02968e-06
1.00889e-06
9.88509e-07
9.68541e-07
9.48976e-07
9.29805e-07
9.11021e-07
8.92615e-07
8.74579e-07
8.56908e-07
8.39592e-07
8.22626e-07
8.06001e-07
7.89711e-07
7.7375e-07
7.58111e-07
7.42788e-07
7.27773e-07
7.13062e-07
6.98648e-07
6.84524e-07
6.70686e-07
6.57128e-07
6.43845e-07
6.3083e-07
6.18078e-07
6.05585e-07
5.93345e-07
5.81352e-07
5.69603e-07
5.58093e-07
5.46815e-07
5.35766e-07
5.24941e-07
5.14334e-07
5.03942e-07
4.93759e-07
4.83781e-07
4.74002e-07
4.64419e-07
4.55026e-07
4.45819e-07
4.36792e-07
4.27941e-07
4.19261e-07
4.10747e-07
4.02393e-07
3.94196e-07
3.8615e-07
3.7825e-07
3.70491e-07
3.62868e-07
3.55376e-07
3.4801e-07
3.40765e-07
3.33636e-07
3.26619e-07
3.19709e-07
3.12901e-07
3.06191e-07
2.99575e-07
2.93048e-07
2.86606e-07
2.80246e-07
2.73963e-07
2.67755e-07
2.61618e-07
2.5555e-07
2.49546e-07
2.43606e-07
2.37727e-07
2.31906e-07
2.26142e-07
2.20434e-07
2.14779e-07
2.09178e-07
2.0363e-07
1.98133e-07
1.92688e-07
1.87294e-07
1.81953e-07
1.76664e-07
1.71427e-07
1.66245e-07
1.61118e-07
1.56047e-07
1.51034e-07
1.4608e-07
1.41187e-07
1.36357e-07
1.31592e-07
1.26894e-07
1.22265e-07
1.17708e-07
1.13224e-07
1.08816e-07
1.04486e-07
1.00236e-07
9.6069e-08
9.19863e-08
8.79901e-08
8.40824e-08
8.02649e-08
7.65393e-08
7.29072e-08
6.937e-08
6.59288e-08
6.25849e-08
5.9339e-08
5.61921e-08
5.31444e-08
5.01966e-08
4.73485e-08
4.46008e-08
4.19527e-08
3.94046e-08
3.69553e-08
3.46047e-08
3.23513e-08
3.0195e-08
2.81335e-08
2.61667e-08
2.42918e-08
2.25087e-08
2.0814e-08
1.92076e-08
1.76852e-08
1.62473e-08
1.48886e-08
1.361e-08
1.24055e-08
1.12766e-08
1.02162e-08
9.22687e-09
8.30001e-09
7.43951e-09
6.63518e-09
5.89268e-09
5.19973e-09
4.56443e-09
3.97191e-09
3.43333e-09
2.93053e-09
2.47854e-09
2.05502e-09
1.67985e-09
1.32549e-09
1.0179e-09
7.23061e-10
4.74562e-10
2.30314e-10
3.32282e-11
-1.68646e-10
-3.21255e-10
-4.88271e-10
-6.02703e-10
-7.41672e-10
-8.23668e-10
-9.40349e-10
-9.95375e-10
-1.09401e-09
-1.1278e-09
-1.21042e-09
-1.23032e-09
-1.29514e-09
-1.31288e-09
-1.35101e-09
-1.38853e-09
-1.37634e-09
-1.47899e-09
-1.35939e-09
-1.62845e-09
-1.25493e-09
-1.93492e-09
-8.37711e-10
-2.57843e-09
2.1598e-09
-1.64423e-09
-1.64423e-09
-0.146488
0.146488
0.0383105
0.014234
0.00745602
0.00467275
0.00323055
0.00237653
0.00182708
0.00145306
0.00118762
0.000992883
0.000845958
0.000732363
0.000642595
0.000570249
0.000510907
0.00046146
0.000419681
0.000383945
0.00035305
0.00032609
0.000302371
0.000281354
0.000262615
0.000245814
0.000230678
0.000216981
0.000204538
0.000193192
0.000182814
0.000173291
0.000164528
0.000156444
0.000148969
0.000142039
0.000135602
0.000129611
0.000124023
0.000118802
0.000113916
0.000109336
0.000105035
0.00010099
9.71815e-05
9.359e-05
9.01987e-05
8.69925e-05
8.39576e-05
8.10814e-05
7.83527e-05
7.5761e-05
7.3297e-05
7.09519e-05
6.87178e-05
6.65875e-05
6.45544e-05
6.26122e-05
6.07553e-05
5.89785e-05
5.7277e-05
5.56463e-05
5.40823e-05
5.25812e-05
5.11393e-05
4.97535e-05
4.84205e-05
4.71376e-05
4.59022e-05
4.47116e-05
4.35636e-05
4.2456e-05
4.13869e-05
4.03542e-05
3.93562e-05
3.83912e-05
3.74578e-05
3.65543e-05
3.56794e-05
3.48319e-05
3.40105e-05
3.32141e-05
3.24415e-05
3.16918e-05
3.09639e-05
3.02571e-05
2.95704e-05
2.8903e-05
2.82541e-05
2.76231e-05
2.70092e-05
2.64118e-05
2.58302e-05
2.5264e-05
2.47125e-05
2.41751e-05
2.36515e-05
2.31411e-05
2.26435e-05
2.21582e-05
2.16849e-05
2.12231e-05
2.07724e-05
2.03326e-05
1.99032e-05
1.9484e-05
1.90746e-05
1.86748e-05
1.82842e-05
1.79026e-05
1.75297e-05
1.71653e-05
1.68091e-05
1.64609e-05
1.61205e-05
1.57876e-05
1.54621e-05
1.51438e-05
1.48325e-05
1.45279e-05
1.423e-05
1.39385e-05
1.36533e-05
1.33742e-05
1.31011e-05
1.28338e-05
1.25722e-05
1.23161e-05
1.20654e-05
1.18201e-05
1.15799e-05
1.13447e-05
1.11144e-05
1.0889e-05
1.06682e-05
1.04521e-05
1.02404e-05
1.00331e-05
9.83004e-06
9.6312e-06
9.43646e-06
9.24572e-06
9.0589e-06
8.87591e-06
8.69666e-06
8.52108e-06
8.34909e-06
8.1806e-06
8.01555e-06
7.85386e-06
7.69546e-06
7.54028e-06
7.38825e-06
7.23931e-06
7.09338e-06
6.95042e-06
6.81034e-06
6.67311e-06
6.53864e-06
6.4069e-06
6.27782e-06
6.15134e-06
6.02742e-06
5.906e-06
5.78703e-06
5.67045e-06
5.55623e-06
5.44431e-06
5.33464e-06
5.22718e-06
5.12189e-06
5.01871e-06
4.91761e-06
4.81855e-06
4.72148e-06
4.62636e-06
4.53315e-06
4.44182e-06
4.35233e-06
4.26463e-06
4.1787e-06
4.09449e-06
4.01198e-06
3.93113e-06
3.8519e-06
3.77426e-06
3.69818e-06
3.62364e-06
3.55059e-06
3.47901e-06
3.40887e-06
3.34014e-06
3.27278e-06
3.20679e-06
3.14212e-06
3.07875e-06
3.01665e-06
2.95581e-06
2.89618e-06
2.83776e-06
2.78051e-06
2.72441e-06
2.66944e-06
2.61558e-06
2.5628e-06
2.51108e-06
2.4604e-06
2.41075e-06
2.36209e-06
2.31441e-06
2.26769e-06
2.22191e-06
2.17705e-06
2.1331e-06
2.09003e-06
2.04783e-06
2.00648e-06
1.96596e-06
1.92626e-06
1.88736e-06
1.84924e-06
1.81189e-06
1.77529e-06
1.73943e-06
1.70429e-06
1.66986e-06
1.63613e-06
1.60307e-06
1.57068e-06
1.53895e-06
1.50785e-06
1.47738e-06
1.44752e-06
1.41827e-06
1.3896e-06
1.36151e-06
1.33399e-06
1.30703e-06
1.28061e-06
1.25472e-06
1.22936e-06
1.2045e-06
1.18015e-06
1.1563e-06
1.13292e-06
1.11002e-06
1.08758e-06
1.0656e-06
1.04406e-06
1.02296e-06
1.00228e-06
9.82026e-07
9.62181e-07
9.42738e-07
9.23688e-07
9.05023e-07
8.86735e-07
8.68814e-07
8.51253e-07
8.34044e-07
8.17177e-07
8.00645e-07
7.84439e-07
7.68549e-07
7.52969e-07
7.37688e-07
7.22698e-07
7.07991e-07
6.93558e-07
6.79389e-07
6.65476e-07
6.5181e-07
6.38382e-07
6.25184e-07
6.12207e-07
5.99442e-07
5.8688e-07
5.74514e-07
5.62334e-07
5.50334e-07
5.38504e-07
5.26838e-07
5.15329e-07
5.03968e-07
4.9275e-07
4.81669e-07
4.70718e-07
4.59892e-07
4.49185e-07
4.38593e-07
4.28111e-07
4.17737e-07
4.07465e-07
3.97294e-07
3.8722e-07
3.77242e-07
3.67357e-07
3.57566e-07
3.47866e-07
3.38258e-07
3.28742e-07
3.19318e-07
3.09987e-07
3.0075e-07
2.9161e-07
2.82567e-07
2.73625e-07
2.64786e-07
2.56052e-07
2.47427e-07
2.38915e-07
2.30519e-07
2.22242e-07
2.14089e-07
2.06063e-07
1.98168e-07
1.90408e-07
1.82788e-07
1.7531e-07
1.67979e-07
1.60799e-07
1.53772e-07
1.46903e-07
1.40194e-07
1.33648e-07
1.27268e-07
1.21057e-07
1.15015e-07
1.09147e-07
1.03451e-07
9.79314e-08
9.25871e-08
8.74194e-08
8.24283e-08
7.76144e-08
7.29766e-08
6.85151e-08
6.42281e-08
6.01154e-08
5.6174e-08
5.24036e-08
4.88003e-08
4.53638e-08
4.20891e-08
3.89758e-08
3.60179e-08
3.32152e-08
3.05604e-08
2.80536e-08
2.5686e-08
2.34589e-08
2.13618e-08
1.93971e-08
1.75526e-08
1.58322e-08
1.42214e-08
1.27266e-08
1.13302e-08
1.00416e-08
8.8399e-09
7.73858e-09
6.71222e-09
5.77962e-09
4.90979e-09
4.12811e-09
3.39646e-09
2.74853e-09
2.13729e-09
1.60687e-09
1.09923e-09
6.71437e-10
2.51777e-10
-8.68547e-11
-4.32891e-10
-6.94473e-10
-9.8004e-10
-1.17556e-09
-1.41247e-09
-1.55196e-09
-1.75026e-09
-1.84318e-09
-2.0103e-09
-2.06653e-09
-2.20611e-09
-2.23816e-09
-2.3474e-09
-2.37522e-09
-2.43934e-09
-2.49996e-09
-2.47939e-09
-2.6493e-09
-2.4482e-09
-2.89796e-09
-2.27066e-09
-3.41056e-09
-1.57061e-09
-4.47898e-09
3.38134e-09
-2.92307e-09
-2.92307e-09
-0.160438
0.160438
0.0519966
0.0211683
0.0113796