# vtk DataFile Version 2.0
FlowField
ASCII
DATASET STRUCTURED_GRID
DIMENSIONS 400 1 200
POINTS 80000 float
0 0 0
0.08 0 0
0.16 0 0
0.24 0 0
0.32 0 0
0.4 0 0
0.48 0 0
0.56 0 0
0.64 0 0
0.72 0 0
0.8 0 0
0.88 0 0
0.96 0 0
1.04 0 0
1.12 0 0
1.2 0 0
1.28 0 0
1.36 0 0
1.44 0 0
1.52 0 0
1.6 0 0
1.68 0 0
1.76 0 0
1.84 0 0
1.92 0 0
2 0 0
2.08 0 0
2.16 0 0
2.24 0 0
2.32 0 0
2.4 0 0
2.48 0 0
2.56 0 0
2.64 0 0
2.72 0 0
2.8 0 0
2.88 0 0
2.96 0 0
3.04 0 0
3.12 0 0
3.2 0 0
3.28 0 0
3.36 0 0
3.44 0 0
3.52 0 0
3.6 0 0
3.68 0 0
3.76 0 0
3.84 0 0
3.92 0 0
4 0 0
4.08 0 0
4.16 0 0
4.24 0 0
4.32 0 0
4.4 0 0
4.48 0 0
4.56 0 0
4.64 0 0
4.72 0 0
4.8 0 0
4.88 0 0
4.96 0 0
5.04 0 0
5.12 0 0
5.2 0 0
5.28 0 0
5.36 0 0
5.44 0 0
5.52 0 0
5.6 0 0
5.68 0 0
5.76 0 0
5.84 0 0
5.92 0 0
6 0 0
6.08 0 0
6.16 0 0
6.24 0 0
6.32 0 0
6.4 0 0
6.48 0 0
6.56 0 0
6.64 0 0
6.72 0 0
6.8 0 0
6.88 0 0
6.96 0 0
7.04 0 0
7.12 0 0
7.2 0 0
7.28 0 0
7.36 0 0
7.44 0 0
7.52 0 0
7.6 0 0
7.68 0 0
7.76 0 0
7.84 0 0
7.92 0 0
8 0 0
8.08 0 0
8.16 0 0
8.24 0 0
8.32 0 0
8.4 0 0
8.48 0 0
8.56 0 0
8.64 0 0
8.72 0 0
8.8 0 0
8.88 0 0
8.96 0 0
9.04 0 0
9.12 0 0
9.2 0 0
9.28 0 0
9.36 0 0
9.44 0 0
9.52 0 0
9.6 0 0
9.68 0 0
9.76 0 0
9.84 0 0
9.92 0 0
10 0 0
10.08 0 0
10.16 0 0
10.24 0 0
10.32 0 0
10.4 0 0
10.48 0 0
10.56 0 0
10.64 0 0
10.72 0 0
10.8 0 0
10.88 0 0
10.96 0 0
11.04 0 0
11.12 0 0
11.2 0 0
11.28 0 0
11.36 0 0
11.44 0 0
11.52 0 0
11.6 0 0
11.68 0 0
11.76 0 0
11.84 0 0
11.92 0 0
12 0 0
12.08 0 0
12.16 0 0
12.24 0 0
12.32 0 0
12.4 0 0
12.48 0 0
12.56 0 0
12.64 0 0
12.72 0 0
12.8 0 0
12.88 0 0
12.96 0 0
13.04 0 0
13.12 0 0
13.2 0 0
13.28 0 0
13.36 0 0
13.44 0 0
13.52 0 0
13.6 0 0
13.68 0 0
13.76 0 0
13.84 0 0
13.92 0 0
14 0 0
14.08 0 0
14.16 0 0
14.24 0 0
14.32 0 0
14.4 0 0
14.48 0 0
14.56 0 0
14.64 0 0
14.72 0 0
14.8 0 0
14.88 0 0
14.96 0 0
15.04 0 0
15.12 0 0
15.2 0 0
15.28 0 0
15.36 0 0
15.44 0 0
15.52 0 0
15.6 0 0
15.68 0 0
15.76 0 0
15.84 0 0
15.92 0 0
16 0 0
16.08 0 0
16.16 0 0
16.24 0 0
16.32 0 0
16.4 0 0
16.48 0 0
16.56 0 0
16.64 0 0
16.72 0 0
16.8 0 0
16.88 0 0
16.96 0 0
17.04 0 0
17.12 0 0
17.2 0 0
17.28 0 0
17.36 0 0
17.44 0 0
17.52 0 0
17.6 0 0
17.68 0 0
17.76 0 0
17.84 0 0
17.92 0 0
18 0 0
18.08 0 0
18.16 0 0
18.24 0 0
18.32 0 0
18.4 0 0
18.48 0 0
18.56 0 0
18.64 0 0
18.72 0 0
18.8 0 0
18.88 0 0
18.96 0 0
19.04 0 0
19.12 0 0
19.2 0 0
19.28 0 0
19.36 0 0
19.44 0 0
19.52 0 0
19.6 0 0
19.68 0 0
19.76 0 0
19.84 0 0
19.92 0 0
20 0 0
20.08 0 0
20.16 0 0
20.24 0 0
20.32 0 0
20.4 0 0
20.48 0 0
20.56 0 0
20.64 0 0
20.72 0 0
20.8 0 0
20.88 0 0
20.96 0 0
21.04 0 0
21.12 0 0
21.2 0 0
21.28 0 0
21.36 0 0
21.44 0 0
21.52 0 0
21.6 0 0
21.68 0 0
21.76 0 0
21.84 0 0
21.92 0 0
22 0 0
22.08 0 0
22.16 0 0
22.24 0 0
22.32 0 0
22.4 0 0
22.48 0 0
22.56 0 0
22.64 0 0
22.72 0 0
22.8 0 0
22.88 0 0
22.96 0 0
23.04 0 0
23.12 0 0
23.2 0 0
23.28 0 0
23.36 0 0
23.44 0 0
23.52 0 0
23.6 0 0
23.68 0 0
23.76 0 0
23.84 0 0
23.92 0 0
24 0 0
24.08 0 0
24.16 0 0
24.24 0 0
24.32 0 0
24.4 0 0
24.48 0 0
24.56 0 0
24.64 0 0
24.72 0 0
24.8 0 0
24.88 0 0
24.96 0 0
25.04 0 0
25.12 0 0
25.2 0 0
25.28 0 0
25.36 0 0
25.44 0 0
25.52 0 0
25.6 0 0
25.68 0 0
25.76 0 0
25.84 0 0
25.92 0 0
26 0 0
26.08 0 0
26.16 0 0
26.24 0 0
26.32 0 0
26.4 0 0
26.48 0 0
26.56 0 0
26.64 0 0
26.72 0 0
26.8 0 0
26.88 0 0
26.96 0 0
27.04 0 0
27.12 0 0
27.2 0 0
27.28 0 0
27.36 0 0
27.44 0 0
27.52 0 0
27.6 0 0
27.68 0 0
27.76 0 0
27.84 0 0
27.92 0 0
28 0 0
28.08 0 0
28.16 0 0
28.24 0 0
28.32 0 0
28.4 0 0
28.48 0 0
28.56 0 0
28.64 0 0
28.72 0 0
28.8 0 0
28.88 0 0
28.96 0 0
29.04 0 0
29.12 0 0
29.2 0 0
29.28 0 0
29.36 0 0
29.44 0 0
29.52 0 0
29.6 0 0
29.68 0 0
29.76 0 0
29.84 0 0
29.92 0 0
30 0 0
30.08 0 0
30.16 0 0
30.24 0 0
30.32 0 0
30.4 0 0
30.48 0 0
30.56 0 0
30.64 0 0
30.72 0 0
30.8 0 0
30.88 0 0
30.96 0 0
31.04 0 0
31.12 0 0
31.2 0 0
31.28 0 0
31.36 0 0
31.44 0 0
31.52 0 0
31.6 0 0
31.68 0 0
31.76 0 0
31.84 0 0
31.92 0 0
0 0.005 0
0.08 0.005 0
0.16 0.005 0
0.24 0.005 0
0.32 0.005 0
0.4 0.005 0
0.48 0.005 0
0.56 0.005 0
0.64 0.005 0
0.72 0.005 0
0.8 0.005 0
0.88 0.005 0
0.96 0.005 0
1.04 0.005 0
1.12 0.005 0
1.2 0.005 0
1.28 0.005 0
1.36 0.005 0
1.44 0.005 0
1.52 0.005 0
1.6 0.005 0
1.68 0.005 0
1.76 0.005 0
1.84 0.005 0
1.92 0.005 0
2 0.005 0
2.08 0.005 0
2.16 0.005 0
2.24 0.005 0
2.32 0.005 0
2.4 0.005 0
2.48 0.005 0
2.56 0.005 0
2.64 0.005 0
2.72 0.005 0
2.8 0.005 0
2.88 0.005 0
2.96 0.005 0
3.04 0.005 0
3.12 0.005 0
3.2 0.005 0
3.28 0.005 0
3.36 0.005 0
3.44 0.005 0
3.52 0.005 0
3.6 0.005 0
3.68 0.005 0
3.76 0.005 0
3.84 0.005 0
3.92 0.005 0
4 0.005 0
4.08 0.005 0
4.16 0.005 0
4.24 0.005 0
4.32 0.005 0
4.4 0.005 0
4.48 0.005 0
4.56 0.005 0
4.64 0.005 0
4.72 0.005 0
4.8 0.005 0
4.88 0.005 0
4.96 0.005 0
5.04 0.005 0
5.12 0.005 0
5.2 0.005 0
5.28 0.005 0
5.36 0.005 0
5.44 0.005 0
5.52 0.005 0
5.6 0.005 0
5.68 0.005 0
5.76 0.005 0
5.84 0.005 0
5.92 0.005 0
6 0.005 0
6.08 0.005 0
6.16 0.005 0
6.24 0.005 0
6.32 0.005 0
6.4 0.005 0
6.48 0.005 0
6.56 0.005 0
6.64 0.005 0
6.72 0.005 0
6.8 0.005 0
6.88 0.005 0
6.96 0.005 0
7.04 0.005 0
7.12 0.005 0
7.2 0.005 0
7.28 0.005 0
7.36 0.005 0
7.44 0.005 0
7.52 0.005 0
7.6 0.005 0
7.68 0.005 0
7.76 0.005 0
7.84 0.005 0
7.92 0.005 0
8 0.005 0
8.08 0.005 0
8.16 0.005 0
8.24 0.005 0
8.32 0.005 0
8.4 0.005 0
8.48 0.005 0
8.56 0.005 0
8.64 0.005 0
8.72 0.005 0
8.8 0.005 0
8.88 0.005 0
8.96 0.005 0
9.04 0.005 0
9.12 0.005 0
9.2 0.005 0
9.28 0.005 0
9.36 0.005 0
9.44 0.005 0
9.52 0.005 0
9.6 0.005 0
9.68 0.005 0
9.76 0.005 0
9.84 0.005 0
9.92 0.005 0
10 0.005 0
10.08 0.005 0
10.16 0.005 0
10.24 0.005 0
10.32 0.005 0
10.4 0.005 0
10.48 0.005 0
10.56 0.005 0
10.64 0.005 0
10.72 0.005 0
10.8 0.005 0
10.88 0.005 0
10.96 0.005 0
11.04 0.005 0
11.12 0.005 0
11.2 0.005 0
11.28 0.005 0
11.36 0.005 0
11.44 0.005 0
11.52 0.005 0
11.6 0.005 0
11.68 0.005 0
11.76 0.005 0
11.84 0.005 0
11.92 0.005 0
12 0.005 0
12.08 0.005 0
12.16 0.005 0
12.24 0.005 0
12.32 0.005 0
12.4 0.005 0
12.48 0.005 0
12.56 0.005 0
12.64 0.005 0
12.72 0.005 0
12.8 0.005 0
12.88 0.005 0
12.96 0.005 0
13.04 0.005 0
13.12 0.005 0
13.2 0.005 0
13.28 0.005 0
13.36 0.005 0
13.44 0.005 0
13.52 0.005 0
13.6 0.005 0
13.68 0.005 0
13.76 0.005 0
13.84 0.005 0
13.92 0.005 0
14 0.005 0
14.08 0.005 0
14.16 0.005 0
14.24 0.005 0
14.32 0.005 0
14.4 0.005 0
14.48 0.005 0
14.56 0.005 0
14.64 0.005 0
14.72 0.005 0
14.8 0.005 0
14.88 0.005 0
14.96 0.005 0
15.04 0.005 0
15.12 0.005 0
15.2 0.005 0
15.28 0.005 0
15.36 0.005 0
15.44 0.005 0
15.52 0.005 0
15.6 0.005 0
15.68 0.005 0
15.76 0.005 0
15.84 0.005 0
15.92 0.005 0
16 0.005 0
16.08 0.005 0
16.16 0.005 0
16.24 0.005 0
16.32 0.005 0
16.4 0.005 0
16.48 0.005 0
16.56 0.005 0
16.64 0.005 0
16.72 0.005 0
16.8 0.005 0
16.88 0.005 0
16.96 0.005 0
17.04 0.005 0
17.12 0.005 0
17.2 0.005 0
17.28 0.005 0
17.36 0.005 0
17.44 0.005 0
17.52 0.005 0
17.6 0.005 0
17.68 0.005 0
17.76 0.005 0
17.84 0.005 0
17.92 0.005 0
18 0.005 0
18.08 0.005 0
18.16 0.005 0
18.24 0.005 0
18.32 0.005 0
18.4 0.005 0
18.48 0.005 0
18.56 0.005 0
18.64 0.005 0
18.72 0.005 0
18.8 0.005 0
18.88 0.005 0
18.96 0.005 0
19.04 0.005 0
19.12 0.005 0
19.2 0.005 0
19.28 0.005 0
19.36 0.005 0
19.44 0.005 0
19.52 0.005 0
19.6 0.005 0
19.68 0.005 0
19.76 0.005 0
19.84 0.005 0
19.92 0.005 0
20 0.005 0
20.08 0.005 0
20.16 0.005 0
20.24 0.005 0
20.32 0.005 0
20.4 0.005 0
20.48 0.005 0
20.56 0.005 0
20.64 0.005 0
20.72 0.005 0
20.8 0.005 0
20.88 0.005 0
20.96 0.005 0
21.04 0.005 0
21.12 0.005 0
21.2 0.005 0
21.28 0.005 0
21.36 0.005 0
21.44 0.005 0
21.52 0.005 0
21.6 0.005 0
21.68 0.005 0
21.76 0.005 0
21.84 0.005 0
21.92 0.005 0
22 0.005 0
22.08 0.005 0
22.16 0.005 0
22.24 0.005 0
22.32 0.005 0
22.4 0.005 0
22.48 0.005 0
22.56 0.005 0
22.64 0.005 0
22.72 0.005 0
22.8 0.005 0
22.88 0.005 0
22.96 0.005 0
23.04 0.005 0
23.12 0.005 0
23.2 0.005 0
23.28 0.005 0
23.36 0.005 0
23.44 0.005 0
23.52 0.005 0
23.6 0.005 0
23.68 0.005 0
23.76 0.005 0
23.84 0.005 0
23.92 0.005 0
24 0.005 0
24.08 0.005 0
24.16 0.005 0
24.24 0.005 0
24.32 0.005 0
24.4 0.005 0
24.48 0.005 0
24.56 0.005 0
24.64 0.005 0
24.72 0.005 0
24.8 0.005 0
24.88 0.005 0
24.96 0.005 0
25.04 0.005 0
25.12 0.005 0
25.2 0.005 0
25.28 0.005 0
25.36 0.005 0
25.44 0.005 0
25.52 0.005 0
25.6 0.005 0
25.68 0.005 0
25.76 0.005 0
25.84 0.005 0
25.92 0.005 0
26 0.005 0
26.08 0.005 0
26.16 0.005 0
26.24 0.005 0
26.32 0.005 0
26.4 0.005 0
26.48 0.005 0
26.56 0.005 0
26.64 0.005 0
26.72 0.005 0
26.8 0.005 0
26.88 0.005 0
26.96 0.005 0
27.04 0.005 0
27.12 0.005 0
27.2 0.005 0
27.28 0.005 0
27.36 0.005 0
27.44 0.005 0
27.52 0.005 0
27.6 0.005 0
27.68 0.005 0
27.76 0.005 0
27.84 0.005 0
27.92 0.005 0
28 0.005 0
28.08 0.005 0
28.16 0.005 0
28.24 0.005 0
28.32 0.005 0
28.4 0.005 0
28.48 0.005 0
28.56 0.005 0
28.64 0.005 0
28.72 0.005 0
28.8 0.005 0
28.88 0.005 0
28.96 0.005 0
29.04 0.005 0
29.12 0.005 0
29.2 0.005 0
29.28 0.005 0
29.36 0.005 0
29.44 0.005 0
29.52 0.005 0
29.6 0.005 0
29.68 0.005 0
29.76 0.005 0
29.84 0.005 0
29.92 0.005 0
30 0.005 0
30.08 0.005 0
30.16 0.005 0
30.24 0.005 0
30.32 0.005 0
30.4 0.005 0
30.48 0.005 0
30.56 0.005 0
30.64 0.005 0
30.72 0.005 0
30.8 0.005 0
30.88 0.005 0
30.96 0.005 0
31.04 0.005 0
31.12 0.005 0
31.2 0.005 0
31.28 0.005 0
31.36 0.005 0
31.44 0.005 0
31.52 0.005 0
31.6 0.005 0
31.68 0.005 0
31.76 0.005 0
31.84 0.005 0
31.92 0.005 0
0 0.01 0
0.08 0.01 0
0.16 0.01 0
0.24 0.01 0
0.32 0.01 0
0.4 0.01 0
0.48 0.01 0
0.56 0.01 0
0.64 0.01 0
0.72 0.01 0
0.8 0.01 0
0.88 0.01 0
0.96 0.01 0
1.04 0.01 0
1.12 0.01 0
1.2 0.01 0
1.28 0.01 0
1.36 0.01 0
1.44 0.01 0
1.52 0.01 0
1.6 0.01 0
1.68 0.01 0
1.76 0.01 0
1.84 0.01 0
1.92 0.01 0
2 0.01 0
2.08 0.01 0
2.16 0.01 0
2.24 0.01 0
2.32 0.01 0
2.4 0.01 0
2.48 0.01 0
2.56 0.01 0
2.64 0.01 0
2.72 0.01 0
2.8 0.01 0
2.88 0.01 0
2.96 0.01 0
3.04 0.01 0
3.12 0.01 0
3.2 0.01 0
3.28 0.01 0
3.36 0.01 0
3.44 0.01 0
3.52 0.01 0
3.6 0.01 0
3.68 0.01 0
3.76 0.01 0
3.84 0.01 0
3.92 0.01 0
4 0.01 0
4.08 0.01 0
4.16 0.01 0
4.24 0.01 0
4.32 0.01 0
4.4 0.01 0
4.48 0.01 0
4.56 0.01 0
4.64 0.01 0
4.72 0.01 0
4.8 0.01 0
4.88 0.01 0
4.96 0.01 0
5.04 0.01 0
5.12 0.01 0
[...]
POINT_DATA 80000

SCALARS p float 1
LOOKUP_TABLE default
1
56.5928
56.2911
56.2499
56.2298
56.2154
56.2034
56.1927
56.1827
56.1732
56.164
56.1552
56.1465
56.1381
56.1299
56.1219
56.1141
56.1064
56.0989
56.0915
56.0843
56.0772
56.0702
56.0634
56.0567
56.05
56.0435
56.0371
56.0308
56.0246
56.0184
56.0124
56.0064
56.0005
55.9946
55.9889
55.9832
55.9775
55.9719
55.9664
55.9609
55.9555
55.9502
55.9449
55.9396
55.9344
55.9292
55.9241
55.919
55.914
55.909
55.904
55.8991
55.8942
55.8894
55.8846
55.8798
55.875
55.8703
55.8656
55.861
55.8564
55.8518
55.8472
55.8427
55.8382
55.8337
55.8292
55.8248
55.8204
55.816
55.8116
55.8073
55.803
55.7987
55.7945
55.7902
55.786
55.7819
55.7777
55.7736
55.7695
55.7654
55.7614
55.7574
55.7534
55.7494
55.7455
55.7415
55.7376
55.7337
55.7299
55.726
55.7222
55.7184
55.7146
55.7108
55.7071
55.7033
55.6996
55.6959
55.6922
55.6885
55.6849
55.6812
55.6775
55.6739
55.6703
55.6667
55.6631
55.6595
55.6559
55.6523
55.6487
55.6452
55.6416
55.638
55.6345
55.631
55.6274
55.6239
55.6204
55.6168
55.6133
55.6098
55.6063
55.6028
55.5993
55.5958
55.5923
55.5888
55.5852
55.5817
55.5782
55.5747
55.5712
55.5677
55.5642
55.5607
55.5572
55.5537
55.5502
55.5467
55.5432
55.5396
55.5361
55.5326
55.5291
55.5256
55.5221
55.5186
55.5151
55.5116
55.5081
55.5046
55.5011
55.4975
55.494
55.4905
55.487
55.4835
55.48
55.4765
55.473
55.4695
55.466
55.4625
55.4589
55.4554
55.4519
55.4484
55.4449
55.4414
55.4379
55.4344
55.4309
55.4274
55.4239
55.4203
55.4168
55.4133
55.4098
55.4063
55.4028
55.3993
55.3958
55.3923
55.3888
55.3852
55.3817
55.3782
55.3747
55.3712
55.3677
55.3642
55.3607
55.3572
55.3536
55.3501
55.3466
55.3431
55.3396
55.3361
55.3326
55.3291
55.3256
55.322
55.3185
55.315
55.3115
55.308
55.3045
55.301
55.2975
55.294
55.2904
55.2869
55.2834
55.2799
55.2764
55.2729
55.2694
55.2659
55.2623
55.2588
55.2553
55.2518
55.2483
55.2448
55.2413
55.2378
55.2342
55.2307
55.2272
55.2237
55.2202
55.2167
55.2132
55.2097
55.2061
55.2026
55.1991
55.1956
55.1921
55.1886
55.1851
55.1815
55.178
55.1745
55.171
55.1675
55.164
55.1605
55.157
55.1534
55.1499
55.1464
55.1429
55.1394
55.1359
55.1324
55.1288
55.1253
55.1218
55.1183
55.1148
55.1113
55.1077
55.1042
55.1007
55.0972
55.0937
55.0902
55.0867
55.0831
55.0796
55.0761
55.0726
55.0691
55.0656
55.062
55.0585
55.055
55.0515
55.048
55.0445
55.041
55.0374
55.0339
55.0304
55.0269
55.0234
55.0199
55.0163
55.0128
55.0093
55.0058
55.0023
54.9988
54.9952
54.9917
54.9882
54.9847
54.9812
54.9777
54.9741
54.9706
54.9671
54.9636
54.9601
54.9565
54.953
54.9495
54.946
54.9425
54.939
54.9354
54.9319
54.9284
54.9249
54.9214
54.9179
54.9143
54.9108
54.9073
54.9038
54.9003
54.8967
54.8932
54.8897
54.8862
54.8827
54.8791
54.8756
54.8721
54.8686
54.8651
54.8616
54.858
54.8545
54.851
54.8475
54.844
54.8404
54.8369
54.8334
54.8299
54.8264
54.8228
54.8193
54.8158
54.8123
54.8088
54.8052
54.8017
54.7982
54.7947
54.7912
54.7876
54.7841
54.7806
54.7771
54.7735
54.77
54.7665
54.763
54.7595
54.7559
54.7524
54.7489
54.7454
54.7419
54.7383
54.7348
54.7313
54.7278
54.7242
54.7207
54.7172
54.7137
54.7102
54.7066
54.7031
54.6996
54.6961
54.6925
54.689
54.6855
54.682
54.6785
54.6749
54.6714
54.6679
54.6644
54.6608
54.6573
54.6538
54.6503
54.6467
0.5
56.5928
56.5928
56.2911
56.2499
56.2298
56.2154
56.2034
56.1927
56.1827
56.1732
56.164
56.1552
56.1465
56.1381
56.1299
56.1219
56.1141
56.1064
56.0989
56.0915
56.0843
56.0772
56.0702
56.0634
56.0567
56.05
56.0435
56.0371
56.0308
56.0246
56.0184
56.0124
56.0064
56.0005
55.9946
55.9889
55.9832
55.9775
55.9719
55.9664
55.9609
55.9555
55.9502
55.9449
55.9396
55.9344
55.9292
55.9241
55.919
55.914
55.909
55.904
55.8991
55.8942
55.8894
55.8846
55.8798
55.875
55.8703
55.8656
55.861
55.8564
55.8518
55.8472
55.8427
55.8382
55.8337
55.8292
55.8248
55.8204
55.816
55.8116
55.8073
55.803
55.7987
55.7945
55.7902
55.786
55.7819
55.7777
55.7736
55.7695
55.7654
55.7614
55.7574
55.7534
55.7494
55.7455
55.7415
55.7376
55.7337
55.7299
55.726
55.7222
55.7184
55.7146
55.7108
55.7071
55.7033
55.6996
55.6959
55.6922
55.6885
55.6849
55.6812
55.6775
55.6739
55.6703
55.6667
55.6631
55.6595
55.6559
55.6523
55.6487
55.6452
55.6416
55.638
55.6345
55.631
55.6274
55.6239
55.6204
55.6168
55.6133
55.6098
55.6063
55.6028
55.5993
55.5958
55.5923
55.5888
55.5852
55.5817
55.5782
55.5747
55.5712
55.5677
55.5642
55.5607
55.5572
55.5537
55.5502
55.5467
55.5432
55.5396
55.5361
55.5326
55.5291
55.5256
55.5221
55.5186
55.5151
55.5116
55.5081
55.5046
55.5011
55.4975
55.494
55.4905
55.487
55.4835
55.48
55.4765
55.473
55.4695
55.466
55.4625
55.4589
55.4554
55.4519
55.4484
55.4449
55.4414
55.4379
55.4344
55.4309
55.4274
55.4239
55.4203
55.4168
55.4133
55.4098
55.4063
55.4028
55.3993
55.3958
55.3923
55.3888
55.3852
55.3817
55.3782
55.3747
55.3712
55.3677
55.3642
55.3607
55.3572
55.3536
55.3501
55.3466
55.3431
55.3396
55.3361
55.3326
55.3291
55.3256
55.322
55.3185
55.315
55.3115
55.308
55.3045
55.301
55.2975
55.294
55.2904
55.2869
55.2834
55.2799
55.2764
55.2729
55.2694
55.2659
55.2623
55.2588
55.2553
55.2518
55.2483
55.2448
55.2413
55.2378
55.2342
55.2307
55.2272
55.2237
55.2202
55.2167
55.2132
55.2097
55.2061
55.2026
55.1991
55.1956
55.1921
55.1886
55.1851
55.1815
55.178
55.1745
55.171
55.1675
55.164
55.1605
55.157
55.1534
55.1499
55.1464
55.1429
55.1394
55.1359
55.1324
55.1288
55.1253
55.1218
55.1183
55.1148
55.1113
55.1077
55.1042
55.1007
55.0972
55.0937
55.0902
55.0867
55.0831
55.0796
55.0761
55.0726
55.0691
55.0656
55.062
55.0585
55.055
55.0515
55.048
55.0445
55.041
55.0374
55.0339
55.0304
55.0269
55.0234
55.0199
55.0163
55.0128
55.0093
55.0058
55.0023
54.9988
54.9952
54.9917
54.9882
54.9847
54.9812
54.9777
54.9741
54.9706
54.9671
54.9636
54.9601
54.9565
54.953
54.9495
54.946
54.9425
54.939
54.9354
54.9319
54.9284
54.9249
54.9214
54.9179
54.9143
54.9108
54.9073
54.9038
54.9003
54.8967
54.8932
54.8897
54.8862
54.8827
54.8791
54.8756
54.8721
54.8686
54.8651
54.8616
54.858
54.8545
54.851
54.8475
54.844
54.8404
54.8369
54.8334
54.8299
54.8264
54.8228
54.8193
54.8158
54.8123
54.8088
54.8052
54.8017
54.7982
54.7947
54.7912
54.7876
54.7841
54.7806
54.7771
54.7735
54.77
54.7665
54.763
54.7595
54.7559
54.7524
54.7489
54.7454
54.7419
54.7383
54.7348
54.7313
54.7278
54.7242
54.7207
54.7172
54.7137
54.7102
54.7066
54.7031
54.6996
54.6961
54.6925
54.689
54.6855
54.682
54.6785
54.6749
54.6714
54.6679
54.6644
54.6608
54.6573
54.6538
54.6503
54.6467
54.6467
56.5782
56.5782
56.2949
56.2512
56.2305
56.2158
56.2037
56.1929
56.1828
56.1733
56.1641
56.1552
56.1466
56.1382
56.13
56.122
56.1141
56.1064
56.0989
56.0915
56.0843
56.0772
56.0702
56.0634
56.0567
56.0501
56.0435
56.0371
56.0308
56.0246
56.0184
56.0124
56.0064
56.0005
55.9946
55.9889
55.9832
55.9775
55.9719
55.9664
55.961
55.9555
55.9502
55.9449
55.9396
55.9344
55.9292
55.9241
55.919
55.914
55.909
55.9041
55.8991
55.8942
55.8894
55.8846
55.8798
55.8751
55.8703
55.8657
55.861
55.8564
55.8518
55.8472
55.8427
55.8382
55.8337
55.8292
55.8248
55.8204
55.816
55.8116
55.8073
55.803
55.7987
55.7945
55.7903
55.7861
55.7819
55.7777
55.7736
55.7695
55.7654
55.7614
55.7574
55.7534
55.7494
55.7455
55.7415
55.7376
55.7337
55.7299
55.726
55.7222
55.7184
55.7146
55.7108
55.7071
55.7033
55.6996
55.6959
55.6922
55.6885
55.6849
55.6812
55.6775
55.6739
55.6703
55.6667
55.6631
55.6595
55.6559
55.6523
55.6487
55.6452
55.6416
55.638
55.6345
55.631
55.6274
55.6239
55.6204
55.6168
55.6133
55.6098
55.6063
55.6028
55.5993
55.5958
55.5923
55.5888
55.5852
55.5817
55.5782
55.5747
55.5712
55.5677
55.5642
55.5607
55.5572
55.5537
55.5502
55.5467
55.5432
55.5396
55.5361
55.5326
55.5291
55.5256
55.5221
55.5186
55.5151
55.5116
55.5081
55.5046
55.5011
55.4975
55.494
55.4905
55.487
55.4835
55.48
55.4765
55.473
55.4695
55.466
55.4625
55.4589
55.4554
55.4519
55.4484
55.4449
55.4414
55.4379
55.4344
55.4309
55.4274
55.4239
55.4203
55.4168
55.4133
55.4098
55.4063
55.4028
55.3993
55.3958
55.3923
55.3888
55.3852
55.3817
55.3782
55.3747
55.3712
55.3677
55.3642
55.3607
55.3572
55.3536
55.3501
55.3466
55.3431
55.3396
55.3361
55.3326
55.3291
55.3256
55.322
55.3185
55.315
55.3115
55.308
55.3045
55.301
55.2975
55.294
55.2904
55.2869
55.2834
55.2799
55.2764
55.2729
55.2694
55.2659
55.2623
55.2588
55.2553
55.2518
55.2483
55.2448
55.2413
55.2378
55.2342
55.2307
55.2272
55.2237
55.2202
55.2167
55.2132
55.2097
55.2061
55.2026
55.1991
55.1956
55.1921
55.1886
55.1851
55.1815
55.178
55.1745
55.171
55.1675
55.164
55.1605
55.157
55.1534
55.1499
55.1464
55.1429
55.1394
55.1359
55.1324
55.1288
55.1253
55.1218
55.1183
55.1148
55.1113
55.1077
55.1042
55.1007
55.0972
55.0937
55.0902
55.0867
55.0831
55.0796
55.0761
55.0726
55.0691
55.0656
55.062
55.0585
55.055
55.0515
55.048
55.0445
55.041
55.0374
55.0339
55.0304
55.0269
55.0234
55.0199
55.0163
55.0128
55.0093
55.0058
55.0023
54.9988
54.9952
54.9917
54.9882
54.9847
54.9812
54.9777
54.9741
54.9706
54.9671
54.9636
54.9601
54.9565
54.953
54.9495
54.946
54.9425
54.939
54.9354
54.9319
54.9284
54.9249
54.9214
54.9179
54.9143
54.9108
54.9073
54.9038
54.9003
54.8967
54.8932
54.8897
54.8862
54.8827
54.8791
54.8756
54.8721
54.8686
54.8651
54.8616
54.858
54.8545
54.851
54.8475
54.844
54.8404
54.8369
54.8334
54.8299
54.8264
54.8228
54.8193
54.8158
54.8123
54.8088
54.8052
54.8017
54.7982
54.7947
54.7912
54.7876
54.7841
54.7806
54.7771
54.7735
54.77
54.7665
54.763
54.7595
54.7559
54.7524
54.7489
54.7454
54.7419
54.7383
54.7348
54.7313
54.7278
54.7242
54.7207
54.7172
54.7137
54.7102
54.7066
54.7031
54.6996
54.6961
54.6925
54.689
54.6855
54.682
54.6785
54.6749
54.6714
54.6679
54.6644
54.6608
54.6573
54.6538
54.6503
54.6467
54.6467
56.5623
56.5623
56.2981
56.2524
56.2311
56.2162
56.204
56.1931
56.183
56.1734
56.1642
56.1553
56.1467
56.1383
56.13
56.122
56.1142
56.1065
56.0989
56.0916
56.0843
56.0772
56.0703
56.0634
56.0567
56.0501
56.0436
56.0371
56.0308
56.0246
56.0184
56.0124
56.0064
56.0005
55.9946
55.9889
55.9832
55.9775
55.972
55.9664
55.961
55.9556
55.9502
55.9449
55.9396
55.9344
55.9293
55.9241
55.9191
55.914
55.909
55.9041
55.8991
55.8943
55.8894
55.8846
55.8798
55.8751
55.8703
55.8657
55.861
55.8564
55.8518
55.8472
55.8427
55.8382
55.8337
55.8292
55.8248
55.8204
55.816
55.8116
55.8073
55.803
55.7987
55.7945
55.7903
55.7861
55.7819
55.7777
55.7736
55.7695
55.7654
55.7614
55.7574
55.7534
55.7494
55.7455
55.7415
55.7376
55.7337
55.7299
55.726
55.7222
55.7184
55.7146
55.7108
55.7071
55.7033
55.6996
55.6959
55.6922
55.6885
55.6849
55.6812
55.6775
55.6739
55.6703
55.6667
55.6631
55.6595
55.6559
55.6523
55.6487
55.6452
55.6416
55.638
55.6345
55.631
55.6274
55.6239
55.6204
55.6168
55.6133
55.6098
55.6063
55.6028
55.5993
55.5958
55.5923
55.5888
55.5852
55.5817
55.5782
55.5747
55.5712
55.5677
55.5642
55.5607
55.5572
55.5537
55.5502
55.5467
55.5432
55.5396
55.5361
55.5326
55.5291
55.5256
55.5221
55.5186
55.5151
55.5116
55.5081
55.5046
55.5011
55.4975
55.494
55.4905
55.487
55.4835
55.48
55.4765
55.473
55.4695
55.466
55.4625
55.4589
55.4554
55.4519
55.4484
55.4449
55.4414
55.4379
55.4344
55.4309
55.4274
55.4239
55.4203
55.4168
55.4133
55.4098
55.4063
55.4028
55.3993
55.3958
55.3923
55.3888
55.3852
55.3817
55.3782
55.3747
55.3712
55.3677
55.3642
55.3607
55.3572
55.3536
55.3501
55.3466
55.3431
55.3396
55.3361
55.3326
55.3291
55.3256
55.322
55.3185
55.315
55.3115
55.308
55.3045
55.301
55.2975
55.294
55.2904
55.2869
55.2834
55.2799
55.2764
55.2729
55.2694
55.2659
55.2623
55.2588
55.2553
55.2518
55.2483
55.2448
55.2413
55.2378
55.2342
55.2307
55.2272
55.2237
55.2202
55.2167
55.2132
55.2097
55.2061
55.2026
55.1991
55.1956
55.1921
55.1886
55.1851
55.1815
55.178
55.1745
55.171
55.1675
55.164
55.1605
55.157
55.1534
55.1499
55.1464
55.1429
55.1394
55.1359
55.1324
55.1288
55.1253
55.1218
55.1183
55.1148
55.1113
55.1077
55.1042
55.1007
55.0972
55.0937
55.0902
55.0867
55.0831
55.0796
55.0761
55.0726
55.0691
55.0656
55.062
55.0585
55.055
55.0515
55.048
55.0445
55.041
55.0374
55.0339
55.0304
55.0269
55.0234
55.0199
55.0163
55.0128
55.0093
55.0058
55.0023
54.9988
54.9952
54.9917
54.9882
54.9847
54.9812
54.9777
54.9741
54.9706
54.9671
54.9636
54.9601
54.9565
54.953
54.9495
54.946
54.9425
54.939
54.9354
54.9319
54.9284
54.9249
54.9214
54.9179
54.9143
54.9108
54.9073
54.9038
54.9003
54.8967
54.8932
54.8897
54.8862
54.8827
54.8791
54.8756
54.8721
54.8686
54.8651
54.8616
54.858
54.8545
54.851
54.8475
54.844
54.8404
54.8369
54.8334
54.8299
54.8264
54.8228
54.8193
54.8158
54.8123
54.8088
54.8052
54.8017
54.7982
54.7947
54.7912
54.7876
54.7841
54.7806
54.7771
54.7735
54.77
54.7665
54.763
54.7595
54.7559
54.7524
54.7489
54.7454
54.7419
54.7383
54.7348
54.7313
54.7278
54.7242
54.7207
54.7172
54.7137
54.7102
54.7066
54.7031
54.6996
54.6961
54.6925
54.689
54.6855
54.682
54.6785
54.6749
54.6714
54.6679
54.6644
54.6608
54.6573
54.6538
54.6503
54.6467
54.6467
56.5463
56.5463
56.301
56.2535
56.2317
56.2166
56.2042
56.1933
56.1831
56.1735
56.1643
56.1554
56.1467
56.1383
56.1301
56.1221
56.1142
56.1065
56.099
56.0916
56.0844
56.0773
56.0703
56.0635
56.0567
56.0501
56.0436
56.0372
56.0308
56.0246
56.0185
56.0124
56.0064
56.0005
55.9947
55.9889
55.9832
55.9775
55.972
55.9664
55.961
55.9556
55.9502
55.9449
55.9396
55.9344
55.9293
55.9241
55.9191
55.914
55.909
55.9041
55.8991
55.8943
55.8894
55.8846
55.8798
55.8751
55.8703
55.8657
55.861
55.8564
55.8518
55.8472
55.8427
55.8382
55.8337
55.8292
55.8248
55.8204
55.816
55.8116
55.8073
55.803
55.7987
55.7945
55.7903
55.7861
55.7819
55.7777
55.7736
55.7695
55.7654
55.7614
55.7574
55.7534
55.7494
55.7455
55.7415
55.7376
55.7337
55.7299
55.726
55.7222
55.7184
55.7146
55.7108
55.7071
55.7033
55.6996
55.6959
55.6922
55.6885
55.6849
55.6812
55.6775
55.6739
55.6703
55.6667
55.6631
55.6595
55.6559
55.6523
55.6487
55.6452
55.6416
55.638
55.6345
55.631
55.6274
55.6239
55.6204
55.6168
55.6133
55.6098
55.6063
55.6028
55.5993
55.5958
55.5923
55.5888
55.5852
55.5817
55.5782
55.5747
55.5712
55.5677
55.5642
55.5607
55.5572
55.5537
55.5502
55.5467
55.5432
55.5396
55.5361
55.5326
55.5291
55.5256
55.5221
55.5186
55.5151
55.5116
55.5081
55.5046
55.5011
55.4975
55.494
55.4905
55.487
55.4835
55.48
55.4765
55.473
55.4695
55.466
55.4625
55.4589
55.4554
55.4519
55.4484
55.4449
55.4414
55.4379
55.4344
55.4309
55.4274
55.4239
55.4203
55.4168
55.4133
55.4098
55.4063
55.4028
55.3993
55.3958
55.3923
55.3888
55.3852
55.3817
55.3782
55.3747
55.3712
55.3677
55.3642
55.3607
55.3572
55.3536
55.3501
55.3466
55.3431
55.3396
55.3361
55.3326
55.3291
55.3256
55.322
55.3185
55.315
55.3115
55.308
55.3045
55.301
55.2975
55.294
55.2904
55.2869
55.2834
55.2799
55.2764
55.2729
55.2694
55.2659
55.2623
55.2588
55.2553
55.2518
55.2483
55.2448
55.2413
55.2378
55.2342
55.2307
55.2272
55.2237
55.2202
55.2167
55.2132
55.2097
55.2061
55.2026
55.1991
55.1956
55.1921
55.1886
55.1851
55.1815
55.178
55.1745
55.171
55.1675
55.164
55.1605
55.157
55.1534
55.1499
55.1464
55.1429
55.1394
55.1359
55.1324
55.1288
55.1253
55.1218
55.1183
55.1148
55.1113
55.1077
55.1042
55.1007
55.0972
55.0937
55.0902
55.0867
55.0831
55.0796
55.0761
55.0726
55.0691
55.0656
55.062
55.0585
55.055
55.0515
55.048
55.0445
55.041
55.0374
55.0339
55.0304
55.0269
55.0234
55.0199
55.0163
55.0128
55.0093
55.0058
55.0023
54.9988
54.9952
54.9917
54.9882
54.9847
54.9812
54.9777
54.9741
54.9706
54.9671
54.9636
54.9601
54.9565
54.953
54.9495
54.946
54.9425
54.939
54.9354
54.9319
54.9284
54.9249
54.9214
54.9179
54.9143
54.9108
54.9073
54.9038
54.9003
54.8967
54.8932
54.8897
54.8862
54.8827
54.8791
54.8756
54.8721
54.8686
54.8651
54.8616
54.858
54.8545
54.851
54.8475
54.844
54.8404
54.8369
54.8334
54.8299
54.8264
54.8228
54.8193
54.8158
54.8123
54.8088
54.8052
54.8017
54.7982
54.7947
54.7912
54.7876
54.7841
54.7806
54.7771
54.7735
54.77
54.7665
54.763
54.7595
54.7559
54.7524
54.7489
54.7454
54.7419
54.7383
54.7348
54.7313
54.7278
54.7242
54.7207
54.7172
54.7137
54.7102
54.7066
54.7031
54.6996
54.6961
54.6925
54.689
54.6855
54.682
54.6785
54.6749
54.6714
54.6679
54.6644
54.6608
54.6573
54.6538
54.6503
54.6467
54.6467
56.5312
56.5312
56.3037
56.2546
56.2323
56.217
56.2045
56.1935
56.1833
56.1736
56.1644
56.1555
56.1468
56.1384
56.1301
56.1221
56.1142
56.1065
56.099
56.0916
56.0844
56.0773
56.0703
56.0635
56.0567
56.0501
56.0436
56.0372
56.0309
56.0246
56.0185
56.0124
56.0064
56.0005
55.9947
55.9889
55.9832
55.9776
55.972
55.9665
55.961
55.9556
55.9502
55.9449
55.9396
55.9344
55.9293
55.9241
55.9191
55.914
55.909
55.9041
55.8991
55.8943
55.8894
55.8846
55.8798
55.8751
55.8704
55.8657
55.861
55.8564
55.8518
55.8472
55.8427
55.8382
55.8337
55.8292
55.8248
55.8204
55.816
55.8117
55.8073
55.803
55.7987
55.7945
55.7903
55.7861
55.7819
55.7777
55.7736
55.7695
55.7654
55.7614
55.7574
55.7534
55.7494
55.7455
55.7415
55.7376
55.7337
55.7299
55.726
55.7222
55.7184
55.7146
55.7108
55.7071
55.7033
55.6996
55.6959
55.6922
55.6885
55.6849
55.6812
55.6775
55.6739
55.6703
55.6667
55.6631
55.6595
55.6559
55.6523
55.6487
55.6452
55.6416
55.638
55.6345
55.631
55.6274
55.6239
55.6204
55.6168
55.6133
55.6098
55.6063
55.6028
55.5993
55.5958
55.5923
55.5888
55.5852
55.5817
55.5782
55.5747
55.5712
55.5677
55.5642
55.5607
55.5572
55.5537
55.5502
55.5467
55.5432
55.5396
55.5361
55.5326
55.5291
55.5256
55.5221
55.5186
55.5151
55.5116
55.5081
55.5046
55.5011
55.4975
55.494
55.4905
55.487
55.4835
55.48
55.4765
55.473
55.4695
55.466
55.4625
55.4589
55.4554
55.4519
55.4484
55.4449
55.4414
55.4379
55.4344
55.4309
55.4274
55.4239
55.4203
55.4168
55.4133
55.4098
55.4063
55.4028
55.3993
55.3958
55.3923
55.3888
55.3852
55.3817
55.3782
55.3747
55.3712
55.3677
55.3642
55.3607
55.3572
55.3536
55.3501
55.3466
55.3431
55.3396
55.3361
55.3326
55.3291
55.3256
55.322
55.3185
55.315
55.3115
55.308
55.3045
55.301
55.2975
55.294
55.2904
55.2869
55.2834
55.2799
55.2764
55.2729
55.2694
55.2659
55.2623
55.2588
55.2553
55.2518
55.2483
55.2448
55.2413
55.2378
55.2342
55.2307
55.2272
55.2237
55.2202
55.2167
55.2132
55.2097
55.2061
55.2026
55.1991
55.1956
55.1921
55.1886
55.1851
55.1815
55.178
55.1745
55.171
55.1675
55.164
55.1605
55.157
55.1534
55.1499
55.1464
55.1429
55.1394
55.1359
55.1324
55.1288
55.1253
55.1218
55.1183
55.1148
55.1113
55.1077
55.1042
55.1007
55.0972
55.0937
55.0902
55.0867
55.0831
55.0796
55.0761
55.0726
55.0691
55.0656
55.062
55.0585
55.055
55.0515
55.048
55.0445
55.041
55.0374
55.0339
55.0304
55.0269
55.0234
55.0199
55.0163
55.0128
55.0093
55.0058
55.0023
54.9988
54.9952
54.9917
54.9882
54.9847
54.9812
54.9777
54.9741
54.9706
54.9671
54.9636
54.9601
54.9565
54.953
54.9495
54.946
54.9425
54.939
54.9354
54.9319
54.9284
54.9249
54.9214
54.9179
54.9143
54.9108
54.9073
54.9038
54.9003
54.8967
54.8932
54.8897
54.8862
54.8827
54.8791
54.8756
54.8721
54.8686
54.8651
54.8616
54.858
54.8545
54.851
54.8475
54.844
54.8404
54.8369
54.8334
54.8299
54.8264
54.8228
54.8193
54.8158
54.8123
54.8088
54.8052
54.8017
54.7982
54.7947
54.7912
54.7876
54.7841
54.7806
54.7771
54.7735
54.77
54.7665
54.763
54.7595
54.7559
54.7524
54.7489
54.7454
54.7419
54.7383
54.7348
54.7313
54.7278
54.7242
54.7207
54.7172
54.7137
54.7102
54.7066
54.7031
54.6996
54.6961
54.6925
54.689
54.6855
54.682
54.6785
54.6749
54.6714
54.6679
54.6644
54.6608
54.6573
54.6538
54.6503
54.6467
54.6467
56.5172
56.5172
56.3063
56.2557
56.2329
56.2173
56.2047
56.1937
56.1834
56.1738
56.1645
56.1556
56.1469
56.1384
56.1302
56.1221
56.1143
56.1066
56.099
56.0917
56.0844
56.0773
56.0703
56.0635
56.0568
56.0501
56.0436
56.0372
56.0309
56.0246
56.0185
56.0124
56.0064
56.0005
55.9947
55.9889
55.9832
55.9776
55.972
55.9665
55.961
55.9556
55.9502
55.9449
55.9397
55.9344
55.9293
55.9242
55.9191
55.914
55.909
55.9041
55.8992
55.8943
55.8894
55.8846
55.8798
55.8751
55.8704
55.8657
55.861
55.8564
55.8518
55.8472
55.8427
55.8382
55.8337
55.8292
55.8248
55.8204
55.816
55.8117
55.8073
55.803
55.7987
55.7945
55.7903
55.7861
55.7819
55.7777
55.7736
55.7695
55.7654
55.7614
55.7574
55.7534
55.7494
55.7455
55.7415
55.7376
55.7337
55.7299
55.726
55.7222
55.7184
55.7146
55.7108
55.7071
55.7033
55.6996
55.6959
55.6922
55.6885
55.6849
55.6812
55.6775
55.6739
55.6703
55.6667
55.6631
55.6595
55.6559
55.6523
55.6487
55.6452
55.6416
55.638
55.6345
55.631
55.6274
55.6239
55.6204
55.6168
55.6133
55.6098
55.6063
55.6028
55.5993