# vtk DataFile Version 2.0
FlowField
ASCII
DATASET STRUCTURED_GRID
DIMENSIONS 400 1 200
POINTS 80000 float
0 0 0
0.08 0 0
0.16 0 0
0.24 0 0
0.32 0 0
0.4 0 0
0.48 0 0
0.56 0 0
0.64 0 0
0.72 0 0
0.8 0 0
0.88 0 0
0.96 0 0
1.04 0 0
1.12 0 0
1.2 0 0
1.28 0 0
1.36 0 0
1.44 0 0
1.52 0 0
1.6 0 0
1.68 0 0
1.76 0 0
1.84 0 0
1.92 0 0
2 0 0
2.08 0 0
2.16 0 0
2.24 0 0
2.32 0 0
2.4 0 0
2.48 0 0
2.56 0 0
2.64 0 0
2.72 0 0
2.8 0 0
2.88 0 0
2.96 0 0
3.04 0 0
3.12 0 0
3.2 0 0
3.28 0 0
3.36 0 0
3.44 0 0
3.52 0 0
3.6 0 0
3.68 0 0
3.76 0 0
3.84 0 0
3.92 0 0
4 0 0
4.08 0 0
4.16 0 0
4.24 0 0
4.32 0 0
4.4 0 0
4.48 0 0
4.56 0 0
4.64 0 0
4.72 0 0
4.8 0 0
4.88 0 0
4.96 0 0
5.04 0 0
5.12 0 0
5.2 0 0
5.28 0 0
5.36 0 0
5.44 0 0
5.52 0 0
5.6 0 0
5.68 0 0
5.76 0 0
5.84 0 0
5.92 0 0
6 0 0
6.08 0 0
6.16 0 0
6.24 0 0
6.32 0 0
6.4 0 0
6.48 0 0
6.56 0 0
6.64 0 0
6.72 0 0
6.8 0 0
6.88 0 0
6.96 0 0
7.04 0 0
7.12 0 0
7.2 0 0
7.28 0 0
7.36 0 0
7.44 0 0
7.52 0 0
7.6 0 0
7.68 0 0
7.76 0 0
7.84 0 0
7.92 0 0
8 0 0
8.08 0 0
8.16 0 0
8.24 0 0
8.32 0 0
8.4 0 0
8.48 0 0
8.56 0 0
8.64 0 0
8.72 0 0
8.8 0 0
8.88 0 0
8.96 0 0
9.04 0 0
9.12 0 0
9.2 0 0
9.28 0 0
9.36 0 0
9.44 0 0
9.52 0 0
9.6 0 0
9.68 0 0
9.76 0 0
9.84 0 0
9.92 0 0
10 0 0
10.08 0 0
10.16 0 0
10.24 0 0
10.32 0 0
10.4 0 0
10.48 0 0
10.56 0 0
10.64 0 0
10.72 0 0
10.8 0 0
10.88 0 0
10.96 0 0
11.04 0 0
11.12 0 0
11.2 0 0
11.28 0 0
11.36 0 0
11.44 0 0
11.52 0 0
11.6 0 0
11.68 0 0
11.76 0 0
11.84 0 0
11.92 0 0
12 0 0
12.08 0 0
12.16 0 0
12.24 0 0
12.32 0 0
12.4 0 0
12.48 0 0
12.56 0 0
12.64 0 0
12.72 0 0
12.8 0 0
12.88 0 0
12.96 0 0
13.04 0 0
13.12 0 0
13.2 0 0
13.28 0 0
13.36 0 0
13.44 0 0
13.52 0 0
13.6 0 0
13.68 0 0
13.76 0 0
13.84 0 0
13.92 0 0
14 0 0
14.08 0 0
14.16 0 0
14.24 0 0
14.32 0 0
14.4 0 0
14.48 0 0
14.56 0 0
14.64 0 0
14.72 0 0
14.8 0 0
14.88 0 0
14.96 0 0
15.04 0 0
15.12 0 0
15.2 0 0
15.28 0 0
15.36 0 0
15.44 0 0
15.52 0 0
15.6 0 0
15.68 0 0
15.76 0 0
15.84 0 0
15.92 0 0
16 0 0
16.08 0 0
16.16 0 0
16.24 0 0
16.32 0 0
16.4 0 0
16.48 0 0
16.56 0 0
16.64 0 0
16.72 0 0
16.8 0 0
16.88 0 0
16.96 0 0
17.04 0 0
17.12 0 0
17.2 0 0
17.28 0 0
17.36 0 0
17.44 0 0
17.52 0 0
17.6 0 0
17.68 0 0
17.76 0 0
17.84 0 0
17.92 0 0
18 0 0
18.08 0 0
18.16 0 0
18.24 0 0
18.32 0 0
18.4 0 0
18.48 0 0
18.56 0 0
18.64 0 0
18.72 0 0
18.8 0 0
18.88 0 0
18.96 0 0
19.04 0 0
19.12 0 0
19.2 0 0
19.28 0 0
19.36 0 0
19.44 0 0
19.52 0 0
19.6 0 0
19.68 0 0
19.76 0 0
19.84 0 0
19.92 0 0
20 0 0
20.08 0 0
20.16 0 0
20.24 0 0
20.32 0 0
20.4 0 0
20.48 0 0
20.56 0 0
20.64 0 0
20.72 0 0
20.8 0 0
20.88 0 0
20.96 0 0
21.04 0 0
21.12 0 0
21.2 0 0
21.28 0 0
21.36 0 0
21.44 0 0
21.52 0 0
21.6 0 0
21.68 0 0
21.76 0 0
21.84 0 0
21.92 0 0
22 0 0
22.08 0 0
22.16 0 0
22.24 0 0
22.32 0 0
22.4 0 0
22.48 0 0
22.56 0 0
22.64 0 0
22.72 0 0
22.8 0 0
22.88 0 0
22.96 0 0
23.04 0 0
23.12 0 0
23.2 0 0
23.28 0 0
23.36 0 0
23.44 0 0
23.52 0 0
23.6 0 0
23.68 0 0
23.76 0 0
23.84 0 0
23.92 0 0
24 0 0
24.08 0 0
24.16 0 0
24.24 0 0
24.32 0 0
24.4 0 0
24.48 0 0
24.56 0 0
24.64 0 0
24.72 0 0
24.8 0 0
24.88 0 0
24.96 0 0
25.04 0 0
25.12 0 0
25.2 0 0
25.28 0 0
25.36 0 0
25.44 0 0
25.52 0 0
25.6 0 0
25.68 0 0
25.76 0 0
25.84 0 0
25.92 0 0
26 0 0
26.08 0 0
26.16 0 0
26.24 0 0
26.32 0 0
26.4 0 0
26.48 0 0
26.56 0 0
26.64 0 0
26.72 0 0
26.8 0 0
26.88 0 0
26.96 0 0
27.04 0 0
27.12 0 0
27.2 0 0
27.28 0 0
27.36 0 0
27.44 0 0
27.52 0 0
27.6 0 0
27.68 0 0
27.76 0 0
27.84 0 0
27.92 0 0
28 0 0
28.08 0 0
28.16 0 0
28.24 0 0
28.32 0 0
28.4 0 0
28.48 0 0
28.56 0 0
28.64 0 0
28.72 0 0
28.8 0 0
28.88 0 0
28.96 0 0
29.04 0 0
29.12 0 0
29.2 0 0
29.28 0 0
29.36 0 0
29.44 0 0
29.52 0 0
29.6 0 0
29.68 0 0
29.76 0 0
29.84 0 0
29.92 0 0
30 0 0
30.08 0 0
30.16 0 0
30.24 0 0
30.32 0 0
30.4 0 0
30.48 0 0
30.56 0 0
30.64 0 0
30.72 0 0
30.8 0 0
30.88 0 0
30.96 0 0
31.04 0 0
31.12 0 0
31.2 0 0
31.28 0 0
31.36 0 0
31.44 0 0
31.52 0 0
31.6 0 0
31.68 0 0
31.76 0 0
31.84 0 0
31.92 0 0
0 0.005 0
0.08 0.005 0
0.16 0.005 0
0.24 0.005 0
0.32 0.005 0
0.4 0.005 0
0.48 0.005 0
0.56 0.005 0
0.64 0.005 0
0.72 0.005 0
0.8 0.005 0
0.88 0.005 0
0.96 0.005 0
1.04 0.005 0
1.12 0.005 0
1.2 0.005 0
1.28 0.005 0
1.36 0.005 0
1.44 0.005 0
1.52 0.005 0
1.6 0.005 0
1.68 0.005 0
1.76 0.005 0
1.84 0.005 0
1.92 0.005 0
2 0.005 0
2.08 0.005 0
2.16 0.005 0
2.24 0.005 0
2.32 0.005 0
2.4 0.005 0
2.48 0.005 0
2.56 0.005 0
2.64 0.005 0
2.72 0.005 0
2.8 0.005 0
2.88 0.005 0
2.96 0.005 0
3.04 0.005 0
3.12 0.005 0
3.2 0.005 0
3.28 0.005 0
3.36 0.005 0
3.44 0.005 0
3.52 0.005 0
3.6 0.005 0
3.68 0.005 0
3.76 0.005 0
3.84 0.005 0
3.92 0.005 0
4 0.005 0
4.08 0.005 0
4.16 0.005 0
4.24 0.005 0
4.32 0.005 0
4.4 0.005 0
4.48 0.005 0
4.56 0.005 0
4.64 0.005 0
4.72 0.005 0
4.8 0.005 0
4.88 0.005 0
4.96 0.005 0
5.04 0.005 0
5.12 0.005 0
5.2 0.005 0
5.28 0.005 0
5.36 0.005 0
5.44 0.005 0
5.52 0.005 0
5.6 0.005 0
5.68 0.005 0
5.76 0.005 0
5.84 0.005 0
5.92 0.005 0
6 0.005 0
6.08 0.005 0
6.16 0.005 0
6.24 0.005 0
6.32 0.005 0
6.4 0.005 0
6.48 0.005 0
6.56 0.005 0
6.64 0.005 0
6.72 0.005 0
6.8 0.005 0
6.88 0.005 0
6.96 0.005 0
7.04 0.005 0
7.12 0.005 0
7.2 0.005 0
7.28 0.005 0
7.36 0.005 0
7.44 0.005 0
7.52 0.005 0
7.6 0.005 0
7.68 0.005 0
7.76 0.005 0
7.84 0.005 0
7.92 0.005 0
8 0.005 0
8.08 0.005 0
8.16 0.005 0
8.24 0.005 0
8.32 0.005 0
8.4 0.005 0
8.48 0.005 0
8.56 0.005 0
8.64 0.005 0
8.72 0.005 0
8.8 0.005 0
8.88 0.005 0
8.96 0.005 0
9.04 0.005 0
9.12 0.005 0
9.2 0.005 0
9.28 0.005 0
9.36 0.005 0
9.44 0.005 0
9.52 0.005 0
9.6 0.005 0
9.68 0.005 0
9.76 0.005 0
9.84 0.005 0
9.92 0.005 0
10 0.005 0
10.08 0.005 0
10.16 0.005 0
10.24 0.005 0
10.32 0.005 0
10.4 0.005 0
10.48 0.005 0
10.56 0.005 0
10.64 0.005 0
10.72 0.005 0
10.8 0.005 0
10.88 0.005 0
10.96 0.005 0
11.04 0.005 0
11.12 0.005 0
11.2 0.005 0
11.28 0.005 0
11.36 0.005 0
11.44 0.005 0
11.52 0.005 0
11.6 0.005 0
11.68 0.005 0
11.76 0.005 0
11.84 0.005 0
11.92 0.005 0
12 0.005 0
12.08 0.005 0
12.16 0.005 0
12.24 0.005 0
12.32 0.005 0
12.4 0.005 0
12.48 0.005 0
12.56 0.005 0
12.64 0.005 0
12.72 0.005 0
12.8 0.005 0
12.88 0.005 0
12.96 0.005 0
13.04 0.005 0
13.12 0.005 0
13.2 0.005 0
13.28 0.005 0
13.36 0.005 0
13.44 0.005 0
13.52 0.005 0
13.6 0.005 0
13.68 0.005 0
13.76 0.005 0
13.84 0.005 0
13.92 0.005 0
14 0.005 0
14.08 0.005 0
14.16 0.005 0
14.24 0.005 0
14.32 0.005 0
14.4 0.005 0
14.48 0.005 0
14.56 0.005 0
14.64 0.005 0
14.72 0.005 0
14.8 0.005 0
14.88 0.005 0
14.96 0.005 0
15.04 0.005 0
15.12 0.005 0
15.2 0.005 0
15.28 0.005 0
15.36 0.005 0
15.44 0.005 0
15.52 0.005 0
15.6 0.005 0
15.68 0.005 0
15.76 0.005 0
15.84 0.005 0
15.92 0.005 0
16 0.005 0
16.08 0.005 0
16.16 0.005 0
16.24 0.005 0
16.32 0.005 0
16.4 0.005 0
16.48 0.005 0
16.56 0.005 0
16.64 0.005 0
16.72 0.005 0
16.8 0.005 0
16.88 0.005 0
16.96 0.005 0
17.04 0.005 0
17.12 0.005 0
17.2 0.005 0
17.28 0.005 0
17.36 0.005 0
17.44 0.005 0
17.52 0.005 0
17.6 0.005 0
17.68 0.005 0
17.76 0.005 0
17.84 0.005 0
17.92 0.005 0
18 0.005 0
18.08 0.005 0
18.16 0.005 0
18.24 0.005 0
18.32 0.005 0
18.4 0.005 0
18.48 0.005 0
18.56 0.005 0
18.64 0.005 0
18.72 0.005 0
18.8 0.005 0
18.88 0.005 0
18.96 0.005 0
19.04 0.005 0
19.12 0.005 0
19.2 0.005 0
19.28 0.005 0
19.36 0.005 0
19.44 0.005 0
19.52 0.005 0
19.6 0.005 0
19.68 0.005 0
19.76 0.005 0
19.84 0.005 0
19.92 0.005 0
20 0.005 0
20.08 0.005 0
20.16 0.005 0
20.24 0.005 0
20.32 0.005 0
20.4 0.005 0
20.48 0.005 0
20.56 0.005 0
20.64 0.005 0
20.72 0.005 0
20.8 0.005 0
20.88 0.005 0
20.96 0.005 0
21.04 0.005 0
21.12 0.005 0
21.2 0.005 0
21.28 0.005 0
21.36 0.005 0
21.44 0.005 0
21.52 0.005 0
21.6 0.005 0
21.68 0.005 0
21.76 0.005 0
21.84 0.005 0
21.92 0.005 0
22 0.005 0
22.08 0.005 0
22.16 0.005 0
22.24 0.005 0
22.32 0.005 0
22.4 0.005 0
22.48 0.005 0
22.56 0.005 0
22.64 0.005 0
22.72 0.005 0
22.8 0.005 0
22.88 0.005 0
22.96 0.005 0
23.04 0.005 0
23.12 0.005 0
23.2 0.005 0
23.28 0.005 0
23.36 0.005 0
23.44 0.005 0
23.52 0.005 0
23.6 0.005 0
23.68 0.005 0
23.76 0.005 0
23.84 0.005 0
23.92 0.005 0
24 0.005 0
24.08 0.005 0
24.16 0.005 0
24.24 0.005 0
24.32 0.005 0
24.4 0.005 0
24.48 0.005 0
24.56 0.005 0
24.64 0.005 0
24.72 0.005 0
24.8 0.005 0
24.88 0.005 0
24.96 0.005 0
25.04 0.005 0
25.12 0.005 0
25.2 0.005 0
25.28 0.005 0
25.36 0.005 0
25.44 0.005 0
25.52 0.005 0
25.6 0.005 0
25.68 0.005 0
25.76 0.005 0
25.84 0.005 0
25.92 0.005 0
26 0.005 0
26.08 0.005 0
26.16 0.005 0
26.24 0.005 0
26.32 0.005 0
26.4 0.005 0
26.48 0.005 0
26.56 0.005 0
26.64 0.005 0
26.72 0.005 0
26.8 0.005 0
26.88 0.005 0
26.96 0.005 0
27.04 0.005 0
27.12 0.005 0
27.2 0.005 0
27.28 0.005 0
27.36 0.005 0
27.44 0.005 0
27.52 0.005 0
27.6 0.005 0
27.68 0.005 0
27.76 0.005 0
27.84 0.005 0
27.92 0.005 0
28 0.005 0
28.08 0.005 0
28.16 0.005 0
28.24 0.005 0
28.32 0.005 0
28.4 0.005 0
28.48 0.005 0
28.56 0.005 0
28.64 0.005 0
28.72 0.005 0
28.8 0.005 0
28.88 0.005 0
28.96 0.005 0
29.04 0.005 0
29.12 0.005 0
29.2 0.005 0
29.28 0.005 0
29.36 0.005 0
29.44 0.005 0
29.52 0.005 0
29.6 0.005 0
29.68 0.005 0
29.76 0.005 0
29.84 0.005 0
29.92 0.005 0
30 0.005 0
30.08 0.005 0
30.16 0.005 0
30.24 0.005 0
30.32 0.005 0
30.4 0.005 0
30.48 0.005 0
30.56 0.005 0
30.64 0.005 0
30.72 0.005 0
30.8 0.005 0
30.88 0.005 0
30.96 0.005 0
31.04 0.005 0
31.12 0.005 0
31.2 0.005 0
31.28 0.005 0
31.36 0.005 0
31.44 0.005 0
31.52 0.005 0
31.6 0.005 0
31.68 0.005 0
31.76 0.005 0
31.84 0.005 0
31.92 0.005 0
0 0.01 0
0.08 0.01 0
0.16 0.01 0
0.24 0.01 0
0.32 0.01 0
0.4 0.01 0
0.48 0.01 0
0.56 0.01 0
0.64 0.01 0
0.72 0.01 0
0.8 0.01 0
0.88 0.01 0
0.96 0.01 0
1.04 0.01 0
1.12 0.01 0
1.2 0.01 0
1.28 0.01 0
1.36 0.01 0
1.44 0.01 0
1.52 0.01 0
1.6 0.01 0
1.68 0.01 0
1.76 0.01 0
1.84 0.01 0
1.92 0.01 0
2 0.01 0
2.08 0.01 0
2.16 0.01 0
2.24 0.01 0
2.32 0.01 0
2.4 0.01 0
2.48 0.01 0
2.56 0.01 0
2.64 0.01 0
2.72 0.01 0
2.8 0.01 0
2.88 0.01 0
2.96 0.01 0
3.04 0.01 0
3.12 0.01 0
3.2 0.01 0
3.28 0.01 0
3.36 0.01 0
3.44 0.01 0
3.52 0.01 0
3.6 0.01 0
3.68 0.01 0
3.76 0.01 0
3.84 0.01 0
3.92 0.01 0
4 0.01 0
4.08 0.01 0
4.16 0.01 0
4.24 0.01 0
4.32 0.01 0
4.4 0.01 0
4.48 0.01 0
4.56 0.01 0
4.64 0.01 0
4.72 0.01 0
4.8 0.01 0
4.88 0.01 0
4.96 0.01 0
5.04 0.01 0
5.12 0.01 0
[...]
POINT_DATA 80000

SCALARS v float 1
LOOKUP_TABLE default
0
0
0
0
0
0
0
0
0
0
0
0
0
0
0
0
0
0
0
0
0
0
0
0
0
0
0
0
0
0
0
0
0
0
0
0
0
0
0
0
0
0
0
0
0
0
0
0
0
0
0
0
0
0
0
0
0
0
0
0
0
0
0
0
0
0
0
0
0
0
0
0
0
0
0
0
0
0
0
0
0
0
0
0
0
0
0
0
0
0
0
0
0
0
0
0
0
0
0
0
0
0
0
0
0
0
0
0
0
0
0
0
0
0
0
0
0
0
0
0
0
0
0
0
0
0
0
0
0
0
0
0
0
0
0
0
0
0
0
0
0
0
0
0
0
0
0
0
0
0
0
0
0
0
0
0
0
0
0
0
0
0
0
0
0
0
0
0
0
0
0
0
0
0
0
0
0
0
0
0
0
0
0
0
0
0
0
0
0
0
0
0
0
0
0
0
0
0
0
0
0
0
0
0
0
0
0
0
0
0
0
0
0
0
0
0
0
0
0
0
0
0
0
0
0
0
0
0
0
0
0
0
0
0
0
0
0
0
0
0
0
0
0
0
0
0
0
0
0
0
0
0
0
0
0
0
0
0
0
0
0
0
0
0
0
0
0
0
0
0
0
0
0
0
0
0
0
0
0
0
0
0
0
0
0
0
0
0
0
0
0
0
0
0
0
0
0
0
0
0
0
0
0
0
0
0
0
0
0
0
0
0
0
0
0
0
0
0
0
0
0
0
0
0
0
0
0
0
0
0
0
0
0
0
0
0
0
0
0
0
0
0
0
0
0
0
0
0
0
0
0
0
0
0
0
0
0
0
0
0
0
0
0
0
0
0
0
0
0
0
0
0
0
0
0
0
0
0
0
0
0
0
0
0
0
0
0
0
0
0
0
0
0
0
0
0
0
0
0
0
-0.0542711
0.0542711
0.00396209
0.00099833
0.00049226
0.000302696
0.00020732
0.000151692
0.00011625
9.22938e-05
7.53807e-05
6.30201e-05
5.37196e-05
4.65411e-05
4.08733e-05
3.63062e-05
3.25587e-05
2.94337e-05
2.67906e-05
2.45275e-05
2.25686e-05
2.08572e-05
1.935e-05
1.80131e-05
1.68201e-05
1.57496e-05
1.47845e-05
1.39105e-05
1.31161e-05
1.23915e-05
1.17283e-05
1.11195e-05
1.05592e-05
1.00421e-05
9.56378e-06
9.1203e-06
8.70824e-06
8.32462e-06
7.96678e-06
7.63239e-06
7.31938e-06
7.02589e-06
6.75029e-06
6.49109e-06
6.24696e-06
6.01673e-06
5.79931e-06
5.59373e-06
5.39912e-06
5.21466e-06
5.03965e-06
4.87341e-06
4.71534e-06
4.56489e-06
4.42155e-06
4.28486e-06
4.15439e-06
4.02975e-06
3.91057e-06
3.79653e-06
3.68731e-06
3.58262e-06
3.48221e-06
3.38583e-06
3.29325e-06
3.20425e-06
3.11865e-06
3.03626e-06
2.95691e-06
2.88043e-06
2.80668e-06
2.73553e-06
2.66684e-06
2.60048e-06
2.53635e-06
2.47434e-06
2.41435e-06
2.35628e-06
2.30005e-06
2.24557e-06
2.19276e-06
2.14155e-06
2.09188e-06
2.04367e-06
1.99686e-06
1.9514e-06
1.90724e-06
1.86431e-06
1.82257e-06
1.78197e-06
1.74247e-06
1.70403e-06
1.66661e-06
1.63017e-06
1.59467e-06
1.56009e-06
1.52638e-06
1.49353e-06
1.46149e-06
1.43025e-06
1.39977e-06
1.37003e-06
1.34101e-06
1.31268e-06
1.28502e-06
1.25802e-06
1.23165e-06
1.20589e-06
1.18072e-06
1.15613e-06
1.1321e-06
1.10862e-06
1.08566e-06
1.06322e-06
1.04127e-06
1.01982e-06
9.98834e-07
9.78311e-07
9.58236e-07
9.38597e-07
9.19384e-07
9.00585e-07
8.8219e-07
8.6419e-07
8.46573e-07
8.2933e-07
8.12454e-07
7.95933e-07
7.79761e-07
7.63929e-07
7.48429e-07
7.33253e-07
7.18393e-07
7.03842e-07
6.89594e-07
6.75641e-07
6.61976e-07
6.48594e-07
6.35487e-07
6.2265e-07
6.10076e-07
5.97761e-07
5.85697e-07
5.73881e-07
5.62306e-07
5.50966e-07
5.39858e-07
5.28977e-07
5.18316e-07
5.07872e-07
4.9764e-07
4.87616e-07
4.77794e-07
4.68172e-07
4.58744e-07
4.49507e-07
4.40457e-07
4.31589e-07
4.22901e-07
4.14388e-07
4.06046e-07
3.97873e-07
3.89864e-07
3.82017e-07
3.74328e-07
3.66793e-07
3.5941e-07
3.52176e-07
3.45087e-07
3.38141e-07
3.31334e-07
3.24664e-07
3.18128e-07
3.11724e-07
3.05448e-07
2.99298e-07
2.93272e-07
2.87367e-07
2.8158e-07
2.7591e-07
2.70353e-07
2.64908e-07
2.59573e-07
2.54344e-07
2.4922e-07
2.442e-07
2.3928e-07
2.34459e-07
2.29734e-07
2.25105e-07
2.20568e-07
2.16123e-07
2.11767e-07
2.07498e-07
2.03315e-07
1.99216e-07
1.95199e-07
1.91263e-07
1.87407e-07
1.83627e-07
1.79924e-07
1.76295e-07
1.72739e-07
1.69254e-07
1.6584e-07
1.62494e-07
1.59215e-07
1.56003e-07
1.52855e-07
1.4977e-07
1.46747e-07
1.43785e-07
1.40883e-07
1.38039e-07
1.35253e-07
1.32522e-07
1.29846e-07
1.27225e-07
1.24656e-07
1.22138e-07
1.19672e-07
1.17255e-07
1.14887e-07
1.12566e-07
1.10293e-07
1.08065e-07
1.05881e-07
1.03742e-07
1.01646e-07
9.95924e-08
9.75799e-08
9.5608e-08
9.36758e-08
9.17826e-08
8.99275e-08
8.81098e-08
8.63287e-08
8.45836e-08
8.28737e-08
8.11983e-08
7.95567e-08
7.79482e-08
7.63723e-08
7.48282e-08
7.33153e-08
7.18331e-08
7.03809e-08
6.89581e-08
6.75641e-08
6.61984e-08
6.48604e-08
6.35496e-08
6.22654e-08
6.10072e-08
5.97745e-08
5.85667e-08
5.73834e-08
5.62239e-08
5.50878e-08
5.39745e-08
5.28835e-08
5.18142e-08
5.07661e-08
4.97385e-08
4.87311e-08
4.77432e-08
4.67742e-08
4.58236e-08
4.48908e-08
4.39753e-08
4.30765e-08
4.21937e-08
4.13265e-08
4.04743e-08
3.96365e-08
3.88125e-08
3.80019e-08
3.72039e-08
3.64182e-08
3.56442e-08
3.48813e-08
3.41292e-08
3.33872e-08
3.2655e-08
3.19321e-08
3.12181e-08
3.05126e-08
2.98152e-08
2.91256e-08
2.84435e-08
2.77686e-08
2.71006e-08
2.64393e-08
2.57845e-08
2.5136e-08
2.44936e-08
2.38574e-08
2.3227e-08
2.26027e-08
2.19841e-08
2.13715e-08
2.07648e-08
2.0164e-08
1.95692e-08
1.89806e-08
1.83982e-08
1.78222e-08
1.72528e-08
1.669e-08
1.61343e-08
1.55856e-08
1.50444e-08
1.45107e-08
1.39849e-08
1.34672e-08
1.29579e-08
1.24571e-08
1.19653e-08
1.14825e-08
1.10091e-08
1.05453e-08
1.00913e-08
9.64736e-09
9.21365e-09
8.79037e-09
8.37769e-09
7.97577e-09
7.58476e-09
7.20478e-09
6.83591e-09
6.47827e-09
6.13187e-09
5.79681e-09
5.47306e-09
5.16069e-09
4.8596e-09
4.56984e-09
4.2913e-09
4.02394e-09
3.76759e-09
3.52225e-09
3.28763e-09
3.06376e-09
2.85028e-09
2.64722e-09
2.45415e-09
2.27109e-09
2.09753e-09
1.93355e-09
1.77851e-09
1.63254e-09
1.49493e-09
1.36592e-09
1.24461e-09
1.13135e-09
1.02514e-09
9.26463e-10
8.34057e-10
7.48696e-10
6.68869e-10
5.95613e-10
5.27102e-10
4.64759e-10
4.06359e-10
3.53801e-10
3.04293e-10
2.60402e-10
2.18654e-10
1.82386e-10
1.47303e-10
1.17695e-10
8.82696e-11
6.44659e-11
3.97528e-11
2.0991e-11
1.26639e-13
-1.43171e-11
-3.2095e-11
-4.28644e-11
-5.8218e-11
-6.59332e-11
-7.93015e-11
-8.46329e-11
-9.6208e-11
-1.00049e-10
-1.09544e-10
-1.1334e-10
-1.19545e-10
-1.26101e-10
-1.259e-10
-1.41044e-10
-1.2693e-10
-1.63759e-10
-1.16554e-10
-2.06987e-10
-6.51672e-11
-2.96742e-10
3.32157e-10
-1.74538e-10
-1.74538e-10
-0.0952159
0.0952159
0.0129756
0.00385462
0.00193431
0.0011962
0.000821741
0.000602314
0.000462067
0.000367041
0.000299831
0.000250645
0.000213602
0.000184994
0.0001624
0.000144195
0.00012926
0.00011681
0.000106285
9.72762e-05
8.9483e-05
8.26777e-05
7.66869e-05
7.13754e-05
6.66372e-05
6.23871e-05
5.85565e-05
5.50887e-05
5.19373e-05
4.90631e-05
4.64331e-05
4.40194e-05
4.17981e-05
3.97484e-05
3.78526e-05
3.60951e-05
3.44623e-05
3.29422e-05
3.15245e-05
3.01998e-05
2.89598e-05
2.77973e-05
2.67056e-05
2.5679e-05
2.47121e-05
2.38003e-05
2.29393e-05
2.21253e-05
2.13546e-05
2.06243e-05
1.99313e-05
1.92731e-05
1.86473e-05
1.80517e-05
1.74842e-05
1.69431e-05
1.64266e-05
1.59332e-05
1.54615e-05
1.50101e-05
1.45778e-05
1.41634e-05
1.3766e-05
1.33846e-05
1.30182e-05
1.2666e-05
1.23272e-05
1.20012e-05
1.16872e-05
1.13846e-05
1.10928e-05
1.08112e-05
1.05394e-05
1.02769e-05
1.00232e-05
9.77784e-06
9.5405e-06
9.31078e-06
9.08833e-06
8.87282e-06
8.66393e-06
8.46138e-06
8.2649e-06
8.07422e-06
7.88909e-06
7.7093e-06
7.53462e-06
7.36484e-06
7.19977e-06
7.03923e-06
6.88305e-06
6.73104e-06
6.58307e-06
6.43899e-06
6.29864e-06
6.1619e-06
6.02864e-06
5.89874e-06
5.77209e-06
5.64857e-06
5.52808e-06
5.41052e-06
5.29581e-06
5.18383e-06
5.07452e-06
4.96779e-06
4.86355e-06
4.76174e-06
4.66228e-06
4.5651e-06
4.47014e-06
4.37733e-06
4.28661e-06
4.19793e-06
4.11122e-06
4.02644e-06
3.94353e-06
3.86244e-06
3.78312e-06
3.70553e-06
3.62962e-06
3.55536e-06
3.48269e-06
3.41157e-06
3.34198e-06
3.27387e-06
3.2072e-06
3.14195e-06
3.07807e-06
3.01553e-06
2.95431e-06
2.89437e-06
2.83568e-06
2.77821e-06
2.72194e-06
2.66683e-06
2.61286e-06
2.56001e-06
2.50826e-06
2.45756e-06
2.40791e-06
2.35928e-06
2.31164e-06
2.26498e-06
2.21928e-06
2.1745e-06
2.13064e-06
2.08768e-06
2.04559e-06
2.00435e-06
1.96395e-06
1.92438e-06
1.8856e-06
1.84761e-06
1.81039e-06
1.77393e-06
1.7382e-06
1.70319e-06
1.66889e-06
1.63529e-06
1.60236e-06
1.57009e-06
1.53848e-06
1.5075e-06
1.47715e-06
1.44741e-06
1.41827e-06
1.38971e-06
1.36173e-06
1.33432e-06
1.30745e-06
1.28112e-06
1.25533e-06
1.23005e-06
1.20528e-06
1.18101e-06
1.15722e-06
1.13392e-06
1.11108e-06
1.0887e-06
1.06677e-06
1.04528e-06
1.02423e-06
1.00359e-06
9.83371e-07
9.63557e-07
9.44141e-07
9.25116e-07
9.06472e-07
8.88203e-07
8.703e-07
8.52758e-07
8.35568e-07
8.18723e-07
8.02216e-07
7.86042e-07
7.70192e-07
7.54661e-07
7.39442e-07
7.24528e-07
7.09915e-07
6.95595e-07
6.81564e-07
6.67814e-07
6.54341e-07
6.41139e-07
6.28202e-07
6.15526e-07
6.03104e-07
5.90933e-07
5.79007e-07
5.6732e-07
5.55869e-07
5.44648e-07
5.33653e-07
5.22879e-07
5.12323e-07
5.01978e-07
4.91843e-07
4.81911e-07
4.72179e-07
4.62643e-07
4.533e-07
4.44144e-07
4.35173e-07
4.26383e-07
4.1777e-07
4.0933e-07
4.0106e-07
3.92957e-07
3.85017e-07
3.77238e-07
3.69615e-07
3.62145e-07
3.54826e-07
3.47655e-07
3.40628e-07
3.33744e-07
3.26998e-07
3.20388e-07
3.13911e-07
3.07566e-07
3.01348e-07
2.95257e-07
2.89288e-07
2.83441e-07
2.77712e-07
2.72099e-07
2.66599e-07
2.61211e-07
2.55933e-07
2.50761e-07
2.45695e-07
2.4073e-07
2.35867e-07
2.31102e-07
2.26433e-07
2.21858e-07
2.17375e-07
2.12981e-07
2.08676e-07
2.04455e-07
2.00318e-07
1.96262e-07
1.92285e-07
1.88384e-07
1.84558e-07
1.80804e-07
1.7712e-07
1.73503e-07
1.69951e-07
1.66463e-07
1.63035e-07
1.59666e-07
1.56354e-07
1.53095e-07
1.49888e-07
1.46731e-07
1.43621e-07
1.40557e-07
1.37536e-07
1.34557e-07
1.31618e-07
1.28717e-07
1.25852e-07
1.23021e-07
1.20224e-07
1.17458e-07
1.14722e-07
1.12016e-07
1.09338e-07
1.06686e-07
1.04061e-07
1.01462e-07
9.88869e-08
9.63363e-08
9.38095e-08
9.13063e-08
8.88264e-08
8.63699e-08
8.39367e-08
8.1527e-08
7.9141e-08
7.67791e-08
7.44417e-08
7.21294e-08
6.98428e-08
6.75824e-08
6.53492e-08
6.31439e-08
6.09675e-08
5.88207e-08
5.67046e-08
5.46202e-08
5.25685e-08
5.05504e-08
4.85671e-08
4.66195e-08
4.47087e-08
4.28355e-08
4.1001e-08
3.92061e-08
3.74515e-08
3.57381e-08
3.40667e-08
3.24379e-08
3.08523e-08
2.93104e-08
2.78128e-08
2.63597e-08
2.49516e-08
2.35885e-08
2.22708e-08
2.09983e-08
1.97712e-08
1.85893e-08
1.74526e-08
1.63606e-08
1.53132e-08
1.43096e-08
1.33499e-08
1.24329e-08
1.15585e-08
1.07256e-08
9.93388e-09
9.18189e-09
8.46958e-09
7.79495e-09
7.15816e-09
6.55685e-09
5.99142e-09
5.45905e-09
4.96051e-09
4.49249e-09
4.0562e-09
3.64767e-09
3.26874e-09
2.91466e-09
2.58816e-09
2.28349e-09
2.00454e-09
1.74434e-09
1.50822e-09
1.28765e-09
1.08979e-09
9.04128e-10
7.40142e-10
5.84819e-10
4.50565e-10
3.2129e-10
2.12995e-10
1.05781e-10
2.00541e-11
-6.87555e-11
-1.34984e-10
-2.08773e-10
-2.58296e-10
-3.20068e-10
-3.55441e-10
-4.07738e-10
-4.31325e-10
-4.75977e-10
-4.90357e-10
-5.28125e-10
-5.3665e-10
-5.66548e-10
-5.74721e-10
-5.92349e-10
-6.1052e-10
-6.0445e-10
-6.54201e-10
-5.96865e-10
-7.26612e-10
-5.47493e-10
-8.74632e-10
-3.47583e-10
-1.18827e-09
1.1103e-09
-7.35589e-10
-7.35589e-10
-0.125293
0.125293
0.0249359
0.00835802
0.004278
0.00266152
0.00183374
0.00134635
0.00103388
0.000821704
0.000671387
0.00056125
0.000478232
0.000414085
0.00036341
0.000322576
0.000289079
0.000261164
0.000237571
0.000217385
0.000199929
0.000184691
0.000171281
0.000159395
0.000148795
0.00013929
0.000130724
0.000122972
0.000115928
0.000109505
0.000103628
9.8235e-05
9.32725e-05
8.86939e-05
8.44594e-05
8.0534e-05
7.68875e-05
7.34931e-05
7.03272e-05
6.73692e-05
6.46006e-05
6.20051e-05
5.95679e-05
5.7276e-05
5.51176e-05
5.30822e-05
5.11602e-05
4.93431e-05
4.7623e-05
4.59928e-05
4.44462e-05
4.29772e-05
4.15805e-05
4.02511e-05
3.89848e-05
3.77772e-05
3.66246e-05
3.55236e-05
3.44709e-05
3.34636e-05
3.2499e-05
3.15745e-05
3.06878e-05
2.98367e-05
2.90192e-05
2.82334e-05
2.74776e-05
2.67502e-05
2.60497e-05
2.53746e-05
2.47236e-05
2.40956e-05
2.34893e-05
2.29036e-05
2.23377e-05
2.17904e-05
2.1261e-05
2.07487e-05
2.02525e-05
1.97718e-05
1.93059e-05
1.88542e-05
1.8416e-05
1.79908e-05
1.75779e-05
1.7177e-05
1.67874e-05
1.64088e-05
1.60408e-05
1.56828e-05
1.53345e-05
1.49956e-05
1.46657e-05
1.43444e-05
1.40315e-05
1.37266e-05
1.34296e-05
1.314e-05
1.28576e-05
1.25823e-05
1.23137e-05
1.20516e-05
1.17959e-05
1.15463e-05
1.13026e-05
1.10647e-05
1.08324e-05
1.06055e-05
1.03838e-05
1.01672e-05
9.9556e-06
9.74876e-06
9.5466e-06
9.34896e-06
9.15574e-06
8.96681e-06
8.78205e-06
8.60136e-06
8.42462e-06
8.25173e-06
8.0826e-06
7.91712e-06
7.7552e-06
7.59676e-06
7.44171e-06
7.28996e-06
7.14144e-06
6.99606e-06
6.85375e-06
6.71443e-06
6.57804e-06
6.44451e-06
6.31377e-06
6.18576e-06
6.06041e-06
5.93766e-06
5.81745e-06
5.69973e-06
5.58444e-06
5.47153e-06
5.36094e-06
5.25262e-06
5.14652e-06
5.0426e-06
4.94081e-06
4.84109e-06
4.74341e-06
4.64772e-06
4.55398e-06
4.46215e-06
4.37218e-06
4.28405e-06
4.1977e-06
4.1131e-06
4.03022e-06
3.94901e-06
3.86945e-06
3.7915e-06
3.71512e-06
3.64029e-06
3.56697e-06
3.49512e-06
3.42473e-06
3.35576e-06
3.28818e-06
3.22196e-06
3.15707e-06
3.09349e-06
3.03119e-06
2.97015e-06
2.91033e-06
2.85172e-06
2.79428e-06
2.738e-06
2.68286e-06
2.62882e-06
2.57587e-06
2.52398e-06
2.47313e-06
2.42331e-06
2.37449e-06
2.32665e-06
2.27977e-06
2.23384e-06
2.18882e-06
2.14471e-06
2.10149e-06
2.05913e-06
2.01763e-06
1.97696e-06
1.93711e-06
1.89806e-06
1.85979e-06
1.82229e-06
1.78555e-06
1.74954e-06
1.71426e-06
1.67969e-06
1.64581e-06
1.61261e-06
1.58008e-06
1.54821e-06
1.51697e-06
1.48637e-06
1.45638e-06
1.42699e-06
1.39819e-06
1.36998e-06
1.34233e-06
1.31524e-06
1.28869e-06
1.26268e-06
1.23719e-06
1.21221e-06
1.18774e-06
1.16376e-06
1.14026e-06
1.11724e-06
1.09468e-06
1.07257e-06
1.05091e-06
1.02969e-06
1.00889e-06
9.88511e-07
9.68543e-07
9.48978e-07
9.29807e-07
9.11023e-07
8.92617e-07
8.74582e-07
8.5691e-07
8.39594e-07
8.22628e-07
8.06003e-07
7.89714e-07
7.73753e-07
7.58114e-07
7.4279e-07
7.27776e-07
7.13064e-07
6.9865e-07
6.84527e-07
6.7069e-07
6.57132e-07
6.43849e-07
6.30834e-07
6.18083e-07
6.05591e-07
5.93351e-07
5.8136e-07
5.69611e-07
5.58101e-07
5.46824e-07
5.35776e-07
5.2495e-07
5.14344e-07
5.03951e-07
4.93768e-07
4.83789e-07
4.74009e-07
4.64424e-07
4.55028e-07
4.45817e-07
4.36786e-07
4.2793e-07
4.19244e-07
4.10723e-07
4.02362e-07
3.94155e-07
3.86099e-07
3.78187e-07
3.70414e-07
3.62776e-07
3.55268e-07
3.47883e-07
3.40619e-07
3.33469e-07
3.26429e-07
3.19494e-07
3.1266e-07
3.05922e-07
2.99276e-07
2.92717e-07
2.86242e-07
2.79848e-07
2.7353e-07
2.67285e-07
2.6111e-07
2.55002e-07
2.48959e-07
2.42978e-07
2.37057e-07
2.31194e-07
2.25388e-07
2.19637e-07
2.1394e-07
2.08297e-07
2.02706e-07
1.97167e-07
1.91681e-07
1.86247e-07
1.80866e-07
1.75538e-07
1.70265e-07
1.65047e-07
1.59886e-07
1.54782e-07
1.49738e-07
1.44756e-07
1.39836e-07
1.34982e-07
1.30195e-07
1.25477e-07
1.20831e-07
1.16259e-07
1.11763e-07
1.07345e-07
1.03008e-07
9.8754e-08
9.4585e-08
9.05031e-08
8.65103e-08
8.26085e-08
7.87994e-08
7.50846e-08
7.14656e-08
6.79438e-08
6.45202e-08
6.1196e-08
5.79718e-08
5.48483e-08
5.18258e-08
4.89049e-08
4.60853e-08
4.33675e-08
4.07506e-08
3.82348e-08
3.58188e-08
3.35024e-08
3.1284e-08
2.91633e-08
2.71379e-08
2.52076e-08
2.33695e-08
2.16234e-08
1.99656e-08
1.8396e-08
1.69102e-08
1.55085e-08
1.41856e-08
1.29423e-08
1.17724e-08
1.06775e-08
9.65028e-09
8.69327e-09
7.79779e-09
6.96774e-09
6.19274e-09
5.47858e-09
4.81281e-09
4.20366e-09
3.63608e-09
3.12141e-09
2.64125e-09
2.21086e-09
1.80763e-09
1.45174e-09
1.11532e-09
8.24766e-10
5.4564e-10
3.12058e-10
8.1415e-11
-1.0273e-10
-2.92978e-10
-4.34464e-10
-5.91746e-10
-6.9676e-10
-8.27723e-10
-9.0184e-10
-1.01204e-09
-1.06051e-09
-1.154e-09
-1.18238e-09
-1.26096e-09
-1.27647e-09
-1.33815e-09
-1.35253e-09
-1.38811e-09
-1.42339e-09
-1.40873e-09
-1.51073e-09
-1.38772e-09
-1.65897e-09
-1.2788e-09
-1.9671e-09
-8.53128e-10
-2.61728e-09
2.18974e-09
-1.66748e-09
-1.66748e-09
-0.146488
0.146488
0.0383105
0.014234
0.00745602
0.00467275
0.00323055
0.00237653
0.00182708
0.00145306
0.00118762
0.000992883
0.000845958
0.000732363
0.000642595
0.000570249
0.000510907
0.00046146
0.000419681
0.000383945
0.00035305
0.00032609
0.000302371
0.000281354
0.000262615
0.000245814
0.000230678
0.000216981
0.000204538
0.000193192
0.000182814
0.000173291
0.000164528
0.000156444
0.000148969
0.000142039
0.000135602
0.000129611
0.000124023
0.000118802
0.000113916
0.000109336
0.000105035
0.00010099
9.71815e-05
9.359e-05
9.01987e-05
8.69925e-05
8.39576e-05
8.10814e-05
7.83527e-05
7.5761e-05
7.3297e-05
7.09519e-05
6.87178e-05
6.65875e-05
6.45544e-05
6.26122e-05
6.07553e-05
5.89785e-05
5.7277e-05
5.56463e-05
5.40823e-05
5.25812e-05
5.11393e-05
4.97535e-05
4.84205e-05
4.71376e-05
4.59022e-05
4.47116e-05
4.35636e-05
4.2456e-05
4.13869e-05
4.03542e-05
3.93562e-05
3.83912e-05
3.74578e-05
3.65543e-05
3.56794e-05
3.48319e-05
3.40105e-05
3.32141e-05
3.24415e-05
3.16918e-05
3.09639e-05
3.02571e-05
2.95704e-05
2.8903e-05
2.82541e-05
2.76231e-05
2.70092e-05
2.64118e-05
2.58302e-05
2.5264e-05
2.47125e-05
2.41751e-05
2.36515e-05
2.31411e-05
2.26435e-05
2.21582e-05
2.16849e-05
2.12231e-05
2.07724e-05
2.03326e-05
1.99032e-05
1.9484e-05
1.90746e-05
1.86748e-05
1.82842e-05
1.79026e-05
1.75297e-05
1.71653e-05
1.68091e-05
1.64609e-05
1.61205e-05
1.57876e-05
1.54621e-05
1.51438e-05
1.48325e-05
1.45279e-05
1.423e-05
1.39385e-05
1.36533e-05
1.33742e-05
1.31011e-05
1.28338e-05
1.25722e-05
1.23161e-05
1.20655e-05
1.18201e-05
1.15799e-05
1.13447e-05
1.11144e-05
1.0889e-05
1.06682e-05
1.04521e-05
1.02404e-05
1.00331e-05
9.83005e-06
9.63121e-06
9.43647e-06
9.24573e-06
9.05891e-06
8.87592e-06
8.69667e-06
8.52109e-06
8.3491e-06
8.18061e-06
8.01556e-06
7.85387e-06
7.69547e-06
7.54029e-06
7.38826e-06
7.23932e-06
7.09339e-06
6.95042e-06
6.81035e-06
6.67311e-06
6.53865e-06
6.40691e-06
6.27783e-06
6.15135e-06
6.02743e-06
5.90601e-06
5.78704e-06
5.67046e-06
5.55624e-06
5.44432e-06
5.33465e-06
5.22719e-06
5.1219e-06
5.01872e-06
4.91762e-06
4.81856e-06
4.72148e-06
4.62636e-06
4.53316e-06
4.44183e-06
4.35233e-06
4.26464e-06
4.1787e-06
4.0945e-06
4.01198e-06
3.93113e-06
3.8519e-06
3.77426e-06
3.69819e-06
3.62364e-06
3.55059e-06
3.47901e-06
3.40887e-06
3.34014e-06
3.27279e-06
3.20679e-06
3.14212e-06
3.07875e-06
3.01666e-06
2.95581e-06
2.89619e-06
2.83776e-06
2.78051e-06
2.72441e-06
2.66944e-06
2.61558e-06
2.5628e-06
2.51108e-06
2.4604e-06
2.41075e-06
2.36209e-06
2.31441e-06
2.26769e-06
2.22191e-06
2.17706e-06
2.1331e-06
2.09003e-06
2.04783e-06
2.00648e-06
1.96597e-06
1.92626e-06
1.88736e-06
1.84924e-06
1.81189e-06
1.77529e-06
1.73943e-06
1.7043e-06
1.66987e-06
1.63613e-06
1.60307e-06
1.57068e-06
1.53895e-06
1.50785e-06
1.47738e-06
1.44752e-06
1.41827e-06
1.3896e-06
1.36152e-06
1.334e-06
1.30703e-06
1.28061e-06
1.25472e-06
1.22936e-06
1.20451e-06
1.18016e-06
1.1563e-06
1.13293e-06
1.11003e-06
1.08759e-06
1.06561e-06
1.04407e-06
1.02297e-06
1.00229e-06
9.8204e-07
9.62195e-07
9.42752e-07
9.23703e-07
9.05038e-07
8.86748e-07
8.68827e-07
8.51264e-07
8.34052e-07
8.17181e-07
8.00644e-07
7.84431e-07
7.68534e-07
7.52944e-07
7.37652e-07
7.22649e-07
7.07927e-07
6.93476e-07
6.79288e-07
6.65353e-07
6.51663e-07
6.38208e-07
6.2498e-07
6.1197e-07
5.99169e-07
5.86569e-07
5.7416e-07
5.61936e-07
5.49888e-07
5.38008e-07
5.26289e-07
5.14724e-07
5.03305e-07
4.92026e-07
4.80881e-07
4.69864e-07
4.5897e-07
4.48194e-07
4.37531e-07
4.26977e-07
4.16529e-07
4.06183e-07
3.95937e-07
3.85788e-07
3.75734e-07
3.65775e-07
3.55909e-07
3.46136e-07
3.36455e-07
3.26868e-07
3.17375e-07
3.07976e-07
2.98675e-07
2.89472e-07
2.8037e-07
2.71371e-07
2.62479e-07
2.53695e-07
2.45025e-07
2.36471e-07
2.28037e-07
2.19726e-07
2.11543e-07
2.03492e-07
1.95577e-07
1.87802e-07
1.8017e-07
1.72686e-07
1.65353e-07
1.58175e-07
1.51155e-07
1.44298e-07
1.37605e-07
1.31079e-07
1.24723e-07
1.1854e-07
1.12531e-07
1.06698e-07
1.01042e-07
9.5564e-08
9.0265e-08
8.51456e-08
8.02054e-08
7.54449e-08
7.08627e-08
6.64588e-08
6.22311e-08
5.81792e-08
5.42999e-08
5.05927e-08
4.70534e-08
4.36816e-08
4.04719e-08
3.7424e-08
3.45313e-08
3.17937e-08
2.92033e-08
2.67603e-08
2.44558e-08
2.22908e-08
2.02546e-08
1.83497e-08
1.65634e-08
1.48999e-08
1.33443e-08
1.19028e-08
1.05578e-08
9.31894e-09
8.16481e-09
7.10924e-09
6.12652e-09
5.23574e-09
4.40549e-09
3.66153e-09
2.96529e-09
2.351e-09
1.77106e-09
1.27034e-09
7.90059e-10
3.88236e-10
-7.74823e-12
-3.23846e-10
-6.49676e-10
-8.91924e-10
-1.16056e-09
-1.33976e-09
-1.56277e-09
-1.6886e-09
-1.87566e-09
-1.95722e-09
-2.11541e-09
-2.16225e-09
-2.29484e-09
-2.31932e-09
-2.42313e-09
-2.44511e-09
-2.50484e-09
-2.56157e-09
-2.53674e-09
-2.70547e-09
-2.49857e-09
-2.9519e-09
-2.31345e-09
-3.46719e-09
-1.5991e-09
-4.5466e-09
3.42787e-09
-2.9646e-09
-2.9646e-09
-0.160438
0.160438
0.0519966
0.0211683
0.0113796