# vtk DataFile Version 2.0
FlowField
ASCII
DATASET STRUCTURED_GRID
DIMENSIONS 400 1 200
POINTS 80000 float
0 0 0
0.08 0 0
0.16 0 0
0.24 0 0
0.32 0 0
0.4 0 0
0.48 0 0
0.56 0 0
0.64 0 0
0.72 0 0
0.8 0 0
0.88 0 0
0.96 0 0
1.04 0 0
1.12 0 0
1.2 0 0
1.28 0 0
1.36 0 0
1.44 0 0
1.52 0 0
1.6 0 0
1.68 0 0
1.76 0 0
1.84 0 0
1.92 0 0
2 0 0
2.08 0 0
2.16 0 0
2.24 0 0
2.32 0 0
2.4 0 0
2.48 0 0
2.56 0 0
2.64 0 0
2.72 0 0
2.8 0 0
2.88 0 0
2.96 0 0
3.04 0 0
3.12 0 0
3.2 0 0
3.28 0 0
3.36 0 0
3.44 0 0
3.52 0 0
3.6 0 0
3.68 0 0
3.76 0 0
3.84 0 0
3.92 0 0
4 0 0
4.08 0 0
4.16 0 0
4.24 0 0
4.32 0 0
4.4 0 0
4.48 0 0
4.56 0 0
4.64 0 0
4.72 0 0
4.8 0 0
4.88 0 0
4.96 0 0
5.04 0 0
5.12 0 0
5.2 0 0
5.28 0 0
5.36 0 0
5.44 0 0
5.52 0 0
5.6 0 0
5.68 0 0
5.76 0 0
5.84 0 0
5.92 0 0
6 0 0
6.08 0 0
6.16 0 0
6.24 0 0
6.32 0 0
6.4 0 0
6.48 0 0
6.56 0 0
6.64 0 0
6.72 0 0
6.8 0 0
6.88 0 0
6.96 0 0
7.04 0 0
7.12 0 0
7.2 0 0
7.28 0 0
7.36 0 0
7.44 0 0
7.52 0 0
7.6 0 0
7.68 0 0
7.76 0 0
7.84 0 0
7.92 0 0
8 0 0
8.08 0 0
8.16 0 0
8.24 0 0
8.32 0 0
8.4 0 0
8.48 0 0
8.56 0 0
8.64 0 0
8.72 0 0
8.8 0 0
8.88 0 0
8.96 0 0
9.04 0 0
9.12 0 0
9.2 0 0
9.28 0 0
9.36 0 0
9.44 0 0
9.52 0 0
9.6 0 0
9.68 0 0
9.76 0 0
9.84 0 0
9.92 0 0
10 0 0
10.08 0 0
10.16 0 0
10.24 0 0
10.32 0 0
10.4 0 0
10.48 0 0
10.56 0 0
10.64 0 0
10.72 0 0
10.8 0 0
10.88 0 0
10.96 0 0
11.04 0 0
11.12 0 0
11.2 0 0
11.28 0 0
11.36 0 0
11.44 0 0
11.52 0 0
11.6 0 0
11.68 0 0
11.76 0 0
11.84 0 0
11.92 0 0
12 0 0
12.08 0 0
12.16 0 0
12.24 0 0
12.32 0 0
12.4 0 0
12.48 0 0
12.56 0 0
12.64 0 0
12.72 0 0
12.8 0 0
12.88 0 0
12.96 0 0
13.04 0 0
13.12 0 0
13.2 0 0
13.28 0 0
13.36 0 0
13.44 0 0
13.52 0 0
13.6 0 0
13.68 0 0
13.76 0 0
13.84 0 0
13.92 0 0
14 0 0
14.08 0 0
14.16 0 0
14.24 0 0
14.32 0 0
14.4 0 0
14.48 0 0
14.56 0 0
14.64 0 0
14.72 0 0
14.8 0 0
14.88 0 0
14.96 0 0
15.04 0 0
15.12 0 0
15.2 0 0
15.28 0 0
15.36 0 0
15.44 0 0
15.52 0 0
15.6 0 0
15.68 0 0
15.76 0 0
15.84 0 0
15.92 0 0
16 0 0
16.08 0 0
16.16 0 0
16.24 0 0
16.32 0 0
16.4 0 0
16.48 0 0
16.56 0 0
16.64 0 0
16.72 0 0
16.8 0 0
16.88 0 0
16.96 0 0
17.04 0 0
17.12 0 0
17.2 0 0
17.28 0 0
17.36 0 0
17.44 0 0
17.52 0 0
17.6 0 0
17.68 0 0
17.76 0 0
17.84 0 0
17.92 0 0
18 0 0
18.08 0 0
18.16 0 0
18.24 0 0
18.32 0 0
18.4 0 0
18.48 0 0
18.56 0 0
18.64 0 0
18.72 0 0
18.8 0 0
18.88 0 0
18.96 0 0
19.04 0 0
19.12 0 0
19.2 0 0
19.28 0 0
19.36 0 0
19.44 0 0
19.52 0 0
19.6 0 0
19.68 0 0
19.76 0 0
19.84 0 0
19.92 0 0
20 0 0
20.08 0 0
20.16 0 0
20.24 0 0
20.32 0 0
20.4 0 0
20.48 0 0
20.56 0 0
20.64 0 0
20.72 0 0
20.8 0 0
20.88 0 0
20.96 0 0
21.04 0 0
21.12 0 0
21.2 0 0
21.28 0 0
21.36 0 0
21.44 0 0
21.52 0 0
21.6 0 0
21.68 0 0
21.76 0 0
21.84 0 0
21.92 0 0
22 0 0
22.08 0 0
22.16 0 0
22.24 0 0
22.32 0 0
22.4 0 0
22.48 0 0
22.56 0 0
22.64 0 0
22.72 0 0
22.8 0 0
22.88 0 0
22.96 0 0
23.04 0 0
23.12 0 0
23.2 0 0
23.28 0 0
23.36 0 0
23.44 0 0
23.52 0 0
23.6 0 0
23.68 0 0
23.76 0 0
23.84 0 0
23.92 0 0
24 0 0
24.08 0 0
24.16 0 0
24.24 0 0
24.32 0 0
24.4 0 0
24.48 0 0
24.56 0 0
24.64 0 0
24.72 0 0
24.8 0 0
24.88 0 0
24.96 0 0
25.04 0 0
25.12 0 0
25.2 0 0
25.28 0 0
25.36 0 0
25.44 0 0
25.52 0 0
25.6 0 0
25.68 0 0
25.76 0 0
25.84 0 0
25.92 0 0
26 0 0
26.08 0 0
26.16 0 0
26.24 0 0
26.32 0 0
26.4 0 0
26.48 0 0
26.56 0 0
26.64 0 0
26.72 0 0
26.8 0 0
26.88 0 0
26.96 0 0
27.04 0 0
27.12 0 0
27.2 0 0
27.28 0 0
27.36 0 0
27.44 0 0
27.52 0 0
27.6 0 0
27.68 0 0
27.76 0 0
27.84 0 0
27.92 0 0
28 0 0
28.08 0 0
28.16 0 0
28.24 0 0
28.32 0 0
28.4 0 0
28.48 0 0
28.56 0 0
28.64 0 0
28.72 0 0
28.8 0 0
28.88 0 0
28.96 0 0
29.04 0 0
29.12 0 0
29.2 0 0
29.28 0 0
29.36 0 0
29.44 0 0
29.52 0 0
29.6 0 0
29.68 0 0
29.76 0 0
29.84 0 0
29.92 0 0
30 0 0
30.08 0 0
30.16 0 0
30.24 0 0
30.32 0 0
30.4 0 0
30.48 0 0
30.56 0 0
30.64 0 0
30.72 0 0
30.8 0 0
30.88 0 0
30.96 0 0
31.04 0 0
31.12 0 0
31.2 0 0
31.28 0 0
31.36 0 0
31.44 0 0
31.52 0 0
31.6 0 0
31.68 0 0
31.76 0 0
31.84 0 0
31.92 0 0
0 0.005 0
0.08 0.005 0
0.16 0.005 0
0.24 0.005 0
0.32 0.005 0
0.4 0.005 0
0.48 0.005 0
0.56 0.005 0
0.64 0.005 0
0.72 0.005 0
0.8 0.005 0
0.88 0.005 0
0.96 0.005 0
1.04 0.005 0
1.12 0.005 0
1.2 0.005 0
1.28 0.005 0
1.36 0.005 0
1.44 0.005 0
1.52 0.005 0
1.6 0.005 0
1.68 0.005 0
1.76 0.005 0
1.84 0.005 0
1.92 0.005 0
2 0.005 0
2.08 0.005 0
2.16 0.005 0
2.24 0.005 0
2.32 0.005 0
2.4 0.005 0
2.48 0.005 0
2.56 0.005 0
2.64 0.005 0
2.72 0.005 0
2.8 0.005 0
2.88 0.005 0
2.96 0.005 0
3.04 0.005 0
3.12 0.005 0
3.2 0.005 0
3.28 0.005 0
3.36 0.005 0
3.44 0.005 0
3.52 0.005 0
3.6 0.005 0
3.68 0.005 0
3.76 0.005 0
3.84 0.005 0
3.92 0.005 0
4 0.005 0
4.08 0.005 0
4.16 0.005 0
4.24 0.005 0
4.32 0.005 0
4.4 0.005 0
4.48 0.005 0
4.56 0.005 0
4.64 0.005 0
4.72 0.005 0
4.8 0.005 0
4.88 0.005 0
4.96 0.005 0
5.04 0.005 0
5.12 0.005 0
5.2 0.005 0
5.28 0.005 0
5.36 0.005 0
5.44 0.005 0
5.52 0.005 0
5.6 0.005 0
5.68 0.005 0
5.76 0.005 0
5.84 0.005 0
5.92 0.005 0
6 0.005 0
6.08 0.005 0
6.16 0.005 0
6.24 0.005 0
6.32 0.005 0
6.4 0.005 0
6.48 0.005 0
6.56 0.005 0
6.64 0.005 0
6.72 0.005 0
6.8 0.005 0
6.88 0.005 0
6.96 0.005 0
7.04 0.005 0
7.12 0.005 0
7.2 0.005 0
7.28 0.005 0
7.36 0.005 0
7.44 0.005 0
7.52 0.005 0
7.6 0.005 0
7.68 0.005 0
7.76 0.005 0
7.84 0.005 0
7.92 0.005 0
8 0.005 0
8.08 0.005 0
8.16 0.005 0
8.24 0.005 0
8.32 0.005 0
8.4 0.005 0
8.48 0.005 0
8.56 0.005 0
8.64 0.005 0
8.72 0.005 0
8.8 0.005 0
8.88 0.005 0
8.96 0.005 0
9.04 0.005 0
9.12 0.005 0
9.2 0.005 0
9.28 0.005 0
9.36 0.005 0
9.44 0.005 0
9.52 0.005 0
9.6 0.005 0
9.68 0.005 0
9.76 0.005 0
9.84 0.005 0
9.92 0.005 0
10 0.005 0
10.08 0.005 0
10.16 0.005 0
10.24 0.005 0
10.32 0.005 0
10.4 0.005 0
10.48 0.005 0
10.56 0.005 0
10.64 0.005 0
10.72 0.005 0
10.8 0.005 0
10.88 0.005 0
10.96 0.005 0
11.04 0.005 0
11.12 0.005 0
11.2 0.005 0
11.28 0.005 0
11.36 0.005 0
11.44 0.005 0
11.52 0.005 0
11.6 0.005 0
11.68 0.005 0
11.76 0.005 0
11.84 0.005 0
11.92 0.005 0
12 0.005 0
12.08 0.005 0
12.16 0.005 0
12.24 0.005 0
12.32 0.005 0
12.4 0.005 0
12.48 0.005 0
12.56 0.005 0
12.64 0.005 0
12.72 0.005 0
12.8 0.005 0
12.88 0.005 0
12.96 0.005 0
13.04 0.005 0
13.12 0.005 0
13.2 0.005 0
13.28 0.005 0
13.36 0.005 0
13.44 0.005 0
13.52 0.005 0
13.6 0.005 0
13.68 0.005 0
13.76 0.005 0
13.84 0.005 0
13.92 0.005 0
14 0.005 0
14.08 0.005 0
14.16 0.005 0
14.24 0.005 0
14.32 0.005 0
14.4 0.005 0
14.48 0.005 0
14.56 0.005 0
14.64 0.005 0
14.72 0.005 0
14.8 0.005 0
14.88 0.005 0
14.96 0.005 0
15.04 0.005 0
15.12 0.005 0
15.2 0.005 0
15.28 0.005 0
15.36 0.005 0
15.44 0.005 0
15.52 0.005 0
15.6 0.005 0
15.68 0.005 0
15.76 0.005 0
15.84 0.005 0
15.92 0.005 0
16 0.005 0
16.08 0.005 0
16.16 0.005 0
16.24 0.005 0
16.32 0.005 0
16.4 0.005 0
16.48 0.005 0
16.56 0.005 0
16.64 0.005 0
16.72 0.005 0
16.8 0.005 0
16.88 0.005 0
16.96 0.005 0
17.04 0.005 0
17.12 0.005 0
17.2 0.005 0
17.28 0.005 0
17.36 0.005 0
17.44 0.005 0
17.52 0.005 0
17.6 0.005 0
17.68 0.005 0
17.76 0.005 0
17.84 0.005 0
17.92 0.005 0
18 0.005 0
18.08 0.005 0
18.16 0.005 0
18.24 0.005 0
18.32 0.005 0
18.4 0.005 0
18.48 0.005 0
18.56 0.005 0
18.64 0.005 0
18.72 0.005 0
18.8 0.005 0
18.88 0.005 0
18.96 0.005 0
19.04 0.005 0
19.12 0.005 0
19.2 0.005 0
19.28 0.005 0
19.36 0.005 0
19.44 0.005 0
19.52 0.005 0
19.6 0.005 0
19.68 0.005 0
19.76 0.005 0
19.84 0.005 0
19.92 0.005 0
20 0.005 0
20.08 0.005 0
20.16 0.005 0
20.24 0.005 0
20.32 0.005 0
20.4 0.005 0
20.48 0.005 0
20.56 0.005 0
20.64 0.005 0
20.72 0.005 0
20.8 0.005 0
20.88 0.005 0
20.96 0.005 0
21.04 0.005 0
21.12 0.005 0
21.2 0.005 0
21.28 0.005 0
21.36 0.005 0
21.44 0.005 0
21.52 0.005 0
21.6 0.005 0
21.68 0.005 0
21.76 0.005 0
21.84 0.005 0
21.92 0.005 0
22 0.005 0
22.08 0.005 0
22.16 0.005 0
22.24 0.005 0
22.32 0.005 0
22.4 0.005 0
22.48 0.005 0
22.56 0.005 0
22.64 0.005 0
22.72 0.005 0
22.8 0.005 0
22.88 0.005 0
22.96 0.005 0
23.04 0.005 0
23.12 0.005 0
23.2 0.005 0
23.28 0.005 0
23.36 0.005 0
23.44 0.005 0
23.52 0.005 0
23.6 0.005 0
23.68 0.005 0
23.76 0.005 0
23.84 0.005 0
23.92 0.005 0
24 0.005 0
24.08 0.005 0
24.16 0.005 0
24.24 0.005 0
24.32 0.005 0
24.4 0.005 0
24.48 0.005 0
24.56 0.005 0
24.64 0.005 0
24.72 0.005 0
24.8 0.005 0
24.88 0.005 0
24.96 0.005 0
25.04 0.005 0
25.12 0.005 0
25.2 0.005 0
25.28 0.005 0
25.36 0.005 0
25.44 0.005 0
25.52 0.005 0
25.6 0.005 0
25.68 0.005 0
25.76 0.005 0
25.84 0.005 0
25.92 0.005 0
26 0.005 0
26.08 0.005 0
26.16 0.005 0
26.24 0.005 0
26.32 0.005 0
26.4 0.005 0
26.48 0.005 0
26.56 0.005 0
26.64 0.005 0
26.72 0.005 0
26.8 0.005 0
26.88 0.005 0
26.96 0.005 0
27.04 0.005 0
27.12 0.005 0
27.2 0.005 0
27.28 0.005 0
27.36 0.005 0
27.44 0.005 0
27.52 0.005 0
27.6 0.005 0
27.68 0.005 0
27.76 0.005 0
27.84 0.005 0
27.92 0.005 0
28 0.005 0
28.08 0.005 0
28.16 0.005 0
28.24 0.005 0
28.32 0.005 0
28.4 0.005 0
28.48 0.005 0
28.56 0.005 0
28.64 0.005 0
28.72 0.005 0
28.8 0.005 0
28.88 0.005 0
28.96 0.005 0
29.04 0.005 0
29.12 0.005 0
29.2 0.005 0
29.28 0.005 0
29.36 0.005 0
29.44 0.005 0
29.52 0.005 0
29.6 0.005 0
29.68 0.005 0
29.76 0.005 0
29.84 0.005 0
29.92 0.005 0
30 0.005 0
30.08 0.005 0
30.16 0.005 0
30.24 0.005 0
30.32 0.005 0
30.4 0.005 0
30.48 0.005 0
30.56 0.005 0
30.64 0.005 0
30.72 0.005 0
30.8 0.005 0
30.88 0.005 0
30.96 0.005 0
31.04 0.005 0
31.12 0.005 0
31.2 0.005 0
31.28 0.005 0
31.36 0.005 0
31.44 0.005 0
31.52 0.005 0
31.6 0.005 0
31.68 0.005 0
31.76 0.005 0
31.84 0.005 0
31.92 0.005 0
0 0.01 0
0.08 0.01 0
0.16 0.01 0
0.24 0.01 0
0.32 0.01 0
0.4 0.01 0
0.48 0.01 0
0.56 0.01 0
0.64 0.01 0
0.72 0.01 0
0.8 0.01 0
0.88 0.01 0
0.96 0.01 0
1.04 0.01 0
1.12 0.01 0
1.2 0.01 0
1.28 0.01 0
1.36 0.01 0
1.44 0.01 0
1.52 0.01 0
1.6 0.01 0
1.68 0.01 0
1.76 0.01 0
1.84 0.01 0
1.92 0.01 0
2 0.01 0
2.08 0.01 0
2.16 0.01 0
2.24 0.01 0
2.32 0.01 0
2.4 0.01 0
2.48 0.01 0
2.56 0.01 0
2.64 0.01 0
2.72 0.01 0
2.8 0.01 0
2.88 0.01 0
2.96 0.01 0
3.04 0.01 0
3.12 0.01 0
3.2 0.01 0
3.28 0.01 0
3.36 0.01 0
3.44 0.01 0
3.52 0.01 0
3.6 0.01 0
3.68 0.01 0
3.76 0.01 0
3.84 0.01 0
3.92 0.01 0
4 0.01 0
4.08 0.01 0
4.16 0.01 0
4.24 0.01 0
4.32 0.01 0
4.4 0.01 0
4.48 0.01 0
4.56 0.01 0
4.64 0.01 0
4.72 0.01 0
4.8 0.01 0
4.88 0.01 0
4.96 0.01 0
5.04 0.01 0
5.12 0.01 0
[...]
POINT_DATA 80000

SCALARS p float 1
LOOKUP_TABLE default
1
56.5846
56.2829
56.2417
56.2217
56.2072
56.1952
56.1845
56.1745
56.165
56.1558
56.147
56.1384
56.13
56.1218
56.1137
56.1059
56.0982
56.0907
56.0833
56.0761
56.069
56.062
56.0552
56.0485
56.0419
56.0353
56.0289
56.0226
56.0164
56.0102
56.0042
55.9982
55.9923
55.9864
55.9807
55.975
55.9693
55.9638
55.9582
55.9528
55.9474
55.942
55.9367
55.9314
55.9262
55.9211
55.9159
55.9109
55.9058
55.9008
55.8959
55.8909
55.8861
55.8812
55.8764
55.8716
55.8669
55.8621
55.8575
55.8528
55.8482
55.8436
55.839
55.8345
55.83
55.8255
55.821
55.8166
55.8122
55.8078
55.8034
55.7991
55.7947
55.7904
55.7862
55.7819
55.7777
55.7735
55.7693
55.7651
55.761
55.7569
55.7528
55.7487
55.7447
55.7406
55.7366
55.7326
55.7287
55.7247
55.7208
55.7169
55.7131
55.7092
55.7054
55.7015
55.6977
55.694
55.6902
55.6864
55.6827
55.679
55.6753
55.6716
55.6679
55.6642
55.6606
55.6569
55.6533
55.6497
55.6461
55.6425
55.6389
55.6353
55.6318
55.6282
55.6246
55.6211
55.6176
55.614
55.6105
55.607
55.6035
55.6
55.5964
55.5929
55.5895
55.586
55.5825
55.579
55.5755
55.572
55.5685
55.5651
55.5616
55.5581
55.5546
55.5512
55.5477
55.5442
55.5407
55.5373
55.5338
55.5303
55.5268
55.5234
55.5199
55.5164
55.5129
55.5094
55.506
55.5025
55.499
55.4955
55.4921
55.4886
55.4851
55.4816
55.4782
55.4747
55.4712
55.4677
55.4643
55.4608
55.4573
55.4538
55.4504
55.4469
55.4434
55.4399
55.4364
55.433
55.4295
55.426
55.4225
55.4191
55.4156
55.4121
55.4086
55.4051
55.4017
55.3982
55.3947
55.3912
55.3878
55.3843
55.3808
55.3773
55.3739
55.3704
55.3669
55.3634
55.3599
55.3565
55.353
55.3495
55.346
55.3425
55.3391
55.3356
55.3321
55.3286
55.3252
55.3217
55.3182
55.3147
55.3112
55.3078
55.3043
55.3008
55.2973
55.2938
55.2904
55.2869
55.2834
55.2799
55.2765
55.273
55.2695
55.266
55.2625
55.2591
55.2556
55.2521
55.2486
55.2451
55.2417
55.2382
55.2347
55.2312
55.2277
55.2243
55.2208
55.2173
55.2138
55.2103
55.2069
55.2034
55.1999
55.1964
55.1929
55.1895
55.186
55.1825
55.179
55.1755
55.1721
55.1686
55.1651
55.1616
55.1581
55.1547
55.1512
55.1477
55.1442
55.1407
55.1372
55.1338
55.1303
55.1268
55.1233
55.1198
55.1164
55.1129
55.1094
55.1059
55.1024
55.099
55.0955
55.092
55.0885
55.085
55.0815
55.0781
55.0746
55.0711
55.0676
55.0641
55.0607
55.0572
55.0537
55.0502
55.0467
55.0432
55.0398
55.0363
55.0328
55.0293
55.0258
55.0223
55.0189
55.0154
55.0119
55.0084
55.0049
55.0014
54.998
54.9945
54.991
54.9875
54.984
54.9805
54.9771
54.9736
54.9701
54.9666
54.9631
54.9596
54.9562
54.9527
54.9492
54.9457
54.9422
54.9387
54.9353
54.9318
54.9283
54.9248
54.9213
54.9178
54.9143
54.9109
54.9074
54.9039
54.9004
54.8969
54.8934
54.89
54.8865
54.883
54.8795
54.876
54.8725
54.869
54.8656
54.8621
54.8586
54.8551
54.8516
54.8481
54.8446
54.8412
54.8377
54.8342
54.8307
54.8272
54.8237
54.8202
54.8168
54.8133
54.8098
54.8063
54.8028
54.7993
54.7958
54.7924
54.7889
54.7854
54.7819
54.7784
54.7749
54.7714
54.7679
54.7645
54.761
54.7575
54.754
54.7505
54.747
54.7435
54.74
54.7366
54.7331
54.7296
54.7261
54.7226
54.7191
54.7156
54.7121
54.7087
54.7052
54.7017
54.6982
54.6947
54.6912
54.6877
54.6842
54.6808
54.6773
54.6738
54.6703
54.6668
54.6633
54.6598
54.6563
54.6528
54.6494
54.6459
0.5
56.5846
56.5846
56.2829
56.2417
56.2217
56.2072
56.1952
56.1845
56.1745
56.165
56.1558
56.147
56.1384
56.13
56.1218
56.1137
56.1059
56.0982
56.0907
56.0833
56.0761
56.069
56.062
56.0552
56.0485
56.0419
56.0353
56.0289
56.0226
56.0164
56.0102
56.0042
55.9982
55.9923
55.9864
55.9807
55.975
55.9693
55.9638
55.9582
55.9528
55.9474
55.942
55.9367
55.9314
55.9262
55.9211
55.9159
55.9109
55.9058
55.9008
55.8959
55.8909
55.8861
55.8812
55.8764
55.8716
55.8669
55.8621
55.8575
55.8528
55.8482
55.8436
55.839
55.8345
55.83
55.8255
55.821
55.8166
55.8122
55.8078
55.8034
55.7991
55.7947
55.7904
55.7862
55.7819
55.7777
55.7735
55.7693
55.7651
55.761
55.7569
55.7528
55.7487
55.7447
55.7406
55.7366
55.7326
55.7287
55.7247
55.7208
55.7169
55.7131
55.7092
55.7054
55.7015
55.6977
55.694
55.6902
55.6864
55.6827
55.679
55.6753
55.6716
55.6679
55.6642
55.6606
55.6569
55.6533
55.6497
55.6461
55.6425
55.6389
55.6353
55.6318
55.6282
55.6246
55.6211
55.6176
55.614
55.6105
55.607
55.6035
55.6
55.5964
55.5929
55.5895
55.586
55.5825
55.579
55.5755
55.572
55.5685
55.5651
55.5616
55.5581
55.5546
55.5512
55.5477
55.5442
55.5407
55.5373
55.5338
55.5303
55.5268
55.5234
55.5199
55.5164
55.5129
55.5094
55.506
55.5025
55.499
55.4955
55.4921
55.4886
55.4851
55.4816
55.4782
55.4747
55.4712
55.4677
55.4643
55.4608
55.4573
55.4538
55.4504
55.4469
55.4434
55.4399
55.4364
55.433
55.4295
55.426
55.4225
55.4191
55.4156
55.4121
55.4086
55.4051
55.4017
55.3982
55.3947
55.3912
55.3878
55.3843
55.3808
55.3773
55.3739
55.3704
55.3669
55.3634
55.3599
55.3565
55.353
55.3495
55.346
55.3425
55.3391
55.3356
55.3321
55.3286
55.3252
55.3217
55.3182
55.3147
55.3112
55.3078
55.3043
55.3008
55.2973
55.2938
55.2904
55.2869
55.2834
55.2799
55.2765
55.273
55.2695
55.266
55.2625
55.2591
55.2556
55.2521
55.2486
55.2451
55.2417
55.2382
55.2347
55.2312
55.2277
55.2243
55.2208
55.2173
55.2138
55.2103
55.2069
55.2034
55.1999
55.1964
55.1929
55.1895
55.186
55.1825
55.179
55.1755
55.1721
55.1686
55.1651
55.1616
55.1581
55.1547
55.1512
55.1477
55.1442
55.1407
55.1372
55.1338
55.1303
55.1268
55.1233
55.1198
55.1164
55.1129
55.1094
55.1059
55.1024
55.099
55.0955
55.092
55.0885
55.085
55.0815
55.0781
55.0746
55.0711
55.0676
55.0641
55.0607
55.0572
55.0537
55.0502
55.0467
55.0432
55.0398
55.0363
55.0328
55.0293
55.0258
55.0223
55.0189
55.0154
55.0119
55.0084
55.0049
55.0014
54.998
54.9945
54.991
54.9875
54.984
54.9805
54.9771
54.9736
54.9701
54.9666
54.9631
54.9596
54.9562
54.9527
54.9492
54.9457
54.9422
54.9387
54.9353
54.9318
54.9283
54.9248
54.9213
54.9178
54.9143
54.9109
54.9074
54.9039
54.9004
54.8969
54.8934
54.89
54.8865
54.883
54.8795
54.876
54.8725
54.869
54.8656
54.8621
54.8586
54.8551
54.8516
54.8481
54.8446
54.8412
54.8377
54.8342
54.8307
54.8272
54.8237
54.8202
54.8168
54.8133
54.8098
54.8063
54.8028
54.7993
54.7958
54.7924
54.7889
54.7854
54.7819
54.7784
54.7749
54.7714
54.7679
54.7645
54.761
54.7575
54.754
54.7505
54.747
54.7435
54.74
54.7366
54.7331
54.7296
54.7261
54.7226
54.7191
54.7156
54.7121
54.7087
54.7052
54.7017
54.6982
54.6947
54.6912
54.6877
54.6842
54.6808
54.6773
54.6738
54.6703
54.6668
54.6633
54.6598
54.6563
54.6528
54.6494
54.6459
54.6459
56.5701
56.5701
56.2867
56.243
56.2223
56.2076
56.1955
56.1847
56.1746
56.1651
56.1559
56.1471
56.1384
56.13
56.1218
56.1138
56.1059
56.0983
56.0907
56.0834
56.0761
56.069
56.0621
56.0552
56.0485
56.0419
56.0354
56.0289
56.0226
56.0164
56.0103
56.0042
55.9982
55.9923
55.9865
55.9807
55.975
55.9693
55.9638
55.9582
55.9528
55.9474
55.942
55.9367
55.9314
55.9262
55.9211
55.9159
55.9109
55.9058
55.9008
55.8959
55.891
55.8861
55.8812
55.8764
55.8716
55.8669
55.8622
55.8575
55.8528
55.8482
55.8436
55.839
55.8345
55.83
55.8255
55.821
55.8166
55.8122
55.8078
55.8034
55.7991
55.7947
55.7904
55.7862
55.7819
55.7777
55.7735
55.7693
55.7651
55.761
55.7569
55.7528
55.7487
55.7447
55.7406
55.7366
55.7326
55.7287
55.7247
55.7208
55.7169
55.7131
55.7092
55.7054
55.7015
55.6977
55.694
55.6902
55.6864
55.6827
55.679
55.6753
55.6716
55.6679
55.6642
55.6606
55.6569
55.6533
55.6497
55.6461
55.6425
55.6389
55.6353
55.6318
55.6282
55.6246
55.6211
55.6176
55.614
55.6105
55.607
55.6035
55.6
55.5964
55.5929
55.5895
55.586
55.5825
55.579
55.5755
55.572
55.5685
55.5651
55.5616
55.5581
55.5546
55.5512
55.5477
55.5442
55.5407
55.5373
55.5338
55.5303
55.5268
55.5234
55.5199
55.5164
55.5129
55.5094
55.506
55.5025
55.499
55.4955
55.4921
55.4886
55.4851
55.4816
55.4782
55.4747
55.4712
55.4677
55.4643
55.4608
55.4573
55.4538
55.4504
55.4469
55.4434
55.4399
55.4364
55.433
55.4295
55.426
55.4225
55.4191
55.4156
55.4121
55.4086
55.4051
55.4017
55.3982
55.3947
55.3912
55.3878
55.3843
55.3808
55.3773
55.3739
55.3704
55.3669
55.3634
55.3599
55.3565
55.353
55.3495
55.346
55.3425
55.3391
55.3356
55.3321
55.3286
55.3252
55.3217
55.3182
55.3147
55.3112
55.3078
55.3043
55.3008
55.2973
55.2938
55.2904
55.2869
55.2834
55.2799
55.2765
55.273
55.2695
55.266
55.2625
55.2591
55.2556
55.2521
55.2486
55.2451
55.2417
55.2382
55.2347
55.2312
55.2277
55.2243
55.2208
55.2173
55.2138
55.2103
55.2069
55.2034
55.1999
55.1964
55.1929
55.1895
55.186
55.1825
55.179
55.1755
55.1721
55.1686
55.1651
55.1616
55.1581
55.1547
55.1512
55.1477
55.1442
55.1407
55.1372
55.1338
55.1303
55.1268
55.1233
55.1198
55.1164
55.1129
55.1094
55.1059
55.1024
55.099
55.0955
55.092
55.0885
55.085
55.0815
55.0781
55.0746
55.0711
55.0676
55.0641
55.0606
55.0572
55.0537
55.0502
55.0467
55.0432
55.0398
55.0363
55.0328
55.0293
55.0258
55.0223
55.0189
55.0154
55.0119
55.0084
55.0049
55.0014
54.998
54.9945
54.991
54.9875
54.984
54.9805
54.9771
54.9736
54.9701
54.9666
54.9631
54.9596
54.9562
54.9527
54.9492
54.9457
54.9422
54.9387
54.9353
54.9318
54.9283
54.9248
54.9213
54.9178
54.9143
54.9109
54.9074
54.9039
54.9004
54.8969
54.8934
54.89
54.8865
54.883
54.8795
54.876
54.8725
54.869
54.8656
54.8621
54.8586
54.8551
54.8516
54.8481
54.8446
54.8412
54.8377
54.8342
54.8307
54.8272
54.8237
54.8202
54.8168
54.8133
54.8098
54.8063
54.8028
54.7993
54.7958
54.7924
54.7889
54.7854
54.7819
54.7784
54.7749
54.7714
54.7679
54.7645
54.761
54.7575
54.754
54.7505
54.747
54.7435
54.74
54.7366
54.7331
54.7296
54.7261
54.7226
54.7191
54.7156
54.7121
54.7087
54.7052
54.7017
54.6982
54.6947
54.6912
54.6877
54.6842
54.6808
54.6773
54.6738
54.6703
54.6668
54.6633
54.6598
54.6563
54.6528
54.6494
54.6459
54.6459
56.5541
56.5541
56.2899
56.2442
56.2229
56.208
56.1958
56.1849
56.1748
56.1652
56.156
56.1471
56.1385
56.1301
56.1219
56.1138
56.106
56.0983
56.0908
56.0834
56.0762
56.0691
56.0621
56.0552
56.0485
56.0419
56.0354
56.029
56.0226
56.0164
56.0103
56.0042
55.9982
55.9923
55.9865
55.9807
55.975
55.9694
55.9638
55.9583
55.9528
55.9474
55.942
55.9367
55.9315
55.9262
55.9211
55.916
55.9109
55.9058
55.9008
55.8959
55.891
55.8861
55.8812
55.8764
55.8716
55.8669
55.8622
55.8575
55.8528
55.8482
55.8436
55.839
55.8345
55.83
55.8255
55.821
55.8166
55.8122
55.8078
55.8034
55.7991
55.7947
55.7904
55.7862
55.7819
55.7777
55.7735
55.7693
55.7651
55.761
55.7569
55.7528
55.7487
55.7447
55.7406
55.7366
55.7327
55.7287
55.7248
55.7208
55.7169
55.7131
55.7092
55.7054
55.7015
55.6977
55.694
55.6902
55.6864
55.6827
55.679
55.6753
55.6716
55.6679
55.6642
55.6606
55.6569
55.6533
55.6497
55.6461
55.6425
55.6389
55.6353
55.6318
55.6282
55.6246
55.6211
55.6176
55.614
55.6105
55.607
55.6035
55.6
55.5964
55.5929
55.5895
55.586
55.5825
55.579
55.5755
55.572
55.5685
55.5651
55.5616
55.5581
55.5546
55.5512
55.5477
55.5442
55.5407
55.5373
55.5338
55.5303
55.5268
55.5234
55.5199
55.5164
55.5129
55.5094
55.506
55.5025
55.499
55.4955
55.4921
55.4886
55.4851
55.4816
55.4782
55.4747
55.4712
55.4677
55.4643
55.4608
55.4573
55.4538
55.4504
55.4469
55.4434
55.4399
55.4364
55.433
55.4295
55.426
55.4225
55.4191
55.4156
55.4121
55.4086
55.4051
55.4017
55.3982
55.3947
55.3912
55.3878
55.3843
55.3808
55.3773
55.3739
55.3704
55.3669
55.3634
55.3599
55.3565
55.353
55.3495
55.346
55.3425
55.3391
55.3356
55.3321
55.3286
55.3252
55.3217
55.3182
55.3147
55.3112
55.3078
55.3043
55.3008
55.2973
55.2938
55.2904
55.2869
55.2834
55.2799
55.2765
55.273
55.2695
55.266
55.2625
55.2591
55.2556
55.2521
55.2486
55.2451
55.2417
55.2382
55.2347
55.2312
55.2277
55.2243
55.2208
55.2173
55.2138
55.2103
55.2069
55.2034
55.1999
55.1964
55.1929
55.1895
55.186
55.1825
55.179
55.1755
55.1721
55.1686
55.1651
55.1616
55.1581
55.1547
55.1512
55.1477
55.1442
55.1407
55.1372
55.1338
55.1303
55.1268
55.1233
55.1198
55.1164
55.1129
55.1094
55.1059
55.1024
55.099
55.0955
55.092
55.0885
55.085
55.0815
55.0781
55.0746
55.0711
55.0676
55.0641
55.0606
55.0572
55.0537
55.0502
55.0467
55.0432
55.0398
55.0363
55.0328
55.0293
55.0258
55.0223
55.0189
55.0154
55.0119
55.0084
55.0049
55.0014
54.998
54.9945
54.991
54.9875
54.984
54.9805
54.9771
54.9736
54.9701
54.9666
54.9631
54.9596
54.9562
54.9527
54.9492
54.9457
54.9422
54.9387
54.9353
54.9318
54.9283
54.9248
54.9213
54.9178
54.9143
54.9109
54.9074
54.9039
54.9004
54.8969
54.8934
54.89
54.8865
54.883
54.8795
54.876
54.8725
54.869
54.8656
54.8621
54.8586
54.8551
54.8516
54.8481
54.8446
54.8412
54.8377
54.8342
54.8307
54.8272
54.8237
54.8202
54.8168
54.8133
54.8098
54.8063
54.8028
54.7993
54.7958
54.7924
54.7889
54.7854
54.7819
54.7784
54.7749
54.7714
54.7679
54.7645
54.761
54.7575
54.754
54.7505
54.747
54.7435
54.74
54.7366
54.7331
54.7296
54.7261
54.7226
54.7191
54.7156
54.7121
54.7087
54.7052
54.7017
54.6982
54.6947
54.6912
54.6877
54.6842
54.6808
54.6773
54.6738
54.6703
54.6668
54.6633
54.6598
54.6563
54.6528
54.6494
54.6459
54.6459
56.5382
56.5382
56.2928
56.2453
56.2235
56.2084
56.196
56.1851
56.1749
56.1653
56.1561
56.1472
56.1386
56.1301
56.1219
56.1139
56.106
56.0983
56.0908
56.0834
56.0762
56.0691
56.0621
56.0553
56.0485
56.0419
56.0354
56.029
56.0227
56.0164
56.0103
56.0042
55.9982
55.9923
55.9865
55.9807
55.975
55.9694
55.9638
55.9583
55.9528
55.9474
55.942
55.9367
55.9315
55.9262
55.9211
55.916
55.9109
55.9058
55.9008
55.8959
55.891
55.8861
55.8812
55.8764
55.8716
55.8669
55.8622
55.8575
55.8528
55.8482
55.8436
55.839
55.8345
55.83
55.8255
55.821
55.8166
55.8122
55.8078
55.8034
55.7991
55.7947
55.7904
55.7862
55.7819
55.7777
55.7735
55.7693
55.7651
55.761
55.7569
55.7528
55.7487
55.7447
55.7406
55.7366
55.7327
55.7287
55.7248
55.7208
55.7169
55.7131
55.7092
55.7054
55.7015
55.6977
55.694
55.6902
55.6864
55.6827
55.679
55.6753
55.6716
55.6679
55.6642
55.6606
55.6569
55.6533
55.6497
55.6461
55.6425
55.6389
55.6353
55.6318
55.6282
55.6246
55.6211
55.6176
55.614
55.6105
55.607
55.6035
55.6
55.5964
55.5929
55.5895
55.586
55.5825
55.579
55.5755
55.572
55.5685
55.5651
55.5616
55.5581
55.5546
55.5512
55.5477
55.5442
55.5407
55.5373
55.5338
55.5303
55.5268
55.5234
55.5199
55.5164
55.5129
55.5094
55.506
55.5025
55.499
55.4955
55.4921
55.4886
55.4851
55.4816
55.4782
55.4747
55.4712
55.4677
55.4643
55.4608
55.4573
55.4538
55.4504
55.4469
55.4434
55.4399
55.4364
55.433
55.4295
55.426
55.4225
55.4191
55.4156
55.4121
55.4086
55.4051
55.4017
55.3982
55.3947
55.3912
55.3878
55.3843
55.3808
55.3773
55.3739
55.3704
55.3669
55.3634
55.3599
55.3565
55.353
55.3495
55.346
55.3425
55.3391
55.3356
55.3321
55.3286
55.3252
55.3217
55.3182
55.3147
55.3112
55.3078
55.3043
55.3008
55.2973
55.2938
55.2904
55.2869
55.2834
55.2799
55.2765
55.273
55.2695
55.266
55.2625
55.2591
55.2556
55.2521
55.2486
55.2451
55.2417
55.2382
55.2347
55.2312
55.2277
55.2243
55.2208
55.2173
55.2138
55.2103
55.2069
55.2034
55.1999
55.1964
55.1929
55.1895
55.186
55.1825
55.179
55.1755
55.1721
55.1686
55.1651
55.1616
55.1581
55.1547
55.1512
55.1477
55.1442
55.1407
55.1372
55.1338
55.1303
55.1268
55.1233
55.1198
55.1164
55.1129
55.1094
55.1059
55.1024
55.099
55.0955
55.092
55.0885
55.085
55.0815
55.0781
55.0746
55.0711
55.0676
55.0641
55.0606
55.0572
55.0537
55.0502
55.0467
55.0432
55.0398
55.0363
55.0328
55.0293
55.0258
55.0223
55.0189
55.0154
55.0119
55.0084
55.0049
55.0014
54.998
54.9945
54.991
54.9875
54.984
54.9805
54.9771
54.9736
54.9701
54.9666
54.9631
54.9596
54.9562
54.9527
54.9492
54.9457
54.9422
54.9387
54.9353
54.9318
54.9283
54.9248
54.9213
54.9178
54.9143
54.9109
54.9074
54.9039
54.9004
54.8969
54.8934
54.89
54.8865
54.883
54.8795
54.876
54.8725
54.869
54.8656
54.8621
54.8586
54.8551
54.8516
54.8481
54.8446
54.8412
54.8377
54.8342
54.8307
54.8272
54.8237
54.8202
54.8168
54.8133
54.8098
54.8063
54.8028
54.7993
54.7958
54.7924
54.7889
54.7854
54.7819
54.7784
54.7749
54.7714
54.7679
54.7645
54.761
54.7575
54.754
54.7505
54.747
54.7435
54.74
54.7366
54.7331
54.7296
54.7261
54.7226
54.7191
54.7156
54.7121
54.7087
54.7052
54.7017
54.6982
54.6947
54.6912
54.6877
54.6842
54.6808
54.6773
54.6738
54.6703
54.6668
54.6633
54.6598
54.6563
54.6528
54.6494
54.6459
54.6459
56.523
56.523
56.2955
56.2464
56.2241
56.2088
56.1963
56.1853
56.1751
56.1655
56.1562
56.1473
56.1386
56.1302
56.122
56.1139
56.1061
56.0984
56.0908
56.0835
56.0762
56.0691
56.0621
56.0553
56.0486
56.0419
56.0354
56.029
56.0227
56.0164
56.0103
56.0042
55.9982
55.9923
55.9865
55.9807
55.975
55.9694
55.9638
55.9583
55.9528
55.9474
55.942
55.9367
55.9315
55.9263
55.9211
55.916
55.9109
55.9058
55.9008
55.8959
55.891
55.8861
55.8812
55.8764
55.8716
55.8669
55.8622
55.8575
55.8528
55.8482
55.8436
55.839
55.8345
55.83
55.8255
55.821
55.8166
55.8122
55.8078
55.8034
55.7991
55.7947
55.7904
55.7862
55.7819
55.7777
55.7735
55.7693
55.7651
55.761
55.7569
55.7528
55.7487
55.7447
55.7406
55.7366
55.7327
55.7287
55.7248
55.7208
55.7169
55.7131
55.7092
55.7054
55.7015
55.6977
55.694
55.6902
55.6864
55.6827
55.679
55.6753
55.6716
55.6679
55.6642
55.6606
55.6569
55.6533
55.6497
55.6461
55.6425
55.6389
55.6353
55.6318
55.6282
55.6246
55.6211
55.6176
55.614
55.6105
55.607
55.6035
55.6
55.5964
55.5929
55.5895
55.586
55.5825
55.579
55.5755
55.572
55.5685
55.5651
55.5616
55.5581
55.5546
55.5512
55.5477
55.5442
55.5407
55.5373
55.5338
55.5303
55.5268
55.5234
55.5199
55.5164
55.5129
55.5094
55.506
55.5025
55.499
55.4955
55.4921
55.4886
55.4851
55.4816
55.4782
55.4747
55.4712
55.4677
55.4643
55.4608
55.4573
55.4538
55.4504
55.4469
55.4434
55.4399
55.4364
55.433
55.4295
55.426
55.4225
55.4191
55.4156
55.4121
55.4086
55.4051
55.4017
55.3982
55.3947
55.3912
55.3878
55.3843
55.3808
55.3773
55.3739
55.3704
55.3669
55.3634
55.3599
55.3565
55.353
55.3495
55.346
55.3425
55.3391
55.3356
55.3321
55.3286
55.3252
55.3217
55.3182
55.3147
55.3112
55.3078
55.3043
55.3008
55.2973
55.2938
55.2904
55.2869
55.2834
55.2799
55.2765
55.273
55.2695
55.266
55.2625
55.2591
55.2556
55.2521
55.2486
55.2451
55.2417
55.2382
55.2347
55.2312
55.2277
55.2243
55.2208
55.2173
55.2138
55.2103
55.2069
55.2034
55.1999
55.1964
55.1929
55.1895
55.186
55.1825
55.179
55.1755
55.1721
55.1686
55.1651
55.1616
55.1581
55.1547
55.1512
55.1477
55.1442
55.1407
55.1372
55.1338
55.1303
55.1268
55.1233
55.1198
55.1164
55.1129
55.1094
55.1059
55.1024
55.099
55.0955
55.092
55.0885
55.085
55.0815
55.0781
55.0746
55.0711
55.0676
55.0641
55.0606
55.0572
55.0537
55.0502
55.0467
55.0432
55.0398
55.0363
55.0328
55.0293
55.0258
55.0223
55.0189
55.0154
55.0119
55.0084
55.0049
55.0014
54.998
54.9945
54.991
54.9875
54.984
54.9805
54.9771
54.9736
54.9701
54.9666
54.9631
54.9596
54.9562
54.9527
54.9492
54.9457
54.9422
54.9387
54.9353
54.9318
54.9283
54.9248
54.9213
54.9178
54.9143
54.9109
54.9074
54.9039
54.9004
54.8969
54.8934
54.89
54.8865
54.883
54.8795
54.876
54.8725
54.869
54.8656
54.8621
54.8586
54.8551
54.8516
54.8481
54.8446
54.8412
54.8377
54.8342
54.8307
54.8272
54.8237
54.8202
54.8168
54.8133
54.8098
54.8063
54.8028
54.7993
54.7958
54.7924
54.7889
54.7854
54.7819
54.7784
54.7749
54.7714
54.7679
54.7645
54.761
54.7575
54.754
54.7505
54.747
54.7435
54.74
54.7366
54.7331
54.7296
54.7261
54.7226
54.7191
54.7156
54.7121
54.7087
54.7052
54.7017
54.6982
54.6947
54.6912
54.6877
54.6842
54.6808
54.6773
54.6738
54.6703
54.6668
54.6633
54.6598
54.6563
54.6528
54.6494
54.6459
54.6459
56.509
56.509
56.2981
56.2476
56.2247
56.2091
56.1966
56.1855
56.1752
56.1656
56.1563
56.1474
56.1387
56.1303
56.122
56.114
56.1061
56.0984
56.0909
56.0835
56.0762
56.0691
56.0622
56.0553
56.0486
56.042
56.0354
56.029
56.0227
56.0165
56.0103
56.0042
55.9983
55.9923
55.9865
55.9807
55.975
55.9694
55.9638
55.9583
55.9528
55.9474
55.942
55.9367
55.9315
55.9263
55.9211
55.916
55.9109
55.9059
55.9009
55.8959
55.891
55.8861
55.8812
55.8764
55.8716
55.8669
55.8622
55.8575
55.8528
55.8482
55.8436
55.839
55.8345
55.83
55.8255
55.821
55.8166
55.8122
55.8078
55.8034
55.7991
55.7947
55.7905
55.7862
55.7819
55.7777
55.7735
55.7693
55.7651
55.761
55.7569
55.7528
55.7487
55.7447
55.7406
55.7366
55.7327
55.7287
55.7248
55.7208
55.7169
55.7131
55.7092
55.7054
55.7015
55.6977
55.694
55.6902
55.6864
55.6827
55.679
55.6753
55.6716
55.6679
55.6642
55.6606
55.657
55.6533
55.6497
55.6461
55.6425
55.6389
55.6353
55.6318
55.6282
55.6246
55.6211
55.6176
55.614
55.6105
55.607
55.6035
55.6
55.5964
55.5929
55.5895
55.586
55.5825
55.579
55.5755
55.572