# vtk DataFile Version 2.0
FlowField
ASCII
DATASET STRUCTURED_GRID
DIMENSIONS 400 1 200
POINTS 80000 float
0 0 0
0.08 0 0
0.16 0 0
0.24 0 0
0.32 0 0
0.4 0 0
0.48 0 0
0.56 0 0
0.64 0 0
0.72 0 0
0.8 0 0
0.88 0 0
0.96 0 0
1.04 0 0
1.12 0 0
1.2 0 0
1.28 0 0
1.36 0 0
1.44 0 0
1.52 0 0
1.6 0 0
1.68 0 0
1.76 0 0
1.84 0 0
1.92 0 0
2 0 0
2.08 0 0
2.16 0 0
2.24 0 0
2.32 0 0
2.4 0 0
2.48 0 0
2.56 0 0
2.64 0 0
2.72 0 0
2.8 0 0
2.88 0 0
2.96 0 0
3.04 0 0
3.12 0 0
3.2 0 0
3.28 0 0
3.36 0 0
3.44 0 0
3.52 0 0
3.6 0 0
3.68 0 0
3.76 0 0
3.84 0 0
3.92 0 0
4 0 0
4.08 0 0
4.16 0 0
4.24 0 0
4.32 0 0
4.4 0 0
4.48 0 0
4.56 0 0
4.64 0 0
4.72 0 0
4.8 0 0
4.88 0 0
4.96 0 0
5.04 0 0
5.12 0 0
5.2 0 0
5.28 0 0
5.36 0 0
5.44 0 0
5.52 0 0
5.6 0 0
5.68 0 0
5.76 0 0
5.84 0 0
5.92 0 0
6 0 0
6.08 0 0
6.16 0 0
6.24 0 0
6.32 0 0
6.4 0 0
6.48 0 0
6.56 0 0
6.64 0 0
6.72 0 0
6.8 0 0
6.88 0 0
6.96 0 0
7.04 0 0
7.12 0 0
7.2 0 0
7.28 0 0
7.36 0 0
7.44 0 0
7.52 0 0
7.6 0 0
7.68 0 0
7.76 0 0
7.84 0 0
7.92 0 0
8 0 0
8.08 0 0
8.16 0 0
8.24 0 0
8.32 0 0
8.4 0 0
8.48 0 0
8.56 0 0
8.64 0 0
8.72 0 0
8.8 0 0
8.88 0 0
8.96 0 0
9.04 0 0
9.12 0 0
9.2 0 0
9.28 0 0
9.36 0 0
9.44 0 0
9.52 0 0
9.6 0 0
9.68 0 0
9.76 0 0
9.84 0 0
9.92 0 0
10 0 0
10.08 0 0
10.16 0 0
10.24 0 0
10.32 0 0
10.4 0 0
10.48 0 0
10.56 0 0
10.64 0 0
10.72 0 0
10.8 0 0
10.88 0 0
10.96 0 0
11.04 0 0
11.12 0 0
11.2 0 0
11.28 0 0
11.36 0 0
11.44 0 0
11.52 0 0
11.6 0 0
11.68 0 0
11.76 0 0
11.84 0 0
11.92 0 0
12 0 0
12.08 0 0
12.16 0 0
12.24 0 0
12.32 0 0
12.4 0 0
12.48 0 0
12.56 0 0
12.64 0 0
12.72 0 0
12.8 0 0
12.88 0 0
12.96 0 0
13.04 0 0
13.12 0 0
13.2 0 0
13.28 0 0
13.36 0 0
13.44 0 0
13.52 0 0
13.6 0 0
13.68 0 0
13.76 0 0
13.84 0 0
13.92 0 0
14 0 0
14.08 0 0
14.16 0 0
14.24 0 0
14.32 0 0
14.4 0 0
14.48 0 0
14.56 0 0
14.64 0 0
14.72 0 0
14.8 0 0
14.88 0 0
14.96 0 0
15.04 0 0
15.12 0 0
15.2 0 0
15.28 0 0
15.36 0 0
15.44 0 0
15.52 0 0
15.6 0 0
15.68 0 0
15.76 0 0
15.84 0 0
15.92 0 0
16 0 0
16.08 0 0
16.16 0 0
16.24 0 0
16.32 0 0
16.4 0 0
16.48 0 0
16.56 0 0
16.64 0 0
16.72 0 0
16.8 0 0
16.88 0 0
16.96 0 0
17.04 0 0
17.12 0 0
17.2 0 0
17.28 0 0
17.36 0 0
17.44 0 0
17.52 0 0
17.6 0 0
17.68 0 0
17.76 0 0
17.84 0 0
17.92 0 0
18 0 0
18.08 0 0
18.16 0 0
18.24 0 0
18.32 0 0
18.4 0 0
18.48 0 0
18.56 0 0
18.64 0 0
18.72 0 0
18.8 0 0
18.88 0 0
18.96 0 0
19.04 0 0
19.12 0 0
19.2 0 0
19.28 0 0
19.36 0 0
19.44 0 0
19.52 0 0
19.6 0 0
19.68 0 0
19.76 0 0
19.84 0 0
19.92 0 0
20 0 0
20.08 0 0
20.16 0 0
20.24 0 0
20.32 0 0
20.4 0 0
20.48 0 0
20.56 0 0
20.64 0 0
20.72 0 0
20.8 0 0
20.88 0 0
20.96 0 0
21.04 0 0
21.12 0 0
21.2 0 0
21.28 0 0
21.36 0 0
21.44 0 0
21.52 0 0
21.6 0 0
21.68 0 0
21.76 0 0
21.84 0 0
21.92 0 0
22 0 0
22.08 0 0
22.16 0 0
22.24 0 0
22.32 0 0
22.4 0 0
22.48 0 0
22.56 0 0
22.64 0 0
22.72 0 0
22.8 0 0
22.88 0 0
22.96 0 0
23.04 0 0
23.12 0 0
23.2 0 0
23.28 0 0
23.36 0 0
23.44 0 0
23.52 0 0
23.6 0 0
23.68 0 0
23.76 0 0
23.84 0 0
23.92 0 0
24 0 0
24.08 0 0
24.16 0 0
24.24 0 0
24.32 0 0
24.4 0 0
24.48 0 0
24.56 0 0
24.64 0 0
24.72 0 0
24.8 0 0
24.88 0 0
24.96 0 0
25.04 0 0
25.12 0 0
25.2 0 0
25.28 0 0
25.36 0 0
25.44 0 0
25.52 0 0
25.6 0 0
25.68 0 0
25.76 0 0
25.84 0 0
25.92 0 0
26 0 0
26.08 0 0
26.16 0 0
26.24 0 0
26.32 0 0
26.4 0 0
26.48 0 0
26.56 0 0
26.64 0 0
26.72 0 0
26.8 0 0
26.88 0 0
26.96 0 0
27.04 0 0
27.12 0 0
27.2 0 0
27.28 0 0
27.36 0 0
27.44 0 0
27.52 0 0
27.6 0 0
27.68 0 0
27.76 0 0
27.84 0 0
27.92 0 0
28 0 0
28.08 0 0
28.16 0 0
28.24 0 0
28.32 0 0
28.4 0 0
28.48 0 0
28.56 0 0
28.64 0 0
28.72 0 0
28.8 0 0
28.88 0 0
28.96 0 0
29.04 0 0
29.12 0 0
29.2 0 0
29.28 0 0
29.36 0 0
29.44 0 0
29.52 0 0
29.6 0 0
29.68 0 0
29.76 0 0
29.84 0 0
29.92 0 0
30 0 0
30.08 0 0
30.16 0 0
30.24 0 0
30.32 0 0
30.4 0 0
30.48 0 0
30.56 0 0
30.64 0 0
30.72 0 0
30.8 0 0
30.88 0 0
30.96 0 0
31.04 0 0
31.12 0 0
31.2 0 0
31.28 0 0
31.36 0 0
31.44 0 0
31.52 0 0
31.6 0 0
31.68 0 0
31.76 0 0
31.84 0 0
31.92 0 0
0 0.005 0
0.08 0.005 0
0.16 0.005 0
0.24 0.005 0
0.32 0.005 0
0.4 0.005 0
0.48 0.005 0
0.56 0.005 0
0.64 0.005 0
0.72 0.005 0
0.8 0.005 0
0.88 0.005 0
0.96 0.005 0
1.04 0.005 0
1.12 0.005 0
1.2 0.005 0
1.28 0.005 0
1.36 0.005 0
1.44 0.005 0
1.52 0.005 0
1.6 0.005 0
1.68 0.005 0
1.76 0.005 0
1.84 0.005 0
1.92 0.005 0
2 0.005 0
2.08 0.005 0
2.16 0.005 0
2.24 0.005 0
2.32 0.005 0
2.4 0.005 0
2.48 0.005 0
2.56 0.005 0
2.64 0.005 0
2.72 0.005 0
2.8 0.005 0
2.88 0.005 0
2.96 0.005 0
3.04 0.005 0
3.12 0.005 0
3.2 0.005 0
3.28 0.005 0
3.36 0.005 0
3.44 0.005 0
3.52 0.005 0
3.6 0.005 0
3.68 0.005 0
3.76 0.005 0
3.84 0.005 0
3.92 0.005 0
4 0.005 0
4.08 0.005 0
4.16 0.005 0
4.24 0.005 0
4.32 0.005 0
4.4 0.005 0
4.48 0.005 0
4.56 0.005 0
4.64 0.005 0
4.72 0.005 0
4.8 0.005 0
4.88 0.005 0
4.96 0.005 0
5.04 0.005 0
5.12 0.005 0
5.2 0.005 0
5.28 0.005 0
5.36 0.005 0
5.44 0.005 0
5.52 0.005 0
5.6 0.005 0
5.68 0.005 0
5.76 0.005 0
5.84 0.005 0
5.92 0.005 0
6 0.005 0
6.08 0.005 0
6.16 0.005 0
6.24 0.005 0
6.32 0.005 0
6.4 0.005 0
6.48 0.005 0
6.56 0.005 0
6.64 0.005 0
6.72 0.005 0
6.8 0.005 0
6.88 0.005 0
6.96 0.005 0
7.04 0.005 0
7.12 0.005 0
7.2 0.005 0
7.28 0.005 0
7.36 0.005 0
7.44 0.005 0
7.52 0.005 0
7.6 0.005 0
7.68 0.005 0
7.76 0.005 0
7.84 0.005 0
7.92 0.005 0
8 0.005 0
8.08 0.005 0
8.16 0.005 0
8.24 0.005 0
8.32 0.005 0
8.4 0.005 0
8.48 0.005 0
8.56 0.005 0
8.64 0.005 0
8.72 0.005 0
8.8 0.005 0
8.88 0.005 0
8.96 0.005 0
9.04 0.005 0
9.12 0.005 0
9.2 0.005 0
9.28 0.005 0
9.36 0.005 0
9.44 0.005 0
9.52 0.005 0
9.6 0.005 0
9.68 0.005 0
9.76 0.005 0
9.84 0.005 0
9.92 0.005 0
10 0.005 0
10.08 0.005 0
10.16 0.005 0
10.24 0.005 0
10.32 0.005 0
10.4 0.005 0
10.48 0.005 0
10.56 0.005 0
10.64 0.005 0
10.72 0.005 0
10.8 0.005 0
10.88 0.005 0
10.96 0.005 0
11.04 0.005 0
11.12 0.005 0
11.2 0.005 0
11.28 0.005 0
11.36 0.005 0
11.44 0.005 0
11.52 0.005 0
11.6 0.005 0
11.68 0.005 0
11.76 0.005 0
11.84 0.005 0
11.92 0.005 0
12 0.005 0
12.08 0.005 0
12.16 0.005 0
12.24 0.005 0
12.32 0.005 0
12.4 0.005 0
12.48 0.005 0
12.56 0.005 0
12.64 0.005 0
12.72 0.005 0
12.8 0.005 0
12.88 0.005 0
12.96 0.005 0
13.04 0.005 0
13.12 0.005 0
13.2 0.005 0
13.28 0.005 0
13.36 0.005 0
13.44 0.005 0
13.52 0.005 0
13.6 0.005 0
13.68 0.005 0
13.76 0.005 0
13.84 0.005 0
13.92 0.005 0
14 0.005 0
14.08 0.005 0
14.16 0.005 0
14.24 0.005 0
14.32 0.005 0
14.4 0.005 0
14.48 0.005 0
14.56 0.005 0
14.64 0.005 0
14.72 0.005 0
14.8 0.005 0
14.88 0.005 0
14.96 0.005 0
15.04 0.005 0
15.12 0.005 0
15.2 0.005 0
15.28 0.005 0
15.36 0.005 0
15.44 0.005 0
15.52 0.005 0
15.6 0.005 0
15.68 0.005 0
15.76 0.005 0
15.84 0.005 0
15.92 0.005 0
16 0.005 0
16.08 0.005 0
16.16 0.005 0
16.24 0.005 0
16.32 0.005 0
16.4 0.005 0
16.48 0.005 0
16.56 0.005 0
16.64 0.005 0
16.72 0.005 0
16.8 0.005 0
16.88 0.005 0
16.96 0.005 0
17.04 0.005 0
17.12 0.005 0
17.2 0.005 0
17.28 0.005 0
17.36 0.005 0
17.44 0.005 0
17.52 0.005 0
17.6 0.005 0
17.68 0.005 0
17.76 0.005 0
17.84 0.005 0
17.92 0.005 0
18 0.005 0
18.08 0.005 0
18.16 0.005 0
18.24 0.005 0
18.32 0.005 0
18.4 0.005 0
18.48 0.005 0
18.56 0.005 0
18.64 0.005 0
18.72 0.005 0
18.8 0.005 0
18.88 0.005 0
18.96 0.005 0
19.04 0.005 0
19.12 0.005 0
19.2 0.005 0
19.28 0.005 0
19.36 0.005 0
19.44 0.005 0
19.52 0.005 0
19.6 0.005 0
19.68 0.005 0
19.76 0.005 0
19.84 0.005 0
19.92 0.005 0
20 0.005 0
20.08 0.005 0
20.16 0.005 0
20.24 0.005 0
20.32 0.005 0
20.4 0.005 0
20.48 0.005 0
20.56 0.005 0
20.64 0.005 0
20.72 0.005 0
20.8 0.005 0
20.88 0.005 0
20.96 0.005 0
21.04 0.005 0
21.12 0.005 0
21.2 0.005 0
21.28 0.005 0
21.36 0.005 0
21.44 0.005 0
21.52 0.005 0
21.6 0.005 0
21.68 0.005 0
21.76 0.005 0
21.84 0.005 0
21.92 0.005 0
22 0.005 0
22.08 0.005 0
22.16 0.005 0
22.24 0.005 0
22.32 0.005 0
22.4 0.005 0
22.48 0.005 0
22.56 0.005 0
22.64 0.005 0
22.72 0.005 0
22.8 0.005 0
22.88 0.005 0
22.96 0.005 0
23.04 0.005 0
23.12 0.005 0
23.2 0.005 0
23.28 0.005 0
23.36 0.005 0
23.44 0.005 0
23.52 0.005 0
23.6 0.005 0
23.68 0.005 0
23.76 0.005 0
23.84 0.005 0
23.92 0.005 0
24 0.005 0
24.08 0.005 0
24.16 0.005 0
24.24 0.005 0
24.32 0.005 0
24.4 0.005 0
24.48 0.005 0
24.56 0.005 0
24.64 0.005 0
24.72 0.005 0
24.8 0.005 0
24.88 0.005 0
24.96 0.005 0
25.04 0.005 0
25.12 0.005 0
25.2 0.005 0
25.28 0.005 0
25.36 0.005 0
25.44 0.005 0
25.52 0.005 0
25.6 0.005 0
25.68 0.005 0
25.76 0.005 0
25.84 0.005 0
25.92 0.005 0
26 0.005 0
26.08 0.005 0
26.16 0.005 0
26.24 0.005 0
26.32 0.005 0
26.4 0.005 0
26.48 0.005 0
26.56 0.005 0
26.64 0.005 0
26.72 0.005 0
26.8 0.005 0
26.88 0.005 0
26.96 0.005 0
27.04 0.005 0
27.12 0.005 0
27.2 0.005 0
27.28 0.005 0
27.36 0.005 0
27.44 0.005 0
27.52 0.005 0
27.6 0.005 0
27.68 0.005 0
27.76 0.005 0
27.84 0.005 0
27.92 0.005 0
28 0.005 0
28.08 0.005 0
28.16 0.005 0
28.24 0.005 0
28.32 0.005 0
28.4 0.005 0
28.48 0.005 0
28.56 0.005 0
28.64 0.005 0
28.72 0.005 0
28.8 0.005 0
28.88 0.005 0
28.96 0.005 0
29.04 0.005 0
29.12 0.005 0
29.2 0.005 0
29.28 0.005 0
29.36 0.005 0
29.44 0.005 0
29.52 0.005 0
29.6 0.005 0
29.68 0.005 0
29.76 0.005 0
29.84 0.005 0
29.92 0.005 0
30 0.005 0
30.08 0.005 0
30.16 0.005 0
30.24 0.005 0
30.32 0.005 0
30.4 0.005 0
30.48 0.005 0
30.56 0.005 0
30.64 0.005 0
30.72 0.005 0
30.8 0.005 0
30.88 0.005 0
30.96 0.005 0
31.04 0.005 0
31.12 0.005 0
31.2 0.005 0
31.28 0.005 0
31.36 0.005 0
31.44 0.005 0
31.52 0.005 0
31.6 0.005 0
31.68 0.005 0
31.76 0.005 0
31.84 0.005 0
31.92 0.005 0
0 0.01 0
0.08 0.01 0
0.16 0.01 0
0.24 0.01 0
0.32 0.01 0
0.4 0.01 0
0.48 0.01 0
0.56 0.01 0
0.64 0.01 0
0.72 0.01 0
0.8 0.01 0
0.88 0.01 0
0.96 0.01 0
1.04 0.01 0
1.12 0.01 0
1.2 0.01 0
1.28 0.01 0
1.36 0.01 0
1.44 0.01 0
1.52 0.01 0
1.6 0.01 0
1.68 0.01 0
1.76 0.01 0
1.84 0.01 0
1.92 0.01 0
2 0.01 0
2.08 0.01 0
2.16 0.01 0
2.24 0.01 0
2.32 0.01 0
2.4 0.01 0
2.48 0.01 0
2.56 0.01 0
2.64 0.01 0
2.72 0.01 0
2.8 0.01 0
2.88 0.01 0
2.96 0.01 0
3.04 0.01 0
3.12 0.01 0
3.2 0.01 0
3.28 0.01 0
3.36 0.01 0
3.44 0.01 0
3.52 0.01 0
3.6 0.01 0
3.68 0.01 0
3.76 0.01 0
3.84 0.01 0
3.92 0.01 0
4 0.01 0
4.08 0.01 0
4.16 0.01 0
4.24 0.01 0
4.32 0.01 0
4.4 0.01 0
4.48 0.01 0
4.56 0.01 0
4.64 0.01 0
4.72 0.01 0
4.8 0.01 0
4.88 0.01 0
4.96 0.01 0
5.04 0.01 0
5.12 0.01 0
[...]
POINT_DATA 80000

SCALARS u float 1
LOOKUP_TABLE default
0
-0.131663
-0.0682691
-0.0522958
-0.0444196
-0.0395765
-0.0362594
-0.0338323
-0.0319723
-0.0304956
-0.0292895
-0.0282812
-0.0274217
-0.026677
-0.0260231
-0.0254422
-0.0249212
-0.0244503
-0.0240216
-0.0236292
-0.0232681
-0.0229344
-0.0226248
-0.0223366
-0.0220675
-0.0218155
-0.0215789
-0.0213563
-0.0211465
-0.0209482
-0.0207606
-0.0205827
-0.0204137
-0.020253
-0.0201
-0.0199541
-0.0198148
-0.0196816
-0.0195541
-0.019432
-0.0193149
-0.0192025
-0.0190945
-0.0189906
-0.0188906
-0.0187944
-0.0187016
-0.0186121
-0.0185257
-0.0184423
-0.0183616
-0.0182837
-0.0182082
-0.0181352
-0.0180644
-0.0179959
-0.0179294
-0.0178649
-0.0178024
-0.0177416
-0.0176826
-0.0176253
-0.0175696
-0.0175154
-0.0174627
-0.0174114
-0.0173615
-0.017313
-0.0172656
-0.0172196
-0.0171746
-0.0171309
-0.0170882
-0.0170466
-0.017006
-0.0169664
-0.0169278
-0.0168901
-0.0168533
-0.0168173
-0.0167823
-0.016748
-0.0167145
-0.0166818
-0.0166499
-0.0166186
-0.0165881
-0.0165583
-0.0165291
-0.0165006
-0.0164727
-0.0164454
-0.0164188
-0.0163927
-0.0163672
-0.0163422
-0.0163178
-0.0162939
-0.0162705
-0.0162476
-0.0162252
-0.0162033
-0.0161818
-0.0161608
-0.0161402
-0.0161201
-0.0161004
-0.0160811
-0.0160622
-0.0160437
-0.0160256
-0.0160079
-0.0159905
-0.0159735
-0.0159568
-0.0159405
-0.0159245
-0.0159088
-0.0158935
-0.0158785
-0.0158638
-0.0158494
-0.0158352
-0.0158214
-0.0158079
-0.0157946
-0.0157816
-0.0157689
-0.0157564
-0.0157442
-0.0157322
-0.0157205
-0.015709
-0.0156978
-0.0156868
-0.0156761
-0.0156655
-0.0156553
-0.0156452
-0.0156354
-0.0156258
-0.0156165
-0.0156074
-0.0155985
-0.0155898
-0.0155814
-0.0155732
-0.0155652
-0.0155575
-0.01555
-0.0155427
-0.0155356
-0.0155288
-0.0155221
-0.0155157
-0.0155096
-0.0155036
-0.0154978
-0.0154923
-0.015487
-0.0154819
-0.015477
-0.0154723
-0.0154678
-0.0154634
-0.0154593
-0.0154554
-0.0154517
-0.0154481
-0.0154447
-0.0154415
-0.0154385
-0.0154356
-0.0154329
-0.0154303
-0.0154279
-0.0154257
-0.0154236
-0.0154216
-0.0154197
-0.015418
-0.0154164
-0.0154149
-0.0154135
-0.0154122
-0.0154111
-0.01541
-0.015409
-0.0154081
-0.0154073
-0.0154066
-0.0154059
-0.0154053
-0.0154048
-0.0154043
-0.0154039
-0.0154036
-0.0154032
-0.015403
-0.0154027
-0.0154025
-0.0154024
-0.0154023
-0.0154022
-0.0154021
-0.015402
-0.015402
-0.015402
-0.015402
-0.015402
-0.015402
-0.0154021
-0.0154021
-0.0154021
-0.0154022
-0.0154022
-0.0154023
-0.0154024
-0.0154024
-0.0154025
-0.0154025
-0.0154026
-0.0154027
-0.0154027
-0.0154028
-0.0154029
-0.0154029
-0.015403
-0.0154031
-0.0154031
-0.0154032
-0.0154033
-0.0154033
-0.0154034
-0.0154035
-0.0154035
-0.0154036
-0.0154037
-0.0154037
-0.0154038
-0.0154039
-0.0154039
-0.015404
-0.0154041
-0.0154041
-0.0154042
-0.0154043
-0.0154043
-0.0154044
-0.0154045
-0.0154045
-0.0154046
-0.0154047
-0.0154047
-0.0154048
-0.0154049
-0.0154049
-0.015405
-0.0154051
-0.0154051
-0.0154052
-0.0154053
-0.0154053
-0.0154054
-0.0154055
-0.0154055
-0.0154056
-0.0154057
-0.0154058
-0.0154058
-0.0154059
-0.015406
-0.015406
-0.0154061
-0.0154062
-0.0154062
-0.0154063
-0.0154064
-0.0154064
-0.0154065
-0.0154066
-0.0154066
-0.0154067
-0.0154068
-0.0154068
-0.0154069
-0.015407
-0.015407
-0.0154071
-0.0154072
-0.0154073
-0.0154073
-0.0154074
-0.0154075
-0.0154075
-0.0154076
-0.0154077
-0.0154077
-0.0154078
-0.0154079
-0.0154079
-0.015408
-0.0154081
-0.0154081
-0.0154082
-0.0154083
-0.0154084
-0.0154084
-0.0154085
-0.0154086
-0.0154086
-0.0154087
-0.0154088
-0.0154088
-0.0154089
-0.015409
-0.015409
-0.0154091
-0.0154092
-0.0154093
-0.0154093
-0.0154094
-0.0154095
-0.0154095
-0.0154096
-0.0154097
-0.0154097
-0.0154098
-0.0154099
-0.01541
-0.01541
-0.0154101
-0.0154102
-0.0154102
-0.0154103
-0.0154104
-0.0154104
-0.0154105
-0.0154106
-0.0154107
-0.0154107
-0.0154108
-0.0154109
-0.0154109
-0.015411
-0.0154111
-0.0154111
-0.0154112
-0.0154113
-0.0154114
-0.0154114
-0.0154115
-0.0154116
-0.0154116
-0.0154117
-0.0154118
-0.0154119
-0.0154119
-0.015412
-0.0154121
-0.0154121
-0.0154122
-0.0154123
-0.0154123
-0.0154124
-0.0154125
-0.0154126
-0.0154126
-0.0154127
-0.0154128
-0.0154128
-0.0154129
-0.015413
-0.0154131
-0.0154131
-0.0154132
-0.0154133
-0.0154133
-0.0154134
-0.0154135
-0.0154136
-0.0154136
-0.0154137
-0.0154138
-0.0154138
-0.0154139
-0.015414
-0.0154141
-0.0154141
-0.0154142
-0.0154143
-0.0154144
-0.0154144
-0.0154145
-0.0154146
-0.0154146
-0.0154148
-0.0154146
-0.0154146
-0.0154146
1
0.131663
0.0682691
0.0522958
0.0444196
0.0395765
0.0362594
0.0338323
0.0319723
0.0304956
0.0292895
0.0282812
0.0274217
0.026677
0.0260231
0.0254422
0.0249212
0.0244503
0.0240216
0.0236292
0.0232681
0.0229344
0.0226248
0.0223366
0.0220675
0.0218155
0.0215789
0.0213563
0.0211465
0.0209482
0.0207606
0.0205827
0.0204137
0.020253
0.0201
0.0199541
0.0198148
0.0196816
0.0195541
0.019432
0.0193149
0.0192025
0.0190945
0.0189906
0.0188906
0.0187944
0.0187016
0.0186121
0.0185257
0.0184423
0.0183616
0.0182837
0.0182082
0.0181352
0.0180644
0.0179959
0.0179294
0.0178649
0.0178024
0.0177416
0.0176826
0.0176253
0.0175696
0.0175154
0.0174627
0.0174114
0.0173615
0.017313
0.0172656
0.0172196
0.0171746
0.0171309
0.0170882
0.0170466
0.017006
0.0169664
0.0169278
0.0168901
0.0168533
0.0168173
0.0167823
0.016748
0.0167145
0.0166818
0.0166499
0.0166186
0.0165881
0.0165583
0.0165291
0.0165006
0.0164727
0.0164454
0.0164188
0.0163927
0.0163672
0.0163422
0.0163178
0.0162939
0.0162705
0.0162476
0.0162252
0.0162033
0.0161818
0.0161608
0.0161402
0.0161201
0.0161004
0.0160811
0.0160622
0.0160437
0.0160256
0.0160079
0.0159905
0.0159735
0.0159568
0.0159405
0.0159245
0.0159088
0.0158935
0.0158785
0.0158638
0.0158494
0.0158352
0.0158214
0.0158079
0.0157946
0.0157816
0.0157689
0.0157564
0.0157442
0.0157322
0.0157205
0.015709
0.0156978
0.0156868
0.0156761
0.0156655
0.0156553
0.0156452
0.0156354
0.0156258
0.0156165
0.0156074
0.0155985
0.0155898
0.0155814
0.0155732
0.0155652
0.0155575
0.01555
0.0155427
0.0155356
0.0155288
0.0155221
0.0155157
0.0155096
0.0155036
0.0154978
0.0154923
0.015487
0.0154819
0.015477
0.0154723
0.0154678
0.0154634
0.0154593
0.0154554
0.0154517
0.0154481
0.0154447
0.0154415
0.0154385
0.0154356
0.0154329
0.0154303
0.0154279
0.0154257
0.0154236
0.0154216
0.0154197
0.015418
0.0154164
0.0154149
0.0154135
0.0154122
0.0154111
0.01541
0.015409
0.0154081
0.0154073
0.0154066
0.0154059
0.0154053
0.0154048
0.0154043
0.0154039
0.0154036
0.0154032
0.015403
0.0154027
0.0154025
0.0154024
0.0154023
0.0154022
0.0154021
0.015402
0.015402
0.015402
0.015402
0.015402
0.015402
0.0154021
0.0154021
0.0154021
0.0154022
0.0154022
0.0154023
0.0154024
0.0154024
0.0154025
0.0154025
0.0154026
0.0154027
0.0154027
0.0154028
0.0154029
0.0154029
0.015403
0.0154031
0.0154031
0.0154032
0.0154033
0.0154033
0.0154034
0.0154035
0.0154035
0.0154036
0.0154037
0.0154037
0.0154038
0.0154039
0.0154039
0.015404
0.0154041
0.0154041
0.0154042
0.0154043
0.0154043
0.0154044
0.0154045
0.0154045
0.0154046
0.0154047
0.0154047
0.0154048
0.0154049
0.0154049
0.015405
0.0154051
0.0154051
0.0154052
0.0154053
0.0154053
0.0154054
0.0154055
0.0154055
0.0154056
0.0154057
0.0154058
0.0154058
0.0154059
0.015406
0.015406
0.0154061
0.0154062
0.0154062
0.0154063
0.0154064
0.0154064
0.0154065
0.0154066
0.0154066
0.0154067
0.0154068
0.0154068
0.0154069
0.015407
0.015407
0.0154071
0.0154072
0.0154073
0.0154073
0.0154074
0.0154075
0.0154075
0.0154076
0.0154077
0.0154077
0.0154078
0.0154079
0.0154079
0.015408
0.0154081
0.0154081
0.0154082
0.0154083
0.0154084
0.0154084
0.0154085
0.0154086
0.0154086
0.0154087
0.0154088
0.0154088
0.0154089
0.015409
0.015409
0.0154091
0.0154092
0.0154093
0.0154093
0.0154094
0.0154095
0.0154095
0.0154096
0.0154097
0.0154097
0.0154098
0.0154099
0.01541
0.01541
0.0154101
0.0154102
0.0154102
0.0154103
0.0154104
0.0154104
0.0154105
0.0154106
0.0154107
0.0154107
0.0154108
0.0154109
0.0154109
0.015411
0.0154111
0.0154111
0.0154112
0.0154113
0.0154114
0.0154114
0.0154115
0.0154116
0.0154116
0.0154117
0.0154118
0.0154119
0.0154119
0.015412
0.0154121
0.0154121
0.0154122
0.0154123
0.0154123
0.0154124
0.0154125
0.0154126
0.0154126
0.0154127
0.0154128
0.0154128
0.0154129
0.015413
0.0154131
0.0154131
0.0154132
0.0154133
0.0154133
0.0154134
0.0154135
0.0154136
0.0154136
0.0154137
0.0154138
0.0154138
0.0154139
0.015414
0.0154141
0.0154141
0.0154142
0.0154143
0.0154144
0.0154144
0.0154145
0.0154146
0.0154146
0.0154148
0.0154146
0.0154146
0.0154146
1
0.344884
0.200667
0.154967
0.131894
0.117598
0.107767
0.100557
0.0950242
0.0906282
0.087037
0.084035
0.0814769
0.0792617
0.0773173
0.075591
0.0740438
0.0726458
0.0713739
0.0702099
0.0691393
0.0681502
0.0672328
0.066379
0.0655819
0.0648357
0.0641354
0.0634765
0.0628554
0.0622687
0.0617134
0.061187
0.0606872
0.0602119
0.0597593
0.0593277
0.0589156
0.0585217
0.0581448
0.0577837
0.0574375
0.0571051
0.0567859
0.0564788
0.0561834
0.0558989
0.0556246
0.0553601
0.0551048
0.0548583
0.05462
0.0543896
0.0541667
0.0539509
0.0537419
0.0535394
0.053343
0.0531526
0.0529678
0.0527883
0.0526141
0.0524448
0.0522803
0.0521203
0.0519647
0.0518133
0.0516659
0.0515225
0.0513828
0.0512467
0.0511142
0.0509849
0.050859
0.0507361
0.0506163
0.0504995
0.0503855
0.0502742
0.0501656
0.0500595
0.049956
0.0498548
0.0497561
0.0496596
0.0495653
0.0494731
0.0493831
0.0492951
0.049209
0.0491249
0.0490426
0.0489622
0.0488835
0.0488066
0.0487313
0.0486577
0.0485856
0.0485151
0.0484461
0.0483786
0.0483126
0.0482479
0.0481846
0.0481227
0.048062
0.0480027
0.0479445
0.0478876
0.0478319
0.0477774
0.047724
0.0476717
0.0476204
0.0475703
0.0475212
0.047473
0.0474259
0.0473798
0.0473346
0.0472903
0.0472469
0.0472045
0.0471628
0.0471221
0.0470822
0.047043
0.0470047
0.0469672
0.0469305
0.0468945
0.0468592
0.0468247
0.046791
0.0467579
0.0467256
0.046694
0.046663
0.0466328
0.0466033
0.0465744
0.0465463
0.0465188
0.0464921
0.046466
0.0464405
0.0464158
0.0463918
0.0463684
0.0463457
0.0463237
0.0463023
0.0462816
0.0462616
0.0462422
0.0462235
0.0462055
0.0461881
0.0461713
0.0461552
0.0461397
0.0461248
0.0461105
0.0460968
0.0460837
0.0460712
0.0460592
0.0460478
0.046037
0.0460266
0.0460169
0.0460076
0.0459988
0.0459905
0.0459826
0.0459752
0.0459683
0.0459618
0.0459557
0.04595
0.0459446
0.0459397
0.0459351
0.0459308
0.0459269
0.0459232
0.0459199
0.0459168
0.045914
0.0459115
0.0459092
0.0459071
0.0459052
0.0459035
0.0459021
0.0459007
0.0458996
0.0458986
0.0458977
0.045897
0.0458963
0.0458958
0.0458954
0.045895
0.0458948
0.0458946
0.0458944
0.0458944
0.0458943
0.0458944
0.0458944
0.0458945
0.0458946
0.0458947
0.0458948
0.045895
0.0458952
0.0458953
0.0458955
0.0458957
0.0458959
0.0458961
0.0458963
0.0458965
0.0458967
0.0458969
0.045897
0.0458972
0.0458974
0.0458976
0.0458978
0.045898
0.0458982
0.0458984
0.0458986
0.0458988
0.045899
0.0458992
0.0458994
0.0458996
0.0458998
0.0459
0.0459002
0.0459004
0.0459006
0.0459008
0.045901
0.0459012
0.0459014
0.0459016
0.0459018
0.045902
0.0459022
0.0459024
0.0459026
0.0459028
0.045903
0.0459032
0.0459034
0.0459036
0.0459038
0.045904
0.0459042
0.0459044
0.0459046
0.0459048
0.045905
0.0459052
0.0459054
0.0459056
0.0459058
0.045906
0.0459062
0.0459064
0.0459066
0.0459069
0.0459071
0.0459073
0.0459075
0.0459077
0.0459079
0.0459081
0.0459083
0.0459085
0.0459087
0.0459089
0.0459091
0.0459093
0.0459095
0.0459097
0.0459099
0.0459101
0.0459103
0.0459105
0.0459107
0.0459109
0.0459111
0.0459113
0.0459115
0.0459117
0.045912
0.0459122
0.0459124
0.0459126
0.0459128
0.045913
0.0459132
0.0459134
0.0459136
0.0459138
0.045914
0.0459142
0.0459144
0.0459146
0.0459148
0.045915
0.0459152
0.0459155
0.0459157
0.0459159
0.0459161
0.0459163
0.0459165
0.0459167
0.0459169
0.0459171
0.0459173
0.0459175
0.0459177
0.0459179
0.0459182
0.0459184
0.0459186
0.0459188
0.045919
0.0459192
0.0459194
0.0459196
0.0459198
0.04592
0.0459202
0.0459205
0.0459207
0.0459209
0.0459211
0.0459213
0.0459215
0.0459217
0.0459219
0.0459221
0.0459223
0.0459226
0.0459228
0.045923
0.0459232
0.0459234
0.0459236
0.0459238
0.045924
0.0459242
0.0459245
0.0459247
0.0459249
0.0459251
0.0459253
0.0459255
0.0459257
0.0459259
0.0459261
0.0459264
0.0459266
0.0459268
0.045927
0.0459272
0.0459274
0.0459276
0.0459279
0.0459281
0.0459283
0.0459285
0.0459287
0.0459289
0.0459291
0.0459293
0.0459296
0.0459298
0.04593
0.0459302
0.0459304
0.0459306
0.0459308
0.0459311
0.0459313
0.0459315
0.0459317
0.045932
0.0459321
0.0459324
0.0459321
0.0459321
0.0459321
1
0.518765
0.327401
0.255347
0.217848
0.194403
0.178211
0.166306
0.157157
0.149883
0.143938
0.138968
0.134734
0.131069
0.127852
0.124998
0.122441
0.120132
0.118031
0.116109
0.114342
0.11271
0.111196
0.109788
0.108474
0.107243
0.106088
0.105002
0.103978
0.103011
0.102096
0.101229
0.100405
0.0996222
0.0988765
0.0981654
0.0974866
0.0968378
0.096217
0.0956223
0.095052
0.0945047
0.0939789
0.0934734
0.0929869
0.0925184
0.0920668
0.0916314
0.0912111
0.0908052
0.0904129
0.0900337
0.0896667
0.0893115
0.0889675
0.0886342
0.088311
0.0879976
0.0876934
0.0873982
0.0871114
0.0868328
0.0865621
0.0862989
0.0860428
0.0857938
0.0855513
0.0853153
0.0850855
0.0848617
0.0846436
0.084431
0.0842238
0.0840218
0.0838248
0.0836325
0.083445
0.083262
0.0830833
0.0829089
0.0827387
0.0825724
0.0824099
0.0822512
0.0820962
0.0819447
0.0817966
0.0816519
0.0815105
0.0813721
0.0812369
0.0811046
0.0809753
0.0808488
0.0807251
0.080604
0.0804856
0.0803697
0.0802563
0.0801453
0.0800368
0.0799305
0.0798265
0.0797246
0.079625
0.0795274
0.0794319
0.0793384
0.0792468
0.0791572
0.0790694
0.0789835
0.0788993
0.0788169
0.0787361
0.0786571
0.0785797
0.0785038
0.0784296
0.0783568
0.0782856
0.0782158
0.0781474
0.0780805
0.0780149
0.0779507
0.0778877
0.0778261
0.0777658
0.0777067
0.0776488
0.0775922
0.0775367
0.0774825
0.0774294
0.0773775
0.0773268
0.0772772
0.0772288
0.0771815
0.0771354
0.0770904
0.0770465
0.0770038
0.0769622
0.0769217
0.0768823
0.0768441
0.076807
0.076771
0.0767361
0.0767023
0.0766696
0.076638
0.0766074
0.076578
0.0765496
0.0765222
0.0764959
0.0764707
0.0764464
0.0764231
0.0764009
0.0763796
0.0763592
0.0763398
0.0763213
0.0763037
0.0762869
0.0762711
0.076256
0.0762418
0.0762283
0.0762156
0.0762037
0.0761925
0.0761819
0.0761721
0.0761629
0.0761543
0.0761463
0.0761389
0.076132
0.0761257
0.0761198
0.0761145
0.0761096
0.0761051
0.076101
0.0760974
0.076094
0.0760911
0.0760884
0.076086
0.076084
0.0760821
0.0760806
0.0760792
0.076078
0.076077
0.0760762
0.0760756
0.076075
0.0760746
0.0760744
0.0760742
0.0760741
0.0760741
0.0760741
0.0760742
0.0760743
0.0760745
0.0760747
0.076075
0.0760752
0.0760755
0.0760758
0.0760761
0.0760764
0.0760767
0.076077
0.0760773
0.0760777
0.076078
0.0760783
0.0760786
0.076079
0.0760793
0.0760796
0.0760799
0.0760803
0.0760806
0.0760809
0.0760812
0.0760816
0.0760819
0.0760822
0.0760826
0.0760829
0.0760832
0.0760836
0.0760839
0.0760842
0.0760845
0.0760849
0.0760852
0.0760855
0.0760859
0.0760862
0.0760865
0.0760869
0.0760872
0.0760875
0.0760879
0.0760882
0.0760885
0.0760889
0.0760892
0.0760895
0.0760898
0.0760902
0.0760905
0.0760908
0.0760912
0.0760915
0.0760919
0.0760922
0.0760925
0.0760929
0.0760932
0.0760935
0.0760939
0.0760942
0.0760945
0.0760949
0.0760952
0.0760955
0.0760959
0.0760962
0.0760965
0.0760969
0.0760972
0.0760976
0.0760979
0.0760982
0.0760986
0.0760989
0.0760992
0.0760996
0.0760999
0.0761003
0.0761006
0.0761009
0.0761013
0.0761016
0.076102
0.0761023
0.0761026
0.076103
0.0761033
0.0761037
0.076104
0.0761043
0.0761047
0.076105
0.0761054
0.0761057
0.076106
0.0761064
0.0761067
0.0761071
0.0761074
0.0761077
0.0761081
0.0761084
0.0761088
0.0761091
0.0761095
0.0761098
0.0761101
0.0761105
0.0761108
0.0761112
0.0761115
0.0761119
0.0761122
0.0761126
0.0761129
0.0761132
0.0761136
0.0761139
0.0761143
0.0761146
0.076115
0.0761153
0.0761157
0.076116
0.0761164
0.0761167
0.0761171
0.0761174
0.0761177
0.0761181
0.0761184
0.0761188
0.0761191
0.0761195
0.0761198
0.0761202
0.0761205
0.0761209
0.0761212
0.0761216
0.0761219
0.0761223
0.0761226
0.076123
0.0761233
0.0761237
0.076124
0.0761244
0.0761247
0.0761251
0.0761254
0.0761258
0.0761261
0.0761265
0.0761268
0.0761272
0.0761275
0.0761279
0.0761282
0.0761286
0.0761289
0.0761293
0.0761297
0.07613
0.0761304
0.0761307
0.0761311
0.0761314
0.0761318
0.0761321
0.0761325
0.0761328
0.0761332
0.0761335
0.0761339
0.0761343
0.0761346
0.076135
0.0761353
0.0761357
0.076136
0.0761365
0.0761367
0.0761373
0.0761368
0.0761368
0.0761368
1
0.660887
0.446893
0.352877
0.302029
0.269849
0.2475
0.231017
0.218326
0.208224
0.199965
0.193059
0.187175
0.182083
0.177616
0.173653
0.170104
0.166899
0.163985
0.16132
0.15887
0.156608
0.15451
0.152559
0.150738
0.149034
0.147434
0.14593
0.144512
0.143173
0.141906
0.140706
0.139566
0.138482
0.137449
0.136465
0.135526
0.134628
0.133769
0.132946
0.132157
0.1314
0.130672
0.129973
0.1293
0.128652
0.128027
0.127425
0.126843
0.126282
0.125739
0.125215
0.124707
0.124216
0.12374
0.123279
0.122833
0.122399
0.121979
0.12157
0.121174
0.120789
0.120414
0.12005
0.119697
0.119352
0.119017
0.118691
0.118373
0.118064
0.117762
0.117469
0.117182
0.116903
0.116631
0.116365
0.116106
0.115853
0.115606
0.115365
0.11513
0.1149
0.114676
0.114456
0.114242
0.114033
0.113828
0.113628
0.113433
0.113242
0.113055
0.112872
0.112694
0.112519
0.112348
0.112181
0.112017
0.111857
0.111701
0.111547
0.111398
0.111251
0.111107
0.110966
0.110829
0.110694
0.110562
0.110433
0.110307
0.110183
0.110062
0.109943
0.109827
0.109713
0.109602
0.109492
0.109386
0.109281
0.109178
0.109078
0.10898
0.108883
0.108789
0.108696
0.108606
0.108517
0.10843
0.108345
0.108262
0.108181
0.108101
0.108023
0.107946
0.107871
0.107798
0.107727
0.107657
0.107588
0.107522
0.107457
0.107393
0.107331
0.107271
0.107212
0.107155
0.107099
0.107045
0.106992
0.106941
0.106892
0.106844
0.106797
0.106752
0.106709
0.106667
0.106627
0.106588
0.10655
0.106514
0.10648
0.106446
0.106415
0.106384
0.106355
0.106327
0.106301
0.106275
0.106251
0.106228
0.106207
0.106186
0.106167
0.106149
0.106131
0.106115
0.1061
0.106085
0.106072
0.10606
0.106048
0.106037
0.106027
0.106018
0.106009
0.106001
0.105994
0.105987
0.105981
0.105976
0.105971
0.105967
0.105963
0.105959
0.105956
0.105953
0.105951
0.105949
0.105947
0.105945
0.105944
0.105943
0.105942
0.105941
0.105941
0.10594
0.10594
0.10594
0.10594
0.10594
0.10594
0.105941
0.105941
0.105941
0.105941
0.105942
0.105942
0.105943
0.105943
0.105943
0.105944
0.105944
0.105945
0.105945
0.105946
0.105946
0.105947
0.105947
0.105947
0.105948
0.105948
0.105949
0.105949
0.10595
0.10595
0.105951
0.105951
0.105952
0.105952
0.105953
0.105953
0.105953
0.105954
0.105954
0.105955
0.105955
0.105956
0.105956
0.105957
0.105957
0.105958
0.105958
0.105958
0.105959
0.105959
0.10596
0.10596
0.105961
0.105961
0.105962
0.105962
0.105963
0.105963
0.105964
0.105964
0.105965
0.105965
0.105965
0.105966
0.105966
0.105967
0.105967
0.105968
0.105968
0.105969
0.105969
0.10597
0.10597
0.105971
0.105971
0.105971
0.105972
0.105972
0.105973
0.105973
0.105974
0.105974
0.105975
0.105975
0.105976
0.105976
0.105977
0.105977
0.105978
0.105978
0.105979
0.105979
0.105979
0.10598
0.10598
0.105981
0.105981
0.105982
0.105982
0.105983
0.105983
0.105984
0.105984
0.105985
0.105985
0.105986
0.105986
0.105987
0.105987
0.105988
0.105988
0.105989
0.105989
0.105989
0.10599
0.10599
0.105991
0.105991
0.105992
0.105992
0.105993
0.105993
0.105994
0.105994
0.105995
0.105995
0.105996
0.105996
0.105997
0.105997
0.105998
0.105998
0.105999
0.105999
0.106
0.106
0.106
0.106001
0.106001
0.106002
0.106002
0.106003
0.106003
0.106004
0.106004
0.106005
0.106005
0.106006
0.106006
0.106007
0.106007
0.106008
0.106008
0.106009
0.106009
0.10601
0.10601
0.106011
0.106011
0.106012
0.106012
0.106013
0.106013
0.106014
0.106014
0.106015
0.106015
0.106016
0.106016
0.106017
0.106017
0.106018
0.106018
0.106019
0.106019
0.106019
0.10602
0.10602
0.106021
0.106021
0.106022
0.106022
0.106023
0.106023
0.106024
0.106024
0.106025
0.106025
0.106026
0.106026
0.106027
0.106027
0.106028
0.106028
0.106028
0.106028
1
0.776802
0.557824
0.446877
0.3841
0.343742
0.315509
0.294603
0.278467
0.265605
0.255079
0.246275
0.238774
0.232282
0.226588
0.221538
0.217017
0.212935
0.209225
0.205833
0.202715
0.199836
0.197167
0.194685
0.192369
0.190201
0.188168
0.186255
0.184453