# vtk DataFile Version 2.0
FlowField
ASCII
DATASET STRUCTURED_GRID
DIMENSIONS 400 1 200
POINTS 80000 float
0 0 0
0.08 0 0
0.16 0 0
0.24 0 0
0.32 0 0
0.4 0 0
0.48 0 0
0.56 0 0
0.64 0 0
0.72 0 0
0.8 0 0
0.88 0 0
0.96 0 0
1.04 0 0
1.12 0 0
1.2 0 0
1.28 0 0
1.36 0 0
1.44 0 0
1.52 0 0
1.6 0 0
1.68 0 0
1.76 0 0
1.84 0 0
1.92 0 0
2 0 0
2.08 0 0
2.16 0 0
2.24 0 0
2.32 0 0
2.4 0 0
2.48 0 0
2.56 0 0
2.64 0 0
2.72 0 0
2.8 0 0
2.88 0 0
2.96 0 0
3.04 0 0
3.12 0 0
3.2 0 0
3.28 0 0
3.36 0 0
3.44 0 0
3.52 0 0
3.6 0 0
3.68 0 0
3.76 0 0
3.84 0 0
3.92 0 0
4 0 0
4.08 0 0
4.16 0 0
4.24 0 0
4.32 0 0
4.4 0 0
4.48 0 0
4.56 0 0
4.64 0 0
4.72 0 0
4.8 0 0
4.88 0 0
4.96 0 0
5.04 0 0
5.12 0 0
5.2 0 0
5.28 0 0
5.36 0 0
5.44 0 0
5.52 0 0
5.6 0 0
5.68 0 0
5.76 0 0
5.84 0 0
5.92 0 0
6 0 0
6.08 0 0
6.16 0 0
6.24 0 0
6.32 0 0
6.4 0 0
6.48 0 0
6.56 0 0
6.64 0 0
6.72 0 0
6.8 0 0
6.88 0 0
6.96 0 0
7.04 0 0
7.12 0 0
7.2 0 0
7.28 0 0
7.36 0 0
7.44 0 0
7.52 0 0
7.6 0 0
7.68 0 0
7.76 0 0
7.84 0 0
7.92 0 0
8 0 0
8.08 0 0
8.16 0 0
8.24 0 0
8.32 0 0
8.4 0 0
8.48 0 0
8.56 0 0
8.64 0 0
8.72 0 0
8.8 0 0
8.88 0 0
8.96 0 0
9.04 0 0
9.12 0 0
9.2 0 0
9.28 0 0
9.36 0 0
9.44 0 0
9.52 0 0
9.6 0 0
9.68 0 0
9.76 0 0
9.84 0 0
9.92 0 0
10 0 0
10.08 0 0
10.16 0 0
10.24 0 0
10.32 0 0
10.4 0 0
10.48 0 0
10.56 0 0
10.64 0 0
10.72 0 0
10.8 0 0
10.88 0 0
10.96 0 0
11.04 0 0
11.12 0 0
11.2 0 0
11.28 0 0
11.36 0 0
11.44 0 0
11.52 0 0
11.6 0 0
11.68 0 0
11.76 0 0
11.84 0 0
11.92 0 0
12 0 0
12.08 0 0
12.16 0 0
12.24 0 0
12.32 0 0
12.4 0 0
12.48 0 0
12.56 0 0
12.64 0 0
12.72 0 0
12.8 0 0
12.88 0 0
12.96 0 0
13.04 0 0
13.12 0 0
13.2 0 0
13.28 0 0
13.36 0 0
13.44 0 0
13.52 0 0
13.6 0 0
13.68 0 0
13.76 0 0
13.84 0 0
13.92 0 0
14 0 0
14.08 0 0
14.16 0 0
14.24 0 0
14.32 0 0
14.4 0 0
14.48 0 0
14.56 0 0
14.64 0 0
14.72 0 0
14.8 0 0
14.88 0 0
14.96 0 0
15.04 0 0
15.12 0 0
15.2 0 0
15.28 0 0
15.36 0 0
15.44 0 0
15.52 0 0
15.6 0 0
15.68 0 0
15.76 0 0
15.84 0 0
15.92 0 0
16 0 0
16.08 0 0
16.16 0 0
16.24 0 0
16.32 0 0
16.4 0 0
16.48 0 0
16.56 0 0
16.64 0 0
16.72 0 0
16.8 0 0
16.88 0 0
16.96 0 0
17.04 0 0
17.12 0 0
17.2 0 0
17.28 0 0
17.36 0 0
17.44 0 0
17.52 0 0
17.6 0 0
17.68 0 0
17.76 0 0
17.84 0 0
17.92 0 0
18 0 0
18.08 0 0
18.16 0 0
18.24 0 0
18.32 0 0
18.4 0 0
18.48 0 0
18.56 0 0
18.64 0 0
18.72 0 0
18.8 0 0
18.88 0 0
18.96 0 0
19.04 0 0
19.12 0 0
19.2 0 0
19.28 0 0
19.36 0 0
19.44 0 0
19.52 0 0
19.6 0 0
19.68 0 0
19.76 0 0
19.84 0 0
19.92 0 0
20 0 0
20.08 0 0
20.16 0 0
20.24 0 0
20.32 0 0
20.4 0 0
20.48 0 0
20.56 0 0
20.64 0 0
20.72 0 0
20.8 0 0
20.88 0 0
20.96 0 0
21.04 0 0
21.12 0 0
21.2 0 0
21.28 0 0
21.36 0 0
21.44 0 0
21.52 0 0
21.6 0 0
21.68 0 0
21.76 0 0
21.84 0 0
21.92 0 0
22 0 0
22.08 0 0
22.16 0 0
22.24 0 0
22.32 0 0
22.4 0 0
22.48 0 0
22.56 0 0
22.64 0 0
22.72 0 0
22.8 0 0
22.88 0 0
22.96 0 0
23.04 0 0
23.12 0 0
23.2 0 0
23.28 0 0
23.36 0 0
23.44 0 0
23.52 0 0
23.6 0 0
23.68 0 0
23.76 0 0
23.84 0 0
23.92 0 0
24 0 0
24.08 0 0
24.16 0 0
24.24 0 0
24.32 0 0
24.4 0 0
24.48 0 0
24.56 0 0
24.64 0 0
24.72 0 0
24.8 0 0
24.88 0 0
24.96 0 0
25.04 0 0
25.12 0 0
25.2 0 0
25.28 0 0
25.36 0 0
25.44 0 0
25.52 0 0
25.6 0 0
25.68 0 0
25.76 0 0
25.84 0 0
25.92 0 0
26 0 0
26.08 0 0
26.16 0 0
26.24 0 0
26.32 0 0
26.4 0 0
26.48 0 0
26.56 0 0
26.64 0 0
26.72 0 0
26.8 0 0
26.88 0 0
26.96 0 0
27.04 0 0
27.12 0 0
27.2 0 0
27.28 0 0
27.36 0 0
27.44 0 0
27.52 0 0
27.6 0 0
27.68 0 0
27.76 0 0
27.84 0 0
27.92 0 0
28 0 0
28.08 0 0
28.16 0 0
28.24 0 0
28.32 0 0
28.4 0 0
28.48 0 0
28.56 0 0
28.64 0 0
28.72 0 0
28.8 0 0
28.88 0 0
28.96 0 0
29.04 0 0
29.12 0 0
29.2 0 0
29.28 0 0
29.36 0 0
29.44 0 0
29.52 0 0
29.6 0 0
29.68 0 0
29.76 0 0
29.84 0 0
29.92 0 0
30 0 0
30.08 0 0
30.16 0 0
30.24 0 0
30.32 0 0
30.4 0 0
30.48 0 0
30.56 0 0
30.64 0 0
30.72 0 0
30.8 0 0
30.88 0 0
30.96 0 0
31.04 0 0
31.12 0 0
31.2 0 0
31.28 0 0
31.36 0 0
31.44 0 0
31.52 0 0
31.6 0 0
31.68 0 0
31.76 0 0
31.84 0 0
31.92 0 0
0 0.005 0
0.08 0.005 0
0.16 0.005 0
0.24 0.005 0
0.32 0.005 0
0.4 0.005 0
0.48 0.005 0
0.56 0.005 0
0.64 0.005 0
0.72 0.005 0
0.8 0.005 0
0.88 0.005 0
0.96 0.005 0
1.04 0.005 0
1.12 0.005 0
1.2 0.005 0
1.28 0.005 0
1.36 0.005 0
1.44 0.005 0
1.52 0.005 0
1.6 0.005 0
1.68 0.005 0
1.76 0.005 0
1.84 0.005 0
1.92 0.005 0
2 0.005 0
2.08 0.005 0
2.16 0.005 0
2.24 0.005 0
2.32 0.005 0
2.4 0.005 0
2.48 0.005 0
2.56 0.005 0
2.64 0.005 0
2.72 0.005 0
2.8 0.005 0
2.88 0.005 0
2.96 0.005 0
3.04 0.005 0
3.12 0.005 0
3.2 0.005 0
3.28 0.005 0
3.36 0.005 0
3.44 0.005 0
3.52 0.005 0
3.6 0.005 0
3.68 0.005 0
3.76 0.005 0
3.84 0.005 0
3.92 0.005 0
4 0.005 0
4.08 0.005 0
4.16 0.005 0
4.24 0.005 0
4.32 0.005 0
4.4 0.005 0
4.48 0.005 0
4.56 0.005 0
4.64 0.005 0
4.72 0.005 0
4.8 0.005 0
4.88 0.005 0
4.96 0.005 0
5.04 0.005 0
5.12 0.005 0
5.2 0.005 0
5.28 0.005 0
5.36 0.005 0
5.44 0.005 0
5.52 0.005 0
5.6 0.005 0
5.68 0.005 0
5.76 0.005 0
5.84 0.005 0
5.92 0.005 0
6 0.005 0
6.08 0.005 0
6.16 0.005 0
6.24 0.005 0
6.32 0.005 0
6.4 0.005 0
6.48 0.005 0
6.56 0.005 0
6.64 0.005 0
6.72 0.005 0
6.8 0.005 0
6.88 0.005 0
6.96 0.005 0
7.04 0.005 0
7.12 0.005 0
7.2 0.005 0
7.28 0.005 0
7.36 0.005 0
7.44 0.005 0
7.52 0.005 0
7.6 0.005 0
7.68 0.005 0
7.76 0.005 0
7.84 0.005 0
7.92 0.005 0
8 0.005 0
8.08 0.005 0
8.16 0.005 0
8.24 0.005 0
8.32 0.005 0
8.4 0.005 0
8.48 0.005 0
8.56 0.005 0
8.64 0.005 0
8.72 0.005 0
8.8 0.005 0
8.88 0.005 0
8.96 0.005 0
9.04 0.005 0
9.12 0.005 0
9.2 0.005 0
9.28 0.005 0
9.36 0.005 0
9.44 0.005 0
9.52 0.005 0
9.6 0.005 0
9.68 0.005 0
9.76 0.005 0
9.84 0.005 0
9.92 0.005 0
10 0.005 0
10.08 0.005 0
10.16 0.005 0
10.24 0.005 0
10.32 0.005 0
10.4 0.005 0
10.48 0.005 0
10.56 0.005 0
10.64 0.005 0
10.72 0.005 0
10.8 0.005 0
10.88 0.005 0
10.96 0.005 0
11.04 0.005 0
11.12 0.005 0
11.2 0.005 0
11.28 0.005 0
11.36 0.005 0
11.44 0.005 0
11.52 0.005 0
11.6 0.005 0
11.68 0.005 0
11.76 0.005 0
11.84 0.005 0
11.92 0.005 0
12 0.005 0
12.08 0.005 0
12.16 0.005 0
12.24 0.005 0
12.32 0.005 0
12.4 0.005 0
12.48 0.005 0
12.56 0.005 0
12.64 0.005 0
12.72 0.005 0
12.8 0.005 0
12.88 0.005 0
12.96 0.005 0
13.04 0.005 0
13.12 0.005 0
13.2 0.005 0
13.28 0.005 0
13.36 0.005 0
13.44 0.005 0
13.52 0.005 0
13.6 0.005 0
13.68 0.005 0
13.76 0.005 0
13.84 0.005 0
13.92 0.005 0
14 0.005 0
14.08 0.005 0
14.16 0.005 0
14.24 0.005 0
14.32 0.005 0
14.4 0.005 0
14.48 0.005 0
14.56 0.005 0
14.64 0.005 0
14.72 0.005 0
14.8 0.005 0
14.88 0.005 0
14.96 0.005 0
15.04 0.005 0
15.12 0.005 0
15.2 0.005 0
15.28 0.005 0
15.36 0.005 0
15.44 0.005 0
15.52 0.005 0
15.6 0.005 0
15.68 0.005 0
15.76 0.005 0
15.84 0.005 0
15.92 0.005 0
16 0.005 0
16.08 0.005 0
16.16 0.005 0
16.24 0.005 0
16.32 0.005 0
16.4 0.005 0
16.48 0.005 0
16.56 0.005 0
16.64 0.005 0
16.72 0.005 0
16.8 0.005 0
16.88 0.005 0
16.96 0.005 0
17.04 0.005 0
17.12 0.005 0
17.2 0.005 0
17.28 0.005 0
17.36 0.005 0
17.44 0.005 0
17.52 0.005 0
17.6 0.005 0
17.68 0.005 0
17.76 0.005 0
17.84 0.005 0
17.92 0.005 0
18 0.005 0
18.08 0.005 0
18.16 0.005 0
18.24 0.005 0
18.32 0.005 0
18.4 0.005 0
18.48 0.005 0
18.56 0.005 0
18.64 0.005 0
18.72 0.005 0
18.8 0.005 0
18.88 0.005 0
18.96 0.005 0
19.04 0.005 0
19.12 0.005 0
19.2 0.005 0
19.28 0.005 0
19.36 0.005 0
19.44 0.005 0
19.52 0.005 0
19.6 0.005 0
19.68 0.005 0
19.76 0.005 0
19.84 0.005 0
19.92 0.005 0
20 0.005 0
20.08 0.005 0
20.16 0.005 0
20.24 0.005 0
20.32 0.005 0
20.4 0.005 0
20.48 0.005 0
20.56 0.005 0
20.64 0.005 0
20.72 0.005 0
20.8 0.005 0
20.88 0.005 0
20.96 0.005 0
21.04 0.005 0
21.12 0.005 0
21.2 0.005 0
21.28 0.005 0
21.36 0.005 0
21.44 0.005 0
21.52 0.005 0
21.6 0.005 0
21.68 0.005 0
21.76 0.005 0
21.84 0.005 0
21.92 0.005 0
22 0.005 0
22.08 0.005 0
22.16 0.005 0
22.24 0.005 0
22.32 0.005 0
22.4 0.005 0
22.48 0.005 0
22.56 0.005 0
22.64 0.005 0
22.72 0.005 0
22.8 0.005 0
22.88 0.005 0
22.96 0.005 0
23.04 0.005 0
23.12 0.005 0
23.2 0.005 0
23.28 0.005 0
23.36 0.005 0
23.44 0.005 0
23.52 0.005 0
23.6 0.005 0
23.68 0.005 0
23.76 0.005 0
23.84 0.005 0
23.92 0.005 0
24 0.005 0
24.08 0.005 0
24.16 0.005 0
24.24 0.005 0
24.32 0.005 0
24.4 0.005 0
24.48 0.005 0
24.56 0.005 0
24.64 0.005 0
24.72 0.005 0
24.8 0.005 0
24.88 0.005 0
24.96 0.005 0
25.04 0.005 0
25.12 0.005 0
25.2 0.005 0
25.28 0.005 0
25.36 0.005 0
25.44 0.005 0
25.52 0.005 0
25.6 0.005 0
25.68 0.005 0
25.76 0.005 0
25.84 0.005 0
25.92 0.005 0
26 0.005 0
26.08 0.005 0
26.16 0.005 0
26.24 0.005 0
26.32 0.005 0
26.4 0.005 0
26.48 0.005 0
26.56 0.005 0
26.64 0.005 0
26.72 0.005 0
26.8 0.005 0
26.88 0.005 0
26.96 0.005 0
27.04 0.005 0
27.12 0.005 0
27.2 0.005 0
27.28 0.005 0
27.36 0.005 0
27.44 0.005 0
27.52 0.005 0
27.6 0.005 0
27.68 0.005 0
27.76 0.005 0
27.84 0.005 0
27.92 0.005 0
28 0.005 0
28.08 0.005 0
28.16 0.005 0
28.24 0.005 0
28.32 0.005 0
28.4 0.005 0
28.48 0.005 0
28.56 0.005 0
28.64 0.005 0
28.72 0.005 0
28.8 0.005 0
28.88 0.005 0
28.96 0.005 0
29.04 0.005 0
29.12 0.005 0
29.2 0.005 0
29.28 0.005 0
29.36 0.005 0
29.44 0.005 0
29.52 0.005 0
29.6 0.005 0
29.68 0.005 0
29.76 0.005 0
29.84 0.005 0
29.92 0.005 0
30 0.005 0
30.08 0.005 0
30.16 0.005 0
30.24 0.005 0
30.32 0.005 0
30.4 0.005 0
30.48 0.005 0
30.56 0.005 0
30.64 0.005 0
30.72 0.005 0
30.8 0.005 0
30.88 0.005 0
30.96 0.005 0
31.04 0.005 0
31.12 0.005 0
31.2 0.005 0
31.28 0.005 0
31.36 0.005 0
31.44 0.005 0
31.52 0.005 0
31.6 0.005 0
31.68 0.005 0
31.76 0.005 0
31.84 0.005 0
31.92 0.005 0
0 0.01 0
0.08 0.01 0
0.16 0.01 0
0.24 0.01 0
0.32 0.01 0
0.4 0.01 0
0.48 0.01 0
0.56 0.01 0
0.64 0.01 0
0.72 0.01 0
0.8 0.01 0
0.88 0.01 0
0.96 0.01 0
1.04 0.01 0
1.12 0.01 0
1.2 0.01 0
1.28 0.01 0
1.36 0.01 0
1.44 0.01 0
1.52 0.01 0
1.6 0.01 0
1.68 0.01 0
1.76 0.01 0
1.84 0.01 0
1.92 0.01 0
2 0.01 0
2.08 0.01 0
2.16 0.01 0
2.24 0.01 0
2.32 0.01 0
2.4 0.01 0
2.48 0.01 0
2.56 0.01 0
2.64 0.01 0
2.72 0.01 0
2.8 0.01 0
2.88 0.01 0
2.96 0.01 0
3.04 0.01 0
3.12 0.01 0
3.2 0.01 0
3.28 0.01 0
3.36 0.01 0
3.44 0.01 0
3.52 0.01 0
3.6 0.01 0
3.68 0.01 0
3.76 0.01 0
3.84 0.01 0
3.92 0.01 0
4 0.01 0
4.08 0.01 0
4.16 0.01 0
4.24 0.01 0
4.32 0.01 0
4.4 0.01 0
4.48 0.01 0
4.56 0.01 0
4.64 0.01 0
4.72 0.01 0
4.8 0.01 0
4.88 0.01 0
4.96 0.01 0
5.04 0.01 0
5.12 0.01 0
[...]
POINT_DATA 80000

SCALARS p float 1
LOOKUP_TABLE default
1
56.7314
56.4296
56.3885
56.3684
56.354
56.3419
56.3312
56.3212
56.3117
56.3025
56.2937
56.2851
56.2767
56.2685
56.2604
56.2526
56.2449
56.2374
56.23
56.2228
56.2157
56.2087
56.2019
56.1952
56.1885
56.182
56.1756
56.1693
56.1631
56.157
56.1509
56.145
56.1391
56.1333
56.1276
56.1219
56.1164
56.1109
56.1055
56.1002
56.095
56.0898
56.0848
56.0798
56.075
56.0702
56.0655
56.0608
56.0562
56.0516
56.0471
56.0426
56.0382
56.0338
56.0295
56.0252
56.0209
56.0166
56.0123
56.0081
56.0039
55.9997
55.9956
55.9915
55.9874
55.9833
55.9793
55.9753
55.9713
55.9673
55.9634
55.9594
55.9555
55.9515
55.9476
55.9436
55.9396
55.9357
55.9317
55.9278
55.9238
55.9199
55.9159
55.912
55.908
55.9041
55.9001
55.8962
55.8922
55.8883
55.8843
55.8804
55.8764
55.8725
55.8685
55.8646
55.8606
55.8567
55.8527
55.8487
55.8448
55.8408
55.8369
55.8329
55.829
55.825
55.8211
55.8171
55.8132
55.8092
55.8052
55.8013
55.7973
55.7934
55.7894
55.7855
55.7815
55.7776
55.7736
55.7696
55.7657
55.7617
55.7578
55.7538
55.7499
55.7459
55.7419
55.738
55.734
55.7301
55.7261
55.7221
55.7182
55.7142
55.7103
55.7063
55.7023
55.6984
55.6944
55.6905
55.6865
55.6825
55.6786
55.6746
55.6707
55.6667
55.6627
55.6588
55.6548
55.6509
55.6469
55.6429
55.639
55.635
55.631
55.6271
55.6231
55.6192
55.6152
55.6112
55.6073
55.6033
55.5993
55.5954
55.5914
55.5874
55.5835
55.5795
55.5755
55.5716
55.5676
55.5636
55.5597
55.5557
55.5517
55.5478
55.5438
55.5398
55.5359
55.5319
55.5279
55.524
55.52
55.516
55.5121
55.5081
55.5041
55.5002
55.4962
55.4922
55.4883
55.4843
55.4803
55.4764
55.4724
55.4684
55.4644
55.4605
55.4565
55.4525
55.4486
55.4446
55.4406
55.4366
55.4327
55.4287
55.4247
55.4208
55.4168
55.4128
55.4088
55.4049
55.4009
55.3969
55.3929
55.389
55.385
55.381
55.377
55.3731
55.3691
55.3651
55.3611
55.3572
55.3532
55.3492
55.3452
55.3413
55.3373
55.3333
55.3293
55.3254
55.3214
55.3174
55.3134
55.3094
55.3055
55.3015
55.2975
55.2935
55.2896
55.2856
55.2816
55.2776
55.2736
55.2697
55.2657
55.2617
55.2577
55.2537
55.2497
55.2458
55.2418
55.2378
55.2338
55.2298
55.2259
55.2219
55.2179
55.2139
55.2099
55.2059
55.202
55.198
55.194
55.19
55.186
55.182
55.178
55.1741
55.1701
55.1661
55.1621
55.1581
55.1541
55.1501
55.1461
55.1422
55.1382
55.1342
55.1302
55.1262
55.1222
55.1182
55.1142
55.1102
55.1063
55.1023
55.0983
55.0943
55.0903
55.0863
55.0823
55.0783
55.0743
55.0703
55.0663
55.0624
55.0584
55.0544
55.0504
55.0464
55.0424
55.0384
55.0344
55.0304
55.0264
55.0224
55.0184
55.0144
55.0104
55.0064
55.0024
54.9984
54.9944
54.9904
54.9864
54.9824
54.9784
54.9744
54.9704
54.9664
54.9624
54.9584
54.9544
54.9504
54.9464
54.9424
54.9384
54.9344
54.9304
54.9264
54.9224
54.9184
54.9144
54.9104
54.9064
54.9024
54.8984
54.8944
54.8904
54.8864
54.8824
54.8784
54.8744
54.8704
54.8664
54.8624
54.8583
54.8543
54.8503
54.8463
54.8423
54.8383
54.8343
54.8303
54.8263
54.8223
54.8183
54.8142
54.8102
54.8062
54.8022
54.7982
54.7942
54.7902
54.7862
54.7821
54.7781
54.7741
54.7701
54.7661
54.7621
54.7581
54.754
54.75
54.746
54.742
54.738
54.734
54.7299
54.7259
54.7219
54.7179
54.7139
54.7099
54.7058
54.7018
54.6978
54.6938
54.6898
54.6857
54.6817
54.6777
54.6737
54.6697
54.6656
54.6616
0.5
56.7314
56.7314
56.4296
56.3885
56.3684
56.354
56.3419
56.3312
56.3212
56.3117
56.3025
56.2937
56.2851
56.2767
56.2685
56.2604
56.2526
56.2449
56.2374
56.23
56.2228
56.2157
56.2087
56.2019
56.1952
56.1885
56.182
56.1756
56.1693
56.1631
56.157
56.1509
56.145
56.1391
56.1333
56.1276
56.1219
56.1164
56.1109
56.1055
56.1002
56.095
56.0898
56.0848
56.0798
56.075
56.0702
56.0655
56.0608
56.0562
56.0516
56.0471
56.0426
56.0382
56.0338
56.0295
56.0252
56.0209
56.0166
56.0123
56.0081
56.0039
55.9997
55.9956
55.9915
55.9874
55.9833
55.9793
55.9753
55.9713
55.9673
55.9634
55.9594
55.9555
55.9515
55.9476
55.9436
55.9396
55.9357
55.9317
55.9278
55.9238
55.9199
55.9159
55.912
55.908
55.9041
55.9001
55.8962
55.8922
55.8883
55.8843
55.8804
55.8764
55.8725
55.8685
55.8646
55.8606
55.8567
55.8527
55.8487
55.8448
55.8408
55.8369
55.8329
55.829
55.825
55.8211
55.8171
55.8132
55.8092
55.8052
55.8013
55.7973
55.7934
55.7894
55.7855
55.7815
55.7776
55.7736
55.7696
55.7657
55.7617
55.7578
55.7538
55.7499
55.7459
55.7419
55.738
55.734
55.7301
55.7261
55.7221
55.7182
55.7142
55.7103
55.7063
55.7023
55.6984
55.6944
55.6905
55.6865
55.6825
55.6786
55.6746
55.6707
55.6667
55.6627
55.6588
55.6548
55.6509
55.6469
55.6429
55.639
55.635
55.631
55.6271
55.6231
55.6192
55.6152
55.6112
55.6073
55.6033
55.5993
55.5954
55.5914
55.5874
55.5835
55.5795
55.5755
55.5716
55.5676
55.5636
55.5597
55.5557
55.5517
55.5478
55.5438
55.5398
55.5359
55.5319
55.5279
55.524
55.52
55.516
55.5121
55.5081
55.5041
55.5002
55.4962
55.4922
55.4883
55.4843
55.4803
55.4764
55.4724
55.4684
55.4644
55.4605
55.4565
55.4525
55.4486
55.4446
55.4406
55.4366
55.4327
55.4287
55.4247
55.4208
55.4168
55.4128
55.4088
55.4049
55.4009
55.3969
55.3929
55.389
55.385
55.381
55.377
55.3731
55.3691
55.3651
55.3611
55.3572
55.3532
55.3492
55.3452
55.3413
55.3373
55.3333
55.3293
55.3254
55.3214
55.3174
55.3134
55.3094
55.3055
55.3015
55.2975
55.2935
55.2896
55.2856
55.2816
55.2776
55.2736
55.2697
55.2657
55.2617
55.2577
55.2537
55.2497
55.2458
55.2418
55.2378
55.2338
55.2298
55.2259
55.2219
55.2179
55.2139
55.2099
55.2059
55.202
55.198
55.194
55.19
55.186
55.182
55.178
55.1741
55.1701
55.1661
55.1621
55.1581
55.1541
55.1501
55.1461
55.1422
55.1382
55.1342
55.1302
55.1262
55.1222
55.1182
55.1142
55.1102
55.1063
55.1023
55.0983
55.0943
55.0903
55.0863
55.0823
55.0783
55.0743
55.0703
55.0663
55.0624
55.0584
55.0544
55.0504
55.0464
55.0424
55.0384
55.0344
55.0304
55.0264
55.0224
55.0184
55.0144
55.0104
55.0064
55.0024
54.9984
54.9944
54.9904
54.9864
54.9824
54.9784
54.9744
54.9704
54.9664
54.9624
54.9584
54.9544
54.9504
54.9464
54.9424
54.9384
54.9344
54.9304
54.9264
54.9224
54.9184
54.9144
54.9104
54.9064
54.9024
54.8984
54.8944
54.8904
54.8864
54.8824
54.8784
54.8744
54.8704
54.8664
54.8624
54.8583
54.8543
54.8503
54.8463
54.8423
54.8383
54.8343
54.8303
54.8263
54.8223
54.8183
54.8142
54.8102
54.8062
54.8022
54.7982
54.7942
54.7902
54.7862
54.7821
54.7781
54.7741
54.7701
54.7661
54.7621
54.7581
54.754
54.75
54.746
54.742
54.738
54.734
54.7299
54.7259
54.7219
54.7179
54.7139
54.7099
54.7058
54.7018
54.6978
54.6938
54.6898
54.6857
54.6817
54.6777
54.6737
54.6697
54.6656
54.6616
54.6616
56.7168
56.7168
56.4335
56.3897
56.369
56.3543
56.3422
56.3314
56.3214
56.3118
56.3026
56.2938
56.2851
56.2767
56.2685
56.2605
56.2526
56.2449
56.2374
56.2301
56.2228
56.2157
56.2088
56.2019
56.1952
56.1886
56.1821
56.1756
56.1693
56.1631
56.157
56.1509
56.145
56.1391
56.1333
56.1276
56.1219
56.1164
56.1109
56.1055
56.1002
56.095
56.0898
56.0848
56.0798
56.075
56.0702
56.0655
56.0608
56.0562
56.0516
56.0471
56.0426
56.0382
56.0338
56.0295
56.0252
56.0209
56.0166
56.0123
56.0081
56.0039
55.9997
55.9956
55.9915
55.9874
55.9833
55.9793
55.9753
55.9713
55.9673
55.9634
55.9594
55.9555
55.9515
55.9476
55.9436
55.9396
55.9357
55.9317
55.9278
55.9238
55.9199
55.9159
55.912
55.908
55.9041
55.9001
55.8962
55.8922
55.8883
55.8843
55.8804
55.8764
55.8725
55.8685
55.8646
55.8606
55.8567
55.8527
55.8487
55.8448
55.8408
55.8369
55.8329
55.829
55.825
55.8211
55.8171
55.8132
55.8092
55.8052
55.8013
55.7973
55.7934
55.7894
55.7855
55.7815
55.7776
55.7736
55.7696
55.7657
55.7617
55.7578
55.7538
55.7499
55.7459
55.7419
55.738
55.734
55.7301
55.7261
55.7221
55.7182
55.7142
55.7103
55.7063
55.7023
55.6984
55.6944
55.6905
55.6865
55.6825
55.6786
55.6746
55.6707
55.6667
55.6627
55.6588
55.6548
55.6509
55.6469
55.6429
55.639
55.635
55.631
55.6271
55.6231
55.6192
55.6152
55.6112
55.6073
55.6033
55.5993
55.5954
55.5914
55.5874
55.5835
55.5795
55.5755
55.5716
55.5676
55.5636
55.5597
55.5557
55.5517
55.5478
55.5438
55.5398
55.5359
55.5319
55.5279
55.524
55.52
55.516
55.5121
55.5081
55.5041
55.5002
55.4962
55.4922
55.4883
55.4843
55.4803
55.4764
55.4724
55.4684
55.4644
55.4605
55.4565
55.4525
55.4486
55.4446
55.4406
55.4366
55.4327
55.4287
55.4247
55.4208
55.4168
55.4128
55.4088
55.4049
55.4009
55.3969
55.3929
55.389
55.385
55.381
55.377
55.3731
55.3691
55.3651
55.3611
55.3572
55.3532
55.3492
55.3452
55.3413
55.3373
55.3333
55.3293
55.3254
55.3214
55.3174
55.3134
55.3094
55.3055
55.3015
55.2975
55.2935
55.2896
55.2856
55.2816
55.2776
55.2736
55.2697
55.2657
55.2617
55.2577
55.2537
55.2497
55.2458
55.2418
55.2378
55.2338
55.2298
55.2259
55.2219
55.2179
55.2139
55.2099
55.2059
55.202
55.198
55.194
55.19
55.186
55.182
55.178
55.1741
55.1701
55.1661
55.1621
55.1581
55.1541
55.1501
55.1461
55.1422
55.1382
55.1342
55.1302
55.1262
55.1222
55.1182
55.1142
55.1102
55.1063
55.1023
55.0983
55.0943
55.0903
55.0863
55.0823
55.0783
55.0743
55.0703
55.0663
55.0624
55.0584
55.0544
55.0504
55.0464
55.0424
55.0384
55.0344
55.0304
55.0264
55.0224
55.0184
55.0144
55.0104
55.0064
55.0024
54.9984
54.9944
54.9904
54.9864
54.9824
54.9784
54.9744
54.9704
54.9664
54.9624
54.9584
54.9544
54.9504
54.9464
54.9424
54.9384
54.9344
54.9304
54.9264
54.9224
54.9184
54.9144
54.9104
54.9064
54.9024
54.8984
54.8944
54.8904
54.8864
54.8824
54.8784
54.8744
54.8704
54.8664
54.8624
54.8583
54.8543
54.8503
54.8463
54.8423
54.8383
54.8343
54.8303
54.8263
54.8223
54.8183
54.8142
54.8102
54.8062
54.8022
54.7982
54.7942
54.7902
54.7862
54.7821
54.7781
54.7741
54.7701
54.7661
54.7621
54.7581
54.754
54.75
54.746
54.742
54.738
54.734
54.7299
54.7259
54.7219
54.7179
54.7139
54.7099
54.7058
54.7018
54.6978
54.6938
54.6898
54.6857
54.6817
54.6777
54.6737
54.6697
54.6656
54.6616
54.6616
56.7008
56.7008
56.4367
56.3909
56.3696
56.3547
56.3425
56.3316
56.3215
56.3119
56.3027
56.2938
56.2852
56.2768
56.2686
56.2605
56.2527
56.245
56.2375
56.2301
56.2228
56.2158
56.2088
56.2019
56.1952
56.1886
56.1821
56.1757
56.1694
56.1631
56.157
56.151
56.145
56.1391
56.1333
56.1276
56.122
56.1164
56.1109
56.1055
56.1002
56.095
56.0898
56.0848
56.0799
56.075
56.0702
56.0655
56.0608
56.0562
56.0516
56.0471
56.0426
56.0382
56.0339
56.0295
56.0252
56.0209
56.0166
56.0123
56.0081
56.0039
55.9997
55.9956
55.9915
55.9874
55.9833
55.9793
55.9753
55.9713
55.9673
55.9634
55.9594
55.9555
55.9515
55.9476
55.9436
55.9396
55.9357
55.9317
55.9278
55.9238
55.9199
55.9159
55.912
55.908
55.9041
55.9001
55.8962
55.8922
55.8883
55.8843
55.8804
55.8764
55.8725
55.8685
55.8646
55.8606
55.8567
55.8527
55.8487
55.8448
55.8408
55.8369
55.8329
55.829
55.825
55.8211
55.8171
55.8132
55.8092
55.8052
55.8013
55.7973
55.7934
55.7894
55.7855
55.7815
55.7776
55.7736
55.7696
55.7657
55.7617
55.7578
55.7538
55.7499
55.7459
55.7419
55.738
55.734
55.7301
55.7261
55.7221
55.7182
55.7142
55.7103
55.7063
55.7023
55.6984
55.6944
55.6905
55.6865
55.6825
55.6786
55.6746
55.6707
55.6667
55.6627
55.6588
55.6548
55.6509
55.6469
55.6429
55.639
55.635
55.631
55.6271
55.6231
55.6192
55.6152
55.6112
55.6073
55.6033
55.5993
55.5954
55.5914
55.5874
55.5835
55.5795
55.5755
55.5716
55.5676
55.5636
55.5597
55.5557
55.5517
55.5478
55.5438
55.5398
55.5359
55.5319
55.5279
55.524
55.52
55.516
55.5121
55.5081
55.5041
55.5002
55.4962
55.4922
55.4883
55.4843
55.4803
55.4764
55.4724
55.4684
55.4644
55.4605
55.4565
55.4525
55.4486
55.4446
55.4406
55.4366
55.4327
55.4287
55.4247
55.4208
55.4168
55.4128
55.4088
55.4049
55.4009
55.3969
55.3929
55.389
55.385
55.381
55.377
55.3731
55.3691
55.3651
55.3611
55.3572
55.3532
55.3492
55.3452
55.3413
55.3373
55.3333
55.3293
55.3254
55.3214
55.3174
55.3134
55.3094
55.3055
55.3015
55.2975
55.2935
55.2896
55.2856
55.2816
55.2776
55.2736
55.2697
55.2657
55.2617
55.2577
55.2537
55.2497
55.2458
55.2418
55.2378
55.2338
55.2298
55.2259
55.2219
55.2179
55.2139
55.2099
55.2059
55.202
55.198
55.194
55.19
55.186
55.182
55.178
55.1741
55.1701
55.1661
55.1621
55.1581
55.1541
55.1501
55.1461
55.1422
55.1382
55.1342
55.1302
55.1262
55.1222
55.1182
55.1142
55.1102
55.1063
55.1023
55.0983
55.0943
55.0903
55.0863
55.0823
55.0783
55.0743
55.0703
55.0663
55.0624
55.0584
55.0544
55.0504
55.0464
55.0424
55.0384
55.0344
55.0304
55.0264
55.0224
55.0184
55.0144
55.0104
55.0064
55.0024
54.9984
54.9944
54.9904
54.9864
54.9824
54.9784
54.9744
54.9704
54.9664
54.9624
54.9584
54.9544
54.9504
54.9464
54.9424
54.9384
54.9344
54.9304
54.9264
54.9224
54.9184
54.9144
54.9104
54.9064
54.9024
54.8984
54.8944
54.8904
54.8864
54.8824
54.8784
54.8744
54.8704
54.8664
54.8624
54.8583
54.8543
54.8503
54.8463
54.8423
54.8383
54.8343
54.8303
54.8263
54.8223
54.8183
54.8142
54.8102
54.8062
54.8022
54.7982
54.7942
54.7902
54.7862
54.7821
54.7781
54.7741
54.7701
54.7661
54.7621
54.7581
54.754
54.75
54.746
54.742
54.738
54.734
54.7299
54.7259
54.7219
54.7179
54.7139
54.7099
54.7058
54.7018
54.6978
54.6938
54.6898
54.6857
54.6817
54.6777
54.6737
54.6697
54.6656
54.6616
54.6616
56.6849
56.6849
56.4395
56.3921
56.3702
56.3551
56.3428
56.3318
56.3217
56.3121
56.3028
56.2939
56.2853
56.2768
56.2686
56.2606
56.2527
56.245
56.2375
56.2301
56.2229
56.2158
56.2088
56.202
56.1952
56.1886
56.1821
56.1757
56.1694
56.1631
56.157
56.151
56.145
56.1391
56.1333
56.1276
56.122
56.1164
56.1109
56.1055
56.1002
56.095
56.0899
56.0848
56.0799
56.075
56.0702
56.0655
56.0608
56.0562
56.0516
56.0471
56.0427
56.0382
56.0339
56.0295
56.0252
56.0209
56.0166
56.0123
56.0081
56.0039
55.9997
55.9956
55.9915
55.9874
55.9833
55.9793
55.9753
55.9713
55.9673
55.9634
55.9594
55.9555
55.9515
55.9476
55.9436
55.9396
55.9357
55.9317
55.9278
55.9238
55.9199
55.9159
55.912
55.908
55.9041
55.9001
55.8962
55.8922
55.8883
55.8843
55.8804
55.8764
55.8725
55.8685
55.8646
55.8606
55.8567
55.8527
55.8487
55.8448
55.8408
55.8369
55.8329
55.829
55.825
55.8211
55.8171
55.8132
55.8092
55.8052
55.8013
55.7973
55.7934
55.7894
55.7855
55.7815
55.7776
55.7736
55.7696
55.7657
55.7617
55.7578
55.7538
55.7499
55.7459
55.7419
55.738
55.734
55.7301
55.7261
55.7221
55.7182
55.7142
55.7103
55.7063
55.7023
55.6984
55.6944
55.6905
55.6865
55.6825
55.6786
55.6746
55.6707
55.6667
55.6627
55.6588
55.6548
55.6509
55.6469
55.6429
55.639
55.635
55.631
55.6271
55.6231
55.6192
55.6152
55.6112
55.6073
55.6033
55.5993
55.5954
55.5914
55.5874
55.5835
55.5795
55.5755
55.5716
55.5676
55.5636
55.5597
55.5557
55.5517
55.5478
55.5438
55.5398
55.5359
55.5319
55.5279
55.524
55.52
55.516
55.5121
55.5081
55.5041
55.5002
55.4962
55.4922
55.4883
55.4843
55.4803
55.4764
55.4724
55.4684
55.4644
55.4605
55.4565
55.4525
55.4486
55.4446
55.4406
55.4366
55.4327
55.4287
55.4247
55.4208
55.4168
55.4128
55.4088
55.4049
55.4009
55.3969
55.3929
55.389
55.385
55.381
55.377
55.3731
55.3691
55.3651
55.3611
55.3572
55.3532
55.3492
55.3452
55.3413
55.3373
55.3333
55.3293
55.3254
55.3214
55.3174
55.3134
55.3094
55.3055
55.3015
55.2975
55.2935
55.2896
55.2856
55.2816
55.2776
55.2736
55.2697
55.2657
55.2617
55.2577
55.2537
55.2497
55.2458
55.2418
55.2378
55.2338
55.2298
55.2259
55.2219
55.2179
55.2139
55.2099
55.2059
55.202
55.198
55.194
55.19
55.186
55.182
55.178
55.1741
55.1701
55.1661
55.1621
55.1581
55.1541
55.1501
55.1461
55.1422
55.1382
55.1342
55.1302
55.1262
55.1222
55.1182
55.1142
55.1102
55.1063
55.1023
55.0983
55.0943
55.0903
55.0863
55.0823
55.0783
55.0743
55.0703
55.0663
55.0624
55.0584
55.0544
55.0504
55.0464
55.0424
55.0384
55.0344
55.0304
55.0264
55.0224
55.0184
55.0144
55.0104
55.0064
55.0024
54.9984
54.9944
54.9904
54.9864
54.9824
54.9784
54.9744
54.9704
54.9664
54.9624
54.9584
54.9544
54.9504
54.9464
54.9424
54.9384
54.9344
54.9304
54.9264
54.9224
54.9184
54.9144
54.9104
54.9064
54.9024
54.8984
54.8944
54.8904
54.8864
54.8824
54.8784
54.8744
54.8704
54.8664
54.8624
54.8583
54.8543
54.8503
54.8463
54.8423
54.8383
54.8343
54.8303
54.8263
54.8223
54.8183
54.8142
54.8102
54.8062
54.8022
54.7982
54.7942
54.7902
54.7862
54.7821
54.7781
54.7741
54.7701
54.7661
54.7621
54.7581
54.754
54.75
54.746
54.742
54.738
54.734
54.7299
54.7259
54.7219
54.7179
54.7139
54.7099
54.7058
54.7018
54.6978
54.6938
54.6898
54.6857
54.6817
54.6777
54.6737
54.6697
54.6656
54.6616
54.6616
56.6698
56.6698
56.4423
56.3932
56.3708
56.3555
56.343
56.332
56.3218
56.3122
56.3029
56.294
56.2853
56.2769
56.2687
56.2606
56.2528
56.2451
56.2375
56.2301
56.2229
56.2158
56.2088
56.202
56.1952
56.1886
56.1821
56.1757
56.1694
56.1632
56.157
56.151
56.145
56.1391
56.1333
56.1276
56.122
56.1164
56.1109
56.1055
56.1002
56.095
56.0899
56.0848
56.0799
56.075
56.0702
56.0655
56.0608
56.0562
56.0516
56.0471
56.0427
56.0382
56.0339
56.0295
56.0252
56.0209
56.0166
56.0123
56.0081
56.0039
55.9997
55.9956
55.9915
55.9874
55.9833
55.9793
55.9753
55.9713
55.9673
55.9634
55.9594
55.9555
55.9515
55.9476
55.9436
55.9396
55.9357
55.9317
55.9278
55.9238
55.9199
55.9159
55.912
55.908
55.9041
55.9001
55.8962
55.8922
55.8883
55.8843
55.8804
55.8764
55.8725
55.8685
55.8646
55.8606
55.8567
55.8527
55.8487
55.8448
55.8408
55.8369
55.8329
55.829
55.825
55.8211
55.8171
55.8132
55.8092
55.8052
55.8013
55.7973
55.7934
55.7894
55.7855
55.7815
55.7776
55.7736
55.7696
55.7657
55.7617
55.7578
55.7538
55.7499
55.7459
55.7419
55.738
55.734
55.7301
55.7261
55.7221
55.7182
55.7142
55.7103
55.7063
55.7023
55.6984
55.6944
55.6905
55.6865
55.6825
55.6786
55.6746
55.6707
55.6667
55.6627
55.6588
55.6548
55.6509
55.6469
55.6429
55.639
55.635
55.631
55.6271
55.6231
55.6192
55.6152
55.6112
55.6073
55.6033
55.5993
55.5954
55.5914
55.5874
55.5835
55.5795
55.5755
55.5716
55.5676
55.5636
55.5597
55.5557
55.5517
55.5478
55.5438
55.5398
55.5359
55.5319
55.5279
55.524
55.52
55.516
55.5121
55.5081
55.5041
55.5002
55.4962
55.4922
55.4883
55.4843
55.4803
55.4764
55.4724
55.4684
55.4644
55.4605
55.4565
55.4525
55.4486
55.4446
55.4406
55.4366
55.4327
55.4287
55.4247
55.4208
55.4168
55.4128
55.4088
55.4049
55.4009
55.3969
55.3929
55.389
55.385
55.381
55.377
55.3731
55.3691
55.3651
55.3611
55.3572
55.3532
55.3492
55.3452
55.3413
55.3373
55.3333
55.3293
55.3254
55.3214
55.3174
55.3134
55.3094
55.3055
55.3015
55.2975
55.2935
55.2896
55.2856
55.2816
55.2776
55.2736
55.2697
55.2657
55.2617
55.2577
55.2537
55.2497
55.2458
55.2418
55.2378
55.2338
55.2298
55.2259
55.2219
55.2179
55.2139
55.2099
55.2059
55.202
55.198
55.194
55.19
55.186
55.182
55.178
55.1741
55.1701
55.1661
55.1621
55.1581
55.1541
55.1501
55.1461
55.1422
55.1382
55.1342
55.1302
55.1262
55.1222
55.1182
55.1142
55.1102
55.1063
55.1023
55.0983
55.0943
55.0903
55.0863
55.0823
55.0783
55.0743
55.0703
55.0663
55.0624
55.0584
55.0544
55.0504
55.0464
55.0424
55.0384
55.0344
55.0304
55.0264
55.0224
55.0184
55.0144
55.0104
55.0064
55.0024
54.9984
54.9944
54.9904
54.9864
54.9824
54.9784
54.9744
54.9704
54.9664
54.9624
54.9584
54.9544
54.9504
54.9464
54.9424
54.9384
54.9344
54.9304
54.9264
54.9224
54.9184
54.9144
54.9104
54.9064
54.9024
54.8984
54.8944
54.8904
54.8864
54.8824
54.8784
54.8744
54.8704
54.8664
54.8624
54.8583
54.8543
54.8503
54.8463
54.8423
54.8383
54.8343
54.8303
54.8263
54.8223
54.8183
54.8142
54.8102
54.8062
54.8022
54.7982
54.7942
54.7902
54.7862
54.7821
54.7781
54.7741
54.7701
54.7661
54.7621
54.7581
54.754
54.75
54.746
54.742
54.738
54.734
54.7299
54.7259
54.7219
54.7179
54.7139
54.7099
54.7058
54.7018
54.6978
54.6938
54.6898
54.6857
54.6817
54.6777
54.6737
54.6697
54.6656
54.6616
54.6616
56.6558
56.6558
56.4448
56.3943
56.3714
56.3559
56.3433
56.3322
56.322
56.3123
56.303
56.2941
56.2854
56.277
56.2687
56.2607
56.2528
56.2451
56.2376
56.2302
56.2229
56.2158
56.2089
56.202
56.1953
56.1886
56.1821
56.1757
56.1694
56.1632
56.157
56.151
56.145
56.1391
56.1333
56.1276
56.122
56.1164
56.1109
56.1055
56.1002
56.095
56.0899
56.0848
56.0799
56.075
56.0702
56.0655
56.0608
56.0562
56.0516
56.0471
56.0427
56.0382
56.0339
56.0295
56.0252
56.0209
56.0166
56.0123
56.0081
56.0039
55.9997
55.9956
55.9915
55.9874
55.9833
55.9793
55.9753
55.9713
55.9673
55.9634
55.9594
55.9555
55.9515
55.9476
55.9436
55.9396
55.9357
55.9317
55.9278
55.9238
55.9199
55.9159
55.912
55.908
55.9041
55.9001
55.8962
55.8922
55.8883
55.8843
55.8804
55.8764
55.8725
55.8685
55.8646
55.8606
55.8567
55.8527
55.8487
55.8448
55.8408
55.8369
55.8329
55.829
55.825
55.8211
55.8171
55.8132
55.8092
55.8052
55.8013
55.7973
55.7934
55.7894
55.7855
55.7815
55.7776
55.7736
55.7696
55.7657
55.7617
55.7578
55.7538