# vtk DataFile Version 2.0
FlowField
ASCII
DATASET STRUCTURED_GRID
DIMENSIONS 400 1 200
POINTS 80000 float
0 0 0
0.08 0 0
0.16 0 0
0.24 0 0
0.32 0 0
0.4 0 0
0.48 0 0
0.56 0 0
0.64 0 0
0.72 0 0
0.8 0 0
0.88 0 0
0.96 0 0
1.04 0 0
1.12 0 0
1.2 0 0
1.28 0 0
1.36 0 0
1.44 0 0
1.52 0 0
1.6 0 0
1.68 0 0
1.76 0 0
1.84 0 0
1.92 0 0
2 0 0
2.08 0 0
2.16 0 0
2.24 0 0
2.32 0 0
2.4 0 0
2.48 0 0
2.56 0 0
2.64 0 0
2.72 0 0
2.8 0 0
2.88 0 0
2.96 0 0
3.04 0 0
3.12 0 0
3.2 0 0
3.28 0 0
3.36 0 0
3.44 0 0
3.52 0 0
3.6 0 0
3.68 0 0
3.76 0 0
3.84 0 0
3.92 0 0
4 0 0
4.08 0 0
4.16 0 0
4.24 0 0
4.32 0 0
4.4 0 0
4.48 0 0
4.56 0 0
4.64 0 0
4.72 0 0
4.8 0 0
4.88 0 0
4.96 0 0
5.04 0 0
5.12 0 0
5.2 0 0
5.28 0 0
5.36 0 0
5.44 0 0
5.52 0 0
5.6 0 0
5.68 0 0
5.76 0 0
5.84 0 0
5.92 0 0
6 0 0
6.08 0 0
6.16 0 0
6.24 0 0
6.32 0 0
6.4 0 0
6.48 0 0
6.56 0 0
6.64 0 0
6.72 0 0
6.8 0 0
6.88 0 0
6.96 0 0
7.04 0 0
7.12 0 0
7.2 0 0
7.28 0 0
7.36 0 0
7.44 0 0
7.52 0 0
7.6 0 0
7.68 0 0
7.76 0 0
7.84 0 0
7.92 0 0
8 0 0
8.08 0 0
8.16 0 0
8.24 0 0
8.32 0 0
8.4 0 0
8.48 0 0
8.56 0 0
8.64 0 0
8.72 0 0
8.8 0 0
8.88 0 0
8.96 0 0
9.04 0 0
9.12 0 0
9.2 0 0
9.28 0 0
9.36 0 0
9.44 0 0
9.52 0 0
9.6 0 0
9.68 0 0
9.76 0 0
9.84 0 0
9.92 0 0
10 0 0
10.08 0 0
10.16 0 0
10.24 0 0
10.32 0 0
10.4 0 0
10.48 0 0
10.56 0 0
10.64 0 0
10.72 0 0
10.8 0 0
10.88 0 0
10.96 0 0
11.04 0 0
11.12 0 0
11.2 0 0
11.28 0 0
11.36 0 0
11.44 0 0
11.52 0 0
11.6 0 0
11.68 0 0
11.76 0 0
11.84 0 0
11.92 0 0
12 0 0
12.08 0 0
12.16 0 0
12.24 0 0
12.32 0 0
12.4 0 0
12.48 0 0
12.56 0 0
12.64 0 0
12.72 0 0
12.8 0 0
12.88 0 0
12.96 0 0
13.04 0 0
13.12 0 0
13.2 0 0
13.28 0 0
13.36 0 0
13.44 0 0
13.52 0 0
13.6 0 0
13.68 0 0
13.76 0 0
13.84 0 0
13.92 0 0
14 0 0
14.08 0 0
14.16 0 0
14.24 0 0
14.32 0 0
14.4 0 0
14.48 0 0
14.56 0 0
14.64 0 0
14.72 0 0
14.8 0 0
14.88 0 0
14.96 0 0
15.04 0 0
15.12 0 0
15.2 0 0
15.28 0 0
15.36 0 0
15.44 0 0
15.52 0 0
15.6 0 0
15.68 0 0
15.76 0 0
15.84 0 0
15.92 0 0
16 0 0
16.08 0 0
16.16 0 0
16.24 0 0
16.32 0 0
16.4 0 0
16.48 0 0
16.56 0 0
16.64 0 0
16.72 0 0
16.8 0 0
16.88 0 0
16.96 0 0
17.04 0 0
17.12 0 0
17.2 0 0
17.28 0 0
17.36 0 0
17.44 0 0
17.52 0 0
17.6 0 0
17.68 0 0
17.76 0 0
17.84 0 0
17.92 0 0
18 0 0
18.08 0 0
18.16 0 0
18.24 0 0
18.32 0 0
18.4 0 0
18.48 0 0
18.56 0 0
18.64 0 0
18.72 0 0
18.8 0 0
18.88 0 0
18.96 0 0
19.04 0 0
19.12 0 0
19.2 0 0
19.28 0 0
19.36 0 0
19.44 0 0
19.52 0 0
19.6 0 0
19.68 0 0
19.76 0 0
19.84 0 0
19.92 0 0
20 0 0
20.08 0 0
20.16 0 0
20.24 0 0
20.32 0 0
20.4 0 0
20.48 0 0
20.56 0 0
20.64 0 0
20.72 0 0
20.8 0 0
20.88 0 0
20.96 0 0
21.04 0 0
21.12 0 0
21.2 0 0
21.28 0 0
21.36 0 0
21.44 0 0
21.52 0 0
21.6 0 0
21.68 0 0
21.76 0 0
21.84 0 0
21.92 0 0
22 0 0
22.08 0 0
22.16 0 0
22.24 0 0
22.32 0 0
22.4 0 0
22.48 0 0
22.56 0 0
22.64 0 0
22.72 0 0
22.8 0 0
22.88 0 0
22.96 0 0
23.04 0 0
23.12 0 0
23.2 0 0
23.28 0 0
23.36 0 0
23.44 0 0
23.52 0 0
23.6 0 0
23.68 0 0
23.76 0 0
23.84 0 0
23.92 0 0
24 0 0
24.08 0 0
24.16 0 0
24.24 0 0
24.32 0 0
24.4 0 0
24.48 0 0
24.56 0 0
24.64 0 0
24.72 0 0
24.8 0 0
24.88 0 0
24.96 0 0
25.04 0 0
25.12 0 0
25.2 0 0
25.28 0 0
25.36 0 0
25.44 0 0
25.52 0 0
25.6 0 0
25.68 0 0
25.76 0 0
25.84 0 0
25.92 0 0
26 0 0
26.08 0 0
26.16 0 0
26.24 0 0
26.32 0 0
26.4 0 0
26.48 0 0
26.56 0 0
26.64 0 0
26.72 0 0
26.8 0 0
26.88 0 0
26.96 0 0
27.04 0 0
27.12 0 0
27.2 0 0
27.28 0 0
27.36 0 0
27.44 0 0
27.52 0 0
27.6 0 0
27.68 0 0
27.76 0 0
27.84 0 0
27.92 0 0
28 0 0
28.08 0 0
28.16 0 0
28.24 0 0
28.32 0 0
28.4 0 0
28.48 0 0
28.56 0 0
28.64 0 0
28.72 0 0
28.8 0 0
28.88 0 0
28.96 0 0
29.04 0 0
29.12 0 0
29.2 0 0
29.28 0 0
29.36 0 0
29.44 0 0
29.52 0 0
29.6 0 0
29.68 0 0
29.76 0 0
29.84 0 0
29.92 0 0
30 0 0
30.08 0 0
30.16 0 0
30.24 0 0
30.32 0 0
30.4 0 0
30.48 0 0
30.56 0 0
30.64 0 0
30.72 0 0
30.8 0 0
30.88 0 0
30.96 0 0
31.04 0 0
31.12 0 0
31.2 0 0
31.28 0 0
31.36 0 0
31.44 0 0
31.52 0 0
31.6 0 0
31.68 0 0
31.76 0 0
31.84 0 0
31.92 0 0
0 0.005 0
0.08 0.005 0
0.16 0.005 0
0.24 0.005 0
0.32 0.005 0
0.4 0.005 0
0.48 0.005 0
0.56 0.005 0
0.64 0.005 0
0.72 0.005 0
0.8 0.005 0
0.88 0.005 0
0.96 0.005 0
1.04 0.005 0
1.12 0.005 0
1.2 0.005 0
1.28 0.005 0
1.36 0.005 0
1.44 0.005 0
1.52 0.005 0
1.6 0.005 0
1.68 0.005 0
1.76 0.005 0
1.84 0.005 0
1.92 0.005 0
2 0.005 0
2.08 0.005 0
2.16 0.005 0
2.24 0.005 0
2.32 0.005 0
2.4 0.005 0
2.48 0.005 0
2.56 0.005 0
2.64 0.005 0
2.72 0.005 0
2.8 0.005 0
2.88 0.005 0
2.96 0.005 0
3.04 0.005 0
3.12 0.005 0
3.2 0.005 0
3.28 0.005 0
3.36 0.005 0
3.44 0.005 0
3.52 0.005 0
3.6 0.005 0
3.68 0.005 0
3.76 0.005 0
3.84 0.005 0
3.92 0.005 0
4 0.005 0
4.08 0.005 0
4.16 0.005 0
4.24 0.005 0
4.32 0.005 0
4.4 0.005 0
4.48 0.005 0
4.56 0.005 0
4.64 0.005 0
4.72 0.005 0
4.8 0.005 0
4.88 0.005 0
4.96 0.005 0
5.04 0.005 0
5.12 0.005 0
5.2 0.005 0
5.28 0.005 0
5.36 0.005 0
5.44 0.005 0
5.52 0.005 0
5.6 0.005 0
5.68 0.005 0
5.76 0.005 0
5.84 0.005 0
5.92 0.005 0
6 0.005 0
6.08 0.005 0
6.16 0.005 0
6.24 0.005 0
6.32 0.005 0
6.4 0.005 0
6.48 0.005 0
6.56 0.005 0
6.64 0.005 0
6.72 0.005 0
6.8 0.005 0
6.88 0.005 0
6.96 0.005 0
7.04 0.005 0
7.12 0.005 0
7.2 0.005 0
7.28 0.005 0
7.36 0.005 0
7.44 0.005 0
7.52 0.005 0
7.6 0.005 0
7.68 0.005 0
7.76 0.005 0
7.84 0.005 0
7.92 0.005 0
8 0.005 0
8.08 0.005 0
8.16 0.005 0
8.24 0.005 0
8.32 0.005 0
8.4 0.005 0
8.48 0.005 0
8.56 0.005 0
8.64 0.005 0
8.72 0.005 0
8.8 0.005 0
8.88 0.005 0
8.96 0.005 0
9.04 0.005 0
9.12 0.005 0
9.2 0.005 0
9.28 0.005 0
9.36 0.005 0
9.44 0.005 0
9.52 0.005 0
9.6 0.005 0
9.68 0.005 0
9.76 0.005 0
9.84 0.005 0
9.92 0.005 0
10 0.005 0
10.08 0.005 0
10.16 0.005 0
10.24 0.005 0
10.32 0.005 0
10.4 0.005 0
10.48 0.005 0
10.56 0.005 0
10.64 0.005 0
10.72 0.005 0
10.8 0.005 0
10.88 0.005 0
10.96 0.005 0
11.04 0.005 0
11.12 0.005 0
11.2 0.005 0
11.28 0.005 0
11.36 0.005 0
11.44 0.005 0
11.52 0.005 0
11.6 0.005 0
11.68 0.005 0
11.76 0.005 0
11.84 0.005 0
11.92 0.005 0
12 0.005 0
12.08 0.005 0
12.16 0.005 0
12.24 0.005 0
12.32 0.005 0
12.4 0.005 0
12.48 0.005 0
12.56 0.005 0
12.64 0.005 0
12.72 0.005 0
12.8 0.005 0
12.88 0.005 0
12.96 0.005 0
13.04 0.005 0
13.12 0.005 0
13.2 0.005 0
13.28 0.005 0
13.36 0.005 0
13.44 0.005 0
13.52 0.005 0
13.6 0.005 0
13.68 0.005 0
13.76 0.005 0
13.84 0.005 0
13.92 0.005 0
14 0.005 0
14.08 0.005 0
14.16 0.005 0
14.24 0.005 0
14.32 0.005 0
14.4 0.005 0
14.48 0.005 0
14.56 0.005 0
14.64 0.005 0
14.72 0.005 0
14.8 0.005 0
14.88 0.005 0
14.96 0.005 0
15.04 0.005 0
15.12 0.005 0
15.2 0.005 0
15.28 0.005 0
15.36 0.005 0
15.44 0.005 0
15.52 0.005 0
15.6 0.005 0
15.68 0.005 0
15.76 0.005 0
15.84 0.005 0
15.92 0.005 0
16 0.005 0
16.08 0.005 0
16.16 0.005 0
16.24 0.005 0
16.32 0.005 0
16.4 0.005 0
16.48 0.005 0
16.56 0.005 0
16.64 0.005 0
16.72 0.005 0
16.8 0.005 0
16.88 0.005 0
16.96 0.005 0
17.04 0.005 0
17.12 0.005 0
17.2 0.005 0
17.28 0.005 0
17.36 0.005 0
17.44 0.005 0
17.52 0.005 0
17.6 0.005 0
17.68 0.005 0
17.76 0.005 0
17.84 0.005 0
17.92 0.005 0
18 0.005 0
18.08 0.005 0
18.16 0.005 0
18.24 0.005 0
18.32 0.005 0
18.4 0.005 0
18.48 0.005 0
18.56 0.005 0
18.64 0.005 0
18.72 0.005 0
18.8 0.005 0
18.88 0.005 0
18.96 0.005 0
19.04 0.005 0
19.12 0.005 0
19.2 0.005 0
19.28 0.005 0
19.36 0.005 0
19.44 0.005 0
19.52 0.005 0
19.6 0.005 0
19.68 0.005 0
19.76 0.005 0
19.84 0.005 0
19.92 0.005 0
20 0.005 0
20.08 0.005 0
20.16 0.005 0
20.24 0.005 0
20.32 0.005 0
20.4 0.005 0
20.48 0.005 0
20.56 0.005 0
20.64 0.005 0
20.72 0.005 0
20.8 0.005 0
20.88 0.005 0
20.96 0.005 0
21.04 0.005 0
21.12 0.005 0
21.2 0.005 0
21.28 0.005 0
21.36 0.005 0
21.44 0.005 0
21.52 0.005 0
21.6 0.005 0
21.68 0.005 0
21.76 0.005 0
21.84 0.005 0
21.92 0.005 0
22 0.005 0
22.08 0.005 0
22.16 0.005 0
22.24 0.005 0
22.32 0.005 0
22.4 0.005 0
22.48 0.005 0
22.56 0.005 0
22.64 0.005 0
22.72 0.005 0
22.8 0.005 0
22.88 0.005 0
22.96 0.005 0
23.04 0.005 0
23.12 0.005 0
23.2 0.005 0
23.28 0.005 0
23.36 0.005 0
23.44 0.005 0
23.52 0.005 0
23.6 0.005 0
23.68 0.005 0
23.76 0.005 0
23.84 0.005 0
23.92 0.005 0
24 0.005 0
24.08 0.005 0
24.16 0.005 0
24.24 0.005 0
24.32 0.005 0
24.4 0.005 0
24.48 0.005 0
24.56 0.005 0
24.64 0.005 0
24.72 0.005 0
24.8 0.005 0
24.88 0.005 0
24.96 0.005 0
25.04 0.005 0
25.12 0.005 0
25.2 0.005 0
25.28 0.005 0
25.36 0.005 0
25.44 0.005 0
25.52 0.005 0
25.6 0.005 0
25.68 0.005 0
25.76 0.005 0
25.84 0.005 0
25.92 0.005 0
26 0.005 0
26.08 0.005 0
26.16 0.005 0
26.24 0.005 0
26.32 0.005 0
26.4 0.005 0
26.48 0.005 0
26.56 0.005 0
26.64 0.005 0
26.72 0.005 0
26.8 0.005 0
26.88 0.005 0
26.96 0.005 0
27.04 0.005 0
27.12 0.005 0
27.2 0.005 0
27.28 0.005 0
27.36 0.005 0
27.44 0.005 0
27.52 0.005 0
27.6 0.005 0
27.68 0.005 0
27.76 0.005 0
27.84 0.005 0
27.92 0.005 0
28 0.005 0
28.08 0.005 0
28.16 0.005 0
28.24 0.005 0
28.32 0.005 0
28.4 0.005 0
28.48 0.005 0
28.56 0.005 0
28.64 0.005 0
28.72 0.005 0
28.8 0.005 0
28.88 0.005 0
28.96 0.005 0
29.04 0.005 0
29.12 0.005 0
29.2 0.005 0
29.28 0.005 0
29.36 0.005 0
29.44 0.005 0
29.52 0.005 0
29.6 0.005 0
29.68 0.005 0
29.76 0.005 0
29.84 0.005 0
29.92 0.005 0
30 0.005 0
30.08 0.005 0
30.16 0.005 0
30.24 0.005 0
30.32 0.005 0
30.4 0.005 0
30.48 0.005 0
30.56 0.005 0
30.64 0.005 0
30.72 0.005 0
30.8 0.005 0
30.88 0.005 0
30.96 0.005 0
31.04 0.005 0
31.12 0.005 0
31.2 0.005 0
31.28 0.005 0
31.36 0.005 0
31.44 0.005 0
31.52 0.005 0
31.6 0.005 0
31.68 0.005 0
31.76 0.005 0
31.84 0.005 0
31.92 0.005 0
0 0.01 0
0.08 0.01 0
0.16 0.01 0
0.24 0.01 0
0.32 0.01 0
0.4 0.01 0
0.48 0.01 0
0.56 0.01 0
0.64 0.01 0
0.72 0.01 0
0.8 0.01 0
0.88 0.01 0
0.96 0.01 0
1.04 0.01 0
1.12 0.01 0
1.2 0.01 0
1.28 0.01 0
1.36 0.01 0
1.44 0.01 0
1.52 0.01 0
1.6 0.01 0
1.68 0.01 0
1.76 0.01 0
1.84 0.01 0
1.92 0.01 0
2 0.01 0
2.08 0.01 0
2.16 0.01 0
2.24 0.01 0
2.32 0.01 0
2.4 0.01 0
2.48 0.01 0
2.56 0.01 0
2.64 0.01 0
2.72 0.01 0
2.8 0.01 0
2.88 0.01 0
2.96 0.01 0
3.04 0.01 0
3.12 0.01 0
3.2 0.01 0
3.28 0.01 0
3.36 0.01 0
3.44 0.01 0
3.52 0.01 0
3.6 0.01 0
3.68 0.01 0
3.76 0.01 0
3.84 0.01 0
3.92 0.01 0
4 0.01 0
4.08 0.01 0
4.16 0.01 0
4.24 0.01 0
4.32 0.01 0
4.4 0.01 0
4.48 0.01 0
4.56 0.01 0
4.64 0.01 0
4.72 0.01 0
4.8 0.01 0
4.88 0.01 0
4.96 0.01 0
5.04 0.01 0
5.12 0.01 0
[...]
POINT_DATA 80000

SCALARS p float 1
LOOKUP_TABLE default
1
56.5462
56.2445
56.2033
56.1832
56.1688
56.1568
56.146
56.136
56.1265
56.1174
56.1085
56.0999
56.0915
56.0833
56.0753
56.0674
56.0598
56.0523
56.0449
56.0377
56.0306
56.0236
56.0168
56.01
56.0034
55.9969
55.9905
55.9842
55.9779
55.9718
55.9657
55.9597
55.9538
55.948
55.9422
55.9365
55.9309
55.9253
55.9198
55.9143
55.9089
55.9036
55.8983
55.893
55.8878
55.8826
55.8775
55.8724
55.8674
55.8624
55.8574
55.8525
55.8476
55.8428
55.838
55.8332
55.8284
55.8237
55.819
55.8144
55.8097
55.8052
55.8006
55.796
55.7915
55.787
55.7826
55.7781
55.7737
55.7693
55.7649
55.7606
55.7563
55.752
55.7477
55.7434
55.7392
55.7349
55.7307
55.7266
55.7224
55.7182
55.7141
55.71
55.7059
55.7018
55.6977
55.6937
55.6897
55.6856
55.6816
55.6776
55.6737
55.6697
55.6657
55.6618
55.6579
55.654
55.6501
55.6462
55.6423
55.6385
55.6346
55.6308
55.627
55.6231
55.6193
55.6155
55.6118
55.608
55.6042
55.6005
55.5967
55.593
55.5893
55.5855
55.5818
55.5781
55.5744
55.5708
55.5671
55.5634
55.5598
55.5561
55.5525
55.5488
55.5452
55.5416
55.538
55.5344
55.5308
55.5272
55.5236
55.52
55.5164
55.5129
55.5093
55.5057
55.5022
55.4987
55.4951
55.4916
55.488
55.4845
55.481
55.4775
55.474
55.4705
55.467
55.4635
55.46
55.4565
55.453
55.4496
55.4461
55.4426
55.4392
55.4357
55.4322
55.4288
55.4253
55.4219
55.4184
55.415
55.4116
55.4081
55.4047
55.4013
55.3979
55.3945
55.391
55.3876
55.3842
55.3808
55.3774
55.374
55.3706
55.3672
55.3638
55.3605
55.3571
55.3537
55.3503
55.3469
55.3436
55.3402
55.3368
55.3335
55.3301
55.3267
55.3234
55.32
55.3167
55.3133
55.31
55.3066
55.3033
55.2999
55.2966
55.2933
55.2899
55.2866
55.2833
55.2799
55.2766
55.2733
55.27
55.2666
55.2633
55.26
55.2567
55.2534
55.2501
55.2468
55.2434
55.2401
55.2368
55.2335
55.2302
55.2269
55.2236
55.2203
55.217
55.2137
55.2104
55.2071
55.2038
55.2005
55.1972
55.1939
55.1906
55.1873
55.184
55.1808
55.1775
55.1742
55.1709
55.1676
55.1643
55.161
55.1577
55.1544
55.1511
55.1478
55.1446
55.1413
55.138
55.1347
55.1314
55.1281
55.1248
55.1215
55.1183
55.115
55.1117
55.1084
55.1051
55.1018
55.0985
55.0952
55.0919
55.0887
55.0854
55.0821
55.0788
55.0755
55.0722
55.0689
55.0656
55.0624
55.0591
55.0558
55.0525
55.0492
55.0459
55.0426
55.0393
55.0361
55.0328
55.0295
55.0262
55.0229
55.0196
55.0163
55.013
55.0097
55.0065
55.0032
54.9999
54.9966
54.9933
54.99
54.9867
54.9834
54.9802
54.9769
54.9736
54.9703
54.967
54.9637
54.9604
54.9571
54.9538
54.9506
54.9473
54.944
54.9407
54.9374
54.9341
54.9308
54.9275
54.9243
54.921
54.9177
54.9144
54.9111
54.9078
54.9045
54.9012
54.8979
54.8947
54.8914
54.8881
54.8848
54.8815
54.8782
54.8749
54.8716
54.8684
54.8651
54.8618
54.8585
54.8552
54.8519
54.8486
54.8453
54.842
54.8388
54.8355
54.8322
54.8289
54.8256
54.8223
54.819
54.8157
54.8125
54.8092
54.8059
54.8026
54.7993
54.796
54.7927
54.7894
54.7861
54.7829
54.7796
54.7763
54.773
54.7697
54.7664
54.7631
54.7598
54.7565
54.7533
54.75
54.7467
54.7434
54.7401
54.7368
54.7335
54.7302
54.7269
54.7237
54.7204
54.7171
54.7138
54.7105
54.7072
54.7039
54.7006
54.6974
54.6941
54.6908
54.6875
54.6842
54.6809
54.6776
54.6743
54.671
54.6678
54.6645
54.6612
54.6579
54.6546
54.6513
54.648
54.6447
54.6414
0.5
56.5462
56.5462
56.2445
56.2033
56.1832
56.1688
56.1568
56.146
56.136
56.1265
56.1174
56.1085
56.0999
56.0915
56.0833
56.0753
56.0674
56.0598
56.0523
56.0449
56.0377
56.0306
56.0236
56.0168
56.01
56.0034
55.9969
55.9905
55.9842
55.9779
55.9718
55.9657
55.9597
55.9538
55.948
55.9422
55.9365
55.9309
55.9253
55.9198
55.9143
55.9089
55.9036
55.8983
55.893
55.8878
55.8826
55.8775
55.8724
55.8674
55.8624
55.8574
55.8525
55.8476
55.8428
55.838
55.8332
55.8284
55.8237
55.819
55.8144
55.8097
55.8052
55.8006
55.796
55.7915
55.787
55.7826
55.7781
55.7737
55.7693
55.7649
55.7606
55.7563
55.752
55.7477
55.7434
55.7392
55.7349
55.7307
55.7266
55.7224
55.7182
55.7141
55.71
55.7059
55.7018
55.6977
55.6937
55.6897
55.6856
55.6816
55.6776
55.6737
55.6697
55.6657
55.6618
55.6579
55.654
55.6501
55.6462
55.6423
55.6385
55.6346
55.6308
55.627
55.6231
55.6193
55.6155
55.6118
55.608
55.6042
55.6005
55.5967
55.593
55.5893
55.5855
55.5818
55.5781
55.5744
55.5708
55.5671
55.5634
55.5598
55.5561
55.5525
55.5488
55.5452
55.5416
55.538
55.5344
55.5308
55.5272
55.5236
55.52
55.5164
55.5129
55.5093
55.5057
55.5022
55.4987
55.4951
55.4916
55.488
55.4845
55.481
55.4775
55.474
55.4705
55.467
55.4635
55.46
55.4565
55.453
55.4496
55.4461
55.4426
55.4392
55.4357
55.4322
55.4288
55.4253
55.4219
55.4184
55.415
55.4116
55.4081
55.4047
55.4013
55.3979
55.3945
55.391
55.3876
55.3842
55.3808
55.3774
55.374
55.3706
55.3672
55.3638
55.3605
55.3571
55.3537
55.3503
55.3469
55.3436
55.3402
55.3368
55.3335
55.3301
55.3267
55.3234
55.32
55.3167
55.3133
55.31
55.3066
55.3033
55.2999
55.2966
55.2933
55.2899
55.2866
55.2833
55.2799
55.2766
55.2733
55.27
55.2666
55.2633
55.26
55.2567
55.2534
55.2501
55.2468
55.2434
55.2401
55.2368
55.2335
55.2302
55.2269
55.2236
55.2203
55.217
55.2137
55.2104
55.2071
55.2038
55.2005
55.1972
55.1939
55.1906
55.1873
55.184
55.1808
55.1775
55.1742
55.1709
55.1676
55.1643
55.161
55.1577
55.1544
55.1511
55.1478
55.1446
55.1413
55.138
55.1347
55.1314
55.1281
55.1248
55.1215
55.1183
55.115
55.1117
55.1084
55.1051
55.1018
55.0985
55.0952
55.0919
55.0887
55.0854
55.0821
55.0788
55.0755
55.0722
55.0689
55.0656
55.0624
55.0591
55.0558
55.0525
55.0492
55.0459
55.0426
55.0393
55.0361
55.0328
55.0295
55.0262
55.0229
55.0196
55.0163
55.013
55.0097
55.0065
55.0032
54.9999
54.9966
54.9933
54.99
54.9867
54.9834
54.9802
54.9769
54.9736
54.9703
54.967
54.9637
54.9604
54.9571
54.9538
54.9506
54.9473
54.944
54.9407
54.9374
54.9341
54.9308
54.9275
54.9243
54.921
54.9177
54.9144
54.9111
54.9078
54.9045
54.9012
54.8979
54.8947
54.8914
54.8881
54.8848
54.8815
54.8782
54.8749
54.8716
54.8684
54.8651
54.8618
54.8585
54.8552
54.8519
54.8486
54.8453
54.842
54.8388
54.8355
54.8322
54.8289
54.8256
54.8223
54.819
54.8157
54.8125
54.8092
54.8059
54.8026
54.7993
54.796
54.7927
54.7894
54.7861
54.7829
54.7796
54.7763
54.773
54.7697
54.7664
54.7631
54.7598
54.7565
54.7533
54.75
54.7467
54.7434
54.7401
54.7368
54.7335
54.7302
54.7269
54.7237
54.7204
54.7171
54.7138
54.7105
54.7072
54.7039
54.7006
54.6974
54.6941
54.6908
54.6875
54.6842
54.6809
54.6776
54.6743
54.671
54.6678
54.6645
54.6612
54.6579
54.6546
54.6513
54.648
54.6447
54.6414
54.6414
56.5316
56.5316
56.2483
56.2045
56.1838
56.1692
56.1571
56.1462
56.1362
56.1267
56.1175
56.1086
56.1
56.0916
56.0834
56.0753
56.0675
56.0598
56.0523
56.0449
56.0377
56.0306
56.0236
56.0168
56.0101
56.0034
55.9969
55.9905
55.9842
55.978
55.9718
55.9657
55.9598
55.9539
55.948
55.9422
55.9365
55.9309
55.9253
55.9198
55.9143
55.9089
55.9036
55.8983
55.893
55.8878
55.8826
55.8775
55.8724
55.8674
55.8624
55.8574
55.8525
55.8476
55.8428
55.838
55.8332
55.8284
55.8237
55.819
55.8144
55.8098
55.8052
55.8006
55.796
55.7915
55.787
55.7826
55.7781
55.7737
55.7693
55.7649
55.7606
55.7563
55.752
55.7477
55.7434
55.7392
55.7349
55.7307
55.7266
55.7224
55.7182
55.7141
55.71
55.7059
55.7018
55.6977
55.6937
55.6897
55.6856
55.6816
55.6776
55.6737
55.6697
55.6657
55.6618
55.6579
55.654
55.6501
55.6462
55.6423
55.6385
55.6346
55.6308
55.627
55.6231
55.6193
55.6155
55.6118
55.608
55.6042
55.6005
55.5967
55.593
55.5893
55.5855
55.5818
55.5781
55.5744
55.5708
55.5671
55.5634
55.5598
55.5561
55.5525
55.5488
55.5452
55.5416
55.538
55.5344
55.5308
55.5272
55.5236
55.52
55.5164
55.5129
55.5093
55.5057
55.5022
55.4987
55.4951
55.4916
55.488
55.4845
55.481
55.4775
55.474
55.4705
55.467
55.4635
55.46
55.4565
55.453
55.4496
55.4461
55.4426
55.4392
55.4357
55.4322
55.4288
55.4253
55.4219
55.4184
55.415
55.4116
55.4081
55.4047
55.4013
55.3979
55.3945
55.391
55.3876
55.3842
55.3808
55.3774
55.374
55.3706
55.3672
55.3638
55.3605
55.3571
55.3537
55.3503
55.3469
55.3436
55.3402
55.3368
55.3335
55.3301
55.3267
55.3234
55.32
55.3167
55.3133
55.31
55.3066
55.3033
55.2999
55.2966
55.2933
55.2899
55.2866
55.2833
55.2799
55.2766
55.2733
55.27
55.2666
55.2633
55.26
55.2567
55.2534
55.2501
55.2468
55.2434
55.2401
55.2368
55.2335
55.2302
55.2269
55.2236
55.2203
55.217
55.2137
55.2104
55.2071
55.2038
55.2005
55.1972
55.1939
55.1906
55.1873
55.184
55.1808
55.1775
55.1742
55.1709
55.1676
55.1643
55.161
55.1577
55.1544
55.1511
55.1478
55.1446
55.1413
55.138
55.1347
55.1314
55.1281
55.1248
55.1215
55.1183
55.115
55.1117
55.1084
55.1051
55.1018
55.0985
55.0952
55.0919
55.0887
55.0854
55.0821
55.0788
55.0755
55.0722
55.0689
55.0656
55.0624
55.0591
55.0558
55.0525
55.0492
55.0459
55.0426
55.0393
55.0361
55.0328
55.0295
55.0262
55.0229
55.0196
55.0163
55.013
55.0097
55.0065
55.0032
54.9999
54.9966
54.9933
54.99
54.9867
54.9834
54.9802
54.9769
54.9736
54.9703
54.967
54.9637
54.9604
54.9571
54.9538
54.9506
54.9473
54.944
54.9407
54.9374
54.9341
54.9308
54.9275
54.9243
54.921
54.9177
54.9144
54.9111
54.9078
54.9045
54.9012
54.8979
54.8947
54.8914
54.8881
54.8848
54.8815
54.8782
54.8749
54.8716
54.8684
54.8651
54.8618
54.8585
54.8552
54.8519
54.8486
54.8453
54.842
54.8388
54.8355
54.8322
54.8289
54.8256
54.8223
54.819
54.8157
54.8125
54.8092
54.8059
54.8026
54.7993
54.796
54.7927
54.7894
54.7861
54.7829
54.7796
54.7763
54.773
54.7697
54.7664
54.7631
54.7598
54.7565
54.7533
54.75
54.7467
54.7434
54.7401
54.7368
54.7335
54.7302
54.7269
54.7237
54.7204
54.7171
54.7138
54.7105
54.7072
54.7039
54.7006
54.6974
54.6941
54.6908
54.6875
54.6842
54.6809
54.6776
54.6743
54.671
54.6678
54.6645
54.6612
54.6579
54.6546
54.6513
54.648
54.6447
54.6414
54.6414
56.5156
56.5156
56.2515
56.2057
56.1845
56.1696
56.1573
56.1464
56.1363
56.1268
56.1176
56.1087
56.1
56.0916
56.0834
56.0754
56.0675
56.0598
56.0523
56.0449
56.0377
56.0306
56.0236
56.0168
56.0101
56.0035
55.9969
55.9905
55.9842
55.978
55.9718
55.9658
55.9598
55.9539
55.948
55.9423
55.9366
55.9309
55.9253
55.9198
55.9144
55.9089
55.9036
55.8983
55.893
55.8878
55.8826
55.8775
55.8724
55.8674
55.8624
55.8574
55.8525
55.8476
55.8428
55.838
55.8332
55.8284
55.8237
55.819
55.8144
55.8098
55.8052
55.8006
55.796
55.7915
55.787
55.7826
55.7781
55.7737
55.7693
55.7649
55.7606
55.7563
55.752
55.7477
55.7434
55.7392
55.735
55.7307
55.7266
55.7224
55.7182
55.7141
55.71
55.7059
55.7018
55.6977
55.6937
55.6897
55.6856
55.6816
55.6776
55.6737
55.6697
55.6658
55.6618
55.6579
55.654
55.6501
55.6462
55.6423
55.6385
55.6346
55.6308
55.627
55.6231
55.6193
55.6155
55.6118
55.608
55.6042
55.6005
55.5967
55.593
55.5893
55.5855
55.5818
55.5781
55.5744
55.5708
55.5671
55.5634
55.5598
55.5561
55.5525
55.5488
55.5452
55.5416
55.538
55.5344
55.5308
55.5272
55.5236
55.52
55.5164
55.5129
55.5093
55.5057
55.5022
55.4987
55.4951
55.4916
55.488
55.4845
55.481
55.4775
55.474
55.4705
55.467
55.4635
55.46
55.4565
55.453
55.4496
55.4461
55.4426
55.4392
55.4357
55.4322
55.4288
55.4253
55.4219
55.4184
55.415
55.4116
55.4081
55.4047
55.4013
55.3979
55.3945
55.391
55.3876
55.3842
55.3808
55.3774
55.374
55.3706
55.3672
55.3638
55.3605
55.3571
55.3537
55.3503
55.3469
55.3436
55.3402
55.3368
55.3335
55.3301
55.3267
55.3234
55.32
55.3167
55.3133
55.31
55.3066
55.3033
55.2999
55.2966
55.2933
55.2899
55.2866
55.2833
55.2799
55.2766
55.2733
55.27
55.2666
55.2633
55.26
55.2567
55.2534
55.2501
55.2468
55.2434
55.2401
55.2368
55.2335
55.2302
55.2269
55.2236
55.2203
55.217
55.2137
55.2104
55.2071
55.2038
55.2005
55.1972
55.1939
55.1906
55.1873
55.184
55.1808
55.1775
55.1742
55.1709
55.1676
55.1643
55.161
55.1577
55.1544
55.1511
55.1478
55.1446
55.1413
55.138
55.1347
55.1314
55.1281
55.1248
55.1215
55.1183
55.115
55.1117
55.1084
55.1051
55.1018
55.0985
55.0952
55.0919
55.0887
55.0854
55.0821
55.0788
55.0755
55.0722
55.0689
55.0656
55.0624
55.0591
55.0558
55.0525
55.0492
55.0459
55.0426
55.0393
55.0361
55.0328
55.0295
55.0262
55.0229
55.0196
55.0163
55.013
55.0097
55.0065
55.0032
54.9999
54.9966
54.9933
54.99
54.9867
54.9834
54.9802
54.9769
54.9736
54.9703
54.967
54.9637
54.9604
54.9571
54.9538
54.9506
54.9473
54.944
54.9407
54.9374
54.9341
54.9308
54.9275
54.9243
54.921
54.9177
54.9144
54.9111
54.9078
54.9045
54.9012
54.8979
54.8947
54.8914
54.8881
54.8848
54.8815
54.8782
54.8749
54.8716
54.8684
54.8651
54.8618
54.8585
54.8552
54.8519
54.8486
54.8453
54.842
54.8388
54.8355
54.8322
54.8289
54.8256
54.8223
54.819
54.8157
54.8125
54.8092
54.8059
54.8026
54.7993
54.796
54.7927
54.7894
54.7861
54.7829
54.7796
54.7763
54.773
54.7697
54.7664
54.7631
54.7598
54.7565
54.7533
54.75
54.7467
54.7434
54.7401
54.7368
54.7335
54.7302
54.7269
54.7237
54.7204
54.7171
54.7138
54.7105
54.7072
54.7039
54.7006
54.6974
54.6941
54.6908
54.6875
54.6842
54.6809
54.6776
54.6743
54.671
54.6678
54.6645
54.6612
54.6579
54.6546
54.6513
54.648
54.6447
54.6414
54.6414
56.4997
56.4997
56.2544
56.2069
56.1851
56.1699
56.1576
56.1466
56.1365
56.1269
56.1177
56.1088
56.1001
56.0917
56.0835
56.0754
56.0676
56.0599
56.0524
56.045
56.0377
56.0306
56.0237
56.0168
56.0101
56.0035
55.997
55.9905
55.9842
55.978
55.9718
55.9658
55.9598
55.9539
55.948
55.9423
55.9366
55.9309
55.9253
55.9198
55.9144
55.909
55.9036
55.8983
55.893
55.8878
55.8826
55.8775
55.8724
55.8674
55.8624
55.8575
55.8525
55.8476
55.8428
55.838
55.8332
55.8284
55.8237
55.819
55.8144
55.8098
55.8052
55.8006
55.7961
55.7915
55.787
55.7826
55.7781
55.7737
55.7693
55.765
55.7606
55.7563
55.752
55.7477
55.7434
55.7392
55.735
55.7307
55.7266
55.7224
55.7182
55.7141
55.71
55.7059
55.7018
55.6977
55.6937
55.6897
55.6856
55.6816
55.6776
55.6737
55.6697
55.6658
55.6618
55.6579
55.654
55.6501
55.6462
55.6423
55.6385
55.6346
55.6308
55.627
55.6231
55.6193
55.6155
55.6118
55.608
55.6042
55.6005
55.5967
55.593
55.5893
55.5855
55.5818
55.5781
55.5745
55.5708
55.5671
55.5634
55.5598
55.5561
55.5525
55.5488
55.5452
55.5416
55.538
55.5344
55.5308
55.5272
55.5236
55.52
55.5164
55.5129
55.5093
55.5057
55.5022
55.4987
55.4951
55.4916
55.4881
55.4845
55.481
55.4775
55.474
55.4705
55.467
55.4635
55.46
55.4565
55.453
55.4496
55.4461
55.4426
55.4392
55.4357
55.4322
55.4288
55.4253
55.4219
55.4184
55.415
55.4116
55.4081
55.4047
55.4013
55.3979
55.3945
55.391
55.3876
55.3842
55.3808
55.3774
55.374
55.3706
55.3672
55.3638
55.3605
55.3571
55.3537
55.3503
55.3469
55.3436
55.3402
55.3368
55.3335
55.3301
55.3267
55.3234
55.32
55.3167
55.3133
55.31
55.3066
55.3033
55.2999
55.2966
55.2933
55.2899
55.2866
55.2833
55.2799
55.2766
55.2733
55.27
55.2666
55.2633
55.26
55.2567
55.2534
55.2501
55.2468
55.2434
55.2401
55.2368
55.2335
55.2302
55.2269
55.2236
55.2203
55.217
55.2137
55.2104
55.2071
55.2038
55.2005
55.1972
55.1939
55.1906
55.1873
55.184
55.1808
55.1775
55.1742
55.1709
55.1676
55.1643
55.161
55.1577
55.1544
55.1511
55.1478
55.1446
55.1413
55.138
55.1347
55.1314
55.1281
55.1248
55.1215
55.1183
55.115
55.1117
55.1084
55.1051
55.1018
55.0985
55.0952
55.0919
55.0887
55.0854
55.0821
55.0788
55.0755
55.0722
55.0689
55.0656
55.0624
55.0591
55.0558
55.0525
55.0492
55.0459
55.0426
55.0393
55.0361
55.0328
55.0295
55.0262
55.0229
55.0196
55.0163
55.013
55.0097
55.0065
55.0032
54.9999
54.9966
54.9933
54.99
54.9867
54.9834
54.9802
54.9769
54.9736
54.9703
54.967
54.9637
54.9604
54.9571
54.9538
54.9506
54.9473
54.944
54.9407
54.9374
54.9341
54.9308
54.9275
54.9243
54.921
54.9177
54.9144
54.9111
54.9078
54.9045
54.9012
54.8979
54.8947
54.8914
54.8881
54.8848
54.8815
54.8782
54.8749
54.8716
54.8684
54.8651
54.8618
54.8585
54.8552
54.8519
54.8486
54.8453
54.842
54.8388
54.8355
54.8322
54.8289
54.8256
54.8223
54.819
54.8157
54.8125
54.8092
54.8059
54.8026
54.7993
54.796
54.7927
54.7894
54.7861
54.7829
54.7796
54.7763
54.773
54.7697
54.7664
54.7631
54.7598
54.7565
54.7533
54.75
54.7467
54.7434
54.7401
54.7368
54.7335
54.7302
54.7269
54.7237
54.7204
54.7171
54.7138
54.7105
54.7072
54.7039
54.7006
54.6974
54.6941
54.6908
54.6875
54.6842
54.6809
54.6776
54.6743
54.671
54.6678
54.6645
54.6612
54.6579
54.6546
54.6513
54.648
54.6447
54.6414
54.6414
56.4846
56.4846
56.2571
56.208
56.1856
56.1703
56.1578
56.1468
56.1366
56.127
56.1178
56.1089
56.1002
56.0917
56.0835
56.0755
56.0676
56.0599
56.0524
56.045
56.0378
56.0307
56.0237
56.0168
56.0101
56.0035
55.997
55.9906
55.9842
55.978
55.9719
55.9658
55.9598
55.9539
55.9481
55.9423
55.9366
55.9309
55.9254
55.9198
55.9144
55.909
55.9036
55.8983
55.893
55.8878
55.8827
55.8775
55.8725
55.8674
55.8624
55.8575
55.8525
55.8476
55.8428
55.838
55.8332
55.8285
55.8237
55.8191
55.8144
55.8098
55.8052
55.8006
55.7961
55.7915
55.787
55.7826
55.7781
55.7737
55.7693
55.765
55.7606
55.7563
55.752
55.7477
55.7434
55.7392
55.735
55.7308
55.7266
55.7224
55.7182
55.7141
55.71
55.7059
55.7018
55.6977
55.6937
55.6897
55.6856
55.6816
55.6776
55.6737
55.6697
55.6658
55.6618
55.6579
55.654
55.6501
55.6462
55.6423
55.6385
55.6346
55.6308
55.627
55.6231
55.6193
55.6155
55.6118
55.608
55.6042
55.6005
55.5967
55.593
55.5893
55.5855
55.5818
55.5781
55.5745
55.5708
55.5671
55.5634
55.5598
55.5561
55.5525
55.5488
55.5452
55.5416
55.538
55.5344
55.5308
55.5272
55.5236
55.52
55.5164
55.5129
55.5093
55.5057
55.5022
55.4987
55.4951
55.4916
55.4881
55.4845
55.481
55.4775
55.474
55.4705
55.467
55.4635
55.46
55.4565
55.453
55.4496
55.4461
55.4426
55.4392
55.4357
55.4322
55.4288
55.4253
55.4219
55.4184
55.415
55.4116
55.4081
55.4047
55.4013
55.3979
55.3945
55.391
55.3876
55.3842
55.3808
55.3774
55.374
55.3706
55.3672
55.3638
55.3605
55.3571
55.3537
55.3503
55.3469
55.3436
55.3402
55.3368
55.3335
55.3301
55.3267
55.3234
55.32
55.3167
55.3133
55.31
55.3066
55.3033
55.2999
55.2966
55.2933
55.2899
55.2866
55.2833
55.2799
55.2766
55.2733
55.27
55.2666
55.2633
55.26
55.2567
55.2534
55.2501
55.2468
55.2434
55.2401
55.2368
55.2335
55.2302
55.2269
55.2236
55.2203
55.217
55.2137
55.2104
55.2071
55.2038
55.2005
55.1972
55.1939
55.1906
55.1873
55.184
55.1808
55.1775
55.1742
55.1709
55.1676
55.1643
55.161
55.1577
55.1544
55.1511
55.1478
55.1446
55.1413
55.138
55.1347
55.1314
55.1281
55.1248
55.1215
55.1183
55.115
55.1117
55.1084
55.1051
55.1018
55.0985
55.0952
55.0919
55.0887
55.0854
55.0821
55.0788
55.0755
55.0722
55.0689
55.0656
55.0624
55.0591
55.0558
55.0525
55.0492
55.0459
55.0426
55.0393
55.0361
55.0328
55.0295
55.0262
55.0229
55.0196
55.0163
55.013
55.0097
55.0065
55.0032
54.9999
54.9966
54.9933
54.99
54.9867
54.9834
54.9802
54.9769
54.9736
54.9703
54.967
54.9637
54.9604
54.9571
54.9538
54.9506
54.9473
54.944
54.9407
54.9374
54.9341
54.9308
54.9275
54.9243
54.921
54.9177
54.9144
54.9111
54.9078
54.9045
54.9012
54.8979
54.8947
54.8914
54.8881
54.8848
54.8815
54.8782
54.8749
54.8716
54.8684
54.8651
54.8618
54.8585
54.8552
54.8519
54.8486
54.8453
54.842
54.8388
54.8355
54.8322
54.8289
54.8256
54.8223
54.819
54.8157
54.8125
54.8092
54.8059
54.8026
54.7993
54.796
54.7927
54.7894
54.7861
54.7829
54.7796
54.7763
54.773
54.7697
54.7664
54.7631
54.7598
54.7565
54.7533
54.75
54.7467
54.7434
54.7401
54.7368
54.7335
54.7302
54.7269
54.7237
54.7204
54.7171
54.7138
54.7105
54.7072
54.7039
54.7006
54.6974
54.6941
54.6908
54.6875
54.6842
54.6809
54.6776
54.6743
54.671
54.6678
54.6645
54.6612
54.6579
54.6546
54.6513
54.648
54.6447
54.6414
54.6414
56.4706
56.4706
56.2596
56.2091
56.1862
56.1707
56.1581
56.147
56.1368
56.1271
56.1179
56.1089
56.1003
56.0918
56.0836
56.0755
56.0677
56.06
56.0524
56.045
56.0378
56.0307
56.0237
56.0169
56.0101
56.0035
55.997
55.9906
55.9842
55.978
55.9719
55.9658
55.9598
55.9539
55.9481
55.9423
55.9366
55.9309
55.9254
55.9198
55.9144
55.909
55.9036
55.8983
55.893
55.8878
55.8827
55.8775
55.8725
55.8674
55.8624
55.8575
55.8525
55.8477
55.8428
55.838
55.8332
55.8285
55.8237
55.8191
55.8144
55.8098
55.8052
55.8006
55.7961
55.7915
55.787
55.7826
55.7781
55.7737
55.7693
55.765
55.7606
55.7563
55.752
55.7477
55.7434
55.7392
55.735
55.7308
55.7266
55.7224
55.7182
55.7141
55.71
55.7059
55.7018
55.6977
55.6937
55.6897
55.6856
55.6816
55.6776
55.6737
55.6697
55.6658
55.6618
55.6579
55.654
55.6501
55.6462
55.6423
55.6385
55.6346
55.6308
55.627
55.6231
55.6193
55.6155
55.6118
55.608
55.6042
55.6005
55.5967
55.593
55.5893
55.5856
55.5818
55.5781
55.5745
55.5708
55.5671
55.5634
55.5598
55.5561
55.5525
55.5488
55.5452
55.5416
55.538
55.5344
55.5308
55.5272
55.5236
55.52
55.5164
55.5129
55.5093
55.5058