# vtk DataFile Version 2.0
FlowField
ASCII
DATASET STRUCTURED_GRID
DIMENSIONS 400 1 200
POINTS 80000 float
0 0 0
0.08 0 0
0.16 0 0
0.24 0 0
0.32 0 0
0.4 0 0
0.48 0 0
0.56 0 0
0.64 0 0
0.72 0 0
0.8 0 0
0.88 0 0
0.96 0 0
1.04 0 0
1.12 0 0
1.2 0 0
1.28 0 0
1.36 0 0
1.44 0 0
1.52 0 0
1.6 0 0
1.68 0 0
1.76 0 0
1.84 0 0
1.92 0 0
2 0 0
2.08 0 0
2.16 0 0
2.24 0 0
2.32 0 0
2.4 0 0
2.48 0 0
2.56 0 0
2.64 0 0
2.72 0 0
2.8 0 0
2.88 0 0
2.96 0 0
3.04 0 0
3.12 0 0
3.2 0 0
3.28 0 0
3.36 0 0
3.44 0 0
3.52 0 0
3.6 0 0
3.68 0 0
3.76 0 0
3.84 0 0
3.92 0 0
4 0 0
4.08 0 0
4.16 0 0
4.24 0 0
4.32 0 0
4.4 0 0
4.48 0 0
4.56 0 0
4.64 0 0
4.72 0 0
4.8 0 0
4.88 0 0
4.96 0 0
5.04 0 0
5.12 0 0
5.2 0 0
5.28 0 0
5.36 0 0
5.44 0 0
5.52 0 0
5.6 0 0
5.68 0 0
5.76 0 0
5.84 0 0
5.92 0 0
6 0 0
6.08 0 0
6.16 0 0
6.24 0 0
6.32 0 0
6.4 0 0
6.48 0 0
6.56 0 0
6.64 0 0
6.72 0 0
6.8 0 0
6.88 0 0
6.96 0 0
7.04 0 0
7.12 0 0
7.2 0 0
7.28 0 0
7.36 0 0
7.44 0 0
7.52 0 0
7.6 0 0
7.68 0 0
7.76 0 0
7.84 0 0
7.92 0 0
8 0 0
8.08 0 0
8.16 0 0
8.24 0 0
8.32 0 0
8.4 0 0
8.48 0 0
8.56 0 0
8.64 0 0
8.72 0 0
8.8 0 0
8.88 0 0
8.96 0 0
9.04 0 0
9.12 0 0
9.2 0 0
9.28 0 0
9.36 0 0
9.44 0 0
9.52 0 0
9.6 0 0
9.68 0 0
9.76 0 0
9.84 0 0
9.92 0 0
10 0 0
10.08 0 0
10.16 0 0
10.24 0 0
10.32 0 0
10.4 0 0
10.48 0 0
10.56 0 0
10.64 0 0
10.72 0 0
10.8 0 0
10.88 0 0
10.96 0 0
11.04 0 0
11.12 0 0
11.2 0 0
11.28 0 0
11.36 0 0
11.44 0 0
11.52 0 0
11.6 0 0
11.68 0 0
11.76 0 0
11.84 0 0
11.92 0 0
12 0 0
12.08 0 0
12.16 0 0
12.24 0 0
12.32 0 0
12.4 0 0
12.48 0 0
12.56 0 0
12.64 0 0
12.72 0 0
12.8 0 0
12.88 0 0
12.96 0 0
13.04 0 0
13.12 0 0
13.2 0 0
13.28 0 0
13.36 0 0
13.44 0 0
13.52 0 0
13.6 0 0
13.68 0 0
13.76 0 0
13.84 0 0
13.92 0 0
14 0 0
14.08 0 0
14.16 0 0
14.24 0 0
14.32 0 0
14.4 0 0
14.48 0 0
14.56 0 0
14.64 0 0
14.72 0 0
14.8 0 0
14.88 0 0
14.96 0 0
15.04 0 0
15.12 0 0
15.2 0 0
15.28 0 0
15.36 0 0
15.44 0 0
15.52 0 0
15.6 0 0
15.68 0 0
15.76 0 0
15.84 0 0
15.92 0 0
16 0 0
16.08 0 0
16.16 0 0
16.24 0 0
16.32 0 0
16.4 0 0
16.48 0 0
16.56 0 0
16.64 0 0
16.72 0 0
16.8 0 0
16.88 0 0
16.96 0 0
17.04 0 0
17.12 0 0
17.2 0 0
17.28 0 0
17.36 0 0
17.44 0 0
17.52 0 0
17.6 0 0
17.68 0 0
17.76 0 0
17.84 0 0
17.92 0 0
18 0 0
18.08 0 0
18.16 0 0
18.24 0 0
18.32 0 0
18.4 0 0
18.48 0 0
18.56 0 0
18.64 0 0
18.72 0 0
18.8 0 0
18.88 0 0
18.96 0 0
19.04 0 0
19.12 0 0
19.2 0 0
19.28 0 0
19.36 0 0
19.44 0 0
19.52 0 0
19.6 0 0
19.68 0 0
19.76 0 0
19.84 0 0
19.92 0 0
20 0 0
20.08 0 0
20.16 0 0
20.24 0 0
20.32 0 0
20.4 0 0
20.48 0 0
20.56 0 0
20.64 0 0
20.72 0 0
20.8 0 0
20.88 0 0
20.96 0 0
21.04 0 0
21.12 0 0
21.2 0 0
21.28 0 0
21.36 0 0
21.44 0 0
21.52 0 0
21.6 0 0
21.68 0 0
21.76 0 0
21.84 0 0
21.92 0 0
22 0 0
22.08 0 0
22.16 0 0
22.24 0 0
22.32 0 0
22.4 0 0
22.48 0 0
22.56 0 0
22.64 0 0
22.72 0 0
22.8 0 0
22.88 0 0
22.96 0 0
23.04 0 0
23.12 0 0
23.2 0 0
23.28 0 0
23.36 0 0
23.44 0 0
23.52 0 0
23.6 0 0
23.68 0 0
23.76 0 0
23.84 0 0
23.92 0 0
24 0 0
24.08 0 0
24.16 0 0
24.24 0 0
24.32 0 0
24.4 0 0
24.48 0 0
24.56 0 0
24.64 0 0
24.72 0 0
24.8 0 0
24.88 0 0
24.96 0 0
25.04 0 0
25.12 0 0
25.2 0 0
25.28 0 0
25.36 0 0
25.44 0 0
25.52 0 0
25.6 0 0
25.68 0 0
25.76 0 0
25.84 0 0
25.92 0 0
26 0 0
26.08 0 0
26.16 0 0
26.24 0 0
26.32 0 0
26.4 0 0
26.48 0 0
26.56 0 0
26.64 0 0
26.72 0 0
26.8 0 0
26.88 0 0
26.96 0 0
27.04 0 0
27.12 0 0
27.2 0 0
27.28 0 0
27.36 0 0
27.44 0 0
27.52 0 0
27.6 0 0
27.68 0 0
27.76 0 0
27.84 0 0
27.92 0 0
28 0 0
28.08 0 0
28.16 0 0
28.24 0 0
28.32 0 0
28.4 0 0
28.48 0 0
28.56 0 0
28.64 0 0
28.72 0 0
28.8 0 0
28.88 0 0
28.96 0 0
29.04 0 0
29.12 0 0
29.2 0 0
29.28 0 0
29.36 0 0
29.44 0 0
29.52 0 0
29.6 0 0
29.68 0 0
29.76 0 0
29.84 0 0
29.92 0 0
30 0 0
30.08 0 0
30.16 0 0
30.24 0 0
30.32 0 0
30.4 0 0
30.48 0 0
30.56 0 0
30.64 0 0
30.72 0 0
30.8 0 0
30.88 0 0
30.96 0 0
31.04 0 0
31.12 0 0
31.2 0 0
31.28 0 0
31.36 0 0
31.44 0 0
31.52 0 0
31.6 0 0
31.68 0 0
31.76 0 0
31.84 0 0
31.92 0 0
0 0.005 0
0.08 0.005 0
0.16 0.005 0
0.24 0.005 0
0.32 0.005 0
0.4 0.005 0
0.48 0.005 0
0.56 0.005 0
0.64 0.005 0
0.72 0.005 0
0.8 0.005 0
0.88 0.005 0
0.96 0.005 0
1.04 0.005 0
1.12 0.005 0
1.2 0.005 0
1.28 0.005 0
1.36 0.005 0
1.44 0.005 0
1.52 0.005 0
1.6 0.005 0
1.68 0.005 0
1.76 0.005 0
1.84 0.005 0
1.92 0.005 0
2 0.005 0
2.08 0.005 0
2.16 0.005 0
2.24 0.005 0
2.32 0.005 0
2.4 0.005 0
2.48 0.005 0
2.56 0.005 0
2.64 0.005 0
2.72 0.005 0
2.8 0.005 0
2.88 0.005 0
2.96 0.005 0
3.04 0.005 0
3.12 0.005 0
3.2 0.005 0
3.28 0.005 0
3.36 0.005 0
3.44 0.005 0
3.52 0.005 0
3.6 0.005 0
3.68 0.005 0
3.76 0.005 0
3.84 0.005 0
3.92 0.005 0
4 0.005 0
4.08 0.005 0
4.16 0.005 0
4.24 0.005 0
4.32 0.005 0
4.4 0.005 0
4.48 0.005 0
4.56 0.005 0
4.64 0.005 0
4.72 0.005 0
4.8 0.005 0
4.88 0.005 0
4.96 0.005 0
5.04 0.005 0
5.12 0.005 0
5.2 0.005 0
5.28 0.005 0
5.36 0.005 0
5.44 0.005 0
5.52 0.005 0
5.6 0.005 0
5.68 0.005 0
5.76 0.005 0
5.84 0.005 0
5.92 0.005 0
6 0.005 0
6.08 0.005 0
6.16 0.005 0
6.24 0.005 0
6.32 0.005 0
6.4 0.005 0
6.48 0.005 0
6.56 0.005 0
6.64 0.005 0
6.72 0.005 0
6.8 0.005 0
6.88 0.005 0
6.96 0.005 0
7.04 0.005 0
7.12 0.005 0
7.2 0.005 0
7.28 0.005 0
7.36 0.005 0
7.44 0.005 0
7.52 0.005 0
7.6 0.005 0
7.68 0.005 0
7.76 0.005 0
7.84 0.005 0
7.92 0.005 0
8 0.005 0
8.08 0.005 0
8.16 0.005 0
8.24 0.005 0
8.32 0.005 0
8.4 0.005 0
8.48 0.005 0
8.56 0.005 0
8.64 0.005 0
8.72 0.005 0
8.8 0.005 0
8.88 0.005 0
8.96 0.005 0
9.04 0.005 0
9.12 0.005 0
9.2 0.005 0
9.28 0.005 0
9.36 0.005 0
9.44 0.005 0
9.52 0.005 0
9.6 0.005 0
9.68 0.005 0
9.76 0.005 0
9.84 0.005 0
9.92 0.005 0
10 0.005 0
10.08 0.005 0
10.16 0.005 0
10.24 0.005 0
10.32 0.005 0
10.4 0.005 0
10.48 0.005 0
10.56 0.005 0
10.64 0.005 0
10.72 0.005 0
10.8 0.005 0
10.88 0.005 0
10.96 0.005 0
11.04 0.005 0
11.12 0.005 0
11.2 0.005 0
11.28 0.005 0
11.36 0.005 0
11.44 0.005 0
11.52 0.005 0
11.6 0.005 0
11.68 0.005 0
11.76 0.005 0
11.84 0.005 0
11.92 0.005 0
12 0.005 0
12.08 0.005 0
12.16 0.005 0
12.24 0.005 0
12.32 0.005 0
12.4 0.005 0
12.48 0.005 0
12.56 0.005 0
12.64 0.005 0
12.72 0.005 0
12.8 0.005 0
12.88 0.005 0
12.96 0.005 0
13.04 0.005 0
13.12 0.005 0
13.2 0.005 0
13.28 0.005 0
13.36 0.005 0
13.44 0.005 0
13.52 0.005 0
13.6 0.005 0
13.68 0.005 0
13.76 0.005 0
13.84 0.005 0
13.92 0.005 0
14 0.005 0
14.08 0.005 0
14.16 0.005 0
14.24 0.005 0
14.32 0.005 0
14.4 0.005 0
14.48 0.005 0
14.56 0.005 0
14.64 0.005 0
14.72 0.005 0
14.8 0.005 0
14.88 0.005 0
14.96 0.005 0
15.04 0.005 0
15.12 0.005 0
15.2 0.005 0
15.28 0.005 0
15.36 0.005 0
15.44 0.005 0
15.52 0.005 0
15.6 0.005 0
15.68 0.005 0
15.76 0.005 0
15.84 0.005 0
15.92 0.005 0
16 0.005 0
16.08 0.005 0
16.16 0.005 0
16.24 0.005 0
16.32 0.005 0
16.4 0.005 0
16.48 0.005 0
16.56 0.005 0
16.64 0.005 0
16.72 0.005 0
16.8 0.005 0
16.88 0.005 0
16.96 0.005 0
17.04 0.005 0
17.12 0.005 0
17.2 0.005 0
17.28 0.005 0
17.36 0.005 0
17.44 0.005 0
17.52 0.005 0
17.6 0.005 0
17.68 0.005 0
17.76 0.005 0
17.84 0.005 0
17.92 0.005 0
18 0.005 0
18.08 0.005 0
18.16 0.005 0
18.24 0.005 0
18.32 0.005 0
18.4 0.005 0
18.48 0.005 0
18.56 0.005 0
18.64 0.005 0
18.72 0.005 0
18.8 0.005 0
18.88 0.005 0
18.96 0.005 0
19.04 0.005 0
19.12 0.005 0
19.2 0.005 0
19.28 0.005 0
19.36 0.005 0
19.44 0.005 0
19.52 0.005 0
19.6 0.005 0
19.68 0.005 0
19.76 0.005 0
19.84 0.005 0
19.92 0.005 0
20 0.005 0
20.08 0.005 0
20.16 0.005 0
20.24 0.005 0
20.32 0.005 0
20.4 0.005 0
20.48 0.005 0
20.56 0.005 0
20.64 0.005 0
20.72 0.005 0
20.8 0.005 0
20.88 0.005 0
20.96 0.005 0
21.04 0.005 0
21.12 0.005 0
21.2 0.005 0
21.28 0.005 0
21.36 0.005 0
21.44 0.005 0
21.52 0.005 0
21.6 0.005 0
21.68 0.005 0
21.76 0.005 0
21.84 0.005 0
21.92 0.005 0
22 0.005 0
22.08 0.005 0
22.16 0.005 0
22.24 0.005 0
22.32 0.005 0
22.4 0.005 0
22.48 0.005 0
22.56 0.005 0
22.64 0.005 0
22.72 0.005 0
22.8 0.005 0
22.88 0.005 0
22.96 0.005 0
23.04 0.005 0
23.12 0.005 0
23.2 0.005 0
23.28 0.005 0
23.36 0.005 0
23.44 0.005 0
23.52 0.005 0
23.6 0.005 0
23.68 0.005 0
23.76 0.005 0
23.84 0.005 0
23.92 0.005 0
24 0.005 0
24.08 0.005 0
24.16 0.005 0
24.24 0.005 0
24.32 0.005 0
24.4 0.005 0
24.48 0.005 0
24.56 0.005 0
24.64 0.005 0
24.72 0.005 0
24.8 0.005 0
24.88 0.005 0
24.96 0.005 0
25.04 0.005 0
25.12 0.005 0
25.2 0.005 0
25.28 0.005 0
25.36 0.005 0
25.44 0.005 0
25.52 0.005 0
25.6 0.005 0
25.68 0.005 0
25.76 0.005 0
25.84 0.005 0
25.92 0.005 0
26 0.005 0
26.08 0.005 0
26.16 0.005 0
26.24 0.005 0
26.32 0.005 0
26.4 0.005 0
26.48 0.005 0
26.56 0.005 0
26.64 0.005 0
26.72 0.005 0
26.8 0.005 0
26.88 0.005 0
26.96 0.005 0
27.04 0.005 0
27.12 0.005 0
27.2 0.005 0
27.28 0.005 0
27.36 0.005 0
27.44 0.005 0
27.52 0.005 0
27.6 0.005 0
27.68 0.005 0
27.76 0.005 0
27.84 0.005 0
27.92 0.005 0
28 0.005 0
28.08 0.005 0
28.16 0.005 0
28.24 0.005 0
28.32 0.005 0
28.4 0.005 0
28.48 0.005 0
28.56 0.005 0
28.64 0.005 0
28.72 0.005 0
28.8 0.005 0
28.88 0.005 0
28.96 0.005 0
29.04 0.005 0
29.12 0.005 0
29.2 0.005 0
29.28 0.005 0
29.36 0.005 0
29.44 0.005 0
29.52 0.005 0
29.6 0.005 0
29.68 0.005 0
29.76 0.005 0
29.84 0.005 0
29.92 0.005 0
30 0.005 0
30.08 0.005 0
30.16 0.005 0
30.24 0.005 0
30.32 0.005 0
30.4 0.005 0
30.48 0.005 0
30.56 0.005 0
30.64 0.005 0
30.72 0.005 0
30.8 0.005 0
30.88 0.005 0
30.96 0.005 0
31.04 0.005 0
31.12 0.005 0
31.2 0.005 0
31.28 0.005 0
31.36 0.005 0
31.44 0.005 0
31.52 0.005 0
31.6 0.005 0
31.68 0.005 0
31.76 0.005 0
31.84 0.005 0
31.92 0.005 0
0 0.01 0
0.08 0.01 0
0.16 0.01 0
0.24 0.01 0
0.32 0.01 0
0.4 0.01 0
0.48 0.01 0
0.56 0.01 0
0.64 0.01 0
0.72 0.01 0
0.8 0.01 0
0.88 0.01 0
0.96 0.01 0
1.04 0.01 0
1.12 0.01 0
1.2 0.01 0
1.28 0.01 0
1.36 0.01 0
1.44 0.01 0
1.52 0.01 0
1.6 0.01 0
1.68 0.01 0
1.76 0.01 0
1.84 0.01 0
1.92 0.01 0
2 0.01 0
2.08 0.01 0
2.16 0.01 0
2.24 0.01 0
2.32 0.01 0
2.4 0.01 0
2.48 0.01 0
2.56 0.01 0
2.64 0.01 0
2.72 0.01 0
2.8 0.01 0
2.88 0.01 0
2.96 0.01 0
3.04 0.01 0
3.12 0.01 0
3.2 0.01 0
3.28 0.01 0
3.36 0.01 0
3.44 0.01 0
3.52 0.01 0
3.6 0.01 0
3.68 0.01 0
3.76 0.01 0
3.84 0.01 0
3.92 0.01 0
4 0.01 0
4.08 0.01 0
4.16 0.01 0
4.24 0.01 0
4.32 0.01 0
4.4 0.01 0
4.48 0.01 0
4.56 0.01 0
4.64 0.01 0
4.72 0.01 0
4.8 0.01 0
4.88 0.01 0
4.96 0.01 0
5.04 0.01 0
5.12 0.01 0
[...]
POINT_DATA 80000

SCALARS v float 1
LOOKUP_TABLE default
0
0
0
0
0
0
0
0
0
0
0
0
0
0
0
0
0
0
0
0
0
0
0
0
0
0
0
0
0
0
0
0
0
0
0
0
0
0
0
0
0
0
0
0
0
0
0
0
0
0
0
0
0
0
0
0
0
0
0
0
0
0
0
0
0
0
0
0
0
0
0
0
0
0
0
0
0
0
0
0
0
0
0
0
0
0
0
0
0
0
0
0
0
0
0
0
0
0
0
0
0
0
0
0
0
0
0
0
0
0
0
0
0
0
0
0
0
0
0
0
0
0
0
0
0
0
0
0
0
0
0
0
0
0
0
0
0
0
0
0
0
0
0
0
0
0
0
0
0
0
0
0
0
0
0
0
0
0
0
0
0
0
0
0
0
0
0
0
0
0
0
0
0
0
0
0
0
0
0
0
0
0
0
0
0
0
0
0
0
0
0
0
0
0
0
0
0
0
0
0
0
0
0
0
0
0
0
0
0
0
0
0
0
0
0
0
0
0
0
0
0
0
0
0
0
0
0
0
0
0
0
0
0
0
0
0
0
0
0
0
0
0
0
0
0
0
0
0
0
0
0
0
0
0
0
0
0
0
0
0
0
0
0
0
0
0
0
0
0
0
0
0
0
0
0
0
0
0
0
0
0
0
0
0
0
0
0
0
0
0
0
0
0
0
0
0
0
0
0
0
0
0
0
0
0
0
0
0
0
0
0
0
0
0
0
0
0
0
0
0
0
0
0
0
0
0
0
0
0
0
0
0
0
0
0
0
0
0
0
0
0
0
0
0
0
0
0
0
0
0
0
0
0
0
0
0
0
0
0
0
0
0
0
0
0
0
0
0
0
0
0
0
0
0
0
0
0
0
0
0
0
0
0
0
0
0
0
0
0
0
0
0
0
0
0
0
0
0
0
0
-0.0542711
0.0542711
0.00396209
0.00099833
0.00049226
0.000302696
0.00020732
0.000151692
0.00011625
9.22938e-05
7.53807e-05
6.30201e-05
5.37196e-05
4.65411e-05
4.08733e-05
3.63062e-05
3.25587e-05
2.94337e-05
2.67906e-05
2.45275e-05
2.25686e-05
2.08572e-05
1.935e-05
1.80131e-05
1.68201e-05
1.57496e-05
1.47845e-05
1.39105e-05
1.31161e-05
1.23915e-05
1.17283e-05
1.11195e-05
1.05592e-05
1.00421e-05
9.56378e-06
9.1203e-06
8.70824e-06
8.32462e-06
7.96678e-06
7.63239e-06
7.31938e-06
7.02589e-06
6.75029e-06
6.49108e-06
6.24696e-06
6.01673e-06
5.79931e-06
5.59373e-06
5.39911e-06
5.21466e-06
5.03965e-06
4.87341e-06
4.71534e-06
4.56489e-06
4.42155e-06
4.28486e-06
4.15439e-06
4.02975e-06
3.91057e-06
3.79653e-06
3.6873e-06
3.58262e-06
3.48221e-06
3.38583e-06
3.29325e-06
3.20425e-06
3.11865e-06
3.03626e-06
2.9569e-06
2.88043e-06
2.80668e-06
2.73553e-06
2.66684e-06
2.60048e-06
2.53635e-06
2.47434e-06
2.41435e-06
2.35628e-06
2.30005e-06
2.24557e-06
2.19276e-06
2.14155e-06
2.09188e-06
2.04367e-06
1.99686e-06
1.9514e-06
1.90723e-06
1.8643e-06
1.82256e-06
1.78197e-06
1.74247e-06
1.70403e-06
1.66661e-06
1.63017e-06
1.59467e-06
1.56009e-06
1.52638e-06
1.49353e-06
1.46149e-06
1.43024e-06
1.39977e-06
1.37003e-06
1.34101e-06
1.31268e-06
1.28502e-06
1.25802e-06
1.23165e-06
1.20588e-06
1.18072e-06
1.15613e-06
1.1321e-06
1.10862e-06
1.08566e-06
1.06322e-06
1.04127e-06
1.01982e-06
9.98833e-07
9.78309e-07
9.58234e-07
9.38596e-07
9.19383e-07
9.00584e-07
8.82189e-07
8.64188e-07
8.46571e-07
8.29329e-07
8.12452e-07
7.95932e-07
7.7976e-07
7.63928e-07
7.48427e-07
7.33251e-07
7.18391e-07
7.03841e-07
6.89592e-07
6.75639e-07
6.61975e-07
6.48592e-07
6.35485e-07
6.22648e-07
6.10075e-07
5.97759e-07
5.85696e-07
5.73879e-07
5.62304e-07
5.50965e-07
5.39857e-07
5.28975e-07
5.18314e-07
5.0787e-07
4.97638e-07
4.87614e-07
4.77793e-07
4.6817e-07
4.58743e-07
4.49506e-07
4.40455e-07
4.31588e-07
4.22899e-07
4.14386e-07
4.06045e-07
3.97871e-07
3.89863e-07
3.82015e-07
3.74326e-07
3.66791e-07
3.59409e-07
3.52174e-07
3.45085e-07
3.38139e-07
3.31332e-07
3.24663e-07
3.18127e-07
3.11722e-07
3.05446e-07
2.99297e-07
2.93271e-07
2.87365e-07
2.81579e-07
2.75908e-07
2.70352e-07
2.64907e-07
2.59571e-07
2.54343e-07
2.49219e-07
2.44198e-07
2.39278e-07
2.34457e-07
2.29733e-07
2.25103e-07
2.20567e-07
2.16121e-07
2.11765e-07
2.07497e-07
2.03314e-07
1.99215e-07
1.95198e-07
1.91262e-07
1.87405e-07
1.83626e-07
1.79923e-07
1.76294e-07
1.72738e-07
1.69253e-07
1.65838e-07
1.62493e-07
1.59214e-07
1.56001e-07
1.52853e-07
1.49769e-07
1.46746e-07
1.43784e-07
1.40882e-07
1.38038e-07
1.35251e-07
1.32521e-07
1.29845e-07
1.27223e-07
1.24654e-07
1.22137e-07
1.19671e-07
1.17254e-07
1.14886e-07
1.12565e-07
1.10291e-07
1.08063e-07
1.0588e-07
1.03741e-07
1.01645e-07
9.95911e-08
9.75786e-08
9.56067e-08
9.36745e-08
9.17813e-08
8.99262e-08
8.81085e-08
8.63274e-08
8.45823e-08
8.28724e-08
8.11969e-08
7.95553e-08
7.79468e-08
7.63708e-08
7.48267e-08
7.33138e-08
7.18315e-08
7.03792e-08
6.89564e-08
6.75623e-08
6.61966e-08
6.48585e-08
6.35476e-08
6.22633e-08
6.1005e-08
5.97722e-08
5.85645e-08
5.73811e-08
5.62217e-08
5.50856e-08
5.39724e-08
5.28815e-08
5.18124e-08
5.07645e-08
4.97373e-08
4.87303e-08
4.77428e-08
4.67745e-08
4.58245e-08
4.48926e-08
4.3978e-08
4.30802e-08
4.21987e-08
4.13328e-08
4.04821e-08
3.96459e-08
3.88238e-08
3.80151e-08
3.72193e-08
3.64359e-08
3.56643e-08
3.49041e-08
3.41548e-08
3.34158e-08
3.26867e-08
3.19671e-08
3.12565e-08
3.05545e-08
2.98608e-08
2.9175e-08
2.84967e-08
2.78258e-08
2.71618e-08
2.65046e-08
2.58539e-08
2.52096e-08
2.45715e-08
2.39394e-08
2.33133e-08
2.2693e-08
2.20786e-08
2.147e-08
2.08672e-08
2.02703e-08
1.96793e-08
1.90943e-08
1.85154e-08
1.79427e-08
1.73764e-08
1.68166e-08
1.62636e-08
1.57175e-08
1.51786e-08
1.46471e-08
1.41231e-08
1.36071e-08
1.30991e-08
1.25995e-08
1.21084e-08
1.16263e-08
1.11532e-08
1.06895e-08
1.02354e-08
9.79098e-09
9.3566e-09
8.93241e-09
8.51859e-09
8.1153e-09
7.7227e-09
7.34091e-09
6.97006e-09
6.61021e-09
6.26144e-09
5.92385e-09
5.59739e-09
5.28217e-09
4.9781e-09
4.68526e-09
4.40349e-09
4.13283e-09
3.87309e-09
3.62428e-09
3.38615e-09
3.15871e-09
2.94165e-09
2.73497e-09
2.53827e-09
2.35158e-09
2.17443e-09
2.00687e-09
1.8483e-09
1.69885e-09
1.55781e-09
1.42542e-09
1.30081e-09
1.18435e-09
1.07499e-09
9.73274e-10
8.77951e-10
7.89759e-10
7.07212e-10
6.31333e-10
5.60321e-10
4.95592e-10
4.34904e-10
3.80167e-10
3.28634e-10
2.82794e-10
2.39242e-10
2.0126e-10
1.64592e-10
1.33482e-10
1.0268e-10
7.75826e-11
5.16835e-11
3.18064e-11
9.96316e-12
-5.4378e-12
-2.40206e-11
-3.55821e-11
-5.15733e-11
-5.99504e-11
-7.38283e-11
-7.96983e-11
-9.16783e-11
-9.59444e-11
-1.05741e-10
-1.09879e-10
-1.16316e-10
-1.23094e-10
-1.23124e-10
-1.38303e-10
-1.24548e-10
-1.61086e-10
-1.14612e-10
-2.04075e-10
-6.41229e-11
-2.92977e-10
3.27979e-10
-1.72526e-10
-1.72526e-10
-0.0952159
0.0952159
0.0129756
0.00385462
0.00193431
0.0011962
0.000821741
0.000602314
0.000462067
0.000367041
0.000299831
0.000250645
0.000213602
0.000184994
0.0001624
0.000144195
0.00012926
0.00011681
0.000106285
9.72762e-05
8.9483e-05
8.26777e-05
7.66868e-05
7.13754e-05
6.66372e-05
6.23871e-05
5.85565e-05
5.50887e-05
5.19373e-05
4.90631e-05
4.64331e-05
4.40194e-05
4.17981e-05
3.97484e-05
3.78526e-05
3.60951e-05
3.44623e-05
3.29422e-05
3.15245e-05
3.01998e-05
2.89598e-05
2.77973e-05
2.67056e-05
2.5679e-05
2.47121e-05
2.38003e-05
2.29393e-05
2.21253e-05
2.13546e-05
2.06243e-05
1.99313e-05
1.92731e-05
1.86473e-05
1.80517e-05
1.74842e-05
1.69431e-05
1.64266e-05
1.59332e-05
1.54615e-05
1.50101e-05
1.45778e-05
1.41634e-05
1.3766e-05
1.33846e-05
1.30182e-05
1.2666e-05
1.23272e-05
1.20012e-05
1.16872e-05
1.13846e-05
1.10928e-05
1.08112e-05
1.05394e-05
1.02769e-05
1.00232e-05
9.77784e-06
9.5405e-06
9.31078e-06
9.08833e-06
8.87281e-06
8.66393e-06
8.46138e-06
8.2649e-06
8.07421e-06
7.88909e-06
7.7093e-06
7.53462e-06
7.36484e-06
7.19977e-06
7.03923e-06
6.88304e-06
6.73104e-06
6.58307e-06
6.43898e-06
6.29864e-06
6.1619e-06
6.02864e-06
5.89874e-06
5.77209e-06
5.64857e-06
5.52808e-06
5.41052e-06
5.2958e-06
5.18383e-06
5.07452e-06
4.96778e-06
4.86355e-06
4.76174e-06
4.66228e-06
4.5651e-06
4.47014e-06
4.37733e-06
4.28661e-06
4.19793e-06
4.11122e-06
4.02644e-06
3.94353e-06
3.86244e-06
3.78312e-06
3.70553e-06
3.62962e-06
3.55535e-06
3.48268e-06
3.41157e-06
3.34198e-06
3.27387e-06
3.2072e-06
3.14194e-06
3.07806e-06
3.01553e-06
2.95431e-06
2.89436e-06
2.83567e-06
2.77821e-06
2.72193e-06
2.66683e-06
2.61286e-06
2.56001e-06
2.50825e-06
2.45756e-06
2.40791e-06
2.35927e-06
2.31164e-06
2.26498e-06
2.21927e-06
2.1745e-06
2.13064e-06
2.08768e-06
2.04558e-06
2.00435e-06
1.96395e-06
1.92437e-06
1.8856e-06
1.84761e-06
1.81039e-06
1.77392e-06
1.7382e-06
1.70319e-06
1.66889e-06
1.63528e-06
1.60235e-06
1.57009e-06
1.53848e-06
1.5075e-06
1.47715e-06
1.44741e-06
1.41827e-06
1.38971e-06
1.36173e-06
1.33431e-06
1.30745e-06
1.28112e-06
1.25532e-06
1.23005e-06
1.20528e-06
1.18101e-06
1.15722e-06
1.13392e-06
1.11108e-06
1.0887e-06
1.06677e-06
1.04528e-06
1.02422e-06
1.00359e-06
9.83369e-07
9.63555e-07
9.44139e-07
9.25114e-07
9.0647e-07
8.88201e-07
8.70299e-07
8.52756e-07
8.35566e-07
8.18721e-07
8.02215e-07
7.8604e-07
7.7019e-07
7.54659e-07
7.3944e-07
7.24527e-07
7.09914e-07
6.95594e-07
6.81562e-07
6.67813e-07
6.5434e-07
6.41137e-07
6.28201e-07
6.15524e-07
6.03103e-07
5.90932e-07
5.79005e-07
5.67319e-07
5.55867e-07
5.44646e-07
5.33651e-07
5.22878e-07
5.12321e-07
5.01977e-07
4.91841e-07
4.81909e-07
4.72178e-07
4.62642e-07
4.53298e-07
4.44143e-07
4.35172e-07
4.26381e-07
4.17768e-07
4.09328e-07
4.01059e-07
3.92956e-07
3.85016e-07
3.77236e-07
3.69613e-07
3.62144e-07
3.54825e-07
3.47654e-07
3.40627e-07
3.33742e-07
3.26996e-07
3.20386e-07
3.13909e-07
3.07564e-07
3.01346e-07
2.95255e-07
2.89286e-07
2.83438e-07
2.77709e-07
2.72095e-07
2.66596e-07
2.61208e-07
2.55929e-07
2.50757e-07
2.4569e-07
2.40726e-07
2.35862e-07
2.31097e-07
2.26428e-07
2.21853e-07
2.1737e-07
2.12977e-07
2.08672e-07
2.04453e-07
2.00317e-07
1.96262e-07
1.92287e-07
1.88389e-07
1.84565e-07
1.80814e-07
1.77133e-07
1.7352e-07
1.69974e-07
1.6649e-07
1.63068e-07
1.59706e-07
1.564e-07
1.53148e-07
1.4995e-07
1.46801e-07
1.43701e-07
1.40647e-07
1.37638e-07
1.3467e-07
1.31743e-07
1.28855e-07
1.26003e-07
1.23186e-07
1.20403e-07
1.17652e-07
1.14932e-07
1.12242e-07
1.09579e-07
1.06944e-07
1.04336e-07
1.01753e-07
9.91948e-08
9.6661e-08
9.41511e-08
9.16646e-08
8.92013e-08
8.67611e-08
8.43439e-08
8.19499e-08
7.95792e-08
7.72321e-08
7.4909e-08
7.26104e-08
7.03367e-08
6.80887e-08
6.5867e-08
6.36724e-08
6.15058e-08
5.9368e-08
5.726e-08
5.51826e-08
5.3137e-08
5.1124e-08
4.91447e-08
4.72002e-08
4.52913e-08
4.34191e-08
4.15846e-08
3.97886e-08
3.8032e-08
3.63155e-08
3.464e-08
3.30062e-08
3.14148e-08
2.98662e-08
2.8361e-08
2.68996e-08
2.54824e-08
2.41095e-08
2.27813e-08
2.14978e-08
2.02591e-08
1.9065e-08
1.79157e-08
1.68106e-08
1.57498e-08
1.47325e-08
1.37587e-08
1.28275e-08
1.19388e-08
1.10914e-08
1.02851e-08
9.51857e-09
8.79174e-09
8.10267e-09
7.45157e-09
6.83612e-09
6.25673e-09
5.71066e-09
5.19867e-09
4.71749e-09
4.26838e-09
3.84737e-09
3.45638e-09
3.09064e-09
2.75289e-09
2.43742e-09
2.14807e-09
1.87794e-09
1.63231e-09
1.40271e-09
1.19625e-09
1.00251e-09
8.3082e-10
6.68358e-10
5.27296e-10
3.91764e-10
2.77513e-10
1.64869e-10
7.39555e-11
-1.94881e-11
-9.01686e-11
-1.67846e-10
-2.21146e-10
-2.86115e-10
-3.2464e-10
-3.7952e-10
-4.05734e-10
-4.52436e-10
-4.68979e-10
-5.08358e-10
-5.1864e-10
-5.49796e-10
-5.59295e-10
-5.77948e-10
-5.97e-10
-5.91915e-10
-6.41895e-10
-5.8596e-10
-7.14757e-10
-5.38391e-10
-8.62039e-10
-3.4197e-10
-1.17277e-09
1.09675e-09
-7.2661e-10
-7.2661e-10
-0.125293
0.125293
0.0249359
0.00835802
0.004278
0.00266152
0.00183374
0.00134635
0.00103388
0.000821704
0.000671387
0.00056125
0.000478232
0.000414085
0.00036341
0.000322576
0.000289079
0.000261164
0.000237571
0.000217385
0.000199929
0.000184691
0.000171281
0.000159395
0.000148795
0.00013929
0.000130724
0.000122972
0.000115928
0.000109505
0.000103628
9.8235e-05
9.32725e-05
8.86939e-05
8.44594e-05
8.0534e-05
7.68875e-05
7.3493e-05
7.03272e-05
6.73692e-05
6.46006e-05
6.20051e-05
5.95679e-05
5.7276e-05
5.51176e-05
5.30822e-05
5.11602e-05
4.93431e-05
4.7623e-05
4.59928e-05
4.44462e-05
4.29772e-05
4.15804e-05
4.02511e-05
3.89848e-05
3.77772e-05
3.66246e-05
3.55236e-05
3.44709e-05
3.34636e-05
3.2499e-05
3.15745e-05
3.06878e-05
2.98367e-05
2.90192e-05
2.82334e-05
2.74776e-05
2.67502e-05
2.60497e-05
2.53746e-05
2.47236e-05
2.40956e-05
2.34892e-05
2.29036e-05
2.23377e-05
2.17904e-05
2.1261e-05
2.07487e-05
2.02525e-05
1.97718e-05
1.93059e-05
1.88542e-05
1.8416e-05
1.79908e-05
1.75779e-05
1.7177e-05
1.67874e-05
1.64088e-05
1.60408e-05
1.56828e-05
1.53345e-05
1.49956e-05
1.46657e-05
1.43444e-05
1.40315e-05
1.37266e-05
1.34296e-05
1.314e-05
1.28576e-05
1.25823e-05
1.23137e-05
1.20516e-05
1.17959e-05
1.15463e-05
1.13026e-05
1.10647e-05
1.08324e-05
1.06055e-05
1.03838e-05
1.01672e-05
9.9556e-06
9.74876e-06
9.54659e-06
9.34896e-06
9.15574e-06
8.96681e-06
8.78205e-06
8.60136e-06
8.42462e-06
8.25173e-06
8.08259e-06
7.91712e-06
7.7552e-06
7.59676e-06
7.44171e-06
7.28996e-06
7.14143e-06
6.99605e-06
6.85374e-06
6.71443e-06
6.57804e-06
6.44451e-06
6.31377e-06
6.18575e-06
6.0604e-06
5.93765e-06
5.81745e-06
5.69973e-06
5.58444e-06
5.47152e-06
5.36093e-06
5.25262e-06
5.14652e-06
5.0426e-06
4.9408e-06
4.84109e-06
4.7434e-06
4.64772e-06
4.55398e-06
4.46214e-06
4.37218e-06
4.28404e-06
4.19769e-06
4.11309e-06
4.03021e-06
3.94901e-06
3.86944e-06
3.79149e-06
3.71512e-06
3.64028e-06
3.56696e-06
3.49512e-06
3.42473e-06
3.35575e-06
3.28817e-06
3.22195e-06
3.15706e-06
3.09348e-06
3.03119e-06
2.97014e-06
2.91032e-06
2.85171e-06
2.79428e-06
2.738e-06
2.68285e-06
2.62881e-06
2.57586e-06
2.52398e-06
2.47313e-06
2.42331e-06
2.37449e-06
2.32665e-06
2.27977e-06
2.23383e-06
2.18882e-06
2.14471e-06
2.10149e-06
2.05913e-06
2.01763e-06
1.97696e-06
1.93711e-06
1.89805e-06
1.85979e-06
1.82229e-06
1.78555e-06
1.74954e-06
1.71426e-06
1.67968e-06
1.64581e-06
1.61261e-06
1.58008e-06
1.54821e-06
1.51697e-06
1.48637e-06
1.45638e-06
1.42699e-06
1.39819e-06
1.36998e-06
1.34233e-06
1.31523e-06
1.28869e-06
1.26268e-06
1.23719e-06
1.21221e-06
1.18774e-06
1.16376e-06
1.14026e-06
1.11724e-06
1.09467e-06
1.07257e-06
1.05091e-06
1.02968e-06
1.00889e-06
9.88509e-07
9.68542e-07
9.48976e-07
9.29806e-07
9.11021e-07
8.92615e-07
8.7458e-07
8.56908e-07
8.39592e-07
8.22626e-07
8.06001e-07
7.89712e-07
7.73751e-07
7.58112e-07
7.42788e-07
7.27774e-07
7.13062e-07
6.98648e-07
6.84525e-07
6.70687e-07
6.57129e-07
6.43845e-07
6.3083e-07
6.18079e-07
6.05585e-07
5.93345e-07
5.81353e-07
5.69604e-07
5.58094e-07
5.46816e-07
5.35767e-07
5.24942e-07
5.14335e-07
5.03943e-07
4.9376e-07
4.83782e-07
4.74003e-07
4.6442e-07
4.55026e-07
4.45819e-07
4.36791e-07
4.2794e-07
4.19259e-07
4.10744e-07
4.0239e-07
3.94192e-07
3.86144e-07
3.78243e-07
3.70482e-07
3.62858e-07
3.55364e-07
3.47996e-07
3.40749e-07
3.33618e-07
3.26598e-07
3.19685e-07
3.12874e-07
3.06161e-07
2.99541e-07
2.9301e-07
2.86565e-07
2.802e-07
2.73914e-07
2.67701e-07
2.6156e-07
2.55487e-07
2.49479e-07
2.43534e-07
2.3765e-07
2.31824e-07
2.26055e-07
2.20342e-07
2.14683e-07
2.09077e-07
2.03523e-07
1.98021e-07
1.92571e-07
1.87173e-07
1.81827e-07
1.76533e-07
1.71293e-07
1.66106e-07
1.60975e-07
1.559e-07
1.50883e-07
1.45926e-07
1.4103e-07
1.36197e-07
1.3143e-07
1.26729e-07
1.22098e-07
1.17539e-07
1.13054e-07
1.08644e-07
1.04313e-07
1.00063e-07
9.58956e-08
9.18129e-08
8.7817e-08
8.39099e-08
8.00933e-08
7.63689e-08
7.27382e-08
6.92027e-08
6.57635e-08
6.24219e-08
5.91784e-08
5.60342e-08
5.29893e-08
5.00446e-08
4.71999e-08
4.44556e-08
4.18111e-08
3.92667e-08
3.68212e-08
3.44747e-08
3.22253e-08
3.00731e-08
2.80158e-08
2.60533e-08
2.41827e-08
2.24039e-08
2.07135e-08
1.91114e-08
1.75933e-08
1.61596e-08
1.48052e-08
1.35307e-08
1.23303e-08
1.12054e-08
1.01489e-08
9.16335e-09
8.24018e-09
7.38328e-09
6.58241e-09
5.84326e-09
5.15354e-09
4.52133e-09
3.93176e-09
3.39602e-09
2.89591e-09
2.44648e-09
2.02537e-09
1.6525e-09
1.30027e-09
9.94713e-10
7.01753e-10
4.55035e-10
2.12416e-10
1.6877e-11
-1.83594e-10
-3.34871e-10
-5.00726e-10
-6.14019e-10
-7.52025e-10
-8.33085e-10
-9.48977e-10
-1.00321e-09
-1.10123e-09
-1.13435e-09
-1.21649e-09
-1.23586e-09
-1.3003e-09
-1.31763e-09
-1.35544e-09
-1.39269e-09
-1.38021e-09
-1.48276e-09
-1.36274e-09
-1.63207e-09
-1.25776e-09
-1.93872e-09
-8.39544e-10
-2.58298e-09
2.16329e-09
-1.64694e-09
-1.64694e-09
-0.146488
0.146488
0.0383105
0.014234
0.00745602
0.00467275
0.00323055
0.00237653
0.00182708
0.00145306
0.00118762
0.000992883
0.000845958
0.000732363
0.000642595
0.000570249
0.000510907
0.00046146
0.000419681
0.000383945
0.00035305
0.00032609
0.000302371
0.000281354
0.000262615
0.000245814
0.000230678
0.000216981
0.000204538
0.000193192
0.000182814
0.000173291
0.000164528
0.000156444
0.000148969
0.000142039
0.000135602
0.000129611
0.000124023
0.000118802
0.000113916
0.000109336
0.000105035
0.00010099
9.71815e-05
9.359e-05
9.01987e-05
8.69925e-05
8.39576e-05
8.10814e-05
7.83527e-05
7.5761e-05
7.3297e-05
7.09519e-05
6.87178e-05
6.65875e-05
6.45544e-05
6.26122e-05
6.07553e-05
5.89785e-05
5.7277e-05
5.56463e-05
5.40823e-05
5.25812e-05
5.11393e-05
4.97535e-05
4.84205e-05
4.71376e-05
4.59022e-05
4.47116e-05
4.35636e-05
4.2456e-05
4.13869e-05
4.03542e-05
3.93562e-05
3.83912e-05
3.74578e-05
3.65543e-05
3.56794e-05
3.48319e-05
3.40105e-05
3.32141e-05
3.24415e-05
3.16918e-05
3.09639e-05
3.02571e-05
2.95704e-05
2.8903e-05
2.82541e-05
2.76231e-05
2.70092e-05
2.64118e-05
2.58302e-05
2.5264e-05
2.47125e-05
2.41751e-05
2.36515e-05
2.31411e-05
2.26435e-05
2.21582e-05
2.16849e-05
2.12231e-05
2.07724e-05
2.03326e-05
1.99032e-05
1.9484e-05
1.90746e-05
1.86748e-05
1.82842e-05
1.79026e-05
1.75297e-05
1.71653e-05
1.68091e-05
1.64609e-05
1.61205e-05
1.57876e-05
1.54621e-05
1.51438e-05
1.48325e-05
1.45279e-05
1.423e-05
1.39385e-05
1.36533e-05
1.33742e-05
1.31011e-05
1.28338e-05
1.25722e-05
1.23161e-05
1.20654e-05
1.18201e-05
1.15799e-05
1.13447e-05
1.11144e-05
1.0889e-05
1.06682e-05
1.04521e-05
1.02404e-05
1.00331e-05
9.83004e-06
9.6312e-06
9.43646e-06
9.24572e-06
9.0589e-06
8.87591e-06
8.69666e-06
8.52108e-06
8.34909e-06
8.1806e-06
8.01555e-06
7.85386e-06
7.69546e-06
7.54028e-06
7.38825e-06
7.23931e-06
7.09338e-06
6.95042e-06
6.81034e-06
6.67311e-06
6.53864e-06
6.4069e-06
6.27782e-06
6.15134e-06
6.02742e-06
5.906e-06
5.78703e-06
5.67046e-06
5.55623e-06
5.44431e-06
5.33464e-06
5.22718e-06
5.12189e-06
5.01871e-06
4.91761e-06
4.81855e-06
4.72148e-06
4.62636e-06
4.53315e-06
4.44182e-06
4.35233e-06
4.26463e-06
4.1787e-06
4.09449e-06
4.01198e-06
3.93113e-06
3.8519e-06
3.77426e-06
3.69818e-06
3.62364e-06
3.55059e-06
3.47901e-06
3.40887e-06
3.34014e-06
3.27279e-06
3.20679e-06
3.14212e-06
3.07875e-06
3.01665e-06
2.95581e-06
2.89618e-06
2.83776e-06
2.78051e-06
2.72441e-06
2.66944e-06
2.61558e-06
2.5628e-06
2.51108e-06
2.4604e-06
2.41075e-06
2.36209e-06
2.31441e-06
2.26769e-06
2.22191e-06
2.17705e-06
2.1331e-06
2.09003e-06
2.04783e-06
2.00648e-06
1.96596e-06
1.92626e-06
1.88736e-06
1.84924e-06
1.81189e-06
1.77529e-06
1.73943e-06
1.70429e-06
1.66986e-06
1.63613e-06
1.60307e-06
1.57068e-06
1.53895e-06
1.50785e-06
1.47738e-06
1.44752e-06
1.41827e-06
1.3896e-06
1.36151e-06
1.33399e-06
1.30703e-06
1.28061e-06
1.25472e-06
1.22936e-06
1.2045e-06
1.18015e-06
1.1563e-06
1.13292e-06
1.11002e-06
1.08758e-06
1.0656e-06
1.04406e-06
1.02296e-06
1.00228e-06
9.82028e-07
9.62183e-07
9.4274e-07
9.2369e-07
9.05025e-07
8.86736e-07
8.68816e-07
8.51255e-07
8.34045e-07
8.17178e-07
8.00645e-07
7.84438e-07
7.68548e-07
7.52966e-07
7.37684e-07
7.22693e-07
7.07984e-07
6.93549e-07
6.79378e-07
6.65462e-07
6.51794e-07
6.38363e-07
6.25161e-07
6.1218e-07
5.99411e-07
5.86845e-07
5.74474e-07
5.62289e-07
5.50283e-07
5.38448e-07
5.26776e-07
5.1526e-07
5.03893e-07
4.92668e-07
4.81579e-07
4.7062e-07
4.59786e-07
4.49071e-07
4.38471e-07
4.27981e-07
4.17598e-07
4.07318e-07
3.97138e-07
3.87055e-07
3.77068e-07
3.67175e-07
3.57375e-07
3.47667e-07
3.3805e-07
3.28525e-07
3.19093e-07
3.09754e-07
3.0051e-07
2.91362e-07
2.82312e-07
2.73363e-07
2.64518e-07
2.55778e-07
2.47148e-07
2.38631e-07
2.3023e-07
2.21949e-07
2.13792e-07
2.05763e-07
1.97866e-07
1.90104e-07
1.82482e-07
1.75003e-07
1.67672e-07
1.60492e-07
1.53466e-07
1.46598e-07
1.3989e-07
1.33347e-07
1.2697e-07
1.20761e-07
1.14724e-07
1.08859e-07
1.03168e-07
9.76532e-08
9.2314e-08
8.71519e-08
8.21666e-08
7.73589e-08
7.27275e-08
6.82727e-08
6.39926e-08
5.98869e-08
5.59527e-08
5.21896e-08
4.85938e-08
4.51648e-08
4.18977e-08
3.87921e-08
3.58418e-08
3.30467e-08
3.03994e-08
2.79001e-08
2.554e-08
2.33201e-08
2.12302e-08
1.92725e-08
1.74348e-08
1.57212e-08
1.41169e-08
1.26284e-08
1.12381e-08
9.9554e-09
8.75929e-09
7.66339e-09
6.64218e-09
5.71455e-09
4.84942e-09
4.07223e-09
3.34479e-09
2.70085e-09
2.09335e-09
1.56648e-09
1.06212e-09
6.37417e-10
2.20574e-10
-1.15351e-10
-4.58967e-10
-7.18233e-10
-1.00176e-09
-1.19532e-09
-1.43056e-09
-1.56841e-09
-1.76535e-09
-1.8569e-09
-2.02295e-09
-2.07802e-09
-2.21675e-09
-2.24789e-09
-2.35648e-09
-2.38358e-09
-2.44716e-09
-2.50731e-09
-2.48622e-09
-2.65596e-09
-2.45417e-09
-2.90434e-09
-2.27573e-09
-3.41722e-09
-1.57397e-09
-4.48691e-09
3.38677e-09
-2.92792e-09
-2.92792e-09
-0.160438
0.160438
0.0519966
0.0211683
0.0113796
0.00719514