# vtk DataFile Version 2.0
FlowField
ASCII
DATASET STRUCTURED_GRID
DIMENSIONS 400 1 200
POINTS 80000 float
0 0 0
0.08 0 0
0.16 0 0
0.24 0 0
0.32 0 0
0.4 0 0
0.48 0 0
0.56 0 0
0.64 0 0
0.72 0 0
0.8 0 0
0.88 0 0
0.96 0 0
1.04 0 0
1.12 0 0
1.2 0 0
1.28 0 0
1.36 0 0
1.44 0 0
1.52 0 0
1.6 0 0
1.68 0 0
1.76 0 0
1.84 0 0
1.92 0 0
2 0 0
2.08 0 0
2.16 0 0
2.24 0 0
2.32 0 0
2.4 0 0
2.48 0 0
2.56 0 0
2.64 0 0
2.72 0 0
2.8 0 0
2.88 0 0
2.96 0 0
3.04 0 0
3.12 0 0
3.2 0 0
3.28 0 0
3.36 0 0
3.44 0 0
3.52 0 0
3.6 0 0
3.68 0 0
3.76 0 0
3.84 0 0
3.92 0 0
4 0 0
4.08 0 0
4.16 0 0
4.24 0 0
4.32 0 0
4.4 0 0
4.48 0 0
4.56 0 0
4.64 0 0
4.72 0 0
4.8 0 0
4.88 0 0
4.96 0 0
5.04 0 0
5.12 0 0
5.2 0 0
5.28 0 0
5.36 0 0
5.44 0 0
5.52 0 0
5.6 0 0
5.68 0 0
5.76 0 0
5.84 0 0
5.92 0 0
6 0 0
6.08 0 0
6.16 0 0
6.24 0 0
6.32 0 0
6.4 0 0
6.48 0 0
6.56 0 0
6.64 0 0
6.72 0 0
6.8 0 0
6.88 0 0
6.96 0 0
7.04 0 0
7.12 0 0
7.2 0 0
7.28 0 0
7.36 0 0
7.44 0 0
7.52 0 0
7.6 0 0
7.68 0 0
7.76 0 0
7.84 0 0
7.92 0 0
8 0 0
8.08 0 0
8.16 0 0
8.24 0 0
8.32 0 0
8.4 0 0
8.48 0 0
8.56 0 0
8.64 0 0
8.72 0 0
8.8 0 0
8.88 0 0
8.96 0 0
9.04 0 0
9.12 0 0
9.2 0 0
9.28 0 0
9.36 0 0
9.44 0 0
9.52 0 0
9.6 0 0
9.68 0 0
9.76 0 0
9.84 0 0
9.92 0 0
10 0 0
10.08 0 0
10.16 0 0
10.24 0 0
10.32 0 0
10.4 0 0
10.48 0 0
10.56 0 0
10.64 0 0
10.72 0 0
10.8 0 0
10.88 0 0
10.96 0 0
11.04 0 0
11.12 0 0
11.2 0 0
11.28 0 0
11.36 0 0
11.44 0 0
11.52 0 0
11.6 0 0
11.68 0 0
11.76 0 0
11.84 0 0
11.92 0 0
12 0 0
12.08 0 0
12.16 0 0
12.24 0 0
12.32 0 0
12.4 0 0
12.48 0 0
12.56 0 0
12.64 0 0
12.72 0 0
12.8 0 0
12.88 0 0
12.96 0 0
13.04 0 0
13.12 0 0
13.2 0 0
13.28 0 0
13.36 0 0
13.44 0 0
13.52 0 0
13.6 0 0
13.68 0 0
13.76 0 0
13.84 0 0
13.92 0 0
14 0 0
14.08 0 0
14.16 0 0
14.24 0 0
14.32 0 0
14.4 0 0
14.48 0 0
14.56 0 0
14.64 0 0
14.72 0 0
14.8 0 0
14.88 0 0
14.96 0 0
15.04 0 0
15.12 0 0
15.2 0 0
15.28 0 0
15.36 0 0
15.44 0 0
15.52 0 0
15.6 0 0
15.68 0 0
15.76 0 0
15.84 0 0
15.92 0 0
16 0 0
16.08 0 0
16.16 0 0
16.24 0 0
16.32 0 0
16.4 0 0
16.48 0 0
16.56 0 0
16.64 0 0
16.72 0 0
16.8 0 0
16.88 0 0
16.96 0 0
17.04 0 0
17.12 0 0
17.2 0 0
17.28 0 0
17.36 0 0
17.44 0 0
17.52 0 0
17.6 0 0
17.68 0 0
17.76 0 0
17.84 0 0
17.92 0 0
18 0 0
18.08 0 0
18.16 0 0
18.24 0 0
18.32 0 0
18.4 0 0
18.48 0 0
18.56 0 0
18.64 0 0
18.72 0 0
18.8 0 0
18.88 0 0
18.96 0 0
19.04 0 0
19.12 0 0
19.2 0 0
19.28 0 0
19.36 0 0
19.44 0 0
19.52 0 0
19.6 0 0
19.68 0 0
19.76 0 0
19.84 0 0
19.92 0 0
20 0 0
20.08 0 0
20.16 0 0
20.24 0 0
20.32 0 0
20.4 0 0
20.48 0 0
20.56 0 0
20.64 0 0
20.72 0 0
20.8 0 0
20.88 0 0
20.96 0 0
21.04 0 0
21.12 0 0
21.2 0 0
21.28 0 0
21.36 0 0
21.44 0 0
21.52 0 0
21.6 0 0
21.68 0 0
21.76 0 0
21.84 0 0
21.92 0 0
22 0 0
22.08 0 0
22.16 0 0
22.24 0 0
22.32 0 0
22.4 0 0
22.48 0 0
22.56 0 0
22.64 0 0
22.72 0 0
22.8 0 0
22.88 0 0
22.96 0 0
23.04 0 0
23.12 0 0
23.2 0 0
23.28 0 0
23.36 0 0
23.44 0 0
23.52 0 0
23.6 0 0
23.68 0 0
23.76 0 0
23.84 0 0
23.92 0 0
24 0 0
24.08 0 0
24.16 0 0
24.24 0 0
24.32 0 0
24.4 0 0
24.48 0 0
24.56 0 0
24.64 0 0
24.72 0 0
24.8 0 0
24.88 0 0
24.96 0 0
25.04 0 0
25.12 0 0
25.2 0 0
25.28 0 0
25.36 0 0
25.44 0 0
25.52 0 0
25.6 0 0
25.68 0 0
25.76 0 0
25.84 0 0
25.92 0 0
26 0 0
26.08 0 0
26.16 0 0
26.24 0 0
26.32 0 0
26.4 0 0
26.48 0 0
26.56 0 0
26.64 0 0
26.72 0 0
26.8 0 0
26.88 0 0
26.96 0 0
27.04 0 0
27.12 0 0
27.2 0 0
27.28 0 0
27.36 0 0
27.44 0 0
27.52 0 0
27.6 0 0
27.68 0 0
27.76 0 0
27.84 0 0
27.92 0 0
28 0 0
28.08 0 0
28.16 0 0
28.24 0 0
28.32 0 0
28.4 0 0
28.48 0 0
28.56 0 0
28.64 0 0
28.72 0 0
28.8 0 0
28.88 0 0
28.96 0 0
29.04 0 0
29.12 0 0
29.2 0 0
29.28 0 0
29.36 0 0
29.44 0 0
29.52 0 0
29.6 0 0
29.68 0 0
29.76 0 0
29.84 0 0
29.92 0 0
30 0 0
30.08 0 0
30.16 0 0
30.24 0 0
30.32 0 0
30.4 0 0
30.48 0 0
30.56 0 0
30.64 0 0
30.72 0 0
30.8 0 0
30.88 0 0
30.96 0 0
31.04 0 0
31.12 0 0
31.2 0 0
31.28 0 0
31.36 0 0
31.44 0 0
31.52 0 0
31.6 0 0
31.68 0 0
31.76 0 0
31.84 0 0
31.92 0 0
0 0.005 0
0.08 0.005 0
0.16 0.005 0
0.24 0.005 0
0.32 0.005 0
0.4 0.005 0
0.48 0.005 0
0.56 0.005 0
0.64 0.005 0
0.72 0.005 0
0.8 0.005 0
0.88 0.005 0
0.96 0.005 0
1.04 0.005 0
1.12 0.005 0
1.2 0.005 0
1.28 0.005 0
1.36 0.005 0
1.44 0.005 0
1.52 0.005 0
1.6 0.005 0
1.68 0.005 0
1.76 0.005 0
1.84 0.005 0
1.92 0.005 0
2 0.005 0
2.08 0.005 0
2.16 0.005 0
2.24 0.005 0
2.32 0.005 0
2.4 0.005 0
2.48 0.005 0
2.56 0.005 0
2.64 0.005 0
2.72 0.005 0
2.8 0.005 0
2.88 0.005 0
2.96 0.005 0
3.04 0.005 0
3.12 0.005 0
3.2 0.005 0
3.28 0.005 0
3.36 0.005 0
3.44 0.005 0
3.52 0.005 0
3.6 0.005 0
3.68 0.005 0
3.76 0.005 0
3.84 0.005 0
3.92 0.005 0
4 0.005 0
4.08 0.005 0
4.16 0.005 0
4.24 0.005 0
4.32 0.005 0
4.4 0.005 0
4.48 0.005 0
4.56 0.005 0
4.64 0.005 0
4.72 0.005 0
4.8 0.005 0
4.88 0.005 0
4.96 0.005 0
5.04 0.005 0
5.12 0.005 0
5.2 0.005 0
5.28 0.005 0
5.36 0.005 0
5.44 0.005 0
5.52 0.005 0
5.6 0.005 0
5.68 0.005 0
5.76 0.005 0
5.84 0.005 0
5.92 0.005 0
6 0.005 0
6.08 0.005 0
6.16 0.005 0
6.24 0.005 0
6.32 0.005 0
6.4 0.005 0
6.48 0.005 0
6.56 0.005 0
6.64 0.005 0
6.72 0.005 0
6.8 0.005 0
6.88 0.005 0
6.96 0.005 0
7.04 0.005 0
7.12 0.005 0
7.2 0.005 0
7.28 0.005 0
7.36 0.005 0
7.44 0.005 0
7.52 0.005 0
7.6 0.005 0
7.68 0.005 0
7.76 0.005 0
7.84 0.005 0
7.92 0.005 0
8 0.005 0
8.08 0.005 0
8.16 0.005 0
8.24 0.005 0
8.32 0.005 0
8.4 0.005 0
8.48 0.005 0
8.56 0.005 0
8.64 0.005 0
8.72 0.005 0
8.8 0.005 0
8.88 0.005 0
8.96 0.005 0
9.04 0.005 0
9.12 0.005 0
9.2 0.005 0
9.28 0.005 0
9.36 0.005 0
9.44 0.005 0
9.52 0.005 0
9.6 0.005 0
9.68 0.005 0
9.76 0.005 0
9.84 0.005 0
9.92 0.005 0
10 0.005 0
10.08 0.005 0
10.16 0.005 0
10.24 0.005 0
10.32 0.005 0
10.4 0.005 0
10.48 0.005 0
10.56 0.005 0
10.64 0.005 0
10.72 0.005 0
10.8 0.005 0
10.88 0.005 0
10.96 0.005 0
11.04 0.005 0
11.12 0.005 0
11.2 0.005 0
11.28 0.005 0
11.36 0.005 0
11.44 0.005 0
11.52 0.005 0
11.6 0.005 0
11.68 0.005 0
11.76 0.005 0
11.84 0.005 0
11.92 0.005 0
12 0.005 0
12.08 0.005 0
12.16 0.005 0
12.24 0.005 0
12.32 0.005 0
12.4 0.005 0
12.48 0.005 0
12.56 0.005 0
12.64 0.005 0
12.72 0.005 0
12.8 0.005 0
12.88 0.005 0
12.96 0.005 0
13.04 0.005 0
13.12 0.005 0
13.2 0.005 0
13.28 0.005 0
13.36 0.005 0
13.44 0.005 0
13.52 0.005 0
13.6 0.005 0
13.68 0.005 0
13.76 0.005 0
13.84 0.005 0
13.92 0.005 0
14 0.005 0
14.08 0.005 0
14.16 0.005 0
14.24 0.005 0
14.32 0.005 0
14.4 0.005 0
14.48 0.005 0
14.56 0.005 0
14.64 0.005 0
14.72 0.005 0
14.8 0.005 0
14.88 0.005 0
14.96 0.005 0
15.04 0.005 0
15.12 0.005 0
15.2 0.005 0
15.28 0.005 0
15.36 0.005 0
15.44 0.005 0
15.52 0.005 0
15.6 0.005 0
15.68 0.005 0
15.76 0.005 0
15.84 0.005 0
15.92 0.005 0
16 0.005 0
16.08 0.005 0
16.16 0.005 0
16.24 0.005 0
16.32 0.005 0
16.4 0.005 0
16.48 0.005 0
16.56 0.005 0
16.64 0.005 0
16.72 0.005 0
16.8 0.005 0
16.88 0.005 0
16.96 0.005 0
17.04 0.005 0
17.12 0.005 0
17.2 0.005 0
17.28 0.005 0
17.36 0.005 0
17.44 0.005 0
17.52 0.005 0
17.6 0.005 0
17.68 0.005 0
17.76 0.005 0
17.84 0.005 0
17.92 0.005 0
18 0.005 0
18.08 0.005 0
18.16 0.005 0
18.24 0.005 0
18.32 0.005 0
18.4 0.005 0
18.48 0.005 0
18.56 0.005 0
18.64 0.005 0
18.72 0.005 0
18.8 0.005 0
18.88 0.005 0
18.96 0.005 0
19.04 0.005 0
19.12 0.005 0
19.2 0.005 0
19.28 0.005 0
19.36 0.005 0
19.44 0.005 0
19.52 0.005 0
19.6 0.005 0
19.68 0.005 0
19.76 0.005 0
19.84 0.005 0
19.92 0.005 0
20 0.005 0
20.08 0.005 0
20.16 0.005 0
20.24 0.005 0
20.32 0.005 0
20.4 0.005 0
20.48 0.005 0
20.56 0.005 0
20.64 0.005 0
20.72 0.005 0
20.8 0.005 0
20.88 0.005 0
20.96 0.005 0
21.04 0.005 0
21.12 0.005 0
21.2 0.005 0
21.28 0.005 0
21.36 0.005 0
21.44 0.005 0
21.52 0.005 0
21.6 0.005 0
21.68 0.005 0
21.76 0.005 0
21.84 0.005 0
21.92 0.005 0
22 0.005 0
22.08 0.005 0
22.16 0.005 0
22.24 0.005 0
22.32 0.005 0
22.4 0.005 0
22.48 0.005 0
22.56 0.005 0
22.64 0.005 0
22.72 0.005 0
22.8 0.005 0
22.88 0.005 0
22.96 0.005 0
23.04 0.005 0
23.12 0.005 0
23.2 0.005 0
23.28 0.005 0
23.36 0.005 0
23.44 0.005 0
23.52 0.005 0
23.6 0.005 0
23.68 0.005 0
23.76 0.005 0
23.84 0.005 0
23.92 0.005 0
24 0.005 0
24.08 0.005 0
24.16 0.005 0
24.24 0.005 0
24.32 0.005 0
24.4 0.005 0
24.48 0.005 0
24.56 0.005 0
24.64 0.005 0
24.72 0.005 0
24.8 0.005 0
24.88 0.005 0
24.96 0.005 0
25.04 0.005 0
25.12 0.005 0
25.2 0.005 0
25.28 0.005 0
25.36 0.005 0
25.44 0.005 0
25.52 0.005 0
25.6 0.005 0
25.68 0.005 0
25.76 0.005 0
25.84 0.005 0
25.92 0.005 0
26 0.005 0
26.08 0.005 0
26.16 0.005 0
26.24 0.005 0
26.32 0.005 0
26.4 0.005 0
26.48 0.005 0
26.56 0.005 0
26.64 0.005 0
26.72 0.005 0
26.8 0.005 0
26.88 0.005 0
26.96 0.005 0
27.04 0.005 0
27.12 0.005 0
27.2 0.005 0
27.28 0.005 0
27.36 0.005 0
27.44 0.005 0
27.52 0.005 0
27.6 0.005 0
27.68 0.005 0
27.76 0.005 0
27.84 0.005 0
27.92 0.005 0
28 0.005 0
28.08 0.005 0
28.16 0.005 0
28.24 0.005 0
28.32 0.005 0
28.4 0.005 0
28.48 0.005 0
28.56 0.005 0
28.64 0.005 0
28.72 0.005 0
28.8 0.005 0
28.88 0.005 0
28.96 0.005 0
29.04 0.005 0
29.12 0.005 0
29.2 0.005 0
29.28 0.005 0
29.36 0.005 0
29.44 0.005 0
29.52 0.005 0
29.6 0.005 0
29.68 0.005 0
29.76 0.005 0
29.84 0.005 0
29.92 0.005 0
30 0.005 0
30.08 0.005 0
30.16 0.005 0
30.24 0.005 0
30.32 0.005 0
30.4 0.005 0
30.48 0.005 0
30.56 0.005 0
30.64 0.005 0
30.72 0.005 0
30.8 0.005 0
30.88 0.005 0
30.96 0.005 0
31.04 0.005 0
31.12 0.005 0
31.2 0.005 0
31.28 0.005 0
31.36 0.005 0
31.44 0.005 0
31.52 0.005 0
31.6 0.005 0
31.68 0.005 0
31.76 0.005 0
31.84 0.005 0
31.92 0.005 0
0 0.01 0
0.08 0.01 0
0.16 0.01 0
0.24 0.01 0
0.32 0.01 0
0.4 0.01 0
0.48 0.01 0
0.56 0.01 0
0.64 0.01 0
0.72 0.01 0
0.8 0.01 0
0.88 0.01 0
0.96 0.01 0
1.04 0.01 0
1.12 0.01 0
1.2 0.01 0
1.28 0.01 0
1.36 0.01 0
1.44 0.01 0
1.52 0.01 0
1.6 0.01 0
1.68 0.01 0
1.76 0.01 0
1.84 0.01 0
1.92 0.01 0
2 0.01 0
2.08 0.01 0
2.16 0.01 0
2.24 0.01 0
2.32 0.01 0
2.4 0.01 0
2.48 0.01 0
2.56 0.01 0
2.64 0.01 0
2.72 0.01 0
2.8 0.01 0
2.88 0.01 0
2.96 0.01 0
3.04 0.01 0
3.12 0.01 0
3.2 0.01 0
3.28 0.01 0
3.36 0.01 0
3.44 0.01 0
3.52 0.01 0
3.6 0.01 0
3.68 0.01 0
3.76 0.01 0
3.84 0.01 0
3.92 0.01 0
4 0.01 0
4.08 0.01 0
4.16 0.01 0
4.24 0.01 0
4.32 0.01 0
4.4 0.01 0
4.48 0.01 0
4.56 0.01 0
4.64 0.01 0
4.72 0.01 0
4.8 0.01 0
4.88 0.01 0
4.96 0.01 0
5.04 0.01 0
5.12 0.01 0
[...]
POINT_DATA 80000

SCALARS u float 1
LOOKUP_TABLE default
0
-0.131663
-0.0682702
-0.0522973
-0.0444214
-0.0395784
-0.0362615
-0.0338347
-0.0319749
-0.0304984
-0.0292926
-0.0282846
-0.0274255
-0.0266814
-0.026028
-0.0254478
-0.0249277
-0.024458
-0.0240311
-0.023641
-0.0232825
-0.0229517
-0.0226458
-0.0223627
-0.0221005
-0.0218573
-0.0216307
-0.0214192
-0.021222
-0.0210397
-0.0208734
-0.0207238
-0.0205906
-0.0204727
-0.0203687
-0.0202771
-0.0201973
-0.0201285
-0.02007
-0.0200203
-0.0199776
-0.0199397
-0.0199047
-0.0198713
-0.0198391
-0.0198085
-0.0197802
-0.019755
-0.0197337
-0.0197166
-0.0197036
-0.0196943
-0.0196882
-0.0196846
-0.0196828
-0.0196823
-0.0196826
-0.0196834
-0.0196846
-0.0196858
-0.0196872
-0.0196885
-0.0196899
-0.0196914
-0.0196928
-0.0196942
-0.0196957
-0.0196971
-0.0196986
-0.0197001
-0.0197015
-0.019703
-0.0197045
-0.019706
-0.0197075
-0.019709
-0.0197105
-0.019712
-0.0197135
-0.019715
-0.0197165
-0.019718
-0.0197195
-0.019721
-0.0197225
-0.019724
-0.0197255
-0.019727
-0.0197285
-0.0197301
-0.0197316
-0.0197331
-0.0197346
-0.0197361
-0.0197376
-0.0197392
-0.0197407
-0.0197422
-0.0197437
-0.0197453
-0.0197468
-0.0197483
-0.0197498
-0.0197514
-0.0197529
-0.0197544
-0.019756
-0.0197575
-0.019759
-0.0197606
-0.0197621
-0.0197636
-0.0197652
-0.0197667
-0.0197683
-0.0197698
-0.0197714
-0.0197729
-0.0197745
-0.019776
-0.0197776
-0.0197791
-0.0197807
-0.0197822
-0.0197838
-0.0197853
-0.0197869
-0.0197884
-0.01979
-0.0197916
-0.0197931
-0.0197947
-0.0197962
-0.0197978
-0.0197994
-0.0198009
-0.0198025
-0.0198041
-0.0198057
-0.0198072
-0.0198088
-0.0198104
-0.0198119
-0.0198135
-0.0198151
-0.0198167
-0.0198183
-0.0198198
-0.0198214
-0.019823
-0.0198246
-0.0198262
-0.0198278
-0.0198294
-0.0198309
-0.0198325
-0.0198341
-0.0198357
-0.0198373
-0.0198389
-0.0198405
-0.0198421
-0.0198437
-0.0198453
-0.0198469
-0.0198485
-0.0198501
-0.0198517
-0.0198533
-0.0198549
-0.0198565
-0.0198581
-0.0198598
-0.0198614
-0.019863
-0.0198646
-0.0198662
-0.0198678
-0.0198694
-0.0198711
-0.0198727
-0.0198743
-0.0198759
-0.0198775
-0.0198792
-0.0198808
-0.0198824
-0.019884
-0.0198857
-0.0198873
-0.0198889
-0.0198906
-0.0198922
-0.0198938
-0.0198955
-0.0198971
-0.0198987
-0.0199004
-0.019902
-0.0199037
-0.0199053
-0.0199069
-0.0199086
-0.0199102
-0.0199119
-0.0199135
-0.0199152
-0.0199168
-0.0199185
-0.0199201
-0.0199218
-0.0199234
-0.0199251
-0.0199267
-0.0199284
-0.01993
-0.0199317
-0.0199334
-0.019935
-0.0199367
-0.0199383
-0.01994
-0.0199417
-0.0199433
-0.019945
-0.0199467
-0.0199483
-0.01995
-0.0199517
-0.0199533
-0.019955
-0.0199567
-0.0199583
-0.01996
-0.0199617
-0.0199634
-0.019965
-0.0199667
-0.0199684
-0.0199701
-0.0199717
-0.0199734
-0.0199751
-0.0199768
-0.0199785
-0.0199802
-0.0199818
-0.0199835
-0.0199852
-0.0199869
-0.0199886
-0.0199903
-0.0199919
-0.0199936
-0.0199953
-0.019997
-0.0199987
-0.0200004
-0.0200021
-0.0200038
-0.0200054
-0.0200071
-0.0200088
-0.0200105
-0.0200122
-0.0200139
-0.0200156
-0.0200173
-0.020019
-0.0200207
-0.0200224
-0.0200241
-0.0200257
-0.0200274
-0.0200291
-0.0200308
-0.0200325
-0.0200342
-0.0200359
-0.0200376
-0.0200393
-0.020041
-0.0200427
-0.0200444
-0.0200461
-0.0200478
-0.0200495
-0.0200512
-0.0200529
-0.0200546
-0.0200563
-0.020058
-0.0200597
-0.0200614
-0.0200631
-0.0200648
-0.0200665
-0.0200682
-0.0200699
-0.0200716
-0.0200733
-0.020075
-0.0200767
-0.0200784
-0.0200801
-0.0200818
-0.0200835
-0.0200852
-0.0200869
-0.0200886
-0.0200903
-0.0200921
-0.0200938
-0.0200955
-0.0200972
-0.0200989
-0.0201006
-0.0201023
-0.020104
-0.0201057
-0.0201074
-0.0201092
-0.0201109
-0.0201126
-0.0201143
-0.020116
-0.0201178
-0.0201195
-0.0201212
-0.0201229
-0.0201247
-0.0201264
-0.0201281
-0.0201298
-0.0201316
-0.0201333
-0.020135
-0.0201368
-0.0201385
-0.0201403
-0.020142
-0.0201438
-0.0201455
-0.0201473
-0.020149
-0.0201508
-0.0201525
-0.0201543
-0.0201561
-0.0201578
-0.0201596
-0.0201614
-0.0201632
-0.0201649
-0.0201667
-0.0201685
-0.0201703
-0.0201721
-0.0201739
-0.0201757
-0.0201775
-0.0201793
-0.0201811
-0.020183
-0.0201848
-0.0201866
-0.0201885
-0.0201903
-0.0201921
-0.020194
-0.0201958
-0.0201977
-0.0201996
-0.0202015
-0.0202033
-0.0202052
-0.0202071
-0.020209
-0.0202109
-0.0202129
-0.0202147
-0.0202167
-0.0202186
-0.0202206
-0.0202225
-0.0202245
-0.0202264
-0.0202284
-0.0202303
-0.0202324
-0.0202343
-0.0202364
-0.0202385
-0.0202404
-0.0202428
-0.0202442
-0.0202474
-0.0202446
-0.0202446
-0.0202446
1
0.131663
0.0682702
0.0522973
0.0444214
0.0395784
0.0362615
0.0338347
0.0319749
0.0304984
0.0292926
0.0282846
0.0274255
0.0266814
0.026028
0.0254478
0.0249277
0.024458
0.0240311
0.023641
0.0232825
0.0229517
0.0226458
0.0223627
0.0221005
0.0218573
0.0216307
0.0214192
0.021222
0.0210397
0.0208734
0.0207238
0.0205906
0.0204727
0.0203687
0.0202771
0.0201973
0.0201285
0.02007
0.0200203
0.0199776
0.0199397
0.0199047
0.0198713
0.0198391
0.0198085
0.0197802
0.019755
0.0197337
0.0197166
0.0197036
0.0196943
0.0196882
0.0196846
0.0196828
0.0196823
0.0196826
0.0196834
0.0196846
0.0196858
0.0196872
0.0196885
0.0196899
0.0196914
0.0196928
0.0196942
0.0196957
0.0196971
0.0196986
0.0197001
0.0197015
0.019703
0.0197045
0.019706
0.0197075
0.019709
0.0197105
0.019712
0.0197135
0.019715
0.0197165
0.019718
0.0197195
0.019721
0.0197225
0.019724
0.0197255
0.019727
0.0197285
0.0197301
0.0197316
0.0197331
0.0197346
0.0197361
0.0197376
0.0197392
0.0197407
0.0197422
0.0197437
0.0197453
0.0197468
0.0197483
0.0197498
0.0197514
0.0197529
0.0197544
0.019756
0.0197575
0.019759
0.0197606
0.0197621
0.0197636
0.0197652
0.0197667
0.0197683
0.0197698
0.0197714
0.0197729
0.0197745
0.019776
0.0197776
0.0197791
0.0197807
0.0197822
0.0197838
0.0197853
0.0197869
0.0197884
0.01979
0.0197916
0.0197931
0.0197947
0.0197962
0.0197978
0.0197994
0.0198009
0.0198025
0.0198041
0.0198057
0.0198072
0.0198088
0.0198104
0.0198119
0.0198135
0.0198151
0.0198167
0.0198183
0.0198198
0.0198214
0.019823
0.0198246
0.0198262
0.0198278
0.0198294
0.0198309
0.0198325
0.0198341
0.0198357
0.0198373
0.0198389
0.0198405
0.0198421
0.0198437
0.0198453
0.0198469
0.0198485
0.0198501
0.0198517
0.0198533
0.0198549
0.0198565
0.0198581
0.0198598
0.0198614
0.019863
0.0198646
0.0198662
0.0198678
0.0198694
0.0198711
0.0198727
0.0198743
0.0198759
0.0198775
0.0198792
0.0198808
0.0198824
0.019884
0.0198857
0.0198873
0.0198889
0.0198906
0.0198922
0.0198938
0.0198955
0.0198971
0.0198987
0.0199004
0.019902
0.0199037
0.0199053
0.0199069
0.0199086
0.0199102
0.0199119
0.0199135
0.0199152
0.0199168
0.0199185
0.0199201
0.0199218
0.0199234
0.0199251
0.0199267
0.0199284
0.01993
0.0199317
0.0199334
0.019935
0.0199367
0.0199383
0.01994
0.0199417
0.0199433
0.019945
0.0199467
0.0199483
0.01995
0.0199517
0.0199533
0.019955
0.0199567
0.0199583
0.01996
0.0199617
0.0199634
0.019965
0.0199667
0.0199684
0.0199701
0.0199717
0.0199734
0.0199751
0.0199768
0.0199785
0.0199802
0.0199818
0.0199835
0.0199852
0.0199869
0.0199886
0.0199903
0.0199919
0.0199936
0.0199953
0.019997
0.0199987
0.0200004
0.0200021
0.0200038
0.0200054
0.0200071
0.0200088
0.0200105
0.0200122
0.0200139
0.0200156
0.0200173
0.020019
0.0200207
0.0200224
0.0200241
0.0200257
0.0200274
0.0200291
0.0200308
0.0200325
0.0200342
0.0200359
0.0200376
0.0200393
0.020041
0.0200427
0.0200444
0.0200461
0.0200478
0.0200495
0.0200512
0.0200529
0.0200546
0.0200563
0.020058
0.0200597
0.0200614
0.0200631
0.0200648
0.0200665
0.0200682
0.0200699
0.0200716
0.0200733
0.020075
0.0200767
0.0200784
0.0200801
0.0200818
0.0200835
0.0200852
0.0200869
0.0200886
0.0200903
0.0200921
0.0200938
0.0200955
0.0200972
0.0200989
0.0201006
0.0201023
0.020104
0.0201057
0.0201074
0.0201092
0.0201109
0.0201126
0.0201143
0.020116
0.0201178
0.0201195
0.0201212
0.0201229
0.0201247
0.0201264
0.0201281
0.0201298
0.0201316
0.0201333
0.020135
0.0201368
0.0201385
0.0201403
0.020142
0.0201438
0.0201455
0.0201473
0.020149
0.0201508
0.0201525
0.0201543
0.0201561
0.0201578
0.0201596
0.0201614
0.0201632
0.0201649
0.0201667
0.0201685
0.0201703
0.0201721
0.0201739
0.0201757
0.0201775
0.0201793
0.0201811
0.020183
0.0201848
0.0201866
0.0201885
0.0201903
0.0201921
0.020194
0.0201958
0.0201977
0.0201996
0.0202015
0.0202033
0.0202052
0.0202071
0.020209
0.0202109
0.0202129
0.0202147
0.0202167
0.0202186
0.0202206
0.0202225
0.0202245
0.0202264
0.0202284
0.0202303
0.0202324
0.0202343
0.0202364
0.0202385
0.0202404
0.0202428
0.0202442
0.0202474
0.0202446
0.0202446
0.0202446
1
0.344885
0.20067
0.154971
0.131899
0.117603
0.107773
0.100564
0.0950315
0.0906363
0.0870459
0.0840448
0.081488
0.0792744
0.0773318
0.0756078
0.0740632
0.0726691
0.0714028
0.0702459
0.0691834
0.0682037
0.0672983
0.066461
0.0656861
0.0649672
0.0642983
0.0636747
0.0630952
0.0625611
0.0620753
0.0616391
0.0612516
0.0609092
0.0606077
0.0603434
0.0601135
0.0599156
0.0597469
0.0596028
0.0594779
0.059366
0.0592624
0.0591641
0.0590703
0.0589822
0.0589019
0.0588316
0.0587729
0.0587263
0.0586915
0.0586671
0.0586514
0.0586424
0.0586384
0.0586377
0.0586391
0.0586419
0.0586454
0.0586492
0.0586533
0.0586574
0.0586616
0.0586659
0.0586701
0.0586744
0.0586788
0.0586831
0.0586875
0.0586919
0.0586963
0.0587008
0.0587052
0.0587097
0.0587141
0.0587186
0.0587231
0.0587275
0.058732
0.0587365
0.058741
0.0587455
0.05875
0.0587545
0.058759
0.0587635
0.058768
0.0587725
0.0587771
0.0587816
0.0587861
0.0587906
0.0587952
0.0587997
0.0588042
0.0588088
0.0588133
0.0588179
0.0588224
0.058827
0.0588316
0.0588361
0.0588407
0.0588453
0.0588499
0.0588544
0.058859
0.0588636
0.0588682
0.0588728
0.0588774
0.058882
0.0588866
0.0588912
0.0588958
0.0589004
0.058905
0.0589097
0.0589143
0.0589189
0.0589236
0.0589282
0.0589328
0.0589375
0.0589421
0.0589468
0.0589514
0.0589561
0.0589608
0.0589654
0.0589701
0.0589748
0.0589794
0.0589841
0.0589888
0.0589935
0.0589982
0.0590029
0.0590076
0.0590123
0.059017
0.0590217
0.0590264
0.0590311
0.0590358
0.0590405
0.0590452
0.05905
0.0590547
0.0590594
0.0590642
0.0590689
0.0590737
0.0590784
0.0590832
0.0590879
0.0590927
0.0590974
0.0591022
0.059107
0.0591117
0.0591165
0.0591213
0.0591261
0.0591309
0.0591357
0.0591405
0.0591453
0.0591501
0.0591549
0.0591597
0.0591645
0.0591693
0.0591741
0.0591789
0.0591838
0.0591886
0.0591934
0.0591982
0.0592031
0.0592079
0.0592128
0.0592176
0.0592225
0.0592273
0.0592322
0.0592371
0.0592419
0.0592468
0.0592517
0.0592565
0.0592614
0.0592663
0.0592712
0.0592761
0.059281
0.0592859
0.0592908
0.0592957
0.0593006
0.0593055
0.0593104
0.0593153
0.0593202
0.0593252
0.0593301
0.059335
0.0593399
0.0593449
0.0593498
0.0593548
0.0593597
0.0593647
0.0593696
0.0593746
0.0593795
0.0593845
0.0593894
0.0593944
0.0593994
0.0594044
0.0594093
0.0594143
0.0594193
0.0594243
0.0594293
0.0594343
0.0594393
0.0594443
0.0594493
0.0594543
0.0594593
0.0594643
0.0594693
0.0594743
0.0594793
0.0594843
0.0594894
0.0594944
0.0594994
0.0595045
0.0595095
0.0595145
0.0595196
0.0595246
0.0595296
0.0595347
0.0595397
0.0595448
0.0595498
0.0595549
0.05956
0.059565
0.0595701
0.0595751
0.0595802
0.0595853
0.0595904
0.0595954
0.0596005
0.0596056
0.0596107
0.0596157
0.0596208
0.0596259
0.059631
0.0596361
0.0596412
0.0596463
0.0596514
0.0596565
0.0596616
0.0596667
0.0596718
0.0596769
0.059682
0.0596871
0.0596922
0.0596973
0.0597024
0.0597075
0.0597126
0.0597178
0.0597229
0.059728
0.0597331
0.0597382
0.0597434
0.0597485
0.0597536
0.0597588
0.0597639
0.059769
0.0597742
0.0597793
0.0597844
0.0597896
0.0597947
0.0597999
0.059805
0.0598102
0.0598153
0.0598205
0.0598256
0.0598308
0.0598359
0.0598411
0.0598463
0.0598514
0.0598566
0.0598618
0.059867
0.0598721
0.0598773
0.0598825
0.0598877
0.0598929
0.0598981
0.0599033
0.0599085
0.0599137
0.0599189
0.0599241
0.0599293
0.0599345
0.0599398
0.059945
0.0599502
0.0599555
0.0599607
0.059966
0.0599712
0.0599765
0.0599818
0.059987
0.0599923
0.0599976
0.0600029
0.0600082
0.0600135
0.0600188
0.0600242
0.0600295
0.0600348
0.0600402
0.0600455
0.0600509
0.0600563
0.0600617
0.0600671
0.0600725
0.0600779
0.0600833
0.0600888
0.0600942
0.0600997
0.0601051
0.0601106
0.0601161
0.0601216
0.0601272
0.0601327
0.0601382
0.0601438
0.0601494
0.060155
0.0601606
0.0601662
0.0601718
0.0601776
0.0601832
0.0601889
0.0601946
0.0602004
0.060206
0.0602119
0.0602176
0.0602235
0.0602292
0.0602351
0.0602409
0.0602469
0.0602526
0.0602587
0.0602645
0.0602706
0.0602764
0.0602827
0.0602885
0.0602948
0.0603007
0.060307
0.0603132
0.0603191
0.0603263
0.0603307
0.0603401
0.0603336
0.0603336
0.0603336
1
0.518768
0.327406
0.255353
0.217855
0.194411
0.17822
0.166317
0.157169
0.149896
0.143952
0.138984
0.134752
0.131089
0.127876
0.125026
0.122473
0.120171
0.118079
0.11617
0.114416
0.112801
0.111308
0.109929
0.108652
0.107469
0.106368
0.105343
0.104393
0.103519
0.102726
0.102015
0.101383
0.100826
0.100337
0.0999091
0.0995375
0.0992178
0.0989445
0.0987101
0.0985053
0.0983212
0.0981505
0.097989
0.0978362
0.097694
0.0975658
0.0974549
0.0973632
0.0972914
0.0972383
0.0972016
0.0971784
0.0971656
0.0971602
0.0971599
0.0971629
0.0971678
0.0971737
0.0971802
0.097187
0.0971939
0.0972009
0.0972079
0.097215
0.0972222
0.0972294
0.0972366
0.0972439
0.0972512
0.0972585
0.0972659
0.0972733
0.0972807
0.0972881
0.0972955
0.0973029
0.0973103
0.0973178
0.0973252
0.0973327
0.0973401
0.0973476
0.0973551
0.0973626
0.09737
0.0973775
0.097385
0.0973925
0.0974
0.0974075
0.0974151
0.0974226
0.0974301
0.0974377
0.0974452
0.0974527
0.0974603
0.0974679
0.0974754
0.097483
0.0974906
0.0974982
0.0975057
0.0975133
0.0975209
0.0975285
0.0975362
0.0975438
0.0975514
0.097559
0.0975667
0.0975743
0.097582
0.0975896
0.0975973
0.0976049
0.0976126
0.0976203
0.097628
0.0976357
0.0976434
0.0976511
0.0976588
0.0976665
0.0976742
0.0976819
0.0976896
0.0976974
0.0977051
0.0977129
0.0977206
0.0977284
0.0977361
0.0977439
0.0977517
0.0977595
0.0977673
0.097775
0.0977828
0.0977907
0.0977985
0.0978063
0.0978141
0.0978219
0.0978298
0.0978376
0.0978455
0.0978533
0.0978612
0.097869
0.0978769
0.0978848
0.0978926
0.0979005
0.0979084
0.0979163
0.0979242
0.0979321
0.0979401
0.097948
0.0979559
0.0979638
0.0979718
0.0979797
0.0979877
0.0979956
0.0980036
0.0980116
0.0980195
0.0980275
0.0980355
0.0980435
0.0980515
0.0980595
0.0980675
0.0980755
0.0980835
0.0980916
0.0980996
0.0981076
0.0981157
0.0981237
0.0981318
0.0981398
0.0981479
0.098156
0.098164
0.0981721
0.0981802
0.0981883
0.0981964
0.0982045
0.0982126
0.0982208
0.0982289
0.098237
0.0982451
0.0982533
0.0982614
0.0982696
0.0982777
0.0982859
0.0982941
0.0983022
0.0983104
0.0983186
0.0983268
0.098335
0.0983432
0.0983514
0.0983596
0.0983679
0.0983761
0.0983843
0.0983925
0.0984008
0.098409
0.0984173
0.0984255
0.0984338
0.0984421
0.0984504
0.0984586
0.0984669
0.0984752
0.0984835
0.0984918
0.0985001
0.0985084
0.0985167
0.0985251
0.0985334
0.0985417
0.0985501
0.0985584
0.0985668
0.0985751
0.0985835
0.0985918
0.0986002
0.0986086
0.0986169
0.0986253
0.0986337
0.0986421
0.0986505
0.0986589
0.0986673
0.0986757
0.0986841
0.0986925
0.098701
0.0987094
0.0987178
0.0987263
0.0987347
0.0987432
0.0987516
0.0987601
0.0987685
0.098777
0.0987854
0.0987939
0.0988024
0.0988109
0.0988193
0.0988278
0.0988363
0.0988448
0.0988533
0.0988618
0.0988703
0.0988788
0.0988874
0.0988959
0.0989044
0.0989129
0.0989214
0.09893
0.0989385
0.0989471
0.0989556
0.0989641
0.0989727
0.0989813
0.0989898
0.0989984
0.0990069
0.0990155
0.0990241
0.0990327
0.0990413
0.0990498
0.0990584
0.099067
0.0990756
0.0990842
0.0990929
0.0991015
0.0991101
0.0991187
0.0991273
0.099136
0.0991446
0.0991532
0.0991619
0.0991705
0.0991792
0.0991879
0.0991965
0.0992052
0.0992139
0.0992226
0.0992313
0.09924
0.0992487
0.0992574
0.0992661
0.0992748
0.0992836
0.0992923
0.0993011
0.0993098
0.0993186
0.0993274
0.0993362
0.099345
0.0993538
0.0993626
0.0993714
0.0993802
0.0993891
0.0993979
0.0994068
0.0994157
0.0994246
0.0994335
0.0994424
0.0994513
0.0994603
0.0994692
0.0994782
0.0994872
0.0994962
0.0995052
0.0995142
0.0995233
0.0995324
0.0995414
0.0995505
0.0995596
0.0995688
0.0995779
0.0995871
0.0995963
0.0996055
0.0996147
0.099624
0.0996333
0.0996426
0.0996519
0.0996612
0.0996706
0.09968
0.0996894
0.0996988
0.0997083
0.0997178
0.0997273
0.0997368
0.0997465
0.099756
0.0997657
0.0997752
0.099785
0.0997946
0.0998045
0.0998142
0.0998241
0.0998338
0.0998438
0.0998535
0.0998637
0.0998734
0.0998837
0.0998934
0.0999039
0.0999136
0.0999242
0.0999341
0.0999446
0.099955
0.099965
0.0999768
0.0999846
0.0999997
0.0999914
0.0999914
0.0999914
1
0.66089
0.446899
0.352885
0.302038
0.26986
0.247513
0.231031
0.218342
0.208242
0.199984
0.19308
0.187199
0.182111
0.177648
0.173691
0.170148
0.166953
0.164053
0.161405
0.158975
0.156736
0.15467
0.15276
0.150993
0.149356
0.147834
0.146419
0.145109
0.143907
0.142817
0.141841
0.140976
0.140214
0.139545
0.138961
0.138455
0.138019
0.137646
0.137325
0.137042
0.136787
0.13655
0.136327
0.136118
0.135925
0.135753
0.135605
0.135484
0.13539
0.135322
0.135275
0.135246
0.135231
0.135225
0.135226
0.13523
0.135237
0.135246
0.135255
0.135264
0.135274
0.135284
0.135294
0.135304
0.135314
0.135324
0.135334
0.135344
0.135354
0.135364
0.135374
0.135385
0.135395
0.135405
0.135416
0.135426
0.135436
0.135447
0.135457
0.135467
0.135478
0.135488
0.135499
0.135509
0.13552
0.13553
0.13554
0.135551
0.135561
0.135572
0.135582
0.135593
0.135603
0.135614
0.135624
0.135635
0.135645
0.135656
0.135666
0.135677
0.135687
0.135698
0.135708
0.135719
0.13573
0.13574
0.135751
0.135761
0.135772
0.135783
0.135793
0.135804
0.135815
0.135825
0.135836
0.135847
0.135857
0.135868
0.135879
0.135889
0.1359
0.135911
0.135922
0.135932
0.135943
0.135954
0.135965
0.135975
0.135986
0.135997
0.136008
0.136019
0.136029
0.13604
0.136051
0.136062
0.136073
0.136084
0.136094
0.136105
0.136116
0.136127
0.136138
0.136149
0.13616
0.136171
0.136182
0.136192
0.136203
0.136214
0.136225
0.136236
0.136247
0.136258
0.136269
0.13628
0.136291
0.136302
0.136313
0.136324
0.136335
0.136346
0.136357
0.136369
0.13638
0.136391
0.136402
0.136413
0.136424
0.136435
0.136446
0.136457
0.136468
0.13648
0.136491
0.136502
0.136513
0.136524
0.136535
0.136547
0.136558
0.136569
0.13658
0.136592
0.136603
0.136614
0.136625
0.136637
0.136648
0.136659
0.13667
0.136682
0.136693
0.136704
0.136716
0.136727
0.136738
0.13675
0.136761
0.136772
0.136784
0.136795
0.136806
0.136818
0.136829
0.136841
0.136852
0.136863
0.136875
0.136886
0.136898
0.136909
0.136921
0.136932
0.136944
0.136955
0.136967
0.136978
0.13699
0.137001
0.137013
0.137024
0.137036
0.137047
0.137059
0.13707
0.137082
0.137094
0.137105
0.137117
0.137128
0.13714
0.137152
0.137163
0.137175
0.137186
0.137198
0.13721
0.137221
0.137233
0.137245
0.137256
0.137268
0.13728
0.137292
0.137303
0.137315
0.137327
0.137338
0.13735
0.137362
0.137374
0.137386
0.137397
0.137409
0.137421
0.137433
0.137444
0.137456
0.137468
0.13748
0.137492
0.137504
0.137515
0.137527
0.137539
0.137551
0.137563
0.137575
0.137587
0.137598
0.13761
0.137622
0.137634
0.137646
0.137658
0.13767
0.137682
0.137694
0.137706
0.137718
0.13773
0.137742
0.137754
0.137766
0.137778
0.13779
0.137802
0.137814
0.137826
0.137838
0.13785
0.137862
0.137874
0.137886
0.137898
0.13791
0.137922
0.137934
0.137946
0.137958
0.13797
0.137982
0.137995
0.138007
0.138019
0.138031
0.138043
0.138055
0.138067
0.13808
0.138092
0.138104
0.138116
0.138128
0.138141
0.138153
0.138165
0.138177
0.13819
0.138202
0.138214
0.138227
0.138239
0.138251
0.138264
0.138276
0.138288
0.138301
0.138313
0.138326
0.138338
0.138351
0.138363
0.138375
0.138388
0.138401
0.138413
0.138426
0.138438
0.138451
0.138463
0.138476
0.138489
0.138501
0.138514
0.138527
0.13854
0.138552
0.138565
0.138578
0.138591
0.138604
0.138617
0.13863
0.138643
0.138656
0.138669
0.138682
0.138695
0.138708
0.138721
0.138734
0.138747
0.138761
0.138774
0.138787
0.1388
0.138814
0.138827
0.138841
0.138854
0.138868
0.138881
0.138895
0.138909
0.138922
0.138936
0.13895
0.138963
0.138978
0.138991
0.139005
0.139019
0.139033
0.139047
0.139062
0.139075
0.13909
0.139104
0.139119
0.139133
0.139147
0.139164
0.139175
0.139195
0.139187
0.139187
0.139187
1
0.776805
0.557831
0.446886
0.384111
0.343755
0.315524
0.29462
0.278486
0.265626
0.255103
0.246302
0.238805
0.232317
0.226629
0.221586
0.217074
0.213005
0.209312
0.205942
0.202849
0.200002
0.197374
0.194947
0.192702
0.190621
0.188689
0.186895