# vtk DataFile Version 2.0
FlowField
ASCII
DATASET STRUCTURED_GRID
DIMENSIONS 400 1 200
POINTS 80000 float
0 0 0
0.08 0 0
0.16 0 0
0.24 0 0
0.32 0 0
0.4 0 0
0.48 0 0
0.56 0 0
0.64 0 0
0.72 0 0
0.8 0 0
0.88 0 0
0.96 0 0
1.04 0 0
1.12 0 0
1.2 0 0
1.28 0 0
1.36 0 0
1.44 0 0
1.52 0 0
1.6 0 0
1.68 0 0
1.76 0 0
1.84 0 0
1.92 0 0
2 0 0
2.08 0 0
2.16 0 0
2.24 0 0
2.32 0 0
2.4 0 0
2.48 0 0
2.56 0 0
2.64 0 0
2.72 0 0
2.8 0 0
2.88 0 0
2.96 0 0
3.04 0 0
3.12 0 0
3.2 0 0
3.28 0 0
3.36 0 0
3.44 0 0
3.52 0 0
3.6 0 0
3.68 0 0
3.76 0 0
3.84 0 0
3.92 0 0
4 0 0
4.08 0 0
4.16 0 0
4.24 0 0
4.32 0 0
4.4 0 0
4.48 0 0
4.56 0 0
4.64 0 0
4.72 0 0
4.8 0 0
4.88 0 0
4.96 0 0
5.04 0 0
5.12 0 0
5.2 0 0
5.28 0 0
5.36 0 0
5.44 0 0
5.52 0 0
5.6 0 0
5.68 0 0
5.76 0 0
5.84 0 0
5.92 0 0
6 0 0
6.08 0 0
6.16 0 0
6.24 0 0
6.32 0 0
6.4 0 0
6.48 0 0
6.56 0 0
6.64 0 0
6.72 0 0
6.8 0 0
6.88 0 0
6.96 0 0
7.04 0 0
7.12 0 0
7.2 0 0
7.28 0 0
7.36 0 0
7.44 0 0
7.52 0 0
7.6 0 0
7.68 0 0
7.76 0 0
7.84 0 0
7.92 0 0
8 0 0
8.08 0 0
8.16 0 0
8.24 0 0
8.32 0 0
8.4 0 0
8.48 0 0
8.56 0 0
8.64 0 0
8.72 0 0
8.8 0 0
8.88 0 0
8.96 0 0
9.04 0 0
9.12 0 0
9.2 0 0
9.28 0 0
9.36 0 0
9.44 0 0
9.52 0 0
9.6 0 0
9.68 0 0
9.76 0 0
9.84 0 0
9.92 0 0
10 0 0
10.08 0 0
10.16 0 0
10.24 0 0
10.32 0 0
10.4 0 0
10.48 0 0
10.56 0 0
10.64 0 0
10.72 0 0
10.8 0 0
10.88 0 0
10.96 0 0
11.04 0 0
11.12 0 0
11.2 0 0
11.28 0 0
11.36 0 0
11.44 0 0
11.52 0 0
11.6 0 0
11.68 0 0
11.76 0 0
11.84 0 0
11.92 0 0
12 0 0
12.08 0 0
12.16 0 0
12.24 0 0
12.32 0 0
12.4 0 0
12.48 0 0
12.56 0 0
12.64 0 0
12.72 0 0
12.8 0 0
12.88 0 0
12.96 0 0
13.04 0 0
13.12 0 0
13.2 0 0
13.28 0 0
13.36 0 0
13.44 0 0
13.52 0 0
13.6 0 0
13.68 0 0
13.76 0 0
13.84 0 0
13.92 0 0
14 0 0
14.08 0 0
14.16 0 0
14.24 0 0
14.32 0 0
14.4 0 0
14.48 0 0
14.56 0 0
14.64 0 0
14.72 0 0
14.8 0 0
14.88 0 0
14.96 0 0
15.04 0 0
15.12 0 0
15.2 0 0
15.28 0 0
15.36 0 0
15.44 0 0
15.52 0 0
15.6 0 0
15.68 0 0
15.76 0 0
15.84 0 0
15.92 0 0
16 0 0
16.08 0 0
16.16 0 0
16.24 0 0
16.32 0 0
16.4 0 0
16.48 0 0
16.56 0 0
16.64 0 0
16.72 0 0
16.8 0 0
16.88 0 0
16.96 0 0
17.04 0 0
17.12 0 0
17.2 0 0
17.28 0 0
17.36 0 0
17.44 0 0
17.52 0 0
17.6 0 0
17.68 0 0
17.76 0 0
17.84 0 0
17.92 0 0
18 0 0
18.08 0 0
18.16 0 0
18.24 0 0
18.32 0 0
18.4 0 0
18.48 0 0
18.56 0 0
18.64 0 0
18.72 0 0
18.8 0 0
18.88 0 0
18.96 0 0
19.04 0 0
19.12 0 0
19.2 0 0
19.28 0 0
19.36 0 0
19.44 0 0
19.52 0 0
19.6 0 0
19.68 0 0
19.76 0 0
19.84 0 0
19.92 0 0
20 0 0
20.08 0 0
20.16 0 0
20.24 0 0
20.32 0 0
20.4 0 0
20.48 0 0
20.56 0 0
20.64 0 0
20.72 0 0
20.8 0 0
20.88 0 0
20.96 0 0
21.04 0 0
21.12 0 0
21.2 0 0
21.28 0 0
21.36 0 0
21.44 0 0
21.52 0 0
21.6 0 0
21.68 0 0
21.76 0 0
21.84 0 0
21.92 0 0
22 0 0
22.08 0 0
22.16 0 0
22.24 0 0
22.32 0 0
22.4 0 0
22.48 0 0
22.56 0 0
22.64 0 0
22.72 0 0
22.8 0 0
22.88 0 0
22.96 0 0
23.04 0 0
23.12 0 0
23.2 0 0
23.28 0 0
23.36 0 0
23.44 0 0
23.52 0 0
23.6 0 0
23.68 0 0
23.76 0 0
23.84 0 0
23.92 0 0
24 0 0
24.08 0 0
24.16 0 0
24.24 0 0
24.32 0 0
24.4 0 0
24.48 0 0
24.56 0 0
24.64 0 0
24.72 0 0
24.8 0 0
24.88 0 0
24.96 0 0
25.04 0 0
25.12 0 0
25.2 0 0
25.28 0 0
25.36 0 0
25.44 0 0
25.52 0 0
25.6 0 0
25.68 0 0
25.76 0 0
25.84 0 0
25.92 0 0
26 0 0
26.08 0 0
26.16 0 0
26.24 0 0
26.32 0 0
26.4 0 0
26.48 0 0
26.56 0 0
26.64 0 0
26.72 0 0
26.8 0 0
26.88 0 0
26.96 0 0
27.04 0 0
27.12 0 0
27.2 0 0
27.28 0 0
27.36 0 0
27.44 0 0
27.52 0 0
27.6 0 0
27.68 0 0
27.76 0 0
27.84 0 0
27.92 0 0
28 0 0
28.08 0 0
28.16 0 0
28.24 0 0
28.32 0 0
28.4 0 0
28.48 0 0
28.56 0 0
28.64 0 0
28.72 0 0
28.8 0 0
28.88 0 0
28.96 0 0
29.04 0 0
29.12 0 0
29.2 0 0
29.28 0 0
29.36 0 0
29.44 0 0
29.52 0 0
29.6 0 0
29.68 0 0
29.76 0 0
29.84 0 0
29.92 0 0
30 0 0
30.08 0 0
30.16 0 0
30.24 0 0
30.32 0 0
30.4 0 0
30.48 0 0
30.56 0 0
30.64 0 0
30.72 0 0
30.8 0 0
30.88 0 0
30.96 0 0
31.04 0 0
31.12 0 0
31.2 0 0
31.28 0 0
31.36 0 0
31.44 0 0
31.52 0 0
31.6 0 0
31.68 0 0
31.76 0 0
31.84 0 0
31.92 0 0
0 0.005 0
0.08 0.005 0
0.16 0.005 0
0.24 0.005 0
0.32 0.005 0
0.4 0.005 0
0.48 0.005 0
0.56 0.005 0
0.64 0.005 0
0.72 0.005 0
0.8 0.005 0
0.88 0.005 0
0.96 0.005 0
1.04 0.005 0
1.12 0.005 0
1.2 0.005 0
1.28 0.005 0
1.36 0.005 0
1.44 0.005 0
1.52 0.005 0
1.6 0.005 0
1.68 0.005 0
1.76 0.005 0
1.84 0.005 0
1.92 0.005 0
2 0.005 0
2.08 0.005 0
2.16 0.005 0
2.24 0.005 0
2.32 0.005 0
2.4 0.005 0
2.48 0.005 0
2.56 0.005 0
2.64 0.005 0
2.72 0.005 0
2.8 0.005 0
2.88 0.005 0
2.96 0.005 0
3.04 0.005 0
3.12 0.005 0
3.2 0.005 0
3.28 0.005 0
3.36 0.005 0
3.44 0.005 0
3.52 0.005 0
3.6 0.005 0
3.68 0.005 0
3.76 0.005 0
3.84 0.005 0
3.92 0.005 0
4 0.005 0
4.08 0.005 0
4.16 0.005 0
4.24 0.005 0
4.32 0.005 0
4.4 0.005 0
4.48 0.005 0
4.56 0.005 0
4.64 0.005 0
4.72 0.005 0
4.8 0.005 0
4.88 0.005 0
4.96 0.005 0
5.04 0.005 0
5.12 0.005 0
5.2 0.005 0
5.28 0.005 0
5.36 0.005 0
5.44 0.005 0
5.52 0.005 0
5.6 0.005 0
5.68 0.005 0
5.76 0.005 0
5.84 0.005 0
5.92 0.005 0
6 0.005 0
6.08 0.005 0
6.16 0.005 0
6.24 0.005 0
6.32 0.005 0
6.4 0.005 0
6.48 0.005 0
6.56 0.005 0
6.64 0.005 0
6.72 0.005 0
6.8 0.005 0
6.88 0.005 0
6.96 0.005 0
7.04 0.005 0
7.12 0.005 0
7.2 0.005 0
7.28 0.005 0
7.36 0.005 0
7.44 0.005 0
7.52 0.005 0
7.6 0.005 0
7.68 0.005 0
7.76 0.005 0
7.84 0.005 0
7.92 0.005 0
8 0.005 0
8.08 0.005 0
8.16 0.005 0
8.24 0.005 0
8.32 0.005 0
8.4 0.005 0
8.48 0.005 0
8.56 0.005 0
8.64 0.005 0
8.72 0.005 0
8.8 0.005 0
8.88 0.005 0
8.96 0.005 0
9.04 0.005 0
9.12 0.005 0
9.2 0.005 0
9.28 0.005 0
9.36 0.005 0
9.44 0.005 0
9.52 0.005 0
9.6 0.005 0
9.68 0.005 0
9.76 0.005 0
9.84 0.005 0
9.92 0.005 0
10 0.005 0
10.08 0.005 0
10.16 0.005 0
10.24 0.005 0
10.32 0.005 0
10.4 0.005 0
10.48 0.005 0
10.56 0.005 0
10.64 0.005 0
10.72 0.005 0
10.8 0.005 0
10.88 0.005 0
10.96 0.005 0
11.04 0.005 0
11.12 0.005 0
11.2 0.005 0
11.28 0.005 0
11.36 0.005 0
11.44 0.005 0
11.52 0.005 0
11.6 0.005 0
11.68 0.005 0
11.76 0.005 0
11.84 0.005 0
11.92 0.005 0
12 0.005 0
12.08 0.005 0
12.16 0.005 0
12.24 0.005 0
12.32 0.005 0
12.4 0.005 0
12.48 0.005 0
12.56 0.005 0
12.64 0.005 0
12.72 0.005 0
12.8 0.005 0
12.88 0.005 0
12.96 0.005 0
13.04 0.005 0
13.12 0.005 0
13.2 0.005 0
13.28 0.005 0
13.36 0.005 0
13.44 0.005 0
13.52 0.005 0
13.6 0.005 0
13.68 0.005 0
13.76 0.005 0
13.84 0.005 0
13.92 0.005 0
14 0.005 0
14.08 0.005 0
14.16 0.005 0
14.24 0.005 0
14.32 0.005 0
14.4 0.005 0
14.48 0.005 0
14.56 0.005 0
14.64 0.005 0
14.72 0.005 0
14.8 0.005 0
14.88 0.005 0
14.96 0.005 0
15.04 0.005 0
15.12 0.005 0
15.2 0.005 0
15.28 0.005 0
15.36 0.005 0
15.44 0.005 0
15.52 0.005 0
15.6 0.005 0
15.68 0.005 0
15.76 0.005 0
15.84 0.005 0
15.92 0.005 0
16 0.005 0
16.08 0.005 0
16.16 0.005 0
16.24 0.005 0
16.32 0.005 0
16.4 0.005 0
16.48 0.005 0
16.56 0.005 0
16.64 0.005 0
16.72 0.005 0
16.8 0.005 0
16.88 0.005 0
16.96 0.005 0
17.04 0.005 0
17.12 0.005 0
17.2 0.005 0
17.28 0.005 0
17.36 0.005 0
17.44 0.005 0
17.52 0.005 0
17.6 0.005 0
17.68 0.005 0
17.76 0.005 0
17.84 0.005 0
17.92 0.005 0
18 0.005 0
18.08 0.005 0
18.16 0.005 0
18.24 0.005 0
18.32 0.005 0
18.4 0.005 0
18.48 0.005 0
18.56 0.005 0
18.64 0.005 0
18.72 0.005 0
18.8 0.005 0
18.88 0.005 0
18.96 0.005 0
19.04 0.005 0
19.12 0.005 0
19.2 0.005 0
19.28 0.005 0
19.36 0.005 0
19.44 0.005 0
19.52 0.005 0
19.6 0.005 0
19.68 0.005 0
19.76 0.005 0
19.84 0.005 0
19.92 0.005 0
20 0.005 0
20.08 0.005 0
20.16 0.005 0
20.24 0.005 0
20.32 0.005 0
20.4 0.005 0
20.48 0.005 0
20.56 0.005 0
20.64 0.005 0
20.72 0.005 0
20.8 0.005 0
20.88 0.005 0
20.96 0.005 0
21.04 0.005 0
21.12 0.005 0
21.2 0.005 0
21.28 0.005 0
21.36 0.005 0
21.44 0.005 0
21.52 0.005 0
21.6 0.005 0
21.68 0.005 0
21.76 0.005 0
21.84 0.005 0
21.92 0.005 0
22 0.005 0
22.08 0.005 0
22.16 0.005 0
22.24 0.005 0
22.32 0.005 0
22.4 0.005 0
22.48 0.005 0
22.56 0.005 0
22.64 0.005 0
22.72 0.005 0
22.8 0.005 0
22.88 0.005 0
22.96 0.005 0
23.04 0.005 0
23.12 0.005 0
23.2 0.005 0
23.28 0.005 0
23.36 0.005 0
23.44 0.005 0
23.52 0.005 0
23.6 0.005 0
23.68 0.005 0
23.76 0.005 0
23.84 0.005 0
23.92 0.005 0
24 0.005 0
24.08 0.005 0
24.16 0.005 0
24.24 0.005 0
24.32 0.005 0
24.4 0.005 0
24.48 0.005 0
24.56 0.005 0
24.64 0.005 0
24.72 0.005 0
24.8 0.005 0
24.88 0.005 0
24.96 0.005 0
25.04 0.005 0
25.12 0.005 0
25.2 0.005 0
25.28 0.005 0
25.36 0.005 0
25.44 0.005 0
25.52 0.005 0
25.6 0.005 0
25.68 0.005 0
25.76 0.005 0
25.84 0.005 0
25.92 0.005 0
26 0.005 0
26.08 0.005 0
26.16 0.005 0
26.24 0.005 0
26.32 0.005 0
26.4 0.005 0
26.48 0.005 0
26.56 0.005 0
26.64 0.005 0
26.72 0.005 0
26.8 0.005 0
26.88 0.005 0
26.96 0.005 0
27.04 0.005 0
27.12 0.005 0
27.2 0.005 0
27.28 0.005 0
27.36 0.005 0
27.44 0.005 0
27.52 0.005 0
27.6 0.005 0
27.68 0.005 0
27.76 0.005 0
27.84 0.005 0
27.92 0.005 0
28 0.005 0
28.08 0.005 0
28.16 0.005 0
28.24 0.005 0
28.32 0.005 0
28.4 0.005 0
28.48 0.005 0
28.56 0.005 0
28.64 0.005 0
28.72 0.005 0
28.8 0.005 0
28.88 0.005 0
28.96 0.005 0
29.04 0.005 0
29.12 0.005 0
29.2 0.005 0
29.28 0.005 0
29.36 0.005 0
29.44 0.005 0
29.52 0.005 0
29.6 0.005 0
29.68 0.005 0
29.76 0.005 0
29.84 0.005 0
29.92 0.005 0
30 0.005 0
30.08 0.005 0
30.16 0.005 0
30.24 0.005 0
30.32 0.005 0
30.4 0.005 0
30.48 0.005 0
30.56 0.005 0
30.64 0.005 0
30.72 0.005 0
30.8 0.005 0
30.88 0.005 0
30.96 0.005 0
31.04 0.005 0
31.12 0.005 0
31.2 0.005 0
31.28 0.005 0
31.36 0.005 0
31.44 0.005 0
31.52 0.005 0
31.6 0.005 0
31.68 0.005 0
31.76 0.005 0
31.84 0.005 0
31.92 0.005 0
0 0.01 0
0.08 0.01 0
0.16 0.01 0
0.24 0.01 0
0.32 0.01 0
0.4 0.01 0
0.48 0.01 0
0.56 0.01 0
0.64 0.01 0
0.72 0.01 0
0.8 0.01 0
0.88 0.01 0
0.96 0.01 0
1.04 0.01 0
1.12 0.01 0
1.2 0.01 0
1.28 0.01 0
1.36 0.01 0
1.44 0.01 0
1.52 0.01 0
1.6 0.01 0
1.68 0.01 0
1.76 0.01 0
1.84 0.01 0
1.92 0.01 0
2 0.01 0
2.08 0.01 0
2.16 0.01 0
2.24 0.01 0
2.32 0.01 0
2.4 0.01 0
2.48 0.01 0
2.56 0.01 0
2.64 0.01 0
2.72 0.01 0
2.8 0.01 0
2.88 0.01 0
2.96 0.01 0
3.04 0.01 0
3.12 0.01 0
3.2 0.01 0
3.28 0.01 0
3.36 0.01 0
3.44 0.01 0
3.52 0.01 0
3.6 0.01 0
3.68 0.01 0
3.76 0.01 0
3.84 0.01 0
3.92 0.01 0
4 0.01 0
4.08 0.01 0
4.16 0.01 0
4.24 0.01 0
4.32 0.01 0
4.4 0.01 0
4.48 0.01 0
4.56 0.01 0
4.64 0.01 0
4.72 0.01 0
4.8 0.01 0
4.88 0.01 0
4.96 0.01 0
5.04 0.01 0
5.12 0.01 0
[...]
POINT_DATA 80000

SCALARS u float 1
LOOKUP_TABLE default
0
-0.131663
-0.0682692
-0.0522959
-0.0444198
-0.0395766
-0.0362595
-0.0338325
-0.0319725
-0.0304958
-0.0292897
-0.0282814
-0.0274219
-0.0266773
-0.0260233
-0.0254424
-0.0249215
-0.0244506
-0.0240219
-0.0236295
-0.0232684
-0.0229347
-0.0226251
-0.0223369
-0.0220678
-0.0218158
-0.0215792
-0.0213567
-0.0211468
-0.0209486
-0.0207609
-0.020583
-0.0204141
-0.0202534
-0.0201004
-0.0199545
-0.0198151
-0.0196819
-0.0195545
-0.0194323
-0.0193152
-0.0192028
-0.0190948
-0.0189909
-0.018891
-0.0187947
-0.0187019
-0.0186124
-0.018526
-0.0184426
-0.0183619
-0.018284
-0.0182085
-0.0181355
-0.0180647
-0.0179962
-0.0179297
-0.0178652
-0.0178026
-0.0177419
-0.0176829
-0.0176256
-0.0175699
-0.0175157
-0.0174631
-0.0174118
-0.017362
-0.0173134
-0.0172662
-0.0172202
-0.0171754
-0.0171317
-0.0170892
-0.0170478
-0.0170075
-0.0169682
-0.0169299
-0.0168927
-0.0168565
-0.0168214
-0.0167873
-0.0167542
-0.0167222
-0.0166913
-0.0166614
-0.0166325
-0.0166048
-0.0165781
-0.0165525
-0.016528
-0.0165045
-0.016482
-0.0164605
-0.0164399
-0.0164204
-0.0164018
-0.0163841
-0.0163673
-0.0163513
-0.0163361
-0.0163218
-0.0163082
-0.0162954
-0.0162833
-0.0162719
-0.0162613
-0.0162513
-0.016242
-0.0162332
-0.016225
-0.0162174
-0.0162103
-0.0162037
-0.0161977
-0.0161921
-0.016187
-0.0161824
-0.0161781
-0.0161743
-0.0161707
-0.0161675
-0.0161646
-0.016162
-0.0161597
-0.0161578
-0.0161561
-0.0161547
-0.0161536
-0.0161527
-0.016152
-0.0161516
-0.0161513
-0.0161511
-0.016151
-0.016151
-0.0161511
-0.0161512
-0.0161514
-0.0161516
-0.0161518
-0.016152
-0.0161523
-0.0161525
-0.0161528
-0.0161531
-0.0161533
-0.0161536
-0.0161539
-0.0161542
-0.0161544
-0.0161547
-0.016155
-0.0161552
-0.0161555
-0.0161558
-0.0161561
-0.0161563
-0.0161566
-0.0161569
-0.0161572
-0.0161574
-0.0161577
-0.016158
-0.0161582
-0.0161585
-0.0161588
-0.0161591
-0.0161593
-0.0161596
-0.0161599
-0.0161602
-0.0161604
-0.0161607
-0.016161
-0.0161613
-0.0161615
-0.0161618
-0.0161621
-0.0161624
-0.0161626
-0.0161629
-0.0161632
-0.0161635
-0.0161637
-0.016164
-0.0161643
-0.0161646
-0.0161648
-0.0161651
-0.0161654
-0.0161657
-0.016166
-0.0161662
-0.0161665
-0.0161668
-0.0161671
-0.0161673
-0.0161676
-0.0161679
-0.0161682
-0.0161685
-0.0161687
-0.016169
-0.0161693
-0.0161696
-0.0161699
-0.0161701
-0.0161704
-0.0161707
-0.016171
-0.0161712
-0.0161715
-0.0161718
-0.0161721
-0.0161724
-0.0161726
-0.0161729
-0.0161732
-0.0161735
-0.0161738
-0.0161741
-0.0161743
-0.0161746
-0.0161749
-0.0161752
-0.0161755
-0.0161757
-0.016176
-0.0161763
-0.0161766
-0.0161769
-0.0161772
-0.0161774
-0.0161777
-0.016178
-0.0161783
-0.0161786
-0.0161789
-0.0161791
-0.0161794
-0.0161797
-0.01618
-0.0161803
-0.0161806
-0.0161808
-0.0161811
-0.0161814
-0.0161817
-0.016182
-0.0161823
-0.0161825
-0.0161828
-0.0161831
-0.0161834
-0.0161837
-0.016184
-0.0161843
-0.0161845
-0.0161848
-0.0161851
-0.0161854
-0.0161857
-0.016186
-0.0161863
-0.0161866
-0.0161868
-0.0161871
-0.0161874
-0.0161877
-0.016188
-0.0161883
-0.0161886
-0.0161889
-0.0161891
-0.0161894
-0.0161897
-0.01619
-0.0161903
-0.0161906
-0.0161909
-0.0161912
-0.0161915
-0.0161917
-0.016192
-0.0161923
-0.0161926
-0.0161929
-0.0161932
-0.0161935
-0.0161938
-0.0161941
-0.0161944
-0.0161946
-0.0161949
-0.0161952
-0.0161955
-0.0161958
-0.0161961
-0.0161964
-0.0161967
-0.016197
-0.0161973
-0.0161976
-0.0161978
-0.0161981
-0.0161984
-0.0161987
-0.016199
-0.0161993
-0.0161996
-0.0161999
-0.0162002
-0.0162005
-0.0162008
-0.0162011
-0.0162014
-0.0162017
-0.016202
-0.0162022
-0.0162025
-0.0162028
-0.0162031
-0.0162034
-0.0162037
-0.016204
-0.0162043
-0.0162046
-0.0162049
-0.0162052
-0.0162055
-0.0162058
-0.0162061
-0.0162064
-0.0162067
-0.016207
-0.0162073
-0.0162076
-0.0162079
-0.0162082
-0.0162085
-0.0162088
-0.0162091
-0.0162094
-0.0162097
-0.01621
-0.0162102
-0.0162105
-0.0162108
-0.0162111
-0.0162114
-0.0162117
-0.016212
-0.0162123
-0.0162126
-0.0162129
-0.0162132
-0.0162135
-0.0162138
-0.0162141
-0.0162144
-0.0162147
-0.016215
-0.0162153
-0.0162156
-0.0162159
-0.0162162
-0.0162165
-0.0162168
-0.0162171
-0.0162174
-0.0162177
-0.0162181
-0.0162184
-0.0162187
-0.016219
-0.0162193
-0.0162196
-0.0162199
-0.0162202
-0.0162205
-0.0162208
-0.0162211
-0.0162214
-0.0162217
-0.016222
-0.0162223
-0.0162226
-0.0162229
-0.0162232
-0.0162235
-0.0162238
-0.0162241
-0.0162245
-0.0162247
-0.0162251
-0.0162253
-0.0162258
-0.0162253
-0.0162253
-0.0162253
1
0.131663
0.0682692
0.0522959
0.0444198
0.0395766
0.0362595
0.0338325
0.0319725
0.0304958
0.0292897
0.0282814
0.0274219
0.0266773
0.0260233
0.0254424
0.0249215
0.0244506
0.0240219
0.0236295
0.0232684
0.0229347
0.0226251
0.0223369
0.0220678
0.0218158
0.0215792
0.0213567
0.0211468
0.0209486
0.0207609
0.020583
0.0204141
0.0202534
0.0201004
0.0199545
0.0198151
0.0196819
0.0195545
0.0194323
0.0193152
0.0192028
0.0190948
0.0189909
0.018891
0.0187947
0.0187019
0.0186124
0.018526
0.0184426
0.0183619
0.018284
0.0182085
0.0181355
0.0180647
0.0179962
0.0179297
0.0178652
0.0178026
0.0177419
0.0176829
0.0176256
0.0175699
0.0175157
0.0174631
0.0174118
0.017362
0.0173134
0.0172662
0.0172202
0.0171754
0.0171317
0.0170892
0.0170478
0.0170075
0.0169682
0.0169299
0.0168927
0.0168565
0.0168214
0.0167873
0.0167542
0.0167222
0.0166913
0.0166614
0.0166325
0.0166048
0.0165781
0.0165525
0.016528
0.0165045
0.016482
0.0164605
0.0164399
0.0164204
0.0164018
0.0163841
0.0163673
0.0163513
0.0163361
0.0163218
0.0163082
0.0162954
0.0162833
0.0162719
0.0162613
0.0162513
0.016242
0.0162332
0.016225
0.0162174
0.0162103
0.0162037
0.0161977
0.0161921
0.016187
0.0161824
0.0161781
0.0161743
0.0161707
0.0161675
0.0161646
0.016162
0.0161597
0.0161578
0.0161561
0.0161547
0.0161536
0.0161527
0.016152
0.0161516
0.0161513
0.0161511
0.016151
0.016151
0.0161511
0.0161512
0.0161514
0.0161516
0.0161518
0.016152
0.0161523
0.0161525
0.0161528
0.0161531
0.0161533
0.0161536
0.0161539
0.0161542
0.0161544
0.0161547
0.016155
0.0161552
0.0161555
0.0161558
0.0161561
0.0161563
0.0161566
0.0161569
0.0161572
0.0161574
0.0161577
0.016158
0.0161582
0.0161585
0.0161588
0.0161591
0.0161593
0.0161596
0.0161599
0.0161602
0.0161604
0.0161607
0.016161
0.0161613
0.0161615
0.0161618
0.0161621
0.0161624
0.0161626
0.0161629
0.0161632
0.0161635
0.0161637
0.016164
0.0161643
0.0161646
0.0161648
0.0161651
0.0161654
0.0161657
0.016166
0.0161662
0.0161665
0.0161668
0.0161671
0.0161673
0.0161676
0.0161679
0.0161682
0.0161685
0.0161687
0.016169
0.0161693
0.0161696
0.0161699
0.0161701
0.0161704
0.0161707
0.016171
0.0161712
0.0161715
0.0161718
0.0161721
0.0161724
0.0161726
0.0161729
0.0161732
0.0161735
0.0161738
0.0161741
0.0161743
0.0161746
0.0161749
0.0161752
0.0161755
0.0161757
0.016176
0.0161763
0.0161766
0.0161769
0.0161772
0.0161774
0.0161777
0.016178
0.0161783
0.0161786
0.0161789
0.0161791
0.0161794
0.0161797
0.01618
0.0161803
0.0161806
0.0161808
0.0161811
0.0161814
0.0161817
0.016182
0.0161823
0.0161825
0.0161828
0.0161831
0.0161834
0.0161837
0.016184
0.0161843
0.0161845
0.0161848
0.0161851
0.0161854
0.0161857
0.016186
0.0161863
0.0161866
0.0161868
0.0161871
0.0161874
0.0161877
0.016188
0.0161883
0.0161886
0.0161889
0.0161891
0.0161894
0.0161897
0.01619
0.0161903
0.0161906
0.0161909
0.0161912
0.0161915
0.0161917
0.016192
0.0161923
0.0161926
0.0161929
0.0161932
0.0161935
0.0161938
0.0161941
0.0161944
0.0161946
0.0161949
0.0161952
0.0161955
0.0161958
0.0161961
0.0161964
0.0161967
0.016197
0.0161973
0.0161976
0.0161978
0.0161981
0.0161984
0.0161987
0.016199
0.0161993
0.0161996
0.0161999
0.0162002
0.0162005
0.0162008
0.0162011
0.0162014
0.0162017
0.016202
0.0162022
0.0162025
0.0162028
0.0162031
0.0162034
0.0162037
0.016204
0.0162043
0.0162046
0.0162049
0.0162052
0.0162055
0.0162058
0.0162061
0.0162064
0.0162067
0.016207
0.0162073
0.0162076
0.0162079
0.0162082
0.0162085
0.0162088
0.0162091
0.0162094
0.0162097
0.01621
0.0162102
0.0162105
0.0162108
0.0162111
0.0162114
0.0162117
0.016212
0.0162123
0.0162126
0.0162129
0.0162132
0.0162135
0.0162138
0.0162141
0.0162144
0.0162147
0.016215
0.0162153
0.0162156
0.0162159
0.0162162
0.0162165
0.0162168
0.0162171
0.0162174
0.0162177
0.0162181
0.0162184
0.0162187
0.016219
0.0162193
0.0162196
0.0162199
0.0162202
0.0162205
0.0162208
0.0162211
0.0162214
0.0162217
0.016222
0.0162223
0.0162226
0.0162229
0.0162232
0.0162235
0.0162238
0.0162241
0.0162245
0.0162247
0.0162251
0.0162253
0.0162258
0.0162253
0.0162253
0.0162253
1
0.344884
0.200668
0.154967
0.131894
0.117598
0.107768
0.100558
0.0950247
0.0906288
0.0870376
0.0840357
0.0814776
0.0792624
0.077318
0.0755918
0.0740446
0.0726466
0.0713747
0.0702108
0.0691402
0.0681511
0.0672337
0.0663799
0.0655829
0.0648367
0.0641364
0.0634775
0.0628564
0.0622697
0.0617144
0.061188
0.0606882
0.0602129
0.0597603
0.0593287
0.0589166
0.0585228
0.0581458
0.0577848
0.0574385
0.0571062
0.0567869
0.0564799
0.0561844
0.0558999
0.0556256
0.0553611
0.0551058
0.0548592
0.0546209
0.0543905
0.0541676
0.0539518
0.0537428
0.0535402
0.0533439
0.0531534
0.0529686
0.0527892
0.052615
0.0524457
0.0522812
0.0521213
0.0519658
0.0518146
0.0516674
0.0515242
0.0513847
0.051249
0.0511168
0.050988
0.0508627
0.0507406
0.0506217
0.0505059
0.0503933
0.0502837
0.0501773
0.050074
0.0499737
0.0498766
0.0497827
0.0496919
0.0496043
0.0495199
0.0494387
0.0493607
0.0492859
0.0492143
0.0491456
0.04908
0.0490173
0.0489575
0.0489006
0.0488464
0.048795
0.0487461
0.0486997
0.0486558
0.0486141
0.0485748
0.0485376
0.0485027
0.0484699
0.0484391
0.0484103
0.0483833
0.0483581
0.0483345
0.0483125
0.0482921
0.0482733
0.048256
0.0482401
0.0482255
0.0482123
0.0482002
0.0481892
0.0481792
0.0481701
0.048162
0.0481547
0.0481483
0.0481428
0.0481382
0.0481344
0.0481313
0.048129
0.0481273
0.0481261
0.0481253
0.0481249
0.0481248
0.0481249
0.0481252
0.0481256
0.0481262
0.0481268
0.0481274
0.0481282
0.0481289
0.0481297
0.0481305
0.0481313
0.0481321
0.0481329
0.0481337
0.0481345
0.0481353
0.0481361
0.0481369
0.0481377
0.0481385
0.0481393
0.0481402
0.048141
0.0481418
0.0481426
0.0481434
0.0481442
0.048145
0.0481458
0.0481467
0.0481475
0.0481483
0.0481491
0.0481499
0.0481507
0.0481516
0.0481524
0.0481532
0.048154
0.0481548
0.0481557
0.0481565
0.0481573
0.0481581
0.0481589
0.0481598
0.0481606
0.0481614
0.0481622
0.0481631
0.0481639
0.0481647
0.0481655
0.0481664
0.0481672
0.048168
0.0481688
0.0481697
0.0481705
0.0481713
0.0481721
0.048173
0.0481738
0.0481746
0.0481755
0.0481763
0.0481771
0.0481779
0.0481788
0.0481796
0.0481804
0.0481813
0.0481821
0.0481829
0.0481838
0.0481846
0.0481854
0.0481863
0.0481871
0.0481879
0.0481888
0.0481896
0.0481904
0.0481913
0.0481921
0.048193
0.0481938
0.0481946
0.0481955
0.0481963
0.0481972
0.048198
0.0481988
0.0481997
0.0482005
0.0482014
0.0482022
0.048203
0.0482039
0.0482047
0.0482056
0.0482064
0.0482073
0.0482081
0.0482089
0.0482098
0.0482106
0.0482115
0.0482123
0.0482132
0.048214
0.0482149
0.0482157
0.0482166
0.0482174
0.0482183
0.0482191
0.04822
0.0482208
0.0482217
0.0482225
0.0482234
0.0482242
0.0482251
0.0482259
0.0482268
0.0482276
0.0482285
0.0482293
0.0482302
0.0482311
0.0482319
0.0482328
0.0482336
0.0482345
0.0482353
0.0482362
0.0482371
0.0482379
0.0482388
0.0482396
0.0482405
0.0482414
0.0482422
0.0482431
0.0482439
0.0482448
0.0482457
0.0482465
0.0482474
0.0482482
0.0482491
0.04825
0.0482508
0.0482517
0.0482526
0.0482534
0.0482543
0.0482552
0.048256
0.0482569
0.0482578
0.0482586
0.0482595
0.0482604
0.0482612
0.0482621
0.048263
0.0482639
0.0482647
0.0482656
0.0482665
0.0482673
0.0482682
0.0482691
0.04827
0.0482708
0.0482717
0.0482726
0.0482735
0.0482743
0.0482752
0.0482761
0.048277
0.0482778
0.0482787
0.0482796
0.0482805
0.0482814
0.0482822
0.0482831
0.048284
0.0482849
0.0482858
0.0482866
0.0482875
0.0482884
0.0482893
0.0482902
0.048291
0.0482919
0.0482928
0.0482937
0.0482946
0.0482955
0.0482964
0.0482972
0.0482981
0.048299
0.0482999
0.0483008
0.0483017
0.0483026
0.0483035
0.0483043
0.0483052
0.0483061
0.048307
0.0483079
0.0483088
0.0483097
0.0483106
0.0483115
0.0483124
0.0483133
0.0483142
0.0483151
0.048316
0.0483168
0.0483177
0.0483186
0.0483195
0.0483204
0.0483213
0.0483222
0.0483231
0.048324
0.0483249
0.0483258
0.0483267
0.0483276
0.0483285
0.0483294
0.0483303
0.0483312
0.0483321
0.048333
0.0483339
0.0483348
0.0483358
0.0483367
0.0483376
0.0483385
0.0483394
0.0483403
0.0483412
0.0483421
0.048343
0.048344
0.0483448
0.0483459
0.0483465
0.048348
0.0483467
0.0483467
0.0483467
1
0.518765
0.327402
0.255347
0.217848
0.194403
0.178212
0.166307
0.157158
0.149884
0.143939
0.138969
0.134735
0.13107
0.127854
0.125
0.122442
0.120133
0.118032
0.116111
0.114344
0.112711
0.111198
0.10979
0.108475
0.107245
0.10609
0.105004
0.10398
0.103013
0.102098
0.101231
0.100407
0.0996238
0.0988782
0.0981671
0.0974883
0.0968395
0.0962187
0.095624
0.0950537
0.0945064
0.0939806
0.093475
0.0929885
0.09252
0.0920684
0.0916329
0.0912126
0.0908067
0.0904144
0.0900351
0.0896682
0.089313
0.088969
0.0886356
0.0883124
0.087999
0.0876949
0.0873997
0.087113
0.0868345
0.0865638
0.0863007
0.0860449
0.0857961
0.085554
0.0853184
0.0850891
0.0848658
0.0846485
0.0844368
0.0842308
0.0840301
0.0838348
0.0836446
0.0834597
0.0832799
0.0831053
0.0829358
0.0827715
0.0826124
0.0824586
0.08231
0.0821667
0.0820287
0.0818961
0.0817687
0.0816467
0.0815297
0.0814178
0.0813108
0.0812087
0.0811113
0.0810186
0.0809305
0.0808468
0.0807674
0.0806921
0.0806207
0.0805531
0.0804893
0.0804291
0.0803724
0.0803193
0.0802695
0.0802229
0.0801793
0.0801385
0.0801004
0.080065
0.0800322
0.0800019
0.079974
0.0799485
0.0799252
0.0799039
0.0798846
0.079867
0.079851
0.0798366
0.0798237
0.0798122
0.0798021
0.0797935
0.0797863
0.0797804
0.0797758
0.0797723
0.0797697
0.0797679
0.0797668
0.0797663
0.0797662
0.0797665
0.0797671
0.0797678
0.0797687
0.0797698
0.0797709
0.0797721
0.0797733
0.0797746
0.0797759
0.0797772
0.0797786
0.0797799
0.0797813
0.0797826
0.0797839
0.0797853
0.0797866
0.079788
0.0797893
0.0797906
0.079792
0.0797933
0.0797947
0.079796
0.0797974
0.0797987
0.0798001
0.0798014
0.0798028
0.0798041
0.0798055
0.0798068
0.0798082
0.0798095
0.0798109
0.0798123
0.0798136
0.079815
0.0798163
0.0798177
0.079819
0.0798204
0.0798218
0.0798231
0.0798245
0.0798258
0.0798272
0.0798286
0.0798299
0.0798313
0.0798327
0.079834
0.0798354
0.0798368
0.0798381
0.0798395
0.0798409
0.0798422
0.0798436
0.079845
0.0798464
0.0798477
0.0798491
0.0798505
0.0798519
0.0798532
0.0798546
0.079856
0.0798574
0.0798587
0.0798601
0.0798615
0.0798629
0.0798643
0.0798656
0.079867
0.0798684
0.0798698
0.0798712
0.0798725
0.0798739
0.0798753
0.0798767
0.0798781
0.0798795
0.0798809
0.0798823
0.0798836
0.079885
0.0798864
0.0798878
0.0798892
0.0798906
0.079892
0.0798934
0.0798948
0.0798962
0.0798976
0.079899
0.0799004
0.0799018
0.0799032
0.0799046
0.079906
0.0799074
0.0799088
0.0799102
0.0799116
0.079913
0.0799144
0.0799158
0.0799172
0.0799186
0.07992
0.0799214
0.0799228
0.0799242
0.0799256
0.079927
0.0799285
0.0799299
0.0799313
0.0799327
0.0799341
0.0799355
0.0799369
0.0799383
0.0799398
0.0799412
0.0799426
0.079944
0.0799454
0.0799468
0.0799483
0.0799497
0.0799511
0.0799525
0.079954
0.0799554
0.0799568
0.0799582
0.0799596
0.0799611
0.0799625
0.0799639
0.0799654
0.0799668
0.0799682
0.0799696
0.0799711
0.0799725
0.0799739
0.0799754
0.0799768
0.0799782
0.0799797
0.0799811
0.0799825
0.079984
0.0799854
0.0799868
0.0799883
0.0799897
0.0799912
0.0799926
0.079994
0.0799955
0.0799969
0.0799984
0.0799998
0.0800013
0.0800027
0.0800041
0.0800056
0.080007
0.0800085
0.0800099
0.0800114
0.0800128
0.0800143
0.0800157
0.0800172
0.0800186
0.0800201
0.0800215
0.080023
0.0800245
0.0800259
0.0800274
0.0800288
0.0800303
0.0800317
0.0800332
0.0800347
0.0800361
0.0800376
0.080039
0.0800405
0.080042
0.0800434
0.0800449
0.0800464
0.0800478
0.0800493
0.0800508
0.0800522
0.0800537
0.0800552
0.0800566
0.0800581
0.0800596
0.080061
0.0800625
0.080064
0.0800655
0.0800669
0.0800684
0.0800699
0.0800714
0.0800728
0.0800743
0.0800758
0.0800773
0.0800788
0.0800802
0.0800817
0.0800832
0.0800847
0.0800862
0.0800877
0.0800891
0.0800906
0.0800921
0.0800936
0.0800951
0.0800966
0.0800981
0.0800996
0.0801011
0.0801025
0.080104
0.0801055
0.080107
0.0801085
0.08011
0.0801115
0.080113
0.0801145
0.080116
0.0801175
0.080119
0.0801205
0.080122
0.0801235
0.080125
0.0801265
0.080128
0.0801296
0.080131
0.0801329
0.0801338
0.0801362
0.0801344
0.0801344
0.0801344
1
0.660887
0.446894
0.352878
0.302029
0.26985
0.247501
0.231018
0.218327
0.208226
0.199966
0.19306
0.187176
0.182084
0.177617
0.173654
0.170105
0.166901
0.163987
0.161322
0.158872
0.15661
0.154512
0.152561
0.15074
0.149036
0.147436
0.145932
0.144515
0.143176
0.141909
0.140708
0.139568
0.138484
0.137452
0.136468
0.135528
0.13463
0.133771
0.132948
0.132159
0.131402
0.130674
0.129975
0.129302
0.128654
0.128029
0.127427
0.126845
0.126284
0.125741
0.125217
0.124709
0.124218
0.123742
0.123281
0.122834
0.122401
0.121981
0.121572
0.121176
0.120791
0.120417
0.120053
0.1197
0.119356
0.119021
0.118696
0.118379
0.11807
0.11777
0.117478
0.117193
0.116916
0.116646
0.116384
0.116129
0.115881
0.11564
0.115406
0.11518
0.114961
0.114749
0.114545
0.114348
0.114158
0.113976
0.113801
0.113633
0.113473
0.11332
0.113173
0.113033
0.1129
0.112773
0.112652
0.112538
0.112429
0.112326
0.112229
0.112136
0.112049
0.111967
0.11189
0.111818
0.11175
0.111686
0.111627
0.111572
0.11152
0.111472
0.111427
0.111386
0.111349
0.111314
0.111283
0.111254
0.111228
0.111204
0.111183
0.111163
0.111146
0.111131
0.111117
0.111106
0.111097
0.111089
0.111083
0.111078
0.111075
0.111073
0.111072
0.111071
0.111071
0.111072
0.111073
0.111074
0.111075
0.111076
0.111078
0.11108
0.111081
0.111083
0.111085
0.111087
0.111089
0.111091
0.111092
0.111094
0.111096
0.111098
0.1111
0.111102
0.111104
0.111106
0.111107
0.111109
0.111111
0.111113
0.111115
0.111117
0.111119
0.111121
0.111122
0.111124
0.111126
0.111128
0.11113
0.111132
0.111134
0.111136
0.111137
0.111139
0.111141
0.111143
0.111145
0.111147
0.111149
0.111151
0.111153
0.111154
0.111156
0.111158
0.11116
0.111162
0.111164
0.111166
0.111168
0.11117
0.111172
0.111173
0.111175
0.111177
0.111179
0.111181
0.111183
0.111185
0.111187
0.111189
0.111191
0.111193
0.111194
0.111196
0.111198
0.1112
0.111202
0.111204
0.111206
0.111208
0.11121
0.111212
0.111214
0.111216
0.111218
0.111219
0.111221
0.111223
0.111225
0.111227
0.111229
0.111231
0.111233
0.111235
0.111237
0.111239
0.111241
0.111243
0.111245
0.111246
0.111248
0.11125
0.111252
0.111254
0.111256
0.111258
0.11126
0.111262
0.111264
0.111266
0.111268
0.11127
0.111272
0.111274
0.111276
0.111278
0.11128
0.111282
0.111283
0.111285
0.111287
0.111289
0.111291
0.111293
0.111295
0.111297
0.111299
0.111301
0.111303
0.111305
0.111307
0.111309
0.111311
0.111313
0.111315
0.111317
0.111319
0.111321
0.111323
0.111325
0.111327
0.111329
0.111331
0.111333
0.111335
0.111337
0.111339
0.111341
0.111343
0.111345
0.111347
0.111349
0.11135
0.111352
0.111354
0.111356
0.111358
0.11136
0.111362
0.111364
0.111366
0.111368
0.11137
0.111372
0.111374
0.111376
0.111378
0.11138
0.111382
0.111384
0.111386
0.111388
0.11139
0.111392
0.111394
0.111396
0.111398
0.1114
0.111402
0.111404
0.111406
0.111408
0.11141
0.111413
0.111415
0.111417
0.111419
0.111421
0.111423
0.111425
0.111427
0.111429
0.111431
0.111433
0.111435
0.111437
0.111439
0.111441
0.111443
0.111445
0.111447
0.111449
0.111451
0.111453
0.111455
0.111457
0.111459
0.111461
0.111463
0.111465
0.111467
0.111469
0.111471
0.111473
0.111475
0.111477
0.11148
0.111482
0.111484
0.111486
0.111488
0.11149
0.111492
0.111494
0.111496
0.111498
0.1115
0.111502
0.111504
0.111506
0.111508
0.11151
0.111512
0.111514
0.111517
0.111519
0.111521
0.111523
0.111525
0.111527
0.111529
0.111531
0.111533
0.111535
0.111537
0.111539
0.111541
0.111543
0.111545
0.111548
0.11155
0.111552
0.111554
0.111556
0.111558
0.11156
0.111562
0.111564
0.111566
0.111568
0.11157
0.111573
0.111575
0.111577
0.111579
0.111581
0.111583
0.111586
0.111584
0.111584
0.111584
1
0.776802
0.557825
0.446877
0.384101
0.343743
0.31551
0.294604
0.278468
0.265606
0.255081
0.246277
0.238776
0.232284
0.22659
0.22154
0.217019
0.212937
0.209227
0.205835
0.202717
0.199838
0.19717
0.194688
0.192371
0.190204
0.18817
0.186258
0.184455
0.182753