# vtk DataFile Version 2.0
FlowField
ASCII
DATASET STRUCTURED_GRID
DIMENSIONS 400 1 200
POINTS 80000 float
0 0 0
0.08 0 0
0.16 0 0
0.24 0 0
0.32 0 0
0.4 0 0
0.48 0 0
0.56 0 0
0.64 0 0
0.72 0 0
0.8 0 0
0.88 0 0
0.96 0 0
1.04 0 0
1.12 0 0
1.2 0 0
1.28 0 0
1.36 0 0
1.44 0 0
1.52 0 0
1.6 0 0
1.68 0 0
1.76 0 0
1.84 0 0
1.92 0 0
2 0 0
2.08 0 0
2.16 0 0
2.24 0 0
2.32 0 0
2.4 0 0
2.48 0 0
2.56 0 0
2.64 0 0
2.72 0 0
2.8 0 0
2.88 0 0
2.96 0 0
3.04 0 0
3.12 0 0
3.2 0 0
3.28 0 0
3.36 0 0
3.44 0 0
3.52 0 0
3.6 0 0
3.68 0 0
3.76 0 0
3.84 0 0
3.92 0 0
4 0 0
4.08 0 0
4.16 0 0
4.24 0 0
4.32 0 0
4.4 0 0
4.48 0 0
4.56 0 0
4.64 0 0
4.72 0 0
4.8 0 0
4.88 0 0
4.96 0 0
5.04 0 0
5.12 0 0
5.2 0 0
5.28 0 0
5.36 0 0
5.44 0 0
5.52 0 0
5.6 0 0
5.68 0 0
5.76 0 0
5.84 0 0
5.92 0 0
6 0 0
6.08 0 0
6.16 0 0
6.24 0 0
6.32 0 0
6.4 0 0
6.48 0 0
6.56 0 0
6.64 0 0
6.72 0 0
6.8 0 0
6.88 0 0
6.96 0 0
7.04 0 0
7.12 0 0
7.2 0 0
7.28 0 0
7.36 0 0
7.44 0 0
7.52 0 0
7.6 0 0
7.68 0 0
7.76 0 0
7.84 0 0
7.92 0 0
8 0 0
8.08 0 0
8.16 0 0
8.24 0 0
8.32 0 0
8.4 0 0
8.48 0 0
8.56 0 0
8.64 0 0
8.72 0 0
8.8 0 0
8.88 0 0
8.96 0 0
9.04 0 0
9.12 0 0
9.2 0 0
9.28 0 0
9.36 0 0
9.44 0 0
9.52 0 0
9.6 0 0
9.68 0 0
9.76 0 0
9.84 0 0
9.92 0 0
10 0 0
10.08 0 0
10.16 0 0
10.24 0 0
10.32 0 0
10.4 0 0
10.48 0 0
10.56 0 0
10.64 0 0
10.72 0 0
10.8 0 0
10.88 0 0
10.96 0 0
11.04 0 0
11.12 0 0
11.2 0 0
11.28 0 0
11.36 0 0
11.44 0 0
11.52 0 0
11.6 0 0
11.68 0 0
11.76 0 0
11.84 0 0
11.92 0 0
12 0 0
12.08 0 0
12.16 0 0
12.24 0 0
12.32 0 0
12.4 0 0
12.48 0 0
12.56 0 0
12.64 0 0
12.72 0 0
12.8 0 0
12.88 0 0
12.96 0 0
13.04 0 0
13.12 0 0
13.2 0 0
13.28 0 0
13.36 0 0
13.44 0 0
13.52 0 0
13.6 0 0
13.68 0 0
13.76 0 0
13.84 0 0
13.92 0 0
14 0 0
14.08 0 0
14.16 0 0
14.24 0 0
14.32 0 0
14.4 0 0
14.48 0 0
14.56 0 0
14.64 0 0
14.72 0 0
14.8 0 0
14.88 0 0
14.96 0 0
15.04 0 0
15.12 0 0
15.2 0 0
15.28 0 0
15.36 0 0
15.44 0 0
15.52 0 0
15.6 0 0
15.68 0 0
15.76 0 0
15.84 0 0
15.92 0 0
16 0 0
16.08 0 0
16.16 0 0
16.24 0 0
16.32 0 0
16.4 0 0
16.48 0 0
16.56 0 0
16.64 0 0
16.72 0 0
16.8 0 0
16.88 0 0
16.96 0 0
17.04 0 0
17.12 0 0
17.2 0 0
17.28 0 0
17.36 0 0
17.44 0 0
17.52 0 0
17.6 0 0
17.68 0 0
17.76 0 0
17.84 0 0
17.92 0 0
18 0 0
18.08 0 0
18.16 0 0
18.24 0 0
18.32 0 0
18.4 0 0
18.48 0 0
18.56 0 0
18.64 0 0
18.72 0 0
18.8 0 0
18.88 0 0
18.96 0 0
19.04 0 0
19.12 0 0
19.2 0 0
19.28 0 0
19.36 0 0
19.44 0 0
19.52 0 0
19.6 0 0
19.68 0 0
19.76 0 0
19.84 0 0
19.92 0 0
20 0 0
20.08 0 0
20.16 0 0
20.24 0 0
20.32 0 0
20.4 0 0
20.48 0 0
20.56 0 0
20.64 0 0
20.72 0 0
20.8 0 0
20.88 0 0
20.96 0 0
21.04 0 0
21.12 0 0
21.2 0 0
21.28 0 0
21.36 0 0
21.44 0 0
21.52 0 0
21.6 0 0
21.68 0 0
21.76 0 0
21.84 0 0
21.92 0 0
22 0 0
22.08 0 0
22.16 0 0
22.24 0 0
22.32 0 0
22.4 0 0
22.48 0 0
22.56 0 0
22.64 0 0
22.72 0 0
22.8 0 0
22.88 0 0
22.96 0 0
23.04 0 0
23.12 0 0
23.2 0 0
23.28 0 0
23.36 0 0
23.44 0 0
23.52 0 0
23.6 0 0
23.68 0 0
23.76 0 0
23.84 0 0
23.92 0 0
24 0 0
24.08 0 0
24.16 0 0
24.24 0 0
24.32 0 0
24.4 0 0
24.48 0 0
24.56 0 0
24.64 0 0
24.72 0 0
24.8 0 0
24.88 0 0
24.96 0 0
25.04 0 0
25.12 0 0
25.2 0 0
25.28 0 0
25.36 0 0
25.44 0 0
25.52 0 0
25.6 0 0
25.68 0 0
25.76 0 0
25.84 0 0
25.92 0 0
26 0 0
26.08 0 0
26.16 0 0
26.24 0 0
26.32 0 0
26.4 0 0
26.48 0 0
26.56 0 0
26.64 0 0
26.72 0 0
26.8 0 0
26.88 0 0
26.96 0 0
27.04 0 0
27.12 0 0
27.2 0 0
27.28 0 0
27.36 0 0
27.44 0 0
27.52 0 0
27.6 0 0
27.68 0 0
27.76 0 0
27.84 0 0
27.92 0 0
28 0 0
28.08 0 0
28.16 0 0
28.24 0 0
28.32 0 0
28.4 0 0
28.48 0 0
28.56 0 0
28.64 0 0
28.72 0 0
28.8 0 0
28.88 0 0
28.96 0 0
29.04 0 0
29.12 0 0
29.2 0 0
29.28 0 0
29.36 0 0
29.44 0 0
29.52 0 0
29.6 0 0
29.68 0 0
29.76 0 0
29.84 0 0
29.92 0 0
30 0 0
30.08 0 0
30.16 0 0
30.24 0 0
30.32 0 0
30.4 0 0
30.48 0 0
30.56 0 0
30.64 0 0
30.72 0 0
30.8 0 0
30.88 0 0
30.96 0 0
31.04 0 0
31.12 0 0
31.2 0 0
31.28 0 0
31.36 0 0
31.44 0 0
31.52 0 0
31.6 0 0
31.68 0 0
31.76 0 0
31.84 0 0
31.92 0 0
0 0.005 0
0.08 0.005 0
0.16 0.005 0
0.24 0.005 0
0.32 0.005 0
0.4 0.005 0
0.48 0.005 0
0.56 0.005 0
0.64 0.005 0
0.72 0.005 0
0.8 0.005 0
0.88 0.005 0
0.96 0.005 0
1.04 0.005 0
1.12 0.005 0
1.2 0.005 0
1.28 0.005 0
1.36 0.005 0
1.44 0.005 0
1.52 0.005 0
1.6 0.005 0
1.68 0.005 0
1.76 0.005 0
1.84 0.005 0
1.92 0.005 0
2 0.005 0
2.08 0.005 0
2.16 0.005 0
2.24 0.005 0
2.32 0.005 0
2.4 0.005 0
2.48 0.005 0
2.56 0.005 0
2.64 0.005 0
2.72 0.005 0
2.8 0.005 0
2.88 0.005 0
2.96 0.005 0
3.04 0.005 0
3.12 0.005 0
3.2 0.005 0
3.28 0.005 0
3.36 0.005 0
3.44 0.005 0
3.52 0.005 0
3.6 0.005 0
3.68 0.005 0
3.76 0.005 0
3.84 0.005 0
3.92 0.005 0
4 0.005 0
4.08 0.005 0
4.16 0.005 0
4.24 0.005 0
4.32 0.005 0
4.4 0.005 0
4.48 0.005 0
4.56 0.005 0
4.64 0.005 0
4.72 0.005 0
4.8 0.005 0
4.88 0.005 0
4.96 0.005 0
5.04 0.005 0
5.12 0.005 0
5.2 0.005 0
5.28 0.005 0
5.36 0.005 0
5.44 0.005 0
5.52 0.005 0
5.6 0.005 0
5.68 0.005 0
5.76 0.005 0
5.84 0.005 0
5.92 0.005 0
6 0.005 0
6.08 0.005 0
6.16 0.005 0
6.24 0.005 0
6.32 0.005 0
6.4 0.005 0
6.48 0.005 0
6.56 0.005 0
6.64 0.005 0
6.72 0.005 0
6.8 0.005 0
6.88 0.005 0
6.96 0.005 0
7.04 0.005 0
7.12 0.005 0
7.2 0.005 0
7.28 0.005 0
7.36 0.005 0
7.44 0.005 0
7.52 0.005 0
7.6 0.005 0
7.68 0.005 0
7.76 0.005 0
7.84 0.005 0
7.92 0.005 0
8 0.005 0
8.08 0.005 0
8.16 0.005 0
8.24 0.005 0
8.32 0.005 0
8.4 0.005 0
8.48 0.005 0
8.56 0.005 0
8.64 0.005 0
8.72 0.005 0
8.8 0.005 0
8.88 0.005 0
8.96 0.005 0
9.04 0.005 0
9.12 0.005 0
9.2 0.005 0
9.28 0.005 0
9.36 0.005 0
9.44 0.005 0
9.52 0.005 0
9.6 0.005 0
9.68 0.005 0
9.76 0.005 0
9.84 0.005 0
9.92 0.005 0
10 0.005 0
10.08 0.005 0
10.16 0.005 0
10.24 0.005 0
10.32 0.005 0
10.4 0.005 0
10.48 0.005 0
10.56 0.005 0
10.64 0.005 0
10.72 0.005 0
10.8 0.005 0
10.88 0.005 0
10.96 0.005 0
11.04 0.005 0
11.12 0.005 0
11.2 0.005 0
11.28 0.005 0
11.36 0.005 0
11.44 0.005 0
11.52 0.005 0
11.6 0.005 0
11.68 0.005 0
11.76 0.005 0
11.84 0.005 0
11.92 0.005 0
12 0.005 0
12.08 0.005 0
12.16 0.005 0
12.24 0.005 0
12.32 0.005 0
12.4 0.005 0
12.48 0.005 0
12.56 0.005 0
12.64 0.005 0
12.72 0.005 0
12.8 0.005 0
12.88 0.005 0
12.96 0.005 0
13.04 0.005 0
13.12 0.005 0
13.2 0.005 0
13.28 0.005 0
13.36 0.005 0
13.44 0.005 0
13.52 0.005 0
13.6 0.005 0
13.68 0.005 0
13.76 0.005 0
13.84 0.005 0
13.92 0.005 0
14 0.005 0
14.08 0.005 0
14.16 0.005 0
14.24 0.005 0
14.32 0.005 0
14.4 0.005 0
14.48 0.005 0
14.56 0.005 0
14.64 0.005 0
14.72 0.005 0
14.8 0.005 0
14.88 0.005 0
14.96 0.005 0
15.04 0.005 0
15.12 0.005 0
15.2 0.005 0
15.28 0.005 0
15.36 0.005 0
15.44 0.005 0
15.52 0.005 0
15.6 0.005 0
15.68 0.005 0
15.76 0.005 0
15.84 0.005 0
15.92 0.005 0
16 0.005 0
16.08 0.005 0
16.16 0.005 0
16.24 0.005 0
16.32 0.005 0
16.4 0.005 0
16.48 0.005 0
16.56 0.005 0
16.64 0.005 0
16.72 0.005 0
16.8 0.005 0
16.88 0.005 0
16.96 0.005 0
17.04 0.005 0
17.12 0.005 0
17.2 0.005 0
17.28 0.005 0
17.36 0.005 0
17.44 0.005 0
17.52 0.005 0
17.6 0.005 0
17.68 0.005 0
17.76 0.005 0
17.84 0.005 0
17.92 0.005 0
18 0.005 0
18.08 0.005 0
18.16 0.005 0
18.24 0.005 0
18.32 0.005 0
18.4 0.005 0
18.48 0.005 0
18.56 0.005 0
18.64 0.005 0
18.72 0.005 0
18.8 0.005 0
18.88 0.005 0
18.96 0.005 0
19.04 0.005 0
19.12 0.005 0
19.2 0.005 0
19.28 0.005 0
19.36 0.005 0
19.44 0.005 0
19.52 0.005 0
19.6 0.005 0
19.68 0.005 0
19.76 0.005 0
19.84 0.005 0
19.92 0.005 0
20 0.005 0
20.08 0.005 0
20.16 0.005 0
20.24 0.005 0
20.32 0.005 0
20.4 0.005 0
20.48 0.005 0
20.56 0.005 0
20.64 0.005 0
20.72 0.005 0
20.8 0.005 0
20.88 0.005 0
20.96 0.005 0
21.04 0.005 0
21.12 0.005 0
21.2 0.005 0
21.28 0.005 0
21.36 0.005 0
21.44 0.005 0
21.52 0.005 0
21.6 0.005 0
21.68 0.005 0
21.76 0.005 0
21.84 0.005 0
21.92 0.005 0
22 0.005 0
22.08 0.005 0
22.16 0.005 0
22.24 0.005 0
22.32 0.005 0
22.4 0.005 0
22.48 0.005 0
22.56 0.005 0
22.64 0.005 0
22.72 0.005 0
22.8 0.005 0
22.88 0.005 0
22.96 0.005 0
23.04 0.005 0
23.12 0.005 0
23.2 0.005 0
23.28 0.005 0
23.36 0.005 0
23.44 0.005 0
23.52 0.005 0
23.6 0.005 0
23.68 0.005 0
23.76 0.005 0
23.84 0.005 0
23.92 0.005 0
24 0.005 0
24.08 0.005 0
24.16 0.005 0
24.24 0.005 0
24.32 0.005 0
24.4 0.005 0
24.48 0.005 0
24.56 0.005 0
24.64 0.005 0
24.72 0.005 0
24.8 0.005 0
24.88 0.005 0
24.96 0.005 0
25.04 0.005 0
25.12 0.005 0
25.2 0.005 0
25.28 0.005 0
25.36 0.005 0
25.44 0.005 0
25.52 0.005 0
25.6 0.005 0
25.68 0.005 0
25.76 0.005 0
25.84 0.005 0
25.92 0.005 0
26 0.005 0
26.08 0.005 0
26.16 0.005 0
26.24 0.005 0
26.32 0.005 0
26.4 0.005 0
26.48 0.005 0
26.56 0.005 0
26.64 0.005 0
26.72 0.005 0
26.8 0.005 0
26.88 0.005 0
26.96 0.005 0
27.04 0.005 0
27.12 0.005 0
27.2 0.005 0
27.28 0.005 0
27.36 0.005 0
27.44 0.005 0
27.52 0.005 0
27.6 0.005 0
27.68 0.005 0
27.76 0.005 0
27.84 0.005 0
27.92 0.005 0
28 0.005 0
28.08 0.005 0
28.16 0.005 0
28.24 0.005 0
28.32 0.005 0
28.4 0.005 0
28.48 0.005 0
28.56 0.005 0
28.64 0.005 0
28.72 0.005 0
28.8 0.005 0
28.88 0.005 0
28.96 0.005 0
29.04 0.005 0
29.12 0.005 0
29.2 0.005 0
29.28 0.005 0
29.36 0.005 0
29.44 0.005 0
29.52 0.005 0
29.6 0.005 0
29.68 0.005 0
29.76 0.005 0
29.84 0.005 0
29.92 0.005 0
30 0.005 0
30.08 0.005 0
30.16 0.005 0
30.24 0.005 0
30.32 0.005 0
30.4 0.005 0
30.48 0.005 0
30.56 0.005 0
30.64 0.005 0
30.72 0.005 0
30.8 0.005 0
30.88 0.005 0
30.96 0.005 0
31.04 0.005 0
31.12 0.005 0
31.2 0.005 0
31.28 0.005 0
31.36 0.005 0
31.44 0.005 0
31.52 0.005 0
31.6 0.005 0
31.68 0.005 0
31.76 0.005 0
31.84 0.005 0
31.92 0.005 0
0 0.01 0
0.08 0.01 0
0.16 0.01 0
0.24 0.01 0
0.32 0.01 0
0.4 0.01 0
0.48 0.01 0
0.56 0.01 0
0.64 0.01 0
0.72 0.01 0
0.8 0.01 0
0.88 0.01 0
0.96 0.01 0
1.04 0.01 0
1.12 0.01 0
1.2 0.01 0
1.28 0.01 0
1.36 0.01 0
1.44 0.01 0
1.52 0.01 0
1.6 0.01 0
1.68 0.01 0
1.76 0.01 0
1.84 0.01 0
1.92 0.01 0
2 0.01 0
2.08 0.01 0
2.16 0.01 0
2.24 0.01 0
2.32 0.01 0
2.4 0.01 0
2.48 0.01 0
2.56 0.01 0
2.64 0.01 0
2.72 0.01 0
2.8 0.01 0
2.88 0.01 0
2.96 0.01 0
3.04 0.01 0
3.12 0.01 0
3.2 0.01 0
3.28 0.01 0
3.36 0.01 0
3.44 0.01 0
3.52 0.01 0
3.6 0.01 0
3.68 0.01 0
3.76 0.01 0
3.84 0.01 0
3.92 0.01 0
4 0.01 0
4.08 0.01 0
4.16 0.01 0
4.24 0.01 0
4.32 0.01 0
4.4 0.01 0
4.48 0.01 0
4.56 0.01 0
4.64 0.01 0
4.72 0.01 0
4.8 0.01 0
4.88 0.01 0
4.96 0.01 0
5.04 0.01 0
5.12 0.01 0
[...]
POINT_DATA 80000

SCALARS u float 1
LOOKUP_TABLE default
0
-0.131676
-0.0682914
-0.0523281
-0.0444672
-0.0396425
-0.0363439
-0.0339417
-0.0321215
-0.0306956
-0.0295418
-0.0285928
-0.0278266
-0.0272389
-0.0268159
-0.0265263
-0.0263313
-0.0261971
-0.0261023
-0.0260356
-0.0259916
-0.0259663
-0.0259554
-0.0259543
-0.0259586
-0.0259651
-0.0259718
-0.0259776
-0.0259822
-0.0259857
-0.0259883
-0.0259903
-0.025992
-0.0259935
-0.0259948
-0.0259961
-0.0259973
-0.0259986
-0.0259999
-0.0260011
-0.0260024
-0.0260038
-0.0260051
-0.0260064
-0.0260078
-0.0260092
-0.0260106
-0.026012
-0.0260134
-0.0260148
-0.0260162
-0.0260176
-0.026019
-0.0260205
-0.0260219
-0.0260234
-0.0260248
-0.0260263
-0.0260277
-0.0260292
-0.0260307
-0.0260322
-0.0260336
-0.0260351
-0.0260366
-0.0260381
-0.0260396
-0.0260411
-0.0260426
-0.0260441
-0.0260456
-0.0260471
-0.0260486
-0.0260501
-0.0260516
-0.0260531
-0.0260546
-0.0260561
-0.0260577
-0.0260592
-0.0260607
-0.0260622
-0.0260637
-0.0260652
-0.0260667
-0.0260683
-0.0260698
-0.0260713
-0.0260728
-0.0260743
-0.0260758
-0.0260773
-0.0260789
-0.0260804
-0.0260819
-0.0260834
-0.0260849
-0.0260864
-0.0260879
-0.0260894
-0.0260909
-0.0260923
-0.0260938
-0.0260953
-0.0260968
-0.0260983
-0.0260997
-0.0261012
-0.0261027
-0.0261041
-0.0261056
-0.026107
-0.0261085
-0.0261099
-0.0261114
-0.0261128
-0.0261142
-0.0261156
-0.026117
-0.0261184
-0.0261198
-0.0261212
-0.0261226
-0.026124
-0.0261254
-0.0261267
-0.0261281
-0.0261294
-0.0261307
-0.0261321
-0.0261334
-0.0261347
-0.026136
-0.0261373
-0.0261386
-0.0261398
-0.0261411
-0.0261423
-0.0261436
-0.0261448
-0.026146
-0.0261472
-0.0261484
-0.0261496
-0.0261507
-0.0261519
-0.026153
-0.0261542
-0.0261553
-0.0261564
-0.0261574
-0.0261585
-0.0261596
-0.0261606
-0.0261616
-0.0261626
-0.0261636
-0.0261646
-0.0261655
-0.0261665
-0.0261674
-0.0261683
-0.0261692
-0.02617
-0.0261709
-0.0261717
-0.0261725
-0.0261733
-0.0261741
-0.0261748
-0.0261755
-0.0261762
-0.0261769
-0.0261776
-0.0261782
-0.0261788
-0.0261794
-0.02618
-0.0261805
-0.026181
-0.0261815
-0.0261819
-0.0261824
-0.0261828
-0.0261832
-0.0261835
-0.0261838
-0.0261841
-0.0261844
-0.0261846
-0.0261848
-0.026185
-0.0261851
-0.0261852
-0.0261853
-0.0261853
-0.0261853
-0.0261853
-0.0261853
-0.0261852
-0.026185
-0.0261848
-0.0261846
-0.0261844
-0.0261841
-0.0261838
-0.0261834
-0.026183
-0.0261825
-0.026182
-0.0261815
-0.0261809
-0.0261803
-0.0261796
-0.0261789
-0.0261781
-0.0261773
-0.0261765
-0.0261755
-0.0261746
-0.0261736
-0.0261725
-0.0261714
-0.0261702
-0.026169
-0.0261677
-0.0261664
-0.026165
-0.0261635
-0.026162
-0.0261604
-0.0261588
-0.026157
-0.0261553
-0.0261534
-0.0261515
-0.0261496
-0.0261475
-0.0261454
-0.0261432
-0.0261409
-0.0261386
-0.0261362
-0.0261337
-0.0261311
-0.0261285
-0.0261258
-0.0261229
-0.02612
-0.026117
-0.026114
-0.0261108
-0.0261075
-0.0261041
-0.0261007
-0.0260971
-0.0260934
-0.0260897
-0.0260858
-0.0260818
-0.0260777
-0.0260735
-0.0260692
-0.0260647
-0.0260601
-0.0260554
-0.0260506
-0.0260456
-0.0260405
-0.0260353
-0.0260299
-0.0260243
-0.0260186
-0.0260128
-0.0260067
-0.0260006
-0.0259942
-0.0259877
-0.0259809
-0.025974
-0.0259669
-0.0259596
-0.0259521
-0.0259443
-0.0259363
-0.0259281
-0.0259197
-0.025911
-0.0259021
-0.0258929
-0.0258834
-0.0258736
-0.0258636
-0.0258532
-0.0258425
-0.0258315
-0.0258202
-0.0258085
-0.0257964
-0.025784
-0.0257711
-0.0257579
-0.0257443
-0.0257302
-0.0257157
-0.0257007
-0.0256853
-0.0256693
-0.0256529
-0.0256359
-0.0256184
-0.0256004
-0.0255817
-0.0255625
-0.0255427
-0.0255223
-0.0255012
-0.0254795
-0.0254571
-0.0254341
-0.0254103
-0.0253858
-0.0253606
-0.0253347
-0.025308
-0.0252805
-0.0252522
-0.0252231
-0.0251933
-0.0251626
-0.0251311
-0.0250987
-0.0250656
-0.0250316
-0.0249967
-0.024961
-0.0249244
-0.024887
-0.0248488
-0.0248097
-0.0247698
-0.0247291
-0.0246875
-0.0246452
-0.0246022
-0.0245583
-0.0245138
-0.0244686
-0.0244227
-0.0243761
-0.024329
-0.0242814
-0.0242332
-0.0241846
-0.0241355
-0.0240861
-0.0240365
-0.0239866
-0.0239365
-0.0238863
-0.0238362
-0.0237861
-0.0237361
-0.0236864
-0.023637
-0.023588
-0.0235396
-0.0234918
-0.0234447
-0.0233985
-0.0233532
-0.023309
-0.0232659
-0.0232242
-0.0231839
-0.0231452
-0.0231082
-0.023073
-0.0230398
-0.0230087
-0.0229798
-0.0229532
-0.0229292
-0.0229079
-0.022889
-0.0228737
-0.0228601
-0.0228522
-0.0228434
-0.0228442
-0.0228403
-0.0228496
-0.0228526
-0.0228683
-0.0228799
-0.0228992
-0.0229193
-0.022866
-0.022866
-0.022866
1
0.131676
0.0682914
0.0523281
0.0444672
0.0396425
0.0363439
0.0339417
0.0321215
0.0306956
0.0295418
0.0285928
0.0278266
0.0272389
0.0268159
0.0265263
0.0263313
0.0261971
0.0261023
0.0260356
0.0259916
0.0259663
0.0259554
0.0259543
0.0259586
0.0259651
0.0259718
0.0259776
0.0259822
0.0259857
0.0259883
0.0259903
0.025992
0.0259935
0.0259948
0.0259961
0.0259973
0.0259986
0.0259999
0.0260011
0.0260024
0.0260038
0.0260051
0.0260064
0.0260078
0.0260092
0.0260106
0.026012
0.0260134
0.0260148
0.0260162
0.0260176
0.026019
0.0260205
0.0260219
0.0260234
0.0260248
0.0260263
0.0260277
0.0260292
0.0260307
0.0260322
0.0260336
0.0260351
0.0260366
0.0260381
0.0260396
0.0260411
0.0260426
0.0260441
0.0260456
0.0260471
0.0260486
0.0260501
0.0260516
0.0260531
0.0260546
0.0260561
0.0260577
0.0260592
0.0260607
0.0260622
0.0260637
0.0260652
0.0260667
0.0260683
0.0260698
0.0260713
0.0260728
0.0260743
0.0260758
0.0260773
0.0260789
0.0260804
0.0260819
0.0260834
0.0260849
0.0260864
0.0260879
0.0260894
0.0260909
0.0260923
0.0260938
0.0260953
0.0260968
0.0260983
0.0260997
0.0261012
0.0261027
0.0261041
0.0261056
0.026107
0.0261085
0.0261099
0.0261114
0.0261128
0.0261142
0.0261156
0.026117
0.0261184
0.0261198
0.0261212
0.0261226
0.026124
0.0261254
0.0261267
0.0261281
0.0261294
0.0261307
0.0261321
0.0261334
0.0261347
0.026136
0.0261373
0.0261386
0.0261398
0.0261411
0.0261423
0.0261436
0.0261448
0.026146
0.0261472
0.0261484
0.0261496
0.0261507
0.0261519
0.026153
0.0261542
0.0261553
0.0261564
0.0261574
0.0261585
0.0261596
0.0261606
0.0261616
0.0261626
0.0261636
0.0261646
0.0261655
0.0261665
0.0261674
0.0261683
0.0261692
0.02617
0.0261709
0.0261717
0.0261725
0.0261733
0.0261741
0.0261748
0.0261755
0.0261762
0.0261769
0.0261776
0.0261782
0.0261788
0.0261794
0.02618
0.0261805
0.026181
0.0261815
0.0261819
0.0261824
0.0261828
0.0261832
0.0261835
0.0261838
0.0261841
0.0261844
0.0261846
0.0261848
0.026185
0.0261851
0.0261852
0.0261853
0.0261853
0.0261853
0.0261853
0.0261853
0.0261852
0.026185
0.0261848
0.0261846
0.0261844
0.0261841
0.0261838
0.0261834
0.026183
0.0261825
0.026182
0.0261815
0.0261809
0.0261803
0.0261796
0.0261789
0.0261781
0.0261773
0.0261765
0.0261755
0.0261746
0.0261736
0.0261725
0.0261714
0.0261702
0.026169
0.0261677
0.0261664
0.026165
0.0261635
0.026162
0.0261604
0.0261588
0.026157
0.0261553
0.0261534
0.0261515
0.0261496
0.0261475
0.0261454
0.0261432
0.0261409
0.0261386
0.0261362
0.0261337
0.0261311
0.0261285
0.0261258
0.0261229
0.02612
0.026117
0.026114
0.0261108
0.0261075
0.0261041
0.0261007
0.0260971
0.0260934
0.0260897
0.0260858
0.0260818
0.0260777
0.0260735
0.0260692
0.0260647
0.0260601
0.0260554
0.0260506
0.0260456
0.0260405
0.0260353
0.0260299
0.0260243
0.0260186
0.0260128
0.0260067
0.0260006
0.0259942
0.0259877
0.0259809
0.025974
0.0259669
0.0259596
0.0259521
0.0259443
0.0259363
0.0259281
0.0259197
0.025911
0.0259021
0.0258929
0.0258834
0.0258736
0.0258636
0.0258532
0.0258425
0.0258315
0.0258202
0.0258085
0.0257964
0.025784
0.0257711
0.0257579
0.0257443
0.0257302
0.0257157
0.0257007
0.0256853
0.0256693
0.0256529
0.0256359
0.0256184
0.0256004
0.0255817
0.0255625
0.0255427
0.0255223
0.0255012
0.0254795
0.0254571
0.0254341
0.0254103
0.0253858
0.0253606
0.0253347
0.025308
0.0252805
0.0252522
0.0252231
0.0251933
0.0251626
0.0251311
0.0250987
0.0250656
0.0250316
0.0249967
0.024961
0.0249244
0.024887
0.0248488
0.0248097
0.0247698
0.0247291
0.0246875
0.0246452
0.0246022
0.0245583
0.0245138
0.0244686
0.0244227
0.0243761
0.024329
0.0242814
0.0242332
0.0241846
0.0241355
0.0240861
0.0240365
0.0239866
0.0239365
0.0238863
0.0238362
0.0237861
0.0237361
0.0236864
0.023637
0.023588
0.0235396
0.0234918
0.0234447
0.0233985
0.0233532
0.023309
0.0232659
0.0232242
0.0231839
0.0231452
0.0231082
0.023073
0.0230398
0.0230087
0.0229798
0.0229532
0.0229292
0.0229079
0.022889
0.0228737
0.0228601
0.0228522
0.0228434
0.0228442
0.0228403
0.0228496
0.0228526
0.0228683
0.0228799
0.0228992
0.0229193
0.022866
0.022866
0.022866
1
0.344916
0.200726
0.155056
0.132029
0.117788
0.108013
0.10088
0.0954689
0.0912265
0.0877982
0.0849925
0.0827433
0.0810281
0.0797962
0.0789507
0.0783782
0.0779843
0.0777085
0.0775185
0.0773967
0.0773295
0.077303
0.077303
0.0773175
0.0773372
0.0773569
0.0773738
0.0773873
0.0773977
0.0774059
0.0774124
0.0774178
0.0774228
0.0774274
0.0774318
0.0774363
0.0774407
0.0774452
0.0774497
0.0774543
0.0774589
0.0774636
0.0774682
0.077473
0.0774778
0.0774826
0.0774874
0.0774922
0.0774971
0.077502
0.077507
0.0775119
0.0775169
0.0775219
0.0775269
0.0775319
0.077537
0.077542
0.0775471
0.0775522
0.0775573
0.0775624
0.0775675
0.0775726
0.0775777
0.0775829
0.077588
0.0775932
0.0775984
0.0776036
0.0776088
0.077614
0.0776192
0.0776244
0.0776296
0.0776348
0.07764
0.0776453
0.0776505
0.0776558
0.077661
0.0776662
0.0776715
0.0776768
0.077682
0.0776873
0.0776925
0.0776978
0.077703
0.0777083
0.0777135
0.0777188
0.0777241
0.0777293
0.0777346
0.0777398
0.077745
0.0777503
0.0777555
0.0777607
0.0777659
0.0777712
0.0777764
0.0777816
0.0777868
0.0777919
0.0777971
0.0778023
0.0778074
0.0778126
0.0778177
0.0778228
0.077828
0.0778331
0.0778381
0.0778432
0.0778483
0.0778533
0.0778583
0.0778634
0.0778683
0.0778733
0.0778783
0.0778832
0.0778881
0.0778931
0.0778979
0.0779028
0.0779076
0.0779125
0.0779172
0.077922
0.0779268
0.0779315
0.0779362
0.0779409
0.0779455
0.0779501
0.0779547
0.0779593
0.0779638
0.0779683
0.0779728
0.0779772
0.0779816
0.077986
0.0779903
0.0779946
0.0779989
0.0780031
0.0780073
0.0780114
0.0780156
0.0780196
0.0780237
0.0780276
0.0780316
0.0780355
0.0780394
0.0780432
0.0780469
0.0780507
0.0780543
0.0780579
0.0780615
0.078065
0.0780685
0.0780719
0.0780753
0.0780786
0.0780818
0.078085
0.0780882
0.0780913
0.0780943
0.0780972
0.0781001
0.0781029
0.0781057
0.0781084
0.078111
0.0781136
0.0781161
0.0781185
0.0781208
0.0781231
0.0781253
0.0781274
0.0781294
0.0781314
0.0781333
0.0781351
0.0781368
0.0781384
0.07814
0.0781414
0.0781428
0.0781441
0.0781452
0.0781463
0.0781473
0.0781482
0.078149
0.0781497
0.0781503
0.0781508
0.0781511
0.0781514
0.0781516
0.0781516
0.0781515
0.0781514
0.0781511
0.0781506
0.0781501
0.0781494
0.0781486
0.0781477
0.0781466
0.0781455
0.0781441
0.0781427
0.0781411
0.0781393
0.0781374
0.0781354
0.0781332
0.0781309
0.0781284
0.0781257
0.0781229
0.0781199
0.0781168
0.0781135
0.07811
0.0781063
0.0781025
0.0780985
0.0780942
0.0780898
0.0780853
0.0780805
0.0780755
0.0780703
0.0780649
0.0780593
0.0780534
0.0780474
0.0780411
0.0780346
0.0780279
0.0780209
0.0780137
0.0780062
0.0779985
0.0779905
0.0779823
0.0779738
0.077965
0.0779559
0.0779466
0.0779369
0.077927
0.0779167
0.0779061
0.0778952
0.077884
0.0778724
0.0778605
0.0778482
0.0778356
0.0778226
0.0778092
0.0777954
0.0777812
0.0777665
0.0777515
0.077736
0.07772
0.0777036
0.0776867
0.0776693
0.0776513
0.0776329
0.0776139
0.0775943
0.0775742
0.0775534
0.0775321
0.0775101
0.0774874
0.0774641
0.07744
0.0774153
0.0773897
0.0773635
0.0773364
0.0773085
0.0772797
0.0772501
0.0772195
0.077188
0.0771556
0.0771221
0.0770877
0.0770522
0.0770155
0.0769778
0.0769389
0.0768989
0.0768576
0.0768151
0.0767713
0.0767262
0.0766797
0.0766319
0.0765826
0.0765319
0.0764798
0.0764261
0.076371
0.0763143
0.076256
0.0761961
0.0761346
0.0760715
0.0760068
0.0759404
0.0758723
0.0758025
0.0757311
0.075658
0.0755833
0.0755069
0.0754288
0.0753491
0.0752679
0.0751851
0.0751007
0.0750149
0.0749276
0.074839
0.0747491
0.0746579
0.0745656
0.0744722
0.0743778
0.0742825
0.0741865
0.0740899
0.0739927
0.0738952
0.0737974
0.0736996
0.0736019
0.0735045
0.0734075
0.0733112
0.0732157
0.0731213
0.0730282
0.0729367
0.0728469
0.0727592
0.0726737
0.0725908
0.0725107
0.0724336
0.07236
0.07229
0.0722241
0.0721623
0.0721052
0.072053
0.0720059
0.0719644
0.0719287
0.0718991
0.0718761
0.0718597
0.0718505
0.0718486
0.0718547
0.0718679
0.0718912
0.0719196
0.0719632
0.072005
0.0720726
0.0721273
0.0722183
0.0722913
0.0723992
0.0724949
0.0726123
0.0727285
0.0726718
0.0726718
0.0726718
1
0.518811
0.327489
0.255485
0.218063
0.194707
0.178609
0.166835
0.157889
0.150871
0.145204
0.140582
0.136893
0.134089
0.132075
0.130687
0.129743
0.129093
0.128641
0.128333
0.12814
0.128036
0.127998
0.128002
0.128027
0.12806
0.128092
0.12812
0.128143
0.12816
0.128174
0.128186
0.128196
0.128205
0.128213
0.128222
0.12823
0.128239
0.128247
0.128256
0.128264
0.128273
0.128282
0.128291
0.1283
0.128309
0.128318
0.128327
0.128336
0.128345
0.128354
0.128364
0.128373
0.128382
0.128392
0.128401
0.12841
0.12842
0.128429
0.128439
0.128448
0.128458
0.128467
0.128477
0.128486
0.128496
0.128506
0.128515
0.128525
0.128535
0.128544
0.128554
0.128564
0.128574
0.128583
0.128593
0.128603
0.128613
0.128623
0.128632
0.128642
0.128652
0.128662
0.128672
0.128682
0.128692
0.128701
0.128711
0.128721
0.128731
0.128741
0.128751
0.128761
0.128771
0.128781
0.128791
0.1288
0.12881
0.12882
0.12883
0.12884
0.12885
0.12886
0.12887
0.12888
0.128889
0.128899
0.128909
0.128919
0.128929
0.128939
0.128948
0.128958
0.128968
0.128978
0.128988
0.128997
0.129007
0.129017
0.129026
0.129036
0.129046
0.129055
0.129065
0.129074
0.129084
0.129094
0.129103
0.129113
0.129122
0.129131
0.129141
0.12915
0.129159
0.129169
0.129178
0.129187
0.129196
0.129206
0.129215
0.129224
0.129233
0.129242
0.129251
0.12926
0.129269
0.129277
0.129286
0.129295
0.129304
0.129312
0.129321
0.129329
0.129338
0.129346
0.129355
0.129363
0.129371
0.129379
0.129387
0.129396
0.129404
0.129411
0.129419
0.129427
0.129435
0.129443
0.12945
0.129458
0.129465
0.129472
0.12948
0.129487
0.129494
0.129501
0.129508
0.129515
0.129522
0.129529
0.129535
0.129542
0.129548
0.129554
0.129561
0.129567
0.129573
0.129579
0.129585
0.12959
0.129596
0.129601
0.129607
0.129612
0.129617
0.129622
0.129627
0.129632
0.129637
0.129641
0.129646
0.12965
0.129654
0.129658
0.129662
0.129666
0.129669
0.129673
0.129676
0.129679
0.129682
0.129685
0.129688
0.12969
0.129692
0.129695
0.129697
0.129698
0.1297
0.129702
0.129703
0.129704
0.129705
0.129706
0.129706
0.129707
0.129707
0.129707
0.129706
0.129706
0.129705
0.129704
0.129703
0.129702
0.1297
0.129698
0.129696
0.129694
0.129691
0.129688
0.129685
0.129682
0.129678
0.129674
0.12967
0.129666
0.129661
0.129656
0.129651
0.129645
0.129639
0.129633
0.129627
0.12962
0.129612
0.129605
0.129597
0.129589
0.12958
0.129571
0.129562
0.129552
0.129542
0.129532
0.129521
0.129509
0.129498
0.129485
0.129473
0.12946
0.129446
0.129432
0.129418
0.129403
0.129387
0.129371
0.129355
0.129337
0.12932
0.129302
0.129283
0.129263
0.129243
0.129222
0.129201
0.129179
0.129156
0.129132
0.129108
0.129083
0.129057
0.129031
0.129003
0.128975
0.128946
0.128915
0.128884
0.128852
0.128819
0.128785
0.12875
0.128714
0.128676
0.128638
0.128598
0.128557
0.128515
0.128471
0.128427
0.12838
0.128333
0.128284
0.128233
0.128181
0.128128
0.128073
0.128016
0.127958
0.127898
0.127836
0.127773
0.127707
0.127641
0.127572
0.127501
0.127429
0.127355
0.127279
0.127201
0.127122
0.12704
0.126957
0.126872
0.126785
0.126697
0.126606
0.126515
0.126421
0.126326
0.126229
0.126132
0.126032
0.125932
0.12583
0.125728
0.125624
0.12552
0.125415
0.12531
0.125205
0.125099
0.124994
0.124889
0.124784
0.124681
0.124578
0.124476
0.124377
0.124278
0.124183
0.124089
0.123998
0.123911
0.123826
0.123746
0.12367
0.123598
0.123531
0.123469
0.123413
0.123363
0.123319
0.123283
0.123253
0.123231
0.123218
0.123213
0.123217
0.12323
0.123253
0.123286
0.12333
0.123385
0.123451
0.123529
0.123618
0.123722
0.123834
0.123969
0.1241
0.12427
0.12442
0.124625
0.124801
0.12503
0.125239
0.125481
0.125718
0.125723
0.125723
0.125723
1
0.660942
0.447003
0.353056
0.302313
0.270257
0.248038
0.231739
0.219331
0.209587
0.201724
0.195326
0.190236
0.186375
0.183597
0.181675
0.18036
0.179452
0.178823
0.178399
0.178138
0.178001
0.177953
0.17796
0.177997
0.178043
0.178088
0.178127
0.178159
0.178184
0.178204
0.178222
0.178237
0.178251
0.178265
0.178278
0.178292
0.178305
0.178318
0.178332
0.178346
0.178359
0.178373
0.178387
0.178401
0.178415
0.178429
0.178444
0.178458
0.178472
0.178487
0.178501
0.178516
0.17853
0.178545
0.17856
0.178574
0.178589
0.178604
0.178619
0.178634
0.178649
0.178664
0.178679
0.178694
0.178709
0.178724
0.178739
0.178754
0.178769
0.178784
0.1788
0.178815
0.17883
0.178845
0.178861
0.178876
0.178891
0.178907
0.178922
0.178938
0.178953
0.178969
0.178984
0.179
0.179015
0.179031
0.179046
0.179062
0.179077
0.179093
0.179108
0.179124
0.17914
0.179155
0.179171
0.179186
0.179202
0.179218
0.179233
0.179249
0.179265
0.17928
0.179296
0.179312
0.179327
0.179343
0.179359
0.179374
0.17939
0.179405
0.179421
0.179437
0.179452
0.179468
0.179483
0.179499
0.179515
0.17953
0.179546
0.179561
0.179577
0.179592
0.179607
0.179623
0.179638
0.179654
0.179669
0.179684
0.1797
0.179715
0.17973
0.179746
0.179761
0.179776
0.179791
0.179806
0.179821
0.179836
0.179851
0.179866
0.179881
0.179896
0.179911
0.179926
0.17994
0.179955
0.17997
0.179984
0.179999
0.180013
0.180028
0.180042
0.180057
0.180071
0.180085
0.180099
0.180113
0.180127
0.180141
0.180155
0.180169
0.180183
0.180197
0.18021
0.180224
0.180237
0.180251
0.180264
0.180277
0.18029
0.180303
0.180316
0.180329
0.180342
0.180355
0.180367
0.18038
0.180392
0.180405
0.180417
0.180429
0.180441
0.180453
0.180465
0.180477
0.180488
0.1805
0.180511
0.180522
0.180533
0.180544
0.180555
0.180566
0.180577
0.180587
0.180598
0.180608
0.180618
0.180628
0.180638
0.180647
0.180657
0.180666
0.180675
0.180684
0.180693
0.180702
0.18071
0.180719
0.180727
0.180735
0.180743
0.18075
0.180758
0.180765
0.180772
0.180779
0.180786
0.180792
0.180799
0.180805
0.180811
0.180816
0.180822
0.180827
0.180832
0.180837
0.180841
0.180846
0.18085
0.180854
0.180857
0.180861
0.180864
0.180867
0.180869
0.180871
0.180873
0.180875
0.180877
0.180878
0.180879
0.180879
0.18088
0.18088
0.180879
0.180879
0.180878
0.180876
0.180875
0.180873
0.18087
0.180868
0.180864
0.180861
0.180857
0.180853
0.180849
0.180844
0.180838
0.180832
0.180826
0.18082
0.180813
0.180805
0.180797
0.180789
0.18078
0.180771
0.180761
0.18075
0.180739
0.180728
0.180716
0.180704
0.180691
0.180677
0.180663
0.180648
0.180632
0.180616
0.180599
0.180582
0.180564
0.180545
0.180525
0.180505
0.180484
0.180462
0.180439
0.180416
0.180392
0.180366
0.18034
0.180313
0.180285
0.180256
0.180226
0.180195
0.180163
0.180129
0.180095
0.180059
0.180023
0.179985
0.179946
0.179905
0.179864
0.179821
0.179776
0.17973
0.179683
0.179635
0.179585
0.179533
0.17948
0.179425
0.179369
0.179312
0.179253
0.179192
0.17913
0.179066
0.179
0.178933
0.178865
0.178795
0.178723
0.17865
0.178575
0.178499
0.178422
0.178344
0.178264
0.178183
0.178101
0.178018
0.177935
0.17785
0.177765
0.177679
0.177593
0.177507
0.177421
0.177335
0.17725
0.177165
0.177081
0.176998
0.176916
0.176836
0.176757
0.176681
0.176607
0.176536
0.176468
0.176403
0.176343
0.176286
0.176234
0.176187
0.176145
0.176108
0.176078
0.176055
0.176038
0.176029
0.176028
0.176036
0.176052
0.176077
0.176112
0.176158
0.176214
0.176281
0.17636
0.176451
0.176554
0.17667
0.1768
0.176944
0.177101
0.177273
0.177459
0.177664
0.177877
0.178119
0.178356
0.178641
0.178899
0.179227
0.179515
0.179871
0.180199
0.180569
0.18093
0.181032
0.181032
0.181032
1
0.776863
0.55795
0.447088
0.384444
0.344242
0.316174
0.295503
0.279728
0.267321
0.257311
0.249182
0.242729
0.237835
0.234307
0.231852
0.230161
0.228989
0.228179
0.227639
0.227308
0.227138
0.22708
0.227093
0.22714
0.2272
0.227257
0.227307
0.227348
0.227382
0.227409
0.227433
0.227455
0.227475
0.227495
0.227514
0.227533
0.227553
0.227572
0.227592
0.227611
0.227631
0.227651
0.227671
0.227691
0.227711
0.227732
0.227752
0.227773
0.227793
0.227814
0.227835
0.227855
0.227876
0.227897
0.227918
0.227939
0.22796
0.227982
0.228003
0.228024
0.228045
0.228067
0.228088
0.22811
0.228131
0.228153
0.228175
0.228196
0.228218