# vtk DataFile Version 2.0
FlowField
ASCII
DATASET STRUCTURED_GRID
DIMENSIONS 400 1 200
POINTS 80000 float
0 0 0
0.08 0 0
0.16 0 0
0.24 0 0
0.32 0 0
0.4 0 0
0.48 0 0
0.56 0 0
0.64 0 0
0.72 0 0
0.8 0 0
0.88 0 0
0.96 0 0
1.04 0 0
1.12 0 0
1.2 0 0
1.28 0 0
1.36 0 0
1.44 0 0
1.52 0 0
1.6 0 0
1.68 0 0
1.76 0 0
1.84 0 0
1.92 0 0
2 0 0
2.08 0 0
2.16 0 0
2.24 0 0
2.32 0 0
2.4 0 0
2.48 0 0
2.56 0 0
2.64 0 0
2.72 0 0
2.8 0 0
2.88 0 0
2.96 0 0
3.04 0 0
3.12 0 0
3.2 0 0
3.28 0 0
3.36 0 0
3.44 0 0
3.52 0 0
3.6 0 0
3.68 0 0
3.76 0 0
3.84 0 0
3.92 0 0
4 0 0
4.08 0 0
4.16 0 0
4.24 0 0
4.32 0 0
4.4 0 0
4.48 0 0
4.56 0 0
4.64 0 0
4.72 0 0
4.8 0 0
4.88 0 0
4.96 0 0
5.04 0 0
5.12 0 0
5.2 0 0
5.28 0 0
5.36 0 0
5.44 0 0
5.52 0 0
5.6 0 0
5.68 0 0
5.76 0 0
5.84 0 0
5.92 0 0
6 0 0
6.08 0 0
6.16 0 0
6.24 0 0
6.32 0 0
6.4 0 0
6.48 0 0
6.56 0 0
6.64 0 0
6.72 0 0
6.8 0 0
6.88 0 0
6.96 0 0
7.04 0 0
7.12 0 0
7.2 0 0
7.28 0 0
7.36 0 0
7.44 0 0
7.52 0 0
7.6 0 0
7.68 0 0
7.76 0 0
7.84 0 0
7.92 0 0
8 0 0
8.08 0 0
8.16 0 0
8.24 0 0
8.32 0 0
8.4 0 0
8.48 0 0
8.56 0 0
8.64 0 0
8.72 0 0
8.8 0 0
8.88 0 0
8.96 0 0
9.04 0 0
9.12 0 0
9.2 0 0
9.28 0 0
9.36 0 0
9.44 0 0
9.52 0 0
9.6 0 0
9.68 0 0
9.76 0 0
9.84 0 0
9.92 0 0
10 0 0
10.08 0 0
10.16 0 0
10.24 0 0
10.32 0 0
10.4 0 0
10.48 0 0
10.56 0 0
10.64 0 0
10.72 0 0
10.8 0 0
10.88 0 0
10.96 0 0
11.04 0 0
11.12 0 0
11.2 0 0
11.28 0 0
11.36 0 0
11.44 0 0
11.52 0 0
11.6 0 0
11.68 0 0
11.76 0 0
11.84 0 0
11.92 0 0
12 0 0
12.08 0 0
12.16 0 0
12.24 0 0
12.32 0 0
12.4 0 0
12.48 0 0
12.56 0 0
12.64 0 0
12.72 0 0
12.8 0 0
12.88 0 0
12.96 0 0
13.04 0 0
13.12 0 0
13.2 0 0
13.28 0 0
13.36 0 0
13.44 0 0
13.52 0 0
13.6 0 0
13.68 0 0
13.76 0 0
13.84 0 0
13.92 0 0
14 0 0
14.08 0 0
14.16 0 0
14.24 0 0
14.32 0 0
14.4 0 0
14.48 0 0
14.56 0 0
14.64 0 0
14.72 0 0
14.8 0 0
14.88 0 0
14.96 0 0
15.04 0 0
15.12 0 0
15.2 0 0
15.28 0 0
15.36 0 0
15.44 0 0
15.52 0 0
15.6 0 0
15.68 0 0
15.76 0 0
15.84 0 0
15.92 0 0
16 0 0
16.08 0 0
16.16 0 0
16.24 0 0
16.32 0 0
16.4 0 0
16.48 0 0
16.56 0 0
16.64 0 0
16.72 0 0
16.8 0 0
16.88 0 0
16.96 0 0
17.04 0 0
17.12 0 0
17.2 0 0
17.28 0 0
17.36 0 0
17.44 0 0
17.52 0 0
17.6 0 0
17.68 0 0
17.76 0 0
17.84 0 0
17.92 0 0
18 0 0
18.08 0 0
18.16 0 0
18.24 0 0
18.32 0 0
18.4 0 0
18.48 0 0
18.56 0 0
18.64 0 0
18.72 0 0
18.8 0 0
18.88 0 0
18.96 0 0
19.04 0 0
19.12 0 0
19.2 0 0
19.28 0 0
19.36 0 0
19.44 0 0
19.52 0 0
19.6 0 0
19.68 0 0
19.76 0 0
19.84 0 0
19.92 0 0
20 0 0
20.08 0 0
20.16 0 0
20.24 0 0
20.32 0 0
20.4 0 0
20.48 0 0
20.56 0 0
20.64 0 0
20.72 0 0
20.8 0 0
20.88 0 0
20.96 0 0
21.04 0 0
21.12 0 0
21.2 0 0
21.28 0 0
21.36 0 0
21.44 0 0
21.52 0 0
21.6 0 0
21.68 0 0
21.76 0 0
21.84 0 0
21.92 0 0
22 0 0
22.08 0 0
22.16 0 0
22.24 0 0
22.32 0 0
22.4 0 0
22.48 0 0
22.56 0 0
22.64 0 0
22.72 0 0
22.8 0 0
22.88 0 0
22.96 0 0
23.04 0 0
23.12 0 0
23.2 0 0
23.28 0 0
23.36 0 0
23.44 0 0
23.52 0 0
23.6 0 0
23.68 0 0
23.76 0 0
23.84 0 0
23.92 0 0
24 0 0
24.08 0 0
24.16 0 0
24.24 0 0
24.32 0 0
24.4 0 0
24.48 0 0
24.56 0 0
24.64 0 0
24.72 0 0
24.8 0 0
24.88 0 0
24.96 0 0
25.04 0 0
25.12 0 0
25.2 0 0
25.28 0 0
25.36 0 0
25.44 0 0
25.52 0 0
25.6 0 0
25.68 0 0
25.76 0 0
25.84 0 0
25.92 0 0
26 0 0
26.08 0 0
26.16 0 0
26.24 0 0
26.32 0 0
26.4 0 0
26.48 0 0
26.56 0 0
26.64 0 0
26.72 0 0
26.8 0 0
26.88 0 0
26.96 0 0
27.04 0 0
27.12 0 0
27.2 0 0
27.28 0 0
27.36 0 0
27.44 0 0
27.52 0 0
27.6 0 0
27.68 0 0
27.76 0 0
27.84 0 0
27.92 0 0
28 0 0
28.08 0 0
28.16 0 0
28.24 0 0
28.32 0 0
28.4 0 0
28.48 0 0
28.56 0 0
28.64 0 0
28.72 0 0
28.8 0 0
28.88 0 0
28.96 0 0
29.04 0 0
29.12 0 0
29.2 0 0
29.28 0 0
29.36 0 0
29.44 0 0
29.52 0 0
29.6 0 0
29.68 0 0
29.76 0 0
29.84 0 0
29.92 0 0
30 0 0
30.08 0 0
30.16 0 0
30.24 0 0
30.32 0 0
30.4 0 0
30.48 0 0
30.56 0 0
30.64 0 0
30.72 0 0
30.8 0 0
30.88 0 0
30.96 0 0
31.04 0 0
31.12 0 0
31.2 0 0
31.28 0 0
31.36 0 0
31.44 0 0
31.52 0 0
31.6 0 0
31.68 0 0
31.76 0 0
31.84 0 0
31.92 0 0
0 0.005 0
0.08 0.005 0
0.16 0.005 0
0.24 0.005 0
0.32 0.005 0
0.4 0.005 0
0.48 0.005 0
0.56 0.005 0
0.64 0.005 0
0.72 0.005 0
0.8 0.005 0
0.88 0.005 0
0.96 0.005 0
1.04 0.005 0
1.12 0.005 0
1.2 0.005 0
1.28 0.005 0
1.36 0.005 0
1.44 0.005 0
1.52 0.005 0
1.6 0.005 0
1.68 0.005 0
1.76 0.005 0
1.84 0.005 0
1.92 0.005 0
2 0.005 0
2.08 0.005 0
2.16 0.005 0
2.24 0.005 0
2.32 0.005 0
2.4 0.005 0
2.48 0.005 0
2.56 0.005 0
2.64 0.005 0
2.72 0.005 0
2.8 0.005 0
2.88 0.005 0
2.96 0.005 0
3.04 0.005 0
3.12 0.005 0
3.2 0.005 0
3.28 0.005 0
3.36 0.005 0
3.44 0.005 0
3.52 0.005 0
3.6 0.005 0
3.68 0.005 0
3.76 0.005 0
3.84 0.005 0
3.92 0.005 0
4 0.005 0
4.08 0.005 0
4.16 0.005 0
4.24 0.005 0
4.32 0.005 0
4.4 0.005 0
4.48 0.005 0
4.56 0.005 0
4.64 0.005 0
4.72 0.005 0
4.8 0.005 0
4.88 0.005 0
4.96 0.005 0
5.04 0.005 0
5.12 0.005 0
5.2 0.005 0
5.28 0.005 0
5.36 0.005 0
5.44 0.005 0
5.52 0.005 0
5.6 0.005 0
5.68 0.005 0
5.76 0.005 0
5.84 0.005 0
5.92 0.005 0
6 0.005 0
6.08 0.005 0
6.16 0.005 0
6.24 0.005 0
6.32 0.005 0
6.4 0.005 0
6.48 0.005 0
6.56 0.005 0
6.64 0.005 0
6.72 0.005 0
6.8 0.005 0
6.88 0.005 0
6.96 0.005 0
7.04 0.005 0
7.12 0.005 0
7.2 0.005 0
7.28 0.005 0
7.36 0.005 0
7.44 0.005 0
7.52 0.005 0
7.6 0.005 0
7.68 0.005 0
7.76 0.005 0
7.84 0.005 0
7.92 0.005 0
8 0.005 0
8.08 0.005 0
8.16 0.005 0
8.24 0.005 0
8.32 0.005 0
8.4 0.005 0
8.48 0.005 0
8.56 0.005 0
8.64 0.005 0
8.72 0.005 0
8.8 0.005 0
8.88 0.005 0
8.96 0.005 0
9.04 0.005 0
9.12 0.005 0
9.2 0.005 0
9.28 0.005 0
9.36 0.005 0
9.44 0.005 0
9.52 0.005 0
9.6 0.005 0
9.68 0.005 0
9.76 0.005 0
9.84 0.005 0
9.92 0.005 0
10 0.005 0
10.08 0.005 0
10.16 0.005 0
10.24 0.005 0
10.32 0.005 0
10.4 0.005 0
10.48 0.005 0
10.56 0.005 0
10.64 0.005 0
10.72 0.005 0
10.8 0.005 0
10.88 0.005 0
10.96 0.005 0
11.04 0.005 0
11.12 0.005 0
11.2 0.005 0
11.28 0.005 0
11.36 0.005 0
11.44 0.005 0
11.52 0.005 0
11.6 0.005 0
11.68 0.005 0
11.76 0.005 0
11.84 0.005 0
11.92 0.005 0
12 0.005 0
12.08 0.005 0
12.16 0.005 0
12.24 0.005 0
12.32 0.005 0
12.4 0.005 0
12.48 0.005 0
12.56 0.005 0
12.64 0.005 0
12.72 0.005 0
12.8 0.005 0
12.88 0.005 0
12.96 0.005 0
13.04 0.005 0
13.12 0.005 0
13.2 0.005 0
13.28 0.005 0
13.36 0.005 0
13.44 0.005 0
13.52 0.005 0
13.6 0.005 0
13.68 0.005 0
13.76 0.005 0
13.84 0.005 0
13.92 0.005 0
14 0.005 0
14.08 0.005 0
14.16 0.005 0
14.24 0.005 0
14.32 0.005 0
14.4 0.005 0
14.48 0.005 0
14.56 0.005 0
14.64 0.005 0
14.72 0.005 0
14.8 0.005 0
14.88 0.005 0
14.96 0.005 0
15.04 0.005 0
15.12 0.005 0
15.2 0.005 0
15.28 0.005 0
15.36 0.005 0
15.44 0.005 0
15.52 0.005 0
15.6 0.005 0
15.68 0.005 0
15.76 0.005 0
15.84 0.005 0
15.92 0.005 0
16 0.005 0
16.08 0.005 0
16.16 0.005 0
16.24 0.005 0
16.32 0.005 0
16.4 0.005 0
16.48 0.005 0
16.56 0.005 0
16.64 0.005 0
16.72 0.005 0
16.8 0.005 0
16.88 0.005 0
16.96 0.005 0
17.04 0.005 0
17.12 0.005 0
17.2 0.005 0
17.28 0.005 0
17.36 0.005 0
17.44 0.005 0
17.52 0.005 0
17.6 0.005 0
17.68 0.005 0
17.76 0.005 0
17.84 0.005 0
17.92 0.005 0
18 0.005 0
18.08 0.005 0
18.16 0.005 0
18.24 0.005 0
18.32 0.005 0
18.4 0.005 0
18.48 0.005 0
18.56 0.005 0
18.64 0.005 0
18.72 0.005 0
18.8 0.005 0
18.88 0.005 0
18.96 0.005 0
19.04 0.005 0
19.12 0.005 0
19.2 0.005 0
19.28 0.005 0
19.36 0.005 0
19.44 0.005 0
19.52 0.005 0
19.6 0.005 0
19.68 0.005 0
19.76 0.005 0
19.84 0.005 0
19.92 0.005 0
20 0.005 0
20.08 0.005 0
20.16 0.005 0
20.24 0.005 0
20.32 0.005 0
20.4 0.005 0
20.48 0.005 0
20.56 0.005 0
20.64 0.005 0
20.72 0.005 0
20.8 0.005 0
20.88 0.005 0
20.96 0.005 0
21.04 0.005 0
21.12 0.005 0
21.2 0.005 0
21.28 0.005 0
21.36 0.005 0
21.44 0.005 0
21.52 0.005 0
21.6 0.005 0
21.68 0.005 0
21.76 0.005 0
21.84 0.005 0
21.92 0.005 0
22 0.005 0
22.08 0.005 0
22.16 0.005 0
22.24 0.005 0
22.32 0.005 0
22.4 0.005 0
22.48 0.005 0
22.56 0.005 0
22.64 0.005 0
22.72 0.005 0
22.8 0.005 0
22.88 0.005 0
22.96 0.005 0
23.04 0.005 0
23.12 0.005 0
23.2 0.005 0
23.28 0.005 0
23.36 0.005 0
23.44 0.005 0
23.52 0.005 0
23.6 0.005 0
23.68 0.005 0
23.76 0.005 0
23.84 0.005 0
23.92 0.005 0
24 0.005 0
24.08 0.005 0
24.16 0.005 0
24.24 0.005 0
24.32 0.005 0
24.4 0.005 0
24.48 0.005 0
24.56 0.005 0
24.64 0.005 0
24.72 0.005 0
24.8 0.005 0
24.88 0.005 0
24.96 0.005 0
25.04 0.005 0
25.12 0.005 0
25.2 0.005 0
25.28 0.005 0
25.36 0.005 0
25.44 0.005 0
25.52 0.005 0
25.6 0.005 0
25.68 0.005 0
25.76 0.005 0
25.84 0.005 0
25.92 0.005 0
26 0.005 0
26.08 0.005 0
26.16 0.005 0
26.24 0.005 0
26.32 0.005 0
26.4 0.005 0
26.48 0.005 0
26.56 0.005 0
26.64 0.005 0
26.72 0.005 0
26.8 0.005 0
26.88 0.005 0
26.96 0.005 0
27.04 0.005 0
27.12 0.005 0
27.2 0.005 0
27.28 0.005 0
27.36 0.005 0
27.44 0.005 0
27.52 0.005 0
27.6 0.005 0
27.68 0.005 0
27.76 0.005 0
27.84 0.005 0
27.92 0.005 0
28 0.005 0
28.08 0.005 0
28.16 0.005 0
28.24 0.005 0
28.32 0.005 0
28.4 0.005 0
28.48 0.005 0
28.56 0.005 0
28.64 0.005 0
28.72 0.005 0
28.8 0.005 0
28.88 0.005 0
28.96 0.005 0
29.04 0.005 0
29.12 0.005 0
29.2 0.005 0
29.28 0.005 0
29.36 0.005 0
29.44 0.005 0
29.52 0.005 0
29.6 0.005 0
29.68 0.005 0
29.76 0.005 0
29.84 0.005 0
29.92 0.005 0
30 0.005 0
30.08 0.005 0
30.16 0.005 0
30.24 0.005 0
30.32 0.005 0
30.4 0.005 0
30.48 0.005 0
30.56 0.005 0
30.64 0.005 0
30.72 0.005 0
30.8 0.005 0
30.88 0.005 0
30.96 0.005 0
31.04 0.005 0
31.12 0.005 0
31.2 0.005 0
31.28 0.005 0
31.36 0.005 0
31.44 0.005 0
31.52 0.005 0
31.6 0.005 0
31.68 0.005 0
31.76 0.005 0
31.84 0.005 0
31.92 0.005 0
0 0.01 0
0.08 0.01 0
0.16 0.01 0
0.24 0.01 0
0.32 0.01 0
0.4 0.01 0
0.48 0.01 0
0.56 0.01 0
0.64 0.01 0
0.72 0.01 0
0.8 0.01 0
0.88 0.01 0
0.96 0.01 0
1.04 0.01 0
1.12 0.01 0
1.2 0.01 0
1.28 0.01 0
1.36 0.01 0
1.44 0.01 0
1.52 0.01 0
1.6 0.01 0
1.68 0.01 0
1.76 0.01 0
1.84 0.01 0
1.92 0.01 0
2 0.01 0
2.08 0.01 0
2.16 0.01 0
2.24 0.01 0
2.32 0.01 0
2.4 0.01 0
2.48 0.01 0
2.56 0.01 0
2.64 0.01 0
2.72 0.01 0
2.8 0.01 0
2.88 0.01 0
2.96 0.01 0
3.04 0.01 0
3.12 0.01 0
3.2 0.01 0
3.28 0.01 0
3.36 0.01 0
3.44 0.01 0
3.52 0.01 0
3.6 0.01 0
3.68 0.01 0
3.76 0.01 0
3.84 0.01 0
3.92 0.01 0
4 0.01 0
4.08 0.01 0
4.16 0.01 0
4.24 0.01 0
4.32 0.01 0
4.4 0.01 0
4.48 0.01 0
4.56 0.01 0
4.64 0.01 0
4.72 0.01 0
4.8 0.01 0
4.88 0.01 0
4.96 0.01 0
5.04 0.01 0
5.12 0.01 0
[...]
POINT_DATA 80000

SCALARS p float 1
LOOKUP_TABLE default
1
56.5635
56.2618
56.2206
56.2006
56.1861
56.1741
56.1634
56.1534
56.1439
56.1347
56.1259
56.1173
56.1089
56.1007
56.0926
56.0848
56.0771
56.0696
56.0622
56.055
56.0479
56.041
56.0341
56.0274
56.0208
56.0143
56.0078
56.0015
55.9953
55.9891
55.9831
55.9771
55.9712
55.9654
55.9596
55.9539
55.9482
55.9427
55.9371
55.9317
55.9263
55.9209
55.9156
55.9104
55.9051
55.9
55.8949
55.8898
55.8847
55.8797
55.8748
55.8699
55.865
55.8601
55.8553
55.8505
55.8458
55.8411
55.8364
55.8317
55.8271
55.8225
55.8179
55.8134
55.8089
55.8044
55.7999
55.7955
55.7911
55.7867
55.7823
55.7779
55.7736
55.7693
55.765
55.7608
55.7565
55.7523
55.7481
55.7439
55.7397
55.7356
55.7314
55.7273
55.7232
55.7192
55.7151
55.711
55.707
55.703
55.699
55.695
55.691
55.6871
55.6831
55.6792
55.6753
55.6714
55.6675
55.6636
55.6597
55.6559
55.652
55.6482
55.6444
55.6406
55.6368
55.6331
55.6293
55.6256
55.6218
55.6181
55.6144
55.6107
55.607
55.6034
55.5997
55.5961
55.5924
55.5888
55.5852
55.5816
55.578
55.5744
55.5709
55.5673
55.5638
55.5602
55.5567
55.5532
55.5496
55.5461
55.5426
55.5391
55.5357
55.5322
55.5287
55.5252
55.5218
55.5183
55.5149
55.5114
55.508
55.5046
55.5011
55.4977
55.4943
55.4909
55.4875
55.484
55.4806
55.4772
55.4738
55.4704
55.467
55.4636
55.4602
55.4568
55.4535
55.4501
55.4467
55.4433
55.4399
55.4365
55.4331
55.4297
55.4263
55.423
55.4196
55.4162
55.4128
55.4094
55.406
55.4026
55.3993
55.3959
55.3925
55.3891
55.3857
55.3823
55.3789
55.3756
55.3722
55.3688
55.3654
55.362
55.3586
55.3552
55.3519
55.3485
55.3451
55.3417
55.3383
55.3349
55.3315
55.3282
55.3248
55.3214
55.318
55.3146
55.3112
55.3078
55.3045
55.3011
55.2977
55.2943
55.2909
55.2875
55.2841
55.2807
55.2774
55.274
55.2706
55.2672
55.2638
55.2604
55.257
55.2537
55.2503
55.2469
55.2435
55.2401
55.2367
55.2333
55.2299
55.2266
55.2232
55.2198
55.2164
55.213
55.2096
55.2062
55.2028
55.1995
55.1961
55.1927
55.1893
55.1859
55.1825
55.1791
55.1757
55.1724
55.169
55.1656
55.1622
55.1588
55.1554
55.152
55.1486
55.1453
55.1419
55.1385
55.1351
55.1317
55.1283
55.1249
55.1215
55.1182
55.1148
55.1114
55.108
55.1046
55.1012
55.0978
55.0944
55.0911
55.0877
55.0843
55.0809
55.0775
55.0741
55.0707
55.0673
55.0639
55.0606
55.0572
55.0538
55.0504
55.047
55.0436
55.0402
55.0368
55.0335
55.0301
55.0267
55.0233
55.0199
55.0165
55.0131
55.0097
55.0063
55.003
54.9996
54.9962
54.9928
54.9894
54.986
54.9826
54.9792
54.9758
54.9725
54.9691
54.9657
54.9623
54.9589
54.9555
54.9521
54.9487
54.9453
54.9419
54.9386
54.9352
54.9318
54.9284
54.925
54.9216
54.9182
54.9148
54.9114
54.9081
54.9047
54.9013
54.8979
54.8945
54.8911
54.8877
54.8843
54.8809
54.8775
54.8742
54.8708
54.8674
54.864
54.8606
54.8572
54.8538
54.8504
54.847
54.8436
54.8402
54.8369
54.8335
54.8301
54.8267
54.8233
54.8199
54.8165
54.8131
54.8097
54.8063
54.803
54.7996
54.7962
54.7928
54.7894
54.786
54.7826
54.7792
54.7758
54.7724
54.769
54.7657
54.7623
54.7589
54.7555
54.7521
54.7487
54.7453
54.7419
54.7385
54.7351
54.7317
54.7283
54.725
54.7216
54.7182
54.7148
54.7114
54.708
54.7046
54.7012
54.6978
54.6944
54.691
54.6876
54.6843
54.6809
54.6775
54.6741
54.6707
54.6673
54.6639
54.6605
54.6571
54.6537
54.6503
54.6469
54.6436
0.5
56.5635
56.5635
56.2618
56.2206
56.2006
56.1861
56.1741
56.1634
56.1534
56.1439
56.1347
56.1259
56.1173
56.1089
56.1007
56.0926
56.0848
56.0771
56.0696
56.0622
56.055
56.0479
56.041
56.0341
56.0274
56.0208
56.0143
56.0078
56.0015
55.9953
55.9891
55.9831
55.9771
55.9712
55.9654
55.9596
55.9539
55.9482
55.9427
55.9371
55.9317
55.9263
55.9209
55.9156
55.9104
55.9051
55.9
55.8949
55.8898
55.8847
55.8797
55.8748
55.8699
55.865
55.8601
55.8553
55.8505
55.8458
55.8411
55.8364
55.8317
55.8271
55.8225
55.8179
55.8134
55.8089
55.8044
55.7999
55.7955
55.7911
55.7867
55.7823
55.7779
55.7736
55.7693
55.765
55.7608
55.7565
55.7523
55.7481
55.7439
55.7397
55.7356
55.7314
55.7273
55.7232
55.7192
55.7151
55.711
55.707
55.703
55.699
55.695
55.691
55.6871
55.6831
55.6792
55.6753
55.6714
55.6675
55.6636
55.6597
55.6559
55.652
55.6482
55.6444
55.6406
55.6368
55.6331
55.6293
55.6256
55.6218
55.6181
55.6144
55.6107
55.607
55.6034
55.5997
55.5961
55.5924
55.5888
55.5852
55.5816
55.578
55.5744
55.5709
55.5673
55.5638
55.5602
55.5567
55.5532
55.5496
55.5461
55.5426
55.5391
55.5357
55.5322
55.5287
55.5252
55.5218
55.5183
55.5149
55.5114
55.508
55.5046
55.5011
55.4977
55.4943
55.4909
55.4875
55.484
55.4806
55.4772
55.4738
55.4704
55.467
55.4636
55.4602
55.4568
55.4535
55.4501
55.4467
55.4433
55.4399
55.4365
55.4331
55.4297
55.4263
55.423
55.4196
55.4162
55.4128
55.4094
55.406
55.4026
55.3993
55.3959
55.3925
55.3891
55.3857
55.3823
55.3789
55.3756
55.3722
55.3688
55.3654
55.362
55.3586
55.3552
55.3519
55.3485
55.3451
55.3417
55.3383
55.3349
55.3315
55.3282
55.3248
55.3214
55.318
55.3146
55.3112
55.3078
55.3045
55.3011
55.2977
55.2943
55.2909
55.2875
55.2841
55.2807
55.2774
55.274
55.2706
55.2672
55.2638
55.2604
55.257
55.2537
55.2503
55.2469
55.2435
55.2401
55.2367
55.2333
55.2299
55.2266
55.2232
55.2198
55.2164
55.213
55.2096
55.2062
55.2028
55.1995
55.1961
55.1927
55.1893
55.1859
55.1825
55.1791
55.1757
55.1724
55.169
55.1656
55.1622
55.1588
55.1554
55.152
55.1486
55.1453
55.1419
55.1385
55.1351
55.1317
55.1283
55.1249
55.1215
55.1182
55.1148
55.1114
55.108
55.1046
55.1012
55.0978
55.0944
55.0911
55.0877
55.0843
55.0809
55.0775
55.0741
55.0707
55.0673
55.0639
55.0606
55.0572
55.0538
55.0504
55.047
55.0436
55.0402
55.0368
55.0335
55.0301
55.0267
55.0233
55.0199
55.0165
55.0131
55.0097
55.0063
55.003
54.9996
54.9962
54.9928
54.9894
54.986
54.9826
54.9792
54.9758
54.9725
54.9691
54.9657
54.9623
54.9589
54.9555
54.9521
54.9487
54.9453
54.9419
54.9386
54.9352
54.9318
54.9284
54.925
54.9216
54.9182
54.9148
54.9114
54.9081
54.9047
54.9013
54.8979
54.8945
54.8911
54.8877
54.8843
54.8809
54.8775
54.8742
54.8708
54.8674
54.864
54.8606
54.8572
54.8538
54.8504
54.847
54.8436
54.8402
54.8369
54.8335
54.8301
54.8267
54.8233
54.8199
54.8165
54.8131
54.8097
54.8063
54.803
54.7996
54.7962
54.7928
54.7894
54.786
54.7826
54.7792
54.7758
54.7724
54.769
54.7657
54.7623
54.7589
54.7555
54.7521
54.7487
54.7453
54.7419
54.7385
54.7351
54.7317
54.7283
54.725
54.7216
54.7182
54.7148
54.7114
54.708
54.7046
54.7012
54.6978
54.6944
54.691
54.6876
54.6843
54.6809
54.6775
54.6741
54.6707
54.6673
54.6639
54.6605
54.6571
54.6537
54.6503
54.6469
54.6436
54.6436
56.549
56.549
56.2656
56.2219
56.2012
56.1865
56.1744
56.1636
56.1535
56.144
56.1348
56.126
56.1173
56.1089
56.1007
56.0927
56.0848
56.0772
56.0696
56.0623
56.055
56.0479
56.041
56.0341
56.0274
56.0208
56.0143
56.0079
56.0015
55.9953
55.9892
55.9831
55.9771
55.9712
55.9654
55.9596
55.9539
55.9483
55.9427
55.9372
55.9317
55.9263
55.9209
55.9156
55.9104
55.9051
55.9
55.8949
55.8898
55.8847
55.8797
55.8748
55.8699
55.865
55.8601
55.8553
55.8505
55.8458
55.8411
55.8364
55.8317
55.8271
55.8225
55.8179
55.8134
55.8089
55.8044
55.7999
55.7955
55.7911
55.7867
55.7823
55.7779
55.7736
55.7693
55.765
55.7608
55.7565
55.7523
55.7481
55.7439
55.7397
55.7356
55.7315
55.7273
55.7232
55.7192
55.7151
55.711
55.707
55.703
55.699
55.695
55.691
55.6871
55.6831
55.6792
55.6753
55.6714
55.6675
55.6636
55.6597
55.6559
55.652
55.6482
55.6444
55.6406
55.6368
55.6331
55.6293
55.6256
55.6218
55.6181
55.6144
55.6107
55.607
55.6034
55.5997
55.5961
55.5924
55.5888
55.5852
55.5816
55.578
55.5744
55.5709
55.5673
55.5638
55.5602
55.5567
55.5532
55.5496
55.5461
55.5426
55.5391
55.5357
55.5322
55.5287
55.5252
55.5218
55.5183
55.5149
55.5114
55.508
55.5046
55.5011
55.4977
55.4943
55.4909
55.4875
55.484
55.4806
55.4772
55.4738
55.4704
55.467
55.4636
55.4602
55.4568
55.4535
55.4501
55.4467
55.4433
55.4399
55.4365
55.4331
55.4297
55.4263
55.423
55.4196
55.4162
55.4128
55.4094
55.406
55.4026
55.3993
55.3959
55.3925
55.3891
55.3857
55.3823
55.3789
55.3756
55.3722
55.3688
55.3654
55.362
55.3586
55.3552
55.3519
55.3485
55.3451
55.3417
55.3383
55.3349
55.3315
55.3282
55.3248
55.3214
55.318
55.3146
55.3112
55.3078
55.3045
55.3011
55.2977
55.2943
55.2909
55.2875
55.2841
55.2807
55.2774
55.274
55.2706
55.2672
55.2638
55.2604
55.257
55.2537
55.2503
55.2469
55.2435
55.2401
55.2367
55.2333
55.2299
55.2266
55.2232
55.2198
55.2164
55.213
55.2096
55.2062
55.2028
55.1995
55.1961
55.1927
55.1893
55.1859
55.1825
55.1791
55.1757
55.1724
55.169
55.1656
55.1622
55.1588
55.1554
55.152
55.1486
55.1453
55.1419
55.1385
55.1351
55.1317
55.1283
55.1249
55.1215
55.1182
55.1148
55.1114
55.108
55.1046
55.1012
55.0978
55.0944
55.0911
55.0877
55.0843
55.0809
55.0775
55.0741
55.0707
55.0673
55.0639
55.0606
55.0572
55.0538
55.0504
55.047
55.0436
55.0402
55.0368
55.0335
55.0301
55.0267
55.0233
55.0199
55.0165
55.0131
55.0097
55.0063
55.003
54.9996
54.9962
54.9928
54.9894
54.986
54.9826
54.9792
54.9758
54.9725
54.9691
54.9657
54.9623
54.9589
54.9555
54.9521
54.9487
54.9453
54.9419
54.9386
54.9352
54.9318
54.9284
54.925
54.9216
54.9182
54.9148
54.9114
54.9081
54.9047
54.9013
54.8979
54.8945
54.8911
54.8877
54.8843
54.8809
54.8775
54.8742
54.8708
54.8674
54.864
54.8606
54.8572
54.8538
54.8504
54.847
54.8436
54.8402
54.8369
54.8335
54.8301
54.8267
54.8233
54.8199
54.8165
54.8131
54.8097
54.8063
54.803
54.7996
54.7962
54.7928
54.7894
54.786
54.7826
54.7792
54.7758
54.7724
54.769
54.7657
54.7623
54.7589
54.7555
54.7521
54.7487
54.7453
54.7419
54.7385
54.7351
54.7317
54.7283
54.725
54.7216
54.7182
54.7148
54.7114
54.708
54.7046
54.7012
54.6978
54.6944
54.691
54.6876
54.6843
54.6809
54.6775
54.6741
54.6707
54.6673
54.6639
54.6605
54.6571
54.6537
54.6503
54.6469
54.6436
54.6436
56.533
56.533
56.2688
56.2231
56.2018
56.1869
56.1747
56.1638
56.1537
56.1441
56.1349
56.126
56.1174
56.109
56.1008
56.0927
56.0849
56.0772
56.0697
56.0623
56.0551
56.048
56.041
56.0342
56.0274
56.0208
56.0143
56.0079
56.0016
55.9953
55.9892
55.9831
55.9771
55.9712
55.9654
55.9596
55.9539
55.9483
55.9427
55.9372
55.9317
55.9263
55.9209
55.9156
55.9104
55.9052
55.9
55.8949
55.8898
55.8848
55.8798
55.8748
55.8699
55.865
55.8601
55.8553
55.8505
55.8458
55.8411
55.8364
55.8317
55.8271
55.8225
55.8179
55.8134
55.8089
55.8044
55.7999
55.7955
55.7911
55.7867
55.7823
55.7779
55.7736
55.7693
55.765
55.7608
55.7565
55.7523
55.7481
55.7439
55.7397
55.7356
55.7315
55.7273
55.7232
55.7192
55.7151
55.711
55.707
55.703
55.699
55.695
55.691
55.6871
55.6831
55.6792
55.6753
55.6714
55.6675
55.6636
55.6597
55.6559
55.652
55.6482
55.6444
55.6406
55.6368
55.6331
55.6293
55.6256
55.6218
55.6181
55.6144
55.6107
55.607
55.6034
55.5997
55.5961
55.5924
55.5888
55.5852
55.5816
55.578
55.5744
55.5709
55.5673
55.5638
55.5602
55.5567
55.5532
55.5496
55.5461
55.5426
55.5391
55.5357
55.5322
55.5287
55.5252
55.5218
55.5183
55.5149
55.5114
55.508
55.5046
55.5011
55.4977
55.4943
55.4909
55.4875
55.484
55.4806
55.4772
55.4738
55.4704
55.467
55.4636
55.4602
55.4568
55.4535
55.4501
55.4467
55.4433
55.4399
55.4365
55.4331
55.4297
55.4263
55.423
55.4196
55.4162
55.4128
55.4094
55.406
55.4026
55.3993
55.3959
55.3925
55.3891
55.3857
55.3823
55.3789
55.3756
55.3722
55.3688
55.3654
55.362
55.3586
55.3552
55.3519
55.3485
55.3451
55.3417
55.3383
55.3349
55.3315
55.3282
55.3248
55.3214
55.318
55.3146
55.3112
55.3078
55.3045
55.3011
55.2977
55.2943
55.2909
55.2875
55.2841
55.2807
55.2774
55.274
55.2706
55.2672
55.2638
55.2604
55.257
55.2537
55.2503
55.2469
55.2435
55.2401
55.2367
55.2333
55.2299
55.2266
55.2232
55.2198
55.2164
55.213
55.2096
55.2062
55.2028
55.1995
55.1961
55.1927
55.1893
55.1859
55.1825
55.1791
55.1757
55.1724
55.169
55.1656
55.1622
55.1588
55.1554
55.152
55.1486
55.1453
55.1419
55.1385
55.1351
55.1317
55.1283
55.1249
55.1215
55.1182
55.1148
55.1114
55.108
55.1046
55.1012
55.0978
55.0944
55.0911
55.0877
55.0843
55.0809
55.0775
55.0741
55.0707
55.0673
55.0639
55.0606
55.0572
55.0538
55.0504
55.047
55.0436
55.0402
55.0368
55.0335
55.0301
55.0267
55.0233
55.0199
55.0165
55.0131
55.0097
55.0063
55.003
54.9996
54.9962
54.9928
54.9894
54.986
54.9826
54.9792
54.9758
54.9725
54.9691
54.9657
54.9623
54.9589
54.9555
54.9521
54.9487
54.9453
54.9419
54.9386
54.9352
54.9318
54.9284
54.925
54.9216
54.9182
54.9148
54.9114
54.9081
54.9047
54.9013
54.8979
54.8945
54.8911
54.8877
54.8843
54.8809
54.8775
54.8742
54.8708
54.8674
54.864
54.8606
54.8572
54.8538
54.8504
54.847
54.8436
54.8402
54.8369
54.8335
54.8301
54.8267
54.8233
54.8199
54.8165
54.8131
54.8097
54.8063
54.803
54.7996
54.7962
54.7928
54.7894
54.786
54.7826
54.7792
54.7758
54.7724
54.769
54.7657
54.7623
54.7589
54.7555
54.7521
54.7487
54.7453
54.7419
54.7385
54.7351
54.7317
54.7283
54.725
54.7216
54.7182
54.7148
54.7114
54.708
54.7046
54.7012
54.6978
54.6944
54.691
54.6876
54.6843
54.6809
54.6775
54.6741
54.6707
54.6673
54.6639
54.6605
54.6571
54.6537
54.6503
54.6469
54.6436
54.6436
56.5171
56.5171
56.2717
56.2242
56.2024
56.1873
56.1749
56.164
56.1539
56.1443
56.135
56.1261
56.1175
56.109
56.1008
56.0928
56.0849
56.0772
56.0697
56.0623
56.0551
56.048
56.041
56.0342
56.0274
56.0208
56.0143
56.0079
56.0016
55.9953
55.9892
55.9831
55.9771
55.9712
55.9654
55.9596
55.9539
55.9483
55.9427
55.9372
55.9317
55.9263
55.9209
55.9156
55.9104
55.9052
55.9
55.8949
55.8898
55.8848
55.8798
55.8748
55.8699
55.865
55.8601
55.8553
55.8505
55.8458
55.8411
55.8364
55.8317
55.8271
55.8225
55.8179
55.8134
55.8089
55.8044
55.7999
55.7955
55.7911
55.7867
55.7823
55.778
55.7736
55.7693
55.765
55.7608
55.7565
55.7523
55.7481
55.7439
55.7397
55.7356
55.7315
55.7273
55.7232
55.7192
55.7151
55.711
55.707
55.703
55.699
55.695
55.691
55.6871
55.6831
55.6792
55.6753
55.6714
55.6675
55.6636
55.6597
55.6559
55.652
55.6482
55.6444
55.6406
55.6368
55.6331
55.6293
55.6256
55.6218
55.6181
55.6144
55.6107
55.607
55.6034
55.5997
55.5961
55.5924
55.5888
55.5852
55.5816
55.578
55.5744
55.5709
55.5673
55.5638
55.5602
55.5567
55.5532
55.5496
55.5461
55.5426
55.5391
55.5357
55.5322
55.5287
55.5252
55.5218
55.5183
55.5149
55.5114
55.508
55.5046
55.5011
55.4977
55.4943
55.4909
55.4875
55.484
55.4806
55.4772
55.4738
55.4704
55.467
55.4636
55.4602
55.4568
55.4535
55.4501
55.4467
55.4433
55.4399
55.4365
55.4331
55.4297
55.4263
55.423
55.4196
55.4162
55.4128
55.4094
55.406
55.4026
55.3993
55.3959
55.3925
55.3891
55.3857
55.3823
55.3789
55.3756
55.3722
55.3688
55.3654
55.362
55.3586
55.3552
55.3519
55.3485
55.3451
55.3417
55.3383
55.3349
55.3315
55.3282
55.3248
55.3214
55.318
55.3146
55.3112
55.3078
55.3045
55.3011
55.2977
55.2943
55.2909
55.2875
55.2841
55.2807
55.2774
55.274
55.2706
55.2672
55.2638
55.2604
55.257
55.2537
55.2503
55.2469
55.2435
55.2401
55.2367
55.2333
55.2299
55.2266
55.2232
55.2198
55.2164
55.213
55.2096
55.2062
55.2028
55.1995
55.1961
55.1927
55.1893
55.1859
55.1825
55.1791
55.1757
55.1724
55.169
55.1656
55.1622
55.1588
55.1554
55.152
55.1486
55.1453
55.1419
55.1385
55.1351
55.1317
55.1283
55.1249
55.1215
55.1182
55.1148
55.1114
55.108
55.1046
55.1012
55.0978
55.0944
55.0911
55.0877
55.0843
55.0809
55.0775
55.0741
55.0707
55.0673
55.0639
55.0606
55.0572
55.0538
55.0504
55.047
55.0436
55.0402
55.0368
55.0335
55.0301
55.0267
55.0233
55.0199
55.0165
55.0131
55.0097
55.0063
55.003
54.9996
54.9962
54.9928
54.9894
54.986
54.9826
54.9792
54.9758
54.9725
54.9691
54.9657
54.9623
54.9589
54.9555
54.9521
54.9487
54.9453
54.9419
54.9386
54.9352
54.9318
54.9284
54.925
54.9216
54.9182
54.9148
54.9114
54.9081
54.9047
54.9013
54.8979
54.8945
54.8911
54.8877
54.8843
54.8809
54.8775
54.8742
54.8708
54.8674
54.864
54.8606
54.8572
54.8538
54.8504
54.847
54.8436
54.8402
54.8369
54.8335
54.8301
54.8267
54.8233
54.8199
54.8165
54.8131
54.8097
54.8063
54.803
54.7996
54.7962
54.7928
54.7894
54.786
54.7826
54.7792
54.7758
54.7724
54.769
54.7657
54.7623
54.7589
54.7555
54.7521
54.7487
54.7453
54.7419
54.7385
54.7351
54.7317
54.7283
54.725
54.7216
54.7182
54.7148
54.7114
54.708
54.7046
54.7012
54.6978
54.6944
54.691
54.6876
54.6843
54.6809
54.6775
54.6741
54.6707
54.6673
54.6639
54.6605
54.6571
54.6537
54.6503
54.6469
54.6436
54.6436
56.502
56.502
56.2744
56.2254
56.203
56.1877
56.1752
56.1642
56.154
56.1444
56.1351
56.1262
56.1175
56.1091
56.1009
56.0928
56.085
56.0773
56.0697
56.0624
56.0551
56.048
56.0411
56.0342
56.0275
56.0208
56.0143
56.0079
56.0016
55.9954
55.9892
55.9831
55.9772
55.9712
55.9654
55.9596
55.9539
55.9483
55.9427
55.9372
55.9317
55.9263
55.921
55.9156
55.9104
55.9052
55.9
55.8949
55.8898
55.8848
55.8798
55.8748
55.8699
55.865
55.8601
55.8553
55.8506
55.8458
55.8411
55.8364
55.8317
55.8271
55.8225
55.8179
55.8134
55.8089
55.8044
55.7999
55.7955
55.7911
55.7867
55.7823
55.778
55.7736
55.7693
55.765
55.7608
55.7565
55.7523
55.7481
55.7439
55.7397
55.7356
55.7315
55.7273
55.7232
55.7192
55.7151
55.711
55.707
55.703
55.699
55.695
55.691
55.6871
55.6831
55.6792
55.6753
55.6714
55.6675
55.6636
55.6597
55.6559
55.652
55.6482
55.6444
55.6406
55.6368
55.6331
55.6293
55.6256
55.6218
55.6181
55.6144
55.6107
55.607
55.6034
55.5997
55.5961
55.5924
55.5888
55.5852
55.5816
55.578
55.5744
55.5709
55.5673
55.5638
55.5602
55.5567
55.5532
55.5496
55.5461
55.5426
55.5392
55.5357
55.5322
55.5287
55.5252
55.5218
55.5183
55.5149
55.5114
55.508
55.5046
55.5011
55.4977
55.4943
55.4909
55.4875
55.484
55.4806
55.4772
55.4738
55.4704
55.467
55.4636
55.4602
55.4568
55.4535
55.4501
55.4467
55.4433
55.4399
55.4365
55.4331
55.4297
55.4263
55.423
55.4196
55.4162
55.4128
55.4094
55.406
55.4026
55.3993
55.3959
55.3925
55.3891
55.3857
55.3823
55.3789
55.3756
55.3722
55.3688
55.3654
55.362
55.3586
55.3552
55.3519
55.3485
55.3451
55.3417
55.3383
55.3349
55.3315
55.3282
55.3248
55.3214
55.318
55.3146
55.3112
55.3078
55.3045
55.3011
55.2977
55.2943
55.2909
55.2875
55.2841
55.2807
55.2774
55.274
55.2706
55.2672
55.2638
55.2604
55.257
55.2537
55.2503
55.2469
55.2435
55.2401
55.2367
55.2333
55.2299
55.2266
55.2232
55.2198
55.2164
55.213
55.2096
55.2062
55.2028
55.1995
55.1961
55.1927
55.1893
55.1859
55.1825
55.1791
55.1757
55.1724
55.169
55.1656
55.1622
55.1588
55.1554
55.152
55.1486
55.1453
55.1419
55.1385
55.1351
55.1317
55.1283
55.1249
55.1215
55.1182
55.1148
55.1114
55.108
55.1046
55.1012
55.0978
55.0944
55.0911
55.0877
55.0843
55.0809
55.0775
55.0741
55.0707
55.0673
55.0639
55.0606
55.0572
55.0538
55.0504
55.047
55.0436
55.0402
55.0368
55.0335
55.0301
55.0267
55.0233
55.0199
55.0165
55.0131
55.0097
55.0063
55.003
54.9996
54.9962
54.9928
54.9894
54.986
54.9826
54.9792
54.9758
54.9725
54.9691
54.9657
54.9623
54.9589
54.9555
54.9521
54.9487
54.9453
54.9419
54.9386
54.9352
54.9318
54.9284
54.925
54.9216
54.9182
54.9148
54.9114
54.9081
54.9047
54.9013
54.8979
54.8945
54.8911
54.8877
54.8843
54.8809
54.8775
54.8742
54.8708
54.8674
54.864
54.8606
54.8572
54.8538
54.8504
54.847
54.8436
54.8402
54.8369
54.8335
54.8301
54.8267
54.8233
54.8199
54.8165
54.8131
54.8097
54.8063
54.803
54.7996
54.7962
54.7928
54.7894
54.786
54.7826
54.7792
54.7758
54.7724
54.769
54.7657
54.7623
54.7589
54.7555
54.7521
54.7487
54.7453
54.7419
54.7385
54.7351
54.7317
54.7283
54.725
54.7216
54.7182
54.7148
54.7114
54.708
54.7046
54.7012
54.6978
54.6944
54.691
54.6876
54.6843
54.6809
54.6775
54.6741
54.6707
54.6673
54.6639
54.6605
54.6571
54.6537
54.6503
54.6469
54.6436
54.6436
56.488
56.488
56.277
56.2265
56.2036
56.1881
56.1755
56.1644
56.1542
56.1445
56.1352
56.1263
56.1176
56.1092
56.1009
56.0929
56.085
56.0773
56.0698
56.0624
56.0552
56.048
56.0411
56.0342
56.0275
56.0209
56.0143
56.0079
56.0016
55.9954
55.9892
55.9832
55.9772
55.9713
55.9654
55.9596
55.9539
55.9483
55.9427
55.9372
55.9317
55.9263
55.921
55.9157
55.9104
55.9052
55.9
55.8949
55.8898
55.8848
55.8798
55.8748
55.8699
55.865
55.8602
55.8553
55.8506
55.8458
55.8411
55.8364
55.8317
55.8271
55.8225
55.8179
55.8134
55.8089
55.8044
55.7999
55.7955
55.7911
55.7867
55.7823
55.778
55.7736
55.7693
55.765
55.7608
55.7565
55.7523
55.7481
55.7439
55.7397
55.7356
55.7315
55.7273
55.7232
55.7192
55.7151
55.711
55.707
55.703
55.699
55.695
55.691
55.6871
55.6831
55.6792
55.6753
55.6714
55.6675
55.6636
55.6597
55.6559
55.6521
55.6482
55.6444
55.6406
55.6368
55.6331
55.6293
55.6256
55.6218
55.6181
55.6144
55.6107
55.607
55.6034
55.5997
55.5961
55.5924
55.5888
55.5852
55.5816
55.578
55.5744
55.5709
55.5673
55.5638
55.5602