# vtk DataFile Version 2.0
FlowField
ASCII
DATASET STRUCTURED_GRID
DIMENSIONS 400 1 200
POINTS 80000 float
0 0 0
0.08 0 0
0.16 0 0
0.24 0 0
0.32 0 0
0.4 0 0
0.48 0 0
0.56 0 0
0.64 0 0
0.72 0 0
0.8 0 0
0.88 0 0
0.96 0 0
1.04 0 0
1.12 0 0
1.2 0 0
1.28 0 0
1.36 0 0
1.44 0 0
1.52 0 0
1.6 0 0
1.68 0 0
1.76 0 0
1.84 0 0
1.92 0 0
2 0 0
2.08 0 0
2.16 0 0
2.24 0 0
2.32 0 0
2.4 0 0
2.48 0 0
2.56 0 0
2.64 0 0
2.72 0 0
2.8 0 0
2.88 0 0
2.96 0 0
3.04 0 0
3.12 0 0
3.2 0 0
3.28 0 0
3.36 0 0
3.44 0 0
3.52 0 0
3.6 0 0
3.68 0 0
3.76 0 0
3.84 0 0
3.92 0 0
4 0 0
4.08 0 0
4.16 0 0
4.24 0 0
4.32 0 0
4.4 0 0
4.48 0 0
4.56 0 0
4.64 0 0
4.72 0 0
4.8 0 0
4.88 0 0
4.96 0 0
5.04 0 0
5.12 0 0
5.2 0 0
5.28 0 0
5.36 0 0
5.44 0 0
5.52 0 0
5.6 0 0
5.68 0 0
5.76 0 0
5.84 0 0
5.92 0 0
6 0 0
6.08 0 0
6.16 0 0
6.24 0 0
6.32 0 0
6.4 0 0
6.48 0 0
6.56 0 0
6.64 0 0
6.72 0 0
6.8 0 0
6.88 0 0
6.96 0 0
7.04 0 0
7.12 0 0
7.2 0 0
7.28 0 0
7.36 0 0
7.44 0 0
7.52 0 0
7.6 0 0
7.68 0 0
7.76 0 0
7.84 0 0
7.92 0 0
8 0 0
8.08 0 0
8.16 0 0
8.24 0 0
8.32 0 0
8.4 0 0
8.48 0 0
8.56 0 0
8.64 0 0
8.72 0 0
8.8 0 0
8.88 0 0
8.96 0 0
9.04 0 0
9.12 0 0
9.2 0 0
9.28 0 0
9.36 0 0
9.44 0 0
9.52 0 0
9.6 0 0
9.68 0 0
9.76 0 0
9.84 0 0
9.92 0 0
10 0 0
10.08 0 0
10.16 0 0
10.24 0 0
10.32 0 0
10.4 0 0
10.48 0 0
10.56 0 0
10.64 0 0
10.72 0 0
10.8 0 0
10.88 0 0
10.96 0 0
11.04 0 0
11.12 0 0
11.2 0 0
11.28 0 0
11.36 0 0
11.44 0 0
11.52 0 0
11.6 0 0
11.68 0 0
11.76 0 0
11.84 0 0
11.92 0 0
12 0 0
12.08 0 0
12.16 0 0
12.24 0 0
12.32 0 0
12.4 0 0
12.48 0 0
12.56 0 0
12.64 0 0
12.72 0 0
12.8 0 0
12.88 0 0
12.96 0 0
13.04 0 0
13.12 0 0
13.2 0 0
13.28 0 0
13.36 0 0
13.44 0 0
13.52 0 0
13.6 0 0
13.68 0 0
13.76 0 0
13.84 0 0
13.92 0 0
14 0 0
14.08 0 0
14.16 0 0
14.24 0 0
14.32 0 0
14.4 0 0
14.48 0 0
14.56 0 0
14.64 0 0
14.72 0 0
14.8 0 0
14.88 0 0
14.96 0 0
15.04 0 0
15.12 0 0
15.2 0 0
15.28 0 0
15.36 0 0
15.44 0 0
15.52 0 0
15.6 0 0
15.68 0 0
15.76 0 0
15.84 0 0
15.92 0 0
16 0 0
16.08 0 0
16.16 0 0
16.24 0 0
16.32 0 0
16.4 0 0
16.48 0 0
16.56 0 0
16.64 0 0
16.72 0 0
16.8 0 0
16.88 0 0
16.96 0 0
17.04 0 0
17.12 0 0
17.2 0 0
17.28 0 0
17.36 0 0
17.44 0 0
17.52 0 0
17.6 0 0
17.68 0 0
17.76 0 0
17.84 0 0
17.92 0 0
18 0 0
18.08 0 0
18.16 0 0
18.24 0 0
18.32 0 0
18.4 0 0
18.48 0 0
18.56 0 0
18.64 0 0
18.72 0 0
18.8 0 0
18.88 0 0
18.96 0 0
19.04 0 0
19.12 0 0
19.2 0 0
19.28 0 0
19.36 0 0
19.44 0 0
19.52 0 0
19.6 0 0
19.68 0 0
19.76 0 0
19.84 0 0
19.92 0 0
20 0 0
20.08 0 0
20.16 0 0
20.24 0 0
20.32 0 0
20.4 0 0
20.48 0 0
20.56 0 0
20.64 0 0
20.72 0 0
20.8 0 0
20.88 0 0
20.96 0 0
21.04 0 0
21.12 0 0
21.2 0 0
21.28 0 0
21.36 0 0
21.44 0 0
21.52 0 0
21.6 0 0
21.68 0 0
21.76 0 0
21.84 0 0
21.92 0 0
22 0 0
22.08 0 0
22.16 0 0
22.24 0 0
22.32 0 0
22.4 0 0
22.48 0 0
22.56 0 0
22.64 0 0
22.72 0 0
22.8 0 0
22.88 0 0
22.96 0 0
23.04 0 0
23.12 0 0
23.2 0 0
23.28 0 0
23.36 0 0
23.44 0 0
23.52 0 0
23.6 0 0
23.68 0 0
23.76 0 0
23.84 0 0
23.92 0 0
24 0 0
24.08 0 0
24.16 0 0
24.24 0 0
24.32 0 0
24.4 0 0
24.48 0 0
24.56 0 0
24.64 0 0
24.72 0 0
24.8 0 0
24.88 0 0
24.96 0 0
25.04 0 0
25.12 0 0
25.2 0 0
25.28 0 0
25.36 0 0
25.44 0 0
25.52 0 0
25.6 0 0
25.68 0 0
25.76 0 0
25.84 0 0
25.92 0 0
26 0 0
26.08 0 0
26.16 0 0
26.24 0 0
26.32 0 0
26.4 0 0
26.48 0 0
26.56 0 0
26.64 0 0
26.72 0 0
26.8 0 0
26.88 0 0
26.96 0 0
27.04 0 0
27.12 0 0
27.2 0 0
27.28 0 0
27.36 0 0
27.44 0 0
27.52 0 0
27.6 0 0
27.68 0 0
27.76 0 0
27.84 0 0
27.92 0 0
28 0 0
28.08 0 0
28.16 0 0
28.24 0 0
28.32 0 0
28.4 0 0
28.48 0 0
28.56 0 0
28.64 0 0
28.72 0 0
28.8 0 0
28.88 0 0
28.96 0 0
29.04 0 0
29.12 0 0
29.2 0 0
29.28 0 0
29.36 0 0
29.44 0 0
29.52 0 0
29.6 0 0
29.68 0 0
29.76 0 0
29.84 0 0
29.92 0 0
30 0 0
30.08 0 0
30.16 0 0
30.24 0 0
30.32 0 0
30.4 0 0
30.48 0 0
30.56 0 0
30.64 0 0
30.72 0 0
30.8 0 0
30.88 0 0
30.96 0 0
31.04 0 0
31.12 0 0
31.2 0 0
31.28 0 0
31.36 0 0
31.44 0 0
31.52 0 0
31.6 0 0
31.68 0 0
31.76 0 0
31.84 0 0
31.92 0 0
0 0.005 0
0.08 0.005 0
0.16 0.005 0
0.24 0.005 0
0.32 0.005 0
0.4 0.005 0
0.48 0.005 0
0.56 0.005 0
0.64 0.005 0
0.72 0.005 0
0.8 0.005 0
0.88 0.005 0
0.96 0.005 0
1.04 0.005 0
1.12 0.005 0
1.2 0.005 0
1.28 0.005 0
1.36 0.005 0
1.44 0.005 0
1.52 0.005 0
1.6 0.005 0
1.68 0.005 0
1.76 0.005 0
1.84 0.005 0
1.92 0.005 0
2 0.005 0
2.08 0.005 0
2.16 0.005 0
2.24 0.005 0
2.32 0.005 0
2.4 0.005 0
2.48 0.005 0
2.56 0.005 0
2.64 0.005 0
2.72 0.005 0
2.8 0.005 0
2.88 0.005 0
2.96 0.005 0
3.04 0.005 0
3.12 0.005 0
3.2 0.005 0
3.28 0.005 0
3.36 0.005 0
3.44 0.005 0
3.52 0.005 0
3.6 0.005 0
3.68 0.005 0
3.76 0.005 0
3.84 0.005 0
3.92 0.005 0
4 0.005 0
4.08 0.005 0
4.16 0.005 0
4.24 0.005 0
4.32 0.005 0
4.4 0.005 0
4.48 0.005 0
4.56 0.005 0
4.64 0.005 0
4.72 0.005 0
4.8 0.005 0
4.88 0.005 0
4.96 0.005 0
5.04 0.005 0
5.12 0.005 0
5.2 0.005 0
5.28 0.005 0
5.36 0.005 0
5.44 0.005 0
5.52 0.005 0
5.6 0.005 0
5.68 0.005 0
5.76 0.005 0
5.84 0.005 0
5.92 0.005 0
6 0.005 0
6.08 0.005 0
6.16 0.005 0
6.24 0.005 0
6.32 0.005 0
6.4 0.005 0
6.48 0.005 0
6.56 0.005 0
6.64 0.005 0
6.72 0.005 0
6.8 0.005 0
6.88 0.005 0
6.96 0.005 0
7.04 0.005 0
7.12 0.005 0
7.2 0.005 0
7.28 0.005 0
7.36 0.005 0
7.44 0.005 0
7.52 0.005 0
7.6 0.005 0
7.68 0.005 0
7.76 0.005 0
7.84 0.005 0
7.92 0.005 0
8 0.005 0
8.08 0.005 0
8.16 0.005 0
8.24 0.005 0
8.32 0.005 0
8.4 0.005 0
8.48 0.005 0
8.56 0.005 0
8.64 0.005 0
8.72 0.005 0
8.8 0.005 0
8.88 0.005 0
8.96 0.005 0
9.04 0.005 0
9.12 0.005 0
9.2 0.005 0
9.28 0.005 0
9.36 0.005 0
9.44 0.005 0
9.52 0.005 0
9.6 0.005 0
9.68 0.005 0
9.76 0.005 0
9.84 0.005 0
9.92 0.005 0
10 0.005 0
10.08 0.005 0
10.16 0.005 0
10.24 0.005 0
10.32 0.005 0
10.4 0.005 0
10.48 0.005 0
10.56 0.005 0
10.64 0.005 0
10.72 0.005 0
10.8 0.005 0
10.88 0.005 0
10.96 0.005 0
11.04 0.005 0
11.12 0.005 0
11.2 0.005 0
11.28 0.005 0
11.36 0.005 0
11.44 0.005 0
11.52 0.005 0
11.6 0.005 0
11.68 0.005 0
11.76 0.005 0
11.84 0.005 0
11.92 0.005 0
12 0.005 0
12.08 0.005 0
12.16 0.005 0
12.24 0.005 0
12.32 0.005 0
12.4 0.005 0
12.48 0.005 0
12.56 0.005 0
12.64 0.005 0
12.72 0.005 0
12.8 0.005 0
12.88 0.005 0
12.96 0.005 0
13.04 0.005 0
13.12 0.005 0
13.2 0.005 0
13.28 0.005 0
13.36 0.005 0
13.44 0.005 0
13.52 0.005 0
13.6 0.005 0
13.68 0.005 0
13.76 0.005 0
13.84 0.005 0
13.92 0.005 0
14 0.005 0
14.08 0.005 0
14.16 0.005 0
14.24 0.005 0
14.32 0.005 0
14.4 0.005 0
14.48 0.005 0
14.56 0.005 0
14.64 0.005 0
14.72 0.005 0
14.8 0.005 0
14.88 0.005 0
14.96 0.005 0
15.04 0.005 0
15.12 0.005 0
15.2 0.005 0
15.28 0.005 0
15.36 0.005 0
15.44 0.005 0
15.52 0.005 0
15.6 0.005 0
15.68 0.005 0
15.76 0.005 0
15.84 0.005 0
15.92 0.005 0
16 0.005 0
16.08 0.005 0
16.16 0.005 0
16.24 0.005 0
16.32 0.005 0
16.4 0.005 0
16.48 0.005 0
16.56 0.005 0
16.64 0.005 0
16.72 0.005 0
16.8 0.005 0
16.88 0.005 0
16.96 0.005 0
17.04 0.005 0
17.12 0.005 0
17.2 0.005 0
17.28 0.005 0
17.36 0.005 0
17.44 0.005 0
17.52 0.005 0
17.6 0.005 0
17.68 0.005 0
17.76 0.005 0
17.84 0.005 0
17.92 0.005 0
18 0.005 0
18.08 0.005 0
18.16 0.005 0
18.24 0.005 0
18.32 0.005 0
18.4 0.005 0
18.48 0.005 0
18.56 0.005 0
18.64 0.005 0
18.72 0.005 0
18.8 0.005 0
18.88 0.005 0
18.96 0.005 0
19.04 0.005 0
19.12 0.005 0
19.2 0.005 0
19.28 0.005 0
19.36 0.005 0
19.44 0.005 0
19.52 0.005 0
19.6 0.005 0
19.68 0.005 0
19.76 0.005 0
19.84 0.005 0
19.92 0.005 0
20 0.005 0
20.08 0.005 0
20.16 0.005 0
20.24 0.005 0
20.32 0.005 0
20.4 0.005 0
20.48 0.005 0
20.56 0.005 0
20.64 0.005 0
20.72 0.005 0
20.8 0.005 0
20.88 0.005 0
20.96 0.005 0
21.04 0.005 0
21.12 0.005 0
21.2 0.005 0
21.28 0.005 0
21.36 0.005 0
21.44 0.005 0
21.52 0.005 0
21.6 0.005 0
21.68 0.005 0
21.76 0.005 0
21.84 0.005 0
21.92 0.005 0
22 0.005 0
22.08 0.005 0
22.16 0.005 0
22.24 0.005 0
22.32 0.005 0
22.4 0.005 0
22.48 0.005 0
22.56 0.005 0
22.64 0.005 0
22.72 0.005 0
22.8 0.005 0
22.88 0.005 0
22.96 0.005 0
23.04 0.005 0
23.12 0.005 0
23.2 0.005 0
23.28 0.005 0
23.36 0.005 0
23.44 0.005 0
23.52 0.005 0
23.6 0.005 0
23.68 0.005 0
23.76 0.005 0
23.84 0.005 0
23.92 0.005 0
24 0.005 0
24.08 0.005 0
24.16 0.005 0
24.24 0.005 0
24.32 0.005 0
24.4 0.005 0
24.48 0.005 0
24.56 0.005 0
24.64 0.005 0
24.72 0.005 0
24.8 0.005 0
24.88 0.005 0
24.96 0.005 0
25.04 0.005 0
25.12 0.005 0
25.2 0.005 0
25.28 0.005 0
25.36 0.005 0
25.44 0.005 0
25.52 0.005 0
25.6 0.005 0
25.68 0.005 0
25.76 0.005 0
25.84 0.005 0
25.92 0.005 0
26 0.005 0
26.08 0.005 0
26.16 0.005 0
26.24 0.005 0
26.32 0.005 0
26.4 0.005 0
26.48 0.005 0
26.56 0.005 0
26.64 0.005 0
26.72 0.005 0
26.8 0.005 0
26.88 0.005 0
26.96 0.005 0
27.04 0.005 0
27.12 0.005 0
27.2 0.005 0
27.28 0.005 0
27.36 0.005 0
27.44 0.005 0
27.52 0.005 0
27.6 0.005 0
27.68 0.005 0
27.76 0.005 0
27.84 0.005 0
27.92 0.005 0
28 0.005 0
28.08 0.005 0
28.16 0.005 0
28.24 0.005 0
28.32 0.005 0
28.4 0.005 0
28.48 0.005 0
28.56 0.005 0
28.64 0.005 0
28.72 0.005 0
28.8 0.005 0
28.88 0.005 0
28.96 0.005 0
29.04 0.005 0
29.12 0.005 0
29.2 0.005 0
29.28 0.005 0
29.36 0.005 0
29.44 0.005 0
29.52 0.005 0
29.6 0.005 0
29.68 0.005 0
29.76 0.005 0
29.84 0.005 0
29.92 0.005 0
30 0.005 0
30.08 0.005 0
30.16 0.005 0
30.24 0.005 0
30.32 0.005 0
30.4 0.005 0
30.48 0.005 0
30.56 0.005 0
30.64 0.005 0
30.72 0.005 0
30.8 0.005 0
30.88 0.005 0
30.96 0.005 0
31.04 0.005 0
31.12 0.005 0
31.2 0.005 0
31.28 0.005 0
31.36 0.005 0
31.44 0.005 0
31.52 0.005 0
31.6 0.005 0
31.68 0.005 0
31.76 0.005 0
31.84 0.005 0
31.92 0.005 0
0 0.01 0
0.08 0.01 0
0.16 0.01 0
0.24 0.01 0
0.32 0.01 0
0.4 0.01 0
0.48 0.01 0
0.56 0.01 0
0.64 0.01 0
0.72 0.01 0
0.8 0.01 0
0.88 0.01 0
0.96 0.01 0
1.04 0.01 0
1.12 0.01 0
1.2 0.01 0
1.28 0.01 0
1.36 0.01 0
1.44 0.01 0
1.52 0.01 0
1.6 0.01 0
1.68 0.01 0
1.76 0.01 0
1.84 0.01 0
1.92 0.01 0
2 0.01 0
2.08 0.01 0
2.16 0.01 0
2.24 0.01 0
2.32 0.01 0
2.4 0.01 0
2.48 0.01 0
2.56 0.01 0
2.64 0.01 0
2.72 0.01 0
2.8 0.01 0
2.88 0.01 0
2.96 0.01 0
3.04 0.01 0
3.12 0.01 0
3.2 0.01 0
3.28 0.01 0
3.36 0.01 0
3.44 0.01 0
3.52 0.01 0
3.6 0.01 0
3.68 0.01 0
3.76 0.01 0
3.84 0.01 0
3.92 0.01 0
4 0.01 0
4.08 0.01 0
4.16 0.01 0
4.24 0.01 0
4.32 0.01 0
4.4 0.01 0
4.48 0.01 0
4.56 0.01 0
4.64 0.01 0
4.72 0.01 0
4.8 0.01 0
4.88 0.01 0
4.96 0.01 0
5.04 0.01 0
5.12 0.01 0
[...]
POINT_DATA 80000

SCALARS u float 1
LOOKUP_TABLE default
0
-0.131663
-0.068269
-0.0522958
-0.0444196
-0.0395765
-0.0362593
-0.0338323
-0.0319723
-0.0304956
-0.0292895
-0.0282812
-0.0274216
-0.026677
-0.026023
-0.0254421
-0.0249212
-0.0244502
-0.0240216
-0.0236291
-0.0232681
-0.0229343
-0.0226247
-0.0223365
-0.0220674
-0.0218154
-0.0215789
-0.0213563
-0.0211464
-0.0209482
-0.0207605
-0.0205826
-0.0204137
-0.020253
-0.0201
-0.019954
-0.0198147
-0.0196815
-0.019554
-0.0194319
-0.0193148
-0.0192024
-0.0190944
-0.0189905
-0.0188906
-0.0187943
-0.0187015
-0.018612
-0.0185256
-0.0184422
-0.0183616
-0.0182836
-0.0182081
-0.0181351
-0.0180644
-0.0179958
-0.0179293
-0.0178649
-0.0178023
-0.0177415
-0.0176825
-0.0176252
-0.0175695
-0.0175153
-0.0174626
-0.0174114
-0.0173615
-0.0173129
-0.0172656
-0.0172195
-0.0171746
-0.0171308
-0.0170881
-0.0170465
-0.017006
-0.0169664
-0.0169277
-0.01689
-0.0168532
-0.0168173
-0.0167822
-0.016748
-0.0167145
-0.0166818
-0.0166498
-0.0166186
-0.0165881
-0.0165583
-0.0165291
-0.0165006
-0.0164727
-0.0164454
-0.0164188
-0.0163927
-0.0163672
-0.0163422
-0.0163178
-0.0162939
-0.0162705
-0.0162476
-0.0162252
-0.0162033
-0.0161818
-0.0161608
-0.0161403
-0.0161202
-0.0161004
-0.0160811
-0.0160623
-0.0160438
-0.0160256
-0.0160079
-0.0159905
-0.0159735
-0.0159569
-0.0159405
-0.0159246
-0.0159089
-0.0158936
-0.0158785
-0.0158638
-0.0158494
-0.0158353
-0.0158215
-0.0158079
-0.0157947
-0.0157817
-0.0157689
-0.0157564
-0.0157442
-0.0157322
-0.0157205
-0.015709
-0.0156977
-0.0156867
-0.0156759
-0.0156653
-0.0156549
-0.0156448
-0.0156348
-0.015625
-0.0156155
-0.0156061
-0.0155969
-0.0155879
-0.0155791
-0.0155705
-0.015562
-0.0155537
-0.0155456
-0.0155376
-0.0155298
-0.0155222
-0.0155147
-0.0155073
-0.0155001
-0.0154931
-0.0154862
-0.0154794
-0.0154728
-0.0154663
-0.0154599
-0.0154537
-0.0154476
-0.0154416
-0.0154357
-0.01543
-0.0154243
-0.0154188
-0.0154134
-0.0154081
-0.0154029
-0.0153978
-0.0153928
-0.0153879
-0.0153831
-0.0153784
-0.0153738
-0.0153693
-0.0153649
-0.0153606
-0.0153563
-0.0153522
-0.0153481
-0.0153441
-0.0153402
-0.0153364
-0.0153327
-0.015329
-0.0153254
-0.0153219
-0.0153184
-0.0153151
-0.0153118
-0.0153086
-0.0153054
-0.0153023
-0.0152993
-0.0152964
-0.0152935
-0.0152907
-0.015288
-0.0152854
-0.0152828
-0.0152802
-0.0152778
-0.0152754
-0.0152731
-0.0152708
-0.0152686
-0.0152665
-0.0152644
-0.0152624
-0.0152605
-0.0152586
-0.0152568
-0.0152551
-0.0152534
-0.0152518
-0.0152502
-0.0152487
-0.0152472
-0.0152458
-0.0152445
-0.0152432
-0.015242
-0.0152408
-0.0152397
-0.0152386
-0.0152376
-0.0152367
-0.0152357
-0.0152349
-0.015234
-0.0152333
-0.0152325
-0.0152318
-0.0152312
-0.0152305
-0.01523
-0.0152294
-0.0152289
-0.0152284
-0.015228
-0.0152276
-0.0152272
-0.0152268
-0.0152265
-0.0152262
-0.0152259
-0.0152257
-0.0152254
-0.0152252
-0.015225
-0.0152249
-0.0152247
-0.0152246
-0.0152244
-0.0152243
-0.0152242
-0.0152241
-0.0152241
-0.015224
-0.0152239
-0.0152239
-0.0152239
-0.0152238
-0.0152238
-0.0152238
-0.0152238
-0.0152237
-0.0152237
-0.0152237
-0.0152237
-0.0152237
-0.0152237
-0.0152238
-0.0152238
-0.0152238
-0.0152238
-0.0152238
-0.0152238
-0.0152238
-0.0152238
-0.0152239
-0.0152239
-0.0152239
-0.0152239
-0.0152239
-0.015224
-0.015224
-0.015224
-0.015224
-0.015224
-0.0152241
-0.0152241
-0.0152241
-0.0152241
-0.0152241
-0.0152241
-0.0152242
-0.0152242
-0.0152242
-0.0152242
-0.0152242
-0.0152243
-0.0152243
-0.0152243
-0.0152243
-0.0152243
-0.0152244
-0.0152244
-0.0152244
-0.0152244
-0.0152244
-0.0152245
-0.0152245
-0.0152245
-0.0152245
-0.0152245
-0.0152246
-0.0152246
-0.0152246
-0.0152246
-0.0152246
-0.0152246
-0.0152247
-0.0152247
-0.0152247
-0.0152247
-0.0152247
-0.0152248
-0.0152248
-0.0152248
-0.0152248
-0.0152248
-0.0152249
-0.0152249
-0.0152249
-0.0152249
-0.0152249
-0.015225
-0.015225
-0.015225
-0.015225
-0.015225
-0.0152251
-0.0152251
-0.0152251
-0.0152251
-0.0152251
-0.0152252
-0.0152252
-0.0152252
-0.0152252
-0.0152252
-0.0152253
-0.0152253
-0.0152253
-0.0152253
-0.0152253
-0.0152254
-0.0152254
-0.0152254
-0.0152254
-0.0152254
-0.0152255
-0.0152255
-0.0152255
-0.0152255
-0.0152255
-0.0152256
-0.0152256
-0.0152256
-0.0152256
-0.0152256
-0.0152257
-0.0152257
-0.0152257
-0.0152257
-0.0152257
-0.0152258
-0.0152258
-0.0152258
-0.0152258
-0.0152258
-0.0152259
-0.0152259
-0.0152259
-0.0152259
-0.0152259
-0.015226
-0.015226
-0.015226
-0.015226
-0.015226
-0.0152261
-0.015226
-0.015226
-0.015226
1
0.131663
0.068269
0.0522958
0.0444196
0.0395765
0.0362593
0.0338323
0.0319723
0.0304956
0.0292895
0.0282812
0.0274216
0.026677
0.026023
0.0254421
0.0249212
0.0244502
0.0240216
0.0236291
0.0232681
0.0229343
0.0226247
0.0223365
0.0220674
0.0218154
0.0215789
0.0213563
0.0211464
0.0209482
0.0207605
0.0205826
0.0204137
0.020253
0.0201
0.019954
0.0198147
0.0196815
0.019554
0.0194319
0.0193148
0.0192024
0.0190944
0.0189905
0.0188906
0.0187943
0.0187015
0.018612
0.0185256
0.0184422
0.0183616
0.0182836
0.0182081
0.0181351
0.0180644
0.0179958
0.0179293
0.0178649
0.0178023
0.0177415
0.0176825
0.0176252
0.0175695
0.0175153
0.0174626
0.0174114
0.0173615
0.0173129
0.0172656
0.0172195
0.0171746
0.0171308
0.0170881
0.0170465
0.017006
0.0169664
0.0169277
0.01689
0.0168532
0.0168173
0.0167822
0.016748
0.0167145
0.0166818
0.0166498
0.0166186
0.0165881
0.0165583
0.0165291
0.0165006
0.0164727
0.0164454
0.0164188
0.0163927
0.0163672
0.0163422
0.0163178
0.0162939
0.0162705
0.0162476
0.0162252
0.0162033
0.0161818
0.0161608
0.0161403
0.0161202
0.0161004
0.0160811
0.0160623
0.0160438
0.0160256
0.0160079
0.0159905
0.0159735
0.0159569
0.0159405
0.0159246
0.0159089
0.0158936
0.0158785
0.0158638
0.0158494
0.0158353
0.0158215
0.0158079
0.0157947
0.0157817
0.0157689
0.0157564
0.0157442
0.0157322
0.0157205
0.015709
0.0156977
0.0156867
0.0156759
0.0156653
0.0156549
0.0156448
0.0156348
0.015625
0.0156155
0.0156061
0.0155969
0.0155879
0.0155791
0.0155705
0.015562
0.0155537
0.0155456
0.0155376
0.0155298
0.0155222
0.0155147
0.0155073
0.0155001
0.0154931
0.0154862
0.0154794
0.0154728
0.0154663
0.0154599
0.0154537
0.0154476
0.0154416
0.0154357
0.01543
0.0154243
0.0154188
0.0154134
0.0154081
0.0154029
0.0153978
0.0153928
0.0153879
0.0153831
0.0153784
0.0153738
0.0153693
0.0153649
0.0153606
0.0153563
0.0153522
0.0153481
0.0153441
0.0153402
0.0153364
0.0153327
0.015329
0.0153254
0.0153219
0.0153184
0.0153151
0.0153118
0.0153086
0.0153054
0.0153023
0.0152993
0.0152964
0.0152935
0.0152907
0.015288
0.0152854
0.0152828
0.0152802
0.0152778
0.0152754
0.0152731
0.0152708
0.0152686
0.0152665
0.0152644
0.0152624
0.0152605
0.0152586
0.0152568
0.0152551
0.0152534
0.0152518
0.0152502
0.0152487
0.0152472
0.0152458
0.0152445
0.0152432
0.015242
0.0152408
0.0152397
0.0152386
0.0152376
0.0152367
0.0152357
0.0152349
0.015234
0.0152333
0.0152325
0.0152318
0.0152312
0.0152305
0.01523
0.0152294
0.0152289
0.0152284
0.015228
0.0152276
0.0152272
0.0152268
0.0152265
0.0152262
0.0152259
0.0152257
0.0152254
0.0152252
0.015225
0.0152249
0.0152247
0.0152246
0.0152244
0.0152243
0.0152242
0.0152241
0.0152241
0.015224
0.0152239
0.0152239
0.0152239
0.0152238
0.0152238
0.0152238
0.0152238
0.0152237
0.0152237
0.0152237
0.0152237
0.0152237
0.0152237
0.0152238
0.0152238
0.0152238
0.0152238
0.0152238
0.0152238
0.0152238
0.0152238
0.0152239
0.0152239
0.0152239
0.0152239
0.0152239
0.015224
0.015224
0.015224
0.015224
0.015224
0.0152241
0.0152241
0.0152241
0.0152241
0.0152241
0.0152241
0.0152242
0.0152242
0.0152242
0.0152242
0.0152242
0.0152243
0.0152243
0.0152243
0.0152243
0.0152243
0.0152244
0.0152244
0.0152244
0.0152244
0.0152244
0.0152245
0.0152245
0.0152245
0.0152245
0.0152245
0.0152246
0.0152246
0.0152246
0.0152246
0.0152246
0.0152246
0.0152247
0.0152247
0.0152247
0.0152247
0.0152247
0.0152248
0.0152248
0.0152248
0.0152248
0.0152248
0.0152249
0.0152249
0.0152249
0.0152249
0.0152249
0.015225
0.015225
0.015225
0.015225
0.015225
0.0152251
0.0152251
0.0152251
0.0152251
0.0152251
0.0152252
0.0152252
0.0152252
0.0152252
0.0152252
0.0152253
0.0152253
0.0152253
0.0152253
0.0152253
0.0152254
0.0152254
0.0152254
0.0152254
0.0152254
0.0152255
0.0152255
0.0152255
0.0152255
0.0152255
0.0152256
0.0152256
0.0152256
0.0152256
0.0152256
0.0152257
0.0152257
0.0152257
0.0152257
0.0152257
0.0152258
0.0152258
0.0152258
0.0152258
0.0152258
0.0152259
0.0152259
0.0152259
0.0152259
0.0152259
0.015226
0.015226
0.015226
0.015226
0.015226
0.0152261
0.015226
0.015226
0.015226
1
0.344884
0.200667
0.154967
0.131894
0.117598
0.107767
0.100557
0.0950241
0.0906281
0.0870369
0.0840349
0.0814768
0.0792616
0.0773171
0.0755909
0.0740437
0.0726457
0.0713738
0.0702098
0.0691392
0.06815
0.0672327
0.0663789
0.0655818
0.0648356
0.0641352
0.0634764
0.0628552
0.0622685
0.0617132
0.0611868
0.060687
0.0602117
0.0597591
0.0593275
0.0589154
0.0585215
0.0581446
0.0577835
0.0574373
0.0571049
0.0567857
0.0564787
0.0561832
0.0558987
0.0556244
0.0553599
0.0551046
0.0548581
0.0546198
0.0543894
0.0541665
0.0539507
0.0537417
0.0535392
0.0533428
0.0531524
0.0529676
0.0527881
0.0526139
0.0524446
0.0522801
0.0521201
0.0519645
0.0518131
0.0516658
0.0515223
0.0513826
0.0512466
0.051114
0.0509848
0.0508588
0.050736
0.0506162
0.0504993
0.0503853
0.0502741
0.0501654
0.0500594
0.0499559
0.0498547
0.049756
0.0496595
0.0495652
0.0494731
0.049383
0.049295
0.049209
0.0491249
0.0490426
0.0489622
0.0488835
0.0488066
0.0487313
0.0486577
0.0485857
0.0485152
0.0484462
0.0483787
0.0483126
0.048248
0.0481847
0.0481228
0.0480621
0.0480028
0.0479447
0.0478878
0.0478321
0.0477775
0.0477241
0.0476718
0.0476206
0.0475704
0.0475213
0.0474732
0.0474261
0.0473799
0.0473347
0.0472904
0.0472471
0.0472046
0.047163
0.0471222
0.0470823
0.0470432
0.0470048
0.0469673
0.0469305
0.0468945
0.0468592
0.0468246
0.0467907
0.0467575
0.046725
0.0466932
0.0466619
0.0466314
0.0466014
0.046572
0.0465433
0.0465151
0.0464874
0.0464604
0.0464339
0.0464079
0.0463824
0.0463575
0.0463331
0.0463091
0.0462857
0.0462627
0.0462401
0.0462181
0.0461964
0.0461753
0.0461545
0.0461341
0.0461142
0.0460947
0.0460755
0.0460568
0.0460384
0.0460204
0.0460027
0.0459855
0.0459685
0.0459519
0.0459356
0.0459197
0.0459041
0.0458888
0.0458738
0.0458591
0.0458447
0.0458306
0.0458167
0.0458032
0.0457899
0.0457769
0.0457642
0.0457517
0.0457394
0.0457275
0.0457157
0.0457042
0.045693
0.0456819
0.0456711
0.0456606
0.0456502
0.0456401
0.0456302
0.0456205
0.0456111
0.0456018
0.0455928
0.045584
0.0455753
0.0455669
0.0455587
0.0455507
0.0455429
0.0455353
0.0455279
0.0455207
0.0455137
0.0455069
0.0455003
0.0454938
0.0454876
0.0454816
0.0454757
0.0454701
0.0454646
0.0454593
0.0454542
0.0454493
0.0454445
0.04544
0.0454356
0.0454313
0.0454273
0.0454234
0.0454197
0.0454161
0.0454127
0.0454095
0.0454064
0.0454034
0.0454006
0.0453979
0.0453954
0.045393
0.0453908
0.0453886
0.0453866
0.0453847
0.0453829
0.0453812
0.0453797
0.0453782
0.0453768
0.0453756
0.0453744
0.0453733
0.0453723
0.0453713
0.0453705
0.0453697
0.045369
0.0453683
0.0453677
0.0453672
0.0453667
0.0453662
0.0453658
0.0453655
0.0453652
0.0453649
0.0453646
0.0453644
0.0453642
0.0453641
0.0453639
0.0453638
0.0453637
0.0453637
0.0453636
0.0453636
0.0453635
0.0453635
0.0453635
0.0453635
0.0453635
0.0453636
0.0453636
0.0453636
0.0453637
0.0453637
0.0453637
0.0453638
0.0453638
0.0453639
0.0453639
0.045364
0.045364
0.0453641
0.0453641
0.0453642
0.0453643
0.0453643
0.0453644
0.0453644
0.0453645
0.0453645
0.0453646
0.0453647
0.0453647
0.0453648
0.0453648
0.0453649
0.0453649
0.045365
0.0453651
0.0453651
0.0453652
0.0453652
0.0453653
0.0453653
0.0453654
0.0453655
0.0453655
0.0453656
0.0453656
0.0453657
0.0453657
0.0453658
0.0453659
0.0453659
0.045366
0.045366
0.0453661
0.0453661
0.0453662
0.0453663
0.0453663
0.0453664
0.0453664
0.0453665
0.0453666
0.0453666
0.0453667
0.0453667
0.0453668
0.0453668
0.0453669
0.045367
0.045367
0.0453671
0.0453671
0.0453672
0.0453673
0.0453673
0.0453674
0.0453674
0.0453675
0.0453675
0.0453676
0.0453677
0.0453677
0.0453678
0.0453678
0.0453679
0.045368
0.045368
0.0453681
0.0453681
0.0453682
0.0453683
0.0453683
0.0453684
0.0453684
0.0453685
0.0453686
0.0453686
0.0453687
0.0453687
0.0453688
0.0453688
0.0453689
0.045369
0.045369
0.0453691
0.0453691
0.0453692
0.0453693
0.0453693
0.0453694
0.0453694
0.0453695
0.0453696
0.0453696
0.0453697
0.0453697
0.0453698
0.0453699
0.0453699
0.04537
0.04537
0.0453701
0.0453702
0.0453702
0.0453703
0.0453704
0.0453704
0.0453705
0.0453704
0.0453704
0.0453704
1
0.518765
0.327401
0.255347
0.217848
0.194403
0.178211
0.166306
0.157157
0.149882
0.143938
0.138968
0.134734
0.131068
0.127852
0.124998
0.122441
0.120131
0.118031
0.116109
0.114342
0.11271
0.111196
0.109788
0.108473
0.107243
0.106088
0.105002
0.103978
0.103011
0.102096
0.101229
0.100405
0.0996219
0.0988762
0.0981651
0.0974863
0.0968375
0.0962167
0.095622
0.0950517
0.0945044
0.0939786
0.0934731
0.0929866
0.0925181
0.0920665
0.091631
0.0912107
0.0908048
0.0904126
0.0900333
0.0896664
0.0893112
0.0889672
0.0886339
0.0883107
0.0879973
0.0876931
0.0873978
0.0871111
0.0868325
0.0865618
0.0862986
0.0860425
0.0857935
0.085551
0.0853151
0.0850853
0.0848614
0.0846433
0.0844308
0.0842236
0.0840216
0.0838245
0.0836323
0.0834448
0.0832618
0.0830832
0.0829088
0.0827385
0.0825722
0.0824098
0.0822511
0.0820961
0.0819446
0.0817966
0.0816519
0.0815104
0.0813721
0.0812369
0.0811046
0.0809753
0.0808488
0.0807251
0.0806041
0.0804856
0.0803698
0.0802564
0.0801455
0.0800369
0.0799306
0.0798266
0.0797248
0.0796252
0.0795276
0.0794321
0.0793386
0.079247
0.0791574
0.0790696
0.0789837
0.0788995
0.0788171
0.0787364
0.0786573
0.0785799
0.0785041
0.0784298
0.078357
0.0782858
0.078216
0.0781476
0.0780807
0.0780151
0.0779508
0.0778878
0.0778262
0.0777657
0.0777066
0.0776486
0.0775918
0.0775361
0.0774816
0.0774282
0.0773758
0.0773245
0.0772743
0.0772251
0.0771768
0.0771296
0.0770833
0.0770379
0.0769935
0.0769499
0.0769073
0.0768655
0.0768245
0.0767844
0.076745
0.0767065
0.0766687
0.0766317
0.0765955
0.07656
0.0765252
0.0764911
0.0764577
0.0764249
0.0763928
0.0763614
0.0763306
0.0763004
0.0762709
0.0762419
0.0762135
0.0761857
0.0761584
0.0761317
0.0761055
0.0760799
0.0760547
0.0760301
0.076006
0.0759823
0.0759591
0.0759364
0.0759142
0.0758924
0.075871
0.0758501
0.0758296
0.0758095
0.0757899
0.0757706
0.0757517
0.0757333
0.0757152
0.0756974
0.0756801
0.0756631
0.0756466
0.0756303
0.0756144
0.0755989
0.0755838
0.0755689
0.0755545
0.0755403
0.0755265
0.0755131
0.0755
0.0754872
0.0754748
0.0754626
0.0754509
0.0754394
0.0754283
0.0754174
0.0754069
0.0753968
0.0753869
0.0753774
0.0753681
0.0753592
0.0753505
0.0753422
0.0753342
0.0753265
0.075319
0.0753118
0.075305
0.0752984
0.075292
0.075286
0.0752802
0.0752747
0.0752694
0.0752644
0.0752596
0.075255
0.0752507
0.0752466
0.0752427
0.0752391
0.0752356
0.0752323
0.0752293
0.0752264
0.0752237
0.0752212
0.0752188
0.0752166
0.0752145
0.0752126
0.0752109
0.0752093
0.0752077
0.0752064
0.0752051
0.0752039
0.0752029
0.0752019
0.075201
0.0752003
0.0751995
0.0751989
0.0751984
0.0751979
0.0751974
0.075197
0.0751967
0.0751964
0.0751962
0.075196
0.0751958
0.0751956
0.0751955
0.0751955
0.0751954
0.0751954
0.0751953
0.0751953
0.0751953
0.0751954
0.0751954
0.0751954
0.0751955
0.0751956
0.0751956
0.0751957
0.0751958
0.0751959
0.0751959
0.075196
0.0751961
0.0751962
0.0751963
0.0751964
0.0751965
0.0751966
0.0751967
0.0751968
0.0751968
0.0751969
0.075197
0.0751971
0.0751972
0.0751973
0.0751974
0.0751975
0.0751976
0.0751977
0.0751978
0.0751979
0.075198
0.0751981
0.0751982
0.0751983
0.0751984
0.0751985
0.0751986
0.0751986
0.0751987
0.0751988
0.0751989
0.075199
0.0751991
0.0751992
0.0751993
0.0751994
0.0751995
0.0751996
0.0751997
0.0751998
0.0751999
0.0752
0.0752001
0.0752002
0.0752003
0.0752004
0.0752005
0.0752006
0.0752007
0.0752008
0.0752009
0.075201
0.075201
0.0752011
0.0752012
0.0752013
0.0752014
0.0752015
0.0752016
0.0752017
0.0752018
0.0752019
0.075202
0.0752021
0.0752022
0.0752023
0.0752024
0.0752025
0.0752026
0.0752027
0.0752028
0.0752029
0.075203
0.0752031
0.0752032
0.0752033
0.0752034
0.0752035
0.0752036
0.0752037
0.0752038
0.0752039
0.075204
0.0752041
0.0752042
0.0752043
0.0752044
0.0752045
0.0752046
0.0752047
0.0752048
0.0752049
0.075205
0.0752051
0.0752052
0.0752053
0.0752054
0.0752055
0.0752056
0.0752057
0.0752058
0.0752059
0.075206
0.0752061
0.0752062
0.0752063
0.0752064
0.0752065
0.0752065
0.0752067
0.0752067
0.0752069
0.0752068
0.0752068
0.0752068
1
0.660887
0.446893
0.352877
0.302028
0.269849
0.2475
0.231017
0.218326
0.208224
0.199964
0.193058
0.187175
0.182082
0.177615
0.173653
0.170103
0.166899
0.163985
0.16132
0.15887
0.156608
0.15451
0.152559
0.150738
0.149033
0.147434
0.14593
0.144512
0.143173
0.141906
0.140705
0.139565
0.138481
0.137449
0.136465
0.135525
0.134628
0.133768
0.132946
0.132156
0.131399
0.130672
0.129972
0.129299
0.128651
0.128027
0.127424
0.126843
0.126281
0.125739
0.125214
0.124707
0.124216
0.12374
0.123279
0.122832
0.122399
0.121978
0.12157
0.121173
0.120788
0.120414
0.12005
0.119696
0.119352
0.119017
0.118691
0.118373
0.118063
0.117762
0.117468
0.117182
0.116903
0.11663
0.116365
0.116106
0.115853
0.115606
0.115365
0.11513
0.1149
0.114675
0.114456
0.114242
0.114033
0.113828
0.113628
0.113433
0.113242
0.113055
0.112872
0.112694
0.112519
0.112348
0.112181
0.112017
0.111857
0.111701
0.111548
0.111398
0.111251
0.111107
0.110967
0.110829
0.110694
0.110563
0.110433
0.110307
0.110183
0.110062
0.109943
0.109827
0.109713
0.109602
0.109493
0.109386
0.109281
0.109179
0.109078
0.10898
0.108883
0.108789
0.108697
0.108606
0.108517
0.10843
0.108345
0.108262
0.10818
0.1081
0.108022
0.107945
0.10787
0.107796
0.107724
0.107653
0.107584
0.107516
0.107449
0.107384
0.10732
0.107257
0.107196
0.107136
0.107077
0.107019
0.106963
0.106907
0.106853
0.1068
0.106748
0.106697
0.106647
0.106598
0.10655
0.106503
0.106457
0.106411
0.106367
0.106324
0.106281
0.10624
0.106199
0.106159
0.10612
0.106081
0.106044
0.106007
0.105971
0.105935
0.105901
0.105867
0.105833
0.105801
0.105769
0.105737
0.105707
0.105677
0.105647
0.105618
0.10559
0.105562
0.105535
0.105509
0.105483
0.105457
0.105432
0.105408
0.105384
0.105361
0.105338
0.105315
0.105293
0.105272
0.105251
0.105231
0.105211
0.105191
0.105172
0.105154
0.105136
0.105118
0.105101
0.105084
0.105068
0.105052
0.105037
0.105022
0.105008
0.104994
0.10498
0.104967
0.104955
0.104942
0.10493
0.104919
0.104908
0.104897
0.104887
0.104877
0.104868
0.104859
0.10485
0.104842
0.104834
0.104827
0.104819
0.104812
0.104806
0.1048
0.104794
0.104788
0.104783
0.104778
0.104773
0.104769
0.104765
0.104761
0.104757
0.104754
0.10475
0.104747
0.104745
0.104742
0.10474
0.104738
0.104735
0.104734
0.104732
0.10473
0.104729
0.104728
0.104726
0.104725
0.104724
0.104724
0.104723
0.104722
0.104722
0.104721
0.104721
0.10472
0.10472
0.10472
0.104719
0.104719
0.104719
0.104719
0.104719
0.104719
0.104719
0.104719
0.104719
0.104719
0.104719
0.104719
0.104719
0.104719
0.104719
0.104719
0.10472
0.10472
0.10472
0.10472
0.10472
0.10472
0.10472
0.10472
0.10472
0.104721
0.104721
0.104721
0.104721
0.104721
0.104721
0.104721
0.104722
0.104722
0.104722
0.104722
0.104722
0.104722
0.104722
0.104722
0.104723
0.104723
0.104723
0.104723
0.104723
0.104723
0.104723
0.104723
0.104724
0.104724
0.104724
0.104724
0.104724
0.104724
0.104724
0.104725
0.104725
0.104725
0.104725
0.104725
0.104725
0.104725
0.104725
0.104726
0.104726
0.104726
0.104726
0.104726
0.104726
0.104726
0.104727
0.104727
0.104727
0.104727
0.104727
0.104727
0.104727
0.104728
0.104728
0.104728
0.104728
0.104728
0.104728
0.104728
0.104728
0.104729
0.104729
0.104729
0.104729
0.104729
0.104729
0.104729
0.10473
0.10473
0.10473
0.10473
0.10473
0.10473
0.10473
0.104731
0.104731
0.104731
0.104731
0.104731
0.104731
0.104731
0.104731
0.104732
0.104732
0.104732
0.104732
0.104732
0.104732
0.104732
0.104733
0.104733
0.104733
0.104733
0.104733
0.104733
0.104733
0.104734
0.104734
0.104734
0.104734
0.104734
0.104734
0.104734
0.104734
0.104735
0.104735
0.104735
0.104735
0.104735
0.104735
1
0.776802
0.557824
0.446877
0.3841
0.343742
0.315509
0.294602
0.278467
0.265605
0.255079
0.246275
0.238774
0.232282
0.226588
0.221538
0.217017
0.212935
0.209225
0.205832
0.202714
0.199835
0.197167
0.194685
0.192368
0.190201
0.188167