# vtk DataFile Version 2.0
FlowField
ASCII
DATASET STRUCTURED_GRID
DIMENSIONS 400 1 200
POINTS 80000 float
0 0 0
0.08 0 0
0.16 0 0
0.24 0 0
0.32 0 0
0.4 0 0
0.48 0 0
0.56 0 0
0.64 0 0
0.72 0 0
0.8 0 0
0.88 0 0
0.96 0 0
1.04 0 0
1.12 0 0
1.2 0 0
1.28 0 0
1.36 0 0
1.44 0 0
1.52 0 0
1.6 0 0
1.68 0 0
1.76 0 0
1.84 0 0
1.92 0 0
2 0 0
2.08 0 0
2.16 0 0
2.24 0 0
2.32 0 0
2.4 0 0
2.48 0 0
2.56 0 0
2.64 0 0
2.72 0 0
2.8 0 0
2.88 0 0
2.96 0 0
3.04 0 0
3.12 0 0
3.2 0 0
3.28 0 0
3.36 0 0
3.44 0 0
3.52 0 0
3.6 0 0
3.68 0 0
3.76 0 0
3.84 0 0
3.92 0 0
4 0 0
4.08 0 0
4.16 0 0
4.24 0 0
4.32 0 0
4.4 0 0
4.48 0 0
4.56 0 0
4.64 0 0
4.72 0 0
4.8 0 0
4.88 0 0
4.96 0 0
5.04 0 0
5.12 0 0
5.2 0 0
5.28 0 0
5.36 0 0
5.44 0 0
5.52 0 0
5.6 0 0
5.68 0 0
5.76 0 0
5.84 0 0
5.92 0 0
6 0 0
6.08 0 0
6.16 0 0
6.24 0 0
6.32 0 0
6.4 0 0
6.48 0 0
6.56 0 0
6.64 0 0
6.72 0 0
6.8 0 0
6.88 0 0
6.96 0 0
7.04 0 0
7.12 0 0
7.2 0 0
7.28 0 0
7.36 0 0
7.44 0 0
7.52 0 0
7.6 0 0
7.68 0 0
7.76 0 0
7.84 0 0
7.92 0 0
8 0 0
8.08 0 0
8.16 0 0
8.24 0 0
8.32 0 0
8.4 0 0
8.48 0 0
8.56 0 0
8.64 0 0
8.72 0 0
8.8 0 0
8.88 0 0
8.96 0 0
9.04 0 0
9.12 0 0
9.2 0 0
9.28 0 0
9.36 0 0
9.44 0 0
9.52 0 0
9.6 0 0
9.68 0 0
9.76 0 0
9.84 0 0
9.92 0 0
10 0 0
10.08 0 0
10.16 0 0
10.24 0 0
10.32 0 0
10.4 0 0
10.48 0 0
10.56 0 0
10.64 0 0
10.72 0 0
10.8 0 0
10.88 0 0
10.96 0 0
11.04 0 0
11.12 0 0
11.2 0 0
11.28 0 0
11.36 0 0
11.44 0 0
11.52 0 0
11.6 0 0
11.68 0 0
11.76 0 0
11.84 0 0
11.92 0 0
12 0 0
12.08 0 0
12.16 0 0
12.24 0 0
12.32 0 0
12.4 0 0
12.48 0 0
12.56 0 0
12.64 0 0
12.72 0 0
12.8 0 0
12.88 0 0
12.96 0 0
13.04 0 0
13.12 0 0
13.2 0 0
13.28 0 0
13.36 0 0
13.44 0 0
13.52 0 0
13.6 0 0
13.68 0 0
13.76 0 0
13.84 0 0
13.92 0 0
14 0 0
14.08 0 0
14.16 0 0
14.24 0 0
14.32 0 0
14.4 0 0
14.48 0 0
14.56 0 0
14.64 0 0
14.72 0 0
14.8 0 0
14.88 0 0
14.96 0 0
15.04 0 0
15.12 0 0
15.2 0 0
15.28 0 0
15.36 0 0
15.44 0 0
15.52 0 0
15.6 0 0
15.68 0 0
15.76 0 0
15.84 0 0
15.92 0 0
16 0 0
16.08 0 0
16.16 0 0
16.24 0 0
16.32 0 0
16.4 0 0
16.48 0 0
16.56 0 0
16.64 0 0
16.72 0 0
16.8 0 0
16.88 0 0
16.96 0 0
17.04 0 0
17.12 0 0
17.2 0 0
17.28 0 0
17.36 0 0
17.44 0 0
17.52 0 0
17.6 0 0
17.68 0 0
17.76 0 0
17.84 0 0
17.92 0 0
18 0 0
18.08 0 0
18.16 0 0
18.24 0 0
18.32 0 0
18.4 0 0
18.48 0 0
18.56 0 0
18.64 0 0
18.72 0 0
18.8 0 0
18.88 0 0
18.96 0 0
19.04 0 0
19.12 0 0
19.2 0 0
19.28 0 0
19.36 0 0
19.44 0 0
19.52 0 0
19.6 0 0
19.68 0 0
19.76 0 0
19.84 0 0
19.92 0 0
20 0 0
20.08 0 0
20.16 0 0
20.24 0 0
20.32 0 0
20.4 0 0
20.48 0 0
20.56 0 0
20.64 0 0
20.72 0 0
20.8 0 0
20.88 0 0
20.96 0 0
21.04 0 0
21.12 0 0
21.2 0 0
21.28 0 0
21.36 0 0
21.44 0 0
21.52 0 0
21.6 0 0
21.68 0 0
21.76 0 0
21.84 0 0
21.92 0 0
22 0 0
22.08 0 0
22.16 0 0
22.24 0 0
22.32 0 0
22.4 0 0
22.48 0 0
22.56 0 0
22.64 0 0
22.72 0 0
22.8 0 0
22.88 0 0
22.96 0 0
23.04 0 0
23.12 0 0
23.2 0 0
23.28 0 0
23.36 0 0
23.44 0 0
23.52 0 0
23.6 0 0
23.68 0 0
23.76 0 0
23.84 0 0
23.92 0 0
24 0 0
24.08 0 0
24.16 0 0
24.24 0 0
24.32 0 0
24.4 0 0
24.48 0 0
24.56 0 0
24.64 0 0
24.72 0 0
24.8 0 0
24.88 0 0
24.96 0 0
25.04 0 0
25.12 0 0
25.2 0 0
25.28 0 0
25.36 0 0
25.44 0 0
25.52 0 0
25.6 0 0
25.68 0 0
25.76 0 0
25.84 0 0
25.92 0 0
26 0 0
26.08 0 0
26.16 0 0
26.24 0 0
26.32 0 0
26.4 0 0
26.48 0 0
26.56 0 0
26.64 0 0
26.72 0 0
26.8 0 0
26.88 0 0
26.96 0 0
27.04 0 0
27.12 0 0
27.2 0 0
27.28 0 0
27.36 0 0
27.44 0 0
27.52 0 0
27.6 0 0
27.68 0 0
27.76 0 0
27.84 0 0
27.92 0 0
28 0 0
28.08 0 0
28.16 0 0
28.24 0 0
28.32 0 0
28.4 0 0
28.48 0 0
28.56 0 0
28.64 0 0
28.72 0 0
28.8 0 0
28.88 0 0
28.96 0 0
29.04 0 0
29.12 0 0
29.2 0 0
29.28 0 0
29.36 0 0
29.44 0 0
29.52 0 0
29.6 0 0
29.68 0 0
29.76 0 0
29.84 0 0
29.92 0 0
30 0 0
30.08 0 0
30.16 0 0
30.24 0 0
30.32 0 0
30.4 0 0
30.48 0 0
30.56 0 0
30.64 0 0
30.72 0 0
30.8 0 0
30.88 0 0
30.96 0 0
31.04 0 0
31.12 0 0
31.2 0 0
31.28 0 0
31.36 0 0
31.44 0 0
31.52 0 0
31.6 0 0
31.68 0 0
31.76 0 0
31.84 0 0
31.92 0 0
0 0.005 0
0.08 0.005 0
0.16 0.005 0
0.24 0.005 0
0.32 0.005 0
0.4 0.005 0
0.48 0.005 0
0.56 0.005 0
0.64 0.005 0
0.72 0.005 0
0.8 0.005 0
0.88 0.005 0
0.96 0.005 0
1.04 0.005 0
1.12 0.005 0
1.2 0.005 0
1.28 0.005 0
1.36 0.005 0
1.44 0.005 0
1.52 0.005 0
1.6 0.005 0
1.68 0.005 0
1.76 0.005 0
1.84 0.005 0
1.92 0.005 0
2 0.005 0
2.08 0.005 0
2.16 0.005 0
2.24 0.005 0
2.32 0.005 0
2.4 0.005 0
2.48 0.005 0
2.56 0.005 0
2.64 0.005 0
2.72 0.005 0
2.8 0.005 0
2.88 0.005 0
2.96 0.005 0
3.04 0.005 0
3.12 0.005 0
3.2 0.005 0
3.28 0.005 0
3.36 0.005 0
3.44 0.005 0
3.52 0.005 0
3.6 0.005 0
3.68 0.005 0
3.76 0.005 0
3.84 0.005 0
3.92 0.005 0
4 0.005 0
4.08 0.005 0
4.16 0.005 0
4.24 0.005 0
4.32 0.005 0
4.4 0.005 0
4.48 0.005 0
4.56 0.005 0
4.64 0.005 0
4.72 0.005 0
4.8 0.005 0
4.88 0.005 0
4.96 0.005 0
5.04 0.005 0
5.12 0.005 0
5.2 0.005 0
5.28 0.005 0
5.36 0.005 0
5.44 0.005 0
5.52 0.005 0
5.6 0.005 0
5.68 0.005 0
5.76 0.005 0
5.84 0.005 0
5.92 0.005 0
6 0.005 0
6.08 0.005 0
6.16 0.005 0
6.24 0.005 0
6.32 0.005 0
6.4 0.005 0
6.48 0.005 0
6.56 0.005 0
6.64 0.005 0
6.72 0.005 0
6.8 0.005 0
6.88 0.005 0
6.96 0.005 0
7.04 0.005 0
7.12 0.005 0
7.2 0.005 0
7.28 0.005 0
7.36 0.005 0
7.44 0.005 0
7.52 0.005 0
7.6 0.005 0
7.68 0.005 0
7.76 0.005 0
7.84 0.005 0
7.92 0.005 0
8 0.005 0
8.08 0.005 0
8.16 0.005 0
8.24 0.005 0
8.32 0.005 0
8.4 0.005 0
8.48 0.005 0
8.56 0.005 0
8.64 0.005 0
8.72 0.005 0
8.8 0.005 0
8.88 0.005 0
8.96 0.005 0
9.04 0.005 0
9.12 0.005 0
9.2 0.005 0
9.28 0.005 0
9.36 0.005 0
9.44 0.005 0
9.52 0.005 0
9.6 0.005 0
9.68 0.005 0
9.76 0.005 0
9.84 0.005 0
9.92 0.005 0
10 0.005 0
10.08 0.005 0
10.16 0.005 0
10.24 0.005 0
10.32 0.005 0
10.4 0.005 0
10.48 0.005 0
10.56 0.005 0
10.64 0.005 0
10.72 0.005 0
10.8 0.005 0
10.88 0.005 0
10.96 0.005 0
11.04 0.005 0
11.12 0.005 0
11.2 0.005 0
11.28 0.005 0
11.36 0.005 0
11.44 0.005 0
11.52 0.005 0
11.6 0.005 0
11.68 0.005 0
11.76 0.005 0
11.84 0.005 0
11.92 0.005 0
12 0.005 0
12.08 0.005 0
12.16 0.005 0
12.24 0.005 0
12.32 0.005 0
12.4 0.005 0
12.48 0.005 0
12.56 0.005 0
12.64 0.005 0
12.72 0.005 0
12.8 0.005 0
12.88 0.005 0
12.96 0.005 0
13.04 0.005 0
13.12 0.005 0
13.2 0.005 0
13.28 0.005 0
13.36 0.005 0
13.44 0.005 0
13.52 0.005 0
13.6 0.005 0
13.68 0.005 0
13.76 0.005 0
13.84 0.005 0
13.92 0.005 0
14 0.005 0
14.08 0.005 0
14.16 0.005 0
14.24 0.005 0
14.32 0.005 0
14.4 0.005 0
14.48 0.005 0
14.56 0.005 0
14.64 0.005 0
14.72 0.005 0
14.8 0.005 0
14.88 0.005 0
14.96 0.005 0
15.04 0.005 0
15.12 0.005 0
15.2 0.005 0
15.28 0.005 0
15.36 0.005 0
15.44 0.005 0
15.52 0.005 0
15.6 0.005 0
15.68 0.005 0
15.76 0.005 0
15.84 0.005 0
15.92 0.005 0
16 0.005 0
16.08 0.005 0
16.16 0.005 0
16.24 0.005 0
16.32 0.005 0
16.4 0.005 0
16.48 0.005 0
16.56 0.005 0
16.64 0.005 0
16.72 0.005 0
16.8 0.005 0
16.88 0.005 0
16.96 0.005 0
17.04 0.005 0
17.12 0.005 0
17.2 0.005 0
17.28 0.005 0
17.36 0.005 0
17.44 0.005 0
17.52 0.005 0
17.6 0.005 0
17.68 0.005 0
17.76 0.005 0
17.84 0.005 0
17.92 0.005 0
18 0.005 0
18.08 0.005 0
18.16 0.005 0
18.24 0.005 0
18.32 0.005 0
18.4 0.005 0
18.48 0.005 0
18.56 0.005 0
18.64 0.005 0
18.72 0.005 0
18.8 0.005 0
18.88 0.005 0
18.96 0.005 0
19.04 0.005 0
19.12 0.005 0
19.2 0.005 0
19.28 0.005 0
19.36 0.005 0
19.44 0.005 0
19.52 0.005 0
19.6 0.005 0
19.68 0.005 0
19.76 0.005 0
19.84 0.005 0
19.92 0.005 0
20 0.005 0
20.08 0.005 0
20.16 0.005 0
20.24 0.005 0
20.32 0.005 0
20.4 0.005 0
20.48 0.005 0
20.56 0.005 0
20.64 0.005 0
20.72 0.005 0
20.8 0.005 0
20.88 0.005 0
20.96 0.005 0
21.04 0.005 0
21.12 0.005 0
21.2 0.005 0
21.28 0.005 0
21.36 0.005 0
21.44 0.005 0
21.52 0.005 0
21.6 0.005 0
21.68 0.005 0
21.76 0.005 0
21.84 0.005 0
21.92 0.005 0
22 0.005 0
22.08 0.005 0
22.16 0.005 0
22.24 0.005 0
22.32 0.005 0
22.4 0.005 0
22.48 0.005 0
22.56 0.005 0
22.64 0.005 0
22.72 0.005 0
22.8 0.005 0
22.88 0.005 0
22.96 0.005 0
23.04 0.005 0
23.12 0.005 0
23.2 0.005 0
23.28 0.005 0
23.36 0.005 0
23.44 0.005 0
23.52 0.005 0
23.6 0.005 0
23.68 0.005 0
23.76 0.005 0
23.84 0.005 0
23.92 0.005 0
24 0.005 0
24.08 0.005 0
24.16 0.005 0
24.24 0.005 0
24.32 0.005 0
24.4 0.005 0
24.48 0.005 0
24.56 0.005 0
24.64 0.005 0
24.72 0.005 0
24.8 0.005 0
24.88 0.005 0
24.96 0.005 0
25.04 0.005 0
25.12 0.005 0
25.2 0.005 0
25.28 0.005 0
25.36 0.005 0
25.44 0.005 0
25.52 0.005 0
25.6 0.005 0
25.68 0.005 0
25.76 0.005 0
25.84 0.005 0
25.92 0.005 0
26 0.005 0
26.08 0.005 0
26.16 0.005 0
26.24 0.005 0
26.32 0.005 0
26.4 0.005 0
26.48 0.005 0
26.56 0.005 0
26.64 0.005 0
26.72 0.005 0
26.8 0.005 0
26.88 0.005 0
26.96 0.005 0
27.04 0.005 0
27.12 0.005 0
27.2 0.005 0
27.28 0.005 0
27.36 0.005 0
27.44 0.005 0
27.52 0.005 0
27.6 0.005 0
27.68 0.005 0
27.76 0.005 0
27.84 0.005 0
27.92 0.005 0
28 0.005 0
28.08 0.005 0
28.16 0.005 0
28.24 0.005 0
28.32 0.005 0
28.4 0.005 0
28.48 0.005 0
28.56 0.005 0
28.64 0.005 0
28.72 0.005 0
28.8 0.005 0
28.88 0.005 0
28.96 0.005 0
29.04 0.005 0
29.12 0.005 0
29.2 0.005 0
29.28 0.005 0
29.36 0.005 0
29.44 0.005 0
29.52 0.005 0
29.6 0.005 0
29.68 0.005 0
29.76 0.005 0
29.84 0.005 0
29.92 0.005 0
30 0.005 0
30.08 0.005 0
30.16 0.005 0
30.24 0.005 0
30.32 0.005 0
30.4 0.005 0
30.48 0.005 0
30.56 0.005 0
30.64 0.005 0
30.72 0.005 0
30.8 0.005 0
30.88 0.005 0
30.96 0.005 0
31.04 0.005 0
31.12 0.005 0
31.2 0.005 0
31.28 0.005 0
31.36 0.005 0
31.44 0.005 0
31.52 0.005 0
31.6 0.005 0
31.68 0.005 0
31.76 0.005 0
31.84 0.005 0
31.92 0.005 0
0 0.01 0
0.08 0.01 0
0.16 0.01 0
0.24 0.01 0
0.32 0.01 0
0.4 0.01 0
0.48 0.01 0
0.56 0.01 0
0.64 0.01 0
0.72 0.01 0
0.8 0.01 0
0.88 0.01 0
0.96 0.01 0
1.04 0.01 0
1.12 0.01 0
1.2 0.01 0
1.28 0.01 0
1.36 0.01 0
1.44 0.01 0
1.52 0.01 0
1.6 0.01 0
1.68 0.01 0
1.76 0.01 0
1.84 0.01 0
1.92 0.01 0
2 0.01 0
2.08 0.01 0
2.16 0.01 0
2.24 0.01 0
2.32 0.01 0
2.4 0.01 0
2.48 0.01 0
2.56 0.01 0
2.64 0.01 0
2.72 0.01 0
2.8 0.01 0
2.88 0.01 0
2.96 0.01 0
3.04 0.01 0
3.12 0.01 0
3.2 0.01 0
3.28 0.01 0
3.36 0.01 0
3.44 0.01 0
3.52 0.01 0
3.6 0.01 0
3.68 0.01 0
3.76 0.01 0
3.84 0.01 0
3.92 0.01 0
4 0.01 0
4.08 0.01 0
4.16 0.01 0
4.24 0.01 0
4.32 0.01 0
4.4 0.01 0
4.48 0.01 0
4.56 0.01 0
4.64 0.01 0
4.72 0.01 0
4.8 0.01 0
4.88 0.01 0
4.96 0.01 0
5.04 0.01 0
5.12 0.01 0
[...]
POINT_DATA 80000

SCALARS v float 1
LOOKUP_TABLE default
0
0
0
0
0
0
0
0
0
0
0
0
0
0
0
0
0
0
0
0
0
0
0
0
0
0
0
0
0
0
0
0
0
0
0
0
0
0
0
0
0
0
0
0
0
0
0
0
0
0
0
0
0
0
0
0
0
0
0
0
0
0
0
0
0
0
0
0
0
0
0
0
0
0
0
0
0
0
0
0
0
0
0
0
0
0
0
0
0
0
0
0
0
0
0
0
0
0
0
0
0
0
0
0
0
0
0
0
0
0
0
0
0
0
0
0
0
0
0
0
0
0
0
0
0
0
0
0
0
0
0
0
0
0
0
0
0
0
0
0
0
0
0
0
0
0
0
0
0
0
0
0
0
0
0
0
0
0
0
0
0
0
0
0
0
0
0
0
0
0
0
0
0
0
0
0
0
0
0
0
0
0
0
0
0
0
0
0
0
0
0
0
0
0
0
0
0
0
0
0
0
0
0
0
0
0
0
0
0
0
0
0
0
0
0
0
0
0
0
0
0
0
0
0
0
0
0
0
0
0
0
0
0
0
0
0
0
0
0
0
0
0
0
0
0
0
0
0
0
0
0
0
0
0
0
0
0
0
0
0
0
0
0
0
0
0
0
0
0
0
0
0
0
0
0
0
0
0
0
0
0
0
0
0
0
0
0
0
0
0
0
0
0
0
0
0
0
0
0
0
0
0
0
0
0
0
0
0
0
0
0
0
0
0
0
0
0
0
0
0
0
0
0
0
0
0
0
0
0
0
0
0
0
0
0
0
0
0
0
0
0
0
0
0
0
0
0
0
0
0
0
0
0
0
0
0
0
0
0
0
0
0
0
0
0
0
0
0
0
0
0
0
0
0
0
0
0
0
0
0
0
0
0
0
0
0
0
0
0
0
0
0
0
0
0
0
0
0
0
0
-0.0542711
0.0542711
0.0039621
0.000998333
0.000492263
0.000302699
0.000207323
0.000151695
0.000116253
9.22968e-05
7.53836e-05
6.3023e-05
5.37225e-05
4.65441e-05
4.08762e-05
3.63091e-05
3.25616e-05
2.94366e-05
2.67936e-05
2.45304e-05
2.25715e-05
2.08601e-05
1.93529e-05
1.8016e-05
1.6823e-05
1.57525e-05
1.47874e-05
1.39135e-05
1.31191e-05
1.23944e-05
1.17312e-05
1.11225e-05
1.05621e-05
1.00451e-05
9.56673e-06
9.12324e-06
8.71119e-06
8.32756e-06
7.96973e-06
7.63534e-06
7.32233e-06
7.02884e-06
6.75324e-06
6.49403e-06
6.24991e-06
6.01968e-06
5.80226e-06
5.59668e-06
5.40207e-06
5.21762e-06
5.0426e-06
4.87636e-06
4.7183e-06
4.56785e-06
4.42451e-06
4.28782e-06
4.15735e-06
4.03271e-06
3.91353e-06
3.79949e-06
3.69027e-06
3.58558e-06
3.48518e-06
3.38879e-06
3.29621e-06
3.20722e-06
3.12162e-06
3.03923e-06
2.95988e-06
2.8834e-06
2.80966e-06
2.73851e-06
2.66982e-06
2.60346e-06
2.53934e-06
2.47733e-06
2.41734e-06
2.35927e-06
2.30304e-06
2.24856e-06
2.19576e-06
2.14455e-06
2.09488e-06
2.04667e-06
1.99987e-06
1.95441e-06
1.91025e-06
1.86732e-06
1.82559e-06
1.78499e-06
1.7455e-06
1.70706e-06
1.66964e-06
1.63321e-06
1.59771e-06
1.56313e-06
1.52943e-06
1.49658e-06
1.46454e-06
1.4333e-06
1.40283e-06
1.37309e-06
1.34407e-06
1.31575e-06
1.28809e-06
1.26109e-06
1.23472e-06
1.20896e-06
1.1838e-06
1.15921e-06
1.13518e-06
1.1117e-06
1.08875e-06
1.0663e-06
1.04436e-06
1.0229e-06
1.00192e-06
9.81396e-07
9.6132e-07
9.4168e-07
9.22464e-07
9.03663e-07
8.85266e-07
8.67262e-07
8.49642e-07
8.32396e-07
8.15515e-07
7.98991e-07
7.82814e-07
7.66977e-07
7.51472e-07
7.3629e-07
7.21425e-07
7.06869e-07
6.92615e-07
6.78656e-07
6.64986e-07
6.51598e-07
6.38486e-07
6.25644e-07
6.13066e-07
6.00746e-07
5.88679e-07
5.7686e-07
5.65283e-07
5.53944e-07
5.42837e-07
5.31958e-07
5.21302e-07
5.10865e-07
5.00643e-07
4.9063e-07
4.80823e-07
4.71217e-07
4.61807e-07
4.52589e-07
4.43557e-07
4.34706e-07
4.26032e-07
4.17529e-07
4.09189e-07
4.01008e-07
3.92979e-07
3.85095e-07
3.77349e-07
3.69734e-07
3.62243e-07
3.54869e-07
3.47604e-07
3.40441e-07
3.33372e-07
3.26391e-07
3.19491e-07
3.12666e-07
3.05909e-07
2.99215e-07
2.92577e-07
2.85992e-07
2.79454e-07
2.72961e-07
2.66509e-07
2.60096e-07
2.53719e-07
2.47376e-07
2.41065e-07
2.34787e-07
2.28541e-07
2.22329e-07
2.16151e-07
2.10009e-07
2.03904e-07
1.97837e-07
1.9181e-07
1.85827e-07
1.79892e-07
1.74007e-07
1.68177e-07
1.62405e-07
1.56695e-07
1.51049e-07
1.45471e-07
1.39966e-07
1.34539e-07
1.29194e-07
1.23938e-07
1.18773e-07
1.13704e-07
1.08732e-07
1.0386e-07
9.90927e-08
9.44332e-08
8.98866e-08
8.54571e-08
8.11483e-08
7.6962e-08
7.28993e-08
6.89601e-08
6.51447e-08
6.14543e-08
5.78906e-08
5.44561e-08
5.11529e-08
4.79821e-08
4.49432e-08
4.20346e-08
3.92538e-08
3.6598e-08
3.40654e-08
3.16549e-08
2.93663e-08
2.71993e-08
2.51534e-08
2.32267e-08
2.14161e-08
1.97175e-08
1.81262e-08
1.66377e-08
1.52481e-08
1.39545e-08
1.27543e-08
1.16454e-08
1.06249e-08
9.68956e-09
8.83509e-09
8.05648e-09
7.34837e-09
6.70552e-09
6.12314e-09
5.59709e-09
5.12391e-09
4.70058e-09
4.32425e-09
3.99195e-09
3.70043e-09
3.44608e-09
3.22503e-09
3.03339e-09
2.86737e-09
2.72352e-09
2.59882e-09
2.49073e-09
2.39704e-09
2.31588e-09
2.2456e-09
2.18461e-09
2.13143e-09
2.08465e-09
2.04296e-09
2.00518e-09
1.97032e-09
1.93758e-09
1.90638e-09
1.8763e-09
1.84707e-09
1.81852e-09
1.79053e-09
1.76301e-09
1.73587e-09
1.70903e-09
1.68239e-09
1.6559e-09
1.62947e-09
1.60307e-09
1.57664e-09
1.55019e-09
1.5237e-09
1.4972e-09
1.4707e-09
1.44419e-09
1.41769e-09
1.39121e-09
1.36474e-09
1.33828e-09
1.31182e-09
1.28535e-09
1.25888e-09
1.23239e-09
1.20589e-09
1.17939e-09
1.15286e-09
1.12634e-09
1.09981e-09
1.07327e-09
1.04673e-09
1.02019e-09
9.93636e-10
9.67092e-10
9.4054e-10
9.13976e-10
8.87404e-10
8.60839e-10
8.34245e-10
8.07675e-10
7.81068e-10
7.54477e-10
7.27854e-10
7.01261e-10
6.74623e-10
6.48015e-10
6.21365e-10
5.94751e-10
5.68087e-10
5.41464e-10
5.14772e-10
4.88159e-10
4.61441e-10
4.34822e-10
4.08066e-10
3.81476e-10
3.54688e-10
3.28086e-10
3.01267e-10
2.74679e-10
2.47814e-10
2.21256e-10
1.94341e-10
1.67813e-10
1.40834e-10
1.14349e-10
8.72917e-11
6.08737e-11
3.37139e-11
7.38213e-12
-1.99071e-11
-4.61253e-11
-7.35728e-11
-9.9639e-11
-1.27273e-10
-1.53146e-10
-1.81038e-10
-2.06643e-10
-2.34856e-10
-2.60135e-10
-2.8874e-10
-3.13591e-10
-3.42711e-10
-3.66995e-10
-3.96758e-10
-4.20335e-10
-4.5094e-10
-4.73601e-10
-5.05237e-10
-5.26729e-10
-5.59698e-10
-5.797e-10
-6.14339e-10
-6.32472e-10
-6.69179e-10
-6.84986e-10
-7.24309e-10
-7.37181e-10
-7.79692e-10
-7.89011e-10
-8.35385e-10
-8.40422e-10
-8.91347e-10
-8.91422e-10
-9.47496e-10
-9.42129e-10
-1.00357e-09
-9.929e-10
-1.05902e-09
-1.04459e-09
-1.11273e-09
-1.09916e-09
-1.16236e-09
-1.16094e-09
-1.20329e-09
-1.23968e-09
-1.2256e-09
-1.35754e-09
-1.20555e-09
-1.56689e-09
-1.07127e-09
-1.99211e-09
-4.97639e-10
-2.89057e-09
3.7433e-09
-1.55294e-09
-1.55294e-09
-0.0952159
0.0952159
0.0129756
0.00385462
0.00193431
0.0011962
0.000821745
0.000602318
0.000462071
0.000367045
0.000299834
0.000250649
0.000213605
0.000184998
0.000162404
0.000144199
0.000129263
0.000116813
0.000106288
9.728e-05
8.94867e-05
8.26815e-05
7.66906e-05
7.13792e-05
6.6641e-05
6.23909e-05
5.85602e-05
5.50925e-05
5.19411e-05
4.90668e-05
4.64369e-05
4.40232e-05
4.18019e-05
3.97522e-05
3.78564e-05
3.60989e-05
3.44661e-05
3.2946e-05
3.15283e-05
3.02036e-05
2.89636e-05
2.78011e-05
2.67094e-05
2.56828e-05
2.47159e-05
2.38041e-05
2.29431e-05
2.21291e-05
2.13584e-05
2.06281e-05
1.99351e-05
1.92769e-05
1.86511e-05
1.80555e-05
1.74881e-05
1.69469e-05
1.64305e-05
1.59371e-05
1.54653e-05
1.50139e-05
1.45816e-05
1.41673e-05
1.37699e-05
1.33884e-05
1.30221e-05
1.26699e-05
1.23311e-05
1.20051e-05
1.16911e-05
1.13885e-05
1.10967e-05
1.08151e-05
1.05434e-05
1.02808e-05
1.00271e-05
9.7818e-06
9.54447e-06
9.31475e-06
9.09231e-06
8.87681e-06
8.66793e-06
8.46539e-06
8.26892e-06
8.07825e-06
7.89314e-06
7.71336e-06
7.53869e-06
7.36892e-06
7.20387e-06
7.04334e-06
6.88716e-06
6.73518e-06
6.58722e-06
6.44314e-06
6.30281e-06
6.16609e-06
6.03284e-06
5.90295e-06
5.77631e-06
5.65281e-06
5.53233e-06
5.41479e-06
5.30008e-06
5.18812e-06
5.07882e-06
4.97209e-06
4.86787e-06
4.76606e-06
4.66661e-06
4.56944e-06
4.47449e-06
4.38168e-06
4.29097e-06
4.20229e-06
4.11558e-06
4.0308e-06
3.94789e-06
3.86679e-06
3.78747e-06
3.70988e-06
3.63396e-06
3.55968e-06
3.487e-06
3.41588e-06
3.34627e-06
3.27814e-06
3.21146e-06
3.14619e-06
3.08229e-06
3.01974e-06
2.95849e-06
2.89853e-06
2.83982e-06
2.78233e-06
2.72603e-06
2.6709e-06
2.61692e-06
2.56404e-06
2.51226e-06
2.46155e-06
2.41188e-06
2.36323e-06
2.31558e-06
2.26891e-06
2.22319e-06
2.17842e-06
2.13456e-06
2.09161e-06
2.04953e-06
2.00832e-06
1.96796e-06
1.92842e-06
1.8897e-06
1.85176e-06
1.8146e-06
1.77819e-06
1.74252e-06
1.70756e-06
1.67329e-06
1.63968e-06
1.60672e-06
1.57438e-06
1.54263e-06
1.51145e-06
1.4808e-06
1.45067e-06
1.42101e-06
1.39181e-06
1.36302e-06
1.33463e-06
1.30661e-06
1.27892e-06
1.25154e-06
1.22445e-06
1.19762e-06
1.17103e-06
1.14466e-06
1.11849e-06
1.0925e-06
1.06668e-06
1.04101e-06
1.0155e-06
9.90127e-07
9.64886e-07
9.39773e-07
9.14787e-07
8.8993e-07
8.65207e-07
8.40622e-07
8.1618e-07
7.91887e-07
7.67749e-07
7.43776e-07
7.19981e-07
6.96379e-07
6.72985e-07
6.49816e-07
6.26883e-07
6.04201e-07
5.81782e-07
5.59641e-07
5.37797e-07
5.1627e-07
4.95081e-07
4.74249e-07
4.53789e-07
4.33713e-07
4.14034e-07
3.94761e-07
3.75909e-07
3.57495e-07
3.39538e-07
3.22052e-07
3.05052e-07
2.88544e-07
2.72531e-07
2.57014e-07
2.41994e-07
2.27477e-07
2.13469e-07
1.9998e-07
1.87016e-07
1.7458e-07
1.6267e-07
1.51279e-07
1.40397e-07
1.30013e-07
1.20121e-07
1.10717e-07
1.01798e-07
9.33634e-08
8.54095e-08
7.79277e-08
7.0905e-08
6.43247e-08
5.81686e-08
5.24191e-08
4.70613e-08
4.20831e-08
3.74745e-08
3.32258e-08
2.93254e-08
2.57593e-08
2.25098e-08
1.95571e-08
1.688e-08
1.4458e-08
1.22726e-08
1.03077e-08
8.54976e-09
6.98657e-09
5.60656e-09
4.39765e-09
3.34659e-09
2.43893e-09
1.65944e-09
9.92841e-10
4.24464e-10
-5.89259e-11
-4.68926e-10
-8.15393e-10
-1.10672e-09
-1.35015e-09
-1.55222e-09
-1.71901e-09
-1.8563e-09
-1.96955e-09
-2.06377e-09
-2.14341e-09
-2.2122e-09
-2.27308e-09
-2.32822e-09
-2.37913e-09
-2.42685e-09
-2.47199e-09
-2.515e-09
-2.55625e-09
-2.59606e-09
-2.63474e-09
-2.67265e-09
-2.71006e-09
-2.74723e-09
-2.78434e-09
-2.8215e-09
-2.85875e-09
-2.89608e-09
-2.93348e-09
-2.97087e-09
-3.00822e-09
-3.04554e-09
-3.08277e-09
-3.11996e-09
-3.15709e-09
-3.19423e-09
-3.23136e-09
-3.26851e-09
-3.30569e-09
-3.3429e-09
-3.38013e-09
-3.4174e-09
-3.45465e-09
-3.49193e-09
-3.5292e-09
-3.56647e-09
-3.60373e-09
-3.64101e-09
-3.67825e-09
-3.71555e-09
-3.75281e-09
-3.79012e-09
-3.82739e-09
-3.86473e-09
-3.90202e-09
-3.93939e-09
-3.97667e-09
-4.01407e-09
-4.05136e-09
-4.08879e-09
-4.12609e-09
-4.16355e-09
-4.20082e-09
-4.23833e-09
-4.2756e-09
-4.31314e-09
-4.3504e-09
-4.38801e-09
-4.42522e-09
-4.46291e-09
-4.50007e-09
-4.53785e-09
-4.57495e-09
-4.61284e-09
-4.64985e-09
-4.68788e-09
-4.72478e-09
-4.76297e-09
-4.79971e-09
-4.83812e-09
-4.87466e-09
-4.91335e-09
-4.9496e-09
-4.98862e-09
-5.02454e-09
-5.06399e-09
-5.09946e-09
-5.13946e-09
-5.17432e-09
-5.21504e-09
-5.24914e-09
-5.29076e-09
-5.32386e-09
-5.36663e-09
-5.39846e-09
-5.4427e-09
-5.47288e-09
-5.519e-09
-5.54707e-09
-5.59559e-09
-5.62095e-09
-5.67252e-09
-5.69443e-09
-5.74987e-09
-5.76741e-09
-5.82776e-09
-5.83971e-09
-5.90626e-09
-5.91119e-09
-5.98551e-09
-5.98163e-09
-6.06563e-09
-6.05084e-09
-6.14673e-09
-6.11856e-09
-6.22887e-09
-6.18466e-09
-6.31198e-09
-6.24915e-09
-6.39569e-09
-6.31241e-09
-6.47908e-09
-6.37578e-09
-6.56011e-09
-6.4424e-09
-6.6346e-09
-6.51956e-09
-6.69412e-09
-6.62338e-09
-6.72161e-09
-6.78994e-09
-6.68087e-09
-7.10177e-09
-6.48537e-09
-7.75289e-09
-5.87229e-09
-9.19932e-09
-3.64539e-09
-1.23256e-08
1.19214e-08
-7.35358e-09
-7.35358e-09
-0.125293
0.125293
0.0249359
0.00835802
0.004278
0.00266152
0.00183374
0.00134636
0.00103389
0.000821708
0.000671391
0.000561254
0.000478236
0.000414089
0.000363415
0.00032258
0.000289084
0.000261168
0.000237575
0.00021739
0.000199933
0.000184695
0.000171285
0.0001594
0.0001488
0.000139294
0.000130729
0.000122977
0.000115933
0.000109509
0.000103632
9.82396e-05
9.32771e-05
8.86985e-05
8.4464e-05
8.05386e-05
7.68921e-05
7.34977e-05
7.03318e-05
6.73738e-05
6.46053e-05
6.20097e-05
5.95725e-05
5.72806e-05
5.51222e-05
5.30868e-05
5.11649e-05
4.93477e-05
4.76276e-05
4.59975e-05
4.44508e-05
4.29818e-05
4.15851e-05
4.02558e-05
3.89895e-05
3.77819e-05
3.66293e-05
3.55283e-05
3.44757e-05
3.34684e-05
3.25038e-05
3.15793e-05
3.06925e-05
2.98415e-05
2.9024e-05
2.82382e-05
2.74824e-05
2.67551e-05
2.60545e-05
2.53794e-05
2.47285e-05
2.41005e-05
2.34942e-05
2.29086e-05
2.23426e-05
2.17954e-05
2.1266e-05
2.07537e-05
2.02575e-05
1.97769e-05
1.9311e-05
1.88593e-05
1.84211e-05
1.79959e-05
1.75831e-05
1.71822e-05
1.67927e-05
1.64141e-05
1.6046e-05
1.56881e-05
1.53399e-05
1.5001e-05
1.46711e-05
1.43498e-05
1.4037e-05
1.37321e-05
1.34351e-05
1.31455e-05
1.28632e-05
1.25879e-05
1.23193e-05
1.20573e-05
1.18016e-05
1.1552e-05
1.13084e-05
1.10705e-05
1.08382e-05
1.06113e-05
1.03896e-05
1.01731e-05
9.96146e-06
9.75463e-06
9.55247e-06
9.35484e-06
9.16162e-06
8.97269e-06
8.78793e-06
8.60723e-06
8.43048e-06
8.25758e-06
8.08843e-06
7.92293e-06
7.76099e-06
7.60252e-06
7.44744e-06
7.29566e-06
7.1471e-06
7.00168e-06
6.85933e-06
6.71997e-06
6.58353e-06
6.44995e-06
6.31916e-06
6.1911e-06
6.0657e-06
5.9429e-06
5.82264e-06
5.70487e-06
5.58953e-06
5.47657e-06
5.36594e-06
5.25758e-06
5.15145e-06
5.0475e-06
4.94569e-06
4.84597e-06
4.74829e-06
4.65262e-06
4.55892e-06
4.46714e-06
4.37724e-06
4.28919e-06
4.20293e-06
4.11844e-06
4.03567e-06
3.95457e-06
3.8751e-06
3.79721e-06
3.72085e-06
3.64597e-06
3.57252e-06
3.50043e-06
3.42965e-06
3.36012e-06
3.29177e-06
3.22455e-06
3.15839e-06
3.09322e-06
3.02897e-06
2.96559e-06
2.90301e-06
2.84116e-06
2.78e-06
2.71946e-06
2.6595e-06
2.60006e-06
2.5411e-06
2.48258e-06
2.42445e-06
2.36671e-06
2.30931e-06
2.25224e-06
2.19548e-06
2.13902e-06
2.08284e-06
2.02696e-06
1.97136e-06
1.91607e-06
1.86109e-06
1.80644e-06
1.75213e-06
1.69817e-06
1.6446e-06
1.59143e-06
1.5387e-06
1.48645e-06
1.43472e-06
1.38352e-06
1.3329e-06
1.28287e-06
1.23349e-06
1.18478e-06
1.13679e-06
1.08957e-06
1.04316e-06
9.97589e-07
9.52892e-07
9.0909e-07
8.66209e-07
8.24282e-07
7.83345e-07
7.43438e-07
7.04595e-07
6.66842e-07
6.30196e-07
5.94661e-07
5.60241e-07
5.26938e-07
4.94764e-07
4.63735e-07
4.33868e-07
4.05178e-07
3.77669e-07
3.51334e-07
3.26158e-07
3.02117e-07
2.79189e-07
2.5736e-07
2.36621e-07
2.16966e-07
1.9839e-07
1.80884e-07
1.64428e-07
1.4899e-07
1.34533e-07
1.21018e-07
1.08405e-07
9.66623e-08
8.57623e-08
7.56822e-08
6.63991e-08
5.78865e-08
5.01114e-08
4.30341e-08
3.66099e-08
3.07923e-08
2.55363e-08
2.08011e-08
1.65516e-08
1.27575e-08
9.39166e-09
6.42784e-09
3.83859e-09
1.59406e-09
-3.38044e-10
-1.99147e-09
-3.39988e-09
-4.59518e-09
-5.60624e-09
-6.45821e-09
-7.17252e-09
-7.76742e-09
-8.25881e-09
-8.66098e-09
-8.9873e-09
-9.25036e-09
-9.46207e-09
-9.63326e-09
-9.77349e-09
-9.8907e-09
-9.99111e-09
-1.00793e-08
-1.01586e-08
-1.02309e-08
-1.02977e-08
-1.036e-08
-1.04185e-08
-1.04739e-08
-1.0527e-08
-1.05785e-08
-1.06289e-08
-1.06788e-08
-1.07286e-08
-1.07785e-08
-1.08287e-08
-1.08789e-08
-1.09293e-08
-1.09797e-08
-1.103e-08
-1.10801e-08
-1.11301e-08
-1.118e-08
-1.12298e-08
-1.12795e-08
-1.13293e-08
-1.13791e-08
-1.14289e-08
-1.14788e-08
-1.15288e-08
-1.15788e-08
-1.16288e-08
-1.16788e-08
-1.17288e-08
-1.17788e-08
-1.18287e-08
-1.18787e-08
-1.19286e-08
-1.19786e-08
-1.20286e-08
-1.20786e-08
-1.21285e-08
-1.21786e-08
-1.22285e-08
-1.22787e-08
-1.23286e-08
-1.23788e-08
-1.24287e-08
-1.2479e-08
-1.25289e-08
-1.25792e-08
-1.2629e-08
-1.26794e-08
-1.27292e-08
-1.27797e-08
-1.28295e-08
-1.288e-08
-1.29297e-08
-1.29804e-08
-1.303e-08
-1.30809e-08
-1.31303e-08
-1.31814e-08
-1.32306e-08
-1.3282e-08
-1.3331e-08
-1.33827e-08
-1.34313e-08
-1.34835e-08
-1.35317e-08
-1.35844e-08
-1.3632e-08
-1.36854e-08
-1.37322e-08
-1.37866e-08
-1.38324e-08
-1.3888e-08
-1.39325e-08
-1.39895e-08
-1.40324e-08
-1.40913e-08
-1.41321e-08
-1.41935e-08
-1.42315e-08
-1.4296e-08
-1.43304e-08
-1.4399e-08
-1.44289e-08
-1.45025e-08
-1.45267e-08
-1.46068e-08
-1.46235e-08
-1.4712e-08
-1.47193e-08
-1.48182e-08
-1.48136e-08
-1.49257e-08
-1.4906e-08
-1.50348e-08
-1.49963e-08
-1.51457e-08
-1.50838e-08
-1.52587e-08
-1.51681e-08
-1.53738e-08
-1.52489e-08
-1.5491e-08
-1.53261e-08
-1.56095e-08
-1.54006e-08
-1.57272e-08
-1.54751e-08
-1.58399e-08
-1.55565e-08
-1.59388e-08
-1.566e-08
-1.6006e-08
-1.582e-08
-1.60057e-08
-1.61132e-08
-1.58619e-08
-1.67153e-08
-1.5393e-08
-1.80381e-08
-1.40473e-08
-2.10426e-08
-9.30384e-09
-2.75086e-08
2.32009e-08
-1.70434e-08
-1.70434e-08
-0.146488
0.146488
0.0383105
0.0142341
0.00745603
0.00467275
0.00323055
0.00237653
0.00182708
0.00145307
0.00118763
0.000992888
0.000845963
0.000732368
0.0006426
0.000570254
0.000510912
0.000461465
0.000419686
0.00038395
0.000353055
0.000326095
0.000302376
0.000281359
0.00026262
0.00024582
0.000230684
0.000216987
0.000204543
0.000193198
0.000182819
0.000173296
0.000164534
0.00015645
0.000148974
0.000142045
0.000135608
0.000129616
0.000124028
0.000118808
0.000113922
0.000109341
0.00010504
0.000100996
9.7187e-05
9.35954e-05
9.02042e-05
8.6998e-05
8.39631e-05
8.10869e-05
7.83582e-05
7.57666e-05
7.33025e-05
7.09574e-05
6.87234e-05
6.65931e-05
6.456e-05
6.26178e-05
6.07609e-05
5.89842e-05
5.72827e-05
5.5652e-05
5.4088e-05
5.25869e-05
5.1145e-05
4.97592e-05
4.84263e-05
4.71435e-05
4.5908e-05
4.47175e-05
4.35695e-05
4.2462e-05
4.13928e-05
4.03601e-05
3.93622e-05
3.83973e-05
3.74638e-05
3.65604e-05
3.56856e-05
3.48381e-05
3.40167e-05
3.32203e-05
3.24478e-05
3.16981e-05
3.09703e-05
3.02635e-05
2.95769e-05
2.89095e-05
2.82607e-05
2.76297e-05
2.70159e-05
2.64185e-05
2.5837e-05
2.52708e-05
2.47194e-05
2.41821e-05
2.36585e-05
2.31482e-05
2.26506e-05
2.21654e-05
2.16921e-05
2.12303e-05
2.07797e-05
2.034e-05
1.99106e-05
1.94915e-05
1.90821e-05
1.86823e-05
1.82917e-05
1.79102e-05
1.75373e-05
1.71729e-05
1.68167e-05
1.64685e-05
1.61281e-05
1.57953e-05
1.54698e-05
1.51514e-05
1.48401e-05
1.45355e-05
1.42375e-05
1.3946e-05
1.36607e-05
1.33816e-05
1.31084e-05
1.28411e-05
1.25794e-05
1.23233e-05
1.20726e-05
1.18271e-05
1.15868e-05
1.13516e-05
1.11212e-05
1.08957e-05
1.06748e-05
1.04586e-05
1.02468e-05
1.00394e-05
9.83629e-06
9.63737e-06
9.44255e-06
9.25174e-06
9.06486e-06
8.88182e-06
8.70254e-06
8.52695e-06
8.35496e-06
8.1865e-06
8.02151e-06
7.8599e-06
7.70161e-06
7.54656e-06
7.39468e-06
7.2459e-06
7.10013e-06
6.95731e-06
6.81734e-06
6.68015e-06
6.54565e-06
6.41375e-06
6.28433e-06
6.15731e-06
6.03258e-06
5.91002e-06
5.78954e-06
5.67102e-06
5.55435e-06
5.4394e-06
5.32606e-06
5.21422e-06
5.10377e-06
4.99461e-06
4.88663e-06
4.77974e-06
4.67385e-06
4.56886e-06
4.46471e-06
4.36131e-06
4.25862e-06
4.15659e-06
4.05516e-06
3.95432e-06
3.85402e-06
3.75425e-06
3.65499e-06
3.55624e-06
3.45802e-06
3.36034e-06
3.26322e-06
3.16669e-06
3.07078e-06
2.97551e-06
2.88093e-06
2.78708e-06
2.69404e-06
2.60185e-06
2.51059e-06
2.4203e-06
2.33104e-06
2.24287e-06
2.15583e-06
2.07002e-06
1.9855e-06
1.90235e-06
1.82066e-06
1.74047e-06
1.66183e-06
1.58479e-06
1.5094e-06
1.4357e-06
1.36378e-06
1.29368e-06
1.22548e-06
1.15921e-06
1.0949e-06
1.03257e-06
9.72205e-07
9.13826e-07
8.57448e-07
8.03098e-07
7.50806e-07
7.00593e-07
6.52466e-07
6.0641e-07
5.62395e-07
5.2038e-07
4.80331e-07
4.42219e-07
4.06028e-07
3.7175e-07
3.39372e-07
3.08873e-07
2.80216e-07
2.53346e-07
2.28197e-07
2.04697e-07
1.82781e-07
1.62391e-07
1.43479e-07
1.26004e-07
1.09924e-07
9.51907e-08
8.17438e-08
6.95129e-08
5.84191e-08
4.8381e-08
3.93206e-08
3.11672e-08
2.38595e-08
1.73445e-08
1.1574e-08
6.50137e-09
2.07741e-09
-1.75083e-09
-5.04025e-09
-7.84986e-09
-1.02381e-08
-1.22602e-08
-1.39659e-08
-1.53984e-08
-1.65945e-08
-1.75859e-08
-1.84e-08
-1.90617e-08
-1.9594e-08
-2.00188e-08
-2.03566e-08
-2.06258e-08
-2.08429e-08
-2.10211e-08
-2.11711e-08
-2.13005e-08
-2.14147e-08
-2.15171e-08
-2.16102e-08
-2.16956e-08
-2.17745e-08
-2.18483e-08
-2.19181e-08
-2.19852e-08
-2.20507e-08
-2.21153e-08
-2.21798e-08
-2.22445e-08
-2.23095e-08
-2.23748e-08
-2.24402e-08
-2.25056e-08
-2.25708e-08
-2.26358e-08
-2.27005e-08
-2.2765e-08
-2.28293e-08
-2.28936e-08
-2.29579e-08
-2.30223e-08
-2.30868e-08
-2.31513e-08
-2.32159e-08
-2.32806e-08
-2.33453e-08
-2.341e-08
-2.34746e-08
-2.35393e-08
-2.36038e-08
-2.36685e-08
-2.3733e-08
-2.37976e-08
-2.38622e-08
-2.39269e-08
-2.39914e-08
-2.40561e-08
-2.41207e-08
-2.41855e-08
-2.425e-08
-2.43149e-08
-2.43794e-08
-2.44444e-08
-2.45088e-08
-2.45739e-08
-2.46383e-08
-2.47034e-08
-2.47677e-08
-2.48331e-08
-2.48972e-08
-2.49627e-08
-2.50268e-08
-2.50925e-08
-2.51563e-08
-2.52224e-08
-2.52859e-08
-2.53523e-08
-2.54155e-08
-2.54824e-08
-2.55451e-08
-2.56126e-08
-2.56747e-08
-2.57429e-08
-2.58043e-08
-2.58734e-08
-2.59338e-08
-2.60041e-08
-2.60631e-08
-2.6135e-08
-2.61924e-08
-2.62662e-08
-2.63214e-08
-2.63978e-08
-2.64501e-08
-2.65298e-08
-2.65784e-08
-2.66622e-08
-2.67062e-08
-2.67953e-08
-2.68333e-08
-2.69292e-08
-2.69595e-08
-2.70641e-08
-2.70844e-08
-2.72001e-08
-2.72079e-08
-2.73376e-08
-2.73293e-08
-2.74769e-08
-2.74483e-08
-2.76183e-08
-2.75641e-08
-2.77624e-08
-2.76761e-08
-2.79096e-08
-2.77835e-08
-2.80603e-08
-2.78853e-08
-2.82146e-08
-2.7981e-08