# vtk DataFile Version 2.0
FlowField
ASCII
DATASET STRUCTURED_GRID
DIMENSIONS 400 1 200
POINTS 80000 float
0 0 0
0.08 0 0
0.16 0 0
0.24 0 0
0.32 0 0
0.4 0 0
0.48 0 0
0.56 0 0
0.64 0 0
0.72 0 0
0.8 0 0
0.88 0 0
0.96 0 0
1.04 0 0
1.12 0 0
1.2 0 0
1.28 0 0
1.36 0 0
1.44 0 0
1.52 0 0
1.6 0 0
1.68 0 0
1.76 0 0
1.84 0 0
1.92 0 0
2 0 0
2.08 0 0
2.16 0 0
2.24 0 0
2.32 0 0
2.4 0 0
2.48 0 0
2.56 0 0
2.64 0 0
2.72 0 0
2.8 0 0
2.88 0 0
2.96 0 0
3.04 0 0
3.12 0 0
3.2 0 0
3.28 0 0
3.36 0 0
3.44 0 0
3.52 0 0
3.6 0 0
3.68 0 0
3.76 0 0
3.84 0 0
3.92 0 0
4 0 0
4.08 0 0
4.16 0 0
4.24 0 0
4.32 0 0
4.4 0 0
4.48 0 0
4.56 0 0
4.64 0 0
4.72 0 0
4.8 0 0
4.88 0 0
4.96 0 0
5.04 0 0
5.12 0 0
5.2 0 0
5.28 0 0
5.36 0 0
5.44 0 0
5.52 0 0
5.6 0 0
5.68 0 0
5.76 0 0
5.84 0 0
5.92 0 0
6 0 0
6.08 0 0
6.16 0 0
6.24 0 0
6.32 0 0
6.4 0 0
6.48 0 0
6.56 0 0
6.64 0 0
6.72 0 0
6.8 0 0
6.88 0 0
6.96 0 0
7.04 0 0
7.12 0 0
7.2 0 0
7.28 0 0
7.36 0 0
7.44 0 0
7.52 0 0
7.6 0 0
7.68 0 0
7.76 0 0
7.84 0 0
7.92 0 0
8 0 0
8.08 0 0
8.16 0 0
8.24 0 0
8.32 0 0
8.4 0 0
8.48 0 0
8.56 0 0
8.64 0 0
8.72 0 0
8.8 0 0
8.88 0 0
8.96 0 0
9.04 0 0
9.12 0 0
9.2 0 0
9.28 0 0
9.36 0 0
9.44 0 0
9.52 0 0
9.6 0 0
9.68 0 0
9.76 0 0
9.84 0 0
9.92 0 0
10 0 0
10.08 0 0
10.16 0 0
10.24 0 0
10.32 0 0
10.4 0 0
10.48 0 0
10.56 0 0
10.64 0 0
10.72 0 0
10.8 0 0
10.88 0 0
10.96 0 0
11.04 0 0
11.12 0 0
11.2 0 0
11.28 0 0
11.36 0 0
11.44 0 0
11.52 0 0
11.6 0 0
11.68 0 0
11.76 0 0
11.84 0 0
11.92 0 0
12 0 0
12.08 0 0
12.16 0 0
12.24 0 0
12.32 0 0
12.4 0 0
12.48 0 0
12.56 0 0
12.64 0 0
12.72 0 0
12.8 0 0
12.88 0 0
12.96 0 0
13.04 0 0
13.12 0 0
13.2 0 0
13.28 0 0
13.36 0 0
13.44 0 0
13.52 0 0
13.6 0 0
13.68 0 0
13.76 0 0
13.84 0 0
13.92 0 0
14 0 0
14.08 0 0
14.16 0 0
14.24 0 0
14.32 0 0
14.4 0 0
14.48 0 0
14.56 0 0
14.64 0 0
14.72 0 0
14.8 0 0
14.88 0 0
14.96 0 0
15.04 0 0
15.12 0 0
15.2 0 0
15.28 0 0
15.36 0 0
15.44 0 0
15.52 0 0
15.6 0 0
15.68 0 0
15.76 0 0
15.84 0 0
15.92 0 0
16 0 0
16.08 0 0
16.16 0 0
16.24 0 0
16.32 0 0
16.4 0 0
16.48 0 0
16.56 0 0
16.64 0 0
16.72 0 0
16.8 0 0
16.88 0 0
16.96 0 0
17.04 0 0
17.12 0 0
17.2 0 0
17.28 0 0
17.36 0 0
17.44 0 0
17.52 0 0
17.6 0 0
17.68 0 0
17.76 0 0
17.84 0 0
17.92 0 0
18 0 0
18.08 0 0
18.16 0 0
18.24 0 0
18.32 0 0
18.4 0 0
18.48 0 0
18.56 0 0
18.64 0 0
18.72 0 0
18.8 0 0
18.88 0 0
18.96 0 0
19.04 0 0
19.12 0 0
19.2 0 0
19.28 0 0
19.36 0 0
19.44 0 0
19.52 0 0
19.6 0 0
19.68 0 0
19.76 0 0
19.84 0 0
19.92 0 0
20 0 0
20.08 0 0
20.16 0 0
20.24 0 0
20.32 0 0
20.4 0 0
20.48 0 0
20.56 0 0
20.64 0 0
20.72 0 0
20.8 0 0
20.88 0 0
20.96 0 0
21.04 0 0
21.12 0 0
21.2 0 0
21.28 0 0
21.36 0 0
21.44 0 0
21.52 0 0
21.6 0 0
21.68 0 0
21.76 0 0
21.84 0 0
21.92 0 0
22 0 0
22.08 0 0
22.16 0 0
22.24 0 0
22.32 0 0
22.4 0 0
22.48 0 0
22.56 0 0
22.64 0 0
22.72 0 0
22.8 0 0
22.88 0 0
22.96 0 0
23.04 0 0
23.12 0 0
23.2 0 0
23.28 0 0
23.36 0 0
23.44 0 0
23.52 0 0
23.6 0 0
23.68 0 0
23.76 0 0
23.84 0 0
23.92 0 0
24 0 0
24.08 0 0
24.16 0 0
24.24 0 0
24.32 0 0
24.4 0 0
24.48 0 0
24.56 0 0
24.64 0 0
24.72 0 0
24.8 0 0
24.88 0 0
24.96 0 0
25.04 0 0
25.12 0 0
25.2 0 0
25.28 0 0
25.36 0 0
25.44 0 0
25.52 0 0
25.6 0 0
25.68 0 0
25.76 0 0
25.84 0 0
25.92 0 0
26 0 0
26.08 0 0
26.16 0 0
26.24 0 0
26.32 0 0
26.4 0 0
26.48 0 0
26.56 0 0
26.64 0 0
26.72 0 0
26.8 0 0
26.88 0 0
26.96 0 0
27.04 0 0
27.12 0 0
27.2 0 0
27.28 0 0
27.36 0 0
27.44 0 0
27.52 0 0
27.6 0 0
27.68 0 0
27.76 0 0
27.84 0 0
27.92 0 0
28 0 0
28.08 0 0
28.16 0 0
28.24 0 0
28.32 0 0
28.4 0 0
28.48 0 0
28.56 0 0
28.64 0 0
28.72 0 0
28.8 0 0
28.88 0 0
28.96 0 0
29.04 0 0
29.12 0 0
29.2 0 0
29.28 0 0
29.36 0 0
29.44 0 0
29.52 0 0
29.6 0 0
29.68 0 0
29.76 0 0
29.84 0 0
29.92 0 0
30 0 0
30.08 0 0
30.16 0 0
30.24 0 0
30.32 0 0
30.4 0 0
30.48 0 0
30.56 0 0
30.64 0 0
30.72 0 0
30.8 0 0
30.88 0 0
30.96 0 0
31.04 0 0
31.12 0 0
31.2 0 0
31.28 0 0
31.36 0 0
31.44 0 0
31.52 0 0
31.6 0 0
31.68 0 0
31.76 0 0
31.84 0 0
31.92 0 0
0 0.005 0
0.08 0.005 0
0.16 0.005 0
0.24 0.005 0
0.32 0.005 0
0.4 0.005 0
0.48 0.005 0
0.56 0.005 0
0.64 0.005 0
0.72 0.005 0
0.8 0.005 0
0.88 0.005 0
0.96 0.005 0
1.04 0.005 0
1.12 0.005 0
1.2 0.005 0
1.28 0.005 0
1.36 0.005 0
1.44 0.005 0
1.52 0.005 0
1.6 0.005 0
1.68 0.005 0
1.76 0.005 0
1.84 0.005 0
1.92 0.005 0
2 0.005 0
2.08 0.005 0
2.16 0.005 0
2.24 0.005 0
2.32 0.005 0
2.4 0.005 0
2.48 0.005 0
2.56 0.005 0
2.64 0.005 0
2.72 0.005 0
2.8 0.005 0
2.88 0.005 0
2.96 0.005 0
3.04 0.005 0
3.12 0.005 0
3.2 0.005 0
3.28 0.005 0
3.36 0.005 0
3.44 0.005 0
3.52 0.005 0
3.6 0.005 0
3.68 0.005 0
3.76 0.005 0
3.84 0.005 0
3.92 0.005 0
4 0.005 0
4.08 0.005 0
4.16 0.005 0
4.24 0.005 0
4.32 0.005 0
4.4 0.005 0
4.48 0.005 0
4.56 0.005 0
4.64 0.005 0
4.72 0.005 0
4.8 0.005 0
4.88 0.005 0
4.96 0.005 0
5.04 0.005 0
5.12 0.005 0
5.2 0.005 0
5.28 0.005 0
5.36 0.005 0
5.44 0.005 0
5.52 0.005 0
5.6 0.005 0
5.68 0.005 0
5.76 0.005 0
5.84 0.005 0
5.92 0.005 0
6 0.005 0
6.08 0.005 0
6.16 0.005 0
6.24 0.005 0
6.32 0.005 0
6.4 0.005 0
6.48 0.005 0
6.56 0.005 0
6.64 0.005 0
6.72 0.005 0
6.8 0.005 0
6.88 0.005 0
6.96 0.005 0
7.04 0.005 0
7.12 0.005 0
7.2 0.005 0
7.28 0.005 0
7.36 0.005 0
7.44 0.005 0
7.52 0.005 0
7.6 0.005 0
7.68 0.005 0
7.76 0.005 0
7.84 0.005 0
7.92 0.005 0
8 0.005 0
8.08 0.005 0
8.16 0.005 0
8.24 0.005 0
8.32 0.005 0
8.4 0.005 0
8.48 0.005 0
8.56 0.005 0
8.64 0.005 0
8.72 0.005 0
8.8 0.005 0
8.88 0.005 0
8.96 0.005 0
9.04 0.005 0
9.12 0.005 0
9.2 0.005 0
9.28 0.005 0
9.36 0.005 0
9.44 0.005 0
9.52 0.005 0
9.6 0.005 0
9.68 0.005 0
9.76 0.005 0
9.84 0.005 0
9.92 0.005 0
10 0.005 0
10.08 0.005 0
10.16 0.005 0
10.24 0.005 0
10.32 0.005 0
10.4 0.005 0
10.48 0.005 0
10.56 0.005 0
10.64 0.005 0
10.72 0.005 0
10.8 0.005 0
10.88 0.005 0
10.96 0.005 0
11.04 0.005 0
11.12 0.005 0
11.2 0.005 0
11.28 0.005 0
11.36 0.005 0
11.44 0.005 0
11.52 0.005 0
11.6 0.005 0
11.68 0.005 0
11.76 0.005 0
11.84 0.005 0
11.92 0.005 0
12 0.005 0
12.08 0.005 0
12.16 0.005 0
12.24 0.005 0
12.32 0.005 0
12.4 0.005 0
12.48 0.005 0
12.56 0.005 0
12.64 0.005 0
12.72 0.005 0
12.8 0.005 0
12.88 0.005 0
12.96 0.005 0
13.04 0.005 0
13.12 0.005 0
13.2 0.005 0
13.28 0.005 0
13.36 0.005 0
13.44 0.005 0
13.52 0.005 0
13.6 0.005 0
13.68 0.005 0
13.76 0.005 0
13.84 0.005 0
13.92 0.005 0
14 0.005 0
14.08 0.005 0
14.16 0.005 0
14.24 0.005 0
14.32 0.005 0
14.4 0.005 0
14.48 0.005 0
14.56 0.005 0
14.64 0.005 0
14.72 0.005 0
14.8 0.005 0
14.88 0.005 0
14.96 0.005 0
15.04 0.005 0
15.12 0.005 0
15.2 0.005 0
15.28 0.005 0
15.36 0.005 0
15.44 0.005 0
15.52 0.005 0
15.6 0.005 0
15.68 0.005 0
15.76 0.005 0
15.84 0.005 0
15.92 0.005 0
16 0.005 0
16.08 0.005 0
16.16 0.005 0
16.24 0.005 0
16.32 0.005 0
16.4 0.005 0
16.48 0.005 0
16.56 0.005 0
16.64 0.005 0
16.72 0.005 0
16.8 0.005 0
16.88 0.005 0
16.96 0.005 0
17.04 0.005 0
17.12 0.005 0
17.2 0.005 0
17.28 0.005 0
17.36 0.005 0
17.44 0.005 0
17.52 0.005 0
17.6 0.005 0
17.68 0.005 0
17.76 0.005 0
17.84 0.005 0
17.92 0.005 0
18 0.005 0
18.08 0.005 0
18.16 0.005 0
18.24 0.005 0
18.32 0.005 0
18.4 0.005 0
18.48 0.005 0
18.56 0.005 0
18.64 0.005 0
18.72 0.005 0
18.8 0.005 0
18.88 0.005 0
18.96 0.005 0
19.04 0.005 0
19.12 0.005 0
19.2 0.005 0
19.28 0.005 0
19.36 0.005 0
19.44 0.005 0
19.52 0.005 0
19.6 0.005 0
19.68 0.005 0
19.76 0.005 0
19.84 0.005 0
19.92 0.005 0
20 0.005 0
20.08 0.005 0
20.16 0.005 0
20.24 0.005 0
20.32 0.005 0
20.4 0.005 0
20.48 0.005 0
20.56 0.005 0
20.64 0.005 0
20.72 0.005 0
20.8 0.005 0
20.88 0.005 0
20.96 0.005 0
21.04 0.005 0
21.12 0.005 0
21.2 0.005 0
21.28 0.005 0
21.36 0.005 0
21.44 0.005 0
21.52 0.005 0
21.6 0.005 0
21.68 0.005 0
21.76 0.005 0
21.84 0.005 0
21.92 0.005 0
22 0.005 0
22.08 0.005 0
22.16 0.005 0
22.24 0.005 0
22.32 0.005 0
22.4 0.005 0
22.48 0.005 0
22.56 0.005 0
22.64 0.005 0
22.72 0.005 0
22.8 0.005 0
22.88 0.005 0
22.96 0.005 0
23.04 0.005 0
23.12 0.005 0
23.2 0.005 0
23.28 0.005 0
23.36 0.005 0
23.44 0.005 0
23.52 0.005 0
23.6 0.005 0
23.68 0.005 0
23.76 0.005 0
23.84 0.005 0
23.92 0.005 0
24 0.005 0
24.08 0.005 0
24.16 0.005 0
24.24 0.005 0
24.32 0.005 0
24.4 0.005 0
24.48 0.005 0
24.56 0.005 0
24.64 0.005 0
24.72 0.005 0
24.8 0.005 0
24.88 0.005 0
24.96 0.005 0
25.04 0.005 0
25.12 0.005 0
25.2 0.005 0
25.28 0.005 0
25.36 0.005 0
25.44 0.005 0
25.52 0.005 0
25.6 0.005 0
25.68 0.005 0
25.76 0.005 0
25.84 0.005 0
25.92 0.005 0
26 0.005 0
26.08 0.005 0
26.16 0.005 0
26.24 0.005 0
26.32 0.005 0
26.4 0.005 0
26.48 0.005 0
26.56 0.005 0
26.64 0.005 0
26.72 0.005 0
26.8 0.005 0
26.88 0.005 0
26.96 0.005 0
27.04 0.005 0
27.12 0.005 0
27.2 0.005 0
27.28 0.005 0
27.36 0.005 0
27.44 0.005 0
27.52 0.005 0
27.6 0.005 0
27.68 0.005 0
27.76 0.005 0
27.84 0.005 0
27.92 0.005 0
28 0.005 0
28.08 0.005 0
28.16 0.005 0
28.24 0.005 0
28.32 0.005 0
28.4 0.005 0
28.48 0.005 0
28.56 0.005 0
28.64 0.005 0
28.72 0.005 0
28.8 0.005 0
28.88 0.005 0
28.96 0.005 0
29.04 0.005 0
29.12 0.005 0
29.2 0.005 0
29.28 0.005 0
29.36 0.005 0
29.44 0.005 0
29.52 0.005 0
29.6 0.005 0
29.68 0.005 0
29.76 0.005 0
29.84 0.005 0
29.92 0.005 0
30 0.005 0
30.08 0.005 0
30.16 0.005 0
30.24 0.005 0
30.32 0.005 0
30.4 0.005 0
30.48 0.005 0
30.56 0.005 0
30.64 0.005 0
30.72 0.005 0
30.8 0.005 0
30.88 0.005 0
30.96 0.005 0
31.04 0.005 0
31.12 0.005 0
31.2 0.005 0
31.28 0.005 0
31.36 0.005 0
31.44 0.005 0
31.52 0.005 0
31.6 0.005 0
31.68 0.005 0
31.76 0.005 0
31.84 0.005 0
31.92 0.005 0
0 0.01 0
0.08 0.01 0
0.16 0.01 0
0.24 0.01 0
0.32 0.01 0
0.4 0.01 0
0.48 0.01 0
0.56 0.01 0
0.64 0.01 0
0.72 0.01 0
0.8 0.01 0
0.88 0.01 0
0.96 0.01 0
1.04 0.01 0
1.12 0.01 0
1.2 0.01 0
1.28 0.01 0
1.36 0.01 0
1.44 0.01 0
1.52 0.01 0
1.6 0.01 0
1.68 0.01 0
1.76 0.01 0
1.84 0.01 0
1.92 0.01 0
2 0.01 0
2.08 0.01 0
2.16 0.01 0
2.24 0.01 0
2.32 0.01 0
2.4 0.01 0
2.48 0.01 0
2.56 0.01 0
2.64 0.01 0
2.72 0.01 0
2.8 0.01 0
2.88 0.01 0
2.96 0.01 0
3.04 0.01 0
3.12 0.01 0
3.2 0.01 0
3.28 0.01 0
3.36 0.01 0
3.44 0.01 0
3.52 0.01 0
3.6 0.01 0
3.68 0.01 0
3.76 0.01 0
3.84 0.01 0
3.92 0.01 0
4 0.01 0
4.08 0.01 0
4.16 0.01 0
4.24 0.01 0
4.32 0.01 0
4.4 0.01 0
4.48 0.01 0
4.56 0.01 0
4.64 0.01 0
4.72 0.01 0
4.8 0.01 0
4.88 0.01 0
4.96 0.01 0
5.04 0.01 0
5.12 0.01 0
[...]
POINT_DATA 80000

SCALARS p float 1
LOOKUP_TABLE default
1
56.5446
56.2429
56.2017
56.1816
56.1672
56.1552
56.1445
56.1345
56.1249
56.1158
56.1069
56.0983
56.0899
56.0817
56.0737
56.0659
56.0582
56.0507
56.0433
56.0361
56.029
56.022
56.0152
56.0084
56.0018
55.9953
55.9889
55.9826
55.9764
55.9702
55.9641
55.9582
55.9523
55.9464
55.9407
55.935
55.9293
55.9237
55.9182
55.9127
55.9073
55.902
55.8967
55.8914
55.8862
55.881
55.8759
55.8708
55.8658
55.8608
55.8558
55.8509
55.846
55.8412
55.8364
55.8316
55.8269
55.8221
55.8174
55.8128
55.8082
55.8036
55.799
55.7945
55.7899
55.7854
55.781
55.7765
55.7721
55.7677
55.7634
55.759
55.7547
55.7504
55.7461
55.7418
55.7376
55.7334
55.7292
55.725
55.7208
55.7167
55.7125
55.7084
55.7043
55.7002
55.6962
55.6921
55.6881
55.684
55.68
55.6761
55.6721
55.6681
55.6642
55.6602
55.6563
55.6524
55.6485
55.6446
55.6407
55.6369
55.633
55.6292
55.6254
55.6216
55.6177
55.614
55.6102
55.6064
55.6026
55.5989
55.5951
55.5914
55.5877
55.584
55.5803
55.5766
55.5729
55.5692
55.5655
55.5618
55.5582
55.5545
55.5509
55.5473
55.5436
55.54
55.5364
55.5328
55.5292
55.5256
55.522
55.5184
55.5149
55.5113
55.5077
55.5042
55.5006
55.4971
55.4935
55.49
55.4865
55.4829
55.4794
55.4759
55.4724
55.4689
55.4654
55.4619
55.4584
55.4549
55.4514
55.448
55.4445
55.441
55.4376
55.4341
55.4306
55.4272
55.4237
55.4203
55.4169
55.4134
55.41
55.4066
55.4031
55.3997
55.3963
55.3929
55.3894
55.386
55.3826
55.3792
55.3758
55.3724
55.369
55.3656
55.3622
55.3588
55.3555
55.3521
55.3487
55.3453
55.3419
55.3385
55.3352
55.3318
55.3284
55.3251
55.3217
55.3183
55.315
55.3116
55.3083
55.3049
55.3016
55.2982
55.2948
55.2915
55.2882
55.2848
55.2815
55.2781
55.2748
55.2714
55.2681
55.2648
55.2614
55.2581
55.2548
55.2514
55.2481
55.2448
55.2415
55.2381
55.2348
55.2315
55.2282
55.2248
55.2215
55.2182
55.2149
55.2116
55.2083
55.2049
55.2016
55.1983
55.195
55.1917
55.1884
55.1851
55.1818
55.1785
55.1752
55.1719
55.1685
55.1652
55.1619
55.1586
55.1553
55.152
55.1487
55.1454
55.1421
55.1388
55.1355
55.1323
55.129
55.1257
55.1224
55.1191
55.1158
55.1125
55.1092
55.1059
55.1026
55.0993
55.096
55.0927
55.0895
55.0862
55.0829
55.0796
55.0763
55.073
55.0697
55.0664
55.0632
55.0599
55.0566
55.0533
55.05
55.0467
55.0435
55.0402
55.0369
55.0336
55.0303
55.027
55.0238
55.0205
55.0172
55.0139
55.0106
55.0074
55.0041
55.0008
54.9975
54.9943
54.991
54.9877
54.9844
54.9811
54.9779
54.9746
54.9713
54.968
54.9648
54.9615
54.9582
54.9549
54.9517
54.9484
54.9451
54.9418
54.9386
54.9353
54.932
54.9288
54.9255
54.9222
54.9189
54.9157
54.9124
54.9091
54.9059
54.9026
54.8993
54.896
54.8928
54.8895
54.8862
54.883
54.8797
54.8764
54.8732
54.8699
54.8666
54.8633
54.8601
54.8568
54.8535
54.8503
54.847
54.8437
54.8405
54.8372
54.8339
54.8307
54.8274
54.8241
54.8209
54.8176
54.8143
54.811
54.8078
54.8045
54.8012
54.798
54.7947
54.7914
54.7882
54.7849
54.7816
54.7784
54.7751
54.7718
54.7686
54.7653
54.762
54.7588
54.7555
54.7522
54.749
54.7457
54.7424
54.7392
54.7359
54.7326
54.7294
54.7261
54.7228
54.7196
54.7163
54.713
54.7098
54.7065
54.7032
54.7
54.6967
54.6934
54.6902
54.6869
54.6836
54.6804
54.6771
54.6738
54.6706
54.6673
54.664
54.6608
54.6575
54.6542
54.651
54.6477
54.6444
54.6412
0.5
56.5446
56.5446
56.2429
56.2017
56.1816
56.1672
56.1552
56.1445
56.1345
56.1249
56.1158
56.1069
56.0983
56.0899
56.0817
56.0737
56.0659
56.0582
56.0507
56.0433
56.0361
56.029
56.022
56.0152
56.0084
56.0018
55.9953
55.9889
55.9826
55.9764
55.9702
55.9641
55.9582
55.9523
55.9464
55.9407
55.935
55.9293
55.9237
55.9182
55.9127
55.9073
55.902
55.8967
55.8914
55.8862
55.881
55.8759
55.8708
55.8658
55.8608
55.8558
55.8509
55.846
55.8412
55.8364
55.8316
55.8269
55.8221
55.8174
55.8128
55.8082
55.8036
55.799
55.7945
55.7899
55.7854
55.781
55.7765
55.7721
55.7677
55.7634
55.759
55.7547
55.7504
55.7461
55.7418
55.7376
55.7334
55.7292
55.725
55.7208
55.7167
55.7125
55.7084
55.7043
55.7002
55.6962
55.6921
55.6881
55.684
55.68
55.6761
55.6721
55.6681
55.6642
55.6602
55.6563
55.6524
55.6485
55.6446
55.6407
55.6369
55.633
55.6292
55.6254
55.6216
55.6177
55.614
55.6102
55.6064
55.6026
55.5989
55.5951
55.5914
55.5877
55.584
55.5803
55.5766
55.5729
55.5692
55.5655
55.5618
55.5582
55.5545
55.5509
55.5473
55.5436
55.54
55.5364
55.5328
55.5292
55.5256
55.522
55.5184
55.5149
55.5113
55.5077
55.5042
55.5006
55.4971
55.4935
55.49
55.4865
55.4829
55.4794
55.4759
55.4724
55.4689
55.4654
55.4619
55.4584
55.4549
55.4514
55.448
55.4445
55.441
55.4376
55.4341
55.4306
55.4272
55.4237
55.4203
55.4169
55.4134
55.41
55.4066
55.4031
55.3997
55.3963
55.3929
55.3894
55.386
55.3826
55.3792
55.3758
55.3724
55.369
55.3656
55.3622
55.3588
55.3555
55.3521
55.3487
55.3453
55.3419
55.3385
55.3352
55.3318
55.3284
55.3251
55.3217
55.3183
55.315
55.3116
55.3083
55.3049
55.3016
55.2982
55.2948
55.2915
55.2882
55.2848
55.2815
55.2781
55.2748
55.2714
55.2681
55.2648
55.2614
55.2581
55.2548
55.2514
55.2481
55.2448
55.2415
55.2381
55.2348
55.2315
55.2282
55.2248
55.2215
55.2182
55.2149
55.2116
55.2083
55.2049
55.2016
55.1983
55.195
55.1917
55.1884
55.1851
55.1818
55.1785
55.1752
55.1719
55.1685
55.1652
55.1619
55.1586
55.1553
55.152
55.1487
55.1454
55.1421
55.1388
55.1355
55.1323
55.129
55.1257
55.1224
55.1191
55.1158
55.1125
55.1092
55.1059
55.1026
55.0993
55.096
55.0927
55.0895
55.0862
55.0829
55.0796
55.0763
55.073
55.0697
55.0664
55.0632
55.0599
55.0566
55.0533
55.05
55.0467
55.0435
55.0402
55.0369
55.0336
55.0303
55.027
55.0238
55.0205
55.0172
55.0139
55.0106
55.0074
55.0041
55.0008
54.9975
54.9943
54.991
54.9877
54.9844
54.9811
54.9779
54.9746
54.9713
54.968
54.9648
54.9615
54.9582
54.9549
54.9517
54.9484
54.9451
54.9418
54.9386
54.9353
54.932
54.9288
54.9255
54.9222
54.9189
54.9157
54.9124
54.9091
54.9059
54.9026
54.8993
54.896
54.8928
54.8895
54.8862
54.883
54.8797
54.8764
54.8732
54.8699
54.8666
54.8633
54.8601
54.8568
54.8535
54.8503
54.847
54.8437
54.8405
54.8372
54.8339
54.8307
54.8274
54.8241
54.8209
54.8176
54.8143
54.811
54.8078
54.8045
54.8012
54.798
54.7947
54.7914
54.7882
54.7849
54.7816
54.7784
54.7751
54.7718
54.7686
54.7653
54.762
54.7588
54.7555
54.7522
54.749
54.7457
54.7424
54.7392
54.7359
54.7326
54.7294
54.7261
54.7228
54.7196
54.7163
54.713
54.7098
54.7065
54.7032
54.7
54.6967
54.6934
54.6902
54.6869
54.6836
54.6804
54.6771
54.6738
54.6706
54.6673
54.664
54.6608
54.6575
54.6542
54.651
54.6477
54.6444
54.6412
54.6412
56.53
56.53
56.2467
56.203
56.1823
56.1676
56.1555
56.1447
56.1346
56.1251
56.1159
56.107
56.0984
56.09
56.0818
56.0738
56.0659
56.0582
56.0507
56.0433
56.0361
56.029
56.022
56.0152
56.0085
56.0019
55.9953
55.9889
55.9826
55.9764
55.9702
55.9642
55.9582
55.9523
55.9464
55.9407
55.935
55.9293
55.9237
55.9182
55.9128
55.9073
55.902
55.8967
55.8914
55.8862
55.8811
55.8759
55.8708
55.8658
55.8608
55.8559
55.8509
55.846
55.8412
55.8364
55.8316
55.8269
55.8221
55.8175
55.8128
55.8082
55.8036
55.799
55.7945
55.7899
55.7855
55.781
55.7765
55.7721
55.7677
55.7634
55.759
55.7547
55.7504
55.7461
55.7418
55.7376
55.7334
55.7292
55.725
55.7208
55.7167
55.7125
55.7084
55.7043
55.7002
55.6962
55.6921
55.6881
55.684
55.68
55.6761
55.6721
55.6681
55.6642
55.6602
55.6563
55.6524
55.6485
55.6446
55.6407
55.6369
55.633
55.6292
55.6254
55.6216
55.6178
55.614
55.6102
55.6064
55.6026
55.5989
55.5951
55.5914
55.5877
55.584
55.5803
55.5766
55.5729
55.5692
55.5655
55.5618
55.5582
55.5545
55.5509
55.5473
55.5436
55.54
55.5364
55.5328
55.5292
55.5256
55.522
55.5184
55.5149
55.5113
55.5077
55.5042
55.5006
55.4971
55.4935
55.49
55.4865
55.4829
55.4794
55.4759
55.4724
55.4689
55.4654
55.4619
55.4584
55.4549
55.4514
55.448
55.4445
55.441
55.4376
55.4341
55.4307
55.4272
55.4237
55.4203
55.4169
55.4134
55.41
55.4066
55.4031
55.3997
55.3963
55.3929
55.3895
55.386
55.3826
55.3792
55.3758
55.3724
55.369
55.3656
55.3622
55.3588
55.3555
55.3521
55.3487
55.3453
55.3419
55.3386
55.3352
55.3318
55.3284
55.3251
55.3217
55.3183
55.315
55.3116
55.3083
55.3049
55.3016
55.2982
55.2949
55.2915
55.2882
55.2848
55.2815
55.2781
55.2748
55.2714
55.2681
55.2648
55.2614
55.2581
55.2548
55.2514
55.2481
55.2448
55.2415
55.2381
55.2348
55.2315
55.2282
55.2248
55.2215
55.2182
55.2149
55.2116
55.2083
55.2049
55.2016
55.1983
55.195
55.1917
55.1884
55.1851
55.1818
55.1785
55.1752
55.1719
55.1685
55.1652
55.1619
55.1586
55.1553
55.152
55.1487
55.1454
55.1421
55.1388
55.1355
55.1323
55.129
55.1257
55.1224
55.1191
55.1158
55.1125
55.1092
55.1059
55.1026
55.0993
55.096
55.0927
55.0895
55.0862
55.0829
55.0796
55.0763
55.073
55.0697
55.0664
55.0632
55.0599
55.0566
55.0533
55.05
55.0467
55.0435
55.0402
55.0369
55.0336
55.0303
55.027
55.0238
55.0205
55.0172
55.0139
55.0106
55.0074
55.0041
55.0008
54.9975
54.9943
54.991
54.9877
54.9844
54.9811
54.9779
54.9746
54.9713
54.968
54.9648
54.9615
54.9582
54.9549
54.9517
54.9484
54.9451
54.9418
54.9386
54.9353
54.932
54.9288
54.9255
54.9222
54.9189
54.9157
54.9124
54.9091
54.9059
54.9026
54.8993
54.896
54.8928
54.8895
54.8862
54.883
54.8797
54.8764
54.8732
54.8699
54.8666
54.8633
54.8601
54.8568
54.8535
54.8503
54.847
54.8437
54.8405
54.8372
54.8339
54.8307
54.8274
54.8241
54.8209
54.8176
54.8143
54.811
54.8078
54.8045
54.8012
54.798
54.7947
54.7914
54.7882
54.7849
54.7816
54.7784
54.7751
54.7718
54.7686
54.7653
54.762
54.7588
54.7555
54.7522
54.749
54.7457
54.7424
54.7392
54.7359
54.7326
54.7294
54.7261
54.7228
54.7196
54.7163
54.713
54.7098
54.7065
54.7032
54.7
54.6967
54.6934
54.6902
54.6869
54.6836
54.6804
54.6771
54.6738
54.6706
54.6673
54.664
54.6608
54.6575
54.6542
54.651
54.6477
54.6444
54.6412
54.6412
56.514
56.514
56.2499
56.2041
56.1829
56.168
56.1557
56.1448
56.1348
56.1252
56.116
56.1071
56.0985
56.09
56.0818
56.0738
56.0659
56.0583
56.0507
56.0434
56.0361
56.029
56.0221
56.0152
56.0085
56.0019
55.9954
55.9889
55.9826
55.9764
55.9702
55.9642
55.9582
55.9523
55.9464
55.9407
55.935
55.9293
55.9238
55.9182
55.9128
55.9074
55.902
55.8967
55.8914
55.8862
55.8811
55.8759
55.8709
55.8658
55.8608
55.8559
55.8509
55.8461
55.8412
55.8364
55.8316
55.8269
55.8221
55.8175
55.8128
55.8082
55.8036
55.799
55.7945
55.7899
55.7855
55.781
55.7765
55.7721
55.7677
55.7634
55.759
55.7547
55.7504
55.7461
55.7418
55.7376
55.7334
55.7292
55.725
55.7208
55.7167
55.7125
55.7084
55.7043
55.7002
55.6962
55.6921
55.6881
55.6841
55.68
55.6761
55.6721
55.6681
55.6642
55.6602
55.6563
55.6524
55.6485
55.6446
55.6407
55.6369
55.633
55.6292
55.6254
55.6216
55.6178
55.614
55.6102
55.6064
55.6026
55.5989
55.5951
55.5914
55.5877
55.584
55.5803
55.5766
55.5729
55.5692
55.5655
55.5618
55.5582
55.5545
55.5509
55.5473
55.5436
55.54
55.5364
55.5328
55.5292
55.5256
55.522
55.5184
55.5149
55.5113
55.5077
55.5042
55.5006
55.4971
55.4935
55.49
55.4865
55.4829
55.4794
55.4759
55.4724
55.4689
55.4654
55.4619
55.4584
55.4549
55.4514
55.448
55.4445
55.441
55.4376
55.4341
55.4307
55.4272
55.4237
55.4203
55.4169
55.4134
55.41
55.4066
55.4031
55.3997
55.3963
55.3929
55.3895
55.386
55.3826
55.3792
55.3758
55.3724
55.369
55.3656
55.3622
55.3588
55.3555
55.3521
55.3487
55.3453
55.3419
55.3386
55.3352
55.3318
55.3284
55.3251
55.3217
55.3183
55.315
55.3116
55.3083
55.3049
55.3016
55.2982
55.2949
55.2915
55.2882
55.2848
55.2815
55.2781
55.2748
55.2714
55.2681
55.2648
55.2614
55.2581
55.2548
55.2514
55.2481
55.2448
55.2415
55.2381
55.2348
55.2315
55.2282
55.2248
55.2215
55.2182
55.2149
55.2116
55.2083
55.2049
55.2016
55.1983
55.195
55.1917
55.1884
55.1851
55.1818
55.1785
55.1752
55.1719
55.1685
55.1652
55.1619
55.1586
55.1553
55.152
55.1487
55.1454
55.1421
55.1388
55.1355
55.1323
55.129
55.1257
55.1224
55.1191
55.1158
55.1125
55.1092
55.1059
55.1026
55.0993
55.096
55.0927
55.0895
55.0862
55.0829
55.0796
55.0763
55.073
55.0697
55.0664
55.0632
55.0599
55.0566
55.0533
55.05
55.0467
55.0435
55.0402
55.0369
55.0336
55.0303
55.027
55.0238
55.0205
55.0172
55.0139
55.0106
55.0074
55.0041
55.0008
54.9975
54.9943
54.991
54.9877
54.9844
54.9811
54.9779
54.9746
54.9713
54.968
54.9648
54.9615
54.9582
54.9549
54.9517
54.9484
54.9451
54.9418
54.9386
54.9353
54.932
54.9288
54.9255
54.9222
54.9189
54.9157
54.9124
54.9091
54.9059
54.9026
54.8993
54.896
54.8928
54.8895
54.8862
54.883
54.8797
54.8764
54.8732
54.8699
54.8666
54.8633
54.8601
54.8568
54.8535
54.8503
54.847
54.8437
54.8405
54.8372
54.8339
54.8307
54.8274
54.8241
54.8209
54.8176
54.8143
54.811
54.8078
54.8045
54.8012
54.798
54.7947
54.7914
54.7882
54.7849
54.7816
54.7784
54.7751
54.7718
54.7686
54.7653
54.762
54.7588
54.7555
54.7522
54.749
54.7457
54.7424
54.7392
54.7359
54.7326
54.7294
54.7261
54.7228
54.7196
54.7163
54.713
54.7098
54.7065
54.7032
54.7
54.6967
54.6934
54.6902
54.6869
54.6836
54.6804
54.6771
54.6738
54.6706
54.6673
54.664
54.6608
54.6575
54.6542
54.651
54.6477
54.6444
54.6412
54.6412
56.4981
56.4981
56.2528
56.2053
56.1835
56.1684
56.156
56.145
56.1349
56.1253
56.1161
56.1072
56.0985
56.0901
56.0819
56.0738
56.066
56.0583
56.0508
56.0434
56.0362
56.0291
56.0221
56.0152
56.0085
56.0019
55.9954
55.989
55.9826
55.9764
55.9703
55.9642
55.9582
55.9523
55.9465
55.9407
55.935
55.9293
55.9238
55.9182
55.9128
55.9074
55.902
55.8967
55.8914
55.8862
55.8811
55.8759
55.8709
55.8658
55.8608
55.8559
55.8509
55.8461
55.8412
55.8364
55.8316
55.8269
55.8221
55.8175
55.8128
55.8082
55.8036
55.799
55.7945
55.79
55.7855
55.781
55.7766
55.7721
55.7677
55.7634
55.759
55.7547
55.7504
55.7461
55.7418
55.7376
55.7334
55.7292
55.725
55.7208
55.7167
55.7125
55.7084
55.7043
55.7002
55.6962
55.6921
55.6881
55.6841
55.68
55.6761
55.6721
55.6681
55.6642
55.6602
55.6563
55.6524
55.6485
55.6446
55.6407
55.6369
55.633
55.6292
55.6254
55.6216
55.6178
55.614
55.6102
55.6064
55.6026
55.5989
55.5951
55.5914
55.5877
55.584
55.5803
55.5766
55.5729
55.5692
55.5655
55.5618
55.5582
55.5545
55.5509
55.5473
55.5436
55.54
55.5364
55.5328
55.5292
55.5256
55.522
55.5184
55.5149
55.5113
55.5077
55.5042
55.5006
55.4971
55.4935
55.49
55.4865
55.4829
55.4794
55.4759
55.4724
55.4689
55.4654
55.4619
55.4584
55.4549
55.4514
55.448
55.4445
55.441
55.4376
55.4341
55.4307
55.4272
55.4237
55.4203
55.4169
55.4134
55.41
55.4066
55.4031
55.3997
55.3963
55.3929
55.3895
55.386
55.3826
55.3792
55.3758
55.3724
55.369
55.3656
55.3622
55.3588
55.3555
55.3521
55.3487
55.3453
55.3419
55.3386
55.3352
55.3318
55.3284
55.3251
55.3217
55.3183
55.315
55.3116
55.3083
55.3049
55.3016
55.2982
55.2949
55.2915
55.2882
55.2848
55.2815
55.2781
55.2748
55.2714
55.2681
55.2648
55.2614
55.2581
55.2548
55.2514
55.2481
55.2448
55.2415
55.2381
55.2348
55.2315
55.2282
55.2248
55.2215
55.2182
55.2149
55.2116
55.2083
55.2049
55.2016
55.1983
55.195
55.1917
55.1884
55.1851
55.1818
55.1785
55.1752
55.1719
55.1685
55.1652
55.1619
55.1586
55.1553
55.152
55.1487
55.1454
55.1421
55.1388
55.1355
55.1323
55.129
55.1257
55.1224
55.1191
55.1158
55.1125
55.1092
55.1059
55.1026
55.0993
55.096
55.0927
55.0895
55.0862
55.0829
55.0796
55.0763
55.073
55.0697
55.0664
55.0632
55.0599
55.0566
55.0533
55.05
55.0467
55.0435
55.0402
55.0369
55.0336
55.0303
55.027
55.0238
55.0205
55.0172
55.0139
55.0106
55.0074
55.0041
55.0008
54.9975
54.9943
54.991
54.9877
54.9844
54.9811
54.9779
54.9746
54.9713
54.968
54.9648
54.9615
54.9582
54.9549
54.9517
54.9484
54.9451
54.9418
54.9386
54.9353
54.932
54.9288
54.9255
54.9222
54.9189
54.9157
54.9124
54.9091
54.9059
54.9026
54.8993
54.896
54.8928
54.8895
54.8862
54.883
54.8797
54.8764
54.8732
54.8699
54.8666
54.8633
54.8601
54.8568
54.8535
54.8503
54.847
54.8437
54.8405
54.8372
54.8339
54.8307
54.8274
54.8241
54.8209
54.8176
54.8143
54.811
54.8078
54.8045
54.8012
54.798
54.7947
54.7914
54.7882
54.7849
54.7816
54.7784
54.7751
54.7718
54.7686
54.7653
54.762
54.7588
54.7555
54.7522
54.749
54.7457
54.7424
54.7392
54.7359
54.7326
54.7294
54.7261
54.7228
54.7196
54.7163
54.713
54.7098
54.7065
54.7032
54.7
54.6967
54.6934
54.6902
54.6869
54.6836
54.6804
54.6771
54.6738
54.6706
54.6673
54.664
54.6608
54.6575
54.6542
54.651
54.6477
54.6444
54.6412
54.6412
56.483
56.483
56.2555
56.2064
56.1841
56.1687
56.1563
56.1452
56.1351
56.1254
56.1162
56.1073
56.0986
56.0902
56.0819
56.0739
56.066
56.0583
56.0508
56.0434
56.0362
56.0291
56.0221
56.0153
56.0085
56.0019
55.9954
55.989
55.9827
55.9764
55.9703
55.9642
55.9582
55.9523
55.9465
55.9407
55.935
55.9294
55.9238
55.9183
55.9128
55.9074
55.902
55.8967
55.8915
55.8862
55.8811
55.8759
55.8709
55.8658
55.8608
55.8559
55.851
55.8461
55.8412
55.8364
55.8316
55.8269
55.8222
55.8175
55.8128
55.8082
55.8036
55.799
55.7945
55.79
55.7855
55.781
55.7766
55.7721
55.7677
55.7634
55.759
55.7547
55.7504
55.7461
55.7418
55.7376
55.7334
55.7292
55.725
55.7208
55.7167
55.7125
55.7084
55.7043
55.7002
55.6962
55.6921
55.6881
55.6841
55.6801
55.6761
55.6721
55.6681
55.6642
55.6602
55.6563
55.6524
55.6485
55.6446
55.6407
55.6369
55.633
55.6292
55.6254
55.6216
55.6178
55.614
55.6102
55.6064
55.6026
55.5989
55.5951
55.5914
55.5877
55.584
55.5803
55.5766
55.5729
55.5692
55.5655
55.5618
55.5582
55.5545
55.5509
55.5473
55.5436
55.54
55.5364
55.5328
55.5292
55.5256
55.522
55.5184
55.5149
55.5113
55.5077
55.5042
55.5006
55.4971
55.4935
55.49
55.4865
55.4829
55.4794
55.4759
55.4724
55.4689
55.4654
55.4619
55.4584
55.4549
55.4515
55.448
55.4445
55.441
55.4376
55.4341
55.4307
55.4272
55.4238
55.4203
55.4169
55.4134
55.41
55.4066
55.4031
55.3997
55.3963
55.3929
55.3895
55.386
55.3826
55.3792
55.3758
55.3724
55.369
55.3656
55.3622
55.3588
55.3555
55.3521
55.3487
55.3453
55.3419
55.3386
55.3352
55.3318
55.3284
55.3251
55.3217
55.3183
55.315
55.3116
55.3083
55.3049
55.3016
55.2982
55.2949
55.2915
55.2882
55.2848
55.2815
55.2781
55.2748
55.2714
55.2681
55.2648
55.2614
55.2581
55.2548
55.2514
55.2481
55.2448
55.2415
55.2381
55.2348
55.2315
55.2282
55.2248
55.2215
55.2182
55.2149
55.2116
55.2083
55.2049
55.2016
55.1983
55.195
55.1917
55.1884
55.1851
55.1818
55.1785
55.1752
55.1719
55.1685
55.1652
55.1619
55.1586
55.1553
55.152
55.1487
55.1454
55.1421
55.1388
55.1355
55.1323
55.129
55.1257
55.1224
55.1191
55.1158
55.1125
55.1092
55.1059
55.1026
55.0993
55.096
55.0927
55.0895
55.0862
55.0829
55.0796
55.0763
55.073
55.0697
55.0664
55.0632
55.0599
55.0566
55.0533
55.05
55.0467
55.0435
55.0402
55.0369
55.0336
55.0303
55.027
55.0238
55.0205
55.0172
55.0139
55.0106
55.0074
55.0041
55.0008
54.9975
54.9943
54.991
54.9877
54.9844
54.9811
54.9779
54.9746
54.9713
54.968
54.9648
54.9615
54.9582
54.9549
54.9517
54.9484
54.9451
54.9418
54.9386
54.9353
54.932
54.9288
54.9255
54.9222
54.9189
54.9157
54.9124
54.9091
54.9059
54.9026
54.8993
54.896
54.8928
54.8895
54.8862
54.883
54.8797
54.8764
54.8732
54.8699
54.8666
54.8633
54.8601
54.8568
54.8535
54.8503
54.847
54.8437
54.8405
54.8372
54.8339
54.8307
54.8274
54.8241
54.8209
54.8176
54.8143
54.811
54.8078
54.8045
54.8012
54.798
54.7947
54.7914
54.7882
54.7849
54.7816
54.7784
54.7751
54.7718
54.7686
54.7653
54.762
54.7588
54.7555
54.7522
54.749
54.7457
54.7424
54.7392
54.7359
54.7326
54.7294
54.7261
54.7228
54.7196
54.7163
54.713
54.7098
54.7065
54.7032
54.7
54.6967
54.6934
54.6902
54.6869
54.6836
54.6804
54.6771
54.6738
54.6706
54.6673
54.664
54.6608
54.6575
54.6542
54.651
54.6477
54.6444
54.6412
54.6412
56.469
56.469
56.2581
56.2075
56.1847
56.1691
56.1565
56.1454
56.1352
56.1255
56.1163
56.1074
56.0987
56.0902
56.082
56.0739
56.0661
56.0584
56.0508
56.0435
56.0362
56.0291
56.0221
56.0153
56.0086
56.0019
55.9954
55.989
55.9827
55.9764
55.9703
55.9642
55.9582
55.9523
55.9465
55.9407
55.935
55.9294
55.9238
55.9183
55.9128
55.9074
55.902
55.8967
55.8915
55.8862
55.8811
55.876
55.8709
55.8658
55.8608
55.8559
55.851
55.8461
55.8412
55.8364
55.8316
55.8269
55.8222
55.8175
55.8128
55.8082
55.8036
55.799
55.7945
55.79
55.7855
55.781
55.7766
55.7721
55.7677
55.7634
55.759
55.7547
55.7504
55.7461
55.7418
55.7376
55.7334
55.7292
55.725
55.7208
55.7167
55.7125
55.7084
55.7043
55.7002
55.6962
55.6921
55.6881
55.6841
55.6801
55.6761
55.6721
55.6681
55.6642
55.6602
55.6563
55.6524
55.6485
55.6446
55.6408
55.6369
55.633
55.6292
55.6254
55.6216
55.6178
55.614
55.6102
55.6064
55.6026
55.5989
55.5951
55.5914
55.5877
55.584
55.5803
55.5766
55.5729
55.5692
55.5655
55.5618
55.5582
55.5545
55.5509
55.5473
55.5436
55.54
55.5364
55.5328
55.5292
55.5256
55.522
55.5184
55.5149