# vtk DataFile Version 2.0
FlowField
ASCII
DATASET STRUCTURED_GRID
DIMENSIONS 400 1 200
POINTS 80000 float
0 0 0
0.08 0 0
0.16 0 0
0.24 0 0
0.32 0 0
0.4 0 0
0.48 0 0
0.56 0 0
0.64 0 0
0.72 0 0
0.8 0 0
0.88 0 0
0.96 0 0
1.04 0 0
1.12 0 0
1.2 0 0
1.28 0 0
1.36 0 0
1.44 0 0
1.52 0 0
1.6 0 0
1.68 0 0
1.76 0 0
1.84 0 0
1.92 0 0
2 0 0
2.08 0 0
2.16 0 0
2.24 0 0
2.32 0 0
2.4 0 0
2.48 0 0
2.56 0 0
2.64 0 0
2.72 0 0
2.8 0 0
2.88 0 0
2.96 0 0
3.04 0 0
3.12 0 0
3.2 0 0
3.28 0 0
3.36 0 0
3.44 0 0
3.52 0 0
3.6 0 0
3.68 0 0
3.76 0 0
3.84 0 0
3.92 0 0
4 0 0
4.08 0 0
4.16 0 0
4.24 0 0
4.32 0 0
4.4 0 0
4.48 0 0
4.56 0 0
4.64 0 0
4.72 0 0
4.8 0 0
4.88 0 0
4.96 0 0
5.04 0 0
5.12 0 0
5.2 0 0
5.28 0 0
5.36 0 0
5.44 0 0
5.52 0 0
5.6 0 0
5.68 0 0
5.76 0 0
5.84 0 0
5.92 0 0
6 0 0
6.08 0 0
6.16 0 0
6.24 0 0
6.32 0 0
6.4 0 0
6.48 0 0
6.56 0 0
6.64 0 0
6.72 0 0
6.8 0 0
6.88 0 0
6.96 0 0
7.04 0 0
7.12 0 0
7.2 0 0
7.28 0 0
7.36 0 0
7.44 0 0
7.52 0 0
7.6 0 0
7.68 0 0
7.76 0 0
7.84 0 0
7.92 0 0
8 0 0
8.08 0 0
8.16 0 0
8.24 0 0
8.32 0 0
8.4 0 0
8.48 0 0
8.56 0 0
8.64 0 0
8.72 0 0
8.8 0 0
8.88 0 0
8.96 0 0
9.04 0 0
9.12 0 0
9.2 0 0
9.28 0 0
9.36 0 0
9.44 0 0
9.52 0 0
9.6 0 0
9.68 0 0
9.76 0 0
9.84 0 0
9.92 0 0
10 0 0
10.08 0 0
10.16 0 0
10.24 0 0
10.32 0 0
10.4 0 0
10.48 0 0
10.56 0 0
10.64 0 0
10.72 0 0
10.8 0 0
10.88 0 0
10.96 0 0
11.04 0 0
11.12 0 0
11.2 0 0
11.28 0 0
11.36 0 0
11.44 0 0
11.52 0 0
11.6 0 0
11.68 0 0
11.76 0 0
11.84 0 0
11.92 0 0
12 0 0
12.08 0 0
12.16 0 0
12.24 0 0
12.32 0 0
12.4 0 0
12.48 0 0
12.56 0 0
12.64 0 0
12.72 0 0
12.8 0 0
12.88 0 0
12.96 0 0
13.04 0 0
13.12 0 0
13.2 0 0
13.28 0 0
13.36 0 0
13.44 0 0
13.52 0 0
13.6 0 0
13.68 0 0
13.76 0 0
13.84 0 0
13.92 0 0
14 0 0
14.08 0 0
14.16 0 0
14.24 0 0
14.32 0 0
14.4 0 0
14.48 0 0
14.56 0 0
14.64 0 0
14.72 0 0
14.8 0 0
14.88 0 0
14.96 0 0
15.04 0 0
15.12 0 0
15.2 0 0
15.28 0 0
15.36 0 0
15.44 0 0
15.52 0 0
15.6 0 0
15.68 0 0
15.76 0 0
15.84 0 0
15.92 0 0
16 0 0
16.08 0 0
16.16 0 0
16.24 0 0
16.32 0 0
16.4 0 0
16.48 0 0
16.56 0 0
16.64 0 0
16.72 0 0
16.8 0 0
16.88 0 0
16.96 0 0
17.04 0 0
17.12 0 0
17.2 0 0
17.28 0 0
17.36 0 0
17.44 0 0
17.52 0 0
17.6 0 0
17.68 0 0
17.76 0 0
17.84 0 0
17.92 0 0
18 0 0
18.08 0 0
18.16 0 0
18.24 0 0
18.32 0 0
18.4 0 0
18.48 0 0
18.56 0 0
18.64 0 0
18.72 0 0
18.8 0 0
18.88 0 0
18.96 0 0
19.04 0 0
19.12 0 0
19.2 0 0
19.28 0 0
19.36 0 0
19.44 0 0
19.52 0 0
19.6 0 0
19.68 0 0
19.76 0 0
19.84 0 0
19.92 0 0
20 0 0
20.08 0 0
20.16 0 0
20.24 0 0
20.32 0 0
20.4 0 0
20.48 0 0
20.56 0 0
20.64 0 0
20.72 0 0
20.8 0 0
20.88 0 0
20.96 0 0
21.04 0 0
21.12 0 0
21.2 0 0
21.28 0 0
21.36 0 0
21.44 0 0
21.52 0 0
21.6 0 0
21.68 0 0
21.76 0 0
21.84 0 0
21.92 0 0
22 0 0
22.08 0 0
22.16 0 0
22.24 0 0
22.32 0 0
22.4 0 0
22.48 0 0
22.56 0 0
22.64 0 0
22.72 0 0
22.8 0 0
22.88 0 0
22.96 0 0
23.04 0 0
23.12 0 0
23.2 0 0
23.28 0 0
23.36 0 0
23.44 0 0
23.52 0 0
23.6 0 0
23.68 0 0
23.76 0 0
23.84 0 0
23.92 0 0
24 0 0
24.08 0 0
24.16 0 0
24.24 0 0
24.32 0 0
24.4 0 0
24.48 0 0
24.56 0 0
24.64 0 0
24.72 0 0
24.8 0 0
24.88 0 0
24.96 0 0
25.04 0 0
25.12 0 0
25.2 0 0
25.28 0 0
25.36 0 0
25.44 0 0
25.52 0 0
25.6 0 0
25.68 0 0
25.76 0 0
25.84 0 0
25.92 0 0
26 0 0
26.08 0 0
26.16 0 0
26.24 0 0
26.32 0 0
26.4 0 0
26.48 0 0
26.56 0 0
26.64 0 0
26.72 0 0
26.8 0 0
26.88 0 0
26.96 0 0
27.04 0 0
27.12 0 0
27.2 0 0
27.28 0 0
27.36 0 0
27.44 0 0
27.52 0 0
27.6 0 0
27.68 0 0
27.76 0 0
27.84 0 0
27.92 0 0
28 0 0
28.08 0 0
28.16 0 0
28.24 0 0
28.32 0 0
28.4 0 0
28.48 0 0
28.56 0 0
28.64 0 0
28.72 0 0
28.8 0 0
28.88 0 0
28.96 0 0
29.04 0 0
29.12 0 0
29.2 0 0
29.28 0 0
29.36 0 0
29.44 0 0
29.52 0 0
29.6 0 0
29.68 0 0
29.76 0 0
29.84 0 0
29.92 0 0
30 0 0
30.08 0 0
30.16 0 0
30.24 0 0
30.32 0 0
30.4 0 0
30.48 0 0
30.56 0 0
30.64 0 0
30.72 0 0
30.8 0 0
30.88 0 0
30.96 0 0
31.04 0 0
31.12 0 0
31.2 0 0
31.28 0 0
31.36 0 0
31.44 0 0
31.52 0 0
31.6 0 0
31.68 0 0
31.76 0 0
31.84 0 0
31.92 0 0
0 0.005 0
0.08 0.005 0
0.16 0.005 0
0.24 0.005 0
0.32 0.005 0
0.4 0.005 0
0.48 0.005 0
0.56 0.005 0
0.64 0.005 0
0.72 0.005 0
0.8 0.005 0
0.88 0.005 0
0.96 0.005 0
1.04 0.005 0
1.12 0.005 0
1.2 0.005 0
1.28 0.005 0
1.36 0.005 0
1.44 0.005 0
1.52 0.005 0
1.6 0.005 0
1.68 0.005 0
1.76 0.005 0
1.84 0.005 0
1.92 0.005 0
2 0.005 0
2.08 0.005 0
2.16 0.005 0
2.24 0.005 0
2.32 0.005 0
2.4 0.005 0
2.48 0.005 0
2.56 0.005 0
2.64 0.005 0
2.72 0.005 0
2.8 0.005 0
2.88 0.005 0
2.96 0.005 0
3.04 0.005 0
3.12 0.005 0
3.2 0.005 0
3.28 0.005 0
3.36 0.005 0
3.44 0.005 0
3.52 0.005 0
3.6 0.005 0
3.68 0.005 0
3.76 0.005 0
3.84 0.005 0
3.92 0.005 0
4 0.005 0
4.08 0.005 0
4.16 0.005 0
4.24 0.005 0
4.32 0.005 0
4.4 0.005 0
4.48 0.005 0
4.56 0.005 0
4.64 0.005 0
4.72 0.005 0
4.8 0.005 0
4.88 0.005 0
4.96 0.005 0
5.04 0.005 0
5.12 0.005 0
5.2 0.005 0
5.28 0.005 0
5.36 0.005 0
5.44 0.005 0
5.52 0.005 0
5.6 0.005 0
5.68 0.005 0
5.76 0.005 0
5.84 0.005 0
5.92 0.005 0
6 0.005 0
6.08 0.005 0
6.16 0.005 0
6.24 0.005 0
6.32 0.005 0
6.4 0.005 0
6.48 0.005 0
6.56 0.005 0
6.64 0.005 0
6.72 0.005 0
6.8 0.005 0
6.88 0.005 0
6.96 0.005 0
7.04 0.005 0
7.12 0.005 0
7.2 0.005 0
7.28 0.005 0
7.36 0.005 0
7.44 0.005 0
7.52 0.005 0
7.6 0.005 0
7.68 0.005 0
7.76 0.005 0
7.84 0.005 0
7.92 0.005 0
8 0.005 0
8.08 0.005 0
8.16 0.005 0
8.24 0.005 0
8.32 0.005 0
8.4 0.005 0
8.48 0.005 0
8.56 0.005 0
8.64 0.005 0
8.72 0.005 0
8.8 0.005 0
8.88 0.005 0
8.96 0.005 0
9.04 0.005 0
9.12 0.005 0
9.2 0.005 0
9.28 0.005 0
9.36 0.005 0
9.44 0.005 0
9.52 0.005 0
9.6 0.005 0
9.68 0.005 0
9.76 0.005 0
9.84 0.005 0
9.92 0.005 0
10 0.005 0
10.08 0.005 0
10.16 0.005 0
10.24 0.005 0
10.32 0.005 0
10.4 0.005 0
10.48 0.005 0
10.56 0.005 0
10.64 0.005 0
10.72 0.005 0
10.8 0.005 0
10.88 0.005 0
10.96 0.005 0
11.04 0.005 0
11.12 0.005 0
11.2 0.005 0
11.28 0.005 0
11.36 0.005 0
11.44 0.005 0
11.52 0.005 0
11.6 0.005 0
11.68 0.005 0
11.76 0.005 0
11.84 0.005 0
11.92 0.005 0
12 0.005 0
12.08 0.005 0
12.16 0.005 0
12.24 0.005 0
12.32 0.005 0
12.4 0.005 0
12.48 0.005 0
12.56 0.005 0
12.64 0.005 0
12.72 0.005 0
12.8 0.005 0
12.88 0.005 0
12.96 0.005 0
13.04 0.005 0
13.12 0.005 0
13.2 0.005 0
13.28 0.005 0
13.36 0.005 0
13.44 0.005 0
13.52 0.005 0
13.6 0.005 0
13.68 0.005 0
13.76 0.005 0
13.84 0.005 0
13.92 0.005 0
14 0.005 0
14.08 0.005 0
14.16 0.005 0
14.24 0.005 0
14.32 0.005 0
14.4 0.005 0
14.48 0.005 0
14.56 0.005 0
14.64 0.005 0
14.72 0.005 0
14.8 0.005 0
14.88 0.005 0
14.96 0.005 0
15.04 0.005 0
15.12 0.005 0
15.2 0.005 0
15.28 0.005 0
15.36 0.005 0
15.44 0.005 0
15.52 0.005 0
15.6 0.005 0
15.68 0.005 0
15.76 0.005 0
15.84 0.005 0
15.92 0.005 0
16 0.005 0
16.08 0.005 0
16.16 0.005 0
16.24 0.005 0
16.32 0.005 0
16.4 0.005 0
16.48 0.005 0
16.56 0.005 0
16.64 0.005 0
16.72 0.005 0
16.8 0.005 0
16.88 0.005 0
16.96 0.005 0
17.04 0.005 0
17.12 0.005 0
17.2 0.005 0
17.28 0.005 0
17.36 0.005 0
17.44 0.005 0
17.52 0.005 0
17.6 0.005 0
17.68 0.005 0
17.76 0.005 0
17.84 0.005 0
17.92 0.005 0
18 0.005 0
18.08 0.005 0
18.16 0.005 0
18.24 0.005 0
18.32 0.005 0
18.4 0.005 0
18.48 0.005 0
18.56 0.005 0
18.64 0.005 0
18.72 0.005 0
18.8 0.005 0
18.88 0.005 0
18.96 0.005 0
19.04 0.005 0
19.12 0.005 0
19.2 0.005 0
19.28 0.005 0
19.36 0.005 0
19.44 0.005 0
19.52 0.005 0
19.6 0.005 0
19.68 0.005 0
19.76 0.005 0
19.84 0.005 0
19.92 0.005 0
20 0.005 0
20.08 0.005 0
20.16 0.005 0
20.24 0.005 0
20.32 0.005 0
20.4 0.005 0
20.48 0.005 0
20.56 0.005 0
20.64 0.005 0
20.72 0.005 0
20.8 0.005 0
20.88 0.005 0
20.96 0.005 0
21.04 0.005 0
21.12 0.005 0
21.2 0.005 0
21.28 0.005 0
21.36 0.005 0
21.44 0.005 0
21.52 0.005 0
21.6 0.005 0
21.68 0.005 0
21.76 0.005 0
21.84 0.005 0
21.92 0.005 0
22 0.005 0
22.08 0.005 0
22.16 0.005 0
22.24 0.005 0
22.32 0.005 0
22.4 0.005 0
22.48 0.005 0
22.56 0.005 0
22.64 0.005 0
22.72 0.005 0
22.8 0.005 0
22.88 0.005 0
22.96 0.005 0
23.04 0.005 0
23.12 0.005 0
23.2 0.005 0
23.28 0.005 0
23.36 0.005 0
23.44 0.005 0
23.52 0.005 0
23.6 0.005 0
23.68 0.005 0
23.76 0.005 0
23.84 0.005 0
23.92 0.005 0
24 0.005 0
24.08 0.005 0
24.16 0.005 0
24.24 0.005 0
24.32 0.005 0
24.4 0.005 0
24.48 0.005 0
24.56 0.005 0
24.64 0.005 0
24.72 0.005 0
24.8 0.005 0
24.88 0.005 0
24.96 0.005 0
25.04 0.005 0
25.12 0.005 0
25.2 0.005 0
25.28 0.005 0
25.36 0.005 0
25.44 0.005 0
25.52 0.005 0
25.6 0.005 0
25.68 0.005 0
25.76 0.005 0
25.84 0.005 0
25.92 0.005 0
26 0.005 0
26.08 0.005 0
26.16 0.005 0
26.24 0.005 0
26.32 0.005 0
26.4 0.005 0
26.48 0.005 0
26.56 0.005 0
26.64 0.005 0
26.72 0.005 0
26.8 0.005 0
26.88 0.005 0
26.96 0.005 0
27.04 0.005 0
27.12 0.005 0
27.2 0.005 0
27.28 0.005 0
27.36 0.005 0
27.44 0.005 0
27.52 0.005 0
27.6 0.005 0
27.68 0.005 0
27.76 0.005 0
27.84 0.005 0
27.92 0.005 0
28 0.005 0
28.08 0.005 0
28.16 0.005 0
28.24 0.005 0
28.32 0.005 0
28.4 0.005 0
28.48 0.005 0
28.56 0.005 0
28.64 0.005 0
28.72 0.005 0
28.8 0.005 0
28.88 0.005 0
28.96 0.005 0
29.04 0.005 0
29.12 0.005 0
29.2 0.005 0
29.28 0.005 0
29.36 0.005 0
29.44 0.005 0
29.52 0.005 0
29.6 0.005 0
29.68 0.005 0
29.76 0.005 0
29.84 0.005 0
29.92 0.005 0
30 0.005 0
30.08 0.005 0
30.16 0.005 0
30.24 0.005 0
30.32 0.005 0
30.4 0.005 0
30.48 0.005 0
30.56 0.005 0
30.64 0.005 0
30.72 0.005 0
30.8 0.005 0
30.88 0.005 0
30.96 0.005 0
31.04 0.005 0
31.12 0.005 0
31.2 0.005 0
31.28 0.005 0
31.36 0.005 0
31.44 0.005 0
31.52 0.005 0
31.6 0.005 0
31.68 0.005 0
31.76 0.005 0
31.84 0.005 0
31.92 0.005 0
0 0.01 0
0.08 0.01 0
0.16 0.01 0
0.24 0.01 0
0.32 0.01 0
0.4 0.01 0
0.48 0.01 0
0.56 0.01 0
0.64 0.01 0
0.72 0.01 0
0.8 0.01 0
0.88 0.01 0
0.96 0.01 0
1.04 0.01 0
1.12 0.01 0
1.2 0.01 0
1.28 0.01 0
1.36 0.01 0
1.44 0.01 0
1.52 0.01 0
1.6 0.01 0
1.68 0.01 0
1.76 0.01 0
1.84 0.01 0
1.92 0.01 0
2 0.01 0
2.08 0.01 0
2.16 0.01 0
2.24 0.01 0
2.32 0.01 0
2.4 0.01 0
2.48 0.01 0
2.56 0.01 0
2.64 0.01 0
2.72 0.01 0
2.8 0.01 0
2.88 0.01 0
2.96 0.01 0
3.04 0.01 0
3.12 0.01 0
3.2 0.01 0
3.28 0.01 0
3.36 0.01 0
3.44 0.01 0
3.52 0.01 0
3.6 0.01 0
3.68 0.01 0
3.76 0.01 0
3.84 0.01 0
3.92 0.01 0
4 0.01 0
4.08 0.01 0
4.16 0.01 0
4.24 0.01 0
4.32 0.01 0
4.4 0.01 0
4.48 0.01 0
4.56 0.01 0
4.64 0.01 0
4.72 0.01 0
4.8 0.01 0
4.88 0.01 0
4.96 0.01 0
5.04 0.01 0
5.12 0.01 0
[...]
POINT_DATA 80000

SCALARS p float 1
LOOKUP_TABLE default
1
56.5603
56.2585
56.2174
56.1973
56.1829
56.1709
56.1601
56.1501
56.1406
56.1315
56.1226
56.114
56.1056
56.0974
56.0894
56.0815
56.0738
56.0663
56.059
56.0517
56.0446
56.0377
56.0308
56.0241
56.0175
56.011
56.0046
55.9982
55.992
55.9859
55.9798
55.9738
55.9679
55.9621
55.9563
55.9506
55.945
55.9394
55.9339
55.9284
55.923
55.9176
55.9123
55.9071
55.9019
55.8967
55.8916
55.8865
55.8815
55.8765
55.8715
55.8666
55.8617
55.8568
55.852
55.8473
55.8425
55.8378
55.8331
55.8284
55.8238
55.8192
55.8147
55.8101
55.8056
55.8011
55.7966
55.7922
55.7878
55.7834
55.779
55.7747
55.7703
55.766
55.7617
55.7575
55.7532
55.749
55.7448
55.7406
55.7365
55.7323
55.7282
55.7241
55.72
55.7159
55.7118
55.7078
55.7037
55.6997
55.6957
55.6917
55.6877
55.6838
55.6798
55.6759
55.672
55.6681
55.6642
55.6603
55.6564
55.6526
55.6487
55.6449
55.6411
55.6372
55.6335
55.6297
55.6259
55.6221
55.6184
55.6147
55.6109
55.6072
55.6035
55.5998
55.5961
55.5925
55.5888
55.5852
55.5815
55.5779
55.5743
55.5707
55.5671
55.5635
55.5599
55.5564
55.5528
55.5493
55.5457
55.5422
55.5387
55.5352
55.5317
55.5282
55.5247
55.5212
55.5177
55.5143
55.5108
55.5073
55.5039
55.5004
55.497
55.4936
55.4901
55.4867
55.4833
55.4799
55.4765
55.4731
55.4697
55.4663
55.4629
55.4595
55.4561
55.4527
55.4493
55.4459
55.4425
55.4391
55.4358
55.4324
55.429
55.4256
55.4223
55.4189
55.4155
55.4121
55.4088
55.4054
55.402
55.3986
55.3953
55.3919
55.3885
55.3852
55.3818
55.3784
55.3751
55.3717
55.3683
55.3649
55.3616
55.3582
55.3548
55.3515
55.3481
55.3447
55.3414
55.338
55.3346
55.3312
55.3279
55.3245
55.3211
55.3178
55.3144
55.311
55.3077
55.3043
55.3009
55.2975
55.2942
55.2908
55.2874
55.2841
55.2807
55.2773
55.2739
55.2706
55.2672
55.2638
55.2605
55.2571
55.2537
55.2503
55.247
55.2436
55.2402
55.2369
55.2335
55.2301
55.2268
55.2234
55.22
55.2166
55.2133
55.2099
55.2065
55.2032
55.1998
55.1964
55.193
55.1897
55.1863
55.1829
55.1796
55.1762
55.1728
55.1694
55.1661
55.1627
55.1593
55.156
55.1526
55.1492
55.1458
55.1425
55.1391
55.1357
55.1324
55.129
55.1256
55.1222
55.1189
55.1155
55.1121
55.1088
55.1054
55.102
55.0986
55.0953
55.0919
55.0885
55.0851
55.0818
55.0784
55.075
55.0717
55.0683
55.0649
55.0615
55.0582
55.0548
55.0514
55.0481
55.0447
55.0413
55.0379
55.0346
55.0312
55.0278
55.0244
55.0211
55.0177
55.0143
55.011
55.0076
55.0042
55.0008
54.9975
54.9941
54.9907
54.9873
54.984
54.9806
54.9772
54.9739
54.9705
54.9671
54.9637
54.9604
54.957
54.9536
54.9502
54.9469
54.9435
54.9401
54.9368
54.9334
54.93
54.9266
54.9233
54.9199
54.9165
54.9131
54.9098
54.9064
54.903
54.8996
54.8963
54.8929
54.8895
54.8862
54.8828
54.8794
54.876
54.8727
54.8693
54.8659
54.8625
54.8592
54.8558
54.8524
54.849
54.8457
54.8423
54.8389
54.8355
54.8322
54.8288
54.8254
54.822
54.8187
54.8153
54.8119
54.8086
54.8052
54.8018
54.7984
54.7951
54.7917
54.7883
54.7849
54.7816
54.7782
54.7748
54.7714
54.7681
54.7647
54.7613
54.7579
54.7546
54.7512
54.7478
54.7444
54.7411
54.7377
54.7343
54.7309
54.7276
54.7242
54.7208
54.7174
54.7141
54.7107
54.7073
54.7039
54.7006
54.6972
54.6938
54.6904
54.6871
54.6837
54.6803
54.6769
54.6736
54.6702
54.6668
54.6634
54.6601
54.6567
54.6533
54.6499
54.6466
54.6432
0.5
56.5603
56.5603
56.2585
56.2174
56.1973
56.1829
56.1709
56.1601
56.1501
56.1406
56.1315
56.1226
56.114
56.1056
56.0974
56.0894
56.0815
56.0738
56.0663
56.059
56.0517
56.0446
56.0377
56.0308
56.0241
56.0175
56.011
56.0046
55.9982
55.992
55.9859
55.9798
55.9738
55.9679
55.9621
55.9563
55.9506
55.945
55.9394
55.9339
55.9284
55.923
55.9176
55.9123
55.9071
55.9019
55.8967
55.8916
55.8865
55.8815
55.8765
55.8715
55.8666
55.8617
55.8568
55.852
55.8473
55.8425
55.8378
55.8331
55.8284
55.8238
55.8192
55.8147
55.8101
55.8056
55.8011
55.7966
55.7922
55.7878
55.7834
55.779
55.7747
55.7703
55.766
55.7617
55.7575
55.7532
55.749
55.7448
55.7406
55.7365
55.7323
55.7282
55.7241
55.72
55.7159
55.7118
55.7078
55.7037
55.6997
55.6957
55.6917
55.6877
55.6838
55.6798
55.6759
55.672
55.6681
55.6642
55.6603
55.6564
55.6526
55.6487
55.6449
55.6411
55.6372
55.6335
55.6297
55.6259
55.6221
55.6184
55.6147
55.6109
55.6072
55.6035
55.5998
55.5961
55.5925
55.5888
55.5852
55.5815
55.5779
55.5743
55.5707
55.5671
55.5635
55.5599
55.5564
55.5528
55.5493
55.5457
55.5422
55.5387
55.5352
55.5317
55.5282
55.5247
55.5212
55.5177
55.5143
55.5108
55.5073
55.5039
55.5004
55.497
55.4936
55.4901
55.4867
55.4833
55.4799
55.4765
55.4731
55.4697
55.4663
55.4629
55.4595
55.4561
55.4527
55.4493
55.4459
55.4425
55.4391
55.4358
55.4324
55.429
55.4256
55.4223
55.4189
55.4155
55.4121
55.4088
55.4054
55.402
55.3986
55.3953
55.3919
55.3885
55.3852
55.3818
55.3784
55.3751
55.3717
55.3683
55.3649
55.3616
55.3582
55.3548
55.3515
55.3481
55.3447
55.3414
55.338
55.3346
55.3312
55.3279
55.3245
55.3211
55.3178
55.3144
55.311
55.3077
55.3043
55.3009
55.2975
55.2942
55.2908
55.2874
55.2841
55.2807
55.2773
55.2739
55.2706
55.2672
55.2638
55.2605
55.2571
55.2537
55.2503
55.247
55.2436
55.2402
55.2369
55.2335
55.2301
55.2268
55.2234
55.22
55.2166
55.2133
55.2099
55.2065
55.2032
55.1998
55.1964
55.193
55.1897
55.1863
55.1829
55.1796
55.1762
55.1728
55.1694
55.1661
55.1627
55.1593
55.156
55.1526
55.1492
55.1458
55.1425
55.1391
55.1357
55.1324
55.129
55.1256
55.1222
55.1189
55.1155
55.1121
55.1088
55.1054
55.102
55.0986
55.0953
55.0919
55.0885
55.0851
55.0818
55.0784
55.075
55.0717
55.0683
55.0649
55.0615
55.0582
55.0548
55.0514
55.0481
55.0447
55.0413
55.0379
55.0346
55.0312
55.0278
55.0244
55.0211
55.0177
55.0143
55.011
55.0076
55.0042
55.0008
54.9975
54.9941
54.9907
54.9873
54.984
54.9806
54.9772
54.9739
54.9705
54.9671
54.9637
54.9604
54.957
54.9536
54.9502
54.9469
54.9435
54.9401
54.9368
54.9334
54.93
54.9266
54.9233
54.9199
54.9165
54.9131
54.9098
54.9064
54.903
54.8996
54.8963
54.8929
54.8895
54.8862
54.8828
54.8794
54.876
54.8727
54.8693
54.8659
54.8625
54.8592
54.8558
54.8524
54.849
54.8457
54.8423
54.8389
54.8355
54.8322
54.8288
54.8254
54.822
54.8187
54.8153
54.8119
54.8086
54.8052
54.8018
54.7984
54.7951
54.7917
54.7883
54.7849
54.7816
54.7782
54.7748
54.7714
54.7681
54.7647
54.7613
54.7579
54.7546
54.7512
54.7478
54.7444
54.7411
54.7377
54.7343
54.7309
54.7276
54.7242
54.7208
54.7174
54.7141
54.7107
54.7073
54.7039
54.7006
54.6972
54.6938
54.6904
54.6871
54.6837
54.6803
54.6769
54.6736
54.6702
54.6668
54.6634
54.6601
54.6567
54.6533
54.6499
54.6466
54.6432
54.6432
56.5457
56.5457
56.2624
56.2186
56.1979
56.1833
56.1711
56.1603
56.1503
56.1407
56.1316
56.1227
56.1141
56.1056
56.0974
56.0894
56.0816
56.0739
56.0664
56.059
56.0518
56.0447
56.0377
56.0309
56.0241
56.0175
56.011
56.0046
55.9983
55.992
55.9859
55.9798
55.9738
55.9679
55.9621
55.9563
55.9506
55.945
55.9394
55.9339
55.9284
55.923
55.9176
55.9123
55.9071
55.9019
55.8967
55.8916
55.8865
55.8815
55.8765
55.8715
55.8666
55.8617
55.8569
55.852
55.8473
55.8425
55.8378
55.8331
55.8285
55.8238
55.8192
55.8147
55.8101
55.8056
55.8011
55.7966
55.7922
55.7878
55.7834
55.779
55.7747
55.7703
55.766
55.7618
55.7575
55.7532
55.749
55.7448
55.7406
55.7365
55.7323
55.7282
55.7241
55.72
55.7159
55.7118
55.7078
55.7037
55.6997
55.6957
55.6917
55.6877
55.6838
55.6798
55.6759
55.672
55.6681
55.6642
55.6603
55.6564
55.6526
55.6487
55.6449
55.6411
55.6372
55.6335
55.6297
55.6259
55.6221
55.6184
55.6147
55.6109
55.6072
55.6035
55.5998
55.5961
55.5925
55.5888
55.5852
55.5815
55.5779
55.5743
55.5707
55.5671
55.5635
55.5599
55.5564
55.5528
55.5493
55.5457
55.5422
55.5387
55.5352
55.5317
55.5282
55.5247
55.5212
55.5177
55.5143
55.5108
55.5073
55.5039
55.5004
55.497
55.4936
55.4901
55.4867
55.4833
55.4799
55.4765
55.4731
55.4697
55.4663
55.4629
55.4595
55.4561
55.4527
55.4493
55.4459
55.4425
55.4391
55.4358
55.4324
55.429
55.4256
55.4223
55.4189
55.4155
55.4121
55.4088
55.4054
55.402
55.3986
55.3953
55.3919
55.3885
55.3852
55.3818
55.3784
55.3751
55.3717
55.3683
55.3649
55.3616
55.3582
55.3548
55.3515
55.3481
55.3447
55.3414
55.338
55.3346
55.3312
55.3279
55.3245
55.3211
55.3178
55.3144
55.311
55.3077
55.3043
55.3009
55.2975
55.2942
55.2908
55.2874
55.2841
55.2807
55.2773
55.2739
55.2706
55.2672
55.2638
55.2605
55.2571
55.2537
55.2503
55.247
55.2436
55.2402
55.2369
55.2335
55.2301
55.2268
55.2234
55.22
55.2166
55.2133
55.2099
55.2065
55.2032
55.1998
55.1964
55.193
55.1897
55.1863
55.1829
55.1796
55.1762
55.1728
55.1694
55.1661
55.1627
55.1593
55.156
55.1526
55.1492
55.1458
55.1425
55.1391
55.1357
55.1324
55.129
55.1256
55.1222
55.1189
55.1155
55.1121
55.1088
55.1054
55.102
55.0986
55.0953
55.0919
55.0885
55.0851
55.0818
55.0784
55.075
55.0717
55.0683
55.0649
55.0615
55.0582
55.0548
55.0514
55.0481
55.0447
55.0413
55.0379
55.0346
55.0312
55.0278
55.0244
55.0211
55.0177
55.0143
55.011
55.0076
55.0042
55.0008
54.9975
54.9941
54.9907
54.9873
54.984
54.9806
54.9772
54.9739
54.9705
54.9671
54.9637
54.9604
54.957
54.9536
54.9502
54.9469
54.9435
54.9401
54.9368
54.9334
54.93
54.9266
54.9233
54.9199
54.9165
54.9131
54.9098
54.9064
54.903
54.8996
54.8963
54.8929
54.8895
54.8862
54.8828
54.8794
54.876
54.8727
54.8693
54.8659
54.8625
54.8592
54.8558
54.8524
54.849
54.8457
54.8423
54.8389
54.8355
54.8322
54.8288
54.8254
54.822
54.8187
54.8153
54.8119
54.8086
54.8052
54.8018
54.7984
54.7951
54.7917
54.7883
54.7849
54.7816
54.7782
54.7748
54.7714
54.7681
54.7647
54.7613
54.7579
54.7546
54.7512
54.7478
54.7444
54.7411
54.7377
54.7343
54.7309
54.7276
54.7242
54.7208
54.7174
54.7141
54.7107
54.7073
54.7039
54.7006
54.6972
54.6938
54.6904
54.6871
54.6837
54.6803
54.6769
54.6736
54.6702
54.6668
54.6634
54.6601
54.6567
54.6533
54.6499
54.6466
54.6432
54.6432
56.5297
56.5297
56.2656
56.2198
56.1985
56.1836
56.1714
56.1605
56.1504
56.1409
56.1317
56.1228
56.1141
56.1057
56.0975
56.0895
56.0816
56.0739
56.0664
56.059
56.0518
56.0447
56.0377
56.0309
56.0242
56.0175
56.011
56.0046
55.9983
55.992
55.9859
55.9798
55.9739
55.9679
55.9621
55.9563
55.9506
55.945
55.9394
55.9339
55.9284
55.923
55.9177
55.9123
55.9071
55.9019
55.8967
55.8916
55.8865
55.8815
55.8765
55.8715
55.8666
55.8617
55.8569
55.852
55.8473
55.8425
55.8378
55.8331
55.8285
55.8238
55.8192
55.8147
55.8101
55.8056
55.8011
55.7966
55.7922
55.7878
55.7834
55.779
55.7747
55.7703
55.766
55.7618
55.7575
55.7532
55.749
55.7448
55.7406
55.7365
55.7323
55.7282
55.7241
55.72
55.7159
55.7118
55.7078
55.7037
55.6997
55.6957
55.6917
55.6877
55.6838
55.6798
55.6759
55.672
55.6681
55.6642
55.6603
55.6564
55.6526
55.6487
55.6449
55.6411
55.6373
55.6335
55.6297
55.6259
55.6221
55.6184
55.6147
55.6109
55.6072
55.6035
55.5998
55.5961
55.5925
55.5888
55.5852
55.5815
55.5779
55.5743
55.5707
55.5671
55.5635
55.5599
55.5564
55.5528
55.5493
55.5457
55.5422
55.5387
55.5352
55.5317
55.5282
55.5247
55.5212
55.5177
55.5143
55.5108
55.5073
55.5039
55.5004
55.497
55.4936
55.4901
55.4867
55.4833
55.4799
55.4765
55.4731
55.4697
55.4663
55.4629
55.4595
55.4561
55.4527
55.4493
55.4459
55.4425
55.4391
55.4358
55.4324
55.429
55.4256
55.4223
55.4189
55.4155
55.4121
55.4088
55.4054
55.402
55.3986
55.3953
55.3919
55.3885
55.3852
55.3818
55.3784
55.3751
55.3717
55.3683
55.3649
55.3616
55.3582
55.3548
55.3515
55.3481
55.3447
55.3414
55.338
55.3346
55.3312
55.3279
55.3245
55.3211
55.3178
55.3144
55.311
55.3077
55.3043
55.3009
55.2975
55.2942
55.2908
55.2874
55.2841
55.2807
55.2773
55.2739
55.2706
55.2672
55.2638
55.2605
55.2571
55.2537
55.2503
55.247
55.2436
55.2402
55.2369
55.2335
55.2301
55.2268
55.2234
55.22
55.2166
55.2133
55.2099
55.2065
55.2032
55.1998
55.1964
55.193
55.1897
55.1863
55.1829
55.1796
55.1762
55.1728
55.1694
55.1661
55.1627
55.1593
55.156
55.1526
55.1492
55.1458
55.1425
55.1391
55.1357
55.1324
55.129
55.1256
55.1222
55.1189
55.1155
55.1121
55.1088
55.1054
55.102
55.0986
55.0953
55.0919
55.0885
55.0851
55.0818
55.0784
55.075
55.0717
55.0683
55.0649
55.0615
55.0582
55.0548
55.0514
55.0481
55.0447
55.0413
55.0379
55.0346
55.0312
55.0278
55.0244
55.0211
55.0177
55.0143
55.011
55.0076
55.0042
55.0008
54.9975
54.9941
54.9907
54.9873
54.984
54.9806
54.9772
54.9739
54.9705
54.9671
54.9637
54.9604
54.957
54.9536
54.9502
54.9469
54.9435
54.9401
54.9368
54.9334
54.93
54.9266
54.9233
54.9199
54.9165
54.9131
54.9098
54.9064
54.903
54.8996
54.8963
54.8929
54.8895
54.8862
54.8828
54.8794
54.876
54.8727
54.8693
54.8659
54.8625
54.8592
54.8558
54.8524
54.849
54.8457
54.8423
54.8389
54.8355
54.8322
54.8288
54.8254
54.822
54.8187
54.8153
54.8119
54.8086
54.8052
54.8018
54.7984
54.7951
54.7917
54.7883
54.7849
54.7816
54.7782
54.7748
54.7714
54.7681
54.7647
54.7613
54.7579
54.7546
54.7512
54.7478
54.7444
54.7411
54.7377
54.7343
54.7309
54.7276
54.7242
54.7208
54.7174
54.7141
54.7107
54.7073
54.7039
54.7006
54.6972
54.6938
54.6904
54.6871
54.6837
54.6803
54.6769
54.6736
54.6702
54.6668
54.6634
54.6601
54.6567
54.6533
54.6499
54.6466
54.6432
54.6432
56.5138
56.5138
56.2684
56.221
56.1991
56.184
56.1717
56.1607
56.1506
56.141
56.1318
56.1229
56.1142
56.1058
56.0975
56.0895
56.0816
56.074
56.0664
56.0591
56.0518
56.0447
56.0378
56.0309
56.0242
56.0175
56.011
56.0046
55.9983
55.9921
55.9859
55.9799
55.9739
55.968
55.9621
55.9563
55.9506
55.945
55.9394
55.9339
55.9284
55.923
55.9177
55.9124
55.9071
55.9019
55.8967
55.8916
55.8865
55.8815
55.8765
55.8715
55.8666
55.8617
55.8569
55.8521
55.8473
55.8425
55.8378
55.8331
55.8285
55.8238
55.8192
55.8147
55.8101
55.8056
55.8011
55.7966
55.7922
55.7878
55.7834
55.779
55.7747
55.7703
55.766
55.7618
55.7575
55.7532
55.749
55.7448
55.7406
55.7365
55.7323
55.7282
55.7241
55.72
55.7159
55.7118
55.7078
55.7037
55.6997
55.6957
55.6917
55.6877
55.6838
55.6798
55.6759
55.672
55.6681
55.6642
55.6603
55.6564
55.6526
55.6487
55.6449
55.6411
55.6373
55.6335
55.6297
55.6259
55.6221
55.6184
55.6147
55.6109
55.6072
55.6035
55.5998
55.5961
55.5925
55.5888
55.5852
55.5815
55.5779
55.5743
55.5707
55.5671
55.5635
55.5599
55.5564
55.5528
55.5493
55.5457
55.5422
55.5387
55.5352
55.5317
55.5282
55.5247
55.5212
55.5177
55.5143
55.5108
55.5073
55.5039
55.5004
55.497
55.4936
55.4901
55.4867
55.4833
55.4799
55.4765
55.4731
55.4697
55.4663
55.4629
55.4595
55.4561
55.4527
55.4493
55.4459
55.4425
55.4391
55.4358
55.4324
55.429
55.4256
55.4223
55.4189
55.4155
55.4121
55.4088
55.4054
55.402
55.3986
55.3953
55.3919
55.3885
55.3852
55.3818
55.3784
55.3751
55.3717
55.3683
55.3649
55.3616
55.3582
55.3548
55.3515
55.3481
55.3447
55.3414
55.338
55.3346
55.3312
55.3279
55.3245
55.3211
55.3178
55.3144
55.311
55.3077
55.3043
55.3009
55.2975
55.2942
55.2908
55.2874
55.2841
55.2807
55.2773
55.2739
55.2706
55.2672
55.2638
55.2605
55.2571
55.2537
55.2503
55.247
55.2436
55.2402
55.2369
55.2335
55.2301
55.2268
55.2234
55.22
55.2166
55.2133
55.2099
55.2065
55.2032
55.1998
55.1964
55.193
55.1897
55.1863
55.1829
55.1796
55.1762
55.1728
55.1694
55.1661
55.1627
55.1593
55.156
55.1526
55.1492
55.1458
55.1425
55.1391
55.1357
55.1324
55.129
55.1256
55.1222
55.1189
55.1155
55.1121
55.1088
55.1054
55.102
55.0986
55.0953
55.0919
55.0885
55.0851
55.0818
55.0784
55.075
55.0717
55.0683
55.0649
55.0615
55.0582
55.0548
55.0514
55.0481
55.0447
55.0413
55.0379
55.0346
55.0312
55.0278
55.0244
55.0211
55.0177
55.0143
55.011
55.0076
55.0042
55.0008
54.9975
54.9941
54.9907
54.9873
54.984
54.9806
54.9772
54.9739
54.9705
54.9671
54.9637
54.9604
54.957
54.9536
54.9502
54.9469
54.9435
54.9401
54.9368
54.9334
54.93
54.9266
54.9233
54.9199
54.9165
54.9131
54.9098
54.9064
54.903
54.8996
54.8963
54.8929
54.8895
54.8862
54.8828
54.8794
54.876
54.8727
54.8693
54.8659
54.8625
54.8592
54.8558
54.8524
54.849
54.8457
54.8423
54.8389
54.8355
54.8322
54.8288
54.8254
54.822
54.8187
54.8153
54.8119
54.8086
54.8052
54.8018
54.7984
54.7951
54.7917
54.7883
54.7849
54.7816
54.7782
54.7748
54.7714
54.7681
54.7647
54.7613
54.7579
54.7546
54.7512
54.7478
54.7444
54.7411
54.7377
54.7343
54.7309
54.7276
54.7242
54.7208
54.7174
54.7141
54.7107
54.7073
54.7039
54.7006
54.6972
54.6938
54.6904
54.6871
54.6837
54.6803
54.6769
54.6736
54.6702
54.6668
54.6634
54.6601
54.6567
54.6533
54.6499
54.6466
54.6432
54.6432
56.4987
56.4987
56.2712
56.2221
56.1997
56.1844
56.1719
56.1609
56.1507
56.1411
56.1319
56.1229
56.1143
56.1058
56.0976
56.0896
56.0817
56.074
56.0665
56.0591
56.0518
56.0447
56.0378
56.0309
56.0242
56.0176
56.0111
56.0046
55.9983
55.9921
55.9859
55.9799
55.9739
55.968
55.9621
55.9564
55.9507
55.945
55.9394
55.9339
55.9284
55.923
55.9177
55.9124
55.9071
55.9019
55.8967
55.8916
55.8865
55.8815
55.8765
55.8715
55.8666
55.8617
55.8569
55.8521
55.8473
55.8425
55.8378
55.8331
55.8285
55.8238
55.8192
55.8147
55.8101
55.8056
55.8011
55.7967
55.7922
55.7878
55.7834
55.779
55.7747
55.7703
55.766
55.7618
55.7575
55.7533
55.749
55.7448
55.7406
55.7365
55.7323
55.7282
55.7241
55.72
55.7159
55.7118
55.7078
55.7037
55.6997
55.6957
55.6917
55.6877
55.6838
55.6798
55.6759
55.672
55.6681
55.6642
55.6603
55.6564
55.6526
55.6487
55.6449
55.6411
55.6373
55.6335
55.6297
55.6259
55.6221
55.6184
55.6147
55.6109
55.6072
55.6035
55.5998
55.5961
55.5925
55.5888
55.5852
55.5815
55.5779
55.5743
55.5707
55.5671
55.5635
55.5599
55.5564
55.5528
55.5493
55.5457
55.5422
55.5387
55.5352
55.5317
55.5282
55.5247
55.5212
55.5177
55.5143
55.5108
55.5073
55.5039
55.5004
55.497
55.4936
55.4901
55.4867
55.4833
55.4799
55.4765
55.4731
55.4697
55.4663
55.4629
55.4595
55.4561
55.4527
55.4493
55.4459
55.4425
55.4391
55.4358
55.4324
55.429
55.4256
55.4223
55.4189
55.4155
55.4121
55.4088
55.4054
55.402
55.3986
55.3953
55.3919
55.3885
55.3852
55.3818
55.3784
55.3751
55.3717
55.3683
55.3649
55.3616
55.3582
55.3548
55.3515
55.3481
55.3447
55.3414
55.338
55.3346
55.3312
55.3279
55.3245
55.3211
55.3178
55.3144
55.311
55.3077
55.3043
55.3009
55.2975
55.2942
55.2908
55.2874
55.2841
55.2807
55.2773
55.2739
55.2706
55.2672
55.2638
55.2605
55.2571
55.2537
55.2503
55.247
55.2436
55.2402
55.2369
55.2335
55.2301
55.2268
55.2234
55.22
55.2166
55.2133
55.2099
55.2065
55.2032
55.1998
55.1964
55.193
55.1897
55.1863
55.1829
55.1796
55.1762
55.1728
55.1694
55.1661
55.1627
55.1593
55.156
55.1526
55.1492
55.1458
55.1425
55.1391
55.1357
55.1324
55.129
55.1256
55.1222
55.1189
55.1155
55.1121
55.1088
55.1054
55.102
55.0986
55.0953
55.0919
55.0885
55.0851
55.0818
55.0784
55.075
55.0717
55.0683
55.0649
55.0615
55.0582
55.0548
55.0514
55.0481
55.0447
55.0413
55.0379
55.0346
55.0312
55.0278
55.0244
55.0211
55.0177
55.0143
55.011
55.0076
55.0042
55.0008
54.9975
54.9941
54.9907
54.9873
54.984
54.9806
54.9772
54.9739
54.9705
54.9671
54.9637
54.9604
54.957
54.9536
54.9502
54.9469
54.9435
54.9401
54.9368
54.9334
54.93
54.9266
54.9233
54.9199
54.9165
54.9131
54.9098
54.9064
54.903
54.8996
54.8963
54.8929
54.8895
54.8862
54.8828
54.8794
54.876
54.8727
54.8693
54.8659
54.8625
54.8592
54.8558
54.8524
54.849
54.8457
54.8423
54.8389
54.8355
54.8322
54.8288
54.8254
54.822
54.8187
54.8153
54.8119
54.8086
54.8052
54.8018
54.7984
54.7951
54.7917
54.7883
54.7849
54.7816
54.7782
54.7748
54.7714
54.7681
54.7647
54.7613
54.7579
54.7546
54.7512
54.7478
54.7444
54.7411
54.7377
54.7343
54.7309
54.7276
54.7242
54.7208
54.7174
54.7141
54.7107
54.7073
54.7039
54.7006
54.6972
54.6938
54.6904
54.6871
54.6837
54.6803
54.6769
54.6736
54.6702
54.6668
54.6634
54.6601
54.6567
54.6533
54.6499
54.6466
54.6432
54.6432
56.4847
56.4847
56.2737
56.2232
56.2003
56.1848
56.1722
56.1611
56.1509
56.1412
56.132
56.123
56.1143
56.1059
56.0976
56.0896
56.0817
56.074
56.0665
56.0591
56.0519
56.0448
56.0378
56.0309
56.0242
56.0176
56.0111
56.0046
55.9983
55.9921
55.9859
55.9799
55.9739
55.968
55.9621
55.9564
55.9507
55.945
55.9394
55.9339
55.9285
55.923
55.9177
55.9124
55.9071
55.9019
55.8967
55.8916
55.8865
55.8815
55.8765
55.8715
55.8666
55.8617
55.8569
55.8521
55.8473
55.8425
55.8378
55.8331
55.8285
55.8238
55.8192
55.8147
55.8101
55.8056
55.8011
55.7967
55.7922
55.7878
55.7834
55.779
55.7747
55.7704
55.766
55.7618
55.7575
55.7533
55.749
55.7448
55.7406
55.7365
55.7323
55.7282
55.7241
55.72
55.7159
55.7118
55.7078
55.7037
55.6997
55.6957
55.6917
55.6877
55.6838
55.6798
55.6759
55.672
55.6681
55.6642
55.6603
55.6564
55.6526
55.6487
55.6449
55.6411
55.6373
55.6335
55.6297
55.6259
55.6221
55.6184
55.6147
55.6109
55.6072
55.6035
55.5998
55.5961
55.5925
55.5888
55.5852