# vtk DataFile Version 2.0
FlowField
ASCII
DATASET STRUCTURED_GRID
DIMENSIONS 400 1 200
POINTS 80000 float
0 0 0
0.08 0 0
0.16 0 0
0.24 0 0
0.32 0 0
0.4 0 0
0.48 0 0
0.56 0 0
0.64 0 0
0.72 0 0
0.8 0 0
0.88 0 0
0.96 0 0
1.04 0 0
1.12 0 0
1.2 0 0
1.28 0 0
1.36 0 0
1.44 0 0
1.52 0 0
1.6 0 0
1.68 0 0
1.76 0 0
1.84 0 0
1.92 0 0
2 0 0
2.08 0 0
2.16 0 0
2.24 0 0
2.32 0 0
2.4 0 0
2.48 0 0
2.56 0 0
2.64 0 0
2.72 0 0
2.8 0 0
2.88 0 0
2.96 0 0
3.04 0 0
3.12 0 0
3.2 0 0
3.28 0 0
3.36 0 0
3.44 0 0
3.52 0 0
3.6 0 0
3.68 0 0
3.76 0 0
3.84 0 0
3.92 0 0
4 0 0
4.08 0 0
4.16 0 0
4.24 0 0
4.32 0 0
4.4 0 0
4.48 0 0
4.56 0 0
4.64 0 0
4.72 0 0
4.8 0 0
4.88 0 0
4.96 0 0
5.04 0 0
5.12 0 0
5.2 0 0
5.28 0 0
5.36 0 0
5.44 0 0
5.52 0 0
5.6 0 0
5.68 0 0
5.76 0 0
5.84 0 0
5.92 0 0
6 0 0
6.08 0 0
6.16 0 0
6.24 0 0
6.32 0 0
6.4 0 0
6.48 0 0
6.56 0 0
6.64 0 0
6.72 0 0
6.8 0 0
6.88 0 0
6.96 0 0
7.04 0 0
7.12 0 0
7.2 0 0
7.28 0 0
7.36 0 0
7.44 0 0
7.52 0 0
7.6 0 0
7.68 0 0
7.76 0 0
7.84 0 0
7.92 0 0
8 0 0
8.08 0 0
8.16 0 0
8.24 0 0
8.32 0 0
8.4 0 0
8.48 0 0
8.56 0 0
8.64 0 0
8.72 0 0
8.8 0 0
8.88 0 0
8.96 0 0
9.04 0 0
9.12 0 0
9.2 0 0
9.28 0 0
9.36 0 0
9.44 0 0
9.52 0 0
9.6 0 0
9.68 0 0
9.76 0 0
9.84 0 0
9.92 0 0
10 0 0
10.08 0 0
10.16 0 0
10.24 0 0
10.32 0 0
10.4 0 0
10.48 0 0
10.56 0 0
10.64 0 0
10.72 0 0
10.8 0 0
10.88 0 0
10.96 0 0
11.04 0 0
11.12 0 0
11.2 0 0
11.28 0 0
11.36 0 0
11.44 0 0
11.52 0 0
11.6 0 0
11.68 0 0
11.76 0 0
11.84 0 0
11.92 0 0
12 0 0
12.08 0 0
12.16 0 0
12.24 0 0
12.32 0 0
12.4 0 0
12.48 0 0
12.56 0 0
12.64 0 0
12.72 0 0
12.8 0 0
12.88 0 0
12.96 0 0
13.04 0 0
13.12 0 0
13.2 0 0
13.28 0 0
13.36 0 0
13.44 0 0
13.52 0 0
13.6 0 0
13.68 0 0
13.76 0 0
13.84 0 0
13.92 0 0
14 0 0
14.08 0 0
14.16 0 0
14.24 0 0
14.32 0 0
14.4 0 0
14.48 0 0
14.56 0 0
14.64 0 0
14.72 0 0
14.8 0 0
14.88 0 0
14.96 0 0
15.04 0 0
15.12 0 0
15.2 0 0
15.28 0 0
15.36 0 0
15.44 0 0
15.52 0 0
15.6 0 0
15.68 0 0
15.76 0 0
15.84 0 0
15.92 0 0
16 0 0
16.08 0 0
16.16 0 0
16.24 0 0
16.32 0 0
16.4 0 0
16.48 0 0
16.56 0 0
16.64 0 0
16.72 0 0
16.8 0 0
16.88 0 0
16.96 0 0
17.04 0 0
17.12 0 0
17.2 0 0
17.28 0 0
17.36 0 0
17.44 0 0
17.52 0 0
17.6 0 0
17.68 0 0
17.76 0 0
17.84 0 0
17.92 0 0
18 0 0
18.08 0 0
18.16 0 0
18.24 0 0
18.32 0 0
18.4 0 0
18.48 0 0
18.56 0 0
18.64 0 0
18.72 0 0
18.8 0 0
18.88 0 0
18.96 0 0
19.04 0 0
19.12 0 0
19.2 0 0
19.28 0 0
19.36 0 0
19.44 0 0
19.52 0 0
19.6 0 0
19.68 0 0
19.76 0 0
19.84 0 0
19.92 0 0
20 0 0
20.08 0 0
20.16 0 0
20.24 0 0
20.32 0 0
20.4 0 0
20.48 0 0
20.56 0 0
20.64 0 0
20.72 0 0
20.8 0 0
20.88 0 0
20.96 0 0
21.04 0 0
21.12 0 0
21.2 0 0
21.28 0 0
21.36 0 0
21.44 0 0
21.52 0 0
21.6 0 0
21.68 0 0
21.76 0 0
21.84 0 0
21.92 0 0
22 0 0
22.08 0 0
22.16 0 0
22.24 0 0
22.32 0 0
22.4 0 0
22.48 0 0
22.56 0 0
22.64 0 0
22.72 0 0
22.8 0 0
22.88 0 0
22.96 0 0
23.04 0 0
23.12 0 0
23.2 0 0
23.28 0 0
23.36 0 0
23.44 0 0
23.52 0 0
23.6 0 0
23.68 0 0
23.76 0 0
23.84 0 0
23.92 0 0
24 0 0
24.08 0 0
24.16 0 0
24.24 0 0
24.32 0 0
24.4 0 0
24.48 0 0
24.56 0 0
24.64 0 0
24.72 0 0
24.8 0 0
24.88 0 0
24.96 0 0
25.04 0 0
25.12 0 0
25.2 0 0
25.28 0 0
25.36 0 0
25.44 0 0
25.52 0 0
25.6 0 0
25.68 0 0
25.76 0 0
25.84 0 0
25.92 0 0
26 0 0
26.08 0 0
26.16 0 0
26.24 0 0
26.32 0 0
26.4 0 0
26.48 0 0
26.56 0 0
26.64 0 0
26.72 0 0
26.8 0 0
26.88 0 0
26.96 0 0
27.04 0 0
27.12 0 0
27.2 0 0
27.28 0 0
27.36 0 0
27.44 0 0
27.52 0 0
27.6 0 0
27.68 0 0
27.76 0 0
27.84 0 0
27.92 0 0
28 0 0
28.08 0 0
28.16 0 0
28.24 0 0
28.32 0 0
28.4 0 0
28.48 0 0
28.56 0 0
28.64 0 0
28.72 0 0
28.8 0 0
28.88 0 0
28.96 0 0
29.04 0 0
29.12 0 0
29.2 0 0
29.28 0 0
29.36 0 0
29.44 0 0
29.52 0 0
29.6 0 0
29.68 0 0
29.76 0 0
29.84 0 0
29.92 0 0
30 0 0
30.08 0 0
30.16 0 0
30.24 0 0
30.32 0 0
30.4 0 0
30.48 0 0
30.56 0 0
30.64 0 0
30.72 0 0
30.8 0 0
30.88 0 0
30.96 0 0
31.04 0 0
31.12 0 0
31.2 0 0
31.28 0 0
31.36 0 0
31.44 0 0
31.52 0 0
31.6 0 0
31.68 0 0
31.76 0 0
31.84 0 0
31.92 0 0
0 0.005 0
0.08 0.005 0
0.16 0.005 0
0.24 0.005 0
0.32 0.005 0
0.4 0.005 0
0.48 0.005 0
0.56 0.005 0
0.64 0.005 0
0.72 0.005 0
0.8 0.005 0
0.88 0.005 0
0.96 0.005 0
1.04 0.005 0
1.12 0.005 0
1.2 0.005 0
1.28 0.005 0
1.36 0.005 0
1.44 0.005 0
1.52 0.005 0
1.6 0.005 0
1.68 0.005 0
1.76 0.005 0
1.84 0.005 0
1.92 0.005 0
2 0.005 0
2.08 0.005 0
2.16 0.005 0
2.24 0.005 0
2.32 0.005 0
2.4 0.005 0
2.48 0.005 0
2.56 0.005 0
2.64 0.005 0
2.72 0.005 0
2.8 0.005 0
2.88 0.005 0
2.96 0.005 0
3.04 0.005 0
3.12 0.005 0
3.2 0.005 0
3.28 0.005 0
3.36 0.005 0
3.44 0.005 0
3.52 0.005 0
3.6 0.005 0
3.68 0.005 0
3.76 0.005 0
3.84 0.005 0
3.92 0.005 0
4 0.005 0
4.08 0.005 0
4.16 0.005 0
4.24 0.005 0
4.32 0.005 0
4.4 0.005 0
4.48 0.005 0
4.56 0.005 0
4.64 0.005 0
4.72 0.005 0
4.8 0.005 0
4.88 0.005 0
4.96 0.005 0
5.04 0.005 0
5.12 0.005 0
5.2 0.005 0
5.28 0.005 0
5.36 0.005 0
5.44 0.005 0
5.52 0.005 0
5.6 0.005 0
5.68 0.005 0
5.76 0.005 0
5.84 0.005 0
5.92 0.005 0
6 0.005 0
6.08 0.005 0
6.16 0.005 0
6.24 0.005 0
6.32 0.005 0
6.4 0.005 0
6.48 0.005 0
6.56 0.005 0
6.64 0.005 0
6.72 0.005 0
6.8 0.005 0
6.88 0.005 0
6.96 0.005 0
7.04 0.005 0
7.12 0.005 0
7.2 0.005 0
7.28 0.005 0
7.36 0.005 0
7.44 0.005 0
7.52 0.005 0
7.6 0.005 0
7.68 0.005 0
7.76 0.005 0
7.84 0.005 0
7.92 0.005 0
8 0.005 0
8.08 0.005 0
8.16 0.005 0
8.24 0.005 0
8.32 0.005 0
8.4 0.005 0
8.48 0.005 0
8.56 0.005 0
8.64 0.005 0
8.72 0.005 0
8.8 0.005 0
8.88 0.005 0
8.96 0.005 0
9.04 0.005 0
9.12 0.005 0
9.2 0.005 0
9.28 0.005 0
9.36 0.005 0
9.44 0.005 0
9.52 0.005 0
9.6 0.005 0
9.68 0.005 0
9.76 0.005 0
9.84 0.005 0
9.92 0.005 0
10 0.005 0
10.08 0.005 0
10.16 0.005 0
10.24 0.005 0
10.32 0.005 0
10.4 0.005 0
10.48 0.005 0
10.56 0.005 0
10.64 0.005 0
10.72 0.005 0
10.8 0.005 0
10.88 0.005 0
10.96 0.005 0
11.04 0.005 0
11.12 0.005 0
11.2 0.005 0
11.28 0.005 0
11.36 0.005 0
11.44 0.005 0
11.52 0.005 0
11.6 0.005 0
11.68 0.005 0
11.76 0.005 0
11.84 0.005 0
11.92 0.005 0
12 0.005 0
12.08 0.005 0
12.16 0.005 0
12.24 0.005 0
12.32 0.005 0
12.4 0.005 0
12.48 0.005 0
12.56 0.005 0
12.64 0.005 0
12.72 0.005 0
12.8 0.005 0
12.88 0.005 0
12.96 0.005 0
13.04 0.005 0
13.12 0.005 0
13.2 0.005 0
13.28 0.005 0
13.36 0.005 0
13.44 0.005 0
13.52 0.005 0
13.6 0.005 0
13.68 0.005 0
13.76 0.005 0
13.84 0.005 0
13.92 0.005 0
14 0.005 0
14.08 0.005 0
14.16 0.005 0
14.24 0.005 0
14.32 0.005 0
14.4 0.005 0
14.48 0.005 0
14.56 0.005 0
14.64 0.005 0
14.72 0.005 0
14.8 0.005 0
14.88 0.005 0
14.96 0.005 0
15.04 0.005 0
15.12 0.005 0
15.2 0.005 0
15.28 0.005 0
15.36 0.005 0
15.44 0.005 0
15.52 0.005 0
15.6 0.005 0
15.68 0.005 0
15.76 0.005 0
15.84 0.005 0
15.92 0.005 0
16 0.005 0
16.08 0.005 0
16.16 0.005 0
16.24 0.005 0
16.32 0.005 0
16.4 0.005 0
16.48 0.005 0
16.56 0.005 0
16.64 0.005 0
16.72 0.005 0
16.8 0.005 0
16.88 0.005 0
16.96 0.005 0
17.04 0.005 0
17.12 0.005 0
17.2 0.005 0
17.28 0.005 0
17.36 0.005 0
17.44 0.005 0
17.52 0.005 0
17.6 0.005 0
17.68 0.005 0
17.76 0.005 0
17.84 0.005 0
17.92 0.005 0
18 0.005 0
18.08 0.005 0
18.16 0.005 0
18.24 0.005 0
18.32 0.005 0
18.4 0.005 0
18.48 0.005 0
18.56 0.005 0
18.64 0.005 0
18.72 0.005 0
18.8 0.005 0
18.88 0.005 0
18.96 0.005 0
19.04 0.005 0
19.12 0.005 0
19.2 0.005 0
19.28 0.005 0
19.36 0.005 0
19.44 0.005 0
19.52 0.005 0
19.6 0.005 0
19.68 0.005 0
19.76 0.005 0
19.84 0.005 0
19.92 0.005 0
20 0.005 0
20.08 0.005 0
20.16 0.005 0
20.24 0.005 0
20.32 0.005 0
20.4 0.005 0
20.48 0.005 0
20.56 0.005 0
20.64 0.005 0
20.72 0.005 0
20.8 0.005 0
20.88 0.005 0
20.96 0.005 0
21.04 0.005 0
21.12 0.005 0
21.2 0.005 0
21.28 0.005 0
21.36 0.005 0
21.44 0.005 0
21.52 0.005 0
21.6 0.005 0
21.68 0.005 0
21.76 0.005 0
21.84 0.005 0
21.92 0.005 0
22 0.005 0
22.08 0.005 0
22.16 0.005 0
22.24 0.005 0
22.32 0.005 0
22.4 0.005 0
22.48 0.005 0
22.56 0.005 0
22.64 0.005 0
22.72 0.005 0
22.8 0.005 0
22.88 0.005 0
22.96 0.005 0
23.04 0.005 0
23.12 0.005 0
23.2 0.005 0
23.28 0.005 0
23.36 0.005 0
23.44 0.005 0
23.52 0.005 0
23.6 0.005 0
23.68 0.005 0
23.76 0.005 0
23.84 0.005 0
23.92 0.005 0
24 0.005 0
24.08 0.005 0
24.16 0.005 0
24.24 0.005 0
24.32 0.005 0
24.4 0.005 0
24.48 0.005 0
24.56 0.005 0
24.64 0.005 0
24.72 0.005 0
24.8 0.005 0
24.88 0.005 0
24.96 0.005 0
25.04 0.005 0
25.12 0.005 0
25.2 0.005 0
25.28 0.005 0
25.36 0.005 0
25.44 0.005 0
25.52 0.005 0
25.6 0.005 0
25.68 0.005 0
25.76 0.005 0
25.84 0.005 0
25.92 0.005 0
26 0.005 0
26.08 0.005 0
26.16 0.005 0
26.24 0.005 0
26.32 0.005 0
26.4 0.005 0
26.48 0.005 0
26.56 0.005 0
26.64 0.005 0
26.72 0.005 0
26.8 0.005 0
26.88 0.005 0
26.96 0.005 0
27.04 0.005 0
27.12 0.005 0
27.2 0.005 0
27.28 0.005 0
27.36 0.005 0
27.44 0.005 0
27.52 0.005 0
27.6 0.005 0
27.68 0.005 0
27.76 0.005 0
27.84 0.005 0
27.92 0.005 0
28 0.005 0
28.08 0.005 0
28.16 0.005 0
28.24 0.005 0
28.32 0.005 0
28.4 0.005 0
28.48 0.005 0
28.56 0.005 0
28.64 0.005 0
28.72 0.005 0
28.8 0.005 0
28.88 0.005 0
28.96 0.005 0
29.04 0.005 0
29.12 0.005 0
29.2 0.005 0
29.28 0.005 0
29.36 0.005 0
29.44 0.005 0
29.52 0.005 0
29.6 0.005 0
29.68 0.005 0
29.76 0.005 0
29.84 0.005 0
29.92 0.005 0
30 0.005 0
30.08 0.005 0
30.16 0.005 0
30.24 0.005 0
30.32 0.005 0
30.4 0.005 0
30.48 0.005 0
30.56 0.005 0
30.64 0.005 0
30.72 0.005 0
30.8 0.005 0
30.88 0.005 0
30.96 0.005 0
31.04 0.005 0
31.12 0.005 0
31.2 0.005 0
31.28 0.005 0
31.36 0.005 0
31.44 0.005 0
31.52 0.005 0
31.6 0.005 0
31.68 0.005 0
31.76 0.005 0
31.84 0.005 0
31.92 0.005 0
0 0.01 0
0.08 0.01 0
0.16 0.01 0
0.24 0.01 0
0.32 0.01 0
0.4 0.01 0
0.48 0.01 0
0.56 0.01 0
0.64 0.01 0
0.72 0.01 0
0.8 0.01 0
0.88 0.01 0
0.96 0.01 0
1.04 0.01 0
1.12 0.01 0
1.2 0.01 0
1.28 0.01 0
1.36 0.01 0
1.44 0.01 0
1.52 0.01 0
1.6 0.01 0
1.68 0.01 0
1.76 0.01 0
1.84 0.01 0
1.92 0.01 0
2 0.01 0
2.08 0.01 0
2.16 0.01 0
2.24 0.01 0
2.32 0.01 0
2.4 0.01 0
2.48 0.01 0
2.56 0.01 0
2.64 0.01 0
2.72 0.01 0
2.8 0.01 0
2.88 0.01 0
2.96 0.01 0
3.04 0.01 0
3.12 0.01 0
3.2 0.01 0
3.28 0.01 0
3.36 0.01 0
3.44 0.01 0
3.52 0.01 0
3.6 0.01 0
3.68 0.01 0
3.76 0.01 0
3.84 0.01 0
3.92 0.01 0
4 0.01 0
4.08 0.01 0
4.16 0.01 0
4.24 0.01 0
4.32 0.01 0
4.4 0.01 0
4.48 0.01 0
4.56 0.01 0
4.64 0.01 0
4.72 0.01 0
4.8 0.01 0
4.88 0.01 0
4.96 0.01 0
5.04 0.01 0
5.12 0.01 0
[...]
POINT_DATA 80000

SCALARS p float 1
LOOKUP_TABLE default
1
56.5675
56.2657
56.2246
56.2045
56.1901
56.1781
56.1673
56.1573
56.1478
56.1387
56.1298
56.1212
56.1128
56.1046
56.0966
56.0887
56.0811
56.0735
56.0662
56.0589
56.0518
56.0449
56.038
56.0313
56.0247
56.0182
56.0118
56.0054
55.9992
55.9931
55.987
55.981
55.9751
55.9693
55.9635
55.9578
55.9522
55.9466
55.9411
55.9356
55.9302
55.9248
55.9195
55.9143
55.9091
55.9039
55.8988
55.8937
55.8887
55.8837
55.8787
55.8738
55.8689
55.8641
55.8592
55.8545
55.8497
55.845
55.8403
55.8357
55.831
55.8264
55.8219
55.8173
55.8128
55.8083
55.8038
55.7994
55.795
55.7906
55.7862
55.7819
55.7775
55.7732
55.769
55.7647
55.7604
55.7562
55.752
55.7478
55.7437
55.7395
55.7354
55.7313
55.7272
55.7231
55.719
55.715
55.7109
55.7069
55.7029
55.6989
55.695
55.691
55.6871
55.6832
55.6793
55.6754
55.6715
55.6676
55.6638
55.6599
55.6561
55.6523
55.6485
55.6448
55.641
55.6373
55.6335
55.6298
55.6261
55.6224
55.6187
55.6151
55.6114
55.6078
55.6042
55.6006
55.5969
55.5934
55.5898
55.5862
55.5826
55.5791
55.5755
55.572
55.5685
55.565
55.5614
55.5579
55.5544
55.551
55.5475
55.544
55.5405
55.5371
55.5336
55.5301
55.5267
55.5233
55.5198
55.5164
55.5129
55.5095
55.5061
55.5027
55.4992
55.4958
55.4924
55.489
55.4856
55.4822
55.4788
55.4754
55.4719
55.4685
55.4651
55.4617
55.4583
55.4549
55.4515
55.4481
55.4447
55.4413
55.4379
55.4345
55.4311
55.4277
55.4243
55.4209
55.4175
55.4141
55.4107
55.4073
55.4039
55.4005
55.3971
55.3937
55.3903
55.3868
55.3834
55.38
55.3766
55.3732
55.3698
55.3664
55.363
55.3596
55.3562
55.3528
55.3494
55.346
55.3426
55.3392
55.3358
55.3324
55.329
55.3256
55.3222
55.3188
55.3154
55.312
55.3085
55.3051
55.3017
55.2983
55.2949
55.2915
55.2881
55.2847
55.2813
55.2779
55.2745
55.2711
55.2677
55.2643
55.2609
55.2575
55.2541
55.2507
55.2473
55.2439
55.2404
55.237
55.2336
55.2302
55.2268
55.2234
55.22
55.2166
55.2132
55.2098
55.2064
55.203
55.1996
55.1962
55.1928
55.1894
55.186
55.1826
55.1791
55.1757
55.1723
55.1689
55.1655
55.1621
55.1587
55.1553
55.1519
55.1485
55.1451
55.1417
55.1383
55.1349
55.1315
55.1281
55.1246
55.1212
55.1178
55.1144
55.111
55.1076
55.1042
55.1008
55.0974
55.094
55.0906
55.0872
55.0838
55.0804
55.077
55.0735
55.0701
55.0667
55.0633
55.0599
55.0565
55.0531
55.0497
55.0463
55.0429
55.0395
55.0361
55.0327
55.0293
55.0258
55.0224
55.019
55.0156
55.0122
55.0088
55.0054
55.002
54.9986
54.9952
54.9918
54.9884
54.985
54.9815
54.9781
54.9747
54.9713
54.9679
54.9645
54.9611
54.9577
54.9543
54.9509
54.9475
54.9441
54.9406
54.9372
54.9338
54.9304
54.927
54.9236
54.9202
54.9168
54.9134
54.91
54.9066
54.9032
54.8997
54.8963
54.8929
54.8895
54.8861
54.8827
54.8793
54.8759
54.8725
54.8691
54.8657
54.8622
54.8588
54.8554
54.852
54.8486
54.8452
54.8418
54.8384
54.835
54.8316
54.8282
54.8247
54.8213
54.8179
54.8145
54.8111
54.8077
54.8043
54.8009
54.7975
54.7941
54.7907
54.7872
54.7838
54.7804
54.777
54.7736
54.7702
54.7668
54.7634
54.76
54.7566
54.7531
54.7497
54.7463
54.7429
54.7395
54.7361
54.7327
54.7293
54.7259
54.7224
54.719
54.7156
54.7122
54.7088
54.7054
54.702
54.6986
54.6952
54.6917
54.6883
54.6849
54.6815
54.6781
54.6747
54.6713
54.6679
54.6645
54.661
54.6576
54.6542
54.6508
54.6474
54.644
0.5
56.5675
56.5675
56.2657
56.2246
56.2045
56.1901
56.1781
56.1673
56.1573
56.1478
56.1387
56.1298
56.1212
56.1128
56.1046
56.0966
56.0887
56.0811
56.0735
56.0662
56.0589
56.0518
56.0449
56.038
56.0313
56.0247
56.0182
56.0118
56.0054
55.9992
55.9931
55.987
55.981
55.9751
55.9693
55.9635
55.9578
55.9522
55.9466
55.9411
55.9356
55.9302
55.9248
55.9195
55.9143
55.9091
55.9039
55.8988
55.8937
55.8887
55.8837
55.8787
55.8738
55.8689
55.8641
55.8592
55.8545
55.8497
55.845
55.8403
55.8357
55.831
55.8264
55.8219
55.8173
55.8128
55.8083
55.8038
55.7994
55.795
55.7906
55.7862
55.7819
55.7775
55.7732
55.769
55.7647
55.7604
55.7562
55.752
55.7478
55.7437
55.7395
55.7354
55.7313
55.7272
55.7231
55.719
55.715
55.7109
55.7069
55.7029
55.6989
55.695
55.691
55.6871
55.6832
55.6793
55.6754
55.6715
55.6676
55.6638
55.6599
55.6561
55.6523
55.6485
55.6448
55.641
55.6373
55.6335
55.6298
55.6261
55.6224
55.6187
55.6151
55.6114
55.6078
55.6042
55.6006
55.5969
55.5934
55.5898
55.5862
55.5826
55.5791
55.5755
55.572
55.5685
55.565
55.5614
55.5579
55.5544
55.551
55.5475
55.544
55.5405
55.5371
55.5336
55.5301
55.5267
55.5233
55.5198
55.5164
55.5129
55.5095
55.5061
55.5027
55.4992
55.4958
55.4924
55.489
55.4856
55.4822
55.4788
55.4754
55.4719
55.4685
55.4651
55.4617
55.4583
55.4549
55.4515
55.4481
55.4447
55.4413
55.4379
55.4345
55.4311
55.4277
55.4243
55.4209
55.4175
55.4141
55.4107
55.4073
55.4039
55.4005
55.3971
55.3937
55.3903
55.3868
55.3834
55.38
55.3766
55.3732
55.3698
55.3664
55.363
55.3596
55.3562
55.3528
55.3494
55.346
55.3426
55.3392
55.3358
55.3324
55.329
55.3256
55.3222
55.3188
55.3154
55.312
55.3085
55.3051
55.3017
55.2983
55.2949
55.2915
55.2881
55.2847
55.2813
55.2779
55.2745
55.2711
55.2677
55.2643
55.2609
55.2575
55.2541
55.2507
55.2473
55.2439
55.2404
55.237
55.2336
55.2302
55.2268
55.2234
55.22
55.2166
55.2132
55.2098
55.2064
55.203
55.1996
55.1962
55.1928
55.1894
55.186
55.1826
55.1791
55.1757
55.1723
55.1689
55.1655
55.1621
55.1587
55.1553
55.1519
55.1485
55.1451
55.1417
55.1383
55.1349
55.1315
55.1281
55.1246
55.1212
55.1178
55.1144
55.111
55.1076
55.1042
55.1008
55.0974
55.094
55.0906
55.0872
55.0838
55.0804
55.077
55.0735
55.0701
55.0667
55.0633
55.0599
55.0565
55.0531
55.0497
55.0463
55.0429
55.0395
55.0361
55.0327
55.0293
55.0258
55.0224
55.019
55.0156
55.0122
55.0088
55.0054
55.002
54.9986
54.9952
54.9918
54.9884
54.985
54.9815
54.9781
54.9747
54.9713
54.9679
54.9645
54.9611
54.9577
54.9543
54.9509
54.9475
54.9441
54.9406
54.9372
54.9338
54.9304
54.927
54.9236
54.9202
54.9168
54.9134
54.91
54.9066
54.9032
54.8997
54.8963
54.8929
54.8895
54.8861
54.8827
54.8793
54.8759
54.8725
54.8691
54.8657
54.8622
54.8588
54.8554
54.852
54.8486
54.8452
54.8418
54.8384
54.835
54.8316
54.8282
54.8247
54.8213
54.8179
54.8145
54.8111
54.8077
54.8043
54.8009
54.7975
54.7941
54.7907
54.7872
54.7838
54.7804
54.777
54.7736
54.7702
54.7668
54.7634
54.76
54.7566
54.7531
54.7497
54.7463
54.7429
54.7395
54.7361
54.7327
54.7293
54.7259
54.7224
54.719
54.7156
54.7122
54.7088
54.7054
54.702
54.6986
54.6952
54.6917
54.6883
54.6849
54.6815
54.6781
54.6747
54.6713
54.6679
54.6645
54.661
54.6576
54.6542
54.6508
54.6474
54.644
54.644
56.5529
56.5529
56.2696
56.2258
56.2051
56.1905
56.1783
56.1675
56.1575
56.1479
56.1388
56.1299
56.1213
56.1129
56.1046
56.0966
56.0888
56.0811
56.0736
56.0662
56.059
56.0519
56.0449
56.0381
56.0313
56.0247
56.0182
56.0118
56.0055
55.9992
55.9931
55.987
55.981
55.9751
55.9693
55.9635
55.9578
55.9522
55.9466
55.9411
55.9356
55.9302
55.9249
55.9195
55.9143
55.9091
55.9039
55.8988
55.8937
55.8887
55.8837
55.8787
55.8738
55.8689
55.8641
55.8592
55.8545
55.8497
55.845
55.8403
55.8357
55.831
55.8264
55.8219
55.8173
55.8128
55.8083
55.8038
55.7994
55.795
55.7906
55.7862
55.7819
55.7775
55.7732
55.769
55.7647
55.7604
55.7562
55.752
55.7478
55.7437
55.7395
55.7354
55.7313
55.7272
55.7231
55.719
55.715
55.7109
55.7069
55.7029
55.6989
55.695
55.691
55.6871
55.6832
55.6793
55.6754
55.6715
55.6676
55.6638
55.6599
55.6561
55.6523
55.6485
55.6448
55.641
55.6373
55.6335
55.6298
55.6261
55.6224
55.6188
55.6151
55.6114
55.6078
55.6042
55.6006
55.5969
55.5934
55.5898
55.5862
55.5826
55.5791
55.5755
55.572
55.5685
55.565
55.5614
55.5579
55.5544
55.551
55.5475
55.544
55.5405
55.5371
55.5336
55.5301
55.5267
55.5233
55.5198
55.5164
55.5129
55.5095
55.5061
55.5027
55.4992
55.4958
55.4924
55.489
55.4856
55.4822
55.4788
55.4754
55.4719
55.4685
55.4651
55.4617
55.4583
55.4549
55.4515
55.4481
55.4447
55.4413
55.4379
55.4345
55.4311
55.4277
55.4243
55.4209
55.4175
55.4141
55.4107
55.4073
55.4039
55.4005
55.3971
55.3937
55.3903
55.3868
55.3834
55.38
55.3766
55.3732
55.3698
55.3664
55.363
55.3596
55.3562
55.3528
55.3494
55.346
55.3426
55.3392
55.3358
55.3324
55.329
55.3256
55.3222
55.3188
55.3154
55.312
55.3085
55.3051
55.3017
55.2983
55.2949
55.2915
55.2881
55.2847
55.2813
55.2779
55.2745
55.2711
55.2677
55.2643
55.2609
55.2575
55.2541
55.2507
55.2473
55.2439
55.2404
55.237
55.2336
55.2302
55.2268
55.2234
55.22
55.2166
55.2132
55.2098
55.2064
55.203
55.1996
55.1962
55.1928
55.1894
55.186
55.1826
55.1791
55.1757
55.1723
55.1689
55.1655
55.1621
55.1587
55.1553
55.1519
55.1485
55.1451
55.1417
55.1383
55.1349
55.1315
55.1281
55.1246
55.1212
55.1178
55.1144
55.111
55.1076
55.1042
55.1008
55.0974
55.094
55.0906
55.0872
55.0838
55.0804
55.077
55.0735
55.0701
55.0667
55.0633
55.0599
55.0565
55.0531
55.0497
55.0463
55.0429
55.0395
55.0361
55.0327
55.0293
55.0258
55.0224
55.019
55.0156
55.0122
55.0088
55.0054
55.002
54.9986
54.9952
54.9918
54.9884
54.985
54.9815
54.9781
54.9747
54.9713
54.9679
54.9645
54.9611
54.9577
54.9543
54.9509
54.9475
54.9441
54.9406
54.9372
54.9338
54.9304
54.927
54.9236
54.9202
54.9168
54.9134
54.91
54.9066
54.9032
54.8997
54.8963
54.8929
54.8895
54.8861
54.8827
54.8793
54.8759
54.8725
54.8691
54.8657
54.8622
54.8588
54.8554
54.852
54.8486
54.8452
54.8418
54.8384
54.835
54.8316
54.8282
54.8247
54.8213
54.8179
54.8145
54.8111
54.8077
54.8043
54.8009
54.7975
54.7941
54.7907
54.7872
54.7838
54.7804
54.777
54.7736
54.7702
54.7668
54.7634
54.76
54.7566
54.7531
54.7497
54.7463
54.7429
54.7395
54.7361
54.7327
54.7293
54.7259
54.7224
54.719
54.7156
54.7122
54.7088
54.7054
54.702
54.6986
54.6952
54.6917
54.6883
54.6849
54.6815
54.6781
54.6747
54.6713
54.6679
54.6645
54.661
54.6576
54.6542
54.6508
54.6474
54.644
54.644
56.5369
56.5369
56.2728
56.227
56.2057
56.1909
56.1786
56.1677
56.1576
56.1481
56.1389
56.13
56.1213
56.1129
56.1047
56.0967
56.0888
56.0811
56.0736
56.0662
56.059
56.0519
56.0449
56.0381
56.0314
56.0247
56.0182
56.0118
56.0055
55.9993
55.9931
55.987
55.9811
55.9751
55.9693
55.9635
55.9578
55.9522
55.9466
55.9411
55.9356
55.9302
55.9249
55.9196
55.9143
55.9091
55.9039
55.8988
55.8937
55.8887
55.8837
55.8787
55.8738
55.8689
55.8641
55.8593
55.8545
55.8497
55.845
55.8403
55.8357
55.831
55.8264
55.8219
55.8173
55.8128
55.8083
55.8038
55.7994
55.795
55.7906
55.7862
55.7819
55.7775
55.7732
55.769
55.7647
55.7605
55.7562
55.752
55.7478
55.7437
55.7395
55.7354
55.7313
55.7272
55.7231
55.719
55.715
55.7109
55.7069
55.7029
55.6989
55.695
55.691
55.6871
55.6832
55.6793
55.6754
55.6715
55.6676
55.6638
55.6599
55.6561
55.6523
55.6485
55.6448
55.641
55.6373
55.6335
55.6298
55.6261
55.6224
55.6188
55.6151
55.6114
55.6078
55.6042
55.6006
55.597
55.5934
55.5898
55.5862
55.5826
55.5791
55.5755
55.572
55.5685
55.565
55.5614
55.5579
55.5544
55.551
55.5475
55.544
55.5405
55.5371
55.5336
55.5301
55.5267
55.5233
55.5198
55.5164
55.5129
55.5095
55.5061
55.5027
55.4992
55.4958
55.4924
55.489
55.4856
55.4822
55.4788
55.4754
55.4719
55.4685
55.4651
55.4617
55.4583
55.4549
55.4515
55.4481
55.4447
55.4413
55.4379
55.4345
55.4311
55.4277
55.4243
55.4209
55.4175
55.4141
55.4107
55.4073
55.4039
55.4005
55.3971
55.3937
55.3903
55.3868
55.3834
55.38
55.3766
55.3732
55.3698
55.3664
55.363
55.3596
55.3562
55.3528
55.3494
55.346
55.3426
55.3392
55.3358
55.3324
55.329
55.3256
55.3222
55.3188
55.3154
55.312
55.3085
55.3051
55.3017
55.2983
55.2949
55.2915
55.2881
55.2847
55.2813
55.2779
55.2745
55.2711
55.2677
55.2643
55.2609
55.2575
55.2541
55.2507
55.2473
55.2439
55.2404
55.237
55.2336
55.2302
55.2268
55.2234
55.22
55.2166
55.2132
55.2098
55.2064
55.203
55.1996
55.1962
55.1928
55.1894
55.186
55.1826
55.1791
55.1757
55.1723
55.1689
55.1655
55.1621
55.1587
55.1553
55.1519
55.1485
55.1451
55.1417
55.1383
55.1349
55.1315
55.1281
55.1246
55.1212
55.1178
55.1144
55.111
55.1076
55.1042
55.1008
55.0974
55.094
55.0906
55.0872
55.0838
55.0804
55.077
55.0735
55.0701
55.0667
55.0633
55.0599
55.0565
55.0531
55.0497
55.0463
55.0429
55.0395
55.0361
55.0327
55.0293
55.0258
55.0224
55.019
55.0156
55.0122
55.0088
55.0054
55.002
54.9986
54.9952
54.9918
54.9884
54.985
54.9815
54.9781
54.9747
54.9713
54.9679
54.9645
54.9611
54.9577
54.9543
54.9509
54.9475
54.9441
54.9406
54.9372
54.9338
54.9304
54.927
54.9236
54.9202
54.9168
54.9134
54.91
54.9066
54.9032
54.8997
54.8963
54.8929
54.8895
54.8861
54.8827
54.8793
54.8759
54.8725
54.8691
54.8657
54.8622
54.8588
54.8554
54.852
54.8486
54.8452
54.8418
54.8384
54.835
54.8316
54.8282
54.8247
54.8213
54.8179
54.8145
54.8111
54.8077
54.8043
54.8009
54.7975
54.7941
54.7907
54.7872
54.7838
54.7804
54.777
54.7736
54.7702
54.7668
54.7634
54.76
54.7566
54.7531
54.7497
54.7463
54.7429
54.7395
54.7361
54.7327
54.7293
54.7259
54.7224
54.719
54.7156
54.7122
54.7088
54.7054
54.702
54.6986
54.6952
54.6917
54.6883
54.6849
54.6815
54.6781
54.6747
54.6713
54.6679
54.6645
54.661
54.6576
54.6542
54.6508
54.6474
54.644
54.644
56.521
56.521
56.2757
56.2282
56.2063
56.1912
56.1789
56.1679
56.1578
56.1482
56.139
56.1301
56.1214
56.113
56.1047
56.0967
56.0889
56.0812
56.0736
56.0663
56.059
56.0519
56.045
56.0381
56.0314
56.0248
56.0182
56.0118
56.0055
55.9993
55.9931
55.9871
55.9811
55.9752
55.9693
55.9636
55.9578
55.9522
55.9466
55.9411
55.9356
55.9302
55.9249
55.9196
55.9143
55.9091
55.9039
55.8988
55.8937
55.8887
55.8837
55.8787
55.8738
55.8689
55.8641
55.8593
55.8545
55.8497
55.845
55.8403
55.8357
55.831
55.8264
55.8219
55.8173
55.8128
55.8083
55.8039
55.7994
55.795
55.7906
55.7862
55.7819
55.7776
55.7732
55.769
55.7647
55.7605
55.7562
55.752
55.7478
55.7437
55.7395
55.7354
55.7313
55.7272
55.7231
55.719
55.715
55.711
55.7069
55.7029
55.6989
55.695
55.691
55.6871
55.6832
55.6793
55.6754
55.6715
55.6676
55.6638
55.6599
55.6561
55.6523
55.6485
55.6448
55.641
55.6373
55.6335
55.6298
55.6261
55.6224
55.6188
55.6151
55.6114
55.6078
55.6042
55.6006
55.597
55.5934
55.5898
55.5862
55.5826
55.5791
55.5755
55.572
55.5685
55.565
55.5614
55.5579
55.5544
55.551
55.5475
55.544
55.5405
55.5371
55.5336
55.5302
55.5267
55.5233
55.5198
55.5164
55.5129
55.5095
55.5061
55.5027
55.4992
55.4958
55.4924
55.489
55.4856
55.4822
55.4788
55.4754
55.4719
55.4685
55.4651
55.4617
55.4583
55.4549
55.4515
55.4481
55.4447
55.4413
55.4379
55.4345
55.4311
55.4277
55.4243
55.4209
55.4175
55.4141
55.4107
55.4073
55.4039
55.4005
55.3971
55.3937
55.3903
55.3868
55.3834
55.38
55.3766
55.3732
55.3698
55.3664
55.363
55.3596
55.3562
55.3528
55.3494
55.346
55.3426
55.3392
55.3358
55.3324
55.329
55.3256
55.3222
55.3188
55.3154
55.312
55.3085
55.3051
55.3017
55.2983
55.2949
55.2915
55.2881
55.2847
55.2813
55.2779
55.2745
55.2711
55.2677
55.2643
55.2609
55.2575
55.2541
55.2507
55.2473
55.2439
55.2404
55.237
55.2336
55.2302
55.2268
55.2234
55.22
55.2166
55.2132
55.2098
55.2064
55.203
55.1996
55.1962
55.1928
55.1894
55.186
55.1826
55.1791
55.1757
55.1723
55.1689
55.1655
55.1621
55.1587
55.1553
55.1519
55.1485
55.1451
55.1417
55.1383
55.1349
55.1315
55.1281
55.1246
55.1212
55.1178
55.1144
55.111
55.1076
55.1042
55.1008
55.0974
55.094
55.0906
55.0872
55.0838
55.0804
55.077
55.0735
55.0701
55.0667
55.0633
55.0599
55.0565
55.0531
55.0497
55.0463
55.0429
55.0395
55.0361
55.0327
55.0293
55.0258
55.0224
55.019
55.0156
55.0122
55.0088
55.0054
55.002
54.9986
54.9952
54.9918
54.9884
54.985
54.9815
54.9781
54.9747
54.9713
54.9679
54.9645
54.9611
54.9577
54.9543
54.9509
54.9475
54.9441
54.9406
54.9372
54.9338
54.9304
54.927
54.9236
54.9202
54.9168
54.9134
54.91
54.9066
54.9032
54.8997
54.8963
54.8929
54.8895
54.8861
54.8827
54.8793
54.8759
54.8725
54.8691
54.8657
54.8622
54.8588
54.8554
54.852
54.8486
54.8452
54.8418
54.8384
54.835
54.8316
54.8282
54.8247
54.8213
54.8179
54.8145
54.8111
54.8077
54.8043
54.8009
54.7975
54.7941
54.7907
54.7872
54.7838
54.7804
54.777
54.7736
54.7702
54.7668
54.7634
54.76
54.7565
54.7531
54.7497
54.7463
54.7429
54.7395
54.7361
54.7327
54.7293
54.7259
54.7224
54.719
54.7156
54.7122
54.7088
54.7054
54.702
54.6986
54.6952
54.6917
54.6883
54.6849
54.6815
54.6781
54.6747
54.6713
54.6679
54.6645
54.661
54.6576
54.6542
54.6508
54.6474
54.644
54.644
56.5059
56.5059
56.2784
56.2293
56.2069
56.1916
56.1791
56.1681
56.1579
56.1483
56.1391
56.1301
56.1215
56.113
56.1048
56.0968
56.0889
56.0812
56.0737
56.0663
56.0591
56.052
56.045
56.0381
56.0314
56.0248
56.0183
56.0118
56.0055
55.9993
55.9931
55.9871
55.9811
55.9752
55.9693
55.9636
55.9579
55.9522
55.9466
55.9411
55.9356
55.9302
55.9249
55.9196
55.9143
55.9091
55.9039
55.8988
55.8937
55.8887
55.8837
55.8787
55.8738
55.8689
55.8641
55.8593
55.8545
55.8497
55.845
55.8403
55.8357
55.831
55.8264
55.8219
55.8173
55.8128
55.8083
55.8039
55.7994
55.795
55.7906
55.7862
55.7819
55.7776
55.7732
55.769
55.7647
55.7605
55.7562
55.752
55.7478
55.7437
55.7395
55.7354
55.7313
55.7272
55.7231
55.719
55.715
55.711
55.7069
55.7029
55.699
55.695
55.691
55.6871
55.6832
55.6793
55.6754
55.6715
55.6676
55.6638
55.66
55.6561
55.6523
55.6485
55.6448
55.641
55.6373
55.6335
55.6298
55.6261
55.6224
55.6188
55.6151
55.6114
55.6078
55.6042
55.6006
55.597
55.5934
55.5898
55.5862
55.5826
55.5791
55.5755
55.572
55.5685
55.565
55.5614
55.5579
55.5544
55.551
55.5475
55.544
55.5405
55.5371
55.5336
55.5302
55.5267
55.5233
55.5198
55.5164
55.5129
55.5095
55.5061
55.5027
55.4992
55.4958
55.4924
55.489
55.4856
55.4822
55.4788
55.4754
55.4719
55.4685
55.4651
55.4617
55.4583
55.4549
55.4515
55.4481
55.4447
55.4413
55.4379
55.4345
55.4311
55.4277
55.4243
55.4209
55.4175
55.4141
55.4107
55.4073
55.4039
55.4005
55.3971
55.3937
55.3903
55.3868
55.3834
55.38
55.3766
55.3732
55.3698
55.3664
55.363
55.3596
55.3562
55.3528
55.3494
55.346
55.3426
55.3392
55.3358
55.3324
55.329
55.3256
55.3222
55.3188
55.3154
55.312
55.3085
55.3051
55.3017
55.2983
55.2949
55.2915
55.2881
55.2847
55.2813
55.2779
55.2745
55.2711
55.2677
55.2643
55.2609
55.2575
55.2541
55.2507
55.2473
55.2439
55.2404
55.237
55.2336
55.2302
55.2268
55.2234
55.22
55.2166
55.2132
55.2098
55.2064
55.203
55.1996
55.1962
55.1928
55.1894
55.186
55.1826
55.1791
55.1757
55.1723
55.1689
55.1655
55.1621
55.1587
55.1553
55.1519
55.1485
55.1451
55.1417
55.1383
55.1349
55.1315
55.1281
55.1246
55.1212
55.1178
55.1144
55.111
55.1076
55.1042
55.1008
55.0974
55.094
55.0906
55.0872
55.0838
55.0804
55.077
55.0735
55.0701
55.0667
55.0633
55.0599
55.0565
55.0531
55.0497
55.0463
55.0429
55.0395
55.0361
55.0327
55.0293
55.0258
55.0224
55.019
55.0156
55.0122
55.0088
55.0054
55.002
54.9986
54.9952
54.9918
54.9884
54.985
54.9815
54.9781
54.9747
54.9713
54.9679
54.9645
54.9611
54.9577
54.9543
54.9509
54.9475
54.9441
54.9406
54.9372
54.9338
54.9304
54.927
54.9236
54.9202
54.9168
54.9134
54.91
54.9066
54.9032
54.8997
54.8963
54.8929
54.8895
54.8861
54.8827
54.8793
54.8759
54.8725
54.8691
54.8657
54.8622
54.8588
54.8554
54.852
54.8486
54.8452
54.8418
54.8384
54.835
54.8316
54.8282
54.8247
54.8213
54.8179
54.8145
54.8111
54.8077
54.8043
54.8009
54.7975
54.7941
54.7907
54.7872
54.7838
54.7804
54.777
54.7736
54.7702
54.7668
54.7634
54.76
54.7565
54.7531
54.7497
54.7463
54.7429
54.7395
54.7361
54.7327
54.7293
54.7259
54.7224
54.719
54.7156
54.7122
54.7088
54.7054
54.702
54.6986
54.6952
54.6917
54.6883
54.6849
54.6815
54.6781
54.6747
54.6713
54.6679
54.6645
54.661
54.6576
54.6542
54.6508
54.6474
54.644
54.644
56.4919
56.4919
56.2809
56.2304
56.2075
56.192
56.1794
56.1683
56.1581
56.1484
56.1392
56.1302
56.1215
56.1131
56.1049
56.0968
56.0889
56.0812
56.0737
56.0663
56.0591
56.052
56.045
56.0382
56.0314
56.0248
56.0183
56.0119
56.0055
55.9993
55.9931
55.9871
55.9811
55.9752
55.9693
55.9636
55.9579
55.9522
55.9466
55.9411
55.9357
55.9302
55.9249
55.9196
55.9143
55.9091
55.9039
55.8988
55.8937
55.8887
55.8837
55.8787
55.8738
55.8689
55.8641
55.8593
55.8545
55.8497
55.845
55.8403
55.8357
55.831
55.8264
55.8219
55.8173
55.8128
55.8083
55.8039
55.7994
55.795
55.7906
55.7862
55.7819
55.7776
55.7733
55.769
55.7647
55.7605
55.7562
55.752
55.7478
55.7437
55.7395
55.7354
55.7313
55.7272
55.7231
55.719
55.715
55.711
55.7069
55.7029
55.699
55.695
55.691
55.6871
55.6832
55.6793
55.6754
55.6715
55.6676
55.6638
55.66
55.6561
55.6523
55.6485
55.6448
55.641
55.6373
55.6335
55.6298
55.6261
55.6224
55.6188
55.6151
55.6114
55.6078
55.6042
55.6006
55.597
55.5934
55.5898
55.5862
55.5826
55.5791
55.5755
55.572
55.5685
55.565
55.5614
55.5579
55.5544
55.551
55.5475