# vtk DataFile Version 2.0
FlowField
ASCII
DATASET STRUCTURED_GRID
DIMENSIONS 400 1 200
POINTS 80000 float
0 0 0
0.08 0 0
0.16 0 0
0.24 0 0
0.32 0 0
0.4 0 0
0.48 0 0
0.56 0 0
0.64 0 0
0.72 0 0
0.8 0 0
0.88 0 0
0.96 0 0
1.04 0 0
1.12 0 0
1.2 0 0
1.28 0 0
1.36 0 0
1.44 0 0
1.52 0 0
1.6 0 0
1.68 0 0
1.76 0 0
1.84 0 0
1.92 0 0
2 0 0
2.08 0 0
2.16 0 0
2.24 0 0
2.32 0 0
2.4 0 0
2.48 0 0
2.56 0 0
2.64 0 0
2.72 0 0
2.8 0 0
2.88 0 0
2.96 0 0
3.04 0 0
3.12 0 0
3.2 0 0
3.28 0 0
3.36 0 0
3.44 0 0
3.52 0 0
3.6 0 0
3.68 0 0
3.76 0 0
3.84 0 0
3.92 0 0
4 0 0
4.08 0 0
4.16 0 0
4.24 0 0
4.32 0 0
4.4 0 0
4.48 0 0
4.56 0 0
4.64 0 0
4.72 0 0
4.8 0 0
4.88 0 0
4.96 0 0
5.04 0 0
5.12 0 0
5.2 0 0
5.28 0 0
5.36 0 0
5.44 0 0
5.52 0 0
5.6 0 0
5.68 0 0
5.76 0 0
5.84 0 0
5.92 0 0
6 0 0
6.08 0 0
6.16 0 0
6.24 0 0
6.32 0 0
6.4 0 0
6.48 0 0
6.56 0 0
6.64 0 0
6.72 0 0
6.8 0 0
6.88 0 0
6.96 0 0
7.04 0 0
7.12 0 0
7.2 0 0
7.28 0 0
7.36 0 0
7.44 0 0
7.52 0 0
7.6 0 0
7.68 0 0
7.76 0 0
7.84 0 0
7.92 0 0
8 0 0
8.08 0 0
8.16 0 0
8.24 0 0
8.32 0 0
8.4 0 0
8.48 0 0
8.56 0 0
8.64 0 0
8.72 0 0
8.8 0 0
8.88 0 0
8.96 0 0
9.04 0 0
9.12 0 0
9.2 0 0
9.28 0 0
9.36 0 0
9.44 0 0
9.52 0 0
9.6 0 0
9.68 0 0
9.76 0 0
9.84 0 0
9.92 0 0
10 0 0
10.08 0 0
10.16 0 0
10.24 0 0
10.32 0 0
10.4 0 0
10.48 0 0
10.56 0 0
10.64 0 0
10.72 0 0
10.8 0 0
10.88 0 0
10.96 0 0
11.04 0 0
11.12 0 0
11.2 0 0
11.28 0 0
11.36 0 0
11.44 0 0
11.52 0 0
11.6 0 0
11.68 0 0
11.76 0 0
11.84 0 0
11.92 0 0
12 0 0
12.08 0 0
12.16 0 0
12.24 0 0
12.32 0 0
12.4 0 0
12.48 0 0
12.56 0 0
12.64 0 0
12.72 0 0
12.8 0 0
12.88 0 0
12.96 0 0
13.04 0 0
13.12 0 0
13.2 0 0
13.28 0 0
13.36 0 0
13.44 0 0
13.52 0 0
13.6 0 0
13.68 0 0
13.76 0 0
13.84 0 0
13.92 0 0
14 0 0
14.08 0 0
14.16 0 0
14.24 0 0
14.32 0 0
14.4 0 0
14.48 0 0
14.56 0 0
14.64 0 0
14.72 0 0
14.8 0 0
14.88 0 0
14.96 0 0
15.04 0 0
15.12 0 0
15.2 0 0
15.28 0 0
15.36 0 0
15.44 0 0
15.52 0 0
15.6 0 0
15.68 0 0
15.76 0 0
15.84 0 0
15.92 0 0
16 0 0
16.08 0 0
16.16 0 0
16.24 0 0
16.32 0 0
16.4 0 0
16.48 0 0
16.56 0 0
16.64 0 0
16.72 0 0
16.8 0 0
16.88 0 0
16.96 0 0
17.04 0 0
17.12 0 0
17.2 0 0
17.28 0 0
17.36 0 0
17.44 0 0
17.52 0 0
17.6 0 0
17.68 0 0
17.76 0 0
17.84 0 0
17.92 0 0
18 0 0
18.08 0 0
18.16 0 0
18.24 0 0
18.32 0 0
18.4 0 0
18.48 0 0
18.56 0 0
18.64 0 0
18.72 0 0
18.8 0 0
18.88 0 0
18.96 0 0
19.04 0 0
19.12 0 0
19.2 0 0
19.28 0 0
19.36 0 0
19.44 0 0
19.52 0 0
19.6 0 0
19.68 0 0
19.76 0 0
19.84 0 0
19.92 0 0
20 0 0
20.08 0 0
20.16 0 0
20.24 0 0
20.32 0 0
20.4 0 0
20.48 0 0
20.56 0 0
20.64 0 0
20.72 0 0
20.8 0 0
20.88 0 0
20.96 0 0
21.04 0 0
21.12 0 0
21.2 0 0
21.28 0 0
21.36 0 0
21.44 0 0
21.52 0 0
21.6 0 0
21.68 0 0
21.76 0 0
21.84 0 0
21.92 0 0
22 0 0
22.08 0 0
22.16 0 0
22.24 0 0
22.32 0 0
22.4 0 0
22.48 0 0
22.56 0 0
22.64 0 0
22.72 0 0
22.8 0 0
22.88 0 0
22.96 0 0
23.04 0 0
23.12 0 0
23.2 0 0
23.28 0 0
23.36 0 0
23.44 0 0
23.52 0 0
23.6 0 0
23.68 0 0
23.76 0 0
23.84 0 0
23.92 0 0
24 0 0
24.08 0 0
24.16 0 0
24.24 0 0
24.32 0 0
24.4 0 0
24.48 0 0
24.56 0 0
24.64 0 0
24.72 0 0
24.8 0 0
24.88 0 0
24.96 0 0
25.04 0 0
25.12 0 0
25.2 0 0
25.28 0 0
25.36 0 0
25.44 0 0
25.52 0 0
25.6 0 0
25.68 0 0
25.76 0 0
25.84 0 0
25.92 0 0
26 0 0
26.08 0 0
26.16 0 0
26.24 0 0
26.32 0 0
26.4 0 0
26.48 0 0
26.56 0 0
26.64 0 0
26.72 0 0
26.8 0 0
26.88 0 0
26.96 0 0
27.04 0 0
27.12 0 0
27.2 0 0
27.28 0 0
27.36 0 0
27.44 0 0
27.52 0 0
27.6 0 0
27.68 0 0
27.76 0 0
27.84 0 0
27.92 0 0
28 0 0
28.08 0 0
28.16 0 0
28.24 0 0
28.32 0 0
28.4 0 0
28.48 0 0
28.56 0 0
28.64 0 0
28.72 0 0
28.8 0 0
28.88 0 0
28.96 0 0
29.04 0 0
29.12 0 0
29.2 0 0
29.28 0 0
29.36 0 0
29.44 0 0
29.52 0 0
29.6 0 0
29.68 0 0
29.76 0 0
29.84 0 0
29.92 0 0
30 0 0
30.08 0 0
30.16 0 0
30.24 0 0
30.32 0 0
30.4 0 0
30.48 0 0
30.56 0 0
30.64 0 0
30.72 0 0
30.8 0 0
30.88 0 0
30.96 0 0
31.04 0 0
31.12 0 0
31.2 0 0
31.28 0 0
31.36 0 0
31.44 0 0
31.52 0 0
31.6 0 0
31.68 0 0
31.76 0 0
31.84 0 0
31.92 0 0
0 0.005 0
0.08 0.005 0
0.16 0.005 0
0.24 0.005 0
0.32 0.005 0
0.4 0.005 0
0.48 0.005 0
0.56 0.005 0
0.64 0.005 0
0.72 0.005 0
0.8 0.005 0
0.88 0.005 0
0.96 0.005 0
1.04 0.005 0
1.12 0.005 0
1.2 0.005 0
1.28 0.005 0
1.36 0.005 0
1.44 0.005 0
1.52 0.005 0
1.6 0.005 0
1.68 0.005 0
1.76 0.005 0
1.84 0.005 0
1.92 0.005 0
2 0.005 0
2.08 0.005 0
2.16 0.005 0
2.24 0.005 0
2.32 0.005 0
2.4 0.005 0
2.48 0.005 0
2.56 0.005 0
2.64 0.005 0
2.72 0.005 0
2.8 0.005 0
2.88 0.005 0
2.96 0.005 0
3.04 0.005 0
3.12 0.005 0
3.2 0.005 0
3.28 0.005 0
3.36 0.005 0
3.44 0.005 0
3.52 0.005 0
3.6 0.005 0
3.68 0.005 0
3.76 0.005 0
3.84 0.005 0
3.92 0.005 0
4 0.005 0
4.08 0.005 0
4.16 0.005 0
4.24 0.005 0
4.32 0.005 0
4.4 0.005 0
4.48 0.005 0
4.56 0.005 0
4.64 0.005 0
4.72 0.005 0
4.8 0.005 0
4.88 0.005 0
4.96 0.005 0
5.04 0.005 0
5.12 0.005 0
5.2 0.005 0
5.28 0.005 0
5.36 0.005 0
5.44 0.005 0
5.52 0.005 0
5.6 0.005 0
5.68 0.005 0
5.76 0.005 0
5.84 0.005 0
5.92 0.005 0
6 0.005 0
6.08 0.005 0
6.16 0.005 0
6.24 0.005 0
6.32 0.005 0
6.4 0.005 0
6.48 0.005 0
6.56 0.005 0
6.64 0.005 0
6.72 0.005 0
6.8 0.005 0
6.88 0.005 0
6.96 0.005 0
7.04 0.005 0
7.12 0.005 0
7.2 0.005 0
7.28 0.005 0
7.36 0.005 0
7.44 0.005 0
7.52 0.005 0
7.6 0.005 0
7.68 0.005 0
7.76 0.005 0
7.84 0.005 0
7.92 0.005 0
8 0.005 0
8.08 0.005 0
8.16 0.005 0
8.24 0.005 0
8.32 0.005 0
8.4 0.005 0
8.48 0.005 0
8.56 0.005 0
8.64 0.005 0
8.72 0.005 0
8.8 0.005 0
8.88 0.005 0
8.96 0.005 0
9.04 0.005 0
9.12 0.005 0
9.2 0.005 0
9.28 0.005 0
9.36 0.005 0
9.44 0.005 0
9.52 0.005 0
9.6 0.005 0
9.68 0.005 0
9.76 0.005 0
9.84 0.005 0
9.92 0.005 0
10 0.005 0
10.08 0.005 0
10.16 0.005 0
10.24 0.005 0
10.32 0.005 0
10.4 0.005 0
10.48 0.005 0
10.56 0.005 0
10.64 0.005 0
10.72 0.005 0
10.8 0.005 0
10.88 0.005 0
10.96 0.005 0
11.04 0.005 0
11.12 0.005 0
11.2 0.005 0
11.28 0.005 0
11.36 0.005 0
11.44 0.005 0
11.52 0.005 0
11.6 0.005 0
11.68 0.005 0
11.76 0.005 0
11.84 0.005 0
11.92 0.005 0
12 0.005 0
12.08 0.005 0
12.16 0.005 0
12.24 0.005 0
12.32 0.005 0
12.4 0.005 0
12.48 0.005 0
12.56 0.005 0
12.64 0.005 0
12.72 0.005 0
12.8 0.005 0
12.88 0.005 0
12.96 0.005 0
13.04 0.005 0
13.12 0.005 0
13.2 0.005 0
13.28 0.005 0
13.36 0.005 0
13.44 0.005 0
13.52 0.005 0
13.6 0.005 0
13.68 0.005 0
13.76 0.005 0
13.84 0.005 0
13.92 0.005 0
14 0.005 0
14.08 0.005 0
14.16 0.005 0
14.24 0.005 0
14.32 0.005 0
14.4 0.005 0
14.48 0.005 0
14.56 0.005 0
14.64 0.005 0
14.72 0.005 0
14.8 0.005 0
14.88 0.005 0
14.96 0.005 0
15.04 0.005 0
15.12 0.005 0
15.2 0.005 0
15.28 0.005 0
15.36 0.005 0
15.44 0.005 0
15.52 0.005 0
15.6 0.005 0
15.68 0.005 0
15.76 0.005 0
15.84 0.005 0
15.92 0.005 0
16 0.005 0
16.08 0.005 0
16.16 0.005 0
16.24 0.005 0
16.32 0.005 0
16.4 0.005 0
16.48 0.005 0
16.56 0.005 0
16.64 0.005 0
16.72 0.005 0
16.8 0.005 0
16.88 0.005 0
16.96 0.005 0
17.04 0.005 0
17.12 0.005 0
17.2 0.005 0
17.28 0.005 0
17.36 0.005 0
17.44 0.005 0
17.52 0.005 0
17.6 0.005 0
17.68 0.005 0
17.76 0.005 0
17.84 0.005 0
17.92 0.005 0
18 0.005 0
18.08 0.005 0
18.16 0.005 0
18.24 0.005 0
18.32 0.005 0
18.4 0.005 0
18.48 0.005 0
18.56 0.005 0
18.64 0.005 0
18.72 0.005 0
18.8 0.005 0
18.88 0.005 0
18.96 0.005 0
19.04 0.005 0
19.12 0.005 0
19.2 0.005 0
19.28 0.005 0
19.36 0.005 0
19.44 0.005 0
19.52 0.005 0
19.6 0.005 0
19.68 0.005 0
19.76 0.005 0
19.84 0.005 0
19.92 0.005 0
20 0.005 0
20.08 0.005 0
20.16 0.005 0
20.24 0.005 0
20.32 0.005 0
20.4 0.005 0
20.48 0.005 0
20.56 0.005 0
20.64 0.005 0
20.72 0.005 0
20.8 0.005 0
20.88 0.005 0
20.96 0.005 0
21.04 0.005 0
21.12 0.005 0
21.2 0.005 0
21.28 0.005 0
21.36 0.005 0
21.44 0.005 0
21.52 0.005 0
21.6 0.005 0
21.68 0.005 0
21.76 0.005 0
21.84 0.005 0
21.92 0.005 0
22 0.005 0
22.08 0.005 0
22.16 0.005 0
22.24 0.005 0
22.32 0.005 0
22.4 0.005 0
22.48 0.005 0
22.56 0.005 0
22.64 0.005 0
22.72 0.005 0
22.8 0.005 0
22.88 0.005 0
22.96 0.005 0
23.04 0.005 0
23.12 0.005 0
23.2 0.005 0
23.28 0.005 0
23.36 0.005 0
23.44 0.005 0
23.52 0.005 0
23.6 0.005 0
23.68 0.005 0
23.76 0.005 0
23.84 0.005 0
23.92 0.005 0
24 0.005 0
24.08 0.005 0
24.16 0.005 0
24.24 0.005 0
24.32 0.005 0
24.4 0.005 0
24.48 0.005 0
24.56 0.005 0
24.64 0.005 0
24.72 0.005 0
24.8 0.005 0
24.88 0.005 0
24.96 0.005 0
25.04 0.005 0
25.12 0.005 0
25.2 0.005 0
25.28 0.005 0
25.36 0.005 0
25.44 0.005 0
25.52 0.005 0
25.6 0.005 0
25.68 0.005 0
25.76 0.005 0
25.84 0.005 0
25.92 0.005 0
26 0.005 0
26.08 0.005 0
26.16 0.005 0
26.24 0.005 0
26.32 0.005 0
26.4 0.005 0
26.48 0.005 0
26.56 0.005 0
26.64 0.005 0
26.72 0.005 0
26.8 0.005 0
26.88 0.005 0
26.96 0.005 0
27.04 0.005 0
27.12 0.005 0
27.2 0.005 0
27.28 0.005 0
27.36 0.005 0
27.44 0.005 0
27.52 0.005 0
27.6 0.005 0
27.68 0.005 0
27.76 0.005 0
27.84 0.005 0
27.92 0.005 0
28 0.005 0
28.08 0.005 0
28.16 0.005 0
28.24 0.005 0
28.32 0.005 0
28.4 0.005 0
28.48 0.005 0
28.56 0.005 0
28.64 0.005 0
28.72 0.005 0
28.8 0.005 0
28.88 0.005 0
28.96 0.005 0
29.04 0.005 0
29.12 0.005 0
29.2 0.005 0
29.28 0.005 0
29.36 0.005 0
29.44 0.005 0
29.52 0.005 0
29.6 0.005 0
29.68 0.005 0
29.76 0.005 0
29.84 0.005 0
29.92 0.005 0
30 0.005 0
30.08 0.005 0
30.16 0.005 0
30.24 0.005 0
30.32 0.005 0
30.4 0.005 0
30.48 0.005 0
30.56 0.005 0
30.64 0.005 0
30.72 0.005 0
30.8 0.005 0
30.88 0.005 0
30.96 0.005 0
31.04 0.005 0
31.12 0.005 0
31.2 0.005 0
31.28 0.005 0
31.36 0.005 0
31.44 0.005 0
31.52 0.005 0
31.6 0.005 0
31.68 0.005 0
31.76 0.005 0
31.84 0.005 0
31.92 0.005 0
0 0.01 0
0.08 0.01 0
0.16 0.01 0
0.24 0.01 0
0.32 0.01 0
0.4 0.01 0
0.48 0.01 0
0.56 0.01 0
0.64 0.01 0
0.72 0.01 0
0.8 0.01 0
0.88 0.01 0
0.96 0.01 0
1.04 0.01 0
1.12 0.01 0
1.2 0.01 0
1.28 0.01 0
1.36 0.01 0
1.44 0.01 0
1.52 0.01 0
1.6 0.01 0
1.68 0.01 0
1.76 0.01 0
1.84 0.01 0
1.92 0.01 0
2 0.01 0
2.08 0.01 0
2.16 0.01 0
2.24 0.01 0
2.32 0.01 0
2.4 0.01 0
2.48 0.01 0
2.56 0.01 0
2.64 0.01 0
2.72 0.01 0
2.8 0.01 0
2.88 0.01 0
2.96 0.01 0
3.04 0.01 0
3.12 0.01 0
3.2 0.01 0
3.28 0.01 0
3.36 0.01 0
3.44 0.01 0
3.52 0.01 0
3.6 0.01 0
3.68 0.01 0
3.76 0.01 0
3.84 0.01 0
3.92 0.01 0
4 0.01 0
4.08 0.01 0
4.16 0.01 0
4.24 0.01 0
4.32 0.01 0
4.4 0.01 0
4.48 0.01 0
4.56 0.01 0
4.64 0.01 0
4.72 0.01 0
4.8 0.01 0
4.88 0.01 0
4.96 0.01 0
5.04 0.01 0
5.12 0.01 0
[...]
POINT_DATA 80000

SCALARS u float 1
LOOKUP_TABLE default
0
-0.131663
-0.0682691
-0.0522959
-0.0444197
-0.0395766
-0.0362595
-0.0338325
-0.0319725
-0.0304958
-0.0292897
-0.0282814
-0.0274219
-0.0266772
-0.0260233
-0.0254424
-0.0249214
-0.0244505
-0.0240219
-0.0236294
-0.0232683
-0.0229346
-0.022625
-0.0223368
-0.0220677
-0.0218157
-0.0215792
-0.0213566
-0.0211468
-0.0209485
-0.0207609
-0.0205829
-0.020414
-0.0202533
-0.0201003
-0.0199544
-0.0198151
-0.0196819
-0.0195544
-0.0194323
-0.0193152
-0.0192027
-0.0190947
-0.0189909
-0.0188909
-0.0187947
-0.0187019
-0.0186124
-0.018526
-0.0184425
-0.0183619
-0.0182839
-0.0182085
-0.0181354
-0.0180647
-0.0179961
-0.0179296
-0.0178651
-0.0178026
-0.0177418
-0.0176828
-0.0176255
-0.0175698
-0.0175156
-0.0174629
-0.0174116
-0.0173617
-0.0173132
-0.0172659
-0.0172198
-0.0171749
-0.0171311
-0.0170885
-0.0170469
-0.0170064
-0.0169669
-0.0169283
-0.0168907
-0.0168541
-0.0168183
-0.0167834
-0.0167494
-0.0167163
-0.016684
-0.0166526
-0.0166221
-0.0165924
-0.0165636
-0.0165357
-0.0165087
-0.0164825
-0.0164573
-0.0164329
-0.0164095
-0.0163869
-0.0163652
-0.0163444
-0.0163244
-0.0163053
-0.016287
-0.0162695
-0.0162528
-0.0162369
-0.0162218
-0.0162074
-0.0161937
-0.0161807
-0.0161684
-0.0161568
-0.0161457
-0.0161353
-0.0161256
-0.0161164
-0.0161078
-0.0160997
-0.0160922
-0.0160851
-0.0160785
-0.0160724
-0.0160667
-0.0160615
-0.0160567
-0.0160522
-0.0160482
-0.0160445
-0.0160412
-0.0160382
-0.0160354
-0.0160329
-0.0160307
-0.0160287
-0.016027
-0.0160255
-0.0160243
-0.0160232
-0.0160224
-0.0160218
-0.0160213
-0.016021
-0.0160208
-0.0160207
-0.0160207
-0.0160207
-0.0160208
-0.0160209
-0.0160211
-0.0160213
-0.0160214
-0.0160217
-0.0160219
-0.0160221
-0.0160223
-0.0160226
-0.0160228
-0.016023
-0.0160233
-0.0160235
-0.0160237
-0.016024
-0.0160242
-0.0160244
-0.0160247
-0.0160249
-0.0160251
-0.0160254
-0.0160256
-0.0160258
-0.0160261
-0.0160263
-0.0160266
-0.0160268
-0.016027
-0.0160273
-0.0160275
-0.0160277
-0.016028
-0.0160282
-0.0160284
-0.0160287
-0.0160289
-0.0160292
-0.0160294
-0.0160296
-0.0160299
-0.0160301
-0.0160303
-0.0160306
-0.0160308
-0.0160311
-0.0160313
-0.0160315
-0.0160318
-0.016032
-0.0160323
-0.0160325
-0.0160327
-0.016033
-0.0160332
-0.0160335
-0.0160337
-0.0160339
-0.0160342
-0.0160344
-0.0160347
-0.0160349
-0.0160351
-0.0160354
-0.0160356
-0.0160359
-0.0160361
-0.0160363
-0.0160366
-0.0160368
-0.0160371
-0.0160373
-0.0160376
-0.0160378
-0.016038
-0.0160383
-0.0160385
-0.0160388
-0.016039
-0.0160392
-0.0160395
-0.0160397
-0.01604
-0.0160402
-0.0160405
-0.0160407
-0.0160409
-0.0160412
-0.0160414
-0.0160417
-0.0160419
-0.0160422
-0.0160424
-0.0160427
-0.0160429
-0.0160431
-0.0160434
-0.0160436
-0.0160439
-0.0160441
-0.0160444
-0.0160446
-0.0160449
-0.0160451
-0.0160453
-0.0160456
-0.0160458
-0.0160461
-0.0160463
-0.0160466
-0.0160468
-0.0160471
-0.0160473
-0.0160476
-0.0160478
-0.0160481
-0.0160483
-0.0160485
-0.0160488
-0.016049
-0.0160493
-0.0160495
-0.0160498
-0.01605
-0.0160503
-0.0160505
-0.0160508
-0.016051
-0.0160513
-0.0160515
-0.0160518
-0.016052
-0.0160523
-0.0160525
-0.0160528
-0.016053
-0.0160533
-0.0160535
-0.0160538
-0.016054
-0.0160543
-0.0160545
-0.0160548
-0.016055
-0.0160553
-0.0160555
-0.0160558
-0.016056
-0.0160563
-0.0160565
-0.0160568
-0.016057
-0.0160573
-0.0160575
-0.0160578
-0.016058
-0.0160583
-0.0160585
-0.0160588
-0.016059
-0.0160593
-0.0160595
-0.0160598
-0.01606
-0.0160603
-0.0160605
-0.0160608
-0.016061
-0.0160613
-0.0160615
-0.0160618
-0.016062
-0.0160623
-0.0160626
-0.0160628
-0.0160631
-0.0160633
-0.0160636
-0.0160638
-0.0160641
-0.0160643
-0.0160646
-0.0160648
-0.0160651
-0.0160654
-0.0160656
-0.0160659
-0.0160661
-0.0160664
-0.0160666
-0.0160669
-0.0160671
-0.0160674
-0.0160677
-0.0160679
-0.0160682
-0.0160684
-0.0160687
-0.0160689
-0.0160692
-0.0160694
-0.0160697
-0.01607
-0.0160702
-0.0160705
-0.0160707
-0.016071
-0.0160712
-0.0160715
-0.0160718
-0.016072
-0.0160723
-0.0160725
-0.0160728
-0.0160731
-0.0160733
-0.0160736
-0.0160738
-0.0160741
-0.0160743
-0.0160746
-0.0160749
-0.0160751
-0.0160754
-0.0160756
-0.0160759
-0.0160762
-0.0160764
-0.0160767
-0.0160769
-0.0160772
-0.0160775
-0.0160777
-0.016078
-0.0160782
-0.0160785
-0.0160788
-0.016079
-0.0160793
-0.0160795
-0.0160798
-0.0160801
-0.0160803
-0.0160806
-0.0160809
-0.0160811
-0.0160814
-0.0160817
-0.0160819
-0.0160822
-0.0160824
-0.0160828
-0.0160829
-0.0160834
-0.0160829
-0.0160829
-0.0160829
1
0.131663
0.0682691
0.0522959
0.0444197
0.0395766
0.0362595
0.0338325
0.0319725
0.0304958
0.0292897
0.0282814
0.0274219
0.0266772
0.0260233
0.0254424
0.0249214
0.0244505
0.0240219
0.0236294
0.0232683
0.0229346
0.022625
0.0223368
0.0220677
0.0218157
0.0215792
0.0213566
0.0211468
0.0209485
0.0207609
0.0205829
0.020414
0.0202533
0.0201003
0.0199544
0.0198151
0.0196819
0.0195544
0.0194323
0.0193152
0.0192027
0.0190947
0.0189909
0.0188909
0.0187947
0.0187019
0.0186124
0.018526
0.0184425
0.0183619
0.0182839
0.0182085
0.0181354
0.0180647
0.0179961
0.0179296
0.0178651
0.0178026
0.0177418
0.0176828
0.0176255
0.0175698
0.0175156
0.0174629
0.0174116
0.0173617
0.0173132
0.0172659
0.0172198
0.0171749
0.0171311
0.0170885
0.0170469
0.0170064
0.0169669
0.0169283
0.0168907
0.0168541
0.0168183
0.0167834
0.0167494
0.0167163
0.016684
0.0166526
0.0166221
0.0165924
0.0165636
0.0165357
0.0165087
0.0164825
0.0164573
0.0164329
0.0164095
0.0163869
0.0163652
0.0163444
0.0163244
0.0163053
0.016287
0.0162695
0.0162528
0.0162369
0.0162218
0.0162074
0.0161937
0.0161807
0.0161684
0.0161568
0.0161457
0.0161353
0.0161256
0.0161164
0.0161078
0.0160997
0.0160922
0.0160851
0.0160785
0.0160724
0.0160667
0.0160615
0.0160567
0.0160522
0.0160482
0.0160445
0.0160412
0.0160382
0.0160354
0.0160329
0.0160307
0.0160287
0.016027
0.0160255
0.0160243
0.0160232
0.0160224
0.0160218
0.0160213
0.016021
0.0160208
0.0160207
0.0160207
0.0160207
0.0160208
0.0160209
0.0160211
0.0160213
0.0160214
0.0160217
0.0160219
0.0160221
0.0160223
0.0160226
0.0160228
0.016023
0.0160233
0.0160235
0.0160237
0.016024
0.0160242
0.0160244
0.0160247
0.0160249
0.0160251
0.0160254
0.0160256
0.0160258
0.0160261
0.0160263
0.0160266
0.0160268
0.016027
0.0160273
0.0160275
0.0160277
0.016028
0.0160282
0.0160284
0.0160287
0.0160289
0.0160292
0.0160294
0.0160296
0.0160299
0.0160301
0.0160303
0.0160306
0.0160308
0.0160311
0.0160313
0.0160315
0.0160318
0.016032
0.0160323
0.0160325
0.0160327
0.016033
0.0160332
0.0160335
0.0160337
0.0160339
0.0160342
0.0160344
0.0160347
0.0160349
0.0160351
0.0160354
0.0160356
0.0160359
0.0160361
0.0160363
0.0160366
0.0160368
0.0160371
0.0160373
0.0160376
0.0160378
0.016038
0.0160383
0.0160385
0.0160388
0.016039
0.0160392
0.0160395
0.0160397
0.01604
0.0160402
0.0160405
0.0160407
0.0160409
0.0160412
0.0160414
0.0160417
0.0160419
0.0160422
0.0160424
0.0160427
0.0160429
0.0160431
0.0160434
0.0160436
0.0160439
0.0160441
0.0160444
0.0160446
0.0160449
0.0160451
0.0160453
0.0160456
0.0160458
0.0160461
0.0160463
0.0160466
0.0160468
0.0160471
0.0160473
0.0160476
0.0160478
0.0160481
0.0160483
0.0160485
0.0160488
0.016049
0.0160493
0.0160495
0.0160498
0.01605
0.0160503
0.0160505
0.0160508
0.016051
0.0160513
0.0160515
0.0160518
0.016052
0.0160523
0.0160525
0.0160528
0.016053
0.0160533
0.0160535
0.0160538
0.016054
0.0160543
0.0160545
0.0160548
0.016055
0.0160553
0.0160555
0.0160558
0.016056
0.0160563
0.0160565
0.0160568
0.016057
0.0160573
0.0160575
0.0160578
0.016058
0.0160583
0.0160585
0.0160588
0.016059
0.0160593
0.0160595
0.0160598
0.01606
0.0160603
0.0160605
0.0160608
0.016061
0.0160613
0.0160615
0.0160618
0.016062
0.0160623
0.0160626
0.0160628
0.0160631
0.0160633
0.0160636
0.0160638
0.0160641
0.0160643
0.0160646
0.0160648
0.0160651
0.0160654
0.0160656
0.0160659
0.0160661
0.0160664
0.0160666
0.0160669
0.0160671
0.0160674
0.0160677
0.0160679
0.0160682
0.0160684
0.0160687
0.0160689
0.0160692
0.0160694
0.0160697
0.01607
0.0160702
0.0160705
0.0160707
0.016071
0.0160712
0.0160715
0.0160718
0.016072
0.0160723
0.0160725
0.0160728
0.0160731
0.0160733
0.0160736
0.0160738
0.0160741
0.0160743
0.0160746
0.0160749
0.0160751
0.0160754
0.0160756
0.0160759
0.0160762
0.0160764
0.0160767
0.0160769
0.0160772
0.0160775
0.0160777
0.016078
0.0160782
0.0160785
0.0160788
0.016079
0.0160793
0.0160795
0.0160798
0.0160801
0.0160803
0.0160806
0.0160809
0.0160811
0.0160814
0.0160817
0.0160819
0.0160822
0.0160824
0.0160828
0.0160829
0.0160834
0.0160829
0.0160829
0.0160829
1
0.344884
0.200667
0.154967
0.131894
0.117598
0.107768
0.100558
0.0950246
0.0906287
0.0870375
0.0840355
0.0814775
0.0792622
0.0773178
0.0755916
0.0740445
0.0726465
0.0713746
0.0702106
0.06914
0.0681509
0.0672335
0.0663798
0.0655827
0.0648365
0.0641362
0.0634773
0.0628562
0.0622695
0.0617142
0.0611878
0.060688
0.0602127
0.0597601
0.0593285
0.0589164
0.0585226
0.0581456
0.0577846
0.0574383
0.057106
0.0567867
0.0564797
0.0561842
0.0558997
0.0556254
0.0553609
0.0551056
0.0548591
0.0546208
0.0543904
0.0541674
0.0539516
0.0537426
0.0535401
0.0533437
0.0531532
0.0529684
0.0527889
0.0526147
0.0524454
0.0522808
0.0521208
0.0519652
0.0518139
0.0516666
0.0515231
0.0513835
0.0512475
0.051115
0.0509859
0.0508601
0.0507374
0.0506178
0.0505012
0.0503875
0.0502766
0.0501685
0.0500631
0.0499603
0.0498601
0.0497626
0.0496676
0.0495752
0.0494855
0.0493983
0.0493137
0.0492318
0.0491526
0.049076
0.049002
0.0489307
0.0488621
0.0487961
0.0487328
0.048672
0.0486138
0.048558
0.0485047
0.0484537
0.0484051
0.0483589
0.0483148
0.048273
0.0482333
0.0481956
0.0481599
0.0481262
0.0480943
0.0480642
0.0480359
0.0480094
0.0479845
0.0479613
0.0479396
0.0479193
0.0479003
0.0478828
0.0478665
0.0478515
0.0478377
0.0478251
0.0478136
0.0478031
0.0477936
0.047785
0.0477772
0.0477702
0.0477639
0.0477584
0.0477536
0.0477495
0.0477461
0.0477433
0.0477411
0.0477395
0.0477383
0.0477375
0.047737
0.0477368
0.0477368
0.0477369
0.0477372
0.0477376
0.0477381
0.0477386
0.0477392
0.0477399
0.0477405
0.0477412
0.0477419
0.0477426
0.0477433
0.047744
0.0477447
0.0477454
0.047746
0.0477467
0.0477474
0.0477481
0.0477489
0.0477496
0.0477503
0.047751
0.0477517
0.0477524
0.0477531
0.0477538
0.0477545
0.0477552
0.0477559
0.0477566
0.0477573
0.047758
0.0477587
0.0477594
0.0477601
0.0477608
0.0477615
0.0477623
0.047763
0.0477637
0.0477644
0.0477651
0.0477658
0.0477665
0.0477672
0.0477679
0.0477686
0.0477694
0.0477701
0.0477708
0.0477715
0.0477722
0.0477729
0.0477736
0.0477744
0.0477751
0.0477758
0.0477765
0.0477772
0.0477779
0.0477786
0.0477794
0.0477801
0.0477808
0.0477815
0.0477822
0.047783
0.0477837
0.0477844
0.0477851
0.0477858
0.0477865
0.0477873
0.047788
0.0477887
0.0477894
0.0477902
0.0477909
0.0477916
0.0477923
0.047793
0.0477938
0.0477945
0.0477952
0.0477959
0.0477967
0.0477974
0.0477981
0.0477988
0.0477996
0.0478003
0.047801
0.0478018
0.0478025
0.0478032
0.0478039
0.0478047
0.0478054
0.0478061
0.0478069
0.0478076
0.0478083
0.047809
0.0478098
0.0478105
0.0478112
0.047812
0.0478127
0.0478134
0.0478142
0.0478149
0.0478156
0.0478164
0.0478171
0.0478178
0.0478186
0.0478193
0.04782
0.0478208
0.0478215
0.0478223
0.047823
0.0478237
0.0478245
0.0478252
0.0478259
0.0478267
0.0478274
0.0478282
0.0478289
0.0478296
0.0478304
0.0478311
0.0478319
0.0478326
0.0478333
0.0478341
0.0478348
0.0478356
0.0478363
0.0478371
0.0478378
0.0478386
0.0478393
0.04784
0.0478408
0.0478415
0.0478423
0.047843
0.0478438
0.0478445
0.0478453
0.047846
0.0478468
0.0478475
0.0478483
0.047849
0.0478498
0.0478505
0.0478513
0.047852
0.0478528
0.0478535
0.0478543
0.047855
0.0478558
0.0478565
0.0478573
0.047858
0.0478588
0.0478595
0.0478603
0.047861
0.0478618
0.0478626
0.0478633
0.0478641
0.0478648
0.0478656
0.0478663
0.0478671
0.0478679
0.0478686
0.0478694
0.0478701
0.0478709
0.0478717
0.0478724
0.0478732
0.0478739
0.0478747
0.0478755
0.0478762
0.047877
0.0478777
0.0478785
0.0478793
0.04788
0.0478808
0.0478816
0.0478823
0.0478831
0.0478839
0.0478846
0.0478854
0.0478862
0.0478869
0.0478877
0.0478885
0.0478892
0.04789
0.0478908
0.0478915
0.0478923
0.0478931
0.0478938
0.0478946
0.0478954
0.0478962
0.0478969
0.0478977
0.0478985
0.0478993
0.0479
0.0479008
0.0479016
0.0479023
0.0479031
0.0479039
0.0479047
0.0479054
0.0479062
0.047907
0.0479078
0.0479086
0.0479093
0.0479101
0.0479109
0.0479117
0.0479124
0.0479132
0.047914
0.0479148
0.0479156
0.0479163
0.0479171
0.0479179
0.0479187
0.0479195
0.0479203
0.047921
0.047922
0.0479225
0.0479238
0.0479227
0.0479227
0.0479227
1
0.518765
0.327402
0.255347
0.217848
0.194403
0.178211
0.166307
0.157158
0.149883
0.143939
0.138969
0.134735
0.131069
0.127853
0.124999
0.122442
0.120133
0.118032
0.11611
0.114343
0.112711
0.111198
0.109789
0.108475
0.107244
0.10609
0.105004
0.10398
0.103013
0.102098
0.10123
0.100407
0.0996235
0.0988778
0.0981668
0.097488
0.0968392
0.0962184
0.0956237
0.0950534
0.0945061
0.0939803
0.0934747
0.0929882
0.0925197
0.0920682
0.0916327
0.0912124
0.0908064
0.0904142
0.0900349
0.0896679
0.0893127
0.0889687
0.0886353
0.0883121
0.0879986
0.0876945
0.0873992
0.0871124
0.0868338
0.0865631
0.0862998
0.0860438
0.0857948
0.0855524
0.0853165
0.0850868
0.0848631
0.0846451
0.0844328
0.0842259
0.0840242
0.0838275
0.0836358
0.0834489
0.0832666
0.083089
0.0829158
0.0827469
0.0825825
0.0824224
0.0822665
0.082115
0.0819677
0.0818249
0.0816864
0.0815523
0.0814225
0.0812972
0.0811763
0.0810598
0.0809477
0.08084
0.0807366
0.0806375
0.0805425
0.0804516
0.0803648
0.0802818
0.0802027
0.0801274
0.0800559
0.0799879
0.0799234
0.0798622
0.0798043
0.0797495
0.0796978
0.0796491
0.0796034
0.0795604
0.0795203
0.0794827
0.0794476
0.0794148
0.0793843
0.079356
0.0793298
0.0793057
0.0792836
0.0792633
0.0792449
0.0792282
0.079213
0.0791993
0.0791869
0.0791757
0.0791658
0.0791571
0.0791496
0.0791432
0.0791379
0.0791336
0.0791303
0.0791278
0.079126
0.0791248
0.0791241
0.0791239
0.0791239
0.0791243
0.0791248
0.0791255
0.0791264
0.0791273
0.0791283
0.0791293
0.0791304
0.0791315
0.0791327
0.0791338
0.079135
0.0791361
0.0791373
0.0791384
0.0791396
0.0791407
0.0791419
0.0791431
0.0791442
0.0791454
0.0791466
0.0791477
0.0791489
0.0791501
0.0791512
0.0791524
0.0791536
0.0791547
0.0791559
0.0791571
0.0791582
0.0791594
0.0791606
0.0791617
0.0791629
0.0791641
0.0791653
0.0791664
0.0791676
0.0791688
0.07917
0.0791711
0.0791723
0.0791735
0.0791747
0.0791759
0.079177
0.0791782
0.0791794
0.0791806
0.0791818
0.0791829
0.0791841
0.0791853
0.0791865
0.0791877
0.0791889
0.07919
0.0791912
0.0791924
0.0791936
0.0791948
0.079196
0.0791972
0.0791984
0.0791995
0.0792007
0.0792019
0.0792031
0.0792043
0.0792055
0.0792067
0.0792079
0.0792091
0.0792103
0.0792115
0.0792127
0.0792139
0.0792151
0.0792163
0.0792175
0.0792187
0.0792199
0.0792211
0.0792223
0.0792235
0.0792247
0.0792259
0.0792271
0.0792283
0.0792295
0.0792307
0.0792319
0.0792331
0.0792343
0.0792355
0.0792367
0.0792379
0.0792391
0.0792403
0.0792415
0.0792427
0.079244
0.0792452
0.0792464
0.0792476
0.0792488
0.07925
0.0792512
0.0792524
0.0792537
0.0792549
0.0792561
0.0792573
0.0792585
0.0792597
0.079261
0.0792622
0.0792634
0.0792646
0.0792658
0.0792671
0.0792683
0.0792695
0.0792707
0.079272
0.0792732
0.0792744
0.0792756
0.0792769
0.0792781
0.0792793
0.0792805
0.0792818
0.079283
0.0792842
0.0792855
0.0792867
0.0792879
0.0792891
0.0792904
0.0792916
0.0792928
0.0792941
0.0792953
0.0792965
0.0792978
0.079299
0.0793003
0.0793015
0.0793027
0.079304
0.0793052
0.0793064
0.0793077
0.0793089
0.0793102
0.0793114
0.0793127
0.0793139
0.0793151
0.0793164
0.0793176
0.0793189
0.0793201
0.0793214
0.0793226
0.0793239
0.0793251
0.0793264
0.0793276
0.0793289
0.0793301
0.0793314
0.0793326
0.0793339
0.0793351
0.0793364
0.0793376
0.0793389
0.0793401
0.0793414
0.0793426
0.0793439
0.0793452
0.0793464
0.0793477
0.0793489
0.0793502
0.0793515
0.0793527
0.079354
0.0793552
0.0793565
0.0793578
0.079359
0.0793603
0.0793616
0.0793628
0.0793641
0.0793654
0.0793666
0.0793679
0.0793692
0.0793704
0.0793717
0.079373
0.0793742
0.0793755
0.0793768
0.0793781
0.0793793
0.0793806
0.0793819
0.0793832
0.0793844
0.0793857
0.079387
0.0793883
0.0793895
0.0793908
0.0793921
0.0793934
0.0793947
0.0793959
0.0793972
0.0793985
0.0793998
0.0794011
0.0794024
0.0794036
0.0794049
0.0794062
0.0794075
0.0794088
0.0794101
0.0794114
0.0794126
0.0794139
0.0794152
0.0794165
0.0794178
0.0794191
0.0794204
0.0794217
0.079423
0.0794243
0.0794256
0.0794268
0.0794283
0.0794294
0.079431
0.0794318
0.0794339
0.0794324
0.0794324
0.0794324
1
0.660887
0.446894
0.352877
0.302029
0.26985
0.247501
0.231018
0.218327
0.208225
0.199966
0.19306
0.187176
0.182084
0.177617
0.173654
0.170105
0.1669
0.163987
0.161322
0.158872
0.156609
0.154512
0.152561
0.15074
0.149035
0.147436
0.145932
0.144514
0.143175
0.141908
0.140707
0.139567
0.138483
0.137451
0.136467
0.135528
0.13463
0.133771
0.132948
0.132159
0.131401
0.130674
0.129975
0.129302
0.128653
0.128029
0.127426
0.126845
0.126284
0.125741
0.125216
0.124709
0.124218
0.123742
0.123281
0.122834
0.122401
0.12198
0.121572
0.121175
0.12079
0.120416
0.120052
0.119698
0.119354
0.119019
0.118693
0.118375
0.118066
0.117765
0.117471
0.117185
0.116907
0.116635
0.11637
0.116112
0.11586
0.115615
0.115376
0.115143
0.114916
0.114695
0.11448
0.114271
0.114068
0.113872
0.113681
0.113496
0.113318
0.113145
0.112979
0.112819
0.112665
0.112517
0.112376
0.11224
0.112109
0.111985
0.111866
0.111752
0.111644
0.111541
0.111443
0.11135
0.111262
0.111179
0.1111
0.111025
0.110954
0.110888
0.110826
0.110767
0.110712
0.110661
0.110614
0.110569
0.110528
0.110489
0.110454
0.110421
0.110391
0.110364
0.110339
0.110317
0.110296
0.110278
0.110261
0.110246
0.110233
0.110222
0.110212
0.110203
0.110196
0.110191
0.110186
0.110183
0.110181
0.110179
0.110179
0.110178
0.110179
0.110179
0.11018
0.110181
0.110182
0.110184
0.110185
0.110186
0.110188
0.11019
0.110191
0.110193
0.110194
0.110196
0.110198
0.110199
0.110201
0.110202
0.110204
0.110206
0.110207
0.110209
0.11021
0.110212
0.110214
0.110215
0.110217
0.110219
0.11022
0.110222
0.110223
0.110225
0.110227
0.110228
0.11023
0.110232
0.110233
0.110235
0.110236
0.110238
0.11024
0.110241
0.110243
0.110245
0.110246
0.110248
0.11025
0.110251
0.110253
0.110254
0.110256
0.110258
0.110259
0.110261
0.110263
0.110264
0.110266
0.110268
0.110269
0.110271
0.110273
0.110274
0.110276
0.110278
0.110279
0.110281
0.110282
0.110284
0.110286
0.110287
0.110289
0.110291
0.110292
0.110294
0.110296
0.110297
0.110299
0.110301
0.110302
0.110304
0.110306
0.110307
0.110309
0.110311
0.110312
0.110314
0.110316
0.110317
0.110319
0.110321
0.110322
0.110324
0.110326
0.110327
0.110329
0.110331
0.110332
0.110334
0.110336
0.110337
0.110339
0.110341
0.110343
0.110344
0.110346
0.110348
0.110349
0.110351
0.110353
0.110354
0.110356
0.110358
0.110359
0.110361
0.110363
0.110364
0.110366
0.110368
0.11037
0.110371
0.110373
0.110375
0.110376
0.110378
0.11038
0.110381
0.110383
0.110385
0.110387
0.110388
0.11039
0.110392
0.110393
0.110395
0.110397
0.110398
0.1104
0.110402
0.110404
0.110405
0.110407
0.110409
0.11041
0.110412
0.110414
0.110416
0.110417
0.110419
0.110421
0.110422
0.110424
0.110426
0.110428
0.110429
0.110431
0.110433
0.110435
0.110436
0.110438
0.11044
0.110441
0.110443
0.110445
0.110447
0.110448
0.11045
0.110452
0.110454
0.110455
0.110457
0.110459
0.11046
0.110462
0.110464
0.110466
0.110467
0.110469
0.110471
0.110473
0.110474
0.110476
0.110478
0.11048
0.110481
0.110483
0.110485
0.110487
0.110488
0.11049
0.110492
0.110494
0.110495
0.110497
0.110499
0.110501
0.110502
0.110504
0.110506
0.110508
0.110509
0.110511
0.110513
0.110515
0.110516
0.110518
0.11052
0.110522
0.110524
0.110525
0.110527
0.110529
0.110531
0.110532
0.110534
0.110536
0.110538
0.110539
0.110541
0.110543
0.110545
0.110547
0.110548
0.11055
0.110552
0.110554
0.110555
0.110557
0.110559
0.110561
0.110563
0.110564
0.110566
0.110568
0.11057
0.110572
0.110573
0.110575
0.110577
0.110579
0.11058
0.110582
0.110584
0.110586
0.110588
0.110589
0.110591
0.110593
0.110595
0.110597
0.110598
0.1106
0.110602
0.110604
0.110606
0.110607
0.11061
0.110608
0.110608
0.110608
1
0.776802
0.557825
0.446877
0.384101
0.343743
0.31551
0.294604
0.278468
0.265606
0.255081
0.246277
0.238775
0.232283
0.22659
0.22154
0.217019
0.212937
0.209227
0.205834
0.202716
0.199838
0.197169
0.194687
0.192371