# vtk DataFile Version 2.0
FlowField
ASCII
DATASET STRUCTURED_GRID
DIMENSIONS 400 1 200
POINTS 80000 float
0 0 0
0.08 0 0
0.16 0 0
0.24 0 0
0.32 0 0
0.4 0 0
0.48 0 0
0.56 0 0
0.64 0 0
0.72 0 0
0.8 0 0
0.88 0 0
0.96 0 0
1.04 0 0
1.12 0 0
1.2 0 0
1.28 0 0
1.36 0 0
1.44 0 0
1.52 0 0
1.6 0 0
1.68 0 0
1.76 0 0
1.84 0 0
1.92 0 0
2 0 0
2.08 0 0
2.16 0 0
2.24 0 0
2.32 0 0
2.4 0 0
2.48 0 0
2.56 0 0
2.64 0 0
2.72 0 0
2.8 0 0
2.88 0 0
2.96 0 0
3.04 0 0
3.12 0 0
3.2 0 0
3.28 0 0
3.36 0 0
3.44 0 0
3.52 0 0
3.6 0 0
3.68 0 0
3.76 0 0
3.84 0 0
3.92 0 0
4 0 0
4.08 0 0
4.16 0 0
4.24 0 0
4.32 0 0
4.4 0 0
4.48 0 0
4.56 0 0
4.64 0 0
4.72 0 0
4.8 0 0
4.88 0 0
4.96 0 0
5.04 0 0
5.12 0 0
5.2 0 0
5.28 0 0
5.36 0 0
5.44 0 0
5.52 0 0
5.6 0 0
5.68 0 0
5.76 0 0
5.84 0 0
5.92 0 0
6 0 0
6.08 0 0
6.16 0 0
6.24 0 0
6.32 0 0
6.4 0 0
6.48 0 0
6.56 0 0
6.64 0 0
6.72 0 0
6.8 0 0
6.88 0 0
6.96 0 0
7.04 0 0
7.12 0 0
7.2 0 0
7.28 0 0
7.36 0 0
7.44 0 0
7.52 0 0
7.6 0 0
7.68 0 0
7.76 0 0
7.84 0 0
7.92 0 0
8 0 0
8.08 0 0
8.16 0 0
8.24 0 0
8.32 0 0
8.4 0 0
8.48 0 0
8.56 0 0
8.64 0 0
8.72 0 0
8.8 0 0
8.88 0 0
8.96 0 0
9.04 0 0
9.12 0 0
9.2 0 0
9.28 0 0
9.36 0 0
9.44 0 0
9.52 0 0
9.6 0 0
9.68 0 0
9.76 0 0
9.84 0 0
9.92 0 0
10 0 0
10.08 0 0
10.16 0 0
10.24 0 0
10.32 0 0
10.4 0 0
10.48 0 0
10.56 0 0
10.64 0 0
10.72 0 0
10.8 0 0
10.88 0 0
10.96 0 0
11.04 0 0
11.12 0 0
11.2 0 0
11.28 0 0
11.36 0 0
11.44 0 0
11.52 0 0
11.6 0 0
11.68 0 0
11.76 0 0
11.84 0 0
11.92 0 0
12 0 0
12.08 0 0
12.16 0 0
12.24 0 0
12.32 0 0
12.4 0 0
12.48 0 0
12.56 0 0
12.64 0 0
12.72 0 0
12.8 0 0
12.88 0 0
12.96 0 0
13.04 0 0
13.12 0 0
13.2 0 0
13.28 0 0
13.36 0 0
13.44 0 0
13.52 0 0
13.6 0 0
13.68 0 0
13.76 0 0
13.84 0 0
13.92 0 0
14 0 0
14.08 0 0
14.16 0 0
14.24 0 0
14.32 0 0
14.4 0 0
14.48 0 0
14.56 0 0
14.64 0 0
14.72 0 0
14.8 0 0
14.88 0 0
14.96 0 0
15.04 0 0
15.12 0 0
15.2 0 0
15.28 0 0
15.36 0 0
15.44 0 0
15.52 0 0
15.6 0 0
15.68 0 0
15.76 0 0
15.84 0 0
15.92 0 0
16 0 0
16.08 0 0
16.16 0 0
16.24 0 0
16.32 0 0
16.4 0 0
16.48 0 0
16.56 0 0
16.64 0 0
16.72 0 0
16.8 0 0
16.88 0 0
16.96 0 0
17.04 0 0
17.12 0 0
17.2 0 0
17.28 0 0
17.36 0 0
17.44 0 0
17.52 0 0
17.6 0 0
17.68 0 0
17.76 0 0
17.84 0 0
17.92 0 0
18 0 0
18.08 0 0
18.16 0 0
18.24 0 0
18.32 0 0
18.4 0 0
18.48 0 0
18.56 0 0
18.64 0 0
18.72 0 0
18.8 0 0
18.88 0 0
18.96 0 0
19.04 0 0
19.12 0 0
19.2 0 0
19.28 0 0
19.36 0 0
19.44 0 0
19.52 0 0
19.6 0 0
19.68 0 0
19.76 0 0
19.84 0 0
19.92 0 0
20 0 0
20.08 0 0
20.16 0 0
20.24 0 0
20.32 0 0
20.4 0 0
20.48 0 0
20.56 0 0
20.64 0 0
20.72 0 0
20.8 0 0
20.88 0 0
20.96 0 0
21.04 0 0
21.12 0 0
21.2 0 0
21.28 0 0
21.36 0 0
21.44 0 0
21.52 0 0
21.6 0 0
21.68 0 0
21.76 0 0
21.84 0 0
21.92 0 0
22 0 0
22.08 0 0
22.16 0 0
22.24 0 0
22.32 0 0
22.4 0 0
22.48 0 0
22.56 0 0
22.64 0 0
22.72 0 0
22.8 0 0
22.88 0 0
22.96 0 0
23.04 0 0
23.12 0 0
23.2 0 0
23.28 0 0
23.36 0 0
23.44 0 0
23.52 0 0
23.6 0 0
23.68 0 0
23.76 0 0
23.84 0 0
23.92 0 0
24 0 0
24.08 0 0
24.16 0 0
24.24 0 0
24.32 0 0
24.4 0 0
24.48 0 0
24.56 0 0
24.64 0 0
24.72 0 0
24.8 0 0
24.88 0 0
24.96 0 0
25.04 0 0
25.12 0 0
25.2 0 0
25.28 0 0
25.36 0 0
25.44 0 0
25.52 0 0
25.6 0 0
25.68 0 0
25.76 0 0
25.84 0 0
25.92 0 0
26 0 0
26.08 0 0
26.16 0 0
26.24 0 0
26.32 0 0
26.4 0 0
26.48 0 0
26.56 0 0
26.64 0 0
26.72 0 0
26.8 0 0
26.88 0 0
26.96 0 0
27.04 0 0
27.12 0 0
27.2 0 0
27.28 0 0
27.36 0 0
27.44 0 0
27.52 0 0
27.6 0 0
27.68 0 0
27.76 0 0
27.84 0 0
27.92 0 0
28 0 0
28.08 0 0
28.16 0 0
28.24 0 0
28.32 0 0
28.4 0 0
28.48 0 0
28.56 0 0
28.64 0 0
28.72 0 0
28.8 0 0
28.88 0 0
28.96 0 0
29.04 0 0
29.12 0 0
29.2 0 0
29.28 0 0
29.36 0 0
29.44 0 0
29.52 0 0
29.6 0 0
29.68 0 0
29.76 0 0
29.84 0 0
29.92 0 0
30 0 0
30.08 0 0
30.16 0 0
30.24 0 0
30.32 0 0
30.4 0 0
30.48 0 0
30.56 0 0
30.64 0 0
30.72 0 0
30.8 0 0
30.88 0 0
30.96 0 0
31.04 0 0
31.12 0 0
31.2 0 0
31.28 0 0
31.36 0 0
31.44 0 0
31.52 0 0
31.6 0 0
31.68 0 0
31.76 0 0
31.84 0 0
31.92 0 0
0 0.005 0
0.08 0.005 0
0.16 0.005 0
0.24 0.005 0
0.32 0.005 0
0.4 0.005 0
0.48 0.005 0
0.56 0.005 0
0.64 0.005 0
0.72 0.005 0
0.8 0.005 0
0.88 0.005 0
0.96 0.005 0
1.04 0.005 0
1.12 0.005 0
1.2 0.005 0
1.28 0.005 0
1.36 0.005 0
1.44 0.005 0
1.52 0.005 0
1.6 0.005 0
1.68 0.005 0
1.76 0.005 0
1.84 0.005 0
1.92 0.005 0
2 0.005 0
2.08 0.005 0
2.16 0.005 0
2.24 0.005 0
2.32 0.005 0
2.4 0.005 0
2.48 0.005 0
2.56 0.005 0
2.64 0.005 0
2.72 0.005 0
2.8 0.005 0
2.88 0.005 0
2.96 0.005 0
3.04 0.005 0
3.12 0.005 0
3.2 0.005 0
3.28 0.005 0
3.36 0.005 0
3.44 0.005 0
3.52 0.005 0
3.6 0.005 0
3.68 0.005 0
3.76 0.005 0
3.84 0.005 0
3.92 0.005 0
4 0.005 0
4.08 0.005 0
4.16 0.005 0
4.24 0.005 0
4.32 0.005 0
4.4 0.005 0
4.48 0.005 0
4.56 0.005 0
4.64 0.005 0
4.72 0.005 0
4.8 0.005 0
4.88 0.005 0
4.96 0.005 0
5.04 0.005 0
5.12 0.005 0
5.2 0.005 0
5.28 0.005 0
5.36 0.005 0
5.44 0.005 0
5.52 0.005 0
5.6 0.005 0
5.68 0.005 0
5.76 0.005 0
5.84 0.005 0
5.92 0.005 0
6 0.005 0
6.08 0.005 0
6.16 0.005 0
6.24 0.005 0
6.32 0.005 0
6.4 0.005 0
6.48 0.005 0
6.56 0.005 0
6.64 0.005 0
6.72 0.005 0
6.8 0.005 0
6.88 0.005 0
6.96 0.005 0
7.04 0.005 0
7.12 0.005 0
7.2 0.005 0
7.28 0.005 0
7.36 0.005 0
7.44 0.005 0
7.52 0.005 0
7.6 0.005 0
7.68 0.005 0
7.76 0.005 0
7.84 0.005 0
7.92 0.005 0
8 0.005 0
8.08 0.005 0
8.16 0.005 0
8.24 0.005 0
8.32 0.005 0
8.4 0.005 0
8.48 0.005 0
8.56 0.005 0
8.64 0.005 0
8.72 0.005 0
8.8 0.005 0
8.88 0.005 0
8.96 0.005 0
9.04 0.005 0
9.12 0.005 0
9.2 0.005 0
9.28 0.005 0
9.36 0.005 0
9.44 0.005 0
9.52 0.005 0
9.6 0.005 0
9.68 0.005 0
9.76 0.005 0
9.84 0.005 0
9.92 0.005 0
10 0.005 0
10.08 0.005 0
10.16 0.005 0
10.24 0.005 0
10.32 0.005 0
10.4 0.005 0
10.48 0.005 0
10.56 0.005 0
10.64 0.005 0
10.72 0.005 0
10.8 0.005 0
10.88 0.005 0
10.96 0.005 0
11.04 0.005 0
11.12 0.005 0
11.2 0.005 0
11.28 0.005 0
11.36 0.005 0
11.44 0.005 0
11.52 0.005 0
11.6 0.005 0
11.68 0.005 0
11.76 0.005 0
11.84 0.005 0
11.92 0.005 0
12 0.005 0
12.08 0.005 0
12.16 0.005 0
12.24 0.005 0
12.32 0.005 0
12.4 0.005 0
12.48 0.005 0
12.56 0.005 0
12.64 0.005 0
12.72 0.005 0
12.8 0.005 0
12.88 0.005 0
12.96 0.005 0
13.04 0.005 0
13.12 0.005 0
13.2 0.005 0
13.28 0.005 0
13.36 0.005 0
13.44 0.005 0
13.52 0.005 0
13.6 0.005 0
13.68 0.005 0
13.76 0.005 0
13.84 0.005 0
13.92 0.005 0
14 0.005 0
14.08 0.005 0
14.16 0.005 0
14.24 0.005 0
14.32 0.005 0
14.4 0.005 0
14.48 0.005 0
14.56 0.005 0
14.64 0.005 0
14.72 0.005 0
14.8 0.005 0
14.88 0.005 0
14.96 0.005 0
15.04 0.005 0
15.12 0.005 0
15.2 0.005 0
15.28 0.005 0
15.36 0.005 0
15.44 0.005 0
15.52 0.005 0
15.6 0.005 0
15.68 0.005 0
15.76 0.005 0
15.84 0.005 0
15.92 0.005 0
16 0.005 0
16.08 0.005 0
16.16 0.005 0
16.24 0.005 0
16.32 0.005 0
16.4 0.005 0
16.48 0.005 0
16.56 0.005 0
16.64 0.005 0
16.72 0.005 0
16.8 0.005 0
16.88 0.005 0
16.96 0.005 0
17.04 0.005 0
17.12 0.005 0
17.2 0.005 0
17.28 0.005 0
17.36 0.005 0
17.44 0.005 0
17.52 0.005 0
17.6 0.005 0
17.68 0.005 0
17.76 0.005 0
17.84 0.005 0
17.92 0.005 0
18 0.005 0
18.08 0.005 0
18.16 0.005 0
18.24 0.005 0
18.32 0.005 0
18.4 0.005 0
18.48 0.005 0
18.56 0.005 0
18.64 0.005 0
18.72 0.005 0
18.8 0.005 0
18.88 0.005 0
18.96 0.005 0
19.04 0.005 0
19.12 0.005 0
19.2 0.005 0
19.28 0.005 0
19.36 0.005 0
19.44 0.005 0
19.52 0.005 0
19.6 0.005 0
19.68 0.005 0
19.76 0.005 0
19.84 0.005 0
19.92 0.005 0
20 0.005 0
20.08 0.005 0
20.16 0.005 0
20.24 0.005 0
20.32 0.005 0
20.4 0.005 0
20.48 0.005 0
20.56 0.005 0
20.64 0.005 0
20.72 0.005 0
20.8 0.005 0
20.88 0.005 0
20.96 0.005 0
21.04 0.005 0
21.12 0.005 0
21.2 0.005 0
21.28 0.005 0
21.36 0.005 0
21.44 0.005 0
21.52 0.005 0
21.6 0.005 0
21.68 0.005 0
21.76 0.005 0
21.84 0.005 0
21.92 0.005 0
22 0.005 0
22.08 0.005 0
22.16 0.005 0
22.24 0.005 0
22.32 0.005 0
22.4 0.005 0
22.48 0.005 0
22.56 0.005 0
22.64 0.005 0
22.72 0.005 0
22.8 0.005 0
22.88 0.005 0
22.96 0.005 0
23.04 0.005 0
23.12 0.005 0
23.2 0.005 0
23.28 0.005 0
23.36 0.005 0
23.44 0.005 0
23.52 0.005 0
23.6 0.005 0
23.68 0.005 0
23.76 0.005 0
23.84 0.005 0
23.92 0.005 0
24 0.005 0
24.08 0.005 0
24.16 0.005 0
24.24 0.005 0
24.32 0.005 0
24.4 0.005 0
24.48 0.005 0
24.56 0.005 0
24.64 0.005 0
24.72 0.005 0
24.8 0.005 0
24.88 0.005 0
24.96 0.005 0
25.04 0.005 0
25.12 0.005 0
25.2 0.005 0
25.28 0.005 0
25.36 0.005 0
25.44 0.005 0
25.52 0.005 0
25.6 0.005 0
25.68 0.005 0
25.76 0.005 0
25.84 0.005 0
25.92 0.005 0
26 0.005 0
26.08 0.005 0
26.16 0.005 0
26.24 0.005 0
26.32 0.005 0
26.4 0.005 0
26.48 0.005 0
26.56 0.005 0
26.64 0.005 0
26.72 0.005 0
26.8 0.005 0
26.88 0.005 0
26.96 0.005 0
27.04 0.005 0
27.12 0.005 0
27.2 0.005 0
27.28 0.005 0
27.36 0.005 0
27.44 0.005 0
27.52 0.005 0
27.6 0.005 0
27.68 0.005 0
27.76 0.005 0
27.84 0.005 0
27.92 0.005 0
28 0.005 0
28.08 0.005 0
28.16 0.005 0
28.24 0.005 0
28.32 0.005 0
28.4 0.005 0
28.48 0.005 0
28.56 0.005 0
28.64 0.005 0
28.72 0.005 0
28.8 0.005 0
28.88 0.005 0
28.96 0.005 0
29.04 0.005 0
29.12 0.005 0
29.2 0.005 0
29.28 0.005 0
29.36 0.005 0
29.44 0.005 0
29.52 0.005 0
29.6 0.005 0
29.68 0.005 0
29.76 0.005 0
29.84 0.005 0
29.92 0.005 0
30 0.005 0
30.08 0.005 0
30.16 0.005 0
30.24 0.005 0
30.32 0.005 0
30.4 0.005 0
30.48 0.005 0
30.56 0.005 0
30.64 0.005 0
30.72 0.005 0
30.8 0.005 0
30.88 0.005 0
30.96 0.005 0
31.04 0.005 0
31.12 0.005 0
31.2 0.005 0
31.28 0.005 0
31.36 0.005 0
31.44 0.005 0
31.52 0.005 0
31.6 0.005 0
31.68 0.005 0
31.76 0.005 0
31.84 0.005 0
31.92 0.005 0
0 0.01 0
0.08 0.01 0
0.16 0.01 0
0.24 0.01 0
0.32 0.01 0
0.4 0.01 0
0.48 0.01 0
0.56 0.01 0
0.64 0.01 0
0.72 0.01 0
0.8 0.01 0
0.88 0.01 0
0.96 0.01 0
1.04 0.01 0
1.12 0.01 0
1.2 0.01 0
1.28 0.01 0
1.36 0.01 0
1.44 0.01 0
1.52 0.01 0
1.6 0.01 0
1.68 0.01 0
1.76 0.01 0
1.84 0.01 0
1.92 0.01 0
2 0.01 0
2.08 0.01 0
2.16 0.01 0
2.24 0.01 0
2.32 0.01 0
2.4 0.01 0
2.48 0.01 0
2.56 0.01 0
2.64 0.01 0
2.72 0.01 0
2.8 0.01 0
2.88 0.01 0
2.96 0.01 0
3.04 0.01 0
3.12 0.01 0
3.2 0.01 0
3.28 0.01 0
3.36 0.01 0
3.44 0.01 0
3.52 0.01 0
3.6 0.01 0
3.68 0.01 0
3.76 0.01 0
3.84 0.01 0
3.92 0.01 0
4 0.01 0
4.08 0.01 0
4.16 0.01 0
4.24 0.01 0
4.32 0.01 0
4.4 0.01 0
4.48 0.01 0
4.56 0.01 0
4.64 0.01 0
4.72 0.01 0
4.8 0.01 0
4.88 0.01 0
4.96 0.01 0
5.04 0.01 0
5.12 0.01 0
[...]
POINT_DATA 80000

SCALARS u float 1
LOOKUP_TABLE default
0
-0.131663
-0.068269
-0.0522958
-0.0444196
-0.0395765
-0.0362593
-0.0338323
-0.0319723
-0.0304956
-0.0292895
-0.0282812
-0.0274217
-0.026677
-0.026023
-0.0254421
-0.0249212
-0.0244502
-0.0240216
-0.0236292
-0.0232681
-0.0229343
-0.0226247
-0.0223365
-0.0220674
-0.0218154
-0.0215789
-0.0213563
-0.0211464
-0.0209482
-0.0207605
-0.0205826
-0.0204137
-0.020253
-0.0201
-0.019954
-0.0198147
-0.0196815
-0.0195541
-0.0194319
-0.0193148
-0.0192024
-0.0190944
-0.0189905
-0.0188906
-0.0187943
-0.0187015
-0.018612
-0.0185256
-0.0184422
-0.0183616
-0.0182836
-0.0182082
-0.0181351
-0.0180644
-0.0179958
-0.0179293
-0.0178649
-0.0178023
-0.0177416
-0.0176826
-0.0176252
-0.0175695
-0.0175153
-0.0174627
-0.0174114
-0.0173615
-0.0173129
-0.0172656
-0.0172195
-0.0171746
-0.0171308
-0.0170882
-0.0170466
-0.017006
-0.0169664
-0.0169277
-0.01689
-0.0168532
-0.0168173
-0.0167822
-0.016748
-0.0167145
-0.0166818
-0.0166498
-0.0166186
-0.0165881
-0.0165583
-0.0165291
-0.0165006
-0.0164727
-0.0164454
-0.0164188
-0.0163927
-0.0163672
-0.0163422
-0.0163178
-0.0162939
-0.0162705
-0.0162476
-0.0162252
-0.0162033
-0.0161818
-0.0161608
-0.0161403
-0.0161201
-0.0161004
-0.0160811
-0.0160622
-0.0160437
-0.0160256
-0.0160079
-0.0159905
-0.0159735
-0.0159568
-0.0159405
-0.0159245
-0.0159089
-0.0158935
-0.0158785
-0.0158638
-0.0158494
-0.0158353
-0.0158215
-0.0158079
-0.0157946
-0.0157816
-0.0157689
-0.0157564
-0.0157442
-0.0157322
-0.0157205
-0.015709
-0.0156977
-0.0156867
-0.0156759
-0.0156653
-0.0156549
-0.0156447
-0.0156348
-0.015625
-0.0156154
-0.0156061
-0.0155969
-0.0155879
-0.0155791
-0.0155704
-0.015562
-0.0155537
-0.0155456
-0.0155376
-0.0155298
-0.0155221
-0.0155147
-0.0155073
-0.0155001
-0.0154931
-0.0154862
-0.0154794
-0.0154728
-0.0154663
-0.0154599
-0.0154536
-0.0154475
-0.0154415
-0.0154357
-0.0154299
-0.0154243
-0.0154188
-0.0154134
-0.0154081
-0.0154029
-0.0153979
-0.0153929
-0.0153881
-0.0153833
-0.0153787
-0.0153742
-0.0153697
-0.0153654
-0.0153612
-0.0153571
-0.0153531
-0.0153492
-0.0153454
-0.0153417
-0.0153381
-0.0153346
-0.0153312
-0.0153278
-0.0153246
-0.0153215
-0.0153185
-0.0153156
-0.0153128
-0.01531
-0.0153074
-0.0153049
-0.0153024
-0.0153001
-0.0152978
-0.0152956
-0.0152935
-0.0152915
-0.0152896
-0.0152878
-0.015286
-0.0152843
-0.0152827
-0.0152812
-0.0152798
-0.0152784
-0.0152771
-0.0152759
-0.0152747
-0.0152736
-0.0152726
-0.0152716
-0.0152707
-0.0152698
-0.015269
-0.0152683
-0.0152676
-0.0152669
-0.0152663
-0.0152658
-0.0152652
-0.0152648
-0.0152643
-0.0152639
-0.0152636
-0.0152632
-0.0152629
-0.0152627
-0.0152624
-0.0152622
-0.015262
-0.0152618
-0.0152617
-0.0152615
-0.0152614
-0.0152613
-0.0152612
-0.0152612
-0.0152611
-0.0152611
-0.015261
-0.015261
-0.015261
-0.015261
-0.0152609
-0.0152609
-0.015261
-0.015261
-0.015261
-0.015261
-0.015261
-0.015261
-0.015261
-0.0152611
-0.0152611
-0.0152611
-0.0152611
-0.0152612
-0.0152612
-0.0152612
-0.0152612
-0.0152613
-0.0152613
-0.0152613
-0.0152614
-0.0152614
-0.0152614
-0.0152614
-0.0152615
-0.0152615
-0.0152615
-0.0152616
-0.0152616
-0.0152616
-0.0152616
-0.0152617
-0.0152617
-0.0152617
-0.0152618
-0.0152618
-0.0152618
-0.0152618
-0.0152619
-0.0152619
-0.0152619
-0.015262
-0.015262
-0.015262
-0.0152621
-0.0152621
-0.0152621
-0.0152621
-0.0152622
-0.0152622
-0.0152622
-0.0152623
-0.0152623
-0.0152623
-0.0152623
-0.0152624
-0.0152624
-0.0152624
-0.0152625
-0.0152625
-0.0152625
-0.0152626
-0.0152626
-0.0152626
-0.0152626
-0.0152627
-0.0152627
-0.0152627
-0.0152628
-0.0152628
-0.0152628
-0.0152629
-0.0152629
-0.0152629
-0.0152629
-0.015263
-0.015263
-0.015263
-0.0152631
-0.0152631
-0.0152631
-0.0152631
-0.0152632
-0.0152632
-0.0152632
-0.0152633
-0.0152633
-0.0152633
-0.0152634
-0.0152634
-0.0152634
-0.0152634
-0.0152635
-0.0152635
-0.0152635
-0.0152636
-0.0152636
-0.0152636
-0.0152637
-0.0152637
-0.0152637
-0.0152638
-0.0152638
-0.0152638
-0.0152638
-0.0152639
-0.0152639
-0.0152639
-0.015264
-0.015264
-0.015264
-0.0152641
-0.0152641
-0.0152641
-0.0152641
-0.0152642
-0.0152642
-0.0152642
-0.0152643
-0.0152643
-0.0152643
-0.0152644
-0.0152644
-0.0152644
-0.0152644
-0.0152645
-0.0152645
-0.0152645
-0.0152646
-0.0152646
-0.0152646
-0.0152647
-0.0152647
-0.0152647
-0.0152648
-0.0152648
-0.0152648
-0.0152648
-0.0152649
-0.0152649
-0.0152649
-0.015265
-0.015265
-0.015265
-0.0152651
-0.0152651
-0.0152651
-0.0152651
-0.0152651
-0.0152651
1
0.131663
0.068269
0.0522958
0.0444196
0.0395765
0.0362593
0.0338323
0.0319723
0.0304956
0.0292895
0.0282812
0.0274217
0.026677
0.026023
0.0254421
0.0249212
0.0244502
0.0240216
0.0236292
0.0232681
0.0229343
0.0226247
0.0223365
0.0220674
0.0218154
0.0215789
0.0213563
0.0211464
0.0209482
0.0207605
0.0205826
0.0204137
0.020253
0.0201
0.019954
0.0198147
0.0196815
0.0195541
0.0194319
0.0193148
0.0192024
0.0190944
0.0189905
0.0188906
0.0187943
0.0187015
0.018612
0.0185256
0.0184422
0.0183616
0.0182836
0.0182082
0.0181351
0.0180644
0.0179958
0.0179293
0.0178649
0.0178023
0.0177416
0.0176826
0.0176252
0.0175695
0.0175153
0.0174627
0.0174114
0.0173615
0.0173129
0.0172656
0.0172195
0.0171746
0.0171308
0.0170882
0.0170466
0.017006
0.0169664
0.0169277
0.01689
0.0168532
0.0168173
0.0167822
0.016748
0.0167145
0.0166818
0.0166498
0.0166186
0.0165881
0.0165583
0.0165291
0.0165006
0.0164727
0.0164454
0.0164188
0.0163927
0.0163672
0.0163422
0.0163178
0.0162939
0.0162705
0.0162476
0.0162252
0.0162033
0.0161818
0.0161608
0.0161403
0.0161201
0.0161004
0.0160811
0.0160622
0.0160437
0.0160256
0.0160079
0.0159905
0.0159735
0.0159568
0.0159405
0.0159245
0.0159089
0.0158935
0.0158785
0.0158638
0.0158494
0.0158353
0.0158215
0.0158079
0.0157946
0.0157816
0.0157689
0.0157564
0.0157442
0.0157322
0.0157205
0.015709
0.0156977
0.0156867
0.0156759
0.0156653
0.0156549
0.0156447
0.0156348
0.015625
0.0156154
0.0156061
0.0155969
0.0155879
0.0155791
0.0155704
0.015562
0.0155537
0.0155456
0.0155376
0.0155298
0.0155221
0.0155147
0.0155073
0.0155001
0.0154931
0.0154862
0.0154794
0.0154728
0.0154663
0.0154599
0.0154536
0.0154475
0.0154415
0.0154357
0.0154299
0.0154243
0.0154188
0.0154134
0.0154081
0.0154029
0.0153979
0.0153929
0.0153881
0.0153833
0.0153787
0.0153742
0.0153697
0.0153654
0.0153612
0.0153571
0.0153531
0.0153492
0.0153454
0.0153417
0.0153381
0.0153346
0.0153312
0.0153278
0.0153246
0.0153215
0.0153185
0.0153156
0.0153128
0.01531
0.0153074
0.0153049
0.0153024
0.0153001
0.0152978
0.0152956
0.0152935
0.0152915
0.0152896
0.0152878
0.015286
0.0152843
0.0152827
0.0152812
0.0152798
0.0152784
0.0152771
0.0152759
0.0152747
0.0152736
0.0152726
0.0152716
0.0152707
0.0152698
0.015269
0.0152683
0.0152676
0.0152669
0.0152663
0.0152658
0.0152652
0.0152648
0.0152643
0.0152639
0.0152636
0.0152632
0.0152629
0.0152627
0.0152624
0.0152622
0.015262
0.0152618
0.0152617
0.0152615
0.0152614
0.0152613
0.0152612
0.0152612
0.0152611
0.0152611
0.015261
0.015261
0.015261
0.015261
0.0152609
0.0152609
0.015261
0.015261
0.015261
0.015261
0.015261
0.015261
0.015261
0.0152611
0.0152611
0.0152611
0.0152611
0.0152612
0.0152612
0.0152612
0.0152612
0.0152613
0.0152613
0.0152613
0.0152614
0.0152614
0.0152614
0.0152614
0.0152615
0.0152615
0.0152615
0.0152616
0.0152616
0.0152616
0.0152616
0.0152617
0.0152617
0.0152617
0.0152618
0.0152618
0.0152618
0.0152618
0.0152619
0.0152619
0.0152619
0.015262
0.015262
0.015262
0.0152621
0.0152621
0.0152621
0.0152621
0.0152622
0.0152622
0.0152622
0.0152623
0.0152623
0.0152623
0.0152623
0.0152624
0.0152624
0.0152624
0.0152625
0.0152625
0.0152625
0.0152626
0.0152626
0.0152626
0.0152626
0.0152627
0.0152627
0.0152627
0.0152628
0.0152628
0.0152628
0.0152629
0.0152629
0.0152629
0.0152629
0.015263
0.015263
0.015263
0.0152631
0.0152631
0.0152631
0.0152631
0.0152632
0.0152632
0.0152632
0.0152633
0.0152633
0.0152633
0.0152634
0.0152634
0.0152634
0.0152634
0.0152635
0.0152635
0.0152635
0.0152636
0.0152636
0.0152636
0.0152637
0.0152637
0.0152637
0.0152638
0.0152638
0.0152638
0.0152638
0.0152639
0.0152639
0.0152639
0.015264
0.015264
0.015264
0.0152641
0.0152641
0.0152641
0.0152641
0.0152642
0.0152642
0.0152642
0.0152643
0.0152643
0.0152643
0.0152644
0.0152644
0.0152644
0.0152644
0.0152645
0.0152645
0.0152645
0.0152646
0.0152646
0.0152646
0.0152647
0.0152647
0.0152647
0.0152648
0.0152648
0.0152648
0.0152648
0.0152649
0.0152649
0.0152649
0.015265
0.015265
0.015265
0.0152651
0.0152651
0.0152651
0.0152651
0.0152651
0.0152651
1
0.344884
0.200667
0.154967
0.131894
0.117598
0.107767
0.100557
0.0950241
0.0906281
0.0870369
0.0840349
0.0814768
0.0792616
0.0773172
0.0755909
0.0740437
0.0726457
0.0713738
0.0702098
0.0691392
0.0681501
0.0672327
0.0663789
0.0655818
0.0648356
0.0641353
0.0634764
0.0628553
0.0622685
0.0617132
0.0611869
0.060687
0.0602117
0.0597591
0.0593275
0.0589154
0.0585216
0.0581446
0.0577836
0.0574373
0.057105
0.0567857
0.0564787
0.0561832
0.0558987
0.0556245
0.05536
0.0551047
0.0548581
0.0546199
0.0543895
0.0541665
0.0539508
0.0537418
0.0535392
0.0533429
0.0531524
0.0529676
0.0527882
0.0526139
0.0524446
0.0522801
0.0521201
0.0519645
0.0518131
0.0516658
0.0515224
0.0513827
0.0512466
0.051114
0.0509848
0.0508589
0.050736
0.0506162
0.0504994
0.0503854
0.0502741
0.0501655
0.0500594
0.0499559
0.0498548
0.049756
0.0496595
0.0495652
0.0494731
0.0493831
0.0492951
0.049209
0.0491249
0.0490426
0.0489622
0.0488835
0.0488066
0.0487313
0.0486577
0.0485857
0.0485152
0.0484462
0.0483787
0.0483126
0.048248
0.0481847
0.0481228
0.0480621
0.0480028
0.0479446
0.0478877
0.047832
0.0477775
0.0477241
0.0476718
0.0476205
0.0475704
0.0475213
0.0474731
0.047426
0.0473799
0.0473347
0.0472904
0.047247
0.0472045
0.0471629
0.0471222
0.0470822
0.0470431
0.0470048
0.0469672
0.0469305
0.0468944
0.0468591
0.0468246
0.0467907
0.0467575
0.046725
0.0466931
0.0466619
0.0466313
0.0466013
0.046572
0.0465432
0.046515
0.0464874
0.0464603
0.0464338
0.0464079
0.0463824
0.0463575
0.046333
0.0463091
0.0462856
0.0462626
0.0462401
0.046218
0.0461964
0.0461752
0.0461544
0.0461341
0.0461141
0.0460946
0.0460754
0.0460567
0.0460383
0.0460203
0.0460027
0.0459854
0.0459685
0.0459519
0.0459356
0.0459197
0.0459042
0.045889
0.0458741
0.0458595
0.0458452
0.0458313
0.0458177
0.0458044
0.0457914
0.0457787
0.0457663
0.0457543
0.0457425
0.045731
0.0457199
0.045709
0.0456984
0.0456882
0.0456782
0.0456685
0.0456591
0.04565
0.0456412
0.0456327
0.0456244
0.0456164
0.0456088
0.0456013
0.0455942
0.0455873
0.0455807
0.0455744
0.0455683
0.0455624
0.0455569
0.0455515
0.0455464
0.0455416
0.0455369
0.0455325
0.0455283
0.0455243
0.0455206
0.045517
0.0455137
0.0455105
0.0455075
0.0455047
0.045502
0.0454996
0.0454973
0.0454951
0.0454931
0.0454912
0.0454895
0.0454879
0.0454865
0.0454851
0.0454839
0.0454827
0.0454817
0.0454807
0.0454799
0.0454791
0.0454784
0.0454778
0.0454772
0.0454768
0.0454763
0.045476
0.0454756
0.0454754
0.0454751
0.0454749
0.0454748
0.0454746
0.0454745
0.0454744
0.0454744
0.0454744
0.0454743
0.0454743
0.0454744
0.0454744
0.0454744
0.0454745
0.0454745
0.0454746
0.0454746
0.0454747
0.0454748
0.0454748
0.0454749
0.045475
0.0454751
0.0454752
0.0454753
0.0454753
0.0454754
0.0454755
0.0454756
0.0454757
0.0454758
0.0454758
0.0454759
0.045476
0.0454761
0.0454762
0.0454763
0.0454764
0.0454765
0.0454765
0.0454766
0.0454767
0.0454768
0.0454769
0.045477
0.0454771
0.0454771
0.0454772
0.0454773
0.0454774
0.0454775
0.0454776
0.0454777
0.0454778
0.0454778
0.0454779
0.045478
0.0454781
0.0454782
0.0454783
0.0454784
0.0454785
0.0454785
0.0454786
0.0454787
0.0454788
0.0454789
0.045479
0.0454791
0.0454792
0.0454792
0.0454793
0.0454794
0.0454795
0.0454796
0.0454797
0.0454798
0.0454799
0.04548
0.04548
0.0454801
0.0454802
0.0454803
0.0454804
0.0454805
0.0454806
0.0454807
0.0454808
0.0454808
0.0454809
0.045481
0.0454811
0.0454812
0.0454813
0.0454814
0.0454815
0.0454816
0.0454816
0.0454817
0.0454818
0.0454819
0.045482
0.0454821
0.0454822
0.0454823
0.0454824
0.0454825
0.0454825
0.0454826
0.0454827
0.0454828
0.0454829
0.045483
0.0454831
0.0454832
0.0454833
0.0454834
0.0454834
0.0454835
0.0454836
0.0454837
0.0454838
0.0454839
0.045484
0.0454841
0.0454842
0.0454843
0.0454844
0.0454844
0.0454845
0.0454846
0.0454847
0.0454848
0.0454849
0.045485
0.0454851
0.0454852
0.0454853
0.0454854
0.0454854
0.0454855
0.0454856
0.0454857
0.0454858
0.0454859
0.045486
0.0454861
0.0454862
0.0454863
0.0454864
0.0454865
0.0454865
0.0454867
0.0454867
0.0454869
0.0454867
0.0454867
0.0454867
1
0.518765
0.327401
0.255347
0.217848
0.194403
0.178211
0.166306
0.157157
0.149883
0.143938
0.138968
0.134734
0.131068
0.127852
0.124998
0.122441
0.120131
0.118031
0.116109
0.114342
0.11271
0.111196
0.109788
0.108473
0.107243
0.106088
0.105002
0.103978
0.103011
0.102096
0.101229
0.100405
0.0996219
0.0988762
0.0981652
0.0974864
0.0968376
0.0962167
0.095622
0.0950518
0.0945045
0.0939787
0.0934731
0.0929866
0.0925181
0.0920666
0.0916311
0.0912108
0.0908049
0.0904127
0.0900334
0.0896665
0.0893113
0.0889673
0.0886339
0.0883108
0.0879973
0.0876932
0.0873979
0.0871112
0.0868326
0.0865618
0.0862986
0.0860426
0.0857935
0.0855511
0.0853151
0.0850853
0.0848615
0.0846434
0.0844308
0.0842236
0.0840216
0.0838246
0.0836324
0.0834448
0.0832618
0.0830832
0.0829088
0.0827385
0.0825722
0.0824098
0.0822512
0.0820961
0.0819446
0.0817966
0.0816519
0.0815104
0.0813721
0.0812369
0.0811047
0.0809753
0.0808488
0.0807251
0.0806041
0.0804856
0.0803698
0.0802564
0.0801454
0.0800369
0.0799306
0.0798266
0.0797248
0.0796251
0.0795276
0.0794321
0.0793385
0.079247
0.0791573
0.0790696
0.0789836
0.0788994
0.078817
0.0787363
0.0786572
0.0785798
0.078504
0.0784297
0.078357
0.0782857
0.0782159
0.0781475
0.0780806
0.078015
0.0779507
0.0778877
0.0778261
0.0777656
0.0777065
0.0776485
0.0775917
0.077536
0.0774815
0.0774281
0.0773757
0.0773244
0.0772742
0.077225
0.0771768
0.0771295
0.0770832
0.0770378
0.0769934
0.0769499
0.0769072
0.0768654
0.0768244
0.0767843
0.076745
0.0767064
0.0766687
0.0766317
0.0765954
0.0765599
0.0765251
0.076491
0.0764576
0.0764248
0.0763927
0.0763613
0.0763305
0.0763003
0.0762707
0.0762418
0.0762134
0.0761856
0.0761584
0.0761318
0.0761057
0.0760802
0.0760552
0.0760308
0.0760068
0.0759835
0.0759606
0.0759383
0.0759165
0.0758952
0.0758744
0.0758541
0.0758343
0.0758151
0.0757963
0.075778
0.0757603
0.075743
0.0757262
0.0757099
0.075694
0.0756787
0.0756638
0.0756494
0.0756355
0.075622
0.075609
0.0755965
0.0755844
0.0755728
0.0755616
0.0755508
0.0755405
0.0755306
0.0755211
0.075512
0.0755033
0.075495
0.0754871
0.0754796
0.0754724
0.0754656
0.0754592
0.0754531
0.0754473
0.0754419
0.0754367
0.0754319
0.0754274
0.0754231
0.0754191
0.0754154
0.0754119
0.0754087
0.0754057
0.0754029
0.0754004
0.075398
0.0753958
0.0753938
0.075392
0.0753904
0.0753888
0.0753875
0.0753863
0.0753852
0.0753842
0.0753833
0.0753825
0.0753818
0.0753813
0.0753807
0.0753803
0.0753799
0.0753796
0.0753794
0.0753792
0.075379
0.0753789
0.0753788
0.0753788
0.0753788
0.0753788
0.0753788
0.0753788
0.0753789
0.075379
0.0753791
0.0753792
0.0753793
0.0753794
0.0753795
0.0753796
0.0753798
0.0753799
0.07538
0.0753802
0.0753803
0.0753805
0.0753806
0.0753807
0.0753809
0.075381
0.0753812
0.0753813
0.0753815
0.0753816
0.0753817
0.0753819
0.075382
0.0753822
0.0753823
0.0753825
0.0753826
0.0753827
0.0753829
0.075383
0.0753832
0.0753833
0.0753835
0.0753836
0.0753837
0.0753839
0.075384
0.0753842
0.0753843
0.0753845
0.0753846
0.0753848
0.0753849
0.0753851
0.0753852
0.0753853
0.0753855
0.0753856
0.0753858
0.0753859
0.0753861
0.0753862
0.0753864
0.0753865
0.0753867
0.0753868
0.0753869
0.0753871
0.0753872
0.0753874
0.0753875
0.0753877
0.0753878
0.075388
0.0753881
0.0753883
0.0753884
0.0753886
0.0753887
0.0753888
0.075389
0.0753891
0.0753893
0.0753894
0.0753896
0.0753897
0.0753899
0.07539
0.0753902
0.0753903
0.0753905
0.0753906
0.0753908
0.0753909
0.0753911
0.0753912
0.0753914
0.0753915
0.0753917
0.0753918
0.075392
0.0753921
0.0753923
0.0753924
0.0753926
0.0753927
0.0753928
0.075393
0.0753931
0.0753933
0.0753934
0.0753936
0.0753937
0.0753939
0.075394
0.0753942
0.0753943
0.0753945
0.0753946
0.0753948
0.0753949
0.0753951
0.0753952
0.0753954
0.0753955
0.0753957
0.0753959
0.075396
0.0753962
0.0753963
0.0753965
0.0753966
0.0753968
0.0753969
0.0753971
0.0753972
0.0753974
0.0753975
0.0753977
0.0753978
0.075398
0.0753981
0.0753983
0.0753984
0.0753986
0.0753987
0.0753989
0.075399
0.0753992
0.0753993
0.0753996
0.0753994
0.0753994
0.0753994
1
0.660887
0.446893
0.352877
0.302028
0.269849
0.2475
0.231017
0.218326
0.208224
0.199964
0.193058
0.187175
0.182082
0.177615
0.173653
0.170103
0.166899
0.163985
0.16132
0.15887
0.156608
0.15451
0.152559
0.150738
0.149033
0.147434
0.14593
0.144512
0.143173
0.141906
0.140705
0.139565
0.138481
0.137449
0.136465
0.135526
0.134628
0.133769
0.132946
0.132157
0.131399
0.130672
0.129972
0.129299
0.128651
0.128027
0.127424
0.126843
0.126281
0.125739
0.125214
0.124707
0.124216
0.12374
0.123279
0.122832
0.122399
0.121978
0.12157
0.121173
0.120788
0.120414
0.12005
0.119696
0.119352
0.119017
0.118691
0.118373
0.118064
0.117762
0.117468
0.117182
0.116903
0.11663
0.116365
0.116106
0.115853
0.115606
0.115365
0.11513
0.1149
0.114676
0.114456
0.114242
0.114033
0.113828
0.113628
0.113433
0.113242
0.113055
0.112872
0.112694
0.112519
0.112348
0.112181
0.112017
0.111857
0.111701
0.111548
0.111398
0.111251
0.111107
0.110967
0.110829
0.110694
0.110562
0.110433
0.110307
0.110183
0.110062
0.109943
0.109827
0.109713
0.109602
0.109493
0.109386
0.109281
0.109179
0.109078
0.10898
0.108883
0.108789
0.108697
0.108606
0.108517
0.10843
0.108345
0.108262
0.10818
0.1081
0.108022
0.107945
0.10787
0.107796
0.107724
0.107653
0.107584
0.107516
0.107449
0.107384
0.10732
0.107257
0.107196
0.107136
0.107077
0.107019
0.106963
0.106907
0.106853
0.1068
0.106748
0.106697
0.106647
0.106598
0.10655
0.106503
0.106457
0.106411
0.106367
0.106324
0.106281
0.10624
0.106199
0.106159
0.10612
0.106081
0.106044
0.106007
0.105971
0.105936
0.105902
0.105868
0.105835
0.105803
0.105771
0.10574
0.10571
0.105681
0.105652
0.105625
0.105597
0.105571
0.105545
0.10552
0.105495
0.105472
0.105448
0.105426
0.105404
0.105383
0.105363
0.105343
0.105324
0.105305
0.105288
0.10527
0.105254
0.105238
0.105223
0.105208
0.105194
0.10518
0.105167
0.105155
0.105143
0.105132
0.105121
0.10511
0.105101
0.105091
0.105083
0.105074
0.105066
0.105059
0.105052
0.105046
0.105039
0.105034
0.105028
0.105023
0.105018
0.105014
0.10501
0.105006
0.105003
0.105
0.104997
0.104994
0.104991
0.104989
0.104987
0.104985
0.104984
0.104982
0.104981
0.10498
0.104979
0.104978
0.104977
0.104976
0.104976
0.104975
0.104975
0.104975
0.104974
0.104974
0.104974
0.104974
0.104974
0.104974
0.104974
0.104974
0.104974
0.104974
0.104974
0.104974
0.104974
0.104975
0.104975
0.104975
0.104975
0.104975
0.104975
0.104976
0.104976
0.104976
0.104976
0.104976
0.104977
0.104977
0.104977
0.104977
0.104977
0.104978
0.104978
0.104978
0.104978
0.104978
0.104979
0.104979
0.104979
0.104979
0.104979
0.10498
0.10498
0.10498
0.10498
0.10498
0.104981
0.104981
0.104981
0.104981
0.104981
0.104982
0.104982
0.104982
0.104982
0.104982
0.104983
0.104983
0.104983
0.104983
0.104983
0.104984
0.104984
0.104984
0.104984
0.104984
0.104985
0.104985
0.104985
0.104985
0.104985
0.104986
0.104986
0.104986
0.104986
0.104986
0.104987
0.104987
0.104987
0.104987
0.104987
0.104988
0.104988
0.104988
0.104988
0.104988
0.104989
0.104989
0.104989
0.104989
0.10499
0.10499
0.10499
0.10499
0.10499
0.104991
0.104991
0.104991
0.104991
0.104991
0.104992
0.104992
0.104992
0.104992
0.104992
0.104993
0.104993
0.104993
0.104993
0.104993
0.104994
0.104994
0.104994
0.104994
0.104994
0.104995
0.104995
0.104995
0.104995
0.104996
0.104996
0.104996
0.104996
0.104996
0.104997
0.104997
0.104997
0.104997
0.104997
0.104998
0.104998
0.104998
0.104998
0.104998
0.104999
0.104999
0.104999
0.104999
0.104999
0.105
0.105
0.105
0.105
0.105001
0.105001
0.105001
0.105001
0.105001
0.105002
0.105002
0.105002
0.105002
0.105002
0.105003
0.105003
0.105003
0.105003
1
0.776802
0.557824
0.446877
0.3841
0.343742
0.315509
0.294602
0.278467
0.265605
0.255079
0.246275
0.238774
0.232282
0.226588
0.221538
0.217017
0.212935
0.209225
0.205832
0.202714
0.199835
0.197167
0.194685
0.192368
0.190201
0.188167
0.186255