# vtk DataFile Version 2.0
FlowField
ASCII
DATASET STRUCTURED_GRID
DIMENSIONS 400 1 200
POINTS 80000 float
0 0 0
0.08 0 0
0.16 0 0
0.24 0 0
0.32 0 0
0.4 0 0
0.48 0 0
0.56 0 0
0.64 0 0
0.72 0 0
0.8 0 0
0.88 0 0
0.96 0 0
1.04 0 0
1.12 0 0
1.2 0 0
1.28 0 0
1.36 0 0
1.44 0 0
1.52 0 0
1.6 0 0
1.68 0 0
1.76 0 0
1.84 0 0
1.92 0 0
2 0 0
2.08 0 0
2.16 0 0
2.24 0 0
2.32 0 0
2.4 0 0
2.48 0 0
2.56 0 0
2.64 0 0
2.72 0 0
2.8 0 0
2.88 0 0
2.96 0 0
3.04 0 0
3.12 0 0
3.2 0 0
3.28 0 0
3.36 0 0
3.44 0 0
3.52 0 0
3.6 0 0
3.68 0 0
3.76 0 0
3.84 0 0
3.92 0 0
4 0 0
4.08 0 0
4.16 0 0
4.24 0 0
4.32 0 0
4.4 0 0
4.48 0 0
4.56 0 0
4.64 0 0
4.72 0 0
4.8 0 0
4.88 0 0
4.96 0 0
5.04 0 0
5.12 0 0
5.2 0 0
5.28 0 0
5.36 0 0
5.44 0 0
5.52 0 0
5.6 0 0
5.68 0 0
5.76 0 0
5.84 0 0
5.92 0 0
6 0 0
6.08 0 0
6.16 0 0
6.24 0 0
6.32 0 0
6.4 0 0
6.48 0 0
6.56 0 0
6.64 0 0
6.72 0 0
6.8 0 0
6.88 0 0
6.96 0 0
7.04 0 0
7.12 0 0
7.2 0 0
7.28 0 0
7.36 0 0
7.44 0 0
7.52 0 0
7.6 0 0
7.68 0 0
7.76 0 0
7.84 0 0
7.92 0 0
8 0 0
8.08 0 0
8.16 0 0
8.24 0 0
8.32 0 0
8.4 0 0
8.48 0 0
8.56 0 0
8.64 0 0
8.72 0 0
8.8 0 0
8.88 0 0
8.96 0 0
9.04 0 0
9.12 0 0
9.2 0 0
9.28 0 0
9.36 0 0
9.44 0 0
9.52 0 0
9.6 0 0
9.68 0 0
9.76 0 0
9.84 0 0
9.92 0 0
10 0 0
10.08 0 0
10.16 0 0
10.24 0 0
10.32 0 0
10.4 0 0
10.48 0 0
10.56 0 0
10.64 0 0
10.72 0 0
10.8 0 0
10.88 0 0
10.96 0 0
11.04 0 0
11.12 0 0
11.2 0 0
11.28 0 0
11.36 0 0
11.44 0 0
11.52 0 0
11.6 0 0
11.68 0 0
11.76 0 0
11.84 0 0
11.92 0 0
12 0 0
12.08 0 0
12.16 0 0
12.24 0 0
12.32 0 0
12.4 0 0
12.48 0 0
12.56 0 0
12.64 0 0
12.72 0 0
12.8 0 0
12.88 0 0
12.96 0 0
13.04 0 0
13.12 0 0
13.2 0 0
13.28 0 0
13.36 0 0
13.44 0 0
13.52 0 0
13.6 0 0
13.68 0 0
13.76 0 0
13.84 0 0
13.92 0 0
14 0 0
14.08 0 0
14.16 0 0
14.24 0 0
14.32 0 0
14.4 0 0
14.48 0 0
14.56 0 0
14.64 0 0
14.72 0 0
14.8 0 0
14.88 0 0
14.96 0 0
15.04 0 0
15.12 0 0
15.2 0 0
15.28 0 0
15.36 0 0
15.44 0 0
15.52 0 0
15.6 0 0
15.68 0 0
15.76 0 0
15.84 0 0
15.92 0 0
16 0 0
16.08 0 0
16.16 0 0
16.24 0 0
16.32 0 0
16.4 0 0
16.48 0 0
16.56 0 0
16.64 0 0
16.72 0 0
16.8 0 0
16.88 0 0
16.96 0 0
17.04 0 0
17.12 0 0
17.2 0 0
17.28 0 0
17.36 0 0
17.44 0 0
17.52 0 0
17.6 0 0
17.68 0 0
17.76 0 0
17.84 0 0
17.92 0 0
18 0 0
18.08 0 0
18.16 0 0
18.24 0 0
18.32 0 0
18.4 0 0
18.48 0 0
18.56 0 0
18.64 0 0
18.72 0 0
18.8 0 0
18.88 0 0
18.96 0 0
19.04 0 0
19.12 0 0
19.2 0 0
19.28 0 0
19.36 0 0
19.44 0 0
19.52 0 0
19.6 0 0
19.68 0 0
19.76 0 0
19.84 0 0
19.92 0 0
20 0 0
20.08 0 0
20.16 0 0
20.24 0 0
20.32 0 0
20.4 0 0
20.48 0 0
20.56 0 0
20.64 0 0
20.72 0 0
20.8 0 0
20.88 0 0
20.96 0 0
21.04 0 0
21.12 0 0
21.2 0 0
21.28 0 0
21.36 0 0
21.44 0 0
21.52 0 0
21.6 0 0
21.68 0 0
21.76 0 0
21.84 0 0
21.92 0 0
22 0 0
22.08 0 0
22.16 0 0
22.24 0 0
22.32 0 0
22.4 0 0
22.48 0 0
22.56 0 0
22.64 0 0
22.72 0 0
22.8 0 0
22.88 0 0
22.96 0 0
23.04 0 0
23.12 0 0
23.2 0 0
23.28 0 0
23.36 0 0
23.44 0 0
23.52 0 0
23.6 0 0
23.68 0 0
23.76 0 0
23.84 0 0
23.92 0 0
24 0 0
24.08 0 0
24.16 0 0
24.24 0 0
24.32 0 0
24.4 0 0
24.48 0 0
24.56 0 0
24.64 0 0
24.72 0 0
24.8 0 0
24.88 0 0
24.96 0 0
25.04 0 0
25.12 0 0
25.2 0 0
25.28 0 0
25.36 0 0
25.44 0 0
25.52 0 0
25.6 0 0
25.68 0 0
25.76 0 0
25.84 0 0
25.92 0 0
26 0 0
26.08 0 0
26.16 0 0
26.24 0 0
26.32 0 0
26.4 0 0
26.48 0 0
26.56 0 0
26.64 0 0
26.72 0 0
26.8 0 0
26.88 0 0
26.96 0 0
27.04 0 0
27.12 0 0
27.2 0 0
27.28 0 0
27.36 0 0
27.44 0 0
27.52 0 0
27.6 0 0
27.68 0 0
27.76 0 0
27.84 0 0
27.92 0 0
28 0 0
28.08 0 0
28.16 0 0
28.24 0 0
28.32 0 0
28.4 0 0
28.48 0 0
28.56 0 0
28.64 0 0
28.72 0 0
28.8 0 0
28.88 0 0
28.96 0 0
29.04 0 0
29.12 0 0
29.2 0 0
29.28 0 0
29.36 0 0
29.44 0 0
29.52 0 0
29.6 0 0
29.68 0 0
29.76 0 0
29.84 0 0
29.92 0 0
30 0 0
30.08 0 0
30.16 0 0
30.24 0 0
30.32 0 0
30.4 0 0
30.48 0 0
30.56 0 0
30.64 0 0
30.72 0 0
30.8 0 0
30.88 0 0
30.96 0 0
31.04 0 0
31.12 0 0
31.2 0 0
31.28 0 0
31.36 0 0
31.44 0 0
31.52 0 0
31.6 0 0
31.68 0 0
31.76 0 0
31.84 0 0
31.92 0 0
0 0.005 0
0.08 0.005 0
0.16 0.005 0
0.24 0.005 0
0.32 0.005 0
0.4 0.005 0
0.48 0.005 0
0.56 0.005 0
0.64 0.005 0
0.72 0.005 0
0.8 0.005 0
0.88 0.005 0
0.96 0.005 0
1.04 0.005 0
1.12 0.005 0
1.2 0.005 0
1.28 0.005 0
1.36 0.005 0
1.44 0.005 0
1.52 0.005 0
1.6 0.005 0
1.68 0.005 0
1.76 0.005 0
1.84 0.005 0
1.92 0.005 0
2 0.005 0
2.08 0.005 0
2.16 0.005 0
2.24 0.005 0
2.32 0.005 0
2.4 0.005 0
2.48 0.005 0
2.56 0.005 0
2.64 0.005 0
2.72 0.005 0
2.8 0.005 0
2.88 0.005 0
2.96 0.005 0
3.04 0.005 0
3.12 0.005 0
3.2 0.005 0
3.28 0.005 0
3.36 0.005 0
3.44 0.005 0
3.52 0.005 0
3.6 0.005 0
3.68 0.005 0
3.76 0.005 0
3.84 0.005 0
3.92 0.005 0
4 0.005 0
4.08 0.005 0
4.16 0.005 0
4.24 0.005 0
4.32 0.005 0
4.4 0.005 0
4.48 0.005 0
4.56 0.005 0
4.64 0.005 0
4.72 0.005 0
4.8 0.005 0
4.88 0.005 0
4.96 0.005 0
5.04 0.005 0
5.12 0.005 0
5.2 0.005 0
5.28 0.005 0
5.36 0.005 0
5.44 0.005 0
5.52 0.005 0
5.6 0.005 0
5.68 0.005 0
5.76 0.005 0
5.84 0.005 0
5.92 0.005 0
6 0.005 0
6.08 0.005 0
6.16 0.005 0
6.24 0.005 0
6.32 0.005 0
6.4 0.005 0
6.48 0.005 0
6.56 0.005 0
6.64 0.005 0
6.72 0.005 0
6.8 0.005 0
6.88 0.005 0
6.96 0.005 0
7.04 0.005 0
7.12 0.005 0
7.2 0.005 0
7.28 0.005 0
7.36 0.005 0
7.44 0.005 0
7.52 0.005 0
7.6 0.005 0
7.68 0.005 0
7.76 0.005 0
7.84 0.005 0
7.92 0.005 0
8 0.005 0
8.08 0.005 0
8.16 0.005 0
8.24 0.005 0
8.32 0.005 0
8.4 0.005 0
8.48 0.005 0
8.56 0.005 0
8.64 0.005 0
8.72 0.005 0
8.8 0.005 0
8.88 0.005 0
8.96 0.005 0
9.04 0.005 0
9.12 0.005 0
9.2 0.005 0
9.28 0.005 0
9.36 0.005 0
9.44 0.005 0
9.52 0.005 0
9.6 0.005 0
9.68 0.005 0
9.76 0.005 0
9.84 0.005 0
9.92 0.005 0
10 0.005 0
10.08 0.005 0
10.16 0.005 0
10.24 0.005 0
10.32 0.005 0
10.4 0.005 0
10.48 0.005 0
10.56 0.005 0
10.64 0.005 0
10.72 0.005 0
10.8 0.005 0
10.88 0.005 0
10.96 0.005 0
11.04 0.005 0
11.12 0.005 0
11.2 0.005 0
11.28 0.005 0
11.36 0.005 0
11.44 0.005 0
11.52 0.005 0
11.6 0.005 0
11.68 0.005 0
11.76 0.005 0
11.84 0.005 0
11.92 0.005 0
12 0.005 0
12.08 0.005 0
12.16 0.005 0
12.24 0.005 0
12.32 0.005 0
12.4 0.005 0
12.48 0.005 0
12.56 0.005 0
12.64 0.005 0
12.72 0.005 0
12.8 0.005 0
12.88 0.005 0
12.96 0.005 0
13.04 0.005 0
13.12 0.005 0
13.2 0.005 0
13.28 0.005 0
13.36 0.005 0
13.44 0.005 0
13.52 0.005 0
13.6 0.005 0
13.68 0.005 0
13.76 0.005 0
13.84 0.005 0
13.92 0.005 0
14 0.005 0
14.08 0.005 0
14.16 0.005 0
14.24 0.005 0
14.32 0.005 0
14.4 0.005 0
14.48 0.005 0
14.56 0.005 0
14.64 0.005 0
14.72 0.005 0
14.8 0.005 0
14.88 0.005 0
14.96 0.005 0
15.04 0.005 0
15.12 0.005 0
15.2 0.005 0
15.28 0.005 0
15.36 0.005 0
15.44 0.005 0
15.52 0.005 0
15.6 0.005 0
15.68 0.005 0
15.76 0.005 0
15.84 0.005 0
15.92 0.005 0
16 0.005 0
16.08 0.005 0
16.16 0.005 0
16.24 0.005 0
16.32 0.005 0
16.4 0.005 0
16.48 0.005 0
16.56 0.005 0
16.64 0.005 0
16.72 0.005 0
16.8 0.005 0
16.88 0.005 0
16.96 0.005 0
17.04 0.005 0
17.12 0.005 0
17.2 0.005 0
17.28 0.005 0
17.36 0.005 0
17.44 0.005 0
17.52 0.005 0
17.6 0.005 0
17.68 0.005 0
17.76 0.005 0
17.84 0.005 0
17.92 0.005 0
18 0.005 0
18.08 0.005 0
18.16 0.005 0
18.24 0.005 0
18.32 0.005 0
18.4 0.005 0
18.48 0.005 0
18.56 0.005 0
18.64 0.005 0
18.72 0.005 0
18.8 0.005 0
18.88 0.005 0
18.96 0.005 0
19.04 0.005 0
19.12 0.005 0
19.2 0.005 0
19.28 0.005 0
19.36 0.005 0
19.44 0.005 0
19.52 0.005 0
19.6 0.005 0
19.68 0.005 0
19.76 0.005 0
19.84 0.005 0
19.92 0.005 0
20 0.005 0
20.08 0.005 0
20.16 0.005 0
20.24 0.005 0
20.32 0.005 0
20.4 0.005 0
20.48 0.005 0
20.56 0.005 0
20.64 0.005 0
20.72 0.005 0
20.8 0.005 0
20.88 0.005 0
20.96 0.005 0
21.04 0.005 0
21.12 0.005 0
21.2 0.005 0
21.28 0.005 0
21.36 0.005 0
21.44 0.005 0
21.52 0.005 0
21.6 0.005 0
21.68 0.005 0
21.76 0.005 0
21.84 0.005 0
21.92 0.005 0
22 0.005 0
22.08 0.005 0
22.16 0.005 0
22.24 0.005 0
22.32 0.005 0
22.4 0.005 0
22.48 0.005 0
22.56 0.005 0
22.64 0.005 0
22.72 0.005 0
22.8 0.005 0
22.88 0.005 0
22.96 0.005 0
23.04 0.005 0
23.12 0.005 0
23.2 0.005 0
23.28 0.005 0
23.36 0.005 0
23.44 0.005 0
23.52 0.005 0
23.6 0.005 0
23.68 0.005 0
23.76 0.005 0
23.84 0.005 0
23.92 0.005 0
24 0.005 0
24.08 0.005 0
24.16 0.005 0
24.24 0.005 0
24.32 0.005 0
24.4 0.005 0
24.48 0.005 0
24.56 0.005 0
24.64 0.005 0
24.72 0.005 0
24.8 0.005 0
24.88 0.005 0
24.96 0.005 0
25.04 0.005 0
25.12 0.005 0
25.2 0.005 0
25.28 0.005 0
25.36 0.005 0
25.44 0.005 0
25.52 0.005 0
25.6 0.005 0
25.68 0.005 0
25.76 0.005 0
25.84 0.005 0
25.92 0.005 0
26 0.005 0
26.08 0.005 0
26.16 0.005 0
26.24 0.005 0
26.32 0.005 0
26.4 0.005 0
26.48 0.005 0
26.56 0.005 0
26.64 0.005 0
26.72 0.005 0
26.8 0.005 0
26.88 0.005 0
26.96 0.005 0
27.04 0.005 0
27.12 0.005 0
27.2 0.005 0
27.28 0.005 0
27.36 0.005 0
27.44 0.005 0
27.52 0.005 0
27.6 0.005 0
27.68 0.005 0
27.76 0.005 0
27.84 0.005 0
27.92 0.005 0
28 0.005 0
28.08 0.005 0
28.16 0.005 0
28.24 0.005 0
28.32 0.005 0
28.4 0.005 0
28.48 0.005 0
28.56 0.005 0
28.64 0.005 0
28.72 0.005 0
28.8 0.005 0
28.88 0.005 0
28.96 0.005 0
29.04 0.005 0
29.12 0.005 0
29.2 0.005 0
29.28 0.005 0
29.36 0.005 0
29.44 0.005 0
29.52 0.005 0
29.6 0.005 0
29.68 0.005 0
29.76 0.005 0
29.84 0.005 0
29.92 0.005 0
30 0.005 0
30.08 0.005 0
30.16 0.005 0
30.24 0.005 0
30.32 0.005 0
30.4 0.005 0
30.48 0.005 0
30.56 0.005 0
30.64 0.005 0
30.72 0.005 0
30.8 0.005 0
30.88 0.005 0
30.96 0.005 0
31.04 0.005 0
31.12 0.005 0
31.2 0.005 0
31.28 0.005 0
31.36 0.005 0
31.44 0.005 0
31.52 0.005 0
31.6 0.005 0
31.68 0.005 0
31.76 0.005 0
31.84 0.005 0
31.92 0.005 0
0 0.01 0
0.08 0.01 0
0.16 0.01 0
0.24 0.01 0
0.32 0.01 0
0.4 0.01 0
0.48 0.01 0
0.56 0.01 0
0.64 0.01 0
0.72 0.01 0
0.8 0.01 0
0.88 0.01 0
0.96 0.01 0
1.04 0.01 0
1.12 0.01 0
1.2 0.01 0
1.28 0.01 0
1.36 0.01 0
1.44 0.01 0
1.52 0.01 0
1.6 0.01 0
1.68 0.01 0
1.76 0.01 0
1.84 0.01 0
1.92 0.01 0
2 0.01 0
2.08 0.01 0
2.16 0.01 0
2.24 0.01 0
2.32 0.01 0
2.4 0.01 0
2.48 0.01 0
2.56 0.01 0
2.64 0.01 0
2.72 0.01 0
2.8 0.01 0
2.88 0.01 0
2.96 0.01 0
3.04 0.01 0
3.12 0.01 0
3.2 0.01 0
3.28 0.01 0
3.36 0.01 0
3.44 0.01 0
3.52 0.01 0
3.6 0.01 0
3.68 0.01 0
3.76 0.01 0
3.84 0.01 0
3.92 0.01 0
4 0.01 0
4.08 0.01 0
4.16 0.01 0
4.24 0.01 0
4.32 0.01 0
4.4 0.01 0
4.48 0.01 0
4.56 0.01 0
4.64 0.01 0
4.72 0.01 0
4.8 0.01 0
4.88 0.01 0
4.96 0.01 0
5.04 0.01 0
5.12 0.01 0
[...]
POINT_DATA 80000

SCALARS v float 1
LOOKUP_TABLE default
0
0
0
0
0
0
0
0
0
0
0
0
0
0
0
0
0
0
0
0
0
0
0
0
0
0
0
0
0
0
0
0
0
0
0
0
0
0
0
0
0
0
0
0
0
0
0
0
0
0
0
0
0
0
0
0
0
0
0
0
0
0
0
0
0
0
0
0
0
0
0
0
0
0
0
0
0
0
0
0
0
0
0
0
0
0
0
0
0
0
0
0
0
0
0
0
0
0
0
0
0
0
0
0
0
0
0
0
0
0
0
0
0
0
0
0
0
0
0
0
0
0
0
0
0
0
0
0
0
0
0
0
0
0
0
0
0
0
0
0
0
0
0
0
0
0
0
0
0
0
0
0
0
0
0
0
0
0
0
0
0
0
0
0
0
0
0
0
0
0
0
0
0
0
0
0
0
0
0
0
0
0
0
0
0
0
0
0
0
0
0
0
0
0
0
0
0
0
0
0
0
0
0
0
0
0
0
0
0
0
0
0
0
0
0
0
0
0
0
0
0
0
0
0
0
0
0
0
0
0
0
0
0
0
0
0
0
0
0
0
0
0
0
0
0
0
0
0
0
0
0
0
0
0
0
0
0
0
0
0
0
0
0
0
0
0
0
0
0
0
0
0
0
0
0
0
0
0
0
0
0
0
0
0
0
0
0
0
0
0
0
0
0
0
0
0
0
0
0
0
0
0
0
0
0
0
0
0
0
0
0
0
0
0
0
0
0
0
0
0
0
0
0
0
0
0
0
0
0
0
0
0
0
0
0
0
0
0
0
0
0
0
0
0
0
0
0
0
0
0
0
0
0
0
0
0
0
0
0
0
0
0
0
0
0
0
0
0
0
0
0
0
0
0
0
0
0
0
0
0
0
0
0
0
0
0
0
0
0
0
0
0
0
0
0
0
0
0
0
0
-0.0542711
0.0542711
0.00396209
0.00099833
0.00049226
0.000302696
0.00020732
0.000151692
0.00011625
9.22938e-05
7.53807e-05
6.30201e-05
5.37196e-05
4.65411e-05
4.08733e-05
3.63062e-05
3.25587e-05
2.94337e-05
2.67906e-05
2.45275e-05
2.25686e-05
2.08572e-05
1.935e-05
1.80131e-05
1.68201e-05
1.57496e-05
1.47845e-05
1.39105e-05
1.31161e-05
1.23915e-05
1.17283e-05
1.11195e-05
1.05592e-05
1.00421e-05
9.56378e-06
9.1203e-06
8.70824e-06
8.32462e-06
7.96678e-06
7.63239e-06
7.31938e-06
7.02589e-06
6.75029e-06
6.49108e-06
6.24696e-06
6.01673e-06
5.79931e-06
5.59373e-06
5.39911e-06
5.21466e-06
5.03965e-06
4.87341e-06
4.71534e-06
4.56489e-06
4.42155e-06
4.28486e-06
4.15439e-06
4.02975e-06
3.91057e-06
3.79653e-06
3.6873e-06
3.58262e-06
3.48221e-06
3.38583e-06
3.29325e-06
3.20425e-06
3.11865e-06
3.03626e-06
2.9569e-06
2.88043e-06
2.80668e-06
2.73553e-06
2.66684e-06
2.60048e-06
2.53635e-06
2.47434e-06
2.41435e-06
2.35628e-06
2.30005e-06
2.24557e-06
2.19276e-06
2.14155e-06
2.09188e-06
2.04367e-06
1.99686e-06
1.9514e-06
1.90723e-06
1.8643e-06
1.82257e-06
1.78197e-06
1.74247e-06
1.70403e-06
1.66661e-06
1.63017e-06
1.59467e-06
1.56009e-06
1.52638e-06
1.49353e-06
1.46149e-06
1.43024e-06
1.39977e-06
1.37003e-06
1.34101e-06
1.31268e-06
1.28502e-06
1.25802e-06
1.23165e-06
1.20589e-06
1.18072e-06
1.15613e-06
1.1321e-06
1.10862e-06
1.08566e-06
1.06322e-06
1.04127e-06
1.01982e-06
9.98833e-07
9.7831e-07
9.58235e-07
9.38596e-07
9.19383e-07
9.00584e-07
8.82189e-07
8.64188e-07
8.46572e-07
8.29329e-07
8.12452e-07
7.95932e-07
7.7976e-07
7.63928e-07
7.48428e-07
7.33251e-07
7.18392e-07
7.03841e-07
6.89593e-07
6.7564e-07
6.61975e-07
6.48592e-07
6.35486e-07
6.22649e-07
6.10075e-07
5.9776e-07
5.85696e-07
5.7388e-07
5.62304e-07
5.50965e-07
5.39857e-07
5.28975e-07
5.18315e-07
5.07871e-07
4.97639e-07
4.87614e-07
4.77793e-07
4.68171e-07
4.58743e-07
4.49506e-07
4.40456e-07
4.31588e-07
4.229e-07
4.14386e-07
4.06045e-07
3.97872e-07
3.89863e-07
3.82016e-07
3.74326e-07
3.66792e-07
3.59409e-07
3.52175e-07
3.45086e-07
3.38139e-07
3.31333e-07
3.24663e-07
3.18127e-07
3.11723e-07
3.05447e-07
2.99297e-07
2.93271e-07
2.87366e-07
2.81579e-07
2.75909e-07
2.70352e-07
2.64907e-07
2.59571e-07
2.54343e-07
2.49219e-07
2.44199e-07
2.39279e-07
2.34458e-07
2.29733e-07
2.25104e-07
2.20567e-07
2.16122e-07
2.11766e-07
2.07497e-07
2.03314e-07
1.99215e-07
1.95198e-07
1.91262e-07
1.87406e-07
1.83626e-07
1.79923e-07
1.76294e-07
1.72738e-07
1.69253e-07
1.65839e-07
1.62493e-07
1.59214e-07
1.56002e-07
1.52854e-07
1.49769e-07
1.46746e-07
1.43784e-07
1.40882e-07
1.38038e-07
1.35252e-07
1.32521e-07
1.29845e-07
1.27224e-07
1.24655e-07
1.22138e-07
1.19671e-07
1.17254e-07
1.14886e-07
1.12565e-07
1.10292e-07
1.08064e-07
1.0588e-07
1.03741e-07
1.01645e-07
9.95914e-08
9.7579e-08
9.56071e-08
9.36749e-08
9.17816e-08
8.99265e-08
8.81088e-08
8.63278e-08
8.45826e-08
8.28727e-08
8.11973e-08
7.95557e-08
7.79472e-08
7.63712e-08
7.48271e-08
7.33142e-08
7.18319e-08
7.03797e-08
6.89568e-08
6.75628e-08
6.61971e-08
6.4859e-08
6.35481e-08
6.22638e-08
6.10056e-08
5.97728e-08
5.85651e-08
5.73817e-08
5.62223e-08
5.50862e-08
5.3973e-08
5.28821e-08
5.18129e-08
5.07649e-08
4.97377e-08
4.87305e-08
4.7743e-08
4.67744e-08
4.58243e-08
4.48922e-08
4.39773e-08
4.30793e-08
4.21974e-08
4.13312e-08
4.04801e-08
3.96435e-08
3.88209e-08
3.80117e-08
3.72153e-08
3.64313e-08
3.56591e-08
3.48982e-08
3.41481e-08
3.34084e-08
3.26785e-08
3.1958e-08
3.12465e-08
3.05436e-08
2.98489e-08
2.91621e-08
2.84828e-08
2.78108e-08
2.71458e-08
2.64875e-08
2.58357e-08
2.51903e-08
2.45511e-08
2.39179e-08
2.32906e-08
2.26693e-08
2.20538e-08
2.14441e-08
2.08403e-08
2.02423e-08
1.96503e-08
1.90643e-08
1.84845e-08
1.79109e-08
1.73438e-08
1.67832e-08
1.62294e-08
1.56827e-08
1.51431e-08
1.4611e-08
1.40866e-08
1.357e-08
1.30617e-08
1.25618e-08
1.20705e-08
1.15882e-08
1.1115e-08
1.06512e-08
1.01971e-08
9.75283e-09
9.31862e-09
8.89465e-09
8.48111e-09
8.07818e-09
7.68599e-09
7.30468e-09
6.93433e-09
6.57505e-09
6.2269e-09
5.88997e-09
5.56423e-09
5.24975e-09
4.94647e-09
4.65444e-09
4.37351e-09
4.10373e-09
3.84489e-09
3.597e-09
3.3598e-09
3.13329e-09
2.91718e-09
2.71146e-09
2.51573e-09
2.33001e-09
2.15381e-09
1.9872e-09
1.82957e-09
1.68105e-09
1.54092e-09
1.40943e-09
1.2857e-09
1.17009e-09
1.06157e-09
9.60667e-10
8.6612e-10
7.78689e-10
6.96867e-10
6.21694e-10
5.51346e-10
4.87266e-10
4.27192e-10
3.73039e-10
3.22048e-10
2.76728e-10
2.3368e-10
1.96148e-10
1.59903e-10
1.29206e-10
9.87746e-11
7.40177e-11
4.84483e-11
2.88616e-11
7.29473e-12
-7.8506e-12
-2.62119e-11
-3.75662e-11
-5.33757e-11
-6.15772e-11
-7.5312e-11
-8.10322e-11
-9.29082e-11
-9.70509e-11
-1.0677e-10
-1.10806e-10
-1.17191e-10
-1.23901e-10
-1.23872e-10
-1.39044e-10
-1.25183e-10
-1.6181e-10
-1.15138e-10
-2.04851e-10
-6.44138e-11
-2.93982e-10
3.29087e-10
-1.73061e-10
-1.73061e-10
-0.0952159
0.0952159
0.0129756
0.00385462
0.00193431
0.0011962
0.000821741
0.000602314
0.000462067
0.000367041
0.000299831
0.000250645
0.000213602
0.000184994
0.0001624
0.000144195
0.00012926
0.00011681
0.000106285
9.72762e-05
8.9483e-05
8.26777e-05
7.66869e-05
7.13754e-05
6.66372e-05
6.23871e-05
5.85565e-05
5.50887e-05
5.19373e-05
4.90631e-05
4.64331e-05
4.40194e-05
4.17981e-05
3.97484e-05
3.78526e-05
3.60951e-05
3.44623e-05
3.29422e-05
3.15245e-05
3.01998e-05
2.89598e-05
2.77973e-05
2.67056e-05
2.5679e-05
2.47121e-05
2.38003e-05
2.29393e-05
2.21253e-05
2.13546e-05
2.06243e-05
1.99313e-05
1.92731e-05
1.86473e-05
1.80517e-05
1.74842e-05
1.69431e-05
1.64266e-05
1.59332e-05
1.54615e-05
1.50101e-05
1.45778e-05
1.41634e-05
1.3766e-05
1.33846e-05
1.30182e-05
1.2666e-05
1.23272e-05
1.20012e-05
1.16872e-05
1.13846e-05
1.10928e-05
1.08112e-05
1.05394e-05
1.02769e-05
1.00232e-05
9.77784e-06
9.5405e-06
9.31078e-06
9.08833e-06
8.87281e-06
8.66393e-06
8.46138e-06
8.2649e-06
8.07422e-06
7.88909e-06
7.7093e-06
7.53462e-06
7.36484e-06
7.19977e-06
7.03923e-06
6.88304e-06
6.73104e-06
6.58307e-06
6.43898e-06
6.29864e-06
6.1619e-06
6.02864e-06
5.89874e-06
5.77209e-06
5.64857e-06
5.52808e-06
5.41052e-06
5.2958e-06
5.18383e-06
5.07452e-06
4.96778e-06
4.86355e-06
4.76174e-06
4.66228e-06
4.5651e-06
4.47014e-06
4.37733e-06
4.28661e-06
4.19793e-06
4.11122e-06
4.02644e-06
3.94353e-06
3.86244e-06
3.78312e-06
3.70553e-06
3.62962e-06
3.55535e-06
3.48268e-06
3.41157e-06
3.34198e-06
3.27387e-06
3.2072e-06
3.14194e-06
3.07806e-06
3.01553e-06
2.95431e-06
2.89436e-06
2.83567e-06
2.77821e-06
2.72193e-06
2.66683e-06
2.61286e-06
2.56001e-06
2.50825e-06
2.45756e-06
2.40791e-06
2.35928e-06
2.31164e-06
2.26498e-06
2.21927e-06
2.1745e-06
2.13064e-06
2.08768e-06
2.04558e-06
2.00435e-06
1.96395e-06
1.92437e-06
1.8856e-06
1.84761e-06
1.81039e-06
1.77392e-06
1.7382e-06
1.70319e-06
1.66889e-06
1.63528e-06
1.60236e-06
1.57009e-06
1.53848e-06
1.5075e-06
1.47715e-06
1.44741e-06
1.41827e-06
1.38971e-06
1.36173e-06
1.33431e-06
1.30745e-06
1.28112e-06
1.25533e-06
1.23005e-06
1.20528e-06
1.18101e-06
1.15722e-06
1.13392e-06
1.11108e-06
1.0887e-06
1.06677e-06
1.04528e-06
1.02422e-06
1.00359e-06
9.83369e-07
9.63556e-07
9.4414e-07
9.25114e-07
9.0647e-07
8.88201e-07
8.70299e-07
8.52757e-07
8.35566e-07
8.18722e-07
8.02215e-07
7.86041e-07
7.70191e-07
7.5466e-07
7.39441e-07
7.24527e-07
7.09914e-07
6.95594e-07
6.81563e-07
6.67813e-07
6.5434e-07
6.41138e-07
6.28201e-07
6.15525e-07
6.03103e-07
5.90932e-07
5.79005e-07
5.67319e-07
5.55868e-07
5.44647e-07
5.33652e-07
5.22878e-07
5.12321e-07
5.01977e-07
4.91841e-07
4.8191e-07
4.72178e-07
4.62642e-07
4.53299e-07
4.44143e-07
4.35172e-07
4.26382e-07
4.17769e-07
4.09329e-07
4.01059e-07
3.92956e-07
3.85016e-07
3.77236e-07
3.69613e-07
3.62144e-07
3.54825e-07
3.47654e-07
3.40627e-07
3.33742e-07
3.26996e-07
3.20386e-07
3.1391e-07
3.07564e-07
3.01347e-07
2.95255e-07
2.89287e-07
2.83439e-07
2.7771e-07
2.72096e-07
2.66597e-07
2.61209e-07
2.5593e-07
2.50758e-07
2.45691e-07
2.40727e-07
2.35863e-07
2.31098e-07
2.26429e-07
2.21854e-07
2.17371e-07
2.12978e-07
2.08673e-07
2.04454e-07
2.00317e-07
1.96262e-07
1.92287e-07
1.88388e-07
1.84563e-07
1.80811e-07
1.7713e-07
1.73516e-07
1.69968e-07
1.66483e-07
1.6306e-07
1.59696e-07
1.56388e-07
1.53135e-07
1.49934e-07
1.46783e-07
1.43681e-07
1.40624e-07
1.37611e-07
1.34641e-07
1.31711e-07
1.28819e-07
1.25964e-07
1.23143e-07
1.20356e-07
1.17602e-07
1.14877e-07
1.12183e-07
1.09516e-07
1.06877e-07
1.04264e-07
1.01677e-07
9.9114e-08
9.65758e-08
9.40614e-08
9.15704e-08
8.91027e-08
8.66582e-08
8.42367e-08
8.18385e-08
7.94638e-08
7.71127e-08
7.47858e-08
7.24835e-08
7.02064e-08
6.7955e-08
6.57302e-08
6.35328e-08
6.13635e-08
5.92232e-08
5.7113e-08
5.50337e-08
5.29864e-08
5.0972e-08
4.89916e-08
4.70462e-08
4.51368e-08
4.32643e-08
4.14297e-08
3.96339e-08
3.78778e-08
3.61621e-08
3.44876e-08
3.28551e-08
3.12651e-08
2.97182e-08
2.8215e-08
2.67558e-08
2.53409e-08
2.39706e-08
2.26452e-08
2.13645e-08
2.01289e-08
1.8938e-08
1.7792e-08
1.66904e-08
1.56331e-08
1.46194e-08
1.36494e-08
1.27219e-08
1.1837e-08
1.09934e-08
1.01911e-08
9.42836e-09
8.70537e-09
8.02014e-09
7.37284e-09
6.76116e-09
6.18549e-09
5.64306e-09
5.13466e-09
4.657e-09
4.2113e-09
3.79363e-09
3.40587e-09
3.04324e-09
2.7085e-09
2.39592e-09
2.10936e-09
1.8419e-09
1.59881e-09
1.37164e-09
1.16749e-09
9.75913e-10
8.06298e-10
6.45755e-10
5.06534e-10
3.72683e-10
2.60037e-10
1.48866e-10
5.93529e-11
-3.28492e-11
-1.02338e-10
-1.78953e-10
-2.31226e-10
-2.95334e-10
-3.32992e-10
-3.8717e-10
-4.12681e-10
-4.58825e-10
-4.74764e-10
-5.13712e-10
-5.23517e-10
-5.5433e-10
-5.63467e-10
-5.81848e-10
-6.00643e-10
-5.95288e-10
-6.45218e-10
-5.88893e-10
-7.17943e-10
-5.40831e-10
-8.65394e-10
-3.43471e-10
-1.17689e-09
1.10034e-09
-7.29e-10
-7.29e-10
-0.125293
0.125293
0.0249359
0.00835802
0.004278
0.00266152
0.00183374
0.00134635
0.00103388
0.000821704
0.000671387
0.00056125
0.000478232
0.000414085
0.00036341
0.000322576
0.000289079
0.000261164
0.000237571
0.000217385
0.000199929
0.000184691
0.000171281
0.000159395
0.000148795
0.00013929
0.000130724
0.000122972
0.000115928
0.000109505
0.000103628
9.8235e-05
9.32725e-05
8.86939e-05
8.44594e-05
8.0534e-05
7.68875e-05
7.3493e-05
7.03272e-05
6.73692e-05
6.46006e-05
6.20051e-05
5.95679e-05
5.7276e-05
5.51176e-05
5.30822e-05
5.11602e-05
4.93431e-05
4.7623e-05
4.59928e-05
4.44462e-05
4.29772e-05
4.15804e-05
4.02511e-05
3.89848e-05
3.77772e-05
3.66246e-05
3.55236e-05
3.44709e-05
3.34636e-05
3.2499e-05
3.15745e-05
3.06878e-05
2.98367e-05
2.90192e-05
2.82334e-05
2.74776e-05
2.67502e-05
2.60497e-05
2.53746e-05
2.47236e-05
2.40956e-05
2.34892e-05
2.29036e-05
2.23377e-05
2.17904e-05
2.1261e-05
2.07487e-05
2.02525e-05
1.97718e-05
1.93059e-05
1.88542e-05
1.8416e-05
1.79908e-05
1.75779e-05
1.7177e-05
1.67874e-05
1.64088e-05
1.60408e-05
1.56828e-05
1.53345e-05
1.49956e-05
1.46657e-05
1.43444e-05
1.40315e-05
1.37266e-05
1.34296e-05
1.314e-05
1.28576e-05
1.25823e-05
1.23137e-05
1.20516e-05
1.17959e-05
1.15463e-05
1.13026e-05
1.10647e-05
1.08324e-05
1.06055e-05
1.03838e-05
1.01672e-05
9.9556e-06
9.74876e-06
9.54659e-06
9.34896e-06
9.15574e-06
8.96681e-06
8.78205e-06
8.60136e-06
8.42462e-06
8.25173e-06
8.0826e-06
7.91712e-06
7.7552e-06
7.59676e-06
7.44171e-06
7.28996e-06
7.14143e-06
6.99605e-06
6.85374e-06
6.71443e-06
6.57804e-06
6.44451e-06
6.31377e-06
6.18575e-06
6.0604e-06
5.93765e-06
5.81745e-06
5.69973e-06
5.58444e-06
5.47152e-06
5.36093e-06
5.25262e-06
5.14652e-06
5.0426e-06
4.9408e-06
4.84109e-06
4.74341e-06
4.64772e-06
4.55398e-06
4.46215e-06
4.37218e-06
4.28404e-06
4.19769e-06
4.1131e-06
4.03021e-06
3.94901e-06
3.86945e-06
3.79149e-06
3.71512e-06
3.64028e-06
3.56696e-06
3.49512e-06
3.42473e-06
3.35575e-06
3.28817e-06
3.22195e-06
3.15707e-06
3.09349e-06
3.03119e-06
2.97014e-06
2.91033e-06
2.85171e-06
2.79428e-06
2.738e-06
2.68285e-06
2.62881e-06
2.57586e-06
2.52398e-06
2.47313e-06
2.42331e-06
2.37449e-06
2.32665e-06
2.27977e-06
2.23383e-06
2.18882e-06
2.14471e-06
2.10149e-06
2.05913e-06
2.01763e-06
1.97696e-06
1.93711e-06
1.89805e-06
1.85979e-06
1.82229e-06
1.78555e-06
1.74954e-06
1.71426e-06
1.67969e-06
1.64581e-06
1.61261e-06
1.58008e-06
1.54821e-06
1.51697e-06
1.48637e-06
1.45638e-06
1.42699e-06
1.39819e-06
1.36998e-06
1.34233e-06
1.31524e-06
1.28869e-06
1.26268e-06
1.23719e-06
1.21221e-06
1.18774e-06
1.16376e-06
1.14026e-06
1.11724e-06
1.09468e-06
1.07257e-06
1.05091e-06
1.02968e-06
1.00889e-06
9.88509e-07
9.68542e-07
9.48977e-07
9.29806e-07
9.11021e-07
8.92615e-07
8.7458e-07
8.56908e-07
8.39593e-07
8.22626e-07
8.06002e-07
7.89712e-07
7.73751e-07
7.58112e-07
7.42789e-07
7.27774e-07
7.13063e-07
6.98648e-07
6.84525e-07
6.70688e-07
6.5713e-07
6.43846e-07
6.30831e-07
6.1808e-07
6.05587e-07
5.93347e-07
5.81355e-07
5.69606e-07
5.58096e-07
5.46818e-07
5.35769e-07
5.24944e-07
5.14338e-07
5.03945e-07
4.93762e-07
4.83784e-07
4.74005e-07
4.64421e-07
4.55027e-07
4.45818e-07
4.3679e-07
4.27938e-07
4.19255e-07
4.10739e-07
4.02383e-07
3.94183e-07
3.86133e-07
3.78229e-07
3.70465e-07
3.62837e-07
3.55339e-07
3.47967e-07
3.40715e-07
3.33579e-07
3.26554e-07
3.19636e-07
3.12819e-07
3.06099e-07
2.99472e-07
2.92934e-07
2.86481e-07
2.80108e-07
2.73814e-07
2.67593e-07
2.61443e-07
2.5536e-07
2.49343e-07
2.43389e-07
2.37495e-07
2.31659e-07
2.2588e-07
2.20157e-07
2.14488e-07
2.08872e-07
2.03308e-07
1.97797e-07
1.92337e-07
1.86929e-07
1.81574e-07
1.76271e-07
1.71022e-07
1.65827e-07
1.60688e-07
1.55605e-07
1.50581e-07
1.45617e-07
1.40715e-07
1.35876e-07
1.31103e-07
1.26398e-07
1.21763e-07
1.172e-07
1.12712e-07
1.083e-07
1.03967e-07
9.97158e-08
9.55478e-08
9.14652e-08
8.747e-08
8.35641e-08
7.97494e-08
7.60274e-08
7.23997e-08
6.88677e-08
6.54326e-08
6.20954e-08
5.8857e-08
5.57182e-08
5.26792e-08
4.97407e-08
4.69025e-08
4.41652e-08
4.1528e-08
3.89911e-08
3.65534e-08
3.42148e-08
3.19737e-08
2.98298e-08
2.77809e-08
2.58269e-08
2.39649e-08
2.21948e-08
2.0513e-08
1.89196e-08
1.74101e-08
1.59849e-08
1.46388e-08
1.33727e-08
1.21804e-08
1.10635e-08
1.00148e-08
9.03689e-09
8.12112e-09
7.2714e-09
6.47746e-09
5.745e-09
5.06168e-09
4.43565e-09
3.85198e-09
3.32188e-09
2.82713e-09
2.38281e-09
1.96653e-09
1.59821e-09
1.25023e-09
9.48721e-10
6.59485e-10
4.16319e-10
1.76931e-10
-1.55452e-11
-2.13248e-10
-3.61885e-10
-5.25416e-10
-6.36464e-10
-7.72553e-10
-8.5173e-10
-9.66073e-10
-1.01874e-09
-1.11553e-09
-1.14736e-09
-1.22853e-09
-1.24684e-09
-1.31052e-09
-1.32706e-09
-1.36426e-09
-1.40095e-09
-1.38788e-09
-1.49027e-09
-1.36945e-09
-1.63927e-09
-1.2634e-09
-1.94629e-09
-8.43183e-10
-2.59212e-09
2.1703e-09
-1.65239e-09
-1.65239e-09
-0.146488
0.146488
0.0383105
0.014234
0.00745602
0.00467275
0.00323055
0.00237653
0.00182708
0.00145306
0.00118762
0.000992883
0.000845958
0.000732363
0.000642595
0.000570249
0.000510907
0.00046146
0.000419681
0.000383945
0.00035305
0.00032609
0.000302371
0.000281354
0.000262615
0.000245814
0.000230678
0.000216981
0.000204538
0.000193192
0.000182814
0.000173291
0.000164528
0.000156444
0.000148969
0.000142039
0.000135602
0.000129611
0.000124023
0.000118802
0.000113916
0.000109336
0.000105035
0.00010099
9.71815e-05
9.359e-05
9.01987e-05
8.69925e-05
8.39576e-05
8.10814e-05
7.83527e-05
7.5761e-05
7.3297e-05
7.09519e-05
6.87178e-05
6.65875e-05
6.45544e-05
6.26122e-05
6.07553e-05
5.89785e-05
5.7277e-05
5.56463e-05
5.40823e-05
5.25812e-05
5.11393e-05
4.97535e-05
4.84205e-05
4.71376e-05
4.59022e-05
4.47116e-05
4.35636e-05
4.2456e-05
4.13869e-05
4.03542e-05
3.93562e-05
3.83912e-05
3.74578e-05
3.65543e-05
3.56794e-05
3.48319e-05
3.40105e-05
3.32141e-05
3.24415e-05
3.16918e-05
3.09639e-05
3.02571e-05
2.95704e-05
2.8903e-05
2.82541e-05
2.76231e-05
2.70092e-05
2.64118e-05
2.58302e-05
2.5264e-05
2.47125e-05
2.41751e-05
2.36515e-05
2.31411e-05
2.26435e-05
2.21582e-05
2.16849e-05
2.12231e-05
2.07724e-05
2.03326e-05
1.99032e-05
1.9484e-05
1.90746e-05
1.86748e-05
1.82842e-05
1.79026e-05
1.75297e-05
1.71653e-05
1.68091e-05
1.64609e-05
1.61205e-05
1.57876e-05
1.54621e-05
1.51438e-05
1.48325e-05
1.45279e-05
1.423e-05
1.39385e-05
1.36533e-05
1.33742e-05
1.31011e-05
1.28338e-05
1.25722e-05
1.23161e-05
1.20655e-05
1.18201e-05
1.15799e-05
1.13447e-05
1.11144e-05
1.0889e-05
1.06682e-05
1.04521e-05
1.02404e-05
1.00331e-05
9.83004e-06
9.63121e-06
9.43646e-06
9.24573e-06
9.0589e-06
8.87591e-06
8.69667e-06
8.52109e-06
8.34909e-06
8.18061e-06
8.01556e-06
7.85387e-06
7.69547e-06
7.54028e-06
7.38826e-06
7.23931e-06
7.09339e-06
6.95042e-06
6.81035e-06
6.67311e-06
6.53865e-06
6.4069e-06
6.27782e-06
6.15135e-06
6.02742e-06
5.906e-06
5.78703e-06
5.67046e-06
5.55623e-06
5.44431e-06
5.33464e-06
5.22719e-06
5.12189e-06
5.01872e-06
4.91762e-06
4.81855e-06
4.72148e-06
4.62636e-06
4.53315e-06
4.44182e-06
4.35233e-06
4.26463e-06
4.1787e-06
4.09449e-06
4.01198e-06
3.93113e-06
3.8519e-06
3.77426e-06
3.69819e-06
3.62364e-06
3.55059e-06
3.47901e-06
3.40887e-06
3.34014e-06
3.27279e-06
3.20679e-06
3.14212e-06
3.07875e-06
3.01665e-06
2.95581e-06
2.89618e-06
2.83776e-06
2.78051e-06
2.72441e-06
2.66944e-06
2.61558e-06
2.5628e-06
2.51108e-06
2.4604e-06
2.41075e-06
2.36209e-06
2.31441e-06
2.26769e-06
2.22191e-06
2.17706e-06
2.1331e-06
2.09003e-06
2.04783e-06
2.00648e-06
1.96596e-06
1.92626e-06
1.88736e-06
1.84924e-06
1.81189e-06
1.77529e-06
1.73943e-06
1.7043e-06
1.66987e-06
1.63613e-06
1.60307e-06
1.57068e-06
1.53895e-06
1.50785e-06
1.47738e-06
1.44752e-06
1.41827e-06
1.3896e-06
1.36152e-06
1.334e-06
1.30703e-06
1.28061e-06
1.25472e-06
1.22936e-06
1.20451e-06
1.18016e-06
1.1563e-06
1.13292e-06
1.11002e-06
1.08758e-06
1.0656e-06
1.04406e-06
1.02296e-06
1.00229e-06
9.82031e-07
9.62186e-07
9.42743e-07
9.23693e-07
9.05028e-07
8.86739e-07
8.68819e-07
8.51257e-07
8.34047e-07
8.17179e-07
8.00645e-07
7.84436e-07
7.68545e-07
7.52961e-07
7.37676e-07
7.22682e-07
7.0797e-07
6.9353e-07
6.79355e-07
6.65434e-07
6.5176e-07
6.38323e-07
6.25115e-07
6.12126e-07
5.99349e-07
5.86774e-07
5.74393e-07
5.62198e-07
5.50181e-07
5.38334e-07
5.26649e-07
5.1512e-07
5.0374e-07
4.92501e-07
4.81397e-07
4.70423e-07
4.59573e-07
4.48842e-07
4.38225e-07
4.27718e-07
4.17318e-07
4.0702e-07
3.96823e-07
3.86722e-07
3.76718e-07
3.66807e-07
3.56989e-07
3.47264e-07
3.3763e-07
3.28089e-07
3.1864e-07
3.09286e-07
3.00026e-07
2.90863e-07
2.818e-07
2.72837e-07
2.63979e-07
2.55228e-07
2.46587e-07
2.3806e-07
2.2965e-07
2.21361e-07
2.13197e-07
2.05162e-07
1.97259e-07
1.89494e-07
1.81869e-07
1.74388e-07
1.67056e-07
1.59877e-07
1.52852e-07
1.45987e-07
1.39283e-07
1.32744e-07
1.26372e-07
1.2017e-07
1.1414e-07
1.08284e-07
1.02602e-07
9.70964e-08
9.17677e-08
8.66169e-08
8.16434e-08
7.6848e-08
7.22296e-08
6.77883e-08
6.35219e-08
5.94304e-08
5.55108e-08
5.17625e-08
4.81816e-08
4.47677e-08
4.15159e-08
3.84255e-08
3.54906e-08
3.27107e-08
3.00786e-08
2.75943e-08
2.52489e-08
2.30437e-08
2.09681e-08
1.90245e-08
1.72005e-08
1.55003e-08
1.3909e-08
1.24331e-08
1.10548e-08
9.7839e-09
8.59902e-09
7.51391e-09
6.50304e-09
5.58529e-09
4.72951e-09
3.96126e-09
3.24221e-09
2.60626e-09
2.00617e-09
1.48634e-09
9.88457e-10
5.69938e-10
1.58726e-10
-1.71853e-10
-5.10664e-10
-7.6533e-10
-1.04482e-09
-1.23448e-09
-1.4664e-09
-1.601e-09
-1.79525e-09
-1.8841e-09
-2.04799e-09
-2.10084e-09
-2.23788e-09
-2.26721e-09
-2.37448e-09
-2.40019e-09
-2.46271e-09
-2.52192e-09
-2.49982e-09
-2.66927e-09
-2.4661e-09
-2.91708e-09
-2.28584e-09
-3.43057e-09
-1.58071e-09
-4.50279e-09
3.39765e-09
-2.93766e-09
-2.93766e-09
-0.160438
0.160438
0.0519966
0.0211683
0.0113796
0.00719514
0.00499512