# vtk DataFile Version 2.0
FlowField
ASCII
DATASET STRUCTURED_GRID
DIMENSIONS 400 1 200
POINTS 80000 float
0 0 0
0.08 0 0
0.16 0 0
0.24 0 0
0.32 0 0
0.4 0 0
0.48 0 0
0.56 0 0
0.64 0 0
0.72 0 0
0.8 0 0
0.88 0 0
0.96 0 0
1.04 0 0
1.12 0 0
1.2 0 0
1.28 0 0
1.36 0 0
1.44 0 0
1.52 0 0
1.6 0 0
1.68 0 0
1.76 0 0
1.84 0 0
1.92 0 0
2 0 0
2.08 0 0
2.16 0 0
2.24 0 0
2.32 0 0
2.4 0 0
2.48 0 0
2.56 0 0
2.64 0 0
2.72 0 0
2.8 0 0
2.88 0 0
2.96 0 0
3.04 0 0
3.12 0 0
3.2 0 0
3.28 0 0
3.36 0 0
3.44 0 0
3.52 0 0
3.6 0 0
3.68 0 0
3.76 0 0
3.84 0 0
3.92 0 0
4 0 0
4.08 0 0
4.16 0 0
4.24 0 0
4.32 0 0
4.4 0 0
4.48 0 0
4.56 0 0
4.64 0 0
4.72 0 0
4.8 0 0
4.88 0 0
4.96 0 0
5.04 0 0
5.12 0 0
5.2 0 0
5.28 0 0
5.36 0 0
5.44 0 0
5.52 0 0
5.6 0 0
5.68 0 0
5.76 0 0
5.84 0 0
5.92 0 0
6 0 0
6.08 0 0
6.16 0 0
6.24 0 0
6.32 0 0
6.4 0 0
6.48 0 0
6.56 0 0
6.64 0 0
6.72 0 0
6.8 0 0
6.88 0 0
6.96 0 0
7.04 0 0
7.12 0 0
7.2 0 0
7.28 0 0
7.36 0 0
7.44 0 0
7.52 0 0
7.6 0 0
7.68 0 0
7.76 0 0
7.84 0 0
7.92 0 0
8 0 0
8.08 0 0
8.16 0 0
8.24 0 0
8.32 0 0
8.4 0 0
8.48 0 0
8.56 0 0
8.64 0 0
8.72 0 0
8.8 0 0
8.88 0 0
8.96 0 0
9.04 0 0
9.12 0 0
9.2 0 0
9.28 0 0
9.36 0 0
9.44 0 0
9.52 0 0
9.6 0 0
9.68 0 0
9.76 0 0
9.84 0 0
9.92 0 0
10 0 0
10.08 0 0
10.16 0 0
10.24 0 0
10.32 0 0
10.4 0 0
10.48 0 0
10.56 0 0
10.64 0 0
10.72 0 0
10.8 0 0
10.88 0 0
10.96 0 0
11.04 0 0
11.12 0 0
11.2 0 0
11.28 0 0
11.36 0 0
11.44 0 0
11.52 0 0
11.6 0 0
11.68 0 0
11.76 0 0
11.84 0 0
11.92 0 0
12 0 0
12.08 0 0
12.16 0 0
12.24 0 0
12.32 0 0
12.4 0 0
12.48 0 0
12.56 0 0
12.64 0 0
12.72 0 0
12.8 0 0
12.88 0 0
12.96 0 0
13.04 0 0
13.12 0 0
13.2 0 0
13.28 0 0
13.36 0 0
13.44 0 0
13.52 0 0
13.6 0 0
13.68 0 0
13.76 0 0
13.84 0 0
13.92 0 0
14 0 0
14.08 0 0
14.16 0 0
14.24 0 0
14.32 0 0
14.4 0 0
14.48 0 0
14.56 0 0
14.64 0 0
14.72 0 0
14.8 0 0
14.88 0 0
14.96 0 0
15.04 0 0
15.12 0 0
15.2 0 0
15.28 0 0
15.36 0 0
15.44 0 0
15.52 0 0
15.6 0 0
15.68 0 0
15.76 0 0
15.84 0 0
15.92 0 0
16 0 0
16.08 0 0
16.16 0 0
16.24 0 0
16.32 0 0
16.4 0 0
16.48 0 0
16.56 0 0
16.64 0 0
16.72 0 0
16.8 0 0
16.88 0 0
16.96 0 0
17.04 0 0
17.12 0 0
17.2 0 0
17.28 0 0
17.36 0 0
17.44 0 0
17.52 0 0
17.6 0 0
17.68 0 0
17.76 0 0
17.84 0 0
17.92 0 0
18 0 0
18.08 0 0
18.16 0 0
18.24 0 0
18.32 0 0
18.4 0 0
18.48 0 0
18.56 0 0
18.64 0 0
18.72 0 0
18.8 0 0
18.88 0 0
18.96 0 0
19.04 0 0
19.12 0 0
19.2 0 0
19.28 0 0
19.36 0 0
19.44 0 0
19.52 0 0
19.6 0 0
19.68 0 0
19.76 0 0
19.84 0 0
19.92 0 0
20 0 0
20.08 0 0
20.16 0 0
20.24 0 0
20.32 0 0
20.4 0 0
20.48 0 0
20.56 0 0
20.64 0 0
20.72 0 0
20.8 0 0
20.88 0 0
20.96 0 0
21.04 0 0
21.12 0 0
21.2 0 0
21.28 0 0
21.36 0 0
21.44 0 0
21.52 0 0
21.6 0 0
21.68 0 0
21.76 0 0
21.84 0 0
21.92 0 0
22 0 0
22.08 0 0
22.16 0 0
22.24 0 0
22.32 0 0
22.4 0 0
22.48 0 0
22.56 0 0
22.64 0 0
22.72 0 0
22.8 0 0
22.88 0 0
22.96 0 0
23.04 0 0
23.12 0 0
23.2 0 0
23.28 0 0
23.36 0 0
23.44 0 0
23.52 0 0
23.6 0 0
23.68 0 0
23.76 0 0
23.84 0 0
23.92 0 0
24 0 0
24.08 0 0
24.16 0 0
24.24 0 0
24.32 0 0
24.4 0 0
24.48 0 0
24.56 0 0
24.64 0 0
24.72 0 0
24.8 0 0
24.88 0 0
24.96 0 0
25.04 0 0
25.12 0 0
25.2 0 0
25.28 0 0
25.36 0 0
25.44 0 0
25.52 0 0
25.6 0 0
25.68 0 0
25.76 0 0
25.84 0 0
25.92 0 0
26 0 0
26.08 0 0
26.16 0 0
26.24 0 0
26.32 0 0
26.4 0 0
26.48 0 0
26.56 0 0
26.64 0 0
26.72 0 0
26.8 0 0
26.88 0 0
26.96 0 0
27.04 0 0
27.12 0 0
27.2 0 0
27.28 0 0
27.36 0 0
27.44 0 0
27.52 0 0
27.6 0 0
27.68 0 0
27.76 0 0
27.84 0 0
27.92 0 0
28 0 0
28.08 0 0
28.16 0 0
28.24 0 0
28.32 0 0
28.4 0 0
28.48 0 0
28.56 0 0
28.64 0 0
28.72 0 0
28.8 0 0
28.88 0 0
28.96 0 0
29.04 0 0
29.12 0 0
29.2 0 0
29.28 0 0
29.36 0 0
29.44 0 0
29.52 0 0
29.6 0 0
29.68 0 0
29.76 0 0
29.84 0 0
29.92 0 0
30 0 0
30.08 0 0
30.16 0 0
30.24 0 0
30.32 0 0
30.4 0 0
30.48 0 0
30.56 0 0
30.64 0 0
30.72 0 0
30.8 0 0
30.88 0 0
30.96 0 0
31.04 0 0
31.12 0 0
31.2 0 0
31.28 0 0
31.36 0 0
31.44 0 0
31.52 0 0
31.6 0 0
31.68 0 0
31.76 0 0
31.84 0 0
31.92 0 0
0 0.005 0
0.08 0.005 0
0.16 0.005 0
0.24 0.005 0
0.32 0.005 0
0.4 0.005 0
0.48 0.005 0
0.56 0.005 0
0.64 0.005 0
0.72 0.005 0
0.8 0.005 0
0.88 0.005 0
0.96 0.005 0
1.04 0.005 0
1.12 0.005 0
1.2 0.005 0
1.28 0.005 0
1.36 0.005 0
1.44 0.005 0
1.52 0.005 0
1.6 0.005 0
1.68 0.005 0
1.76 0.005 0
1.84 0.005 0
1.92 0.005 0
2 0.005 0
2.08 0.005 0
2.16 0.005 0
2.24 0.005 0
2.32 0.005 0
2.4 0.005 0
2.48 0.005 0
2.56 0.005 0
2.64 0.005 0
2.72 0.005 0
2.8 0.005 0
2.88 0.005 0
2.96 0.005 0
3.04 0.005 0
3.12 0.005 0
3.2 0.005 0
3.28 0.005 0
3.36 0.005 0
3.44 0.005 0
3.52 0.005 0
3.6 0.005 0
3.68 0.005 0
3.76 0.005 0
3.84 0.005 0
3.92 0.005 0
4 0.005 0
4.08 0.005 0
4.16 0.005 0
4.24 0.005 0
4.32 0.005 0
4.4 0.005 0
4.48 0.005 0
4.56 0.005 0
4.64 0.005 0
4.72 0.005 0
4.8 0.005 0
4.88 0.005 0
4.96 0.005 0
5.04 0.005 0
5.12 0.005 0
5.2 0.005 0
5.28 0.005 0
5.36 0.005 0
5.44 0.005 0
5.52 0.005 0
5.6 0.005 0
5.68 0.005 0
5.76 0.005 0
5.84 0.005 0
5.92 0.005 0
6 0.005 0
6.08 0.005 0
6.16 0.005 0
6.24 0.005 0
6.32 0.005 0
6.4 0.005 0
6.48 0.005 0
6.56 0.005 0
6.64 0.005 0
6.72 0.005 0
6.8 0.005 0
6.88 0.005 0
6.96 0.005 0
7.04 0.005 0
7.12 0.005 0
7.2 0.005 0
7.28 0.005 0
7.36 0.005 0
7.44 0.005 0
7.52 0.005 0
7.6 0.005 0
7.68 0.005 0
7.76 0.005 0
7.84 0.005 0
7.92 0.005 0
8 0.005 0
8.08 0.005 0
8.16 0.005 0
8.24 0.005 0
8.32 0.005 0
8.4 0.005 0
8.48 0.005 0
8.56 0.005 0
8.64 0.005 0
8.72 0.005 0
8.8 0.005 0
8.88 0.005 0
8.96 0.005 0
9.04 0.005 0
9.12 0.005 0
9.2 0.005 0
9.28 0.005 0
9.36 0.005 0
9.44 0.005 0
9.52 0.005 0
9.6 0.005 0
9.68 0.005 0
9.76 0.005 0
9.84 0.005 0
9.92 0.005 0
10 0.005 0
10.08 0.005 0
10.16 0.005 0
10.24 0.005 0
10.32 0.005 0
10.4 0.005 0
10.48 0.005 0
10.56 0.005 0
10.64 0.005 0
10.72 0.005 0
10.8 0.005 0
10.88 0.005 0
10.96 0.005 0
11.04 0.005 0
11.12 0.005 0
11.2 0.005 0
11.28 0.005 0
11.36 0.005 0
11.44 0.005 0
11.52 0.005 0
11.6 0.005 0
11.68 0.005 0
11.76 0.005 0
11.84 0.005 0
11.92 0.005 0
12 0.005 0
12.08 0.005 0
12.16 0.005 0
12.24 0.005 0
12.32 0.005 0
12.4 0.005 0
12.48 0.005 0
12.56 0.005 0
12.64 0.005 0
12.72 0.005 0
12.8 0.005 0
12.88 0.005 0
12.96 0.005 0
13.04 0.005 0
13.12 0.005 0
13.2 0.005 0
13.28 0.005 0
13.36 0.005 0
13.44 0.005 0
13.52 0.005 0
13.6 0.005 0
13.68 0.005 0
13.76 0.005 0
13.84 0.005 0
13.92 0.005 0
14 0.005 0
14.08 0.005 0
14.16 0.005 0
14.24 0.005 0
14.32 0.005 0
14.4 0.005 0
14.48 0.005 0
14.56 0.005 0
14.64 0.005 0
14.72 0.005 0
14.8 0.005 0
14.88 0.005 0
14.96 0.005 0
15.04 0.005 0
15.12 0.005 0
15.2 0.005 0
15.28 0.005 0
15.36 0.005 0
15.44 0.005 0
15.52 0.005 0
15.6 0.005 0
15.68 0.005 0
15.76 0.005 0
15.84 0.005 0
15.92 0.005 0
16 0.005 0
16.08 0.005 0
16.16 0.005 0
16.24 0.005 0
16.32 0.005 0
16.4 0.005 0
16.48 0.005 0
16.56 0.005 0
16.64 0.005 0
16.72 0.005 0
16.8 0.005 0
16.88 0.005 0
16.96 0.005 0
17.04 0.005 0
17.12 0.005 0
17.2 0.005 0
17.28 0.005 0
17.36 0.005 0
17.44 0.005 0
17.52 0.005 0
17.6 0.005 0
17.68 0.005 0
17.76 0.005 0
17.84 0.005 0
17.92 0.005 0
18 0.005 0
18.08 0.005 0
18.16 0.005 0
18.24 0.005 0
18.32 0.005 0
18.4 0.005 0
18.48 0.005 0
18.56 0.005 0
18.64 0.005 0
18.72 0.005 0
18.8 0.005 0
18.88 0.005 0
18.96 0.005 0
19.04 0.005 0
19.12 0.005 0
19.2 0.005 0
19.28 0.005 0
19.36 0.005 0
19.44 0.005 0
19.52 0.005 0
19.6 0.005 0
19.68 0.005 0
19.76 0.005 0
19.84 0.005 0
19.92 0.005 0
20 0.005 0
20.08 0.005 0
20.16 0.005 0
20.24 0.005 0
20.32 0.005 0
20.4 0.005 0
20.48 0.005 0
20.56 0.005 0
20.64 0.005 0
20.72 0.005 0
20.8 0.005 0
20.88 0.005 0
20.96 0.005 0
21.04 0.005 0
21.12 0.005 0
21.2 0.005 0
21.28 0.005 0
21.36 0.005 0
21.44 0.005 0
21.52 0.005 0
21.6 0.005 0
21.68 0.005 0
21.76 0.005 0
21.84 0.005 0
21.92 0.005 0
22 0.005 0
22.08 0.005 0
22.16 0.005 0
22.24 0.005 0
22.32 0.005 0
22.4 0.005 0
22.48 0.005 0
22.56 0.005 0
22.64 0.005 0
22.72 0.005 0
22.8 0.005 0
22.88 0.005 0
22.96 0.005 0
23.04 0.005 0
23.12 0.005 0
23.2 0.005 0
23.28 0.005 0
23.36 0.005 0
23.44 0.005 0
23.52 0.005 0
23.6 0.005 0
23.68 0.005 0
23.76 0.005 0
23.84 0.005 0
23.92 0.005 0
24 0.005 0
24.08 0.005 0
24.16 0.005 0
24.24 0.005 0
24.32 0.005 0
24.4 0.005 0
24.48 0.005 0
24.56 0.005 0
24.64 0.005 0
24.72 0.005 0
24.8 0.005 0
24.88 0.005 0
24.96 0.005 0
25.04 0.005 0
25.12 0.005 0
25.2 0.005 0
25.28 0.005 0
25.36 0.005 0
25.44 0.005 0
25.52 0.005 0
25.6 0.005 0
25.68 0.005 0
25.76 0.005 0
25.84 0.005 0
25.92 0.005 0
26 0.005 0
26.08 0.005 0
26.16 0.005 0
26.24 0.005 0
26.32 0.005 0
26.4 0.005 0
26.48 0.005 0
26.56 0.005 0
26.64 0.005 0
26.72 0.005 0
26.8 0.005 0
26.88 0.005 0
26.96 0.005 0
27.04 0.005 0
27.12 0.005 0
27.2 0.005 0
27.28 0.005 0
27.36 0.005 0
27.44 0.005 0
27.52 0.005 0
27.6 0.005 0
27.68 0.005 0
27.76 0.005 0
27.84 0.005 0
27.92 0.005 0
28 0.005 0
28.08 0.005 0
28.16 0.005 0
28.24 0.005 0
28.32 0.005 0
28.4 0.005 0
28.48 0.005 0
28.56 0.005 0
28.64 0.005 0
28.72 0.005 0
28.8 0.005 0
28.88 0.005 0
28.96 0.005 0
29.04 0.005 0
29.12 0.005 0
29.2 0.005 0
29.28 0.005 0
29.36 0.005 0
29.44 0.005 0
29.52 0.005 0
29.6 0.005 0
29.68 0.005 0
29.76 0.005 0
29.84 0.005 0
29.92 0.005 0
30 0.005 0
30.08 0.005 0
30.16 0.005 0
30.24 0.005 0
30.32 0.005 0
30.4 0.005 0
30.48 0.005 0
30.56 0.005 0
30.64 0.005 0
30.72 0.005 0
30.8 0.005 0
30.88 0.005 0
30.96 0.005 0
31.04 0.005 0
31.12 0.005 0
31.2 0.005 0
31.28 0.005 0
31.36 0.005 0
31.44 0.005 0
31.52 0.005 0
31.6 0.005 0
31.68 0.005 0
31.76 0.005 0
31.84 0.005 0
31.92 0.005 0
0 0.01 0
0.08 0.01 0
0.16 0.01 0
0.24 0.01 0
0.32 0.01 0
0.4 0.01 0
0.48 0.01 0
0.56 0.01 0
0.64 0.01 0
0.72 0.01 0
0.8 0.01 0
0.88 0.01 0
0.96 0.01 0
1.04 0.01 0
1.12 0.01 0
1.2 0.01 0
1.28 0.01 0
1.36 0.01 0
1.44 0.01 0
1.52 0.01 0
1.6 0.01 0
1.68 0.01 0
1.76 0.01 0
1.84 0.01 0
1.92 0.01 0
2 0.01 0
2.08 0.01 0
2.16 0.01 0
2.24 0.01 0
2.32 0.01 0
2.4 0.01 0
2.48 0.01 0
2.56 0.01 0
2.64 0.01 0
2.72 0.01 0
2.8 0.01 0
2.88 0.01 0
2.96 0.01 0
3.04 0.01 0
3.12 0.01 0
3.2 0.01 0
3.28 0.01 0
3.36 0.01 0
3.44 0.01 0
3.52 0.01 0
3.6 0.01 0
3.68 0.01 0
3.76 0.01 0
3.84 0.01 0
3.92 0.01 0
4 0.01 0
4.08 0.01 0
4.16 0.01 0
4.24 0.01 0
4.32 0.01 0
4.4 0.01 0
4.48 0.01 0
4.56 0.01 0
4.64 0.01 0
4.72 0.01 0
4.8 0.01 0
4.88 0.01 0
4.96 0.01 0
5.04 0.01 0
5.12 0.01 0
[...]
POINT_DATA 80000

SCALARS v float 1
LOOKUP_TABLE default
0
0
0
0
0
0
0
0
0
0
0
0
0
0
0
0
0
0
0
0
0
0
0
0
0
0
0
0
0
0
0
0
0
0
0
0
0
0
0
0
0
0
0
0
0
0
0
0
0
0
0
0
0
0
0
0
0
0
0
0
0
0
0
0
0
0
0
0
0
0
0
0
0
0
0
0
0
0
0
0
0
0
0
0
0
0
0
0
0
0
0
0
0
0
0
0
0
0
0
0
0
0
0
0
0
0
0
0
0
0
0
0
0
0
0
0
0
0
0
0
0
0
0
0
0
0
0
0
0
0
0
0
0
0
0
0
0
0
0
0
0
0
0
0
0
0
0
0
0
0
0
0
0
0
0
0
0
0
0
0
0
0
0
0
0
0
0
0
0
0
0
0
0
0
0
0
0
0
0
0
0
0
0
0
0
0
0
0
0
0
0
0
0
0
0
0
0
0
0
0
0
0
0
0
0
0
0
0
0
0
0
0
0
0
0
0
0
0
0
0
0
0
0
0
0
0
0
0
0
0
0
0
0
0
0
0
0
0
0
0
0
0
0
0
0
0
0
0
0
0
0
0
0
0
0
0
0
0
0
0
0
0
0
0
0
0
0
0
0
0
0
0
0
0
0
0
0
0
0
0
0
0
0
0
0
0
0
0
0
0
0
0
0
0
0
0
0
0
0
0
0
0
0
0
0
0
0
0
0
0
0
0
0
0
0
0
0
0
0
0
0
0
0
0
0
0
0
0
0
0
0
0
0
0
0
0
0
0
0
0
0
0
0
0
0
0
0
0
0
0
0
0
0
0
0
0
0
0
0
0
0
0
0
0
0
0
0
0
0
0
0
0
0
0
0
0
0
0
0
0
0
0
0
0
0
0
0
0
0
0
0
0
0
0
0
0
0
0
0
0
-0.0542711
0.0542711
0.00396209
0.00099833
0.00049226
0.000302696
0.00020732
0.000151692
0.00011625
9.22938e-05
7.53807e-05
6.30201e-05
5.37196e-05
4.65411e-05
4.08733e-05
3.63062e-05
3.25587e-05
2.94337e-05
2.67906e-05
2.45275e-05
2.25686e-05
2.08572e-05
1.935e-05
1.80131e-05
1.68201e-05
1.57496e-05
1.47845e-05
1.39105e-05
1.31161e-05
1.23915e-05
1.17283e-05
1.11195e-05
1.05592e-05
1.00421e-05
9.56378e-06
9.1203e-06
8.70824e-06
8.32462e-06
7.96678e-06
7.63239e-06
7.31938e-06
7.02589e-06
6.75029e-06
6.49109e-06
6.24696e-06
6.01673e-06
5.79931e-06
5.59373e-06
5.39911e-06
5.21466e-06
5.03965e-06
4.87341e-06
4.71534e-06
4.56489e-06
4.42155e-06
4.28486e-06
4.15439e-06
4.02975e-06
3.91057e-06
3.79653e-06
3.68731e-06
3.58262e-06
3.48221e-06
3.38583e-06
3.29325e-06
3.20425e-06
3.11865e-06
3.03626e-06
2.95691e-06
2.88043e-06
2.80668e-06
2.73553e-06
2.66684e-06
2.60048e-06
2.53635e-06
2.47434e-06
2.41435e-06
2.35628e-06
2.30005e-06
2.24557e-06
2.19276e-06
2.14155e-06
2.09188e-06
2.04367e-06
1.99686e-06
1.9514e-06
1.90724e-06
1.86431e-06
1.82257e-06
1.78197e-06
1.74247e-06
1.70403e-06
1.66661e-06
1.63017e-06
1.59467e-06
1.56009e-06
1.52638e-06
1.49353e-06
1.46149e-06
1.43025e-06
1.39977e-06
1.37003e-06
1.34101e-06
1.31268e-06
1.28502e-06
1.25802e-06
1.23165e-06
1.20589e-06
1.18072e-06
1.15613e-06
1.1321e-06
1.10862e-06
1.08566e-06
1.06322e-06
1.04127e-06
1.01982e-06
9.98834e-07
9.78311e-07
9.58235e-07
9.38597e-07
9.19384e-07
9.00585e-07
8.8219e-07
8.64189e-07
8.46572e-07
8.2933e-07
8.12453e-07
7.95933e-07
7.79761e-07
7.63929e-07
7.48429e-07
7.33252e-07
7.18392e-07
7.03842e-07
6.89594e-07
6.7564e-07
6.61976e-07
6.48593e-07
6.35486e-07
6.22649e-07
6.10076e-07
5.9776e-07
5.85697e-07
5.7388e-07
5.62305e-07
5.50966e-07
5.39858e-07
5.28976e-07
5.18316e-07
5.07872e-07
4.9764e-07
4.87615e-07
4.77794e-07
4.68172e-07
4.58744e-07
4.49507e-07
4.40457e-07
4.31589e-07
4.229e-07
4.14387e-07
4.06046e-07
3.97872e-07
3.89864e-07
3.82017e-07
3.74327e-07
3.66793e-07
3.5941e-07
3.52175e-07
3.45087e-07
3.3814e-07
3.31334e-07
3.24664e-07
3.18128e-07
3.11723e-07
3.05448e-07
2.99298e-07
2.93272e-07
2.87366e-07
2.8158e-07
2.75909e-07
2.70353e-07
2.64908e-07
2.59572e-07
2.54344e-07
2.4922e-07
2.44199e-07
2.39279e-07
2.34458e-07
2.29734e-07
2.25104e-07
2.20568e-07
2.16122e-07
2.11766e-07
2.07498e-07
2.03315e-07
1.99216e-07
1.95199e-07
1.91263e-07
1.87406e-07
1.83627e-07
1.79924e-07
1.76295e-07
1.72739e-07
1.69254e-07
1.65839e-07
1.62494e-07
1.59215e-07
1.56002e-07
1.52854e-07
1.4977e-07
1.46747e-07
1.43785e-07
1.40883e-07
1.38039e-07
1.35252e-07
1.32522e-07
1.29846e-07
1.27224e-07
1.24655e-07
1.22138e-07
1.19672e-07
1.17255e-07
1.14887e-07
1.12566e-07
1.10292e-07
1.08064e-07
1.05881e-07
1.03742e-07
1.01646e-07
9.95921e-08
9.75796e-08
9.56077e-08
9.36755e-08
9.17823e-08
8.99272e-08
8.81095e-08
8.63284e-08
8.45833e-08
8.28734e-08
8.1198e-08
7.95563e-08
7.79479e-08
7.63719e-08
7.48278e-08
7.3315e-08
7.18327e-08
7.03805e-08
6.89577e-08
6.75637e-08
6.6198e-08
6.486e-08
6.35492e-08
6.22649e-08
6.10067e-08
5.97739e-08
5.85662e-08
5.73829e-08
5.62234e-08
5.50873e-08
5.39741e-08
5.28831e-08
5.18138e-08
5.07657e-08
4.97383e-08
4.87309e-08
4.77431e-08
4.67743e-08
4.58238e-08
4.48913e-08
4.39759e-08
4.30773e-08
4.21949e-08
4.1328e-08
4.04761e-08
3.96387e-08
3.88151e-08
3.80049e-08
3.72075e-08
3.64223e-08
3.56488e-08
3.48866e-08
3.4135e-08
3.33937e-08
3.26623e-08
3.19401e-08
3.12268e-08
3.05221e-08
2.98256e-08
2.91368e-08
2.84556e-08
2.77816e-08
2.71145e-08
2.64541e-08
2.58002e-08
2.51526e-08
2.45112e-08
2.38759e-08
2.32465e-08
2.2623e-08
2.20055e-08
2.13937e-08
2.07878e-08
2.01879e-08
1.9594e-08
1.90062e-08
1.84245e-08
1.78493e-08
1.72805e-08
1.67185e-08
1.61633e-08
1.56152e-08
1.50745e-08
1.45413e-08
1.40159e-08
1.34985e-08
1.29895e-08
1.2489e-08
1.19973e-08
1.15146e-08
1.10413e-08
1.05775e-08
1.01235e-08
9.67941e-09
9.24553e-09
8.82203e-09
8.40908e-09
8.00685e-09
7.61547e-09
7.23508e-09
6.86576e-09
6.50761e-09
6.16068e-09
5.82504e-09
5.50068e-09
5.18765e-09
4.8859e-09
4.59545e-09
4.31618e-09
4.04808e-09
3.79097e-09
3.54484e-09
3.30944e-09
3.08477e-09
2.8705e-09
2.66662e-09
2.47274e-09
2.28888e-09
2.11452e-09
1.94973e-09
1.7939e-09
1.64717e-09
1.50881e-09
1.37903e-09
1.25699e-09
1.14303e-09
1.0361e-09
9.36745e-10
8.43701e-10
7.5772e-10
6.77282e-10
6.03452e-10
5.34389e-10
4.71535e-10
4.12612e-10
3.59568e-10
3.09621e-10
2.65297e-10
2.23159e-10
1.86505e-10
1.51085e-10
1.21138e-10
9.14082e-11
6.73299e-11
4.23586e-11
2.33432e-11
2.26418e-12
-1.23872e-11
-3.03399e-11
-4.12818e-11
-5.67627e-11
-6.46191e-11
-7.81033e-11
-8.35537e-11
-9.52222e-11
-9.91448e-11
-1.08719e-10
-1.12577e-10
-1.18842e-10
-1.2545e-10
-1.25293e-10
-1.40437e-10
-1.26414e-10
-1.63173e-10
-1.16124e-10
-2.06342e-10
-6.4948e-11
-2.95911e-10
3.3122e-10
-1.74092e-10
-1.74092e-10
-0.0952159
0.0952159
0.0129756
0.00385462
0.00193431
0.0011962
0.000821741
0.000602314
0.000462067
0.000367041
0.000299831
0.000250645
0.000213602
0.000184994
0.0001624
0.000144195
0.00012926
0.00011681
0.000106285
9.72762e-05
8.9483e-05
8.26777e-05
7.66869e-05
7.13754e-05
6.66372e-05
6.23871e-05
5.85565e-05
5.50887e-05
5.19373e-05
4.90631e-05
4.64331e-05
4.40194e-05
4.17981e-05
3.97484e-05
3.78526e-05
3.60951e-05
3.44623e-05
3.29422e-05
3.15245e-05
3.01998e-05
2.89598e-05
2.77973e-05
2.67056e-05
2.5679e-05
2.47121e-05
2.38003e-05
2.29393e-05
2.21253e-05
2.13546e-05
2.06243e-05
1.99313e-05
1.92731e-05
1.86473e-05
1.80517e-05
1.74842e-05
1.69431e-05
1.64266e-05
1.59332e-05
1.54615e-05
1.50101e-05
1.45778e-05
1.41634e-05
1.3766e-05
1.33846e-05
1.30182e-05
1.2666e-05
1.23272e-05
1.20012e-05
1.16872e-05
1.13846e-05
1.10928e-05
1.08112e-05
1.05394e-05
1.02769e-05
1.00232e-05
9.77784e-06
9.5405e-06
9.31078e-06
9.08833e-06
8.87282e-06
8.66393e-06
8.46138e-06
8.2649e-06
8.07422e-06
7.88909e-06
7.7093e-06
7.53462e-06
7.36484e-06
7.19977e-06
7.03923e-06
6.88304e-06
6.73104e-06
6.58307e-06
6.43899e-06
6.29864e-06
6.1619e-06
6.02864e-06
5.89874e-06
5.77209e-06
5.64857e-06
5.52808e-06
5.41052e-06
5.2958e-06
5.18383e-06
5.07452e-06
4.96779e-06
4.86355e-06
4.76174e-06
4.66228e-06
4.5651e-06
4.47014e-06
4.37733e-06
4.28661e-06
4.19793e-06
4.11122e-06
4.02644e-06
3.94353e-06
3.86244e-06
3.78312e-06
3.70553e-06
3.62962e-06
3.55536e-06
3.48269e-06
3.41157e-06
3.34198e-06
3.27387e-06
3.2072e-06
3.14195e-06
3.07807e-06
3.01553e-06
2.95431e-06
2.89437e-06
2.83568e-06
2.77821e-06
2.72193e-06
2.66683e-06
2.61286e-06
2.56001e-06
2.50825e-06
2.45756e-06
2.40791e-06
2.35928e-06
2.31164e-06
2.26498e-06
2.21928e-06
2.1745e-06
2.13064e-06
2.08768e-06
2.04559e-06
2.00435e-06
1.96395e-06
1.92438e-06
1.8856e-06
1.84761e-06
1.81039e-06
1.77393e-06
1.7382e-06
1.70319e-06
1.66889e-06
1.63529e-06
1.60236e-06
1.57009e-06
1.53848e-06
1.5075e-06
1.47715e-06
1.44741e-06
1.41827e-06
1.38971e-06
1.36173e-06
1.33431e-06
1.30745e-06
1.28112e-06
1.25533e-06
1.23005e-06
1.20528e-06
1.18101e-06
1.15722e-06
1.13392e-06
1.11108e-06
1.0887e-06
1.06677e-06
1.04528e-06
1.02422e-06
1.00359e-06
9.83371e-07
9.63557e-07
9.44141e-07
9.25115e-07
9.06471e-07
8.88202e-07
8.703e-07
8.52757e-07
8.35567e-07
8.18722e-07
8.02216e-07
7.86041e-07
7.70192e-07
7.5466e-07
7.39441e-07
7.24528e-07
7.09915e-07
6.95595e-07
6.81563e-07
6.67814e-07
6.54341e-07
6.41138e-07
6.28202e-07
6.15526e-07
6.03104e-07
5.90933e-07
5.79006e-07
5.6732e-07
5.55868e-07
5.44648e-07
5.33653e-07
5.22879e-07
5.12322e-07
5.01978e-07
4.91842e-07
4.81911e-07
4.72179e-07
4.62643e-07
4.53299e-07
4.44144e-07
4.35173e-07
4.26383e-07
4.17769e-07
4.0933e-07
4.0106e-07
3.92957e-07
3.85017e-07
3.77237e-07
3.69614e-07
3.62145e-07
3.54826e-07
3.47655e-07
3.40628e-07
3.33743e-07
3.26997e-07
3.20387e-07
3.13911e-07
3.07565e-07
3.01348e-07
2.95256e-07
2.89288e-07
2.8344e-07
2.77711e-07
2.72098e-07
2.66598e-07
2.61211e-07
2.55932e-07
2.5076e-07
2.45694e-07
2.40729e-07
2.35866e-07
2.31101e-07
2.26432e-07
2.21857e-07
2.17374e-07
2.1298e-07
2.08675e-07
2.04455e-07
2.00318e-07
1.96262e-07
1.92286e-07
1.88385e-07
1.8456e-07
1.80806e-07
1.77123e-07
1.73507e-07
1.69957e-07
1.66469e-07
1.63043e-07
1.59675e-07
1.56364e-07
1.53107e-07
1.49902e-07
1.46747e-07
1.43639e-07
1.40578e-07
1.3756e-07
1.34583e-07
1.31647e-07
1.28748e-07
1.25886e-07
1.23059e-07
1.20264e-07
1.17502e-07
1.1477e-07
1.12067e-07
1.09393e-07
1.06745e-07
1.04124e-07
1.01528e-07
9.89565e-08
9.64096e-08
9.38866e-08
9.13871e-08
8.8911e-08
8.64581e-08
8.40284e-08
8.16222e-08
7.92396e-08
7.6881e-08
7.45468e-08
7.22375e-08
6.99537e-08
6.76961e-08
6.54654e-08
6.32625e-08
6.10882e-08
5.89434e-08
5.6829e-08
5.47461e-08
5.26957e-08
5.06787e-08
4.86963e-08
4.67493e-08
4.48389e-08
4.29659e-08
4.11313e-08
3.93361e-08
3.7581e-08
3.58669e-08
3.41945e-08
3.25645e-08
3.09776e-08
2.94341e-08
2.79348e-08
2.64798e-08
2.50696e-08
2.37043e-08
2.23842e-08
2.11092e-08
1.98796e-08
1.86949e-08
1.75554e-08
1.64604e-08
1.541e-08
1.44033e-08
1.34405e-08
1.25203e-08
1.16427e-08
1.08065e-08
1.00116e-08
9.25632e-09
8.54076e-09
7.86292e-09
7.22294e-09
6.61848e-09
6.04993e-09
5.51452e-09
5.013e-09
4.54205e-09
4.10291e-09
3.69161e-09
3.31002e-09
2.95335e-09
2.62436e-09
2.3173e-09
2.03605e-09
1.77366e-09
1.53543e-09
1.31287e-09
1.11312e-09
9.25669e-10
7.59984e-10
6.03101e-10
4.67343e-10
3.36693e-10
2.27091e-10
1.18687e-10
3.18278e-11
-5.7998e-11
-1.25205e-10
-1.99845e-10
-2.50197e-10
-3.1267e-10
-3.48719e-10
-4.01583e-10
-4.25741e-10
-4.7084e-10
-4.85679e-10
-5.23802e-10
-5.32711e-10
-5.6289e-10
-5.71347e-10
-5.89205e-10
-6.07552e-10
-6.01693e-10
-6.51498e-10
-5.94459e-10
-7.23994e-10
-5.4549e-10
-8.71836e-10
-3.46352e-10
-1.18482e-09
1.10727e-09
-7.33578e-10
-7.33578e-10
-0.125293
0.125293
0.0249359
0.00835802
0.004278
0.00266152
0.00183374
0.00134635
0.00103388
0.000821704
0.000671387
0.00056125
0.000478232
0.000414085
0.00036341
0.000322576
0.000289079
0.000261164
0.000237571
0.000217385
0.000199929
0.000184691
0.000171281
0.000159395
0.000148795
0.00013929
0.000130724
0.000122972
0.000115928
0.000109505
0.000103628
9.8235e-05
9.32725e-05
8.86939e-05
8.44594e-05
8.0534e-05
7.68875e-05
7.3493e-05
7.03272e-05
6.73692e-05
6.46006e-05
6.20051e-05
5.95679e-05
5.7276e-05
5.51176e-05
5.30822e-05
5.11602e-05
4.93431e-05
4.7623e-05
4.59928e-05
4.44462e-05
4.29772e-05
4.15805e-05
4.02511e-05
3.89848e-05
3.77772e-05
3.66246e-05
3.55236e-05
3.44709e-05
3.34636e-05
3.2499e-05
3.15745e-05
3.06878e-05
2.98367e-05
2.90192e-05
2.82334e-05
2.74776e-05
2.67502e-05
2.60497e-05
2.53746e-05
2.47236e-05
2.40956e-05
2.34892e-05
2.29036e-05
2.23377e-05
2.17904e-05
2.1261e-05
2.07487e-05
2.02525e-05
1.97718e-05
1.93059e-05
1.88542e-05
1.8416e-05
1.79908e-05
1.75779e-05
1.7177e-05
1.67874e-05
1.64088e-05
1.60408e-05
1.56828e-05
1.53345e-05
1.49956e-05
1.46657e-05
1.43444e-05
1.40315e-05
1.37266e-05
1.34296e-05
1.314e-05
1.28576e-05
1.25823e-05
1.23137e-05
1.20516e-05
1.17959e-05
1.15463e-05
1.13026e-05
1.10647e-05
1.08324e-05
1.06055e-05
1.03838e-05
1.01672e-05
9.9556e-06
9.74876e-06
9.54659e-06
9.34896e-06
9.15574e-06
8.96681e-06
8.78205e-06
8.60136e-06
8.42462e-06
8.25173e-06
8.0826e-06
7.91712e-06
7.7552e-06
7.59676e-06
7.44171e-06
7.28996e-06
7.14144e-06
6.99606e-06
6.85374e-06
6.71443e-06
6.57804e-06
6.44451e-06
6.31377e-06
6.18576e-06
6.0604e-06
5.93766e-06
5.81745e-06
5.69973e-06
5.58444e-06
5.47153e-06
5.36094e-06
5.25262e-06
5.14652e-06
5.0426e-06
4.9408e-06
4.84109e-06
4.74341e-06
4.64772e-06
4.55398e-06
4.46215e-06
4.37218e-06
4.28405e-06
4.1977e-06
4.1131e-06
4.03021e-06
3.94901e-06
3.86945e-06
3.7915e-06
3.71512e-06
3.64029e-06
3.56696e-06
3.49512e-06
3.42473e-06
3.35576e-06
3.28817e-06
3.22195e-06
3.15707e-06
3.09349e-06
3.03119e-06
2.97014e-06
2.91033e-06
2.85171e-06
2.79428e-06
2.738e-06
2.68286e-06
2.62882e-06
2.57587e-06
2.52398e-06
2.47313e-06
2.42331e-06
2.37449e-06
2.32665e-06
2.27977e-06
2.23383e-06
2.18882e-06
2.14471e-06
2.10149e-06
2.05913e-06
2.01763e-06
1.97696e-06
1.93711e-06
1.89806e-06
1.85979e-06
1.82229e-06
1.78555e-06
1.74954e-06
1.71426e-06
1.67969e-06
1.64581e-06
1.61261e-06
1.58008e-06
1.54821e-06
1.51697e-06
1.48637e-06
1.45638e-06
1.42699e-06
1.39819e-06
1.36998e-06
1.34233e-06
1.31524e-06
1.28869e-06
1.26268e-06
1.23719e-06
1.21221e-06
1.18774e-06
1.16376e-06
1.14026e-06
1.11724e-06
1.09468e-06
1.07257e-06
1.05091e-06
1.02969e-06
1.00889e-06
9.8851e-07
9.68543e-07
9.48978e-07
9.29807e-07
9.11022e-07
8.92616e-07
8.74581e-07
8.56909e-07
8.39594e-07
8.22627e-07
8.06003e-07
7.89713e-07
7.73752e-07
7.58113e-07
7.4279e-07
7.27775e-07
7.13064e-07
6.9865e-07
6.84527e-07
6.70689e-07
6.57131e-07
6.43848e-07
6.30833e-07
6.18082e-07
6.0559e-07
5.9335e-07
5.81358e-07
5.6961e-07
5.581e-07
5.46822e-07
5.35774e-07
5.24949e-07
5.14342e-07
5.0395e-07
4.93766e-07
4.83787e-07
4.74008e-07
4.64423e-07
4.55028e-07
4.45818e-07
4.36788e-07
4.27933e-07
4.19248e-07
4.10728e-07
4.02369e-07
3.94164e-07
3.86109e-07
3.782e-07
3.7043e-07
3.62795e-07
3.5529e-07
3.47909e-07
3.40649e-07
3.33503e-07
3.26468e-07
3.19538e-07
3.12709e-07
3.05976e-07
2.99336e-07
2.92784e-07
2.86316e-07
2.79928e-07
2.73617e-07
2.6738e-07
2.61212e-07
2.55112e-07
2.49077e-07
2.43104e-07
2.37191e-07
2.31337e-07
2.25539e-07
2.19796e-07
2.14108e-07
2.08473e-07
2.0289e-07
1.9736e-07
1.91881e-07
1.86456e-07
1.81082e-07
1.75762e-07
1.70496e-07
1.65285e-07
1.60131e-07
1.55033e-07
1.49995e-07
1.45018e-07
1.40104e-07
1.35255e-07
1.30472e-07
1.25758e-07
1.21115e-07
1.16545e-07
1.12052e-07
1.07636e-07
1.033e-07
9.90465e-08
9.48777e-08
9.07955e-08
8.68019e-08
8.28988e-08
7.90879e-08
7.53709e-08
7.17491e-08
6.82242e-08
6.4797e-08
6.14688e-08
5.82402e-08
5.5112e-08
5.20844e-08
4.91582e-08
4.63329e-08
4.36091e-08
4.0986e-08
3.84637e-08
3.60411e-08
3.3718e-08
3.14926e-08
2.93648e-08
2.73323e-08
2.53948e-08
2.35494e-08
2.1796e-08
2.01309e-08
1.8554e-08
1.70611e-08
1.56522e-08
1.43223e-08
1.30721e-08
1.18954e-08
1.07938e-08
9.76011e-09
8.79676e-09
7.89514e-09
7.05914e-09
6.27842e-09
5.55872e-09
4.88765e-09
4.27339e-09
3.70096e-09
3.18163e-09
2.69707e-09
2.26249e-09
1.85531e-09
1.4957e-09
1.15579e-09
8.61934e-10
5.79761e-10
3.43315e-10
1.10033e-10
-7.65992e-11
-2.69086e-10
-4.12732e-10
-5.71882e-10
-6.7871e-10
-8.11205e-10
-8.86831e-10
-9.98273e-10
-1.048e-09
-1.14248e-09
-1.17188e-09
-1.25122e-09
-1.26758e-09
-1.32986e-09
-1.34488e-09
-1.38094e-09
-1.41664e-09
-1.40245e-09
-1.50455e-09
-1.3822e-09
-1.65302e-09
-1.27416e-09
-1.9608e-09
-8.50124e-10
-2.60964e-09
2.18382e-09
-1.6629e-09
-1.6629e-09
-0.146488
0.146488
0.0383105
0.014234
0.00745602
0.00467275
0.00323055
0.00237653
0.00182708
0.00145306
0.00118762
0.000992883
0.000845958
0.000732363
0.000642595
0.000570249
0.000510907
0.00046146
0.000419681
0.000383945
0.00035305
0.00032609
0.000302371
0.000281354
0.000262615
0.000245814
0.000230678
0.000216981
0.000204538
0.000193192
0.000182814
0.000173291
0.000164528
0.000156444
0.000148969
0.000142039
0.000135602
0.000129611
0.000124023
0.000118802
0.000113916
0.000109336
0.000105035
0.00010099
9.71815e-05
9.359e-05
9.01987e-05
8.69925e-05
8.39576e-05
8.10814e-05
7.83527e-05
7.5761e-05
7.3297e-05
7.09519e-05
6.87178e-05
6.65875e-05
6.45544e-05
6.26122e-05
6.07553e-05
5.89785e-05
5.7277e-05
5.56463e-05
5.40823e-05
5.25812e-05
5.11393e-05
4.97535e-05
4.84205e-05
4.71376e-05
4.59022e-05
4.47116e-05
4.35636e-05
4.2456e-05
4.13869e-05
4.03542e-05
3.93562e-05
3.83912e-05
3.74578e-05
3.65543e-05
3.56794e-05
3.48319e-05
3.40105e-05
3.32141e-05
3.24415e-05
3.16918e-05
3.09639e-05
3.02571e-05
2.95704e-05
2.8903e-05
2.82541e-05
2.76231e-05
2.70092e-05
2.64118e-05
2.58302e-05
2.5264e-05
2.47125e-05
2.41751e-05
2.36515e-05
2.31411e-05
2.26435e-05
2.21582e-05
2.16849e-05
2.12231e-05
2.07724e-05
2.03326e-05
1.99032e-05
1.9484e-05
1.90746e-05
1.86748e-05
1.82842e-05
1.79026e-05
1.75297e-05
1.71653e-05
1.68091e-05
1.64609e-05
1.61205e-05
1.57876e-05
1.54621e-05
1.51438e-05
1.48325e-05
1.45279e-05
1.423e-05
1.39385e-05
1.36533e-05
1.33742e-05
1.31011e-05
1.28338e-05
1.25722e-05
1.23161e-05
1.20655e-05
1.18201e-05
1.15799e-05
1.13447e-05
1.11144e-05
1.0889e-05
1.06682e-05
1.04521e-05
1.02404e-05
1.00331e-05
9.83005e-06
9.63121e-06
9.43647e-06
9.24573e-06
9.05891e-06
8.87591e-06
8.69667e-06
8.52109e-06
8.34909e-06
8.18061e-06
8.01556e-06
7.85387e-06
7.69547e-06
7.54029e-06
7.38826e-06
7.23931e-06
7.09339e-06
6.95042e-06
6.81035e-06
6.67311e-06
6.53865e-06
6.40691e-06
6.27782e-06
6.15135e-06
6.02743e-06
5.90601e-06
5.78703e-06
5.67046e-06
5.55624e-06
5.44432e-06
5.33465e-06
5.22719e-06
5.12189e-06
5.01872e-06
4.91762e-06
4.81855e-06
4.72148e-06
4.62636e-06
4.53316e-06
4.44183e-06
4.35233e-06
4.26463e-06
4.1787e-06
4.0945e-06
4.01198e-06
3.93113e-06
3.8519e-06
3.77426e-06
3.69819e-06
3.62364e-06
3.55059e-06
3.47901e-06
3.40887e-06
3.34014e-06
3.27279e-06
3.20679e-06
3.14212e-06
3.07875e-06
3.01666e-06
2.95581e-06
2.89619e-06
2.83776e-06
2.78051e-06
2.72441e-06
2.66944e-06
2.61558e-06
2.5628e-06
2.51108e-06
2.4604e-06
2.41075e-06
2.36209e-06
2.31441e-06
2.26769e-06
2.22191e-06
2.17706e-06
2.1331e-06
2.09003e-06
2.04783e-06
2.00648e-06
1.96596e-06
1.92626e-06
1.88736e-06
1.84924e-06
1.81189e-06
1.77529e-06
1.73943e-06
1.7043e-06
1.66987e-06
1.63613e-06
1.60307e-06
1.57068e-06
1.53895e-06
1.50785e-06
1.47738e-06
1.44752e-06
1.41827e-06
1.3896e-06
1.36152e-06
1.334e-06
1.30703e-06
1.28061e-06
1.25472e-06
1.22936e-06
1.20451e-06
1.18016e-06
1.1563e-06
1.13293e-06
1.11003e-06
1.08759e-06
1.0656e-06
1.04407e-06
1.02297e-06
1.00229e-06
9.82037e-07
9.62192e-07
9.4275e-07
9.237e-07
9.05035e-07
8.86746e-07
8.68824e-07
8.51262e-07
8.3405e-07
8.17181e-07
8.00644e-07
7.84433e-07
7.68537e-07
7.52949e-07
7.3766e-07
7.2266e-07
7.07941e-07
6.93493e-07
6.79309e-07
6.65379e-07
6.51693e-07
6.38244e-07
6.25022e-07
6.12018e-07
5.99225e-07
5.86632e-07
5.74232e-07
5.62017e-07
5.49979e-07
5.38109e-07
5.264e-07
5.14846e-07
5.03439e-07
4.92172e-07
4.8104e-07
4.70036e-07
4.59155e-07
4.48393e-07
4.37744e-07
4.27205e-07
4.16771e-07
4.0644e-07
3.96208e-07
3.86074e-07
3.76035e-07
3.66091e-07
3.5624e-07
3.46481e-07
3.36815e-07
3.27241e-07
3.17762e-07
3.08376e-07
2.99088e-07
2.89897e-07
2.80806e-07
2.71819e-07
2.62936e-07
2.54163e-07
2.45501e-07
2.36955e-07
2.28528e-07
2.20224e-07
2.12047e-07
2.04001e-07
1.96089e-07
1.88316e-07
1.80686e-07
1.73203e-07
1.65871e-07
1.58692e-07
1.51671e-07
1.44811e-07
1.38114e-07
1.31584e-07
1.25224e-07
1.19035e-07
1.13019e-07
1.07179e-07
1.01515e-07
9.60285e-08
9.07204e-08
8.55914e-08
8.0641e-08
7.58698e-08
7.12765e-08
6.68612e-08
6.26217e-08
5.85577e-08
5.46661e-08
5.09464e-08
4.73945e-08
4.40098e-08
4.07873e-08
3.77265e-08
3.4821e-08
3.20705e-08
2.94674e-08
2.70119e-08
2.4695e-08
2.25178e-08
2.04697e-08
1.8553e-08
1.67553e-08
1.50807e-08
1.35143e-08
1.20624e-08
1.07074e-08
9.45879e-09
8.29538e-09
7.2309e-09
6.23966e-09
5.34075e-09
4.5028e-09
3.75152e-09
3.04842e-09
2.42759e-09
1.8416e-09
1.33512e-09
8.4954e-10
4.42703e-10
4.21402e-11
-2.78304e-10
-6.08032e-10
-8.54013e-10
-1.12591e-09
-1.30823e-09
-1.53391e-09
-1.66236e-09
-1.85157e-09
-1.93531e-09
-2.0952e-09
-2.14384e-09
-2.27775e-09
-2.30368e-09
-2.40853e-09
-2.43162e-09
-2.49218e-09
-2.54964e-09
-2.52562e-09
-2.69455e-09
-2.48878e-09
-2.94138e-09
-2.30511e-09
-3.45611e-09
-1.59355e-09
-4.5333e-09
3.41868e-09
-2.95641e-09
-2.95641e-09
-0.160438
0.160438
0.0519966
0.0211683
0.0113796
0.00719514
0.00499512