# vtk DataFile Version 2.0
FlowField
ASCII
DATASET STRUCTURED_GRID
DIMENSIONS 400 1 200
POINTS 80000 float
0 0 0
0.08 0 0
0.16 0 0
0.24 0 0
0.32 0 0
0.4 0 0
0.48 0 0
0.56 0 0
0.64 0 0
0.72 0 0
0.8 0 0
0.88 0 0
0.96 0 0
1.04 0 0
1.12 0 0
1.2 0 0
1.28 0 0
1.36 0 0
1.44 0 0
1.52 0 0
1.6 0 0
1.68 0 0
1.76 0 0
1.84 0 0
1.92 0 0
2 0 0
2.08 0 0
2.16 0 0
2.24 0 0
2.32 0 0
2.4 0 0
2.48 0 0
2.56 0 0
2.64 0 0
2.72 0 0
2.8 0 0
2.88 0 0
2.96 0 0
3.04 0 0
3.12 0 0
3.2 0 0
3.28 0 0
3.36 0 0
3.44 0 0
3.52 0 0
3.6 0 0
3.68 0 0
3.76 0 0
3.84 0 0
3.92 0 0
4 0 0
4.08 0 0
4.16 0 0
4.24 0 0
4.32 0 0
4.4 0 0
4.48 0 0
4.56 0 0
4.64 0 0
4.72 0 0
4.8 0 0
4.88 0 0
4.96 0 0
5.04 0 0
5.12 0 0
5.2 0 0
5.28 0 0
5.36 0 0
5.44 0 0
5.52 0 0
5.6 0 0
5.68 0 0
5.76 0 0
5.84 0 0
5.92 0 0
6 0 0
6.08 0 0
6.16 0 0
6.24 0 0
6.32 0 0
6.4 0 0
6.48 0 0
6.56 0 0
6.64 0 0
6.72 0 0
6.8 0 0
6.88 0 0
6.96 0 0
7.04 0 0
7.12 0 0
7.2 0 0
7.28 0 0
7.36 0 0
7.44 0 0
7.52 0 0
7.6 0 0
7.68 0 0
7.76 0 0
7.84 0 0
7.92 0 0
8 0 0
8.08 0 0
8.16 0 0
8.24 0 0
8.32 0 0
8.4 0 0
8.48 0 0
8.56 0 0
8.64 0 0
8.72 0 0
8.8 0 0
8.88 0 0
8.96 0 0
9.04 0 0
9.12 0 0
9.2 0 0
9.28 0 0
9.36 0 0
9.44 0 0
9.52 0 0
9.6 0 0
9.68 0 0
9.76 0 0
9.84 0 0
9.92 0 0
10 0 0
10.08 0 0
10.16 0 0
10.24 0 0
10.32 0 0
10.4 0 0
10.48 0 0
10.56 0 0
10.64 0 0
10.72 0 0
10.8 0 0
10.88 0 0
10.96 0 0
11.04 0 0
11.12 0 0
11.2 0 0
11.28 0 0
11.36 0 0
11.44 0 0
11.52 0 0
11.6 0 0
11.68 0 0
11.76 0 0
11.84 0 0
11.92 0 0
12 0 0
12.08 0 0
12.16 0 0
12.24 0 0
12.32 0 0
12.4 0 0
12.48 0 0
12.56 0 0
12.64 0 0
12.72 0 0
12.8 0 0
12.88 0 0
12.96 0 0
13.04 0 0
13.12 0 0
13.2 0 0
13.28 0 0
13.36 0 0
13.44 0 0
13.52 0 0
13.6 0 0
13.68 0 0
13.76 0 0
13.84 0 0
13.92 0 0
14 0 0
14.08 0 0
14.16 0 0
14.24 0 0
14.32 0 0
14.4 0 0
14.48 0 0
14.56 0 0
14.64 0 0
14.72 0 0
14.8 0 0
14.88 0 0
14.96 0 0
15.04 0 0
15.12 0 0
15.2 0 0
15.28 0 0
15.36 0 0
15.44 0 0
15.52 0 0
15.6 0 0
15.68 0 0
15.76 0 0
15.84 0 0
15.92 0 0
16 0 0
16.08 0 0
16.16 0 0
16.24 0 0
16.32 0 0
16.4 0 0
16.48 0 0
16.56 0 0
16.64 0 0
16.72 0 0
16.8 0 0
16.88 0 0
16.96 0 0
17.04 0 0
17.12 0 0
17.2 0 0
17.28 0 0
17.36 0 0
17.44 0 0
17.52 0 0
17.6 0 0
17.68 0 0
17.76 0 0
17.84 0 0
17.92 0 0
18 0 0
18.08 0 0
18.16 0 0
18.24 0 0
18.32 0 0
18.4 0 0
18.48 0 0
18.56 0 0
18.64 0 0
18.72 0 0
18.8 0 0
18.88 0 0
18.96 0 0
19.04 0 0
19.12 0 0
19.2 0 0
19.28 0 0
19.36 0 0
19.44 0 0
19.52 0 0
19.6 0 0
19.68 0 0
19.76 0 0
19.84 0 0
19.92 0 0
20 0 0
20.08 0 0
20.16 0 0
20.24 0 0
20.32 0 0
20.4 0 0
20.48 0 0
20.56 0 0
20.64 0 0
20.72 0 0
20.8 0 0
20.88 0 0
20.96 0 0
21.04 0 0
21.12 0 0
21.2 0 0
21.28 0 0
21.36 0 0
21.44 0 0
21.52 0 0
21.6 0 0
21.68 0 0
21.76 0 0
21.84 0 0
21.92 0 0
22 0 0
22.08 0 0
22.16 0 0
22.24 0 0
22.32 0 0
22.4 0 0
22.48 0 0
22.56 0 0
22.64 0 0
22.72 0 0
22.8 0 0
22.88 0 0
22.96 0 0
23.04 0 0
23.12 0 0
23.2 0 0
23.28 0 0
23.36 0 0
23.44 0 0
23.52 0 0
23.6 0 0
23.68 0 0
23.76 0 0
23.84 0 0
23.92 0 0
24 0 0
24.08 0 0
24.16 0 0
24.24 0 0
24.32 0 0
24.4 0 0
24.48 0 0
24.56 0 0
24.64 0 0
24.72 0 0
24.8 0 0
24.88 0 0
24.96 0 0
25.04 0 0
25.12 0 0
25.2 0 0
25.28 0 0
25.36 0 0
25.44 0 0
25.52 0 0
25.6 0 0
25.68 0 0
25.76 0 0
25.84 0 0
25.92 0 0
26 0 0
26.08 0 0
26.16 0 0
26.24 0 0
26.32 0 0
26.4 0 0
26.48 0 0
26.56 0 0
26.64 0 0
26.72 0 0
26.8 0 0
26.88 0 0
26.96 0 0
27.04 0 0
27.12 0 0
27.2 0 0
27.28 0 0
27.36 0 0
27.44 0 0
27.52 0 0
27.6 0 0
27.68 0 0
27.76 0 0
27.84 0 0
27.92 0 0
28 0 0
28.08 0 0
28.16 0 0
28.24 0 0
28.32 0 0
28.4 0 0
28.48 0 0
28.56 0 0
28.64 0 0
28.72 0 0
28.8 0 0
28.88 0 0
28.96 0 0
29.04 0 0
29.12 0 0
29.2 0 0
29.28 0 0
29.36 0 0
29.44 0 0
29.52 0 0
29.6 0 0
29.68 0 0
29.76 0 0
29.84 0 0
29.92 0 0
30 0 0
30.08 0 0
30.16 0 0
30.24 0 0
30.32 0 0
30.4 0 0
30.48 0 0
30.56 0 0
30.64 0 0
30.72 0 0
30.8 0 0
30.88 0 0
30.96 0 0
31.04 0 0
31.12 0 0
31.2 0 0
31.28 0 0
31.36 0 0
31.44 0 0
31.52 0 0
31.6 0 0
31.68 0 0
31.76 0 0
31.84 0 0
31.92 0 0
0 0.005 0
0.08 0.005 0
0.16 0.005 0
0.24 0.005 0
0.32 0.005 0
0.4 0.005 0
0.48 0.005 0
0.56 0.005 0
0.64 0.005 0
0.72 0.005 0
0.8 0.005 0
0.88 0.005 0
0.96 0.005 0
1.04 0.005 0
1.12 0.005 0
1.2 0.005 0
1.28 0.005 0
1.36 0.005 0
1.44 0.005 0
1.52 0.005 0
1.6 0.005 0
1.68 0.005 0
1.76 0.005 0
1.84 0.005 0
1.92 0.005 0
2 0.005 0
2.08 0.005 0
2.16 0.005 0
2.24 0.005 0
2.32 0.005 0
2.4 0.005 0
2.48 0.005 0
2.56 0.005 0
2.64 0.005 0
2.72 0.005 0
2.8 0.005 0
2.88 0.005 0
2.96 0.005 0
3.04 0.005 0
3.12 0.005 0
3.2 0.005 0
3.28 0.005 0
3.36 0.005 0
3.44 0.005 0
3.52 0.005 0
3.6 0.005 0
3.68 0.005 0
3.76 0.005 0
3.84 0.005 0
3.92 0.005 0
4 0.005 0
4.08 0.005 0
4.16 0.005 0
4.24 0.005 0
4.32 0.005 0
4.4 0.005 0
4.48 0.005 0
4.56 0.005 0
4.64 0.005 0
4.72 0.005 0
4.8 0.005 0
4.88 0.005 0
4.96 0.005 0
5.04 0.005 0
5.12 0.005 0
5.2 0.005 0
5.28 0.005 0
5.36 0.005 0
5.44 0.005 0
5.52 0.005 0
5.6 0.005 0
5.68 0.005 0
5.76 0.005 0
5.84 0.005 0
5.92 0.005 0
6 0.005 0
6.08 0.005 0
6.16 0.005 0
6.24 0.005 0
6.32 0.005 0
6.4 0.005 0
6.48 0.005 0
6.56 0.005 0
6.64 0.005 0
6.72 0.005 0
6.8 0.005 0
6.88 0.005 0
6.96 0.005 0
7.04 0.005 0
7.12 0.005 0
7.2 0.005 0
7.28 0.005 0
7.36 0.005 0
7.44 0.005 0
7.52 0.005 0
7.6 0.005 0
7.68 0.005 0
7.76 0.005 0
7.84 0.005 0
7.92 0.005 0
8 0.005 0
8.08 0.005 0
8.16 0.005 0
8.24 0.005 0
8.32 0.005 0
8.4 0.005 0
8.48 0.005 0
8.56 0.005 0
8.64 0.005 0
8.72 0.005 0
8.8 0.005 0
8.88 0.005 0
8.96 0.005 0
9.04 0.005 0
9.12 0.005 0
9.2 0.005 0
9.28 0.005 0
9.36 0.005 0
9.44 0.005 0
9.52 0.005 0
9.6 0.005 0
9.68 0.005 0
9.76 0.005 0
9.84 0.005 0
9.92 0.005 0
10 0.005 0
10.08 0.005 0
10.16 0.005 0
10.24 0.005 0
10.32 0.005 0
10.4 0.005 0
10.48 0.005 0
10.56 0.005 0
10.64 0.005 0
10.72 0.005 0
10.8 0.005 0
10.88 0.005 0
10.96 0.005 0
11.04 0.005 0
11.12 0.005 0
11.2 0.005 0
11.28 0.005 0
11.36 0.005 0
11.44 0.005 0
11.52 0.005 0
11.6 0.005 0
11.68 0.005 0
11.76 0.005 0
11.84 0.005 0
11.92 0.005 0
12 0.005 0
12.08 0.005 0
12.16 0.005 0
12.24 0.005 0
12.32 0.005 0
12.4 0.005 0
12.48 0.005 0
12.56 0.005 0
12.64 0.005 0
12.72 0.005 0
12.8 0.005 0
12.88 0.005 0
12.96 0.005 0
13.04 0.005 0
13.12 0.005 0
13.2 0.005 0
13.28 0.005 0
13.36 0.005 0
13.44 0.005 0
13.52 0.005 0
13.6 0.005 0
13.68 0.005 0
13.76 0.005 0
13.84 0.005 0
13.92 0.005 0
14 0.005 0
14.08 0.005 0
14.16 0.005 0
14.24 0.005 0
14.32 0.005 0
14.4 0.005 0
14.48 0.005 0
14.56 0.005 0
14.64 0.005 0
14.72 0.005 0
14.8 0.005 0
14.88 0.005 0
14.96 0.005 0
15.04 0.005 0
15.12 0.005 0
15.2 0.005 0
15.28 0.005 0
15.36 0.005 0
15.44 0.005 0
15.52 0.005 0
15.6 0.005 0
15.68 0.005 0
15.76 0.005 0
15.84 0.005 0
15.92 0.005 0
16 0.005 0
16.08 0.005 0
16.16 0.005 0
16.24 0.005 0
16.32 0.005 0
16.4 0.005 0
16.48 0.005 0
16.56 0.005 0
16.64 0.005 0
16.72 0.005 0
16.8 0.005 0
16.88 0.005 0
16.96 0.005 0
17.04 0.005 0
17.12 0.005 0
17.2 0.005 0
17.28 0.005 0
17.36 0.005 0
17.44 0.005 0
17.52 0.005 0
17.6 0.005 0
17.68 0.005 0
17.76 0.005 0
17.84 0.005 0
17.92 0.005 0
18 0.005 0
18.08 0.005 0
18.16 0.005 0
18.24 0.005 0
18.32 0.005 0
18.4 0.005 0
18.48 0.005 0
18.56 0.005 0
18.64 0.005 0
18.72 0.005 0
18.8 0.005 0
18.88 0.005 0
18.96 0.005 0
19.04 0.005 0
19.12 0.005 0
19.2 0.005 0
19.28 0.005 0
19.36 0.005 0
19.44 0.005 0
19.52 0.005 0
19.6 0.005 0
19.68 0.005 0
19.76 0.005 0
19.84 0.005 0
19.92 0.005 0
20 0.005 0
20.08 0.005 0
20.16 0.005 0
20.24 0.005 0
20.32 0.005 0
20.4 0.005 0
20.48 0.005 0
20.56 0.005 0
20.64 0.005 0
20.72 0.005 0
20.8 0.005 0
20.88 0.005 0
20.96 0.005 0
21.04 0.005 0
21.12 0.005 0
21.2 0.005 0
21.28 0.005 0
21.36 0.005 0
21.44 0.005 0
21.52 0.005 0
21.6 0.005 0
21.68 0.005 0
21.76 0.005 0
21.84 0.005 0
21.92 0.005 0
22 0.005 0
22.08 0.005 0
22.16 0.005 0
22.24 0.005 0
22.32 0.005 0
22.4 0.005 0
22.48 0.005 0
22.56 0.005 0
22.64 0.005 0
22.72 0.005 0
22.8 0.005 0
22.88 0.005 0
22.96 0.005 0
23.04 0.005 0
23.12 0.005 0
23.2 0.005 0
23.28 0.005 0
23.36 0.005 0
23.44 0.005 0
23.52 0.005 0
23.6 0.005 0
23.68 0.005 0
23.76 0.005 0
23.84 0.005 0
23.92 0.005 0
24 0.005 0
24.08 0.005 0
24.16 0.005 0
24.24 0.005 0
24.32 0.005 0
24.4 0.005 0
24.48 0.005 0
24.56 0.005 0
24.64 0.005 0
24.72 0.005 0
24.8 0.005 0
24.88 0.005 0
24.96 0.005 0
25.04 0.005 0
25.12 0.005 0
25.2 0.005 0
25.28 0.005 0
25.36 0.005 0
25.44 0.005 0
25.52 0.005 0
25.6 0.005 0
25.68 0.005 0
25.76 0.005 0
25.84 0.005 0
25.92 0.005 0
26 0.005 0
26.08 0.005 0
26.16 0.005 0
26.24 0.005 0
26.32 0.005 0
26.4 0.005 0
26.48 0.005 0
26.56 0.005 0
26.64 0.005 0
26.72 0.005 0
26.8 0.005 0
26.88 0.005 0
26.96 0.005 0
27.04 0.005 0
27.12 0.005 0
27.2 0.005 0
27.28 0.005 0
27.36 0.005 0
27.44 0.005 0
27.52 0.005 0
27.6 0.005 0
27.68 0.005 0
27.76 0.005 0
27.84 0.005 0
27.92 0.005 0
28 0.005 0
28.08 0.005 0
28.16 0.005 0
28.24 0.005 0
28.32 0.005 0
28.4 0.005 0
28.48 0.005 0
28.56 0.005 0
28.64 0.005 0
28.72 0.005 0
28.8 0.005 0
28.88 0.005 0
28.96 0.005 0
29.04 0.005 0
29.12 0.005 0
29.2 0.005 0
29.28 0.005 0
29.36 0.005 0
29.44 0.005 0
29.52 0.005 0
29.6 0.005 0
29.68 0.005 0
29.76 0.005 0
29.84 0.005 0
29.92 0.005 0
30 0.005 0
30.08 0.005 0
30.16 0.005 0
30.24 0.005 0
30.32 0.005 0
30.4 0.005 0
30.48 0.005 0
30.56 0.005 0
30.64 0.005 0
30.72 0.005 0
30.8 0.005 0
30.88 0.005 0
30.96 0.005 0
31.04 0.005 0
31.12 0.005 0
31.2 0.005 0
31.28 0.005 0
31.36 0.005 0
31.44 0.005 0
31.52 0.005 0
31.6 0.005 0
31.68 0.005 0
31.76 0.005 0
31.84 0.005 0
31.92 0.005 0
0 0.01 0
0.08 0.01 0
0.16 0.01 0
0.24 0.01 0
0.32 0.01 0
0.4 0.01 0
0.48 0.01 0
0.56 0.01 0
0.64 0.01 0
0.72 0.01 0
0.8 0.01 0
0.88 0.01 0
0.96 0.01 0
1.04 0.01 0
1.12 0.01 0
1.2 0.01 0
1.28 0.01 0
1.36 0.01 0
1.44 0.01 0
1.52 0.01 0
1.6 0.01 0
1.68 0.01 0
1.76 0.01 0
1.84 0.01 0
1.92 0.01 0
2 0.01 0
2.08 0.01 0
2.16 0.01 0
2.24 0.01 0
2.32 0.01 0
2.4 0.01 0
2.48 0.01 0
2.56 0.01 0
2.64 0.01 0
2.72 0.01 0
2.8 0.01 0
2.88 0.01 0
2.96 0.01 0
3.04 0.01 0
3.12 0.01 0
3.2 0.01 0
3.28 0.01 0
3.36 0.01 0
3.44 0.01 0
3.52 0.01 0
3.6 0.01 0
3.68 0.01 0
3.76 0.01 0
3.84 0.01 0
3.92 0.01 0
4 0.01 0
4.08 0.01 0
4.16 0.01 0
4.24 0.01 0
4.32 0.01 0
4.4 0.01 0
4.48 0.01 0
4.56 0.01 0
4.64 0.01 0
4.72 0.01 0
4.8 0.01 0
4.88 0.01 0
4.96 0.01 0
5.04 0.01 0
5.12 0.01 0
[...]
POINT_DATA 80000

SCALARS v float 1
LOOKUP_TABLE default
0
0
0
0
0
0
0
0
0
0
0
0
0
0
0
0
0
0
0
0
0
0
0
0
0
0
0
0
0
0
0
0
0
0
0
0
0
0
0
0
0
0
0
0
0
0
0
0
0
0
0
0
0
0
0
0
0
0
0
0
0
0
0
0
0
0
0
0
0
0
0
0
0
0
0
0
0
0
0
0
0
0
0
0
0
0
0
0
0
0
0
0
0
0
0
0
0
0
0
0
0
0
0
0
0
0
0
0
0
0
0
0
0
0
0
0
0
0
0
0
0
0
0
0
0
0
0
0
0
0
0
0
0
0
0
0
0
0
0
0
0
0
0
0
0
0
0
0
0
0
0
0
0
0
0
0
0
0
0
0
0
0
0
0
0
0
0
0
0
0
0
0
0
0
0
0
0
0
0
0
0
0
0
0
0
0
0
0
0
0
0
0
0
0
0
0
0
0
0
0
0
0
0
0
0
0
0
0
0
0
0
0
0
0
0
0
0
0
0
0
0
0
0
0
0
0
0
0
0
0
0
0
0
0
0
0
0
0
0
0
0
0
0
0
0
0
0
0
0
0
0
0
0
0
0
0
0
0
0
0
0
0
0
0
0
0
0
0
0
0
0
0
0
0
0
0
0
0
0
0
0
0
0
0
0
0
0
0
0
0
0
0
0
0
0
0
0
0
0
0
0
0
0
0
0
0
0
0
0
0
0
0
0
0
0
0
0
0
0
0
0
0
0
0
0
0
0
0
0
0
0
0
0
0
0
0
0
0
0
0
0
0
0
0
0
0
0
0
0
0
0
0
0
0
0
0
0
0
0
0
0
0
0
0
0
0
0
0
0
0
0
0
0
0
0
0
0
0
0
0
0
0
0
0
0
0
0
0
0
0
0
0
0
0
0
0
0
0
0
0
-0.0542711
0.0542711
0.00396209
0.00099833
0.00049226
0.000302696
0.00020732
0.000151692
0.00011625
9.22938e-05
7.53807e-05
6.30201e-05
5.37196e-05
4.65411e-05
4.08733e-05
3.63062e-05
3.25587e-05
2.94337e-05
2.67906e-05
2.45275e-05
2.25686e-05
2.08572e-05
1.935e-05
1.80131e-05
1.68201e-05
1.57496e-05
1.47845e-05
1.39105e-05
1.31161e-05
1.23915e-05
1.17283e-05
1.11195e-05
1.05592e-05
1.00421e-05
9.56378e-06
9.1203e-06
8.70824e-06
8.32462e-06
7.96678e-06
7.63239e-06
7.31938e-06
7.02589e-06
6.75029e-06
6.49109e-06
6.24696e-06
6.01673e-06
5.79931e-06
5.59373e-06
5.39912e-06
5.21466e-06
5.03965e-06
4.87341e-06
4.71534e-06
4.56489e-06
4.42155e-06
4.28486e-06
4.15439e-06
4.02975e-06
3.91057e-06
3.79653e-06
3.68731e-06
3.58262e-06
3.48221e-06
3.38583e-06
3.29325e-06
3.20425e-06
3.11865e-06
3.03626e-06
2.95691e-06
2.88043e-06
2.80669e-06
2.73553e-06
2.66684e-06
2.60048e-06
2.53635e-06
2.47434e-06
2.41435e-06
2.35628e-06
2.30005e-06
2.24557e-06
2.19276e-06
2.14155e-06
2.09188e-06
2.04367e-06
1.99686e-06
1.9514e-06
1.90724e-06
1.86431e-06
1.82257e-06
1.78197e-06
1.74247e-06
1.70403e-06
1.66661e-06
1.63017e-06
1.59467e-06
1.56009e-06
1.52638e-06
1.49353e-06
1.46149e-06
1.43025e-06
1.39977e-06
1.37003e-06
1.34101e-06
1.31268e-06
1.28502e-06
1.25802e-06
1.23165e-06
1.20589e-06
1.18072e-06
1.15613e-06
1.1321e-06
1.10862e-06
1.08566e-06
1.06322e-06
1.04128e-06
1.01982e-06
9.98835e-07
9.78311e-07
9.58236e-07
9.38598e-07
9.19385e-07
9.00586e-07
8.82191e-07
8.6419e-07
8.46573e-07
8.29331e-07
8.12454e-07
7.95934e-07
7.79762e-07
7.6393e-07
7.48429e-07
7.33253e-07
7.18393e-07
7.03843e-07
6.89594e-07
6.75641e-07
6.61977e-07
6.48594e-07
6.35487e-07
6.2265e-07
6.10077e-07
5.97761e-07
5.85698e-07
5.73881e-07
5.62306e-07
5.50967e-07
5.39859e-07
5.28977e-07
5.18317e-07
5.07873e-07
4.97641e-07
4.87616e-07
4.77795e-07
4.68173e-07
4.58745e-07
4.49508e-07
4.40458e-07
4.3159e-07
4.22902e-07
4.14388e-07
4.06047e-07
3.97874e-07
3.89865e-07
3.82018e-07
3.74328e-07
3.66794e-07
3.59411e-07
3.52176e-07
3.45088e-07
3.38141e-07
3.31335e-07
3.24665e-07
3.18129e-07
3.11724e-07
3.05449e-07
2.99299e-07
2.93273e-07
2.87367e-07
2.81581e-07
2.7591e-07
2.70354e-07
2.64909e-07
2.59573e-07
2.54345e-07
2.49221e-07
2.442e-07
2.3928e-07
2.34459e-07
2.29735e-07
2.25105e-07
2.20569e-07
2.16123e-07
2.11767e-07
2.07498e-07
2.03315e-07
1.99217e-07
1.952e-07
1.91264e-07
1.87407e-07
1.83628e-07
1.79924e-07
1.76295e-07
1.72739e-07
1.69255e-07
1.6584e-07
1.62494e-07
1.59216e-07
1.56003e-07
1.52855e-07
1.4977e-07
1.46748e-07
1.43786e-07
1.40884e-07
1.3804e-07
1.35253e-07
1.32522e-07
1.29847e-07
1.27225e-07
1.24656e-07
1.22139e-07
1.19672e-07
1.17256e-07
1.14887e-07
1.12567e-07
1.10293e-07
1.08065e-07
1.05882e-07
1.03743e-07
1.01647e-07
9.95929e-08
9.75805e-08
9.56085e-08
9.36763e-08
9.17831e-08
8.9928e-08
8.81103e-08
8.63293e-08
8.45841e-08
8.28742e-08
8.11988e-08
7.95572e-08
7.79488e-08
7.63729e-08
7.48288e-08
7.3316e-08
7.18337e-08
7.03815e-08
6.89588e-08
6.75649e-08
6.61992e-08
6.48612e-08
6.35504e-08
6.22662e-08
6.1008e-08
5.97754e-08
5.85676e-08
5.73843e-08
5.62248e-08
5.50887e-08
5.39754e-08
5.28843e-08
5.18149e-08
5.07666e-08
4.9739e-08
4.87314e-08
4.77432e-08
4.6774e-08
4.58231e-08
4.489e-08
4.39741e-08
4.30748e-08
4.21915e-08
4.13238e-08
4.04709e-08
3.96324e-08
3.88077e-08
3.79962e-08
3.71974e-08
3.64107e-08
3.56356e-08
3.48717e-08
3.41184e-08
3.33752e-08
3.26417e-08
3.19175e-08
3.12021e-08
3.04951e-08
2.97962e-08
2.91051e-08
2.84214e-08
2.77449e-08
2.70752e-08
2.64122e-08
2.57557e-08
2.51055e-08
2.44615e-08
2.38236e-08
2.31916e-08
2.25655e-08
2.19453e-08
2.13311e-08
2.07227e-08
2.01204e-08
1.95242e-08
1.89341e-08
1.83503e-08
1.7773e-08
1.72023e-08
1.66385e-08
1.60816e-08
1.5532e-08
1.49898e-08
1.44554e-08
1.39289e-08
1.34106e-08
1.29007e-08
1.23996e-08
1.19074e-08
1.14244e-08
1.09509e-08
1.04871e-08
1.00332e-08
9.5895e-09
9.15609e-09
8.73321e-09
8.32103e-09
7.91972e-09
7.52938e-09
7.15017e-09
6.78214e-09
6.42541e-09
6.08e-09
5.74599e-09
5.42336e-09
5.11215e-09
4.8123e-09
4.52383e-09
4.24658e-09
3.98058e-09
3.72561e-09
3.48167e-09
3.24847e-09
3.02605e-09
2.81403e-09
2.61244e-09
2.42082e-09
2.23922e-09
2.06713e-09
1.90456e-09
1.75095e-09
1.60638e-09
1.47016e-09
1.34249e-09
1.22249e-09
1.11054e-09
1.00555e-09
9.08077e-10
8.1684e-10
7.32619e-10
6.53855e-10
5.81646e-10
5.14117e-10
4.52738e-10
3.95225e-10
3.43521e-10
2.94821e-10
2.51694e-10
2.10655e-10
1.75062e-10
1.40598e-10
1.11585e-10
8.26785e-11
5.94034e-11
3.5138e-11
1.68136e-11
-3.66723e-12
-1.77396e-11
-3.52175e-11
-4.56789e-11
-6.07724e-11
-6.82278e-11
-8.14136e-11
-8.6531e-11
-9.79598e-11
-1.01623e-10
-1.11012e-10
-1.14682e-10
-1.20798e-10
-1.27279e-10
-1.2698e-10
-1.42119e-10
-1.27867e-10
-1.64818e-10
-1.17324e-10
-2.08161e-10
-6.55794e-11
-2.9826e-10
3.33841e-10
-1.7535e-10
-1.7535e-10
-0.0952159
0.0952159
0.0129756
0.00385462
0.00193431
0.0011962
0.000821741
0.000602314
0.000462067
0.000367041
0.000299831
0.000250645
0.000213602
0.000184994
0.0001624
0.000144195
0.00012926
0.00011681
0.000106285
9.72762e-05
8.9483e-05
8.26777e-05
7.66869e-05
7.13754e-05
6.66372e-05
6.23871e-05
5.85565e-05
5.50887e-05
5.19373e-05
4.90631e-05
4.64331e-05
4.40195e-05
4.17981e-05
3.97484e-05
3.78526e-05
3.60951e-05
3.44623e-05
3.29422e-05
3.15245e-05
3.01998e-05
2.89598e-05
2.77973e-05
2.67056e-05
2.5679e-05
2.47121e-05
2.38003e-05
2.29393e-05
2.21253e-05
2.13546e-05
2.06243e-05
1.99313e-05
1.92731e-05
1.86473e-05
1.80517e-05
1.74842e-05
1.69431e-05
1.64266e-05
1.59332e-05
1.54615e-05
1.50101e-05
1.45778e-05
1.41634e-05
1.3766e-05
1.33846e-05
1.30182e-05
1.2666e-05
1.23272e-05
1.20012e-05
1.16872e-05
1.13846e-05
1.10928e-05
1.08112e-05
1.05394e-05
1.02769e-05
1.00232e-05
9.77784e-06
9.5405e-06
9.31078e-06
9.08833e-06
8.87282e-06
8.66393e-06
8.46138e-06
8.2649e-06
8.07422e-06
7.88909e-06
7.7093e-06
7.53462e-06
7.36484e-06
7.19977e-06
7.03923e-06
6.88305e-06
6.73104e-06
6.58307e-06
6.43899e-06
6.29864e-06
6.1619e-06
6.02864e-06
5.89874e-06
5.77209e-06
5.64857e-06
5.52808e-06
5.41053e-06
5.29581e-06
5.18383e-06
5.07452e-06
4.96779e-06
4.86355e-06
4.76174e-06
4.66228e-06
4.5651e-06
4.47014e-06
4.37733e-06
4.28661e-06
4.19793e-06
4.11122e-06
4.02644e-06
3.94353e-06
3.86244e-06
3.78312e-06
3.70553e-06
3.62963e-06
3.55536e-06
3.48269e-06
3.41157e-06
3.34198e-06
3.27387e-06
3.2072e-06
3.14195e-06
3.07807e-06
3.01553e-06
2.95431e-06
2.89437e-06
2.83568e-06
2.77821e-06
2.72194e-06
2.66683e-06
2.61287e-06
2.56002e-06
2.50826e-06
2.45756e-06
2.40791e-06
2.35928e-06
2.31164e-06
2.26498e-06
2.21928e-06
2.1745e-06
2.13065e-06
2.08768e-06
2.04559e-06
2.00435e-06
1.96396e-06
1.92438e-06
1.8856e-06
1.84761e-06
1.81039e-06
1.77393e-06
1.7382e-06
1.70319e-06
1.66889e-06
1.63529e-06
1.60236e-06
1.57009e-06
1.53848e-06
1.5075e-06
1.47715e-06
1.44741e-06
1.41827e-06
1.38971e-06
1.36173e-06
1.33432e-06
1.30745e-06
1.28112e-06
1.25533e-06
1.23005e-06
1.20528e-06
1.18101e-06
1.15723e-06
1.13392e-06
1.11108e-06
1.0887e-06
1.06677e-06
1.04528e-06
1.02423e-06
1.00359e-06
9.83372e-07
9.63558e-07
9.44142e-07
9.25116e-07
9.06473e-07
8.88203e-07
8.70301e-07
8.52759e-07
8.35568e-07
8.18724e-07
8.02217e-07
7.86042e-07
7.70193e-07
7.54661e-07
7.39442e-07
7.24529e-07
7.09916e-07
6.95596e-07
6.81564e-07
6.67815e-07
6.54342e-07
6.41139e-07
6.28203e-07
6.15526e-07
6.03105e-07
5.90934e-07
5.79007e-07
5.67321e-07
5.55869e-07
5.44648e-07
5.33654e-07
5.2288e-07
5.12323e-07
5.01979e-07
4.91843e-07
4.81912e-07
4.7218e-07
4.62644e-07
4.533e-07
4.44145e-07
4.35174e-07
4.26384e-07
4.1777e-07
4.09331e-07
4.01061e-07
3.92958e-07
3.85018e-07
3.77238e-07
3.69615e-07
3.62146e-07
3.54827e-07
3.47656e-07
3.40629e-07
3.33744e-07
3.26998e-07
3.20388e-07
3.13912e-07
3.07567e-07
3.01349e-07
2.95258e-07
2.8929e-07
2.83442e-07
2.77713e-07
2.721e-07
2.66601e-07
2.61213e-07
2.55935e-07
2.50763e-07
2.45696e-07
2.40732e-07
2.35869e-07
2.31104e-07
2.26435e-07
2.2186e-07
2.17376e-07
2.12983e-07
2.08677e-07
2.04456e-07
2.00318e-07
1.96262e-07
1.92284e-07
1.88382e-07
1.84555e-07
1.80799e-07
1.77114e-07
1.73495e-07
1.69942e-07
1.66451e-07
1.63021e-07
1.59649e-07
1.56334e-07
1.53072e-07
1.49861e-07
1.467e-07
1.43587e-07
1.40519e-07
1.37493e-07
1.3451e-07
1.31565e-07
1.28659e-07
1.25788e-07
1.22952e-07
1.20149e-07
1.17377e-07
1.14635e-07
1.11922e-07
1.09238e-07
1.0658e-07
1.03948e-07
1.01341e-07
9.87598e-08
9.62024e-08
9.36689e-08
9.11589e-08
8.86724e-08
8.62093e-08
8.37697e-08
8.13537e-08
7.89616e-08
7.65939e-08
7.42508e-08
7.19331e-08
6.96413e-08
6.73762e-08
6.51384e-08
6.2929e-08
6.07486e-08
5.85984e-08
5.64792e-08
5.43921e-08
5.23381e-08
5.03182e-08
4.83334e-08
4.63847e-08
4.44733e-08
4.25999e-08
4.07656e-08
3.89713e-08
3.72177e-08
3.55057e-08
3.38361e-08
3.22094e-08
3.06263e-08
2.90873e-08
2.75929e-08
2.61433e-08
2.4739e-08
2.338e-08
2.20665e-08
2.07986e-08
1.95764e-08
1.83995e-08
1.7268e-08
1.61813e-08
1.51393e-08
1.41414e-08
1.31873e-08
1.2276e-08
1.14075e-08
1.05804e-08
9.79463e-09
9.04851e-09
8.34205e-09
7.67322e-09
7.0422e-09
6.44656e-09
5.88672e-09
5.35984e-09
4.8667e-09
4.40393e-09
3.97276e-09
3.56919e-09
3.19507e-09
2.84563e-09
2.5236e-09
2.22322e-09
1.94838e-09
1.6921e-09
1.45976e-09
1.24274e-09
1.04828e-09
8.65801e-10
7.04834e-10
5.5233e-10
4.20742e-10
2.93922e-10
1.87967e-10
8.28726e-11
-8.28861e-13
-8.7836e-11
-1.52337e-10
-2.2462e-10
-2.72676e-10
-3.33222e-10
-3.67348e-10
-4.18648e-10
-4.41232e-10
-4.85095e-10
-4.98637e-10
-5.35795e-10
-5.43644e-10
-5.73078e-10
-5.80731e-10
-5.97984e-10
-6.15819e-10
-6.09366e-10
-6.59041e-10
-6.01172e-10
-7.31315e-10
-5.51105e-10
-8.79664e-10
-3.49799e-10
-1.19449e-09
1.11578e-09
-7.39188e-10
-7.39188e-10
-0.125293
0.125293
0.0249359
0.00835802
0.004278
0.00266152
0.00183374
0.00134635
0.00103388
0.000821704
0.000671387
0.00056125
0.000478232
0.000414085
0.00036341
0.000322576
0.000289079
0.000261164
0.000237571
0.000217385
0.000199929
0.000184691
0.000171281
0.000159395
0.000148795
0.00013929
0.000130724
0.000122972
0.000115928
0.000109505
0.000103628
9.8235e-05
9.32725e-05
8.86939e-05
8.44594e-05
8.0534e-05
7.68875e-05
7.34931e-05
7.03272e-05
6.73692e-05
6.46006e-05
6.20051e-05
5.95679e-05
5.7276e-05
5.51176e-05
5.30822e-05
5.11602e-05
4.93431e-05
4.7623e-05
4.59928e-05
4.44462e-05
4.29772e-05
4.15805e-05
4.02511e-05
3.89848e-05
3.77772e-05
3.66246e-05
3.55236e-05
3.44709e-05
3.34636e-05
3.2499e-05
3.15745e-05
3.06878e-05
2.98367e-05
2.90192e-05
2.82334e-05
2.74776e-05
2.67502e-05
2.60497e-05
2.53746e-05
2.47236e-05
2.40956e-05
2.34893e-05
2.29036e-05
2.23377e-05
2.17904e-05
2.1261e-05
2.07487e-05
2.02525e-05
1.97718e-05
1.93059e-05
1.88542e-05
1.8416e-05
1.79908e-05
1.75779e-05
1.7177e-05
1.67874e-05
1.64088e-05
1.60408e-05
1.56828e-05
1.53345e-05
1.49956e-05
1.46657e-05
1.43444e-05
1.40315e-05
1.37267e-05
1.34296e-05
1.314e-05
1.28576e-05
1.25823e-05
1.23137e-05
1.20516e-05
1.17959e-05
1.15463e-05
1.13026e-05
1.10647e-05
1.08324e-05
1.06055e-05
1.03838e-05
1.01672e-05
9.9556e-06
9.74877e-06
9.5466e-06
9.34896e-06
9.15574e-06
8.96681e-06
8.78205e-06
8.60136e-06
8.42462e-06
8.25173e-06
8.0826e-06
7.91712e-06
7.75521e-06
7.59677e-06
7.44171e-06
7.28996e-06
7.14144e-06
6.99606e-06
6.85375e-06
6.71443e-06
6.57805e-06
6.44451e-06
6.31377e-06
6.18576e-06
6.06041e-06
5.93766e-06
5.81745e-06
5.69973e-06
5.58444e-06
5.47153e-06
5.36094e-06
5.25262e-06
5.14653e-06
5.0426e-06
4.94081e-06
4.84109e-06
4.74341e-06
4.64772e-06
4.55398e-06
4.46215e-06
4.37219e-06
4.28405e-06
4.1977e-06
4.1131e-06
4.03022e-06
3.94901e-06
3.86945e-06
3.7915e-06
3.71512e-06
3.64029e-06
3.56697e-06
3.49513e-06
3.42473e-06
3.35576e-06
3.28818e-06
3.22196e-06
3.15707e-06
3.09349e-06
3.03119e-06
2.97015e-06
2.91033e-06
2.85172e-06
2.79428e-06
2.738e-06
2.68286e-06
2.62882e-06
2.57587e-06
2.52398e-06
2.47314e-06
2.42331e-06
2.37449e-06
2.32665e-06
2.27977e-06
2.23384e-06
2.18882e-06
2.14471e-06
2.10149e-06
2.05914e-06
2.01763e-06
1.97696e-06
1.93711e-06
1.89806e-06
1.85979e-06
1.82229e-06
1.78555e-06
1.74954e-06
1.71426e-06
1.67969e-06
1.64581e-06
1.61261e-06
1.58008e-06
1.54821e-06
1.51697e-06
1.48637e-06
1.45638e-06
1.42699e-06
1.39819e-06
1.36998e-06
1.34233e-06
1.31524e-06
1.28869e-06
1.26268e-06
1.23719e-06
1.21221e-06
1.18774e-06
1.16376e-06
1.14026e-06
1.11724e-06
1.09468e-06
1.07257e-06
1.05091e-06
1.02969e-06
1.00889e-06
9.88512e-07
9.68544e-07
9.48979e-07
9.29808e-07
9.11024e-07
8.92617e-07
8.74582e-07
8.5691e-07
8.39595e-07
8.22628e-07
8.06004e-07
7.89714e-07
7.73753e-07
7.58114e-07
7.42791e-07
7.27777e-07
7.13065e-07
6.98651e-07
6.84529e-07
6.70691e-07
6.57134e-07
6.43851e-07
6.30836e-07
6.18085e-07
6.05593e-07
5.93354e-07
5.81363e-07
5.69614e-07
5.58104e-07
5.46828e-07
5.35779e-07
5.24954e-07
5.14348e-07
5.03955e-07
4.93771e-07
4.83791e-07
4.74011e-07
4.64425e-07
4.55028e-07
4.45816e-07
4.36784e-07
4.27926e-07
4.19238e-07
4.10714e-07
4.02349e-07
3.94139e-07
3.86079e-07
3.78162e-07
3.70384e-07
3.62741e-07
3.55226e-07
3.47835e-07
3.40564e-07
3.33406e-07
3.26357e-07
3.19413e-07
3.12569e-07
3.05821e-07
2.99164e-07
2.92594e-07
2.86108e-07
2.79701e-07
2.7337e-07
2.67111e-07
2.60923e-07
2.54801e-07
2.48743e-07
2.42748e-07
2.36812e-07
2.30934e-07
2.25113e-07
2.19346e-07
2.13634e-07
2.07975e-07
2.0237e-07
1.96816e-07
1.91315e-07
1.85867e-07
1.80472e-07
1.75131e-07
1.69845e-07
1.64614e-07
1.59441e-07
1.54326e-07
1.49272e-07
1.44279e-07
1.39351e-07
1.34488e-07
1.29694e-07
1.24969e-07
1.20317e-07
1.1574e-07
1.1124e-07
1.0682e-07
1.0248e-07
9.82253e-08
9.4056e-08
8.99749e-08
8.59837e-08
8.20844e-08
7.82786e-08
7.45681e-08
7.09541e-08
6.74382e-08
6.40213e-08
6.07044e-08
5.74882e-08
5.43734e-08
5.13602e-08
4.84491e-08
4.564e-08
4.2933e-08
4.03274e-08
3.78233e-08
3.54193e-08
3.31153e-08
3.09095e-08
2.88015e-08
2.67891e-08
2.48719e-08
2.30469e-08
2.1314e-08
1.96693e-08
1.81128e-08
1.664e-08
1.52511e-08
1.39409e-08
1.27101e-08
1.15525e-08
1.04695e-08
9.45403e-09
8.5084e-09
7.62395e-09
6.80459e-09
6.03988e-09
5.33564e-09
4.67937e-09
4.07936e-09
3.52048e-09
3.01413e-09
2.54186e-09
2.11898e-09
1.72278e-09
1.37357e-09
1.04337e-09
7.58705e-10
4.84979e-10
2.56551e-10
3.05886e-11
-1.49093e-10
-3.35363e-10
-4.73043e-10
-6.26998e-10
-7.28796e-10
-8.57029e-10
-9.28469e-10
-1.03647e-09
-1.08271e-09
-1.17448e-09
-1.20101e-09
-1.27823e-09
-1.29226e-09
-1.35291e-09
-1.36615e-09
-1.40089e-09
-1.43543e-09
-1.41995e-09
-1.52176e-09
-1.39758e-09
-1.66965e-09
-1.28716e-09
-1.97843e-09
-8.58528e-10
-2.63107e-09
2.20045e-09
-1.67577e-09
-1.67577e-09
-0.146488
0.146488
0.0383105
0.014234
0.00745602
0.00467275
0.00323055
0.00237653
0.00182708
0.00145306
0.00118762
0.000992883
0.000845958
0.000732363
0.000642595
0.000570249
0.000510907
0.00046146
0.000419681
0.000383945
0.00035305
0.00032609
0.000302371
0.000281354
0.000262615
0.000245814
0.000230678
0.000216982
0.000204538
0.000193192
0.000182814
0.000173291
0.000164528
0.000156444
0.000148969
0.000142039
0.000135602
0.000129611
0.000124023
0.000118802
0.000113916
0.000109336
0.000105035
0.00010099
9.71815e-05
9.359e-05
9.01987e-05
8.69925e-05
8.39576e-05
8.10814e-05
7.83527e-05
7.5761e-05
7.3297e-05
7.09519e-05
6.87178e-05
6.65875e-05
6.45544e-05
6.26122e-05
6.07553e-05
5.89785e-05
5.7277e-05
5.56463e-05
5.40823e-05
5.25812e-05
5.11393e-05
4.97535e-05
4.84205e-05
4.71376e-05
4.59022e-05
4.47116e-05
4.35636e-05
4.2456e-05
4.13869e-05
4.03542e-05
3.93562e-05
3.83912e-05
3.74578e-05
3.65543e-05
3.56794e-05
3.48319e-05
3.40105e-05
3.32141e-05
3.24415e-05
3.16918e-05
3.09639e-05
3.02571e-05
2.95704e-05
2.8903e-05
2.82541e-05
2.76231e-05
2.70092e-05
2.64118e-05
2.58302e-05
2.5264e-05
2.47125e-05
2.41751e-05
2.36515e-05
2.31411e-05
2.26435e-05
2.21582e-05
2.16849e-05
2.12231e-05
2.07724e-05
2.03326e-05
1.99032e-05
1.9484e-05
1.90746e-05
1.86748e-05
1.82842e-05
1.79026e-05
1.75297e-05
1.71653e-05
1.68091e-05
1.64609e-05
1.61205e-05
1.57876e-05
1.54621e-05
1.51438e-05
1.48325e-05
1.45279e-05
1.423e-05
1.39385e-05
1.36533e-05
1.33742e-05
1.31011e-05
1.28338e-05
1.25722e-05
1.23161e-05
1.20655e-05
1.18201e-05
1.15799e-05
1.13447e-05
1.11144e-05
1.0889e-05
1.06682e-05
1.04521e-05
1.02404e-05
1.00331e-05
9.83005e-06
9.63121e-06
9.43647e-06
9.24573e-06
9.05891e-06
8.87592e-06
8.69667e-06
8.52109e-06
8.3491e-06
8.18061e-06
8.01556e-06
7.85387e-06
7.69547e-06
7.54029e-06
7.38826e-06
7.23932e-06
7.09339e-06
6.95043e-06
6.81035e-06
6.67312e-06
6.53866e-06
6.40691e-06
6.27783e-06
6.15135e-06
6.02743e-06
5.90601e-06
5.78704e-06
5.67047e-06
5.55624e-06
5.44432e-06
5.33465e-06
5.22719e-06
5.1219e-06
5.01872e-06
4.91762e-06
4.81856e-06
4.72149e-06
4.62637e-06
4.53316e-06
4.44183e-06
4.35233e-06
4.26464e-06
4.1787e-06
4.0945e-06
4.01199e-06
3.93113e-06
3.8519e-06
3.77427e-06
3.69819e-06
3.62364e-06
3.55059e-06
3.47901e-06
3.40887e-06
3.34014e-06
3.27279e-06
3.20679e-06
3.14212e-06
3.07875e-06
3.01666e-06
2.95581e-06
2.89619e-06
2.83776e-06
2.78051e-06
2.72441e-06
2.66944e-06
2.61558e-06
2.5628e-06
2.51108e-06
2.4604e-06
2.41075e-06
2.36209e-06
2.31441e-06
2.26769e-06
2.22191e-06
2.17706e-06
2.1331e-06
2.09004e-06
2.04783e-06
2.00648e-06
1.96597e-06
1.92626e-06
1.88736e-06
1.84924e-06
1.81189e-06
1.7753e-06
1.73944e-06
1.7043e-06
1.66987e-06
1.63613e-06
1.60308e-06
1.57069e-06
1.53895e-06
1.50785e-06
1.47738e-06
1.44752e-06
1.41827e-06
1.3896e-06
1.36152e-06
1.334e-06
1.30703e-06
1.28061e-06
1.25473e-06
1.22936e-06
1.20451e-06
1.18016e-06
1.1563e-06
1.13293e-06
1.11003e-06
1.08759e-06
1.06561e-06
1.04407e-06
1.02297e-06
1.0023e-06
9.82044e-07
9.622e-07
9.42758e-07
9.23708e-07
9.05043e-07
8.86753e-07
8.68831e-07
8.51267e-07
8.34054e-07
8.17182e-07
8.00642e-07
7.84427e-07
7.68527e-07
7.52933e-07
7.37637e-07
7.2263e-07
7.07902e-07
6.93445e-07
6.79249e-07
6.65306e-07
6.51606e-07
6.38141e-07
6.24902e-07
6.1188e-07
5.99066e-07
5.86451e-07
5.74028e-07
5.61787e-07
5.49722e-07
5.37824e-07
5.26085e-07
5.14499e-07
5.03059e-07
4.91758e-07
4.8059e-07
4.69549e-07
4.58631e-07
4.4783e-07
4.37141e-07
4.26561e-07
4.16086e-07
4.05714e-07
3.95441e-07
3.85265e-07
3.75185e-07
3.65199e-07
3.55306e-07
3.45507e-07
3.35801e-07
3.26189e-07
3.16671e-07
3.07249e-07
2.97925e-07
2.887e-07
2.79577e-07
2.70559e-07
2.61648e-07
2.52848e-07
2.44162e-07
2.35593e-07
2.27146e-07
2.18824e-07
2.10632e-07
2.02573e-07
1.94651e-07
1.8687e-07
1.79235e-07
1.71749e-07
1.64417e-07
1.57241e-07
1.50224e-07
1.43371e-07
1.36685e-07
1.30167e-07
1.23821e-07
1.17648e-07
1.11651e-07
1.05831e-07
1.0019e-07
9.47274e-08
8.94451e-08
8.43434e-08
7.94218e-08
7.46806e-08
7.01186e-08
6.57356e-08
6.15293e-08
5.74993e-08
5.36423e-08
4.99577e-08
4.64414e-08
4.30927e-08
3.99064e-08
3.68817e-08
3.40123e-08
3.12977e-08
2.87302e-08
2.63099e-08
2.40277e-08
2.18846e-08
1.987e-08
1.79862e-08
1.62205e-08
1.4577e-08
1.30407e-08
1.1618e-08
1.0291e-08
9.06951e-09
7.93199e-09
6.89244e-09
5.92493e-09
5.04871e-09
4.23222e-09
3.50138e-09
2.81743e-09
2.21478e-09
1.64566e-09
1.15521e-09
6.84356e-10
2.91504e-10
-9.63406e-11
-4.04682e-10
-7.23586e-10
-9.59241e-10
-1.22209e-09
-1.39571e-09
-1.61398e-09
-1.73517e-09
-1.91842e-09
-1.99612e-09
-2.1513e-09
-2.19496e-09
-2.3252e-09
-2.34712e-09
-2.44913e-09
-2.46915e-09
-2.52742e-09
-2.58287e-09
-2.55662e-09
-2.72499e-09
-2.51611e-09
-2.97079e-09
-2.3284e-09
-3.48714e-09
-1.60909e-09
-4.57058e-09
3.44452e-09
-2.9794e-09
-2.9794e-09
-0.160438
0.160438
0.0519966
0.0211683
0.0113796