# vtk DataFile Version 2.0
FlowField
ASCII
DATASET STRUCTURED_GRID
DIMENSIONS 400 1 200
POINTS 80000 float
0 0 0
0.08 0 0
0.16 0 0
0.24 0 0
0.32 0 0
0.4 0 0
0.48 0 0
0.56 0 0
0.64 0 0
0.72 0 0
0.8 0 0
0.88 0 0
0.96 0 0
1.04 0 0
1.12 0 0
1.2 0 0
1.28 0 0
1.36 0 0
1.44 0 0
1.52 0 0
1.6 0 0
1.68 0 0
1.76 0 0
1.84 0 0
1.92 0 0
2 0 0
2.08 0 0
2.16 0 0
2.24 0 0
2.32 0 0
2.4 0 0
2.48 0 0
2.56 0 0
2.64 0 0
2.72 0 0
2.8 0 0
2.88 0 0
2.96 0 0
3.04 0 0
3.12 0 0
3.2 0 0
3.28 0 0
3.36 0 0
3.44 0 0
3.52 0 0
3.6 0 0
3.68 0 0
3.76 0 0
3.84 0 0
3.92 0 0
4 0 0
4.08 0 0
4.16 0 0
4.24 0 0
4.32 0 0
4.4 0 0
4.48 0 0
4.56 0 0
4.64 0 0
4.72 0 0
4.8 0 0
4.88 0 0
4.96 0 0
5.04 0 0
5.12 0 0
5.2 0 0
5.28 0 0
5.36 0 0
5.44 0 0
5.52 0 0
5.6 0 0
5.68 0 0
5.76 0 0
5.84 0 0
5.92 0 0
6 0 0
6.08 0 0
6.16 0 0
6.24 0 0
6.32 0 0
6.4 0 0
6.48 0 0
6.56 0 0
6.64 0 0
6.72 0 0
6.8 0 0
6.88 0 0
6.96 0 0
7.04 0 0
7.12 0 0
7.2 0 0
7.28 0 0
7.36 0 0
7.44 0 0
7.52 0 0
7.6 0 0
7.68 0 0
7.76 0 0
7.84 0 0
7.92 0 0
8 0 0
8.08 0 0
8.16 0 0
8.24 0 0
8.32 0 0
8.4 0 0
8.48 0 0
8.56 0 0
8.64 0 0
8.72 0 0
8.8 0 0
8.88 0 0
8.96 0 0
9.04 0 0
9.12 0 0
9.2 0 0
9.28 0 0
9.36 0 0
9.44 0 0
9.52 0 0
9.6 0 0
9.68 0 0
9.76 0 0
9.84 0 0
9.92 0 0
10 0 0
10.08 0 0
10.16 0 0
10.24 0 0
10.32 0 0
10.4 0 0
10.48 0 0
10.56 0 0
10.64 0 0
10.72 0 0
10.8 0 0
10.88 0 0
10.96 0 0
11.04 0 0
11.12 0 0
11.2 0 0
11.28 0 0
11.36 0 0
11.44 0 0
11.52 0 0
11.6 0 0
11.68 0 0
11.76 0 0
11.84 0 0
11.92 0 0
12 0 0
12.08 0 0
12.16 0 0
12.24 0 0
12.32 0 0
12.4 0 0
12.48 0 0
12.56 0 0
12.64 0 0
12.72 0 0
12.8 0 0
12.88 0 0
12.96 0 0
13.04 0 0
13.12 0 0
13.2 0 0
13.28 0 0
13.36 0 0
13.44 0 0
13.52 0 0
13.6 0 0
13.68 0 0
13.76 0 0
13.84 0 0
13.92 0 0
14 0 0
14.08 0 0
14.16 0 0
14.24 0 0
14.32 0 0
14.4 0 0
14.48 0 0
14.56 0 0
14.64 0 0
14.72 0 0
14.8 0 0
14.88 0 0
14.96 0 0
15.04 0 0
15.12 0 0
15.2 0 0
15.28 0 0
15.36 0 0
15.44 0 0
15.52 0 0
15.6 0 0
15.68 0 0
15.76 0 0
15.84 0 0
15.92 0 0
16 0 0
16.08 0 0
16.16 0 0
16.24 0 0
16.32 0 0
16.4 0 0
16.48 0 0
16.56 0 0
16.64 0 0
16.72 0 0
16.8 0 0
16.88 0 0
16.96 0 0
17.04 0 0
17.12 0 0
17.2 0 0
17.28 0 0
17.36 0 0
17.44 0 0
17.52 0 0
17.6 0 0
17.68 0 0
17.76 0 0
17.84 0 0
17.92 0 0
18 0 0
18.08 0 0
18.16 0 0
18.24 0 0
18.32 0 0
18.4 0 0
18.48 0 0
18.56 0 0
18.64 0 0
18.72 0 0
18.8 0 0
18.88 0 0
18.96 0 0
19.04 0 0
19.12 0 0
19.2 0 0
19.28 0 0
19.36 0 0
19.44 0 0
19.52 0 0
19.6 0 0
19.68 0 0
19.76 0 0
19.84 0 0
19.92 0 0
20 0 0
20.08 0 0
20.16 0 0
20.24 0 0
20.32 0 0
20.4 0 0
20.48 0 0
20.56 0 0
20.64 0 0
20.72 0 0
20.8 0 0
20.88 0 0
20.96 0 0
21.04 0 0
21.12 0 0
21.2 0 0
21.28 0 0
21.36 0 0
21.44 0 0
21.52 0 0
21.6 0 0
21.68 0 0
21.76 0 0
21.84 0 0
21.92 0 0
22 0 0
22.08 0 0
22.16 0 0
22.24 0 0
22.32 0 0
22.4 0 0
22.48 0 0
22.56 0 0
22.64 0 0
22.72 0 0
22.8 0 0
22.88 0 0
22.96 0 0
23.04 0 0
23.12 0 0
23.2 0 0
23.28 0 0
23.36 0 0
23.44 0 0
23.52 0 0
23.6 0 0
23.68 0 0
23.76 0 0
23.84 0 0
23.92 0 0
24 0 0
24.08 0 0
24.16 0 0
24.24 0 0
24.32 0 0
24.4 0 0
24.48 0 0
24.56 0 0
24.64 0 0
24.72 0 0
24.8 0 0
24.88 0 0
24.96 0 0
25.04 0 0
25.12 0 0
25.2 0 0
25.28 0 0
25.36 0 0
25.44 0 0
25.52 0 0
25.6 0 0
25.68 0 0
25.76 0 0
25.84 0 0
25.92 0 0
26 0 0
26.08 0 0
26.16 0 0
26.24 0 0
26.32 0 0
26.4 0 0
26.48 0 0
26.56 0 0
26.64 0 0
26.72 0 0
26.8 0 0
26.88 0 0
26.96 0 0
27.04 0 0
27.12 0 0
27.2 0 0
27.28 0 0
27.36 0 0
27.44 0 0
27.52 0 0
27.6 0 0
27.68 0 0
27.76 0 0
27.84 0 0
27.92 0 0
28 0 0
28.08 0 0
28.16 0 0
28.24 0 0
28.32 0 0
28.4 0 0
28.48 0 0
28.56 0 0
28.64 0 0
28.72 0 0
28.8 0 0
28.88 0 0
28.96 0 0
29.04 0 0
29.12 0 0
29.2 0 0
29.28 0 0
29.36 0 0
29.44 0 0
29.52 0 0
29.6 0 0
29.68 0 0
29.76 0 0
29.84 0 0
29.92 0 0
30 0 0
30.08 0 0
30.16 0 0
30.24 0 0
30.32 0 0
30.4 0 0
30.48 0 0
30.56 0 0
30.64 0 0
30.72 0 0
30.8 0 0
30.88 0 0
30.96 0 0
31.04 0 0
31.12 0 0
31.2 0 0
31.28 0 0
31.36 0 0
31.44 0 0
31.52 0 0
31.6 0 0
31.68 0 0
31.76 0 0
31.84 0 0
31.92 0 0
0 0.005 0
0.08 0.005 0
0.16 0.005 0
0.24 0.005 0
0.32 0.005 0
0.4 0.005 0
0.48 0.005 0
0.56 0.005 0
0.64 0.005 0
0.72 0.005 0
0.8 0.005 0
0.88 0.005 0
0.96 0.005 0
1.04 0.005 0
1.12 0.005 0
1.2 0.005 0
1.28 0.005 0
1.36 0.005 0
1.44 0.005 0
1.52 0.005 0
1.6 0.005 0
1.68 0.005 0
1.76 0.005 0
1.84 0.005 0
1.92 0.005 0
2 0.005 0
2.08 0.005 0
2.16 0.005 0
2.24 0.005 0
2.32 0.005 0
2.4 0.005 0
2.48 0.005 0
2.56 0.005 0
2.64 0.005 0
2.72 0.005 0
2.8 0.005 0
2.88 0.005 0
2.96 0.005 0
3.04 0.005 0
3.12 0.005 0
3.2 0.005 0
3.28 0.005 0
3.36 0.005 0
3.44 0.005 0
3.52 0.005 0
3.6 0.005 0
3.68 0.005 0
3.76 0.005 0
3.84 0.005 0
3.92 0.005 0
4 0.005 0
4.08 0.005 0
4.16 0.005 0
4.24 0.005 0
4.32 0.005 0
4.4 0.005 0
4.48 0.005 0
4.56 0.005 0
4.64 0.005 0
4.72 0.005 0
4.8 0.005 0
4.88 0.005 0
4.96 0.005 0
5.04 0.005 0
5.12 0.005 0
5.2 0.005 0
5.28 0.005 0
5.36 0.005 0
5.44 0.005 0
5.52 0.005 0
5.6 0.005 0
5.68 0.005 0
5.76 0.005 0
5.84 0.005 0
5.92 0.005 0
6 0.005 0
6.08 0.005 0
6.16 0.005 0
6.24 0.005 0
6.32 0.005 0
6.4 0.005 0
6.48 0.005 0
6.56 0.005 0
6.64 0.005 0
6.72 0.005 0
6.8 0.005 0
6.88 0.005 0
6.96 0.005 0
7.04 0.005 0
7.12 0.005 0
7.2 0.005 0
7.28 0.005 0
7.36 0.005 0
7.44 0.005 0
7.52 0.005 0
7.6 0.005 0
7.68 0.005 0
7.76 0.005 0
7.84 0.005 0
7.92 0.005 0
8 0.005 0
8.08 0.005 0
8.16 0.005 0
8.24 0.005 0
8.32 0.005 0
8.4 0.005 0
8.48 0.005 0
8.56 0.005 0
8.64 0.005 0
8.72 0.005 0
8.8 0.005 0
8.88 0.005 0
8.96 0.005 0
9.04 0.005 0
9.12 0.005 0
9.2 0.005 0
9.28 0.005 0
9.36 0.005 0
9.44 0.005 0
9.52 0.005 0
9.6 0.005 0
9.68 0.005 0
9.76 0.005 0
9.84 0.005 0
9.92 0.005 0
10 0.005 0
10.08 0.005 0
10.16 0.005 0
10.24 0.005 0
10.32 0.005 0
10.4 0.005 0
10.48 0.005 0
10.56 0.005 0
10.64 0.005 0
10.72 0.005 0
10.8 0.005 0
10.88 0.005 0
10.96 0.005 0
11.04 0.005 0
11.12 0.005 0
11.2 0.005 0
11.28 0.005 0
11.36 0.005 0
11.44 0.005 0
11.52 0.005 0
11.6 0.005 0
11.68 0.005 0
11.76 0.005 0
11.84 0.005 0
11.92 0.005 0
12 0.005 0
12.08 0.005 0
12.16 0.005 0
12.24 0.005 0
12.32 0.005 0
12.4 0.005 0
12.48 0.005 0
12.56 0.005 0
12.64 0.005 0
12.72 0.005 0
12.8 0.005 0
12.88 0.005 0
12.96 0.005 0
13.04 0.005 0
13.12 0.005 0
13.2 0.005 0
13.28 0.005 0
13.36 0.005 0
13.44 0.005 0
13.52 0.005 0
13.6 0.005 0
13.68 0.005 0
13.76 0.005 0
13.84 0.005 0
13.92 0.005 0
14 0.005 0
14.08 0.005 0
14.16 0.005 0
14.24 0.005 0
14.32 0.005 0
14.4 0.005 0
14.48 0.005 0
14.56 0.005 0
14.64 0.005 0
14.72 0.005 0
14.8 0.005 0
14.88 0.005 0
14.96 0.005 0
15.04 0.005 0
15.12 0.005 0
15.2 0.005 0
15.28 0.005 0
15.36 0.005 0
15.44 0.005 0
15.52 0.005 0
15.6 0.005 0
15.68 0.005 0
15.76 0.005 0
15.84 0.005 0
15.92 0.005 0
16 0.005 0
16.08 0.005 0
16.16 0.005 0
16.24 0.005 0
16.32 0.005 0
16.4 0.005 0
16.48 0.005 0
16.56 0.005 0
16.64 0.005 0
16.72 0.005 0
16.8 0.005 0
16.88 0.005 0
16.96 0.005 0
17.04 0.005 0
17.12 0.005 0
17.2 0.005 0
17.28 0.005 0
17.36 0.005 0
17.44 0.005 0
17.52 0.005 0
17.6 0.005 0
17.68 0.005 0
17.76 0.005 0
17.84 0.005 0
17.92 0.005 0
18 0.005 0
18.08 0.005 0
18.16 0.005 0
18.24 0.005 0
18.32 0.005 0
18.4 0.005 0
18.48 0.005 0
18.56 0.005 0
18.64 0.005 0
18.72 0.005 0
18.8 0.005 0
18.88 0.005 0
18.96 0.005 0
19.04 0.005 0
19.12 0.005 0
19.2 0.005 0
19.28 0.005 0
19.36 0.005 0
19.44 0.005 0
19.52 0.005 0
19.6 0.005 0
19.68 0.005 0
19.76 0.005 0
19.84 0.005 0
19.92 0.005 0
20 0.005 0
20.08 0.005 0
20.16 0.005 0
20.24 0.005 0
20.32 0.005 0
20.4 0.005 0
20.48 0.005 0
20.56 0.005 0
20.64 0.005 0
20.72 0.005 0
20.8 0.005 0
20.88 0.005 0
20.96 0.005 0
21.04 0.005 0
21.12 0.005 0
21.2 0.005 0
21.28 0.005 0
21.36 0.005 0
21.44 0.005 0
21.52 0.005 0
21.6 0.005 0
21.68 0.005 0
21.76 0.005 0
21.84 0.005 0
21.92 0.005 0
22 0.005 0
22.08 0.005 0
22.16 0.005 0
22.24 0.005 0
22.32 0.005 0
22.4 0.005 0
22.48 0.005 0
22.56 0.005 0
22.64 0.005 0
22.72 0.005 0
22.8 0.005 0
22.88 0.005 0
22.96 0.005 0
23.04 0.005 0
23.12 0.005 0
23.2 0.005 0
23.28 0.005 0
23.36 0.005 0
23.44 0.005 0
23.52 0.005 0
23.6 0.005 0
23.68 0.005 0
23.76 0.005 0
23.84 0.005 0
23.92 0.005 0
24 0.005 0
24.08 0.005 0
24.16 0.005 0
24.24 0.005 0
24.32 0.005 0
24.4 0.005 0
24.48 0.005 0
24.56 0.005 0
24.64 0.005 0
24.72 0.005 0
24.8 0.005 0
24.88 0.005 0
24.96 0.005 0
25.04 0.005 0
25.12 0.005 0
25.2 0.005 0
25.28 0.005 0
25.36 0.005 0
25.44 0.005 0
25.52 0.005 0
25.6 0.005 0
25.68 0.005 0
25.76 0.005 0
25.84 0.005 0
25.92 0.005 0
26 0.005 0
26.08 0.005 0
26.16 0.005 0
26.24 0.005 0
26.32 0.005 0
26.4 0.005 0
26.48 0.005 0
26.56 0.005 0
26.64 0.005 0
26.72 0.005 0
26.8 0.005 0
26.88 0.005 0
26.96 0.005 0
27.04 0.005 0
27.12 0.005 0
27.2 0.005 0
27.28 0.005 0
27.36 0.005 0
27.44 0.005 0
27.52 0.005 0
27.6 0.005 0
27.68 0.005 0
27.76 0.005 0
27.84 0.005 0
27.92 0.005 0
28 0.005 0
28.08 0.005 0
28.16 0.005 0
28.24 0.005 0
28.32 0.005 0
28.4 0.005 0
28.48 0.005 0
28.56 0.005 0
28.64 0.005 0
28.72 0.005 0
28.8 0.005 0
28.88 0.005 0
28.96 0.005 0
29.04 0.005 0
29.12 0.005 0
29.2 0.005 0
29.28 0.005 0
29.36 0.005 0
29.44 0.005 0
29.52 0.005 0
29.6 0.005 0
29.68 0.005 0
29.76 0.005 0
29.84 0.005 0
29.92 0.005 0
30 0.005 0
30.08 0.005 0
30.16 0.005 0
30.24 0.005 0
30.32 0.005 0
30.4 0.005 0
30.48 0.005 0
30.56 0.005 0
30.64 0.005 0
30.72 0.005 0
30.8 0.005 0
30.88 0.005 0
30.96 0.005 0
31.04 0.005 0
31.12 0.005 0
31.2 0.005 0
31.28 0.005 0
31.36 0.005 0
31.44 0.005 0
31.52 0.005 0
31.6 0.005 0
31.68 0.005 0
31.76 0.005 0
31.84 0.005 0
31.92 0.005 0
0 0.01 0
0.08 0.01 0
0.16 0.01 0
0.24 0.01 0
0.32 0.01 0
0.4 0.01 0
0.48 0.01 0
0.56 0.01 0
0.64 0.01 0
0.72 0.01 0
0.8 0.01 0
0.88 0.01 0
0.96 0.01 0
1.04 0.01 0
1.12 0.01 0
1.2 0.01 0
1.28 0.01 0
1.36 0.01 0
1.44 0.01 0
1.52 0.01 0
1.6 0.01 0
1.68 0.01 0
1.76 0.01 0
1.84 0.01 0
1.92 0.01 0
2 0.01 0
2.08 0.01 0
2.16 0.01 0
2.24 0.01 0
2.32 0.01 0
2.4 0.01 0
2.48 0.01 0
2.56 0.01 0
2.64 0.01 0
2.72 0.01 0
2.8 0.01 0
2.88 0.01 0
2.96 0.01 0
3.04 0.01 0
3.12 0.01 0
3.2 0.01 0
3.28 0.01 0
3.36 0.01 0
3.44 0.01 0
3.52 0.01 0
3.6 0.01 0
3.68 0.01 0
3.76 0.01 0
3.84 0.01 0
3.92 0.01 0
4 0.01 0
4.08 0.01 0
4.16 0.01 0
4.24 0.01 0
4.32 0.01 0
4.4 0.01 0
4.48 0.01 0
4.56 0.01 0
4.64 0.01 0
4.72 0.01 0
4.8 0.01 0
4.88 0.01 0
4.96 0.01 0
5.04 0.01 0
5.12 0.01 0
[...]
POINT_DATA 80000

SCALARS u float 1
LOOKUP_TABLE default
0
-0.131663
-0.068269
-0.0522958
-0.0444196
-0.0395765
-0.0362593
-0.0338323
-0.0319723
-0.0304956
-0.0292895
-0.0282812
-0.0274216
-0.026677
-0.026023
-0.0254421
-0.0249212
-0.0244502
-0.0240216
-0.0236291
-0.023268
-0.0229343
-0.0226247
-0.0223365
-0.0220674
-0.0218154
-0.0215789
-0.0213563
-0.0211464
-0.0209482
-0.0207605
-0.0205826
-0.0204137
-0.020253
-0.0201
-0.019954
-0.0198147
-0.0196815
-0.019554
-0.0194319
-0.0193148
-0.0192024
-0.0190944
-0.0189905
-0.0188906
-0.0187943
-0.0187015
-0.018612
-0.0185256
-0.0184422
-0.0183616
-0.0182836
-0.0182081
-0.0181351
-0.0180644
-0.0179958
-0.0179293
-0.0178649
-0.0178023
-0.0177415
-0.0176825
-0.0176252
-0.0175695
-0.0175153
-0.0174626
-0.0174114
-0.0173615
-0.0173129
-0.0172656
-0.0172195
-0.0171746
-0.0171308
-0.0170881
-0.0170465
-0.017006
-0.0169664
-0.0169277
-0.01689
-0.0168532
-0.0168173
-0.0167822
-0.016748
-0.0167145
-0.0166818
-0.0166498
-0.0166186
-0.0165881
-0.0165583
-0.0165291
-0.0165006
-0.0164727
-0.0164454
-0.0164188
-0.0163927
-0.0163672
-0.0163422
-0.0163178
-0.0162939
-0.0162705
-0.0162476
-0.0162252
-0.0162033
-0.0161818
-0.0161608
-0.0161403
-0.0161202
-0.0161004
-0.0160811
-0.0160623
-0.0160438
-0.0160256
-0.0160079
-0.0159905
-0.0159735
-0.0159569
-0.0159405
-0.0159246
-0.0159089
-0.0158936
-0.0158785
-0.0158638
-0.0158494
-0.0158353
-0.0158215
-0.0158079
-0.0157947
-0.0157817
-0.0157689
-0.0157564
-0.0157442
-0.0157322
-0.0157205
-0.015709
-0.0156978
-0.0156867
-0.0156759
-0.0156653
-0.0156549
-0.0156448
-0.0156348
-0.015625
-0.0156155
-0.0156061
-0.0155969
-0.0155879
-0.0155791
-0.0155705
-0.015562
-0.0155537
-0.0155456
-0.0155376
-0.0155298
-0.0155222
-0.0155147
-0.0155073
-0.0155001
-0.0154931
-0.0154862
-0.0154794
-0.0154728
-0.0154663
-0.0154599
-0.0154537
-0.0154476
-0.0154416
-0.0154357
-0.01543
-0.0154243
-0.0154188
-0.0154134
-0.0154081
-0.0154029
-0.0153978
-0.0153928
-0.0153879
-0.0153831
-0.0153784
-0.0153738
-0.0153693
-0.0153649
-0.0153606
-0.0153564
-0.0153522
-0.0153481
-0.0153441
-0.0153402
-0.0153364
-0.0153326
-0.015329
-0.0153254
-0.0153218
-0.0153184
-0.015315
-0.0153117
-0.0153084
-0.0153053
-0.0153021
-0.0152991
-0.0152961
-0.0152932
-0.0152904
-0.0152876
-0.0152848
-0.0152822
-0.0152796
-0.015277
-0.0152746
-0.0152721
-0.0152698
-0.0152675
-0.0152653
-0.0152631
-0.0152609
-0.0152589
-0.0152569
-0.0152549
-0.015253
-0.0152512
-0.0152494
-0.0152477
-0.015246
-0.0152444
-0.0152428
-0.0152413
-0.0152399
-0.0152385
-0.0152371
-0.0152358
-0.0152346
-0.0152334
-0.0152322
-0.0152311
-0.0152301
-0.0152291
-0.0152281
-0.0152272
-0.0152263
-0.0152255
-0.0152247
-0.0152239
-0.0152232
-0.0152226
-0.0152219
-0.0152213
-0.0152208
-0.0152202
-0.0152197
-0.0152193
-0.0152188
-0.0152184
-0.015218
-0.0152177
-0.0152174
-0.015217
-0.0152168
-0.0152165
-0.0152163
-0.015216
-0.0152158
-0.0152157
-0.0152155
-0.0152154
-0.0152152
-0.0152151
-0.015215
-0.0152149
-0.0152148
-0.0152147
-0.0152147
-0.0152146
-0.0152146
-0.0152145
-0.0152145
-0.0152144
-0.0152144
-0.0152144
-0.0152144
-0.0152144
-0.0152144
-0.0152144
-0.0152144
-0.0152144
-0.0152144
-0.0152144
-0.0152144
-0.0152144
-0.0152144
-0.0152144
-0.0152144
-0.0152145
-0.0152145
-0.0152145
-0.0152145
-0.0152145
-0.0152145
-0.0152145
-0.0152146
-0.0152146
-0.0152146
-0.0152146
-0.0152146
-0.0152146
-0.0152147
-0.0152147
-0.0152147
-0.0152147
-0.0152147
-0.0152147
-0.0152148
-0.0152148
-0.0152148
-0.0152148
-0.0152148
-0.0152148
-0.0152149
-0.0152149
-0.0152149
-0.0152149
-0.0152149
-0.0152149
-0.015215
-0.015215
-0.015215
-0.015215
-0.015215
-0.015215
-0.0152151
-0.0152151
-0.0152151
-0.0152151
-0.0152151
-0.0152151
-0.0152152
-0.0152152
-0.0152152
-0.0152152
-0.0152152
-0.0152152
-0.0152153
-0.0152153
-0.0152153
-0.0152153
-0.0152153
-0.0152153
-0.0152154
-0.0152154
-0.0152154
-0.0152154
-0.0152154
-0.0152155
-0.0152155
-0.0152155
-0.0152155
-0.0152155
-0.0152155
-0.0152156
-0.0152156
-0.0152156
-0.0152156
-0.0152156
-0.0152156
-0.0152157
-0.0152157
-0.0152157
-0.0152157
-0.0152157
-0.0152157
-0.0152158
-0.0152158
-0.0152158
-0.0152158
-0.0152158
-0.0152158
-0.0152159
-0.0152159
-0.0152159
-0.0152159
-0.0152159
-0.015216
-0.015216
-0.015216
-0.015216
-0.015216
-0.015216
-0.0152161
-0.0152161
-0.0152161
-0.0152161
-0.0152161
-0.0152161
-0.0152162
-0.0152162
-0.0152162
-0.0152162
-0.0152162
-0.0152162
-0.0152163
-0.0152162
-0.0152162
-0.0152162
1
0.131663
0.068269
0.0522958
0.0444196
0.0395765
0.0362593
0.0338323
0.0319723
0.0304956
0.0292895
0.0282812
0.0274216
0.026677
0.026023
0.0254421
0.0249212
0.0244502
0.0240216
0.0236291
0.023268
0.0229343
0.0226247
0.0223365
0.0220674
0.0218154
0.0215789
0.0213563
0.0211464
0.0209482
0.0207605
0.0205826
0.0204137
0.020253
0.0201
0.019954
0.0198147
0.0196815
0.019554
0.0194319
0.0193148
0.0192024
0.0190944
0.0189905
0.0188906
0.0187943
0.0187015
0.018612
0.0185256
0.0184422
0.0183616
0.0182836
0.0182081
0.0181351
0.0180644
0.0179958
0.0179293
0.0178649
0.0178023
0.0177415
0.0176825
0.0176252
0.0175695
0.0175153
0.0174626
0.0174114
0.0173615
0.0173129
0.0172656
0.0172195
0.0171746
0.0171308
0.0170881
0.0170465
0.017006
0.0169664
0.0169277
0.01689
0.0168532
0.0168173
0.0167822
0.016748
0.0167145
0.0166818
0.0166498
0.0166186
0.0165881
0.0165583
0.0165291
0.0165006
0.0164727
0.0164454
0.0164188
0.0163927
0.0163672
0.0163422
0.0163178
0.0162939
0.0162705
0.0162476
0.0162252
0.0162033
0.0161818
0.0161608
0.0161403
0.0161202
0.0161004
0.0160811
0.0160623
0.0160438
0.0160256
0.0160079
0.0159905
0.0159735
0.0159569
0.0159405
0.0159246
0.0159089
0.0158936
0.0158785
0.0158638
0.0158494
0.0158353
0.0158215
0.0158079
0.0157947
0.0157817
0.0157689
0.0157564
0.0157442
0.0157322
0.0157205
0.015709
0.0156978
0.0156867
0.0156759
0.0156653
0.0156549
0.0156448
0.0156348
0.015625
0.0156155
0.0156061
0.0155969
0.0155879
0.0155791
0.0155705
0.015562
0.0155537
0.0155456
0.0155376
0.0155298
0.0155222
0.0155147
0.0155073
0.0155001
0.0154931
0.0154862
0.0154794
0.0154728
0.0154663
0.0154599
0.0154537
0.0154476
0.0154416
0.0154357
0.01543
0.0154243
0.0154188
0.0154134
0.0154081
0.0154029
0.0153978
0.0153928
0.0153879
0.0153831
0.0153784
0.0153738
0.0153693
0.0153649
0.0153606
0.0153564
0.0153522
0.0153481
0.0153441
0.0153402
0.0153364
0.0153326
0.015329
0.0153254
0.0153218
0.0153184
0.015315
0.0153117
0.0153084
0.0153053
0.0153021
0.0152991
0.0152961
0.0152932
0.0152904
0.0152876
0.0152848
0.0152822
0.0152796
0.015277
0.0152746
0.0152721
0.0152698
0.0152675
0.0152653
0.0152631
0.0152609
0.0152589
0.0152569
0.0152549
0.015253
0.0152512
0.0152494
0.0152477
0.015246
0.0152444
0.0152428
0.0152413
0.0152399
0.0152385
0.0152371
0.0152358
0.0152346
0.0152334
0.0152322
0.0152311
0.0152301
0.0152291
0.0152281
0.0152272
0.0152263
0.0152255
0.0152247
0.0152239
0.0152232
0.0152226
0.0152219
0.0152213
0.0152208
0.0152202
0.0152197
0.0152193
0.0152188
0.0152184
0.015218
0.0152177
0.0152174
0.015217
0.0152168
0.0152165
0.0152163
0.015216
0.0152158
0.0152157
0.0152155
0.0152154
0.0152152
0.0152151
0.015215
0.0152149
0.0152148
0.0152147
0.0152147
0.0152146
0.0152146
0.0152145
0.0152145
0.0152144
0.0152144
0.0152144
0.0152144
0.0152144
0.0152144
0.0152144
0.0152144
0.0152144
0.0152144
0.0152144
0.0152144
0.0152144
0.0152144
0.0152144
0.0152144
0.0152145
0.0152145
0.0152145
0.0152145
0.0152145
0.0152145
0.0152145
0.0152146
0.0152146
0.0152146
0.0152146
0.0152146
0.0152146
0.0152147
0.0152147
0.0152147
0.0152147
0.0152147
0.0152147
0.0152148
0.0152148
0.0152148
0.0152148
0.0152148
0.0152148
0.0152149
0.0152149
0.0152149
0.0152149
0.0152149
0.0152149
0.015215
0.015215
0.015215
0.015215
0.015215
0.015215
0.0152151
0.0152151
0.0152151
0.0152151
0.0152151
0.0152151
0.0152152
0.0152152
0.0152152
0.0152152
0.0152152
0.0152152
0.0152153
0.0152153
0.0152153
0.0152153
0.0152153
0.0152153
0.0152154
0.0152154
0.0152154
0.0152154
0.0152154
0.0152155
0.0152155
0.0152155
0.0152155
0.0152155
0.0152155
0.0152156
0.0152156
0.0152156
0.0152156
0.0152156
0.0152156
0.0152157
0.0152157
0.0152157
0.0152157
0.0152157
0.0152157
0.0152158
0.0152158
0.0152158
0.0152158
0.0152158
0.0152158
0.0152159
0.0152159
0.0152159
0.0152159
0.0152159
0.015216
0.015216
0.015216
0.015216
0.015216
0.015216
0.0152161
0.0152161
0.0152161
0.0152161
0.0152161
0.0152161
0.0152162
0.0152162
0.0152162
0.0152162
0.0152162
0.0152162
0.0152163
0.0152162
0.0152162
0.0152162
1
0.344884
0.200667
0.154967
0.131894
0.117598
0.107767
0.100557
0.0950241
0.0906281
0.0870369
0.0840349
0.0814768
0.0792616
0.0773171
0.0755909
0.0740437
0.0726457
0.0713738
0.0702098
0.0691392
0.06815
0.0672326
0.0663788
0.0655818
0.0648356
0.0641352
0.0634764
0.0628552
0.0622685
0.0617132
0.0611868
0.060687
0.0602117
0.0597591
0.0593275
0.0589154
0.0585215
0.0581446
0.0577835
0.0574373
0.0571049
0.0567857
0.0564786
0.0561832
0.0558987
0.0556244
0.0553599
0.0551046
0.0548581
0.0546198
0.0543894
0.0541665
0.0539507
0.0537417
0.0535392
0.0533428
0.0531524
0.0529676
0.0527881
0.0526139
0.0524446
0.0522801
0.0521201
0.0519645
0.0518131
0.0516658
0.0515223
0.0513826
0.0512466
0.051114
0.0509848
0.0508588
0.050736
0.0506162
0.0504993
0.0503853
0.0502741
0.0501654
0.0500594
0.0499559
0.0498547
0.049756
0.0496595
0.0495652
0.0494731
0.049383
0.049295
0.049209
0.0491249
0.0490426
0.0489622
0.0488835
0.0488066
0.0487313
0.0486577
0.0485857
0.0485152
0.0484462
0.0483787
0.0483126
0.048248
0.0481847
0.0481228
0.0480621
0.0480028
0.0479447
0.0478878
0.0478321
0.0477775
0.0477241
0.0476718
0.0476206
0.0475704
0.0475213
0.0474732
0.0474261
0.0473799
0.0473347
0.0472904
0.0472471
0.0472046
0.047163
0.0471222
0.0470823
0.0470432
0.0470049
0.0469673
0.0469305
0.0468945
0.0468592
0.0468246
0.0467908
0.0467576
0.046725
0.0466932
0.046662
0.0466314
0.0466014
0.046572
0.0465433
0.0465151
0.0464875
0.0464604
0.0464339
0.0464079
0.0463825
0.0463575
0.0463331
0.0463091
0.0462857
0.0462627
0.0462402
0.0462181
0.0461965
0.0461753
0.0461545
0.0461342
0.0461142
0.0460947
0.0460755
0.0460568
0.0460384
0.0460204
0.0460028
0.0459855
0.0459685
0.0459519
0.0459357
0.0459197
0.0459041
0.0458888
0.0458738
0.0458591
0.0458447
0.0458306
0.0458168
0.0458032
0.04579
0.0457769
0.0457642
0.0457517
0.0457395
0.0457275
0.0457157
0.0457042
0.0456929
0.0456819
0.0456711
0.0456604
0.0456501
0.0456399
0.0456299
0.0456202
0.0456106
0.0456013
0.0455921
0.0455831
0.0455744
0.0455658
0.0455574
0.0455492
0.0455412
0.0455334
0.0455258
0.0455183
0.045511
0.0455039
0.045497
0.0454902
0.0454837
0.0454773
0.0454711
0.045465
0.0454591
0.0454534
0.0454479
0.0454425
0.0454373
0.0454322
0.0454274
0.0454226
0.0454181
0.0454137
0.0454094
0.0454053
0.0454014
0.0453976
0.045394
0.0453905
0.0453871
0.0453839
0.0453809
0.0453779
0.0453752
0.0453725
0.0453699
0.0453675
0.0453652
0.0453631
0.045361
0.0453591
0.0453572
0.0453555
0.0453539
0.0453523
0.0453509
0.0453496
0.0453483
0.0453471
0.045346
0.045345
0.0453441
0.0453432
0.0453424
0.0453416
0.045341
0.0453403
0.0453398
0.0453393
0.0453388
0.0453384
0.045338
0.0453376
0.0453373
0.0453371
0.0453368
0.0453366
0.0453364
0.0453363
0.0453361
0.045336
0.0453359
0.0453358
0.0453358
0.0453357
0.0453357
0.0453357
0.0453356
0.0453356
0.0453356
0.0453357
0.0453357
0.0453357
0.0453357
0.0453357
0.0453358
0.0453358
0.0453359
0.0453359
0.0453359
0.045336
0.045336
0.0453361
0.0453361
0.0453362
0.0453362
0.0453363
0.0453363
0.0453364
0.0453364
0.0453365
0.0453365
0.0453366
0.0453366
0.0453367
0.0453367
0.0453368
0.0453368
0.0453369
0.0453369
0.045337
0.045337
0.0453371
0.0453371
0.0453372
0.0453372
0.0453373
0.0453373
0.0453374
0.0453374
0.0453375
0.0453375
0.0453376
0.0453376
0.0453377
0.0453377
0.0453378
0.0453378
0.0453379
0.0453379
0.045338
0.045338
0.0453381
0.0453381
0.0453382
0.0453382
0.0453383
0.0453383
0.0453384
0.0453384
0.0453385
0.0453385
0.0453386
0.0453386
0.0453387
0.0453387
0.0453388
0.0453388
0.0453389
0.0453389
0.045339
0.045339
0.0453391
0.0453391
0.0453392
0.0453392
0.0453393
0.0453393
0.0453394
0.0453394
0.0453395
0.0453395
0.0453396
0.0453396
0.0453397
0.0453397
0.0453398
0.0453398
0.0453399
0.04534
0.04534
0.0453401
0.0453401
0.0453402
0.0453402
0.0453403
0.0453403
0.0453404
0.0453404
0.0453405
0.0453405
0.0453406
0.0453406
0.0453407
0.0453407
0.0453408
0.0453408
0.0453409
0.0453409
0.045341
0.045341
0.0453411
0.0453411
0.0453412
0.0453412
0.0453413
0.0453413
0.0453413
0.0453413
1
0.518765
0.327401
0.255347
0.217848
0.194403
0.178211
0.166306
0.157157
0.149882
0.143938
0.138968
0.134734
0.131068
0.127852
0.124998
0.122441
0.120131
0.118031
0.116109
0.114342
0.11271
0.111196
0.109788
0.108473
0.107243
0.106088
0.105002
0.103978
0.103011
0.102096
0.101229
0.100405
0.0996219
0.0988762
0.0981651
0.0974863
0.0968375
0.0962167
0.095622
0.0950517
0.0945044
0.0939786
0.093473
0.0929866
0.092518
0.0920665
0.091631
0.0912107
0.0908048
0.0904126
0.0900333
0.0896664
0.0893112
0.0889672
0.0886339
0.0883107
0.0879972
0.0876931
0.0873978
0.0871111
0.0868325
0.0865618
0.0862985
0.0860425
0.0857934
0.085551
0.0853151
0.0850853
0.0848614
0.0846433
0.0844308
0.0842236
0.0840215
0.0838245
0.0836323
0.0834448
0.0832618
0.0830831
0.0829088
0.0827385
0.0825722
0.0824098
0.0822511
0.0820961
0.0819446
0.0817966
0.0816519
0.0815104
0.0813721
0.0812369
0.0811046
0.0809753
0.0808488
0.0807251
0.0806041
0.0804856
0.0803698
0.0802564
0.0801455
0.0800369
0.0799306
0.0798266
0.0797248
0.0796252
0.0795276
0.0794321
0.0793386
0.079247
0.0791574
0.0790696
0.0789837
0.0788995
0.0788171
0.0787364
0.0786573
0.0785799
0.0785041
0.0784298
0.0783571
0.0782858
0.078216
0.0781477
0.0780807
0.0780151
0.0779508
0.0778879
0.0778262
0.0777658
0.0777066
0.0776486
0.0775918
0.0775361
0.0774816
0.0774282
0.0773758
0.0773246
0.0772743
0.0772251
0.0771769
0.0771296
0.0770833
0.077038
0.0769935
0.07695
0.0769073
0.0768655
0.0768245
0.0767844
0.0767451
0.0767065
0.0766688
0.0766318
0.0765955
0.07656
0.0765252
0.0764911
0.0764577
0.0764249
0.0763929
0.0763614
0.0763306
0.0763004
0.0762709
0.0762419
0.0762135
0.0761857
0.0761584
0.0761317
0.0761055
0.0760799
0.0760548
0.0760301
0.076006
0.0759824
0.0759592
0.0759365
0.0759143
0.0758925
0.0758711
0.0758502
0.0758297
0.0758096
0.0757899
0.0757706
0.0757517
0.0757332
0.075715
0.0756972
0.0756798
0.0756628
0.0756461
0.0756297
0.0756137
0.075598
0.0755827
0.0755677
0.075553
0.0755386
0.0755246
0.0755108
0.0754974
0.0754842
0.0754714
0.0754589
0.0754467
0.0754347
0.0754231
0.0754118
0.0754007
0.07539
0.0753795
0.0753693
0.0753594
0.0753498
0.0753405
0.0753314
0.0753226
0.0753141
0.0753059
0.0752979
0.0752902
0.0752828
0.0752756
0.0752687
0.075262
0.0752556
0.0752494
0.0752435
0.0752378
0.0752324
0.0752272
0.0752222
0.0752174
0.0752129
0.0752085
0.0752044
0.0752005
0.0751968
0.0751933
0.0751899
0.0751868
0.0751838
0.075181
0.0751784
0.0751759
0.0751736
0.0751714
0.0751694
0.0751675
0.0751657
0.0751641
0.0751626
0.0751612
0.0751599
0.0751587
0.0751576
0.0751566
0.0751557
0.0751549
0.0751541
0.0751534
0.0751528
0.0751523
0.0751518
0.0751514
0.075151
0.0751506
0.0751504
0.0751501
0.0751499
0.0751497
0.0751496
0.0751494
0.0751493
0.0751493
0.0751492
0.0751492
0.0751492
0.0751492
0.0751492
0.0751492
0.0751492
0.0751493
0.0751493
0.0751494
0.0751494
0.0751495
0.0751495
0.0751496
0.0751497
0.0751497
0.0751498
0.0751499
0.07515
0.0751501
0.0751501
0.0751502
0.0751503
0.0751504
0.0751505
0.0751505
0.0751506
0.0751507
0.0751508
0.0751509
0.075151
0.075151
0.0751511
0.0751512
0.0751513
0.0751514
0.0751514
0.0751515
0.0751516
0.0751517
0.0751518
0.0751519
0.0751519
0.075152
0.0751521
0.0751522
0.0751523
0.0751524
0.0751524
0.0751525
0.0751526
0.0751527
0.0751528
0.0751529
0.0751529
0.075153
0.0751531
0.0751532
0.0751533
0.0751534
0.0751534
0.0751535
0.0751536
0.0751537
0.0751538
0.0751539
0.075154
0.075154
0.0751541
0.0751542
0.0751543
0.0751544
0.0751545
0.0751545
0.0751546
0.0751547
0.0751548
0.0751549
0.075155
0.0751551
0.0751551
0.0751552
0.0751553
0.0751554
0.0751555
0.0751556
0.0751556
0.0751557
0.0751558
0.0751559
0.075156
0.0751561
0.0751562
0.0751562
0.0751563
0.0751564
0.0751565
0.0751566
0.0751567
0.0751568
0.0751568
0.0751569
0.075157
0.0751571
0.0751572
0.0751573
0.0751574
0.0751574
0.0751575
0.0751576
0.0751577
0.0751578
0.0751579
0.075158
0.0751581
0.0751581
0.0751582
0.0751583
0.0751584
0.0751585
0.0751586
0.0751585
0.0751585
0.0751585
1
0.660887
0.446893
0.352877
0.302028
0.269849
0.2475
0.231017
0.218326
0.208224
0.199964
0.193058
0.187175
0.182082
0.177615
0.173653
0.170103
0.166899
0.163985
0.16132
0.15887
0.156608
0.15451
0.152559
0.150738
0.149033
0.147434
0.14593
0.144512
0.143173
0.141906
0.140705
0.139565
0.138481
0.137449
0.136465
0.135525
0.134628
0.133768
0.132945
0.132156
0.131399
0.130672
0.129972
0.129299
0.128651
0.128027
0.127424
0.126843
0.126281
0.125739
0.125214
0.124707
0.124216
0.12374
0.123279
0.122832
0.122399
0.121978
0.12157
0.121173
0.120788
0.120414
0.12005
0.119696
0.119352
0.119017
0.11869
0.118373
0.118063
0.117762
0.117468
0.117182
0.116903
0.11663
0.116365
0.116106
0.115853
0.115606
0.115365
0.11513
0.1149
0.114675
0.114456
0.114242
0.114033
0.113828
0.113628
0.113433
0.113242
0.113055
0.112872
0.112694
0.112519
0.112348
0.112181
0.112017
0.111857
0.111701
0.111548
0.111398
0.111251
0.111107
0.110967
0.110829
0.110694
0.110563
0.110433
0.110307
0.110183
0.110062
0.109943
0.109827
0.109713
0.109602
0.109493
0.109386
0.109281
0.109179
0.109078
0.10898
0.108884
0.108789
0.108697
0.108606
0.108517
0.108431
0.108345
0.108262
0.10818
0.1081
0.108022
0.107945
0.10787
0.107796
0.107724
0.107653
0.107584
0.107516
0.107449
0.107384
0.10732
0.107257
0.107196
0.107136
0.107077
0.107019
0.106963
0.106908
0.106853
0.1068
0.106748
0.106697
0.106647
0.106598
0.10655
0.106503
0.106457
0.106412
0.106367
0.106324
0.106281
0.10624
0.106199
0.106159
0.10612
0.106081
0.106044
0.106007
0.105971
0.105935
0.105901
0.105867
0.105833
0.105801
0.105769
0.105738
0.105707
0.105677
0.105647
0.105618
0.10559
0.105562
0.105535
0.105509
0.105483
0.105457
0.105432
0.105408
0.105384
0.10536
0.105337
0.105314
0.105292
0.105271
0.10525
0.105229
0.105209
0.105189
0.105169
0.10515
0.105132
0.105114
0.105096
0.105079
0.105062
0.105046
0.10503
0.105014
0.104999
0.104984
0.10497
0.104956
0.104942
0.104929
0.104916
0.104904
0.104892
0.10488
0.104869
0.104858
0.104847
0.104837
0.104827
0.104817
0.104808
0.1048
0.104791
0.104783
0.104775
0.104768
0.104761
0.104754
0.104747
0.104741
0.104735
0.10473
0.104724
0.104719
0.104714
0.10471
0.104706
0.104702
0.104698
0.104694
0.104691
0.104688
0.104685
0.104682
0.104679
0.104677
0.104675
0.104673
0.104671
0.104669
0.104667
0.104666
0.104665
0.104663
0.104662
0.104661
0.10466
0.10466
0.104659
0.104658
0.104658
0.104657
0.104657
0.104656
0.104656
0.104656
0.104655
0.104655
0.104655
0.104655
0.104655
0.104655
0.104655
0.104655
0.104655
0.104655
0.104655
0.104655
0.104655
0.104655
0.104655
0.104655
0.104655
0.104655
0.104655
0.104655
0.104656
0.104656
0.104656
0.104656
0.104656
0.104656
0.104656
0.104656
0.104656
0.104657
0.104657
0.104657
0.104657
0.104657
0.104657
0.104657
0.104657
0.104657
0.104658
0.104658
0.104658
0.104658
0.104658
0.104658
0.104658
0.104658
0.104658
0.104659
0.104659
0.104659
0.104659
0.104659
0.104659
0.104659
0.104659
0.10466
0.10466
0.10466
0.10466
0.10466
0.10466
0.10466
0.10466
0.10466
0.104661
0.104661
0.104661
0.104661
0.104661
0.104661
0.104661
0.104661
0.104662
0.104662
0.104662
0.104662
0.104662
0.104662
0.104662
0.104662
0.104662
0.104663
0.104663
0.104663
0.104663
0.104663
0.104663
0.104663
0.104663
0.104664
0.104664
0.104664
0.104664
0.104664
0.104664
0.104664
0.104664
0.104664
0.104665
0.104665
0.104665
0.104665
0.104665
0.104665
0.104665
0.104665
0.104666
0.104666
0.104666
0.104666
0.104666
0.104666
0.104666
0.104666
0.104666
0.104667
0.104667
0.104667
0.104667
0.104667
0.104667
0.104667
0.104667
0.104668
0.104668
0.104668
0.104668
0.104668
0.104668
1
0.776802
0.557824
0.446877
0.3841
0.343742
0.315509
0.294602
0.278467
0.265605
0.255079
0.246275
0.238774
0.232282
0.226588
0.221538
0.217016
0.212935
0.209225
0.205832
0.202714
0.199835
0.197167
0.194685
0.192368
0.190201