# vtk DataFile Version 2.0
FlowField
ASCII
DATASET STRUCTURED_GRID
DIMENSIONS 400 1 200
POINTS 80000 float
0 0 0
0.08 0 0
0.16 0 0
0.24 0 0
0.32 0 0
0.4 0 0
0.48 0 0
0.56 0 0
0.64 0 0
0.72 0 0
0.8 0 0
0.88 0 0
0.96 0 0
1.04 0 0
1.12 0 0
1.2 0 0
1.28 0 0
1.36 0 0
1.44 0 0
1.52 0 0
1.6 0 0
1.68 0 0
1.76 0 0
1.84 0 0
1.92 0 0
2 0 0
2.08 0 0
2.16 0 0
2.24 0 0
2.32 0 0
2.4 0 0
2.48 0 0
2.56 0 0
2.64 0 0
2.72 0 0
2.8 0 0
2.88 0 0
2.96 0 0
3.04 0 0
3.12 0 0
3.2 0 0
3.28 0 0
3.36 0 0
3.44 0 0
3.52 0 0
3.6 0 0
3.68 0 0
3.76 0 0
3.84 0 0
3.92 0 0
4 0 0
4.08 0 0
4.16 0 0
4.24 0 0
4.32 0 0
4.4 0 0
4.48 0 0
4.56 0 0
4.64 0 0
4.72 0 0
4.8 0 0
4.88 0 0
4.96 0 0
5.04 0 0
5.12 0 0
5.2 0 0
5.28 0 0
5.36 0 0
5.44 0 0
5.52 0 0
5.6 0 0
5.68 0 0
5.76 0 0
5.84 0 0
5.92 0 0
6 0 0
6.08 0 0
6.16 0 0
6.24 0 0
6.32 0 0
6.4 0 0
6.48 0 0
6.56 0 0
6.64 0 0
6.72 0 0
6.8 0 0
6.88 0 0
6.96 0 0
7.04 0 0
7.12 0 0
7.2 0 0
7.28 0 0
7.36 0 0
7.44 0 0
7.52 0 0
7.6 0 0
7.68 0 0
7.76 0 0
7.84 0 0
7.92 0 0
8 0 0
8.08 0 0
8.16 0 0
8.24 0 0
8.32 0 0
8.4 0 0
8.48 0 0
8.56 0 0
8.64 0 0
8.72 0 0
8.8 0 0
8.88 0 0
8.96 0 0
9.04 0 0
9.12 0 0
9.2 0 0
9.28 0 0
9.36 0 0
9.44 0 0
9.52 0 0
9.6 0 0
9.68 0 0
9.76 0 0
9.84 0 0
9.92 0 0
10 0 0
10.08 0 0
10.16 0 0
10.24 0 0
10.32 0 0
10.4 0 0
10.48 0 0
10.56 0 0
10.64 0 0
10.72 0 0
10.8 0 0
10.88 0 0
10.96 0 0
11.04 0 0
11.12 0 0
11.2 0 0
11.28 0 0
11.36 0 0
11.44 0 0
11.52 0 0
11.6 0 0
11.68 0 0
11.76 0 0
11.84 0 0
11.92 0 0
12 0 0
12.08 0 0
12.16 0 0
12.24 0 0
12.32 0 0
12.4 0 0
12.48 0 0
12.56 0 0
12.64 0 0
12.72 0 0
12.8 0 0
12.88 0 0
12.96 0 0
13.04 0 0
13.12 0 0
13.2 0 0
13.28 0 0
13.36 0 0
13.44 0 0
13.52 0 0
13.6 0 0
13.68 0 0
13.76 0 0
13.84 0 0
13.92 0 0
14 0 0
14.08 0 0
14.16 0 0
14.24 0 0
14.32 0 0
14.4 0 0
14.48 0 0
14.56 0 0
14.64 0 0
14.72 0 0
14.8 0 0
14.88 0 0
14.96 0 0
15.04 0 0
15.12 0 0
15.2 0 0
15.28 0 0
15.36 0 0
15.44 0 0
15.52 0 0
15.6 0 0
15.68 0 0
15.76 0 0
15.84 0 0
15.92 0 0
16 0 0
16.08 0 0
16.16 0 0
16.24 0 0
16.32 0 0
16.4 0 0
16.48 0 0
16.56 0 0
16.64 0 0
16.72 0 0
16.8 0 0
16.88 0 0
16.96 0 0
17.04 0 0
17.12 0 0
17.2 0 0
17.28 0 0
17.36 0 0
17.44 0 0
17.52 0 0
17.6 0 0
17.68 0 0
17.76 0 0
17.84 0 0
17.92 0 0
18 0 0
18.08 0 0
18.16 0 0
18.24 0 0
18.32 0 0
18.4 0 0
18.48 0 0
18.56 0 0
18.64 0 0
18.72 0 0
18.8 0 0
18.88 0 0
18.96 0 0
19.04 0 0
19.12 0 0
19.2 0 0
19.28 0 0
19.36 0 0
19.44 0 0
19.52 0 0
19.6 0 0
19.68 0 0
19.76 0 0
19.84 0 0
19.92 0 0
20 0 0
20.08 0 0
20.16 0 0
20.24 0 0
20.32 0 0
20.4 0 0
20.48 0 0
20.56 0 0
20.64 0 0
20.72 0 0
20.8 0 0
20.88 0 0
20.96 0 0
21.04 0 0
21.12 0 0
21.2 0 0
21.28 0 0
21.36 0 0
21.44 0 0
21.52 0 0
21.6 0 0
21.68 0 0
21.76 0 0
21.84 0 0
21.92 0 0
22 0 0
22.08 0 0
22.16 0 0
22.24 0 0
22.32 0 0
22.4 0 0
22.48 0 0
22.56 0 0
22.64 0 0
22.72 0 0
22.8 0 0
22.88 0 0
22.96 0 0
23.04 0 0
23.12 0 0
23.2 0 0
23.28 0 0
23.36 0 0
23.44 0 0
23.52 0 0
23.6 0 0
23.68 0 0
23.76 0 0
23.84 0 0
23.92 0 0
24 0 0
24.08 0 0
24.16 0 0
24.24 0 0
24.32 0 0
24.4 0 0
24.48 0 0
24.56 0 0
24.64 0 0
24.72 0 0
24.8 0 0
24.88 0 0
24.96 0 0
25.04 0 0
25.12 0 0
25.2 0 0
25.28 0 0
25.36 0 0
25.44 0 0
25.52 0 0
25.6 0 0
25.68 0 0
25.76 0 0
25.84 0 0
25.92 0 0
26 0 0
26.08 0 0
26.16 0 0
26.24 0 0
26.32 0 0
26.4 0 0
26.48 0 0
26.56 0 0
26.64 0 0
26.72 0 0
26.8 0 0
26.88 0 0
26.96 0 0
27.04 0 0
27.12 0 0
27.2 0 0
27.28 0 0
27.36 0 0
27.44 0 0
27.52 0 0
27.6 0 0
27.68 0 0
27.76 0 0
27.84 0 0
27.92 0 0
28 0 0
28.08 0 0
28.16 0 0
28.24 0 0
28.32 0 0
28.4 0 0
28.48 0 0
28.56 0 0
28.64 0 0
28.72 0 0
28.8 0 0
28.88 0 0
28.96 0 0
29.04 0 0
29.12 0 0
29.2 0 0
29.28 0 0
29.36 0 0
29.44 0 0
29.52 0 0
29.6 0 0
29.68 0 0
29.76 0 0
29.84 0 0
29.92 0 0
30 0 0
30.08 0 0
30.16 0 0
30.24 0 0
30.32 0 0
30.4 0 0
30.48 0 0
30.56 0 0
30.64 0 0
30.72 0 0
30.8 0 0
30.88 0 0
30.96 0 0
31.04 0 0
31.12 0 0
31.2 0 0
31.28 0 0
31.36 0 0
31.44 0 0
31.52 0 0
31.6 0 0
31.68 0 0
31.76 0 0
31.84 0 0
31.92 0 0
0 0.005 0
0.08 0.005 0
0.16 0.005 0
0.24 0.005 0
0.32 0.005 0
0.4 0.005 0
0.48 0.005 0
0.56 0.005 0
0.64 0.005 0
0.72 0.005 0
0.8 0.005 0
0.88 0.005 0
0.96 0.005 0
1.04 0.005 0
1.12 0.005 0
1.2 0.005 0
1.28 0.005 0
1.36 0.005 0
1.44 0.005 0
1.52 0.005 0
1.6 0.005 0
1.68 0.005 0
1.76 0.005 0
1.84 0.005 0
1.92 0.005 0
2 0.005 0
2.08 0.005 0
2.16 0.005 0
2.24 0.005 0
2.32 0.005 0
2.4 0.005 0
2.48 0.005 0
2.56 0.005 0
2.64 0.005 0
2.72 0.005 0
2.8 0.005 0
2.88 0.005 0
2.96 0.005 0
3.04 0.005 0
3.12 0.005 0
3.2 0.005 0
3.28 0.005 0
3.36 0.005 0
3.44 0.005 0
3.52 0.005 0
3.6 0.005 0
3.68 0.005 0
3.76 0.005 0
3.84 0.005 0
3.92 0.005 0
4 0.005 0
4.08 0.005 0
4.16 0.005 0
4.24 0.005 0
4.32 0.005 0
4.4 0.005 0
4.48 0.005 0
4.56 0.005 0
4.64 0.005 0
4.72 0.005 0
4.8 0.005 0
4.88 0.005 0
4.96 0.005 0
5.04 0.005 0
5.12 0.005 0
5.2 0.005 0
5.28 0.005 0
5.36 0.005 0
5.44 0.005 0
5.52 0.005 0
5.6 0.005 0
5.68 0.005 0
5.76 0.005 0
5.84 0.005 0
5.92 0.005 0
6 0.005 0
6.08 0.005 0
6.16 0.005 0
6.24 0.005 0
6.32 0.005 0
6.4 0.005 0
6.48 0.005 0
6.56 0.005 0
6.64 0.005 0
6.72 0.005 0
6.8 0.005 0
6.88 0.005 0
6.96 0.005 0
7.04 0.005 0
7.12 0.005 0
7.2 0.005 0
7.28 0.005 0
7.36 0.005 0
7.44 0.005 0
7.52 0.005 0
7.6 0.005 0
7.68 0.005 0
7.76 0.005 0
7.84 0.005 0
7.92 0.005 0
8 0.005 0
8.08 0.005 0
8.16 0.005 0
8.24 0.005 0
8.32 0.005 0
8.4 0.005 0
8.48 0.005 0
8.56 0.005 0
8.64 0.005 0
8.72 0.005 0
8.8 0.005 0
8.88 0.005 0
8.96 0.005 0
9.04 0.005 0
9.12 0.005 0
9.2 0.005 0
9.28 0.005 0
9.36 0.005 0
9.44 0.005 0
9.52 0.005 0
9.6 0.005 0
9.68 0.005 0
9.76 0.005 0
9.84 0.005 0
9.92 0.005 0
10 0.005 0
10.08 0.005 0
10.16 0.005 0
10.24 0.005 0
10.32 0.005 0
10.4 0.005 0
10.48 0.005 0
10.56 0.005 0
10.64 0.005 0
10.72 0.005 0
10.8 0.005 0
10.88 0.005 0
10.96 0.005 0
11.04 0.005 0
11.12 0.005 0
11.2 0.005 0
11.28 0.005 0
11.36 0.005 0
11.44 0.005 0
11.52 0.005 0
11.6 0.005 0
11.68 0.005 0
11.76 0.005 0
11.84 0.005 0
11.92 0.005 0
12 0.005 0
12.08 0.005 0
12.16 0.005 0
12.24 0.005 0
12.32 0.005 0
12.4 0.005 0
12.48 0.005 0
12.56 0.005 0
12.64 0.005 0
12.72 0.005 0
12.8 0.005 0
12.88 0.005 0
12.96 0.005 0
13.04 0.005 0
13.12 0.005 0
13.2 0.005 0
13.28 0.005 0
13.36 0.005 0
13.44 0.005 0
13.52 0.005 0
13.6 0.005 0
13.68 0.005 0
13.76 0.005 0
13.84 0.005 0
13.92 0.005 0
14 0.005 0
14.08 0.005 0
14.16 0.005 0
14.24 0.005 0
14.32 0.005 0
14.4 0.005 0
14.48 0.005 0
14.56 0.005 0
14.64 0.005 0
14.72 0.005 0
14.8 0.005 0
14.88 0.005 0
14.96 0.005 0
15.04 0.005 0
15.12 0.005 0
15.2 0.005 0
15.28 0.005 0
15.36 0.005 0
15.44 0.005 0
15.52 0.005 0
15.6 0.005 0
15.68 0.005 0
15.76 0.005 0
15.84 0.005 0
15.92 0.005 0
16 0.005 0
16.08 0.005 0
16.16 0.005 0
16.24 0.005 0
16.32 0.005 0
16.4 0.005 0
16.48 0.005 0
16.56 0.005 0
16.64 0.005 0
16.72 0.005 0
16.8 0.005 0
16.88 0.005 0
16.96 0.005 0
17.04 0.005 0
17.12 0.005 0
17.2 0.005 0
17.28 0.005 0
17.36 0.005 0
17.44 0.005 0
17.52 0.005 0
17.6 0.005 0
17.68 0.005 0
17.76 0.005 0
17.84 0.005 0
17.92 0.005 0
18 0.005 0
18.08 0.005 0
18.16 0.005 0
18.24 0.005 0
18.32 0.005 0
18.4 0.005 0
18.48 0.005 0
18.56 0.005 0
18.64 0.005 0
18.72 0.005 0
18.8 0.005 0
18.88 0.005 0
18.96 0.005 0
19.04 0.005 0
19.12 0.005 0
19.2 0.005 0
19.28 0.005 0
19.36 0.005 0
19.44 0.005 0
19.52 0.005 0
19.6 0.005 0
19.68 0.005 0
19.76 0.005 0
19.84 0.005 0
19.92 0.005 0
20 0.005 0
20.08 0.005 0
20.16 0.005 0
20.24 0.005 0
20.32 0.005 0
20.4 0.005 0
20.48 0.005 0
20.56 0.005 0
20.64 0.005 0
20.72 0.005 0
20.8 0.005 0
20.88 0.005 0
20.96 0.005 0
21.04 0.005 0
21.12 0.005 0
21.2 0.005 0
21.28 0.005 0
21.36 0.005 0
21.44 0.005 0
21.52 0.005 0
21.6 0.005 0
21.68 0.005 0
21.76 0.005 0
21.84 0.005 0
21.92 0.005 0
22 0.005 0
22.08 0.005 0
22.16 0.005 0
22.24 0.005 0
22.32 0.005 0
22.4 0.005 0
22.48 0.005 0
22.56 0.005 0
22.64 0.005 0
22.72 0.005 0
22.8 0.005 0
22.88 0.005 0
22.96 0.005 0
23.04 0.005 0
23.12 0.005 0
23.2 0.005 0
23.28 0.005 0
23.36 0.005 0
23.44 0.005 0
23.52 0.005 0
23.6 0.005 0
23.68 0.005 0
23.76 0.005 0
23.84 0.005 0
23.92 0.005 0
24 0.005 0
24.08 0.005 0
24.16 0.005 0
24.24 0.005 0
24.32 0.005 0
24.4 0.005 0
24.48 0.005 0
24.56 0.005 0
24.64 0.005 0
24.72 0.005 0
24.8 0.005 0
24.88 0.005 0
24.96 0.005 0
25.04 0.005 0
25.12 0.005 0
25.2 0.005 0
25.28 0.005 0
25.36 0.005 0
25.44 0.005 0
25.52 0.005 0
25.6 0.005 0
25.68 0.005 0
25.76 0.005 0
25.84 0.005 0
25.92 0.005 0
26 0.005 0
26.08 0.005 0
26.16 0.005 0
26.24 0.005 0
26.32 0.005 0
26.4 0.005 0
26.48 0.005 0
26.56 0.005 0
26.64 0.005 0
26.72 0.005 0
26.8 0.005 0
26.88 0.005 0
26.96 0.005 0
27.04 0.005 0
27.12 0.005 0
27.2 0.005 0
27.28 0.005 0
27.36 0.005 0
27.44 0.005 0
27.52 0.005 0
27.6 0.005 0
27.68 0.005 0
27.76 0.005 0
27.84 0.005 0
27.92 0.005 0
28 0.005 0
28.08 0.005 0
28.16 0.005 0
28.24 0.005 0
28.32 0.005 0
28.4 0.005 0
28.48 0.005 0
28.56 0.005 0
28.64 0.005 0
28.72 0.005 0
28.8 0.005 0
28.88 0.005 0
28.96 0.005 0
29.04 0.005 0
29.12 0.005 0
29.2 0.005 0
29.28 0.005 0
29.36 0.005 0
29.44 0.005 0
29.52 0.005 0
29.6 0.005 0
29.68 0.005 0
29.76 0.005 0
29.84 0.005 0
29.92 0.005 0
30 0.005 0
30.08 0.005 0
30.16 0.005 0
30.24 0.005 0
30.32 0.005 0
30.4 0.005 0
30.48 0.005 0
30.56 0.005 0
30.64 0.005 0
30.72 0.005 0
30.8 0.005 0
30.88 0.005 0
30.96 0.005 0
31.04 0.005 0
31.12 0.005 0
31.2 0.005 0
31.28 0.005 0
31.36 0.005 0
31.44 0.005 0
31.52 0.005 0
31.6 0.005 0
31.68 0.005 0
31.76 0.005 0
31.84 0.005 0
31.92 0.005 0
0 0.01 0
0.08 0.01 0
0.16 0.01 0
0.24 0.01 0
0.32 0.01 0
0.4 0.01 0
0.48 0.01 0
0.56 0.01 0
0.64 0.01 0
0.72 0.01 0
0.8 0.01 0
0.88 0.01 0
0.96 0.01 0
1.04 0.01 0
1.12 0.01 0
1.2 0.01 0
1.28 0.01 0
1.36 0.01 0
1.44 0.01 0
1.52 0.01 0
1.6 0.01 0
1.68 0.01 0
1.76 0.01 0
1.84 0.01 0
1.92 0.01 0
2 0.01 0
2.08 0.01 0
2.16 0.01 0
2.24 0.01 0
2.32 0.01 0
2.4 0.01 0
2.48 0.01 0
2.56 0.01 0
2.64 0.01 0
2.72 0.01 0
2.8 0.01 0
2.88 0.01 0
2.96 0.01 0
3.04 0.01 0
3.12 0.01 0
3.2 0.01 0
3.28 0.01 0
3.36 0.01 0
3.44 0.01 0
3.52 0.01 0
3.6 0.01 0
3.68 0.01 0
3.76 0.01 0
3.84 0.01 0
3.92 0.01 0
4 0.01 0
4.08 0.01 0
4.16 0.01 0
4.24 0.01 0
4.32 0.01 0
4.4 0.01 0
4.48 0.01 0
4.56 0.01 0
4.64 0.01 0
4.72 0.01 0
4.8 0.01 0
4.88 0.01 0
4.96 0.01 0
5.04 0.01 0
5.12 0.01 0
[...]
POINT_DATA 80000

SCALARS p float 1
LOOKUP_TABLE default
1
56.545
56.2433
56.2021
56.182
56.1676
56.1556
56.1449
56.1349
56.1254
56.1162
56.1074
56.0988
56.0904
56.0821
56.0741
56.0663
56.0586
56.0511
56.0437
56.0365
56.0294
56.0224
56.0156
56.0089
56.0023
55.9957
55.9893
55.983
55.9768
55.9706
55.9646
55.9586
55.9527
55.9468
55.9411
55.9354
55.9297
55.9242
55.9186
55.9132
55.9078
55.9024
55.8971
55.8918
55.8866
55.8815
55.8763
55.8713
55.8662
55.8612
55.8563
55.8514
55.8465
55.8416
55.8368
55.832
55.8273
55.8226
55.8179
55.8132
55.8086
55.804
55.7994
55.7949
55.7904
55.7859
55.7814
55.777
55.7726
55.7682
55.7638
55.7594
55.7551
55.7508
55.7465
55.7423
55.738
55.7338
55.7296
55.7254
55.7212
55.7171
55.7129
55.7088
55.7047
55.7006
55.6966
55.6925
55.6885
55.6845
55.6805
55.6765
55.6725
55.6685
55.6646
55.6607
55.6567
55.6528
55.6489
55.645
55.6412
55.6373
55.6335
55.6296
55.6258
55.622
55.6182
55.6144
55.6106
55.6068
55.6031
55.5993
55.5956
55.5918
55.5881
55.5844
55.5807
55.577
55.5733
55.5696
55.5659
55.5623
55.5586
55.555
55.5513
55.5477
55.5441
55.5404
55.5368
55.5332
55.5296
55.526
55.5224
55.5189
55.5153
55.5117
55.5081
55.5046
55.501
55.4975
55.494
55.4904
55.4869
55.4834
55.4799
55.4763
55.4728
55.4693
55.4658
55.4623
55.4588
55.4554
55.4519
55.4484
55.4449
55.4415
55.438
55.4345
55.4311
55.4276
55.4242
55.4207
55.4173
55.4139
55.4104
55.407
55.4036
55.4001
55.3967
55.3933
55.3899
55.3865
55.3831
55.3797
55.3762
55.3728
55.3694
55.3661
55.3627
55.3593
55.3559
55.3525
55.3491
55.3457
55.3424
55.339
55.3356
55.3322
55.3289
55.3255
55.3221
55.3188
55.3154
55.312
55.3087
55.3053
55.302
55.2986
55.2953
55.2919
55.2886
55.2852
55.2819
55.2786
55.2752
55.2719
55.2685
55.2652
55.2619
55.2585
55.2552
55.2519
55.2486
55.2452
55.2419
55.2386
55.2353
55.2319
55.2286
55.2253
55.222
55.2187
55.2154
55.2121
55.2087
55.2054
55.2021
55.1988
55.1955
55.1922
55.1889
55.1856
55.1823
55.179
55.1757
55.1724
55.1691
55.1658
55.1625
55.1592
55.1559
55.1526
55.1493
55.146
55.1428
55.1395
55.1362
55.1329
55.1296
55.1263
55.123
55.1197
55.1165
55.1132
55.1099
55.1066
55.1033
55.1
55.0968
55.0935
55.0902
55.0869
55.0836
55.0804
55.0771
55.0738
55.0705
55.0672
55.064
55.0607
55.0574
55.0541
55.0508
55.0476
55.0443
55.041
55.0377
55.0345
55.0312
55.0279
55.0246
55.0213
55.0181
55.0148
55.0115
55.0082
55.005
55.0017
54.9984
54.9951
54.9919
54.9886
54.9853
54.982
54.9788
54.9755
54.9722
54.9689
54.9656
54.9624
54.9591
54.9558
54.9525
54.9493
54.946
54.9427
54.9394
54.9362
54.9329
54.9296
54.9263
54.923
54.9198
54.9165
54.9132
54.9099
54.9067
54.9034
54.9001
54.8968
54.8936
54.8903
54.887
54.8837
54.8805
54.8772
54.8739
54.8706
54.8673
54.8641
54.8608
54.8575
54.8542
54.851
54.8477
54.8444
54.8411
54.8379
54.8346
54.8313
54.828
54.8248
54.8215
54.8182
54.8149
54.8116
54.8084
54.8051
54.8018
54.7985
54.7953
54.792
54.7887
54.7854
54.7822
54.7789
54.7756
54.7723
54.7691
54.7658
54.7625
54.7592
54.7559
54.7527
54.7494
54.7461
54.7428
54.7396
54.7363
54.733
54.7297
54.7265
54.7232
54.7199
54.7166
54.7133
54.7101
54.7068
54.7035
54.7002
54.697
54.6937
54.6904
54.6871
54.6839
54.6806
54.6773
54.674
54.6708
54.6675
54.6642
54.6609
54.6576
54.6544
54.6511
54.6478
54.6445
54.6413
0.5
56.545
56.545
56.2433
56.2021
56.182
56.1676
56.1556
56.1449
56.1349
56.1254
56.1162
56.1074
56.0988
56.0904
56.0821
56.0741
56.0663
56.0586
56.0511
56.0437
56.0365
56.0294
56.0224
56.0156
56.0089
56.0023
55.9957
55.9893
55.983
55.9768
55.9706
55.9646
55.9586
55.9527
55.9468
55.9411
55.9354
55.9297
55.9242
55.9186
55.9132
55.9078
55.9024
55.8971
55.8918
55.8866
55.8815
55.8763
55.8713
55.8662
55.8612
55.8563
55.8514
55.8465
55.8416
55.8368
55.832
55.8273
55.8226
55.8179
55.8132
55.8086
55.804
55.7994
55.7949
55.7904
55.7859
55.7814
55.777
55.7726
55.7682
55.7638
55.7594
55.7551
55.7508
55.7465
55.7423
55.738
55.7338
55.7296
55.7254
55.7212
55.7171
55.7129
55.7088
55.7047
55.7006
55.6966
55.6925
55.6885
55.6845
55.6805
55.6765
55.6725
55.6685
55.6646
55.6607
55.6567
55.6528
55.6489
55.645
55.6412
55.6373
55.6335
55.6296
55.6258
55.622
55.6182
55.6144
55.6106
55.6068
55.6031
55.5993
55.5956
55.5918
55.5881
55.5844
55.5807
55.577
55.5733
55.5696
55.5659
55.5623
55.5586
55.555
55.5513
55.5477
55.5441
55.5404
55.5368
55.5332
55.5296
55.526
55.5224
55.5189
55.5153
55.5117
55.5081
55.5046
55.501
55.4975
55.494
55.4904
55.4869
55.4834
55.4799
55.4763
55.4728
55.4693
55.4658
55.4623
55.4588
55.4554
55.4519
55.4484
55.4449
55.4415
55.438
55.4345
55.4311
55.4276
55.4242
55.4207
55.4173
55.4139
55.4104
55.407
55.4036
55.4001
55.3967
55.3933
55.3899
55.3865
55.3831
55.3797
55.3762
55.3728
55.3694
55.3661
55.3627
55.3593
55.3559
55.3525
55.3491
55.3457
55.3424
55.339
55.3356
55.3322
55.3289
55.3255
55.3221
55.3188
55.3154
55.312
55.3087
55.3053
55.302
55.2986
55.2953
55.2919
55.2886
55.2852
55.2819
55.2786
55.2752
55.2719
55.2685
55.2652
55.2619
55.2585
55.2552
55.2519
55.2486
55.2452
55.2419
55.2386
55.2353
55.2319
55.2286
55.2253
55.222
55.2187
55.2154
55.2121
55.2087
55.2054
55.2021
55.1988
55.1955
55.1922
55.1889
55.1856
55.1823
55.179
55.1757
55.1724
55.1691
55.1658
55.1625
55.1592
55.1559
55.1526
55.1493
55.146
55.1428
55.1395
55.1362
55.1329
55.1296
55.1263
55.123
55.1197
55.1165
55.1132
55.1099
55.1066
55.1033
55.1
55.0968
55.0935
55.0902
55.0869
55.0836
55.0804
55.0771
55.0738
55.0705
55.0672
55.064
55.0607
55.0574
55.0541
55.0508
55.0476
55.0443
55.041
55.0377
55.0345
55.0312
55.0279
55.0246
55.0213
55.0181
55.0148
55.0115
55.0082
55.005
55.0017
54.9984
54.9951
54.9919
54.9886
54.9853
54.982
54.9788
54.9755
54.9722
54.9689
54.9656
54.9624
54.9591
54.9558
54.9525
54.9493
54.946
54.9427
54.9394
54.9362
54.9329
54.9296
54.9263
54.923
54.9198
54.9165
54.9132
54.9099
54.9067
54.9034
54.9001
54.8968
54.8936
54.8903
54.887
54.8837
54.8805
54.8772
54.8739
54.8706
54.8673
54.8641
54.8608
54.8575
54.8542
54.851
54.8477
54.8444
54.8411
54.8379
54.8346
54.8313
54.828
54.8248
54.8215
54.8182
54.8149
54.8116
54.8084
54.8051
54.8018
54.7985
54.7953
54.792
54.7887
54.7854
54.7822
54.7789
54.7756
54.7723
54.7691
54.7658
54.7625
54.7592
54.7559
54.7527
54.7494
54.7461
54.7428
54.7396
54.7363
54.733
54.7297
54.7265
54.7232
54.7199
54.7166
54.7133
54.7101
54.7068
54.7035
54.7002
54.697
54.6937
54.6904
54.6871
54.6839
54.6806
54.6773
54.674
54.6708
54.6675
54.6642
54.6609
54.6576
54.6544
54.6511
54.6478
54.6445
54.6413
54.6413
56.5304
56.5304
56.2471
56.2034
56.1827
56.168
56.1559
56.1451
56.135
56.1255
56.1163
56.1075
56.0988
56.0904
56.0822
56.0742
56.0663
56.0587
56.0511
56.0438
56.0365
56.0294
56.0225
56.0156
56.0089
56.0023
55.9958
55.9894
55.983
55.9768
55.9707
55.9646
55.9586
55.9527
55.9469
55.9411
55.9354
55.9298
55.9242
55.9187
55.9132
55.9078
55.9024
55.8971
55.8919
55.8866
55.8815
55.8764
55.8713
55.8662
55.8612
55.8563
55.8514
55.8465
55.8416
55.8368
55.832
55.8273
55.8226
55.8179
55.8132
55.8086
55.804
55.7994
55.7949
55.7904
55.7859
55.7814
55.777
55.7726
55.7682
55.7638
55.7594
55.7551
55.7508
55.7465
55.7423
55.738
55.7338
55.7296
55.7254
55.7212
55.7171
55.7129
55.7088
55.7047
55.7007
55.6966
55.6925
55.6885
55.6845
55.6805
55.6765
55.6725
55.6685
55.6646
55.6607
55.6567
55.6528
55.6489
55.645
55.6412
55.6373
55.6335
55.6296
55.6258
55.622
55.6182
55.6144
55.6106
55.6068
55.6031
55.5993
55.5956
55.5918
55.5881
55.5844
55.5807
55.577
55.5733
55.5696
55.5659
55.5623
55.5586
55.555
55.5513
55.5477
55.5441
55.5404
55.5368
55.5332
55.5296
55.526
55.5224
55.5189
55.5153
55.5117
55.5082
55.5046
55.501
55.4975
55.494
55.4904
55.4869
55.4834
55.4799
55.4763
55.4728
55.4693
55.4658
55.4623
55.4588
55.4554
55.4519
55.4484
55.4449
55.4415
55.438
55.4345
55.4311
55.4276
55.4242
55.4207
55.4173
55.4139
55.4104
55.407
55.4036
55.4001
55.3967
55.3933
55.3899
55.3865
55.3831
55.3797
55.3762
55.3728
55.3694
55.3661
55.3627
55.3593
55.3559
55.3525
55.3491
55.3457
55.3424
55.339
55.3356
55.3322
55.3289
55.3255
55.3221
55.3188
55.3154
55.312
55.3087
55.3053
55.302
55.2986
55.2953
55.2919
55.2886
55.2852
55.2819
55.2786
55.2752
55.2719
55.2685
55.2652
55.2619
55.2585
55.2552
55.2519
55.2486
55.2452
55.2419
55.2386
55.2353
55.2319
55.2286
55.2253
55.222
55.2187
55.2154
55.2121
55.2087
55.2054
55.2021
55.1988
55.1955
55.1922
55.1889
55.1856
55.1823
55.179
55.1757
55.1724
55.1691
55.1658
55.1625
55.1592
55.1559
55.1526
55.1493
55.146
55.1428
55.1395
55.1362
55.1329
55.1296
55.1263
55.123
55.1197
55.1165
55.1132
55.1099
55.1066
55.1033
55.1
55.0968
55.0935
55.0902
55.0869
55.0836
55.0804
55.0771
55.0738
55.0705
55.0672
55.064
55.0607
55.0574
55.0541
55.0508
55.0476
55.0443
55.041
55.0377
55.0345
55.0312
55.0279
55.0246
55.0213
55.0181
55.0148
55.0115
55.0082
55.005
55.0017
54.9984
54.9951
54.9919
54.9886
54.9853
54.982
54.9788
54.9755
54.9722
54.9689
54.9656
54.9624
54.9591
54.9558
54.9525
54.9493
54.946
54.9427
54.9394
54.9362
54.9329
54.9296
54.9263
54.923
54.9198
54.9165
54.9132
54.9099
54.9067
54.9034
54.9001
54.8968
54.8936
54.8903
54.887
54.8837
54.8805
54.8772
54.8739
54.8706
54.8673
54.8641
54.8608
54.8575
54.8542
54.851
54.8477
54.8444
54.8411
54.8379
54.8346
54.8313
54.828
54.8248
54.8215
54.8182
54.8149
54.8116
54.8084
54.8051
54.8018
54.7985
54.7953
54.792
54.7887
54.7854
54.7822
54.7789
54.7756
54.7723
54.7691
54.7658
54.7625
54.7592
54.7559
54.7527
54.7494
54.7461
54.7428
54.7396
54.7363
54.733
54.7297
54.7265
54.7232
54.7199
54.7166
54.7133
54.7101
54.7068
54.7035
54.7002
54.697
54.6937
54.6904
54.6871
54.6839
54.6806
54.6773
54.674
54.6708
54.6675
54.6642
54.6609
54.6576
54.6544
54.6511
54.6478
54.6445
54.6413
54.6413
56.5145
56.5145
56.2503
56.2046
56.1833
56.1684
56.1562
56.1453
56.1352
56.1256
56.1164
56.1075
56.0989
56.0905
56.0823
56.0742
56.0664
56.0587
56.0512
56.0438
56.0366
56.0295
56.0225
56.0156
56.0089
56.0023
55.9958
55.9894
55.983
55.9768
55.9707
55.9646
55.9586
55.9527
55.9469
55.9411
55.9354
55.9298
55.9242
55.9187
55.9132
55.9078
55.9024
55.8971
55.8919
55.8867
55.8815
55.8764
55.8713
55.8662
55.8612
55.8563
55.8514
55.8465
55.8416
55.8368
55.832
55.8273
55.8226
55.8179
55.8132
55.8086
55.804
55.7994
55.7949
55.7904
55.7859
55.7814
55.777
55.7726
55.7682
55.7638
55.7594
55.7551
55.7508
55.7465
55.7423
55.738
55.7338
55.7296
55.7254
55.7212
55.7171
55.713
55.7088
55.7047
55.7007
55.6966
55.6925
55.6885
55.6845
55.6805
55.6765
55.6725
55.6685
55.6646
55.6607
55.6567
55.6528
55.6489
55.645
55.6412
55.6373
55.6335
55.6296
55.6258
55.622
55.6182
55.6144
55.6106
55.6068
55.6031
55.5993
55.5956
55.5918
55.5881
55.5844
55.5807
55.577
55.5733
55.5696
55.5659
55.5623
55.5586
55.555
55.5513
55.5477
55.5441
55.5404
55.5368
55.5332
55.5296
55.526
55.5224
55.5189
55.5153
55.5117
55.5082
55.5046
55.501
55.4975
55.494
55.4904
55.4869
55.4834
55.4799
55.4763
55.4728
55.4693
55.4658
55.4623
55.4588
55.4554
55.4519
55.4484
55.4449
55.4415
55.438
55.4345
55.4311
55.4276
55.4242
55.4207
55.4173
55.4139
55.4104
55.407
55.4036
55.4001
55.3967
55.3933
55.3899
55.3865
55.3831
55.3797
55.3762
55.3728
55.3694
55.3661
55.3627
55.3593
55.3559
55.3525
55.3491
55.3457
55.3424
55.339
55.3356
55.3322
55.3289
55.3255
55.3221
55.3188
55.3154
55.312
55.3087
55.3053
55.302
55.2986
55.2953
55.2919
55.2886
55.2852
55.2819
55.2786
55.2752
55.2719
55.2685
55.2652
55.2619
55.2585
55.2552
55.2519
55.2486
55.2452
55.2419
55.2386
55.2353
55.2319
55.2286
55.2253
55.222
55.2187
55.2154
55.2121
55.2087
55.2054
55.2021
55.1988
55.1955
55.1922
55.1889
55.1856
55.1823
55.179
55.1757
55.1724
55.1691
55.1658
55.1625
55.1592
55.1559
55.1526
55.1493
55.146
55.1428
55.1395
55.1362
55.1329
55.1296
55.1263
55.123
55.1197
55.1165
55.1132
55.1099
55.1066
55.1033
55.1
55.0968
55.0935
55.0902
55.0869
55.0836
55.0804
55.0771
55.0738
55.0705
55.0672
55.064
55.0607
55.0574
55.0541
55.0508
55.0476
55.0443
55.041
55.0377
55.0345
55.0312
55.0279
55.0246
55.0213
55.0181
55.0148
55.0115
55.0082
55.005
55.0017
54.9984
54.9951
54.9919
54.9886
54.9853
54.982
54.9788
54.9755
54.9722
54.9689
54.9656
54.9624
54.9591
54.9558
54.9525
54.9493
54.946
54.9427
54.9394
54.9362
54.9329
54.9296
54.9263
54.923
54.9198
54.9165
54.9132
54.9099
54.9067
54.9034
54.9001
54.8968
54.8936
54.8903
54.887
54.8837
54.8805
54.8772
54.8739
54.8706
54.8673
54.8641
54.8608
54.8575
54.8542
54.851
54.8477
54.8444
54.8411
54.8379
54.8346
54.8313
54.828
54.8248
54.8215
54.8182
54.8149
54.8116
54.8084
54.8051
54.8018
54.7985
54.7953
54.792
54.7887
54.7854
54.7822
54.7789
54.7756
54.7723
54.7691
54.7658
54.7625
54.7592
54.7559
54.7527
54.7494
54.7461
54.7428
54.7396
54.7363
54.733
54.7297
54.7265
54.7232
54.7199
54.7166
54.7133
54.7101
54.7068
54.7035
54.7002
54.697
54.6937
54.6904
54.6871
54.6839
54.6806
54.6773
54.674
54.6708
54.6675
54.6642
54.6609
54.6576
54.6544
54.6511
54.6478
54.6445
54.6413
54.6413
56.4985
56.4985
56.2532
56.2057
56.1839
56.1688
56.1564
56.1455
56.1353
56.1257
56.1165
56.1076
56.099
56.0905
56.0823
56.0743
56.0664
56.0587
56.0512
56.0438
56.0366
56.0295
56.0225
56.0157
56.0089
56.0023
55.9958
55.9894
55.9831
55.9768
55.9707
55.9646
55.9586
55.9527
55.9469
55.9411
55.9354
55.9298
55.9242
55.9187
55.9132
55.9078
55.9024
55.8971
55.8919
55.8867
55.8815
55.8764
55.8713
55.8663
55.8613
55.8563
55.8514
55.8465
55.8416
55.8368
55.832
55.8273
55.8226
55.8179
55.8132
55.8086
55.804
55.7994
55.7949
55.7904
55.7859
55.7814
55.777
55.7726
55.7682
55.7638
55.7594
55.7551
55.7508
55.7465
55.7423
55.738
55.7338
55.7296
55.7254
55.7212
55.7171
55.713
55.7088
55.7047
55.7007
55.6966
55.6925
55.6885
55.6845
55.6805
55.6765
55.6725
55.6685
55.6646
55.6607
55.6567
55.6528
55.6489
55.645
55.6412
55.6373
55.6335
55.6296
55.6258
55.622
55.6182
55.6144
55.6106
55.6068
55.6031
55.5993
55.5956
55.5918
55.5881
55.5844
55.5807
55.577
55.5733
55.5696
55.5659
55.5623
55.5586
55.555
55.5513
55.5477
55.5441
55.5404
55.5368
55.5332
55.5296
55.526
55.5224
55.5189
55.5153
55.5117
55.5082
55.5046
55.501
55.4975
55.494
55.4904
55.4869
55.4834
55.4799
55.4763
55.4728
55.4693
55.4658
55.4623
55.4588
55.4554
55.4519
55.4484
55.4449
55.4415
55.438
55.4345
55.4311
55.4276
55.4242
55.4207
55.4173
55.4139
55.4104
55.407
55.4036
55.4001
55.3967
55.3933
55.3899
55.3865
55.3831
55.3797
55.3762
55.3728
55.3694
55.3661
55.3627
55.3593
55.3559
55.3525
55.3491
55.3457
55.3424
55.339
55.3356
55.3322
55.3289
55.3255
55.3221
55.3188
55.3154
55.312
55.3087
55.3053
55.302
55.2986
55.2953
55.2919
55.2886
55.2852
55.2819
55.2786
55.2752
55.2719
55.2685
55.2652
55.2619
55.2585
55.2552
55.2519
55.2486
55.2452
55.2419
55.2386
55.2353
55.2319
55.2286
55.2253
55.222
55.2187
55.2154
55.2121
55.2087
55.2054
55.2021
55.1988
55.1955
55.1922
55.1889
55.1856
55.1823
55.179
55.1757
55.1724
55.1691
55.1658
55.1625
55.1592
55.1559
55.1526
55.1493
55.146
55.1428
55.1395
55.1362
55.1329
55.1296
55.1263
55.123
55.1197
55.1165
55.1132
55.1099
55.1066
55.1033
55.1
55.0968
55.0935
55.0902
55.0869
55.0836
55.0804
55.0771
55.0738
55.0705
55.0672
55.064
55.0607
55.0574
55.0541
55.0508
55.0476
55.0443
55.041
55.0377
55.0345
55.0312
55.0279
55.0246
55.0213
55.0181
55.0148
55.0115
55.0082
55.005
55.0017
54.9984
54.9951
54.9919
54.9886
54.9853
54.982
54.9788
54.9755
54.9722
54.9689
54.9656
54.9624
54.9591
54.9558
54.9525
54.9493
54.946
54.9427
54.9394
54.9362
54.9329
54.9296
54.9263
54.923
54.9198
54.9165
54.9132
54.9099
54.9067
54.9034
54.9001
54.8968
54.8936
54.8903
54.887
54.8837
54.8805
54.8772
54.8739
54.8706
54.8673
54.8641
54.8608
54.8575
54.8542
54.851
54.8477
54.8444
54.8411
54.8379
54.8346
54.8313
54.828
54.8248
54.8215
54.8182
54.8149
54.8116
54.8084
54.8051
54.8018
54.7985
54.7953
54.792
54.7887
54.7854
54.7822
54.7789
54.7756
54.7723
54.7691
54.7658
54.7625
54.7592
54.7559
54.7527
54.7494
54.7461
54.7428
54.7396
54.7363
54.733
54.7297
54.7265
54.7232
54.7199
54.7166
54.7133
54.7101
54.7068
54.7035
54.7002
54.697
54.6937
54.6904
54.6871
54.6839
54.6806
54.6773
54.674
54.6708
54.6675
54.6642
54.6609
54.6576
54.6544
54.6511
54.6478
54.6445
54.6413
54.6413
56.4834
56.4834
56.2559
56.2068
56.1845
56.1692
56.1567
56.1457
56.1355
56.1259
56.1166
56.1077
56.099
56.0906
56.0824
56.0743
56.0665
56.0588
56.0512
56.0439
56.0366
56.0295
56.0225
56.0157
56.009
56.0023
55.9958
55.9894
55.9831
55.9768
55.9707
55.9646
55.9586
55.9527
55.9469
55.9411
55.9354
55.9298
55.9242
55.9187
55.9132
55.9078
55.9024
55.8971
55.8919
55.8867
55.8815
55.8764
55.8713
55.8663
55.8613
55.8563
55.8514
55.8465
55.8416
55.8368
55.832
55.8273
55.8226
55.8179
55.8132
55.8086
55.804
55.7994
55.7949
55.7904
55.7859
55.7814
55.777
55.7726
55.7682
55.7638
55.7595
55.7551
55.7508
55.7465
55.7423
55.738
55.7338
55.7296
55.7254
55.7212
55.7171
55.713
55.7088
55.7047
55.7007
55.6966
55.6925
55.6885
55.6845
55.6805
55.6765
55.6725
55.6685
55.6646
55.6607
55.6567
55.6528
55.6489
55.6451
55.6412
55.6373
55.6335
55.6296
55.6258
55.622
55.6182
55.6144
55.6106
55.6068
55.6031
55.5993
55.5956
55.5918
55.5881
55.5844
55.5807
55.577
55.5733
55.5696
55.5659
55.5623
55.5586
55.555
55.5513
55.5477
55.5441
55.5404
55.5368
55.5332
55.5296
55.526
55.5224
55.5189
55.5153
55.5117
55.5082
55.5046
55.501
55.4975
55.494
55.4904
55.4869
55.4834
55.4799
55.4763
55.4728
55.4693
55.4658
55.4623
55.4588
55.4554
55.4519
55.4484
55.4449
55.4415
55.438
55.4345
55.4311
55.4276
55.4242
55.4207
55.4173
55.4139
55.4104
55.407
55.4036
55.4001
55.3967
55.3933
55.3899
55.3865
55.3831
55.3797
55.3762
55.3728
55.3695
55.3661
55.3627
55.3593
55.3559
55.3525
55.3491
55.3457
55.3424
55.339
55.3356
55.3322
55.3289
55.3255
55.3221
55.3188
55.3154
55.3121
55.3087
55.3053
55.302
55.2986
55.2953
55.2919
55.2886
55.2852
55.2819
55.2786
55.2752
55.2719
55.2685
55.2652
55.2619
55.2585
55.2552
55.2519
55.2486
55.2452
55.2419
55.2386
55.2353
55.2319
55.2286
55.2253
55.222
55.2187
55.2154
55.2121
55.2087
55.2054
55.2021
55.1988
55.1955
55.1922
55.1889
55.1856
55.1823
55.179
55.1757
55.1724
55.1691
55.1658
55.1625
55.1592
55.1559
55.1526
55.1493
55.146
55.1428
55.1395
55.1362
55.1329
55.1296
55.1263
55.123
55.1197
55.1165
55.1132
55.1099
55.1066
55.1033
55.1
55.0968
55.0935
55.0902
55.0869
55.0836
55.0804
55.0771
55.0738
55.0705
55.0672
55.064
55.0607
55.0574
55.0541
55.0508
55.0476
55.0443
55.041
55.0377
55.0345
55.0312
55.0279
55.0246
55.0213
55.0181
55.0148
55.0115
55.0082
55.005
55.0017
54.9984
54.9951
54.9919
54.9886
54.9853
54.982
54.9788
54.9755
54.9722
54.9689
54.9656
54.9624
54.9591
54.9558
54.9525
54.9493
54.946
54.9427
54.9394
54.9362
54.9329
54.9296
54.9263
54.923
54.9198
54.9165
54.9132
54.9099
54.9067
54.9034
54.9001
54.8968
54.8936
54.8903
54.887
54.8837
54.8805
54.8772
54.8739
54.8706
54.8673
54.8641
54.8608
54.8575
54.8542
54.851
54.8477
54.8444
54.8411
54.8379
54.8346
54.8313
54.828
54.8248
54.8215
54.8182
54.8149
54.8116
54.8084
54.8051
54.8018
54.7985
54.7953
54.792
54.7887
54.7854
54.7822
54.7789
54.7756
54.7723
54.7691
54.7658
54.7625
54.7592
54.7559
54.7527
54.7494
54.7461
54.7428
54.7396
54.7363
54.733
54.7297
54.7265
54.7232
54.7199
54.7166
54.7133
54.7101
54.7068
54.7035
54.7002
54.697
54.6937
54.6904
54.6871
54.6839
54.6806
54.6773
54.674
54.6708
54.6675
54.6642
54.6609
54.6576
54.6544
54.6511
54.6478
54.6445
54.6413
54.6413
56.4694
56.4694
56.2585
56.208
56.1851
56.1695
56.157
56.1459
56.1356
56.126
56.1167
56.1078
56.0991
56.0907
56.0824
56.0744
56.0665
56.0588
56.0513
56.0439
56.0366
56.0295
56.0226
56.0157
56.009
56.0024
55.9958
55.9894
55.9831
55.9769
55.9707
55.9646
55.9587
55.9527
55.9469
55.9411
55.9354
55.9298
55.9242
55.9187
55.9132
55.9078
55.9025
55.8971
55.8919
55.8867
55.8815
55.8764
55.8713
55.8663
55.8613
55.8563
55.8514
55.8465
55.8417
55.8368
55.8321
55.8273
55.8226
55.8179
55.8132
55.8086
55.804
55.7994
55.7949
55.7904
55.7859
55.7814
55.777
55.7726
55.7682
55.7638
55.7595
55.7551
55.7508
55.7465
55.7423
55.738
55.7338
55.7296
55.7254
55.7212
55.7171
55.713
55.7088
55.7047
55.7007
55.6966
55.6925
55.6885
55.6845
55.6805
55.6765
55.6725
55.6686
55.6646
55.6607
55.6567
55.6528
55.6489
55.6451
55.6412
55.6373
55.6335
55.6296
55.6258
55.622
55.6182
55.6144
55.6106
55.6068
55.6031
55.5993
55.5956
55.5918
55.5881
55.5844
55.5807
55.577
55.5733
55.5696
55.5659
55.5623
55.5586