# vtk DataFile Version 2.0
FlowField
ASCII
DATASET STRUCTURED_GRID
DIMENSIONS 400 1 200
POINTS 80000 float
0 0 0
0.08 0 0
0.16 0 0
0.24 0 0
0.32 0 0
0.4 0 0
0.48 0 0
0.56 0 0
0.64 0 0
0.72 0 0
0.8 0 0
0.88 0 0
0.96 0 0
1.04 0 0
1.12 0 0
1.2 0 0
1.28 0 0
1.36 0 0
1.44 0 0
1.52 0 0
1.6 0 0
1.68 0 0
1.76 0 0
1.84 0 0
1.92 0 0
2 0 0
2.08 0 0
2.16 0 0
2.24 0 0
2.32 0 0
2.4 0 0
2.48 0 0
2.56 0 0
2.64 0 0
2.72 0 0
2.8 0 0
2.88 0 0
2.96 0 0
3.04 0 0
3.12 0 0
3.2 0 0
3.28 0 0
3.36 0 0
3.44 0 0
3.52 0 0
3.6 0 0
3.68 0 0
3.76 0 0
3.84 0 0
3.92 0 0
4 0 0
4.08 0 0
4.16 0 0
4.24 0 0
4.32 0 0
4.4 0 0
4.48 0 0
4.56 0 0
4.64 0 0
4.72 0 0
4.8 0 0
4.88 0 0
4.96 0 0
5.04 0 0
5.12 0 0
5.2 0 0
5.28 0 0
5.36 0 0
5.44 0 0
5.52 0 0
5.6 0 0
5.68 0 0
5.76 0 0
5.84 0 0
5.92 0 0
6 0 0
6.08 0 0
6.16 0 0
6.24 0 0
6.32 0 0
6.4 0 0
6.48 0 0
6.56 0 0
6.64 0 0
6.72 0 0
6.8 0 0
6.88 0 0
6.96 0 0
7.04 0 0
7.12 0 0
7.2 0 0
7.28 0 0
7.36 0 0
7.44 0 0
7.52 0 0
7.6 0 0
7.68 0 0
7.76 0 0
7.84 0 0
7.92 0 0
8 0 0
8.08 0 0
8.16 0 0
8.24 0 0
8.32 0 0
8.4 0 0
8.48 0 0
8.56 0 0
8.64 0 0
8.72 0 0
8.8 0 0
8.88 0 0
8.96 0 0
9.04 0 0
9.12 0 0
9.2 0 0
9.28 0 0
9.36 0 0
9.44 0 0
9.52 0 0
9.6 0 0
9.68 0 0
9.76 0 0
9.84 0 0
9.92 0 0
10 0 0
10.08 0 0
10.16 0 0
10.24 0 0
10.32 0 0
10.4 0 0
10.48 0 0
10.56 0 0
10.64 0 0
10.72 0 0
10.8 0 0
10.88 0 0
10.96 0 0
11.04 0 0
11.12 0 0
11.2 0 0
11.28 0 0
11.36 0 0
11.44 0 0
11.52 0 0
11.6 0 0
11.68 0 0
11.76 0 0
11.84 0 0
11.92 0 0
12 0 0
12.08 0 0
12.16 0 0
12.24 0 0
12.32 0 0
12.4 0 0
12.48 0 0
12.56 0 0
12.64 0 0
12.72 0 0
12.8 0 0
12.88 0 0
12.96 0 0
13.04 0 0
13.12 0 0
13.2 0 0
13.28 0 0
13.36 0 0
13.44 0 0
13.52 0 0
13.6 0 0
13.68 0 0
13.76 0 0
13.84 0 0
13.92 0 0
14 0 0
14.08 0 0
14.16 0 0
14.24 0 0
14.32 0 0
14.4 0 0
14.48 0 0
14.56 0 0
14.64 0 0
14.72 0 0
14.8 0 0
14.88 0 0
14.96 0 0
15.04 0 0
15.12 0 0
15.2 0 0
15.28 0 0
15.36 0 0
15.44 0 0
15.52 0 0
15.6 0 0
15.68 0 0
15.76 0 0
15.84 0 0
15.92 0 0
16 0 0
16.08 0 0
16.16 0 0
16.24 0 0
16.32 0 0
16.4 0 0
16.48 0 0
16.56 0 0
16.64 0 0
16.72 0 0
16.8 0 0
16.88 0 0
16.96 0 0
17.04 0 0
17.12 0 0
17.2 0 0
17.28 0 0
17.36 0 0
17.44 0 0
17.52 0 0
17.6 0 0
17.68 0 0
17.76 0 0
17.84 0 0
17.92 0 0
18 0 0
18.08 0 0
18.16 0 0
18.24 0 0
18.32 0 0
18.4 0 0
18.48 0 0
18.56 0 0
18.64 0 0
18.72 0 0
18.8 0 0
18.88 0 0
18.96 0 0
19.04 0 0
19.12 0 0
19.2 0 0
19.28 0 0
19.36 0 0
19.44 0 0
19.52 0 0
19.6 0 0
19.68 0 0
19.76 0 0
19.84 0 0
19.92 0 0
20 0 0
20.08 0 0
20.16 0 0
20.24 0 0
20.32 0 0
20.4 0 0
20.48 0 0
20.56 0 0
20.64 0 0
20.72 0 0
20.8 0 0
20.88 0 0
20.96 0 0
21.04 0 0
21.12 0 0
21.2 0 0
21.28 0 0
21.36 0 0
21.44 0 0
21.52 0 0
21.6 0 0
21.68 0 0
21.76 0 0
21.84 0 0
21.92 0 0
22 0 0
22.08 0 0
22.16 0 0
22.24 0 0
22.32 0 0
22.4 0 0
22.48 0 0
22.56 0 0
22.64 0 0
22.72 0 0
22.8 0 0
22.88 0 0
22.96 0 0
23.04 0 0
23.12 0 0
23.2 0 0
23.28 0 0
23.36 0 0
23.44 0 0
23.52 0 0
23.6 0 0
23.68 0 0
23.76 0 0
23.84 0 0
23.92 0 0
24 0 0
24.08 0 0
24.16 0 0
24.24 0 0
24.32 0 0
24.4 0 0
24.48 0 0
24.56 0 0
24.64 0 0
24.72 0 0
24.8 0 0
24.88 0 0
24.96 0 0
25.04 0 0
25.12 0 0
25.2 0 0
25.28 0 0
25.36 0 0
25.44 0 0
25.52 0 0
25.6 0 0
25.68 0 0
25.76 0 0
25.84 0 0
25.92 0 0
26 0 0
26.08 0 0
26.16 0 0
26.24 0 0
26.32 0 0
26.4 0 0
26.48 0 0
26.56 0 0
26.64 0 0
26.72 0 0
26.8 0 0
26.88 0 0
26.96 0 0
27.04 0 0
27.12 0 0
27.2 0 0
27.28 0 0
27.36 0 0
27.44 0 0
27.52 0 0
27.6 0 0
27.68 0 0
27.76 0 0
27.84 0 0
27.92 0 0
28 0 0
28.08 0 0
28.16 0 0
28.24 0 0
28.32 0 0
28.4 0 0
28.48 0 0
28.56 0 0
28.64 0 0
28.72 0 0
28.8 0 0
28.88 0 0
28.96 0 0
29.04 0 0
29.12 0 0
29.2 0 0
29.28 0 0
29.36 0 0
29.44 0 0
29.52 0 0
29.6 0 0
29.68 0 0
29.76 0 0
29.84 0 0
29.92 0 0
30 0 0
30.08 0 0
30.16 0 0
30.24 0 0
30.32 0 0
30.4 0 0
30.48 0 0
30.56 0 0
30.64 0 0
30.72 0 0
30.8 0 0
30.88 0 0
30.96 0 0
31.04 0 0
31.12 0 0
31.2 0 0
31.28 0 0
31.36 0 0
31.44 0 0
31.52 0 0
31.6 0 0
31.68 0 0
31.76 0 0
31.84 0 0
31.92 0 0
0 0.005 0
0.08 0.005 0
0.16 0.005 0
0.24 0.005 0
0.32 0.005 0
0.4 0.005 0
0.48 0.005 0
0.56 0.005 0
0.64 0.005 0
0.72 0.005 0
0.8 0.005 0
0.88 0.005 0
0.96 0.005 0
1.04 0.005 0
1.12 0.005 0
1.2 0.005 0
1.28 0.005 0
1.36 0.005 0
1.44 0.005 0
1.52 0.005 0
1.6 0.005 0
1.68 0.005 0
1.76 0.005 0
1.84 0.005 0
1.92 0.005 0
2 0.005 0
2.08 0.005 0
2.16 0.005 0
2.24 0.005 0
2.32 0.005 0
2.4 0.005 0
2.48 0.005 0
2.56 0.005 0
2.64 0.005 0
2.72 0.005 0
2.8 0.005 0
2.88 0.005 0
2.96 0.005 0
3.04 0.005 0
3.12 0.005 0
3.2 0.005 0
3.28 0.005 0
3.36 0.005 0
3.44 0.005 0
3.52 0.005 0
3.6 0.005 0
3.68 0.005 0
3.76 0.005 0
3.84 0.005 0
3.92 0.005 0
4 0.005 0
4.08 0.005 0
4.16 0.005 0
4.24 0.005 0
4.32 0.005 0
4.4 0.005 0
4.48 0.005 0
4.56 0.005 0
4.64 0.005 0
4.72 0.005 0
4.8 0.005 0
4.88 0.005 0
4.96 0.005 0
5.04 0.005 0
5.12 0.005 0
5.2 0.005 0
5.28 0.005 0
5.36 0.005 0
5.44 0.005 0
5.52 0.005 0
5.6 0.005 0
5.68 0.005 0
5.76 0.005 0
5.84 0.005 0
5.92 0.005 0
6 0.005 0
6.08 0.005 0
6.16 0.005 0
6.24 0.005 0
6.32 0.005 0
6.4 0.005 0
6.48 0.005 0
6.56 0.005 0
6.64 0.005 0
6.72 0.005 0
6.8 0.005 0
6.88 0.005 0
6.96 0.005 0
7.04 0.005 0
7.12 0.005 0
7.2 0.005 0
7.28 0.005 0
7.36 0.005 0
7.44 0.005 0
7.52 0.005 0
7.6 0.005 0
7.68 0.005 0
7.76 0.005 0
7.84 0.005 0
7.92 0.005 0
8 0.005 0
8.08 0.005 0
8.16 0.005 0
8.24 0.005 0
8.32 0.005 0
8.4 0.005 0
8.48 0.005 0
8.56 0.005 0
8.64 0.005 0
8.72 0.005 0
8.8 0.005 0
8.88 0.005 0
8.96 0.005 0
9.04 0.005 0
9.12 0.005 0
9.2 0.005 0
9.28 0.005 0
9.36 0.005 0
9.44 0.005 0
9.52 0.005 0
9.6 0.005 0
9.68 0.005 0
9.76 0.005 0
9.84 0.005 0
9.92 0.005 0
10 0.005 0
10.08 0.005 0
10.16 0.005 0
10.24 0.005 0
10.32 0.005 0
10.4 0.005 0
10.48 0.005 0
10.56 0.005 0
10.64 0.005 0
10.72 0.005 0
10.8 0.005 0
10.88 0.005 0
10.96 0.005 0
11.04 0.005 0
11.12 0.005 0
11.2 0.005 0
11.28 0.005 0
11.36 0.005 0
11.44 0.005 0
11.52 0.005 0
11.6 0.005 0
11.68 0.005 0
11.76 0.005 0
11.84 0.005 0
11.92 0.005 0
12 0.005 0
12.08 0.005 0
12.16 0.005 0
12.24 0.005 0
12.32 0.005 0
12.4 0.005 0
12.48 0.005 0
12.56 0.005 0
12.64 0.005 0
12.72 0.005 0
12.8 0.005 0
12.88 0.005 0
12.96 0.005 0
13.04 0.005 0
13.12 0.005 0
13.2 0.005 0
13.28 0.005 0
13.36 0.005 0
13.44 0.005 0
13.52 0.005 0
13.6 0.005 0
13.68 0.005 0
13.76 0.005 0
13.84 0.005 0
13.92 0.005 0
14 0.005 0
14.08 0.005 0
14.16 0.005 0
14.24 0.005 0
14.32 0.005 0
14.4 0.005 0
14.48 0.005 0
14.56 0.005 0
14.64 0.005 0
14.72 0.005 0
14.8 0.005 0
14.88 0.005 0
14.96 0.005 0
15.04 0.005 0
15.12 0.005 0
15.2 0.005 0
15.28 0.005 0
15.36 0.005 0
15.44 0.005 0
15.52 0.005 0
15.6 0.005 0
15.68 0.005 0
15.76 0.005 0
15.84 0.005 0
15.92 0.005 0
16 0.005 0
16.08 0.005 0
16.16 0.005 0
16.24 0.005 0
16.32 0.005 0
16.4 0.005 0
16.48 0.005 0
16.56 0.005 0
16.64 0.005 0
16.72 0.005 0
16.8 0.005 0
16.88 0.005 0
16.96 0.005 0
17.04 0.005 0
17.12 0.005 0
17.2 0.005 0
17.28 0.005 0
17.36 0.005 0
17.44 0.005 0
17.52 0.005 0
17.6 0.005 0
17.68 0.005 0
17.76 0.005 0
17.84 0.005 0
17.92 0.005 0
18 0.005 0
18.08 0.005 0
18.16 0.005 0
18.24 0.005 0
18.32 0.005 0
18.4 0.005 0
18.48 0.005 0
18.56 0.005 0
18.64 0.005 0
18.72 0.005 0
18.8 0.005 0
18.88 0.005 0
18.96 0.005 0
19.04 0.005 0
19.12 0.005 0
19.2 0.005 0
19.28 0.005 0
19.36 0.005 0
19.44 0.005 0
19.52 0.005 0
19.6 0.005 0
19.68 0.005 0
19.76 0.005 0
19.84 0.005 0
19.92 0.005 0
20 0.005 0
20.08 0.005 0
20.16 0.005 0
20.24 0.005 0
20.32 0.005 0
20.4 0.005 0
20.48 0.005 0
20.56 0.005 0
20.64 0.005 0
20.72 0.005 0
20.8 0.005 0
20.88 0.005 0
20.96 0.005 0
21.04 0.005 0
21.12 0.005 0
21.2 0.005 0
21.28 0.005 0
21.36 0.005 0
21.44 0.005 0
21.52 0.005 0
21.6 0.005 0
21.68 0.005 0
21.76 0.005 0
21.84 0.005 0
21.92 0.005 0
22 0.005 0
22.08 0.005 0
22.16 0.005 0
22.24 0.005 0
22.32 0.005 0
22.4 0.005 0
22.48 0.005 0
22.56 0.005 0
22.64 0.005 0
22.72 0.005 0
22.8 0.005 0
22.88 0.005 0
22.96 0.005 0
23.04 0.005 0
23.12 0.005 0
23.2 0.005 0
23.28 0.005 0
23.36 0.005 0
23.44 0.005 0
23.52 0.005 0
23.6 0.005 0
23.68 0.005 0
23.76 0.005 0
23.84 0.005 0
23.92 0.005 0
24 0.005 0
24.08 0.005 0
24.16 0.005 0
24.24 0.005 0
24.32 0.005 0
24.4 0.005 0
24.48 0.005 0
24.56 0.005 0
24.64 0.005 0
24.72 0.005 0
24.8 0.005 0
24.88 0.005 0
24.96 0.005 0
25.04 0.005 0
25.12 0.005 0
25.2 0.005 0
25.28 0.005 0
25.36 0.005 0
25.44 0.005 0
25.52 0.005 0
25.6 0.005 0
25.68 0.005 0
25.76 0.005 0
25.84 0.005 0
25.92 0.005 0
26 0.005 0
26.08 0.005 0
26.16 0.005 0
26.24 0.005 0
26.32 0.005 0
26.4 0.005 0
26.48 0.005 0
26.56 0.005 0
26.64 0.005 0
26.72 0.005 0
26.8 0.005 0
26.88 0.005 0
26.96 0.005 0
27.04 0.005 0
27.12 0.005 0
27.2 0.005 0
27.28 0.005 0
27.36 0.005 0
27.44 0.005 0
27.52 0.005 0
27.6 0.005 0
27.68 0.005 0
27.76 0.005 0
27.84 0.005 0
27.92 0.005 0
28 0.005 0
28.08 0.005 0
28.16 0.005 0
28.24 0.005 0
28.32 0.005 0
28.4 0.005 0
28.48 0.005 0
28.56 0.005 0
28.64 0.005 0
28.72 0.005 0
28.8 0.005 0
28.88 0.005 0
28.96 0.005 0
29.04 0.005 0
29.12 0.005 0
29.2 0.005 0
29.28 0.005 0
29.36 0.005 0
29.44 0.005 0
29.52 0.005 0
29.6 0.005 0
29.68 0.005 0
29.76 0.005 0
29.84 0.005 0
29.92 0.005 0
30 0.005 0
30.08 0.005 0
30.16 0.005 0
30.24 0.005 0
30.32 0.005 0
30.4 0.005 0
30.48 0.005 0
30.56 0.005 0
30.64 0.005 0
30.72 0.005 0
30.8 0.005 0
30.88 0.005 0
30.96 0.005 0
31.04 0.005 0
31.12 0.005 0
31.2 0.005 0
31.28 0.005 0
31.36 0.005 0
31.44 0.005 0
31.52 0.005 0
31.6 0.005 0
31.68 0.005 0
31.76 0.005 0
31.84 0.005 0
31.92 0.005 0
0 0.01 0
0.08 0.01 0
0.16 0.01 0
0.24 0.01 0
0.32 0.01 0
0.4 0.01 0
0.48 0.01 0
0.56 0.01 0
0.64 0.01 0
0.72 0.01 0
0.8 0.01 0
0.88 0.01 0
0.96 0.01 0
1.04 0.01 0
1.12 0.01 0
1.2 0.01 0
1.28 0.01 0
1.36 0.01 0
1.44 0.01 0
1.52 0.01 0
1.6 0.01 0
1.68 0.01 0
1.76 0.01 0
1.84 0.01 0
1.92 0.01 0
2 0.01 0
2.08 0.01 0
2.16 0.01 0
2.24 0.01 0
2.32 0.01 0
2.4 0.01 0
2.48 0.01 0
2.56 0.01 0
2.64 0.01 0
2.72 0.01 0
2.8 0.01 0
2.88 0.01 0
2.96 0.01 0
3.04 0.01 0
3.12 0.01 0
3.2 0.01 0
3.28 0.01 0
3.36 0.01 0
3.44 0.01 0
3.52 0.01 0
3.6 0.01 0
3.68 0.01 0
3.76 0.01 0
3.84 0.01 0
3.92 0.01 0
4 0.01 0
4.08 0.01 0
4.16 0.01 0
4.24 0.01 0
4.32 0.01 0
4.4 0.01 0
4.48 0.01 0
4.56 0.01 0
4.64 0.01 0
4.72 0.01 0
4.8 0.01 0
4.88 0.01 0
4.96 0.01 0
5.04 0.01 0
5.12 0.01 0
[...]
POINT_DATA 80000

SCALARS p float 1
LOOKUP_TABLE default
1
56.5778
56.2761
56.2349
56.2149
56.2004
56.1884
56.1777
56.1677
56.1582
56.149
56.1402
56.1316
56.1232
56.115
56.1069
56.0991
56.0914
56.0839
56.0765
56.0693
56.0622
56.0552
56.0484
56.0417
56.0351
56.0285
56.0221
56.0158
56.0096
56.0034
55.9974
55.9914
55.9855
55.9796
55.9739
55.9682
55.9625
55.957
55.9514
55.946
55.9406
55.9352
55.9299
55.9246
55.9194
55.9143
55.9091
55.9041
55.899
55.894
55.8891
55.8842
55.8793
55.8744
55.8696
55.8648
55.8601
55.8554
55.8507
55.846
55.8414
55.8368
55.8322
55.8277
55.8232
55.8187
55.8142
55.8098
55.8053
55.801
55.7966
55.7922
55.7879
55.7836
55.7793
55.7751
55.7708
55.7666
55.7624
55.7582
55.7541
55.7499
55.7458
55.7417
55.7376
55.7336
55.7295
55.7255
55.7215
55.7175
55.7136
55.7096
55.7057
55.7018
55.6979
55.694
55.6902
55.6864
55.6826
55.6788
55.675
55.6712
55.6675
55.6637
55.66
55.6563
55.6526
55.649
55.6453
55.6417
55.638
55.6344
55.6308
55.6272
55.6236
55.62
55.6164
55.6129
55.6093
55.6058
55.6022
55.5987
55.5952
55.5917
55.5882
55.5847
55.5812
55.5777
55.5742
55.5707
55.5672
55.5638
55.5603
55.5568
55.5534
55.5499
55.5464
55.543
55.5395
55.5361
55.5326
55.5292
55.5257
55.5223
55.5188
55.5154
55.5119
55.5085
55.505
55.5016
55.4981
55.4947
55.4912
55.4878
55.4843
55.4809
55.4774
55.474
55.4705
55.4671
55.4637
55.4602
55.4568
55.4533
55.4499
55.4464
55.443
55.4395
55.4361
55.4326
55.4292
55.4257
55.4223
55.4188
55.4154
55.4119
55.4085
55.405
55.4016
55.3981
55.3947
55.3912
55.3878
55.3843
55.3809
55.3774
55.374
55.3705
55.3671
55.3636
55.3602
55.3567
55.3533
55.3498
55.3464
55.3429
55.3395
55.336
55.3326
55.3291
55.3257
55.3222
55.3188
55.3153
55.3119
55.3084
55.305
55.3015
55.2981
55.2946
55.2912
55.2877
55.2843
55.2808
55.2774
55.2739
55.2705
55.267
55.2636
55.2601
55.2567
55.2532
55.2498
55.2463
55.2429
55.2394
55.236
55.2325
55.2291
55.2256
55.2222
55.2187
55.2153
55.2118
55.2084
55.2049
55.2014
55.198
55.1945
55.1911
55.1876
55.1842
55.1807
55.1773
55.1738
55.1704
55.1669
55.1635
55.16
55.1566
55.1531
55.1497
55.1462
55.1428
55.1393
55.1359
55.1324
55.129
55.1255
55.122
55.1186
55.1151
55.1117
55.1082
55.1048
55.1013
55.0979
55.0944
55.091
55.0875
55.0841
55.0806
55.0772
55.0737
55.0703
55.0668
55.0633
55.0599
55.0564
55.053
55.0495
55.0461
55.0426
55.0392
55.0357
55.0323
55.0288
55.0254
55.0219
55.0184
55.015
55.0115
55.0081
55.0046
55.0012
54.9977
54.9943
54.9908
54.9874
54.9839
54.9804
54.977
54.9735
54.9701
54.9666
54.9632
54.9597
54.9563
54.9528
54.9494
54.9459
54.9424
54.939
54.9355
54.9321
54.9286
54.9252
54.9217
54.9183
54.9148
54.9113
54.9079
54.9044
54.901
54.8975
54.8941
54.8906
54.8872
54.8837
54.8802
54.8768
54.8733
54.8699
54.8664
54.863
54.8595
54.8561
54.8526
54.8491
54.8457
54.8422
54.8388
54.8353
54.8319
54.8284
54.8249
54.8215
54.818
54.8146
54.8111
54.8077
54.8042
54.8007
54.7973
54.7938
54.7904
54.7869
54.7835
54.78
54.7765
54.7731
54.7696
54.7662
54.7627
54.7593
54.7558
54.7523
54.7489
54.7454
54.742
54.7385
54.7351
54.7316
54.7281
54.7247
54.7212
54.7178
54.7143
54.7108
54.7074
54.7039
54.7005
54.697
54.6936
54.6901
54.6866
54.6832
54.6797
54.6763
54.6728
54.6693
54.6659
54.6624
54.659
54.6555
54.652
54.6486
54.6451
0.5
56.5778
56.5778
56.2761
56.2349
56.2149
56.2004
56.1884
56.1777
56.1677
56.1582
56.149
56.1402
56.1316
56.1232
56.115
56.1069
56.0991
56.0914
56.0839
56.0765
56.0693
56.0622
56.0552
56.0484
56.0417
56.0351
56.0285
56.0221
56.0158
56.0096
56.0034
55.9974
55.9914
55.9855
55.9796
55.9739
55.9682
55.9625
55.957
55.9514
55.946
55.9406
55.9352
55.9299
55.9246
55.9194
55.9143
55.9091
55.9041
55.899
55.894
55.8891
55.8842
55.8793
55.8744
55.8696
55.8648
55.8601
55.8554
55.8507
55.846
55.8414
55.8368
55.8322
55.8277
55.8232
55.8187
55.8142
55.8098
55.8053
55.801
55.7966
55.7922
55.7879
55.7836
55.7793
55.7751
55.7708
55.7666
55.7624
55.7582
55.7541
55.7499
55.7458
55.7417
55.7376
55.7336
55.7295
55.7255
55.7215
55.7175
55.7136
55.7096
55.7057
55.7018
55.6979
55.694
55.6902
55.6864
55.6826
55.6788
55.675
55.6712
55.6675
55.6637
55.66
55.6563
55.6526
55.649
55.6453
55.6417
55.638
55.6344
55.6308
55.6272
55.6236
55.62
55.6164
55.6129
55.6093
55.6058
55.6022
55.5987
55.5952
55.5917
55.5882
55.5847
55.5812
55.5777
55.5742
55.5707
55.5672
55.5638
55.5603
55.5568
55.5534
55.5499
55.5464
55.543
55.5395
55.5361
55.5326
55.5292
55.5257
55.5223
55.5188
55.5154
55.5119
55.5085
55.505
55.5016
55.4981
55.4947
55.4912
55.4878
55.4843
55.4809
55.4774
55.474
55.4705
55.4671
55.4637
55.4602
55.4568
55.4533
55.4499
55.4464
55.443
55.4395
55.4361
55.4326
55.4292
55.4257
55.4223
55.4188
55.4154
55.4119
55.4085
55.405
55.4016
55.3981
55.3947
55.3912
55.3878
55.3843
55.3809
55.3774
55.374
55.3705
55.3671
55.3636
55.3602
55.3567
55.3533
55.3498
55.3464
55.3429
55.3395
55.336
55.3326
55.3291
55.3257
55.3222
55.3188
55.3153
55.3119
55.3084
55.305
55.3015
55.2981
55.2946
55.2912
55.2877
55.2843
55.2808
55.2774
55.2739
55.2705
55.267
55.2636
55.2601
55.2567
55.2532
55.2498
55.2463
55.2429
55.2394
55.236
55.2325
55.2291
55.2256
55.2222
55.2187
55.2153
55.2118
55.2084
55.2049
55.2014
55.198
55.1945
55.1911
55.1876
55.1842
55.1807
55.1773
55.1738
55.1704
55.1669
55.1635
55.16
55.1566
55.1531
55.1497
55.1462
55.1428
55.1393
55.1359
55.1324
55.129
55.1255
55.122
55.1186
55.1151
55.1117
55.1082
55.1048
55.1013
55.0979
55.0944
55.091
55.0875
55.0841
55.0806
55.0772
55.0737
55.0703
55.0668
55.0633
55.0599
55.0564
55.053
55.0495
55.0461
55.0426
55.0392
55.0357
55.0323
55.0288
55.0254
55.0219
55.0184
55.015
55.0115
55.0081
55.0046
55.0012
54.9977
54.9943
54.9908
54.9874
54.9839
54.9804
54.977
54.9735
54.9701
54.9666
54.9632
54.9597
54.9563
54.9528
54.9494
54.9459
54.9424
54.939
54.9355
54.9321
54.9286
54.9252
54.9217
54.9183
54.9148
54.9113
54.9079
54.9044
54.901
54.8975
54.8941
54.8906
54.8872
54.8837
54.8802
54.8768
54.8733
54.8699
54.8664
54.863
54.8595
54.8561
54.8526
54.8491
54.8457
54.8422
54.8388
54.8353
54.8319
54.8284
54.8249
54.8215
54.818
54.8146
54.8111
54.8077
54.8042
54.8007
54.7973
54.7938
54.7904
54.7869
54.7835
54.78
54.7765
54.7731
54.7696
54.7662
54.7627
54.7593
54.7558
54.7523
54.7489
54.7454
54.742
54.7385
54.7351
54.7316
54.7281
54.7247
54.7212
54.7178
54.7143
54.7108
54.7074
54.7039
54.7005
54.697
54.6936
54.6901
54.6866
54.6832
54.6797
54.6763
54.6728
54.6693
54.6659
54.6624
54.659
54.6555
54.652
54.6486
54.6451
54.6451
56.5633
56.5633
56.2799
56.2362
56.2155
56.2008
56.1887
56.1779
56.1678
56.1583
56.1491
56.1403
56.1316
56.1232
56.115
56.107
56.0991
56.0915
56.0839
56.0766
56.0693
56.0622
56.0553
56.0484
56.0417
56.0351
56.0286
56.0222
56.0158
56.0096
56.0035
55.9974
55.9914
55.9855
55.9797
55.9739
55.9682
55.9625
55.957
55.9515
55.946
55.9406
55.9352
55.9299
55.9247
55.9194
55.9143
55.9092
55.9041
55.899
55.894
55.8891
55.8842
55.8793
55.8744
55.8696
55.8648
55.8601
55.8554
55.8507
55.846
55.8414
55.8368
55.8322
55.8277
55.8232
55.8187
55.8142
55.8098
55.8054
55.801
55.7966
55.7922
55.7879
55.7836
55.7793
55.7751
55.7708
55.7666
55.7624
55.7582
55.7541
55.7499
55.7458
55.7417
55.7376
55.7336
55.7295
55.7255
55.7215
55.7175
55.7136
55.7096
55.7057
55.7018
55.6979
55.6941
55.6902
55.6864
55.6826
55.6788
55.675
55.6712
55.6675
55.6637
55.66
55.6563
55.6526
55.649
55.6453
55.6417
55.638
55.6344
55.6308
55.6272
55.6236
55.62
55.6164
55.6129
55.6093
55.6058
55.6022
55.5987
55.5952
55.5917
55.5882
55.5847
55.5812
55.5777
55.5742
55.5707
55.5672
55.5638
55.5603
55.5568
55.5534
55.5499
55.5464
55.543
55.5395
55.5361
55.5326
55.5292
55.5257
55.5223
55.5188
55.5154
55.5119
55.5085
55.505
55.5016
55.4981
55.4947
55.4912
55.4878
55.4843
55.4809
55.4774
55.474
55.4705
55.4671
55.4637
55.4602
55.4568
55.4533
55.4499
55.4464
55.443
55.4395
55.4361
55.4326
55.4292
55.4257
55.4223
55.4188
55.4154
55.4119
55.4085
55.405
55.4016
55.3981
55.3947
55.3912
55.3878
55.3843
55.3809
55.3774
55.374
55.3705
55.3671
55.3636
55.3602
55.3567
55.3533
55.3498
55.3464
55.3429
55.3395
55.336
55.3326
55.3291
55.3257
55.3222
55.3188
55.3153
55.3119
55.3084
55.305
55.3015
55.2981
55.2946
55.2912
55.2877
55.2843
55.2808
55.2774
55.2739
55.2705
55.267
55.2636
55.2601
55.2567
55.2532
55.2498
55.2463
55.2429
55.2394
55.236
55.2325
55.2291
55.2256
55.2222
55.2187
55.2153
55.2118
55.2084
55.2049
55.2014
55.198
55.1945
55.1911
55.1876
55.1842
55.1807
55.1773
55.1738
55.1704
55.1669
55.1635
55.16
55.1566
55.1531
55.1497
55.1462
55.1428
55.1393
55.1359
55.1324
55.129
55.1255
55.122
55.1186
55.1151
55.1117
55.1082
55.1048
55.1013
55.0979
55.0944
55.091
55.0875
55.0841
55.0806
55.0772
55.0737
55.0703
55.0668
55.0633
55.0599
55.0564
55.053
55.0495
55.0461
55.0426
55.0392
55.0357
55.0323
55.0288
55.0254
55.0219
55.0184
55.015
55.0115
55.0081
55.0046
55.0012
54.9977
54.9943
54.9908
54.9874
54.9839
54.9804
54.977
54.9735
54.9701
54.9666
54.9632
54.9597
54.9563
54.9528
54.9494
54.9459
54.9424
54.939
54.9355
54.9321
54.9286
54.9252
54.9217
54.9183
54.9148
54.9113
54.9079
54.9044
54.901
54.8975
54.8941
54.8906
54.8872
54.8837
54.8802
54.8768
54.8733
54.8699
54.8664
54.863
54.8595
54.8561
54.8526
54.8491
54.8457
54.8422
54.8388
54.8353
54.8319
54.8284
54.8249
54.8215
54.818
54.8146
54.8111
54.8077
54.8042
54.8007
54.7973
54.7938
54.7904
54.7869
54.7835
54.78
54.7765
54.7731
54.7696
54.7662
54.7627
54.7593
54.7558
54.7523
54.7489
54.7454
54.742
54.7385
54.7351
54.7316
54.7281
54.7247
54.7212
54.7178
54.7143
54.7108
54.7074
54.7039
54.7005
54.697
54.6936
54.6901
54.6866
54.6832
54.6797
54.6763
54.6728
54.6693
54.6659
54.6624
54.659
54.6555
54.652
54.6486
54.6451
54.6451
56.5473
56.5473
56.2831
56.2374
56.2161
56.2012
56.189
56.1781
56.168
56.1584
56.1492
56.1403
56.1317
56.1233
56.1151
56.107
56.0992
56.0915
56.084
56.0766
56.0694
56.0623
56.0553
56.0485
56.0417
56.0351
56.0286
56.0222
56.0158
56.0096
56.0035
55.9974
55.9914
55.9855
55.9797
55.9739
55.9682
55.9626
55.957
55.9515
55.946
55.9406
55.9352
55.9299
55.9247
55.9194
55.9143
55.9092
55.9041
55.899
55.894
55.8891
55.8842
55.8793
55.8744
55.8696
55.8648
55.8601
55.8554
55.8507
55.846
55.8414
55.8368
55.8322
55.8277
55.8232
55.8187
55.8142
55.8098
55.8054
55.801
55.7966
55.7922
55.7879
55.7836
55.7793
55.7751
55.7708
55.7666
55.7624
55.7582
55.7541
55.7499
55.7458
55.7417
55.7376
55.7336
55.7295
55.7255
55.7215
55.7175
55.7136
55.7096
55.7057
55.7018
55.6979
55.6941
55.6902
55.6864
55.6826
55.6788
55.675
55.6712
55.6675
55.6637
55.66
55.6563
55.6526
55.649
55.6453
55.6417
55.638
55.6344
55.6308
55.6272
55.6236
55.62
55.6164
55.6129
55.6093
55.6058
55.6022
55.5987
55.5952
55.5917
55.5882
55.5847
55.5812
55.5777
55.5742
55.5707
55.5672
55.5638
55.5603
55.5568
55.5534
55.5499
55.5464
55.543
55.5395
55.5361
55.5326
55.5292
55.5257
55.5223
55.5188
55.5154
55.5119
55.5085
55.505
55.5016
55.4981
55.4947
55.4912
55.4878
55.4843
55.4809
55.4774
55.474
55.4705
55.4671
55.4637
55.4602
55.4568
55.4533
55.4499
55.4464
55.443
55.4395
55.4361
55.4326
55.4292
55.4257
55.4223
55.4188
55.4154
55.4119
55.4085
55.405
55.4016
55.3981
55.3947
55.3912
55.3878
55.3843
55.3809
55.3774
55.374
55.3705
55.3671
55.3636
55.3602
55.3567
55.3533
55.3498
55.3464
55.3429
55.3395
55.336
55.3326
55.3291
55.3257
55.3222
55.3188
55.3153
55.3119
55.3084
55.305
55.3015
55.2981
55.2946
55.2912
55.2877
55.2843
55.2808
55.2774
55.2739
55.2705
55.267
55.2636
55.2601
55.2567
55.2532
55.2498
55.2463
55.2429
55.2394
55.236
55.2325
55.2291
55.2256
55.2222
55.2187
55.2153
55.2118
55.2084
55.2049
55.2014
55.198
55.1945
55.1911
55.1876
55.1842
55.1807
55.1773
55.1738
55.1704
55.1669
55.1635
55.16
55.1566
55.1531
55.1497
55.1462
55.1428
55.1393
55.1359
55.1324
55.129
55.1255
55.122
55.1186
55.1151
55.1117
55.1082
55.1048
55.1013
55.0979
55.0944
55.091
55.0875
55.0841
55.0806
55.0772
55.0737
55.0703
55.0668
55.0633
55.0599
55.0564
55.053
55.0495
55.0461
55.0426
55.0392
55.0357
55.0323
55.0288
55.0254
55.0219
55.0184
55.015
55.0115
55.0081
55.0046
55.0012
54.9977
54.9943
54.9908
54.9874
54.9839
54.9804
54.977
54.9735
54.9701
54.9666
54.9632
54.9597
54.9563
54.9528
54.9494
54.9459
54.9424
54.939
54.9355
54.9321
54.9286
54.9252
54.9217
54.9183
54.9148
54.9113
54.9079
54.9044
54.901
54.8975
54.8941
54.8906
54.8872
54.8837
54.8802
54.8768
54.8733
54.8699
54.8664
54.863
54.8595
54.8561
54.8526
54.8491
54.8457
54.8422
54.8388
54.8353
54.8319
54.8284
54.8249
54.8215
54.818
54.8146
54.8111
54.8077
54.8042
54.8007
54.7973
54.7938
54.7904
54.7869
54.7835
54.78
54.7765
54.7731
54.7696
54.7662
54.7627
54.7593
54.7558
54.7523
54.7489
54.7454
54.742
54.7385
54.7351
54.7316
54.7281
54.7247
54.7212
54.7178
54.7143
54.7108
54.7074
54.7039
54.7005
54.697
54.6936
54.6901
54.6866
54.6832
54.6797
54.6763
54.6728
54.6693
54.6659
54.6624
54.659
54.6555
54.652
54.6486
54.6451
54.6451
56.5314
56.5314
56.286
56.2385
56.2167
56.2016
56.1892
56.1783
56.1681
56.1586
56.1493
56.1404
56.1318
56.1233
56.1151
56.1071
56.0992
56.0915
56.084
56.0766
56.0694
56.0623
56.0553
56.0485
56.0417
56.0351
56.0286
56.0222
56.0159
56.0096
56.0035
55.9974
55.9914
55.9855
55.9797
55.9739
55.9682
55.9626
55.957
55.9515
55.946
55.9406
55.9352
55.9299
55.9247
55.9195
55.9143
55.9092
55.9041
55.899
55.8941
55.8891
55.8842
55.8793
55.8744
55.8696
55.8648
55.8601
55.8554
55.8507
55.846
55.8414
55.8368
55.8322
55.8277
55.8232
55.8187
55.8142
55.8098
55.8054
55.801
55.7966
55.7922
55.7879
55.7836
55.7793
55.7751
55.7708
55.7666
55.7624
55.7582
55.7541
55.7499
55.7458
55.7417
55.7376
55.7336
55.7295
55.7255
55.7215
55.7175
55.7136
55.7096
55.7057
55.7018
55.6979
55.6941
55.6902
55.6864
55.6826
55.6788
55.675
55.6712
55.6675
55.6637
55.66
55.6563
55.6526
55.649
55.6453
55.6417
55.638
55.6344
55.6308
55.6272
55.6236
55.62
55.6164
55.6129
55.6093
55.6058
55.6022
55.5987
55.5952
55.5917
55.5882
55.5847
55.5812
55.5777
55.5742
55.5707
55.5672
55.5638
55.5603
55.5568
55.5534
55.5499
55.5464
55.543
55.5395
55.5361
55.5326
55.5292
55.5257
55.5223
55.5188
55.5154
55.5119
55.5085
55.505
55.5016
55.4981
55.4947
55.4912
55.4878
55.4843
55.4809
55.4774
55.474
55.4705
55.4671
55.4637
55.4602
55.4568
55.4533
55.4499
55.4464
55.443
55.4395
55.4361
55.4326
55.4292
55.4257
55.4223
55.4188
55.4154
55.4119
55.4085
55.405
55.4016
55.3981
55.3947
55.3912
55.3878
55.3843
55.3809
55.3774
55.374
55.3705
55.3671
55.3636
55.3602
55.3567
55.3533
55.3498
55.3464
55.3429
55.3395
55.336
55.3326
55.3291
55.3257
55.3222
55.3188
55.3153
55.3119
55.3084
55.305
55.3015
55.2981
55.2946
55.2912
55.2877
55.2843
55.2808
55.2774
55.2739
55.2705
55.267
55.2636
55.2601
55.2567
55.2532
55.2498
55.2463
55.2429
55.2394
55.236
55.2325
55.2291
55.2256
55.2222
55.2187
55.2153
55.2118
55.2083
55.2049
55.2014
55.198
55.1945
55.1911
55.1876
55.1842
55.1807
55.1773
55.1738
55.1704
55.1669
55.1635
55.16
55.1566
55.1531
55.1497
55.1462
55.1428
55.1393
55.1359
55.1324
55.129
55.1255
55.122
55.1186
55.1151
55.1117
55.1082
55.1048
55.1013
55.0979
55.0944
55.091
55.0875
55.0841
55.0806
55.0772
55.0737
55.0703
55.0668
55.0633
55.0599
55.0564
55.053
55.0495
55.0461
55.0426
55.0392
55.0357
55.0323
55.0288
55.0254
55.0219
55.0184
55.015
55.0115
55.0081
55.0046
55.0012
54.9977
54.9943
54.9908
54.9874
54.9839
54.9804
54.977
54.9735
54.9701
54.9666
54.9632
54.9597
54.9563
54.9528
54.9494
54.9459
54.9424
54.939
54.9355
54.9321
54.9286
54.9252
54.9217
54.9183
54.9148
54.9113
54.9079
54.9044
54.901
54.8975
54.8941
54.8906
54.8872
54.8837
54.8802
54.8768
54.8733
54.8699
54.8664
54.863
54.8595
54.8561
54.8526
54.8491
54.8457
54.8422
54.8388
54.8353
54.8319
54.8284
54.8249
54.8215
54.818
54.8146
54.8111
54.8077
54.8042
54.8007
54.7973
54.7938
54.7904
54.7869
54.7835
54.78
54.7765
54.7731
54.7696
54.7662
54.7627
54.7593
54.7558
54.7523
54.7489
54.7454
54.742
54.7385
54.7351
54.7316
54.7281
54.7247
54.7212
54.7178
54.7143
54.7108
54.7074
54.7039
54.7005
54.697
54.6936
54.6901
54.6866
54.6832
54.6797
54.6763
54.6728
54.6693
54.6659
54.6624
54.659
54.6555
54.652
54.6486
54.6451
54.6451
56.5163
56.5163
56.2887
56.2396
56.2173
56.202
56.1895
56.1785
56.1683
56.1587
56.1494
56.1405
56.1318
56.1234
56.1152
56.1071
56.0993
56.0916
56.084
56.0767
56.0694
56.0623
56.0553
56.0485
56.0418
56.0351
56.0286
56.0222
56.0159
56.0096
56.0035
55.9974
55.9914
55.9855
55.9797
55.9739
55.9682
55.9626
55.957
55.9515
55.946
55.9406
55.9352
55.9299
55.9247
55.9195
55.9143
55.9092
55.9041
55.8991
55.8941
55.8891
55.8842
55.8793
55.8744
55.8696
55.8648
55.8601
55.8554
55.8507
55.846
55.8414
55.8368
55.8322
55.8277
55.8232
55.8187
55.8142
55.8098
55.8054
55.801
55.7966
55.7923
55.7879
55.7836
55.7793
55.7751
55.7708
55.7666
55.7624
55.7582
55.7541
55.7499
55.7458
55.7417
55.7376
55.7336
55.7295
55.7255
55.7215
55.7175
55.7136
55.7096
55.7057
55.7018
55.6979
55.6941
55.6902
55.6864
55.6826
55.6788
55.675
55.6712
55.6675
55.6637
55.66
55.6563
55.6526
55.649
55.6453
55.6417
55.638
55.6344
55.6308
55.6272
55.6236
55.62
55.6164
55.6129
55.6093
55.6058
55.6022
55.5987
55.5952
55.5917
55.5882
55.5847
55.5812
55.5777
55.5742
55.5707
55.5672
55.5638
55.5603
55.5568
55.5534
55.5499
55.5464
55.543
55.5395
55.5361
55.5326
55.5292
55.5257
55.5223
55.5188
55.5154
55.5119
55.5085
55.505
55.5016
55.4981
55.4947
55.4912
55.4878
55.4843
55.4809
55.4774
55.474
55.4705
55.4671
55.4637
55.4602
55.4568
55.4533
55.4499
55.4464
55.443
55.4395
55.4361
55.4326
55.4292
55.4257
55.4223
55.4188
55.4154
55.4119
55.4085
55.405
55.4016
55.3981
55.3947
55.3912
55.3878
55.3843
55.3809
55.3774
55.374
55.3705
55.3671
55.3636
55.3602
55.3567
55.3533
55.3498
55.3464
55.3429
55.3395
55.336
55.3326
55.3291
55.3257
55.3222
55.3188
55.3153
55.3119
55.3084
55.305
55.3015
55.2981
55.2946
55.2912
55.2877
55.2843
55.2808
55.2774
55.2739
55.2705
55.267
55.2636
55.2601
55.2567
55.2532
55.2498
55.2463
55.2429
55.2394
55.236
55.2325
55.2291
55.2256
55.2222
55.2187
55.2153
55.2118
55.2083
55.2049
55.2014
55.198
55.1945
55.1911
55.1876
55.1842
55.1807
55.1773
55.1738
55.1704
55.1669
55.1635
55.16
55.1566
55.1531
55.1497
55.1462
55.1428
55.1393
55.1359
55.1324
55.129
55.1255
55.122
55.1186
55.1151
55.1117
55.1082
55.1048
55.1013
55.0979
55.0944
55.091
55.0875
55.0841
55.0806
55.0772
55.0737
55.0703
55.0668
55.0633
55.0599
55.0564
55.053
55.0495
55.0461
55.0426
55.0392
55.0357
55.0323
55.0288
55.0254
55.0219
55.0184
55.015
55.0115
55.0081
55.0046
55.0012
54.9977
54.9943
54.9908
54.9874
54.9839
54.9804
54.977
54.9735
54.9701
54.9666
54.9632
54.9597
54.9563
54.9528
54.9494
54.9459
54.9424
54.939
54.9355
54.9321
54.9286
54.9252
54.9217
54.9183
54.9148
54.9113
54.9079
54.9044
54.901
54.8975
54.8941
54.8906
54.8872
54.8837
54.8802
54.8768
54.8733
54.8699
54.8664
54.863
54.8595
54.8561
54.8526
54.8491
54.8457
54.8422
54.8388
54.8353
54.8319
54.8284
54.8249
54.8215
54.818
54.8146
54.8111
54.8077
54.8042
54.8007
54.7973
54.7938
54.7904
54.7869
54.7835
54.78
54.7765
54.7731
54.7696
54.7662
54.7627
54.7593
54.7558
54.7523
54.7489
54.7454
54.742
54.7385
54.7351
54.7316
54.7281
54.7247
54.7212
54.7178
54.7143
54.7108
54.7074
54.7039
54.7005
54.697
54.6936
54.6901
54.6866
54.6832
54.6797
54.6763
54.6728
54.6693
54.6659
54.6624
54.659
54.6555
54.652
54.6486
54.6451
54.6451
56.5023
56.5023
56.2913
56.2408
56.2179
56.2024
56.1898
56.1787
56.1684
56.1588
56.1495
56.1406
56.1319
56.1235
56.1152
56.1072
56.0993
56.0916
56.0841
56.0767
56.0694
56.0623
56.0554
56.0485
56.0418
56.0352
56.0286
56.0222
56.0159
56.0097
56.0035
55.9974
55.9915
55.9855
55.9797
55.9739
55.9682
55.9626
55.957
55.9515
55.946
55.9406
55.9353
55.9299
55.9247
55.9195
55.9143
55.9092
55.9041
55.8991
55.8941
55.8891
55.8842
55.8793
55.8744
55.8696
55.8648
55.8601
55.8554
55.8507
55.846
55.8414
55.8368
55.8322
55.8277
55.8232
55.8187
55.8142
55.8098
55.8054
55.801
55.7966
55.7923
55.7879
55.7836
55.7793
55.7751
55.7708
55.7666
55.7624
55.7582
55.7541
55.7499
55.7458
55.7417
55.7376
55.7336
55.7295
55.7255
55.7215
55.7175
55.7136
55.7096
55.7057
55.7018
55.6979
55.6941
55.6902
55.6864
55.6826
55.6788
55.675
55.6712
55.6675
55.6638
55.66
55.6563
55.6526
55.649
55.6453
55.6417
55.638
55.6344
55.6308
55.6272
55.6236
55.62
55.6164
55.6129
55.6093
55.6058
55.6022
55.5987
55.5952
55.5917
55.5882
55.5847
55.5812