# vtk DataFile Version 2.0
FlowField
ASCII
DATASET STRUCTURED_GRID
DIMENSIONS 400 1 200
POINTS 80000 float
0 0 0
0.08 0 0
0.16 0 0
0.24 0 0
0.32 0 0
0.4 0 0
0.48 0 0
0.56 0 0
0.64 0 0
0.72 0 0
0.8 0 0
0.88 0 0
0.96 0 0
1.04 0 0
1.12 0 0
1.2 0 0
1.28 0 0
1.36 0 0
1.44 0 0
1.52 0 0
1.6 0 0
1.68 0 0
1.76 0 0
1.84 0 0
1.92 0 0
2 0 0
2.08 0 0
2.16 0 0
2.24 0 0
2.32 0 0
2.4 0 0
2.48 0 0
2.56 0 0
2.64 0 0
2.72 0 0
2.8 0 0
2.88 0 0
2.96 0 0
3.04 0 0
3.12 0 0
3.2 0 0
3.28 0 0
3.36 0 0
3.44 0 0
3.52 0 0
3.6 0 0
3.68 0 0
3.76 0 0
3.84 0 0
3.92 0 0
4 0 0
4.08 0 0
4.16 0 0
4.24 0 0
4.32 0 0
4.4 0 0
4.48 0 0
4.56 0 0
4.64 0 0
4.72 0 0
4.8 0 0
4.88 0 0
4.96 0 0
5.04 0 0
5.12 0 0
5.2 0 0
5.28 0 0
5.36 0 0
5.44 0 0
5.52 0 0
5.6 0 0
5.68 0 0
5.76 0 0
5.84 0 0
5.92 0 0
6 0 0
6.08 0 0
6.16 0 0
6.24 0 0
6.32 0 0
6.4 0 0
6.48 0 0
6.56 0 0
6.64 0 0
6.72 0 0
6.8 0 0
6.88 0 0
6.96 0 0
7.04 0 0
7.12 0 0
7.2 0 0
7.28 0 0
7.36 0 0
7.44 0 0
7.52 0 0
7.6 0 0
7.68 0 0
7.76 0 0
7.84 0 0
7.92 0 0
8 0 0
8.08 0 0
8.16 0 0
8.24 0 0
8.32 0 0
8.4 0 0
8.48 0 0
8.56 0 0
8.64 0 0
8.72 0 0
8.8 0 0
8.88 0 0
8.96 0 0
9.04 0 0
9.12 0 0
9.2 0 0
9.28 0 0
9.36 0 0
9.44 0 0
9.52 0 0
9.6 0 0
9.68 0 0
9.76 0 0
9.84 0 0
9.92 0 0
10 0 0
10.08 0 0
10.16 0 0
10.24 0 0
10.32 0 0
10.4 0 0
10.48 0 0
10.56 0 0
10.64 0 0
10.72 0 0
10.8 0 0
10.88 0 0
10.96 0 0
11.04 0 0
11.12 0 0
11.2 0 0
11.28 0 0
11.36 0 0
11.44 0 0
11.52 0 0
11.6 0 0
11.68 0 0
11.76 0 0
11.84 0 0
11.92 0 0
12 0 0
12.08 0 0
12.16 0 0
12.24 0 0
12.32 0 0
12.4 0 0
12.48 0 0
12.56 0 0
12.64 0 0
12.72 0 0
12.8 0 0
12.88 0 0
12.96 0 0
13.04 0 0
13.12 0 0
13.2 0 0
13.28 0 0
13.36 0 0
13.44 0 0
13.52 0 0
13.6 0 0
13.68 0 0
13.76 0 0
13.84 0 0
13.92 0 0
14 0 0
14.08 0 0
14.16 0 0
14.24 0 0
14.32 0 0
14.4 0 0
14.48 0 0
14.56 0 0
14.64 0 0
14.72 0 0
14.8 0 0
14.88 0 0
14.96 0 0
15.04 0 0
15.12 0 0
15.2 0 0
15.28 0 0
15.36 0 0
15.44 0 0
15.52 0 0
15.6 0 0
15.68 0 0
15.76 0 0
15.84 0 0
15.92 0 0
16 0 0
16.08 0 0
16.16 0 0
16.24 0 0
16.32 0 0
16.4 0 0
16.48 0 0
16.56 0 0
16.64 0 0
16.72 0 0
16.8 0 0
16.88 0 0
16.96 0 0
17.04 0 0
17.12 0 0
17.2 0 0
17.28 0 0
17.36 0 0
17.44 0 0
17.52 0 0
17.6 0 0
17.68 0 0
17.76 0 0
17.84 0 0
17.92 0 0
18 0 0
18.08 0 0
18.16 0 0
18.24 0 0
18.32 0 0
18.4 0 0
18.48 0 0
18.56 0 0
18.64 0 0
18.72 0 0
18.8 0 0
18.88 0 0
18.96 0 0
19.04 0 0
19.12 0 0
19.2 0 0
19.28 0 0
19.36 0 0
19.44 0 0
19.52 0 0
19.6 0 0
19.68 0 0
19.76 0 0
19.84 0 0
19.92 0 0
20 0 0
20.08 0 0
20.16 0 0
20.24 0 0
20.32 0 0
20.4 0 0
20.48 0 0
20.56 0 0
20.64 0 0
20.72 0 0
20.8 0 0
20.88 0 0
20.96 0 0
21.04 0 0
21.12 0 0
21.2 0 0
21.28 0 0
21.36 0 0
21.44 0 0
21.52 0 0
21.6 0 0
21.68 0 0
21.76 0 0
21.84 0 0
21.92 0 0
22 0 0
22.08 0 0
22.16 0 0
22.24 0 0
22.32 0 0
22.4 0 0
22.48 0 0
22.56 0 0
22.64 0 0
22.72 0 0
22.8 0 0
22.88 0 0
22.96 0 0
23.04 0 0
23.12 0 0
23.2 0 0
23.28 0 0
23.36 0 0
23.44 0 0
23.52 0 0
23.6 0 0
23.68 0 0
23.76 0 0
23.84 0 0
23.92 0 0
24 0 0
24.08 0 0
24.16 0 0
24.24 0 0
24.32 0 0
24.4 0 0
24.48 0 0
24.56 0 0
24.64 0 0
24.72 0 0
24.8 0 0
24.88 0 0
24.96 0 0
25.04 0 0
25.12 0 0
25.2 0 0
25.28 0 0
25.36 0 0
25.44 0 0
25.52 0 0
25.6 0 0
25.68 0 0
25.76 0 0
25.84 0 0
25.92 0 0
26 0 0
26.08 0 0
26.16 0 0
26.24 0 0
26.32 0 0
26.4 0 0
26.48 0 0
26.56 0 0
26.64 0 0
26.72 0 0
26.8 0 0
26.88 0 0
26.96 0 0
27.04 0 0
27.12 0 0
27.2 0 0
27.28 0 0
27.36 0 0
27.44 0 0
27.52 0 0
27.6 0 0
27.68 0 0
27.76 0 0
27.84 0 0
27.92 0 0
28 0 0
28.08 0 0
28.16 0 0
28.24 0 0
28.32 0 0
28.4 0 0
28.48 0 0
28.56 0 0
28.64 0 0
28.72 0 0
28.8 0 0
28.88 0 0
28.96 0 0
29.04 0 0
29.12 0 0
29.2 0 0
29.28 0 0
29.36 0 0
29.44 0 0
29.52 0 0
29.6 0 0
29.68 0 0
29.76 0 0
29.84 0 0
29.92 0 0
30 0 0
30.08 0 0
30.16 0 0
30.24 0 0
30.32 0 0
30.4 0 0
30.48 0 0
30.56 0 0
30.64 0 0
30.72 0 0
30.8 0 0
30.88 0 0
30.96 0 0
31.04 0 0
31.12 0 0
31.2 0 0
31.28 0 0
31.36 0 0
31.44 0 0
31.52 0 0
31.6 0 0
31.68 0 0
31.76 0 0
31.84 0 0
31.92 0 0
0 0.005 0
0.08 0.005 0
0.16 0.005 0
0.24 0.005 0
0.32 0.005 0
0.4 0.005 0
0.48 0.005 0
0.56 0.005 0
0.64 0.005 0
0.72 0.005 0
0.8 0.005 0
0.88 0.005 0
0.96 0.005 0
1.04 0.005 0
1.12 0.005 0
1.2 0.005 0
1.28 0.005 0
1.36 0.005 0
1.44 0.005 0
1.52 0.005 0
1.6 0.005 0
1.68 0.005 0
1.76 0.005 0
1.84 0.005 0
1.92 0.005 0
2 0.005 0
2.08 0.005 0
2.16 0.005 0
2.24 0.005 0
2.32 0.005 0
2.4 0.005 0
2.48 0.005 0
2.56 0.005 0
2.64 0.005 0
2.72 0.005 0
2.8 0.005 0
2.88 0.005 0
2.96 0.005 0
3.04 0.005 0
3.12 0.005 0
3.2 0.005 0
3.28 0.005 0
3.36 0.005 0
3.44 0.005 0
3.52 0.005 0
3.6 0.005 0
3.68 0.005 0
3.76 0.005 0
3.84 0.005 0
3.92 0.005 0
4 0.005 0
4.08 0.005 0
4.16 0.005 0
4.24 0.005 0
4.32 0.005 0
4.4 0.005 0
4.48 0.005 0
4.56 0.005 0
4.64 0.005 0
4.72 0.005 0
4.8 0.005 0
4.88 0.005 0
4.96 0.005 0
5.04 0.005 0
5.12 0.005 0
5.2 0.005 0
5.28 0.005 0
5.36 0.005 0
5.44 0.005 0
5.52 0.005 0
5.6 0.005 0
5.68 0.005 0
5.76 0.005 0
5.84 0.005 0
5.92 0.005 0
6 0.005 0
6.08 0.005 0
6.16 0.005 0
6.24 0.005 0
6.32 0.005 0
6.4 0.005 0
6.48 0.005 0
6.56 0.005 0
6.64 0.005 0
6.72 0.005 0
6.8 0.005 0
6.88 0.005 0
6.96 0.005 0
7.04 0.005 0
7.12 0.005 0
7.2 0.005 0
7.28 0.005 0
7.36 0.005 0
7.44 0.005 0
7.52 0.005 0
7.6 0.005 0
7.68 0.005 0
7.76 0.005 0
7.84 0.005 0
7.92 0.005 0
8 0.005 0
8.08 0.005 0
8.16 0.005 0
8.24 0.005 0
8.32 0.005 0
8.4 0.005 0
8.48 0.005 0
8.56 0.005 0
8.64 0.005 0
8.72 0.005 0
8.8 0.005 0
8.88 0.005 0
8.96 0.005 0
9.04 0.005 0
9.12 0.005 0
9.2 0.005 0
9.28 0.005 0
9.36 0.005 0
9.44 0.005 0
9.52 0.005 0
9.6 0.005 0
9.68 0.005 0
9.76 0.005 0
9.84 0.005 0
9.92 0.005 0
10 0.005 0
10.08 0.005 0
10.16 0.005 0
10.24 0.005 0
10.32 0.005 0
10.4 0.005 0
10.48 0.005 0
10.56 0.005 0
10.64 0.005 0
10.72 0.005 0
10.8 0.005 0
10.88 0.005 0
10.96 0.005 0
11.04 0.005 0
11.12 0.005 0
11.2 0.005 0
11.28 0.005 0
11.36 0.005 0
11.44 0.005 0
11.52 0.005 0
11.6 0.005 0
11.68 0.005 0
11.76 0.005 0
11.84 0.005 0
11.92 0.005 0
12 0.005 0
12.08 0.005 0
12.16 0.005 0
12.24 0.005 0
12.32 0.005 0
12.4 0.005 0
12.48 0.005 0
12.56 0.005 0
12.64 0.005 0
12.72 0.005 0
12.8 0.005 0
12.88 0.005 0
12.96 0.005 0
13.04 0.005 0
13.12 0.005 0
13.2 0.005 0
13.28 0.005 0
13.36 0.005 0
13.44 0.005 0
13.52 0.005 0
13.6 0.005 0
13.68 0.005 0
13.76 0.005 0
13.84 0.005 0
13.92 0.005 0
14 0.005 0
14.08 0.005 0
14.16 0.005 0
14.24 0.005 0
14.32 0.005 0
14.4 0.005 0
14.48 0.005 0
14.56 0.005 0
14.64 0.005 0
14.72 0.005 0
14.8 0.005 0
14.88 0.005 0
14.96 0.005 0
15.04 0.005 0
15.12 0.005 0
15.2 0.005 0
15.28 0.005 0
15.36 0.005 0
15.44 0.005 0
15.52 0.005 0
15.6 0.005 0
15.68 0.005 0
15.76 0.005 0
15.84 0.005 0
15.92 0.005 0
16 0.005 0
16.08 0.005 0
16.16 0.005 0
16.24 0.005 0
16.32 0.005 0
16.4 0.005 0
16.48 0.005 0
16.56 0.005 0
16.64 0.005 0
16.72 0.005 0
16.8 0.005 0
16.88 0.005 0
16.96 0.005 0
17.04 0.005 0
17.12 0.005 0
17.2 0.005 0
17.28 0.005 0
17.36 0.005 0
17.44 0.005 0
17.52 0.005 0
17.6 0.005 0
17.68 0.005 0
17.76 0.005 0
17.84 0.005 0
17.92 0.005 0
18 0.005 0
18.08 0.005 0
18.16 0.005 0
18.24 0.005 0
18.32 0.005 0
18.4 0.005 0
18.48 0.005 0
18.56 0.005 0
18.64 0.005 0
18.72 0.005 0
18.8 0.005 0
18.88 0.005 0
18.96 0.005 0
19.04 0.005 0
19.12 0.005 0
19.2 0.005 0
19.28 0.005 0
19.36 0.005 0
19.44 0.005 0
19.52 0.005 0
19.6 0.005 0
19.68 0.005 0
19.76 0.005 0
19.84 0.005 0
19.92 0.005 0
20 0.005 0
20.08 0.005 0
20.16 0.005 0
20.24 0.005 0
20.32 0.005 0
20.4 0.005 0
20.48 0.005 0
20.56 0.005 0
20.64 0.005 0
20.72 0.005 0
20.8 0.005 0
20.88 0.005 0
20.96 0.005 0
21.04 0.005 0
21.12 0.005 0
21.2 0.005 0
21.28 0.005 0
21.36 0.005 0
21.44 0.005 0
21.52 0.005 0
21.6 0.005 0
21.68 0.005 0
21.76 0.005 0
21.84 0.005 0
21.92 0.005 0
22 0.005 0
22.08 0.005 0
22.16 0.005 0
22.24 0.005 0
22.32 0.005 0
22.4 0.005 0
22.48 0.005 0
22.56 0.005 0
22.64 0.005 0
22.72 0.005 0
22.8 0.005 0
22.88 0.005 0
22.96 0.005 0
23.04 0.005 0
23.12 0.005 0
23.2 0.005 0
23.28 0.005 0
23.36 0.005 0
23.44 0.005 0
23.52 0.005 0
23.6 0.005 0
23.68 0.005 0
23.76 0.005 0
23.84 0.005 0
23.92 0.005 0
24 0.005 0
24.08 0.005 0
24.16 0.005 0
24.24 0.005 0
24.32 0.005 0
24.4 0.005 0
24.48 0.005 0
24.56 0.005 0
24.64 0.005 0
24.72 0.005 0
24.8 0.005 0
24.88 0.005 0
24.96 0.005 0
25.04 0.005 0
25.12 0.005 0
25.2 0.005 0
25.28 0.005 0
25.36 0.005 0
25.44 0.005 0
25.52 0.005 0
25.6 0.005 0
25.68 0.005 0
25.76 0.005 0
25.84 0.005 0
25.92 0.005 0
26 0.005 0
26.08 0.005 0
26.16 0.005 0
26.24 0.005 0
26.32 0.005 0
26.4 0.005 0
26.48 0.005 0
26.56 0.005 0
26.64 0.005 0
26.72 0.005 0
26.8 0.005 0
26.88 0.005 0
26.96 0.005 0
27.04 0.005 0
27.12 0.005 0
27.2 0.005 0
27.28 0.005 0
27.36 0.005 0
27.44 0.005 0
27.52 0.005 0
27.6 0.005 0
27.68 0.005 0
27.76 0.005 0
27.84 0.005 0
27.92 0.005 0
28 0.005 0
28.08 0.005 0
28.16 0.005 0
28.24 0.005 0
28.32 0.005 0
28.4 0.005 0
28.48 0.005 0
28.56 0.005 0
28.64 0.005 0
28.72 0.005 0
28.8 0.005 0
28.88 0.005 0
28.96 0.005 0
29.04 0.005 0
29.12 0.005 0
29.2 0.005 0
29.28 0.005 0
29.36 0.005 0
29.44 0.005 0
29.52 0.005 0
29.6 0.005 0
29.68 0.005 0
29.76 0.005 0
29.84 0.005 0
29.92 0.005 0
30 0.005 0
30.08 0.005 0
30.16 0.005 0
30.24 0.005 0
30.32 0.005 0
30.4 0.005 0
30.48 0.005 0
30.56 0.005 0
30.64 0.005 0
30.72 0.005 0
30.8 0.005 0
30.88 0.005 0
30.96 0.005 0
31.04 0.005 0
31.12 0.005 0
31.2 0.005 0
31.28 0.005 0
31.36 0.005 0
31.44 0.005 0
31.52 0.005 0
31.6 0.005 0
31.68 0.005 0
31.76 0.005 0
31.84 0.005 0
31.92 0.005 0
0 0.01 0
0.08 0.01 0
0.16 0.01 0
0.24 0.01 0
0.32 0.01 0
0.4 0.01 0
0.48 0.01 0
0.56 0.01 0
0.64 0.01 0
0.72 0.01 0
0.8 0.01 0
0.88 0.01 0
0.96 0.01 0
1.04 0.01 0
1.12 0.01 0
1.2 0.01 0
1.28 0.01 0
1.36 0.01 0
1.44 0.01 0
1.52 0.01 0
1.6 0.01 0
1.68 0.01 0
1.76 0.01 0
1.84 0.01 0
1.92 0.01 0
2 0.01 0
2.08 0.01 0
2.16 0.01 0
2.24 0.01 0
2.32 0.01 0
2.4 0.01 0
2.48 0.01 0
2.56 0.01 0
2.64 0.01 0
2.72 0.01 0
2.8 0.01 0
2.88 0.01 0
2.96 0.01 0
3.04 0.01 0
3.12 0.01 0
3.2 0.01 0
3.28 0.01 0
3.36 0.01 0
3.44 0.01 0
3.52 0.01 0
3.6 0.01 0
3.68 0.01 0
3.76 0.01 0
3.84 0.01 0
3.92 0.01 0
4 0.01 0
4.08 0.01 0
4.16 0.01 0
4.24 0.01 0
4.32 0.01 0
4.4 0.01 0
4.48 0.01 0
4.56 0.01 0
4.64 0.01 0
4.72 0.01 0
4.8 0.01 0
4.88 0.01 0
4.96 0.01 0
5.04 0.01 0
5.12 0.01 0
[...]
POINT_DATA 80000

SCALARS v float 1
LOOKUP_TABLE default
0
0
0
0
0
0
0
0
0
0
0
0
0
0
0
0
0
0
0
0
0
0
0
0
0
0
0
0
0
0
0
0
0
0
0
0
0
0
0
0
0
0
0
0
0
0
0
0
0
0
0
0
0
0
0
0
0
0
0
0
0
0
0
0
0
0
0
0
0
0
0
0
0
0
0
0
0
0
0
0
0
0
0
0
0
0
0
0
0
0
0
0
0
0
0
0
0
0
0
0
0
0
0
0
0
0
0
0
0
0
0
0
0
0
0
0
0
0
0
0
0
0
0
0
0
0
0
0
0
0
0
0
0
0
0
0
0
0
0
0
0
0
0
0
0
0
0
0
0
0
0
0
0
0
0
0
0
0
0
0
0
0
0
0
0
0
0
0
0
0
0
0
0
0
0
0
0
0
0
0
0
0
0
0
0
0
0
0
0
0
0
0
0
0
0
0
0
0
0
0
0
0
0
0
0
0
0
0
0
0
0
0
0
0
0
0
0
0
0
0
0
0
0
0
0
0
0
0
0
0
0
0
0
0
0
0
0
0
0
0
0
0
0
0
0
0
0
0
0
0
0
0
0
0
0
0
0
0
0
0
0
0
0
0
0
0
0
0
0
0
0
0
0
0
0
0
0
0
0
0
0
0
0
0
0
0
0
0
0
0
0
0
0
0
0
0
0
0
0
0
0
0
0
0
0
0
0
0
0
0
0
0
0
0
0
0
0
0
0
0
0
0
0
0
0
0
0
0
0
0
0
0
0
0
0
0
0
0
0
0
0
0
0
0
0
0
0
0
0
0
0
0
0
0
0
0
0
0
0
0
0
0
0
0
0
0
0
0
0
0
0
0
0
0
0
0
0
0
0
0
0
0
0
0
0
0
0
0
0
0
0
0
0
0
0
0
0
0
0
0
-0.0542711
0.0542711
0.00396209
0.00099833
0.00049226
0.000302696
0.00020732
0.000151692
0.00011625
9.22938e-05
7.53807e-05
6.30201e-05
5.37196e-05
4.65411e-05
4.08733e-05
3.63062e-05
3.25587e-05
2.94337e-05
2.67906e-05
2.45275e-05
2.25686e-05
2.08572e-05
1.935e-05
1.80131e-05
1.68201e-05
1.57496e-05
1.47845e-05
1.39105e-05
1.31161e-05
1.23915e-05
1.17283e-05
1.11195e-05
1.05592e-05
1.00421e-05
9.56378e-06
9.1203e-06
8.70824e-06
8.32462e-06
7.96678e-06
7.63239e-06
7.31938e-06
7.02589e-06
6.75029e-06
6.49108e-06
6.24696e-06
6.01673e-06
5.79931e-06
5.59373e-06
5.39911e-06
5.21466e-06
5.03965e-06
4.87341e-06
4.71534e-06
4.56489e-06
4.42155e-06
4.28486e-06
4.15439e-06
4.02975e-06
3.91057e-06
3.79653e-06
3.6873e-06
3.58262e-06
3.48221e-06
3.38583e-06
3.29325e-06
3.20425e-06
3.11865e-06
3.03626e-06
2.9569e-06
2.88043e-06
2.80668e-06
2.73553e-06
2.66683e-06
2.60048e-06
2.53635e-06
2.47434e-06
2.41435e-06
2.35628e-06
2.30005e-06
2.24557e-06
2.19276e-06
2.14155e-06
2.09188e-06
2.04367e-06
1.99686e-06
1.9514e-06
1.90723e-06
1.8643e-06
1.82256e-06
1.78197e-06
1.74247e-06
1.70403e-06
1.66661e-06
1.63017e-06
1.59467e-06
1.56009e-06
1.52638e-06
1.49353e-06
1.46149e-06
1.43024e-06
1.39976e-06
1.37003e-06
1.341e-06
1.31268e-06
1.28502e-06
1.25802e-06
1.23164e-06
1.20588e-06
1.18072e-06
1.15613e-06
1.1321e-06
1.10862e-06
1.08566e-06
1.06322e-06
1.04127e-06
1.01982e-06
9.98833e-07
9.78309e-07
9.58234e-07
9.38596e-07
9.19382e-07
9.00584e-07
8.82189e-07
8.64188e-07
8.46571e-07
8.29329e-07
8.12452e-07
7.95932e-07
7.7976e-07
7.63927e-07
7.48427e-07
7.33251e-07
7.18391e-07
7.0384e-07
6.89592e-07
6.75639e-07
6.61974e-07
6.48592e-07
6.35485e-07
6.22648e-07
6.10074e-07
5.97759e-07
5.85695e-07
5.73879e-07
5.62304e-07
5.50965e-07
5.39857e-07
5.28975e-07
5.18314e-07
5.0787e-07
4.97638e-07
4.87614e-07
4.77792e-07
4.6817e-07
4.58742e-07
4.49505e-07
4.40455e-07
4.31587e-07
4.22899e-07
4.14386e-07
4.06044e-07
3.97871e-07
3.89862e-07
3.82015e-07
3.74326e-07
3.66791e-07
3.59408e-07
3.52174e-07
3.45085e-07
3.38139e-07
3.31332e-07
3.24662e-07
3.18126e-07
3.11722e-07
3.05446e-07
2.99296e-07
2.9327e-07
2.87365e-07
2.81578e-07
2.75908e-07
2.70351e-07
2.64906e-07
2.59571e-07
2.54342e-07
2.49219e-07
2.44198e-07
2.39278e-07
2.34457e-07
2.29733e-07
2.25103e-07
2.20567e-07
2.16121e-07
2.11765e-07
2.07496e-07
2.03313e-07
1.99214e-07
1.95198e-07
1.91262e-07
1.87405e-07
1.83626e-07
1.79922e-07
1.76293e-07
1.72737e-07
1.69253e-07
1.65838e-07
1.62492e-07
1.59214e-07
1.56001e-07
1.52853e-07
1.49768e-07
1.46746e-07
1.43784e-07
1.40881e-07
1.38038e-07
1.35251e-07
1.3252e-07
1.29845e-07
1.27223e-07
1.24654e-07
1.22137e-07
1.1967e-07
1.17253e-07
1.14885e-07
1.12565e-07
1.10291e-07
1.08063e-07
1.0588e-07
1.03741e-07
1.01645e-07
9.95908e-08
9.75784e-08
9.56065e-08
9.36743e-08
9.1781e-08
8.99259e-08
8.81082e-08
8.63272e-08
8.4582e-08
8.28721e-08
8.11967e-08
7.9555e-08
7.79465e-08
7.63706e-08
7.48264e-08
7.33135e-08
7.18312e-08
7.03789e-08
6.8956e-08
6.7562e-08
6.61962e-08
6.48581e-08
6.35472e-08
6.22629e-08
6.10046e-08
5.97718e-08
5.8564e-08
5.73807e-08
5.62213e-08
5.50852e-08
5.3972e-08
5.28811e-08
5.1812e-08
5.07642e-08
4.97371e-08
4.87301e-08
4.77427e-08
4.67745e-08
4.58247e-08
4.48929e-08
4.39785e-08
4.30809e-08
4.21996e-08
4.1334e-08
4.04836e-08
3.96477e-08
3.88259e-08
3.80176e-08
3.72222e-08
3.64392e-08
3.56682e-08
3.49085e-08
3.41597e-08
3.34212e-08
3.26928e-08
3.19738e-08
3.12638e-08
3.05626e-08
2.98696e-08
2.91845e-08
2.8507e-08
2.78368e-08
2.71737e-08
2.65173e-08
2.58674e-08
2.52239e-08
2.45866e-08
2.39554e-08
2.33301e-08
2.27107e-08
2.20971e-08
2.14893e-08
2.08873e-08
2.02912e-08
1.97009e-08
1.91166e-08
1.85384e-08
1.79664e-08
1.74007e-08
1.68416e-08
1.62891e-08
1.57436e-08
1.52051e-08
1.4674e-08
1.41504e-08
1.36347e-08
1.3127e-08
1.26276e-08
1.21368e-08
1.16548e-08
1.11818e-08
1.07181e-08
1.0264e-08
9.81952e-09
9.38503e-09
8.96068e-09
8.54664e-09
8.1431e-09
7.7502e-09
7.36807e-09
6.99682e-09
6.63656e-09
6.28734e-09
5.94924e-09
5.62227e-09
5.30649e-09
5.00184e-09
4.70838e-09
4.42598e-09
4.15468e-09
3.89427e-09
3.64478e-09
3.40597e-09
3.17782e-09
2.96005e-09
2.75264e-09
2.55523e-09
2.36783e-09
2.18996e-09
2.02168e-09
1.8624e-09
1.71226e-09
1.57055e-09
1.43747e-09
1.31221e-09
1.1951e-09
1.08512e-09
9.82785e-10
8.86882e-10
7.98113e-10
7.15015e-10
6.38618e-10
5.67097e-10
5.01888e-10
4.40746e-10
3.85574e-10
3.33608e-10
2.87386e-10
2.43459e-10
2.05131e-10
1.68145e-10
1.36732e-10
1.0565e-10
8.02776e-11
5.41507e-11
3.40335e-11
1.19871e-11
-3.5958e-12
-2.23431e-11
-3.40759e-11
-5.01971e-11
-5.87101e-11
-7.2702e-11
-7.86822e-11
-9.0735e-11
-9.5087e-11
-1.04965e-10
-1.09158e-10
-1.15664e-10
-1.22471e-10
-1.22558e-10
-1.37746e-10
-1.2406e-10
-1.60544e-10
-1.14219e-10
-2.03494e-10
-6.39181e-11
-2.92234e-10
3.27159e-10
-1.72128e-10
-1.72128e-10
-0.0952159
0.0952159
0.0129756
0.00385462
0.00193431
0.0011962
0.000821741
0.000602314
0.000462067
0.000367041
0.000299831
0.000250645
0.000213602
0.000184994
0.0001624
0.000144195
0.00012926
0.00011681
0.000106285
9.72762e-05
8.9483e-05
8.26777e-05
7.66868e-05
7.13754e-05
6.66372e-05
6.23871e-05
5.85565e-05
5.50887e-05
5.19373e-05
4.90631e-05
4.64331e-05
4.40194e-05
4.17981e-05
3.97484e-05
3.78526e-05
3.60951e-05
3.44623e-05
3.29422e-05
3.15245e-05
3.01998e-05
2.89598e-05
2.77973e-05
2.67056e-05
2.5679e-05
2.47121e-05
2.38003e-05
2.29393e-05
2.21253e-05
2.13546e-05
2.06243e-05
1.99313e-05
1.92731e-05
1.86473e-05
1.80517e-05
1.74842e-05
1.69431e-05
1.64266e-05
1.59332e-05
1.54615e-05
1.50101e-05
1.45778e-05
1.41634e-05
1.3766e-05
1.33846e-05
1.30182e-05
1.2666e-05
1.23272e-05
1.20012e-05
1.16872e-05
1.13846e-05
1.10928e-05
1.08112e-05
1.05394e-05
1.02769e-05
1.00232e-05
9.77784e-06
9.5405e-06
9.31078e-06
9.08833e-06
8.87281e-06
8.66393e-06
8.46138e-06
8.2649e-06
8.07421e-06
7.88909e-06
7.7093e-06
7.53462e-06
7.36484e-06
7.19977e-06
7.03923e-06
6.88304e-06
6.73104e-06
6.58307e-06
6.43898e-06
6.29864e-06
6.1619e-06
6.02864e-06
5.89874e-06
5.77209e-06
5.64857e-06
5.52808e-06
5.41052e-06
5.2958e-06
5.18383e-06
5.07452e-06
4.96778e-06
4.86355e-06
4.76174e-06
4.66228e-06
4.5651e-06
4.47014e-06
4.37733e-06
4.28661e-06
4.19793e-06
4.11122e-06
4.02644e-06
3.94353e-06
3.86244e-06
3.78312e-06
3.70553e-06
3.62962e-06
3.55535e-06
3.48268e-06
3.41157e-06
3.34198e-06
3.27387e-06
3.2072e-06
3.14194e-06
3.07806e-06
3.01553e-06
2.95431e-06
2.89436e-06
2.83567e-06
2.77821e-06
2.72193e-06
2.66683e-06
2.61286e-06
2.56001e-06
2.50825e-06
2.45756e-06
2.40791e-06
2.35927e-06
2.31164e-06
2.26498e-06
2.21927e-06
2.1745e-06
2.13064e-06
2.08767e-06
2.04558e-06
2.00435e-06
1.96395e-06
1.92437e-06
1.8856e-06
1.84761e-06
1.81039e-06
1.77392e-06
1.73819e-06
1.70319e-06
1.66889e-06
1.63528e-06
1.60235e-06
1.57009e-06
1.53848e-06
1.5075e-06
1.47715e-06
1.44741e-06
1.41827e-06
1.38971e-06
1.36173e-06
1.33431e-06
1.30745e-06
1.28112e-06
1.25532e-06
1.23005e-06
1.20528e-06
1.181e-06
1.15722e-06
1.13391e-06
1.11108e-06
1.0887e-06
1.06677e-06
1.04528e-06
1.02422e-06
1.00359e-06
9.83368e-07
9.63555e-07
9.44139e-07
9.25113e-07
9.0647e-07
8.882e-07
8.70298e-07
8.52756e-07
8.35566e-07
8.18721e-07
8.02214e-07
7.8604e-07
7.7019e-07
7.54659e-07
7.3944e-07
7.24527e-07
7.09913e-07
6.95594e-07
6.81562e-07
6.67812e-07
6.54339e-07
6.41137e-07
6.282e-07
6.15524e-07
6.03103e-07
5.90931e-07
5.79005e-07
5.67318e-07
5.55867e-07
5.44646e-07
5.33651e-07
5.22877e-07
5.12321e-07
5.01977e-07
4.91841e-07
4.81909e-07
4.72177e-07
4.62642e-07
4.53298e-07
4.44142e-07
4.35171e-07
4.26381e-07
4.17768e-07
4.09328e-07
4.01058e-07
3.92955e-07
3.85016e-07
3.77236e-07
3.69613e-07
3.62143e-07
3.54825e-07
3.47653e-07
3.40627e-07
3.33742e-07
3.26995e-07
3.20386e-07
3.13909e-07
3.07563e-07
3.01346e-07
2.95254e-07
2.89285e-07
2.83438e-07
2.77708e-07
2.72095e-07
2.66595e-07
2.61207e-07
2.55928e-07
2.50756e-07
2.45689e-07
2.40725e-07
2.35861e-07
2.31096e-07
2.26427e-07
2.21852e-07
2.17369e-07
2.12977e-07
2.08672e-07
2.04452e-07
2.00317e-07
1.96262e-07
1.92287e-07
1.88389e-07
1.84566e-07
1.80816e-07
1.77136e-07
1.73524e-07
1.69978e-07
1.66495e-07
1.63074e-07
1.59713e-07
1.56408e-07
1.53159e-07
1.49961e-07
1.46815e-07
1.43717e-07
1.40665e-07
1.37657e-07
1.34692e-07
1.31767e-07
1.28881e-07
1.26032e-07
1.23218e-07
1.20438e-07
1.1769e-07
1.14973e-07
1.12285e-07
1.09626e-07
1.06994e-07
1.04389e-07
1.0181e-07
9.92548e-08
9.67243e-08
9.42177e-08
9.17345e-08
8.92745e-08
8.68376e-08
8.44236e-08
8.20328e-08
7.96651e-08
7.7321e-08
7.50008e-08
7.27049e-08
7.04339e-08
6.81883e-08
6.5969e-08
6.37766e-08
6.1612e-08
5.9476e-08
5.73696e-08
5.52937e-08
5.32494e-08
5.12375e-08
4.92591e-08
4.73152e-08
4.54069e-08
4.35349e-08
4.17005e-08
3.99043e-08
3.81473e-08
3.64303e-08
3.47541e-08
3.31194e-08
3.15269e-08
2.9977e-08
2.84704e-08
2.70074e-08
2.55884e-08
2.42136e-08
2.28834e-08
2.15977e-08
2.03567e-08
1.91603e-08
1.80085e-08
1.69008e-08
1.58374e-08
1.48174e-08
1.38409e-08
1.29069e-08
1.20153e-08
1.1165e-08
1.03559e-08
9.58646e-09
8.85672e-09
8.16479e-09
7.51084e-09
6.89258e-09
6.3104e-09
5.76159e-09
5.2469e-09
4.76311e-09
4.31142e-09
3.88791e-09
3.4945e-09
3.12641e-09
2.78639e-09
2.46874e-09
2.17731e-09
1.90518e-09
1.65762e-09
1.42621e-09
1.21801e-09
1.02262e-09
8.49385e-10
6.85469e-10
5.43024e-10
4.06214e-10
2.90746e-10
1.77e-10
8.50379e-11
-9.36303e-12
-8.09616e-11
-1.59432e-10
-2.13499e-10
-2.79128e-10
-3.18299e-10
-3.7371e-10
-4.00467e-10
-4.47598e-10
-4.64581e-10
-5.04303e-10
-5.14945e-10
-5.46358e-10
-5.56139e-10
-5.75019e-10
-5.94237e-10
-5.89367e-10
-6.39405e-10
-5.83748e-10
-7.12371e-10
-5.36553e-10
-8.59507e-10
-3.40838e-10
-1.16969e-09
1.09407e-09
-7.24847e-10
-7.24847e-10
-0.125293
0.125293
0.0249359
0.00835802
0.004278
0.00266152
0.00183374
0.00134635
0.00103388
0.000821704
0.000671387
0.00056125
0.000478232
0.000414085
0.00036341
0.000322576
0.000289079
0.000261164
0.000237571
0.000217385
0.000199929
0.000184691
0.000171281
0.000159395
0.000148795
0.00013929
0.000130724
0.000122972
0.000115928
0.000109505
0.000103628
9.8235e-05
9.32725e-05
8.86939e-05
8.44594e-05
8.0534e-05
7.68875e-05
7.3493e-05
7.03272e-05
6.73692e-05
6.46006e-05
6.20051e-05
5.95679e-05
5.7276e-05
5.51176e-05
5.30822e-05
5.11602e-05
4.93431e-05
4.7623e-05
4.59928e-05
4.44462e-05
4.29772e-05
4.15804e-05
4.02511e-05
3.89848e-05
3.77772e-05
3.66246e-05
3.55236e-05
3.44709e-05
3.34636e-05
3.2499e-05
3.15745e-05
3.06878e-05
2.98367e-05
2.90192e-05
2.82334e-05
2.74776e-05
2.67502e-05
2.60497e-05
2.53746e-05
2.47236e-05
2.40956e-05
2.34892e-05
2.29036e-05
2.23377e-05
2.17904e-05
2.1261e-05
2.07487e-05
2.02525e-05
1.97718e-05
1.93059e-05
1.88542e-05
1.8416e-05
1.79907e-05
1.75779e-05
1.7177e-05
1.67874e-05
1.64088e-05
1.60408e-05
1.56828e-05
1.53345e-05
1.49956e-05
1.46657e-05
1.43444e-05
1.40315e-05
1.37266e-05
1.34296e-05
1.314e-05
1.28576e-05
1.25823e-05
1.23137e-05
1.20516e-05
1.17959e-05
1.15463e-05
1.13026e-05
1.10647e-05
1.08324e-05
1.06055e-05
1.03838e-05
1.01672e-05
9.9556e-06
9.74876e-06
9.54659e-06
9.34896e-06
9.15574e-06
8.96681e-06
8.78205e-06
8.60135e-06
8.42462e-06
8.25173e-06
8.08259e-06
7.91712e-06
7.7552e-06
7.59676e-06
7.44171e-06
7.28996e-06
7.14143e-06
6.99605e-06
6.85374e-06
6.71443e-06
6.57804e-06
6.44451e-06
6.31377e-06
6.18575e-06
6.0604e-06
5.93765e-06
5.81745e-06
5.69973e-06
5.58444e-06
5.47152e-06
5.36093e-06
5.25261e-06
5.14652e-06
5.0426e-06
4.9408e-06
4.84108e-06
4.7434e-06
4.64772e-06
4.55398e-06
4.46214e-06
4.37218e-06
4.28404e-06
4.19769e-06
4.11309e-06
4.03021e-06
3.94901e-06
3.86944e-06
3.79149e-06
3.71512e-06
3.64028e-06
3.56696e-06
3.49512e-06
3.42473e-06
3.35575e-06
3.28817e-06
3.22195e-06
3.15706e-06
3.09348e-06
3.03118e-06
2.97014e-06
2.91032e-06
2.85171e-06
2.79428e-06
2.738e-06
2.68285e-06
2.62881e-06
2.57586e-06
2.52397e-06
2.47313e-06
2.42331e-06
2.37449e-06
2.32665e-06
2.27977e-06
2.23383e-06
2.18882e-06
2.14471e-06
2.10149e-06
2.05913e-06
2.01763e-06
1.97696e-06
1.93711e-06
1.89805e-06
1.85979e-06
1.82229e-06
1.78554e-06
1.74954e-06
1.71426e-06
1.67968e-06
1.64581e-06
1.61261e-06
1.58008e-06
1.54821e-06
1.51697e-06
1.48637e-06
1.45637e-06
1.42699e-06
1.39819e-06
1.36998e-06
1.34233e-06
1.31523e-06
1.28869e-06
1.26267e-06
1.23719e-06
1.21221e-06
1.18774e-06
1.16376e-06
1.14026e-06
1.11723e-06
1.09467e-06
1.07257e-06
1.05091e-06
1.02968e-06
1.00889e-06
9.88509e-07
9.68541e-07
9.48976e-07
9.29805e-07
9.11021e-07
8.92615e-07
8.74579e-07
8.56908e-07
8.39592e-07
8.22625e-07
8.06001e-07
7.89711e-07
7.7375e-07
7.58111e-07
7.42788e-07
7.27773e-07
7.13062e-07
6.98647e-07
6.84524e-07
6.70686e-07
6.57128e-07
6.43844e-07
6.30829e-07
6.18078e-07
6.05584e-07
5.93344e-07
5.81352e-07
5.69603e-07
5.58092e-07
5.46815e-07
5.35766e-07
5.2494e-07
5.14334e-07
5.03941e-07
4.93759e-07
4.8378e-07
4.74002e-07
4.64419e-07
4.55026e-07
4.45819e-07
4.36792e-07
4.27941e-07
4.19262e-07
4.10748e-07
4.02395e-07
3.94198e-07
3.86153e-07
3.78253e-07
3.70495e-07
3.62873e-07
3.55382e-07
3.48017e-07
3.40773e-07
3.33646e-07
3.2663e-07
3.19721e-07
3.12915e-07
3.06207e-07
2.99592e-07
2.93066e-07
2.86627e-07
2.80268e-07
2.73988e-07
2.67782e-07
2.61647e-07
2.55581e-07
2.4958e-07
2.43642e-07
2.37765e-07
2.31947e-07
2.26185e-07
2.20479e-07
2.14827e-07
2.09229e-07
2.03683e-07
1.98188e-07
1.92746e-07
1.87355e-07
1.82015e-07
1.76728e-07
1.71495e-07
1.66314e-07
1.61189e-07
1.5612e-07
1.51109e-07
1.46157e-07
1.41265e-07
1.36437e-07
1.31673e-07
1.26977e-07
1.22349e-07
1.17792e-07
1.13309e-07
1.08902e-07
1.04572e-07
1.00323e-07
9.61556e-08
9.20729e-08
8.80766e-08
8.41686e-08
8.03506e-08
7.66245e-08
7.29916e-08
6.94536e-08
6.60114e-08
6.26664e-08
5.94193e-08
5.6271e-08
5.32219e-08
5.02725e-08
4.74229e-08
4.46734e-08
4.20236e-08
3.94736e-08
3.70223e-08
3.46698e-08
3.24144e-08
3.0256e-08
2.81924e-08
2.62235e-08
2.43464e-08
2.25612e-08
2.08643e-08
1.92557e-08
1.77313e-08
1.62912e-08
1.49304e-08
1.36498e-08
1.24432e-08
1.13123e-08
1.025e-08
9.25872e-09
8.32999e-09
7.4677e-09
6.66163e-09
5.91745e-09
5.2229e-09
4.58606e-09
3.99205e-09
3.45204e-09
2.9479e-09
2.49462e-09
2.06989e-09
1.69358e-09
1.33814e-09
1.02954e-09
7.3376e-10
4.84373e-10
2.39313e-10
4.14437e-11
-1.61119e-10
-3.14409e-10
-4.82013e-10
-5.9701e-10
-7.36469e-10
-8.18943e-10
-9.36015e-10
-9.91437e-10
-1.0904e-09
-1.1245e-09
-1.20737e-09
-1.22753e-09
-1.29255e-09
-1.31049e-09
-1.34878e-09
-1.38643e-09
-1.37441e-09
-1.47708e-09
-1.35771e-09
-1.62664e-09
-1.2535e-09
-1.93304e-09
-8.36801e-10
-2.57616e-09
2.15806e-09
-1.64287e-09
-1.64287e-09
-0.146488
0.146488
0.0383105
0.014234
0.00745602
0.00467275
0.00323055
0.00237653
0.00182708
0.00145306
0.00118762
0.000992883
0.000845958
0.000732363
0.000642595
0.000570249
0.000510907
0.00046146
0.000419681
0.000383945
0.00035305
0.00032609
0.000302371
0.000281354
0.000262615
0.000245814
0.000230678
0.000216981
0.000204538
0.000193192
0.000182814
0.000173291
0.000164528
0.000156444
0.000148969
0.000142039
0.000135602
0.000129611
0.000124023
0.000118802
0.000113916
0.000109336
0.000105035
0.00010099
9.71815e-05
9.359e-05
9.01987e-05
8.69925e-05
8.39576e-05
8.10814e-05
7.83527e-05
7.5761e-05
7.3297e-05
7.09519e-05
6.87178e-05
6.65875e-05
6.45544e-05
6.26122e-05
6.07553e-05
5.89785e-05
5.7277e-05
5.56463e-05
5.40823e-05
5.25812e-05
5.11393e-05
4.97535e-05
4.84205e-05
4.71376e-05
4.59022e-05
4.47116e-05
4.35636e-05
4.2456e-05
4.13869e-05
4.03542e-05
3.93562e-05
3.83912e-05
3.74578e-05
3.65543e-05
3.56794e-05
3.48319e-05
3.40105e-05
3.32141e-05
3.24415e-05
3.16918e-05
3.09639e-05
3.02571e-05
2.95704e-05
2.8903e-05
2.82541e-05
2.76231e-05
2.70092e-05
2.64118e-05
2.58302e-05
2.5264e-05
2.47125e-05
2.41751e-05
2.36515e-05
2.31411e-05
2.26435e-05
2.21582e-05
2.16849e-05
2.12231e-05
2.07724e-05
2.03326e-05
1.99032e-05
1.9484e-05
1.90746e-05
1.86748e-05
1.82842e-05
1.79026e-05
1.75297e-05
1.71653e-05
1.68091e-05
1.64609e-05
1.61205e-05
1.57876e-05
1.54621e-05
1.51438e-05
1.48325e-05
1.45279e-05
1.423e-05
1.39385e-05
1.36533e-05
1.33742e-05
1.31011e-05
1.28338e-05
1.25722e-05
1.23161e-05
1.20654e-05
1.18201e-05
1.15799e-05
1.13447e-05
1.11144e-05
1.0889e-05
1.06682e-05
1.04521e-05
1.02404e-05
1.00331e-05
9.83004e-06
9.6312e-06
9.43646e-06
9.24572e-06
9.0589e-06
8.87591e-06
8.69666e-06
8.52108e-06
8.34909e-06
8.1806e-06
8.01555e-06
7.85386e-06
7.69546e-06
7.54028e-06
7.38825e-06
7.23931e-06
7.09338e-06
6.95041e-06
6.81034e-06
6.6731e-06
6.53864e-06
6.4069e-06
6.27782e-06
6.15134e-06
6.02742e-06
5.906e-06
5.78703e-06
5.67045e-06
5.55623e-06
5.44431e-06
5.33464e-06
5.22718e-06
5.12189e-06
5.01871e-06
4.91761e-06
4.81855e-06
4.72148e-06
4.62636e-06
4.53315e-06
4.44182e-06
4.35233e-06
4.26463e-06
4.1787e-06
4.09449e-06
4.01198e-06
3.93113e-06
3.8519e-06
3.77426e-06
3.69818e-06
3.62364e-06
3.55059e-06
3.47901e-06
3.40887e-06
3.34013e-06
3.27278e-06
3.20679e-06
3.14212e-06
3.07875e-06
3.01665e-06
2.95581e-06
2.89618e-06
2.83776e-06
2.78051e-06
2.72441e-06
2.66944e-06
2.61558e-06
2.5628e-06
2.51108e-06
2.4604e-06
2.41075e-06
2.36209e-06
2.31441e-06
2.26769e-06
2.22191e-06
2.17705e-06
2.1331e-06
2.09003e-06
2.04783e-06
2.00648e-06
1.96596e-06
1.92626e-06
1.88736e-06
1.84924e-06
1.81189e-06
1.77529e-06
1.73943e-06
1.70429e-06
1.66986e-06
1.63613e-06
1.60307e-06
1.57068e-06
1.53895e-06
1.50785e-06
1.47738e-06
1.44752e-06
1.41827e-06
1.3896e-06
1.36151e-06
1.33399e-06
1.30703e-06
1.28061e-06
1.25472e-06
1.22936e-06
1.2045e-06
1.18015e-06
1.1563e-06
1.13292e-06
1.11002e-06
1.08758e-06
1.0656e-06
1.04406e-06
1.02296e-06
1.00228e-06
9.82025e-07
9.6218e-07
9.42737e-07
9.23687e-07
9.05022e-07
8.86734e-07
8.68813e-07
8.51253e-07
8.34044e-07
8.17177e-07
8.00645e-07
7.84439e-07
7.6855e-07
7.5297e-07
7.3769e-07
7.22701e-07
7.07995e-07
6.93562e-07
6.79394e-07
6.65483e-07
6.51818e-07
6.38392e-07
6.25196e-07
6.1222e-07
5.99457e-07
5.86897e-07
5.74533e-07
5.62356e-07
5.50359e-07
5.38532e-07
5.26869e-07
5.15363e-07
5.04006e-07
4.92792e-07
4.81714e-07
4.70766e-07
4.59944e-07
4.49241e-07
4.38653e-07
4.28176e-07
4.17806e-07
4.07538e-07
3.97371e-07
3.87302e-07
3.77328e-07
3.67448e-07
3.57661e-07
3.47966e-07
3.38362e-07
3.2885e-07
3.1943e-07
3.10103e-07
3.0087e-07
2.91733e-07
2.82694e-07
2.73755e-07
2.64919e-07
2.56189e-07
2.47567e-07
2.39057e-07
2.30663e-07
2.22389e-07
2.14237e-07
2.06212e-07
1.98319e-07
1.9056e-07
1.8294e-07
1.75463e-07
1.68132e-07
1.60952e-07
1.53925e-07
1.47055e-07
1.40345e-07
1.33798e-07
1.27417e-07
1.21204e-07
1.15161e-07
1.0929e-07
1.03593e-07
9.80705e-08
9.27236e-08
8.75532e-08
8.25592e-08
7.77422e-08
7.31011e-08
6.86364e-08
6.4346e-08
6.02297e-08
5.62847e-08
5.25106e-08
4.89037e-08
4.54633e-08
4.21848e-08
3.90678e-08
3.61061e-08
3.32996e-08
3.0641e-08
2.81304e-08
2.57592e-08
2.35284e-08
2.14277e-08
1.94595e-08
1.76115e-08
1.58878e-08
1.42738e-08
1.27759e-08
1.13764e-08
1.00849e-08
8.88033e-09
7.77629e-09
6.74733e-09
5.81226e-09
4.94008e-09
4.15616e-09
3.4224e-09
2.77244e-09
2.15934e-09
1.62716e-09
1.11788e-09
6.88522e-10
2.67441e-10
-7.2543e-11
-4.19794e-10
-6.82532e-10
-9.69111e-10
-1.16562e-09
-1.40338e-09
-1.5437e-09
-1.74268e-09
-1.8363e-09
-2.00398e-09
-2.06074e-09
-2.20075e-09
-2.23327e-09
-2.34285e-09
-2.37102e-09
-2.43542e-09
-2.49628e-09
-2.47596e-09
-2.64594e-09
-2.4452e-09
-2.89475e-09
-2.26813e-09
-3.40722e-09
-1.56892e-09
-4.47502e-09
3.37863e-09
-2.92064e-09
-2.92064e-09
-0.160438
0.160438
0.0519966
0.0211683
0.0113796
0.00719514