# vtk DataFile Version 2.0
FlowField
ASCII
DATASET STRUCTURED_GRID
DIMENSIONS 400 1 200
POINTS 80000 float
0 0 0
0.08 0 0
0.16 0 0
0.24 0 0
0.32 0 0
0.4 0 0
0.48 0 0
0.56 0 0
0.64 0 0
0.72 0 0
0.8 0 0
0.88 0 0
0.96 0 0
1.04 0 0
1.12 0 0
1.2 0 0
1.28 0 0
1.36 0 0
1.44 0 0
1.52 0 0
1.6 0 0
1.68 0 0
1.76 0 0
1.84 0 0
1.92 0 0
2 0 0
2.08 0 0
2.16 0 0
2.24 0 0
2.32 0 0
2.4 0 0
2.48 0 0
2.56 0 0
2.64 0 0
2.72 0 0
2.8 0 0
2.88 0 0
2.96 0 0
3.04 0 0
3.12 0 0
3.2 0 0
3.28 0 0
3.36 0 0
3.44 0 0
3.52 0 0
3.6 0 0
3.68 0 0
3.76 0 0
3.84 0 0
3.92 0 0
4 0 0
4.08 0 0
4.16 0 0
4.24 0 0
4.32 0 0
4.4 0 0
4.48 0 0
4.56 0 0
4.64 0 0
4.72 0 0
4.8 0 0
4.88 0 0
4.96 0 0
5.04 0 0
5.12 0 0
5.2 0 0
5.28 0 0
5.36 0 0
5.44 0 0
5.52 0 0
5.6 0 0
5.68 0 0
5.76 0 0
5.84 0 0
5.92 0 0
6 0 0
6.08 0 0
6.16 0 0
6.24 0 0
6.32 0 0
6.4 0 0
6.48 0 0
6.56 0 0
6.64 0 0
6.72 0 0
6.8 0 0
6.88 0 0
6.96 0 0
7.04 0 0
7.12 0 0
7.2 0 0
7.28 0 0
7.36 0 0
7.44 0 0
7.52 0 0
7.6 0 0
7.68 0 0
7.76 0 0
7.84 0 0
7.92 0 0
8 0 0
8.08 0 0
8.16 0 0
8.24 0 0
8.32 0 0
8.4 0 0
8.48 0 0
8.56 0 0
8.64 0 0
8.72 0 0
8.8 0 0
8.88 0 0
8.96 0 0
9.04 0 0
9.12 0 0
9.2 0 0
9.28 0 0
9.36 0 0
9.44 0 0
9.52 0 0
9.6 0 0
9.68 0 0
9.76 0 0
9.84 0 0
9.92 0 0
10 0 0
10.08 0 0
10.16 0 0
10.24 0 0
10.32 0 0
10.4 0 0
10.48 0 0
10.56 0 0
10.64 0 0
10.72 0 0
10.8 0 0
10.88 0 0
10.96 0 0
11.04 0 0
11.12 0 0
11.2 0 0
11.28 0 0
11.36 0 0
11.44 0 0
11.52 0 0
11.6 0 0
11.68 0 0
11.76 0 0
11.84 0 0
11.92 0 0
12 0 0
12.08 0 0
12.16 0 0
12.24 0 0
12.32 0 0
12.4 0 0
12.48 0 0
12.56 0 0
12.64 0 0
12.72 0 0
12.8 0 0
12.88 0 0
12.96 0 0
13.04 0 0
13.12 0 0
13.2 0 0
13.28 0 0
13.36 0 0
13.44 0 0
13.52 0 0
13.6 0 0
13.68 0 0
13.76 0 0
13.84 0 0
13.92 0 0
14 0 0
14.08 0 0
14.16 0 0
14.24 0 0
14.32 0 0
14.4 0 0
14.48 0 0
14.56 0 0
14.64 0 0
14.72 0 0
14.8 0 0
14.88 0 0
14.96 0 0
15.04 0 0
15.12 0 0
15.2 0 0
15.28 0 0
15.36 0 0
15.44 0 0
15.52 0 0
15.6 0 0
15.68 0 0
15.76 0 0
15.84 0 0
15.92 0 0
16 0 0
16.08 0 0
16.16 0 0
16.24 0 0
16.32 0 0
16.4 0 0
16.48 0 0
16.56 0 0
16.64 0 0
16.72 0 0
16.8 0 0
16.88 0 0
16.96 0 0
17.04 0 0
17.12 0 0
17.2 0 0
17.28 0 0
17.36 0 0
17.44 0 0
17.52 0 0
17.6 0 0
17.68 0 0
17.76 0 0
17.84 0 0
17.92 0 0
18 0 0
18.08 0 0
18.16 0 0
18.24 0 0
18.32 0 0
18.4 0 0
18.48 0 0
18.56 0 0
18.64 0 0
18.72 0 0
18.8 0 0
18.88 0 0
18.96 0 0
19.04 0 0
19.12 0 0
19.2 0 0
19.28 0 0
19.36 0 0
19.44 0 0
19.52 0 0
19.6 0 0
19.68 0 0
19.76 0 0
19.84 0 0
19.92 0 0
20 0 0
20.08 0 0
20.16 0 0
20.24 0 0
20.32 0 0
20.4 0 0
20.48 0 0
20.56 0 0
20.64 0 0
20.72 0 0
20.8 0 0
20.88 0 0
20.96 0 0
21.04 0 0
21.12 0 0
21.2 0 0
21.28 0 0
21.36 0 0
21.44 0 0
21.52 0 0
21.6 0 0
21.68 0 0
21.76 0 0
21.84 0 0
21.92 0 0
22 0 0
22.08 0 0
22.16 0 0
22.24 0 0
22.32 0 0
22.4 0 0
22.48 0 0
22.56 0 0
22.64 0 0
22.72 0 0
22.8 0 0
22.88 0 0
22.96 0 0
23.04 0 0
23.12 0 0
23.2 0 0
23.28 0 0
23.36 0 0
23.44 0 0
23.52 0 0
23.6 0 0
23.68 0 0
23.76 0 0
23.84 0 0
23.92 0 0
24 0 0
24.08 0 0
24.16 0 0
24.24 0 0
24.32 0 0
24.4 0 0
24.48 0 0
24.56 0 0
24.64 0 0
24.72 0 0
24.8 0 0
24.88 0 0
24.96 0 0
25.04 0 0
25.12 0 0
25.2 0 0
25.28 0 0
25.36 0 0
25.44 0 0
25.52 0 0
25.6 0 0
25.68 0 0
25.76 0 0
25.84 0 0
25.92 0 0
26 0 0
26.08 0 0
26.16 0 0
26.24 0 0
26.32 0 0
26.4 0 0
26.48 0 0
26.56 0 0
26.64 0 0
26.72 0 0
26.8 0 0
26.88 0 0
26.96 0 0
27.04 0 0
27.12 0 0
27.2 0 0
27.28 0 0
27.36 0 0
27.44 0 0
27.52 0 0
27.6 0 0
27.68 0 0
27.76 0 0
27.84 0 0
27.92 0 0
28 0 0
28.08 0 0
28.16 0 0
28.24 0 0
28.32 0 0
28.4 0 0
28.48 0 0
28.56 0 0
28.64 0 0
28.72 0 0
28.8 0 0
28.88 0 0
28.96 0 0
29.04 0 0
29.12 0 0
29.2 0 0
29.28 0 0
29.36 0 0
29.44 0 0
29.52 0 0
29.6 0 0
29.68 0 0
29.76 0 0
29.84 0 0
29.92 0 0
30 0 0
30.08 0 0
30.16 0 0
30.24 0 0
30.32 0 0
30.4 0 0
30.48 0 0
30.56 0 0
30.64 0 0
30.72 0 0
30.8 0 0
30.88 0 0
30.96 0 0
31.04 0 0
31.12 0 0
31.2 0 0
31.28 0 0
31.36 0 0
31.44 0 0
31.52 0 0
31.6 0 0
31.68 0 0
31.76 0 0
31.84 0 0
31.92 0 0
0 0.005 0
0.08 0.005 0
0.16 0.005 0
0.24 0.005 0
0.32 0.005 0
0.4 0.005 0
0.48 0.005 0
0.56 0.005 0
0.64 0.005 0
0.72 0.005 0
0.8 0.005 0
0.88 0.005 0
0.96 0.005 0
1.04 0.005 0
1.12 0.005 0
1.2 0.005 0
1.28 0.005 0
1.36 0.005 0
1.44 0.005 0
1.52 0.005 0
1.6 0.005 0
1.68 0.005 0
1.76 0.005 0
1.84 0.005 0
1.92 0.005 0
2 0.005 0
2.08 0.005 0
2.16 0.005 0
2.24 0.005 0
2.32 0.005 0
2.4 0.005 0
2.48 0.005 0
2.56 0.005 0
2.64 0.005 0
2.72 0.005 0
2.8 0.005 0
2.88 0.005 0
2.96 0.005 0
3.04 0.005 0
3.12 0.005 0
3.2 0.005 0
3.28 0.005 0
3.36 0.005 0
3.44 0.005 0
3.52 0.005 0
3.6 0.005 0
3.68 0.005 0
3.76 0.005 0
3.84 0.005 0
3.92 0.005 0
4 0.005 0
4.08 0.005 0
4.16 0.005 0
4.24 0.005 0
4.32 0.005 0
4.4 0.005 0
4.48 0.005 0
4.56 0.005 0
4.64 0.005 0
4.72 0.005 0
4.8 0.005 0
4.88 0.005 0
4.96 0.005 0
5.04 0.005 0
5.12 0.005 0
5.2 0.005 0
5.28 0.005 0
5.36 0.005 0
5.44 0.005 0
5.52 0.005 0
5.6 0.005 0
5.68 0.005 0
5.76 0.005 0
5.84 0.005 0
5.92 0.005 0
6 0.005 0
6.08 0.005 0
6.16 0.005 0
6.24 0.005 0
6.32 0.005 0
6.4 0.005 0
6.48 0.005 0
6.56 0.005 0
6.64 0.005 0
6.72 0.005 0
6.8 0.005 0
6.88 0.005 0
6.96 0.005 0
7.04 0.005 0
7.12 0.005 0
7.2 0.005 0
7.28 0.005 0
7.36 0.005 0
7.44 0.005 0
7.52 0.005 0
7.6 0.005 0
7.68 0.005 0
7.76 0.005 0
7.84 0.005 0
7.92 0.005 0
8 0.005 0
8.08 0.005 0
8.16 0.005 0
8.24 0.005 0
8.32 0.005 0
8.4 0.005 0
8.48 0.005 0
8.56 0.005 0
8.64 0.005 0
8.72 0.005 0
8.8 0.005 0
8.88 0.005 0
8.96 0.005 0
9.04 0.005 0
9.12 0.005 0
9.2 0.005 0
9.28 0.005 0
9.36 0.005 0
9.44 0.005 0
9.52 0.005 0
9.6 0.005 0
9.68 0.005 0
9.76 0.005 0
9.84 0.005 0
9.92 0.005 0
10 0.005 0
10.08 0.005 0
10.16 0.005 0
10.24 0.005 0
10.32 0.005 0
10.4 0.005 0
10.48 0.005 0
10.56 0.005 0
10.64 0.005 0
10.72 0.005 0
10.8 0.005 0
10.88 0.005 0
10.96 0.005 0
11.04 0.005 0
11.12 0.005 0
11.2 0.005 0
11.28 0.005 0
11.36 0.005 0
11.44 0.005 0
11.52 0.005 0
11.6 0.005 0
11.68 0.005 0
11.76 0.005 0
11.84 0.005 0
11.92 0.005 0
12 0.005 0
12.08 0.005 0
12.16 0.005 0
12.24 0.005 0
12.32 0.005 0
12.4 0.005 0
12.48 0.005 0
12.56 0.005 0
12.64 0.005 0
12.72 0.005 0
12.8 0.005 0
12.88 0.005 0
12.96 0.005 0
13.04 0.005 0
13.12 0.005 0
13.2 0.005 0
13.28 0.005 0
13.36 0.005 0
13.44 0.005 0
13.52 0.005 0
13.6 0.005 0
13.68 0.005 0
13.76 0.005 0
13.84 0.005 0
13.92 0.005 0
14 0.005 0
14.08 0.005 0
14.16 0.005 0
14.24 0.005 0
14.32 0.005 0
14.4 0.005 0
14.48 0.005 0
14.56 0.005 0
14.64 0.005 0
14.72 0.005 0
14.8 0.005 0
14.88 0.005 0
14.96 0.005 0
15.04 0.005 0
15.12 0.005 0
15.2 0.005 0
15.28 0.005 0
15.36 0.005 0
15.44 0.005 0
15.52 0.005 0
15.6 0.005 0
15.68 0.005 0
15.76 0.005 0
15.84 0.005 0
15.92 0.005 0
16 0.005 0
16.08 0.005 0
16.16 0.005 0
16.24 0.005 0
16.32 0.005 0
16.4 0.005 0
16.48 0.005 0
16.56 0.005 0
16.64 0.005 0
16.72 0.005 0
16.8 0.005 0
16.88 0.005 0
16.96 0.005 0
17.04 0.005 0
17.12 0.005 0
17.2 0.005 0
17.28 0.005 0
17.36 0.005 0
17.44 0.005 0
17.52 0.005 0
17.6 0.005 0
17.68 0.005 0
17.76 0.005 0
17.84 0.005 0
17.92 0.005 0
18 0.005 0
18.08 0.005 0
18.16 0.005 0
18.24 0.005 0
18.32 0.005 0
18.4 0.005 0
18.48 0.005 0
18.56 0.005 0
18.64 0.005 0
18.72 0.005 0
18.8 0.005 0
18.88 0.005 0
18.96 0.005 0
19.04 0.005 0
19.12 0.005 0
19.2 0.005 0
19.28 0.005 0
19.36 0.005 0
19.44 0.005 0
19.52 0.005 0
19.6 0.005 0
19.68 0.005 0
19.76 0.005 0
19.84 0.005 0
19.92 0.005 0
20 0.005 0
20.08 0.005 0
20.16 0.005 0
20.24 0.005 0
20.32 0.005 0
20.4 0.005 0
20.48 0.005 0
20.56 0.005 0
20.64 0.005 0
20.72 0.005 0
20.8 0.005 0
20.88 0.005 0
20.96 0.005 0
21.04 0.005 0
21.12 0.005 0
21.2 0.005 0
21.28 0.005 0
21.36 0.005 0
21.44 0.005 0
21.52 0.005 0
21.6 0.005 0
21.68 0.005 0
21.76 0.005 0
21.84 0.005 0
21.92 0.005 0
22 0.005 0
22.08 0.005 0
22.16 0.005 0
22.24 0.005 0
22.32 0.005 0
22.4 0.005 0
22.48 0.005 0
22.56 0.005 0
22.64 0.005 0
22.72 0.005 0
22.8 0.005 0
22.88 0.005 0
22.96 0.005 0
23.04 0.005 0
23.12 0.005 0
23.2 0.005 0
23.28 0.005 0
23.36 0.005 0
23.44 0.005 0
23.52 0.005 0
23.6 0.005 0
23.68 0.005 0
23.76 0.005 0
23.84 0.005 0
23.92 0.005 0
24 0.005 0
24.08 0.005 0
24.16 0.005 0
24.24 0.005 0
24.32 0.005 0
24.4 0.005 0
24.48 0.005 0
24.56 0.005 0
24.64 0.005 0
24.72 0.005 0
24.8 0.005 0
24.88 0.005 0
24.96 0.005 0
25.04 0.005 0
25.12 0.005 0
25.2 0.005 0
25.28 0.005 0
25.36 0.005 0
25.44 0.005 0
25.52 0.005 0
25.6 0.005 0
25.68 0.005 0
25.76 0.005 0
25.84 0.005 0
25.92 0.005 0
26 0.005 0
26.08 0.005 0
26.16 0.005 0
26.24 0.005 0
26.32 0.005 0
26.4 0.005 0
26.48 0.005 0
26.56 0.005 0
26.64 0.005 0
26.72 0.005 0
26.8 0.005 0
26.88 0.005 0
26.96 0.005 0
27.04 0.005 0
27.12 0.005 0
27.2 0.005 0
27.28 0.005 0
27.36 0.005 0
27.44 0.005 0
27.52 0.005 0
27.6 0.005 0
27.68 0.005 0
27.76 0.005 0
27.84 0.005 0
27.92 0.005 0
28 0.005 0
28.08 0.005 0
28.16 0.005 0
28.24 0.005 0
28.32 0.005 0
28.4 0.005 0
28.48 0.005 0
28.56 0.005 0
28.64 0.005 0
28.72 0.005 0
28.8 0.005 0
28.88 0.005 0
28.96 0.005 0
29.04 0.005 0
29.12 0.005 0
29.2 0.005 0
29.28 0.005 0
29.36 0.005 0
29.44 0.005 0
29.52 0.005 0
29.6 0.005 0
29.68 0.005 0
29.76 0.005 0
29.84 0.005 0
29.92 0.005 0
30 0.005 0
30.08 0.005 0
30.16 0.005 0
30.24 0.005 0
30.32 0.005 0
30.4 0.005 0
30.48 0.005 0
30.56 0.005 0
30.64 0.005 0
30.72 0.005 0
30.8 0.005 0
30.88 0.005 0
30.96 0.005 0
31.04 0.005 0
31.12 0.005 0
31.2 0.005 0
31.28 0.005 0
31.36 0.005 0
31.44 0.005 0
31.52 0.005 0
31.6 0.005 0
31.68 0.005 0
31.76 0.005 0
31.84 0.005 0
31.92 0.005 0
0 0.01 0
0.08 0.01 0
0.16 0.01 0
0.24 0.01 0
0.32 0.01 0
0.4 0.01 0
0.48 0.01 0
0.56 0.01 0
0.64 0.01 0
0.72 0.01 0
0.8 0.01 0
0.88 0.01 0
0.96 0.01 0
1.04 0.01 0
1.12 0.01 0
1.2 0.01 0
1.28 0.01 0
1.36 0.01 0
1.44 0.01 0
1.52 0.01 0
1.6 0.01 0
1.68 0.01 0
1.76 0.01 0
1.84 0.01 0
1.92 0.01 0
2 0.01 0
2.08 0.01 0
2.16 0.01 0
2.24 0.01 0
2.32 0.01 0
2.4 0.01 0
2.48 0.01 0
2.56 0.01 0
2.64 0.01 0
2.72 0.01 0
2.8 0.01 0
2.88 0.01 0
2.96 0.01 0
3.04 0.01 0
3.12 0.01 0
3.2 0.01 0
3.28 0.01 0
3.36 0.01 0
3.44 0.01 0
3.52 0.01 0
3.6 0.01 0
3.68 0.01 0
3.76 0.01 0
3.84 0.01 0
3.92 0.01 0
4 0.01 0
4.08 0.01 0
4.16 0.01 0
4.24 0.01 0
4.32 0.01 0
4.4 0.01 0
4.48 0.01 0
4.56 0.01 0
4.64 0.01 0
4.72 0.01 0
4.8 0.01 0
4.88 0.01 0
4.96 0.01 0
5.04 0.01 0
5.12 0.01 0
[...]
POINT_DATA 80000

SCALARS u float 1
LOOKUP_TABLE default
0
-0.131663
-0.068269
-0.0522958
-0.0444196
-0.0395765
-0.0362593
-0.0338323
-0.0319723
-0.0304956
-0.0292895
-0.0282812
-0.0274216
-0.026677
-0.026023
-0.0254421
-0.0249212
-0.0244502
-0.0240216
-0.0236291
-0.023268
-0.0229343
-0.0226247
-0.0223365
-0.0220674
-0.0218154
-0.0215789
-0.0213563
-0.0211464
-0.0209482
-0.0207605
-0.0205826
-0.0204136
-0.020253
-0.0201
-0.019954
-0.0198147
-0.0196815
-0.019554
-0.0194319
-0.0193148
-0.0192024
-0.0190944
-0.0189905
-0.0188906
-0.0187943
-0.0187015
-0.018612
-0.0185256
-0.0184422
-0.0183616
-0.0182836
-0.0182081
-0.0181351
-0.0180644
-0.0179958
-0.0179293
-0.0178649
-0.0178023
-0.0177415
-0.0176825
-0.0176252
-0.0175695
-0.0175153
-0.0174626
-0.0174114
-0.0173615
-0.0173129
-0.0172656
-0.0172195
-0.0171746
-0.0171308
-0.0170881
-0.0170465
-0.017006
-0.0169664
-0.0169277
-0.01689
-0.0168532
-0.0168173
-0.0167822
-0.0167479
-0.0167145
-0.0166818
-0.0166498
-0.0166186
-0.0165881
-0.0165583
-0.0165291
-0.0165006
-0.0164727
-0.0164454
-0.0164188
-0.0163927
-0.0163672
-0.0163422
-0.0163178
-0.0162939
-0.0162705
-0.0162476
-0.0162252
-0.0162033
-0.0161818
-0.0161608
-0.0161403
-0.0161202
-0.0161004
-0.0160812
-0.0160623
-0.0160438
-0.0160256
-0.0160079
-0.0159905
-0.0159735
-0.0159569
-0.0159405
-0.0159246
-0.0159089
-0.0158936
-0.0158786
-0.0158638
-0.0158494
-0.0158353
-0.0158215
-0.0158079
-0.0157947
-0.0157817
-0.0157689
-0.0157565
-0.0157442
-0.0157323
-0.0157205
-0.015709
-0.0156978
-0.0156867
-0.0156759
-0.0156653
-0.0156549
-0.0156448
-0.0156348
-0.015625
-0.0156155
-0.0156061
-0.0155969
-0.0155879
-0.0155791
-0.0155705
-0.015562
-0.0155537
-0.0155456
-0.0155376
-0.0155298
-0.0155222
-0.0155147
-0.0155073
-0.0155001
-0.0154931
-0.0154862
-0.0154794
-0.0154728
-0.0154663
-0.0154599
-0.0154537
-0.0154476
-0.0154416
-0.0154357
-0.01543
-0.0154243
-0.0154188
-0.0154134
-0.0154081
-0.0154029
-0.0153978
-0.0153928
-0.0153879
-0.0153832
-0.0153785
-0.0153739
-0.0153694
-0.0153649
-0.0153606
-0.0153564
-0.0153522
-0.0153482
-0.0153442
-0.0153403
-0.0153364
-0.0153327
-0.015329
-0.0153254
-0.0153219
-0.0153184
-0.015315
-0.0153117
-0.0153084
-0.0153053
-0.0153021
-0.0152991
-0.0152961
-0.0152931
-0.0152902
-0.0152874
-0.0152847
-0.015282
-0.0152793
-0.0152767
-0.0152742
-0.0152717
-0.0152692
-0.0152668
-0.0152645
-0.0152622
-0.01526
-0.0152578
-0.0152557
-0.0152536
-0.0152515
-0.0152495
-0.0152476
-0.0152457
-0.0152438
-0.015242
-0.0152403
-0.0152386
-0.0152369
-0.0152353
-0.0152337
-0.0152321
-0.0152306
-0.0152292
-0.0152278
-0.0152264
-0.0152251
-0.0152238
-0.0152225
-0.0152213
-0.0152202
-0.0152191
-0.015218
-0.0152169
-0.0152159
-0.015215
-0.0152141
-0.0152132
-0.0152123
-0.0152115
-0.0152107
-0.01521
-0.0152093
-0.0152086
-0.0152079
-0.0152073
-0.0152067
-0.0152062
-0.0152057
-0.0152052
-0.0152047
-0.0152042
-0.0152038
-0.0152034
-0.0152031
-0.0152027
-0.0152024
-0.0152021
-0.0152018
-0.0152015
-0.0152013
-0.0152011
-0.0152009
-0.0152007
-0.0152005
-0.0152003
-0.0152002
-0.0152001
-0.0151999
-0.0151998
-0.0151997
-0.0151996
-0.0151996
-0.0151995
-0.0151994
-0.0151994
-0.0151993
-0.0151993
-0.0151992
-0.0151992
-0.0151992
-0.0151992
-0.0151991
-0.0151991
-0.0151991
-0.0151991
-0.0151991
-0.0151991
-0.0151991
-0.0151991
-0.0151991
-0.0151991
-0.0151991
-0.0151991
-0.0151991
-0.0151991
-0.0151991
-0.0151991
-0.0151992
-0.0151992
-0.0151992
-0.0151992
-0.0151992
-0.0151992
-0.0151992
-0.0151992
-0.0151993
-0.0151993
-0.0151993
-0.0151993
-0.0151993
-0.0151993
-0.0151993
-0.0151993
-0.0151994
-0.0151994
-0.0151994
-0.0151994
-0.0151994
-0.0151994
-0.0151994
-0.0151994
-0.0151995
-0.0151995
-0.0151995
-0.0151995
-0.0151995
-0.0151995
-0.0151995
-0.0151995
-0.0151996
-0.0151996
-0.0151996
-0.0151996
-0.0151996
-0.0151996
-0.0151996
-0.0151996
-0.0151997
-0.0151997
-0.0151997
-0.0151997
-0.0151997
-0.0151997
-0.0151997
-0.0151997
-0.0151998
-0.0151998
-0.0151998
-0.0151998
-0.0151998
-0.0151998
-0.0151998
-0.0151999
-0.0151999
-0.0151999
-0.0151999
-0.0151999
-0.0151999
-0.0151999
-0.0151999
-0.0152
-0.0152
-0.0152
-0.0152
-0.0152
-0.0152
-0.0152
-0.0152
-0.0152001
-0.0152001
-0.0152001
-0.0152001
-0.0152001
-0.0152001
-0.0152001
-0.0152002
-0.0152002
-0.0152002
-0.0152002
-0.0152002
-0.0152002
-0.0152002
-0.0152002
-0.0152003
-0.0152003
-0.0152003
-0.0152003
-0.0152003
-0.0152003
-0.0152003
-0.0152003
-0.0152003
-0.0152003
1
0.131663
0.068269
0.0522958
0.0444196
0.0395765
0.0362593
0.0338323
0.0319723
0.0304956
0.0292895
0.0282812
0.0274216
0.026677
0.026023
0.0254421
0.0249212
0.0244502
0.0240216
0.0236291
0.023268
0.0229343
0.0226247
0.0223365
0.0220674
0.0218154
0.0215789
0.0213563
0.0211464
0.0209482
0.0207605
0.0205826
0.0204136
0.020253
0.0201
0.019954
0.0198147
0.0196815
0.019554
0.0194319
0.0193148
0.0192024
0.0190944
0.0189905
0.0188906
0.0187943
0.0187015
0.018612
0.0185256
0.0184422
0.0183616
0.0182836
0.0182081
0.0181351
0.0180644
0.0179958
0.0179293
0.0178649
0.0178023
0.0177415
0.0176825
0.0176252
0.0175695
0.0175153
0.0174626
0.0174114
0.0173615
0.0173129
0.0172656
0.0172195
0.0171746
0.0171308
0.0170881
0.0170465
0.017006
0.0169664
0.0169277
0.01689
0.0168532
0.0168173
0.0167822
0.0167479
0.0167145
0.0166818
0.0166498
0.0166186
0.0165881
0.0165583
0.0165291
0.0165006
0.0164727
0.0164454
0.0164188
0.0163927
0.0163672
0.0163422
0.0163178
0.0162939
0.0162705
0.0162476
0.0162252
0.0162033
0.0161818
0.0161608
0.0161403
0.0161202
0.0161004
0.0160812
0.0160623
0.0160438
0.0160256
0.0160079
0.0159905
0.0159735
0.0159569
0.0159405
0.0159246
0.0159089
0.0158936
0.0158786
0.0158638
0.0158494
0.0158353
0.0158215
0.0158079
0.0157947
0.0157817
0.0157689
0.0157565
0.0157442
0.0157323
0.0157205
0.015709
0.0156978
0.0156867
0.0156759
0.0156653
0.0156549
0.0156448
0.0156348
0.015625
0.0156155
0.0156061
0.0155969
0.0155879
0.0155791
0.0155705
0.015562
0.0155537
0.0155456
0.0155376
0.0155298
0.0155222
0.0155147
0.0155073
0.0155001
0.0154931
0.0154862
0.0154794
0.0154728
0.0154663
0.0154599
0.0154537
0.0154476
0.0154416
0.0154357
0.01543
0.0154243
0.0154188
0.0154134
0.0154081
0.0154029
0.0153978
0.0153928
0.0153879
0.0153832
0.0153785
0.0153739
0.0153694
0.0153649
0.0153606
0.0153564
0.0153522
0.0153482
0.0153442
0.0153403
0.0153364
0.0153327
0.015329
0.0153254
0.0153219
0.0153184
0.015315
0.0153117
0.0153084
0.0153053
0.0153021
0.0152991
0.0152961
0.0152931
0.0152902
0.0152874
0.0152847
0.015282
0.0152793
0.0152767
0.0152742
0.0152717
0.0152692
0.0152668
0.0152645
0.0152622
0.01526
0.0152578
0.0152557
0.0152536
0.0152515
0.0152495
0.0152476
0.0152457
0.0152438
0.015242
0.0152403
0.0152386
0.0152369
0.0152353
0.0152337
0.0152321
0.0152306
0.0152292
0.0152278
0.0152264
0.0152251
0.0152238
0.0152225
0.0152213
0.0152202
0.0152191
0.015218
0.0152169
0.0152159
0.015215
0.0152141
0.0152132
0.0152123
0.0152115
0.0152107
0.01521
0.0152093
0.0152086
0.0152079
0.0152073
0.0152067
0.0152062
0.0152057
0.0152052
0.0152047
0.0152042
0.0152038
0.0152034
0.0152031
0.0152027
0.0152024
0.0152021
0.0152018
0.0152015
0.0152013
0.0152011
0.0152009
0.0152007
0.0152005
0.0152003
0.0152002
0.0152001
0.0151999
0.0151998
0.0151997
0.0151996
0.0151996
0.0151995
0.0151994
0.0151994
0.0151993
0.0151993
0.0151992
0.0151992
0.0151992
0.0151992
0.0151991
0.0151991
0.0151991
0.0151991
0.0151991
0.0151991
0.0151991
0.0151991
0.0151991
0.0151991
0.0151991
0.0151991
0.0151991
0.0151991
0.0151991
0.0151991
0.0151992
0.0151992
0.0151992
0.0151992
0.0151992
0.0151992
0.0151992
0.0151992
0.0151993
0.0151993
0.0151993
0.0151993
0.0151993
0.0151993
0.0151993
0.0151993
0.0151994
0.0151994
0.0151994
0.0151994
0.0151994
0.0151994
0.0151994
0.0151994
0.0151995
0.0151995
0.0151995
0.0151995
0.0151995
0.0151995
0.0151995
0.0151995
0.0151996
0.0151996
0.0151996
0.0151996
0.0151996
0.0151996
0.0151996
0.0151996
0.0151997
0.0151997
0.0151997
0.0151997
0.0151997
0.0151997
0.0151997
0.0151997
0.0151998
0.0151998
0.0151998
0.0151998
0.0151998
0.0151998
0.0151998
0.0151999
0.0151999
0.0151999
0.0151999
0.0151999
0.0151999
0.0151999
0.0151999
0.0152
0.0152
0.0152
0.0152
0.0152
0.0152
0.0152
0.0152
0.0152001
0.0152001
0.0152001
0.0152001
0.0152001
0.0152001
0.0152001
0.0152002
0.0152002
0.0152002
0.0152002
0.0152002
0.0152002
0.0152002
0.0152002
0.0152003
0.0152003
0.0152003
0.0152003
0.0152003
0.0152003
0.0152003
0.0152003
0.0152003
0.0152003
1
0.344884
0.200667
0.154967
0.131894
0.117598
0.107767
0.100557
0.0950241
0.0906281
0.0870369
0.0840349
0.0814768
0.0792616
0.0773171
0.0755909
0.0740437
0.0726457
0.0713738
0.0702098
0.0691392
0.06815
0.0672326
0.0663788
0.0655818
0.0648356
0.0641352
0.0634764
0.0628552
0.0622685
0.0617132
0.0611868
0.060687
0.0602117
0.0597591
0.0593275
0.0589154
0.0585215
0.0581446
0.0577835
0.0574373
0.0571049
0.0567856
0.0564786
0.0561832
0.0558987
0.0556244
0.0553599
0.0551046
0.0548581
0.0546198
0.0543894
0.0541665
0.0539507
0.0537417
0.0535392
0.0533428
0.0531524
0.0529675
0.0527881
0.0526139
0.0524446
0.05228
0.0521201
0.0519645
0.0518131
0.0516657
0.0515223
0.0513826
0.0512466
0.051114
0.0509848
0.0508588
0.050736
0.0506162
0.0504993
0.0503853
0.050274
0.0501654
0.0500594
0.0499559
0.0498547
0.049756
0.0496595
0.0495652
0.0494731
0.049383
0.049295
0.049209
0.0491249
0.0490426
0.0489622
0.0488835
0.0488066
0.0487313
0.0486577
0.0485856
0.0485152
0.0484462
0.0483787
0.0483126
0.048248
0.0481847
0.0481228
0.0480621
0.0480028
0.0479447
0.0478878
0.0478321
0.0477775
0.0477241
0.0476718
0.0476206
0.0475704
0.0475213
0.0474732
0.0474261
0.0473799
0.0473347
0.0472905
0.0472471
0.0472046
0.047163
0.0471223
0.0470823
0.0470432
0.0470049
0.0469673
0.0469306
0.0468945
0.0468592
0.0468247
0.0467908
0.0467576
0.0467251
0.0466932
0.046662
0.0466314
0.0466014
0.0465721
0.0465433
0.0465151
0.0464875
0.0464604
0.0464339
0.046408
0.0463825
0.0463576
0.0463331
0.0463092
0.0462857
0.0462627
0.0462402
0.0462181
0.0461965
0.0461753
0.0461545
0.0461342
0.0461142
0.0460947
0.0460756
0.0460568
0.0460384
0.0460204
0.0460028
0.0459855
0.0459685
0.0459519
0.0459357
0.0459197
0.0459041
0.0458888
0.0458738
0.0458591
0.0458447
0.0458306
0.0458168
0.0458033
0.04579
0.045777
0.0457642
0.0457518
0.0457395
0.0457275
0.0457158
0.0457043
0.045693
0.0456819
0.0456711
0.0456605
0.0456501
0.0456399
0.0456299
0.0456202
0.0456106
0.0456012
0.045592
0.045583
0.0455741
0.0455655
0.045557
0.0455487
0.0455405
0.0455326
0.0455248
0.0455171
0.0455096
0.0455023
0.0454951
0.0454881
0.0454812
0.0454745
0.045468
0.0454615
0.0454552
0.0454491
0.0454431
0.0454372
0.0454315
0.0454259
0.0454205
0.0454152
0.04541
0.045405
0.0454001
0.0453953
0.0453906
0.0453861
0.0453817
0.0453775
0.0453734
0.0453694
0.0453655
0.0453617
0.0453581
0.0453546
0.0453512
0.0453479
0.0453448
0.0453417
0.0453388
0.045336
0.0453333
0.0453307
0.0453283
0.0453259
0.0453236
0.0453214
0.0453194
0.0453174
0.0453155
0.0453137
0.045312
0.0453104
0.0453089
0.0453075
0.0453061
0.0453048
0.0453036
0.0453025
0.0453014
0.0453005
0.0452995
0.0452987
0.0452978
0.0452971
0.0452964
0.0452958
0.0452952
0.0452946
0.0452941
0.0452936
0.0452932
0.0452928
0.0452925
0.0452922
0.0452919
0.0452916
0.0452914
0.0452912
0.045291
0.0452909
0.0452907
0.0452906
0.0452905
0.0452904
0.0452903
0.0452903
0.0452902
0.0452902
0.0452902
0.0452902
0.0452901
0.0452901
0.0452901
0.0452901
0.0452901
0.0452902
0.0452902
0.0452902
0.0452902
0.0452903
0.0452903
0.0452903
0.0452903
0.0452904
0.0452904
0.0452904
0.0452905
0.0452905
0.0452906
0.0452906
0.0452906
0.0452907
0.0452907
0.0452907
0.0452908
0.0452908
0.0452908
0.0452909
0.0452909
0.045291
0.045291
0.045291
0.0452911
0.0452911
0.0452912
0.0452912
0.0452912
0.0452913
0.0452913
0.0452913
0.0452914
0.0452914
0.0452915
0.0452915
0.0452915
0.0452916
0.0452916
0.0452916
0.0452917
0.0452917
0.0452918
0.0452918
0.0452918
0.0452919
0.0452919
0.045292
0.045292
0.045292
0.0452921
0.0452921
0.0452921
0.0452922
0.0452922
0.0452923
0.0452923
0.0452923
0.0452924
0.0452924
0.0452925
0.0452925
0.0452925
0.0452926
0.0452926
0.0452926
0.0452927
0.0452927
0.0452928
0.0452928
0.0452928
0.0452929
0.0452929
0.045293
0.045293
0.045293
0.0452931
0.0452931
0.0452932
0.0452932
0.0452932
0.0452933
0.0452933
0.0452934
0.0452934
0.0452934
0.0452935
0.0452935
0.0452935
0.0452936
0.0452936
0.0452937
0.0452937
0.0452937
0.0452938
0.0452938
0.0452939
0.0452938
0.0452938
0.0452938
1
0.518765
0.327401
0.255347
0.217848
0.194403
0.178211
0.166306
0.157157
0.149882
0.143938
0.138968
0.134734
0.131068
0.127852
0.124998
0.122441
0.120131
0.118031
0.116109
0.114342
0.11271
0.111196
0.109788
0.108473
0.107243
0.106088
0.105002
0.103978
0.103011
0.102096
0.101229
0.100405
0.0996218
0.0988761
0.0981651
0.0974863
0.0968375
0.0962167
0.0956219
0.0950517
0.0945044
0.0939786
0.093473
0.0929865
0.092518
0.0920665
0.091631
0.0912107
0.0908048
0.0904126
0.0900333
0.0896664
0.0893112
0.0889672
0.0886338
0.0883107
0.0879972
0.0876931
0.0873978
0.0871111
0.0868325
0.0865618
0.0862985
0.0860425
0.0857934
0.085551
0.085315
0.0850852
0.0848614
0.0846433
0.0844307
0.0842235
0.0840215
0.0838245
0.0836323
0.0834448
0.0832618
0.0830831
0.0829087
0.0827385
0.0825722
0.0824098
0.0822511
0.0820961
0.0819446
0.0817965
0.0816518
0.0815104
0.0813721
0.0812369
0.0811046
0.0809753
0.0808488
0.0807251
0.080604
0.0804856
0.0803698
0.0802564
0.0801455
0.0800369
0.0799306
0.0798266
0.0797248
0.0796252
0.0795276
0.0794321
0.0793386
0.0792471
0.0791574
0.0790697
0.0789837
0.0788995
0.0788171
0.0787364
0.0786574
0.0785799
0.0785041
0.0784298
0.0783571
0.0782858
0.0782161
0.0781477
0.0780807
0.0780151
0.0779509
0.0778879
0.0778262
0.0777658
0.0777066
0.0776486
0.0775918
0.0775362
0.0774817
0.0774282
0.0773759
0.0773246
0.0772744
0.0772252
0.0771769
0.0771297
0.0770834
0.077038
0.0769936
0.07695
0.0769073
0.0768655
0.0768246
0.0767844
0.0767451
0.0767066
0.0766688
0.0766318
0.0765956
0.0765601
0.0765252
0.0764911
0.0764577
0.076425
0.0763929
0.0763615
0.0763307
0.0763005
0.0762709
0.0762419
0.0762135
0.0761857
0.0761585
0.0761318
0.0761056
0.0760799
0.0760548
0.0760302
0.0760061
0.0759824
0.0759593
0.0759366
0.0759143
0.0758925
0.0758712
0.0758502
0.0758297
0.0758097
0.07579
0.0757707
0.0757518
0.0757333
0.0757151
0.0756973
0.0756799
0.0756628
0.0756461
0.0756297
0.0756137
0.0755979
0.0755825
0.0755674
0.0755526
0.0755381
0.0755239
0.07551
0.0754963
0.075483
0.0754699
0.0754571
0.0754445
0.0754322
0.0754202
0.0754085
0.0753969
0.0753857
0.0753747
0.0753639
0.0753533
0.075343
0.075333
0.0753231
0.0753135
0.0753042
0.075295
0.0752861
0.0752774
0.0752689
0.0752607
0.0752526
0.0752448
0.0752372
0.0752299
0.0752227
0.0752157
0.075209
0.0752024
0.0751961
0.07519
0.075184
0.0751783
0.0751728
0.0751675
0.0751623
0.0751574
0.0751526
0.075148
0.0751437
0.0751394
0.0751354
0.0751316
0.0751279
0.0751243
0.075121
0.0751178
0.0751147
0.0751118
0.0751091
0.0751065
0.075104
0.0751017
0.0750995
0.0750974
0.0750955
0.0750937
0.0750919
0.0750903
0.0750888
0.0750874
0.0750861
0.0750849
0.0750838
0.0750828
0.0750818
0.0750809
0.0750801
0.0750794
0.0750787
0.0750781
0.0750776
0.075077
0.0750766
0.0750762
0.0750758
0.0750755
0.0750752
0.075075
0.0750748
0.0750746
0.0750744
0.0750743
0.0750742
0.0750741
0.075074
0.0750739
0.0750739
0.0750739
0.0750738
0.0750738
0.0750738
0.0750738
0.0750739
0.0750739
0.0750739
0.075074
0.075074
0.075074
0.0750741
0.0750741
0.0750742
0.0750743
0.0750743
0.0750744
0.0750744
0.0750745
0.0750745
0.0750746
0.0750747
0.0750747
0.0750748
0.0750748
0.0750749
0.075075
0.075075
0.0750751
0.0750752
0.0750752
0.0750753
0.0750753
0.0750754
0.0750755
0.0750755
0.0750756
0.0750757
0.0750757
0.0750758
0.0750759
0.0750759
0.075076
0.075076
0.0750761
0.0750762
0.0750762
0.0750763
0.0750764
0.0750764
0.0750765
0.0750765
0.0750766
0.0750767
0.0750767
0.0750768
0.0750769
0.0750769
0.075077
0.0750771
0.0750771
0.0750772
0.0750772
0.0750773
0.0750774
0.0750774
0.0750775
0.0750776
0.0750776
0.0750777
0.0750778
0.0750778
0.0750779
0.075078
0.075078
0.0750781
0.0750781
0.0750782
0.0750783
0.0750783
0.0750784
0.0750785
0.0750785
0.0750786
0.0750787
0.0750787
0.0750788
0.0750789
0.0750789
0.075079
0.0750791
0.0750791
0.0750792
0.0750792
0.0750793
0.0750794
0.0750794
0.0750795
0.0750796
0.0750796
0.0750797
0.0750798
0.0750798
0.0750799
0.07508
0.0750801
0.07508
0.07508
0.07508
1
0.660887
0.446893
0.352877
0.302028
0.269849
0.2475
0.231017
0.218326
0.208224
0.199964
0.193058
0.187175
0.182082
0.177615
0.173653
0.170103
0.166899
0.163985
0.16132
0.15887
0.156607
0.15451
0.152559
0.150738
0.149033
0.147434
0.14593
0.144512
0.143173
0.141906
0.140705
0.139565
0.138481
0.137449
0.136465
0.135525
0.134628
0.133768
0.132945
0.132156
0.131399
0.130672
0.129972
0.129299
0.128651
0.128026
0.127424
0.126843
0.126281
0.125739
0.125214
0.124707
0.124216
0.12374
0.123279
0.122832
0.122399
0.121978
0.12157
0.121173
0.120788
0.120414
0.12005
0.119696
0.119352
0.119017
0.11869
0.118373
0.118063
0.117762
0.117468
0.117182
0.116903
0.11663
0.116365
0.116106
0.115853
0.115606
0.115365
0.11513
0.1149
0.114675
0.114456
0.114242
0.114033
0.113828
0.113628
0.113433
0.113242
0.113055
0.112872
0.112694
0.112519
0.112348
0.112181
0.112017
0.111857
0.111701
0.111548
0.111398
0.111251
0.111107
0.110967
0.110829
0.110694
0.110563
0.110433
0.110307
0.110183
0.110062
0.109943
0.109827
0.109713
0.109602
0.109493
0.109386
0.109281
0.109179
0.109078
0.10898
0.108884
0.108789
0.108697
0.108606
0.108517
0.108431
0.108345
0.108262
0.10818
0.1081
0.108022
0.107945
0.10787
0.107796
0.107724
0.107653
0.107584
0.107516
0.107449
0.107384
0.10732
0.107258
0.107196
0.107136
0.107077
0.10702
0.106963
0.106908
0.106853
0.1068
0.106748
0.106697
0.106647
0.106598
0.10655
0.106503
0.106457
0.106412
0.106367
0.106324
0.106281
0.10624
0.106199
0.106159
0.10612
0.106081
0.106044
0.106007
0.105971
0.105935
0.105901
0.105867
0.105834
0.105801
0.105769
0.105738
0.105707
0.105677
0.105647
0.105619
0.10559
0.105563
0.105535
0.105509
0.105483
0.105457
0.105432
0.105408
0.105384
0.10536
0.105337
0.105314
0.105292
0.10527
0.105249
0.105228
0.105208
0.105188
0.105168
0.105149
0.10513
0.105112
0.105094
0.105076
0.105059
0.105042
0.105025
0.105009
0.104993
0.104978
0.104963
0.104948
0.104933
0.104919
0.104905
0.104892
0.104878
0.104865
0.104853
0.104841
0.104829
0.104817
0.104806
0.104795
0.104784
0.104773
0.104763
0.104753
0.104744
0.104735
0.104726
0.104717
0.104708
0.1047
0.104692
0.104685
0.104678
0.104671
0.104664
0.104657
0.104651
0.104645
0.104639
0.104634
0.104628
0.104623
0.104619
0.104614
0.10461
0.104605
0.104601
0.104598
0.104594
0.104591
0.104588
0.104585
0.104582
0.104579
0.104577
0.104574
0.104572
0.10457
0.104568
0.104567
0.104565
0.104563
0.104562
0.104561
0.10456
0.104558
0.104557
0.104557
0.104556
0.104555
0.104554
0.104554
0.104553
0.104553
0.104552
0.104552
0.104551
0.104551
0.104551
0.104551
0.104551
0.10455
0.10455
0.10455
0.10455
0.10455
0.10455
0.10455
0.10455
0.10455
0.10455
0.10455
0.10455
0.10455
0.10455
0.10455
0.10455
0.10455
0.10455
0.104551
0.104551
0.104551
0.104551
0.104551
0.104551
0.104551
0.104551
0.104551
0.104551
0.104551
0.104551
0.104552
0.104552
0.104552
0.104552
0.104552
0.104552
0.104552
0.104552
0.104552
0.104552
0.104552
0.104552
0.104553
0.104553
0.104553
0.104553
0.104553
0.104553
0.104553
0.104553
0.104553
0.104553
0.104553
0.104554
0.104554
0.104554
0.104554
0.104554
0.104554
0.104554
0.104554
0.104554
0.104554
0.104554
0.104555
0.104555
0.104555
0.104555
0.104555
0.104555
0.104555
0.104555
0.104555
0.104555
0.104555
0.104555
0.104556
0.104556
0.104556
0.104556
0.104556
0.104556
0.104556
0.104556
0.104556
0.104556
0.104556
0.104557
0.104557
0.104557
0.104557
0.104557
0.104557
0.104557
0.104557
0.104557
0.104557
0.104557
0.104558
0.104558
0.104558
0.104558
0.104558
0.104558
0.104558
0.104558
0.104558
0.104558
0.104558
0.104559
0.104559
0.104559
0.104559
0.104559
1
0.776802
0.557824
0.446877
0.3841
0.343742
0.315509
0.294602
0.278467
0.265605
0.255079
0.246275
0.238774
0.232282
0.226588
0.221538
0.217016
0.212935
0.209225
0.205832
0.202714
0.199835
0.197167
0.194685
0.192368
0.190201
0.188167
0.186255
0.184452
0.18275
0.181139