# vtk DataFile Version 2.0
FlowField
ASCII
DATASET STRUCTURED_GRID
DIMENSIONS 400 1 200
POINTS 80000 float
0 0 0
0.08 0 0
0.16 0 0
0.24 0 0
0.32 0 0
0.4 0 0
0.48 0 0
0.56 0 0
0.64 0 0
0.72 0 0
0.8 0 0
0.88 0 0
0.96 0 0
1.04 0 0
1.12 0 0
1.2 0 0
1.28 0 0
1.36 0 0
1.44 0 0
1.52 0 0
1.6 0 0
1.68 0 0
1.76 0 0
1.84 0 0
1.92 0 0
2 0 0
2.08 0 0
2.16 0 0
2.24 0 0
2.32 0 0
2.4 0 0
2.48 0 0
2.56 0 0
2.64 0 0
2.72 0 0
2.8 0 0
2.88 0 0
2.96 0 0
3.04 0 0
3.12 0 0
3.2 0 0
3.28 0 0
3.36 0 0
3.44 0 0
3.52 0 0
3.6 0 0
3.68 0 0
3.76 0 0
3.84 0 0
3.92 0 0
4 0 0
4.08 0 0
4.16 0 0
4.24 0 0
4.32 0 0
4.4 0 0
4.48 0 0
4.56 0 0
4.64 0 0
4.72 0 0
4.8 0 0
4.88 0 0
4.96 0 0
5.04 0 0
5.12 0 0
5.2 0 0
5.28 0 0
5.36 0 0
5.44 0 0
5.52 0 0
5.6 0 0
5.68 0 0
5.76 0 0
5.84 0 0
5.92 0 0
6 0 0
6.08 0 0
6.16 0 0
6.24 0 0
6.32 0 0
6.4 0 0
6.48 0 0
6.56 0 0
6.64 0 0
6.72 0 0
6.8 0 0
6.88 0 0
6.96 0 0
7.04 0 0
7.12 0 0
7.2 0 0
7.28 0 0
7.36 0 0
7.44 0 0
7.52 0 0
7.6 0 0
7.68 0 0
7.76 0 0
7.84 0 0
7.92 0 0
8 0 0
8.08 0 0
8.16 0 0
8.24 0 0
8.32 0 0
8.4 0 0
8.48 0 0
8.56 0 0
8.64 0 0
8.72 0 0
8.8 0 0
8.88 0 0
8.96 0 0
9.04 0 0
9.12 0 0
9.2 0 0
9.28 0 0
9.36 0 0
9.44 0 0
9.52 0 0
9.6 0 0
9.68 0 0
9.76 0 0
9.84 0 0
9.92 0 0
10 0 0
10.08 0 0
10.16 0 0
10.24 0 0
10.32 0 0
10.4 0 0
10.48 0 0
10.56 0 0
10.64 0 0
10.72 0 0
10.8 0 0
10.88 0 0
10.96 0 0
11.04 0 0
11.12 0 0
11.2 0 0
11.28 0 0
11.36 0 0
11.44 0 0
11.52 0 0
11.6 0 0
11.68 0 0
11.76 0 0
11.84 0 0
11.92 0 0
12 0 0
12.08 0 0
12.16 0 0
12.24 0 0
12.32 0 0
12.4 0 0
12.48 0 0
12.56 0 0
12.64 0 0
12.72 0 0
12.8 0 0
12.88 0 0
12.96 0 0
13.04 0 0
13.12 0 0
13.2 0 0
13.28 0 0
13.36 0 0
13.44 0 0
13.52 0 0
13.6 0 0
13.68 0 0
13.76 0 0
13.84 0 0
13.92 0 0
14 0 0
14.08 0 0
14.16 0 0
14.24 0 0
14.32 0 0
14.4 0 0
14.48 0 0
14.56 0 0
14.64 0 0
14.72 0 0
14.8 0 0
14.88 0 0
14.96 0 0
15.04 0 0
15.12 0 0
15.2 0 0
15.28 0 0
15.36 0 0
15.44 0 0
15.52 0 0
15.6 0 0
15.68 0 0
15.76 0 0
15.84 0 0
15.92 0 0
16 0 0
16.08 0 0
16.16 0 0
16.24 0 0
16.32 0 0
16.4 0 0
16.48 0 0
16.56 0 0
16.64 0 0
16.72 0 0
16.8 0 0
16.88 0 0
16.96 0 0
17.04 0 0
17.12 0 0
17.2 0 0
17.28 0 0
17.36 0 0
17.44 0 0
17.52 0 0
17.6 0 0
17.68 0 0
17.76 0 0
17.84 0 0
17.92 0 0
18 0 0
18.08 0 0
18.16 0 0
18.24 0 0
18.32 0 0
18.4 0 0
18.48 0 0
18.56 0 0
18.64 0 0
18.72 0 0
18.8 0 0
18.88 0 0
18.96 0 0
19.04 0 0
19.12 0 0
19.2 0 0
19.28 0 0
19.36 0 0
19.44 0 0
19.52 0 0
19.6 0 0
19.68 0 0
19.76 0 0
19.84 0 0
19.92 0 0
20 0 0
20.08 0 0
20.16 0 0
20.24 0 0
20.32 0 0
20.4 0 0
20.48 0 0
20.56 0 0
20.64 0 0
20.72 0 0
20.8 0 0
20.88 0 0
20.96 0 0
21.04 0 0
21.12 0 0
21.2 0 0
21.28 0 0
21.36 0 0
21.44 0 0
21.52 0 0
21.6 0 0
21.68 0 0
21.76 0 0
21.84 0 0
21.92 0 0
22 0 0
22.08 0 0
22.16 0 0
22.24 0 0
22.32 0 0
22.4 0 0
22.48 0 0
22.56 0 0
22.64 0 0
22.72 0 0
22.8 0 0
22.88 0 0
22.96 0 0
23.04 0 0
23.12 0 0
23.2 0 0
23.28 0 0
23.36 0 0
23.44 0 0
23.52 0 0
23.6 0 0
23.68 0 0
23.76 0 0
23.84 0 0
23.92 0 0
24 0 0
24.08 0 0
24.16 0 0
24.24 0 0
24.32 0 0
24.4 0 0
24.48 0 0
24.56 0 0
24.64 0 0
24.72 0 0
24.8 0 0
24.88 0 0
24.96 0 0
25.04 0 0
25.12 0 0
25.2 0 0
25.28 0 0
25.36 0 0
25.44 0 0
25.52 0 0
25.6 0 0
25.68 0 0
25.76 0 0
25.84 0 0
25.92 0 0
26 0 0
26.08 0 0
26.16 0 0
26.24 0 0
26.32 0 0
26.4 0 0
26.48 0 0
26.56 0 0
26.64 0 0
26.72 0 0
26.8 0 0
26.88 0 0
26.96 0 0
27.04 0 0
27.12 0 0
27.2 0 0
27.28 0 0
27.36 0 0
27.44 0 0
27.52 0 0
27.6 0 0
27.68 0 0
27.76 0 0
27.84 0 0
27.92 0 0
28 0 0
28.08 0 0
28.16 0 0
28.24 0 0
28.32 0 0
28.4 0 0
28.48 0 0
28.56 0 0
28.64 0 0
28.72 0 0
28.8 0 0
28.88 0 0
28.96 0 0
29.04 0 0
29.12 0 0
29.2 0 0
29.28 0 0
29.36 0 0
29.44 0 0
29.52 0 0
29.6 0 0
29.68 0 0
29.76 0 0
29.84 0 0
29.92 0 0
30 0 0
30.08 0 0
30.16 0 0
30.24 0 0
30.32 0 0
30.4 0 0
30.48 0 0
30.56 0 0
30.64 0 0
30.72 0 0
30.8 0 0
30.88 0 0
30.96 0 0
31.04 0 0
31.12 0 0
31.2 0 0
31.28 0 0
31.36 0 0
31.44 0 0
31.52 0 0
31.6 0 0
31.68 0 0
31.76 0 0
31.84 0 0
31.92 0 0
0 0.005 0
0.08 0.005 0
0.16 0.005 0
0.24 0.005 0
0.32 0.005 0
0.4 0.005 0
0.48 0.005 0
0.56 0.005 0
0.64 0.005 0
0.72 0.005 0
0.8 0.005 0
0.88 0.005 0
0.96 0.005 0
1.04 0.005 0
1.12 0.005 0
1.2 0.005 0
1.28 0.005 0
1.36 0.005 0
1.44 0.005 0
1.52 0.005 0
1.6 0.005 0
1.68 0.005 0
1.76 0.005 0
1.84 0.005 0
1.92 0.005 0
2 0.005 0
2.08 0.005 0
2.16 0.005 0
2.24 0.005 0
2.32 0.005 0
2.4 0.005 0
2.48 0.005 0
2.56 0.005 0
2.64 0.005 0
2.72 0.005 0
2.8 0.005 0
2.88 0.005 0
2.96 0.005 0
3.04 0.005 0
3.12 0.005 0
3.2 0.005 0
3.28 0.005 0
3.36 0.005 0
3.44 0.005 0
3.52 0.005 0
3.6 0.005 0
3.68 0.005 0
3.76 0.005 0
3.84 0.005 0
3.92 0.005 0
4 0.005 0
4.08 0.005 0
4.16 0.005 0
4.24 0.005 0
4.32 0.005 0
4.4 0.005 0
4.48 0.005 0
4.56 0.005 0
4.64 0.005 0
4.72 0.005 0
4.8 0.005 0
4.88 0.005 0
4.96 0.005 0
5.04 0.005 0
5.12 0.005 0
5.2 0.005 0
5.28 0.005 0
5.36 0.005 0
5.44 0.005 0
5.52 0.005 0
5.6 0.005 0
5.68 0.005 0
5.76 0.005 0
5.84 0.005 0
5.92 0.005 0
6 0.005 0
6.08 0.005 0
6.16 0.005 0
6.24 0.005 0
6.32 0.005 0
6.4 0.005 0
6.48 0.005 0
6.56 0.005 0
6.64 0.005 0
6.72 0.005 0
6.8 0.005 0
6.88 0.005 0
6.96 0.005 0
7.04 0.005 0
7.12 0.005 0
7.2 0.005 0
7.28 0.005 0
7.36 0.005 0
7.44 0.005 0
7.52 0.005 0
7.6 0.005 0
7.68 0.005 0
7.76 0.005 0
7.84 0.005 0
7.92 0.005 0
8 0.005 0
8.08 0.005 0
8.16 0.005 0
8.24 0.005 0
8.32 0.005 0
8.4 0.005 0
8.48 0.005 0
8.56 0.005 0
8.64 0.005 0
8.72 0.005 0
8.8 0.005 0
8.88 0.005 0
8.96 0.005 0
9.04 0.005 0
9.12 0.005 0
9.2 0.005 0
9.28 0.005 0
9.36 0.005 0
9.44 0.005 0
9.52 0.005 0
9.6 0.005 0
9.68 0.005 0
9.76 0.005 0
9.84 0.005 0
9.92 0.005 0
10 0.005 0
10.08 0.005 0
10.16 0.005 0
10.24 0.005 0
10.32 0.005 0
10.4 0.005 0
10.48 0.005 0
10.56 0.005 0
10.64 0.005 0
10.72 0.005 0
10.8 0.005 0
10.88 0.005 0
10.96 0.005 0
11.04 0.005 0
11.12 0.005 0
11.2 0.005 0
11.28 0.005 0
11.36 0.005 0
11.44 0.005 0
11.52 0.005 0
11.6 0.005 0
11.68 0.005 0
11.76 0.005 0
11.84 0.005 0
11.92 0.005 0
12 0.005 0
12.08 0.005 0
12.16 0.005 0
12.24 0.005 0
12.32 0.005 0
12.4 0.005 0
12.48 0.005 0
12.56 0.005 0
12.64 0.005 0
12.72 0.005 0
12.8 0.005 0
12.88 0.005 0
12.96 0.005 0
13.04 0.005 0
13.12 0.005 0
13.2 0.005 0
13.28 0.005 0
13.36 0.005 0
13.44 0.005 0
13.52 0.005 0
13.6 0.005 0
13.68 0.005 0
13.76 0.005 0
13.84 0.005 0
13.92 0.005 0
14 0.005 0
14.08 0.005 0
14.16 0.005 0
14.24 0.005 0
14.32 0.005 0
14.4 0.005 0
14.48 0.005 0
14.56 0.005 0
14.64 0.005 0
14.72 0.005 0
14.8 0.005 0
14.88 0.005 0
14.96 0.005 0
15.04 0.005 0
15.12 0.005 0
15.2 0.005 0
15.28 0.005 0
15.36 0.005 0
15.44 0.005 0
15.52 0.005 0
15.6 0.005 0
15.68 0.005 0
15.76 0.005 0
15.84 0.005 0
15.92 0.005 0
16 0.005 0
16.08 0.005 0
16.16 0.005 0
16.24 0.005 0
16.32 0.005 0
16.4 0.005 0
16.48 0.005 0
16.56 0.005 0
16.64 0.005 0
16.72 0.005 0
16.8 0.005 0
16.88 0.005 0
16.96 0.005 0
17.04 0.005 0
17.12 0.005 0
17.2 0.005 0
17.28 0.005 0
17.36 0.005 0
17.44 0.005 0
17.52 0.005 0
17.6 0.005 0
17.68 0.005 0
17.76 0.005 0
17.84 0.005 0
17.92 0.005 0
18 0.005 0
18.08 0.005 0
18.16 0.005 0
18.24 0.005 0
18.32 0.005 0
18.4 0.005 0
18.48 0.005 0
18.56 0.005 0
18.64 0.005 0
18.72 0.005 0
18.8 0.005 0
18.88 0.005 0
18.96 0.005 0
19.04 0.005 0
19.12 0.005 0
19.2 0.005 0
19.28 0.005 0
19.36 0.005 0
19.44 0.005 0
19.52 0.005 0
19.6 0.005 0
19.68 0.005 0
19.76 0.005 0
19.84 0.005 0
19.92 0.005 0
20 0.005 0
20.08 0.005 0
20.16 0.005 0
20.24 0.005 0
20.32 0.005 0
20.4 0.005 0
20.48 0.005 0
20.56 0.005 0
20.64 0.005 0
20.72 0.005 0
20.8 0.005 0
20.88 0.005 0
20.96 0.005 0
21.04 0.005 0
21.12 0.005 0
21.2 0.005 0
21.28 0.005 0
21.36 0.005 0
21.44 0.005 0
21.52 0.005 0
21.6 0.005 0
21.68 0.005 0
21.76 0.005 0
21.84 0.005 0
21.92 0.005 0
22 0.005 0
22.08 0.005 0
22.16 0.005 0
22.24 0.005 0
22.32 0.005 0
22.4 0.005 0
22.48 0.005 0
22.56 0.005 0
22.64 0.005 0
22.72 0.005 0
22.8 0.005 0
22.88 0.005 0
22.96 0.005 0
23.04 0.005 0
23.12 0.005 0
23.2 0.005 0
23.28 0.005 0
23.36 0.005 0
23.44 0.005 0
23.52 0.005 0
23.6 0.005 0
23.68 0.005 0
23.76 0.005 0
23.84 0.005 0
23.92 0.005 0
24 0.005 0
24.08 0.005 0
24.16 0.005 0
24.24 0.005 0
24.32 0.005 0
24.4 0.005 0
24.48 0.005 0
24.56 0.005 0
24.64 0.005 0
24.72 0.005 0
24.8 0.005 0
24.88 0.005 0
24.96 0.005 0
25.04 0.005 0
25.12 0.005 0
25.2 0.005 0
25.28 0.005 0
25.36 0.005 0
25.44 0.005 0
25.52 0.005 0
25.6 0.005 0
25.68 0.005 0
25.76 0.005 0
25.84 0.005 0
25.92 0.005 0
26 0.005 0
26.08 0.005 0
26.16 0.005 0
26.24 0.005 0
26.32 0.005 0
26.4 0.005 0
26.48 0.005 0
26.56 0.005 0
26.64 0.005 0
26.72 0.005 0
26.8 0.005 0
26.88 0.005 0
26.96 0.005 0
27.04 0.005 0
27.12 0.005 0
27.2 0.005 0
27.28 0.005 0
27.36 0.005 0
27.44 0.005 0
27.52 0.005 0
27.6 0.005 0
27.68 0.005 0
27.76 0.005 0
27.84 0.005 0
27.92 0.005 0
28 0.005 0
28.08 0.005 0
28.16 0.005 0
28.24 0.005 0
28.32 0.005 0
28.4 0.005 0
28.48 0.005 0
28.56 0.005 0
28.64 0.005 0
28.72 0.005 0
28.8 0.005 0
28.88 0.005 0
28.96 0.005 0
29.04 0.005 0
29.12 0.005 0
29.2 0.005 0
29.28 0.005 0
29.36 0.005 0
29.44 0.005 0
29.52 0.005 0
29.6 0.005 0
29.68 0.005 0
29.76 0.005 0
29.84 0.005 0
29.92 0.005 0
30 0.005 0
30.08 0.005 0
30.16 0.005 0
30.24 0.005 0
30.32 0.005 0
30.4 0.005 0
30.48 0.005 0
30.56 0.005 0
30.64 0.005 0
30.72 0.005 0
30.8 0.005 0
30.88 0.005 0
30.96 0.005 0
31.04 0.005 0
31.12 0.005 0
31.2 0.005 0
31.28 0.005 0
31.36 0.005 0
31.44 0.005 0
31.52 0.005 0
31.6 0.005 0
31.68 0.005 0
31.76 0.005 0
31.84 0.005 0
31.92 0.005 0
0 0.01 0
0.08 0.01 0
0.16 0.01 0
0.24 0.01 0
0.32 0.01 0
0.4 0.01 0
0.48 0.01 0
0.56 0.01 0
0.64 0.01 0
0.72 0.01 0
0.8 0.01 0
0.88 0.01 0
0.96 0.01 0
1.04 0.01 0
1.12 0.01 0
1.2 0.01 0
1.28 0.01 0
1.36 0.01 0
1.44 0.01 0
1.52 0.01 0
1.6 0.01 0
1.68 0.01 0
1.76 0.01 0
1.84 0.01 0
1.92 0.01 0
2 0.01 0
2.08 0.01 0
2.16 0.01 0
2.24 0.01 0
2.32 0.01 0
2.4 0.01 0
2.48 0.01 0
2.56 0.01 0
2.64 0.01 0
2.72 0.01 0
2.8 0.01 0
2.88 0.01 0
2.96 0.01 0
3.04 0.01 0
3.12 0.01 0
3.2 0.01 0
3.28 0.01 0
3.36 0.01 0
3.44 0.01 0
3.52 0.01 0
3.6 0.01 0
3.68 0.01 0
3.76 0.01 0
3.84 0.01 0
3.92 0.01 0
4 0.01 0
4.08 0.01 0
4.16 0.01 0
4.24 0.01 0
4.32 0.01 0
4.4 0.01 0
4.48 0.01 0
4.56 0.01 0
4.64 0.01 0
4.72 0.01 0
4.8 0.01 0
4.88 0.01 0
4.96 0.01 0
5.04 0.01 0
5.12 0.01 0
[...]
POINT_DATA 80000

SCALARS p float 1
LOOKUP_TABLE default
1
56.6692
56.3674
56.3263
56.3062
56.2918
56.2798
56.269
56.259
56.2495
56.2404
56.2315
56.2229
56.2145
56.2063
56.1983
56.1904
56.1827
56.1752
56.1679
56.1606
56.1535
56.1466
56.1397
56.133
56.1264
56.1199
56.1134
56.1071
56.1009
56.0948
56.0887
56.0827
56.0768
56.071
56.0652
56.0595
56.0539
56.0483
56.0428
56.0373
56.0319
56.0266
56.0213
56.0161
56.0109
56.0058
56.0007
55.9957
55.9908
55.9859
55.9811
55.9763
55.9716
55.9669
55.9623
55.9578
55.9533
55.9488
55.9444
55.9401
55.9358
55.9315
55.9273
55.923
55.9189
55.9147
55.9106
55.9065
55.9024
55.8984
55.8944
55.8904
55.8864
55.8824
55.8785
55.8745
55.8706
55.8667
55.8628
55.859
55.8551
55.8513
55.8475
55.8437
55.8399
55.8361
55.8324
55.8286
55.8248
55.821
55.8173
55.8135
55.8097
55.806
55.8022
55.7984
55.7947
55.7909
55.7871
55.7834
55.7796
55.7758
55.7721
55.7683
55.7645
55.7608
55.757
55.7532
55.7495
55.7457
55.7419
55.7382
55.7344
55.7306
55.7269
55.7231
55.7193
55.7155
55.7118
55.708
55.7042
55.7005
55.6967
55.6929
55.6892
55.6854
55.6816
55.6779
55.6741
55.6703
55.6665
55.6628
55.659
55.6552
55.6515
55.6477
55.6439
55.6401
55.6364
55.6326
55.6288
55.6251
55.6213
55.6175
55.6137
55.61
55.6062
55.6024
55.5987
55.5949
55.5911
55.5873
55.5836
55.5798
55.576
55.5722
55.5685
55.5647
55.5609
55.5572
55.5534
55.5496
55.5458
55.5421
55.5383
55.5345
55.5307
55.527
55.5232
55.5194
55.5156
55.5119
55.5081
55.5043
55.5005
55.4968
55.493
55.4892
55.4854
55.4817
55.4779
55.4741
55.4703
55.4665
55.4628
55.459
55.4552
55.4514
55.4477
55.4439
55.4401
55.4363
55.4326
55.4288
55.425
55.4212
55.4174
55.4137
55.4099
55.4061
55.4023
55.3985
55.3948
55.391
55.3872
55.3834
55.3797
55.3759
55.3721
55.3683
55.3645
55.3608
55.357
55.3532
55.3494
55.3456
55.3419
55.3381
55.3343
55.3305
55.3267
55.3229
55.3192
55.3154
55.3116
55.3078
55.304
55.3003
55.2965
55.2927
55.2889
55.2851
55.2813
55.2776
55.2738
55.27
55.2662
55.2624
55.2586
55.2549
55.2511
55.2473
55.2435
55.2397
55.2359
55.2322
55.2284
55.2246
55.2208
55.217
55.2132
55.2095
55.2057
55.2019
55.1981
55.1943
55.1905
55.1867
55.183
55.1792
55.1754
55.1716
55.1678
55.164
55.1602
55.1564
55.1527
55.1489
55.1451
55.1413
55.1375
55.1337
55.1299
55.1261
55.1224
55.1186
55.1148
55.111
55.1072
55.1034
55.0996
55.0958
55.0921
55.0883
55.0845
55.0807
55.0769
55.0731
55.0693
55.0655
55.0617
55.0579
55.0542
55.0504
55.0466
55.0428
55.039
55.0352
55.0314
55.0276
55.0238
55.02
55.0162
55.0124
55.0087
55.0049
55.0011
54.9973
54.9935
54.9897
54.9859
54.9821
54.9783
54.9745
54.9707
54.9669
54.9631
54.9593
54.9556
54.9518
54.948
54.9442
54.9404
54.9366
54.9328
54.929
54.9252
54.9214
54.9176
54.9138
54.91
54.9062
54.9024
54.8986
54.8948
54.891
54.8872
54.8834
54.8796
54.8758
54.872
54.8683
54.8645
54.8607
54.8569
54.8531
54.8493
54.8455
54.8417
54.8379
54.8341
54.8303
54.8265
54.8227
54.8189
54.8151
54.8113
54.8075
54.8037
54.7999
54.7961
54.7923
54.7885
54.7847
54.7809
54.7771
54.7733
54.7695
54.7657
54.7619
54.7581
54.7543
54.7505
54.7467
54.7429
54.7391
54.7353
54.7315
54.7277
54.7238
54.72
54.7162
54.7124
54.7086
54.7048
54.701
54.6972
54.6934
54.6896
54.6858
54.682
54.6782
54.6744
54.6706
54.6668
54.663
54.6592
54.6554
0.5
56.6692
56.6692
56.3674
56.3263
56.3062
56.2918
56.2798
56.269
56.259
56.2495
56.2404
56.2315
56.2229
56.2145
56.2063
56.1983
56.1904
56.1827
56.1752
56.1679
56.1606
56.1535
56.1466
56.1397
56.133
56.1264
56.1199
56.1134
56.1071
56.1009
56.0948
56.0887
56.0827
56.0768
56.071
56.0652
56.0595
56.0539
56.0483
56.0428
56.0373
56.0319
56.0266
56.0213
56.0161
56.0109
56.0058
56.0007
55.9957
55.9908
55.9859
55.9811
55.9763
55.9716
55.9669
55.9623
55.9578
55.9533
55.9488
55.9444
55.9401
55.9358
55.9315
55.9273
55.923
55.9189
55.9147
55.9106
55.9065
55.9024
55.8984
55.8944
55.8904
55.8864
55.8824
55.8785
55.8745
55.8706
55.8667
55.8628
55.859
55.8551
55.8513
55.8475
55.8437
55.8399
55.8361
55.8324
55.8286
55.8248
55.821
55.8173
55.8135
55.8097
55.806
55.8022
55.7984
55.7947
55.7909
55.7871
55.7834
55.7796
55.7758
55.7721
55.7683
55.7645
55.7608
55.757
55.7532
55.7495
55.7457
55.7419
55.7382
55.7344
55.7306
55.7269
55.7231
55.7193
55.7155
55.7118
55.708
55.7042
55.7005
55.6967
55.6929
55.6892
55.6854
55.6816
55.6779
55.6741
55.6703
55.6665
55.6628
55.659
55.6552
55.6515
55.6477
55.6439
55.6401
55.6364
55.6326
55.6288
55.6251
55.6213
55.6175
55.6137
55.61
55.6062
55.6024
55.5987
55.5949
55.5911
55.5873
55.5836
55.5798
55.576
55.5722
55.5685
55.5647
55.5609
55.5572
55.5534
55.5496
55.5458
55.5421
55.5383
55.5345
55.5307
55.527
55.5232
55.5194
55.5156
55.5119
55.5081
55.5043
55.5005
55.4968
55.493
55.4892
55.4854
55.4817
55.4779
55.4741
55.4703
55.4665
55.4628
55.459
55.4552
55.4514
55.4477
55.4439
55.4401
55.4363
55.4326
55.4288
55.425
55.4212
55.4174
55.4137
55.4099
55.4061
55.4023
55.3985
55.3948
55.391
55.3872
55.3834
55.3797
55.3759
55.3721
55.3683
55.3645
55.3608
55.357
55.3532
55.3494
55.3456
55.3419
55.3381
55.3343
55.3305
55.3267
55.3229
55.3192
55.3154
55.3116
55.3078
55.304
55.3003
55.2965
55.2927
55.2889
55.2851
55.2813
55.2776
55.2738
55.27
55.2662
55.2624
55.2586
55.2549
55.2511
55.2473
55.2435
55.2397
55.2359
55.2322
55.2284
55.2246
55.2208
55.217
55.2132
55.2095
55.2057
55.2019
55.1981
55.1943
55.1905
55.1867
55.183
55.1792
55.1754
55.1716
55.1678
55.164
55.1602
55.1564
55.1527
55.1489
55.1451
55.1413
55.1375
55.1337
55.1299
55.1261
55.1224
55.1186
55.1148
55.111
55.1072
55.1034
55.0996
55.0958
55.0921
55.0883
55.0845
55.0807
55.0769
55.0731
55.0693
55.0655
55.0617
55.0579
55.0542
55.0504
55.0466
55.0428
55.039
55.0352
55.0314
55.0276
55.0238
55.02
55.0162
55.0124
55.0087
55.0049
55.0011
54.9973
54.9935
54.9897
54.9859
54.9821
54.9783
54.9745
54.9707
54.9669
54.9631
54.9593
54.9556
54.9518
54.948
54.9442
54.9404
54.9366
54.9328
54.929
54.9252
54.9214
54.9176
54.9138
54.91
54.9062
54.9024
54.8986
54.8948
54.891
54.8872
54.8834
54.8796
54.8758
54.872
54.8683
54.8645
54.8607
54.8569
54.8531
54.8493
54.8455
54.8417
54.8379
54.8341
54.8303
54.8265
54.8227
54.8189
54.8151
54.8113
54.8075
54.8037
54.7999
54.7961
54.7923
54.7885
54.7847
54.7809
54.7771
54.7733
54.7695
54.7657
54.7619
54.7581
54.7543
54.7505
54.7467
54.7429
54.7391
54.7353
54.7315
54.7277
54.7238
54.72
54.7162
54.7124
54.7086
54.7048
54.701
54.6972
54.6934
54.6896
54.6858
54.682
54.6782
54.6744
54.6706
54.6668
54.663
54.6592
54.6554
54.6554
56.6546
56.6546
56.3713
56.3275
56.3068
56.2922
56.28
56.2692
56.2592
56.2496
56.2405
56.2316
56.223
56.2145
56.2063
56.1983
56.1905
56.1828
56.1753
56.1679
56.1607
56.1536
56.1466
56.1397
56.133
56.1264
56.1199
56.1135
56.1071
56.1009
56.0948
56.0887
56.0827
56.0768
56.071
56.0652
56.0595
56.0539
56.0483
56.0428
56.0373
56.0319
56.0266
56.0213
56.0161
56.0109
56.0058
56.0007
55.9957
55.9908
55.9859
55.9811
55.9763
55.9716
55.9669
55.9623
55.9578
55.9533
55.9488
55.9444
55.9401
55.9358
55.9315
55.9273
55.923
55.9189
55.9147
55.9106
55.9065
55.9024
55.8984
55.8944
55.8904
55.8864
55.8824
55.8785
55.8745
55.8706
55.8667
55.8628
55.859
55.8551
55.8513
55.8475
55.8437
55.8399
55.8361
55.8324
55.8286
55.8248
55.821
55.8173
55.8135
55.8097
55.806
55.8022
55.7984
55.7947
55.7909
55.7871
55.7834
55.7796
55.7758
55.7721
55.7683
55.7645
55.7608
55.757
55.7532
55.7495
55.7457
55.7419
55.7382
55.7344
55.7306
55.7269
55.7231
55.7193
55.7155
55.7118
55.708
55.7042
55.7005
55.6967
55.6929
55.6892
55.6854
55.6816
55.6779
55.6741
55.6703
55.6665
55.6628
55.659
55.6552
55.6515
55.6477
55.6439
55.6401
55.6364
55.6326
55.6288
55.6251
55.6213
55.6175
55.6137
55.61
55.6062
55.6024
55.5987
55.5949
55.5911
55.5873
55.5836
55.5798
55.576
55.5722
55.5685
55.5647
55.5609
55.5572
55.5534
55.5496
55.5458
55.5421
55.5383
55.5345
55.5307
55.527
55.5232
55.5194
55.5156
55.5119
55.5081
55.5043
55.5005
55.4968
55.493
55.4892
55.4854
55.4817
55.4779
55.4741
55.4703
55.4665
55.4628
55.459
55.4552
55.4514
55.4477
55.4439
55.4401
55.4363
55.4326
55.4288
55.425
55.4212
55.4174
55.4137
55.4099
55.4061
55.4023
55.3985
55.3948
55.391
55.3872
55.3834
55.3797
55.3759
55.3721
55.3683
55.3645
55.3608
55.357
55.3532
55.3494
55.3456
55.3419
55.3381
55.3343
55.3305
55.3267
55.3229
55.3192
55.3154
55.3116
55.3078
55.304
55.3003
55.2965
55.2927
55.2889
55.2851
55.2813
55.2776
55.2738
55.27
55.2662
55.2624
55.2586
55.2549
55.2511
55.2473
55.2435
55.2397
55.2359
55.2322
55.2284
55.2246
55.2208
55.217
55.2132
55.2095
55.2057
55.2019
55.1981
55.1943
55.1905
55.1867
55.183
55.1792
55.1754
55.1716
55.1678
55.164
55.1602
55.1564
55.1527
55.1489
55.1451
55.1413
55.1375
55.1337
55.1299
55.1261
55.1224
55.1186
55.1148
55.111
55.1072
55.1034
55.0996
55.0958
55.0921
55.0883
55.0845
55.0807
55.0769
55.0731
55.0693
55.0655
55.0617
55.0579
55.0542
55.0504
55.0466
55.0428
55.039
55.0352
55.0314
55.0276
55.0238
55.02
55.0162
55.0124
55.0087
55.0049
55.0011
54.9973
54.9935
54.9897
54.9859
54.9821
54.9783
54.9745
54.9707
54.9669
54.9631
54.9593
54.9556
54.9518
54.948
54.9442
54.9404
54.9366
54.9328
54.929
54.9252
54.9214
54.9176
54.9138
54.91
54.9062
54.9024
54.8986
54.8948
54.891
54.8872
54.8834
54.8796
54.8758
54.872
54.8683
54.8645
54.8607
54.8569
54.8531
54.8493
54.8455
54.8417
54.8379
54.8341
54.8303
54.8265
54.8227
54.8189
54.8151
54.8113
54.8075
54.8037
54.7999
54.7961
54.7923
54.7885
54.7847
54.7809
54.7771
54.7733
54.7695
54.7657
54.7619
54.7581
54.7543
54.7505
54.7467
54.7429
54.7391
54.7353
54.7315
54.7277
54.7238
54.72
54.7162
54.7124
54.7086
54.7048
54.701
54.6972
54.6934
54.6896
54.6858
54.682
54.6782
54.6744
54.6706
54.6668
54.663
54.6592
54.6554
54.6554
56.6386
56.6386
56.3745
56.3287
56.3074
56.2926
56.2803
56.2694
56.2593
56.2498
56.2406
56.2317
56.223
56.2146
56.2064
56.1984
56.1905
56.1828
56.1753
56.1679
56.1607
56.1536
56.1466
56.1398
56.133
56.1264
56.1199
56.1135
56.1072
56.1009
56.0948
56.0887
56.0827
56.0768
56.071
56.0652
56.0595
56.0539
56.0483
56.0428
56.0374
56.032
56.0266
56.0213
56.0161
56.0109
56.0058
56.0008
55.9957
55.9908
55.9859
55.9811
55.9763
55.9716
55.9669
55.9623
55.9578
55.9533
55.9488
55.9444
55.9401
55.9358
55.9315
55.9273
55.9231
55.9189
55.9147
55.9106
55.9065
55.9024
55.8984
55.8944
55.8904
55.8864
55.8824
55.8785
55.8745
55.8706
55.8667
55.8628
55.859
55.8551
55.8513
55.8475
55.8437
55.8399
55.8361
55.8324
55.8286
55.8248
55.821
55.8173
55.8135
55.8097
55.806
55.8022
55.7984
55.7947
55.7909
55.7871
55.7834
55.7796
55.7758
55.7721
55.7683
55.7645
55.7608
55.757
55.7532
55.7495
55.7457
55.7419
55.7382
55.7344
55.7306
55.7269
55.7231
55.7193
55.7155
55.7118
55.708
55.7042
55.7005
55.6967
55.6929
55.6892
55.6854
55.6816
55.6779
55.6741
55.6703
55.6665
55.6628
55.659
55.6552
55.6515
55.6477
55.6439
55.6401
55.6364
55.6326
55.6288
55.6251
55.6213
55.6175
55.6137
55.61
55.6062
55.6024
55.5987
55.5949
55.5911
55.5873
55.5836
55.5798
55.576
55.5722
55.5685
55.5647
55.5609
55.5572
55.5534
55.5496
55.5458
55.5421
55.5383
55.5345
55.5307
55.527
55.5232
55.5194
55.5156
55.5119
55.5081
55.5043
55.5005
55.4968
55.493
55.4892
55.4854
55.4817
55.4779
55.4741
55.4703
55.4665
55.4628
55.459
55.4552
55.4514
55.4477
55.4439
55.4401
55.4363
55.4326
55.4288
55.425
55.4212
55.4174
55.4137
55.4099
55.4061
55.4023
55.3985
55.3948
55.391
55.3872
55.3834
55.3797
55.3759
55.3721
55.3683
55.3645
55.3608
55.357
55.3532
55.3494
55.3456
55.3419
55.3381
55.3343
55.3305
55.3267
55.3229
55.3192
55.3154
55.3116
55.3078
55.304
55.3003
55.2965
55.2927
55.2889
55.2851
55.2813
55.2776
55.2738
55.27
55.2662
55.2624
55.2586
55.2549
55.2511
55.2473
55.2435
55.2397
55.2359
55.2322
55.2284
55.2246
55.2208
55.217
55.2132
55.2095
55.2057
55.2019
55.1981
55.1943
55.1905
55.1867
55.183
55.1792
55.1754
55.1716
55.1678
55.164
55.1602
55.1564
55.1527
55.1489
55.1451
55.1413
55.1375
55.1337
55.1299
55.1261
55.1224
55.1186
55.1148
55.111
55.1072
55.1034
55.0996
55.0958
55.0921
55.0883
55.0845
55.0807
55.0769
55.0731
55.0693
55.0655
55.0617
55.0579
55.0542
55.0504
55.0466
55.0428
55.039
55.0352
55.0314
55.0276
55.0238
55.02
55.0162
55.0124
55.0087
55.0049
55.0011
54.9973
54.9935
54.9897
54.9859
54.9821
54.9783
54.9745
54.9707
54.9669
54.9631
54.9593
54.9556
54.9518
54.948
54.9442
54.9404
54.9366
54.9328
54.929
54.9252
54.9214
54.9176
54.9138
54.91
54.9062
54.9024
54.8986
54.8948
54.891
54.8872
54.8834
54.8796
54.8758
54.872
54.8683
54.8645
54.8607
54.8569
54.8531
54.8493
54.8455
54.8417
54.8379
54.8341
54.8303
54.8265
54.8227
54.8189
54.8151
54.8113
54.8075
54.8037
54.7999
54.7961
54.7923
54.7885
54.7847
54.7809
54.7771
54.7733
54.7695
54.7657
54.7619
54.7581
54.7543
54.7505
54.7467
54.7429
54.7391
54.7353
54.7315
54.7277
54.7238
54.72
54.7162
54.7124
54.7086
54.7048
54.701
54.6972
54.6934
54.6896
54.6858
54.682
54.6782
54.6744
54.6706
54.6668
54.663
54.6592
54.6554
54.6554
56.6227
56.6227
56.3774
56.3299
56.308
56.2929
56.2806
56.2696
56.2595
56.2499
56.2407
56.2318
56.2231
56.2147
56.2064
56.1984
56.1905
56.1829
56.1753
56.1679
56.1607
56.1536
56.1466
56.1398
56.1331
56.1264
56.1199
56.1135
56.1072
56.1009
56.0948
56.0887
56.0827
56.0768
56.071
56.0652
56.0595
56.0539
56.0483
56.0428
56.0374
56.032
56.0266
56.0213
56.0161
56.0109
56.0058
56.0008
55.9958
55.9908
55.9859
55.9811
55.9763
55.9716
55.9669
55.9623
55.9578
55.9533
55.9488
55.9445
55.9401
55.9358
55.9315
55.9273
55.9231
55.9189
55.9147
55.9106
55.9065
55.9024
55.8984
55.8944
55.8904
55.8864
55.8824
55.8785
55.8745
55.8706
55.8667
55.8628
55.859
55.8551
55.8513
55.8475
55.8437
55.8399
55.8361
55.8324
55.8286
55.8248
55.821
55.8173
55.8135
55.8097
55.806
55.8022
55.7984
55.7947
55.7909
55.7871
55.7834
55.7796
55.7758
55.7721
55.7683
55.7645
55.7608
55.757
55.7532
55.7495
55.7457
55.7419
55.7382
55.7344
55.7306
55.7269
55.7231
55.7193
55.7155
55.7118
55.708
55.7042
55.7005
55.6967
55.6929
55.6892
55.6854
55.6816
55.6779
55.6741
55.6703
55.6665
55.6628
55.659
55.6552
55.6515
55.6477
55.6439
55.6401
55.6364
55.6326
55.6288
55.6251
55.6213
55.6175
55.6137
55.61
55.6062
55.6024
55.5987
55.5949
55.5911
55.5873
55.5836
55.5798
55.576
55.5722
55.5685
55.5647
55.5609
55.5572
55.5534
55.5496
55.5458
55.5421
55.5383
55.5345
55.5307
55.527
55.5232
55.5194
55.5156
55.5119
55.5081
55.5043
55.5005
55.4968
55.493
55.4892
55.4854
55.4817
55.4779
55.4741
55.4703
55.4665
55.4628
55.459
55.4552
55.4514
55.4477
55.4439
55.4401
55.4363
55.4326
55.4288
55.425
55.4212
55.4174
55.4137
55.4099
55.4061
55.4023
55.3985
55.3948
55.391
55.3872
55.3834
55.3797
55.3759
55.3721
55.3683
55.3645
55.3608
55.357
55.3532
55.3494
55.3456
55.3419
55.3381
55.3343
55.3305
55.3267
55.3229
55.3192
55.3154
55.3116
55.3078
55.304
55.3003
55.2965
55.2927
55.2889
55.2851
55.2813
55.2776
55.2738
55.27
55.2662
55.2624
55.2586
55.2549
55.2511
55.2473
55.2435
55.2397
55.2359
55.2322
55.2284
55.2246
55.2208
55.217
55.2132
55.2095
55.2057
55.2019
55.1981
55.1943
55.1905
55.1867
55.183
55.1792
55.1754
55.1716
55.1678
55.164
55.1602
55.1564
55.1527
55.1489
55.1451
55.1413
55.1375
55.1337
55.1299
55.1261
55.1224
55.1186
55.1148
55.111
55.1072
55.1034
55.0996
55.0958
55.0921
55.0883
55.0845
55.0807
55.0769
55.0731
55.0693
55.0655
55.0617
55.0579
55.0542
55.0504
55.0466
55.0428
55.039
55.0352
55.0314
55.0276
55.0238
55.02
55.0162
55.0124
55.0087
55.0049
55.0011
54.9973
54.9935
54.9897
54.9859
54.9821
54.9783
54.9745
54.9707
54.9669
54.9631
54.9593
54.9556
54.9518
54.948
54.9442
54.9404
54.9366
54.9328
54.929
54.9252
54.9214
54.9176
54.9138
54.91
54.9062
54.9024
54.8986
54.8948
54.891
54.8872
54.8834
54.8796
54.8758
54.872
54.8683
54.8645
54.8607
54.8569
54.8531
54.8493
54.8455
54.8417
54.8379
54.8341
54.8303
54.8265
54.8227
54.8189
54.8151
54.8113
54.8075
54.8037
54.7999
54.7961
54.7923
54.7885
54.7847
54.7809
54.7771
54.7733
54.7695
54.7657
54.7619
54.7581
54.7543
54.7505
54.7467
54.7429
54.7391
54.7353
54.7315
54.7277
54.7238
54.72
54.7162
54.7124
54.7086
54.7048
54.701
54.6972
54.6934
54.6896
54.6858
54.682
54.6782
54.6744
54.6706
54.6668
54.663
54.6592
54.6554
54.6554
56.6076
56.6076
56.3801
56.331
56.3086
56.2933
56.2808
56.2698
56.2596
56.25
56.2408
56.2318
56.2232
56.2147
56.2065
56.1984
56.1906
56.1829
56.1754
56.168
56.1607
56.1536
56.1467
56.1398
56.1331
56.1265
56.1199
56.1135
56.1072
56.101
56.0948
56.0887
56.0828
56.0769
56.071
56.0652
56.0595
56.0539
56.0483
56.0428
56.0374
56.032
56.0266
56.0214
56.0161
56.011
56.0058
56.0008
55.9958
55.9908
55.9859
55.9811
55.9763
55.9716
55.9669
55.9623
55.9578
55.9533
55.9488
55.9445
55.9401
55.9358
55.9315
55.9273
55.9231
55.9189
55.9147
55.9106
55.9065
55.9024
55.8984
55.8944
55.8904
55.8864
55.8824
55.8785
55.8745
55.8706
55.8667
55.8628
55.859
55.8551
55.8513
55.8475
55.8437
55.8399
55.8361
55.8324
55.8286
55.8248
55.821
55.8173
55.8135
55.8097
55.806
55.8022
55.7984
55.7947
55.7909
55.7871
55.7834
55.7796
55.7758
55.7721
55.7683
55.7645
55.7608
55.757
55.7532
55.7495
55.7457
55.7419
55.7382
55.7344
55.7306
55.7269
55.7231
55.7193
55.7155
55.7118
55.708
55.7042
55.7005
55.6967
55.6929
55.6892
55.6854
55.6816
55.6779
55.6741
55.6703
55.6665
55.6628
55.659
55.6552
55.6515
55.6477
55.6439
55.6401
55.6364
55.6326
55.6288
55.6251
55.6213
55.6175
55.6137
55.61
55.6062
55.6024
55.5987
55.5949
55.5911
55.5873
55.5836
55.5798
55.576
55.5722
55.5685
55.5647
55.5609
55.5572
55.5534
55.5496
55.5458
55.5421
55.5383
55.5345
55.5307
55.527
55.5232
55.5194
55.5156
55.5119
55.5081
55.5043
55.5005
55.4968
55.493
55.4892
55.4854
55.4817
55.4779
55.4741
55.4703
55.4665
55.4628
55.459
55.4552
55.4514
55.4477
55.4439
55.4401
55.4363
55.4326
55.4288
55.425
55.4212
55.4174
55.4137
55.4099
55.4061
55.4023
55.3985
55.3948
55.391
55.3872
55.3834
55.3797
55.3759
55.3721
55.3683
55.3645
55.3608
55.357
55.3532
55.3494
55.3456
55.3419
55.3381
55.3343
55.3305
55.3267
55.3229
55.3192
55.3154
55.3116
55.3078
55.304
55.3003
55.2965
55.2927
55.2889
55.2851
55.2813
55.2776
55.2738
55.27
55.2662
55.2624
55.2586
55.2549
55.2511
55.2473
55.2435
55.2397
55.2359
55.2322
55.2284
55.2246
55.2208
55.217
55.2132
55.2095
55.2057
55.2019
55.1981
55.1943
55.1905
55.1867
55.183
55.1792
55.1754
55.1716
55.1678
55.164
55.1602
55.1564
55.1527
55.1489
55.1451
55.1413
55.1375
55.1337
55.1299
55.1261
55.1224
55.1186
55.1148
55.111
55.1072
55.1034
55.0996
55.0958
55.0921
55.0883
55.0845
55.0807
55.0769
55.0731
55.0693
55.0655
55.0617
55.0579
55.0542
55.0504
55.0466
55.0428
55.039
55.0352
55.0314
55.0276
55.0238
55.02
55.0162
55.0124
55.0087
55.0049
55.0011
54.9973
54.9935
54.9897
54.9859
54.9821
54.9783
54.9745
54.9707
54.9669
54.9631
54.9593
54.9556
54.9518
54.948
54.9442
54.9404
54.9366
54.9328
54.929
54.9252
54.9214
54.9176
54.9138
54.91
54.9062
54.9024
54.8986
54.8948
54.891
54.8872
54.8834
54.8796
54.8758
54.872
54.8683
54.8645
54.8607
54.8569
54.8531
54.8493
54.8455
54.8417
54.8379
54.8341
54.8303
54.8265
54.8227
54.8189
54.8151
54.8113
54.8075
54.8037
54.7999
54.7961
54.7923
54.7885
54.7847
54.7809
54.7771
54.7733
54.7695
54.7657
54.7619
54.7581
54.7543
54.7505
54.7467
54.7429
54.7391
54.7353
54.7315
54.7277
54.7238
54.72
54.7162
54.7124
54.7086
54.7048
54.701
54.6972
54.6934
54.6896
54.6858
54.682
54.6782
54.6744
54.6706
54.6668
54.663
54.6592
54.6554
54.6554
56.5936
56.5936
56.3826
56.3321
56.3092
56.2937
56.2811
56.27
56.2598
56.2501
56.2409
56.2319
56.2232
56.2148
56.2065
56.1985
56.1906
56.1829
56.1754
56.168
56.1608
56.1537
56.1467
56.1398
56.1331
56.1265
56.12
56.1135
56.1072
56.101
56.0948
56.0888
56.0828
56.0769
56.071
56.0653
56.0596
56.0539
56.0483
56.0428
56.0374
56.032
56.0266
56.0214
56.0161
56.011
56.0058
56.0008
55.9958
55.9908
55.9859
55.9811
55.9763
55.9716
55.9669
55.9623
55.9578
55.9533
55.9489
55.9445
55.9401
55.9358
55.9315
55.9273
55.9231
55.9189
55.9147
55.9106
55.9065
55.9024
55.8984
55.8944
55.8904
55.8864
55.8824
55.8785
55.8745
55.8706
55.8667
55.8628
55.859
55.8551
55.8513
55.8475
55.8437
55.8399
55.8361
55.8324
55.8286
55.8248
55.821
55.8173
55.8135
55.8097
55.806
55.8022
55.7984
55.7947
55.7909
55.7871
55.7834
55.7796
55.7758
55.7721
55.7683
55.7645
55.7608
55.757
55.7532
55.7495
55.7457
55.7419
55.7382
55.7344
55.7306
55.7269
55.7231
55.7193
55.7155
55.7118
55.708
55.7042
55.7005
55.6967
55.6929
55.6892