# vtk DataFile Version 2.0
FlowField
ASCII
DATASET STRUCTURED_GRID
DIMENSIONS 400 1 200
POINTS 80000 float
0 0 0
0.08 0 0
0.16 0 0
0.24 0 0
0.32 0 0
0.4 0 0
0.48 0 0
0.56 0 0
0.64 0 0
0.72 0 0
0.8 0 0
0.88 0 0
0.96 0 0
1.04 0 0
1.12 0 0
1.2 0 0
1.28 0 0
1.36 0 0
1.44 0 0
1.52 0 0
1.6 0 0
1.68 0 0
1.76 0 0
1.84 0 0
1.92 0 0
2 0 0
2.08 0 0
2.16 0 0
2.24 0 0
2.32 0 0
2.4 0 0
2.48 0 0
2.56 0 0
2.64 0 0
2.72 0 0
2.8 0 0
2.88 0 0
2.96 0 0
3.04 0 0
3.12 0 0
3.2 0 0
3.28 0 0
3.36 0 0
3.44 0 0
3.52 0 0
3.6 0 0
3.68 0 0
3.76 0 0
3.84 0 0
3.92 0 0
4 0 0
4.08 0 0
4.16 0 0
4.24 0 0
4.32 0 0
4.4 0 0
4.48 0 0
4.56 0 0
4.64 0 0
4.72 0 0
4.8 0 0
4.88 0 0
4.96 0 0
5.04 0 0
5.12 0 0
5.2 0 0
5.28 0 0
5.36 0 0
5.44 0 0
5.52 0 0
5.6 0 0
5.68 0 0
5.76 0 0
5.84 0 0
5.92 0 0
6 0 0
6.08 0 0
6.16 0 0
6.24 0 0
6.32 0 0
6.4 0 0
6.48 0 0
6.56 0 0
6.64 0 0
6.72 0 0
6.8 0 0
6.88 0 0
6.96 0 0
7.04 0 0
7.12 0 0
7.2 0 0
7.28 0 0
7.36 0 0
7.44 0 0
7.52 0 0
7.6 0 0
7.68 0 0
7.76 0 0
7.84 0 0
7.92 0 0
8 0 0
8.08 0 0
8.16 0 0
8.24 0 0
8.32 0 0
8.4 0 0
8.48 0 0
8.56 0 0
8.64 0 0
8.72 0 0
8.8 0 0
8.88 0 0
8.96 0 0
9.04 0 0
9.12 0 0
9.2 0 0
9.28 0 0
9.36 0 0
9.44 0 0
9.52 0 0
9.6 0 0
9.68 0 0
9.76 0 0
9.84 0 0
9.92 0 0
10 0 0
10.08 0 0
10.16 0 0
10.24 0 0
10.32 0 0
10.4 0 0
10.48 0 0
10.56 0 0
10.64 0 0
10.72 0 0
10.8 0 0
10.88 0 0
10.96 0 0
11.04 0 0
11.12 0 0
11.2 0 0
11.28 0 0
11.36 0 0
11.44 0 0
11.52 0 0
11.6 0 0
11.68 0 0
11.76 0 0
11.84 0 0
11.92 0 0
12 0 0
12.08 0 0
12.16 0 0
12.24 0 0
12.32 0 0
12.4 0 0
12.48 0 0
12.56 0 0
12.64 0 0
12.72 0 0
12.8 0 0
12.88 0 0
12.96 0 0
13.04 0 0
13.12 0 0
13.2 0 0
13.28 0 0
13.36 0 0
13.44 0 0
13.52 0 0
13.6 0 0
13.68 0 0
13.76 0 0
13.84 0 0
13.92 0 0
14 0 0
14.08 0 0
14.16 0 0
14.24 0 0
14.32 0 0
14.4 0 0
14.48 0 0
14.56 0 0
14.64 0 0
14.72 0 0
14.8 0 0
14.88 0 0
14.96 0 0
15.04 0 0
15.12 0 0
15.2 0 0
15.28 0 0
15.36 0 0
15.44 0 0
15.52 0 0
15.6 0 0
15.68 0 0
15.76 0 0
15.84 0 0
15.92 0 0
16 0 0
16.08 0 0
16.16 0 0
16.24 0 0
16.32 0 0
16.4 0 0
16.48 0 0
16.56 0 0
16.64 0 0
16.72 0 0
16.8 0 0
16.88 0 0
16.96 0 0
17.04 0 0
17.12 0 0
17.2 0 0
17.28 0 0
17.36 0 0
17.44 0 0
17.52 0 0
17.6 0 0
17.68 0 0
17.76 0 0
17.84 0 0
17.92 0 0
18 0 0
18.08 0 0
18.16 0 0
18.24 0 0
18.32 0 0
18.4 0 0
18.48 0 0
18.56 0 0
18.64 0 0
18.72 0 0
18.8 0 0
18.88 0 0
18.96 0 0
19.04 0 0
19.12 0 0
19.2 0 0
19.28 0 0
19.36 0 0
19.44 0 0
19.52 0 0
19.6 0 0
19.68 0 0
19.76 0 0
19.84 0 0
19.92 0 0
20 0 0
20.08 0 0
20.16 0 0
20.24 0 0
20.32 0 0
20.4 0 0
20.48 0 0
20.56 0 0
20.64 0 0
20.72 0 0
20.8 0 0
20.88 0 0
20.96 0 0
21.04 0 0
21.12 0 0
21.2 0 0
21.28 0 0
21.36 0 0
21.44 0 0
21.52 0 0
21.6 0 0
21.68 0 0
21.76 0 0
21.84 0 0
21.92 0 0
22 0 0
22.08 0 0
22.16 0 0
22.24 0 0
22.32 0 0
22.4 0 0
22.48 0 0
22.56 0 0
22.64 0 0
22.72 0 0
22.8 0 0
22.88 0 0
22.96 0 0
23.04 0 0
23.12 0 0
23.2 0 0
23.28 0 0
23.36 0 0
23.44 0 0
23.52 0 0
23.6 0 0
23.68 0 0
23.76 0 0
23.84 0 0
23.92 0 0
24 0 0
24.08 0 0
24.16 0 0
24.24 0 0
24.32 0 0
24.4 0 0
24.48 0 0
24.56 0 0
24.64 0 0
24.72 0 0
24.8 0 0
24.88 0 0
24.96 0 0
25.04 0 0
25.12 0 0
25.2 0 0
25.28 0 0
25.36 0 0
25.44 0 0
25.52 0 0
25.6 0 0
25.68 0 0
25.76 0 0
25.84 0 0
25.92 0 0
26 0 0
26.08 0 0
26.16 0 0
26.24 0 0
26.32 0 0
26.4 0 0
26.48 0 0
26.56 0 0
26.64 0 0
26.72 0 0
26.8 0 0
26.88 0 0
26.96 0 0
27.04 0 0
27.12 0 0
27.2 0 0
27.28 0 0
27.36 0 0
27.44 0 0
27.52 0 0
27.6 0 0
27.68 0 0
27.76 0 0
27.84 0 0
27.92 0 0
28 0 0
28.08 0 0
28.16 0 0
28.24 0 0
28.32 0 0
28.4 0 0
28.48 0 0
28.56 0 0
28.64 0 0
28.72 0 0
28.8 0 0
28.88 0 0
28.96 0 0
29.04 0 0
29.12 0 0
29.2 0 0
29.28 0 0
29.36 0 0
29.44 0 0
29.52 0 0
29.6 0 0
29.68 0 0
29.76 0 0
29.84 0 0
29.92 0 0
30 0 0
30.08 0 0
30.16 0 0
30.24 0 0
30.32 0 0
30.4 0 0
30.48 0 0
30.56 0 0
30.64 0 0
30.72 0 0
30.8 0 0
30.88 0 0
30.96 0 0
31.04 0 0
31.12 0 0
31.2 0 0
31.28 0 0
31.36 0 0
31.44 0 0
31.52 0 0
31.6 0 0
31.68 0 0
31.76 0 0
31.84 0 0
31.92 0 0
0 0.005 0
0.08 0.005 0
0.16 0.005 0
0.24 0.005 0
0.32 0.005 0
0.4 0.005 0
0.48 0.005 0
0.56 0.005 0
0.64 0.005 0
0.72 0.005 0
0.8 0.005 0
0.88 0.005 0
0.96 0.005 0
1.04 0.005 0
1.12 0.005 0
1.2 0.005 0
1.28 0.005 0
1.36 0.005 0
1.44 0.005 0
1.52 0.005 0
1.6 0.005 0
1.68 0.005 0
1.76 0.005 0
1.84 0.005 0
1.92 0.005 0
2 0.005 0
2.08 0.005 0
2.16 0.005 0
2.24 0.005 0
2.32 0.005 0
2.4 0.005 0
2.48 0.005 0
2.56 0.005 0
2.64 0.005 0
2.72 0.005 0
2.8 0.005 0
2.88 0.005 0
2.96 0.005 0
3.04 0.005 0
3.12 0.005 0
3.2 0.005 0
3.28 0.005 0
3.36 0.005 0
3.44 0.005 0
3.52 0.005 0
3.6 0.005 0
3.68 0.005 0
3.76 0.005 0
3.84 0.005 0
3.92 0.005 0
4 0.005 0
4.08 0.005 0
4.16 0.005 0
4.24 0.005 0
4.32 0.005 0
4.4 0.005 0
4.48 0.005 0
4.56 0.005 0
4.64 0.005 0
4.72 0.005 0
4.8 0.005 0
4.88 0.005 0
4.96 0.005 0
5.04 0.005 0
5.12 0.005 0
5.2 0.005 0
5.28 0.005 0
5.36 0.005 0
5.44 0.005 0
5.52 0.005 0
5.6 0.005 0
5.68 0.005 0
5.76 0.005 0
5.84 0.005 0
5.92 0.005 0
6 0.005 0
6.08 0.005 0
6.16 0.005 0
6.24 0.005 0
6.32 0.005 0
6.4 0.005 0
6.48 0.005 0
6.56 0.005 0
6.64 0.005 0
6.72 0.005 0
6.8 0.005 0
6.88 0.005 0
6.96 0.005 0
7.04 0.005 0
7.12 0.005 0
7.2 0.005 0
7.28 0.005 0
7.36 0.005 0
7.44 0.005 0
7.52 0.005 0
7.6 0.005 0
7.68 0.005 0
7.76 0.005 0
7.84 0.005 0
7.92 0.005 0
8 0.005 0
8.08 0.005 0
8.16 0.005 0
8.24 0.005 0
8.32 0.005 0
8.4 0.005 0
8.48 0.005 0
8.56 0.005 0
8.64 0.005 0
8.72 0.005 0
8.8 0.005 0
8.88 0.005 0
8.96 0.005 0
9.04 0.005 0
9.12 0.005 0
9.2 0.005 0
9.28 0.005 0
9.36 0.005 0
9.44 0.005 0
9.52 0.005 0
9.6 0.005 0
9.68 0.005 0
9.76 0.005 0
9.84 0.005 0
9.92 0.005 0
10 0.005 0
10.08 0.005 0
10.16 0.005 0
10.24 0.005 0
10.32 0.005 0
10.4 0.005 0
10.48 0.005 0
10.56 0.005 0
10.64 0.005 0
10.72 0.005 0
10.8 0.005 0
10.88 0.005 0
10.96 0.005 0
11.04 0.005 0
11.12 0.005 0
11.2 0.005 0
11.28 0.005 0
11.36 0.005 0
11.44 0.005 0
11.52 0.005 0
11.6 0.005 0
11.68 0.005 0
11.76 0.005 0
11.84 0.005 0
11.92 0.005 0
12 0.005 0
12.08 0.005 0
12.16 0.005 0
12.24 0.005 0
12.32 0.005 0
12.4 0.005 0
12.48 0.005 0
12.56 0.005 0
12.64 0.005 0
12.72 0.005 0
12.8 0.005 0
12.88 0.005 0
12.96 0.005 0
13.04 0.005 0
13.12 0.005 0
13.2 0.005 0
13.28 0.005 0
13.36 0.005 0
13.44 0.005 0
13.52 0.005 0
13.6 0.005 0
13.68 0.005 0
13.76 0.005 0
13.84 0.005 0
13.92 0.005 0
14 0.005 0
14.08 0.005 0
14.16 0.005 0
14.24 0.005 0
14.32 0.005 0
14.4 0.005 0
14.48 0.005 0
14.56 0.005 0
14.64 0.005 0
14.72 0.005 0
14.8 0.005 0
14.88 0.005 0
14.96 0.005 0
15.04 0.005 0
15.12 0.005 0
15.2 0.005 0
15.28 0.005 0
15.36 0.005 0
15.44 0.005 0
15.52 0.005 0
15.6 0.005 0
15.68 0.005 0
15.76 0.005 0
15.84 0.005 0
15.92 0.005 0
16 0.005 0
16.08 0.005 0
16.16 0.005 0
16.24 0.005 0
16.32 0.005 0
16.4 0.005 0
16.48 0.005 0
16.56 0.005 0
16.64 0.005 0
16.72 0.005 0
16.8 0.005 0
16.88 0.005 0
16.96 0.005 0
17.04 0.005 0
17.12 0.005 0
17.2 0.005 0
17.28 0.005 0
17.36 0.005 0
17.44 0.005 0
17.52 0.005 0
17.6 0.005 0
17.68 0.005 0
17.76 0.005 0
17.84 0.005 0
17.92 0.005 0
18 0.005 0
18.08 0.005 0
18.16 0.005 0
18.24 0.005 0
18.32 0.005 0
18.4 0.005 0
18.48 0.005 0
18.56 0.005 0
18.64 0.005 0
18.72 0.005 0
18.8 0.005 0
18.88 0.005 0
18.96 0.005 0
19.04 0.005 0
19.12 0.005 0
19.2 0.005 0
19.28 0.005 0
19.36 0.005 0
19.44 0.005 0
19.52 0.005 0
19.6 0.005 0
19.68 0.005 0
19.76 0.005 0
19.84 0.005 0
19.92 0.005 0
20 0.005 0
20.08 0.005 0
20.16 0.005 0
20.24 0.005 0
20.32 0.005 0
20.4 0.005 0
20.48 0.005 0
20.56 0.005 0
20.64 0.005 0
20.72 0.005 0
20.8 0.005 0
20.88 0.005 0
20.96 0.005 0
21.04 0.005 0
21.12 0.005 0
21.2 0.005 0
21.28 0.005 0
21.36 0.005 0
21.44 0.005 0
21.52 0.005 0
21.6 0.005 0
21.68 0.005 0
21.76 0.005 0
21.84 0.005 0
21.92 0.005 0
22 0.005 0
22.08 0.005 0
22.16 0.005 0
22.24 0.005 0
22.32 0.005 0
22.4 0.005 0
22.48 0.005 0
22.56 0.005 0
22.64 0.005 0
22.72 0.005 0
22.8 0.005 0
22.88 0.005 0
22.96 0.005 0
23.04 0.005 0
23.12 0.005 0
23.2 0.005 0
23.28 0.005 0
23.36 0.005 0
23.44 0.005 0
23.52 0.005 0
23.6 0.005 0
23.68 0.005 0
23.76 0.005 0
23.84 0.005 0
23.92 0.005 0
24 0.005 0
24.08 0.005 0
24.16 0.005 0
24.24 0.005 0
24.32 0.005 0
24.4 0.005 0
24.48 0.005 0
24.56 0.005 0
24.64 0.005 0
24.72 0.005 0
24.8 0.005 0
24.88 0.005 0
24.96 0.005 0
25.04 0.005 0
25.12 0.005 0
25.2 0.005 0
25.28 0.005 0
25.36 0.005 0
25.44 0.005 0
25.52 0.005 0
25.6 0.005 0
25.68 0.005 0
25.76 0.005 0
25.84 0.005 0
25.92 0.005 0
26 0.005 0
26.08 0.005 0
26.16 0.005 0
26.24 0.005 0
26.32 0.005 0
26.4 0.005 0
26.48 0.005 0
26.56 0.005 0
26.64 0.005 0
26.72 0.005 0
26.8 0.005 0
26.88 0.005 0
26.96 0.005 0
27.04 0.005 0
27.12 0.005 0
27.2 0.005 0
27.28 0.005 0
27.36 0.005 0
27.44 0.005 0
27.52 0.005 0
27.6 0.005 0
27.68 0.005 0
27.76 0.005 0
27.84 0.005 0
27.92 0.005 0
28 0.005 0
28.08 0.005 0
28.16 0.005 0
28.24 0.005 0
28.32 0.005 0
28.4 0.005 0
28.48 0.005 0
28.56 0.005 0
28.64 0.005 0
28.72 0.005 0
28.8 0.005 0
28.88 0.005 0
28.96 0.005 0
29.04 0.005 0
29.12 0.005 0
29.2 0.005 0
29.28 0.005 0
29.36 0.005 0
29.44 0.005 0
29.52 0.005 0
29.6 0.005 0
29.68 0.005 0
29.76 0.005 0
29.84 0.005 0
29.92 0.005 0
30 0.005 0
30.08 0.005 0
30.16 0.005 0
30.24 0.005 0
30.32 0.005 0
30.4 0.005 0
30.48 0.005 0
30.56 0.005 0
30.64 0.005 0
30.72 0.005 0
30.8 0.005 0
30.88 0.005 0
30.96 0.005 0
31.04 0.005 0
31.12 0.005 0
31.2 0.005 0
31.28 0.005 0
31.36 0.005 0
31.44 0.005 0
31.52 0.005 0
31.6 0.005 0
31.68 0.005 0
31.76 0.005 0
31.84 0.005 0
31.92 0.005 0
0 0.01 0
0.08 0.01 0
0.16 0.01 0
0.24 0.01 0
0.32 0.01 0
0.4 0.01 0
0.48 0.01 0
0.56 0.01 0
0.64 0.01 0
0.72 0.01 0
0.8 0.01 0
0.88 0.01 0
0.96 0.01 0
1.04 0.01 0
1.12 0.01 0
1.2 0.01 0
1.28 0.01 0
1.36 0.01 0
1.44 0.01 0
1.52 0.01 0
1.6 0.01 0
1.68 0.01 0
1.76 0.01 0
1.84 0.01 0
1.92 0.01 0
2 0.01 0
2.08 0.01 0
2.16 0.01 0
2.24 0.01 0
2.32 0.01 0
2.4 0.01 0
2.48 0.01 0
2.56 0.01 0
2.64 0.01 0
2.72 0.01 0
2.8 0.01 0
2.88 0.01 0
2.96 0.01 0
3.04 0.01 0
3.12 0.01 0
3.2 0.01 0
3.28 0.01 0
3.36 0.01 0
3.44 0.01 0
3.52 0.01 0
3.6 0.01 0
3.68 0.01 0
3.76 0.01 0
3.84 0.01 0
3.92 0.01 0
4 0.01 0
4.08 0.01 0
4.16 0.01 0
4.24 0.01 0
4.32 0.01 0
4.4 0.01 0
4.48 0.01 0
4.56 0.01 0
4.64 0.01 0
4.72 0.01 0
4.8 0.01 0
4.88 0.01 0
4.96 0.01 0
5.04 0.01 0
5.12 0.01 0
[...]
POINT_DATA 80000

SCALARS v float 1
LOOKUP_TABLE default
0
0
0
0
0
0
0
0
0
0
0
0
0
0
0
0
0
0
0
0
0
0
0
0
0
0
0
0
0
0
0
0
0
0
0
0
0
0
0
0
0
0
0
0
0
0
0
0
0
0
0
0
0
0
0
0
0
0
0
0
0
0
0
0
0
0
0
0
0
0
0
0
0
0
0
0
0
0
0
0
0
0
0
0
0
0
0
0
0
0
0
0
0
0
0
0
0
0
0
0
0
0
0
0
0
0
0
0
0
0
0
0
0
0
0
0
0
0
0
0
0
0
0
0
0
0
0
0
0
0
0
0
0
0
0
0
0
0
0
0
0
0
0
0
0
0
0
0
0
0
0
0
0
0
0
0
0
0
0
0
0
0
0
0
0
0
0
0
0
0
0
0
0
0
0
0
0
0
0
0
0
0
0
0
0
0
0
0
0
0
0
0
0
0
0
0
0
0
0
0
0
0
0
0
0
0
0
0
0
0
0
0
0
0
0
0
0
0
0
0
0
0
0
0
0
0
0
0
0
0
0
0
0
0
0
0
0
0
0
0
0
0
0
0
0
0
0
0
0
0
0
0
0
0
0
0
0
0
0
0
0
0
0
0
0
0
0
0
0
0
0
0
0
0
0
0
0
0
0
0
0
0
0
0
0
0
0
0
0
0
0
0
0
0
0
0
0
0
0
0
0
0
0
0
0
0
0
0
0
0
0
0
0
0
0
0
0
0
0
0
0
0
0
0
0
0
0
0
0
0
0
0
0
0
0
0
0
0
0
0
0
0
0
0
0
0
0
0
0
0
0
0
0
0
0
0
0
0
0
0
0
0
0
0
0
0
0
0
0
0
0
0
0
0
0
0
0
0
0
0
0
0
0
0
0
0
0
0
0
0
0
0
0
0
0
0
0
0
0
0
-0.0542711
0.0542711
0.00396211
0.000998349
0.000492279
0.000302715
0.000207339
0.000151711
0.00011627
9.23131e-05
7.54e-05
6.30394e-05
5.3739e-05
4.65605e-05
4.08927e-05
3.63256e-05
3.25781e-05
2.94531e-05
2.68101e-05
2.45469e-05
2.2588e-05
2.08766e-05
1.93694e-05
1.80325e-05
1.68395e-05
1.5769e-05
1.48039e-05
1.393e-05
1.31356e-05
1.2411e-05
1.17478e-05
1.1139e-05
1.05787e-05
1.00616e-05
9.58329e-06
9.13981e-06
8.72776e-06
8.34415e-06
7.98631e-06
7.65193e-06
7.33893e-06
7.04545e-06
6.76985e-06
6.51065e-06
6.26654e-06
6.03631e-06
5.8189e-06
5.61333e-06
5.41873e-06
5.23428e-06
5.05928e-06
4.89305e-06
4.73499e-06
4.58455e-06
4.44123e-06
4.30455e-06
4.17409e-06
4.04946e-06
3.9303e-06
3.81626e-06
3.70706e-06
3.60239e-06
3.50199e-06
3.40562e-06
3.31305e-06
3.22407e-06
3.13849e-06
3.05611e-06
2.97677e-06
2.90031e-06
2.82657e-06
2.75543e-06
2.68675e-06
2.6204e-06
2.55628e-06
2.49428e-06
2.4343e-06
2.37624e-06
2.32001e-06
2.26553e-06
2.21272e-06
2.16151e-06
2.11183e-06
2.06362e-06
2.01681e-06
1.97134e-06
1.92716e-06
1.88422e-06
1.84246e-06
1.80184e-06
1.76233e-06
1.72387e-06
1.68643e-06
1.64996e-06
1.61443e-06
1.57981e-06
1.54608e-06
1.5132e-06
1.48114e-06
1.44986e-06
1.41933e-06
1.38952e-06
1.36038e-06
1.33188e-06
1.30398e-06
1.27663e-06
1.24976e-06
1.22332e-06
1.19725e-06
1.17147e-06
1.14596e-06
1.12065e-06
1.0955e-06
1.07046e-06
1.04548e-06
1.02051e-06
9.95539e-07
9.70559e-07
9.45578e-07
9.20602e-07
8.95634e-07
8.70669e-07
8.45705e-07
8.20752e-07
7.95842e-07
7.71022e-07
7.46342e-07
7.2184e-07
6.97536e-07
6.73426e-07
6.49503e-07
6.25772e-07
6.02265e-07
5.79039e-07
5.56163e-07
5.33692e-07
5.11653e-07
4.90038e-07
4.68816e-07
4.47961e-07
4.27469e-07
4.07375e-07
3.87743e-07
3.68644e-07
3.50131e-07
3.32219e-07
3.14881e-07
2.98064e-07
2.81718e-07
2.65815e-07
2.50366e-07
2.35417e-07
2.21031e-07
2.0726e-07
1.94128e-07
1.81616e-07
1.69677e-07
1.5825e-07
1.47283e-07
1.36753e-07
1.2667e-07
1.17072e-07
1.08006e-07
9.95136e-08
9.16071e-08
8.42696e-08
7.74559e-08
7.11053e-08
6.51572e-08
5.95658e-08
5.43085e-08
4.93874e-08
4.48233e-08
4.06459e-08
3.68824e-08
3.35487e-08
3.06435e-08
2.81485e-08
2.60306e-08
2.42478e-08
2.27548e-08
2.1508e-08
2.04689e-08
1.96051e-08
1.88903e-08
1.83029e-08
1.78245e-08
1.74384e-08
1.71287e-08
1.68804e-08
1.66794e-08
1.65129e-08
1.637e-08
1.62422e-08
1.61231e-08
1.60085e-08
1.5896e-08
1.57843e-08
1.56733e-08
1.55631e-08
1.54539e-08
1.53459e-08
1.52391e-08
1.51336e-08
1.50288e-08
1.49247e-08
1.48209e-08
1.47171e-08
1.46132e-08
1.45091e-08
1.44048e-08
1.43002e-08
1.41955e-08
1.40906e-08
1.39857e-08
1.38807e-08
1.37758e-08
1.36709e-08
1.3566e-08
1.34611e-08
1.33563e-08
1.32514e-08
1.31465e-08
1.30417e-08
1.29367e-08
1.28318e-08
1.27268e-08
1.26218e-08
1.25168e-08
1.24117e-08
1.23066e-08
1.22015e-08
1.20964e-08
1.19913e-08
1.18861e-08
1.17809e-08
1.16757e-08
1.15705e-08
1.14652e-08
1.13599e-08
1.12546e-08
1.11493e-08
1.1044e-08
1.09386e-08
1.08332e-08
1.07278e-08
1.06224e-08
1.05169e-08
1.04114e-08
1.03059e-08
1.02004e-08
1.00949e-08
9.98928e-09
9.88369e-09
9.77806e-09
9.67242e-09
9.56674e-09
9.46104e-09
9.35532e-09
9.24957e-09
9.1438e-09
9.03801e-09
8.9322e-09
8.82635e-09
8.72048e-09
8.61458e-09
8.50866e-09
8.40272e-09
8.29674e-09
8.19075e-09
8.08472e-09
7.97868e-09
7.87261e-09
7.76651e-09
7.66038e-09
7.55423e-09
7.44806e-09
7.34186e-09
7.23563e-09
7.12938e-09
7.0231e-09
6.9168e-09
6.81046e-09
6.70411e-09
6.59772e-09
6.49132e-09
6.38489e-09
6.27841e-09
6.17193e-09
6.06541e-09
5.95887e-09
5.85231e-09
5.74572e-09
5.63909e-09
5.53244e-09
5.42577e-09
5.31907e-09
5.21234e-09
5.10559e-09
4.9988e-09
4.892e-09
4.78516e-09
4.6783e-09
4.5714e-09
4.4645e-09
4.35754e-09
4.25059e-09
4.14356e-09
4.03656e-09
3.92948e-09
3.82242e-09
3.71529e-09
3.60819e-09
3.50098e-09
3.39384e-09
3.28656e-09
3.17938e-09
3.07204e-09
2.96481e-09
2.85738e-09
2.75014e-09
2.64263e-09
2.53534e-09
2.42774e-09
2.32044e-09
2.21276e-09
2.10546e-09
1.99763e-09
1.89034e-09
1.7824e-09
1.67514e-09
1.56703e-09
1.45983e-09
1.35154e-09
1.24443e-09
1.13591e-09
1.02894e-09
9.2015e-10
8.13358e-10
7.04229e-10
5.97688e-10
4.88157e-10
3.81961e-10
2.71908e-10
1.66193e-10
5.54826e-11
-4.96184e-11
-1.61162e-10
-2.65444e-10
-3.7803e-10
-4.81228e-10
-5.95156e-10
-6.9698e-10
-8.12582e-10
-9.12604e-10
-1.03036e-09
-1.12806e-09
-1.24857e-09
-1.34327e-09
-1.46726e-09
-1.55812e-09
-1.68655e-09
-1.7725e-09
-1.90655e-09
-1.98625e-09
-2.1274e-09
-2.19919e-09
-2.34926e-09
-2.41113e-09
-2.57228e-09
-2.62183e-09
-2.79665e-09
-2.83108e-09
-3.02247e-09
-3.03875e-09
-3.24971e-09
-3.2449e-09
-3.47808e-09
-3.45005e-09
-3.70659e-09
-3.65574e-09
-3.93308e-09
-3.86564e-09
-4.15294e-09
-4.08795e-09
-4.35674e-09
-4.34058e-09
-4.5251e-09
-4.66325e-09
-4.61634e-09
-5.14611e-09
-4.53027e-09
-6.00018e-09
-3.965e-09
-7.72473e-09
-1.57406e-09
-1.13515e-08
1.58305e-08
-5.78208e-09
-5.78208e-09
-0.0952159
0.0952159
0.0129756
0.00385464
0.00193433
0.00119622
0.000821765
0.000602339
0.000462091
0.000367065
0.000299855
0.000250669
0.000213626
0.000185018
0.000162425
0.00014422
0.000129284
0.000116834
0.000106309
9.7301e-05
8.95078e-05
8.27026e-05
7.67117e-05
7.14003e-05
6.66621e-05
6.24121e-05
5.85814e-05
5.51137e-05
5.19623e-05
4.90881e-05
4.64581e-05
4.40445e-05
4.18232e-05
3.97735e-05
3.78777e-05
3.61202e-05
3.44874e-05
3.29674e-05
3.15497e-05
3.0225e-05
2.89851e-05
2.78225e-05
2.67309e-05
2.57043e-05
2.47375e-05
2.38258e-05
2.29648e-05
2.21507e-05
2.13801e-05
2.06498e-05
1.99569e-05
1.92988e-05
1.8673e-05
1.80774e-05
1.751e-05
1.69689e-05
1.64525e-05
1.59592e-05
1.54875e-05
1.50361e-05
1.46039e-05
1.41896e-05
1.37922e-05
1.34108e-05
1.30445e-05
1.26924e-05
1.23537e-05
1.20277e-05
1.17137e-05
1.14112e-05
1.11194e-05
1.08379e-05
1.05662e-05
1.03037e-05
1.005e-05
9.80469e-06
9.56738e-06
9.33769e-06
9.11525e-06
8.89975e-06
8.69085e-06
8.48829e-06
8.29179e-06
8.10109e-06
7.91594e-06
7.73611e-06
7.56136e-06
7.39151e-06
7.22635e-06
7.06572e-06
6.90943e-06
6.75733e-06
6.60923e-06
6.465e-06
6.32447e-06
6.18755e-06
6.0541e-06
5.92401e-06
5.79715e-06
5.67336e-06
5.5525e-06
5.43442e-06
5.31898e-06
5.20603e-06
5.0954e-06
4.98687e-06
4.88019e-06
4.77513e-06
4.67144e-06
4.56889e-06
4.4673e-06
4.36647e-06
4.26621e-06
4.16632e-06
4.06661e-06
3.96694e-06
3.86725e-06
3.76752e-06
3.66778e-06
3.56806e-06
3.46837e-06
3.36871e-06
3.26908e-06
3.16953e-06
3.0702e-06
2.97127e-06
2.87295e-06
2.77535e-06
2.67856e-06
2.58257e-06
2.48736e-06
2.39297e-06
2.29955e-06
2.20731e-06
2.11652e-06
2.02736e-06
1.93994e-06
1.8542e-06
1.77005e-06
1.68739e-06
1.60625e-06
1.52676e-06
1.44917e-06
1.37375e-06
1.30067e-06
1.22997e-06
1.16153e-06
1.09516e-06
1.03068e-06
9.67995e-07
9.07181e-07
8.48417e-07
7.91931e-07
7.37904e-07
6.86397e-07
6.37328e-07
5.90506e-07
5.45704e-07
5.02744e-07
4.61555e-07
4.22191e-07
3.84798e-07
3.49552e-07
3.16581e-07
2.8592e-07
2.57483e-07
2.31088e-07
2.06503e-07
1.83504e-07
1.61931e-07
1.4171e-07
1.22857e-07
1.05454e-07
8.96086e-08
7.54117e-08
6.2908e-08
5.20772e-08
4.28341e-08
3.5042e-08
2.8533e-08
2.31305e-08
1.86671e-08
1.49951e-08
1.19917e-08
9.55617e-09
7.60544e-09
6.06788e-09
4.87848e-09
3.97604e-09
3.30245e-09
2.80374e-09
2.43176e-09
2.14595e-09
1.91443e-09
1.71404e-09
1.52963e-09
1.35261e-09
1.17914e-09
1.00835e-09
8.40794e-10
6.77423e-10
5.18845e-10
3.65084e-10
2.15575e-10
6.93388e-11
-7.476e-11
-2.17793e-10
-3.60672e-10
-5.04012e-10
-6.48126e-10
-7.9311e-10
-9.38857e-10
-1.0852e-09
-1.23189e-09
-1.37873e-09
-1.52558e-09
-1.67231e-09
-1.81889e-09
-1.96532e-09
-2.11159e-09
-2.25779e-09
-2.40394e-09
-2.55008e-09
-2.69623e-09
-2.84243e-09
-2.98868e-09
-3.13498e-09
-3.28134e-09
-3.42774e-09
-3.57418e-09
-3.72065e-09
-3.86714e-09
-4.01365e-09
-4.16018e-09
-4.30674e-09
-4.45331e-09
-4.5999e-09
-4.7465e-09
-4.89314e-09
-5.03979e-09
-5.18647e-09
-5.33317e-09
-5.4799e-09
-5.62665e-09
-5.77345e-09
-5.92024e-09
-6.06709e-09
-6.21396e-09
-6.36085e-09
-6.50778e-09
-6.65473e-09
-6.80171e-09
-6.94873e-09
-7.09578e-09
-7.24285e-09
-7.38996e-09
-7.53709e-09
-7.68426e-09
-7.83147e-09
-7.9787e-09
-8.12597e-09
-8.27327e-09
-8.4206e-09
-8.56796e-09
-8.71536e-09
-8.86279e-09
-9.01026e-09
-9.15776e-09
-9.3053e-09
-9.45286e-09
-9.60046e-09
-9.7481e-09
-9.89578e-09
-1.00435e-08
-1.01912e-08
-1.0339e-08
-1.04868e-08
-1.06347e-08
-1.07826e-08
-1.09305e-08
-1.10784e-08
-1.12264e-08
-1.13745e-08
-1.15226e-08
-1.16707e-08
-1.18188e-08
-1.1967e-08
-1.21152e-08
-1.22635e-08
-1.24117e-08
-1.25601e-08
-1.27085e-08
-1.28569e-08
-1.30053e-08
-1.31538e-08
-1.33023e-08
-1.34509e-08
-1.35995e-08
-1.37481e-08
-1.38968e-08
-1.40455e-08
-1.41943e-08
-1.43431e-08
-1.44919e-08
-1.46408e-08
-1.47897e-08
-1.49386e-08
-1.50877e-08
-1.52367e-08
-1.53858e-08
-1.55348e-08
-1.56841e-08
-1.58332e-08
-1.59826e-08
-1.61317e-08
-1.62812e-08
-1.64303e-08
-1.658e-08
-1.67291e-08
-1.6879e-08
-1.70281e-08
-1.71781e-08
-1.73272e-08
-1.74775e-08
-1.76265e-08
-1.7777e-08
-1.79259e-08
-1.80767e-08
-1.82255e-08
-1.83766e-08
-1.85252e-08
-1.86768e-08
-1.8825e-08
-1.89772e-08
-1.91249e-08
-1.92778e-08
-1.94249e-08
-1.95787e-08
-1.9725e-08
-1.98799e-08
-2.00251e-08
-2.01814e-08
-2.03252e-08
-2.04833e-08
-2.06252e-08
-2.07857e-08
-2.09251e-08
-2.10885e-08
-2.12248e-08
-2.1392e-08
-2.15241e-08
-2.16961e-08
-2.1823e-08
-2.20012e-08
-2.21212e-08
-2.23073e-08
-2.24185e-08
-2.26147e-08
-2.27145e-08
-2.29237e-08
-2.3009e-08
-2.32346e-08
-2.33015e-08
-2.3548e-08
-2.35914e-08
-2.38642e-08
-2.38779e-08
-2.41839e-08
-2.41604e-08
-2.45077e-08
-2.44381e-08
-2.48363e-08
-2.471e-08
-2.517e-08
-2.49757e-08
-2.55088e-08
-2.52353e-08
-2.58515e-08
-2.54908e-08
-2.61946e-08
-2.57478e-08
-2.65301e-08
-2.602e-08
-2.68411e-08
-2.63376e-08
-2.70928e-08
-2.67672e-08
-2.72144e-08
-2.74565e-08
-2.70535e-08
-2.874e-08
-2.62445e-08
-3.13992e-08
-2.36822e-08
-3.72627e-08
-1.44111e-08
-4.98684e-08
4.94543e-08
-2.9141e-08
-2.9141e-08
-0.125293
0.125293
0.0249359
0.00835805
0.00427802
0.00266155
0.00183376
0.00134638
0.00103391
0.000821732
0.000671416
0.000561279
0.000478261
0.000414114
0.00036344
0.000322605
0.000289109
0.000261193
0.000237601
0.000217415
0.000199959
0.000184721
0.000171311
0.000159425
0.000148825
0.00013932
0.000130755
0.000123002
0.000115958
0.000109535
0.000103658
9.82654e-05
9.33029e-05
8.87244e-05
8.44899e-05
8.05646e-05
7.69181e-05
7.35237e-05
7.03579e-05
6.74e-05
6.46315e-05
6.2036e-05
5.95989e-05
5.7307e-05
5.51487e-05
5.31134e-05
5.11915e-05
4.93744e-05
4.76544e-05
4.60243e-05
4.44778e-05
4.30089e-05
4.16122e-05
4.0283e-05
3.90168e-05
3.78093e-05
3.66568e-05
3.55559e-05
3.45034e-05
3.34962e-05
3.25317e-05
3.16073e-05
3.07207e-05
2.98697e-05
2.90524e-05
2.82667e-05
2.75111e-05
2.67838e-05
2.60834e-05
2.54084e-05
2.47576e-05
2.41296e-05
2.35234e-05
2.29379e-05
2.2372e-05
2.18248e-05
2.12955e-05
2.07832e-05
2.02871e-05
1.98064e-05
1.93405e-05
1.88887e-05
1.84505e-05
1.80252e-05
1.76123e-05
1.72112e-05
1.68215e-05
1.64427e-05
1.60744e-05
1.57162e-05
1.53677e-05
1.50285e-05
1.46982e-05
1.43766e-05
1.40632e-05
1.37578e-05
1.34602e-05
1.317e-05
1.2887e-05
1.26108e-05
1.23411e-05
1.20776e-05
1.18199e-05
1.15676e-05
1.13204e-05
1.10779e-05
1.08393e-05
1.06043e-05
1.03722e-05
1.01426e-05
9.9151e-06
9.68917e-06
9.46443e-06
9.24045e-06
9.01684e-06
8.79331e-06
8.56972e-06
8.34607e-06
8.12242e-06
7.89884e-06
7.67536e-06
7.45197e-06
7.22871e-06
7.00573e-06
6.78333e-06
6.56193e-06
6.34194e-06
6.12365e-06
5.9072e-06
5.69258e-06
5.47979e-06
5.26895e-06
5.06038e-06
4.85458e-06
4.65209e-06
4.45331e-06
4.25842e-06
4.06731e-06
3.87978e-06
3.69566e-06
3.51502e-06
3.3382e-06
3.16573e-06
2.99815e-06
2.83582e-06
2.67877e-06
2.52675e-06
2.37933e-06
2.23615e-06
2.09707e-06
1.96225e-06
1.83209e-06
1.70707e-06
1.58754e-06
1.4736e-06
1.36505e-06
1.26146e-06
1.16237e-06
1.0674e-06
9.7644e-07
8.89617e-07
8.0725e-07
7.29701e-07
6.57222e-07
5.8985e-07
5.27375e-07
4.6939e-07
4.15394e-07
3.64918e-07
3.17633e-07
2.734e-07
2.32265e-07
1.94403e-07
1.60035e-07
1.29339e-07
1.02385e-07
7.91041e-08
5.92891e-08
4.26277e-08
2.87468e-08
1.72588e-08
7.7993e-09
4.95321e-11
-6.2565e-09
-1.13367e-08
-1.53718e-08
-1.85184e-08
-2.0919e-08
-2.27073e-08
-2.40096e-08
-2.49426e-08
-2.56094e-08
-2.60963e-08
-2.64706e-08
-2.67807e-08
-2.70579e-08
-2.73199e-08
-2.75741e-08
-2.78222e-08
-2.80629e-08
-2.82943e-08
-2.85152e-08
-2.87257e-08
-2.89272e-08
-2.91219e-08
-2.93121e-08
-2.95003e-08
-2.96882e-08
-2.98772e-08
-3.00678e-08
-3.02603e-08
-3.04544e-08
-3.06496e-08
-3.08456e-08
-3.10418e-08
-3.12379e-08
-3.14338e-08
-3.16293e-08
-3.18244e-08
-3.20192e-08
-3.22138e-08
-3.24083e-08
-3.26027e-08
-3.27972e-08
-3.29917e-08
-3.31863e-08
-3.3381e-08
-3.35757e-08
-3.37706e-08
-3.39654e-08
-3.41604e-08
-3.43553e-08
-3.45502e-08
-3.47452e-08
-3.49401e-08
-3.51351e-08
-3.53301e-08
-3.55251e-08
-3.57201e-08
-3.59152e-08
-3.61102e-08
-3.63053e-08
-3.65004e-08
-3.66956e-08
-3.68907e-08
-3.7086e-08
-3.72812e-08
-3.74764e-08
-3.76717e-08
-3.78671e-08
-3.80624e-08
-3.82578e-08
-3.84533e-08
-3.86487e-08
-3.88442e-08
-3.90398e-08
-3.92354e-08
-3.9431e-08
-3.96267e-08
-3.98224e-08
-4.00181e-08
-4.02139e-08
-4.04097e-08
-4.06056e-08
-4.08015e-08
-4.09974e-08
-4.11934e-08
-4.13895e-08
-4.15856e-08
-4.17817e-08
-4.19779e-08
-4.21741e-08
-4.23703e-08
-4.25667e-08
-4.2763e-08
-4.29594e-08
-4.31559e-08
-4.33524e-08
-4.35489e-08
-4.37455e-08
-4.39422e-08
-4.41389e-08
-4.43356e-08
-4.45324e-08
-4.47292e-08
-4.49261e-08
-4.51231e-08
-4.53201e-08
-4.55171e-08
-4.57142e-08
-4.59114e-08
-4.61086e-08
-4.63058e-08
-4.65031e-08
-4.67005e-08
-4.68979e-08
-4.70953e-08
-4.72929e-08
-4.74904e-08
-4.76881e-08
-4.78857e-08
-4.80835e-08
-4.82813e-08
-4.84792e-08
-4.8677e-08
-4.88751e-08
-4.90729e-08
-4.92712e-08
-4.94691e-08
-4.96675e-08
-4.98655e-08
-5.00641e-08
-5.02621e-08
-5.04609e-08
-5.0659e-08
-5.08579e-08
-5.1056e-08
-5.12552e-08
-5.14533e-08
-5.16527e-08
-5.18507e-08
-5.20506e-08
-5.22484e-08
-5.24487e-08
-5.26463e-08
-5.2847e-08
-5.30444e-08
-5.32457e-08
-5.34427e-08
-5.36447e-08
-5.38411e-08
-5.40441e-08
-5.42397e-08
-5.44438e-08
-5.46383e-08
-5.48439e-08
-5.50371e-08
-5.52445e-08
-5.54358e-08
-5.56456e-08
-5.58345e-08
-5.60473e-08
-5.62331e-08
-5.64497e-08
-5.66314e-08
-5.68529e-08
-5.70293e-08
-5.7257e-08
-5.74266e-08
-5.76623e-08
-5.78231e-08
-5.80691e-08
-5.82184e-08
-5.84776e-08
-5.86122e-08
-5.88882e-08
-5.90039e-08
-5.93015e-08
-5.93929e-08
-5.9718e-08
-5.97784e-08
-6.01386e-08
-6.01594e-08
-6.05642e-08
-6.05346e-08
-6.09958e-08
-6.09028e-08
-6.14347e-08
-6.1262e-08
-6.18824e-08
-6.16107e-08
-6.234e-08
-6.19469e-08
-6.28085e-08
-6.22696e-08
-6.32878e-08
-6.2579e-08
-6.37754e-08
-6.28793e-08
-6.42639e-08
-6.31823e-08
-6.47363e-08
-6.35168e-08
-6.5157e-08
-6.39473e-08
-6.54529e-08
-6.46154e-08
-6.54745e-08
-6.58348e-08
-6.4902e-08
-6.83172e-08
-6.29678e-08
-7.37206e-08
-5.73498e-08
-8.58943e-08
-3.76037e-08
-1.11945e-07
9.57228e-08
-6.82633e-08
-6.82633e-08
-0.146488
0.146488
0.0383105
0.0142341
0.00745605
0.00467278
0.00323058
0.00237656
0.00182711
0.00145309
0.00118766
0.000992916
0.000845992
0.000732396
0.000642629
0.000570283
0.000510941
0.000461494
0.000419715
0.000383979
0.000353085
0.000326124
0.000302405
0.000281388
0.00026265
0.000245849
0.000230713
0.000217017
0.000204573
0.000193228
0.000182849
0.000173326
0.000164564
0.00015648
0.000149004
0.000142075
0.000135638
0.000129647
0.000124059
0.000118838
0.000113952
0.000109372
0.000105071
0.000101027
9.72183e-05
9.36269e-05
9.02357e-05
8.70297e-05
8.39949e-05
8.11189e-05
7.83903e-05
7.57988e-05
7.33349e-05
7.099e-05
6.87561e-05
6.6626e-05
6.45931e-05
6.26511e-05
6.07944e-05
5.90179e-05
5.73166e-05
5.56861e-05
5.41223e-05
5.26214e-05
5.11798e-05
4.97942e-05
4.84615e-05
4.71788e-05
4.59435e-05
4.47532e-05
4.36054e-05
4.2498e-05
4.1429e-05
4.03965e-05
3.93986e-05
3.84338e-05
3.75005e-05
3.65971e-05
3.57223e-05
3.48748e-05
3.40534e-05
3.32568e-05
3.24842e-05
3.17343e-05
3.10064e-05
3.02993e-05
2.96123e-05
2.89445e-05
2.82952e-05
2.76637e-05
2.70493e-05
2.64513e-05
2.58691e-05
2.5302e-05
2.47495e-05
2.42111e-05
2.36864e-05
2.31747e-05
2.26757e-05
2.21886e-05
2.17128e-05
2.12478e-05
2.0793e-05
2.03478e-05
1.99113e-05
1.94829e-05
1.90614e-05
1.86459e-05
1.82355e-05
1.78294e-05
1.74267e-05
1.70268e-05
1.66289e-05
1.62322e-05
1.58361e-05
1.54402e-05
1.50442e-05
1.46481e-05
1.4252e-05
1.38561e-05
1.34605e-05
1.30651e-05
1.267e-05
1.22755e-05
1.18823e-05
1.14909e-05
1.11022e-05
1.07165e-05
1.03342e-05
9.95521e-06
9.57959e-06
9.20756e-06
8.83974e-06
8.47697e-06
8.12017e-06
7.77e-06
7.42672e-06
7.09016e-06
6.75998e-06
6.43593e-06
6.11818e-06
5.80735e-06
5.50433e-06
5.21003e-06
4.92499e-06
4.64923e-06
4.3823e-06
4.12349e-06
3.87221e-06
3.62826e-06
3.39197e-06
3.16401e-06
2.94517e-06
2.73602e-06
2.53667e-06
2.34674e-06
2.16549e-06
1.99213e-06
1.82609e-06
1.66718e-06
1.51566e-06
1.37208e-06
1.23702e-06
1.11087e-06
9.93652e-07
8.84962e-07
7.84085e-07
6.90168e-07
6.02433e-07
5.20343e-07
4.43685e-07
3.72551e-07
3.07239e-07
2.48106e-07
1.95422e-07
1.4927e-07
1.09491e-07
7.57003e-08
4.73366e-08
2.37453e-08
4.25475e-09
-1.17623e-08
-2.48526e-08
-3.54719e-08
-4.39943e-08
-5.07315e-08
-5.59544e-08
-5.99095e-08
-6.28282e-08
-6.49277e-08
-6.64075e-08
-6.74429e-08
-6.81795e-08
-6.87301e-08
-6.91752e-08
-6.95663e-08
-6.9932e-08
-7.02845e-08
-7.0626e-08
-7.09543e-08
-7.12662e-08
-7.15601e-08
-7.18363e-08
-7.20973e-08
-7.23469e-08
-7.25893e-08
-7.28284e-08
-7.30674e-08
-7.33082e-08
-7.3552e-08
-7.37988e-08
-7.40482e-08
-7.42996e-08
-7.4552e-08
-7.48049e-08
-7.50575e-08
-7.53097e-08
-7.55611e-08
-7.5812e-08
-7.60623e-08
-7.63122e-08
-7.65619e-08
-7.68114e-08
-7.70611e-08
-7.73108e-08
-7.75606e-08
-7.78105e-08
-7.80606e-08
-7.83107e-08
-7.85609e-08
-7.88112e-08
-7.90614e-08
-7.93117e-08
-7.95619e-08
-7.98122e-08
-8.00624e-08
-8.03127e-08
-8.05629e-08
-8.08131e-08
-8.10634e-08
-8.13137e-08
-8.1564e-08
-8.18143e-08
-8.20647e-08
-8.23151e-08
-8.25655e-08
-8.28159e-08
-8.30664e-08
-8.33169e-08
-8.35675e-08
-8.38181e-08
-8.40687e-08
-8.43194e-08
-8.45701e-08
-8.48208e-08
-8.50716e-08
-8.53225e-08
-8.55733e-08
-8.58243e-08
-8.60753e-08
-8.63263e-08
-8.65774e-08
-8.68285e-08
-8.70797e-08
-8.73309e-08
-8.75822e-08
-8.78335e-08
-8.8085e-08
-8.83364e-08
-8.85879e-08
-8.88395e-08
-8.90911e-08
-8.93428e-08
-8.95945e-08
-8.98463e-08
-9.00982e-08
-9.03501e-08
-9.0602e-08
-9.08541e-08
-9.11062e-08
-9.13583e-08
-9.16106e-08
-9.18629e-08
-9.21152e-08
-9.23677e-08
-9.26202e-08
-9.28727e-08
-9.31253e-08
-9.3378e-08
-9.36308e-08
-9.38836e-08
-9.41365e-08
-9.43894e-08
-9.46425e-08
-9.48956e-08
-9.51488e-08
-9.5402e-08
-9.56553e-08
-9.59086e-08
-9.61622e-08
-9.64156e-08
-9.66693e-08
-9.69229e-08
-9.71768e-08
-9.74304e-08
-9.76845e-08
-9.79383e-08
-9.81926e-08
-9.84464e-08
-9.87009e-08
-9.89548e-08
-9.92096e-08
-9.94635e-08
-9.97186e-08
-9.99725e-08
-1.00228e-07
-1.00482e-07
-1.00738e-07
-1.00991e-07
-1.01248e-07
-1.01501e-07
-1.01758e-07
-1.02011e-07
-1.02269e-07
-1.02522e-07
-1.0278e-07
-1.03033e-07
-1.03292e-07
-1.03543e-07
-1.03804e-07
-1.04054e-07
-1.04316e-07
-1.04566e-07
-1.0483e-07
-1.05077e-07
-1.05343e-07
-1.05588e-07
-1.05858e-07
-1.061e-07
-1.06373e-07
-1.06611e-07
-1.06889e-07
-1.07122e-07
-1.07407e-07
-1.07632e-07
-1.07925e-07
-1.08142e-07
-1.08445e-07
-1.0865e-07
-1.08967e-07
-1.09157e-07
-1.09492e-07
-1.09662e-07
-1.10019e-07
-1.10164e-07
-1.1055e-07
-1.10663e-07
-1.11085e-07
-1.11157e-07