# vtk DataFile Version 2.0
FlowField
ASCII
DATASET STRUCTURED_GRID
DIMENSIONS 400 1 200
POINTS 80000 float
0 0 0
0.08 0 0
0.16 0 0
0.24 0 0
0.32 0 0
0.4 0 0
0.48 0 0
0.56 0 0
0.64 0 0
0.72 0 0
0.8 0 0
0.88 0 0
0.96 0 0
1.04 0 0
1.12 0 0
1.2 0 0
1.28 0 0
1.36 0 0
1.44 0 0
1.52 0 0
1.6 0 0
1.68 0 0
1.76 0 0
1.84 0 0
1.92 0 0
2 0 0
2.08 0 0
2.16 0 0
2.24 0 0
2.32 0 0
2.4 0 0
2.48 0 0
2.56 0 0
2.64 0 0
2.72 0 0
2.8 0 0
2.88 0 0
2.96 0 0
3.04 0 0
3.12 0 0
3.2 0 0
3.28 0 0
3.36 0 0
3.44 0 0
3.52 0 0
3.6 0 0
3.68 0 0
3.76 0 0
3.84 0 0
3.92 0 0
4 0 0
4.08 0 0
4.16 0 0
4.24 0 0
4.32 0 0
4.4 0 0
4.48 0 0
4.56 0 0
4.64 0 0
4.72 0 0
4.8 0 0
4.88 0 0
4.96 0 0
5.04 0 0
5.12 0 0
5.2 0 0
5.28 0 0
5.36 0 0
5.44 0 0
5.52 0 0
5.6 0 0
5.68 0 0
5.76 0 0
5.84 0 0
5.92 0 0
6 0 0
6.08 0 0
6.16 0 0
6.24 0 0
6.32 0 0
6.4 0 0
6.48 0 0
6.56 0 0
6.64 0 0
6.72 0 0
6.8 0 0
6.88 0 0
6.96 0 0
7.04 0 0
7.12 0 0
7.2 0 0
7.28 0 0
7.36 0 0
7.44 0 0
7.52 0 0
7.6 0 0
7.68 0 0
7.76 0 0
7.84 0 0
7.92 0 0
8 0 0
8.08 0 0
8.16 0 0
8.24 0 0
8.32 0 0
8.4 0 0
8.48 0 0
8.56 0 0
8.64 0 0
8.72 0 0
8.8 0 0
8.88 0 0
8.96 0 0
9.04 0 0
9.12 0 0
9.2 0 0
9.28 0 0
9.36 0 0
9.44 0 0
9.52 0 0
9.6 0 0
9.68 0 0
9.76 0 0
9.84 0 0
9.92 0 0
10 0 0
10.08 0 0
10.16 0 0
10.24 0 0
10.32 0 0
10.4 0 0
10.48 0 0
10.56 0 0
10.64 0 0
10.72 0 0
10.8 0 0
10.88 0 0
10.96 0 0
11.04 0 0
11.12 0 0
11.2 0 0
11.28 0 0
11.36 0 0
11.44 0 0
11.52 0 0
11.6 0 0
11.68 0 0
11.76 0 0
11.84 0 0
11.92 0 0
12 0 0
12.08 0 0
12.16 0 0
12.24 0 0
12.32 0 0
12.4 0 0
12.48 0 0
12.56 0 0
12.64 0 0
12.72 0 0
12.8 0 0
12.88 0 0
12.96 0 0
13.04 0 0
13.12 0 0
13.2 0 0
13.28 0 0
13.36 0 0
13.44 0 0
13.52 0 0
13.6 0 0
13.68 0 0
13.76 0 0
13.84 0 0
13.92 0 0
14 0 0
14.08 0 0
14.16 0 0
14.24 0 0
14.32 0 0
14.4 0 0
14.48 0 0
14.56 0 0
14.64 0 0
14.72 0 0
14.8 0 0
14.88 0 0
14.96 0 0
15.04 0 0
15.12 0 0
15.2 0 0
15.28 0 0
15.36 0 0
15.44 0 0
15.52 0 0
15.6 0 0
15.68 0 0
15.76 0 0
15.84 0 0
15.92 0 0
16 0 0
16.08 0 0
16.16 0 0
16.24 0 0
16.32 0 0
16.4 0 0
16.48 0 0
16.56 0 0
16.64 0 0
16.72 0 0
16.8 0 0
16.88 0 0
16.96 0 0
17.04 0 0
17.12 0 0
17.2 0 0
17.28 0 0
17.36 0 0
17.44 0 0
17.52 0 0
17.6 0 0
17.68 0 0
17.76 0 0
17.84 0 0
17.92 0 0
18 0 0
18.08 0 0
18.16 0 0
18.24 0 0
18.32 0 0
18.4 0 0
18.48 0 0
18.56 0 0
18.64 0 0
18.72 0 0
18.8 0 0
18.88 0 0
18.96 0 0
19.04 0 0
19.12 0 0
19.2 0 0
19.28 0 0
19.36 0 0
19.44 0 0
19.52 0 0
19.6 0 0
19.68 0 0
19.76 0 0
19.84 0 0
19.92 0 0
20 0 0
20.08 0 0
20.16 0 0
20.24 0 0
20.32 0 0
20.4 0 0
20.48 0 0
20.56 0 0
20.64 0 0
20.72 0 0
20.8 0 0
20.88 0 0
20.96 0 0
21.04 0 0
21.12 0 0
21.2 0 0
21.28 0 0
21.36 0 0
21.44 0 0
21.52 0 0
21.6 0 0
21.68 0 0
21.76 0 0
21.84 0 0
21.92 0 0
22 0 0
22.08 0 0
22.16 0 0
22.24 0 0
22.32 0 0
22.4 0 0
22.48 0 0
22.56 0 0
22.64 0 0
22.72 0 0
22.8 0 0
22.88 0 0
22.96 0 0
23.04 0 0
23.12 0 0
23.2 0 0
23.28 0 0
23.36 0 0
23.44 0 0
23.52 0 0
23.6 0 0
23.68 0 0
23.76 0 0
23.84 0 0
23.92 0 0
24 0 0
24.08 0 0
24.16 0 0
24.24 0 0
24.32 0 0
24.4 0 0
24.48 0 0
24.56 0 0
24.64 0 0
24.72 0 0
24.8 0 0
24.88 0 0
24.96 0 0
25.04 0 0
25.12 0 0
25.2 0 0
25.28 0 0
25.36 0 0
25.44 0 0
25.52 0 0
25.6 0 0
25.68 0 0
25.76 0 0
25.84 0 0
25.92 0 0
26 0 0
26.08 0 0
26.16 0 0
26.24 0 0
26.32 0 0
26.4 0 0
26.48 0 0
26.56 0 0
26.64 0 0
26.72 0 0
26.8 0 0
26.88 0 0
26.96 0 0
27.04 0 0
27.12 0 0
27.2 0 0
27.28 0 0
27.36 0 0
27.44 0 0
27.52 0 0
27.6 0 0
27.68 0 0
27.76 0 0
27.84 0 0
27.92 0 0
28 0 0
28.08 0 0
28.16 0 0
28.24 0 0
28.32 0 0
28.4 0 0
28.48 0 0
28.56 0 0
28.64 0 0
28.72 0 0
28.8 0 0
28.88 0 0
28.96 0 0
29.04 0 0
29.12 0 0
29.2 0 0
29.28 0 0
29.36 0 0
29.44 0 0
29.52 0 0
29.6 0 0
29.68 0 0
29.76 0 0
29.84 0 0
29.92 0 0
30 0 0
30.08 0 0
30.16 0 0
30.24 0 0
30.32 0 0
30.4 0 0
30.48 0 0
30.56 0 0
30.64 0 0
30.72 0 0
30.8 0 0
30.88 0 0
30.96 0 0
31.04 0 0
31.12 0 0
31.2 0 0
31.28 0 0
31.36 0 0
31.44 0 0
31.52 0 0
31.6 0 0
31.68 0 0
31.76 0 0
31.84 0 0
31.92 0 0
0 0.005 0
0.08 0.005 0
0.16 0.005 0
0.24 0.005 0
0.32 0.005 0
0.4 0.005 0
0.48 0.005 0
0.56 0.005 0
0.64 0.005 0
0.72 0.005 0
0.8 0.005 0
0.88 0.005 0
0.96 0.005 0
1.04 0.005 0
1.12 0.005 0
1.2 0.005 0
1.28 0.005 0
1.36 0.005 0
1.44 0.005 0
1.52 0.005 0
1.6 0.005 0
1.68 0.005 0
1.76 0.005 0
1.84 0.005 0
1.92 0.005 0
2 0.005 0
2.08 0.005 0
2.16 0.005 0
2.24 0.005 0
2.32 0.005 0
2.4 0.005 0
2.48 0.005 0
2.56 0.005 0
2.64 0.005 0
2.72 0.005 0
2.8 0.005 0
2.88 0.005 0
2.96 0.005 0
3.04 0.005 0
3.12 0.005 0
3.2 0.005 0
3.28 0.005 0
3.36 0.005 0
3.44 0.005 0
3.52 0.005 0
3.6 0.005 0
3.68 0.005 0
3.76 0.005 0
3.84 0.005 0
3.92 0.005 0
4 0.005 0
4.08 0.005 0
4.16 0.005 0
4.24 0.005 0
4.32 0.005 0
4.4 0.005 0
4.48 0.005 0
4.56 0.005 0
4.64 0.005 0
4.72 0.005 0
4.8 0.005 0
4.88 0.005 0
4.96 0.005 0
5.04 0.005 0
5.12 0.005 0
5.2 0.005 0
5.28 0.005 0
5.36 0.005 0
5.44 0.005 0
5.52 0.005 0
5.6 0.005 0
5.68 0.005 0
5.76 0.005 0
5.84 0.005 0
5.92 0.005 0
6 0.005 0
6.08 0.005 0
6.16 0.005 0
6.24 0.005 0
6.32 0.005 0
6.4 0.005 0
6.48 0.005 0
6.56 0.005 0
6.64 0.005 0
6.72 0.005 0
6.8 0.005 0
6.88 0.005 0
6.96 0.005 0
7.04 0.005 0
7.12 0.005 0
7.2 0.005 0
7.28 0.005 0
7.36 0.005 0
7.44 0.005 0
7.52 0.005 0
7.6 0.005 0
7.68 0.005 0
7.76 0.005 0
7.84 0.005 0
7.92 0.005 0
8 0.005 0
8.08 0.005 0
8.16 0.005 0
8.24 0.005 0
8.32 0.005 0
8.4 0.005 0
8.48 0.005 0
8.56 0.005 0
8.64 0.005 0
8.72 0.005 0
8.8 0.005 0
8.88 0.005 0
8.96 0.005 0
9.04 0.005 0
9.12 0.005 0
9.2 0.005 0
9.28 0.005 0
9.36 0.005 0
9.44 0.005 0
9.52 0.005 0
9.6 0.005 0
9.68 0.005 0
9.76 0.005 0
9.84 0.005 0
9.92 0.005 0
10 0.005 0
10.08 0.005 0
10.16 0.005 0
10.24 0.005 0
10.32 0.005 0
10.4 0.005 0
10.48 0.005 0
10.56 0.005 0
10.64 0.005 0
10.72 0.005 0
10.8 0.005 0
10.88 0.005 0
10.96 0.005 0
11.04 0.005 0
11.12 0.005 0
11.2 0.005 0
11.28 0.005 0
11.36 0.005 0
11.44 0.005 0
11.52 0.005 0
11.6 0.005 0
11.68 0.005 0
11.76 0.005 0
11.84 0.005 0
11.92 0.005 0
12 0.005 0
12.08 0.005 0
12.16 0.005 0
12.24 0.005 0
12.32 0.005 0
12.4 0.005 0
12.48 0.005 0
12.56 0.005 0
12.64 0.005 0
12.72 0.005 0
12.8 0.005 0
12.88 0.005 0
12.96 0.005 0
13.04 0.005 0
13.12 0.005 0
13.2 0.005 0
13.28 0.005 0
13.36 0.005 0
13.44 0.005 0
13.52 0.005 0
13.6 0.005 0
13.68 0.005 0
13.76 0.005 0
13.84 0.005 0
13.92 0.005 0
14 0.005 0
14.08 0.005 0
14.16 0.005 0
14.24 0.005 0
14.32 0.005 0
14.4 0.005 0
14.48 0.005 0
14.56 0.005 0
14.64 0.005 0
14.72 0.005 0
14.8 0.005 0
14.88 0.005 0
14.96 0.005 0
15.04 0.005 0
15.12 0.005 0
15.2 0.005 0
15.28 0.005 0
15.36 0.005 0
15.44 0.005 0
15.52 0.005 0
15.6 0.005 0
15.68 0.005 0
15.76 0.005 0
15.84 0.005 0
15.92 0.005 0
16 0.005 0
16.08 0.005 0
16.16 0.005 0
16.24 0.005 0
16.32 0.005 0
16.4 0.005 0
16.48 0.005 0
16.56 0.005 0
16.64 0.005 0
16.72 0.005 0
16.8 0.005 0
16.88 0.005 0
16.96 0.005 0
17.04 0.005 0
17.12 0.005 0
17.2 0.005 0
17.28 0.005 0
17.36 0.005 0
17.44 0.005 0
17.52 0.005 0
17.6 0.005 0
17.68 0.005 0
17.76 0.005 0
17.84 0.005 0
17.92 0.005 0
18 0.005 0
18.08 0.005 0
18.16 0.005 0
18.24 0.005 0
18.32 0.005 0
18.4 0.005 0
18.48 0.005 0
18.56 0.005 0
18.64 0.005 0
18.72 0.005 0
18.8 0.005 0
18.88 0.005 0
18.96 0.005 0
19.04 0.005 0
19.12 0.005 0
19.2 0.005 0
19.28 0.005 0
19.36 0.005 0
19.44 0.005 0
19.52 0.005 0
19.6 0.005 0
19.68 0.005 0
19.76 0.005 0
19.84 0.005 0
19.92 0.005 0
20 0.005 0
20.08 0.005 0
20.16 0.005 0
20.24 0.005 0
20.32 0.005 0
20.4 0.005 0
20.48 0.005 0
20.56 0.005 0
20.64 0.005 0
20.72 0.005 0
20.8 0.005 0
20.88 0.005 0
20.96 0.005 0
21.04 0.005 0
21.12 0.005 0
21.2 0.005 0
21.28 0.005 0
21.36 0.005 0
21.44 0.005 0
21.52 0.005 0
21.6 0.005 0
21.68 0.005 0
21.76 0.005 0
21.84 0.005 0
21.92 0.005 0
22 0.005 0
22.08 0.005 0
22.16 0.005 0
22.24 0.005 0
22.32 0.005 0
22.4 0.005 0
22.48 0.005 0
22.56 0.005 0
22.64 0.005 0
22.72 0.005 0
22.8 0.005 0
22.88 0.005 0
22.96 0.005 0
23.04 0.005 0
23.12 0.005 0
23.2 0.005 0
23.28 0.005 0
23.36 0.005 0
23.44 0.005 0
23.52 0.005 0
23.6 0.005 0
23.68 0.005 0
23.76 0.005 0
23.84 0.005 0
23.92 0.005 0
24 0.005 0
24.08 0.005 0
24.16 0.005 0
24.24 0.005 0
24.32 0.005 0
24.4 0.005 0
24.48 0.005 0
24.56 0.005 0
24.64 0.005 0
24.72 0.005 0
24.8 0.005 0
24.88 0.005 0
24.96 0.005 0
25.04 0.005 0
25.12 0.005 0
25.2 0.005 0
25.28 0.005 0
25.36 0.005 0
25.44 0.005 0
25.52 0.005 0
25.6 0.005 0
25.68 0.005 0
25.76 0.005 0
25.84 0.005 0
25.92 0.005 0
26 0.005 0
26.08 0.005 0
26.16 0.005 0
26.24 0.005 0
26.32 0.005 0
26.4 0.005 0
26.48 0.005 0
26.56 0.005 0
26.64 0.005 0
26.72 0.005 0
26.8 0.005 0
26.88 0.005 0
26.96 0.005 0
27.04 0.005 0
27.12 0.005 0
27.2 0.005 0
27.28 0.005 0
27.36 0.005 0
27.44 0.005 0
27.52 0.005 0
27.6 0.005 0
27.68 0.005 0
27.76 0.005 0
27.84 0.005 0
27.92 0.005 0
28 0.005 0
28.08 0.005 0
28.16 0.005 0
28.24 0.005 0
28.32 0.005 0
28.4 0.005 0
28.48 0.005 0
28.56 0.005 0
28.64 0.005 0
28.72 0.005 0
28.8 0.005 0
28.88 0.005 0
28.96 0.005 0
29.04 0.005 0
29.12 0.005 0
29.2 0.005 0
29.28 0.005 0
29.36 0.005 0
29.44 0.005 0
29.52 0.005 0
29.6 0.005 0
29.68 0.005 0
29.76 0.005 0
29.84 0.005 0
29.92 0.005 0
30 0.005 0
30.08 0.005 0
30.16 0.005 0
30.24 0.005 0
30.32 0.005 0
30.4 0.005 0
30.48 0.005 0
30.56 0.005 0
30.64 0.005 0
30.72 0.005 0
30.8 0.005 0
30.88 0.005 0
30.96 0.005 0
31.04 0.005 0
31.12 0.005 0
31.2 0.005 0
31.28 0.005 0
31.36 0.005 0
31.44 0.005 0
31.52 0.005 0
31.6 0.005 0
31.68 0.005 0
31.76 0.005 0
31.84 0.005 0
31.92 0.005 0
0 0.01 0
0.08 0.01 0
0.16 0.01 0
0.24 0.01 0
0.32 0.01 0
0.4 0.01 0
0.48 0.01 0
0.56 0.01 0
0.64 0.01 0
0.72 0.01 0
0.8 0.01 0
0.88 0.01 0
0.96 0.01 0
1.04 0.01 0
1.12 0.01 0
1.2 0.01 0
1.28 0.01 0
1.36 0.01 0
1.44 0.01 0
1.52 0.01 0
1.6 0.01 0
1.68 0.01 0
1.76 0.01 0
1.84 0.01 0
1.92 0.01 0
2 0.01 0
2.08 0.01 0
2.16 0.01 0
2.24 0.01 0
2.32 0.01 0
2.4 0.01 0
2.48 0.01 0
2.56 0.01 0
2.64 0.01 0
2.72 0.01 0
2.8 0.01 0
2.88 0.01 0
2.96 0.01 0
3.04 0.01 0
3.12 0.01 0
3.2 0.01 0
3.28 0.01 0
3.36 0.01 0
3.44 0.01 0
3.52 0.01 0
3.6 0.01 0
3.68 0.01 0
3.76 0.01 0
3.84 0.01 0
3.92 0.01 0
4 0.01 0
4.08 0.01 0
4.16 0.01 0
4.24 0.01 0
4.32 0.01 0
4.4 0.01 0
4.48 0.01 0
4.56 0.01 0
4.64 0.01 0
4.72 0.01 0
4.8 0.01 0
4.88 0.01 0
4.96 0.01 0
5.04 0.01 0
5.12 0.01 0
[...]
POINT_DATA 80000

SCALARS u float 1
LOOKUP_TABLE default
0
-0.131663
-0.0682691
-0.0522958
-0.0444196
-0.0395765
-0.0362594
-0.0338323
-0.0319723
-0.0304956
-0.0292895
-0.0282812
-0.0274217
-0.026677
-0.026023
-0.0254421
-0.0249212
-0.0244503
-0.0240216
-0.0236292
-0.0232681
-0.0229344
-0.0226248
-0.0223366
-0.0220674
-0.0218154
-0.0215789
-0.0213563
-0.0211465
-0.0209482
-0.0207606
-0.0205826
-0.0204137
-0.020253
-0.0201
-0.0199541
-0.0198147
-0.0196815
-0.0195541
-0.019432
-0.0193149
-0.0192024
-0.0190944
-0.0189906
-0.0188906
-0.0187944
-0.0187016
-0.0186121
-0.0185257
-0.0184422
-0.0183616
-0.0182836
-0.0182082
-0.0181352
-0.0180644
-0.0179958
-0.0179294
-0.0178649
-0.0178023
-0.0177416
-0.0176826
-0.0176253
-0.0175695
-0.0175154
-0.0174627
-0.0174114
-0.0173615
-0.0173129
-0.0172656
-0.0172195
-0.0171746
-0.0171309
-0.0170882
-0.0170466
-0.017006
-0.0169664
-0.0169278
-0.0168901
-0.0168533
-0.0168173
-0.0167822
-0.016748
-0.0167145
-0.0166818
-0.0166499
-0.0166186
-0.0165881
-0.0165583
-0.0165291
-0.0165006
-0.0164727
-0.0164454
-0.0164188
-0.0163927
-0.0163672
-0.0163422
-0.0163178
-0.0162939
-0.0162705
-0.0162476
-0.0162252
-0.0162033
-0.0161818
-0.0161608
-0.0161403
-0.0161201
-0.0161004
-0.0160811
-0.0160622
-0.0160437
-0.0160256
-0.0160079
-0.0159905
-0.0159735
-0.0159568
-0.0159405
-0.0159245
-0.0159089
-0.0158935
-0.0158785
-0.0158638
-0.0158494
-0.0158353
-0.0158214
-0.0158079
-0.0157946
-0.0157816
-0.0157689
-0.0157564
-0.0157442
-0.0157322
-0.0157205
-0.015709
-0.0156977
-0.0156867
-0.0156758
-0.0156653
-0.0156549
-0.0156447
-0.0156347
-0.015625
-0.0156154
-0.0156061
-0.0155969
-0.0155879
-0.0155791
-0.0155705
-0.0155621
-0.0155538
-0.0155458
-0.0155379
-0.0155302
-0.0155227
-0.0155154
-0.0155082
-0.0155012
-0.0154944
-0.0154878
-0.0154813
-0.015475
-0.0154689
-0.0154629
-0.0154572
-0.0154516
-0.0154461
-0.0154409
-0.0154358
-0.0154308
-0.0154261
-0.0154215
-0.015417
-0.0154128
-0.0154087
-0.0154047
-0.0154009
-0.0153973
-0.0153938
-0.0153904
-0.0153872
-0.0153842
-0.0153813
-0.0153785
-0.0153759
-0.0153734
-0.015371
-0.0153687
-0.0153666
-0.0153646
-0.0153627
-0.0153609
-0.0153593
-0.0153577
-0.0153562
-0.0153548
-0.0153536
-0.0153524
-0.0153513
-0.0153503
-0.0153493
-0.0153484
-0.0153477
-0.0153469
-0.0153463
-0.0153457
-0.0153451
-0.0153446
-0.0153442
-0.0153438
-0.0153434
-0.0153431
-0.0153428
-0.0153426
-0.0153424
-0.0153422
-0.0153421
-0.015342
-0.0153419
-0.0153418
-0.0153417
-0.0153417
-0.0153416
-0.0153416
-0.0153416
-0.0153416
-0.0153416
-0.0153417
-0.0153417
-0.0153417
-0.0153418
-0.0153418
-0.0153418
-0.0153419
-0.0153419
-0.015342
-0.015342
-0.0153421
-0.0153421
-0.0153422
-0.0153422
-0.0153423
-0.0153423
-0.0153424
-0.0153424
-0.0153425
-0.0153425
-0.0153426
-0.0153426
-0.0153427
-0.0153427
-0.0153428
-0.0153428
-0.0153429
-0.0153429
-0.015343
-0.015343
-0.0153431
-0.0153431
-0.0153432
-0.0153432
-0.0153433
-0.0153433
-0.0153434
-0.0153434
-0.0153435
-0.0153435
-0.0153436
-0.0153436
-0.0153437
-0.0153437
-0.0153438
-0.0153438
-0.0153439
-0.0153439
-0.015344
-0.015344
-0.0153441
-0.0153441
-0.0153442
-0.0153442
-0.0153443
-0.0153443
-0.0153444
-0.0153444
-0.0153445
-0.0153445
-0.0153446
-0.0153446
-0.0153447
-0.0153447
-0.0153448
-0.0153448
-0.0153449
-0.015345
-0.015345
-0.0153451
-0.0153451
-0.0153452
-0.0153452
-0.0153453
-0.0153453
-0.0153454
-0.0153454
-0.0153455
-0.0153455
-0.0153456
-0.0153456
-0.0153457
-0.0153457
-0.0153458
-0.0153458
-0.0153459
-0.0153459
-0.015346
-0.015346
-0.0153461
-0.0153461
-0.0153462
-0.0153463
-0.0153463
-0.0153464
-0.0153464
-0.0153465
-0.0153465
-0.0153466
-0.0153466
-0.0153467
-0.0153467
-0.0153468
-0.0153468
-0.0153469
-0.0153469
-0.015347
-0.015347
-0.0153471
-0.0153471
-0.0153472
-0.0153472
-0.0153473
-0.0153474
-0.0153474
-0.0153475
-0.0153475
-0.0153476
-0.0153476
-0.0153477
-0.0153477
-0.0153478
-0.0153478
-0.0153479
-0.0153479
-0.015348
-0.015348
-0.0153481
-0.0153482
-0.0153482
-0.0153483
-0.0153483
-0.0153484
-0.0153484
-0.0153485
-0.0153485
-0.0153486
-0.0153486
-0.0153487
-0.0153487
-0.0153488
-0.0153488
-0.0153489
-0.015349
-0.015349
-0.0153491
-0.0153491
-0.0153492
-0.0153492
-0.0153493
-0.0153493
-0.0153494
-0.0153494
-0.0153495
-0.0153495
-0.0153496
-0.0153497
-0.0153497
-0.0153498
-0.0153498
-0.0153499
-0.0153499
-0.01535
-0.01535
-0.0153501
-0.0153501
-0.0153502
-0.0153503
-0.0153503
-0.0153504
-0.0153504
-0.0153505
-0.0153504
-0.0153504
-0.0153504
1
0.131663
0.0682691
0.0522958
0.0444196
0.0395765
0.0362594
0.0338323
0.0319723
0.0304956
0.0292895
0.0282812
0.0274217
0.026677
0.026023
0.0254421
0.0249212
0.0244503
0.0240216
0.0236292
0.0232681
0.0229344
0.0226248
0.0223366
0.0220674
0.0218154
0.0215789
0.0213563
0.0211465
0.0209482
0.0207606
0.0205826
0.0204137
0.020253
0.0201
0.0199541
0.0198147
0.0196815
0.0195541
0.019432
0.0193149
0.0192024
0.0190944
0.0189906
0.0188906
0.0187944
0.0187016
0.0186121
0.0185257
0.0184422
0.0183616
0.0182836
0.0182082
0.0181352
0.0180644
0.0179958
0.0179294
0.0178649
0.0178023
0.0177416
0.0176826
0.0176253
0.0175695
0.0175154
0.0174627
0.0174114
0.0173615
0.0173129
0.0172656
0.0172195
0.0171746
0.0171309
0.0170882
0.0170466
0.017006
0.0169664
0.0169278
0.0168901
0.0168533
0.0168173
0.0167822
0.016748
0.0167145
0.0166818
0.0166499
0.0166186
0.0165881
0.0165583
0.0165291
0.0165006
0.0164727
0.0164454
0.0164188
0.0163927
0.0163672
0.0163422
0.0163178
0.0162939
0.0162705
0.0162476
0.0162252
0.0162033
0.0161818
0.0161608
0.0161403
0.0161201
0.0161004
0.0160811
0.0160622
0.0160437
0.0160256
0.0160079
0.0159905
0.0159735
0.0159568
0.0159405
0.0159245
0.0159089
0.0158935
0.0158785
0.0158638
0.0158494
0.0158353
0.0158214
0.0158079
0.0157946
0.0157816
0.0157689
0.0157564
0.0157442
0.0157322
0.0157205
0.015709
0.0156977
0.0156867
0.0156758
0.0156653
0.0156549
0.0156447
0.0156347
0.015625
0.0156154
0.0156061
0.0155969
0.0155879
0.0155791
0.0155705
0.0155621
0.0155538
0.0155458
0.0155379
0.0155302
0.0155227
0.0155154
0.0155082
0.0155012
0.0154944
0.0154878
0.0154813
0.015475
0.0154689
0.0154629
0.0154572
0.0154516
0.0154461
0.0154409
0.0154358
0.0154308
0.0154261
0.0154215
0.015417
0.0154128
0.0154087
0.0154047
0.0154009
0.0153973
0.0153938
0.0153904
0.0153872
0.0153842
0.0153813
0.0153785
0.0153759
0.0153734
0.015371
0.0153687
0.0153666
0.0153646
0.0153627
0.0153609
0.0153593
0.0153577
0.0153562
0.0153548
0.0153536
0.0153524
0.0153513
0.0153503
0.0153493
0.0153484
0.0153477
0.0153469
0.0153463
0.0153457
0.0153451
0.0153446
0.0153442
0.0153438
0.0153434
0.0153431
0.0153428
0.0153426
0.0153424
0.0153422
0.0153421
0.015342
0.0153419
0.0153418
0.0153417
0.0153417
0.0153416
0.0153416
0.0153416
0.0153416
0.0153416
0.0153417
0.0153417
0.0153417
0.0153418
0.0153418
0.0153418
0.0153419
0.0153419
0.015342
0.015342
0.0153421
0.0153421
0.0153422
0.0153422
0.0153423
0.0153423
0.0153424
0.0153424
0.0153425
0.0153425
0.0153426
0.0153426
0.0153427
0.0153427
0.0153428
0.0153428
0.0153429
0.0153429
0.015343
0.015343
0.0153431
0.0153431
0.0153432
0.0153432
0.0153433
0.0153433
0.0153434
0.0153434
0.0153435
0.0153435
0.0153436
0.0153436
0.0153437
0.0153437
0.0153438
0.0153438
0.0153439
0.0153439
0.015344
0.015344
0.0153441
0.0153441
0.0153442
0.0153442
0.0153443
0.0153443
0.0153444
0.0153444
0.0153445
0.0153445
0.0153446
0.0153446
0.0153447
0.0153447
0.0153448
0.0153448
0.0153449
0.015345
0.015345
0.0153451
0.0153451
0.0153452
0.0153452
0.0153453
0.0153453
0.0153454
0.0153454
0.0153455
0.0153455
0.0153456
0.0153456
0.0153457
0.0153457
0.0153458
0.0153458
0.0153459
0.0153459
0.015346
0.015346
0.0153461
0.0153461
0.0153462
0.0153463
0.0153463
0.0153464
0.0153464
0.0153465
0.0153465
0.0153466
0.0153466
0.0153467
0.0153467
0.0153468
0.0153468
0.0153469
0.0153469
0.015347
0.015347
0.0153471
0.0153471
0.0153472
0.0153472
0.0153473
0.0153474
0.0153474
0.0153475
0.0153475
0.0153476
0.0153476
0.0153477
0.0153477
0.0153478
0.0153478
0.0153479
0.0153479
0.015348
0.015348
0.0153481
0.0153482
0.0153482
0.0153483
0.0153483
0.0153484
0.0153484
0.0153485
0.0153485
0.0153486
0.0153486
0.0153487
0.0153487
0.0153488
0.0153488
0.0153489
0.015349
0.015349
0.0153491
0.0153491
0.0153492
0.0153492
0.0153493
0.0153493
0.0153494
0.0153494
0.0153495
0.0153495
0.0153496
0.0153497
0.0153497
0.0153498
0.0153498
0.0153499
0.0153499
0.01535
0.01535
0.0153501
0.0153501
0.0153502
0.0153503
0.0153503
0.0153504
0.0153504
0.0153505
0.0153504
0.0153504
0.0153504
1
0.344884
0.200667
0.154967
0.131894
0.117598
0.107767
0.100557
0.0950241
0.0906282
0.087037
0.084035
0.0814769
0.0792616
0.0773172
0.075591
0.0740438
0.0726458
0.0713739
0.0702099
0.0691393
0.0681501
0.0672327
0.0663789
0.0655819
0.0648357
0.0641353
0.0634765
0.0628553
0.0622686
0.0617133
0.0611869
0.0606871
0.0602118
0.0597592
0.0593276
0.0589155
0.0585216
0.0581447
0.0577836
0.0574374
0.0571051
0.0567858
0.0564788
0.0561833
0.0558988
0.0556246
0.0553601
0.0551048
0.0548582
0.0546199
0.0543895
0.0541666
0.0539509
0.0537418
0.0535393
0.053343
0.0531525
0.0529677
0.0527883
0.052614
0.0524447
0.0522802
0.0521202
0.0519646
0.0518132
0.0516659
0.0515224
0.0513827
0.0512467
0.0511141
0.0509849
0.0508589
0.0507361
0.0506163
0.0504994
0.0503854
0.0502741
0.0501655
0.0500595
0.0499559
0.0498548
0.049756
0.0496595
0.0495653
0.0494731
0.0493831
0.0492951
0.049209
0.0491249
0.0490427
0.0489622
0.0488835
0.0488066
0.0487313
0.0486577
0.0485856
0.0485151
0.0484462
0.0483787
0.0483126
0.0482479
0.0481847
0.0481227
0.0480621
0.0480027
0.0479446
0.0478877
0.047832
0.0477774
0.047724
0.0476717
0.0476205
0.0475703
0.0475212
0.0474731
0.0474259
0.0473798
0.0473346
0.0472903
0.0472469
0.0472045
0.0471629
0.0471221
0.0470822
0.047043
0.0470047
0.0469672
0.0469304
0.0468944
0.0468591
0.0468245
0.0467906
0.0467574
0.0467249
0.046693
0.0466618
0.0466312
0.0466013
0.0465719
0.0465432
0.046515
0.0464874
0.0464604
0.046434
0.0464081
0.0463828
0.046358
0.0463338
0.0463101
0.0462869
0.0462643
0.0462422
0.0462206
0.0461996
0.046179
0.046159
0.0461396
0.0461206
0.0461021
0.0460842
0.0460668
0.0460499
0.0460335
0.0460176
0.0460022
0.0459873
0.0459729
0.045959
0.0459456
0.0459326
0.0459202
0.0459082
0.0458966
0.0458856
0.045875
0.0458648
0.0458551
0.0458458
0.045837
0.0458285
0.0458205
0.0458128
0.0458056
0.0457987
0.0457922
0.045786
0.0457802
0.0457747
0.0457696
0.0457648
0.0457603
0.045756
0.0457521
0.0457484
0.045745
0.0457419
0.0457389
0.0457362
0.0457338
0.0457315
0.0457294
0.0457275
0.0457258
0.0457243
0.0457229
0.0457216
0.0457205
0.0457195
0.0457187
0.0457179
0.0457173
0.0457167
0.0457162
0.0457158
0.0457155
0.0457152
0.045715
0.0457148
0.0457147
0.0457146
0.0457146
0.0457146
0.0457146
0.0457147
0.0457147
0.0457148
0.0457149
0.045715
0.0457151
0.0457152
0.0457154
0.0457155
0.0457156
0.0457158
0.0457159
0.0457161
0.0457162
0.0457164
0.0457165
0.0457167
0.0457168
0.045717
0.0457171
0.0457173
0.0457174
0.0457176
0.0457177
0.0457179
0.045718
0.0457182
0.0457183
0.0457185
0.0457186
0.0457188
0.0457189
0.0457191
0.0457192
0.0457194
0.0457195
0.0457197
0.0457198
0.04572
0.0457201
0.0457203
0.0457204
0.0457206
0.0457207
0.0457209
0.045721
0.0457212
0.0457213
0.0457215
0.0457217
0.0457218
0.045722
0.0457221
0.0457223
0.0457224
0.0457226
0.0457227
0.0457229
0.045723
0.0457232
0.0457233
0.0457235
0.0457236
0.0457238
0.0457239
0.0457241
0.0457243
0.0457244
0.0457246
0.0457247
0.0457249
0.045725
0.0457252
0.0457253
0.0457255
0.0457256
0.0457258
0.045726
0.0457261
0.0457263
0.0457264
0.0457266
0.0457267
0.0457269
0.045727
0.0457272
0.0457273
0.0457275
0.0457277
0.0457278
0.045728
0.0457281
0.0457283
0.0457284
0.0457286
0.0457287
0.0457289
0.0457291
0.0457292
0.0457294
0.0457295
0.0457297
0.0457298
0.04573
0.0457302
0.0457303
0.0457305
0.0457306
0.0457308
0.0457309
0.0457311
0.0457313
0.0457314
0.0457316
0.0457317
0.0457319
0.045732
0.0457322
0.0457324
0.0457325
0.0457327
0.0457328
0.045733
0.0457331
0.0457333
0.0457335
0.0457336
0.0457338
0.0457339
0.0457341
0.0457343
0.0457344
0.0457346
0.0457347
0.0457349
0.0457351
0.0457352
0.0457354
0.0457355
0.0457357
0.0457359
0.045736
0.0457362
0.0457363
0.0457365
0.0457367
0.0457368
0.045737
0.0457371
0.0457373
0.0457375
0.0457376
0.0457378
0.0457379
0.0457381
0.0457383
0.0457384
0.0457386
0.0457387
0.0457389
0.0457391
0.0457392
0.0457394
0.0457395
0.0457397
0.0457399
0.04574
0.0457402
0.0457404
0.0457405
0.0457407
0.0457408
0.0457411
0.0457409
0.0457409
0.0457409
1
0.518765
0.327401
0.255347
0.217848
0.194403
0.178211
0.166306
0.157157
0.149883
0.143938
0.138968
0.134734
0.131068
0.127852
0.124998
0.122441
0.120131
0.118031
0.116109
0.114342
0.11271
0.111196
0.109788
0.108473
0.107243
0.106088
0.105002
0.103978
0.103011
0.102096
0.101229
0.100405
0.0996221
0.0988764
0.0981653
0.0974865
0.0968377
0.0962169
0.0956222
0.0950519
0.0945046
0.0939788
0.0934733
0.0929868
0.0925183
0.0920667
0.0916312
0.0912109
0.0908051
0.0904128
0.0900336
0.0896666
0.0893114
0.0889674
0.0886341
0.0883109
0.0879975
0.0876933
0.0873981
0.0871113
0.0868327
0.086562
0.0862987
0.0860427
0.0857936
0.0855512
0.0853153
0.0850854
0.0848616
0.0846435
0.084431
0.0842238
0.0840217
0.0838247
0.0836325
0.0834449
0.0832619
0.0830833
0.0829089
0.0827386
0.0825723
0.0824099
0.0822512
0.0820962
0.0819447
0.0817966
0.0816519
0.0815105
0.0813721
0.0812369
0.0811047
0.0809753
0.0808488
0.0807251
0.080604
0.0804856
0.0803697
0.0802563
0.0801454
0.0800368
0.0799305
0.0798265
0.0797247
0.079625
0.0795275
0.079432
0.0793384
0.0792469
0.0791572
0.0790695
0.0789835
0.0788993
0.0788169
0.0787362
0.0786571
0.0785797
0.0785039
0.0784296
0.0783568
0.0782856
0.0782158
0.0781474
0.0780805
0.0780149
0.0779506
0.0778876
0.077826
0.0777656
0.0777064
0.0776484
0.0775916
0.0775359
0.0774814
0.077428
0.0773756
0.0773244
0.0772741
0.0772249
0.0771767
0.0771295
0.0770833
0.077038
0.0769937
0.0769503
0.0769078
0.0768663
0.0768256
0.0767859
0.076747
0.076709
0.0766719
0.0766357
0.0766003
0.0765659
0.0765322
0.0764995
0.0764676
0.0764365
0.0764063
0.076377
0.0763485
0.0763209
0.076294
0.0762681
0.0762429
0.0762186
0.0761951
0.0761724
0.0761505
0.0761294
0.0761091
0.0760896
0.0760708
0.0760528
0.0760355
0.076019
0.0760032
0.0759881
0.0759737
0.07596
0.0759469
0.0759345
0.0759228
0.0759116
0.0759011
0.0758911
0.0758817
0.0758729
0.0758646
0.0758568
0.0758495
0.0758427
0.0758363
0.0758304
0.0758249
0.0758199
0.0758152
0.0758108
0.0758069
0.0758032
0.0757999
0.0757969
0.0757942
0.0757917
0.0757895
0.0757875
0.0757857
0.0757842
0.0757828
0.0757816
0.0757806
0.0757797
0.0757789
0.0757783
0.0757778
0.0757774
0.075777
0.0757768
0.0757766
0.0757765
0.0757765
0.0757765
0.0757765
0.0757766
0.0757767
0.0757769
0.075777
0.0757772
0.0757774
0.0757776
0.0757779
0.0757781
0.0757783
0.0757785
0.0757788
0.075779
0.0757793
0.0757795
0.0757798
0.07578
0.0757802
0.0757805
0.0757807
0.075781
0.0757812
0.0757815
0.0757817
0.075782
0.0757822
0.0757825
0.0757827
0.075783
0.0757832
0.0757835
0.0757837
0.075784
0.0757842
0.0757845
0.0757847
0.075785
0.0757852
0.0757855
0.0757857
0.075786
0.0757862
0.0757865
0.0757867
0.075787
0.0757872
0.0757875
0.0757878
0.075788
0.0757883
0.0757885
0.0757888
0.075789
0.0757893
0.0757895
0.0757898
0.07579
0.0757903
0.0757905
0.0757908
0.075791
0.0757913
0.0757915
0.0757918
0.0757921
0.0757923
0.0757926
0.0757928
0.0757931
0.0757933
0.0757936
0.0757938
0.0757941
0.0757944
0.0757946
0.0757949
0.0757951
0.0757954
0.0757956
0.0757959
0.0757961
0.0757964
0.0757967
0.0757969
0.0757972
0.0757974
0.0757977
0.0757979
0.0757982
0.0757985
0.0757987
0.075799
0.0757992
0.0757995
0.0757998
0.0758
0.0758003
0.0758005
0.0758008
0.075801
0.0758013
0.0758016
0.0758018
0.0758021
0.0758023
0.0758026
0.0758029
0.0758031
0.0758034
0.0758036
0.0758039
0.0758042
0.0758044
0.0758047
0.0758049
0.0758052
0.0758055
0.0758057
0.075806
0.0758063
0.0758065
0.0758068
0.075807
0.0758073
0.0758076
0.0758078
0.0758081
0.0758084
0.0758086
0.0758089
0.0758091
0.0758094
0.0758097
0.0758099
0.0758102
0.0758105
0.0758107
0.075811
0.0758112
0.0758115
0.0758118
0.075812
0.0758123
0.0758126
0.0758128
0.0758131
0.0758134
0.0758136
0.0758139
0.0758142
0.0758144
0.0758147
0.075815
0.0758152
0.0758155
0.0758158
0.075816
0.0758163
0.0758166
0.0758168
0.0758171
0.0758174
0.0758176
0.0758179
0.0758182
0.0758184
0.0758187
0.075819
0.0758193
0.0758195
0.0758198
0.07582
0.0758204
0.0758201
0.0758201
0.0758201
1
0.660887
0.446893
0.352877
0.302029
0.269849
0.2475
0.231017
0.218326
0.208224
0.199965
0.193058
0.187175
0.182082
0.177615
0.173653
0.170103
0.166899
0.163985
0.16132
0.15887
0.156608
0.15451
0.152559
0.150738
0.149033
0.147434
0.14593
0.144512
0.143173
0.141906
0.140705
0.139565
0.138481
0.137449
0.136465
0.135526
0.134628
0.133769
0.132946
0.132157
0.131399
0.130672
0.129973
0.1293
0.128651
0.128027
0.127424
0.126843
0.126282
0.125739
0.125215
0.124707
0.124216
0.12374
0.123279
0.122832
0.122399
0.121978
0.12157
0.121174
0.120789
0.120414
0.12005
0.119696
0.119352
0.119017
0.118691
0.118373
0.118064
0.117762
0.117469
0.117182
0.116903
0.116631
0.116365
0.116106
0.115853
0.115606
0.115365
0.11513
0.1149
0.114676
0.114456
0.114242
0.114033
0.113828
0.113628
0.113433
0.113242
0.113055
0.112872
0.112694
0.112519
0.112348
0.112181
0.112017
0.111857
0.111701
0.111548
0.111398
0.111251
0.111107
0.110967
0.110829
0.110694
0.110562
0.110433
0.110307
0.110183
0.110062
0.109943
0.109827
0.109713
0.109602
0.109492
0.109386
0.109281
0.109178
0.109078
0.10898
0.108883
0.108789
0.108696
0.108606
0.108517
0.10843
0.108345
0.108262
0.10818
0.1081
0.108022
0.107945
0.10787
0.107796
0.107724
0.107653
0.107583
0.107516
0.107449
0.107384
0.10732
0.107258
0.107197
0.107137
0.107078
0.107021
0.106965
0.10691
0.106856
0.106804
0.106753
0.106703
0.106654
0.106607
0.106561
0.106516
0.106472
0.106429
0.106387
0.106347
0.106308
0.10627
0.106233
0.106197
0.106163
0.106129
0.106097
0.106066
0.106036
0.106007
0.105979
0.105953
0.105927
0.105902
0.105879
0.105856
0.105834
0.105814
0.105794
0.105775
0.105758
0.105741
0.105725
0.105709
0.105695
0.105681
0.105669
0.105657
0.105645
0.105635
0.105625
0.105616
0.105607
0.105599
0.105592
0.105585
0.105578
0.105572
0.105567
0.105562
0.105558
0.105554
0.10555
0.105547
0.105544
0.105541
0.105539
0.105537
0.105535
0.105533
0.105532
0.105531
0.10553
0.105529
0.105528
0.105528
0.105527
0.105527
0.105527
0.105527
0.105527
0.105527
0.105527
0.105527
0.105527
0.105527
0.105527
0.105528
0.105528
0.105528
0.105529
0.105529
0.105529
0.105529
0.10553
0.10553
0.10553
0.105531
0.105531
0.105532
0.105532
0.105532
0.105533
0.105533
0.105533
0.105534
0.105534
0.105534
0.105535
0.105535
0.105535
0.105536
0.105536
0.105536
0.105537
0.105537
0.105537
0.105538
0.105538
0.105538
0.105539
0.105539
0.105539
0.10554
0.10554
0.105541
0.105541
0.105541
0.105542
0.105542
0.105542
0.105543
0.105543
0.105543
0.105544
0.105544
0.105544
0.105545
0.105545
0.105545
0.105546
0.105546
0.105547
0.105547
0.105547
0.105548
0.105548
0.105548
0.105549
0.105549
0.105549
0.10555
0.10555
0.10555
0.105551
0.105551
0.105551
0.105552
0.105552
0.105553
0.105553
0.105553
0.105554
0.105554
0.105554
0.105555
0.105555
0.105555
0.105556
0.105556
0.105556
0.105557
0.105557
0.105558
0.105558
0.105558
0.105559
0.105559
0.105559
0.10556
0.10556
0.10556
0.105561
0.105561
0.105562
0.105562
0.105562
0.105563
0.105563
0.105563
0.105564
0.105564
0.105564
0.105565
0.105565
0.105565
0.105566
0.105566
0.105567
0.105567
0.105567
0.105568
0.105568
0.105568
0.105569
0.105569
0.105569
0.10557
0.10557
0.105571
0.105571
0.105571
0.105572
0.105572
0.105572
0.105573
0.105573
0.105574
0.105574
0.105574
0.105575
0.105575
0.105575
0.105576
0.105576
0.105576
0.105577
0.105577
0.105578
0.105578
0.105578
0.105579
0.105579
0.105579
0.10558
0.10558
0.105581
0.105581
0.105581
0.105582
0.105582
0.105582
0.105583
0.105583
0.105583
0.105584
0.105584
0.105585
0.105585
0.105585
0.105586
0.105586
0.105586
0.105587
0.105587
0.105588
0.105587
0.105587
0.105587
1
0.776802
0.557824
0.446877
0.3841
0.343742
0.315509
0.294603
0.278467
0.265605
0.255079
0.246275
0.238774
0.232282
0.226588
0.221538
0.217017
0.212935
0.209225
0.205833
0.202714
0.199836
0.197167
0.194685
0.192369