# vtk DataFile Version 2.0
FlowField
ASCII
DATASET STRUCTURED_GRID
DIMENSIONS 400 1 200
POINTS 80000 float
0 0 0
0.08 0 0
0.16 0 0
0.24 0 0
0.32 0 0
0.4 0 0
0.48 0 0
0.56 0 0
0.64 0 0
0.72 0 0
0.8 0 0
0.88 0 0
0.96 0 0
1.04 0 0
1.12 0 0
1.2 0 0
1.28 0 0
1.36 0 0
1.44 0 0
1.52 0 0
1.6 0 0
1.68 0 0
1.76 0 0
1.84 0 0
1.92 0 0
2 0 0
2.08 0 0
2.16 0 0
2.24 0 0
2.32 0 0
2.4 0 0
2.48 0 0
2.56 0 0
2.64 0 0
2.72 0 0
2.8 0 0
2.88 0 0
2.96 0 0
3.04 0 0
3.12 0 0
3.2 0 0
3.28 0 0
3.36 0 0
3.44 0 0
3.52 0 0
3.6 0 0
3.68 0 0
3.76 0 0
3.84 0 0
3.92 0 0
4 0 0
4.08 0 0
4.16 0 0
4.24 0 0
4.32 0 0
4.4 0 0
4.48 0 0
4.56 0 0
4.64 0 0
4.72 0 0
4.8 0 0
4.88 0 0
4.96 0 0
5.04 0 0
5.12 0 0
5.2 0 0
5.28 0 0
5.36 0 0
5.44 0 0
5.52 0 0
5.6 0 0
5.68 0 0
5.76 0 0
5.84 0 0
5.92 0 0
6 0 0
6.08 0 0
6.16 0 0
6.24 0 0
6.32 0 0
6.4 0 0
6.48 0 0
6.56 0 0
6.64 0 0
6.72 0 0
6.8 0 0
6.88 0 0
6.96 0 0
7.04 0 0
7.12 0 0
7.2 0 0
7.28 0 0
7.36 0 0
7.44 0 0
7.52 0 0
7.6 0 0
7.68 0 0
7.76 0 0
7.84 0 0
7.92 0 0
8 0 0
8.08 0 0
8.16 0 0
8.24 0 0
8.32 0 0
8.4 0 0
8.48 0 0
8.56 0 0
8.64 0 0
8.72 0 0
8.8 0 0
8.88 0 0
8.96 0 0
9.04 0 0
9.12 0 0
9.2 0 0
9.28 0 0
9.36 0 0
9.44 0 0
9.52 0 0
9.6 0 0
9.68 0 0
9.76 0 0
9.84 0 0
9.92 0 0
10 0 0
10.08 0 0
10.16 0 0
10.24 0 0
10.32 0 0
10.4 0 0
10.48 0 0
10.56 0 0
10.64 0 0
10.72 0 0
10.8 0 0
10.88 0 0
10.96 0 0
11.04 0 0
11.12 0 0
11.2 0 0
11.28 0 0
11.36 0 0
11.44 0 0
11.52 0 0
11.6 0 0
11.68 0 0
11.76 0 0
11.84 0 0
11.92 0 0
12 0 0
12.08 0 0
12.16 0 0
12.24 0 0
12.32 0 0
12.4 0 0
12.48 0 0
12.56 0 0
12.64 0 0
12.72 0 0
12.8 0 0
12.88 0 0
12.96 0 0
13.04 0 0
13.12 0 0
13.2 0 0
13.28 0 0
13.36 0 0
13.44 0 0
13.52 0 0
13.6 0 0
13.68 0 0
13.76 0 0
13.84 0 0
13.92 0 0
14 0 0
14.08 0 0
14.16 0 0
14.24 0 0
14.32 0 0
14.4 0 0
14.48 0 0
14.56 0 0
14.64 0 0
14.72 0 0
14.8 0 0
14.88 0 0
14.96 0 0
15.04 0 0
15.12 0 0
15.2 0 0
15.28 0 0
15.36 0 0
15.44 0 0
15.52 0 0
15.6 0 0
15.68 0 0
15.76 0 0
15.84 0 0
15.92 0 0
16 0 0
16.08 0 0
16.16 0 0
16.24 0 0
16.32 0 0
16.4 0 0
16.48 0 0
16.56 0 0
16.64 0 0
16.72 0 0
16.8 0 0
16.88 0 0
16.96 0 0
17.04 0 0
17.12 0 0
17.2 0 0
17.28 0 0
17.36 0 0
17.44 0 0
17.52 0 0
17.6 0 0
17.68 0 0
17.76 0 0
17.84 0 0
17.92 0 0
18 0 0
18.08 0 0
18.16 0 0
18.24 0 0
18.32 0 0
18.4 0 0
18.48 0 0
18.56 0 0
18.64 0 0
18.72 0 0
18.8 0 0
18.88 0 0
18.96 0 0
19.04 0 0
19.12 0 0
19.2 0 0
19.28 0 0
19.36 0 0
19.44 0 0
19.52 0 0
19.6 0 0
19.68 0 0
19.76 0 0
19.84 0 0
19.92 0 0
20 0 0
20.08 0 0
20.16 0 0
20.24 0 0
20.32 0 0
20.4 0 0
20.48 0 0
20.56 0 0
20.64 0 0
20.72 0 0
20.8 0 0
20.88 0 0
20.96 0 0
21.04 0 0
21.12 0 0
21.2 0 0
21.28 0 0
21.36 0 0
21.44 0 0
21.52 0 0
21.6 0 0
21.68 0 0
21.76 0 0
21.84 0 0
21.92 0 0
22 0 0
22.08 0 0
22.16 0 0
22.24 0 0
22.32 0 0
22.4 0 0
22.48 0 0
22.56 0 0
22.64 0 0
22.72 0 0
22.8 0 0
22.88 0 0
22.96 0 0
23.04 0 0
23.12 0 0
23.2 0 0
23.28 0 0
23.36 0 0
23.44 0 0
23.52 0 0
23.6 0 0
23.68 0 0
23.76 0 0
23.84 0 0
23.92 0 0
24 0 0
24.08 0 0
24.16 0 0
24.24 0 0
24.32 0 0
24.4 0 0
24.48 0 0
24.56 0 0
24.64 0 0
24.72 0 0
24.8 0 0
24.88 0 0
24.96 0 0
25.04 0 0
25.12 0 0
25.2 0 0
25.28 0 0
25.36 0 0
25.44 0 0
25.52 0 0
25.6 0 0
25.68 0 0
25.76 0 0
25.84 0 0
25.92 0 0
26 0 0
26.08 0 0
26.16 0 0
26.24 0 0
26.32 0 0
26.4 0 0
26.48 0 0
26.56 0 0
26.64 0 0
26.72 0 0
26.8 0 0
26.88 0 0
26.96 0 0
27.04 0 0
27.12 0 0
27.2 0 0
27.28 0 0
27.36 0 0
27.44 0 0
27.52 0 0
27.6 0 0
27.68 0 0
27.76 0 0
27.84 0 0
27.92 0 0
28 0 0
28.08 0 0
28.16 0 0
28.24 0 0
28.32 0 0
28.4 0 0
28.48 0 0
28.56 0 0
28.64 0 0
28.72 0 0
28.8 0 0
28.88 0 0
28.96 0 0
29.04 0 0
29.12 0 0
29.2 0 0
29.28 0 0
29.36 0 0
29.44 0 0
29.52 0 0
29.6 0 0
29.68 0 0
29.76 0 0
29.84 0 0
29.92 0 0
30 0 0
30.08 0 0
30.16 0 0
30.24 0 0
30.32 0 0
30.4 0 0
30.48 0 0
30.56 0 0
30.64 0 0
30.72 0 0
30.8 0 0
30.88 0 0
30.96 0 0
31.04 0 0
31.12 0 0
31.2 0 0
31.28 0 0
31.36 0 0
31.44 0 0
31.52 0 0
31.6 0 0
31.68 0 0
31.76 0 0
31.84 0 0
31.92 0 0
0 0.005 0
0.08 0.005 0
0.16 0.005 0
0.24 0.005 0
0.32 0.005 0
0.4 0.005 0
0.48 0.005 0
0.56 0.005 0
0.64 0.005 0
0.72 0.005 0
0.8 0.005 0
0.88 0.005 0
0.96 0.005 0
1.04 0.005 0
1.12 0.005 0
1.2 0.005 0
1.28 0.005 0
1.36 0.005 0
1.44 0.005 0
1.52 0.005 0
1.6 0.005 0
1.68 0.005 0
1.76 0.005 0
1.84 0.005 0
1.92 0.005 0
2 0.005 0
2.08 0.005 0
2.16 0.005 0
2.24 0.005 0
2.32 0.005 0
2.4 0.005 0
2.48 0.005 0
2.56 0.005 0
2.64 0.005 0
2.72 0.005 0
2.8 0.005 0
2.88 0.005 0
2.96 0.005 0
3.04 0.005 0
3.12 0.005 0
3.2 0.005 0
3.28 0.005 0
3.36 0.005 0
3.44 0.005 0
3.52 0.005 0
3.6 0.005 0
3.68 0.005 0
3.76 0.005 0
3.84 0.005 0
3.92 0.005 0
4 0.005 0
4.08 0.005 0
4.16 0.005 0
4.24 0.005 0
4.32 0.005 0
4.4 0.005 0
4.48 0.005 0
4.56 0.005 0
4.64 0.005 0
4.72 0.005 0
4.8 0.005 0
4.88 0.005 0
4.96 0.005 0
5.04 0.005 0
5.12 0.005 0
5.2 0.005 0
5.28 0.005 0
5.36 0.005 0
5.44 0.005 0
5.52 0.005 0
5.6 0.005 0
5.68 0.005 0
5.76 0.005 0
5.84 0.005 0
5.92 0.005 0
6 0.005 0
6.08 0.005 0
6.16 0.005 0
6.24 0.005 0
6.32 0.005 0
6.4 0.005 0
6.48 0.005 0
6.56 0.005 0
6.64 0.005 0
6.72 0.005 0
6.8 0.005 0
6.88 0.005 0
6.96 0.005 0
7.04 0.005 0
7.12 0.005 0
7.2 0.005 0
7.28 0.005 0
7.36 0.005 0
7.44 0.005 0
7.52 0.005 0
7.6 0.005 0
7.68 0.005 0
7.76 0.005 0
7.84 0.005 0
7.92 0.005 0
8 0.005 0
8.08 0.005 0
8.16 0.005 0
8.24 0.005 0
8.32 0.005 0
8.4 0.005 0
8.48 0.005 0
8.56 0.005 0
8.64 0.005 0
8.72 0.005 0
8.8 0.005 0
8.88 0.005 0
8.96 0.005 0
9.04 0.005 0
9.12 0.005 0
9.2 0.005 0
9.28 0.005 0
9.36 0.005 0
9.44 0.005 0
9.52 0.005 0
9.6 0.005 0
9.68 0.005 0
9.76 0.005 0
9.84 0.005 0
9.92 0.005 0
10 0.005 0
10.08 0.005 0
10.16 0.005 0
10.24 0.005 0
10.32 0.005 0
10.4 0.005 0
10.48 0.005 0
10.56 0.005 0
10.64 0.005 0
10.72 0.005 0
10.8 0.005 0
10.88 0.005 0
10.96 0.005 0
11.04 0.005 0
11.12 0.005 0
11.2 0.005 0
11.28 0.005 0
11.36 0.005 0
11.44 0.005 0
11.52 0.005 0
11.6 0.005 0
11.68 0.005 0
11.76 0.005 0
11.84 0.005 0
11.92 0.005 0
12 0.005 0
12.08 0.005 0
12.16 0.005 0
12.24 0.005 0
12.32 0.005 0
12.4 0.005 0
12.48 0.005 0
12.56 0.005 0
12.64 0.005 0
12.72 0.005 0
12.8 0.005 0
12.88 0.005 0
12.96 0.005 0
13.04 0.005 0
13.12 0.005 0
13.2 0.005 0
13.28 0.005 0
13.36 0.005 0
13.44 0.005 0
13.52 0.005 0
13.6 0.005 0
13.68 0.005 0
13.76 0.005 0
13.84 0.005 0
13.92 0.005 0
14 0.005 0
14.08 0.005 0
14.16 0.005 0
14.24 0.005 0
14.32 0.005 0
14.4 0.005 0
14.48 0.005 0
14.56 0.005 0
14.64 0.005 0
14.72 0.005 0
14.8 0.005 0
14.88 0.005 0
14.96 0.005 0
15.04 0.005 0
15.12 0.005 0
15.2 0.005 0
15.28 0.005 0
15.36 0.005 0
15.44 0.005 0
15.52 0.005 0
15.6 0.005 0
15.68 0.005 0
15.76 0.005 0
15.84 0.005 0
15.92 0.005 0
16 0.005 0
16.08 0.005 0
16.16 0.005 0
16.24 0.005 0
16.32 0.005 0
16.4 0.005 0
16.48 0.005 0
16.56 0.005 0
16.64 0.005 0
16.72 0.005 0
16.8 0.005 0
16.88 0.005 0
16.96 0.005 0
17.04 0.005 0
17.12 0.005 0
17.2 0.005 0
17.28 0.005 0
17.36 0.005 0
17.44 0.005 0
17.52 0.005 0
17.6 0.005 0
17.68 0.005 0
17.76 0.005 0
17.84 0.005 0
17.92 0.005 0
18 0.005 0
18.08 0.005 0
18.16 0.005 0
18.24 0.005 0
18.32 0.005 0
18.4 0.005 0
18.48 0.005 0
18.56 0.005 0
18.64 0.005 0
18.72 0.005 0
18.8 0.005 0
18.88 0.005 0
18.96 0.005 0
19.04 0.005 0
19.12 0.005 0
19.2 0.005 0
19.28 0.005 0
19.36 0.005 0
19.44 0.005 0
19.52 0.005 0
19.6 0.005 0
19.68 0.005 0
19.76 0.005 0
19.84 0.005 0
19.92 0.005 0
20 0.005 0
20.08 0.005 0
20.16 0.005 0
20.24 0.005 0
20.32 0.005 0
20.4 0.005 0
20.48 0.005 0
20.56 0.005 0
20.64 0.005 0
20.72 0.005 0
20.8 0.005 0
20.88 0.005 0
20.96 0.005 0
21.04 0.005 0
21.12 0.005 0
21.2 0.005 0
21.28 0.005 0
21.36 0.005 0
21.44 0.005 0
21.52 0.005 0
21.6 0.005 0
21.68 0.005 0
21.76 0.005 0
21.84 0.005 0
21.92 0.005 0
22 0.005 0
22.08 0.005 0
22.16 0.005 0
22.24 0.005 0
22.32 0.005 0
22.4 0.005 0
22.48 0.005 0
22.56 0.005 0
22.64 0.005 0
22.72 0.005 0
22.8 0.005 0
22.88 0.005 0
22.96 0.005 0
23.04 0.005 0
23.12 0.005 0
23.2 0.005 0
23.28 0.005 0
23.36 0.005 0
23.44 0.005 0
23.52 0.005 0
23.6 0.005 0
23.68 0.005 0
23.76 0.005 0
23.84 0.005 0
23.92 0.005 0
24 0.005 0
24.08 0.005 0
24.16 0.005 0
24.24 0.005 0
24.32 0.005 0
24.4 0.005 0
24.48 0.005 0
24.56 0.005 0
24.64 0.005 0
24.72 0.005 0
24.8 0.005 0
24.88 0.005 0
24.96 0.005 0
25.04 0.005 0
25.12 0.005 0
25.2 0.005 0
25.28 0.005 0
25.36 0.005 0
25.44 0.005 0
25.52 0.005 0
25.6 0.005 0
25.68 0.005 0
25.76 0.005 0
25.84 0.005 0
25.92 0.005 0
26 0.005 0
26.08 0.005 0
26.16 0.005 0
26.24 0.005 0
26.32 0.005 0
26.4 0.005 0
26.48 0.005 0
26.56 0.005 0
26.64 0.005 0
26.72 0.005 0
26.8 0.005 0
26.88 0.005 0
26.96 0.005 0
27.04 0.005 0
27.12 0.005 0
27.2 0.005 0
27.28 0.005 0
27.36 0.005 0
27.44 0.005 0
27.52 0.005 0
27.6 0.005 0
27.68 0.005 0
27.76 0.005 0
27.84 0.005 0
27.92 0.005 0
28 0.005 0
28.08 0.005 0
28.16 0.005 0
28.24 0.005 0
28.32 0.005 0
28.4 0.005 0
28.48 0.005 0
28.56 0.005 0
28.64 0.005 0
28.72 0.005 0
28.8 0.005 0
28.88 0.005 0
28.96 0.005 0
29.04 0.005 0
29.12 0.005 0
29.2 0.005 0
29.28 0.005 0
29.36 0.005 0
29.44 0.005 0
29.52 0.005 0
29.6 0.005 0
29.68 0.005 0
29.76 0.005 0
29.84 0.005 0
29.92 0.005 0
30 0.005 0
30.08 0.005 0
30.16 0.005 0
30.24 0.005 0
30.32 0.005 0
30.4 0.005 0
30.48 0.005 0
30.56 0.005 0
30.64 0.005 0
30.72 0.005 0
30.8 0.005 0
30.88 0.005 0
30.96 0.005 0
31.04 0.005 0
31.12 0.005 0
31.2 0.005 0
31.28 0.005 0
31.36 0.005 0
31.44 0.005 0
31.52 0.005 0
31.6 0.005 0
31.68 0.005 0
31.76 0.005 0
31.84 0.005 0
31.92 0.005 0
0 0.01 0
0.08 0.01 0
0.16 0.01 0
0.24 0.01 0
0.32 0.01 0
0.4 0.01 0
0.48 0.01 0
0.56 0.01 0
0.64 0.01 0
0.72 0.01 0
0.8 0.01 0
0.88 0.01 0
0.96 0.01 0
1.04 0.01 0
1.12 0.01 0
1.2 0.01 0
1.28 0.01 0
1.36 0.01 0
1.44 0.01 0
1.52 0.01 0
1.6 0.01 0
1.68 0.01 0
1.76 0.01 0
1.84 0.01 0
1.92 0.01 0
2 0.01 0
2.08 0.01 0
2.16 0.01 0
2.24 0.01 0
2.32 0.01 0
2.4 0.01 0
2.48 0.01 0
2.56 0.01 0
2.64 0.01 0
2.72 0.01 0
2.8 0.01 0
2.88 0.01 0
2.96 0.01 0
3.04 0.01 0
3.12 0.01 0
3.2 0.01 0
3.28 0.01 0
3.36 0.01 0
3.44 0.01 0
3.52 0.01 0
3.6 0.01 0
3.68 0.01 0
3.76 0.01 0
3.84 0.01 0
3.92 0.01 0
4 0.01 0
4.08 0.01 0
4.16 0.01 0
4.24 0.01 0
4.32 0.01 0
4.4 0.01 0
4.48 0.01 0
4.56 0.01 0
4.64 0.01 0
4.72 0.01 0
4.8 0.01 0
4.88 0.01 0
4.96 0.01 0
5.04 0.01 0
5.12 0.01 0
[...]
POINT_DATA 80000

SCALARS v float 1
LOOKUP_TABLE default
0
0
0
0
0
0
0
0
0
0
0
0
0
0
0
0
0
0
0
0
0
0
0
0
0
0
0
0
0
0
0
0
0
0
0
0
0
0
0
0
0
0
0
0
0
0
0
0
0
0
0
0
0
0
0
0
0
0
0
0
0
0
0
0
0
0
0
0
0
0
0
0
0
0
0
0
0
0
0
0
0
0
0
0
0
0
0
0
0
0
0
0
0
0
0
0
0
0
0
0
0
0
0
0
0
0
0
0
0
0
0
0
0
0
0
0
0
0
0
0
0
0
0
0
0
0
0
0
0
0
0
0
0
0
0
0
0
0
0
0
0
0
0
0
0
0
0
0
0
0
0
0
0
0
0
0
0
0
0
0
0
0
0
0
0
0
0
0
0
0
0
0
0
0
0
0
0
0
0
0
0
0
0
0
0
0
0
0
0
0
0
0
0
0
0
0
0
0
0
0
0
0
0
0
0
0
0
0
0
0
0
0
0
0
0
0
0
0
0
0
0
0
0
0
0
0
0
0
0
0
0
0
0
0
0
0
0
0
0
0
0
0
0
0
0
0
0
0
0
0
0
0
0
0
0
0
0
0
0
0
0
0
0
0
0
0
0
0
0
0
0
0
0
0
0
0
0
0
0
0
0
0
0
0
0
0
0
0
0
0
0
0
0
0
0
0
0
0
0
0
0
0
0
0
0
0
0
0
0
0
0
0
0
0
0
0
0
0
0
0
0
0
0
0
0
0
0
0
0
0
0
0
0
0
0
0
0
0
0
0
0
0
0
0
0
0
0
0
0
0
0
0
0
0
0
0
0
0
0
0
0
0
0
0
0
0
0
0
0
0
0
0
0
0
0
0
0
0
0
0
0
0
0
0
0
0
0
0
0
0
0
0
0
0
0
0
0
0
0
0
-0.0542711
0.0542711
0.0039621
0.000998332
0.000492263
0.000302699
0.000207322
0.000151694
0.000116253
9.22962e-05
7.53831e-05
6.30224e-05
5.3722e-05
4.65435e-05
4.08757e-05
3.63086e-05
3.2561e-05
2.94361e-05
2.6793e-05
2.45298e-05
2.2571e-05
2.08596e-05
1.93523e-05
1.80155e-05
1.68225e-05
1.5752e-05
1.47869e-05
1.39129e-05
1.31185e-05
1.23939e-05
1.17307e-05
1.11219e-05
1.05616e-05
1.00445e-05
9.56618e-06
9.1227e-06
8.71065e-06
8.32702e-06
7.96918e-06
7.6348e-06
7.32178e-06
7.0283e-06
6.75269e-06
6.49349e-06
6.24937e-06
6.01914e-06
5.80172e-06
5.59614e-06
5.40152e-06
5.21707e-06
5.04206e-06
4.87582e-06
4.71775e-06
4.5673e-06
4.42396e-06
4.28727e-06
4.1568e-06
4.03216e-06
3.91299e-06
3.79894e-06
3.68972e-06
3.58504e-06
3.48463e-06
3.38825e-06
3.29567e-06
3.20667e-06
3.12107e-06
3.03868e-06
2.95933e-06
2.88286e-06
2.80911e-06
2.73796e-06
2.66927e-06
2.60291e-06
2.53879e-06
2.47678e-06
2.41679e-06
2.35872e-06
2.30249e-06
2.24801e-06
2.1952e-06
2.144e-06
2.09433e-06
2.04612e-06
1.99932e-06
1.95386e-06
1.90969e-06
1.86677e-06
1.82503e-06
1.78443e-06
1.74494e-06
1.7065e-06
1.66908e-06
1.63265e-06
1.59715e-06
1.56257e-06
1.52887e-06
1.49602e-06
1.46398e-06
1.43274e-06
1.40226e-06
1.37253e-06
1.34351e-06
1.31518e-06
1.28753e-06
1.26053e-06
1.23416e-06
1.2084e-06
1.18324e-06
1.15865e-06
1.13462e-06
1.11114e-06
1.08818e-06
1.06574e-06
1.0438e-06
1.02235e-06
1.00136e-06
9.80839e-07
9.60764e-07
9.41126e-07
9.21912e-07
9.03112e-07
8.84716e-07
8.66714e-07
8.49095e-07
8.3185e-07
8.14971e-07
7.98448e-07
7.82273e-07
7.66438e-07
7.50934e-07
7.35754e-07
7.2089e-07
7.06335e-07
6.92082e-07
6.78124e-07
6.64455e-07
6.51067e-07
6.37955e-07
6.25113e-07
6.12535e-07
6.00214e-07
5.88146e-07
5.76325e-07
5.64745e-07
5.53402e-07
5.4229e-07
5.31406e-07
5.20743e-07
5.10297e-07
5.00065e-07
4.90041e-07
4.80222e-07
4.70604e-07
4.61182e-07
4.51952e-07
4.42911e-07
4.34055e-07
4.2538e-07
4.16883e-07
4.08557e-07
4.00401e-07
3.92409e-07
3.84577e-07
3.769e-07
3.69373e-07
3.61992e-07
3.54751e-07
3.47645e-07
3.40667e-07
3.33812e-07
3.27074e-07
3.20447e-07
3.13925e-07
3.07501e-07
3.0117e-07
2.94926e-07
2.88761e-07
2.82671e-07
2.7665e-07
2.70693e-07
2.64796e-07
2.58952e-07
2.53159e-07
2.47411e-07
2.41705e-07
2.36039e-07
2.3041e-07
2.24817e-07
2.19256e-07
2.13728e-07
2.0823e-07
2.02762e-07
1.97324e-07
1.91918e-07
1.86543e-07
1.81202e-07
1.75895e-07
1.70624e-07
1.65391e-07
1.60197e-07
1.55045e-07
1.4994e-07
1.44883e-07
1.3988e-07
1.34931e-07
1.30041e-07
1.25212e-07
1.20448e-07
1.15753e-07
1.1113e-07
1.06584e-07
1.0212e-07
9.774e-08
9.34469e-08
8.92431e-08
8.51309e-08
8.11132e-08
7.71934e-08
7.3375e-08
6.96612e-08
6.60543e-08
6.25555e-08
5.91653e-08
5.58837e-08
5.2711e-08
4.96479e-08
4.66957e-08
4.38558e-08
4.11295e-08
3.8517e-08
3.60175e-08
3.36294e-08
3.13505e-08
2.91786e-08
2.7112e-08
2.51497e-08
2.32911e-08
2.15354e-08
1.98816e-08
1.83274e-08
1.687e-08
1.55057e-08
1.42306e-08
1.30409e-08
1.19333e-08
1.09051e-08
9.95387e-09
9.07731e-09
8.27276e-09
7.537e-09
6.86624e-09
6.25626e-09
5.70262e-09
5.20111e-09
4.74785e-09
4.33951e-09
3.97316e-09
3.64621e-09
3.35618e-09
3.10044e-09
2.87621e-09
2.68052e-09
2.51026e-09
2.36234e-09
2.23386e-09
2.12218e-09
2.02506e-09
1.94053e-09
1.86694e-09
1.80288e-09
1.74703e-09
1.69815e-09
1.65512e-09
1.61684e-09
1.58231e-09
1.55067e-09
1.52116e-09
1.49325e-09
1.4665e-09
1.4406e-09
1.41539e-09
1.39071e-09
1.36648e-09
1.34261e-09
1.31906e-09
1.29571e-09
1.27252e-09
1.24943e-09
1.22637e-09
1.20331e-09
1.18025e-09
1.15716e-09
1.13406e-09
1.11095e-09
1.08783e-09
1.06473e-09
1.04163e-09
1.01854e-09
9.95464e-10
9.72388e-10
9.49303e-10
9.26219e-10
9.03129e-10
8.8003e-10
8.56915e-10
8.3379e-10
8.10662e-10
7.87533e-10
7.64391e-10
7.4125e-10
7.18106e-10
6.94963e-10
6.71806e-10
6.48654e-10
6.25478e-10
6.02326e-10
5.79149e-10
5.55983e-10
5.32787e-10
5.09618e-10
4.86392e-10
4.63216e-10
4.39984e-10
4.16802e-10
3.9355e-10
3.70378e-10
3.47097e-10
3.23929e-10
3.00614e-10
2.77463e-10
2.54113e-10
2.30968e-10
2.0758e-10
1.84467e-10
1.61038e-10
1.37937e-10
1.14453e-10
9.13988e-11
6.78433e-11
4.48449e-11
2.12058e-11
-1.72521e-12
-2.54707e-11
-4.82927e-11
-7.21774e-11
-9.48718e-11
-1.18933e-10
-1.41451e-10
-1.65726e-10
-1.8802e-10
-2.1258e-10
-2.34583e-10
-2.59476e-10
-2.81105e-10
-3.06452e-10
-3.27597e-10
-3.53502e-10
-3.74031e-10
-4.00652e-10
-4.20391e-10
-4.47915e-10
-4.66633e-10
-4.95311e-10
-5.1274e-10
-5.42863e-10
-5.58672e-10
-5.90595e-10
-6.04363e-10
-6.38549e-10
-6.49801e-10
-6.86749e-10
-6.94899e-10
-7.3519e-10
-7.39648e-10
-7.83875e-10
-7.84013e-10
-8.32694e-10
-8.28136e-10
-8.81451e-10
-8.72291e-10
-9.29646e-10
-9.17237e-10
-9.76287e-10
-9.64668e-10
-1.01939e-09
-1.01837e-09
-1.0549e-09
-1.08678e-09
-1.07421e-09
-1.18924e-09
-1.05675e-09
-1.37135e-09
-9.40219e-10
-1.74149e-09
-4.42335e-10
-2.52399e-09
3.24321e-09
-1.36278e-09
-1.36278e-09
-0.0952159
0.0952159
0.0129756
0.00385462
0.00193431
0.0011962
0.000821744
0.000602317
0.00046207
0.000367044
0.000299834
0.000250648
0.000213605
0.000184997
0.000162403
0.000144198
0.000129263
0.000116813
0.000106288
9.72793e-05
8.9486e-05
8.26808e-05
7.66899e-05
7.13785e-05
6.66403e-05
6.23902e-05
5.85595e-05
5.50918e-05
5.19404e-05
4.90661e-05
4.64362e-05
4.40225e-05
4.18012e-05
3.97515e-05
3.78557e-05
3.60982e-05
3.44654e-05
3.29453e-05
3.15276e-05
3.02029e-05
2.89629e-05
2.78004e-05
2.67087e-05
2.56821e-05
2.47152e-05
2.38034e-05
2.29424e-05
2.21284e-05
2.13577e-05
2.06274e-05
1.99344e-05
1.92762e-05
1.86504e-05
1.80548e-05
1.74873e-05
1.69462e-05
1.64298e-05
1.59364e-05
1.54646e-05
1.50132e-05
1.45809e-05
1.41666e-05
1.37692e-05
1.33877e-05
1.30213e-05
1.26692e-05
1.23304e-05
1.20044e-05
1.16904e-05
1.13877e-05
1.10959e-05
1.08144e-05
1.05426e-05
1.02801e-05
1.00264e-05
9.78106e-06
9.54373e-06
9.31402e-06
9.09157e-06
8.87606e-06
8.66719e-06
8.46465e-06
8.26817e-06
8.0775e-06
7.89239e-06
7.7126e-06
7.53793e-06
7.36816e-06
7.20311e-06
7.04258e-06
6.8864e-06
6.73441e-06
6.58645e-06
6.44237e-06
6.30204e-06
6.16531e-06
6.03206e-06
5.90218e-06
5.77553e-06
5.65203e-06
5.53155e-06
5.414e-06
5.2993e-06
5.18734e-06
5.07803e-06
4.97131e-06
4.86708e-06
4.76528e-06
4.66583e-06
4.56866e-06
4.47371e-06
4.38091e-06
4.2902e-06
4.20152e-06
4.11481e-06
4.03004e-06
3.94713e-06
3.86604e-06
3.78672e-06
3.70913e-06
3.63322e-06
3.55895e-06
3.48627e-06
3.41515e-06
3.34555e-06
3.27743e-06
3.21076e-06
3.14549e-06
3.0816e-06
3.01905e-06
2.95781e-06
2.89785e-06
2.83915e-06
2.78166e-06
2.72537e-06
2.67024e-06
2.61626e-06
2.56339e-06
2.51161e-06
2.4609e-06
2.41122e-06
2.36257e-06
2.31492e-06
2.26824e-06
2.22252e-06
2.17773e-06
2.13385e-06
2.09087e-06
2.04877e-06
2.00753e-06
1.96713e-06
1.92756e-06
1.88879e-06
1.85082e-06
1.81362e-06
1.77718e-06
1.74148e-06
1.70652e-06
1.67227e-06
1.63871e-06
1.60584e-06
1.57363e-06
1.54206e-06
1.51113e-06
1.4808e-06
1.45106e-06
1.42189e-06
1.39327e-06
1.36518e-06
1.33758e-06
1.31047e-06
1.28381e-06
1.25758e-06
1.23175e-06
1.20631e-06
1.18123e-06
1.15648e-06
1.13203e-06
1.10788e-06
1.08399e-06
1.06034e-06
1.03693e-06
1.01372e-06
9.90698e-07
9.67855e-07
9.45174e-07
9.22646e-07
9.00261e-07
8.78012e-07
8.55892e-07
8.33895e-07
8.12019e-07
7.90262e-07
7.68626e-07
7.47113e-07
7.25729e-07
7.04478e-07
6.83366e-07
6.62398e-07
6.41584e-07
6.20931e-07
6.00451e-07
5.80159e-07
5.60068e-07
5.40191e-07
5.20539e-07
5.01125e-07
4.81961e-07
4.6306e-07
4.44439e-07
4.26115e-07
4.08104e-07
3.90422e-07
3.73081e-07
3.56092e-07
3.39464e-07
3.23206e-07
3.07331e-07
2.91851e-07
2.76781e-07
2.62131e-07
2.4791e-07
2.34124e-07
2.20772e-07
2.07857e-07
1.95378e-07
1.83339e-07
1.71745e-07
1.60601e-07
1.4991e-07
1.39674e-07
1.29888e-07
1.20545e-07
1.11637e-07
1.03155e-07
9.50933e-08
8.7447e-08
8.02133e-08
7.33888e-08
6.69679e-08
6.09416e-08
5.52976e-08
5.00212e-08
4.5097e-08
4.05102e-08
3.62481e-08
3.22997e-08
2.86552e-08
2.53048e-08
2.22374e-08
1.94397e-08
1.68964e-08
1.45906e-08
1.25049e-08
1.06229e-08
8.92947e-09
7.41159e-09
6.05781e-09
4.85772e-09
3.8012e-09
2.87774e-09
2.07613e-09
1.38447e-09
7.90578e-10
2.82426e-10
-1.51197e-10
-5.20392e-10
-8.33874e-10
-1.09911e-09
-1.32246e-09
-1.50953e-09
-1.66536e-09
-1.79471e-09
-1.90202e-09
-1.99148e-09
-2.0669e-09
-2.13158e-09
-2.18821e-09
-2.23898e-09
-2.28539e-09
-2.32855e-09
-2.36916e-09
-2.40774e-09
-2.44459e-09
-2.48006e-09
-2.51443e-09
-2.54795e-09
-2.58092e-09
-2.61354e-09
-2.64603e-09
-2.67849e-09
-2.71099e-09
-2.74356e-09
-2.77617e-09
-2.8088e-09
-2.84142e-09
-2.87399e-09
-2.90652e-09
-2.93899e-09
-2.97143e-09
-3.00384e-09
-3.03626e-09
-3.06866e-09
-3.10113e-09
-3.13357e-09
-3.16607e-09
-3.19857e-09
-3.23109e-09
-3.26361e-09
-3.29616e-09
-3.32866e-09
-3.36122e-09
-3.39371e-09
-3.42627e-09
-3.45876e-09
-3.49134e-09
-3.52383e-09
-3.55645e-09
-3.58893e-09
-3.62158e-09
-3.65407e-09
-3.68676e-09
-3.71924e-09
-3.75196e-09
-3.78442e-09
-3.8172e-09
-3.84962e-09
-3.88247e-09
-3.91486e-09
-3.94777e-09
-3.98011e-09
-4.01312e-09
-4.04537e-09
-4.07849e-09
-4.11064e-09
-4.14391e-09
-4.17593e-09
-4.2094e-09
-4.24124e-09
-4.27494e-09
-4.30653e-09
-4.34054e-09
-4.37182e-09
-4.4062e-09
-4.4371e-09
-4.47195e-09
-4.50233e-09
-4.5378e-09
-4.56751e-09
-4.60376e-09
-4.6326e-09
-4.66985e-09
-4.69759e-09
-4.73612e-09
-4.76244e-09
-4.80258e-09
-4.82707e-09
-4.86928e-09
-4.89143e-09
-4.9363e-09
-4.95544e-09
-5.00366e-09
-5.019e-09
-5.07148e-09
-5.08198e-09
-5.13983e-09
-5.14424e-09
-5.20881e-09
-5.20558e-09
-5.27854e-09
-5.26583e-09
-5.34911e-09
-5.32481e-09
-5.42056e-09
-5.38235e-09
-5.49282e-09
-5.43846e-09
-5.56557e-09
-5.49349e-09
-5.63798e-09
-5.54856e-09
-5.70828e-09
-5.60642e-09
-5.7728e-09
-5.67339e-09
-5.82422e-09
-5.76347e-09
-5.84776e-09
-5.90806e-09
-5.81193e-09
-6.17902e-09
-5.64177e-09
-6.74537e-09
-5.10945e-09
-8.00459e-09
-3.17645e-09
-1.07277e-08
1.03516e-08
-6.41222e-09
-6.41222e-09
-0.125293
0.125293
0.0249359
0.00835802
0.004278
0.00266152
0.00183374
0.00134636
0.00103389
0.000821707
0.00067139
0.000561253
0.000478236
0.000414089
0.000363414
0.000322579
0.000289083
0.000261167
0.000237575
0.000217389
0.000199933
0.000184694
0.000171284
0.000159399
0.000148799
0.000139294
0.000130728
0.000122976
0.000115932
0.000109508
0.000103632
9.82388e-05
9.32762e-05
8.86977e-05
8.44631e-05
8.05378e-05
7.68912e-05
7.34968e-05
7.0331e-05
6.7373e-05
6.46044e-05
6.20088e-05
5.95717e-05
5.72798e-05
5.51214e-05
5.3086e-05
5.1164e-05
4.93469e-05
4.76268e-05
4.59966e-05
4.445e-05
4.2981e-05
4.15843e-05
4.0255e-05
3.89886e-05
3.7781e-05
3.66285e-05
3.55274e-05
3.44748e-05
3.34675e-05
3.25029e-05
3.15784e-05
3.06917e-05
2.98406e-05
2.90231e-05
2.82373e-05
2.74816e-05
2.67542e-05
2.60536e-05
2.53785e-05
2.47276e-05
2.40995e-05
2.34932e-05
2.29076e-05
2.23417e-05
2.17945e-05
2.12651e-05
2.07527e-05
2.02566e-05
1.97759e-05
1.93101e-05
1.88583e-05
1.84202e-05
1.79949e-05
1.75821e-05
1.71812e-05
1.67917e-05
1.64131e-05
1.6045e-05
1.56871e-05
1.53389e-05
1.5e-05
1.46701e-05
1.43488e-05
1.4036e-05
1.37311e-05
1.34341e-05
1.31445e-05
1.28622e-05
1.25868e-05
1.23183e-05
1.20562e-05
1.18005e-05
1.1551e-05
1.13073e-05
1.10695e-05
1.08372e-05
1.06103e-05
1.03886e-05
1.0172e-05
9.96043e-06
9.75361e-06
9.55145e-06
9.35383e-06
9.16062e-06
8.9717e-06
8.78694e-06
8.60625e-06
8.42951e-06
8.25662e-06
8.08748e-06
7.922e-06
7.76007e-06
7.60162e-06
7.44655e-06
7.29478e-06
7.14623e-06
7.00082e-06
6.85849e-06
6.71914e-06
6.58272e-06
6.44915e-06
6.31837e-06
6.19032e-06
6.06493e-06
5.94214e-06
5.82189e-06
5.70412e-06
5.58879e-06
5.47583e-06
5.36519e-06
5.25683e-06
5.15069e-06
5.04672e-06
4.94489e-06
4.84514e-06
4.74742e-06
4.65171e-06
4.55794e-06
4.4661e-06
4.37613e-06
4.28799e-06
4.20166e-06
4.11709e-06
4.03425e-06
3.9531e-06
3.87361e-06
3.79575e-06
3.71946e-06
3.64473e-06
3.57151e-06
3.49977e-06
3.42946e-06
3.36054e-06
3.29298e-06
3.22672e-06
3.16172e-06
3.09794e-06
3.03531e-06
2.97379e-06
2.91333e-06
2.85387e-06
2.79536e-06
2.73774e-06
2.68097e-06
2.62498e-06
2.56972e-06
2.51513e-06
2.46118e-06
2.40781e-06
2.35498e-06
2.30265e-06
2.25077e-06
2.19931e-06
2.14823e-06
2.09752e-06
2.04714e-06
1.99708e-06
1.94732e-06
1.89784e-06
1.84865e-06
1.79972e-06
1.75106e-06
1.70268e-06
1.65457e-06
1.60676e-06
1.55925e-06
1.51206e-06
1.4652e-06
1.41869e-06
1.37254e-06
1.3268e-06
1.28149e-06
1.23663e-06
1.19226e-06
1.14841e-06
1.1051e-06
1.06236e-06
1.02021e-06
9.78708e-07
9.37878e-07
8.97759e-07
8.58384e-07
8.19781e-07
7.81973e-07
7.44981e-07
7.08826e-07
6.73536e-07
6.39139e-07
6.05664e-07
5.73136e-07
5.41572e-07
5.10982e-07
4.81369e-07
4.52734e-07
4.2508e-07
3.98413e-07
3.72744e-07
3.48084e-07
3.24438e-07
3.01807e-07
2.80181e-07
2.59544e-07
2.39877e-07
2.21161e-07
2.03382e-07
1.86532e-07
1.70601e-07
1.55582e-07
1.4146e-07
1.28214e-07
1.15816e-07
1.04233e-07
9.34312e-08
8.33779e-08
7.40447e-08
6.54073e-08
5.74433e-08
5.013e-08
4.34416e-08
3.7348e-08
3.18144e-08
2.68033e-08
2.22764e-08
1.81975e-08
1.45335e-08
1.12557e-08
8.33871e-09
5.75915e-09
3.49425e-09
1.52033e-09
-1.87767e-10
-1.65648e-09
-2.91277e-09
-3.98294e-09
-4.89147e-09
-5.66031e-09
-6.30842e-09
-6.85199e-09
-7.30494e-09
-7.67947e-09
-7.98669e-09
-8.23696e-09
-8.44003e-09
-8.605e-09
-8.74004e-09
-8.85224e-09
-8.94742e-09
-9.03005e-09
-9.10345e-09
-9.16989e-09
-9.23089e-09
-9.28746e-09
-9.34042e-09
-9.39039e-09
-9.43802e-09
-9.48388e-09
-9.52859e-09
-9.5726e-09
-9.6163e-09
-9.65997e-09
-9.70372e-09
-9.7476e-09
-9.79157e-09
-9.83555e-09
-9.87951e-09
-9.92334e-09
-9.96709e-09
-1.00107e-08
-1.00542e-08
-1.00977e-08
-1.01412e-08
-1.01847e-08
-1.02282e-08
-1.02718e-08
-1.03154e-08
-1.0359e-08
-1.04028e-08
-1.04464e-08
-1.04901e-08
-1.05337e-08
-1.05774e-08
-1.0621e-08
-1.06647e-08
-1.07083e-08
-1.0752e-08
-1.07956e-08
-1.08394e-08
-1.08829e-08
-1.09268e-08
-1.09703e-08
-1.10142e-08
-1.10577e-08
-1.11017e-08
-1.11452e-08
-1.11893e-08
-1.12326e-08
-1.12768e-08
-1.13201e-08
-1.13645e-08
-1.14076e-08
-1.14522e-08
-1.14951e-08
-1.15399e-08
-1.15826e-08
-1.16277e-08
-1.16701e-08
-1.17156e-08
-1.17576e-08
-1.18036e-08
-1.18451e-08
-1.18917e-08
-1.19325e-08
-1.19799e-08
-1.20199e-08
-1.20683e-08
-1.21072e-08
-1.21569e-08
-1.21943e-08
-1.22456e-08
-1.22812e-08
-1.23347e-08
-1.23679e-08
-1.24241e-08
-1.24542e-08
-1.25138e-08
-1.254e-08
-1.26041e-08
-1.26252e-08
-1.2695e-08
-1.27097e-08
-1.27866e-08
-1.27932e-08
-1.28792e-08
-1.28754e-08
-1.29728e-08
-1.2956e-08
-1.30678e-08
-1.30346e-08
-1.31644e-08
-1.31109e-08
-1.32627e-08
-1.31843e-08
-1.33628e-08
-1.32547e-08
-1.34647e-08
-1.33218e-08
-1.35676e-08
-1.33866e-08
-1.36697e-08
-1.34514e-08
-1.37673e-08
-1.35219e-08
-1.38527e-08
-1.36116e-08
-1.39105e-08
-1.37502e-08
-1.39093e-08
-1.40046e-08
-1.37833e-08
-1.45277e-08
-1.33752e-08
-1.56783e-08
-1.22066e-08
-1.8294e-08
-8.0893e-09
-2.39269e-08
2.01582e-08
-1.48448e-08
-1.48448e-08
-0.146488
0.146488
0.0383105
0.014234
0.00745603
0.00467275
0.00323055
0.00237653
0.00182708
0.00145307
0.00118763
0.000992887
0.000845962
0.000732367
0.000642599
0.000570253
0.000510912
0.000461464
0.000419685
0.000383949
0.000353054
0.000326094
0.000302375
0.000281358
0.000262619
0.000245819
0.000230683
0.000216986
0.000204542
0.000193197
0.000182818
0.000173295
0.000164533
0.000156449
0.000148973
0.000142044
0.000135607
0.000129615
0.000124027
0.000118807
0.000113921
0.00010934
0.000105039
0.000100995
9.7186e-05
9.35944e-05
9.02032e-05
8.6997e-05
8.39621e-05
8.10859e-05
7.83572e-05
7.57655e-05
7.33015e-05
7.09564e-05
6.87223e-05
6.65921e-05
6.45589e-05
6.26167e-05
6.07599e-05
5.89831e-05
5.72816e-05
5.56509e-05
5.4087e-05
5.25858e-05
5.1144e-05
4.97581e-05
4.84252e-05
4.71424e-05
4.59069e-05
4.47164e-05
4.35684e-05
4.24608e-05
4.13917e-05
4.0359e-05
3.93611e-05
3.83961e-05
3.74627e-05
3.65592e-05
3.56844e-05
3.48369e-05
3.40156e-05
3.32191e-05
3.24466e-05
3.16969e-05
3.09691e-05
3.02623e-05
2.95756e-05
2.89083e-05
2.82595e-05
2.76285e-05
2.70146e-05
2.64173e-05
2.58358e-05
2.52695e-05
2.47181e-05
2.41808e-05
2.36572e-05
2.31469e-05
2.26493e-05
2.21641e-05
2.16908e-05
2.1229e-05
2.07784e-05
2.03386e-05
1.99093e-05
1.94901e-05
1.90808e-05
1.8681e-05
1.82904e-05
1.79088e-05
1.7536e-05
1.71716e-05
1.68154e-05
1.64673e-05
1.61269e-05
1.5794e-05
1.54685e-05
1.51502e-05
1.48389e-05
1.45343e-05
1.42364e-05
1.39449e-05
1.36596e-05
1.33805e-05
1.31074e-05
1.284e-05
1.25784e-05
1.23223e-05
1.20716e-05
1.18262e-05
1.15859e-05
1.13507e-05
1.11203e-05
1.08948e-05
1.0674e-05
1.04577e-05
1.0246e-05
1.00386e-05
9.83548e-06
9.63657e-06
9.44174e-06
9.25092e-06
9.06402e-06
8.88095e-06
8.70164e-06
8.52599e-06
8.35394e-06
8.18541e-06
8.02032e-06
7.8586e-06
7.70019e-06
7.54501e-06
7.39301e-06
7.24411e-06
7.09826e-06
6.95538e-06
6.81543e-06
6.67832e-06
6.54401e-06
6.41243e-06
6.2835e-06
6.15716e-06
6.03334e-06
5.91197e-06
5.79297e-06
5.67626e-06
5.56175e-06
5.44937e-06
5.33901e-06
5.23059e-06
5.12402e-06
5.0192e-06
4.91604e-06
4.81443e-06
4.71429e-06
4.61551e-06
4.518e-06
4.42168e-06
4.32644e-06
4.23223e-06
4.13895e-06
4.04653e-06
3.9549e-06
3.86401e-06
3.77379e-06
3.68419e-06
3.59519e-06
3.50674e-06
3.41882e-06
3.33141e-06
3.24448e-06
3.15804e-06
3.07208e-06
2.98661e-06
2.90164e-06
2.81719e-06
2.73329e-06
2.64997e-06
2.56724e-06
2.48513e-06
2.4037e-06
2.32299e-06
2.24305e-06
2.16394e-06
2.0857e-06
2.00839e-06
1.93206e-06
1.85674e-06
1.7825e-06
1.70941e-06
1.63753e-06
1.56691e-06
1.49763e-06
1.42972e-06
1.36323e-06
1.2982e-06
1.23466e-06
1.17266e-06
1.11225e-06
1.05347e-06
9.96383e-07
9.41002e-07
8.87345e-07
8.3542e-07
7.85226e-07
7.3677e-07
6.90063e-07
6.45123e-07
6.01967e-07
5.60603e-07
5.21028e-07
4.83225e-07
4.47163e-07
4.1281e-07
3.80135e-07
3.49112e-07
3.19724e-07
2.91956e-07
2.6579e-07
2.41201e-07
2.18148e-07
1.96582e-07
1.76444e-07
1.57674e-07
1.40217e-07
1.24022e-07
1.09046e-07
9.52484e-08
8.25888e-08
7.10202e-08
6.04884e-08
5.09318e-08
4.22845e-08
3.44796e-08
2.74541e-08
2.11507e-08
1.55191e-08
1.05147e-08
6.09637e-09
2.22354e-09
-1.14585e-09
-4.0562e-09
-6.55397e-09
-8.68616e-09
-1.04984e-08
-1.20329e-08
-1.33275e-08
-1.44147e-08
-1.53226e-08
-1.60751e-08
-1.66934e-08
-1.71967e-08
-1.76029e-08
-1.7929e-08
-1.81905e-08
-1.84015e-08
-1.85738e-08
-1.87175e-08
-1.884e-08
-1.89468e-08
-1.90419e-08
-1.91277e-08
-1.9206e-08
-1.92782e-08
-1.93453e-08
-1.94085e-08
-1.94687e-08
-1.9527e-08
-1.95842e-08
-1.96409e-08
-1.96975e-08
-1.97543e-08
-1.98113e-08
-1.98684e-08
-1.99256e-08
-1.99826e-08
-2.00395e-08
-2.00962e-08
-2.01527e-08
-2.0209e-08
-2.02652e-08
-2.03215e-08
-2.03777e-08
-2.04341e-08
-2.04905e-08
-2.0547e-08
-2.06034e-08
-2.066e-08
-2.07165e-08
-2.07731e-08
-2.08295e-08
-2.08861e-08
-2.09424e-08
-2.0999e-08
-2.10553e-08
-2.1112e-08
-2.11683e-08
-2.1225e-08
-2.12813e-08
-2.13381e-08
-2.13943e-08
-2.14512e-08
-2.15074e-08
-2.15644e-08
-2.16205e-08
-2.16777e-08
-2.17336e-08
-2.1791e-08
-2.18467e-08
-2.19044e-08
-2.19599e-08
-2.20178e-08
-2.2073e-08
-2.21313e-08
-2.21861e-08
-2.2245e-08
-2.22992e-08
-2.23587e-08
-2.24123e-08
-2.24726e-08
-2.25253e-08
-2.25867e-08
-2.26383e-08
-2.2701e-08
-2.2751e-08
-2.28155e-08
-2.28637e-08
-2.29303e-08
-2.2976e-08
-2.30454e-08
-2.3088e-08
-2.3161e-08
-2.31995e-08
-2.32771e-08
-2.33104e-08
-2.33939e-08
-2.34205e-08
-2.35115e-08
-2.35295e-08
-2.36302e-08
-2.36372e-08
-2.37501e-08
-2.37432e-08
-2.38715e-08
-2.3847e-08
-2.39948e-08
-2.39481e-08
-2.41203e-08
-2.40457e-08
-2.42485e-08
-2.41393e-08
-2.43796e-08
-2.42281e-08
-2.45138e-08
-2.43115e-08
-2.46509e-08