# vtk DataFile Version 2.0
FlowField
ASCII
DATASET STRUCTURED_GRID
DIMENSIONS 400 1 200
POINTS 80000 float
0 0 0
0.08 0 0
0.16 0 0
0.24 0 0
0.32 0 0
0.4 0 0
0.48 0 0
0.56 0 0
0.64 0 0
0.72 0 0
0.8 0 0
0.88 0 0
0.96 0 0
1.04 0 0
1.12 0 0
1.2 0 0
1.28 0 0
1.36 0 0
1.44 0 0
1.52 0 0
1.6 0 0
1.68 0 0
1.76 0 0
1.84 0 0
1.92 0 0
2 0 0
2.08 0 0
2.16 0 0
2.24 0 0
2.32 0 0
2.4 0 0
2.48 0 0
2.56 0 0
2.64 0 0
2.72 0 0
2.8 0 0
2.88 0 0
2.96 0 0
3.04 0 0
3.12 0 0
3.2 0 0
3.28 0 0
3.36 0 0
3.44 0 0
3.52 0 0
3.6 0 0
3.68 0 0
3.76 0 0
3.84 0 0
3.92 0 0
4 0 0
4.08 0 0
4.16 0 0
4.24 0 0
4.32 0 0
4.4 0 0
4.48 0 0
4.56 0 0
4.64 0 0
4.72 0 0
4.8 0 0
4.88 0 0
4.96 0 0
5.04 0 0
5.12 0 0
5.2 0 0
5.28 0 0
5.36 0 0
5.44 0 0
5.52 0 0
5.6 0 0
5.68 0 0
5.76 0 0
5.84 0 0
5.92 0 0
6 0 0
6.08 0 0
6.16 0 0
6.24 0 0
6.32 0 0
6.4 0 0
6.48 0 0
6.56 0 0
6.64 0 0
6.72 0 0
6.8 0 0
6.88 0 0
6.96 0 0
7.04 0 0
7.12 0 0
7.2 0 0
7.28 0 0
7.36 0 0
7.44 0 0
7.52 0 0
7.6 0 0
7.68 0 0
7.76 0 0
7.84 0 0
7.92 0 0
8 0 0
8.08 0 0
8.16 0 0
8.24 0 0
8.32 0 0
8.4 0 0
8.48 0 0
8.56 0 0
8.64 0 0
8.72 0 0
8.8 0 0
8.88 0 0
8.96 0 0
9.04 0 0
9.12 0 0
9.2 0 0
9.28 0 0
9.36 0 0
9.44 0 0
9.52 0 0
9.6 0 0
9.68 0 0
9.76 0 0
9.84 0 0
9.92 0 0
10 0 0
10.08 0 0
10.16 0 0
10.24 0 0
10.32 0 0
10.4 0 0
10.48 0 0
10.56 0 0
10.64 0 0
10.72 0 0
10.8 0 0
10.88 0 0
10.96 0 0
11.04 0 0
11.12 0 0
11.2 0 0
11.28 0 0
11.36 0 0
11.44 0 0
11.52 0 0
11.6 0 0
11.68 0 0
11.76 0 0
11.84 0 0
11.92 0 0
12 0 0
12.08 0 0
12.16 0 0
12.24 0 0
12.32 0 0
12.4 0 0
12.48 0 0
12.56 0 0
12.64 0 0
12.72 0 0
12.8 0 0
12.88 0 0
12.96 0 0
13.04 0 0
13.12 0 0
13.2 0 0
13.28 0 0
13.36 0 0
13.44 0 0
13.52 0 0
13.6 0 0
13.68 0 0
13.76 0 0
13.84 0 0
13.92 0 0
14 0 0
14.08 0 0
14.16 0 0
14.24 0 0
14.32 0 0
14.4 0 0
14.48 0 0
14.56 0 0
14.64 0 0
14.72 0 0
14.8 0 0
14.88 0 0
14.96 0 0
15.04 0 0
15.12 0 0
15.2 0 0
15.28 0 0
15.36 0 0
15.44 0 0
15.52 0 0
15.6 0 0
15.68 0 0
15.76 0 0
15.84 0 0
15.92 0 0
16 0 0
16.08 0 0
16.16 0 0
16.24 0 0
16.32 0 0
16.4 0 0
16.48 0 0
16.56 0 0
16.64 0 0
16.72 0 0
16.8 0 0
16.88 0 0
16.96 0 0
17.04 0 0
17.12 0 0
17.2 0 0
17.28 0 0
17.36 0 0
17.44 0 0
17.52 0 0
17.6 0 0
17.68 0 0
17.76 0 0
17.84 0 0
17.92 0 0
18 0 0
18.08 0 0
18.16 0 0
18.24 0 0
18.32 0 0
18.4 0 0
18.48 0 0
18.56 0 0
18.64 0 0
18.72 0 0
18.8 0 0
18.88 0 0
18.96 0 0
19.04 0 0
19.12 0 0
19.2 0 0
19.28 0 0
19.36 0 0
19.44 0 0
19.52 0 0
19.6 0 0
19.68 0 0
19.76 0 0
19.84 0 0
19.92 0 0
20 0 0
20.08 0 0
20.16 0 0
20.24 0 0
20.32 0 0
20.4 0 0
20.48 0 0
20.56 0 0
20.64 0 0
20.72 0 0
20.8 0 0
20.88 0 0
20.96 0 0
21.04 0 0
21.12 0 0
21.2 0 0
21.28 0 0
21.36 0 0
21.44 0 0
21.52 0 0
21.6 0 0
21.68 0 0
21.76 0 0
21.84 0 0
21.92 0 0
22 0 0
22.08 0 0
22.16 0 0
22.24 0 0
22.32 0 0
22.4 0 0
22.48 0 0
22.56 0 0
22.64 0 0
22.72 0 0
22.8 0 0
22.88 0 0
22.96 0 0
23.04 0 0
23.12 0 0
23.2 0 0
23.28 0 0
23.36 0 0
23.44 0 0
23.52 0 0
23.6 0 0
23.68 0 0
23.76 0 0
23.84 0 0
23.92 0 0
24 0 0
24.08 0 0
24.16 0 0
24.24 0 0
24.32 0 0
24.4 0 0
24.48 0 0
24.56 0 0
24.64 0 0
24.72 0 0
24.8 0 0
24.88 0 0
24.96 0 0
25.04 0 0
25.12 0 0
25.2 0 0
25.28 0 0
25.36 0 0
25.44 0 0
25.52 0 0
25.6 0 0
25.68 0 0
25.76 0 0
25.84 0 0
25.92 0 0
26 0 0
26.08 0 0
26.16 0 0
26.24 0 0
26.32 0 0
26.4 0 0
26.48 0 0
26.56 0 0
26.64 0 0
26.72 0 0
26.8 0 0
26.88 0 0
26.96 0 0
27.04 0 0
27.12 0 0
27.2 0 0
27.28 0 0
27.36 0 0
27.44 0 0
27.52 0 0
27.6 0 0
27.68 0 0
27.76 0 0
27.84 0 0
27.92 0 0
28 0 0
28.08 0 0
28.16 0 0
28.24 0 0
28.32 0 0
28.4 0 0
28.48 0 0
28.56 0 0
28.64 0 0
28.72 0 0
28.8 0 0
28.88 0 0
28.96 0 0
29.04 0 0
29.12 0 0
29.2 0 0
29.28 0 0
29.36 0 0
29.44 0 0
29.52 0 0
29.6 0 0
29.68 0 0
29.76 0 0
29.84 0 0
29.92 0 0
30 0 0
30.08 0 0
30.16 0 0
30.24 0 0
30.32 0 0
30.4 0 0
30.48 0 0
30.56 0 0
30.64 0 0
30.72 0 0
30.8 0 0
30.88 0 0
30.96 0 0
31.04 0 0
31.12 0 0
31.2 0 0
31.28 0 0
31.36 0 0
31.44 0 0
31.52 0 0
31.6 0 0
31.68 0 0
31.76 0 0
31.84 0 0
31.92 0 0
0 0.005 0
0.08 0.005 0
0.16 0.005 0
0.24 0.005 0
0.32 0.005 0
0.4 0.005 0
0.48 0.005 0
0.56 0.005 0
0.64 0.005 0
0.72 0.005 0
0.8 0.005 0
0.88 0.005 0
0.96 0.005 0
1.04 0.005 0
1.12 0.005 0
1.2 0.005 0
1.28 0.005 0
1.36 0.005 0
1.44 0.005 0
1.52 0.005 0
1.6 0.005 0
1.68 0.005 0
1.76 0.005 0
1.84 0.005 0
1.92 0.005 0
2 0.005 0
2.08 0.005 0
2.16 0.005 0
2.24 0.005 0
2.32 0.005 0
2.4 0.005 0
2.48 0.005 0
2.56 0.005 0
2.64 0.005 0
2.72 0.005 0
2.8 0.005 0
2.88 0.005 0
2.96 0.005 0
3.04 0.005 0
3.12 0.005 0
3.2 0.005 0
3.28 0.005 0
3.36 0.005 0
3.44 0.005 0
3.52 0.005 0
3.6 0.005 0
3.68 0.005 0
3.76 0.005 0
3.84 0.005 0
3.92 0.005 0
4 0.005 0
4.08 0.005 0
4.16 0.005 0
4.24 0.005 0
4.32 0.005 0
4.4 0.005 0
4.48 0.005 0
4.56 0.005 0
4.64 0.005 0
4.72 0.005 0
4.8 0.005 0
4.88 0.005 0
4.96 0.005 0
5.04 0.005 0
5.12 0.005 0
5.2 0.005 0
5.28 0.005 0
5.36 0.005 0
5.44 0.005 0
5.52 0.005 0
5.6 0.005 0
5.68 0.005 0
5.76 0.005 0
5.84 0.005 0
5.92 0.005 0
6 0.005 0
6.08 0.005 0
6.16 0.005 0
6.24 0.005 0
6.32 0.005 0
6.4 0.005 0
6.48 0.005 0
6.56 0.005 0
6.64 0.005 0
6.72 0.005 0
6.8 0.005 0
6.88 0.005 0
6.96 0.005 0
7.04 0.005 0
7.12 0.005 0
7.2 0.005 0
7.28 0.005 0
7.36 0.005 0
7.44 0.005 0
7.52 0.005 0
7.6 0.005 0
7.68 0.005 0
7.76 0.005 0
7.84 0.005 0
7.92 0.005 0
8 0.005 0
8.08 0.005 0
8.16 0.005 0
8.24 0.005 0
8.32 0.005 0
8.4 0.005 0
8.48 0.005 0
8.56 0.005 0
8.64 0.005 0
8.72 0.005 0
8.8 0.005 0
8.88 0.005 0
8.96 0.005 0
9.04 0.005 0
9.12 0.005 0
9.2 0.005 0
9.28 0.005 0
9.36 0.005 0
9.44 0.005 0
9.52 0.005 0
9.6 0.005 0
9.68 0.005 0
9.76 0.005 0
9.84 0.005 0
9.92 0.005 0
10 0.005 0
10.08 0.005 0
10.16 0.005 0
10.24 0.005 0
10.32 0.005 0
10.4 0.005 0
10.48 0.005 0
10.56 0.005 0
10.64 0.005 0
10.72 0.005 0
10.8 0.005 0
10.88 0.005 0
10.96 0.005 0
11.04 0.005 0
11.12 0.005 0
11.2 0.005 0
11.28 0.005 0
11.36 0.005 0
11.44 0.005 0
11.52 0.005 0
11.6 0.005 0
11.68 0.005 0
11.76 0.005 0
11.84 0.005 0
11.92 0.005 0
12 0.005 0
12.08 0.005 0
12.16 0.005 0
12.24 0.005 0
12.32 0.005 0
12.4 0.005 0
12.48 0.005 0
12.56 0.005 0
12.64 0.005 0
12.72 0.005 0
12.8 0.005 0
12.88 0.005 0
12.96 0.005 0
13.04 0.005 0
13.12 0.005 0
13.2 0.005 0
13.28 0.005 0
13.36 0.005 0
13.44 0.005 0
13.52 0.005 0
13.6 0.005 0
13.68 0.005 0
13.76 0.005 0
13.84 0.005 0
13.92 0.005 0
14 0.005 0
14.08 0.005 0
14.16 0.005 0
14.24 0.005 0
14.32 0.005 0
14.4 0.005 0
14.48 0.005 0
14.56 0.005 0
14.64 0.005 0
14.72 0.005 0
14.8 0.005 0
14.88 0.005 0
14.96 0.005 0
15.04 0.005 0
15.12 0.005 0
15.2 0.005 0
15.28 0.005 0
15.36 0.005 0
15.44 0.005 0
15.52 0.005 0
15.6 0.005 0
15.68 0.005 0
15.76 0.005 0
15.84 0.005 0
15.92 0.005 0
16 0.005 0
16.08 0.005 0
16.16 0.005 0
16.24 0.005 0
16.32 0.005 0
16.4 0.005 0
16.48 0.005 0
16.56 0.005 0
16.64 0.005 0
16.72 0.005 0
16.8 0.005 0
16.88 0.005 0
16.96 0.005 0
17.04 0.005 0
17.12 0.005 0
17.2 0.005 0
17.28 0.005 0
17.36 0.005 0
17.44 0.005 0
17.52 0.005 0
17.6 0.005 0
17.68 0.005 0
17.76 0.005 0
17.84 0.005 0
17.92 0.005 0
18 0.005 0
18.08 0.005 0
18.16 0.005 0
18.24 0.005 0
18.32 0.005 0
18.4 0.005 0
18.48 0.005 0
18.56 0.005 0
18.64 0.005 0
18.72 0.005 0
18.8 0.005 0
18.88 0.005 0
18.96 0.005 0
19.04 0.005 0
19.12 0.005 0
19.2 0.005 0
19.28 0.005 0
19.36 0.005 0
19.44 0.005 0
19.52 0.005 0
19.6 0.005 0
19.68 0.005 0
19.76 0.005 0
19.84 0.005 0
19.92 0.005 0
20 0.005 0
20.08 0.005 0
20.16 0.005 0
20.24 0.005 0
20.32 0.005 0
20.4 0.005 0
20.48 0.005 0
20.56 0.005 0
20.64 0.005 0
20.72 0.005 0
20.8 0.005 0
20.88 0.005 0
20.96 0.005 0
21.04 0.005 0
21.12 0.005 0
21.2 0.005 0
21.28 0.005 0
21.36 0.005 0
21.44 0.005 0
21.52 0.005 0
21.6 0.005 0
21.68 0.005 0
21.76 0.005 0
21.84 0.005 0
21.92 0.005 0
22 0.005 0
22.08 0.005 0
22.16 0.005 0
22.24 0.005 0
22.32 0.005 0
22.4 0.005 0
22.48 0.005 0
22.56 0.005 0
22.64 0.005 0
22.72 0.005 0
22.8 0.005 0
22.88 0.005 0
22.96 0.005 0
23.04 0.005 0
23.12 0.005 0
23.2 0.005 0
23.28 0.005 0
23.36 0.005 0
23.44 0.005 0
23.52 0.005 0
23.6 0.005 0
23.68 0.005 0
23.76 0.005 0
23.84 0.005 0
23.92 0.005 0
24 0.005 0
24.08 0.005 0
24.16 0.005 0
24.24 0.005 0
24.32 0.005 0
24.4 0.005 0
24.48 0.005 0
24.56 0.005 0
24.64 0.005 0
24.72 0.005 0
24.8 0.005 0
24.88 0.005 0
24.96 0.005 0
25.04 0.005 0
25.12 0.005 0
25.2 0.005 0
25.28 0.005 0
25.36 0.005 0
25.44 0.005 0
25.52 0.005 0
25.6 0.005 0
25.68 0.005 0
25.76 0.005 0
25.84 0.005 0
25.92 0.005 0
26 0.005 0
26.08 0.005 0
26.16 0.005 0
26.24 0.005 0
26.32 0.005 0
26.4 0.005 0
26.48 0.005 0
26.56 0.005 0
26.64 0.005 0
26.72 0.005 0
26.8 0.005 0
26.88 0.005 0
26.96 0.005 0
27.04 0.005 0
27.12 0.005 0
27.2 0.005 0
27.28 0.005 0
27.36 0.005 0
27.44 0.005 0
27.52 0.005 0
27.6 0.005 0
27.68 0.005 0
27.76 0.005 0
27.84 0.005 0
27.92 0.005 0
28 0.005 0
28.08 0.005 0
28.16 0.005 0
28.24 0.005 0
28.32 0.005 0
28.4 0.005 0
28.48 0.005 0
28.56 0.005 0
28.64 0.005 0
28.72 0.005 0
28.8 0.005 0
28.88 0.005 0
28.96 0.005 0
29.04 0.005 0
29.12 0.005 0
29.2 0.005 0
29.28 0.005 0
29.36 0.005 0
29.44 0.005 0
29.52 0.005 0
29.6 0.005 0
29.68 0.005 0
29.76 0.005 0
29.84 0.005 0
29.92 0.005 0
30 0.005 0
30.08 0.005 0
30.16 0.005 0
30.24 0.005 0
30.32 0.005 0
30.4 0.005 0
30.48 0.005 0
30.56 0.005 0
30.64 0.005 0
30.72 0.005 0
30.8 0.005 0
30.88 0.005 0
30.96 0.005 0
31.04 0.005 0
31.12 0.005 0
31.2 0.005 0
31.28 0.005 0
31.36 0.005 0
31.44 0.005 0
31.52 0.005 0
31.6 0.005 0
31.68 0.005 0
31.76 0.005 0
31.84 0.005 0
31.92 0.005 0
0 0.01 0
0.08 0.01 0
0.16 0.01 0
0.24 0.01 0
0.32 0.01 0
0.4 0.01 0
0.48 0.01 0
0.56 0.01 0
0.64 0.01 0
0.72 0.01 0
0.8 0.01 0
0.88 0.01 0
0.96 0.01 0
1.04 0.01 0
1.12 0.01 0
1.2 0.01 0
1.28 0.01 0
1.36 0.01 0
1.44 0.01 0
1.52 0.01 0
1.6 0.01 0
1.68 0.01 0
1.76 0.01 0
1.84 0.01 0
1.92 0.01 0
2 0.01 0
2.08 0.01 0
2.16 0.01 0
2.24 0.01 0
2.32 0.01 0
2.4 0.01 0
2.48 0.01 0
2.56 0.01 0
2.64 0.01 0
2.72 0.01 0
2.8 0.01 0
2.88 0.01 0
2.96 0.01 0
3.04 0.01 0
3.12 0.01 0
3.2 0.01 0
3.28 0.01 0
3.36 0.01 0
3.44 0.01 0
3.52 0.01 0
3.6 0.01 0
3.68 0.01 0
3.76 0.01 0
3.84 0.01 0
3.92 0.01 0
4 0.01 0
4.08 0.01 0
4.16 0.01 0
4.24 0.01 0
4.32 0.01 0
4.4 0.01 0
4.48 0.01 0
4.56 0.01 0
4.64 0.01 0
4.72 0.01 0
4.8 0.01 0
4.88 0.01 0
4.96 0.01 0
5.04 0.01 0
5.12 0.01 0
[...]
POINT_DATA 80000

SCALARS v float 1
LOOKUP_TABLE default
0
0
0
0
0
0
0
0
0
0
0
0
0
0
0
0
0
0
0
0
0
0
0
0
0
0
0
0
0
0
0
0
0
0
0
0
0
0
0
0
0
0
0
0
0
0
0
0
0
0
0
0
0
0
0
0
0
0
0
0
0
0
0
0
0
0
0
0
0
0
0
0
0
0
0
0
0
0
0
0
0
0
0
0
0
0
0
0
0
0
0
0
0
0
0
0
0
0
0
0
0
0
0
0
0
0
0
0
0
0
0
0
0
0
0
0
0
0
0
0
0
0
0
0
0
0
0
0
0
0
0
0
0
0
0
0
0
0
0
0
0
0
0
0
0
0
0
0
0
0
0
0
0
0
0
0
0
0
0
0
0
0
0
0
0
0
0
0
0
0
0
0
0
0
0
0
0
0
0
0
0
0
0
0
0
0
0
0
0
0
0
0
0
0
0
0
0
0
0
0
0
0
0
0
0
0
0
0
0
0
0
0
0
0
0
0
0
0
0
0
0
0
0
0
0
0
0
0
0
0
0
0
0
0
0
0
0
0
0
0
0
0
0
0
0
0
0
0
0
0
0
0
0
0
0
0
0
0
0
0
0
0
0
0
0
0
0
0
0
0
0
0
0
0
0
0
0
0
0
0
0
0
0
0
0
0
0
0
0
0
0
0
0
0
0
0
0
0
0
0
0
0
0
0
0
0
0
0
0
0
0
0
0
0
0
0
0
0
0
0
0
0
0
0
0
0
0
0
0
0
0
0
0
0
0
0
0
0
0
0
0
0
0
0
0
0
0
0
0
0
0
0
0
0
0
0
0
0
0
0
0
0
0
0
0
0
0
0
0
0
0
0
0
0
0
0
0
0
0
0
0
0
0
0
0
0
0
0
0
0
0
0
0
0
0
0
0
0
0
0
-0.0542711
0.0542711
0.0039621
0.00099833
0.00049226
0.000302696
0.00020732
0.000151692
0.00011625
9.22939e-05
7.53807e-05
6.30201e-05
5.37196e-05
4.65412e-05
4.08733e-05
3.63062e-05
3.25587e-05
2.94337e-05
2.67907e-05
2.45275e-05
2.25686e-05
2.08572e-05
1.935e-05
1.80131e-05
1.68201e-05
1.57496e-05
1.47845e-05
1.39106e-05
1.31162e-05
1.23915e-05
1.17283e-05
1.11195e-05
1.05592e-05
1.00421e-05
9.5638e-06
9.12031e-06
8.70826e-06
8.32463e-06
7.9668e-06
7.63241e-06
7.31939e-06
7.02591e-06
6.7503e-06
6.4911e-06
6.24698e-06
6.01674e-06
5.79932e-06
5.59375e-06
5.39913e-06
5.21468e-06
5.03966e-06
4.87342e-06
4.71536e-06
4.56491e-06
4.42157e-06
4.28488e-06
4.15441e-06
4.02976e-06
3.91059e-06
3.79654e-06
3.68732e-06
3.58264e-06
3.48223e-06
3.38584e-06
3.29326e-06
3.20427e-06
3.11867e-06
3.03627e-06
2.95692e-06
2.88045e-06
2.8067e-06
2.73555e-06
2.66685e-06
2.6005e-06
2.53637e-06
2.47436e-06
2.41436e-06
2.3563e-06
2.30006e-06
2.24558e-06
2.19277e-06
2.14157e-06
2.09189e-06
2.04368e-06
1.99688e-06
1.95142e-06
1.90725e-06
1.86432e-06
1.82258e-06
1.78198e-06
1.74249e-06
1.70405e-06
1.66663e-06
1.63019e-06
1.59469e-06
1.5601e-06
1.5264e-06
1.49354e-06
1.46151e-06
1.43026e-06
1.39978e-06
1.37004e-06
1.34102e-06
1.31269e-06
1.28504e-06
1.25803e-06
1.23166e-06
1.2059e-06
1.18074e-06
1.15615e-06
1.13212e-06
1.10863e-06
1.08568e-06
1.06323e-06
1.04129e-06
1.01983e-06
9.9885e-07
9.78327e-07
9.58252e-07
9.38613e-07
9.194e-07
9.00602e-07
8.82207e-07
8.64206e-07
8.46589e-07
8.29347e-07
8.1247e-07
7.9595e-07
7.79778e-07
7.63946e-07
7.48446e-07
7.3327e-07
7.1841e-07
7.03859e-07
6.89611e-07
6.75658e-07
6.61993e-07
6.48611e-07
6.35504e-07
6.22667e-07
6.10094e-07
5.97778e-07
5.85715e-07
5.73898e-07
5.62323e-07
5.50984e-07
5.39876e-07
5.28994e-07
5.18334e-07
5.0789e-07
4.97658e-07
4.87634e-07
4.77812e-07
4.6819e-07
4.58762e-07
4.49525e-07
4.40475e-07
4.31607e-07
4.22919e-07
4.14406e-07
4.06064e-07
3.97891e-07
3.89882e-07
3.82035e-07
3.74345e-07
3.66811e-07
3.59428e-07
3.52193e-07
3.45105e-07
3.38158e-07
3.31351e-07
3.24681e-07
3.18146e-07
3.11741e-07
3.05465e-07
2.99315e-07
2.93289e-07
2.87383e-07
2.81597e-07
2.75926e-07
2.70369e-07
2.64924e-07
2.59588e-07
2.5436e-07
2.49236e-07
2.44215e-07
2.39295e-07
2.34474e-07
2.29749e-07
2.2512e-07
2.20583e-07
2.16138e-07
2.11781e-07
2.07513e-07
2.03329e-07
1.9923e-07
1.95214e-07
1.91278e-07
1.87421e-07
1.83641e-07
1.79938e-07
1.76309e-07
1.72753e-07
1.69268e-07
1.65854e-07
1.62508e-07
1.59229e-07
1.56017e-07
1.52869e-07
1.49784e-07
1.46761e-07
1.438e-07
1.40897e-07
1.38054e-07
1.35267e-07
1.32536e-07
1.29861e-07
1.27239e-07
1.2467e-07
1.22153e-07
1.19687e-07
1.1727e-07
1.14901e-07
1.12581e-07
1.10307e-07
1.08079e-07
1.05896e-07
1.03757e-07
1.01661e-07
9.9607e-08
9.75945e-08
9.56226e-08
9.36905e-08
9.17973e-08
8.99423e-08
8.81247e-08
8.63439e-08
8.4599e-08
8.28893e-08
8.12143e-08
7.95731e-08
7.79652e-08
7.63898e-08
7.48464e-08
7.33342e-08
7.18527e-08
7.04013e-08
6.89792e-08
6.7586e-08
6.62211e-08
6.48837e-08
6.35734e-08
6.22894e-08
6.10313e-08
5.97984e-08
5.85901e-08
5.74058e-08
5.62449e-08
5.51068e-08
5.39907e-08
5.28962e-08
5.18226e-08
5.07692e-08
4.97354e-08
4.87205e-08
4.7724e-08
4.67451e-08
4.57832e-08
4.48377e-08
4.3908e-08
4.29933e-08
4.20931e-08
4.12068e-08
4.03338e-08
3.94735e-08
3.86252e-08
3.77885e-08
3.69628e-08
3.61477e-08
3.53426e-08
3.45471e-08
3.37607e-08
3.29831e-08
3.22138e-08
3.14526e-08
3.06992e-08
2.99532e-08
2.92145e-08
2.84828e-08
2.7758e-08
2.70399e-08
2.63285e-08
2.56236e-08
2.49252e-08
2.42334e-08
2.35481e-08
2.28694e-08
2.21974e-08
2.15322e-08
2.0874e-08
2.02228e-08
1.95789e-08
1.89424e-08
1.83137e-08
1.7693e-08
1.70804e-08
1.64763e-08
1.5881e-08
1.52946e-08
1.47176e-08
1.41503e-08
1.35928e-08
1.30456e-08
1.25088e-08
1.19828e-08
1.14679e-08
1.09642e-08
1.0472e-08
9.99163e-09
9.52319e-09
9.06692e-09
8.62297e-09
8.19148e-09
7.77256e-09
7.36634e-09
6.97288e-09
6.59226e-09
6.22447e-09
5.86957e-09
5.52751e-09
5.19829e-09
4.88179e-09
4.578e-09
4.28671e-09
4.0079e-09
3.74133e-09
3.48693e-09
3.24441e-09
3.01368e-09
2.79437e-09
2.58638e-09
2.38929e-09
2.203e-09
2.02699e-09
1.86122e-09
1.70511e-09
1.55862e-09
1.42111e-09
1.29258e-09
1.17228e-09
1.06033e-09
9.55821e-10
8.58999e-10
7.6886e-10
6.85792e-10
6.08595e-10
5.37908e-10
4.72298e-10
4.12646e-10
3.57264e-10
3.0737e-10
2.60895e-10
2.19526e-10
1.80741e-10
1.46798e-10
1.14574e-10
8.70398e-11
6.03388e-11
3.83007e-11
1.61233e-11
-1.24462e-12
-1.97719e-11
-3.31809e-11
-4.88504e-11
-5.89209e-11
-7.24275e-11
-7.96502e-11
-9.15654e-11
-9.63934e-11
-1.07178e-10
-1.10038e-10
-1.19988e-10
-1.21431e-10
-1.30531e-10
-1.31342e-10
-1.39058e-10
-1.40686e-10
-1.45466e-10
-1.50863e-10
-1.49024e-10
-1.64607e-10
-1.47529e-10
-1.87946e-10
-1.33833e-10
-2.34968e-10
-7.41882e-11
-3.34668e-10
3.76078e-10
-1.95275e-10
-1.95275e-10
-0.0952159
0.0952159
0.0129756
0.00385462
0.00193431
0.0011962
0.000821741
0.000602314
0.000462067
0.000367041
0.000299831
0.000250645
0.000213602
0.000184994
0.0001624
0.000144195
0.00012926
0.00011681
0.000106285
9.72762e-05
8.9483e-05
8.26778e-05
7.66869e-05
7.13755e-05
6.66372e-05
6.23872e-05
5.85565e-05
5.50888e-05
5.19373e-05
4.90631e-05
4.64331e-05
4.40195e-05
4.17981e-05
3.97485e-05
3.78526e-05
3.60951e-05
3.44623e-05
3.29423e-05
3.15245e-05
3.01998e-05
2.89598e-05
2.77973e-05
2.67056e-05
2.5679e-05
2.47122e-05
2.38004e-05
2.29393e-05
2.21253e-05
2.13546e-05
2.06243e-05
1.99313e-05
1.92731e-05
1.86473e-05
1.80517e-05
1.74842e-05
1.69431e-05
1.64266e-05
1.59332e-05
1.54615e-05
1.50101e-05
1.45778e-05
1.41635e-05
1.3766e-05
1.33846e-05
1.30182e-05
1.2666e-05
1.23273e-05
1.20012e-05
1.16872e-05
1.13846e-05
1.10928e-05
1.08112e-05
1.05394e-05
1.02769e-05
1.00232e-05
9.77786e-06
9.54052e-06
9.3108e-06
9.08835e-06
8.87284e-06
8.66395e-06
8.4614e-06
8.26492e-06
8.07424e-06
7.88911e-06
7.70932e-06
7.53464e-06
7.36486e-06
7.19979e-06
7.03925e-06
6.88307e-06
6.73106e-06
6.58309e-06
6.43901e-06
6.29866e-06
6.16192e-06
6.02866e-06
5.89876e-06
5.77211e-06
5.64859e-06
5.5281e-06
5.41055e-06
5.29583e-06
5.18385e-06
5.07454e-06
4.96781e-06
4.86357e-06
4.76176e-06
4.6623e-06
4.56512e-06
4.47016e-06
4.37735e-06
4.28664e-06
4.19795e-06
4.11125e-06
4.02646e-06
3.94355e-06
3.86246e-06
3.78315e-06
3.70556e-06
3.62965e-06
3.55538e-06
3.48271e-06
3.4116e-06
3.34201e-06
3.27389e-06
3.20723e-06
3.14197e-06
3.07809e-06
3.01556e-06
2.95434e-06
2.89439e-06
2.8357e-06
2.77824e-06
2.72196e-06
2.66686e-06
2.61289e-06
2.56004e-06
2.50828e-06
2.45759e-06
2.40794e-06
2.35931e-06
2.31167e-06
2.26501e-06
2.21931e-06
2.17453e-06
2.13068e-06
2.08771e-06
2.04562e-06
2.00438e-06
1.96399e-06
1.92441e-06
1.88563e-06
1.84764e-06
1.81043e-06
1.77396e-06
1.73823e-06
1.70322e-06
1.66892e-06
1.63532e-06
1.60239e-06
1.57012e-06
1.53851e-06
1.50753e-06
1.47718e-06
1.44744e-06
1.4183e-06
1.38974e-06
1.36176e-06
1.33434e-06
1.30748e-06
1.28115e-06
1.25536e-06
1.23008e-06
1.20531e-06
1.18104e-06
1.15725e-06
1.13394e-06
1.11111e-06
1.08873e-06
1.0668e-06
1.04531e-06
1.02425e-06
1.00361e-06
9.83393e-07
9.63579e-07
9.44163e-07
9.25136e-07
9.06492e-07
8.88223e-07
8.7032e-07
8.52777e-07
8.35586e-07
8.18741e-07
8.02234e-07
7.86059e-07
7.70209e-07
7.54678e-07
7.39459e-07
7.24545e-07
7.09932e-07
6.95612e-07
6.8158e-07
6.67831e-07
6.54357e-07
6.41155e-07
6.28219e-07
6.15542e-07
6.03121e-07
5.9095e-07
5.79023e-07
5.67337e-07
5.55886e-07
5.44665e-07
5.3367e-07
5.22897e-07
5.1234e-07
5.01996e-07
4.91861e-07
4.81929e-07
4.72197e-07
4.62662e-07
4.53318e-07
4.44163e-07
4.35192e-07
4.26401e-07
4.17788e-07
4.09348e-07
4.01078e-07
3.92975e-07
3.85036e-07
3.77256e-07
3.69633e-07
3.62164e-07
3.54846e-07
3.47675e-07
3.40649e-07
3.33765e-07
3.2702e-07
3.20412e-07
3.13937e-07
3.07594e-07
3.01378e-07
2.95289e-07
2.89323e-07
2.83479e-07
2.77752e-07
2.72142e-07
2.66645e-07
2.61259e-07
2.55983e-07
2.50812e-07
2.45746e-07
2.40781e-07
2.35916e-07
2.31147e-07
2.26473e-07
2.2189e-07
2.17397e-07
2.12991e-07
2.08669e-07
2.04429e-07
2.00268e-07
1.96185e-07
1.92175e-07
1.88237e-07
1.84368e-07
1.80566e-07
1.76827e-07
1.7315e-07
1.69532e-07
1.65971e-07
1.62463e-07
1.59007e-07
1.55601e-07
1.52241e-07
1.48927e-07
1.45655e-07
1.42424e-07
1.39233e-07
1.36078e-07
1.3296e-07
1.29875e-07
1.26823e-07
1.23802e-07
1.20812e-07
1.1785e-07
1.14918e-07
1.12012e-07
1.09134e-07
1.06282e-07
1.03457e-07
1.00657e-07
9.7883e-08
9.5135e-08
9.24131e-08
8.97176e-08
8.70488e-08
8.44071e-08
8.17933e-08
7.92079e-08
7.66518e-08
7.41258e-08
7.16308e-08
6.91679e-08
6.67381e-08
6.43424e-08
6.19821e-08
5.96582e-08
5.73719e-08
5.51244e-08
5.2917e-08
5.07507e-08
4.86266e-08
4.6546e-08
4.45098e-08
4.2519e-08
4.05746e-08
3.86775e-08
3.68284e-08
3.50282e-08
3.32774e-08
3.15767e-08
2.99263e-08
2.83269e-08
2.67785e-08
2.52814e-08
2.38358e-08
2.24416e-08
2.10988e-08
1.98071e-08
1.85663e-08
1.7376e-08
1.62357e-08
1.5145e-08
1.4103e-08
1.31094e-08
1.2163e-08
1.12635e-08
1.04092e-08
9.59988e-09
8.83376e-09
8.11032e-09
7.42773e-09
6.7855e-09
6.18155e-09
5.61555e-09
5.08502e-09
4.58987e-09
4.12724e-09
3.69735e-09
3.29689e-09
2.9266e-09
2.5826e-09
2.2663e-09
1.9732e-09
1.70547e-09
1.45777e-09
1.23327e-09
1.0256e-09
8.39217e-10
6.66373e-10
5.13296e-10
3.70484e-10
2.46307e-10
1.29104e-10
2.9855e-11
-6.58782e-11
-1.43803e-10
-2.21889e-10
-2.81755e-10
-3.45672e-10
-3.90263e-10
-4.43093e-10
-4.74798e-10
-5.19216e-10
-5.39986e-10
-5.78215e-10
-5.89812e-10
-6.23659e-10
-6.27773e-10
-6.58388e-10
-6.57019e-10
-6.84427e-10
-6.80554e-10
-7.02825e-10
-7.01834e-10
-7.13244e-10
-7.26098e-10
-7.1308e-10
-7.63514e-10
-6.94416e-10
-8.36502e-10
-6.31188e-10
-9.96851e-10
-3.99342e-10
-1.34479e-09
1.25292e-09
-8.28269e-10
-8.28269e-10
-0.125293
0.125293
0.0249359
0.00835802
0.004278
0.00266152
0.00183374
0.00134635
0.00103388
0.000821704
0.000671387
0.00056125
0.000478232
0.000414085
0.000363411
0.000322576
0.000289079
0.000261164
0.000237571
0.000217385
0.000199929
0.000184691
0.000171281
0.000159395
0.000148795
0.00013929
0.000130724
0.000122972
0.000115928
0.000109505
0.000103628
9.82351e-05
9.32725e-05
8.8694e-05
8.44594e-05
8.05341e-05
7.68875e-05
7.34931e-05
7.03272e-05
6.73693e-05
6.46007e-05
6.20051e-05
5.95679e-05
5.7276e-05
5.51176e-05
5.30822e-05
5.11602e-05
4.93431e-05
4.7623e-05
4.59928e-05
4.44462e-05
4.29772e-05
4.15805e-05
4.02512e-05
3.89848e-05
3.77772e-05
3.66246e-05
3.55236e-05
3.44709e-05
3.34637e-05
3.2499e-05
3.15745e-05
3.06878e-05
2.98367e-05
2.90192e-05
2.82334e-05
2.74776e-05
2.67502e-05
2.60497e-05
2.53746e-05
2.47236e-05
2.40956e-05
2.34893e-05
2.29036e-05
2.23377e-05
2.17905e-05
2.12611e-05
2.07487e-05
2.02525e-05
1.97718e-05
1.9306e-05
1.88542e-05
1.8416e-05
1.79908e-05
1.75779e-05
1.7177e-05
1.67875e-05
1.64089e-05
1.60408e-05
1.56828e-05
1.53345e-05
1.49956e-05
1.46657e-05
1.43444e-05
1.40315e-05
1.37267e-05
1.34296e-05
1.314e-05
1.28576e-05
1.25823e-05
1.23137e-05
1.20516e-05
1.17959e-05
1.15463e-05
1.13027e-05
1.10648e-05
1.08324e-05
1.06055e-05
1.03838e-05
1.01673e-05
9.95563e-06
9.7488e-06
9.54663e-06
9.349e-06
9.15577e-06
8.96684e-06
8.78209e-06
8.60139e-06
8.42465e-06
8.25177e-06
8.08263e-06
7.91716e-06
7.75524e-06
7.5968e-06
7.44175e-06
7.29e-06
7.14148e-06
6.9961e-06
6.85379e-06
6.71447e-06
6.57809e-06
6.44456e-06
6.31382e-06
6.1858e-06
6.06045e-06
5.9377e-06
5.8175e-06
5.69978e-06
5.58449e-06
5.47158e-06
5.36099e-06
5.25267e-06
5.14657e-06
5.04265e-06
4.94086e-06
4.84114e-06
4.74346e-06
4.64777e-06
4.55403e-06
4.4622e-06
4.37224e-06
4.2841e-06
4.19775e-06
4.11315e-06
4.03027e-06
3.94906e-06
3.8695e-06
3.79155e-06
3.71517e-06
3.64034e-06
3.56702e-06
3.49518e-06
3.42478e-06
3.35581e-06
3.28823e-06
3.22201e-06
3.15712e-06
3.09354e-06
3.03124e-06
2.97019e-06
2.91037e-06
2.85176e-06
2.79433e-06
2.73805e-06
2.6829e-06
2.62886e-06
2.57591e-06
2.52402e-06
2.47317e-06
2.42335e-06
2.37453e-06
2.32668e-06
2.2798e-06
2.23387e-06
2.18885e-06
2.14474e-06
2.10152e-06
2.05916e-06
2.01766e-06
1.97699e-06
1.93713e-06
1.89808e-06
1.85981e-06
1.82231e-06
1.78557e-06
1.74956e-06
1.71428e-06
1.67971e-06
1.64583e-06
1.61263e-06
1.5801e-06
1.54822e-06
1.51699e-06
1.48638e-06
1.45639e-06
1.42701e-06
1.39821e-06
1.36999e-06
1.34235e-06
1.31525e-06
1.28871e-06
1.2627e-06
1.23721e-06
1.21223e-06
1.18776e-06
1.16378e-06
1.14028e-06
1.11726e-06
1.0947e-06
1.07259e-06
1.05093e-06
1.02971e-06
1.00891e-06
9.88532e-07
9.68565e-07
9.49e-07
9.29829e-07
9.11044e-07
8.92638e-07
8.74603e-07
8.56931e-07
8.39616e-07
8.22649e-07
8.06026e-07
7.89737e-07
7.73778e-07
7.5814e-07
7.42819e-07
7.27807e-07
7.13099e-07
6.98689e-07
6.8457e-07
6.70738e-07
6.57185e-07
6.43907e-07
6.30898e-07
6.18153e-07
6.05666e-07
5.93431e-07
5.81444e-07
5.69699e-07
5.5819e-07
5.46912e-07
5.35861e-07
5.25029e-07
5.14413e-07
5.04006e-07
4.93803e-07
4.83799e-07
4.73987e-07
4.64362e-07
4.54919e-07
4.45652e-07
4.36555e-07
4.27623e-07
4.18849e-07
4.10228e-07
4.01754e-07
3.93421e-07
3.85224e-07
3.77158e-07
3.69217e-07
3.61394e-07
3.53686e-07
3.46087e-07
3.38592e-07
3.31197e-07
3.23896e-07
3.16685e-07
3.09561e-07
3.02519e-07
2.95556e-07
2.88668e-07
2.81853e-07
2.75107e-07
2.68428e-07
2.61814e-07
2.55264e-07
2.48774e-07
2.42345e-07
2.35975e-07
2.29664e-07
2.23411e-07
2.17215e-07
2.11078e-07
2.05e-07
1.98981e-07
1.93022e-07
1.87124e-07
1.81289e-07
1.75519e-07
1.69815e-07
1.64178e-07
1.58612e-07
1.53119e-07
1.477e-07
1.42359e-07
1.37097e-07
1.31918e-07
1.26824e-07
1.21818e-07
1.16902e-07
1.12079e-07
1.07351e-07
1.02721e-07
9.81913e-08
9.3764e-08
8.9441e-08
8.52245e-08
8.11161e-08
7.71174e-08
7.32299e-08
6.94546e-08
6.57925e-08
6.22445e-08
5.8811e-08
5.54926e-08
5.22892e-08
4.92012e-08
4.62278e-08
4.33691e-08
4.06238e-08
3.79915e-08
3.54707e-08
3.30606e-08
3.07592e-08
2.85657e-08
2.64774e-08
2.44932e-08
2.26101e-08
2.08267e-08
1.91394e-08
1.7547e-08
1.60454e-08
1.46333e-08
1.33062e-08
1.20632e-08
1.08988e-08
9.81279e-09
8.79879e-09
7.85719e-09
6.98076e-09
6.17089e-09
5.41926e-09
4.72867e-09
4.08939e-09
3.50594e-09
2.96675e-09
2.47857e-09
2.02754e-09
1.62321e-09
1.24886e-09
9.17714e-10
6.09397e-10
3.41703e-10
8.95984e-11
-1.23461e-10
-3.28449e-10
-4.94889e-10
-6.61195e-10
-7.88154e-10
-9.23445e-10
-1.01713e-09
-1.12816e-09
-1.19376e-09
-1.28635e-09
-1.3282e-09
-1.4073e-09
-1.42925e-09
-1.49878e-09
-1.50451e-09
-1.56699e-09
-1.5608e-09
-1.61643e-09
-1.60468e-09
-1.64939e-09
-1.6435e-09
-1.66527e-09
-1.68856e-09
-1.6587e-09
-1.76149e-09
-1.61317e-09
-1.90998e-09
-1.47412e-09
-2.24332e-09
-9.80357e-10
-2.96422e-09
2.46853e-09
-1.88004e-09
-1.88004e-09
-0.146488
0.146488
0.0383105
0.014234
0.00745602
0.00467275
0.00323055
0.00237653
0.00182708
0.00145306
0.00118762
0.000992883
0.000845958
0.000732363
0.000642595
0.000570249
0.000510907
0.00046146
0.000419681
0.000383945
0.00035305
0.00032609
0.000302371
0.000281354
0.000262615
0.000245814
0.000230678
0.000216982
0.000204538
0.000193192
0.000182814
0.000173291
0.000164528
0.000156444
0.000148969
0.000142039
0.000135602
0.000129611
0.000124023
0.000118802
0.000113916
0.000109336
0.000105035
0.00010099
9.71816e-05
9.359e-05
9.01987e-05
8.69925e-05
8.39576e-05
8.10815e-05
7.83527e-05
7.57611e-05
7.3297e-05
7.09519e-05
6.87178e-05
6.65876e-05
6.45544e-05
6.26122e-05
6.07553e-05
5.89785e-05
5.7277e-05
5.56464e-05
5.40823e-05
5.25812e-05
5.11393e-05
4.97535e-05
4.84206e-05
4.71377e-05
4.59022e-05
4.47116e-05
4.35636e-05
4.24561e-05
4.13869e-05
4.03542e-05
3.93562e-05
3.83913e-05
3.74578e-05
3.65543e-05
3.56795e-05
3.4832e-05
3.40106e-05
3.32141e-05
3.24415e-05
3.16918e-05
3.0964e-05
3.02571e-05
2.95704e-05
2.8903e-05
2.82541e-05
2.76231e-05
2.70092e-05
2.64118e-05
2.58303e-05
2.5264e-05
2.47125e-05
2.41752e-05
2.36515e-05
2.31412e-05
2.26435e-05
2.21583e-05
2.16849e-05
2.12231e-05
2.07725e-05
2.03326e-05
1.99033e-05
1.9484e-05
1.90747e-05
1.86748e-05
1.82842e-05
1.79026e-05
1.75297e-05
1.71653e-05
1.68091e-05
1.64609e-05
1.61205e-05
1.57877e-05
1.54622e-05
1.51439e-05
1.48325e-05
1.4528e-05
1.423e-05
1.39385e-05
1.36533e-05
1.33742e-05
1.31011e-05
1.28338e-05
1.25722e-05
1.23162e-05
1.20655e-05
1.18201e-05
1.15799e-05
1.13448e-05
1.11145e-05
1.08891e-05
1.06683e-05
1.04521e-05
1.02404e-05
1.00331e-05
9.83012e-06
9.63128e-06
9.43654e-06
9.2458e-06
9.05898e-06
8.87599e-06
8.69674e-06
8.52117e-06
8.34917e-06
8.18069e-06
8.01564e-06
7.85395e-06
7.69555e-06
7.54037e-06
7.38834e-06
7.2394e-06
7.09347e-06
6.9505e-06
6.81043e-06
6.67319e-06
6.53873e-06
6.40699e-06
6.27791e-06
6.15143e-06
6.02751e-06
5.90608e-06
5.78711e-06
5.67054e-06
5.55631e-06
5.44439e-06
5.33472e-06
5.22726e-06
5.12196e-06
5.01879e-06
4.91769e-06
4.81862e-06
4.72155e-06
4.62642e-06
4.53322e-06
4.44188e-06
4.35238e-06
4.26469e-06
4.17875e-06
4.09454e-06
4.01203e-06
3.93117e-06
3.85194e-06
3.7743e-06
3.69822e-06
3.62368e-06
3.55062e-06
3.47904e-06
3.4089e-06
3.34017e-06
3.27281e-06
3.20682e-06
3.14214e-06
3.07877e-06
3.01668e-06
2.95583e-06
2.8962e-06
2.83778e-06
2.78053e-06
2.72443e-06
2.66946e-06
2.6156e-06
2.56282e-06
2.5111e-06
2.46042e-06
2.41076e-06
2.36211e-06
2.31443e-06
2.26771e-06
2.22193e-06
2.17708e-06
2.13312e-06
2.09006e-06
2.04786e-06
2.00651e-06
1.96599e-06
1.92629e-06
1.88738e-06
1.84927e-06
1.81192e-06
1.77532e-06
1.73946e-06
1.70432e-06
1.66989e-06
1.63615e-06
1.6031e-06
1.57071e-06
1.53897e-06
1.50787e-06
1.4774e-06
1.44755e-06
1.41829e-06
1.38963e-06
1.36155e-06
1.33403e-06
1.30707e-06
1.28065e-06
1.25477e-06
1.22941e-06
1.20457e-06
1.18023e-06
1.15638e-06
1.13302e-06
1.11012e-06
1.0877e-06
1.06572e-06
1.04419e-06
1.0231e-06
1.00243e-06
9.82172e-07
9.62325e-07
9.42874e-07
9.23811e-07
9.05125e-07
8.86807e-07
8.68847e-07
8.51235e-07
8.33962e-07
8.17017e-07
8.00391e-07
7.84073e-07
7.68053e-07
7.52321e-07
7.36867e-07
7.2168e-07
7.06752e-07
6.92071e-07
6.77628e-07
6.63413e-07
6.49416e-07
6.35628e-07
6.2204e-07
6.08642e-07
5.95426e-07
5.82384e-07
5.69508e-07
5.5679e-07
5.44223e-07
5.318e-07
5.19515e-07
5.07362e-07
4.95336e-07
4.83432e-07
4.71646e-07
4.59975e-07
4.48414e-07
4.36962e-07
4.25616e-07
4.14374e-07
4.03236e-07
3.92201e-07
3.81269e-07
3.70441e-07
3.59716e-07
3.49097e-07
3.38586e-07
3.28184e-07
3.17893e-07
3.07718e-07
2.9766e-07
2.87724e-07
2.77914e-07
2.68233e-07
2.58685e-07
2.49276e-07
2.40008e-07
2.30888e-07
2.2192e-07
2.13108e-07
2.04457e-07
1.95971e-07
1.87655e-07
1.79513e-07
1.7155e-07
1.63768e-07
1.56172e-07
1.48764e-07
1.41549e-07
1.34528e-07
1.27704e-07
1.2108e-07
1.14655e-07
1.08433e-07
1.02413e-07
9.65971e-08
9.09843e-08
8.55753e-08
8.03689e-08
7.53647e-08
7.05608e-08
6.59561e-08
6.1548e-08
5.7335e-08
5.33135e-08
4.94818e-08
4.58353e-08
4.2372e-08
3.90863e-08
3.59758e-08
3.30342e-08
3.02591e-08
2.76432e-08
2.51845e-08
2.28747e-08
2.07122e-08
1.86876e-08
1.68001e-08
1.50386e-08
1.34036e-08
1.18827e-08
1.0478e-08
9.17508e-09
7.97862e-09
6.87183e-09
5.86222e-09
4.92996e-09
4.08633e-09
3.30759e-09
2.60989e-09
1.96464e-09
1.39414e-09
8.63711e-10
4.03414e-10
-2.93889e-11
-3.94923e-10
-7.45981e-10
-1.03077e-09
-1.31477e-09
-1.5313e-09
-1.76157e-09
-1.92064e-09
-2.10889e-09
-2.21954e-09
-2.3759e-09
-2.44566e-09
-2.57869e-09
-2.61421e-09
-2.73074e-09
-2.7384e-09
-2.84283e-09
-2.82997e-09
-2.92272e-09
-2.90006e-09
-2.97445e-09
-2.96133e-09
-2.99719e-09
-3.03289e-09
-2.98207e-09
-3.15141e-09
-2.90173e-09
-3.39744e-09
-2.66526e-09
-3.95443e-09
-1.83639e-09
-5.15072e-09
3.86196e-09
-3.34421e-09
-3.34421e-09
-0.160438
0.160438
0.0519966
0.0211683