# vtk DataFile Version 2.0
FlowField
ASCII
DATASET STRUCTURED_GRID
DIMENSIONS 400 1 200
POINTS 80000 float
0 0 0
0.08 0 0
0.16 0 0
0.24 0 0
0.32 0 0
0.4 0 0
0.48 0 0
0.56 0 0
0.64 0 0
0.72 0 0
0.8 0 0
0.88 0 0
0.96 0 0
1.04 0 0
1.12 0 0
1.2 0 0
1.28 0 0
1.36 0 0
1.44 0 0
1.52 0 0
1.6 0 0
1.68 0 0
1.76 0 0
1.84 0 0
1.92 0 0
2 0 0
2.08 0 0
2.16 0 0
2.24 0 0
2.32 0 0
2.4 0 0
2.48 0 0
2.56 0 0
2.64 0 0
2.72 0 0
2.8 0 0
2.88 0 0
2.96 0 0
3.04 0 0
3.12 0 0
3.2 0 0
3.28 0 0
3.36 0 0
3.44 0 0
3.52 0 0
3.6 0 0
3.68 0 0
3.76 0 0
3.84 0 0
3.92 0 0
4 0 0
4.08 0 0
4.16 0 0
4.24 0 0
4.32 0 0
4.4 0 0
4.48 0 0
4.56 0 0
4.64 0 0
4.72 0 0
4.8 0 0
4.88 0 0
4.96 0 0
5.04 0 0
5.12 0 0
5.2 0 0
5.28 0 0
5.36 0 0
5.44 0 0
5.52 0 0
5.6 0 0
5.68 0 0
5.76 0 0
5.84 0 0
5.92 0 0
6 0 0
6.08 0 0
6.16 0 0
6.24 0 0
6.32 0 0
6.4 0 0
6.48 0 0
6.56 0 0
6.64 0 0
6.72 0 0
6.8 0 0
6.88 0 0
6.96 0 0
7.04 0 0
7.12 0 0
7.2 0 0
7.28 0 0
7.36 0 0
7.44 0 0
7.52 0 0
7.6 0 0
7.68 0 0
7.76 0 0
7.84 0 0
7.92 0 0
8 0 0
8.08 0 0
8.16 0 0
8.24 0 0
8.32 0 0
8.4 0 0
8.48 0 0
8.56 0 0
8.64 0 0
8.72 0 0
8.8 0 0
8.88 0 0
8.96 0 0
9.04 0 0
9.12 0 0
9.2 0 0
9.28 0 0
9.36 0 0
9.44 0 0
9.52 0 0
9.6 0 0
9.68 0 0
9.76 0 0
9.84 0 0
9.92 0 0
10 0 0
10.08 0 0
10.16 0 0
10.24 0 0
10.32 0 0
10.4 0 0
10.48 0 0
10.56 0 0
10.64 0 0
10.72 0 0
10.8 0 0
10.88 0 0
10.96 0 0
11.04 0 0
11.12 0 0
11.2 0 0
11.28 0 0
11.36 0 0
11.44 0 0
11.52 0 0
11.6 0 0
11.68 0 0
11.76 0 0
11.84 0 0
11.92 0 0
12 0 0
12.08 0 0
12.16 0 0
12.24 0 0
12.32 0 0
12.4 0 0
12.48 0 0
12.56 0 0
12.64 0 0
12.72 0 0
12.8 0 0
12.88 0 0
12.96 0 0
13.04 0 0
13.12 0 0
13.2 0 0
13.28 0 0
13.36 0 0
13.44 0 0
13.52 0 0
13.6 0 0
13.68 0 0
13.76 0 0
13.84 0 0
13.92 0 0
14 0 0
14.08 0 0
14.16 0 0
14.24 0 0
14.32 0 0
14.4 0 0
14.48 0 0
14.56 0 0
14.64 0 0
14.72 0 0
14.8 0 0
14.88 0 0
14.96 0 0
15.04 0 0
15.12 0 0
15.2 0 0
15.28 0 0
15.36 0 0
15.44 0 0
15.52 0 0
15.6 0 0
15.68 0 0
15.76 0 0
15.84 0 0
15.92 0 0
16 0 0
16.08 0 0
16.16 0 0
16.24 0 0
16.32 0 0
16.4 0 0
16.48 0 0
16.56 0 0
16.64 0 0
16.72 0 0
16.8 0 0
16.88 0 0
16.96 0 0
17.04 0 0
17.12 0 0
17.2 0 0
17.28 0 0
17.36 0 0
17.44 0 0
17.52 0 0
17.6 0 0
17.68 0 0
17.76 0 0
17.84 0 0
17.92 0 0
18 0 0
18.08 0 0
18.16 0 0
18.24 0 0
18.32 0 0
18.4 0 0
18.48 0 0
18.56 0 0
18.64 0 0
18.72 0 0
18.8 0 0
18.88 0 0
18.96 0 0
19.04 0 0
19.12 0 0
19.2 0 0
19.28 0 0
19.36 0 0
19.44 0 0
19.52 0 0
19.6 0 0
19.68 0 0
19.76 0 0
19.84 0 0
19.92 0 0
20 0 0
20.08 0 0
20.16 0 0
20.24 0 0
20.32 0 0
20.4 0 0
20.48 0 0
20.56 0 0
20.64 0 0
20.72 0 0
20.8 0 0
20.88 0 0
20.96 0 0
21.04 0 0
21.12 0 0
21.2 0 0
21.28 0 0
21.36 0 0
21.44 0 0
21.52 0 0
21.6 0 0
21.68 0 0
21.76 0 0
21.84 0 0
21.92 0 0
22 0 0
22.08 0 0
22.16 0 0
22.24 0 0
22.32 0 0
22.4 0 0
22.48 0 0
22.56 0 0
22.64 0 0
22.72 0 0
22.8 0 0
22.88 0 0
22.96 0 0
23.04 0 0
23.12 0 0
23.2 0 0
23.28 0 0
23.36 0 0
23.44 0 0
23.52 0 0
23.6 0 0
23.68 0 0
23.76 0 0
23.84 0 0
23.92 0 0
24 0 0
24.08 0 0
24.16 0 0
24.24 0 0
24.32 0 0
24.4 0 0
24.48 0 0
24.56 0 0
24.64 0 0
24.72 0 0
24.8 0 0
24.88 0 0
24.96 0 0
25.04 0 0
25.12 0 0
25.2 0 0
25.28 0 0
25.36 0 0
25.44 0 0
25.52 0 0
25.6 0 0
25.68 0 0
25.76 0 0
25.84 0 0
25.92 0 0
26 0 0
26.08 0 0
26.16 0 0
26.24 0 0
26.32 0 0
26.4 0 0
26.48 0 0
26.56 0 0
26.64 0 0
26.72 0 0
26.8 0 0
26.88 0 0
26.96 0 0
27.04 0 0
27.12 0 0
27.2 0 0
27.28 0 0
27.36 0 0
27.44 0 0
27.52 0 0
27.6 0 0
27.68 0 0
27.76 0 0
27.84 0 0
27.92 0 0
28 0 0
28.08 0 0
28.16 0 0
28.24 0 0
28.32 0 0
28.4 0 0
28.48 0 0
28.56 0 0
28.64 0 0
28.72 0 0
28.8 0 0
28.88 0 0
28.96 0 0
29.04 0 0
29.12 0 0
29.2 0 0
29.28 0 0
29.36 0 0
29.44 0 0
29.52 0 0
29.6 0 0
29.68 0 0
29.76 0 0
29.84 0 0
29.92 0 0
30 0 0
30.08 0 0
30.16 0 0
30.24 0 0
30.32 0 0
30.4 0 0
30.48 0 0
30.56 0 0
30.64 0 0
30.72 0 0
30.8 0 0
30.88 0 0
30.96 0 0
31.04 0 0
31.12 0 0
31.2 0 0
31.28 0 0
31.36 0 0
31.44 0 0
31.52 0 0
31.6 0 0
31.68 0 0
31.76 0 0
31.84 0 0
31.92 0 0
0 0.005 0
0.08 0.005 0
0.16 0.005 0
0.24 0.005 0
0.32 0.005 0
0.4 0.005 0
0.48 0.005 0
0.56 0.005 0
0.64 0.005 0
0.72 0.005 0
0.8 0.005 0
0.88 0.005 0
0.96 0.005 0
1.04 0.005 0
1.12 0.005 0
1.2 0.005 0
1.28 0.005 0
1.36 0.005 0
1.44 0.005 0
1.52 0.005 0
1.6 0.005 0
1.68 0.005 0
1.76 0.005 0
1.84 0.005 0
1.92 0.005 0
2 0.005 0
2.08 0.005 0
2.16 0.005 0
2.24 0.005 0
2.32 0.005 0
2.4 0.005 0
2.48 0.005 0
2.56 0.005 0
2.64 0.005 0
2.72 0.005 0
2.8 0.005 0
2.88 0.005 0
2.96 0.005 0
3.04 0.005 0
3.12 0.005 0
3.2 0.005 0
3.28 0.005 0
3.36 0.005 0
3.44 0.005 0
3.52 0.005 0
3.6 0.005 0
3.68 0.005 0
3.76 0.005 0
3.84 0.005 0
3.92 0.005 0
4 0.005 0
4.08 0.005 0
4.16 0.005 0
4.24 0.005 0
4.32 0.005 0
4.4 0.005 0
4.48 0.005 0
4.56 0.005 0
4.64 0.005 0
4.72 0.005 0
4.8 0.005 0
4.88 0.005 0
4.96 0.005 0
5.04 0.005 0
5.12 0.005 0
5.2 0.005 0
5.28 0.005 0
5.36 0.005 0
5.44 0.005 0
5.52 0.005 0
5.6 0.005 0
5.68 0.005 0
5.76 0.005 0
5.84 0.005 0
5.92 0.005 0
6 0.005 0
6.08 0.005 0
6.16 0.005 0
6.24 0.005 0
6.32 0.005 0
6.4 0.005 0
6.48 0.005 0
6.56 0.005 0
6.64 0.005 0
6.72 0.005 0
6.8 0.005 0
6.88 0.005 0
6.96 0.005 0
7.04 0.005 0
7.12 0.005 0
7.2 0.005 0
7.28 0.005 0
7.36 0.005 0
7.44 0.005 0
7.52 0.005 0
7.6 0.005 0
7.68 0.005 0
7.76 0.005 0
7.84 0.005 0
7.92 0.005 0
8 0.005 0
8.08 0.005 0
8.16 0.005 0
8.24 0.005 0
8.32 0.005 0
8.4 0.005 0
8.48 0.005 0
8.56 0.005 0
8.64 0.005 0
8.72 0.005 0
8.8 0.005 0
8.88 0.005 0
8.96 0.005 0
9.04 0.005 0
9.12 0.005 0
9.2 0.005 0
9.28 0.005 0
9.36 0.005 0
9.44 0.005 0
9.52 0.005 0
9.6 0.005 0
9.68 0.005 0
9.76 0.005 0
9.84 0.005 0
9.92 0.005 0
10 0.005 0
10.08 0.005 0
10.16 0.005 0
10.24 0.005 0
10.32 0.005 0
10.4 0.005 0
10.48 0.005 0
10.56 0.005 0
10.64 0.005 0
10.72 0.005 0
10.8 0.005 0
10.88 0.005 0
10.96 0.005 0
11.04 0.005 0
11.12 0.005 0
11.2 0.005 0
11.28 0.005 0
11.36 0.005 0
11.44 0.005 0
11.52 0.005 0
11.6 0.005 0
11.68 0.005 0
11.76 0.005 0
11.84 0.005 0
11.92 0.005 0
12 0.005 0
12.08 0.005 0
12.16 0.005 0
12.24 0.005 0
12.32 0.005 0
12.4 0.005 0
12.48 0.005 0
12.56 0.005 0
12.64 0.005 0
12.72 0.005 0
12.8 0.005 0
12.88 0.005 0
12.96 0.005 0
13.04 0.005 0
13.12 0.005 0
13.2 0.005 0
13.28 0.005 0
13.36 0.005 0
13.44 0.005 0
13.52 0.005 0
13.6 0.005 0
13.68 0.005 0
13.76 0.005 0
13.84 0.005 0
13.92 0.005 0
14 0.005 0
14.08 0.005 0
14.16 0.005 0
14.24 0.005 0
14.32 0.005 0
14.4 0.005 0
14.48 0.005 0
14.56 0.005 0
14.64 0.005 0
14.72 0.005 0
14.8 0.005 0
14.88 0.005 0
14.96 0.005 0
15.04 0.005 0
15.12 0.005 0
15.2 0.005 0
15.28 0.005 0
15.36 0.005 0
15.44 0.005 0
15.52 0.005 0
15.6 0.005 0
15.68 0.005 0
15.76 0.005 0
15.84 0.005 0
15.92 0.005 0
16 0.005 0
16.08 0.005 0
16.16 0.005 0
16.24 0.005 0
16.32 0.005 0
16.4 0.005 0
16.48 0.005 0
16.56 0.005 0
16.64 0.005 0
16.72 0.005 0
16.8 0.005 0
16.88 0.005 0
16.96 0.005 0
17.04 0.005 0
17.12 0.005 0
17.2 0.005 0
17.28 0.005 0
17.36 0.005 0
17.44 0.005 0
17.52 0.005 0
17.6 0.005 0
17.68 0.005 0
17.76 0.005 0
17.84 0.005 0
17.92 0.005 0
18 0.005 0
18.08 0.005 0
18.16 0.005 0
18.24 0.005 0
18.32 0.005 0
18.4 0.005 0
18.48 0.005 0
18.56 0.005 0
18.64 0.005 0
18.72 0.005 0
18.8 0.005 0
18.88 0.005 0
18.96 0.005 0
19.04 0.005 0
19.12 0.005 0
19.2 0.005 0
19.28 0.005 0
19.36 0.005 0
19.44 0.005 0
19.52 0.005 0
19.6 0.005 0
19.68 0.005 0
19.76 0.005 0
19.84 0.005 0
19.92 0.005 0
20 0.005 0
20.08 0.005 0
20.16 0.005 0
20.24 0.005 0
20.32 0.005 0
20.4 0.005 0
20.48 0.005 0
20.56 0.005 0
20.64 0.005 0
20.72 0.005 0
20.8 0.005 0
20.88 0.005 0
20.96 0.005 0
21.04 0.005 0
21.12 0.005 0
21.2 0.005 0
21.28 0.005 0
21.36 0.005 0
21.44 0.005 0
21.52 0.005 0
21.6 0.005 0
21.68 0.005 0
21.76 0.005 0
21.84 0.005 0
21.92 0.005 0
22 0.005 0
22.08 0.005 0
22.16 0.005 0
22.24 0.005 0
22.32 0.005 0
22.4 0.005 0
22.48 0.005 0
22.56 0.005 0
22.64 0.005 0
22.72 0.005 0
22.8 0.005 0
22.88 0.005 0
22.96 0.005 0
23.04 0.005 0
23.12 0.005 0
23.2 0.005 0
23.28 0.005 0
23.36 0.005 0
23.44 0.005 0
23.52 0.005 0
23.6 0.005 0
23.68 0.005 0
23.76 0.005 0
23.84 0.005 0
23.92 0.005 0
24 0.005 0
24.08 0.005 0
24.16 0.005 0
24.24 0.005 0
24.32 0.005 0
24.4 0.005 0
24.48 0.005 0
24.56 0.005 0
24.64 0.005 0
24.72 0.005 0
24.8 0.005 0
24.88 0.005 0
24.96 0.005 0
25.04 0.005 0
25.12 0.005 0
25.2 0.005 0
25.28 0.005 0
25.36 0.005 0
25.44 0.005 0
25.52 0.005 0
25.6 0.005 0
25.68 0.005 0
25.76 0.005 0
25.84 0.005 0
25.92 0.005 0
26 0.005 0
26.08 0.005 0
26.16 0.005 0
26.24 0.005 0
26.32 0.005 0
26.4 0.005 0
26.48 0.005 0
26.56 0.005 0
26.64 0.005 0
26.72 0.005 0
26.8 0.005 0
26.88 0.005 0
26.96 0.005 0
27.04 0.005 0
27.12 0.005 0
27.2 0.005 0
27.28 0.005 0
27.36 0.005 0
27.44 0.005 0
27.52 0.005 0
27.6 0.005 0
27.68 0.005 0
27.76 0.005 0
27.84 0.005 0
27.92 0.005 0
28 0.005 0
28.08 0.005 0
28.16 0.005 0
28.24 0.005 0
28.32 0.005 0
28.4 0.005 0
28.48 0.005 0
28.56 0.005 0
28.64 0.005 0
28.72 0.005 0
28.8 0.005 0
28.88 0.005 0
28.96 0.005 0
29.04 0.005 0
29.12 0.005 0
29.2 0.005 0
29.28 0.005 0
29.36 0.005 0
29.44 0.005 0
29.52 0.005 0
29.6 0.005 0
29.68 0.005 0
29.76 0.005 0
29.84 0.005 0
29.92 0.005 0
30 0.005 0
30.08 0.005 0
30.16 0.005 0
30.24 0.005 0
30.32 0.005 0
30.4 0.005 0
30.48 0.005 0
30.56 0.005 0
30.64 0.005 0
30.72 0.005 0
30.8 0.005 0
30.88 0.005 0
30.96 0.005 0
31.04 0.005 0
31.12 0.005 0
31.2 0.005 0
31.28 0.005 0
31.36 0.005 0
31.44 0.005 0
31.52 0.005 0
31.6 0.005 0
31.68 0.005 0
31.76 0.005 0
31.84 0.005 0
31.92 0.005 0
0 0.01 0
0.08 0.01 0
0.16 0.01 0
0.24 0.01 0
0.32 0.01 0
0.4 0.01 0
0.48 0.01 0
0.56 0.01 0
0.64 0.01 0
0.72 0.01 0
0.8 0.01 0
0.88 0.01 0
0.96 0.01 0
1.04 0.01 0
1.12 0.01 0
1.2 0.01 0
1.28 0.01 0
1.36 0.01 0
1.44 0.01 0
1.52 0.01 0
1.6 0.01 0
1.68 0.01 0
1.76 0.01 0
1.84 0.01 0
1.92 0.01 0
2 0.01 0
2.08 0.01 0
2.16 0.01 0
2.24 0.01 0
2.32 0.01 0
2.4 0.01 0
2.48 0.01 0
2.56 0.01 0
2.64 0.01 0
2.72 0.01 0
2.8 0.01 0
2.88 0.01 0
2.96 0.01 0
3.04 0.01 0
3.12 0.01 0
3.2 0.01 0
3.28 0.01 0
3.36 0.01 0
3.44 0.01 0
3.52 0.01 0
3.6 0.01 0
3.68 0.01 0
3.76 0.01 0
3.84 0.01 0
3.92 0.01 0
4 0.01 0
4.08 0.01 0
4.16 0.01 0
4.24 0.01 0
4.32 0.01 0
4.4 0.01 0
4.48 0.01 0
4.56 0.01 0
4.64 0.01 0
4.72 0.01 0
4.8 0.01 0
4.88 0.01 0
4.96 0.01 0
5.04 0.01 0
5.12 0.01 0
[...]
POINT_DATA 80000

SCALARS u float 1
LOOKUP_TABLE default
0
-0.131663
-0.068269
-0.0522958
-0.0444196
-0.0395765
-0.0362594
-0.0338323
-0.0319723
-0.0304956
-0.0292895
-0.0282812
-0.0274217
-0.026677
-0.026023
-0.0254421
-0.0249212
-0.0244503
-0.0240216
-0.0236292
-0.0232681
-0.0229344
-0.0226248
-0.0223365
-0.0220674
-0.0218154
-0.0215789
-0.0213563
-0.0211465
-0.0209482
-0.0207605
-0.0205826
-0.0204137
-0.020253
-0.0201
-0.0199541
-0.0198147
-0.0196815
-0.0195541
-0.0194319
-0.0193148
-0.0192024
-0.0190944
-0.0189906
-0.0188906
-0.0187943
-0.0187015
-0.018612
-0.0185257
-0.0184422
-0.0183616
-0.0182836
-0.0182082
-0.0181351
-0.0180644
-0.0179958
-0.0179294
-0.0178649
-0.0178023
-0.0177416
-0.0176826
-0.0176252
-0.0175695
-0.0175154
-0.0174627
-0.0174114
-0.0173615
-0.0173129
-0.0172656
-0.0172195
-0.0171746
-0.0171308
-0.0170882
-0.0170466
-0.017006
-0.0169664
-0.0169278
-0.0168901
-0.0168533
-0.0168173
-0.0167822
-0.016748
-0.0167145
-0.0166818
-0.0166498
-0.0166186
-0.0165881
-0.0165583
-0.0165291
-0.0165006
-0.0164727
-0.0164454
-0.0164188
-0.0163927
-0.0163672
-0.0163422
-0.0163178
-0.0162939
-0.0162705
-0.0162476
-0.0162252
-0.0162033
-0.0161818
-0.0161608
-0.0161403
-0.0161201
-0.0161004
-0.0160811
-0.0160622
-0.0160437
-0.0160256
-0.0160079
-0.0159905
-0.0159735
-0.0159568
-0.0159405
-0.0159245
-0.0159089
-0.0158935
-0.0158785
-0.0158638
-0.0158494
-0.0158353
-0.0158214
-0.0158079
-0.0157946
-0.0157816
-0.0157689
-0.0157564
-0.0157442
-0.0157322
-0.0157205
-0.015709
-0.0156977
-0.0156867
-0.0156759
-0.0156653
-0.0156549
-0.0156447
-0.0156348
-0.015625
-0.0156154
-0.0156061
-0.0155969
-0.0155879
-0.0155791
-0.0155704
-0.015562
-0.0155537
-0.0155455
-0.0155376
-0.0155298
-0.0155221
-0.0155146
-0.0155073
-0.0155001
-0.0154931
-0.0154862
-0.0154794
-0.0154728
-0.0154664
-0.0154601
-0.0154539
-0.0154478
-0.0154419
-0.0154362
-0.0154305
-0.015425
-0.0154197
-0.0154145
-0.0154094
-0.0154044
-0.0153996
-0.0153949
-0.0153903
-0.0153859
-0.0153816
-0.0153774
-0.0153734
-0.0153694
-0.0153656
-0.015362
-0.0153584
-0.015355
-0.0153517
-0.0153486
-0.0153455
-0.0153426
-0.0153397
-0.015337
-0.0153345
-0.015332
-0.0153296
-0.0153273
-0.0153252
-0.0153231
-0.0153212
-0.0153193
-0.0153176
-0.0153159
-0.0153143
-0.0153128
-0.0153114
-0.0153101
-0.0153089
-0.0153077
-0.0153066
-0.0153056
-0.0153047
-0.0153038
-0.015303
-0.0153022
-0.0153015
-0.0153009
-0.0153003
-0.0152998
-0.0152993
-0.0152988
-0.0152984
-0.015298
-0.0152977
-0.0152974
-0.0152972
-0.0152969
-0.0152967
-0.0152965
-0.0152964
-0.0152963
-0.0152962
-0.0152961
-0.015296
-0.0152959
-0.0152959
-0.0152958
-0.0152958
-0.0152958
-0.0152958
-0.0152958
-0.0152958
-0.0152958
-0.0152958
-0.0152958
-0.0152959
-0.0152959
-0.0152959
-0.0152959
-0.015296
-0.015296
-0.015296
-0.0152961
-0.0152961
-0.0152962
-0.0152962
-0.0152962
-0.0152963
-0.0152963
-0.0152963
-0.0152964
-0.0152964
-0.0152965
-0.0152965
-0.0152965
-0.0152966
-0.0152966
-0.0152966
-0.0152967
-0.0152967
-0.0152968
-0.0152968
-0.0152968
-0.0152969
-0.0152969
-0.015297
-0.015297
-0.015297
-0.0152971
-0.0152971
-0.0152971
-0.0152972
-0.0152972
-0.0152973
-0.0152973
-0.0152973
-0.0152974
-0.0152974
-0.0152975
-0.0152975
-0.0152975
-0.0152976
-0.0152976
-0.0152976
-0.0152977
-0.0152977
-0.0152978
-0.0152978
-0.0152978
-0.0152979
-0.0152979
-0.015298
-0.015298
-0.015298
-0.0152981
-0.0152981
-0.0152982
-0.0152982
-0.0152982
-0.0152983
-0.0152983
-0.0152984
-0.0152984
-0.0152984
-0.0152985
-0.0152985
-0.0152985
-0.0152986
-0.0152986
-0.0152987
-0.0152987
-0.0152987
-0.0152988
-0.0152988
-0.0152989
-0.0152989
-0.0152989
-0.015299
-0.015299
-0.0152991
-0.0152991
-0.0152991
-0.0152992
-0.0152992
-0.0152993
-0.0152993
-0.0152993
-0.0152994
-0.0152994
-0.0152995
-0.0152995
-0.0152995
-0.0152996
-0.0152996
-0.0152997
-0.0152997
-0.0152997
-0.0152998
-0.0152998
-0.0152999
-0.0152999
-0.0152999
-0.0153
-0.0153
-0.0153001
-0.0153001
-0.0153001
-0.0153002
-0.0153002
-0.0153003
-0.0153003
-0.0153003
-0.0153004
-0.0153004
-0.0153005
-0.0153005
-0.0153005
-0.0153006
-0.0153006
-0.0153007
-0.0153007
-0.0153007
-0.0153008
-0.0153008
-0.0153009
-0.0153009
-0.0153009
-0.015301
-0.015301
-0.0153011
-0.0153011
-0.0153011
-0.0153012
-0.0153012
-0.0153013
-0.0153013
-0.0153014
-0.0153014
-0.0153014
-0.0153015
-0.0153015
-0.0153016
-0.0153016
-0.0153016
-0.0153017
-0.0153017
-0.0153018
-0.0153018
-0.0153018
-0.0153019
-0.0153018
-0.0153018
-0.0153018
1
0.131663
0.068269
0.0522958
0.0444196
0.0395765
0.0362594
0.0338323
0.0319723
0.0304956
0.0292895
0.0282812
0.0274217
0.026677
0.026023
0.0254421
0.0249212
0.0244503
0.0240216
0.0236292
0.0232681
0.0229344
0.0226248
0.0223365
0.0220674
0.0218154
0.0215789
0.0213563
0.0211465
0.0209482
0.0207605
0.0205826
0.0204137
0.020253
0.0201
0.0199541
0.0198147
0.0196815
0.0195541
0.0194319
0.0193148
0.0192024
0.0190944
0.0189906
0.0188906
0.0187943
0.0187015
0.018612
0.0185257
0.0184422
0.0183616
0.0182836
0.0182082
0.0181351
0.0180644
0.0179958
0.0179294
0.0178649
0.0178023
0.0177416
0.0176826
0.0176252
0.0175695
0.0175154
0.0174627
0.0174114
0.0173615
0.0173129
0.0172656
0.0172195
0.0171746
0.0171308
0.0170882
0.0170466
0.017006
0.0169664
0.0169278
0.0168901
0.0168533
0.0168173
0.0167822
0.016748
0.0167145
0.0166818
0.0166498
0.0166186
0.0165881
0.0165583
0.0165291
0.0165006
0.0164727
0.0164454
0.0164188
0.0163927
0.0163672
0.0163422
0.0163178
0.0162939
0.0162705
0.0162476
0.0162252
0.0162033
0.0161818
0.0161608
0.0161403
0.0161201
0.0161004
0.0160811
0.0160622
0.0160437
0.0160256
0.0160079
0.0159905
0.0159735
0.0159568
0.0159405
0.0159245
0.0159089
0.0158935
0.0158785
0.0158638
0.0158494
0.0158353
0.0158214
0.0158079
0.0157946
0.0157816
0.0157689
0.0157564
0.0157442
0.0157322
0.0157205
0.015709
0.0156977
0.0156867
0.0156759
0.0156653
0.0156549
0.0156447
0.0156348
0.015625
0.0156154
0.0156061
0.0155969
0.0155879
0.0155791
0.0155704
0.015562
0.0155537
0.0155455
0.0155376
0.0155298
0.0155221
0.0155146
0.0155073
0.0155001
0.0154931
0.0154862
0.0154794
0.0154728
0.0154664
0.0154601
0.0154539
0.0154478
0.0154419
0.0154362
0.0154305
0.015425
0.0154197
0.0154145
0.0154094
0.0154044
0.0153996
0.0153949
0.0153903
0.0153859
0.0153816
0.0153774
0.0153734
0.0153694
0.0153656
0.015362
0.0153584
0.015355
0.0153517
0.0153486
0.0153455
0.0153426
0.0153397
0.015337
0.0153345
0.015332
0.0153296
0.0153273
0.0153252
0.0153231
0.0153212
0.0153193
0.0153176
0.0153159
0.0153143
0.0153128
0.0153114
0.0153101
0.0153089
0.0153077
0.0153066
0.0153056
0.0153047
0.0153038
0.015303
0.0153022
0.0153015
0.0153009
0.0153003
0.0152998
0.0152993
0.0152988
0.0152984
0.015298
0.0152977
0.0152974
0.0152972
0.0152969
0.0152967
0.0152965
0.0152964
0.0152963
0.0152962
0.0152961
0.015296
0.0152959
0.0152959
0.0152958
0.0152958
0.0152958
0.0152958
0.0152958
0.0152958
0.0152958
0.0152958
0.0152958
0.0152959
0.0152959
0.0152959
0.0152959
0.015296
0.015296
0.015296
0.0152961
0.0152961
0.0152962
0.0152962
0.0152962
0.0152963
0.0152963
0.0152963
0.0152964
0.0152964
0.0152965
0.0152965
0.0152965
0.0152966
0.0152966
0.0152966
0.0152967
0.0152967
0.0152968
0.0152968
0.0152968
0.0152969
0.0152969
0.015297
0.015297
0.015297
0.0152971
0.0152971
0.0152971
0.0152972
0.0152972
0.0152973
0.0152973
0.0152973
0.0152974
0.0152974
0.0152975
0.0152975
0.0152975
0.0152976
0.0152976
0.0152976
0.0152977
0.0152977
0.0152978
0.0152978
0.0152978
0.0152979
0.0152979
0.015298
0.015298
0.015298
0.0152981
0.0152981
0.0152982
0.0152982
0.0152982
0.0152983
0.0152983
0.0152984
0.0152984
0.0152984
0.0152985
0.0152985
0.0152985
0.0152986
0.0152986
0.0152987
0.0152987
0.0152987
0.0152988
0.0152988
0.0152989
0.0152989
0.0152989
0.015299
0.015299
0.0152991
0.0152991
0.0152991
0.0152992
0.0152992
0.0152993
0.0152993
0.0152993
0.0152994
0.0152994
0.0152995
0.0152995
0.0152995
0.0152996
0.0152996
0.0152997
0.0152997
0.0152997
0.0152998
0.0152998
0.0152999
0.0152999
0.0152999
0.0153
0.0153
0.0153001
0.0153001
0.0153001
0.0153002
0.0153002
0.0153003
0.0153003
0.0153003
0.0153004
0.0153004
0.0153005
0.0153005
0.0153005
0.0153006
0.0153006
0.0153007
0.0153007
0.0153007
0.0153008
0.0153008
0.0153009
0.0153009
0.0153009
0.015301
0.015301
0.0153011
0.0153011
0.0153011
0.0153012
0.0153012
0.0153013
0.0153013
0.0153014
0.0153014
0.0153014
0.0153015
0.0153015
0.0153016
0.0153016
0.0153016
0.0153017
0.0153017
0.0153018
0.0153018
0.0153018
0.0153019
0.0153018
0.0153018
0.0153018
1
0.344884
0.200667
0.154967
0.131894
0.117598
0.107767
0.100557
0.0950241
0.0906282
0.087037
0.084035
0.0814768
0.0792616
0.0773172
0.075591
0.0740437
0.0726457
0.0713738
0.0702099
0.0691392
0.0681501
0.0672327
0.0663789
0.0655818
0.0648356
0.0641353
0.0634764
0.0628553
0.0622686
0.0617133
0.0611869
0.0606871
0.0602118
0.0597591
0.0593275
0.0589155
0.0585216
0.0581447
0.0577836
0.0574374
0.057105
0.0567857
0.0564787
0.0561833
0.0558987
0.0556245
0.05536
0.0551047
0.0548582
0.0546199
0.0543895
0.0541666
0.0539508
0.0537418
0.0535393
0.0533429
0.0531525
0.0529676
0.0527882
0.052614
0.0524447
0.0522801
0.0521202
0.0519646
0.0518132
0.0516658
0.0515224
0.0513827
0.0512466
0.0511141
0.0509848
0.0508589
0.0507361
0.0506163
0.0504994
0.0503854
0.0502741
0.0501655
0.0500595
0.0499559
0.0498548
0.049756
0.0496595
0.0495653
0.0494731
0.0493831
0.0492951
0.049209
0.0491249
0.0490426
0.0489622
0.0488835
0.0488066
0.0487313
0.0486577
0.0485856
0.0485152
0.0484462
0.0483787
0.0483126
0.048248
0.0481847
0.0481227
0.0480621
0.0480027
0.0479446
0.0478877
0.047832
0.0477774
0.047724
0.0476717
0.0476205
0.0475703
0.0475212
0.0474731
0.047426
0.0473798
0.0473346
0.0472903
0.047247
0.0472045
0.0471629
0.0471221
0.0470822
0.0470431
0.0470047
0.0469672
0.0469304
0.0468944
0.0468591
0.0468245
0.0467906
0.0467575
0.0467249
0.0466931
0.0466619
0.0466313
0.0466013
0.0465719
0.0465432
0.046515
0.0464874
0.0464603
0.0464338
0.0464078
0.0463823
0.0463574
0.046333
0.046309
0.0462856
0.0462626
0.04624
0.046218
0.0461964
0.0461752
0.0461545
0.0461342
0.0461144
0.046095
0.046076
0.0460574
0.0460392
0.0460215
0.0460041
0.0459872
0.0459706
0.0459545
0.0459388
0.0459234
0.0459085
0.0458939
0.0458798
0.045866
0.0458526
0.0458396
0.045827
0.0458148
0.045803
0.0457915
0.0457804
0.0457697
0.0457594
0.0457494
0.0457398
0.0457305
0.0457216
0.0457131
0.0457049
0.045697
0.0456894
0.0456822
0.0456754
0.0456688
0.0456625
0.0456566
0.0456509
0.0456455
0.0456404
0.0456356
0.0456311
0.0456268
0.0456227
0.0456189
0.0456154
0.045612
0.0456089
0.045606
0.0456033
0.0456008
0.0455984
0.0455963
0.0455943
0.0455924
0.0455908
0.0455892
0.0455878
0.0455866
0.0455854
0.0455844
0.0455834
0.0455826
0.0455819
0.0455812
0.0455806
0.0455801
0.0455797
0.0455793
0.045579
0.0455788
0.0455786
0.0455784
0.0455783
0.0455782
0.0455781
0.0455781
0.0455781
0.0455781
0.0455781
0.0455781
0.0455782
0.0455783
0.0455783
0.0455784
0.0455785
0.0455786
0.0455787
0.0455788
0.0455789
0.045579
0.0455791
0.0455792
0.0455793
0.0455794
0.0455796
0.0455797
0.0455798
0.0455799
0.04558
0.0455801
0.0455802
0.0455804
0.0455805
0.0455806
0.0455807
0.0455808
0.0455809
0.045581
0.0455811
0.0455813
0.0455814
0.0455815
0.0455816
0.0455817
0.0455818
0.045582
0.0455821
0.0455822
0.0455823
0.0455824
0.0455825
0.0455826
0.0455828
0.0455829
0.045583
0.0455831
0.0455832
0.0455833
0.0455834
0.0455836
0.0455837
0.0455838
0.0455839
0.045584
0.0455841
0.0455843
0.0455844
0.0455845
0.0455846
0.0455847
0.0455848
0.045585
0.0455851
0.0455852
0.0455853
0.0455854
0.0455855
0.0455857
0.0455858
0.0455859
0.045586
0.0455861
0.0455862
0.0455864
0.0455865
0.0455866
0.0455867
0.0455868
0.0455869
0.0455871
0.0455872
0.0455873
0.0455874
0.0455875
0.0455877
0.0455878
0.0455879
0.045588
0.0455881
0.0455882
0.0455884
0.0455885
0.0455886
0.0455887
0.0455888
0.0455889
0.0455891
0.0455892
0.0455893
0.0455894
0.0455895
0.0455897
0.0455898
0.0455899
0.04559
0.0455901
0.0455903
0.0455904
0.0455905
0.0455906
0.0455907
0.0455909
0.045591
0.0455911
0.0455912
0.0455913
0.0455915
0.0455916
0.0455917
0.0455918
0.0455919
0.0455921
0.0455922
0.0455923
0.0455924
0.0455925
0.0455927
0.0455928
0.0455929
0.045593
0.0455931
0.0455933
0.0455934
0.0455935
0.0455936
0.0455937
0.0455939
0.045594
0.0455941
0.0455942
0.0455943
0.0455945
0.0455946
0.0455947
0.0455948
0.045595
0.0455951
0.0455952
0.0455953
0.0455954
0.0455956
0.0455957
0.0455958
0.0455959
0.0455961
0.0455961
0.0455964
0.0455962
0.0455962
0.0455962
1
0.518765
0.327401
0.255347
0.217848
0.194403
0.178211
0.166306
0.157157
0.149883
0.143938
0.138968
0.134734
0.131068
0.127852
0.124998
0.122441
0.120131
0.118031
0.116109
0.114342
0.11271
0.111196
0.109788
0.108473
0.107243
0.106088
0.105002
0.103978
0.103011
0.102096
0.101229
0.100405
0.099622
0.0988763
0.0981653
0.0974865
0.0968376
0.0962168
0.0956221
0.0950518
0.0945045
0.0939787
0.0934732
0.0929867
0.0925182
0.0920666
0.0916312
0.0912109
0.090805
0.0904127
0.0900335
0.0896665
0.0893113
0.0889673
0.088634
0.0883108
0.0879974
0.0876932
0.087398
0.0871112
0.0868327
0.0865619
0.0862987
0.0860427
0.0857936
0.0855512
0.0853152
0.0850854
0.0848615
0.0846434
0.0844309
0.0842237
0.0840217
0.0838246
0.0836324
0.0834449
0.0832619
0.0830832
0.0829088
0.0827386
0.0825723
0.0824099
0.0822512
0.0820962
0.0819447
0.0817966
0.0816519
0.0815104
0.0813721
0.0812369
0.0811047
0.0809753
0.0808488
0.0807251
0.0806041
0.0804856
0.0803698
0.0802564
0.0801454
0.0800368
0.0799306
0.0798266
0.0797248
0.0796251
0.0795275
0.079432
0.0793385
0.0792469
0.0791573
0.0790695
0.0789836
0.0788994
0.078817
0.0787362
0.0786572
0.0785798
0.0785039
0.0784296
0.0783569
0.0782856
0.0782158
0.0781475
0.0780805
0.0780149
0.0779506
0.0778877
0.077826
0.0777656
0.0777064
0.0776484
0.0775916
0.077536
0.0774814
0.077428
0.0773757
0.0773244
0.0772742
0.0772249
0.0771767
0.0771295
0.0770832
0.0770378
0.0769934
0.0769498
0.0769071
0.0768653
0.0768244
0.0767842
0.0767449
0.0767064
0.0766686
0.0766317
0.0765954
0.07656
0.0765253
0.0764913
0.076458
0.0764254
0.0763935
0.0763624
0.0763319
0.0763021
0.076273
0.0762445
0.0762168
0.0761897
0.0761632
0.0761374
0.0761123
0.0760878
0.076064
0.0760409
0.0760183
0.0759965
0.0759752
0.0759546
0.0759347
0.0759153
0.0758966
0.0758785
0.075861
0.0758442
0.0758279
0.0758122
0.0757971
0.0757826
0.0757687
0.0757553
0.0757425
0.0757303
0.0757186
0.0757074
0.0756967
0.0756865
0.0756769
0.0756677
0.075659
0.0756507
0.0756429
0.0756356
0.0756286
0.0756221
0.0756159
0.0756102
0.0756048
0.0755997
0.0755951
0.0755907
0.0755866
0.0755829
0.0755794
0.0755762
0.0755733
0.0755706
0.0755681
0.0755659
0.0755638
0.075562
0.0755604
0.0755589
0.0755576
0.0755564
0.0755554
0.0755545
0.0755537
0.075553
0.0755524
0.0755519
0.0755515
0.0755512
0.075551
0.0755508
0.0755506
0.0755505
0.0755505
0.0755505
0.0755505
0.0755505
0.0755506
0.0755507
0.0755508
0.075551
0.0755511
0.0755512
0.0755514
0.0755516
0.0755517
0.0755519
0.0755521
0.0755523
0.0755525
0.0755526
0.0755528
0.075553
0.0755532
0.0755534
0.0755536
0.0755538
0.0755539
0.0755541
0.0755543
0.0755545
0.0755547
0.0755549
0.0755551
0.0755553
0.0755555
0.0755556
0.0755558
0.075556
0.0755562
0.0755564
0.0755566
0.0755568
0.075557
0.0755572
0.0755574
0.0755575
0.0755577
0.0755579
0.0755581
0.0755583
0.0755585
0.0755587
0.0755589
0.0755591
0.0755593
0.0755595
0.0755596
0.0755598
0.07556
0.0755602
0.0755604
0.0755606
0.0755608
0.075561
0.0755612
0.0755614
0.0755616
0.0755618
0.075562
0.0755621
0.0755623
0.0755625
0.0755627
0.0755629
0.0755631
0.0755633
0.0755635
0.0755637
0.0755639
0.0755641
0.0755643
0.0755645
0.0755647
0.0755649
0.075565
0.0755652
0.0755654
0.0755656
0.0755658
0.075566
0.0755662
0.0755664
0.0755666
0.0755668
0.075567
0.0755672
0.0755674
0.0755676
0.0755678
0.075568
0.0755682
0.0755684
0.0755686
0.0755688
0.075569
0.0755692
0.0755694
0.0755696
0.0755697
0.0755699
0.0755701
0.0755703
0.0755705
0.0755707
0.0755709
0.0755711
0.0755713
0.0755715
0.0755717
0.0755719
0.0755721
0.0755723
0.0755725
0.0755727
0.0755729
0.0755731
0.0755733
0.0755735
0.0755737
0.0755739
0.0755741
0.0755743
0.0755745
0.0755747
0.0755749
0.0755751
0.0755753
0.0755755
0.0755757
0.0755759
0.0755761
0.0755763
0.0755765
0.0755767
0.0755769
0.0755771
0.0755773
0.0755775
0.0755777
0.0755779
0.0755781
0.0755783
0.0755785
0.0755787
0.0755789
0.0755791
0.0755793
0.0755795
0.0755797
0.0755799
0.0755801
0.0755804
0.0755805
0.0755808
0.0755806
0.0755806
0.0755806
1
0.660887
0.446893
0.352877
0.302029
0.269849
0.2475
0.231017
0.218326
0.208224
0.199965
0.193058
0.187175
0.182082
0.177615
0.173653
0.170103
0.166899
0.163985
0.16132
0.15887
0.156608
0.15451
0.152559
0.150738
0.149033
0.147434
0.14593
0.144512
0.143173
0.141906
0.140705
0.139565
0.138481
0.137449
0.136465
0.135526
0.134628
0.133769
0.132946
0.132157
0.131399
0.130672
0.129972
0.129299
0.128651
0.128027
0.127424
0.126843
0.126282
0.125739
0.125214
0.124707
0.124216
0.12374
0.123279
0.122832
0.122399
0.121978
0.12157
0.121174
0.120788
0.120414
0.12005
0.119696
0.119352
0.119017
0.118691
0.118373
0.118064
0.117762
0.117468
0.117182
0.116903
0.116631
0.116365
0.116106
0.115853
0.115606
0.115365
0.11513
0.1149
0.114676
0.114456
0.114242
0.114033
0.113828
0.113628
0.113433
0.113242
0.113055
0.112872
0.112694
0.112519
0.112348
0.112181
0.112017
0.111857
0.111701
0.111548
0.111398
0.111251
0.111107
0.110967
0.110829
0.110694
0.110562
0.110433
0.110307
0.110183
0.110062
0.109943
0.109827
0.109713
0.109602
0.109493
0.109386
0.109281
0.109178
0.109078
0.10898
0.108883
0.108789
0.108696
0.108606
0.108517
0.10843
0.108345
0.108262
0.10818
0.1081
0.108022
0.107945
0.10787
0.107796
0.107724
0.107653
0.107583
0.107516
0.107449
0.107384
0.10732
0.107257
0.107196
0.107136
0.107077
0.107019
0.106963
0.106907
0.106853
0.1068
0.106748
0.106697
0.106647
0.106598
0.10655
0.106503
0.106457
0.106412
0.106368
0.106326
0.106283
0.106242
0.106202
0.106163
0.106125
0.106088
0.106051
0.106016
0.105981
0.105947
0.105915
0.105883
0.105852
0.105822
0.105793
0.105764
0.105737
0.10571
0.105685
0.10566
0.105636
0.105613
0.10559
0.105569
0.105548
0.105528
0.105509
0.105491
0.105473
0.105457
0.105441
0.105425
0.105411
0.105397
0.105384
0.105371
0.105359
0.105348
0.105337
0.105327
0.105318
0.105309
0.105301
0.105293
0.105286
0.105279
0.105272
0.105266
0.105261
0.105256
0.105251
0.105247
0.105243
0.105239
0.105236
0.105233
0.10523
0.105228
0.105225
0.105224
0.105222
0.10522
0.105219
0.105218
0.105217
0.105216
0.105215
0.105214
0.105214
0.105213
0.105213
0.105213
0.105213
0.105212
0.105212
0.105212
0.105212
0.105213
0.105213
0.105213
0.105213
0.105213
0.105213
0.105214
0.105214
0.105214
0.105214
0.105214
0.105215
0.105215
0.105215
0.105216
0.105216
0.105216
0.105216
0.105217
0.105217
0.105217
0.105217
0.105218
0.105218
0.105218
0.105218
0.105219
0.105219
0.105219
0.105219
0.10522
0.10522
0.10522
0.10522
0.105221
0.105221
0.105221
0.105222
0.105222
0.105222
0.105222
0.105223
0.105223
0.105223
0.105223
0.105224
0.105224
0.105224
0.105224
0.105225
0.105225
0.105225
0.105226
0.105226
0.105226
0.105226
0.105227
0.105227
0.105227
0.105227
0.105228
0.105228
0.105228
0.105228
0.105229
0.105229
0.105229
0.10523
0.10523
0.10523
0.10523
0.105231
0.105231
0.105231
0.105231
0.105232
0.105232
0.105232
0.105233
0.105233
0.105233
0.105233
0.105234
0.105234
0.105234
0.105234
0.105235
0.105235
0.105235
0.105235
0.105236
0.105236
0.105236
0.105237
0.105237
0.105237
0.105237
0.105238
0.105238
0.105238
0.105238
0.105239
0.105239
0.105239
0.10524
0.10524
0.10524
0.10524
0.105241
0.105241
0.105241
0.105241
0.105242
0.105242
0.105242
0.105243
0.105243
0.105243
0.105243
0.105244
0.105244
0.105244
0.105245
0.105245
0.105245
0.105245
0.105246
0.105246
0.105246
0.105246
0.105247
0.105247
0.105247
0.105248
0.105248
0.105248
0.105248
0.105249
0.105249
0.105249
0.10525
0.10525
0.10525
0.10525
0.105251
0.105251
0.105251
0.105251
0.105252
0.105252
0.105252
0.105253
0.105253
0.105253
0.105253
0.105254
0.105254
0.105254
0.105255
0.105254
0.105254
0.105254
1
0.776802
0.557824
0.446877
0.3841
0.343742
0.315509
0.294602
0.278467
0.265605
0.255079
0.246275
0.238774
0.232282
0.226588
0.221538
0.217017
0.212935
0.209225
0.205832
0.202714
0.199835
0.197167
0.194685
0.192368
0.190201