# vtk DataFile Version 2.0
FlowField
ASCII
DATASET STRUCTURED_GRID
DIMENSIONS 400 1 200
POINTS 80000 float
0 0 0
0.08 0 0
0.16 0 0
0.24 0 0
0.32 0 0
0.4 0 0
0.48 0 0
0.56 0 0
0.64 0 0
0.72 0 0
0.8 0 0
0.88 0 0
0.96 0 0
1.04 0 0
1.12 0 0
1.2 0 0
1.28 0 0
1.36 0 0
1.44 0 0
1.52 0 0
1.6 0 0
1.68 0 0
1.76 0 0
1.84 0 0
1.92 0 0
2 0 0
2.08 0 0
2.16 0 0
2.24 0 0
2.32 0 0
2.4 0 0
2.48 0 0
2.56 0 0
2.64 0 0
2.72 0 0
2.8 0 0
2.88 0 0
2.96 0 0
3.04 0 0
3.12 0 0
3.2 0 0
3.28 0 0
3.36 0 0
3.44 0 0
3.52 0 0
3.6 0 0
3.68 0 0
3.76 0 0
3.84 0 0
3.92 0 0
4 0 0
4.08 0 0
4.16 0 0
4.24 0 0
4.32 0 0
4.4 0 0
4.48 0 0
4.56 0 0
4.64 0 0
4.72 0 0
4.8 0 0
4.88 0 0
4.96 0 0
5.04 0 0
5.12 0 0
5.2 0 0
5.28 0 0
5.36 0 0
5.44 0 0
5.52 0 0
5.6 0 0
5.68 0 0
5.76 0 0
5.84 0 0
5.92 0 0
6 0 0
6.08 0 0
6.16 0 0
6.24 0 0
6.32 0 0
6.4 0 0
6.48 0 0
6.56 0 0
6.64 0 0
6.72 0 0
6.8 0 0
6.88 0 0
6.96 0 0
7.04 0 0
7.12 0 0
7.2 0 0
7.28 0 0
7.36 0 0
7.44 0 0
7.52 0 0
7.6 0 0
7.68 0 0
7.76 0 0
7.84 0 0
7.92 0 0
8 0 0
8.08 0 0
8.16 0 0
8.24 0 0
8.32 0 0
8.4 0 0
8.48 0 0
8.56 0 0
8.64 0 0
8.72 0 0
8.8 0 0
8.88 0 0
8.96 0 0
9.04 0 0
9.12 0 0
9.2 0 0
9.28 0 0
9.36 0 0
9.44 0 0
9.52 0 0
9.6 0 0
9.68 0 0
9.76 0 0
9.84 0 0
9.92 0 0
10 0 0
10.08 0 0
10.16 0 0
10.24 0 0
10.32 0 0
10.4 0 0
10.48 0 0
10.56 0 0
10.64 0 0
10.72 0 0
10.8 0 0
10.88 0 0
10.96 0 0
11.04 0 0
11.12 0 0
11.2 0 0
11.28 0 0
11.36 0 0
11.44 0 0
11.52 0 0
11.6 0 0
11.68 0 0
11.76 0 0
11.84 0 0
11.92 0 0
12 0 0
12.08 0 0
12.16 0 0
12.24 0 0
12.32 0 0
12.4 0 0
12.48 0 0
12.56 0 0
12.64 0 0
12.72 0 0
12.8 0 0
12.88 0 0
12.96 0 0
13.04 0 0
13.12 0 0
13.2 0 0
13.28 0 0
13.36 0 0
13.44 0 0
13.52 0 0
13.6 0 0
13.68 0 0
13.76 0 0
13.84 0 0
13.92 0 0
14 0 0
14.08 0 0
14.16 0 0
14.24 0 0
14.32 0 0
14.4 0 0
14.48 0 0
14.56 0 0
14.64 0 0
14.72 0 0
14.8 0 0
14.88 0 0
14.96 0 0
15.04 0 0
15.12 0 0
15.2 0 0
15.28 0 0
15.36 0 0
15.44 0 0
15.52 0 0
15.6 0 0
15.68 0 0
15.76 0 0
15.84 0 0
15.92 0 0
16 0 0
16.08 0 0
16.16 0 0
16.24 0 0
16.32 0 0
16.4 0 0
16.48 0 0
16.56 0 0
16.64 0 0
16.72 0 0
16.8 0 0
16.88 0 0
16.96 0 0
17.04 0 0
17.12 0 0
17.2 0 0
17.28 0 0
17.36 0 0
17.44 0 0
17.52 0 0
17.6 0 0
17.68 0 0
17.76 0 0
17.84 0 0
17.92 0 0
18 0 0
18.08 0 0
18.16 0 0
18.24 0 0
18.32 0 0
18.4 0 0
18.48 0 0
18.56 0 0
18.64 0 0
18.72 0 0
18.8 0 0
18.88 0 0
18.96 0 0
19.04 0 0
19.12 0 0
19.2 0 0
19.28 0 0
19.36 0 0
19.44 0 0
19.52 0 0
19.6 0 0
19.68 0 0
19.76 0 0
19.84 0 0
19.92 0 0
20 0 0
20.08 0 0
20.16 0 0
20.24 0 0
20.32 0 0
20.4 0 0
20.48 0 0
20.56 0 0
20.64 0 0
20.72 0 0
20.8 0 0
20.88 0 0
20.96 0 0
21.04 0 0
21.12 0 0
21.2 0 0
21.28 0 0
21.36 0 0
21.44 0 0
21.52 0 0
21.6 0 0
21.68 0 0
21.76 0 0
21.84 0 0
21.92 0 0
22 0 0
22.08 0 0
22.16 0 0
22.24 0 0
22.32 0 0
22.4 0 0
22.48 0 0
22.56 0 0
22.64 0 0
22.72 0 0
22.8 0 0
22.88 0 0
22.96 0 0
23.04 0 0
23.12 0 0
23.2 0 0
23.28 0 0
23.36 0 0
23.44 0 0
23.52 0 0
23.6 0 0
23.68 0 0
23.76 0 0
23.84 0 0
23.92 0 0
24 0 0
24.08 0 0
24.16 0 0
24.24 0 0
24.32 0 0
24.4 0 0
24.48 0 0
24.56 0 0
24.64 0 0
24.72 0 0
24.8 0 0
24.88 0 0
24.96 0 0
25.04 0 0
25.12 0 0
25.2 0 0
25.28 0 0
25.36 0 0
25.44 0 0
25.52 0 0
25.6 0 0
25.68 0 0
25.76 0 0
25.84 0 0
25.92 0 0
26 0 0
26.08 0 0
26.16 0 0
26.24 0 0
26.32 0 0
26.4 0 0
26.48 0 0
26.56 0 0
26.64 0 0
26.72 0 0
26.8 0 0
26.88 0 0
26.96 0 0
27.04 0 0
27.12 0 0
27.2 0 0
27.28 0 0
27.36 0 0
27.44 0 0
27.52 0 0
27.6 0 0
27.68 0 0
27.76 0 0
27.84 0 0
27.92 0 0
28 0 0
28.08 0 0
28.16 0 0
28.24 0 0
28.32 0 0
28.4 0 0
28.48 0 0
28.56 0 0
28.64 0 0
28.72 0 0
28.8 0 0
28.88 0 0
28.96 0 0
29.04 0 0
29.12 0 0
29.2 0 0
29.28 0 0
29.36 0 0
29.44 0 0
29.52 0 0
29.6 0 0
29.68 0 0
29.76 0 0
29.84 0 0
29.92 0 0
30 0 0
30.08 0 0
30.16 0 0
30.24 0 0
30.32 0 0
30.4 0 0
30.48 0 0
30.56 0 0
30.64 0 0
30.72 0 0
30.8 0 0
30.88 0 0
30.96 0 0
31.04 0 0
31.12 0 0
31.2 0 0
31.28 0 0
31.36 0 0
31.44 0 0
31.52 0 0
31.6 0 0
31.68 0 0
31.76 0 0
31.84 0 0
31.92 0 0
0 0.005 0
0.08 0.005 0
0.16 0.005 0
0.24 0.005 0
0.32 0.005 0
0.4 0.005 0
0.48 0.005 0
0.56 0.005 0
0.64 0.005 0
0.72 0.005 0
0.8 0.005 0
0.88 0.005 0
0.96 0.005 0
1.04 0.005 0
1.12 0.005 0
1.2 0.005 0
1.28 0.005 0
1.36 0.005 0
1.44 0.005 0
1.52 0.005 0
1.6 0.005 0
1.68 0.005 0
1.76 0.005 0
1.84 0.005 0
1.92 0.005 0
2 0.005 0
2.08 0.005 0
2.16 0.005 0
2.24 0.005 0
2.32 0.005 0
2.4 0.005 0
2.48 0.005 0
2.56 0.005 0
2.64 0.005 0
2.72 0.005 0
2.8 0.005 0
2.88 0.005 0
2.96 0.005 0
3.04 0.005 0
3.12 0.005 0
3.2 0.005 0
3.28 0.005 0
3.36 0.005 0
3.44 0.005 0
3.52 0.005 0
3.6 0.005 0
3.68 0.005 0
3.76 0.005 0
3.84 0.005 0
3.92 0.005 0
4 0.005 0
4.08 0.005 0
4.16 0.005 0
4.24 0.005 0
4.32 0.005 0
4.4 0.005 0
4.48 0.005 0
4.56 0.005 0
4.64 0.005 0
4.72 0.005 0
4.8 0.005 0
4.88 0.005 0
4.96 0.005 0
5.04 0.005 0
5.12 0.005 0
5.2 0.005 0
5.28 0.005 0
5.36 0.005 0
5.44 0.005 0
5.52 0.005 0
5.6 0.005 0
5.68 0.005 0
5.76 0.005 0
5.84 0.005 0
5.92 0.005 0
6 0.005 0
6.08 0.005 0
6.16 0.005 0
6.24 0.005 0
6.32 0.005 0
6.4 0.005 0
6.48 0.005 0
6.56 0.005 0
6.64 0.005 0
6.72 0.005 0
6.8 0.005 0
6.88 0.005 0
6.96 0.005 0
7.04 0.005 0
7.12 0.005 0
7.2 0.005 0
7.28 0.005 0
7.36 0.005 0
7.44 0.005 0
7.52 0.005 0
7.6 0.005 0
7.68 0.005 0
7.76 0.005 0
7.84 0.005 0
7.92 0.005 0
8 0.005 0
8.08 0.005 0
8.16 0.005 0
8.24 0.005 0
8.32 0.005 0
8.4 0.005 0
8.48 0.005 0
8.56 0.005 0
8.64 0.005 0
8.72 0.005 0
8.8 0.005 0
8.88 0.005 0
8.96 0.005 0
9.04 0.005 0
9.12 0.005 0
9.2 0.005 0
9.28 0.005 0
9.36 0.005 0
9.44 0.005 0
9.52 0.005 0
9.6 0.005 0
9.68 0.005 0
9.76 0.005 0
9.84 0.005 0
9.92 0.005 0
10 0.005 0
10.08 0.005 0
10.16 0.005 0
10.24 0.005 0
10.32 0.005 0
10.4 0.005 0
10.48 0.005 0
10.56 0.005 0
10.64 0.005 0
10.72 0.005 0
10.8 0.005 0
10.88 0.005 0
10.96 0.005 0
11.04 0.005 0
11.12 0.005 0
11.2 0.005 0
11.28 0.005 0
11.36 0.005 0
11.44 0.005 0
11.52 0.005 0
11.6 0.005 0
11.68 0.005 0
11.76 0.005 0
11.84 0.005 0
11.92 0.005 0
12 0.005 0
12.08 0.005 0
12.16 0.005 0
12.24 0.005 0
12.32 0.005 0
12.4 0.005 0
12.48 0.005 0
12.56 0.005 0
12.64 0.005 0
12.72 0.005 0
12.8 0.005 0
12.88 0.005 0
12.96 0.005 0
13.04 0.005 0
13.12 0.005 0
13.2 0.005 0
13.28 0.005 0
13.36 0.005 0
13.44 0.005 0
13.52 0.005 0
13.6 0.005 0
13.68 0.005 0
13.76 0.005 0
13.84 0.005 0
13.92 0.005 0
14 0.005 0
14.08 0.005 0
14.16 0.005 0
14.24 0.005 0
14.32 0.005 0
14.4 0.005 0
14.48 0.005 0
14.56 0.005 0
14.64 0.005 0
14.72 0.005 0
14.8 0.005 0
14.88 0.005 0
14.96 0.005 0
15.04 0.005 0
15.12 0.005 0
15.2 0.005 0
15.28 0.005 0
15.36 0.005 0
15.44 0.005 0
15.52 0.005 0
15.6 0.005 0
15.68 0.005 0
15.76 0.005 0
15.84 0.005 0
15.92 0.005 0
16 0.005 0
16.08 0.005 0
16.16 0.005 0
16.24 0.005 0
16.32 0.005 0
16.4 0.005 0
16.48 0.005 0
16.56 0.005 0
16.64 0.005 0
16.72 0.005 0
16.8 0.005 0
16.88 0.005 0
16.96 0.005 0
17.04 0.005 0
17.12 0.005 0
17.2 0.005 0
17.28 0.005 0
17.36 0.005 0
17.44 0.005 0
17.52 0.005 0
17.6 0.005 0
17.68 0.005 0
17.76 0.005 0
17.84 0.005 0
17.92 0.005 0
18 0.005 0
18.08 0.005 0
18.16 0.005 0
18.24 0.005 0
18.32 0.005 0
18.4 0.005 0
18.48 0.005 0
18.56 0.005 0
18.64 0.005 0
18.72 0.005 0
18.8 0.005 0
18.88 0.005 0
18.96 0.005 0
19.04 0.005 0
19.12 0.005 0
19.2 0.005 0
19.28 0.005 0
19.36 0.005 0
19.44 0.005 0
19.52 0.005 0
19.6 0.005 0
19.68 0.005 0
19.76 0.005 0
19.84 0.005 0
19.92 0.005 0
20 0.005 0
20.08 0.005 0
20.16 0.005 0
20.24 0.005 0
20.32 0.005 0
20.4 0.005 0
20.48 0.005 0
20.56 0.005 0
20.64 0.005 0
20.72 0.005 0
20.8 0.005 0
20.88 0.005 0
20.96 0.005 0
21.04 0.005 0
21.12 0.005 0
21.2 0.005 0
21.28 0.005 0
21.36 0.005 0
21.44 0.005 0
21.52 0.005 0
21.6 0.005 0
21.68 0.005 0
21.76 0.005 0
21.84 0.005 0
21.92 0.005 0
22 0.005 0
22.08 0.005 0
22.16 0.005 0
22.24 0.005 0
22.32 0.005 0
22.4 0.005 0
22.48 0.005 0
22.56 0.005 0
22.64 0.005 0
22.72 0.005 0
22.8 0.005 0
22.88 0.005 0
22.96 0.005 0
23.04 0.005 0
23.12 0.005 0
23.2 0.005 0
23.28 0.005 0
23.36 0.005 0
23.44 0.005 0
23.52 0.005 0
23.6 0.005 0
23.68 0.005 0
23.76 0.005 0
23.84 0.005 0
23.92 0.005 0
24 0.005 0
24.08 0.005 0
24.16 0.005 0
24.24 0.005 0
24.32 0.005 0
24.4 0.005 0
24.48 0.005 0
24.56 0.005 0
24.64 0.005 0
24.72 0.005 0
24.8 0.005 0
24.88 0.005 0
24.96 0.005 0
25.04 0.005 0
25.12 0.005 0
25.2 0.005 0
25.28 0.005 0
25.36 0.005 0
25.44 0.005 0
25.52 0.005 0
25.6 0.005 0
25.68 0.005 0
25.76 0.005 0
25.84 0.005 0
25.92 0.005 0
26 0.005 0
26.08 0.005 0
26.16 0.005 0
26.24 0.005 0
26.32 0.005 0
26.4 0.005 0
26.48 0.005 0
26.56 0.005 0
26.64 0.005 0
26.72 0.005 0
26.8 0.005 0
26.88 0.005 0
26.96 0.005 0
27.04 0.005 0
27.12 0.005 0
27.2 0.005 0
27.28 0.005 0
27.36 0.005 0
27.44 0.005 0
27.52 0.005 0
27.6 0.005 0
27.68 0.005 0
27.76 0.005 0
27.84 0.005 0
27.92 0.005 0
28 0.005 0
28.08 0.005 0
28.16 0.005 0
28.24 0.005 0
28.32 0.005 0
28.4 0.005 0
28.48 0.005 0
28.56 0.005 0
28.64 0.005 0
28.72 0.005 0
28.8 0.005 0
28.88 0.005 0
28.96 0.005 0
29.04 0.005 0
29.12 0.005 0
29.2 0.005 0
29.28 0.005 0
29.36 0.005 0
29.44 0.005 0
29.52 0.005 0
29.6 0.005 0
29.68 0.005 0
29.76 0.005 0
29.84 0.005 0
29.92 0.005 0
30 0.005 0
30.08 0.005 0
30.16 0.005 0
30.24 0.005 0
30.32 0.005 0
30.4 0.005 0
30.48 0.005 0
30.56 0.005 0
30.64 0.005 0
30.72 0.005 0
30.8 0.005 0
30.88 0.005 0
30.96 0.005 0
31.04 0.005 0
31.12 0.005 0
31.2 0.005 0
31.28 0.005 0
31.36 0.005 0
31.44 0.005 0
31.52 0.005 0
31.6 0.005 0
31.68 0.005 0
31.76 0.005 0
31.84 0.005 0
31.92 0.005 0
0 0.01 0
0.08 0.01 0
0.16 0.01 0
0.24 0.01 0
0.32 0.01 0
0.4 0.01 0
0.48 0.01 0
0.56 0.01 0
0.64 0.01 0
0.72 0.01 0
0.8 0.01 0
0.88 0.01 0
0.96 0.01 0
1.04 0.01 0
1.12 0.01 0
1.2 0.01 0
1.28 0.01 0
1.36 0.01 0
1.44 0.01 0
1.52 0.01 0
1.6 0.01 0
1.68 0.01 0
1.76 0.01 0
1.84 0.01 0
1.92 0.01 0
2 0.01 0
2.08 0.01 0
2.16 0.01 0
2.24 0.01 0
2.32 0.01 0
2.4 0.01 0
2.48 0.01 0
2.56 0.01 0
2.64 0.01 0
2.72 0.01 0
2.8 0.01 0
2.88 0.01 0
2.96 0.01 0
3.04 0.01 0
3.12 0.01 0
3.2 0.01 0
3.28 0.01 0
3.36 0.01 0
3.44 0.01 0
3.52 0.01 0
3.6 0.01 0
3.68 0.01 0
3.76 0.01 0
3.84 0.01 0
3.92 0.01 0
4 0.01 0
4.08 0.01 0
4.16 0.01 0
4.24 0.01 0
4.32 0.01 0
4.4 0.01 0
4.48 0.01 0
4.56 0.01 0
4.64 0.01 0
4.72 0.01 0
4.8 0.01 0
4.88 0.01 0
4.96 0.01 0
5.04 0.01 0
5.12 0.01 0
[...]
POINT_DATA 80000

SCALARS u float 1
LOOKUP_TABLE default
0
-0.131663
-0.0682692
-0.0522959
-0.0444198
-0.0395767
-0.0362596
-0.0338325
-0.0319725
-0.0304959
-0.0292898
-0.0282815
-0.027422
-0.0266773
-0.0260234
-0.0254425
-0.0249216
-0.0244506
-0.024022
-0.0236296
-0.0232685
-0.0229348
-0.0226252
-0.022337
-0.0220679
-0.0218159
-0.0215793
-0.0213568
-0.0211469
-0.0209486
-0.020761
-0.0205831
-0.0204141
-0.0202535
-0.0201005
-0.0199545
-0.0198152
-0.019682
-0.0195545
-0.0194324
-0.0193153
-0.0192029
-0.0190949
-0.018991
-0.0188911
-0.0187948
-0.018702
-0.0186125
-0.0185261
-0.0184427
-0.018362
-0.0182841
-0.0182086
-0.0181356
-0.0180648
-0.0179963
-0.0179298
-0.0178654
-0.0178028
-0.0177421
-0.0176832
-0.0176259
-0.0175703
-0.0175162
-0.0174637
-0.0174126
-0.0173628
-0.0173145
-0.0172675
-0.0172217
-0.0171773
-0.0171341
-0.0170921
-0.0170514
-0.0170119
-0.0169737
-0.0169367
-0.0169011
-0.0168667
-0.0168336
-0.0168018
-0.0167714
-0.0167422
-0.0167143
-0.0166876
-0.0166622
-0.0166379
-0.0166149
-0.016593
-0.0165722
-0.0165525
-0.0165338
-0.0165161
-0.0164993
-0.0164834
-0.0164684
-0.0164544
-0.0164412
-0.0164288
-0.0164172
-0.0164063
-0.0163962
-0.0163867
-0.0163778
-0.0163696
-0.016362
-0.016355
-0.0163486
-0.0163427
-0.0163374
-0.0163325
-0.016328
-0.0163239
-0.0163201
-0.0163167
-0.0163137
-0.0163111
-0.0163088
-0.0163069
-0.0163054
-0.0163042
-0.0163032
-0.0163026
-0.0163021
-0.0163019
-0.0163017
-0.0163017
-0.0163018
-0.0163019
-0.0163021
-0.0163023
-0.0163025
-0.0163028
-0.0163031
-0.0163034
-0.0163037
-0.016304
-0.0163043
-0.0163046
-0.0163049
-0.0163053
-0.0163056
-0.0163059
-0.0163062
-0.0163065
-0.0163068
-0.0163071
-0.0163075
-0.0163078
-0.0163081
-0.0163084
-0.0163087
-0.016309
-0.0163094
-0.0163097
-0.01631
-0.0163103
-0.0163106
-0.0163109
-0.0163113
-0.0163116
-0.0163119
-0.0163122
-0.0163125
-0.0163128
-0.0163132
-0.0163135
-0.0163138
-0.0163141
-0.0163144
-0.0163148
-0.0163151
-0.0163154
-0.0163157
-0.016316
-0.0163164
-0.0163167
-0.016317
-0.0163173
-0.0163176
-0.016318
-0.0163183
-0.0163186
-0.0163189
-0.0163192
-0.0163196
-0.0163199
-0.0163202
-0.0163205
-0.0163208
-0.0163212
-0.0163215
-0.0163218
-0.0163221
-0.0163225
-0.0163228
-0.0163231
-0.0163234
-0.0163237
-0.0163241
-0.0163244
-0.0163247
-0.016325
-0.0163254
-0.0163257
-0.016326
-0.0163263
-0.0163267
-0.016327
-0.0163273
-0.0163276
-0.016328
-0.0163283
-0.0163286
-0.0163289
-0.0163293
-0.0163296
-0.0163299
-0.0163302
-0.0163306
-0.0163309
-0.0163312
-0.0163316
-0.0163319
-0.0163322
-0.0163325
-0.0163329
-0.0163332
-0.0163335
-0.0163339
-0.0163342
-0.0163345
-0.0163348
-0.0163352
-0.0163355
-0.0163358
-0.0163362
-0.0163365
-0.0163368
-0.0163371
-0.0163375
-0.0163378
-0.0163381
-0.0163385
-0.0163388
-0.0163391
-0.0163395
-0.0163398
-0.0163401
-0.0163404
-0.0163408
-0.0163411
-0.0163414
-0.0163418
-0.0163421
-0.0163424
-0.0163428
-0.0163431
-0.0163434
-0.0163438
-0.0163441
-0.0163444
-0.0163448
-0.0163451
-0.0163454
-0.0163458
-0.0163461
-0.0163464
-0.0163468
-0.0163471
-0.0163474
-0.0163478
-0.0163481
-0.0163484
-0.0163488
-0.0163491
-0.0163495
-0.0163498
-0.0163501
-0.0163505
-0.0163508
-0.0163511
-0.0163515
-0.0163518
-0.0163521
-0.0163525
-0.0163528
-0.0163532
-0.0163535
-0.0163538
-0.0163542
-0.0163545
-0.0163548
-0.0163552
-0.0163555
-0.0163559
-0.0163562
-0.0163565
-0.0163569
-0.0163572
-0.0163576
-0.0163579
-0.0163582
-0.0163586
-0.0163589
-0.0163592
-0.0163596
-0.0163599
-0.0163603
-0.0163606
-0.016361
-0.0163613
-0.0163616
-0.016362
-0.0163623
-0.0163627
-0.016363
-0.0163633
-0.0163637
-0.016364
-0.0163644
-0.0163647
-0.0163651
-0.0163654
-0.0163657
-0.0163661
-0.0163664
-0.0163668
-0.0163671
-0.0163675
-0.0163678
-0.0163682
-0.0163685
-0.0163688
-0.0163692
-0.0163695
-0.0163699
-0.0163702
-0.0163706
-0.0163709
-0.0163713
-0.0163716
-0.016372
-0.0163723
-0.0163726
-0.016373
-0.0163733
-0.0163737
-0.016374
-0.0163744
-0.0163747
-0.0163751
-0.0163754
-0.0163758
-0.0163761
-0.0163765
-0.0163768
-0.0163772
-0.0163775
-0.0163779
-0.0163782
-0.0163786
-0.0163789
-0.0163793
-0.0163796
-0.01638
-0.0163803
-0.0163807
-0.016381
-0.0163814
-0.0163817
-0.0163821
-0.0163824
-0.0163828
-0.0163831
-0.0163835
-0.0163838
-0.0163842
-0.0163845
-0.0163849
-0.0163852
-0.0163856
-0.0163859
-0.0163863
-0.0163866
-0.016387
-0.0163873
-0.0163877
-0.0163881
-0.0163884
-0.0163888
-0.0163891
-0.0163895
-0.0163898
-0.0163903
-0.0163905
-0.0163911
-0.0163905
-0.0163905
-0.0163905
1
0.131663
0.0682692
0.0522959
0.0444198
0.0395767
0.0362596
0.0338325
0.0319725
0.0304959
0.0292898
0.0282815
0.027422
0.0266773
0.0260234
0.0254425
0.0249216
0.0244506
0.024022
0.0236296
0.0232685
0.0229348
0.0226252
0.022337
0.0220679
0.0218159
0.0215793
0.0213568
0.0211469
0.0209486
0.020761
0.0205831
0.0204141
0.0202535
0.0201005
0.0199545
0.0198152
0.019682
0.0195545
0.0194324
0.0193153
0.0192029
0.0190949
0.018991
0.0188911
0.0187948
0.018702
0.0186125
0.0185261
0.0184427
0.018362
0.0182841
0.0182086
0.0181356
0.0180648
0.0179963
0.0179298
0.0178654
0.0178028
0.0177421
0.0176832
0.0176259
0.0175703
0.0175162
0.0174637
0.0174126
0.0173628
0.0173145
0.0172675
0.0172217
0.0171773
0.0171341
0.0170921
0.0170514
0.0170119
0.0169737
0.0169367
0.0169011
0.0168667
0.0168336
0.0168018
0.0167714
0.0167422
0.0167143
0.0166876
0.0166622
0.0166379
0.0166149
0.016593
0.0165722
0.0165525
0.0165338
0.0165161
0.0164993
0.0164834
0.0164684
0.0164544
0.0164412
0.0164288
0.0164172
0.0164063
0.0163962
0.0163867
0.0163778
0.0163696
0.016362
0.016355
0.0163486
0.0163427
0.0163374
0.0163325
0.016328
0.0163239
0.0163201
0.0163167
0.0163137
0.0163111
0.0163088
0.0163069
0.0163054
0.0163042
0.0163032
0.0163026
0.0163021
0.0163019
0.0163017
0.0163017
0.0163018
0.0163019
0.0163021
0.0163023
0.0163025
0.0163028
0.0163031
0.0163034
0.0163037
0.016304
0.0163043
0.0163046
0.0163049
0.0163053
0.0163056
0.0163059
0.0163062
0.0163065
0.0163068
0.0163071
0.0163075
0.0163078
0.0163081
0.0163084
0.0163087
0.016309
0.0163094
0.0163097
0.01631
0.0163103
0.0163106
0.0163109
0.0163113
0.0163116
0.0163119
0.0163122
0.0163125
0.0163128
0.0163132
0.0163135
0.0163138
0.0163141
0.0163144
0.0163148
0.0163151
0.0163154
0.0163157
0.016316
0.0163164
0.0163167
0.016317
0.0163173
0.0163176
0.016318
0.0163183
0.0163186
0.0163189
0.0163192
0.0163196
0.0163199
0.0163202
0.0163205
0.0163208
0.0163212
0.0163215
0.0163218
0.0163221
0.0163225
0.0163228
0.0163231
0.0163234
0.0163237
0.0163241
0.0163244
0.0163247
0.016325
0.0163254
0.0163257
0.016326
0.0163263
0.0163267
0.016327
0.0163273
0.0163276
0.016328
0.0163283
0.0163286
0.0163289
0.0163293
0.0163296
0.0163299
0.0163302
0.0163306
0.0163309
0.0163312
0.0163316
0.0163319
0.0163322
0.0163325
0.0163329
0.0163332
0.0163335
0.0163339
0.0163342
0.0163345
0.0163348
0.0163352
0.0163355
0.0163358
0.0163362
0.0163365
0.0163368
0.0163371
0.0163375
0.0163378
0.0163381
0.0163385
0.0163388
0.0163391
0.0163395
0.0163398
0.0163401
0.0163404
0.0163408
0.0163411
0.0163414
0.0163418
0.0163421
0.0163424
0.0163428
0.0163431
0.0163434
0.0163438
0.0163441
0.0163444
0.0163448
0.0163451
0.0163454
0.0163458
0.0163461
0.0163464
0.0163468
0.0163471
0.0163474
0.0163478
0.0163481
0.0163484
0.0163488
0.0163491
0.0163495
0.0163498
0.0163501
0.0163505
0.0163508
0.0163511
0.0163515
0.0163518
0.0163521
0.0163525
0.0163528
0.0163532
0.0163535
0.0163538
0.0163542
0.0163545
0.0163548
0.0163552
0.0163555
0.0163559
0.0163562
0.0163565
0.0163569
0.0163572
0.0163576
0.0163579
0.0163582
0.0163586
0.0163589
0.0163592
0.0163596
0.0163599
0.0163603
0.0163606
0.016361
0.0163613
0.0163616
0.016362
0.0163623
0.0163627
0.016363
0.0163633
0.0163637
0.016364
0.0163644
0.0163647
0.0163651
0.0163654
0.0163657
0.0163661
0.0163664
0.0163668
0.0163671
0.0163675
0.0163678
0.0163682
0.0163685
0.0163688
0.0163692
0.0163695
0.0163699
0.0163702
0.0163706
0.0163709
0.0163713
0.0163716
0.016372
0.0163723
0.0163726
0.016373
0.0163733
0.0163737
0.016374
0.0163744
0.0163747
0.0163751
0.0163754
0.0163758
0.0163761
0.0163765
0.0163768
0.0163772
0.0163775
0.0163779
0.0163782
0.0163786
0.0163789
0.0163793
0.0163796
0.01638
0.0163803
0.0163807
0.016381
0.0163814
0.0163817
0.0163821
0.0163824
0.0163828
0.0163831
0.0163835
0.0163838
0.0163842
0.0163845
0.0163849
0.0163852
0.0163856
0.0163859
0.0163863
0.0163866
0.016387
0.0163873
0.0163877
0.0163881
0.0163884
0.0163888
0.0163891
0.0163895
0.0163898
0.0163903
0.0163905
0.0163911
0.0163905
0.0163905
0.0163905
1
0.344884
0.200668
0.154967
0.131894
0.117598
0.107768
0.100558
0.0950248
0.0906289
0.0870378
0.0840358
0.0814778
0.0792626
0.0773182
0.075592
0.0740448
0.0726468
0.0713749
0.070211
0.0691404
0.0681513
0.0672339
0.0663802
0.0655831
0.0648369
0.0641366
0.0634778
0.0628566
0.0622699
0.0617146
0.0611882
0.0606884
0.0602131
0.0597605
0.0593289
0.0589169
0.058523
0.0581461
0.057785
0.0574387
0.0571064
0.0567871
0.0564801
0.0561846
0.0559001
0.0556258
0.0553613
0.055106
0.0548594
0.0546212
0.0543908
0.0541679
0.0539521
0.0537432
0.0535407
0.0533444
0.053154
0.0529693
0.0527901
0.052616
0.052447
0.0522827
0.0521231
0.051968
0.0518172
0.0516705
0.0515279
0.0513893
0.0512545
0.0511235
0.0509963
0.0508728
0.050753
0.050637
0.0505247
0.0504163
0.0503116
0.0502109
0.0501141
0.0500212
0.0499321
0.0498469
0.0497654
0.0496876
0.0496134
0.0495428
0.0494757
0.049412
0.0493516
0.0492942
0.0492399
0.0491884
0.0491397
0.0490937
0.0490504
0.0490097
0.0489716
0.0489358
0.0489023
0.0488709
0.0488416
0.0488142
0.0487886
0.048765
0.0487432
0.0487233
0.048705
0.0486882
0.048673
0.048659
0.0486462
0.0486345
0.0486239
0.0486144
0.048606
0.0485986
0.0485924
0.0485872
0.048583
0.0485798
0.0485773
0.0485756
0.0485745
0.0485738
0.0485736
0.0485736
0.0485739
0.0485743
0.0485749
0.0485756
0.0485763
0.0485771
0.048578
0.0485789
0.0485798
0.0485807
0.0485816
0.0485826
0.0485835
0.0485845
0.0485854
0.0485863
0.0485873
0.0485882
0.0485891
0.0485901
0.048591
0.048592
0.0485929
0.0485938
0.0485948
0.0485957
0.0485967
0.0485976
0.0485986
0.0485995
0.0486004
0.0486014
0.0486023
0.0486033
0.0486042
0.0486052
0.0486061
0.0486071
0.048608
0.048609
0.0486099
0.0486109
0.0486118
0.0486128
0.0486137
0.0486147
0.0486156
0.0486166
0.0486175
0.0486185
0.0486194
0.0486204
0.0486214
0.0486223
0.0486233
0.0486242
0.0486252
0.0486261
0.0486271
0.0486281
0.048629
0.04863
0.0486309
0.0486319
0.0486329
0.0486338
0.0486348
0.0486357
0.0486367
0.0486377
0.0486386
0.0486396
0.0486406
0.0486415
0.0486425
0.0486435
0.0486444
0.0486454
0.0486464
0.0486473
0.0486483
0.0486493
0.0486502
0.0486512
0.0486522
0.0486531
0.0486541
0.0486551
0.0486561
0.048657
0.048658
0.048659
0.0486599
0.0486609
0.0486619
0.0486629
0.0486638
0.0486648
0.0486658
0.0486668
0.0486677
0.0486687
0.0486697
0.0486707
0.0486717
0.0486726
0.0486736
0.0486746
0.0486756
0.0486766
0.0486775
0.0486785
0.0486795
0.0486805
0.0486815
0.0486825
0.0486834
0.0486844
0.0486854
0.0486864
0.0486874
0.0486884
0.0486894
0.0486904
0.0486913
0.0486923
0.0486933
0.0486943
0.0486953
0.0486963
0.0486973
0.0486983
0.0486993
0.0487003
0.0487013
0.0487022
0.0487032
0.0487042
0.0487052
0.0487062
0.0487072
0.0487082
0.0487092
0.0487102
0.0487112
0.0487122
0.0487132
0.0487142
0.0487152
0.0487162
0.0487172
0.0487182
0.0487192
0.0487202
0.0487212
0.0487222
0.0487232
0.0487242
0.0487252
0.0487262
0.0487272
0.0487282
0.0487292
0.0487303
0.0487313
0.0487323
0.0487333
0.0487343
0.0487353
0.0487363
0.0487373
0.0487383
0.0487393
0.0487403
0.0487414
0.0487424
0.0487434
0.0487444
0.0487454
0.0487464
0.0487474
0.0487485
0.0487495
0.0487505
0.0487515
0.0487525
0.0487535
0.0487546
0.0487556
0.0487566
0.0487576
0.0487586
0.0487597
0.0487607
0.0487617
0.0487627
0.0487637
0.0487648
0.0487658
0.0487668
0.0487678
0.0487689
0.0487699
0.0487709
0.0487719
0.048773
0.048774
0.048775
0.048776
0.0487771
0.0487781
0.0487791
0.0487802
0.0487812
0.0487822
0.0487833
0.0487843
0.0487853
0.0487864
0.0487874
0.0487884
0.0487895
0.0487905
0.0487915
0.0487926
0.0487936
0.0487946
0.0487957
0.0487967
0.0487978
0.0487988
0.0487998
0.0488009
0.0488019
0.048803
0.048804
0.048805
0.0488061
0.0488071
0.0488082
0.0488092
0.0488103
0.0488113
0.0488123
0.0488134
0.0488144
0.0488155
0.0488165
0.0488176
0.0488186
0.0488197
0.0488207
0.0488218
0.0488228
0.0488239
0.0488249
0.048826
0.048827
0.0488281
0.0488291
0.0488302
0.0488313
0.0488323
0.0488334
0.0488344
0.0488356
0.0488365
0.0488378
0.0488385
0.0488402
0.0488387
0.0488387
0.0488387
1
0.518765
0.327402
0.255347
0.217849
0.194404
0.178212
0.166307
0.157158
0.149884
0.143939
0.138969
0.134735
0.13107
0.127854
0.125
0.122443
0.120133
0.118033
0.116111
0.114344
0.112712
0.111198
0.10979
0.108475
0.107245
0.10609
0.105004
0.10398
0.103013
0.102098
0.101231
0.100407
0.0996242
0.0988785
0.0981675
0.0974887
0.0968399
0.096219
0.0956243
0.0950541
0.0945067
0.0939809
0.0934754
0.0929889
0.0925203
0.0920688
0.0916333
0.091213
0.0908071
0.0904149
0.0900356
0.0896687
0.0893136
0.0889696
0.0886364
0.0883134
0.0880001
0.0876962
0.0874012
0.0871148
0.0868367
0.0865665
0.086304
0.0860489
0.0858009
0.0855598
0.0853254
0.0850976
0.0848761
0.084661
0.0844521
0.0842494
0.084053
0.0838628
0.0836788
0.0835012
0.0833299
0.0831652
0.0830069
0.0828551
0.0827097
0.0825706
0.0824377
0.0823108
0.08219
0.082075
0.0819658
0.0818621
0.0817638
0.0816706
0.0815822
0.0814986
0.0814195
0.081345
0.0812748
0.0812088
0.081147
0.0810891
0.0810349
0.0809842
0.0809367
0.0808925
0.0808513
0.0808133
0.0807782
0.0807461
0.0807167
0.0806899
0.0806654
0.080643
0.0806225
0.0806039
0.080587
0.080572
0.0805587
0.0805472
0.0805374
0.0805294
0.080523
0.080518
0.0805144
0.0805118
0.0805102
0.0805093
0.080509
0.0805092
0.0805097
0.0805105
0.0805115
0.0805127
0.0805139
0.0805153
0.0805167
0.0805182
0.0805197
0.0805212
0.0805228
0.0805243
0.0805259
0.0805274
0.080529
0.0805305
0.0805321
0.0805337
0.0805352
0.0805368
0.0805383
0.0805399
0.0805414
0.080543
0.0805446
0.0805461
0.0805477
0.0805492
0.0805508
0.0805524
0.0805539
0.0805555
0.0805571
0.0805586
0.0805602
0.0805618
0.0805634
0.0805649
0.0805665
0.0805681
0.0805696
0.0805712
0.0805728
0.0805744
0.0805759
0.0805775
0.0805791
0.0805807
0.0805823
0.0805838
0.0805854
0.080587
0.0805886
0.0805902
0.0805918
0.0805933
0.0805949
0.0805965
0.0805981
0.0805997
0.0806013
0.0806029
0.0806045
0.080606
0.0806076
0.0806092
0.0806108
0.0806124
0.080614
0.0806156
0.0806172
0.0806188
0.0806204
0.080622
0.0806236
0.0806252
0.0806268
0.0806284
0.08063
0.0806316
0.0806332
0.0806348
0.0806364
0.080638
0.0806396
0.0806412
0.0806429
0.0806445
0.0806461
0.0806477
0.0806493
0.0806509
0.0806525
0.0806541
0.0806557
0.0806574
0.080659
0.0806606
0.0806622
0.0806638
0.0806655
0.0806671
0.0806687
0.0806703
0.0806719
0.0806736
0.0806752
0.0806768
0.0806784
0.0806801
0.0806817
0.0806833
0.0806849
0.0806866
0.0806882
0.0806898
0.0806915
0.0806931
0.0806947
0.0806964
0.080698
0.0806996
0.0807013
0.0807029
0.0807045
0.0807062
0.0807078
0.0807095
0.0807111
0.0807127
0.0807144
0.080716
0.0807177
0.0807193
0.080721
0.0807226
0.0807242
0.0807259
0.0807275
0.0807292
0.0807308
0.0807325
0.0807341
0.0807358
0.0807374
0.0807391
0.0807408
0.0807424
0.0807441
0.0807457
0.0807474
0.080749
0.0807507
0.0807524
0.080754
0.0807557
0.0807573
0.080759
0.0807607
0.0807623
0.080764
0.0807657
0.0807673
0.080769
0.0807707
0.0807723
0.080774
0.0807757
0.0807773
0.080779
0.0807807
0.0807824
0.080784
0.0807857
0.0807874
0.0807891
0.0807907
0.0807924
0.0807941
0.0807958
0.0807975
0.0807991
0.0808008
0.0808025
0.0808042
0.0808059
0.0808076
0.0808092
0.0808109
0.0808126
0.0808143
0.080816
0.0808177
0.0808194
0.0808211
0.0808228
0.0808245
0.0808262
0.0808278
0.0808295
0.0808312
0.0808329
0.0808346
0.0808363
0.080838
0.0808397
0.0808414
0.0808431
0.0808448
0.0808465
0.0808483
0.08085
0.0808517
0.0808534
0.0808551
0.0808568
0.0808585
0.0808602
0.0808619
0.0808636
0.0808653
0.0808671
0.0808688
0.0808705
0.0808722
0.0808739
0.0808756
0.0808774
0.0808791
0.0808808
0.0808825
0.0808842
0.080886
0.0808877
0.0808894
0.0808911
0.0808929
0.0808946
0.0808963
0.080898
0.0808998
0.0809015
0.0809032
0.080905
0.0809067
0.0809084
0.0809102
0.0809119
0.0809136
0.0809154
0.0809171
0.0809188
0.0809206
0.0809223
0.0809241
0.0809258
0.0809276
0.0809293
0.080931
0.0809328
0.0809345
0.0809363
0.080938
0.0809398
0.0809415
0.0809434
0.080945
0.0809472
0.0809482
0.080951
0.080949
0.080949
0.080949
1
0.660887
0.446894
0.352878
0.302029
0.26985
0.247501
0.231018
0.218328
0.208226
0.199966
0.19306
0.187177
0.182084
0.177618
0.173655
0.170106
0.166901
0.163987
0.161322
0.158873
0.15661
0.154513
0.152562
0.150741
0.149036
0.147437
0.145933
0.144515
0.143176
0.141909
0.140708
0.139568
0.138484
0.137452
0.136468
0.135529
0.134631
0.133772
0.132949
0.13216
0.131402
0.130675
0.129975
0.129302
0.128654
0.12803
0.127427
0.126846
0.126284
0.125742
0.125217
0.12471
0.124219
0.123743
0.123283
0.122836
0.122403
0.121983
0.121575
0.121179
0.120794
0.120421
0.120058
0.119706
0.119363
0.11903
0.118706
0.118392
0.118086
0.117789
0.117501
0.117221
0.116951
0.116688
0.116435
0.116191
0.115955
0.115728
0.115511
0.115302
0.115103
0.114912
0.11473
0.114556
0.11439
0.114233
0.114083
0.113941
0.113807
0.113679
0.113558
0.113444
0.113336
0.113234
0.113139
0.113049
0.112965
0.112886
0.112812
0.112743
0.112678
0.112618
0.112562
0.112511
0.112463
0.11242
0.11238
0.112344
0.112311
0.11228
0.112253
0.112228
0.112205
0.112185
0.112168
0.112152
0.11214
0.112129
0.112121
0.112114
0.11211
0.112106
0.112105
0.112103
0.112103
0.112104
0.112104
0.112106
0.112107
0.112109
0.112111
0.112112
0.112114
0.112117
0.112119
0.112121
0.112123
0.112125
0.112127
0.112129
0.112132
0.112134
0.112136
0.112138
0.11214
0.112142
0.112145
0.112147
0.112149
0.112151
0.112153
0.112155
0.112158
0.11216
0.112162
0.112164
0.112166
0.112168
0.112171
0.112173
0.112175
0.112177
0.112179
0.112182
0.112184
0.112186
0.112188
0.11219
0.112192
0.112195
0.112197
0.112199
0.112201
0.112203
0.112206
0.112208
0.11221
0.112212
0.112214
0.112217
0.112219
0.112221
0.112223
0.112225
0.112228
0.11223
0.112232
0.112234
0.112237
0.112239
0.112241
0.112243
0.112245
0.112248
0.11225
0.112252
0.112254
0.112256
0.112259
0.112261
0.112263
0.112265
0.112268
0.11227
0.112272
0.112274
0.112277
0.112279
0.112281
0.112283
0.112285
0.112288
0.11229
0.112292
0.112294
0.112297
0.112299
0.112301
0.112303
0.112306
0.112308
0.11231
0.112312
0.112315
0.112317
0.112319
0.112321
0.112324
0.112326
0.112328
0.11233
0.112333
0.112335
0.112337
0.112339
0.112342
0.112344
0.112346
0.112348
0.112351
0.112353
0.112355
0.112358
0.11236
0.112362
0.112364
0.112367
0.112369
0.112371
0.112373
0.112376
0.112378
0.11238
0.112383
0.112385
0.112387
0.112389
0.112392
0.112394
0.112396
0.112399
0.112401
0.112403
0.112405
0.112408
0.11241
0.112412
0.112415
0.112417
0.112419
0.112421
0.112424
0.112426
0.112428
0.112431
0.112433
0.112435
0.112438
0.11244
0.112442
0.112445
0.112447
0.112449
0.112451
0.112454
0.112456
0.112458
0.112461
0.112463
0.112465
0.112468
0.11247
0.112472
0.112475
0.112477
0.112479
0.112482
0.112484
0.112486
0.112489
0.112491
0.112493
0.112496
0.112498
0.1125
0.112503
0.112505
0.112507
0.11251
0.112512
0.112514
0.112517
0.112519
0.112521
0.112524
0.112526
0.112528
0.112531
0.112533
0.112535
0.112538
0.11254
0.112542
0.112545
0.112547
0.11255
0.112552
0.112554
0.112557
0.112559
0.112561
0.112564
0.112566
0.112568
0.112571
0.112573
0.112576
0.112578
0.11258
0.112583
0.112585
0.112587
0.11259
0.112592
0.112595
0.112597
0.112599
0.112602
0.112604
0.112606
0.112609
0.112611
0.112614
0.112616
0.112618
0.112621
0.112623
0.112626
0.112628
0.11263
0.112633
0.112635
0.112638
0.11264
0.112642
0.112645
0.112647
0.11265
0.112652
0.112654
0.112657
0.112659
0.112662
0.112664
0.112666
0.112669
0.112671
0.112674
0.112676
0.112679
0.112681
0.112683
0.112686
0.112688
0.112691
0.112693
0.112695
0.112698
0.1127
0.112703
0.112705
0.112708
0.11271
0.112713
0.112715
0.112718
0.112716
0.112716
0.112716
1
0.776802
0.557825
0.446878
0.384101
0.343743
0.31551
0.294604
0.278469
0.265607
0.255081
0.246277
0.238776
0.232284
0.226591
0.221541
0.217019
0.212938
0.209228
0.205836
0.202717
0.199839
0.19717
0.194688
0.192372
0.190204