# vtk DataFile Version 2.0
FlowField
ASCII
DATASET STRUCTURED_GRID
DIMENSIONS 20 1 1
POINTS 19 float
0 0 0
1 0 0
2 0 0
3 0 0
4 0 0
5 0 0
6 0 0
7 0 0
8 0 0
9 0 0
10 0 0
11 0 0
12 0 0
13 0 0
14 0 0
15 0 0
16 0 0
17 0 0
18 0 0

POINT_DATA 19

SCALARS PHI float 1
LOOKUP_TABLE default
4.68405
3.04911
1.73378
0.862904
0.378767
0.148081
0.0520936
0.0166511
0.00487865
0.00132058
0.00033254
7.83769e-05
1.73831e-05
3.64517e-06
7.25743e-07
1.37719e-07
2.50994e-08
3.87974e-09
1.19407e-09
