# vtk DataFile Version 2.0
FlowField
ASCII
DATASET STRUCTURED_GRID
DIMENSIONS 20 1 1
POINTS 19 float
0 0 0
1 0 0
2 0 0
3 0 0
4 0 0
5 0 0
6 0 0
7 0 0
8 0 0
9 0 0
10 0 0
11 0 0
12 0 0
13 0 0
14 0 0
15 0 0
16 0 0
17 0 0
18 0 0

POINT_DATA 19

SCALARS PHI float 1
LOOKUP_TABLE default
4.73641
4.20111
3.67697
3.17395
2.70081
2.26462
1.87048
1.5214
1.21841
0.960709
0.746022
0.571006
0.431657
0.323734
0.243128
0.186187
0.149957
-0.547188
0.679561
