# vtk DataFile Version 2.0
FlowField
ASCII
DATASET STRUCTURED_GRID
DIMENSIONS 400 1 200
POINTS 80000 float
0 0 0
0.08 0 0
0.16 0 0
0.24 0 0
0.32 0 0
0.4 0 0
0.48 0 0
0.56 0 0
0.64 0 0
0.72 0 0
0.8 0 0
0.88 0 0
0.96 0 0
1.04 0 0
1.12 0 0
1.2 0 0
1.28 0 0
1.36 0 0
1.44 0 0
1.52 0 0
1.6 0 0
1.68 0 0
1.76 0 0
1.84 0 0
1.92 0 0
2 0 0
2.08 0 0
2.16 0 0
2.24 0 0
2.32 0 0
2.4 0 0
2.48 0 0
2.56 0 0
2.64 0 0
2.72 0 0
2.8 0 0
2.88 0 0
2.96 0 0
3.04 0 0
3.12 0 0
3.2 0 0
3.28 0 0
3.36 0 0
3.44 0 0
3.52 0 0
3.6 0 0
3.68 0 0
3.76 0 0
3.84 0 0
3.92 0 0
4 0 0
4.08 0 0
4.16 0 0
4.24 0 0
4.32 0 0
4.4 0 0
4.48 0 0
4.56 0 0
4.64 0 0
4.72 0 0
4.8 0 0
4.88 0 0
4.96 0 0
5.04 0 0
5.12 0 0
5.2 0 0
5.28 0 0
5.36 0 0
5.44 0 0
5.52 0 0
5.6 0 0
5.68 0 0
5.76 0 0
5.84 0 0
5.92 0 0
6 0 0
6.08 0 0
6.16 0 0
6.24 0 0
6.32 0 0
6.4 0 0
6.48 0 0
6.56 0 0
6.64 0 0
6.72 0 0
6.8 0 0
6.88 0 0
6.96 0 0
7.04 0 0
7.12 0 0
7.2 0 0
7.28 0 0
7.36 0 0
7.44 0 0
7.52 0 0
7.6 0 0
7.68 0 0
7.76 0 0
7.84 0 0
7.92 0 0
8 0 0
8.08 0 0
8.16 0 0
8.24 0 0
8.32 0 0
8.4 0 0
8.48 0 0
8.56 0 0
8.64 0 0
8.72 0 0
8.8 0 0
8.88 0 0
8.96 0 0
9.04 0 0
9.12 0 0
9.2 0 0
9.28 0 0
9.36 0 0
9.44 0 0
9.52 0 0
9.6 0 0
9.68 0 0
9.76 0 0
9.84 0 0
9.92 0 0
10 0 0
10.08 0 0
10.16 0 0
10.24 0 0
10.32 0 0
10.4 0 0
10.48 0 0
10.56 0 0
10.64 0 0
10.72 0 0
10.8 0 0
10.88 0 0
10.96 0 0
11.04 0 0
11.12 0 0
11.2 0 0
11.28 0 0
11.36 0 0
11.44 0 0
11.52 0 0
11.6 0 0
11.68 0 0
11.76 0 0
11.84 0 0
11.92 0 0
12 0 0
12.08 0 0
12.16 0 0
12.24 0 0
12.32 0 0
12.4 0 0
12.48 0 0
12.56 0 0
12.64 0 0
12.72 0 0
12.8 0 0
12.88 0 0
12.96 0 0
13.04 0 0
13.12 0 0
13.2 0 0
13.28 0 0
13.36 0 0
13.44 0 0
13.52 0 0
13.6 0 0
13.68 0 0
13.76 0 0
13.84 0 0
13.92 0 0
14 0 0
14.08 0 0
14.16 0 0
14.24 0 0
14.32 0 0
14.4 0 0
14.48 0 0
14.56 0 0
14.64 0 0
14.72 0 0
14.8 0 0
14.88 0 0
14.96 0 0
15.04 0 0
15.12 0 0
15.2 0 0
15.28 0 0
15.36 0 0
15.44 0 0
15.52 0 0
15.6 0 0
15.68 0 0
15.76 0 0
15.84 0 0
15.92 0 0
16 0 0
16.08 0 0
16.16 0 0
16.24 0 0
16.32 0 0
16.4 0 0
16.48 0 0
16.56 0 0
16.64 0 0
16.72 0 0
16.8 0 0
16.88 0 0
16.96 0 0
17.04 0 0
17.12 0 0
17.2 0 0
17.28 0 0
17.36 0 0
17.44 0 0
17.52 0 0
17.6 0 0
17.68 0 0
17.76 0 0
17.84 0 0
17.92 0 0
18 0 0
18.08 0 0
18.16 0 0
18.24 0 0
18.32 0 0
18.4 0 0
18.48 0 0
18.56 0 0
18.64 0 0
18.72 0 0
18.8 0 0
18.88 0 0
18.96 0 0
19.04 0 0
19.12 0 0
19.2 0 0
19.28 0 0
19.36 0 0
19.44 0 0
19.52 0 0
19.6 0 0
19.68 0 0
19.76 0 0
19.84 0 0
19.92 0 0
20 0 0
20.08 0 0
20.16 0 0
20.24 0 0
20.32 0 0
20.4 0 0
20.48 0 0
20.56 0 0
20.64 0 0
20.72 0 0
20.8 0 0
20.88 0 0
20.96 0 0
21.04 0 0
21.12 0 0
21.2 0 0
21.28 0 0
21.36 0 0
21.44 0 0
21.52 0 0
21.6 0 0
21.68 0 0
21.76 0 0
21.84 0 0
21.92 0 0
22 0 0
22.08 0 0
22.16 0 0
22.24 0 0
22.32 0 0
22.4 0 0
22.48 0 0
22.56 0 0
22.64 0 0
22.72 0 0
22.8 0 0
22.88 0 0
22.96 0 0
23.04 0 0
23.12 0 0
23.2 0 0
23.28 0 0
23.36 0 0
23.44 0 0
23.52 0 0
23.6 0 0
23.68 0 0
23.76 0 0
23.84 0 0
23.92 0 0
24 0 0
24.08 0 0
24.16 0 0
24.24 0 0
24.32 0 0
24.4 0 0
24.48 0 0
24.56 0 0
24.64 0 0
24.72 0 0
24.8 0 0
24.88 0 0
24.96 0 0
25.04 0 0
25.12 0 0
25.2 0 0
25.28 0 0
25.36 0 0
25.44 0 0
25.52 0 0
25.6 0 0
25.68 0 0
25.76 0 0
25.84 0 0
25.92 0 0
26 0 0
26.08 0 0
26.16 0 0
26.24 0 0
26.32 0 0
26.4 0 0
26.48 0 0
26.56 0 0
26.64 0 0
26.72 0 0
26.8 0 0
26.88 0 0
26.96 0 0
27.04 0 0
27.12 0 0
27.2 0 0
27.28 0 0
27.36 0 0
27.44 0 0
27.52 0 0
27.6 0 0
27.68 0 0
27.76 0 0
27.84 0 0
27.92 0 0
28 0 0
28.08 0 0
28.16 0 0
28.24 0 0
28.32 0 0
28.4 0 0
28.48 0 0
28.56 0 0
28.64 0 0
28.72 0 0
28.8 0 0
28.88 0 0
28.96 0 0
29.04 0 0
29.12 0 0
29.2 0 0
29.28 0 0
29.36 0 0
29.44 0 0
29.52 0 0
29.6 0 0
29.68 0 0
29.76 0 0
29.84 0 0
29.92 0 0
30 0 0
30.08 0 0
30.16 0 0
30.24 0 0
30.32 0 0
30.4 0 0
30.48 0 0
30.56 0 0
30.64 0 0
30.72 0 0
30.8 0 0
30.88 0 0
30.96 0 0
31.04 0 0
31.12 0 0
31.2 0 0
31.28 0 0
31.36 0 0
31.44 0 0
31.52 0 0
31.6 0 0
31.68 0 0
31.76 0 0
31.84 0 0
31.92 0 0
0 0.005 0
0.08 0.005 0
0.16 0.005 0
0.24 0.005 0
0.32 0.005 0
0.4 0.005 0
0.48 0.005 0
0.56 0.005 0
0.64 0.005 0
0.72 0.005 0
0.8 0.005 0
0.88 0.005 0
0.96 0.005 0
1.04 0.005 0
1.12 0.005 0
1.2 0.005 0
1.28 0.005 0
1.36 0.005 0
1.44 0.005 0
1.52 0.005 0
1.6 0.005 0
1.68 0.005 0
1.76 0.005 0
1.84 0.005 0
1.92 0.005 0
2 0.005 0
2.08 0.005 0
2.16 0.005 0
2.24 0.005 0
2.32 0.005 0
2.4 0.005 0
2.48 0.005 0
2.56 0.005 0
2.64 0.005 0
2.72 0.005 0
2.8 0.005 0
2.88 0.005 0
2.96 0.005 0
3.04 0.005 0
3.12 0.005 0
3.2 0.005 0
3.28 0.005 0
3.36 0.005 0
3.44 0.005 0
3.52 0.005 0
3.6 0.005 0
3.68 0.005 0
3.76 0.005 0
3.84 0.005 0
3.92 0.005 0
4 0.005 0
4.08 0.005 0
4.16 0.005 0
4.24 0.005 0
4.32 0.005 0
4.4 0.005 0
4.48 0.005 0
4.56 0.005 0
4.64 0.005 0
4.72 0.005 0
4.8 0.005 0
4.88 0.005 0
4.96 0.005 0
5.04 0.005 0
5.12 0.005 0
5.2 0.005 0
5.28 0.005 0
5.36 0.005 0
5.44 0.005 0
5.52 0.005 0
5.6 0.005 0
5.68 0.005 0
5.76 0.005 0
5.84 0.005 0
5.92 0.005 0
6 0.005 0
6.08 0.005 0
6.16 0.005 0
6.24 0.005 0
6.32 0.005 0
6.4 0.005 0
6.48 0.005 0
6.56 0.005 0
6.64 0.005 0
6.72 0.005 0
6.8 0.005 0
6.88 0.005 0
6.96 0.005 0
7.04 0.005 0
7.12 0.005 0
7.2 0.005 0
7.28 0.005 0
7.36 0.005 0
7.44 0.005 0
7.52 0.005 0
7.6 0.005 0
7.68 0.005 0
7.76 0.005 0
7.84 0.005 0
7.92 0.005 0
8 0.005 0
8.08 0.005 0
8.16 0.005 0
8.24 0.005 0
8.32 0.005 0
8.4 0.005 0
8.48 0.005 0
8.56 0.005 0
8.64 0.005 0
8.72 0.005 0
8.8 0.005 0
8.88 0.005 0
8.96 0.005 0
9.04 0.005 0
9.12 0.005 0
9.2 0.005 0
9.28 0.005 0
9.36 0.005 0
9.44 0.005 0
9.52 0.005 0
9.6 0.005 0
9.68 0.005 0
9.76 0.005 0
9.84 0.005 0
9.92 0.005 0
10 0.005 0
10.08 0.005 0
10.16 0.005 0
10.24 0.005 0
10.32 0.005 0
10.4 0.005 0
10.48 0.005 0
10.56 0.005 0
10.64 0.005 0
10.72 0.005 0
10.8 0.005 0
10.88 0.005 0
10.96 0.005 0
11.04 0.005 0
11.12 0.005 0
11.2 0.005 0
11.28 0.005 0
11.36 0.005 0
11.44 0.005 0
11.52 0.005 0
11.6 0.005 0
11.68 0.005 0
11.76 0.005 0
11.84 0.005 0
11.92 0.005 0
12 0.005 0
12.08 0.005 0
12.16 0.005 0
12.24 0.005 0
12.32 0.005 0
12.4 0.005 0
12.48 0.005 0
12.56 0.005 0
12.64 0.005 0
12.72 0.005 0
12.8 0.005 0
12.88 0.005 0
12.96 0.005 0
13.04 0.005 0
13.12 0.005 0
13.2 0.005 0
13.28 0.005 0
13.36 0.005 0
13.44 0.005 0
13.52 0.005 0
13.6 0.005 0
13.68 0.005 0
13.76 0.005 0
13.84 0.005 0
13.92 0.005 0
14 0.005 0
14.08 0.005 0
14.16 0.005 0
14.24 0.005 0
14.32 0.005 0
14.4 0.005 0
14.48 0.005 0
14.56 0.005 0
14.64 0.005 0
14.72 0.005 0
14.8 0.005 0
14.88 0.005 0
14.96 0.005 0
15.04 0.005 0
15.12 0.005 0
15.2 0.005 0
15.28 0.005 0
15.36 0.005 0
15.44 0.005 0
15.52 0.005 0
15.6 0.005 0
15.68 0.005 0
15.76 0.005 0
15.84 0.005 0
15.92 0.005 0
16 0.005 0
16.08 0.005 0
16.16 0.005 0
16.24 0.005 0
16.32 0.005 0
16.4 0.005 0
16.48 0.005 0
16.56 0.005 0
16.64 0.005 0
16.72 0.005 0
16.8 0.005 0
16.88 0.005 0
16.96 0.005 0
17.04 0.005 0
17.12 0.005 0
17.2 0.005 0
17.28 0.005 0
17.36 0.005 0
17.44 0.005 0
17.52 0.005 0
17.6 0.005 0
17.68 0.005 0
17.76 0.005 0
17.84 0.005 0
17.92 0.005 0
18 0.005 0
18.08 0.005 0
18.16 0.005 0
18.24 0.005 0
18.32 0.005 0
18.4 0.005 0
18.48 0.005 0
18.56 0.005 0
18.64 0.005 0
18.72 0.005 0
18.8 0.005 0
18.88 0.005 0
18.96 0.005 0
19.04 0.005 0
19.12 0.005 0
19.2 0.005 0
19.28 0.005 0
19.36 0.005 0
19.44 0.005 0
19.52 0.005 0
19.6 0.005 0
19.68 0.005 0
19.76 0.005 0
19.84 0.005 0
19.92 0.005 0
20 0.005 0
20.08 0.005 0
20.16 0.005 0
20.24 0.005 0
20.32 0.005 0
20.4 0.005 0
20.48 0.005 0
20.56 0.005 0
20.64 0.005 0
20.72 0.005 0
20.8 0.005 0
20.88 0.005 0
20.96 0.005 0
21.04 0.005 0
21.12 0.005 0
21.2 0.005 0
21.28 0.005 0
21.36 0.005 0
21.44 0.005 0
21.52 0.005 0
21.6 0.005 0
21.68 0.005 0
21.76 0.005 0
21.84 0.005 0
21.92 0.005 0
22 0.005 0
22.08 0.005 0
22.16 0.005 0
22.24 0.005 0
22.32 0.005 0
22.4 0.005 0
22.48 0.005 0
22.56 0.005 0
22.64 0.005 0
22.72 0.005 0
22.8 0.005 0
22.88 0.005 0
22.96 0.005 0
23.04 0.005 0
23.12 0.005 0
23.2 0.005 0
23.28 0.005 0
23.36 0.005 0
23.44 0.005 0
23.52 0.005 0
23.6 0.005 0
23.68 0.005 0
23.76 0.005 0
23.84 0.005 0
23.92 0.005 0
24 0.005 0
24.08 0.005 0
24.16 0.005 0
24.24 0.005 0
24.32 0.005 0
24.4 0.005 0
24.48 0.005 0
24.56 0.005 0
24.64 0.005 0
24.72 0.005 0
24.8 0.005 0
24.88 0.005 0
24.96 0.005 0
25.04 0.005 0
25.12 0.005 0
25.2 0.005 0
25.28 0.005 0
25.36 0.005 0
25.44 0.005 0
25.52 0.005 0
25.6 0.005 0
25.68 0.005 0
25.76 0.005 0
25.84 0.005 0
25.92 0.005 0
26 0.005 0
26.08 0.005 0
26.16 0.005 0
26.24 0.005 0
26.32 0.005 0
26.4 0.005 0
26.48 0.005 0
26.56 0.005 0
26.64 0.005 0
26.72 0.005 0
26.8 0.005 0
26.88 0.005 0
26.96 0.005 0
27.04 0.005 0
27.12 0.005 0
27.2 0.005 0
27.28 0.005 0
27.36 0.005 0
27.44 0.005 0
27.52 0.005 0
27.6 0.005 0
27.68 0.005 0
27.76 0.005 0
27.84 0.005 0
27.92 0.005 0
28 0.005 0
28.08 0.005 0
28.16 0.005 0
28.24 0.005 0
28.32 0.005 0
28.4 0.005 0
28.48 0.005 0
28.56 0.005 0
28.64 0.005 0
28.72 0.005 0
28.8 0.005 0
28.88 0.005 0
28.96 0.005 0
29.04 0.005 0
29.12 0.005 0
29.2 0.005 0
29.28 0.005 0
29.36 0.005 0
29.44 0.005 0
29.52 0.005 0
29.6 0.005 0
29.68 0.005 0
29.76 0.005 0
29.84 0.005 0
29.92 0.005 0
30 0.005 0
30.08 0.005 0
30.16 0.005 0
30.24 0.005 0
30.32 0.005 0
30.4 0.005 0
30.48 0.005 0
30.56 0.005 0
30.64 0.005 0
30.72 0.005 0
30.8 0.005 0
30.88 0.005 0
30.96 0.005 0
31.04 0.005 0
31.12 0.005 0
31.2 0.005 0
31.28 0.005 0
31.36 0.005 0
31.44 0.005 0
31.52 0.005 0
31.6 0.005 0
31.68 0.005 0
31.76 0.005 0
31.84 0.005 0
31.92 0.005 0
0 0.01 0
0.08 0.01 0
0.16 0.01 0
0.24 0.01 0
0.32 0.01 0
0.4 0.01 0
0.48 0.01 0
0.56 0.01 0
0.64 0.01 0
0.72 0.01 0
0.8 0.01 0
0.88 0.01 0
0.96 0.01 0
1.04 0.01 0
1.12 0.01 0
1.2 0.01 0
1.28 0.01 0
1.36 0.01 0
1.44 0.01 0
1.52 0.01 0
1.6 0.01 0
1.68 0.01 0
1.76 0.01 0
1.84 0.01 0
1.92 0.01 0
2 0.01 0
2.08 0.01 0
2.16 0.01 0
2.24 0.01 0
2.32 0.01 0
2.4 0.01 0
2.48 0.01 0
2.56 0.01 0
2.64 0.01 0
2.72 0.01 0
2.8 0.01 0
2.88 0.01 0
2.96 0.01 0
3.04 0.01 0
3.12 0.01 0
3.2 0.01 0
3.28 0.01 0
3.36 0.01 0
3.44 0.01 0
3.52 0.01 0
3.6 0.01 0
3.68 0.01 0
3.76 0.01 0
3.84 0.01 0
3.92 0.01 0
4 0.01 0
4.08 0.01 0
4.16 0.01 0
4.24 0.01 0
4.32 0.01 0
4.4 0.01 0
4.48 0.01 0
4.56 0.01 0
4.64 0.01 0
4.72 0.01 0
4.8 0.01 0
4.88 0.01 0
4.96 0.01 0
5.04 0.01 0
5.12 0.01 0
[...]
POINT_DATA 80000

SCALARS p float 1
LOOKUP_TABLE default
1
56.6969757221565
56.3952377624224
56.354075375462
56.3339829142656
56.319561567047
56.3075582521606
56.2968125313707
56.2868121473471
56.2773043474469
56.2681558818682
56.2592930379943
56.2506730449325
56.2422695227248
56.2340648073046
56.2260458597247
56.2182021204305
56.210524407515
56.2030043331965
56.1956339794368
56.1884057632447
56.1813124658315
56.174347320122
56.1675040075358
56.1607765263558
56.1541590702897
56.147646085073
56.1412324853582
56.1349138058951
56.1286860833761
56.1225455332234
56.1164883298321
56.1105107425264
56.104609544093
56.0987823142215
56.0930273122636
56.0873429743109
56.0817274604397
56.0761786914579
56.0706949336854
56.0652755258235
56.0599211831803
56.0546336003986
56.0494145834955
56.0442652806508
56.039185992571
56.034176599184
56.0292371724641
56.0243681950094
56.0195700746592
56.0148421458861
56.0101817395293
56.0055839293606
56.0010422140157
55.996549884346
55.9921014582175
55.9876935343154
55.9833247172452
55.9789947165168
55.9747030856228
55.9704481826379
55.9662267802674
55.9620344366366
55.9578664186074
55.953718780028
55.9495891913372
55.9454772616463
55.9413843042124
55.9373126807999
55.9332649619692
55.929243146354
55.9252481159586
55.9212794059504
55.9173352736022
55.9134129860685
55.9095092190563
55.9056204639804
55.901743368438
55.8978749703942
55.8940128193371
55.8901550010358
55.8863000944026
55.882447090783
55.8785953010923
55.8747442682998
55.8708936947082
55.867043387042
55.8631932181733
55.8593431022531
55.8554929794802
55.8516428071657
55.8477925545434
55.8439421996238
55.8400917270803
55.8362411266578
55.8323903918638
55.8285395188839
55.8246885056983
55.8208373513971
55.8169860556834
55.8131346185387
55.8092830400179
55.8054313201379
55.8015794588356
55.797727455959
55.7938753112819
55.7900230245279
55.7861705953914
55.7823180235566
55.7784653087094
55.7746124505489
55.7707594487895
55.7669063031632
55.7630530134199
55.759199579324
55.7553460006532
55.7514922771959
55.7476384087497
55.7437843951175
55.739930236109
55.7360759315388
55.732221481225
55.7283668849888
55.7245121426561
55.7206572540556
55.7168022190203
55.7129470373864
55.7090917089954
55.7052362336917
55.7013806113255
55.697524841751
55.6936689248268
55.6898128604184
55.6859566483951
55.6821002886309
55.6782437810047
55.6743871254035
55.6705303217155
55.6666733698364
55.6628162696661
55.6589590211083
55.6551016240739
55.6512440784763
55.6473863842326
55.6435285412658
55.6396705495034
55.6358124088746
55.6319541193133
55.6280956807576
55.6242370931475
55.620378356427
55.6165194705429
55.6126604354456
55.6088012510855
55.6049419174181
55.6010824343996
55.5972228019889
55.5933630201455
55.589503088832
55.585643008012
55.5817827776504
55.5779223977126
55.5740618681661
55.5702011889787
55.5663403601185
55.5624793815548
55.5586182532567
55.5547569751934
55.5508955473353
55.5470339696518
55.5431722421119
55.5393103646845
55.5354483373387
55.5315861600417
55.527723832761
55.5238613554632
55.519998728114
55.5161359506779
55.512273023118
55.508409945395
55.5045467174715
55.5006833393052
55.4968198108549
55.4929561320759
55.4890923029222
55.4852283233473
55.4813641933005
55.4774999127314
55.4736354815864
55.4697708998094
55.4659061673434
55.4620412841292
55.4581762501041
55.4543110652041
55.4504457293619
55.4465802425089
55.4427146045739
55.4388488154822
55.4349828751585
55.4311167835233
55.4272505404957
55.4233841459909
55.4195175999224
55.4156509022018
55.4117840527368
55.4079170514331
55.4040498981943
55.4001825929205
55.3963151355094
55.3924475258563
55.3885797638533
55.3847118493911
55.3808437823565
55.376975562635
55.3731071901084
55.3692386646562
55.3653699861557
55.3615011544817
55.3576321695057
55.3537630310979
55.3498937391251
55.3460242934526
55.3421546939421
55.3382849404539
55.3344150328459
55.3305449709726
55.3266747546873
55.3228043838406
55.3189338582816
55.315063177857
55.3111923424103
55.3073213517832
55.3034502058165
55.2995789043477
55.2957074472127
55.2918358342457
55.2879640652792
55.2840921401427
55.2802200586653
55.2763478206731
55.2724754259904
55.2686028744408
55.2647301658451
55.2608573000223
55.2569842767919
55.2531110959685
55.249237757368
55.2453642608042
55.2414906060876
55.2376167930292
55.2337428214375
55.2298686911194
55.2259944018813
55.2221199535292
55.2182453458649
55.2143705786923
55.2104956518113
55.206620565022
55.2027453181228
55.1988699109115
55.1949943431845
55.191118614738
55.1872427253653
55.18336667486
55.179490463015
55.1756140896215
55.17173755447
55.1678608573505
55.1639839980513
55.1601069763606
55.1562297920662
55.1523524449539
55.1484749348091
55.1445972614175
55.1407194245625
55.1368414240283
55.1329632595976
55.1290849310516
55.1252064381732
55.121327780743
55.117448958541
55.1135699713469
55.1096908189402
55.1058115011001
55.1019320176043
55.0980523682302
55.0941725527557
55.090292570957
55.0864124226109
55.0825321074923
55.0786516253775
55.0747709760407
55.0708901592576
55.0670091748019
55.0631280224463
55.0592467019656
55.0553652131327
55.0514835557189
55.0476017294987
55.0437197342427
55.0398375697229
55.035955235711
55.0320727319785
55.0281900582956
55.024307214433
55.020424200161
55.0165410152488
55.012657659468
55.0087741325862
55.0048904343726
55.0010065645975
54.9971225230283
54.9932383094348
54.989353923584
54.9854693652446
54.9815846341843
54.9776997301701
54.9738146529705
54.9699294023509
54.9660439780797
54.962158379923
54.9582726076475
54.9543866610195
54.950500539805
54.94661424377
54.9427277726804
54.9388411263008
54.9349543043986
54.9310673067366
54.927180133083
54.9232927831979
54.9194052568533
54.9155175538011
54.9116296738268
54.907741616661
54.9038533821188
54.8999649698885
54.8960763798432
54.8921876115921
54.8882986651105
54.8844095398765
54.8805202360297
54.8766307528461
54.8727410907052
54.8688512486027
54.8649612272393
54.861071025248
54.8571806437314
54.8532900808818
54.8493993382783
54.8455084136026
54.8416173089763
54.8377260215065
54.8338345539243
54.8299429026813
54.8260510712285
54.8221590552108
54.8182668589978
54.8143744771755
54.8104819153464
54.8065891666559
54.8026962383969
54.7988031217254
54.7949098262894
54.7910163404553
54.7871226771688
54.7832288209412
54.7793347891749
54.7754405612965
54.7715461604744
54.7676515596383
54.7637567892593
54.7598618141214
54.7559666737327
54.7520713229412
54.7481758121328
54.7442800843354
54.7403842027142
54.7364880966258
54.7325918436918
54.728695358204
54.7247987331531
54.7209018675444
54.7170048687006
54.713107623151
54.7092102467162
54.7053126232496
54.7014148604836
54.6975168650535
54.6936186958002
54.6897203429726
54.6858217204383
54.6819230473245
54.6780238605952
54.6741249828183
54.6702249626417
54.6663264249952
54.6624248537784
54.6585333636017
0.5
56.6969757221565
56.6969757221565
56.3952377624224
56.354075375462
56.3339829142656
56.319561567047
56.3075582521606
56.2968125313707
56.2868121473471
56.2773043474469
56.2681558818682
56.2592930379943
56.2506730449325
56.2422695227248
56.2340648073046
56.2260458597247
56.2182021204305
56.210524407515
56.2030043331965
56.1956339794368
56.1884057632447
56.1813124658315
56.174347320122
56.1675040075358
56.1607765263558
56.1541590702897
56.147646085073
56.1412324853582
56.1349138058951
56.1286860833761
56.1225455332234
56.1164883298321
56.1105107425264
56.104609544093
56.0987823142215
56.0930273122636
56.0873429743109
56.0817274604397
56.0761786914579
56.0706949336854
56.0652755258235
56.0599211831803
56.0546336003986
56.0494145834955
56.0442652806508
56.039185992571
56.034176599184
56.0292371724641
56.0243681950094
56.0195700746592
56.0148421458861
56.0101817395293
56.0055839293606
56.0010422140157
55.996549884346
55.9921014582175
55.9876935343154
55.9833247172452
55.9789947165168
55.9747030856228
55.9704481826379
55.9662267802674
55.9620344366366
55.9578664186074
55.953718780028
55.9495891913372
55.9454772616463
55.9413843042124
55.9373126807999
55.9332649619692
55.929243146354
55.9252481159586
55.9212794059504
55.9173352736022
55.9134129860685
55.9095092190563
55.9056204639804
55.901743368438
55.8978749703942
55.8940128193371
55.8901550010358
55.8863000944026
55.882447090783
55.8785953010923
55.8747442682998
55.8708936947082
55.867043387042
55.8631932181733
55.8593431022531
55.8554929794802
55.8516428071657
55.8477925545434
55.8439421996238
55.8400917270803
55.8362411266578
55.8323903918638
55.8285395188839
55.8246885056983
55.8208373513971
55.8169860556834
55.8131346185387
55.8092830400179
55.8054313201379
55.8015794588356
55.797727455959
55.7938753112819
55.7900230245279
55.7861705953914
55.7823180235566
55.7784653087094
55.7746124505489
55.7707594487895
55.7669063031632
55.7630530134199
55.759199579324
55.7553460006532
55.7514922771959
55.7476384087497
55.7437843951175
55.739930236109
55.7360759315388
55.732221481225
55.7283668849888
55.7245121426561
55.7206572540556
55.7168022190203
55.7129470373864
55.7090917089954
55.7052362336917
55.7013806113255
55.697524841751
55.6936689248268
55.6898128604184
55.6859566483951
55.6821002886309
55.6782437810047
55.6743871254035
55.6705303217155
55.6666733698364
55.6628162696661
55.6589590211083
55.6551016240739
55.6512440784763
55.6473863842326
55.6435285412658
55.6396705495034
55.6358124088746
55.6319541193133
55.6280956807576
55.6242370931475
55.620378356427
55.6165194705429
55.6126604354456
55.6088012510855
55.6049419174181
55.6010824343996
55.5972228019889
55.5933630201455
55.589503088832
55.585643008012
55.5817827776504
55.5779223977126
55.5740618681661
55.5702011889787
55.5663403601185
55.5624793815548
55.5586182532567
55.5547569751934
55.5508955473353
55.5470339696518
55.5431722421119
55.5393103646845
55.5354483373387
55.5315861600417
55.527723832761
55.5238613554632
55.519998728114
55.5161359506779
55.512273023118
55.508409945395
55.5045467174715
55.5006833393052
55.4968198108549
55.4929561320759
55.4890923029222
55.4852283233473
55.4813641933005
55.4774999127314
55.4736354815864
55.4697708998094
55.4659061673434
55.4620412841292
55.4581762501041
55.4543110652041
55.4504457293619
55.4465802425089
55.4427146045739
55.4388488154822
55.4349828751585
55.4311167835233
55.4272505404957
55.4233841459909
55.4195175999224
55.4156509022018
55.4117840527368
55.4079170514331
55.4040498981943
55.4001825929205
55.3963151355094
55.3924475258563
55.3885797638533
55.3847118493911
55.3808437823565
55.376975562635
55.3731071901084
55.3692386646562
55.3653699861557
55.3615011544817
55.3576321695057
55.3537630310979
55.3498937391251
55.3460242934526
55.3421546939421
55.3382849404539
55.3344150328459
55.3305449709726
55.3266747546873
55.3228043838406
55.3189338582816
55.315063177857
55.3111923424103
55.3073213517832
55.3034502058165
55.2995789043477
55.2957074472127
55.2918358342457
55.2879640652792
55.2840921401427
55.2802200586653
55.2763478206731
55.2724754259904
55.2686028744408
55.2647301658451
55.2608573000223
55.2569842767919
55.2531110959685
55.249237757368
55.2453642608042
55.2414906060876
55.2376167930292
55.2337428214375
55.2298686911194
55.2259944018813
55.2221199535292
55.2182453458649
55.2143705786923
55.2104956518113
55.206620565022
55.2027453181228
55.1988699109115
55.1949943431845
55.191118614738
55.1872427253653
55.18336667486
55.179490463015
55.1756140896215
55.17173755447
55.1678608573505
55.1639839980513
55.1601069763606
55.1562297920662
55.1523524449539
55.1484749348091
55.1445972614175
55.1407194245625
55.1368414240283
55.1329632595976
55.1290849310516
55.1252064381732
55.121327780743
55.117448958541
55.1135699713469
55.1096908189402
55.1058115011001
55.1019320176043
55.0980523682302
55.0941725527557
55.090292570957
55.0864124226109
55.0825321074923
55.0786516253775
55.0747709760407
55.0708901592576
55.0670091748019
55.0631280224463
55.0592467019656
55.0553652131327
55.0514835557189
55.0476017294987
55.0437197342427
55.0398375697229
55.035955235711
55.0320727319785
55.0281900582956
55.024307214433
55.020424200161
55.0165410152488
55.012657659468
55.0087741325862
55.0048904343726
55.0010065645975
54.9971225230283
54.9932383094348
54.989353923584
54.9854693652446
54.9815846341843
54.9776997301701
54.9738146529705
54.9699294023509
54.9660439780797
54.962158379923
54.9582726076475
54.9543866610195
54.950500539805
54.94661424377
54.9427277726804
54.9388411263008
54.9349543043986
54.9310673067366
54.927180133083
54.9232927831979
54.9194052568533
54.9155175538011
54.9116296738268
54.907741616661
54.9038533821188
54.8999649698885
54.8960763798432
54.8921876115921
54.8882986651105
54.8844095398765
54.8805202360297
54.8766307528461
54.8727410907052
54.8688512486027
54.8649612272393
54.861071025248
54.8571806437314
54.8532900808818
54.8493993382783
54.8455084136026
54.8416173089763
54.8377260215065
54.8338345539243
54.8299429026813
54.8260510712285
54.8221590552108
54.8182668589978
54.8143744771755
54.8104819153464
54.8065891666559
54.8026962383969
54.7988031217254
54.7949098262894
54.7910163404553
54.7871226771688
54.7832288209412
54.7793347891749
54.7754405612965
54.7715461604744
54.7676515596383
54.7637567892593
54.7598618141214
54.7559666737327
54.7520713229412
54.7481758121328
54.7442800843354
54.7403842027142
54.7364880966258
54.7325918436918
54.728695358204
54.7247987331531
54.7209018675444
54.7170048687006
54.713107623151
54.7092102467162
54.7053126232496
54.7014148604836
54.6975168650535
54.6936186958002
54.6897203429726
54.6858217204383
54.6819230473245
54.6780238605952
54.6741249828183
54.6702249626417
54.6663264249952
54.6624248537784
54.6585333636017
54.6585333636017
56.6823938106795
56.6823938106795
56.3990735124471
56.3553306679162
56.3346180323774
56.3199559599005
56.3078298253257
56.2970118593489
56.2869651697204
56.2774259270533
56.2682551854569
56.2593760194747
56.2507437232622
56.2423306947877
56.2341184702731
56.226093472595
56.2182447712664
56.2105629233518
56.2030393543433
56.1956660108488
56.1884352100007
56.1813396571861
56.1743725262042
56.1675274523623
56.1607983989377
56.1541795331835
56.1476652791316
56.1412505313516
56.1349308058848
56.1287021243852
56.1225606926973
56.116502679627
56.1105243487219
56.1046224635547
56.0987945920456
56.0930389837166
56.087354070823
56.0817380152011
56.0761887398756
56.0707045078291
56.0652846468455
56.0599298575387
56.0546418230453
56.0494223461287
56.0442725795692
56.0391928312138
56.0341829845404
56.0292431090845
56.0243736820875
56.0195751094556
56.0148467322753
56.0101858967191
56.0055876952423
56.0010456404167
55.99655302585
55.9921043596015
55.9876962222427
55.9833271995853
55.9789969889807
55.9747051422477
55.9704500254169
55.966228424168
55.9620359086132
55.9578677517534
55.9537200056584
55.9495903320668
55.9454783276281
55.9413852932394
55.9373135816106
55.933265759284
55.9292438260085
55.925248668857
55.9212798301764
55.9173355746422
55.9134131755581
55.9095093126823
55.9056204791756
55.9017433223602
55.8978748784719
55.8940126944581
55.8901548533045
55.886299931309
55.8824469176108
55.878595121412
55.8747440844443
55.8708935081703
55.8670431987738
55.8631930287936
55.8593429121794
55.8554927890071
55.8516426165089
55.8477923638635
55.8439420090395
55.8400915366777
55.8362409364963
55.8323902019828
55.8285393293074
55.8246883164399
55.8208371624634
55.8169858670771
55.8131344302599
55.8092828520662
55.8054311325125
55.8015792715361
55.7977272689853
55.7938751246343
55.7900228382067
55.7861704093973
55.7823178378902
55.7784651233712
55.7746122655395
55.7707592641095
55.7669061188129
55.7630528293997
55.759199395634
55.7553458172936
55.7514920941668
55.7476382260512
55.7437842127496
55.7399300540718
55.7360757498323
55.7322212998491
55.7283667039436
55.7245119619415
55.7206570736718
55.7168020389672
55.712946857664
55.7090915296037
55.7052360546308
55.7013804325953
55.6975246633516
55.6936687467581
55.6898126826805
55.6859564709879
55.6821001115543
55.6782436042588
55.6743869489881
55.6705301456307
55.666673194082
55.662816094242
55.6589588460145
55.6551014493103
55.6512439040427
55.647386210129
55.6435283674921
55.6396703760592
55.6358122357599
55.631953946528
55.6280955083014
55.6242369210202
55.6203781846285
55.616519299073
55.6126602643041
55.6088010802722
55.6049417469327
55.6010822642419
55.5972226321587
55.5933628506425
55.589502919656
55.5856428391629
55.5817826091277
55.5779222295164
55.5740617002958
55.5702010214342
55.5663401928995
55.5624792146611
55.5586180866879
55.5547568089493
55.5508953814157
55.5470338040564
55.5431720768404
55.5393101997367
55.5354481727142
55.5315859957404
55.5277236687825
55.5238611918073
55.5199985647804
55.5161357876663
55.5122728604281
55.5084097830265
55.5045465554244
55.500683177579
55.4968196494494
55.4929559709908
55.4890921421573
55.4852281629023
55.4813640331752
55.4774997529254
55.4736353220997
55.4697707406416
55.4659060084943
55.4620411255985
55.4581760918915
55.4543109073095
55.450445571785
55.4465800852496
55.4427144476318
55.4388486588573
55.4349827188504
55.4311166275319
55.4272503848207
55.4233839906322
55.4195174448797
55.415650747475
55.4117838983257
55.4079168973376
55.4040497444141
55.4001824394553
55.3963149823592
55.3924473730209
55.3885796113327
55.384711697185
55.3808436304647
55.3769754110574
55.3731070388448
55.3692385137065
55.3653698355199
55.3615010041594
55.3576320194971
55.3537628814027
55.3498935897433
55.346024144384
55.3421545451865
55.3382847920114
55.3344148847163
55.3305448231558
55.3266746071832
55.3228042366492
55.3189337114028
55.3150630312907
55.3111921961563
55.3073212058416
55.3034500601872
55.2995787590306
55.2957073022079
55.2918356895529
55.2879639208985
55.2840919960741
55.2802199149086
55.2763476772283
55.2724752828576
55.2686027316199
55.2647300233361
55.2608571578251
55.2569841349065
55.2531109543949
55.2492376161063
55.2453641198543
55.2414904654494
55.2376166527028
55.2337426814229
55.2298685514166
55.2259942624902
55.2221198144499
55.2182452070975
55.2143704402367
55.2104955136674
55.20662042719
55.2027451806026
55.1988697737032
55.1949942062881
55.1911184781536
55.1872425890928
55.1833665388995
55.1794903273665
55.1756139542851
55.1717374194457
55.1678607226383
55.1639838636512
55.1601068422728
55.1562296582906
55.1523523114906
55.1484748016582
55.1445971285789
55.1407192920364
55.1368412918146
55.1329631276965
55.129084799463
55.1252063068973
55.1213276497797
55.1174488278905
55.1135698410092
55.1096906889154
55.1058113713881
55.1019318882053
55.0980522391443
55.0941724239828
55.0902924424972
55.0864122944644
55.0825319796591
55.0786514978576
55.0747708488342
55.0708900323646
55.0670090482224
55.0631278961805
55.0592465760134
55.0553650874942
55.0514834303942
55.0476016044879
55.0437196095459
55.0398374453401
55.0359551116423
55.032072608224
55.0281899348552
55.0243070913069
55.0204240773493
55.0165408927515
55.0126575372852
55.0087740107181
55.0048903128191
55.0010064433587
54.9971224021043
54.9932381888257
54.9893538032898
54.9854692452653
54.9815845145201
54.9776996108211
54.9738145339367
54.9699292836325
54.9660438596766
54.9621582618353
54.9582724898754
54.9543865435629
54.9505004226642
54.9466141269449
54.9427276561711
54.9388410101074
54.9349541885211
54.9310671911751
54.9271800178376
54.9232926682688
54.9194051422403
54.9155174395045
54.9116295598462
54.9077415029975
54.9038532687707
54.8999648568588
54.8960762671275
54.8921874991967
54.8882985530268
54.8844094281167
54.8805201245774
54.876630641723
54.8727409798832
54.868851138118
54.8649611170468
54.8610709154031
54.8571805341673
54.8532899716781
54.8493992293418
54.8455083050413
54.8416172006668
54.8377259135887
54.8338344462412
54.8299427954083
54.8260509641704
54.8221589485848
54.8182667525624
54.8143743712001
54.8104818095294
54.8065890613372
54.8026961331916
54.798803017072
54.7949097216859
54.7910162364793
54.7871225731541
54.7832287176581
54.7793346857323
54.7754404587247
54.7715460575851
54.7676514577993
54.7637566869016
54.7598617130388
54.7559665718834
54.7520712226402
54.7481757107674
54.744279984842
54.7403841018083
54.736487997964
54.7325917432253
54.7286952603876
54.7247986331189