# vtk DataFile Version 2.0
FlowField
ASCII
DATASET STRUCTURED_GRID
DIMENSIONS 400 1 200
POINTS 80000 float
0 0 0
0.08 0 0
0.16 0 0
0.24 0 0
0.32 0 0
0.4 0 0
0.48 0 0
0.56 0 0
0.64 0 0
0.72 0 0
0.8 0 0
0.88 0 0
0.96 0 0
1.04 0 0
1.12 0 0
1.2 0 0
1.28 0 0
1.36 0 0
1.44 0 0
1.52 0 0
1.6 0 0
1.68 0 0
1.76 0 0
1.84 0 0
1.92 0 0
2 0 0
2.08 0 0
2.16 0 0
2.24 0 0
2.32 0 0
2.4 0 0
2.48 0 0
2.56 0 0
2.64 0 0
2.72 0 0
2.8 0 0
2.88 0 0
2.96 0 0
3.04 0 0
3.12 0 0
3.2 0 0
3.28 0 0
3.36 0 0
3.44 0 0
3.52 0 0
3.6 0 0
3.68 0 0
3.76 0 0
3.84 0 0
3.92 0 0
4 0 0
4.08 0 0
4.16 0 0
4.24 0 0
4.32 0 0
4.4 0 0
4.48 0 0
4.56 0 0
4.64 0 0
4.72 0 0
4.8 0 0
4.88 0 0
4.96 0 0
5.04 0 0
5.12 0 0
5.2 0 0
5.28 0 0
5.36 0 0
5.44 0 0
5.52 0 0
5.6 0 0
5.68 0 0
5.76 0 0
5.84 0 0
5.92 0 0
6 0 0
6.08 0 0
6.16 0 0
6.24 0 0
6.32 0 0
6.4 0 0
6.48 0 0
6.56 0 0
6.64 0 0
6.72 0 0
6.8 0 0
6.88 0 0
6.96 0 0
7.04 0 0
7.12 0 0
7.2 0 0
7.28 0 0
7.36 0 0
7.44 0 0
7.52 0 0
7.6 0 0
7.68 0 0
7.76 0 0
7.84 0 0
7.92 0 0
8 0 0
8.08 0 0
8.16 0 0
8.24 0 0
8.32 0 0
8.4 0 0
8.48 0 0
8.56 0 0
8.64 0 0
8.72 0 0
8.8 0 0
8.88 0 0
8.96 0 0
9.04 0 0
9.12 0 0
9.2 0 0
9.28 0 0
9.36 0 0
9.44 0 0
9.52 0 0
9.6 0 0
9.68 0 0
9.76 0 0
9.84 0 0
9.92 0 0
10 0 0
10.08 0 0
10.16 0 0
10.24 0 0
10.32 0 0
10.4 0 0
10.48 0 0
10.56 0 0
10.64 0 0
10.72 0 0
10.8 0 0
10.88 0 0
10.96 0 0
11.04 0 0
11.12 0 0
11.2 0 0
11.28 0 0
11.36 0 0
11.44 0 0
11.52 0 0
11.6 0 0
11.68 0 0
11.76 0 0
11.84 0 0
11.92 0 0
12 0 0
12.08 0 0
12.16 0 0
12.24 0 0
12.32 0 0
12.4 0 0
12.48 0 0
12.56 0 0
12.64 0 0
12.72 0 0
12.8 0 0
12.88 0 0
12.96 0 0
13.04 0 0
13.12 0 0
13.2 0 0
13.28 0 0
13.36 0 0
13.44 0 0
13.52 0 0
13.6 0 0
13.68 0 0
13.76 0 0
13.84 0 0
13.92 0 0
14 0 0
14.08 0 0
14.16 0 0
14.24 0 0
14.32 0 0
14.4 0 0
14.48 0 0
14.56 0 0
14.64 0 0
14.72 0 0
14.8 0 0
14.88 0 0
14.96 0 0
15.04 0 0
15.12 0 0
15.2 0 0
15.28 0 0
15.36 0 0
15.44 0 0
15.52 0 0
15.6 0 0
15.68 0 0
15.76 0 0
15.84 0 0
15.92 0 0
16 0 0
16.08 0 0
16.16 0 0
16.24 0 0
16.32 0 0
16.4 0 0
16.48 0 0
16.56 0 0
16.64 0 0
16.72 0 0
16.8 0 0
16.88 0 0
16.96 0 0
17.04 0 0
17.12 0 0
17.2 0 0
17.28 0 0
17.36 0 0
17.44 0 0
17.52 0 0
17.6 0 0
17.68 0 0
17.76 0 0
17.84 0 0
17.92 0 0
18 0 0
18.08 0 0
18.16 0 0
18.24 0 0
18.32 0 0
18.4 0 0
18.48 0 0
18.56 0 0
18.64 0 0
18.72 0 0
18.8 0 0
18.88 0 0
18.96 0 0
19.04 0 0
19.12 0 0
19.2 0 0
19.28 0 0
19.36 0 0
19.44 0 0
19.52 0 0
19.6 0 0
19.68 0 0
19.76 0 0
19.84 0 0
19.92 0 0
20 0 0
20.08 0 0
20.16 0 0
20.24 0 0
20.32 0 0
20.4 0 0
20.48 0 0
20.56 0 0
20.64 0 0
20.72 0 0
20.8 0 0
20.88 0 0
20.96 0 0
21.04 0 0
21.12 0 0
21.2 0 0
21.28 0 0
21.36 0 0
21.44 0 0
21.52 0 0
21.6 0 0
21.68 0 0
21.76 0 0
21.84 0 0
21.92 0 0
22 0 0
22.08 0 0
22.16 0 0
22.24 0 0
22.32 0 0
22.4 0 0
22.48 0 0
22.56 0 0
22.64 0 0
22.72 0 0
22.8 0 0
22.88 0 0
22.96 0 0
23.04 0 0
23.12 0 0
23.2 0 0
23.28 0 0
23.36 0 0
23.44 0 0
23.52 0 0
23.6 0 0
23.68 0 0
23.76 0 0
23.84 0 0
23.92 0 0
24 0 0
24.08 0 0
24.16 0 0
24.24 0 0
24.32 0 0
24.4 0 0
24.48 0 0
24.56 0 0
24.64 0 0
24.72 0 0
24.8 0 0
24.88 0 0
24.96 0 0
25.04 0 0
25.12 0 0
25.2 0 0
25.28 0 0
25.36 0 0
25.44 0 0
25.52 0 0
25.6 0 0
25.68 0 0
25.76 0 0
25.84 0 0
25.92 0 0
26 0 0
26.08 0 0
26.16 0 0
26.24 0 0
26.32 0 0
26.4 0 0
26.48 0 0
26.56 0 0
26.64 0 0
26.72 0 0
26.8 0 0
26.88 0 0
26.96 0 0
27.04 0 0
27.12 0 0
27.2 0 0
27.28 0 0
27.36 0 0
27.44 0 0
27.52 0 0
27.6 0 0
27.68 0 0
27.76 0 0
27.84 0 0
27.92 0 0
28 0 0
28.08 0 0
28.16 0 0
28.24 0 0
28.32 0 0
28.4 0 0
28.48 0 0
28.56 0 0
28.64 0 0
28.72 0 0
28.8 0 0
28.88 0 0
28.96 0 0
29.04 0 0
29.12 0 0
29.2 0 0
29.28 0 0
29.36 0 0
29.44 0 0
29.52 0 0
29.6 0 0
29.68 0 0
29.76 0 0
29.84 0 0
29.92 0 0
30 0 0
30.08 0 0
30.16 0 0
30.24 0 0
30.32 0 0
30.4 0 0
30.48 0 0
30.56 0 0
30.64 0 0
30.72 0 0
30.8 0 0
30.88 0 0
30.96 0 0
31.04 0 0
31.12 0 0
31.2 0 0
31.28 0 0
31.36 0 0
31.44 0 0
31.52 0 0
31.6 0 0
31.68 0 0
31.76 0 0
31.84 0 0
31.92 0 0
0 0.005 0
0.08 0.005 0
0.16 0.005 0
0.24 0.005 0
0.32 0.005 0
0.4 0.005 0
0.48 0.005 0
0.56 0.005 0
0.64 0.005 0
0.72 0.005 0
0.8 0.005 0
0.88 0.005 0
0.96 0.005 0
1.04 0.005 0
1.12 0.005 0
1.2 0.005 0
1.28 0.005 0
1.36 0.005 0
1.44 0.005 0
1.52 0.005 0
1.6 0.005 0
1.68 0.005 0
1.76 0.005 0
1.84 0.005 0
1.92 0.005 0
2 0.005 0
2.08 0.005 0
2.16 0.005 0
2.24 0.005 0
2.32 0.005 0
2.4 0.005 0
2.48 0.005 0
2.56 0.005 0
2.64 0.005 0
2.72 0.005 0
2.8 0.005 0
2.88 0.005 0
2.96 0.005 0
3.04 0.005 0
3.12 0.005 0
3.2 0.005 0
3.28 0.005 0
3.36 0.005 0
3.44 0.005 0
3.52 0.005 0
3.6 0.005 0
3.68 0.005 0
3.76 0.005 0
3.84 0.005 0
3.92 0.005 0
4 0.005 0
4.08 0.005 0
4.16 0.005 0
4.24 0.005 0
4.32 0.005 0
4.4 0.005 0
4.48 0.005 0
4.56 0.005 0
4.64 0.005 0
4.72 0.005 0
4.8 0.005 0
4.88 0.005 0
4.96 0.005 0
5.04 0.005 0
5.12 0.005 0
5.2 0.005 0
5.28 0.005 0
5.36 0.005 0
5.44 0.005 0
5.52 0.005 0
5.6 0.005 0
5.68 0.005 0
5.76 0.005 0
5.84 0.005 0
5.92 0.005 0
6 0.005 0
6.08 0.005 0
6.16 0.005 0
6.24 0.005 0
6.32 0.005 0
6.4 0.005 0
6.48 0.005 0
6.56 0.005 0
6.64 0.005 0
6.72 0.005 0
6.8 0.005 0
6.88 0.005 0
6.96 0.005 0
7.04 0.005 0
7.12 0.005 0
7.2 0.005 0
7.28 0.005 0
7.36 0.005 0
7.44 0.005 0
7.52 0.005 0
7.6 0.005 0
7.68 0.005 0
7.76 0.005 0
7.84 0.005 0
7.92 0.005 0
8 0.005 0
8.08 0.005 0
8.16 0.005 0
8.24 0.005 0
8.32 0.005 0
8.4 0.005 0
8.48 0.005 0
8.56 0.005 0
8.64 0.005 0
8.72 0.005 0
8.8 0.005 0
8.88 0.005 0
8.96 0.005 0
9.04 0.005 0
9.12 0.005 0
9.2 0.005 0
9.28 0.005 0
9.36 0.005 0
9.44 0.005 0
9.52 0.005 0
9.6 0.005 0
9.68 0.005 0
9.76 0.005 0
9.84 0.005 0
9.92 0.005 0
10 0.005 0
10.08 0.005 0
10.16 0.005 0
10.24 0.005 0
10.32 0.005 0
10.4 0.005 0
10.48 0.005 0
10.56 0.005 0
10.64 0.005 0
10.72 0.005 0
10.8 0.005 0
10.88 0.005 0
10.96 0.005 0
11.04 0.005 0
11.12 0.005 0
11.2 0.005 0
11.28 0.005 0
11.36 0.005 0
11.44 0.005 0
11.52 0.005 0
11.6 0.005 0
11.68 0.005 0
11.76 0.005 0
11.84 0.005 0
11.92 0.005 0
12 0.005 0
12.08 0.005 0
12.16 0.005 0
12.24 0.005 0
12.32 0.005 0
12.4 0.005 0
12.48 0.005 0
12.56 0.005 0
12.64 0.005 0
12.72 0.005 0
12.8 0.005 0
12.88 0.005 0
12.96 0.005 0
13.04 0.005 0
13.12 0.005 0
13.2 0.005 0
13.28 0.005 0
13.36 0.005 0
13.44 0.005 0
13.52 0.005 0
13.6 0.005 0
13.68 0.005 0
13.76 0.005 0
13.84 0.005 0
13.92 0.005 0
14 0.005 0
14.08 0.005 0
14.16 0.005 0
14.24 0.005 0
14.32 0.005 0
14.4 0.005 0
14.48 0.005 0
14.56 0.005 0
14.64 0.005 0
14.72 0.005 0
14.8 0.005 0
14.88 0.005 0
14.96 0.005 0
15.04 0.005 0
15.12 0.005 0
15.2 0.005 0
15.28 0.005 0
15.36 0.005 0
15.44 0.005 0
15.52 0.005 0
15.6 0.005 0
15.68 0.005 0
15.76 0.005 0
15.84 0.005 0
15.92 0.005 0
16 0.005 0
16.08 0.005 0
16.16 0.005 0
16.24 0.005 0
16.32 0.005 0
16.4 0.005 0
16.48 0.005 0
16.56 0.005 0
16.64 0.005 0
16.72 0.005 0
16.8 0.005 0
16.88 0.005 0
16.96 0.005 0
17.04 0.005 0
17.12 0.005 0
17.2 0.005 0
17.28 0.005 0
17.36 0.005 0
17.44 0.005 0
17.52 0.005 0
17.6 0.005 0
17.68 0.005 0
17.76 0.005 0
17.84 0.005 0
17.92 0.005 0
18 0.005 0
18.08 0.005 0
18.16 0.005 0
18.24 0.005 0
18.32 0.005 0
18.4 0.005 0
18.48 0.005 0
18.56 0.005 0
18.64 0.005 0
18.72 0.005 0
18.8 0.005 0
18.88 0.005 0
18.96 0.005 0
19.04 0.005 0
19.12 0.005 0
19.2 0.005 0
19.28 0.005 0
19.36 0.005 0
19.44 0.005 0
19.52 0.005 0
19.6 0.005 0
19.68 0.005 0
19.76 0.005 0
19.84 0.005 0
19.92 0.005 0
20 0.005 0
20.08 0.005 0
20.16 0.005 0
20.24 0.005 0
20.32 0.005 0
20.4 0.005 0
20.48 0.005 0
20.56 0.005 0
20.64 0.005 0
20.72 0.005 0
20.8 0.005 0
20.88 0.005 0
20.96 0.005 0
21.04 0.005 0
21.12 0.005 0
21.2 0.005 0
21.28 0.005 0
21.36 0.005 0
21.44 0.005 0
21.52 0.005 0
21.6 0.005 0
21.68 0.005 0
21.76 0.005 0
21.84 0.005 0
21.92 0.005 0
22 0.005 0
22.08 0.005 0
22.16 0.005 0
22.24 0.005 0
22.32 0.005 0
22.4 0.005 0
22.48 0.005 0
22.56 0.005 0
22.64 0.005 0
22.72 0.005 0
22.8 0.005 0
22.88 0.005 0
22.96 0.005 0
23.04 0.005 0
23.12 0.005 0
23.2 0.005 0
23.28 0.005 0
23.36 0.005 0
23.44 0.005 0
23.52 0.005 0
23.6 0.005 0
23.68 0.005 0
23.76 0.005 0
23.84 0.005 0
23.92 0.005 0
24 0.005 0
24.08 0.005 0
24.16 0.005 0
24.24 0.005 0
24.32 0.005 0
24.4 0.005 0
24.48 0.005 0
24.56 0.005 0
24.64 0.005 0
24.72 0.005 0
24.8 0.005 0
24.88 0.005 0
24.96 0.005 0
25.04 0.005 0
25.12 0.005 0
25.2 0.005 0
25.28 0.005 0
25.36 0.005 0
25.44 0.005 0
25.52 0.005 0
25.6 0.005 0
25.68 0.005 0
25.76 0.005 0
25.84 0.005 0
25.92 0.005 0
26 0.005 0
26.08 0.005 0
26.16 0.005 0
26.24 0.005 0
26.32 0.005 0
26.4 0.005 0
26.48 0.005 0
26.56 0.005 0
26.64 0.005 0
26.72 0.005 0
26.8 0.005 0
26.88 0.005 0
26.96 0.005 0
27.04 0.005 0
27.12 0.005 0
27.2 0.005 0
27.28 0.005 0
27.36 0.005 0
27.44 0.005 0
27.52 0.005 0
27.6 0.005 0
27.68 0.005 0
27.76 0.005 0
27.84 0.005 0
27.92 0.005 0
28 0.005 0
28.08 0.005 0
28.16 0.005 0
28.24 0.005 0
28.32 0.005 0
28.4 0.005 0
28.48 0.005 0
28.56 0.005 0
28.64 0.005 0
28.72 0.005 0
28.8 0.005 0
28.88 0.005 0
28.96 0.005 0
29.04 0.005 0
29.12 0.005 0
29.2 0.005 0
29.28 0.005 0
29.36 0.005 0
29.44 0.005 0
29.52 0.005 0
29.6 0.005 0
29.68 0.005 0
29.76 0.005 0
29.84 0.005 0
29.92 0.005 0
30 0.005 0
30.08 0.005 0
30.16 0.005 0
30.24 0.005 0
30.32 0.005 0
30.4 0.005 0
30.48 0.005 0
30.56 0.005 0
30.64 0.005 0
30.72 0.005 0
30.8 0.005 0
30.88 0.005 0
30.96 0.005 0
31.04 0.005 0
31.12 0.005 0
31.2 0.005 0
31.28 0.005 0
31.36 0.005 0
31.44 0.005 0
31.52 0.005 0
31.6 0.005 0
31.68 0.005 0
31.76 0.005 0
31.84 0.005 0
31.92 0.005 0
0 0.01 0
0.08 0.01 0
0.16 0.01 0
0.24 0.01 0
0.32 0.01 0
0.4 0.01 0
0.48 0.01 0
0.56 0.01 0
0.64 0.01 0
0.72 0.01 0
0.8 0.01 0
0.88 0.01 0
0.96 0.01 0
1.04 0.01 0
1.12 0.01 0
1.2 0.01 0
1.28 0.01 0
1.36 0.01 0
1.44 0.01 0
1.52 0.01 0
1.6 0.01 0
1.68 0.01 0
1.76 0.01 0
1.84 0.01 0
1.92 0.01 0
2 0.01 0
2.08 0.01 0
2.16 0.01 0
2.24 0.01 0
2.32 0.01 0
2.4 0.01 0
2.48 0.01 0
2.56 0.01 0
2.64 0.01 0
2.72 0.01 0
2.8 0.01 0
2.88 0.01 0
2.96 0.01 0
3.04 0.01 0
3.12 0.01 0
3.2 0.01 0
3.28 0.01 0
3.36 0.01 0
3.44 0.01 0
3.52 0.01 0
3.6 0.01 0
3.68 0.01 0
3.76 0.01 0
3.84 0.01 0
3.92 0.01 0
4 0.01 0
4.08 0.01 0
4.16 0.01 0
4.24 0.01 0
4.32 0.01 0
4.4 0.01 0
4.48 0.01 0
4.56 0.01 0
4.64 0.01 0
4.72 0.01 0
4.8 0.01 0
4.88 0.01 0
4.96 0.01 0
5.04 0.01 0
5.12 0.01 0
[...]
POINT_DATA 80000

SCALARS u float 1
LOOKUP_TABLE default
0
-0.131662687182094
-0.0682692372368919
-0.0522960114294878
-0.0444198881945244
-0.0395767831648926
-0.0362596930644974
-0.0338326550472675
-0.0319726776473391
-0.030496000655539
-0.029289932572481
-0.0282816330309813
-0.0274221394561709
-0.0266774999982068
-0.0260235450481039
-0.0254426624333167
-0.0249217396654913
-0.0244508158091956
-0.0240221792643755
-0.0236297528778213
-0.0232686678570113
-0.0229349638805981
-0.0226253749962159
-0.0223371746868336
-0.0220680620211359
-0.0218160763967571
-0.0215795325434476
-0.0213569705651666
-0.0211471175555972
-0.0209488577838213
-0.0207612085727255
-0.0205832998468411
-0.020414356860007
-0.0202536866071847
-0.0201006678958841
-0.0199547435995022
-0.0198154130043112
-0.01968222343123
-0.0195547624424946
-0.019432652738279
-0.0193155502566022
-0.0192031434146636
-0.0190951505059065
-0.0189913142087409
-0.0188913953633152
-0.018795169581528
-0.018702428300637
-0.0186129821261946
-0.0185266621389624
-0.0184433164248477
-0.0183628032826869
-0.018284985798871
-0.0182097318313336
-0.018136919237851
-0.018066441812748
-0.017998210558353
-0.0179321485337351
-0.0178681829023165
-0.0178062407059183
-0.0177462528411054
-0.0176881649395828
-0.0176319484557629
-0.0175776042181735
-0.0175251549762065
-0.0174746303132593
-0.0174260521266389
-0.0173794284266359
-0.0173347577200847
-0.0172920392698483
-0.0172512805778033
-0.0172124950831547
-0.0171756893187009
-0.0171408457752586
-0.0171079111998498
-0.0170767978537026
-0.0170473986009486
-0.0170196093506571
-0.0169933484056989
-0.0169685637777626
-0.0169452255891853
-0.0169233080303612
-0.016902770226323
-0.016883545505477
-0.0168655441690994
-0.016848668313692
-0.0168328317563208
-0.0168179760778964
-0.0168040758461579
-0.0167911309565464
-0.0167791494042927
-0.01676812741392
-0.0167580344466845
-0.0167488082963527
-0.0167403614951207
-0.016732596265557
-0.016725422689916
-0.0167187743004056
-0.0167126167475582
-0.0167069477850537
-0.016701789503761
-0.0166971757144372
-0.0166931381795777
-0.0166896950439612
-0.016686843657814
-0.0166845585234033
-0.0166827937840854
-0.016681488815662
-0.0166805751723184
-0.0166799833110718
-0.0166796479915414
-0.0166795118222854
-0.0166795269356918
-0.0166796551232003
-0.0166798669278888
-0.0166801401984446
-0.0166804585129955
-0.01668080974216
-0.0166811848845283
-0.016681577202302
-0.0166819816196857
-0.0166823943184745
-0.016682812463718
-0.0166832340055114
-0.016683657521665
-0.0166840820820162
-0.016684507127605
-0.016684932364583
-0.0166853576746513
-0.0166857830442242
-0.0166862085122041
-0.0166866341349035
-0.0166870599652908
-0.0166874860429419
-0.0166879123913336
-0.0166883390195014
-0.0166887659256119
-0.0166891931011288
-0.0166896205343247
-0.0166900482130481
-0.0166904761264356
-0.0166909042657939
-0.0166913326248761
-0.0166917611996845
-0.0166921899881009
-0.0166926189894101
-0.0166930482038474
-0.0166934776321845
-0.0166939072754567
-0.0166943371347746
-0.0166947672111482
-0.0166951975054517
-0.0166956280183533
-0.0166960587503798
-0.0166964897018743
-0.016696920873039
-0.0166973522639865
-0.0166977838747243
-0.0166982157051746
-0.0166986477552542
-0.0166990800248097
-0.016699512513666
-0.0166999452216427
-0.0167003781485538
-0.0167008112941845
-0.016701244658334
-0.0167016782408017
-0.0167021120413951
-0.0167025460599057
-0.0167029802961625
-0.0167034147499845
-0.016703849421213
-0.0167042843096871
-0.0167047194152479
-0.0167051547377696
-0.0167055902771491
-0.0167060260332463
-0.0167064620059746
-0.0167068981952377
-0.0167073346009531
-0.0167077712230359
-0.0167082080614413
-0.0167086451161068
-0.0167090823869828
-0.0167095198740187
-0.0167099575771944
-0.0167103954964806
-0.0167108336318436
-0.0167112719832809
-0.0167117105507663
-0.0167121493343071
-0.0167125883338791
-0.0167130275495023
-0.0167134669811763
-0.0167139066289074
-0.0167143464926982
-0.0167147865725887
-0.0167152268685775
-0.0167156673806905
-0.0167161081089606
-0.0167165490534016
-0.0167169902140564
-0.0167174315909465
-0.0167178731841207
-0.0167183149936066
-0.0167187570194359
-0.016719199261678
-0.0167196417203576
-0.0167200843955246
-0.0167205272872249
-0.0167209703955264
-0.0167214137204618
-0.0167218572620987
-0.016722301020489
-0.0167227449957013
-0.0167231891877822
-0.0167236335968119
-0.0167240782228426
-0.0167245230659404
-0.0167249681261791
-0.0167254134036212
-0.0167258588983482
-0.0167263046104215
-0.0167267505399216
-0.0167271966869257
-0.0167276430515155
-0.0167280896337551
-0.0167285364337457
-0.0167289834515518
-0.0167294306872572
-0.0167298781409546
-0.0167303258127285
-0.0167307737026588
-0.0167312218108409
-0.0167316701373598
-0.0167321186823045
-0.0167325674457732
-0.0167330164278582
-0.0167334656286626
-0.0167339150482515
-0.0167343646867609
-0.0167348145442756
-0.0167352646208872
-0.0167357149166902
-0.0167361654318046
-0.01673661616633
-0.0167370671203603
-0.016737518294008
-0.0167379696873789
-0.0167384213005733
-0.0167388731337105
-0.0167393251869065
-0.0167397774602568
-0.0167402299538722
-0.0167406826678805
-0.0167411356023929
-0.016741588757507
-0.0167420421333588
-0.0167424957300597
-0.0167429495477234
-0.0167434035864714
-0.01674385784643
-0.0167443123277122
-0.0167447670304444
-0.016745221954746
-0.0167456771007502
-0.0167461324685666
-0.0167465880583323
-0.0167470438701711
-0.016747499904216
-0.016747956160583
-0.0167484126394068
-0.0167488693408223
-0.0167493262649515
-0.0167497834119376
-0.016750240781907
-0.0167506983749973
-0.0167511561913412
-0.0167516142310733
-0.016752072494335
-0.0167525309812567
-0.0167529896919995
-0.016753448626681
-0.0167539077854454
-0.0167543671684585
-0.0167548267758347
-0.0167552866077302
-0.0167557466643019
-0.0167562069456865
-0.0167566674520457
-0.0167571281835067
-0.0167575891402446
-0.0167580503223933
-0.0167585117301127
-0.0167589733635637
-0.0167594352228967
-0.0167598973082713
-0.0167603596198361
-0.0167608221577656
-0.0167612849222059
-0.0167617479133436
-0.0167622111312965
-0.0167626745763042
-0.0167631382484253
-0.0167636021479825
-0.0167640662749272
-0.0167645306297177
-0.0167649952121391
-0.0167654600229229
-0.0167659250614745
-0.0167663903289791
-0.0167668558243255
-0.0167673215493509
-0.0167677875021361
-0.0167682536854935
-0.0167687200963794
-0.0167691867389046
-0.0167696536085525
-0.0167701207111209
-0.0167705880401844
-0.0167710556036954
-0.0167715233928369
-0.0167719914182505
-0.0167724596680975
-0.0167729281564267
-0.0167733968675793
-0.0167738658199315
-0.0167743349929127
-0.0167748044105133
-0.0167752740457527
-0.0167757439300079
-0.0167762140277819
-0.0167766843802819
-0.0167771549406686
-0.0167776257632984
-0.0167780967861225
-0.0167785680811064
-0.0167790395658308
-0.0167795113358055
-0.016779983281492
-0.0167804555296238
-0.0167809279347855
-0.0167814006648937
-0.01678187352731
-0.0167823467441029
-0.0167828200606364
-0.016783293769845
-0.0167837675361962
-0.0167842417449117
-0.0167847159552605
-0.0167851906723512
-0.0167856653188323
-0.0167861405554302
-0.0167866156276036
-0.0167870913977251
-0.0167875668817635
-0.016788043203185
-0.0167885190808946
-0.0167889959761562
-0.0167894722238006
-0.0167899497214013
-0.0167904263081809
-0.0167909044441746
-0.016791381330502
-0.0167918601500797
-0.0167923372856036
-0.0167928168450151
-0.0167932941663945
-0.0167937745348472
-0.0167942519637303
-0.0167947332248113
-0.0167952106662915
-0.0167956929185338
-0.0167961702612395
-0.0167966536160229
-0.0167971307361107
-0.0167976153105988
-0.0167980920836346
-0.0167985779835357
-0.0167990543131078
-0.0167995415957001
-0.0168000174757044
-0.0168005060748987
-0.0168009817219555
-0.0168014712984639
-0.0168019474317567
-0.0168024370725681
-0.0168029155153735
-0.0168034031079437
-0.01680388811922
-0.0168043689447145
-0.0168048702824695
-0.0168053333396543
-0.0168058735803812
-0.016806289128281
-0.0168069212842505
-0.0168071776444948
-0.0168080193540406
-0.0168072071040887
-0.0168072071040887
-0.0168072071040887
1
0.131662687182094
0.0682692372368919
0.0522960114294878
0.0444198881945244
0.0395767831648926
0.0362596930644974
0.0338326550472675
0.0319726776473391
0.030496000655539
0.029289932572481
0.0282816330309813
0.0274221394561709
0.0266774999982068
0.0260235450481039
0.0254426624333167
0.0249217396654913
0.0244508158091956
0.0240221792643755
0.0236297528778213
0.0232686678570113
0.0229349638805981
0.0226253749962159
0.0223371746868336
0.0220680620211359
0.0218160763967571
0.0215795325434476
0.0213569705651666
0.0211471175555972
0.0209488577838213
0.0207612085727255
0.0205832998468411
0.020414356860007
0.0202536866071847
0.0201006678958841
0.0199547435995022
0.0198154130043112
0.01968222343123
0.0195547624424946
0.019432652738279
0.0193155502566022
0.0192031434146636
0.0190951505059065
0.0189913142087409
0.0188913953633152
0.018795169581528
0.018702428300637
0.0186129821261946
0.0185266621389624
0.0184433164248477
0.0183628032826869
0.018284985798871
0.0182097318313336
0.018136919237851
0.018066441812748
0.017998210558353
0.0179321485337351
0.0178681829023165
0.0178062407059183
0.0177462528411054
0.0176881649395828
0.0176319484557629
0.0175776042181735
0.0175251549762065
0.0174746303132593
0.0174260521266389
0.0173794284266359
0.0173347577200847
0.0172920392698483
0.0172512805778033
0.0172124950831547
0.0171756893187009
0.0171408457752586
0.0171079111998498
0.0170767978537026
0.0170473986009486
0.0170196093506571
0.0169933484056989
0.0169685637777626
0.0169452255891853
0.0169233080303612
0.016902770226323
0.016883545505477
0.0168655441690994
0.016848668313692
0.0168328317563208
0.0168179760778964
0.0168040758461579
0.0167911309565464
0.0167791494042927
0.01676812741392
0.0167580344466845
0.0167488082963527
0.0167403614951207
0.016732596265557
0.016725422689916
0.0167187743004056
0.0167126167475582
0.0167069477850537
0.016701789503761
0.0166971757144372
0.0166931381795777
0.0166896950439612
0.016686843657814
0.0166845585234033
0.0166827937840854
0.016681488815662
0.0166805751723184
0.0166799833110718
0.0166796479915414
0.0166795118222854
0.0166795269356918
0.0166796551232003
0.0166798669278888
0.0166801401984446
0.0166804585129955
0.01668080974216
0.0166811848845283
0.016681577202302
0.0166819816196857
0.0166823943184745
0.016682812463718
0.0166832340055114
0.016683657521665
0.0166840820820162
0.016684507127605
0.016684932364583
0.0166853576746513
0.0166857830442242
0.0166862085122041
0.0166866341349035
0.0166870599652908
0.0166874860429419
0.0166879123913336
0.0166883390195014
0.0166887659256119
0.0166891931011288
0.0166896205343247
0.0166900482130481
0.0166904761264356
0.0166909042657939
0.0166913326248761
0.0166917611996845
0.0166921899881009
0.0166926189894101
0.0166930482038474
0.0166934776321845
0.0166939072754567
0.0166943371347746
0.0166947672111482
0.0166951975054517
0.0166956280183533
0.0166960587503798
0.0166964897018743
0.016696920873039
0.0166973522639865
0.0166977838747243
0.0166982157051746
0.0166986477552542
0.0166990800248097
0.016699512513666
0.0166999452216427
0.0167003781485538
0.0167008112941845
0.016701244658334
0.0167016782408017
0.0167021120413951
0.0167025460599057
0.0167029802961625
0.0167034147499845
0.016703849421213
0.0167042843096871
0.0167047194152479
0.0167051547377696
0.0167055902771491
0.0167060260332463
0.0167064620059746
0.0167068981952377
0.0167073346009531
0.0167077712230359
0.0167082080614413
0.0167086451161068
0.0167090823869828
0.0167095198740187
0.0167099575771944
0.0167103954964806
0.0167108336318436
0.0167112719832809
0.0167117105507663
0.0167121493343071
0.0167125883338791
0.0167130275495023
0.0167134669811763
0.0167139066289074
0.0167143464926982
0.0167147865725887
0.0167152268685775
0.0167156673806905
0.0167161081089606
0.0167165490534016
0.0167169902140564
0.0167174315909465
0.0167178731841207
0.0167183149936066
0.0167187570194359
0.016719199261678
0.0167196417203576
0.0167200843955246
0.0167205272872249
0.0167209703955264
0.0167214137204618
0.0167218572620987
0.016722301020489
0.0167227449957013
0.0167231891877822
0.0167236335968119
0.0167240782228426
0.0167245230659404
0.0167249681261791
0.0167254134036212
0.0167258588983482
0.0167263046104215
0.0167267505399216
0.0167271966869257
0.0167276430515155
0.0167280896337551
0.0167285364337457
0.0167289834515518
0.0167294306872572
0.0167298781409546
0.0167303258127285
0.0167307737026588
0.0167312218108409
0.0167316701373598
0.0167321186823045
0.0167325674457732
0.0167330164278582
0.0167334656286626
0.0167339150482515
0.0167343646867609
0.0167348145442756
0.0167352646208872
0.0167357149166902
0.0167361654318046
0.01673661616633
0.0167370671203603
0.016737518294008
0.0167379696873789
0.0167384213005733
0.0167388731337105
0.0167393251869065
0.0167397774602568
0.0167402299538722
0.0167406826678805
0.0167411356023929
0.016741588757507
0.0167420421333588
0.0167424957300597
0.0167429495477234
0.0167434035864714
0.01674385784643
0.0167443123277122
0.0167447670304444
0.016745221954746
0.0167456771007502
0.0167461324685666
0.0167465880583323
0.0167470438701711
0.016747499904216
0.016747956160583
0.0167484126394068
0.0167488693408223
0.0167493262649515
0.0167497834119376
0.016750240781907
0.0167506983749973
0.0167511561913412
0.0167516142310733
0.016752072494335
0.0167525309812567
0.0167529896919995
0.016753448626681
0.0167539077854454
0.0167543671684585
0.0167548267758347
0.0167552866077302
0.0167557466643019
0.0167562069456865
0.0167566674520457
0.0167571281835067
0.0167575891402446
0.0167580503223933
0.0167585117301127
0.0167589733635637
0.0167594352228967
0.0167598973082713
0.0167603596198361
0.0167608221577656
0.0167612849222059
0.0167617479133436
0.0167622111312965
0.0167626745763042
0.0167631382484253
0.0167636021479825
0.0167640662749272
0.0167645306297177
0.0167649952121391
0.0167654600229229
0.0167659250614745
0.0167663903289791
0.0167668558243255
0.0167673215493509
0.0167677875021361
0.0167682536854935
0.0167687200963794
0.0167691867389046
0.0167696536085525
0.0167701207111209
0.0167705880401844
0.0167710556036954
0.0167715233928369
0.0167719914182505
0.0167724596680975
0.0167729281564267
0.0167733968675793
0.0167738658199315
0.0167743349929127
0.0167748044105133
0.0167752740457527
0.0167757439300079
0.0167762140277819
0.0167766843802819
0.0167771549406686
0.0167776257632984
0.0167780967861225
0.0167785680811064
0.0167790395658308
0.0167795113358055
0.016779983281492
0.0167804555296238
0.0167809279347855
0.0167814006648937
0.01678187352731
0.0167823467441029
0.0167828200606364
0.016783293769845
0.0167837675361962
0.0167842417449117
0.0167847159552605
0.0167851906723512
0.0167856653188323
0.0167861405554302
0.0167866156276036
0.0167870913977251
0.0167875668817635
0.016788043203185
0.0167885190808946
0.0167889959761562
0.0167894722238006
0.0167899497214013
0.0167904263081809
0.0167909044441746
0.016791381330502
0.0167918601500797
0.0167923372856036
0.0167928168450151
0.0167932941663945
0.0167937745348472
0.0167942519637303
0.0167947332248113
0.0167952106662915
0.0167956929185338
0.0167961702612395
0.0167966536160229
0.0167971307361107
0.0167976153105988
0.0167980920836346
0.0167985779835357
0.0167990543131078
0.0167995415957001
0.0168000174757044
0.0168005060748987
0.0168009817219555
0.0168014712984639
0.0168019474317567
0.0168024370725681
0.0168029155153735
0.0168034031079437
0.01680388811922
0.0168043689447145
0.0168048702824695
0.0168053333396543
0.0168058735803812
0.016806289128281
0.0168069212842505
0.0168071776444948
0.0168080193540406
0.0168072071040887
0.0168072071040887
0.0168072071040887
1
0.344883954106807
0.20066775389372
0.154967286522969
0.131894646546322
0.117598705841204
0.107768066791373
0.100558189941144
0.0950252028283027
0.090629324705425
0.0870381961416438
0.0840362636269595
0.0814782127413456
0.0792630277789222
0.077318648385421
0.0755924782252994
0.0740453111331899
0.0726473406372145
0.0713754820510462
0.0702115425957827
0.0691409503449788
0.0681518577911713
0.067234500716403
0.0663807334422531
0.0655836867731697
0.0648375116719336
0.0641371840139594
0.0634783546971766
0.0628572343438631
0.0622705033877195
0.0617152392208202
0.0611888548615863
0.0606890477746245
0.0602137597621697
0.0597611471232839
0.0593295566278963
0.0589175019020781
0.0585236386753324
0.0581467427390366
0.0577856957656404
0.0574394793687243
0.0571071713128616
0.056787936359552
0.0564810101143846
0.0561856823859093
0.0559012891102547
0.0556272157462543
0.0553629052781479
0.055107859511122
0.0548616278282268
0.0546237887931729
0.0543939372900964
0.0541716865740798
0.0539566828854232
0.0537486197201263
0.0535472384858941
0.0533523130599296
0.0531636295425441
0.0529809783025995
0.0528041680354504
0.0526330557387161
0.0524675735711003
0.0523077331334808
0.0521536007507884
0.0520052553428799
0.0518627513828131
0.0517261058541054
0.051595312263441
0.0514703669378818
0.0513512845973781
0.0512380869181314
0.0511307653841834
0.0510292373065016
0.0509333206651795
0.0508427451425406
0.0507571980009174
0.0506763848808733
0.0506000774210489
0.0505281260968471
0.050460434095811
0.050396907097276
0.0503374048770389
0.0502817186893986
0.0502295851065022
0.0501807294413014
0.0501349184948417
0.0500919989056421
0.0500519045491251
0.0500146301900426
0.0499801825066158
0.0499485279559029
0.0499195569995922
0.0498930768833066
0.049868834114209
0.0498465575320949
0.049826006943993
0.0498070120904769
0.0497894913965064
0.0497734471969351
0.0497589411938778
0.0497460586895093
0.0497348716856682
0.0497254094829821
0.0497176420042067
0.0497114770728355
0.0497067694874598
0.0497033376661473
0.049700983068161
0.0496995082671673
0.049698730940165
0.0496984926099267
0.0496986623142002
0.0496991362445608
0.0496998347637064
0.0497006981654562
0.0497016822448319
0.0497027543544026
0.0497038902573764
0.0497050718147647
0.0497062853825523
0.0497075207314831
0.0497087703067473
0.0497100286853751
0.0497112921402003
0.0497125582630818
0.0497138256312568
0.0497150935171192
0.0497163616465181
0.0497176300099089
0.0497188987252631
0.0497201679476625
0.0497214378170914
0.049722708434458
0.0497239798564848
0.0497252521014695
0.0497265251596832
0.0497277990046398
0.0497290736026059
0.0497303489197016
0.0497316249262656
0.0497329015989644
0.0497341789212749
0.0497354568828507
0.049736735478385
0.0497380147062815
0.0497392945674113
0.0497405750640424
0.0497418561990686
0.0497431379754864
0.0497444203960154
0.049745703462943
0.0497469871780369
0.0497482715426001
0.0497495565574724
0.0497508422231225
0.0497521285397203
0.0497534155071978
0.0497547031252788
0.049755991393604
0.0497572803116739
0.0497585698789423
0.0497598600948197
0.0497611509587032
0.0497624424699501
0.0497637346279396
0.0497650274320489
0.0497663208816828
0.0497676149762401
0.0497689097151737
0.049770205097944
0.049771501124063
0.0497727977930519
0.049774095104463
0.0497753930578958
0.0497766916530075
0.0497779908894298
0.0497792907668707
0.0497805912850525
0.0497818924437295
0.0497831942426659
0.0497844966816941
0.0497857997606303
0.0497871034793332
0.0497884078376669
0.0497897128355416
0.0497910184728663
0.0497923247495621
0.0497936316655885
0.0497949392208948
0.0497962474154679
0.0497975562492805
0.0497988657223467
0.0498001758346743
0.049801486586284
0.049802797977202
0.0498041100074903
0.0498054226771928
0.049806735986366
0.0498080499350909
0.0498093645234378
0.0498106797515005
0.0498119956193692
0.0498133121271578
0.049814629274967
0.0498159470629085
0.0498172654911293
0.0498185845597438
0.0498199042688936
0.0498212246187198
0.0498225456093888
0.0498238672410349
0.0498251895138395
0.0498265124279637
0.0498278359835911
0.0498291601808863
0.0498304850200554
0.0498318105012709
0.0498331366247354
0.0498344633906494
0.0498357907992187
0.049837118850656
0.0498384475451687
0.0498397768829833
0.0498411068643251
0.0498424374894267
0.0498437687585096
0.0498451006718248
0.049846433229605
0.0498477664320869
0.0498491002795387
0.0498504347722066
0.0498517699103416
0.0498531056942166
0.0498544421240831
0.0498557792002172
0.0498571169228932
0.04985845529239
0.0498597943089939
0.0498611339729609