# vtk DataFile Version 2.0
FlowField
ASCII
DATASET STRUCTURED_GRID
DIMENSIONS 400 1 200
POINTS 80000 float
0 0 0
0.08 0 0
0.16 0 0
0.24 0 0
0.32 0 0
0.4 0 0
0.48 0 0
0.56 0 0
0.64 0 0
0.72 0 0
0.8 0 0
0.88 0 0
0.96 0 0
1.04 0 0
1.12 0 0
1.2 0 0
1.28 0 0
1.36 0 0
1.44 0 0
1.52 0 0
1.6 0 0
1.68 0 0
1.76 0 0
1.84 0 0
1.92 0 0
2 0 0
2.08 0 0
2.16 0 0
2.24 0 0
2.32 0 0
2.4 0 0
2.48 0 0
2.56 0 0
2.64 0 0
2.72 0 0
2.8 0 0
2.88 0 0
2.96 0 0
3.04 0 0
3.12 0 0
3.2 0 0
3.28 0 0
3.36 0 0
3.44 0 0
3.52 0 0
3.6 0 0
3.68 0 0
3.76 0 0
3.84 0 0
3.92 0 0
4 0 0
4.08 0 0
4.16 0 0
4.24 0 0
4.32 0 0
4.4 0 0
4.48 0 0
4.56 0 0
4.64 0 0
4.72 0 0
4.8 0 0
4.88 0 0
4.96 0 0
5.04 0 0
5.12 0 0
5.2 0 0
5.28 0 0
5.36 0 0
5.44 0 0
5.52 0 0
5.6 0 0
5.68 0 0
5.76 0 0
5.84 0 0
5.92 0 0
6 0 0
6.08 0 0
6.16 0 0
6.24 0 0
6.32 0 0
6.4 0 0
6.48 0 0
6.56 0 0
6.64 0 0
6.72 0 0
6.8 0 0
6.88 0 0
6.96 0 0
7.04 0 0
7.12 0 0
7.2 0 0
7.28 0 0
7.36 0 0
7.44 0 0
7.52 0 0
7.6 0 0
7.68 0 0
7.76 0 0
7.84 0 0
7.92 0 0
8 0 0
8.08 0 0
8.16 0 0
8.24 0 0
8.32 0 0
8.4 0 0
8.48 0 0
8.56 0 0
8.64 0 0
8.72 0 0
8.8 0 0
8.88 0 0
8.96 0 0
9.04 0 0
9.12 0 0
9.2 0 0
9.28 0 0
9.36 0 0
9.44 0 0
9.52 0 0
9.6 0 0
9.68 0 0
9.76 0 0
9.84 0 0
9.92 0 0
10 0 0
10.08 0 0
10.16 0 0
10.24 0 0
10.32 0 0
10.4 0 0
10.48 0 0
10.56 0 0
10.64 0 0
10.72 0 0
10.8 0 0
10.88 0 0
10.96 0 0
11.04 0 0
11.12 0 0
11.2 0 0
11.28 0 0
11.36 0 0
11.44 0 0
11.52 0 0
11.6 0 0
11.68 0 0
11.76 0 0
11.84 0 0
11.92 0 0
12 0 0
12.08 0 0
12.16 0 0
12.24 0 0
12.32 0 0
12.4 0 0
12.48 0 0
12.56 0 0
12.64 0 0
12.72 0 0
12.8 0 0
12.88 0 0
12.96 0 0
13.04 0 0
13.12 0 0
13.2 0 0
13.28 0 0
13.36 0 0
13.44 0 0
13.52 0 0
13.6 0 0
13.68 0 0
13.76 0 0
13.84 0 0
13.92 0 0
14 0 0
14.08 0 0
14.16 0 0
14.24 0 0
14.32 0 0
14.4 0 0
14.48 0 0
14.56 0 0
14.64 0 0
14.72 0 0
14.8 0 0
14.88 0 0
14.96 0 0
15.04 0 0
15.12 0 0
15.2 0 0
15.28 0 0
15.36 0 0
15.44 0 0
15.52 0 0
15.6 0 0
15.68 0 0
15.76 0 0
15.84 0 0
15.92 0 0
16 0 0
16.08 0 0
16.16 0 0
16.24 0 0
16.32 0 0
16.4 0 0
16.48 0 0
16.56 0 0
16.64 0 0
16.72 0 0
16.8 0 0
16.88 0 0
16.96 0 0
17.04 0 0
17.12 0 0
17.2 0 0
17.28 0 0
17.36 0 0
17.44 0 0
17.52 0 0
17.6 0 0
17.68 0 0
17.76 0 0
17.84 0 0
17.92 0 0
18 0 0
18.08 0 0
18.16 0 0
18.24 0 0
18.32 0 0
18.4 0 0
18.48 0 0
18.56 0 0
18.64 0 0
18.72 0 0
18.8 0 0
18.88 0 0
18.96 0 0
19.04 0 0
19.12 0 0
19.2 0 0
19.28 0 0
19.36 0 0
19.44 0 0
19.52 0 0
19.6 0 0
19.68 0 0
19.76 0 0
19.84 0 0
19.92 0 0
20 0 0
20.08 0 0
20.16 0 0
20.24 0 0
20.32 0 0
20.4 0 0
20.48 0 0
20.56 0 0
20.64 0 0
20.72 0 0
20.8 0 0
20.88 0 0
20.96 0 0
21.04 0 0
21.12 0 0
21.2 0 0
21.28 0 0
21.36 0 0
21.44 0 0
21.52 0 0
21.6 0 0
21.68 0 0
21.76 0 0
21.84 0 0
21.92 0 0
22 0 0
22.08 0 0
22.16 0 0
22.24 0 0
22.32 0 0
22.4 0 0
22.48 0 0
22.56 0 0
22.64 0 0
22.72 0 0
22.8 0 0
22.88 0 0
22.96 0 0
23.04 0 0
23.12 0 0
23.2 0 0
23.28 0 0
23.36 0 0
23.44 0 0
23.52 0 0
23.6 0 0
23.68 0 0
23.76 0 0
23.84 0 0
23.92 0 0
24 0 0
24.08 0 0
24.16 0 0
24.24 0 0
24.32 0 0
24.4 0 0
24.48 0 0
24.56 0 0
24.64 0 0
24.72 0 0
24.8 0 0
24.88 0 0
24.96 0 0
25.04 0 0
25.12 0 0
25.2 0 0
25.28 0 0
25.36 0 0
25.44 0 0
25.52 0 0
25.6 0 0
25.68 0 0
25.76 0 0
25.84 0 0
25.92 0 0
26 0 0
26.08 0 0
26.16 0 0
26.24 0 0
26.32 0 0
26.4 0 0
26.48 0 0
26.56 0 0
26.64 0 0
26.72 0 0
26.8 0 0
26.88 0 0
26.96 0 0
27.04 0 0
27.12 0 0
27.2 0 0
27.28 0 0
27.36 0 0
27.44 0 0
27.52 0 0
27.6 0 0
27.68 0 0
27.76 0 0
27.84 0 0
27.92 0 0
28 0 0
28.08 0 0
28.16 0 0
28.24 0 0
28.32 0 0
28.4 0 0
28.48 0 0
28.56 0 0
28.64 0 0
28.72 0 0
28.8 0 0
28.88 0 0
28.96 0 0
29.04 0 0
29.12 0 0
29.2 0 0
29.28 0 0
29.36 0 0
29.44 0 0
29.52 0 0
29.6 0 0
29.68 0 0
29.76 0 0
29.84 0 0
29.92 0 0
30 0 0
30.08 0 0
30.16 0 0
30.24 0 0
30.32 0 0
30.4 0 0
30.48 0 0
30.56 0 0
30.64 0 0
30.72 0 0
30.8 0 0
30.88 0 0
30.96 0 0
31.04 0 0
31.12 0 0
31.2 0 0
31.28 0 0
31.36 0 0
31.44 0 0
31.52 0 0
31.6 0 0
31.68 0 0
31.76 0 0
31.84 0 0
31.92 0 0
0 0.005 0
0.08 0.005 0
0.16 0.005 0
0.24 0.005 0
0.32 0.005 0
0.4 0.005 0
0.48 0.005 0
0.56 0.005 0
0.64 0.005 0
0.72 0.005 0
0.8 0.005 0
0.88 0.005 0
0.96 0.005 0
1.04 0.005 0
1.12 0.005 0
1.2 0.005 0
1.28 0.005 0
1.36 0.005 0
1.44 0.005 0
1.52 0.005 0
1.6 0.005 0
1.68 0.005 0
1.76 0.005 0
1.84 0.005 0
1.92 0.005 0
2 0.005 0
2.08 0.005 0
2.16 0.005 0
2.24 0.005 0
2.32 0.005 0
2.4 0.005 0
2.48 0.005 0
2.56 0.005 0
2.64 0.005 0
2.72 0.005 0
2.8 0.005 0
2.88 0.005 0
2.96 0.005 0
3.04 0.005 0
3.12 0.005 0
3.2 0.005 0
3.28 0.005 0
3.36 0.005 0
3.44 0.005 0
3.52 0.005 0
3.6 0.005 0
3.68 0.005 0
3.76 0.005 0
3.84 0.005 0
3.92 0.005 0
4 0.005 0
4.08 0.005 0
4.16 0.005 0
4.24 0.005 0
4.32 0.005 0
4.4 0.005 0
4.48 0.005 0
4.56 0.005 0
4.64 0.005 0
4.72 0.005 0
4.8 0.005 0
4.88 0.005 0
4.96 0.005 0
5.04 0.005 0
5.12 0.005 0
5.2 0.005 0
5.28 0.005 0
5.36 0.005 0
5.44 0.005 0
5.52 0.005 0
5.6 0.005 0
5.68 0.005 0
5.76 0.005 0
5.84 0.005 0
5.92 0.005 0
6 0.005 0
6.08 0.005 0
6.16 0.005 0
6.24 0.005 0
6.32 0.005 0
6.4 0.005 0
6.48 0.005 0
6.56 0.005 0
6.64 0.005 0
6.72 0.005 0
6.8 0.005 0
6.88 0.005 0
6.96 0.005 0
7.04 0.005 0
7.12 0.005 0
7.2 0.005 0
7.28 0.005 0
7.36 0.005 0
7.44 0.005 0
7.52 0.005 0
7.6 0.005 0
7.68 0.005 0
7.76 0.005 0
7.84 0.005 0
7.92 0.005 0
8 0.005 0
8.08 0.005 0
8.16 0.005 0
8.24 0.005 0
8.32 0.005 0
8.4 0.005 0
8.48 0.005 0
8.56 0.005 0
8.64 0.005 0
8.72 0.005 0
8.8 0.005 0
8.88 0.005 0
8.96 0.005 0
9.04 0.005 0
9.12 0.005 0
9.2 0.005 0
9.28 0.005 0
9.36 0.005 0
9.44 0.005 0
9.52 0.005 0
9.6 0.005 0
9.68 0.005 0
9.76 0.005 0
9.84 0.005 0
9.92 0.005 0
10 0.005 0
10.08 0.005 0
10.16 0.005 0
10.24 0.005 0
10.32 0.005 0
10.4 0.005 0
10.48 0.005 0
10.56 0.005 0
10.64 0.005 0
10.72 0.005 0
10.8 0.005 0
10.88 0.005 0
10.96 0.005 0
11.04 0.005 0
11.12 0.005 0
11.2 0.005 0
11.28 0.005 0
11.36 0.005 0
11.44 0.005 0
11.52 0.005 0
11.6 0.005 0
11.68 0.005 0
11.76 0.005 0
11.84 0.005 0
11.92 0.005 0
12 0.005 0
12.08 0.005 0
12.16 0.005 0
12.24 0.005 0
12.32 0.005 0
12.4 0.005 0
12.48 0.005 0
12.56 0.005 0
12.64 0.005 0
12.72 0.005 0
12.8 0.005 0
12.88 0.005 0
12.96 0.005 0
13.04 0.005 0
13.12 0.005 0
13.2 0.005 0
13.28 0.005 0
13.36 0.005 0
13.44 0.005 0
13.52 0.005 0
13.6 0.005 0
13.68 0.005 0
13.76 0.005 0
13.84 0.005 0
13.92 0.005 0
14 0.005 0
14.08 0.005 0
14.16 0.005 0
14.24 0.005 0
14.32 0.005 0
14.4 0.005 0
14.48 0.005 0
14.56 0.005 0
14.64 0.005 0
14.72 0.005 0
14.8 0.005 0
14.88 0.005 0
14.96 0.005 0
15.04 0.005 0
15.12 0.005 0
15.2 0.005 0
15.28 0.005 0
15.36 0.005 0
15.44 0.005 0
15.52 0.005 0
15.6 0.005 0
15.68 0.005 0
15.76 0.005 0
15.84 0.005 0
15.92 0.005 0
16 0.005 0
16.08 0.005 0
16.16 0.005 0
16.24 0.005 0
16.32 0.005 0
16.4 0.005 0
16.48 0.005 0
16.56 0.005 0
16.64 0.005 0
16.72 0.005 0
16.8 0.005 0
16.88 0.005 0
16.96 0.005 0
17.04 0.005 0
17.12 0.005 0
17.2 0.005 0
17.28 0.005 0
17.36 0.005 0
17.44 0.005 0
17.52 0.005 0
17.6 0.005 0
17.68 0.005 0
17.76 0.005 0
17.84 0.005 0
17.92 0.005 0
18 0.005 0
18.08 0.005 0
18.16 0.005 0
18.24 0.005 0
18.32 0.005 0
18.4 0.005 0
18.48 0.005 0
18.56 0.005 0
18.64 0.005 0
18.72 0.005 0
18.8 0.005 0
18.88 0.005 0
18.96 0.005 0
19.04 0.005 0
19.12 0.005 0
19.2 0.005 0
19.28 0.005 0
19.36 0.005 0
19.44 0.005 0
19.52 0.005 0
19.6 0.005 0
19.68 0.005 0
19.76 0.005 0
19.84 0.005 0
19.92 0.005 0
20 0.005 0
20.08 0.005 0
20.16 0.005 0
20.24 0.005 0
20.32 0.005 0
20.4 0.005 0
20.48 0.005 0
20.56 0.005 0
20.64 0.005 0
20.72 0.005 0
20.8 0.005 0
20.88 0.005 0
20.96 0.005 0
21.04 0.005 0
21.12 0.005 0
21.2 0.005 0
21.28 0.005 0
21.36 0.005 0
21.44 0.005 0
21.52 0.005 0
21.6 0.005 0
21.68 0.005 0
21.76 0.005 0
21.84 0.005 0
21.92 0.005 0
22 0.005 0
22.08 0.005 0
22.16 0.005 0
22.24 0.005 0
22.32 0.005 0
22.4 0.005 0
22.48 0.005 0
22.56 0.005 0
22.64 0.005 0
22.72 0.005 0
22.8 0.005 0
22.88 0.005 0
22.96 0.005 0
23.04 0.005 0
23.12 0.005 0
23.2 0.005 0
23.28 0.005 0
23.36 0.005 0
23.44 0.005 0
23.52 0.005 0
23.6 0.005 0
23.68 0.005 0
23.76 0.005 0
23.84 0.005 0
23.92 0.005 0
24 0.005 0
24.08 0.005 0
24.16 0.005 0
24.24 0.005 0
24.32 0.005 0
24.4 0.005 0
24.48 0.005 0
24.56 0.005 0
24.64 0.005 0
24.72 0.005 0
24.8 0.005 0
24.88 0.005 0
24.96 0.005 0
25.04 0.005 0
25.12 0.005 0
25.2 0.005 0
25.28 0.005 0
25.36 0.005 0
25.44 0.005 0
25.52 0.005 0
25.6 0.005 0
25.68 0.005 0
25.76 0.005 0
25.84 0.005 0
25.92 0.005 0
26 0.005 0
26.08 0.005 0
26.16 0.005 0
26.24 0.005 0
26.32 0.005 0
26.4 0.005 0
26.48 0.005 0
26.56 0.005 0
26.64 0.005 0
26.72 0.005 0
26.8 0.005 0
26.88 0.005 0
26.96 0.005 0
27.04 0.005 0
27.12 0.005 0
27.2 0.005 0
27.28 0.005 0
27.36 0.005 0
27.44 0.005 0
27.52 0.005 0
27.6 0.005 0
27.68 0.005 0
27.76 0.005 0
27.84 0.005 0
27.92 0.005 0
28 0.005 0
28.08 0.005 0
28.16 0.005 0
28.24 0.005 0
28.32 0.005 0
28.4 0.005 0
28.48 0.005 0
28.56 0.005 0
28.64 0.005 0
28.72 0.005 0
28.8 0.005 0
28.88 0.005 0
28.96 0.005 0
29.04 0.005 0
29.12 0.005 0
29.2 0.005 0
29.28 0.005 0
29.36 0.005 0
29.44 0.005 0
29.52 0.005 0
29.6 0.005 0
29.68 0.005 0
29.76 0.005 0
29.84 0.005 0
29.92 0.005 0
30 0.005 0
30.08 0.005 0
30.16 0.005 0
30.24 0.005 0
30.32 0.005 0
30.4 0.005 0
30.48 0.005 0
30.56 0.005 0
30.64 0.005 0
30.72 0.005 0
30.8 0.005 0
30.88 0.005 0
30.96 0.005 0
31.04 0.005 0
31.12 0.005 0
31.2 0.005 0
31.28 0.005 0
31.36 0.005 0
31.44 0.005 0
31.52 0.005 0
31.6 0.005 0
31.68 0.005 0
31.76 0.005 0
31.84 0.005 0
31.92 0.005 0
0 0.01 0
0.08 0.01 0
0.16 0.01 0
0.24 0.01 0
0.32 0.01 0
0.4 0.01 0
0.48 0.01 0
0.56 0.01 0
0.64 0.01 0
0.72 0.01 0
0.8 0.01 0
0.88 0.01 0
0.96 0.01 0
1.04 0.01 0
1.12 0.01 0
1.2 0.01 0
1.28 0.01 0
1.36 0.01 0
1.44 0.01 0
1.52 0.01 0
1.6 0.01 0
1.68 0.01 0
1.76 0.01 0
1.84 0.01 0
1.92 0.01 0
2 0.01 0
2.08 0.01 0
2.16 0.01 0
2.24 0.01 0
2.32 0.01 0
2.4 0.01 0
2.48 0.01 0
2.56 0.01 0
2.64 0.01 0
2.72 0.01 0
2.8 0.01 0
2.88 0.01 0
2.96 0.01 0
3.04 0.01 0
3.12 0.01 0
3.2 0.01 0
3.28 0.01 0
3.36 0.01 0
3.44 0.01 0
3.52 0.01 0
3.6 0.01 0
3.68 0.01 0
3.76 0.01 0
3.84 0.01 0
3.92 0.01 0
4 0.01 0
4.08 0.01 0
4.16 0.01 0
4.24 0.01 0
4.32 0.01 0
4.4 0.01 0
4.48 0.01 0
4.56 0.01 0
4.64 0.01 0
4.72 0.01 0
4.8 0.01 0
4.88 0.01 0
4.96 0.01 0
5.04 0.01 0
5.12 0.01 0
[...]
POINT_DATA 80000

SCALARS v float 1
LOOKUP_TABLE default
0
0
0
0
0
0
0
0
0
0
0
0
0
0
0
0
0
0
0
0
0
0
0
0
0
0
0
0
0
0
0
0
0
0
0
0
0
0
0
0
0
0
0
0
0
0
0
0
0
0
0
0
0
0
0
0
0
0
0
0
0
0
0
0
0
0
0
0
0
0
0
0
0
0
0
0
0
0
0
0
0
0
0
0
0
0
0
0
0
0
0
0
0
0
0
0
0
0
0
0
0
0
0
0
0
0
0
0
0
0
0
0
0
0
0
0
0
0
0
0
0
0
0
0
0
0
0
0
0
0
0
0
0
0
0
0
0
0
0
0
0
0
0
0
0
0
0
0
0
0
0
0
0
0
0
0
0
0
0
0
0
0
0
0
0
0
0
0
0
0
0
0
0
0
0
0
0
0
0
0
0
0
0
0
0
0
0
0
0
0
0
0
0
0
0
0
0
0
0
0
0
0
0
0
0
0
0
0
0
0
0
0
0
0
0
0
0
0
0
0
0
0
0
0
0
0
0
0
0
0
0
0
0
0
0
0
0
0
0
0
0
0
0
0
0
0
0
0
0
0
0
0
0
0
0
0
0
0
0
0
0
0
0
0
0
0
0
0
0
0
0
0
0
0
0
0
0
0
0
0
0
0
0
0
0
0
0
0
0
0
0
0
0
0
0
0
0
0
0
0
0
0
0
0
0
0
0
0
0
0
0
0
0
0
0
0
0
0
0
0
0
0
0
0
0
0
0
0
0
0
0
0
0
0
0
0
0
0
0
0
0
0
0
0
0
0
0
0
0
0
0
0
0
0
0
0
0
0
0
0
0
0
0
0
0
0
0
0
0
0
0
0
0
0
0
0
0
0
0
0
0
0
0
0
0
0
0
0
0
0
0
0
0
0
0
0
0
0
0
0
-0.0542731410818945
0.0542731410818945
0.00396421591690767
0.00100047379397956
0.000494410103395753
0.000304846527264465
0.000209467353010676
0.000153832387774094
0.00011838330649602
9.44198893527686e-05
7.74959324165908e-05
6.51134248175384e-05
5.57794385382237e-05
4.85650374268967e-05
4.2867517675466e-05
3.82707122120798e-05
3.44715292174056e-05
3.1255157197569e-05
2.84886331682601e-05
2.61000131613499e-05
2.40364353179386e-05
2.22269889060619e-05
2.05796503739619e-05
1.90113399421712e-05
1.74792902848241e-05
1.5982573263457e-05
1.45331418401876e-05
1.3125229705967e-05
1.17325202460388e-05
1.03358776697588e-05
8.95703149976757e-06
7.66868239240524e-06
6.56992629669387e-06
5.74085982138211e-06
5.20352840485324e-06
4.9107774847482e-06
4.7663605768208e-06
4.6624182237294e-06
4.51450815434574e-06
4.28043558919054e-06
3.96023875456248e-06
3.58324293932735e-06
3.19085011394889e-06
2.82189307915632e-06
2.50381876232698e-06
2.2498851055925e-06
2.0607827610749e-06
1.92855712656928e-06
1.84097068183226e-06
1.78509707784771e-06
1.74962843988854e-06
1.72591917032951e-06
1.70808501800404e-06
1.69256244503385e-06
1.67747027325122e-06
1.66199882575927e-06
1.64593231738402e-06
1.62932914743063e-06
1.61233527908359e-06
1.5950935969752e-06
1.57771009242646e-06
1.56025088841986e-06
1.54275032973237e-06
1.52522247323513e-06
1.50766995728853e-06
1.49009093738451e-06
1.47248247277604e-06
1.45484286229516e-06
1.43717204600848e-06
1.41947206827598e-06
1.40174638712628e-06
1.3840000562237e-06
1.36623888889899e-06
1.34846972184987e-06
1.33069963460139e-06
1.31293632059386e-06
1.29518748377121e-06
1.27746123657174e-06
1.25976551048656e-06
1.24210854335362e-06
1.2244983210688e-06
1.20694305899874e-06
1.18945065975545e-06
1.1720292065355e-06
1.15468645543765e-06
1.1374302882723e-06
1.12026816191654e-06
1.10320770851124e-06
1.08625606447406e-06
1.0694205024553e-06
1.05270780652682e-06
1.0361248231033e-06
1.01967790365624e-06
1.00337345136046e-06
9.87217359459503e-07
9.71215501510307e-07
9.55373308394048e-07
9.39696124053212e-07
9.24188822710301e-07
9.08856233906692e-07
8.93702658376766e-07
8.7873240048938e-07
8.63949201674292e-07
8.49356781711641e-07
8.34958326701418e-07
8.2075697140463e-07
8.06755370183721e-07
7.92956082999835e-07
7.79361212611046e-07
7.65972787287814e-07
7.52792311625235e-07
7.39821296217727e-07
7.27060734455061e-07
7.14511607132278e-07
7.02174395328259e-07
6.9004956012589e-07
6.78137097178729e-07
6.66437013287852e-07
6.54948815318515e-07
6.436720508794e-07
6.32605801144773e-07
6.21749201603091e-07
6.11100921892721e-07
6.00659685554712e-07
5.90423795393602e-07
5.80391606975288e-07
5.70561084065211e-07
5.60930262835139e-07
5.51496782565889e-07
5.42258392292391e-07
5.33212455732731e-07
5.24356449780277e-07
5.15687496296122e-07
5.07202864909574e-07
4.98899453902552e-07
4.90774327289823e-07
4.82824226016425e-07
4.75046054022074e-07
4.6743639339123e-07
4.59992037563087e-07
4.52709453609504e-07
4.45585301146863e-07
4.38616001792044e-07
4.31798155342836e-07
4.25128096393259e-07
4.18602396998385e-07
4.12217367914951e-07
4.05969556907664e-07
3.99855282984666e-07
3.93871085922816e-07
3.88013295682755e-07
3.82278504245605e-07
3.76663058667791e-07
3.71163617529464e-07
3.65776594929434e-07
3.60498676610188e-07
3.55326367920718e-07
3.50256450553369e-07
3.45285495176888e-07
3.40410387773177e-07
3.35627798466169e-07
3.30934714039608e-07
3.26327903202833e-07
3.21804504370296e-07
3.17361385897741e-07
3.12995771851095e-07
3.08704697213871e-07
3.04485507659355e-07
3.00335365663934e-07
2.96251736824914e-07
2.92231918144182e-07
2.88273529514536e-07
2.84373973973469e-07
2.80531012312126e-07
2.76742226624679e-07
2.73005467555918e-07
2.6931843770096e-07
2.65679167121648e-07
2.62085483209213e-07
2.58535505417185e-07
2.55027241262932e-07
2.5155893149446e-07
2.48128687242863e-07
2.44734908420544e-07
2.41375783884834e-07
2.38049873157665e-07
2.3475548526643e-07
2.31491274982263e-07
2.28255683120804e-07
2.25047469973762e-07
2.21865180404349e-07
2.18707700066952e-07
2.15573667643983e-07
2.1246204802201e-07
2.09371599460152e-07
2.06301386404924e-07
2.03250264798259e-07
2.00217376087025e-07
1.97201658189343e-07
1.94202343704169e-07
1.91218456211886e-07
1.88249304621173e-07
1.8529398145968e-07
1.82351862960542e-07
1.79422145821833e-07
1.76504253046208e-07
1.7359742767746e-07
1.70701178813751e-07
1.67814805295933e-07
1.64937869178175e-07
1.62069720282288e-07
1.59209987721728e-07
1.56358082781766e-07
1.53513634351683e-07
1.50676129786177e-07
1.47845261012396e-07
1.45020516556646e-07
1.42201668698473e-07
1.39388224957642e-07
1.36579986214696e-07
1.33776508701551e-07
1.30977620545971e-07
1.28182906015138e-07
1.25392224636576e-07
1.22605184594829e-07
1.19821687490635e-07
1.17041375237423e-07
1.1426413139223e-07
1.11489641734592e-07
1.08717832809008e-07
1.05948377681264e-07
1.03181244262705e-07
1.00416123591727e-07
9.76529763344781e-08
9.48915433363308e-08
9.21317807538404e-08
8.93734396194711e-08
8.66165041643684e-08
8.38607196284601e-08
8.11061093198162e-08
7.83524088227954e-08
7.55996410911921e-08
7.28475866838279e-08
7.00962484028381e-08
6.7345424090531e-08
6.45951302155739e-08
6.18451636507328e-08
5.90955695705099e-08
5.6346118793974e-08
5.35968645367079e-08
5.08476126583679e-08
4.80984124992523e-08
4.53490608721857e-08
4.25996148983502e-08
3.98499006730099e-08
3.70999525932201e-08
3.43495949258944e-08
3.1598886473173e-08
2.88476494865824e-08
2.60959532586397e-08
2.33435986998247e-08
2.05906713203307e-08
1.78370058436569e-08
1.50826375615895e-08
1.2327421539162e-08
9.57140924769126e-09
6.81445447588161e-09
4.05659701546937e-09
1.29769329157925e-09
-1.46218288865142e-09
-4.22321304664418e-09
-6.98531735949308e-09
-9.74864867378401e-09
-1.2513152943601e-08
-1.52789880071381e-08
-1.80460632781803e-08
-2.08145420479664e-08
-2.35843675351124e-08
-2.635568873485e-08
-2.91284146455144e-08
-3.19027354975274e-08
-3.46785466174157e-08
-3.74560226726173e-08
-4.02350910315945e-08
-4.30158850244777e-08
-4.57983468251562e-08
-4.85826375314685e-08
-5.1368650771247e-08
-5.41565727328536e-08
-5.69463201977804e-08
-5.97380535326561e-08
-6.25316646170614e-08
-6.53273465168414e-08
-6.81249943474849e-08
-7.09247826325202e-08
-7.37266147716746e-08
-7.65306641329154e-08
-7.93368407690895e-08
-8.21453057158031e-08
-8.49559776962018e-08
-8.77690097802774e-08
-9.05843170170692e-08
-9.34020743680737e-08
-9.62221927799019e-08
-9.90448189995979e-08
-1.01869878774707e-07
-1.04697542515257e-07
-1.07527711581682e-07
-1.10360542742994e-07
-1.13195957822442e-07
-1.1603412700297e-07
-1.18874955700661e-07
-1.21718603626687e-07
-1.24565003843861e-07
-1.27414295298429e-07
-1.30266404780929e-07
-1.33121487365636e-07
-1.35979468107459e-07
-1.38840498703404e-07
-1.41704502514276e-07
-1.44571638167149e-07
-1.47441838443104e-07
-1.50315232378417e-07
-1.53191753458709e-07
-1.56071576828253e-07
-1.58954588101646e-07
-1.6184098144174e-07
-1.64730663753757e-07
-1.67623785921988e-07
-1.70520282435944e-07
-1.73420311006752e-07
-1.76323778645817e-07
-1.79230859308142e-07
-1.8214147336429e-07
-1.85055776535772e-07
-1.8797368828479e-07
-1.90895389269434e-07
-1.93820780471587e-07
-1.96750024530946e-07
-1.99683055374483e-07
-2.02620024351708e-07
-2.05560868301802e-07
-2.08505740055121e-07
-2.11454560968513e-07
-2.14407498648305e-07
-2.17364476462504e-07
-2.20325670051746e-07
-2.23290979900654e-07
-2.26260594486305e-07
-2.29234434945685e-07
-2.32212651383694e-07
-2.35195195980855e-07
-2.38182190306608e-07
-2.41173670853124e-07
-2.44169525663529e-07
-2.4717038064415e-07
-2.50174711746414e-07
-2.53186336140269e-07
-2.56196887818827e-07
-2.59224453737214e-07
-2.62231720809722e-07
-2.65293585284464e-07
-2.68265064710211e-07
-2.71417942405707e-07
-2.74260335520114e-07
-2.77652018668893e-07
-2.80143957009362e-07
-2.84089714939342e-07
-2.85809176115696e-07
-2.90838812864304e-07
-2.91169766112848e-07
-2.97939630436034e-07
-2.96257124757681e-07
-3.05276912444622e-07
-3.01267649081053e-07
-3.12599725952734e-07
-3.06471326627299e-07
-3.19657790174465e-07
-3.12083476290859e-07
-3.26274549024592e-07
-3.18261078675176e-07
-3.32330190651017e-07
-3.25066414772774e-07
-3.37926933642196e-07
-3.32197398942957e-07
-3.43686649826759e-07
-3.38878200694176e-07
-3.50515394739281e-07
-3.44750478427663e-07
-3.58063823005294e-07
-3.52021497583695e-07
-3.63170118561229e-07
-3.65170202687784e-07
-3.62626769534888e-07
-3.88857904838209e-07
-3.37163856400652e-07
-4.57622518425263e-07
-2.27189899955673e-08
-3.77695626281522e-07
-3.77695626281522e-07
-0.0952181876424403
0.0952181876424403
0.0129781469344293
0.00385723223137515
0.00193694749221837
0.00119884443085086
0.000824378994357566
0.00060493244623738
0.000464661813969513
0.000369613802169548
0.000302363776393814
0.000253095283303108
0.00021592876709214
0.000187191681555003
0.000164487298090459
0.000146158047992587
0.000131006823961583
0.000118193402376422
0.000107191487851028
9.76974625402576e-05
8.94763997439795e-05
8.22367143888349e-05
7.56268530362833e-05
6.93408260907098e-05
6.32196836390641e-05
5.72476565926803e-05
5.14502950654755e-05
4.57977156871662e-05
4.02078969393324e-05
3.46480327379406e-05
2.92419698701032e-05
2.42849632640501e-05
2.01383759612094e-05
1.70633739342483e-05
1.50919340642833e-05
1.40055068473035e-05
1.34236445997643e-05
1.29461380733463e-05
1.22766922115963e-05
1.12824458684505e-05
9.98474082653387e-06
8.50586082504916e-06
7.00408293262049e-06
5.62106410177657e-06
4.45203758368401e-06
3.53823431376526e-06
2.8749416169832e-06
2.42712839069487e-06
2.14587955018703e-06
1.98144849577254e-06
1.8913058523044e-06
1.84349432126934e-06
1.81659410455126e-06
1.79783618819901e-06
1.7806097471504e-06
1.76216059242962e-06
1.74183045282051e-06
1.71989974388646e-06
1.69692452009977e-06
1.67342289894134e-06
1.64976444660012e-06
1.62616720786397e-06
1.60273145694955e-06
1.57948377333887e-06
1.55640978837126e-06
1.53347959914746e-06
1.51065980621594e-06
1.48792218505108e-06
1.46524433226111e-06
1.44261172392647e-06
1.42001501361937e-06
1.39745059234865e-06
1.37491760154172e-06
1.35241884794779e-06
1.32995810597928e-06
1.30754144899766e-06
1.28517501425094e-06
1.26286649890284e-06
1.24062320602061e-06
1.21845364768844e-06
1.19636569090363e-06
1.17436821970501e-06
1.15246935917048e-06
1.13067816299564e-06
1.10900275545845e-06
1.08745212151886e-06
1.06603427754684e-06
1.04475802754952e-06
1.02363107142235e-06
1.00266186170767e-06
9.81857740228522e-07
9.61226716012132e-07
9.40775623709238e-07
9.20511957393141e-07
9.00441961285764e-07
8.80572531871234e-07
8.60909323046234e-07
8.41458568586929e-07
8.22225269548285e-07
8.03215005463905e-07
7.84432079770765e-07
7.65881377599851e-07
7.47566514627983e-07
7.29491710581731e-07
7.11659902896447e-07
6.94074591029857e-07
6.76738055820765e-07
6.59653114192934e-07
6.42821399929286e-07
6.26245066162342e-07
6.09925100577039e-07
5.9386303781096e-07
5.78059217353425e-07
5.62514593861192e-07
5.47228918775653e-07
5.32202552809674e-07
5.17434672776939e-07
5.02925139453203e-07
4.88672564667216e-07
4.74676283039942e-07
4.60934454720591e-07
4.47445920346984e-07
4.34208389036037e-07
4.2122025299492e-07
4.08478800813162e-07
3.95982040002621e-07
3.8372686681643e-07
3.71710929740855e-07
3.59930818259119e-07
3.48383813802799e-07
3.3706622874758e-07
3.2597508493333e-07
3.15106398554731e-07
3.0445696152295e-07
2.94022576566421e-07
2.83799859458597e-07
2.7378440003209e-07
2.63972644913954e-07
2.54360064520459e-07
2.44942963223248e-07
2.35716707982099e-07
2.26677530396704e-07
2.17820689179947e-07
2.09142365973645e-07
2.00637789680126e-07
1.92303118084761e-07
1.84133549921272e-07
1.76125235320617e-07
1.68273425363035e-07
1.60574276737712e-07
1.53023055186073e-07
1.45615999538113e-07
1.38348433571665e-07
1.31216652989679e-07
1.24216081870324e-07
1.17343096622887e-07
1.10593225829894e-07
1.03962941073785e-07
9.7447900955642e-08
9.10446902628745e-08
8.47490953140372e-08
7.8557845085759e-08
7.2466849496417e-08
6.64729993416466e-08
6.0572324251159e-08
5.4761880282097e-08
4.90378505832209e-08
4.33974534855743e-08
3.78370232088583e-08
3.23539283667553e-08
2.69446929505052e-08
2.16068153853231e-08
1.63369968318487e-08
1.11329019137935e-08
5.99137367067896e-09
9.1027331502503e-10
-4.11341476001865e-09
-9.08167223394659e-09
-1.39973581063274e-08
-1.88622991389649e-08
-2.36791843124223e-08
-2.84496903512361e-08
-3.31763666085494e-08
-3.78607468038722e-08
-4.25051973545643e-08
-4.71111533127565e-08
-5.16808300370456e-08
-5.62155062244285e-08
-6.07173013681243e-08
-6.51873077777939e-08
-6.96275450280876e-08
-7.40390076717527e-08
-7.84235590027761e-08
-8.27820816050837e-08
-8.71163334494117e-08
-9.14270891246728e-08
-9.57159846779998e-08
-9.99837001471643e-08
-1.04231780294212e-07
-1.08460779945046e-07
-1.12672162402851e-07
-1.16866418795099e-07
-1.21044899899575e-07
-1.25207993962444e-07
-1.29356999768325e-07
-1.33492241331108e-07
-1.37614901638588e-07
-1.41725245290338e-07
-1.45824410102175e-07
-1.49912580048468e-07
-1.5399081372251e-07
-1.58059264111011e-07
-1.62118907409575e-07
-1.6616984788511e-07
-1.70213030676854e-07
-1.74248477585323e-07
-1.7827710144393e-07
-1.82298888299386e-07
-1.86314679699794e-07
-1.90324431414686e-07
-1.94328962728485e-07
-1.98328175032847e-07
-2.02322853671971e-07
-2.06312865197308e-07
-2.10298968381745e-07
-2.1428099291661e-07
-2.18259660389468e-07
-2.22234803496639e-07
-2.26207094384887e-07
-2.30176324803556e-07
-2.34143170148589e-07
-2.38107391197662e-07
-2.42069639239636e-07
-2.46029677394296e-07
-2.49988105691138e-07
-2.53944691612868e-07
-2.57900019005866e-07
-2.61853823653442e-07
-2.65806690843892e-07
-2.69758337806159e-07
-2.73709332995993e-07
-2.77659385164611e-07
-2.81609069932431e-07
-2.85558052689296e-07
-2.89506923058886e-07
-2.93455339237732e-07
-2.97403857677291e-07
-3.01352137192121e-07
-3.05300751397552e-07
-3.09249328168136e-07
-3.13198429919818e-07
-3.17147692583779e-07
-3.21097675003184e-07
-3.25047999432104e-07
-3.28999207703262e-07
-3.3295093991329e-07
-3.36903729501543e-07
-3.40857190139127e-07
-3.44811868551482e-07
-3.48767389422747e-07
-3.52724278087631e-07
-3.56682126632251e-07
-3.60641515178966e-07
-3.64602021059917e-07
-3.685641769882e-07
-3.72527589935703e-07
-3.76492813749723e-07
-3.80459399840423e-07
-3.84427925745381e-07
-3.8839797590403e-07
-3.92370068919153e-07
-3.96343823284226e-07
-4.00319744027257e-07
-4.04297439570044e-07
-4.08277421592947e-07
-4.12259308658525e-07
-4.16243607409628e-07
-4.2022991411168e-07
-4.24218756292263e-07
-4.28209726648085e-07
-4.32203342876671e-07
-4.36199204836785e-07
-4.4019783434656e-07
-4.44198826457536e-07
-4.4820267972774e-07
-4.52209009526919e-07
-4.562183294093e-07
-4.60230238099334e-07
-4.64245244746721e-07
-4.68262946089299e-07
-4.72283853458106e-07
-4.76307565028833e-07
-4.80334592857361e-07
-4.84364558813439e-07
-4.88397943355008e-07
-4.92434350134699e-07
-4.96474297699632e-07
-5.00517391652548e-07
-5.04564126553724e-07
-5.08614113398225e-07
-5.12667860736235e-07
-5.16724972067404e-07
-5.20785948980448e-07
-5.2485038110647e-07
-5.28918801801827e-07
-5.32990810165619e-07
-5.3706690263482e-07
-5.41146681214141e-07
-5.45230664360883e-07
-5.49318444715374e-07
-5.53410552211135e-07
-5.57506556588478e-07
-5.61606989691413e-07
-5.65711467004827e-07
-5.69820471613277e-07
-5.7393361328756e-07
-5.78051419838948e-07
-5.8217346807721e-07
-5.8630028795825e-07
-5.90431479222977e-07
-5.94567554070853e-07
-5.9870812509342e-07
-6.02853696276028e-07
-6.07003872608584e-07
-6.1115916192319e-07
-6.15319185020258e-07
-6.19484454642533e-07
-6.23654567026686e-07
-6.27830052356701e-07
-6.32010490507319e-07
-6.36196435638904e-07
-6.4038747573301e-07
-6.44584124304992e-07
-6.4878599649965e-07
-6.52993622353616e-07
-6.57206595447943e-07
-6.6142544425938e-07
-6.65649776791297e-07
-6.69880120535904e-07
-6.74116097289822e-07
-6.783582015674e-07
-6.82606086292069e-07
-6.86860245980739e-07
-6.91120322234155e-07
-6.95386822879717e-07
-6.99659377692757e-07
-7.03938511671835e-07
-7.08223844854591e-07
-7.12515916802647e-07
-7.16814360678784e-07
-7.21119683258354e-07
-7.25431557528267e-07
-7.2975037114856e-07
-7.34076183739778e-07
-7.38408460728672e-07
-7.42749422370506e-07
-7.47093555453672e-07
-7.51454219180795e-07
-7.55801811844823e-07
-7.60200231309759e-07
-7.64517043573267e-07
-7.69018713755969e-07
-7.7318734876922e-07
-7.77996958084952e-07
-7.81678347306344e-07
-7.87334638048247e-07
-7.89716906481455e-07
-7.9738120462902e-07
-7.96900299097809e-07
-8.08547071102125e-07
-8.02891401864376e-07
-8.21000589204402e-07
-8.07788100487972e-07
-8.34323316627658e-07
-8.12321257622128e-07
-8.47566808802096e-07
-8.17517014015248e-07
-8.5977857229385e-07
-8.24185584870375e-07
-8.70302590085234e-07
-8.32910307476316e-07
-8.78672223508468e-07
-8.43977007042906e-07
-8.85190948501766e-07
-8.56327535943275e-07
-8.92170652543024e-07
-8.66994731342136e-07
-9.0315782775265e-07
-8.74448187677322e-07
-9.17058791150845e-07
-8.86840413341889e-07
-9.2205852714753e-07
-9.21174299853146e-07
-9.06190762834747e-07
-9.93929830564153e-07
-8.01200369940027e-07
-1.22624676711311e-06
3.41281168571552e-07
-9.26834775794684e-07
-9.26834775794684e-07
-0.125295468981411
0.125295468981411
0.0249386427506566
0.00836096708366748
0.00428100025358574
0.0026645368473382
0.00183673930151732
0.00134931484055321
0.00103679922113146
0.000824571014628876
0.000674162057398559
0.000563837695177732
0.000480550716540616
0.000416124689492551
0.000365200064207619
0.000324066195336432
0.000290058806409164
0.000261318846165301
0.000236669088307053
0.000215399603235275
0.000196946467125401
0.000180646167323995
0.000165738321917966
0.000151576057029063
0.000137816646978016
0.000124401380286344
0.000111352804364287
9.85979242045805e-05
8.59946808197023e-05
7.35397583424083e-05
6.15649519201792e-05
5.07320135562905e-05
4.17896822219017e-05
3.52281811251949e-05
3.10334991909627e-05
2.86742136111852e-05
2.73101253618905e-05
2.60964468541925e-05
2.44345401858313e-05
2.20811829759308e-05
1.91147056004668e-05
1.58143960185447e-05
1.252167894197e-05
9.53172938279296e-06
7.0350906227326e-06
5.10608950251233e-06
3.7230597378945e-06
2.80303692042462e-06
2.2368785812399e-06
1.91641219796227e-06
1.75065256587616e-06
1.67208849952233e-06
1.63598251264107e-06
1.61598467053203e-06
1.59866405039941e-06
1.57857973200704e-06
1.55456883717123e-06
1.52733916104752e-06
1.49810899055472e-06
1.46797712809975e-06
1.43771043641057e-06
1.40774986463962e-06
1.37828748100809e-06
1.3493616751238e-06
1.32092664479175e-06
1.29290564965608e-06
1.26521569846506e-06
1.23778548916483e-06
1.21055642440418e-06
1.18348671425102e-06
1.15654546508542e-06
1.12971404332138e-06
1.10297958429535e-06
1.0763369657118e-06
1.04978314148803e-06
1.02332003080651e-06
9.96949659938834e-07
9.70677585719833e-07
9.4450848867009e-07
9.18449879923101e-07
8.92507919648898e-07
8.66691250412044e-07
8.41006908156495e-07
8.15464162273024e-07
7.90070484167517e-07
7.64835451557171e-07
7.39766711086096e-07
7.14873838590517e-07
6.9016435452945e-07
6.6564763739272e-07
6.41330899956867e-07
6.17223087244838e-07
5.93330953973575e-07
5.69662858423647e-07
5.46224935677374e-07
5.23024930209536e-07
5.00068239054457e-07
4.77361879522236e-07
4.54910496911899e-07
4.32720352482569e-07