# vtk DataFile Version 2.0
FlowField
ASCII
DATASET STRUCTURED_GRID
DIMENSIONS 400 1 200
POINTS 80000 float
0 0 0
0.08 0 0
0.16 0 0
0.24 0 0
0.32 0 0
0.4 0 0
0.48 0 0
0.56 0 0
0.64 0 0
0.72 0 0
0.8 0 0
0.88 0 0
0.96 0 0
1.04 0 0
1.12 0 0
1.2 0 0
1.28 0 0
1.36 0 0
1.44 0 0
1.52 0 0
1.6 0 0
1.68 0 0
1.76 0 0
1.84 0 0
1.92 0 0
2 0 0
2.08 0 0
2.16 0 0
2.24 0 0
2.32 0 0
2.4 0 0
2.48 0 0
2.56 0 0
2.64 0 0
2.72 0 0
2.8 0 0
2.88 0 0
2.96 0 0
3.04 0 0
3.12 0 0
3.2 0 0
3.28 0 0
3.36 0 0
3.44 0 0
3.52 0 0
3.6 0 0
3.68 0 0
3.76 0 0
3.84 0 0
3.92 0 0
4 0 0
4.08 0 0
4.16 0 0
4.24 0 0
4.32 0 0
4.4 0 0
4.48 0 0
4.56 0 0
4.64 0 0
4.72 0 0
4.8 0 0
4.88 0 0
4.96 0 0
5.04 0 0
5.12 0 0
5.2 0 0
5.28 0 0
5.36 0 0
5.44 0 0
5.52 0 0
5.6 0 0
5.68 0 0
5.76 0 0
5.84 0 0
5.92 0 0
6 0 0
6.08 0 0
6.16 0 0
6.24 0 0
6.32 0 0
6.4 0 0
6.48 0 0
6.56 0 0
6.64 0 0
6.72 0 0
6.8 0 0
6.88 0 0
6.96 0 0
7.04 0 0
7.12 0 0
7.2 0 0
7.28 0 0
7.36 0 0
7.44 0 0
7.52 0 0
7.6 0 0
7.68 0 0
7.76 0 0
7.84 0 0
7.92 0 0
8 0 0
8.08 0 0
8.16 0 0
8.24 0 0
8.32 0 0
8.4 0 0
8.48 0 0
8.56 0 0
8.64 0 0
8.72 0 0
8.8 0 0
8.88 0 0
8.96 0 0
9.04 0 0
9.12 0 0
9.2 0 0
9.28 0 0
9.36 0 0
9.44 0 0
9.52 0 0
9.6 0 0
9.68 0 0
9.76 0 0
9.84 0 0
9.92 0 0
10 0 0
10.08 0 0
10.16 0 0
10.24 0 0
10.32 0 0
10.4 0 0
10.48 0 0
10.56 0 0
10.64 0 0
10.72 0 0
10.8 0 0
10.88 0 0
10.96 0 0
11.04 0 0
11.12 0 0
11.2 0 0
11.28 0 0
11.36 0 0
11.44 0 0
11.52 0 0
11.6 0 0
11.68 0 0
11.76 0 0
11.84 0 0
11.92 0 0
12 0 0
12.08 0 0
12.16 0 0
12.24 0 0
12.32 0 0
12.4 0 0
12.48 0 0
12.56 0 0
12.64 0 0
12.72 0 0
12.8 0 0
12.88 0 0
12.96 0 0
13.04 0 0
13.12 0 0
13.2 0 0
13.28 0 0
13.36 0 0
13.44 0 0
13.52 0 0
13.6 0 0
13.68 0 0
13.76 0 0
13.84 0 0
13.92 0 0
14 0 0
14.08 0 0
14.16 0 0
14.24 0 0
14.32 0 0
14.4 0 0
14.48 0 0
14.56 0 0
14.64 0 0
14.72 0 0
14.8 0 0
14.88 0 0
14.96 0 0
15.04 0 0
15.12 0 0
15.2 0 0
15.28 0 0
15.36 0 0
15.44 0 0
15.52 0 0
15.6 0 0
15.68 0 0
15.76 0 0
15.84 0 0
15.92 0 0
16 0 0
16.08 0 0
16.16 0 0
16.24 0 0
16.32 0 0
16.4 0 0
16.48 0 0
16.56 0 0
16.64 0 0
16.72 0 0
16.8 0 0
16.88 0 0
16.96 0 0
17.04 0 0
17.12 0 0
17.2 0 0
17.28 0 0
17.36 0 0
17.44 0 0
17.52 0 0
17.6 0 0
17.68 0 0
17.76 0 0
17.84 0 0
17.92 0 0
18 0 0
18.08 0 0
18.16 0 0
18.24 0 0
18.32 0 0
18.4 0 0
18.48 0 0
18.56 0 0
18.64 0 0
18.72 0 0
18.8 0 0
18.88 0 0
18.96 0 0
19.04 0 0
19.12 0 0
19.2 0 0
19.28 0 0
19.36 0 0
19.44 0 0
19.52 0 0
19.6 0 0
19.68 0 0
19.76 0 0
19.84 0 0
19.92 0 0
20 0 0
20.08 0 0
20.16 0 0
20.24 0 0
20.32 0 0
20.4 0 0
20.48 0 0
20.56 0 0
20.64 0 0
20.72 0 0
20.8 0 0
20.88 0 0
20.96 0 0
21.04 0 0
21.12 0 0
21.2 0 0
21.28 0 0
21.36 0 0
21.44 0 0
21.52 0 0
21.6 0 0
21.68 0 0
21.76 0 0
21.84 0 0
21.92 0 0
22 0 0
22.08 0 0
22.16 0 0
22.24 0 0
22.32 0 0
22.4 0 0
22.48 0 0
22.56 0 0
22.64 0 0
22.72 0 0
22.8 0 0
22.88 0 0
22.96 0 0
23.04 0 0
23.12 0 0
23.2 0 0
23.28 0 0
23.36 0 0
23.44 0 0
23.52 0 0
23.6 0 0
23.68 0 0
23.76 0 0
23.84 0 0
23.92 0 0
24 0 0
24.08 0 0
24.16 0 0
24.24 0 0
24.32 0 0
24.4 0 0
24.48 0 0
24.56 0 0
24.64 0 0
24.72 0 0
24.8 0 0
24.88 0 0
24.96 0 0
25.04 0 0
25.12 0 0
25.2 0 0
25.28 0 0
25.36 0 0
25.44 0 0
25.52 0 0
25.6 0 0
25.68 0 0
25.76 0 0
25.84 0 0
25.92 0 0
26 0 0
26.08 0 0
26.16 0 0
26.24 0 0
26.32 0 0
26.4 0 0
26.48 0 0
26.56 0 0
26.64 0 0
26.72 0 0
26.8 0 0
26.88 0 0
26.96 0 0
27.04 0 0
27.12 0 0
27.2 0 0
27.28 0 0
27.36 0 0
27.44 0 0
27.52 0 0
27.6 0 0
27.68 0 0
27.76 0 0
27.84 0 0
27.92 0 0
28 0 0
28.08 0 0
28.16 0 0
28.24 0 0
28.32 0 0
28.4 0 0
28.48 0 0
28.56 0 0
28.64 0 0
28.72 0 0
28.8 0 0
28.88 0 0
28.96 0 0
29.04 0 0
29.12 0 0
29.2 0 0
29.28 0 0
29.36 0 0
29.44 0 0
29.52 0 0
29.6 0 0
29.68 0 0
29.76 0 0
29.84 0 0
29.92 0 0
30 0 0
30.08 0 0
30.16 0 0
30.24 0 0
30.32 0 0
30.4 0 0
30.48 0 0
30.56 0 0
30.64 0 0
30.72 0 0
30.8 0 0
30.88 0 0
30.96 0 0
31.04 0 0
31.12 0 0
31.2 0 0
31.28 0 0
31.36 0 0
31.44 0 0
31.52 0 0
31.6 0 0
31.68 0 0
31.76 0 0
31.84 0 0
31.92 0 0
0 0.005 0
0.08 0.005 0
0.16 0.005 0
0.24 0.005 0
0.32 0.005 0
0.4 0.005 0
0.48 0.005 0
0.56 0.005 0
0.64 0.005 0
0.72 0.005 0
0.8 0.005 0
0.88 0.005 0
0.96 0.005 0
1.04 0.005 0
1.12 0.005 0
1.2 0.005 0
1.28 0.005 0
1.36 0.005 0
1.44 0.005 0
1.52 0.005 0
1.6 0.005 0
1.68 0.005 0
1.76 0.005 0
1.84 0.005 0
1.92 0.005 0
2 0.005 0
2.08 0.005 0
2.16 0.005 0
2.24 0.005 0
2.32 0.005 0
2.4 0.005 0
2.48 0.005 0
2.56 0.005 0
2.64 0.005 0
2.72 0.005 0
2.8 0.005 0
2.88 0.005 0
2.96 0.005 0
3.04 0.005 0
3.12 0.005 0
3.2 0.005 0
3.28 0.005 0
3.36 0.005 0
3.44 0.005 0
3.52 0.005 0
3.6 0.005 0
3.68 0.005 0
3.76 0.005 0
3.84 0.005 0
3.92 0.005 0
4 0.005 0
4.08 0.005 0
4.16 0.005 0
4.24 0.005 0
4.32 0.005 0
4.4 0.005 0
4.48 0.005 0
4.56 0.005 0
4.64 0.005 0
4.72 0.005 0
4.8 0.005 0
4.88 0.005 0
4.96 0.005 0
5.04 0.005 0
5.12 0.005 0
5.2 0.005 0
5.28 0.005 0
5.36 0.005 0
5.44 0.005 0
5.52 0.005 0
5.6 0.005 0
5.68 0.005 0
5.76 0.005 0
5.84 0.005 0
5.92 0.005 0
6 0.005 0
6.08 0.005 0
6.16 0.005 0
6.24 0.005 0
6.32 0.005 0
6.4 0.005 0
6.48 0.005 0
6.56 0.005 0
6.64 0.005 0
6.72 0.005 0
6.8 0.005 0
6.88 0.005 0
6.96 0.005 0
7.04 0.005 0
7.12 0.005 0
7.2 0.005 0
7.28 0.005 0
7.36 0.005 0
7.44 0.005 0
7.52 0.005 0
7.6 0.005 0
7.68 0.005 0
7.76 0.005 0
7.84 0.005 0
7.92 0.005 0
8 0.005 0
8.08 0.005 0
8.16 0.005 0
8.24 0.005 0
8.32 0.005 0
8.4 0.005 0
8.48 0.005 0
8.56 0.005 0
8.64 0.005 0
8.72 0.005 0
8.8 0.005 0
8.88 0.005 0
8.96 0.005 0
9.04 0.005 0
9.12 0.005 0
9.2 0.005 0
9.28 0.005 0
9.36 0.005 0
9.44 0.005 0
9.52 0.005 0
9.6 0.005 0
9.68 0.005 0
9.76 0.005 0
9.84 0.005 0
9.92 0.005 0
10 0.005 0
10.08 0.005 0
10.16 0.005 0
10.24 0.005 0
10.32 0.005 0
10.4 0.005 0
10.48 0.005 0
10.56 0.005 0
10.64 0.005 0
10.72 0.005 0
10.8 0.005 0
10.88 0.005 0
10.96 0.005 0
11.04 0.005 0
11.12 0.005 0
11.2 0.005 0
11.28 0.005 0
11.36 0.005 0
11.44 0.005 0
11.52 0.005 0
11.6 0.005 0
11.68 0.005 0
11.76 0.005 0
11.84 0.005 0
11.92 0.005 0
12 0.005 0
12.08 0.005 0
12.16 0.005 0
12.24 0.005 0
12.32 0.005 0
12.4 0.005 0
12.48 0.005 0
12.56 0.005 0
12.64 0.005 0
12.72 0.005 0
12.8 0.005 0
12.88 0.005 0
12.96 0.005 0
13.04 0.005 0
13.12 0.005 0
13.2 0.005 0
13.28 0.005 0
13.36 0.005 0
13.44 0.005 0
13.52 0.005 0
13.6 0.005 0
13.68 0.005 0
13.76 0.005 0
13.84 0.005 0
13.92 0.005 0
14 0.005 0
14.08 0.005 0
14.16 0.005 0
14.24 0.005 0
14.32 0.005 0
14.4 0.005 0
14.48 0.005 0
14.56 0.005 0
14.64 0.005 0
14.72 0.005 0
14.8 0.005 0
14.88 0.005 0
14.96 0.005 0
15.04 0.005 0
15.12 0.005 0
15.2 0.005 0
15.28 0.005 0
15.36 0.005 0
15.44 0.005 0
15.52 0.005 0
15.6 0.005 0
15.68 0.005 0
15.76 0.005 0
15.84 0.005 0
15.92 0.005 0
16 0.005 0
16.08 0.005 0
16.16 0.005 0
16.24 0.005 0
16.32 0.005 0
16.4 0.005 0
16.48 0.005 0
16.56 0.005 0
16.64 0.005 0
16.72 0.005 0
16.8 0.005 0
16.88 0.005 0
16.96 0.005 0
17.04 0.005 0
17.12 0.005 0
17.2 0.005 0
17.28 0.005 0
17.36 0.005 0
17.44 0.005 0
17.52 0.005 0
17.6 0.005 0
17.68 0.005 0
17.76 0.005 0
17.84 0.005 0
17.92 0.005 0
18 0.005 0
18.08 0.005 0
18.16 0.005 0
18.24 0.005 0
18.32 0.005 0
18.4 0.005 0
18.48 0.005 0
18.56 0.005 0
18.64 0.005 0
18.72 0.005 0
18.8 0.005 0
18.88 0.005 0
18.96 0.005 0
19.04 0.005 0
19.12 0.005 0
19.2 0.005 0
19.28 0.005 0
19.36 0.005 0
19.44 0.005 0
19.52 0.005 0
19.6 0.005 0
19.68 0.005 0
19.76 0.005 0
19.84 0.005 0
19.92 0.005 0
20 0.005 0
20.08 0.005 0
20.16 0.005 0
20.24 0.005 0
20.32 0.005 0
20.4 0.005 0
20.48 0.005 0
20.56 0.005 0
20.64 0.005 0
20.72 0.005 0
20.8 0.005 0
20.88 0.005 0
20.96 0.005 0
21.04 0.005 0
21.12 0.005 0
21.2 0.005 0
21.28 0.005 0
21.36 0.005 0
21.44 0.005 0
21.52 0.005 0
21.6 0.005 0
21.68 0.005 0
21.76 0.005 0
21.84 0.005 0
21.92 0.005 0
22 0.005 0
22.08 0.005 0
22.16 0.005 0
22.24 0.005 0
22.32 0.005 0
22.4 0.005 0
22.48 0.005 0
22.56 0.005 0
22.64 0.005 0
22.72 0.005 0
22.8 0.005 0
22.88 0.005 0
22.96 0.005 0
23.04 0.005 0
23.12 0.005 0
23.2 0.005 0
23.28 0.005 0
23.36 0.005 0
23.44 0.005 0
23.52 0.005 0
23.6 0.005 0
23.68 0.005 0
23.76 0.005 0
23.84 0.005 0
23.92 0.005 0
24 0.005 0
24.08 0.005 0
24.16 0.005 0
24.24 0.005 0
24.32 0.005 0
24.4 0.005 0
24.48 0.005 0
24.56 0.005 0
24.64 0.005 0
24.72 0.005 0
24.8 0.005 0
24.88 0.005 0
24.96 0.005 0
25.04 0.005 0
25.12 0.005 0
25.2 0.005 0
25.28 0.005 0
25.36 0.005 0
25.44 0.005 0
25.52 0.005 0
25.6 0.005 0
25.68 0.005 0
25.76 0.005 0
25.84 0.005 0
25.92 0.005 0
26 0.005 0
26.08 0.005 0
26.16 0.005 0
26.24 0.005 0
26.32 0.005 0
26.4 0.005 0
26.48 0.005 0
26.56 0.005 0
26.64 0.005 0
26.72 0.005 0
26.8 0.005 0
26.88 0.005 0
26.96 0.005 0
27.04 0.005 0
27.12 0.005 0
27.2 0.005 0
27.28 0.005 0
27.36 0.005 0
27.44 0.005 0
27.52 0.005 0
27.6 0.005 0
27.68 0.005 0
27.76 0.005 0
27.84 0.005 0
27.92 0.005 0
28 0.005 0
28.08 0.005 0
28.16 0.005 0
28.24 0.005 0
28.32 0.005 0
28.4 0.005 0
28.48 0.005 0
28.56 0.005 0
28.64 0.005 0
28.72 0.005 0
28.8 0.005 0
28.88 0.005 0
28.96 0.005 0
29.04 0.005 0
29.12 0.005 0
29.2 0.005 0
29.28 0.005 0
29.36 0.005 0
29.44 0.005 0
29.52 0.005 0
29.6 0.005 0
29.68 0.005 0
29.76 0.005 0
29.84 0.005 0
29.92 0.005 0
30 0.005 0
30.08 0.005 0
30.16 0.005 0
30.24 0.005 0
30.32 0.005 0
30.4 0.005 0
30.48 0.005 0
30.56 0.005 0
30.64 0.005 0
30.72 0.005 0
30.8 0.005 0
30.88 0.005 0
30.96 0.005 0
31.04 0.005 0
31.12 0.005 0
31.2 0.005 0
31.28 0.005 0
31.36 0.005 0
31.44 0.005 0
31.52 0.005 0
31.6 0.005 0
31.68 0.005 0
31.76 0.005 0
31.84 0.005 0
31.92 0.005 0
0 0.01 0
0.08 0.01 0
0.16 0.01 0
0.24 0.01 0
0.32 0.01 0
0.4 0.01 0
0.48 0.01 0
0.56 0.01 0
0.64 0.01 0
0.72 0.01 0
0.8 0.01 0
0.88 0.01 0
0.96 0.01 0
1.04 0.01 0
1.12 0.01 0
1.2 0.01 0
1.28 0.01 0
1.36 0.01 0
1.44 0.01 0
1.52 0.01 0
1.6 0.01 0
1.68 0.01 0
1.76 0.01 0
1.84 0.01 0
1.92 0.01 0
2 0.01 0
2.08 0.01 0
2.16 0.01 0
2.24 0.01 0
2.32 0.01 0
2.4 0.01 0
2.48 0.01 0
2.56 0.01 0
2.64 0.01 0
2.72 0.01 0
2.8 0.01 0
2.88 0.01 0
2.96 0.01 0
3.04 0.01 0
3.12 0.01 0
3.2 0.01 0
3.28 0.01 0
3.36 0.01 0
3.44 0.01 0
3.52 0.01 0
3.6 0.01 0
3.68 0.01 0
3.76 0.01 0
3.84 0.01 0
3.92 0.01 0
4 0.01 0
4.08 0.01 0
4.16 0.01 0
4.24 0.01 0
4.32 0.01 0
4.4 0.01 0
4.48 0.01 0
4.56 0.01 0
4.64 0.01 0
4.72 0.01 0
4.8 0.01 0
4.88 0.01 0
4.96 0.01 0
5.04 0.01 0
5.12 0.01 0
[...]
POINT_DATA 80000

SCALARS u float 1
LOOKUP_TABLE default
0
-0.131662941519227
-0.0682696389622431
-0.052296520880754
-0.0444204859601086
-0.0395774562316934
-0.036260432952209
-0.0338334586592594
-0.0319735468203855
-0.0304969379666455
-0.0292909377203434
-0.0282827097909235
-0.0274233093924482
-0.0266787996058493
-0.0260249998334401
-0.0254442751946495
-0.0249235290802227
-0.0244528733352843
-0.02402466613899
-0.0236328195383357
-0.0232723879942115
-0.022939387551714
-0.0226306775344441
-0.0223437496976751
-0.0220764416376186
-0.0218267454722915
-0.0215928415206982
-0.0213732811769484
-0.0211670885478208
-0.0209736178078335
-0.0207922410094172
-0.020622126611228
-0.0204623242200847
-0.0203121258877343
-0.0201714341098609
-0.0200408301271297
-0.0199212333038156
-0.0198133230426685
-0.0197170560695516
-0.0196315496230851
-0.0195553719431826
-0.0194870465888737
-0.019425481436573
-0.0193701140153639
-0.0193207475832339
-0.0192772180647941
-0.0192390953531647
-0.0192055707200825
-0.0191755647040933
-0.0191479788253691
-0.0191219623535309
-0.0190970829578619
-0.0190733515569507
-0.0190511177694612
-0.0190308939075515
-0.0190131738592352
-0.018998296668159
-0.0189863777578086
-0.0189773059946866
-0.0189707887653543
-0.0189664212456581
-0.0189637580284015
-0.0189623719000691
-0.0189618925053104
-0.0189620244704163
-0.0189625489855808
-0.0189633146934816
-0.0189642235472093
-0.0189652159569763
-0.0189662578421994
-0.0189673307043194
-0.0189684247826743
-0.0189695347871606
-0.0189706575041384
-0.0189717906127181
-0.0189729321927813
-0.0189740805755751
-0.0189752343284538
-0.0189763922697447
-0.0189775534704948
-0.0189787172357629
-0.0189798830698165
-0.0189810506353259
-0.0189822197127812
-0.018983390165936
-0.0189845619139204
-0.01898573491128
-0.0189869091337143
-0.0189880845694593
-0.0189892612134723
-0.0189904390648082
-0.0189916181246889
-0.0189927983961681
-0.0189939798835224
-0.0189951625924403
-0.0189963465297223
-0.018997531703395
-0.0189987181223212
-0.0189999057962865
-0.0190010947355306
-0.0190022849507541
-0.0190034764526789
-0.0190046692520896
-0.0190058633593873
-0.0190070587847701
-0.0190082555377444
-0.0190094536274351
-0.0190106530621622
-0.0190118538497319
-0.019013055997118
-0.019014259510744
-0.0190154643962319
-0.0190166706586895
-0.0190178783024222
-0.0190190873313202
-0.0190202977485335
-0.0190215095568253
-0.0190227227582971
-0.0190239373547541
-0.0190251533473403
-0.0190263707369701
-0.0190275895239743
-0.0190288097084756
-0.0190300312900518
-0.0190312542680976
-0.0190324786415101
-0.0190337044090142
-0.0190349315688776
-0.0190361601192058
-0.0190373900576661
-0.0190386213817788
-0.0190398540886505
-0.0190410881752703
-0.0190423236381936
-0.0190435604739063
-0.0190447986784506
-0.0190460382478223
-0.0190472791776265
-0.0190485214633892
-0.0190497651002765
-0.0190510100833895
-0.0190522564074952
-0.0190535040673365
-0.0190547530572992
-0.0190560033717847
-0.0190572550048451
-0.0190585079505767
-0.0190597622027634
-0.0190610177552235
-0.0190622746014994
-0.019063532735188
-0.0190647921496084
-0.0190660528381953
-0.0190673147941033
-0.0190685780105942
-0.0190698424807076
-0.0190711081976138
-0.0190723751542538
-0.019073643343725
-0.0190749127589145
-0.0190761833928828
-0.0190774552385066
-0.0190787282888431
-0.0190800025367809
-0.019081277975402
-0.019082554597656
-0.0190838323966757
-0.0190851113654752
-0.0190863914972705
-0.0190876727851953
-0.0190889552225867
-0.0190902388026612
-0.019091523518903
-0.0190928093646982
-0.0190940963336651
-0.01909538441935
-0.0190966736155535
-0.0190979639160056
-0.0190992553146779
-0.0191005478055179
-0.0191018413827027
-0.0191031360403584
-0.0191044317728938
-0.0191057285746564
-0.019107026440274
-0.0191083253643243
-0.0191096253416682
-0.0191109263671078
-0.0191122284357487
-0.0191135315426311
-0.0191148356830977
-0.0191161408524416
-0.0191174470462431
-0.0191187542600303
-0.0191200624896369
-0.0191213717308354
-0.019122681979699
-0.0191239932322556
-0.0191253054847979
-0.0191266187336019
-0.0191279329752202
-0.0191292482061543
-0.0191305644231736
-0.0191318816230339
-0.0191331998027347
-0.0191345189592413
-0.0191358390898026
-0.0191371601915861
-0.0191384822620743
-0.019139805298651
-0.0191411292989829
-0.0191424542606913
-0.0191437801816475
-0.0191451070596687
-0.0191464348928164
-0.0191477636791058
-0.0191490934167821
-0.0191504241040647
-0.0191517557393914
-0.0191530883211132
-0.0191544218478771
-0.0191557563182198
-0.0191570917309127
-0.0191584280846732
-0.0191597653784594
-0.0191611036111301
-0.0191624427817575
-0.0191637828893631
-0.0191651239332044
-0.0191664659124047
-0.0191678088263442
-0.0191691526742996
-0.0191704974557658
-0.019171843170132
-0.0191731898170268
-0.0191745373959396
-0.0191758859065994
-0.019177235348601
-0.0191785857217764
-0.0191799370258217
-0.0191812892606451
-0.0191826424260295
-0.0191839965219704
-0.019185351548341
-0.0191867075052107
-0.0191880643925222
-0.0191894222104137
-0.0191907809588986
-0.0191921406381982
-0.019193501248392
-0.0191948627897453
-0.0191962252624109
-0.0191975886667174
-0.0191989530028618
-0.0192003182712492
-0.0192016844721228
-0.0192030516059449
-0.0192044196729988
-0.0192057886737798
-0.0192071586086587
-0.0192085294781613
-0.019209901282691
-0.0192112740228136
-0.0192126476989722
-0.0192140223117906
-0.0192153978617321
-0.0192167743494632
-0.0192181517754842
-0.019219530140476
-0.019220909444989
-0.0192222896897347
-0.0192236708752809
-0.019225053002378
-0.0192264360716198
-0.0192278200837759
-0.0192292050394751
-0.0192305909395132
-0.0192319777845386
-0.0192333655753697
-0.019234754312674
-0.0192361439973052
-0.0192375346299421
-0.0192389262114663
-0.0192403187425854
-0.01924171222418
-0.0192431066569954
-0.0192445020419168
-0.0192458983797222
-0.0192472956713182
-0.0192486939174929
-0.0192500931191761
-0.0192514932771624
-0.0192528943924233
-0.0192542964657615
-0.0192556994981524
-0.0192571034904357
-0.0192585084435951
-0.0192599143584808
-0.0192613212361232
-0.0192627290773801
-0.0192641378832738
-0.0192655476547009
-0.0192669583927103
-0.019268370098206
-0.0192697827722572
-0.0192711964157879
-0.019272611029893
-0.0192740266155035
-0.0192754431737408
-0.0192768607055523
-0.0192782792120951
-0.0192796986943327
-0.0192811191534264
-0.0192825405903809
-0.0192839630063742
-0.0192853864024325
-0.0192868107797538
-0.0192882361393947
-0.0192896624825787
-0.0192910898103849
-0.0192925181240664
-0.0192939474247249
-0.0192953777136431
-0.0192968089919512
-0.019298241260949
-0.0192996745218261
-0.0193011087758954
-0.0193025440243711
-0.0193039802686167
-0.0193054175098814
-0.0193068557495477
-0.0193082949888952
-0.0193097352293771
-0.0193111764723018
-0.0193126187191385
-0.0193140619712584
-0.019315506230153
-0.0193169514973338
-0.0193183977741357
-0.0193198450624795
-0.0193212933630272
-0.0193227426792404
-0.0193241930088717
-0.0193256443611603
-0.0193270967232201
-0.0193285501237529
-0.0193300045156372
-0.019331459986673
-0.0193329163910367
-0.0193343739770082
-0.019335832346069
-0.0193372921326653
-0.0193387523670123
-0.0193402145021377
-0.019341676433573
-0.0193431411361579
-0.0193446045317365
-0.0193460720716152
-0.0193475366706353
-0.0193490073168807
-0.0193504728916392
-0.019351946849409
-0.0193534132640902
-0.0193548906243706
-0.0193563578726232
-0.0193578385918607
-0.019359306788901
-0.0193607907412044
-0.0193622600085138
-0.0193637471705931
-0.0193652173950103
-0.0193667081003306
-0.0193681787221005
-0.0193696737856339
-0.0193711437668668
-0.0193726444610325
-0.0193741123200711
-0.0193756203524163
-0.0193770842356759
-0.0193786015660595
-0.0193800596451403
-0.0193815879513605
-0.0193830391465921
-0.0193845791118092
-0.0193860241286438
-0.019387574380234
-0.0193890176261004
-0.0193905727381242
-0.0193920264134388
-0.0193935724282058
-0.0193950656393871
-0.0193965694272044
-0.0193981700412355
-0.0193995406627675
-0.0194014185541521
-0.0194023189478554
-0.0194048769792783
-0.0194025809524283
-0.0194025809524283
-0.0194025809524283
1
0.131662941519227
0.0682696389622431
0.052296520880754
0.0444204859601086
0.0395774562316934
0.036260432952209
0.0338334586592594
0.0319735468203855
0.0304969379666455
0.0292909377203434
0.0282827097909235
0.0274233093924482
0.0266787996058493
0.0260249998334401
0.0254442751946495
0.0249235290802227
0.0244528733352843
0.02402466613899
0.0236328195383357
0.0232723879942115
0.022939387551714
0.0226306775344441
0.0223437496976751
0.0220764416376186
0.0218267454722915
0.0215928415206982
0.0213732811769484
0.0211670885478208
0.0209736178078335
0.0207922410094172
0.020622126611228
0.0204623242200847
0.0203121258877343
0.0201714341098609
0.0200408301271297
0.0199212333038156
0.0198133230426685
0.0197170560695516
0.0196315496230851
0.0195553719431826
0.0194870465888737
0.019425481436573
0.0193701140153639
0.0193207475832339
0.0192772180647941
0.0192390953531647
0.0192055707200825
0.0191755647040933
0.0191479788253691
0.0191219623535309
0.0190970829578619
0.0190733515569507
0.0190511177694612
0.0190308939075515
0.0190131738592352
0.018998296668159
0.0189863777578086
0.0189773059946866
0.0189707887653543
0.0189664212456581
0.0189637580284015
0.0189623719000691
0.0189618925053104
0.0189620244704163
0.0189625489855808
0.0189633146934816
0.0189642235472093
0.0189652159569763
0.0189662578421994
0.0189673307043194
0.0189684247826743
0.0189695347871606
0.0189706575041384
0.0189717906127181
0.0189729321927813
0.0189740805755751
0.0189752343284538
0.0189763922697447
0.0189775534704948
0.0189787172357629
0.0189798830698165
0.0189810506353259
0.0189822197127812
0.018983390165936
0.0189845619139204
0.01898573491128
0.0189869091337143
0.0189880845694593
0.0189892612134723
0.0189904390648082
0.0189916181246889
0.0189927983961681
0.0189939798835224
0.0189951625924403
0.0189963465297223
0.018997531703395
0.0189987181223212
0.0189999057962865
0.0190010947355306
0.0190022849507541
0.0190034764526789
0.0190046692520896
0.0190058633593873
0.0190070587847701
0.0190082555377444
0.0190094536274351
0.0190106530621622
0.0190118538497319
0.019013055997118
0.019014259510744
0.0190154643962319
0.0190166706586895
0.0190178783024222
0.0190190873313202
0.0190202977485335
0.0190215095568253
0.0190227227582971
0.0190239373547541
0.0190251533473403
0.0190263707369701
0.0190275895239743
0.0190288097084756
0.0190300312900518
0.0190312542680976
0.0190324786415101
0.0190337044090142
0.0190349315688776
0.0190361601192058
0.0190373900576661
0.0190386213817788
0.0190398540886505
0.0190410881752703
0.0190423236381936
0.0190435604739063
0.0190447986784506
0.0190460382478223
0.0190472791776265
0.0190485214633892
0.0190497651002765
0.0190510100833895
0.0190522564074952
0.0190535040673365
0.0190547530572992
0.0190560033717847
0.0190572550048451
0.0190585079505767
0.0190597622027634
0.0190610177552235
0.0190622746014994
0.019063532735188
0.0190647921496084
0.0190660528381953
0.0190673147941033
0.0190685780105942
0.0190698424807076
0.0190711081976138
0.0190723751542538
0.019073643343725
0.0190749127589145
0.0190761833928828
0.0190774552385066
0.0190787282888431
0.0190800025367809
0.019081277975402
0.019082554597656
0.0190838323966757
0.0190851113654752
0.0190863914972705
0.0190876727851953
0.0190889552225867
0.0190902388026612
0.019091523518903
0.0190928093646982
0.0190940963336651
0.01909538441935
0.0190966736155535
0.0190979639160056
0.0190992553146779
0.0191005478055179
0.0191018413827027
0.0191031360403584
0.0191044317728938
0.0191057285746564
0.019107026440274
0.0191083253643243
0.0191096253416682
0.0191109263671078
0.0191122284357487
0.0191135315426311
0.0191148356830977
0.0191161408524416
0.0191174470462431
0.0191187542600303
0.0191200624896369
0.0191213717308354
0.019122681979699
0.0191239932322556
0.0191253054847979
0.0191266187336019
0.0191279329752202
0.0191292482061543
0.0191305644231736
0.0191318816230339
0.0191331998027347
0.0191345189592413
0.0191358390898026
0.0191371601915861
0.0191384822620743
0.019139805298651
0.0191411292989829
0.0191424542606913
0.0191437801816475
0.0191451070596687
0.0191464348928164
0.0191477636791058
0.0191490934167821
0.0191504241040647
0.0191517557393914
0.0191530883211132
0.0191544218478771
0.0191557563182198
0.0191570917309127
0.0191584280846732
0.0191597653784594
0.0191611036111301
0.0191624427817575
0.0191637828893631
0.0191651239332044
0.0191664659124047
0.0191678088263442
0.0191691526742996
0.0191704974557658
0.019171843170132
0.0191731898170268
0.0191745373959396
0.0191758859065994
0.019177235348601
0.0191785857217764
0.0191799370258217
0.0191812892606451
0.0191826424260295
0.0191839965219704
0.019185351548341
0.0191867075052107
0.0191880643925222
0.0191894222104137
0.0191907809588986
0.0191921406381982
0.019193501248392
0.0191948627897453
0.0191962252624109
0.0191975886667174
0.0191989530028618
0.0192003182712492
0.0192016844721228
0.0192030516059449
0.0192044196729988
0.0192057886737798
0.0192071586086587
0.0192085294781613
0.019209901282691
0.0192112740228136
0.0192126476989722
0.0192140223117906
0.0192153978617321
0.0192167743494632
0.0192181517754842
0.019219530140476
0.019220909444989
0.0192222896897347
0.0192236708752809
0.019225053002378
0.0192264360716198
0.0192278200837759
0.0192292050394751
0.0192305909395132
0.0192319777845386
0.0192333655753697
0.019234754312674
0.0192361439973052
0.0192375346299421
0.0192389262114663
0.0192403187425854
0.01924171222418
0.0192431066569954
0.0192445020419168
0.0192458983797222
0.0192472956713182
0.0192486939174929
0.0192500931191761
0.0192514932771624
0.0192528943924233
0.0192542964657615
0.0192556994981524
0.0192571034904357
0.0192585084435951
0.0192599143584808
0.0192613212361232
0.0192627290773801
0.0192641378832738
0.0192655476547009
0.0192669583927103
0.019268370098206
0.0192697827722572
0.0192711964157879
0.019272611029893
0.0192740266155035
0.0192754431737408
0.0192768607055523
0.0192782792120951
0.0192796986943327
0.0192811191534264
0.0192825405903809
0.0192839630063742
0.0192853864024325
0.0192868107797538
0.0192882361393947
0.0192896624825787
0.0192910898103849
0.0192925181240664
0.0192939474247249
0.0192953777136431
0.0192968089919512
0.019298241260949
0.0192996745218261
0.0193011087758954
0.0193025440243711
0.0193039802686167
0.0193054175098814
0.0193068557495477
0.0193082949888952
0.0193097352293771
0.0193111764723018
0.0193126187191385
0.0193140619712584
0.019315506230153
0.0193169514973338
0.0193183977741357
0.0193198450624795
0.0193212933630272
0.0193227426792404
0.0193241930088717
0.0193256443611603
0.0193270967232201
0.0193285501237529
0.0193300045156372
0.019331459986673
0.0193329163910367
0.0193343739770082
0.019335832346069
0.0193372921326653
0.0193387523670123
0.0193402145021377
0.019341676433573
0.0193431411361579
0.0193446045317365
0.0193460720716152
0.0193475366706353
0.0193490073168807
0.0193504728916392
0.019351946849409
0.0193534132640902
0.0193548906243706
0.0193563578726232
0.0193578385918607
0.019359306788901
0.0193607907412044
0.0193622600085138
0.0193637471705931
0.0193652173950103
0.0193667081003306
0.0193681787221005
0.0193696737856339
0.0193711437668668
0.0193726444610325
0.0193741123200711
0.0193756203524163
0.0193770842356759
0.0193786015660595
0.0193800596451403
0.0193815879513605
0.0193830391465921
0.0193845791118092
0.0193860241286438
0.019387574380234
0.0193890176261004
0.0193905727381242
0.0193920264134388
0.0193935724282058
0.0193950656393871
0.0193965694272044
0.0193981700412355
0.0193995406627675
0.0194014185541521
0.0194023189478554
0.0194048769792783
0.0194025809524283
0.0194025809524283
0.0194025809524283
1
0.344884558279702
0.200668771677953
0.154968611215482
0.131896222118964
0.11760049436465
0.107770044307963
0.100560348657413
0.0950275479643634
0.0906318626220081
0.0870409281884934
0.084039207979544
0.0814814367837364
0.0792666329982475
0.0773227051916412
0.0755970123248434
0.0740504163142156
0.0726533138538031
0.0713827885748457
0.0702206033722496
0.0691520090643129
0.0681651659040108
0.0672507073911827
0.0664010775002113
0.0656097417404386
0.0648707220315314
0.0641787272279623
0.0635296057501152
0.0629205115246342
0.0623494314631545
0.061814358016487
0.0613128056543553
0.0608421600947493
0.0604006721338613
0.0599883315910457
0.0596068595481735
0.0592586424815033
0.0589451585304946
0.0586657938466823
0.058417698067023
0.0581966880261957
0.057998619095366
0.0578204580910696
0.0576605624829769
0.0575181692593455
0.0573925081663072
0.0572820755975717
0.0571844315599554
0.0570965612062477
0.0570155646854651
0.0569393299078792
0.0568669140512986
0.0567985324908816
0.0567352240145748
0.0566783582154056
0.0566291599617331
0.0565883734727905
0.0565561145982336
0.0565318959569475
0.0565147709914695
0.0565035312828772
0.056496900055141
0.0564936842988868
0.0564928696003493
0.0564936594604003
0.0564954716961027
0.0564979084035188
0.0565007146618672
0.0565037371074271
0.0565068887952588
0.0565101227987233
0.0565134143207933
0.0565167497252115
0.0565201204926698
0.0565235202992523
0.0565269438421087
0.0565303865076557
0.0565338443530627
0.0565373141451682
0.0565407933553649
0.056544280098688
0.056547773031981
0.0565512712390874
0.0565547741192256
0.0565582812933596
0.0565617925294321
0.0565653076894011
0.0565688266916272
0.0565723494882435
0.056575876050069
0.056579406359682
0.0565829404064381
0.0565864781855017
0.0565900196961741
0.0565935649423475
0.056597113931431
0.0566006666747262
0.0566042231861457
0.0566077834824319
0.0566113475817118
0.0566149155036255
0.0566184872679062
0.0566220628946254
0.0566256424028792
0.0566292258112557
0.0566328131366234
0.0566364043948311
0.056639999599651
0.0566435987635657
0.056647201896895
0.056650809008619
0.0566544201056257
0.0566580351935935
0.0566616542761915
0.0566652773561009
0.056668904434181
0.0566725355104586
0.0566761705833425
0.0566798096506049
0.0566834527085227
0.0566870997528961
0.0566907507782
0.056694405778546
0.0566980647468125
0.0567017276756131
0.0567053945564299
0.0567090653805352
0.0567127401381531
0.0567164188193519
0.0567201014131948
0.0567237879086281
0.0567274782936613
0.056731172556227
0.0567348706833235
0.0567385726619477
0.0567422784781792
0.0567459881181328
0.0567497015670728
0.0567534188103
0.0567571398323205
0.0567608646177052
0.0567645931502739
0.0567683254139861
0.056772061392052
0.0567758010678734
0.0567795444241462
0.0567832914438072
0.0567870421091461
0.0567907964027151
0.0567945543064747
0.0567983158026969
0.0568020808730833
0.0568058494997199
0.056809621664162
0.0568133973483565
0.0568171765338013
0.05682095920243
0.0568247453357359
0.0568285349157027
0.0568323279239095
0.0568361243424682
0.0568399241531226
0.0568437273381728
0.0568475338795904
0.0568513437599308
0.0568551569614687
0.0568589734670691
0.0568627932593422
0.056866616321527
0.0568704426366461
0.0568742721883696
0.0568781049601287
0.0568819409360624
0.056885780100111
0.0568896224368936
0.0568934679308686
0.0568973165671985
0.0569011683308837
0.056905023207642
0.0569088811830652
0.056912742243451
0.0569166063749567
0.0569204735644981
0.0569243437988507
0.0569282170655353
0.0569320933519455
0.0569359726462333
0.0569398549364056
0.0569437402112519
0.0569476284594084
0.0569515196702912
0.0569554138331739
0.0569593109380944
0.0569632109749487
0.0569671139344025
0.0569710198069721
0.056974928583937
0.0569788402564343
0.0569827548163232
0.056986672255349
0.0569905925659851
0.0569945157405515
0.056998441772083
0.0570023706534886
0.0570063023783642
0.0570102369401572
0.0570141743330273
0.057018114550942
0.0570220575886108
0.0570260034405064
0.0570299521018222
0.0570339035675611
0.0570378578334051
0.0570418148948308
0.0570457747479711
0.0570497373887774
0.0570537028138195
0.0570576710195105
0.0570616420028641
0.0570656157606535
0.057069592290342
0.0570735715891191
0.0570775536548016
0.0570815384849788
0.0570855260778542
0.0570895164313667
0.0570935095440468
0.0570975054141794
0.057101504040663
0.0571055054220768
0.057109509557611
0.0571135164461617
0.0571175260872005
0.057121538479887
0.0571255536239757
0.0571295715188681
0.0571335921645531
0.0571376155606649