# vtk DataFile Version 2.0
FlowField
ASCII
DATASET STRUCTURED_GRID
DIMENSIONS 400 1 200
POINTS 80000 float
0 0 0
0.08 0 0
0.16 0 0
0.24 0 0
0.32 0 0
0.4 0 0
0.48 0 0
0.56 0 0
0.64 0 0
0.72 0 0
0.8 0 0
0.88 0 0
0.96 0 0
1.04 0 0
1.12 0 0
1.2 0 0
1.28 0 0
1.36 0 0
1.44 0 0
1.52 0 0
1.6 0 0
1.68 0 0
1.76 0 0
1.84 0 0
1.92 0 0
2 0 0
2.08 0 0
2.16 0 0
2.24 0 0
2.32 0 0
2.4 0 0
2.48 0 0
2.56 0 0
2.64 0 0
2.72 0 0
2.8 0 0
2.88 0 0
2.96 0 0
3.04 0 0
3.12 0 0
3.2 0 0
3.28 0 0
3.36 0 0
3.44 0 0
3.52 0 0
3.6 0 0
3.68 0 0
3.76 0 0
3.84 0 0
3.92 0 0
4 0 0
4.08 0 0
4.16 0 0
4.24 0 0
4.32 0 0
4.4 0 0
4.48 0 0
4.56 0 0
4.64 0 0
4.72 0 0
4.8 0 0
4.88 0 0
4.96 0 0
5.04 0 0
5.12 0 0
5.2 0 0
5.28 0 0
5.36 0 0
5.44 0 0
5.52 0 0
5.6 0 0
5.68 0 0
5.76 0 0
5.84 0 0
5.92 0 0
6 0 0
6.08 0 0
6.16 0 0
6.24 0 0
6.32 0 0
6.4 0 0
6.48 0 0
6.56 0 0
6.64 0 0
6.72 0 0
6.8 0 0
6.88 0 0
6.96 0 0
7.04 0 0
7.12 0 0
7.2 0 0
7.28 0 0
7.36 0 0
7.44 0 0
7.52 0 0
7.6 0 0
7.68 0 0
7.76 0 0
7.84 0 0
7.92 0 0
8 0 0
8.08 0 0
8.16 0 0
8.24 0 0
8.32 0 0
8.4 0 0
8.48 0 0
8.56 0 0
8.64 0 0
8.72 0 0
8.8 0 0
8.88 0 0
8.96 0 0
9.04 0 0
9.12 0 0
9.2 0 0
9.28 0 0
9.36 0 0
9.44 0 0
9.52 0 0
9.6 0 0
9.68 0 0
9.76 0 0
9.84 0 0
9.92 0 0
10 0 0
10.08 0 0
10.16 0 0
10.24 0 0
10.32 0 0
10.4 0 0
10.48 0 0
10.56 0 0
10.64 0 0
10.72 0 0
10.8 0 0
10.88 0 0
10.96 0 0
11.04 0 0
11.12 0 0
11.2 0 0
11.28 0 0
11.36 0 0
11.44 0 0
11.52 0 0
11.6 0 0
11.68 0 0
11.76 0 0
11.84 0 0
11.92 0 0
12 0 0
12.08 0 0
12.16 0 0
12.24 0 0
12.32 0 0
12.4 0 0
12.48 0 0
12.56 0 0
12.64 0 0
12.72 0 0
12.8 0 0
12.88 0 0
12.96 0 0
13.04 0 0
13.12 0 0
13.2 0 0
13.28 0 0
13.36 0 0
13.44 0 0
13.52 0 0
13.6 0 0
13.68 0 0
13.76 0 0
13.84 0 0
13.92 0 0
14 0 0
14.08 0 0
14.16 0 0
14.24 0 0
14.32 0 0
14.4 0 0
14.48 0 0
14.56 0 0
14.64 0 0
14.72 0 0
14.8 0 0
14.88 0 0
14.96 0 0
15.04 0 0
15.12 0 0
15.2 0 0
15.28 0 0
15.36 0 0
15.44 0 0
15.52 0 0
15.6 0 0
15.68 0 0
15.76 0 0
15.84 0 0
15.92 0 0
16 0 0
16.08 0 0
16.16 0 0
16.24 0 0
16.32 0 0
16.4 0 0
16.48 0 0
16.56 0 0
16.64 0 0
16.72 0 0
16.8 0 0
16.88 0 0
16.96 0 0
17.04 0 0
17.12 0 0
17.2 0 0
17.28 0 0
17.36 0 0
17.44 0 0
17.52 0 0
17.6 0 0
17.68 0 0
17.76 0 0
17.84 0 0
17.92 0 0
18 0 0
18.08 0 0
18.16 0 0
18.24 0 0
18.32 0 0
18.4 0 0
18.48 0 0
18.56 0 0
18.64 0 0
18.72 0 0
18.8 0 0
18.88 0 0
18.96 0 0
19.04 0 0
19.12 0 0
19.2 0 0
19.28 0 0
19.36 0 0
19.44 0 0
19.52 0 0
19.6 0 0
19.68 0 0
19.76 0 0
19.84 0 0
19.92 0 0
20 0 0
20.08 0 0
20.16 0 0
20.24 0 0
20.32 0 0
20.4 0 0
20.48 0 0
20.56 0 0
20.64 0 0
20.72 0 0
20.8 0 0
20.88 0 0
20.96 0 0
21.04 0 0
21.12 0 0
21.2 0 0
21.28 0 0
21.36 0 0
21.44 0 0
21.52 0 0
21.6 0 0
21.68 0 0
21.76 0 0
21.84 0 0
21.92 0 0
22 0 0
22.08 0 0
22.16 0 0
22.24 0 0
22.32 0 0
22.4 0 0
22.48 0 0
22.56 0 0
22.64 0 0
22.72 0 0
22.8 0 0
22.88 0 0
22.96 0 0
23.04 0 0
23.12 0 0
23.2 0 0
23.28 0 0
23.36 0 0
23.44 0 0
23.52 0 0
23.6 0 0
23.68 0 0
23.76 0 0
23.84 0 0
23.92 0 0
24 0 0
24.08 0 0
24.16 0 0
24.24 0 0
24.32 0 0
24.4 0 0
24.48 0 0
24.56 0 0
24.64 0 0
24.72 0 0
24.8 0 0
24.88 0 0
24.96 0 0
25.04 0 0
25.12 0 0
25.2 0 0
25.28 0 0
25.36 0 0
25.44 0 0
25.52 0 0
25.6 0 0
25.68 0 0
25.76 0 0
25.84 0 0
25.92 0 0
26 0 0
26.08 0 0
26.16 0 0
26.24 0 0
26.32 0 0
26.4 0 0
26.48 0 0
26.56 0 0
26.64 0 0
26.72 0 0
26.8 0 0
26.88 0 0
26.96 0 0
27.04 0 0
27.12 0 0
27.2 0 0
27.28 0 0
27.36 0 0
27.44 0 0
27.52 0 0
27.6 0 0
27.68 0 0
27.76 0 0
27.84 0 0
27.92 0 0
28 0 0
28.08 0 0
28.16 0 0
28.24 0 0
28.32 0 0
28.4 0 0
28.48 0 0
28.56 0 0
28.64 0 0
28.72 0 0
28.8 0 0
28.88 0 0
28.96 0 0
29.04 0 0
29.12 0 0
29.2 0 0
29.28 0 0
29.36 0 0
29.44 0 0
29.52 0 0
29.6 0 0
29.68 0 0
29.76 0 0
29.84 0 0
29.92 0 0
30 0 0
30.08 0 0
30.16 0 0
30.24 0 0
30.32 0 0
30.4 0 0
30.48 0 0
30.56 0 0
30.64 0 0
30.72 0 0
30.8 0 0
30.88 0 0
30.96 0 0
31.04 0 0
31.12 0 0
31.2 0 0
31.28 0 0
31.36 0 0
31.44 0 0
31.52 0 0
31.6 0 0
31.68 0 0
31.76 0 0
31.84 0 0
31.92 0 0
0 0.005 0
0.08 0.005 0
0.16 0.005 0
0.24 0.005 0
0.32 0.005 0
0.4 0.005 0
0.48 0.005 0
0.56 0.005 0
0.64 0.005 0
0.72 0.005 0
0.8 0.005 0
0.88 0.005 0
0.96 0.005 0
1.04 0.005 0
1.12 0.005 0
1.2 0.005 0
1.28 0.005 0
1.36 0.005 0
1.44 0.005 0
1.52 0.005 0
1.6 0.005 0
1.68 0.005 0
1.76 0.005 0
1.84 0.005 0
1.92 0.005 0
2 0.005 0
2.08 0.005 0
2.16 0.005 0
2.24 0.005 0
2.32 0.005 0
2.4 0.005 0
2.48 0.005 0
2.56 0.005 0
2.64 0.005 0
2.72 0.005 0
2.8 0.005 0
2.88 0.005 0
2.96 0.005 0
3.04 0.005 0
3.12 0.005 0
3.2 0.005 0
3.28 0.005 0
3.36 0.005 0
3.44 0.005 0
3.52 0.005 0
3.6 0.005 0
3.68 0.005 0
3.76 0.005 0
3.84 0.005 0
3.92 0.005 0
4 0.005 0
4.08 0.005 0
4.16 0.005 0
4.24 0.005 0
4.32 0.005 0
4.4 0.005 0
4.48 0.005 0
4.56 0.005 0
4.64 0.005 0
4.72 0.005 0
4.8 0.005 0
4.88 0.005 0
4.96 0.005 0
5.04 0.005 0
5.12 0.005 0
5.2 0.005 0
5.28 0.005 0
5.36 0.005 0
5.44 0.005 0
5.52 0.005 0
5.6 0.005 0
5.68 0.005 0
5.76 0.005 0
5.84 0.005 0
5.92 0.005 0
6 0.005 0
6.08 0.005 0
6.16 0.005 0
6.24 0.005 0
6.32 0.005 0
6.4 0.005 0
6.48 0.005 0
6.56 0.005 0
6.64 0.005 0
6.72 0.005 0
6.8 0.005 0
6.88 0.005 0
6.96 0.005 0
7.04 0.005 0
7.12 0.005 0
7.2 0.005 0
7.28 0.005 0
7.36 0.005 0
7.44 0.005 0
7.52 0.005 0
7.6 0.005 0
7.68 0.005 0
7.76 0.005 0
7.84 0.005 0
7.92 0.005 0
8 0.005 0
8.08 0.005 0
8.16 0.005 0
8.24 0.005 0
8.32 0.005 0
8.4 0.005 0
8.48 0.005 0
8.56 0.005 0
8.64 0.005 0
8.72 0.005 0
8.8 0.005 0
8.88 0.005 0
8.96 0.005 0
9.04 0.005 0
9.12 0.005 0
9.2 0.005 0
9.28 0.005 0
9.36 0.005 0
9.44 0.005 0
9.52 0.005 0
9.6 0.005 0
9.68 0.005 0
9.76 0.005 0
9.84 0.005 0
9.92 0.005 0
10 0.005 0
10.08 0.005 0
10.16 0.005 0
10.24 0.005 0
10.32 0.005 0
10.4 0.005 0
10.48 0.005 0
10.56 0.005 0
10.64 0.005 0
10.72 0.005 0
10.8 0.005 0
10.88 0.005 0
10.96 0.005 0
11.04 0.005 0
11.12 0.005 0
11.2 0.005 0
11.28 0.005 0
11.36 0.005 0
11.44 0.005 0
11.52 0.005 0
11.6 0.005 0
11.68 0.005 0
11.76 0.005 0
11.84 0.005 0
11.92 0.005 0
12 0.005 0
12.08 0.005 0
12.16 0.005 0
12.24 0.005 0
12.32 0.005 0
12.4 0.005 0
12.48 0.005 0
12.56 0.005 0
12.64 0.005 0
12.72 0.005 0
12.8 0.005 0
12.88 0.005 0
12.96 0.005 0
13.04 0.005 0
13.12 0.005 0
13.2 0.005 0
13.28 0.005 0
13.36 0.005 0
13.44 0.005 0
13.52 0.005 0
13.6 0.005 0
13.68 0.005 0
13.76 0.005 0
13.84 0.005 0
13.92 0.005 0
14 0.005 0
14.08 0.005 0
14.16 0.005 0
14.24 0.005 0
14.32 0.005 0
14.4 0.005 0
14.48 0.005 0
14.56 0.005 0
14.64 0.005 0
14.72 0.005 0
14.8 0.005 0
14.88 0.005 0
14.96 0.005 0
15.04 0.005 0
15.12 0.005 0
15.2 0.005 0
15.28 0.005 0
15.36 0.005 0
15.44 0.005 0
15.52 0.005 0
15.6 0.005 0
15.68 0.005 0
15.76 0.005 0
15.84 0.005 0
15.92 0.005 0
16 0.005 0
16.08 0.005 0
16.16 0.005 0
16.24 0.005 0
16.32 0.005 0
16.4 0.005 0
16.48 0.005 0
16.56 0.005 0
16.64 0.005 0
16.72 0.005 0
16.8 0.005 0
16.88 0.005 0
16.96 0.005 0
17.04 0.005 0
17.12 0.005 0
17.2 0.005 0
17.28 0.005 0
17.36 0.005 0
17.44 0.005 0
17.52 0.005 0
17.6 0.005 0
17.68 0.005 0
17.76 0.005 0
17.84 0.005 0
17.92 0.005 0
18 0.005 0
18.08 0.005 0
18.16 0.005 0
18.24 0.005 0
18.32 0.005 0
18.4 0.005 0
18.48 0.005 0
18.56 0.005 0
18.64 0.005 0
18.72 0.005 0
18.8 0.005 0
18.88 0.005 0
18.96 0.005 0
19.04 0.005 0
19.12 0.005 0
19.2 0.005 0
19.28 0.005 0
19.36 0.005 0
19.44 0.005 0
19.52 0.005 0
19.6 0.005 0
19.68 0.005 0
19.76 0.005 0
19.84 0.005 0
19.92 0.005 0
20 0.005 0
20.08 0.005 0
20.16 0.005 0
20.24 0.005 0
20.32 0.005 0
20.4 0.005 0
20.48 0.005 0
20.56 0.005 0
20.64 0.005 0
20.72 0.005 0
20.8 0.005 0
20.88 0.005 0
20.96 0.005 0
21.04 0.005 0
21.12 0.005 0
21.2 0.005 0
21.28 0.005 0
21.36 0.005 0
21.44 0.005 0
21.52 0.005 0
21.6 0.005 0
21.68 0.005 0
21.76 0.005 0
21.84 0.005 0
21.92 0.005 0
22 0.005 0
22.08 0.005 0
22.16 0.005 0
22.24 0.005 0
22.32 0.005 0
22.4 0.005 0
22.48 0.005 0
22.56 0.005 0
22.64 0.005 0
22.72 0.005 0
22.8 0.005 0
22.88 0.005 0
22.96 0.005 0
23.04 0.005 0
23.12 0.005 0
23.2 0.005 0
23.28 0.005 0
23.36 0.005 0
23.44 0.005 0
23.52 0.005 0
23.6 0.005 0
23.68 0.005 0
23.76 0.005 0
23.84 0.005 0
23.92 0.005 0
24 0.005 0
24.08 0.005 0
24.16 0.005 0
24.24 0.005 0
24.32 0.005 0
24.4 0.005 0
24.48 0.005 0
24.56 0.005 0
24.64 0.005 0
24.72 0.005 0
24.8 0.005 0
24.88 0.005 0
24.96 0.005 0
25.04 0.005 0
25.12 0.005 0
25.2 0.005 0
25.28 0.005 0
25.36 0.005 0
25.44 0.005 0
25.52 0.005 0
25.6 0.005 0
25.68 0.005 0
25.76 0.005 0
25.84 0.005 0
25.92 0.005 0
26 0.005 0
26.08 0.005 0
26.16 0.005 0
26.24 0.005 0
26.32 0.005 0
26.4 0.005 0
26.48 0.005 0
26.56 0.005 0
26.64 0.005 0
26.72 0.005 0
26.8 0.005 0
26.88 0.005 0
26.96 0.005 0
27.04 0.005 0
27.12 0.005 0
27.2 0.005 0
27.28 0.005 0
27.36 0.005 0
27.44 0.005 0
27.52 0.005 0
27.6 0.005 0
27.68 0.005 0
27.76 0.005 0
27.84 0.005 0
27.92 0.005 0
28 0.005 0
28.08 0.005 0
28.16 0.005 0
28.24 0.005 0
28.32 0.005 0
28.4 0.005 0
28.48 0.005 0
28.56 0.005 0
28.64 0.005 0
28.72 0.005 0
28.8 0.005 0
28.88 0.005 0
28.96 0.005 0
29.04 0.005 0
29.12 0.005 0
29.2 0.005 0
29.28 0.005 0
29.36 0.005 0
29.44 0.005 0
29.52 0.005 0
29.6 0.005 0
29.68 0.005 0
29.76 0.005 0
29.84 0.005 0
29.92 0.005 0
30 0.005 0
30.08 0.005 0
30.16 0.005 0
30.24 0.005 0
30.32 0.005 0
30.4 0.005 0
30.48 0.005 0
30.56 0.005 0
30.64 0.005 0
30.72 0.005 0
30.8 0.005 0
30.88 0.005 0
30.96 0.005 0
31.04 0.005 0
31.12 0.005 0
31.2 0.005 0
31.28 0.005 0
31.36 0.005 0
31.44 0.005 0
31.52 0.005 0
31.6 0.005 0
31.68 0.005 0
31.76 0.005 0
31.84 0.005 0
31.92 0.005 0
0 0.01 0
0.08 0.01 0
0.16 0.01 0
0.24 0.01 0
0.32 0.01 0
0.4 0.01 0
0.48 0.01 0
0.56 0.01 0
0.64 0.01 0
0.72 0.01 0
0.8 0.01 0
0.88 0.01 0
0.96 0.01 0
1.04 0.01 0
1.12 0.01 0
1.2 0.01 0
1.28 0.01 0
1.36 0.01 0
1.44 0.01 0
1.52 0.01 0
1.6 0.01 0
1.68 0.01 0
1.76 0.01 0
1.84 0.01 0
1.92 0.01 0
2 0.01 0
2.08 0.01 0
2.16 0.01 0
2.24 0.01 0
2.32 0.01 0
2.4 0.01 0
2.48 0.01 0
2.56 0.01 0
2.64 0.01 0
2.72 0.01 0
2.8 0.01 0
2.88 0.01 0
2.96 0.01 0
3.04 0.01 0
3.12 0.01 0
3.2 0.01 0
3.28 0.01 0
3.36 0.01 0
3.44 0.01 0
3.52 0.01 0
3.6 0.01 0
3.68 0.01 0
3.76 0.01 0
3.84 0.01 0
3.92 0.01 0
4 0.01 0
4.08 0.01 0
4.16 0.01 0
4.24 0.01 0
4.32 0.01 0
4.4 0.01 0
4.48 0.01 0
4.56 0.01 0
4.64 0.01 0
4.72 0.01 0
4.8 0.01 0
4.88 0.01 0
4.96 0.01 0
5.04 0.01 0
5.12 0.01 0
[...]
POINT_DATA 80000

SCALARS v float 1
LOOKUP_TABLE default
0
0
0
0
0
0
0
0
0
0
0
0
0
0
0
0
0
0
0
0
0
0
0
0
0
0
0
0
0
0
0
0
0
0
0
0
0
0
0
0
0
0
0
0
0
0
0
0
0
0
0
0
0
0
0
0
0
0
0
0
0
0
0
0
0
0
0
0
0
0
0
0
0
0
0
0
0
0
0
0
0
0
0
0
0
0
0
0
0
0
0
0
0
0
0
0
0
0
0
0
0
0
0
0
0
0
0
0
0
0
0
0
0
0
0
0
0
0
0
0
0
0
0
0
0
0
0
0
0
0
0
0
0
0
0
0
0
0
0
0
0
0
0
0
0
0
0
0
0
0
0
0
0
0
0
0
0
0
0
0
0
0
0
0
0
0
0
0
0
0
0
0
0
0
0
0
0
0
0
0
0
0
0
0
0
0
0
0
0
0
0
0
0
0
0
0
0
0
0
0
0
0
0
0
0
0
0
0
0
0
0
0
0
0
0
0
0
0
0
0
0
0
0
0
0
0
0
0
0
0
0
0
0
0
0
0
0
0
0
0
0
0
0
0
0
0
0
0
0
0
0
0
0
0
0
0
0
0
0
0
0
0
0
0
0
0
0
0
0
0
0
0
0
0
0
0
0
0
0
0
0
0
0
0
0
0
0
0
0
0
0
0
0
0
0
0
0
0
0
0
0
0
0
0
0
0
0
0
0
0
0
0
0
0
0
0
0
0
0
0
0
0
0
0
0
0
0
0
0
0
0
0
0
0
0
0
0
0
0
0
0
0
0
0
0
0
0
0
0
0
0
0
0
0
0
0
0
0
0
0
0
0
0
0
0
0
0
0
0
0
0
0
0
0
0
0
0
0
0
0
0
0
0
0
0
0
0
0
0
0
0
0
0
0
0
0
0
0
0
0
-0.0542712334963864
0.0542712334963864
0.00396224339902036
0.000998480022743442
0.000492411397695874
0.000302847931489742
0.000207472117968372
0.000151843954849864
0.000116402741098365
9.24465270239788e-05
7.55335229666625e-05
6.31730407780385e-05
5.38727202291261e-05
4.66943806483681e-05
4.10266244687456e-05
3.64596273201246e-05
3.27121833353118e-05
2.95873108556589e-05
2.6944376938412e-05
2.46812032978923e-05
2.27223233742844e-05
2.1011042963702e-05
1.95039522647477e-05
1.81671966400997e-05
1.6974059159882e-05
1.59033486140308e-05
1.49380889221945e-05
1.4064306559858e-05
1.32701072441511e-05
1.25452969499808e-05
1.18814317441305e-05
1.12717985658752e-05
1.07109321506582e-05
1.01938349684849e-05
9.71550980386351e-06
9.27121541540948e-06
8.8571617665022e-06
8.47087171289755e-06
8.11069719847792e-06
7.77479135291364e-06
7.4604279811767e-06
7.16432441379226e-06
6.88373943425019e-06
6.61738022593722e-06
6.36525284362218e-06
6.12747047558194e-06
5.9029421890564e-06
5.68901775933473e-06
5.48241373268857e-06
5.28070323103998e-06
5.08316385177607e-06
4.89024527407361e-06
4.70198745040051e-06
4.51657809481238e-06
4.33023277487352e-06
4.13870272638124e-06
3.93957945081678e-06
3.73395829142633e-06
3.52635704143599e-06
3.32283544415514e-06
3.12834844441401e-06
2.94481018386052e-06
2.77090305097505e-06
2.60363862292197e-06
2.44069813334444e-06
2.28220198764176e-06
2.13094774868643e-06
1.99103892759661e-06
1.86568704612792e-06
1.75535720279999e-06
1.65719041893723e-06
1.56595759152796e-06
1.47606275391374e-06
1.38367241526831e-06
1.28806828179881e-06
1.19172870128249e-06
1.09920832235993e-06
1.01534657521282e-06
9.43521244318144e-07
8.84549774337779e-07
8.36523826116526e-07
7.95500806338988e-07
7.56710458036492e-07
7.15836224798179e-07
6.69995454244085e-07
6.18207461236659e-07
5.61327400477978e-07
5.0157269032861e-07
4.41844160463614e-07
3.85046830752404e-07
3.33562272924676e-07
2.88948454590313e-07
2.51869309892793e-07
2.22203457337494e-07
1.99257480002332e-07
1.82010071612144e-07
1.69331052810235e-07
1.60143715611351e-07
1.53521774975514e-07
1.48728444156358e-07
1.45213554541886e-07
1.42586451953151e-07
1.40579452340688e-07
1.39012262411214e-07
1.37762564880654e-07
1.36744945188357e-07
1.35896981902584e-07
1.35171214228247e-07
1.34530736453285e-07
1.33947000447004e-07
1.33398445071796e-07
1.32869521958404e-07
1.32349704729588e-07
1.31832448005783e-07
1.31314203613206e-07
1.30793442423727e-07
1.30269893867103e-07
1.29744010902998e-07
1.29216479980567e-07
1.28688006119447e-07
1.28159171913386e-07
1.27630385543517e-07
1.27101887259877e-07
1.26573778744088e-07
1.26046066449778e-07
1.25518681518958e-07
1.2499153442645e-07
1.24464545729873e-07
1.23937587753182e-07
1.23410597844818e-07
1.22883525123589e-07
1.22356309600551e-07
1.2182894277731e-07
1.2130138396396e-07
1.20773655560032e-07
1.20245737380668e-07
1.19717632154811e-07
1.19189351357974e-07
1.18660916497655e-07
1.18132312675242e-07
1.17603563316558e-07
1.17074660744382e-07
1.16545615851954e-07
1.16016429481745e-07
1.15487118292029e-07
1.14957673643383e-07
1.14428089967062e-07
1.13898378545096e-07
1.13368541561498e-07
1.12838567453743e-07
1.12308466189812e-07
1.11778223866978e-07
1.11247852631252e-07
1.10717362335502e-07
1.10186713658132e-07
1.09655922658093e-07
1.09125001171591e-07
1.08593924811977e-07
1.08062706191378e-07
1.07531338385427e-07
1.0699982610056e-07
1.06468157624163e-07
1.05936341816778e-07
1.05404364259092e-07
1.0487223629124e-07
1.04339945138759e-07
1.03807497026944e-07
1.03274890719298e-07
1.0274212237738e-07
1.02209186895096e-07
1.01676095005749e-07
1.0114282051671e-07
1.00609400804988e-07
1.00075782454453e-07
9.95420243603281e-08
9.90080895625676e-08
9.84739830028771e-08
9.79397000515346e-08
9.74052523619834e-08
9.6870633154681e-08
9.63358346864156e-08
9.58008655201193e-08
9.5265717633272e-08
9.47304086472812e-08
9.41949187559253e-08
9.36592492901836e-08
9.31234115531294e-08
9.25873795846322e-08
9.20511903329278e-08
9.15148178634423e-08
9.09782666437958e-08
9.0441543154714e-08
8.99046427247511e-08
8.93675480289403e-08
8.88302868923253e-08
8.8292848550525e-08
8.77552300221233e-08
8.72174298506084e-08
8.66794547200984e-08
8.61413135956976e-08
8.56029664561758e-08
8.50644488472805e-08
8.45257575267423e-08
8.39868902521447e-08
8.34478435319741e-08
8.29086102770921e-08
8.23691971781415e-08
8.18296180892834e-08
8.12898535641057e-08
8.07499005765604e-08
8.02097792801156e-08
7.96694692854954e-08
7.9128985999869e-08
7.85883249719291e-08
7.80474835019095e-08
7.75064656804247e-08
7.69652651701829e-08
7.64238904813095e-08
7.58823349921879e-08
7.5340611196385e-08
7.47986977146579e-08
7.42566105312206e-08
7.37143475530447e-08
7.31719016609008e-08
7.26292813364009e-08
7.20864894498316e-08
7.15435154275816e-08
7.10003658660852e-08
7.04570390956826e-08
6.9913545293381e-08
6.93698626832097e-08
6.88260114086911e-08
6.82819764448956e-08
6.77377787319473e-08
6.7193393375427e-08
6.66488307237828e-08
6.61041108935084e-08
6.55592042867126e-08
6.50141157170062e-08
6.44688610922788e-08
6.39234357015163e-08
6.33778273397956e-08
6.28320554115155e-08
6.22861039122379e-08
6.17399759208912e-08
6.11936767432763e-08
6.06472013878027e-08
6.01005468846158e-08
5.95537357717757e-08
5.90067343410112e-08
5.84595686009998e-08
5.79122328067389e-08
5.73647219685215e-08
5.68170342935531e-08
5.62691779078181e-08
5.57211448810552e-08
5.51729369576048e-08
5.46245684939734e-08
5.40760253603138e-08
5.35273030600587e-08
5.2978419599125e-08
5.24293522675998e-08
5.1880114361941e-08
5.13307025821568e-08
5.07811293871428e-08
5.02313858050647e-08
4.96814547668651e-08
4.91313583241438e-08
4.85810924994992e-08
4.80306584068524e-08
4.74800529455264e-08
4.69292772796402e-08
4.63783193053788e-08
4.58271940253661e-08
4.5275903963789e-08
4.47244240948798e-08
4.41727977382899e-08
4.36209798744584e-08
4.30690025413392e-08
4.25168392419781e-08
4.19645187166289e-08
4.14120137916419e-08
4.08593425603037e-08
4.03064914576397e-08
3.97534721198083e-08
3.9200288420478e-08
3.86469240648625e-08
3.80934009709336e-08
3.753968185694e-08
3.6985804206429e-08
3.64317445421162e-08
3.58775179443671e-08
3.53231068846631e-08
3.47685385752197e-08
3.42137846395057e-08
3.36588630505928e-08
3.31037645897438e-08
3.25484816267542e-08
3.19930337296895e-08
3.14374154873233e-08
3.08816167551647e-08
3.03256489883641e-08
2.97694925079049e-08
2.92131641761077e-08
2.86566636766067e-08
2.80999746063942e-08
2.75431196592346e-08
2.69860841058055e-08
2.6428874840865e-08
2.58714866403411e-08
2.53139156353063e-08
2.47561669502754e-08
2.41982405508769e-08
2.36401333727342e-08
2.30818614238953e-08
2.25233832102396e-08
2.19647595085396e-08
2.14058975904542e-08
2.08469405213923e-08
2.02876818083904e-08
1.97284235525038e-08
1.9168725329719e-08
1.8609192576504e-08
1.80490035656429e-08
1.74892696613823e-08
1.69284919938055e-08
1.63686713501837e-08
1.58071980920533e-08
1.52473912890418e-08
1.46850868936298e-08
1.41254600699127e-08
1.3562155015467e-08
1.3002854209073e-08
1.2438389836896e-08
1.18795820350486e-08
1.13137857873362e-08
1.07556643168828e-08
1.01883200692565e-08
9.63108196176333e-09
9.06195463536131e-09
8.50591861819576e-09
7.93464129568703e-09
7.38022668455293e-09
6.80625937218319e-09
6.25409695794365e-09
5.67670520427195e-09
5.12767021172552e-09
4.54580147387282e-09
4.00116073827203e-09
3.41333367487357e-09
2.87477442175652e-09
2.27903037241811e-09
1.74880812554693e-09
1.14257095971314e-09
6.23580813827603e-10
3.61939421223943e-12
-5.00498627458103e-10
-1.1382803876157e-09
-1.62292139600724e-09
-2.28369003430997e-09
-2.74310000573293e-09
-3.43320795574174e-09
-3.86028400911418e-09
-4.58768864167446e-09
-4.97347692702278e-09
-5.7481651879569e-09
-6.08149374825557e-09
-6.91590673164733e-09
-7.18285160350237e-09
-8.09243532615158e-09
-8.27578738600577e-09
-9.27941965804181e-09
-9.35849939216901e-09
-1.04785074074009e-08
-1.04293170962432e-08
-1.16908762070948e-08
-1.14875443058694e-08
-1.29163174922642e-08
-1.25348167899628e-08
-1.41515641534506e-08
-1.35781512118449e-08
-1.53868711780601e-08
-1.46360434680904e-08
-1.659957945134e-08
-1.57513946539143e-08
-1.77406736383362e-08
-1.70196354758582e-08
-1.87063756582143e-08
-1.86520647119062e-08
-1.92694664787132e-08
-2.11267452737442e-08
-1.88805117907987e-08
-2.55605115722361e-08
-1.59061584295092e-08
-3.46273660604717e-08
-3.25477153855186e-09
-5.41500286967999e-08
8.83734428926193e-08
-2.42426443791679e-08
-2.42426443791679e-08
-0.0952160239408744
0.0952160239408744
0.0129757962315395
0.00385480126491002
0.0019344942578792
0.00119638759515981
0.000821930786946756
0.000602505264482669
0.000462258668456958
0.000367233329621967
0.00030002364134779
0.000250838565374306
0.000213795799116577
0.00018518846469031
0.000162595442291742
0.000144390452086729
0.00012945545793905
0.000117005957093022
0.000106481077100626
9.74728534854181e-05
8.96796793603639e-05
8.28747832968392e-05
7.68844712398143e-05
7.1573352151396e-05
6.68346737223428e-05
6.25837554372133e-05
5.87526563893603e-05
5.52854028987422e-05
5.21344823100803e-05
4.92594009138452e-05
4.66267140730328e-05
4.42096812897348e-05
4.19862612829339e-05
3.99362391586433e-05
3.80397001261732e-05
3.6278127668538e-05
3.46368627216535e-05
3.31061073692004e-05
3.16788639892184e-05
3.03471847299884e-05
2.91000013333228e-05
2.79246512408893e-05
2.68109301184726e-05
2.57540633454758e-05
2.47536954985262e-05
2.38093381643264e-05
2.29158295008041e-05
2.20625436676423e-05
2.12371237590234e-05
2.04308129172695e-05
1.96410405484378e-05
1.88689589801135e-05
1.81135735802881e-05
1.73669512441042e-05
1.66145637269581e-05
1.58413742355055e-05
1.50402298811478e-05
1.42172795253825e-05
1.33907515377875e-05
1.25834248297358e-05
1.18129269730689e-05
1.10852401454393e-05
1.0394822082508e-05
9.73088034577871e-06
9.08592696334888e-06
8.46169764403235e-06
7.86924789702758e-06
7.3233720598655e-06
6.83450560820233e-06
6.40241458682399e-06
6.01484472924198e-06
5.65170103774103e-06
5.29269264619414e-06
4.92495685531256e-06
4.5474662303599e-06
4.17065808763218e-06
3.81180984444024e-06
3.48827827746928e-06
3.21125837349296e-06
2.98216708037468e-06
2.79252596872664e-06
2.62689653115852e-06
2.46750799425669e-06
2.29894013692723e-06
2.11152895655262e-06
1.90280724022091e-06
1.67698805723977e-06
1.4430217785091e-06
1.21200158726741e-06
9.94665617663617e-07
7.9952941455795e-07
6.31891349994906e-07
4.93685245789607e-07
3.83971284628732e-07
2.99779168926775e-07
2.37032194122324e-07
1.91353160650481e-07
1.58645985238719e-07
1.35429889767047e-07
1.18961106791052e-07
1.07204381002054e-07
9.8720875430832e-08
9.25267054538618e-08
8.79586034215882e-08
8.4565411034201e-08
8.20303569102936e-08
8.01211605718693e-08
7.86608722007556e-08
7.75122169997458e-08
7.65693416593401e-08
7.57528474733684e-08
7.50059503427427e-08
7.42905363708528e-08
7.35832925908108e-08
7.28717103236345e-08
7.21506865727313e-08
7.141968254579e-08
7.06804870607857e-08
6.99357351771273e-08
6.91880756292821e-08
6.84396224359558e-08
6.76918536776324e-08
6.69455755359771e-08
6.62011406510942e-08
6.54584888175508e-08
6.47173614497627e-08
6.39774366926941e-08
6.32382942942192e-08
6.24996115445806e-08
6.17610920133011e-08
6.10225127419063e-08
6.02837291194557e-08
5.95446332080221e-08
5.88051787416358e-08
5.80653647526017e-08
5.73251603048251e-08
5.65846071805035e-08
5.58437482261638e-08
5.51025667980144e-08
5.43611493155536e-08
5.36195034138217e-08
5.28776546050585e-08
5.21356231305479e-08
5.13934228535136e-08
5.06510779533469e-08
4.99085935724556e-08
4.91659919367998e-08
4.84232566596152e-08
4.76803946589297e-08
4.6937428145858e-08
4.61943253442099e-08
4.54511008823968e-08
4.47077512251044e-08
4.39642749435768e-08
4.32206590720785e-08
4.2476898522529e-08
4.17329943758212e-08
4.09889375715791e-08
4.02447204281873e-08
3.95003502753708e-08
3.87558017944696e-08
3.80110921123679e-08
3.72662096046983e-08
3.6521124614122e-08
3.57758690302753e-08
3.50304157426372e-08
3.42847740571221e-08
3.35389336443274e-08
3.27928902044792e-08
3.20466421010133e-08
3.1300181036791e-08
3.05535241780995e-08
2.98066459093543e-08
2.90595595950949e-08
2.83122529150069e-08
2.75647225811736e-08
2.68169706188043e-08
2.60690106884505e-08
2.53208040477615e-08
2.45723898673094e-08
2.38237329453744e-08
2.30748555536558e-08
2.23257470172663e-08
2.15764163982807e-08
2.08268401621153e-08
2.00770255504021e-08
1.93269937789525e-08
1.85767046632666e-08
1.78261883824546e-08
1.70754296023058e-08
1.63244339473313e-08
1.55732054897123e-08
1.48217238212355e-08
1.40700090912025e-08
1.33180445915967e-08
1.25658477458243e-08
1.18133950645421e-08
1.10606980702705e-08
1.03077715569771e-08
9.55457176842786e-09
8.8011431719315e-09
8.04747506514264e-09
7.29354183208513e-09
6.53937200381868e-09
5.78495607107581e-09
5.03027659518077e-09
4.27536408012175e-09
3.52020987662111e-09
2.76478296206064e-09
2.00910612504155e-09
1.25319038813805e-09
4.97035460324399e-10
-2.59387898870269e-10
-1.01606209292727e-09
-1.77297532042909e-09
-2.53013841352971e-09
-3.28756568079933e-09
-4.04523374050739e-09
-4.80317156289518e-09
-5.56134139162302e-09
-6.3197607096726e-09
-7.07844074009582e-09
-7.83736967922209e-09
-8.59656037681058e-09
-9.35598983482687e-09
-1.01156788333515e-08
-1.08756278888927e-08
-1.16358145438285e-08
-1.23962542245393e-08
-1.31569549223752e-08
-1.39179050473857e-08
-1.46791093474338e-08
-1.54405649790205e-08
-1.62022724924975e-08
-1.696422692229e-08
-1.772644278155e-08
-1.84889209842632e-08
-1.9251637982689e-08
-2.0014611702711e-08
-2.07778331639708e-08
-2.15413214491646e-08
-2.23050600769174e-08
-2.30690552568091e-08
-2.38332985648285e-08
-2.45977892968893e-08
-2.53625379238076e-08
-2.61275528533345e-08
-2.6892810929805e-08
-2.76583355093132e-08
-2.84241054143393e-08
-2.91901236826623e-08
-2.9956410494071e-08
-3.07229570130794e-08
-3.14897527874672e-08
-3.22567981571635e-08
-3.30240989986896e-08
-3.37916666086976e-08
-3.45594762764916e-08
-3.53275481516826e-08
-3.6095871342087e-08
-3.68644620062463e-08
-3.76333048563952e-08
-3.84024018510957e-08
-3.91717523045838e-08
-3.99413622106585e-08
-4.07112229474114e-08
-4.1481352236209e-08
-4.2251739269956e-08
-4.30223755891087e-08
-4.37932747707651e-08
-4.4564427475979e-08
-4.53358408312795e-08
-4.61075095010427e-08
-4.68794416125174e-08
-4.76516314369821e-08
-4.84240861656858e-08
-4.91967958037004e-08
-4.99697736983985e-08
-5.07429934539253e-08
-5.15164977485431e-08
-5.22902489832482e-08
-5.30642768073202e-08
-5.38385558317193e-08
-5.46130877640516e-08
-5.53878983276277e-08
-5.61629689121415e-08
-5.6938314260366e-08
-5.77139220524813e-08
-5.84897849947515e-08
-5.92659214847836e-08
-6.00423200359184e-08
-6.08189929961657e-08
-6.1595926985523e-08
-6.23731304942898e-08
-6.31506016816612e-08
-6.39283461193874e-08
-6.4706363627076e-08
-6.54846461299688e-08
-6.62631989570062e-08
-6.70420309660894e-08
-6.78211372097513e-08
-6.86005146938899e-08
-6.93801724456571e-08
-7.01601093797405e-08
-7.09403065349633e-08
-7.17207837369727e-08
-7.25015477239312e-08
-7.32825916609214e-08
-7.40639151790067e-08
-7.48455101539772e-08
-7.56273885947086e-08
-7.64095642181346e-08
-7.71920020650616e-08
-7.79747475160949e-08
-7.87577441230351e-08
-7.95410948895045e-08
-8.03246154973927e-08
-8.11086021753902e-08
-8.18926028138558e-08
-8.26773196570394e-08
-8.34616970501277e-08
-8.42472858301989e-08
-8.50318871084467e-08
-8.58185455328858e-08
-8.66031005327958e-08
-8.73911596641111e-08
-8.8175306075657e-08
-8.89651957198584e-08
-8.97484642800199e-08
-9.05407107368243e-08
-9.13225777947701e-08
-9.21177328331763e-08
-9.28975987174042e-08
-9.3696305029203e-08
-9.44735384480622e-08
-9.5276445837232e-08
-9.60503569354738e-08
-9.68582444348145e-08
-9.76280077768139e-08
-9.84418116814343e-08
-9.92063434212106e-08
-1.00027377432839e-07
-1.00785086460891e-07
-1.01615313129469e-07
-1.02363843464757e-07
-1.03206070665091e-07
-1.0394212633284e-07
-1.04800265084477e-07
-1.0551920292629e-07
-1.06398746610305e-07
-1.07094205162624e-07
-1.08002492364412e-07
-1.08666054070257e-07
-1.09612645820485e-07
-1.10233542896733e-07
-1.1123053829434e-07
-1.11795132059917e-07
-1.12857891742178e-07
-1.13348925544677e-07
-1.14496677404059e-07
-1.14892747201448e-07
-1.16149243682991e-07
-1.16423759902896e-07
-1.17818747050708e-07
-1.17938278853091e-07
-1.19509006358437e-07
-1.19431839873637e-07
-1.21224765178564e-07
-1.20898839239286e-07
-1.22971732250649e-07
-1.2233277761793e-07
-1.24756121896984e-07
-1.23726761596133e-07
-1.26584157581995e-07
-1.2507447885141e-07
-1.28460342778871e-07
-1.2637316722723e-07
-1.30384023280329e-07
-1.27628735439857e-07
-1.32343405578566e-07
-1.28866865548315e-07
-1.34302914112711e-07
-1.30155912887958e-07
-1.36179463291605e-07
-1.31654722839421e-07
-1.37793620190252e-07
-1.33717278400299e-07
-1.38765576726911e-07
-1.37127767049893e-07
-1.38265226376443e-07
-1.43658963563472e-07
-1.3428656332579e-07
-1.57440211953134e-07
-1.20854006977346e-07
-1.88257326880271e-07
-7.19201861784125e-08
-2.56227400778013e-07
2.63220267310099e-07
-1.44832159331162e-07
-1.44832159331162e-07
-0.125293206721076
0.125293206721076
0.0249360625021204
0.00835822604108412
0.00427821035813556
0.00266173741906944
0.00183395710984086
0.00134657637555223
0.00103411022265938
0.000821931180896603
0.000671615630214082
0.000561479936910374
0.00047846344105903
0.000414317460270794
0.000363643778508119
0.000322809868025227
0.000289314375284901
0.000261399654842748
0.000237807616004671
0.000217622283227247
0.000200165923416737
0.000184928620544403
0.000171519700912789
0.000159634742255668
0.000149033841431477
0.000139526663510081
0.000130960338085935
0.000123208876649234
0.000116165570530294
0.000109739819636426
0.000103856903270925
9.84568072142803e-05
9.34896647559726e-05
8.89097181763158e-05
8.46723875798777e-05
8.07367754585389e-05
7.70706458331795e-05
7.36520335618567e-05
7.04645169491213e-05
6.74894139273189e-05
6.47017238213457e-05
6.20738045471854e-05
5.95838610798764e-05
5.7221622271098e-05
5.49855527325748e-05
5.28730846994636e-05
5.08715304328974e-05
4.89571753411088e-05
4.71035537279732e-05
4.52923756555551e-05
4.35181588077744e-05
4.17823511326479e-05
4.00810019498874e-05
3.83955249640144e-05
3.66945935219483e-05
3.49476804654037e-05
3.3142484915321e-05
3.1295211905722e-05
2.94466232158443e-05
2.76453457069196e-05
2.59275914859231e-05
2.43044732744063e-05
2.27634635335932e-05
2.12823095971146e-05
1.9846861628907e-05
1.84625977982875e-05
1.71536845090795e-05
1.59505135699845e-05
1.4872747945162e-05
1.39168822912792e-05
1.30545734066087e-05
1.22423911256898e-05
1.14382341877973e-05
1.06169787142699e-05
9.77885318157725e-06
8.94765817335292e-06
8.16032576749045e-06
7.45250455662371e-06
6.84576204336599e-06
6.34064845692036e-06
5.91719002408786e-06
5.54162760127594e-06
5.17639815160303e-06
4.78990033496069e-06
4.36332843919816e-06
3.89326477231349e-06
3.39018119322167e-06
2.87406038886077e-06
2.36880655044148e-06
1.8970085825139e-06
1.47613484566504e-06
1.11661417463601e-06
8.2169793511522e-07
5.88629628718854e-07
4.10504476406602e-07
2.78249348568488e-07
1.82315706911346e-07
1.13877013894628e-07
6.54965715939282e-08
3.13492312172576e-08
7.13413420004439e-09
-1.01799351534367e-08
-2.26628910424973e-08
-3.17108635254344e-08
-3.82757273431537e-08
-4.30279520825638e-08