# vtk DataFile Version 2.0
FlowField
ASCII
DATASET STRUCTURED_GRID
DIMENSIONS 400 1 200
POINTS 80000 float
0 0 0
0.08 0 0
0.16 0 0
0.24 0 0
0.32 0 0
0.4 0 0
0.48 0 0
0.56 0 0
0.64 0 0
0.72 0 0
0.8 0 0
0.88 0 0
0.96 0 0
1.04 0 0
1.12 0 0
1.2 0 0
1.28 0 0
1.36 0 0
1.44 0 0
1.52 0 0
1.6 0 0
1.68 0 0
1.76 0 0
1.84 0 0
1.92 0 0
2 0 0
2.08 0 0
2.16 0 0
2.24 0 0
2.32 0 0
2.4 0 0
2.48 0 0
2.56 0 0
2.64 0 0
2.72 0 0
2.8 0 0
2.88 0 0
2.96 0 0
3.04 0 0
3.12 0 0
3.2 0 0
3.28 0 0
3.36 0 0
3.44 0 0
3.52 0 0
3.6 0 0
3.68 0 0
3.76 0 0
3.84 0 0
3.92 0 0
4 0 0
4.08 0 0
4.16 0 0
4.24 0 0
4.32 0 0
4.4 0 0
4.48 0 0
4.56 0 0
4.64 0 0
4.72 0 0
4.8 0 0
4.88 0 0
4.96 0 0
5.04 0 0
5.12 0 0
5.2 0 0
5.28 0 0
5.36 0 0
5.44 0 0
5.52 0 0
5.6 0 0
5.68 0 0
5.76 0 0
5.84 0 0
5.92 0 0
6 0 0
6.08 0 0
6.16 0 0
6.24 0 0
6.32 0 0
6.4 0 0
6.48 0 0
6.56 0 0
6.64 0 0
6.72 0 0
6.8 0 0
6.88 0 0
6.96 0 0
7.04 0 0
7.12 0 0
7.2 0 0
7.28 0 0
7.36 0 0
7.44 0 0
7.52 0 0
7.6 0 0
7.68 0 0
7.76 0 0
7.84 0 0
7.92 0 0
8 0 0
8.08 0 0
8.16 0 0
8.24 0 0
8.32 0 0
8.4 0 0
8.48 0 0
8.56 0 0
8.64 0 0
8.72 0 0
8.8 0 0
8.88 0 0
8.96 0 0
9.04 0 0
9.12 0 0
9.2 0 0
9.28 0 0
9.36 0 0
9.44 0 0
9.52 0 0
9.6 0 0
9.68 0 0
9.76 0 0
9.84 0 0
9.92 0 0
10 0 0
10.08 0 0
10.16 0 0
10.24 0 0
10.32 0 0
10.4 0 0
10.48 0 0
10.56 0 0
10.64 0 0
10.72 0 0
10.8 0 0
10.88 0 0
10.96 0 0
11.04 0 0
11.12 0 0
11.2 0 0
11.28 0 0
11.36 0 0
11.44 0 0
11.52 0 0
11.6 0 0
11.68 0 0
11.76 0 0
11.84 0 0
11.92 0 0
12 0 0
12.08 0 0
12.16 0 0
12.24 0 0
12.32 0 0
12.4 0 0
12.48 0 0
12.56 0 0
12.64 0 0
12.72 0 0
12.8 0 0
12.88 0 0
12.96 0 0
13.04 0 0
13.12 0 0
13.2 0 0
13.28 0 0
13.36 0 0
13.44 0 0
13.52 0 0
13.6 0 0
13.68 0 0
13.76 0 0
13.84 0 0
13.92 0 0
14 0 0
14.08 0 0
14.16 0 0
14.24 0 0
14.32 0 0
14.4 0 0
14.48 0 0
14.56 0 0
14.64 0 0
14.72 0 0
14.8 0 0
14.88 0 0
14.96 0 0
15.04 0 0
15.12 0 0
15.2 0 0
15.28 0 0
15.36 0 0
15.44 0 0
15.52 0 0
15.6 0 0
15.68 0 0
15.76 0 0
15.84 0 0
15.92 0 0
16 0 0
16.08 0 0
16.16 0 0
16.24 0 0
16.32 0 0
16.4 0 0
16.48 0 0
16.56 0 0
16.64 0 0
16.72 0 0
16.8 0 0
16.88 0 0
16.96 0 0
17.04 0 0
17.12 0 0
17.2 0 0
17.28 0 0
17.36 0 0
17.44 0 0
17.52 0 0
17.6 0 0
17.68 0 0
17.76 0 0
17.84 0 0
17.92 0 0
18 0 0
18.08 0 0
18.16 0 0
18.24 0 0
18.32 0 0
18.4 0 0
18.48 0 0
18.56 0 0
18.64 0 0
18.72 0 0
18.8 0 0
18.88 0 0
18.96 0 0
19.04 0 0
19.12 0 0
19.2 0 0
19.28 0 0
19.36 0 0
19.44 0 0
19.52 0 0
19.6 0 0
19.68 0 0
19.76 0 0
19.84 0 0
19.92 0 0
20 0 0
20.08 0 0
20.16 0 0
20.24 0 0
20.32 0 0
20.4 0 0
20.48 0 0
20.56 0 0
20.64 0 0
20.72 0 0
20.8 0 0
20.88 0 0
20.96 0 0
21.04 0 0
21.12 0 0
21.2 0 0
21.28 0 0
21.36 0 0
21.44 0 0
21.52 0 0
21.6 0 0
21.68 0 0
21.76 0 0
21.84 0 0
21.92 0 0
22 0 0
22.08 0 0
22.16 0 0
22.24 0 0
22.32 0 0
22.4 0 0
22.48 0 0
22.56 0 0
22.64 0 0
22.72 0 0
22.8 0 0
22.88 0 0
22.96 0 0
23.04 0 0
23.12 0 0
23.2 0 0
23.28 0 0
23.36 0 0
23.44 0 0
23.52 0 0
23.6 0 0
23.68 0 0
23.76 0 0
23.84 0 0
23.92 0 0
24 0 0
24.08 0 0
24.16 0 0
24.24 0 0
24.32 0 0
24.4 0 0
24.48 0 0
24.56 0 0
24.64 0 0
24.72 0 0
24.8 0 0
24.88 0 0
24.96 0 0
25.04 0 0
25.12 0 0
25.2 0 0
25.28 0 0
25.36 0 0
25.44 0 0
25.52 0 0
25.6 0 0
25.68 0 0
25.76 0 0
25.84 0 0
25.92 0 0
26 0 0
26.08 0 0
26.16 0 0
26.24 0 0
26.32 0 0
26.4 0 0
26.48 0 0
26.56 0 0
26.64 0 0
26.72 0 0
26.8 0 0
26.88 0 0
26.96 0 0
27.04 0 0
27.12 0 0
27.2 0 0
27.28 0 0
27.36 0 0
27.44 0 0
27.52 0 0
27.6 0 0
27.68 0 0
27.76 0 0
27.84 0 0
27.92 0 0
28 0 0
28.08 0 0
28.16 0 0
28.24 0 0
28.32 0 0
28.4 0 0
28.48 0 0
28.56 0 0
28.64 0 0
28.72 0 0
28.8 0 0
28.88 0 0
28.96 0 0
29.04 0 0
29.12 0 0
29.2 0 0
29.28 0 0
29.36 0 0
29.44 0 0
29.52 0 0
29.6 0 0
29.68 0 0
29.76 0 0
29.84 0 0
29.92 0 0
30 0 0
30.08 0 0
30.16 0 0
30.24 0 0
30.32 0 0
30.4 0 0
30.48 0 0
30.56 0 0
30.64 0 0
30.72 0 0
30.8 0 0
30.88 0 0
30.96 0 0
31.04 0 0
31.12 0 0
31.2 0 0
31.28 0 0
31.36 0 0
31.44 0 0
31.52 0 0
31.6 0 0
31.68 0 0
31.76 0 0
31.84 0 0
31.92 0 0
0 0.005 0
0.08 0.005 0
0.16 0.005 0
0.24 0.005 0
0.32 0.005 0
0.4 0.005 0
0.48 0.005 0
0.56 0.005 0
0.64 0.005 0
0.72 0.005 0
0.8 0.005 0
0.88 0.005 0
0.96 0.005 0
1.04 0.005 0
1.12 0.005 0
1.2 0.005 0
1.28 0.005 0
1.36 0.005 0
1.44 0.005 0
1.52 0.005 0
1.6 0.005 0
1.68 0.005 0
1.76 0.005 0
1.84 0.005 0
1.92 0.005 0
2 0.005 0
2.08 0.005 0
2.16 0.005 0
2.24 0.005 0
2.32 0.005 0
2.4 0.005 0
2.48 0.005 0
2.56 0.005 0
2.64 0.005 0
2.72 0.005 0
2.8 0.005 0
2.88 0.005 0
2.96 0.005 0
3.04 0.005 0
3.12 0.005 0
3.2 0.005 0
3.28 0.005 0
3.36 0.005 0
3.44 0.005 0
3.52 0.005 0
3.6 0.005 0
3.68 0.005 0
3.76 0.005 0
3.84 0.005 0
3.92 0.005 0
4 0.005 0
4.08 0.005 0
4.16 0.005 0
4.24 0.005 0
4.32 0.005 0
4.4 0.005 0
4.48 0.005 0
4.56 0.005 0
4.64 0.005 0
4.72 0.005 0
4.8 0.005 0
4.88 0.005 0
4.96 0.005 0
5.04 0.005 0
5.12 0.005 0
5.2 0.005 0
5.28 0.005 0
5.36 0.005 0
5.44 0.005 0
5.52 0.005 0
5.6 0.005 0
5.68 0.005 0
5.76 0.005 0
5.84 0.005 0
5.92 0.005 0
6 0.005 0
6.08 0.005 0
6.16 0.005 0
6.24 0.005 0
6.32 0.005 0
6.4 0.005 0
6.48 0.005 0
6.56 0.005 0
6.64 0.005 0
6.72 0.005 0
6.8 0.005 0
6.88 0.005 0
6.96 0.005 0
7.04 0.005 0
7.12 0.005 0
7.2 0.005 0
7.28 0.005 0
7.36 0.005 0
7.44 0.005 0
7.52 0.005 0
7.6 0.005 0
7.68 0.005 0
7.76 0.005 0
7.84 0.005 0
7.92 0.005 0
8 0.005 0
8.08 0.005 0
8.16 0.005 0
8.24 0.005 0
8.32 0.005 0
8.4 0.005 0
8.48 0.005 0
8.56 0.005 0
8.64 0.005 0
8.72 0.005 0
8.8 0.005 0
8.88 0.005 0
8.96 0.005 0
9.04 0.005 0
9.12 0.005 0
9.2 0.005 0
9.28 0.005 0
9.36 0.005 0
9.44 0.005 0
9.52 0.005 0
9.6 0.005 0
9.68 0.005 0
9.76 0.005 0
9.84 0.005 0
9.92 0.005 0
10 0.005 0
10.08 0.005 0
10.16 0.005 0
10.24 0.005 0
10.32 0.005 0
10.4 0.005 0
10.48 0.005 0
10.56 0.005 0
10.64 0.005 0
10.72 0.005 0
10.8 0.005 0
10.88 0.005 0
10.96 0.005 0
11.04 0.005 0
11.12 0.005 0
11.2 0.005 0
11.28 0.005 0
11.36 0.005 0
11.44 0.005 0
11.52 0.005 0
11.6 0.005 0
11.68 0.005 0
11.76 0.005 0
11.84 0.005 0
11.92 0.005 0
12 0.005 0
12.08 0.005 0
12.16 0.005 0
12.24 0.005 0
12.32 0.005 0
12.4 0.005 0
12.48 0.005 0
12.56 0.005 0
12.64 0.005 0
12.72 0.005 0
12.8 0.005 0
12.88 0.005 0
12.96 0.005 0
13.04 0.005 0
13.12 0.005 0
13.2 0.005 0
13.28 0.005 0
13.36 0.005 0
13.44 0.005 0
13.52 0.005 0
13.6 0.005 0
13.68 0.005 0
13.76 0.005 0
13.84 0.005 0
13.92 0.005 0
14 0.005 0
14.08 0.005 0
14.16 0.005 0
14.24 0.005 0
14.32 0.005 0
14.4 0.005 0
14.48 0.005 0
14.56 0.005 0
14.64 0.005 0
14.72 0.005 0
14.8 0.005 0
14.88 0.005 0
14.96 0.005 0
15.04 0.005 0
15.12 0.005 0
15.2 0.005 0
15.28 0.005 0
15.36 0.005 0
15.44 0.005 0
15.52 0.005 0
15.6 0.005 0
15.68 0.005 0
15.76 0.005 0
15.84 0.005 0
15.92 0.005 0
16 0.005 0
16.08 0.005 0
16.16 0.005 0
16.24 0.005 0
16.32 0.005 0
16.4 0.005 0
16.48 0.005 0
16.56 0.005 0
16.64 0.005 0
16.72 0.005 0
16.8 0.005 0
16.88 0.005 0
16.96 0.005 0
17.04 0.005 0
17.12 0.005 0
17.2 0.005 0
17.28 0.005 0
17.36 0.005 0
17.44 0.005 0
17.52 0.005 0
17.6 0.005 0
17.68 0.005 0
17.76 0.005 0
17.84 0.005 0
17.92 0.005 0
18 0.005 0
18.08 0.005 0
18.16 0.005 0
18.24 0.005 0
18.32 0.005 0
18.4 0.005 0
18.48 0.005 0
18.56 0.005 0
18.64 0.005 0
18.72 0.005 0
18.8 0.005 0
18.88 0.005 0
18.96 0.005 0
19.04 0.005 0
19.12 0.005 0
19.2 0.005 0
19.28 0.005 0
19.36 0.005 0
19.44 0.005 0
19.52 0.005 0
19.6 0.005 0
19.68 0.005 0
19.76 0.005 0
19.84 0.005 0
19.92 0.005 0
20 0.005 0
20.08 0.005 0
20.16 0.005 0
20.24 0.005 0
20.32 0.005 0
20.4 0.005 0
20.48 0.005 0
20.56 0.005 0
20.64 0.005 0
20.72 0.005 0
20.8 0.005 0
20.88 0.005 0
20.96 0.005 0
21.04 0.005 0
21.12 0.005 0
21.2 0.005 0
21.28 0.005 0
21.36 0.005 0
21.44 0.005 0
21.52 0.005 0
21.6 0.005 0
21.68 0.005 0
21.76 0.005 0
21.84 0.005 0
21.92 0.005 0
22 0.005 0
22.08 0.005 0
22.16 0.005 0
22.24 0.005 0
22.32 0.005 0
22.4 0.005 0
22.48 0.005 0
22.56 0.005 0
22.64 0.005 0
22.72 0.005 0
22.8 0.005 0
22.88 0.005 0
22.96 0.005 0
23.04 0.005 0
23.12 0.005 0
23.2 0.005 0
23.28 0.005 0
23.36 0.005 0
23.44 0.005 0
23.52 0.005 0
23.6 0.005 0
23.68 0.005 0
23.76 0.005 0
23.84 0.005 0
23.92 0.005 0
24 0.005 0
24.08 0.005 0
24.16 0.005 0
24.24 0.005 0
24.32 0.005 0
24.4 0.005 0
24.48 0.005 0
24.56 0.005 0
24.64 0.005 0
24.72 0.005 0
24.8 0.005 0
24.88 0.005 0
24.96 0.005 0
25.04 0.005 0
25.12 0.005 0
25.2 0.005 0
25.28 0.005 0
25.36 0.005 0
25.44 0.005 0
25.52 0.005 0
25.6 0.005 0
25.68 0.005 0
25.76 0.005 0
25.84 0.005 0
25.92 0.005 0
26 0.005 0
26.08 0.005 0
26.16 0.005 0
26.24 0.005 0
26.32 0.005 0
26.4 0.005 0
26.48 0.005 0
26.56 0.005 0
26.64 0.005 0
26.72 0.005 0
26.8 0.005 0
26.88 0.005 0
26.96 0.005 0
27.04 0.005 0
27.12 0.005 0
27.2 0.005 0
27.28 0.005 0
27.36 0.005 0
27.44 0.005 0
27.52 0.005 0
27.6 0.005 0
27.68 0.005 0
27.76 0.005 0
27.84 0.005 0
27.92 0.005 0
28 0.005 0
28.08 0.005 0
28.16 0.005 0
28.24 0.005 0
28.32 0.005 0
28.4 0.005 0
28.48 0.005 0
28.56 0.005 0
28.64 0.005 0
28.72 0.005 0
28.8 0.005 0
28.88 0.005 0
28.96 0.005 0
29.04 0.005 0
29.12 0.005 0
29.2 0.005 0
29.28 0.005 0
29.36 0.005 0
29.44 0.005 0
29.52 0.005 0
29.6 0.005 0
29.68 0.005 0
29.76 0.005 0
29.84 0.005 0
29.92 0.005 0
30 0.005 0
30.08 0.005 0
30.16 0.005 0
30.24 0.005 0
30.32 0.005 0
30.4 0.005 0
30.48 0.005 0
30.56 0.005 0
30.64 0.005 0
30.72 0.005 0
30.8 0.005 0
30.88 0.005 0
30.96 0.005 0
31.04 0.005 0
31.12 0.005 0
31.2 0.005 0
31.28 0.005 0
31.36 0.005 0
31.44 0.005 0
31.52 0.005 0
31.6 0.005 0
31.68 0.005 0
31.76 0.005 0
31.84 0.005 0
31.92 0.005 0
0 0.01 0
0.08 0.01 0
0.16 0.01 0
0.24 0.01 0
0.32 0.01 0
0.4 0.01 0
0.48 0.01 0
0.56 0.01 0
0.64 0.01 0
0.72 0.01 0
0.8 0.01 0
0.88 0.01 0
0.96 0.01 0
1.04 0.01 0
1.12 0.01 0
1.2 0.01 0
1.28 0.01 0
1.36 0.01 0
1.44 0.01 0
1.52 0.01 0
1.6 0.01 0
1.68 0.01 0
1.76 0.01 0
1.84 0.01 0
1.92 0.01 0
2 0.01 0
2.08 0.01 0
2.16 0.01 0
2.24 0.01 0
2.32 0.01 0
2.4 0.01 0
2.48 0.01 0
2.56 0.01 0
2.64 0.01 0
2.72 0.01 0
2.8 0.01 0
2.88 0.01 0
2.96 0.01 0
3.04 0.01 0
3.12 0.01 0
3.2 0.01 0
3.28 0.01 0
3.36 0.01 0
3.44 0.01 0
3.52 0.01 0
3.6 0.01 0
3.68 0.01 0
3.76 0.01 0
3.84 0.01 0
3.92 0.01 0
4 0.01 0
4.08 0.01 0
4.16 0.01 0
4.24 0.01 0
4.32 0.01 0
4.4 0.01 0
4.48 0.01 0
4.56 0.01 0
4.64 0.01 0
4.72 0.01 0
4.8 0.01 0
4.88 0.01 0
4.96 0.01 0
5.04 0.01 0
5.12 0.01 0
[...]
POINT_DATA 80000

SCALARS p float 1
LOOKUP_TABLE default
1
56.5602659949901
56.258530697272
56.2173706647593
56.1972804552379
56.182861289874
56.1708600994872
56.1601164527086
56.1501180953159
56.1406122762129
56.1314657485632
56.1226048018652
56.1139866597298
56.1055849313801
56.0973819521259
56.0893646984551
56.081522618359
56.0738465013314
56.0663279113633
56.058958919609
56.0517319910988
56.0446399458651
56.037675952012
56.0308335290523
56.0241065512926
56.017489247155
56.0109761934519
56.0045623050652
55.9982428210446
55.9920132882408
55.9858695434778
55.9798076950931
55.9738241044705
55.9679153680218
55.9620782999101
55.9563099157156
55.9506074171275
55.9449681777213
55.9393897298024
55.9338697522913
55.928406059595
55.9229965913973
55.9176394033103
55.9123326583169
55.9070746189495
55.9018636401247
55.8966981625842
55.8915767068687
55.8864978678004
55.8814603094188
55.8764627603522
55.8715040095556
55.8665829023756
55.8616983369036
55.8568492606089
55.8520346672503
55.8472535940579
55.8425051191267
55.8377883589793
55.8331024662629
55.8284466275911
55.8238200615685
55.8192220170216
55.8146517713883
55.8101086291886
55.8055919205274
55.8011009996242
55.7966352434593
55.7921940506024
55.7877768402201
55.7833830511699
55.7790121410657
55.7746635852498
55.7703368757657
55.7660315204681
55.7617470423677
55.7574829791685
55.7532388828263
55.7490143189477
55.7448088660091
55.7406221145588
55.7364536666296
55.732303135496
55.7281701456623
55.7240543328202
55.7199553435123
55.7158728345073
55.7118064721412
55.7077559319955
55.7037208991063
55.6997010685755
55.6956961461818
55.6917058486549
55.6877299035735
55.6837680492501
55.6798200351286
55.6758856229832
55.671964588722
55.6680567241585
55.6641618380684
55.6602797562274
55.656410320724
55.6525533892071
55.6487088346023
55.644876545261
55.6410564248953
55.6372483914056
55.6334523741453
55.6296683099529
55.6258961390369
55.6221358018926
55.6183872378021
55.6146503844549
55.6109251774639
55.6072115485931
55.6035094223881
55.5998187121402
55.5961393168857
55.5924711209192
55.5888139960871
55.5851678055873
55.581532407052
55.5779076529705
55.5742933879533
55.5706894442259
55.5670956379295
55.5635117686584
55.5599376230928
55.5563729814191
55.5528176236524
55.5492713328195
55.5457338934413
55.5422050860823
55.5386846807946
55.5351724329528
55.5316680839278
55.5281713667874
55.5246820147986
55.5211997691691
55.5177243827756
55.5142556184377
55.5107932427524
55.5073370184507
55.5038866988278
55.500442026816
55.4970027392124
55.4935685743779
55.4901392803278
55.4867146200625
55.4832943722196
55.4798783270358
55.4764662794519
55.4730580221446
55.4696533411957
55.4662520159294
55.4628538228894
55.459458542421
55.45606596554
55.4526758988228
55.4492881658425
55.4459026049177
55.4425190640938
55.439137395002
55.435757447449
55.4323790661544
55.4290020903348
55.4256263559979
55.4222517001461
55.4188779657647
55.4155050064683
55.4121326899679
55.4087608999462
55.4053895363514
55.4020185144471
55.3986477630998
55.3952772227964
55.3919068437804
55.3885365845059
55.385166410483
55.3817962934369
55.3784262106694
55.3750561444876
55.3716860816209
55.3683160125704
55.3649459309115
55.3615758325789
55.3582057151926
55.3548355774732
55.351465418776
55.3480952387598
55.3447250371798
55.3413548137819
55.3379845682717
55.3346143003267
55.3312440096282
55.3278736958929
55.3245033588954
55.3211329984784
55.3177626145497
55.3143922070706
55.3110217760387
55.3076513214738
55.3042808433997
55.300910341837
55.2975398167979
55.2941692682803
55.2907986962701
55.2874281007454
55.2840574816767
55.2806868390308
55.2773161727752
55.2739454828768
55.2705747693045
55.26720403203
55.263833271025
55.2604624862657
55.2570916777266
55.2537208453848
55.2503499892156
55.2469791091963
55.2436082053018
55.2402372775078
55.2368663257883
55.2334953501186
55.2301243504733
55.2267533268258
55.2233822791508
55.2200112074223
55.2166401116144
55.2132689916995
55.2098978476536
55.206526679449
55.2031554870606
55.1997842704617
55.1964130296269
55.1930417645301
55.1896704751457
55.1862991614469
55.1829278234082
55.179556461004
55.1761850742077
55.1728136629932
55.1694422273354
55.1660707672077
55.1626992825839
55.1593277734383
55.1559562397451
55.1525846814772
55.1492130986098
55.1458414911167
55.1424698589718
55.1390982021484
55.1357265206205
55.132354814363
55.1289830833487
55.1256113275527
55.122239546948
55.1188677415088
55.1154959112087
55.1121240560227
55.1087521759234
55.1053802708857
55.1020083408825
55.0986363858886
55.0952644058772
55.0918924008228
55.088520370699
55.0851483154787
55.0817762351374
55.0784041296482
55.0750319989848
55.0716598431208
55.0682876620306
55.064915455688
55.0615432240666
55.0581709671403
55.0547986848826
55.0514263772676
55.0480540442692
55.0446816858615
55.0413093020173
55.0379368927103
55.0345644579159
55.031191997607
55.0278195117572
55.0244470003401
55.0210744633298
55.0177019006995
55.0143293124236
55.0109566984758
55.0075840588288
55.004211393458
55.0008387023361
54.9974659854369
54.9940932427339
54.9907204742008
54.9873476798124
54.9839748595415
54.9806020133616
54.9772291412463
54.9738562431696
54.9704833191052
54.9671103690268
54.9637373929079
54.960364390722
54.956991362443
54.9536183080447
54.9502452275005
54.9468721207832
54.943498987868
54.9401258287271
54.9367526433354
54.9333794316649
54.9300061936916
54.9266329293861
54.9232596387249
54.9198863216787
54.9165129782241
54.9131396083311
54.9097662119778
54.9063927891327
54.9030193397748
54.899645863871
54.8962723614028
54.8928988323354
54.8895252766511
54.886151694313
54.8827780853072
54.8794044495924
54.8760307871596
54.8726570979627
54.8692833819972
54.8659096392108
54.8625358696055
54.8591620731242
54.8557882497746
54.852414399491
54.8490405222918
54.8456666180987
54.8422926869446
54.8389187287355
54.8355447435215
54.8321707311891
54.8287966918105
54.8254226252468
54.8220485315992
54.818674410696
54.8153002626761
54.811926087325
54.8085518848298
54.8051776549216
54.8018033978494
54.7984291132741
54.7950548015242
54.7916804621699
54.7883060956446
54.7849317013998
54.7815572800018
54.7781828307535
54.7748083543883
54.7714338500213
54.7680593185995
54.7646847589964
54.7613101724328
54.7579355574741
54.7545609156881
54.7511862452521
54.747811548171
54.7444368221325
54.74106206969
54.7376872879246
54.7343124800637
54.7309376424438
54.7275627791174
54.7241878855202
54.7208129666854
54.7174380169965
54.7140630426118
54.7106880367393
54.7073130067459
54.7039379446434
54.7005628589262
54.6971877406356
54.6938125989419
54.6904374246752
54.6870622264252
54.6836869967118
54.6803117405874
54.6769364565739
54.6735611395532
54.6701858036778
54.6668104187313
54.66343503668
54.6600595671253
54.656684156057
54.6533085616629
54.6499332026929
54.6465573790415
54.643183050467
0.5
56.5602659949901
56.5602659949901
56.258530697272
56.2173706647593
56.1972804552379
56.182861289874
56.1708600994872
56.1601164527086
56.1501180953159
56.1406122762129
56.1314657485632
56.1226048018652
56.1139866597298
56.1055849313801
56.0973819521259
56.0893646984551
56.081522618359
56.0738465013314
56.0663279113633
56.058958919609
56.0517319910988
56.0446399458651
56.037675952012
56.0308335290523
56.0241065512926
56.017489247155
56.0109761934519
56.0045623050652
55.9982428210446
55.9920132882408
55.9858695434778
55.9798076950931
55.9738241044705
55.9679153680218
55.9620782999101
55.9563099157156
55.9506074171275
55.9449681777213
55.9393897298024
55.9338697522913
55.928406059595
55.9229965913973
55.9176394033103
55.9123326583169
55.9070746189495
55.9018636401247
55.8966981625842
55.8915767068687
55.8864978678004
55.8814603094188
55.8764627603522
55.8715040095556
55.8665829023756
55.8616983369036
55.8568492606089
55.8520346672503
55.8472535940579
55.8425051191267
55.8377883589793
55.8331024662629
55.8284466275911
55.8238200615685
55.8192220170216
55.8146517713883
55.8101086291886
55.8055919205274
55.8011009996242
55.7966352434593
55.7921940506024
55.7877768402201
55.7833830511699
55.7790121410657
55.7746635852498
55.7703368757657
55.7660315204681
55.7617470423677
55.7574829791685
55.7532388828263
55.7490143189477
55.7448088660091
55.7406221145588
55.7364536666296
55.732303135496
55.7281701456623
55.7240543328202
55.7199553435123
55.7158728345073
55.7118064721412
55.7077559319955
55.7037208991063
55.6997010685755
55.6956961461818
55.6917058486549
55.6877299035735
55.6837680492501
55.6798200351286
55.6758856229832
55.671964588722
55.6680567241585
55.6641618380684
55.6602797562274
55.656410320724
55.6525533892071
55.6487088346023
55.644876545261
55.6410564248953
55.6372483914056
55.6334523741453
55.6296683099529
55.6258961390369
55.6221358018926
55.6183872378021
55.6146503844549
55.6109251774639
55.6072115485931
55.6035094223881
55.5998187121402
55.5961393168857
55.5924711209192
55.5888139960871
55.5851678055873
55.581532407052
55.5779076529705
55.5742933879533
55.5706894442259
55.5670956379295
55.5635117686584
55.5599376230928
55.5563729814191
55.5528176236524
55.5492713328195
55.5457338934413
55.5422050860823
55.5386846807946
55.5351724329528
55.5316680839278
55.5281713667874
55.5246820147986
55.5211997691691
55.5177243827756
55.5142556184377
55.5107932427524
55.5073370184507
55.5038866988278
55.500442026816
55.4970027392124
55.4935685743779
55.4901392803278
55.4867146200625
55.4832943722196
55.4798783270358
55.4764662794519
55.4730580221446
55.4696533411957
55.4662520159294
55.4628538228894
55.459458542421
55.45606596554
55.4526758988228
55.4492881658425
55.4459026049177
55.4425190640938
55.439137395002
55.435757447449
55.4323790661544
55.4290020903348
55.4256263559979
55.4222517001461
55.4188779657647
55.4155050064683
55.4121326899679
55.4087608999462
55.4053895363514
55.4020185144471
55.3986477630998
55.3952772227964
55.3919068437804
55.3885365845059
55.385166410483
55.3817962934369
55.3784262106694
55.3750561444876
55.3716860816209
55.3683160125704
55.3649459309115
55.3615758325789
55.3582057151926
55.3548355774732
55.351465418776
55.3480952387598
55.3447250371798
55.3413548137819
55.3379845682717
55.3346143003267
55.3312440096282
55.3278736958929
55.3245033588954
55.3211329984784
55.3177626145497
55.3143922070706
55.3110217760387
55.3076513214738
55.3042808433997
55.300910341837
55.2975398167979
55.2941692682803
55.2907986962701
55.2874281007454
55.2840574816767
55.2806868390308
55.2773161727752
55.2739454828768
55.2705747693045
55.26720403203
55.263833271025
55.2604624862657
55.2570916777266
55.2537208453848
55.2503499892156
55.2469791091963
55.2436082053018
55.2402372775078
55.2368663257883
55.2334953501186
55.2301243504733
55.2267533268258
55.2233822791508
55.2200112074223
55.2166401116144
55.2132689916995
55.2098978476536
55.206526679449
55.2031554870606
55.1997842704617
55.1964130296269
55.1930417645301
55.1896704751457
55.1862991614469
55.1829278234082
55.179556461004
55.1761850742077
55.1728136629932
55.1694422273354
55.1660707672077
55.1626992825839
55.1593277734383
55.1559562397451
55.1525846814772
55.1492130986098
55.1458414911167
55.1424698589718
55.1390982021484
55.1357265206205
55.132354814363
55.1289830833487
55.1256113275527
55.122239546948
55.1188677415088
55.1154959112087
55.1121240560227
55.1087521759234
55.1053802708857
55.1020083408825
55.0986363858886
55.0952644058772
55.0918924008228
55.088520370699
55.0851483154787
55.0817762351374
55.0784041296482
55.0750319989848
55.0716598431208
55.0682876620306
55.064915455688
55.0615432240666
55.0581709671403
55.0547986848826
55.0514263772676
55.0480540442692
55.0446816858615
55.0413093020173
55.0379368927103
55.0345644579159
55.031191997607
55.0278195117572
55.0244470003401
55.0210744633298
55.0177019006995
55.0143293124236
55.0109566984758
55.0075840588288
55.004211393458
55.0008387023361
54.9974659854369
54.9940932427339
54.9907204742008
54.9873476798124
54.9839748595415
54.9806020133616
54.9772291412463
54.9738562431696
54.9704833191052
54.9671103690268
54.9637373929079
54.960364390722
54.956991362443
54.9536183080447
54.9502452275005
54.9468721207832
54.943498987868
54.9401258287271
54.9367526433354
54.9333794316649
54.9300061936916
54.9266329293861
54.9232596387249
54.9198863216787
54.9165129782241
54.9131396083311
54.9097662119778
54.9063927891327
54.9030193397748
54.899645863871
54.8962723614028
54.8928988323354
54.8895252766511
54.886151694313
54.8827780853072
54.8794044495924
54.8760307871596
54.8726570979627
54.8692833819972
54.8659096392108
54.8625358696055
54.8591620731242
54.8557882497746
54.852414399491
54.8490405222918
54.8456666180987
54.8422926869446
54.8389187287355
54.8355447435215
54.8321707311891
54.8287966918105
54.8254226252468
54.8220485315992
54.818674410696
54.8153002626761
54.811926087325
54.8085518848298
54.8051776549216
54.8018033978494
54.7984291132741
54.7950548015242
54.7916804621699
54.7883060956446
54.7849317013998
54.7815572800018
54.7781828307535
54.7748083543883
54.7714338500213
54.7680593185995
54.7646847589964
54.7613101724328
54.7579355574741
54.7545609156881
54.7511862452521
54.747811548171
54.7444368221325
54.74106206969
54.7376872879246
54.7343124800637
54.7309376424438
54.7275627791174
54.7241878855202
54.7208129666854
54.7174380169965
54.7140630426118
54.7106880367393
54.7073130067459
54.7039379446434
54.7005628589262
54.6971877406356
54.6938125989419
54.6904374246752
54.6870622264252
54.6836869967118
54.6803117405874
54.6769364565739
54.6735611395532
54.6701858036778
54.6668104187313
54.66343503668
54.6600595671253
54.656684156057
54.6533085616629
54.6499332026929
54.6465573790415
54.643183050467
54.643183050467
56.5456842363262
56.5456842363262
56.2623665649136
56.2186260707794
56.1979156850875
56.1832557934018
56.1711317826007
56.1603158900962
56.1502712266888
56.1407339644922
56.1315651605264
56.1226878914515
56.1140574460165
56.1056462114153
56.0974357230996
56.0894124191885
56.0815653768599
56.0738851250237
56.066363041161
56.0589910605976
56.0517615477717
56.0446672469926
56.037701268447
56.0308570866657
56.0241285405027
56.0175098300517
56.010995509197
56.0045804740446
55.9982599481032
55.9920294652365
55.9858848513213
55.9798222053969
55.9738378808943
55.9679284673811
55.9620907730978
55.9563218084737
55.9506187706974
55.9449790293957
55.9394001133961
55.9338796985447
55.928415596522
55.9230057445858
55.9176481961835
55.912341112361
55.9070827539129
55.9018714741922
55.8967057125312
55.8915839881971
55.8865048948584
55.8814670955078
55.8764693178216
55.8715103498872
55.8665890362593
55.8617042743053
55.8568550108316
55.8520402389891
55.8472589954491
55.8425103577917
55.8377934420653
55.8331074004797
55.8284514192449
55.8238247165928
55.8192265410036
55.814656169594
55.8101129065849
55.8055960818037
55.8011050492127
55.7966391855536
55.7921978891735
55.7877805790305
55.7833866937857
55.7790156908692
55.7746670454526
55.770340249421
55.7660348104822
55.761750251508
55.7574861100704
55.7532419379992
55.7490173007823
55.7448117767866
55.7406249564601
55.7364564417422
55.7323058458183
55.7281727931052
55.7240569192085
55.71995787059
55.715875303945
55.7118088855446
55.7077582909105
55.7037232050202
55.6997033229143
55.6956983503078
55.6917080038677
55.6877320111138
55.6837701103059
55.6798220508346
55.675887594414
55.6719665168784
55.668058609954
55.6641636823193
55.6602815596527
55.65641208395
55.6525551127719
55.6487105189551
55.6448781907555
55.6410580317835
55.6372499598401
55.633453904195
55.6296698016296
55.6258975923238
55.6221372167647
55.6183886142314
55.6146517224067
55.6109264768927
55.6072128094499
55.6035106446445
55.5998198958193
55.5961404620888
55.5924722278312
55.5888150649574
55.5851688366973
55.5815334006854
55.5779086094065
55.5742943074872
55.5706903272094
55.5670964848075
55.5635125799812
55.5599383994942
55.5563737235681
55.5528183321997
55.5492720083681
55.5457345365545
55.5422056973272
55.5386852608
55.5351729824523
55.531668603767
55.5281718578875
55.5246824780937
55.5212002055431
55.5177247930265
55.514256003285
55.5107936028818
55.5073373545771
55.5038870117467
55.5004423174221
55.4970030084774
55.4935688232966
55.4901395098556
55.4867148310684
55.483294565473
55.4798785032301
55.4764664392538
55.4730581662504
55.4696534703711
55.4662521310211
55.4628539248037
55.4594586320786
55.4560660438238
55.4526759665346
55.4492882236817
55.445902653488
55.442519103931
55.4391374266158
55.4357574713638
55.4323790829387
55.4290021006136
55.4256263604456
55.4222516994655
55.4188779606576
55.4155049976057
55.4121326779657
55.4087608853506
55.4053895196332
55.4020184960046
55.3986477432669
55.3952772018525
55.3919068219608
55.3885365620094
55.3851663874778
55.3817962700637
55.3784261870436
55.3750561207015
55.3716860577446
55.3683159886549
55.3649459069916
55.3615758086764
55.3582056913199
55.3548355536366
55.351465394978
55.3480952150013
55.3447250134612
55.3413547901038
55.3379845446353
55.3346142767334
55.3312439860797
55.3278736723907
55.3245033354408
55.3211329750724
55.3177625911929
55.3143921837632
55.3110217527806
55.3076512982649
55.3042808202397
55.3009103187258
55.2975397937351
55.2941692452659
55.2907986733038
55.2874280778274
55.284057458807
55.2806868162095
55.2773161500022
55.2739454601522
55.2705747466285
55.2672040094026
55.2638332484462
55.2604624637356
55.2570916552451
55.2537208229519
55.2503499668314
55.2469790868607
55.243608183015
55.2402372552697
55.2368663035989
55.2334953279779
55.2301243283813
55.2267533047825
55.2233822571563
55.2200111854765
55.2166400897175
55.2132689698514
55.2098978258543
55.2065266576986
55.2031554653591
55.1997842488091
55.1964130080232
55.1930417429752
55.1896704536398
55.1862991399899
55.1829278020003
55.179556439645
55.1761850528977
55.1728136417321
55.1694422061234
55.1660707460447
55.1626992614699
55.1593277523734
55.1559562187293
55.1525846605104
55.1492130776922
55.1458414702481
55.1424698381524
55.1390981813781
55.1357264998994
55.132354793691
55.1289830627259
55.1256113069791
55.1222395264236
55.1188677210336
55.1154958907828
55.1121240356459
55.1087521555959
55.1053802506074
55.1020083206535
55.0986363657088
55.0952643857468
55.0918923807417
55.0885203506673
55.0851482954964
55.0817762152044
55.0784041097644
55.0750319791505
55.0716598233358
55.068287642295
55.0649154360018
55.0615432044298
55.0581709475529
55.0547986653447
55.0514263577792
55.0480540248303
55.044681666472
55.0413092826773
55.0379368734198
55.0345644386749
55.0311919784156
55.0278194926152
55.0244469812478
55.021074444287
55.0177018817063
55.0143292934799
55.0109566795818
55.0075840399844
55.0042113746631
55.0008386835909
54.9974659667413
54.9940932240879
54.9907204556046
54.9873476612659
54.9839748410446
54.9806019949144
54.9772291228488
54.9738562248218
54.9704833008071
54.9671103507785
54.9637373747093
54.9603643725732
54.9569913443441
54.9536182899954
54.9502452095011
54.9468721028336
54.9434989699682
54.9401258108771
54.9367526255352
54.9333794139146
54.9300061759912
54.9266329117356
54.9232596211241
54.919886304128
54.9165129607232
54.9131395908803
54.9097661945767
54.9063927717817
54.9030193224735
54.8996458466199
54.8962723442015
54.8928988151843
54.8895252595498
54.8861516772619
54.8827780683058
54.8794044326415
54.8760307702582
54.8726570811119
54.8692833651959
54.8659096224602
54.8625358529042
54.8591620564738
54.8557882331733
54.8524143829409
54.8490405057906
54.8456666016491
54.8422926705435
54.8389187123864
54.8355447272205
54.8321707149406
54.8287966756095
54.825422609099
54.8220485154983
54.8186743946492
54.815300246675
54.8119260713792
54.8085518689284
54.8051776390771
54.8018033820477
54.7984290975312
54.795054785822
54.791680446529
54.7883060800415
54.7849316858612
54.7815572644975
54.7781828153178
54.7748083389824
54.7714338346892
54.7680593032912
54.7646847437686
54.7613101572216
54.7579355423517
54.7545609005731
54.7511862302364
54.7478115331508
54.7444368072252
54.7410620547634
54.7376872731273
54.7343124652291
54.7309376277589
54.7275627643729
54.7241878709499
54.7208129520294
54.7174380025431
54.714063028043
54.7106880224043
54.7073129922642
54.7039379304267
54.7005628445341