# vtk DataFile Version 2.0
FlowField
ASCII
DATASET STRUCTURED_GRID
DIMENSIONS 400 1 200
POINTS 80000 float
0 0 0
0.08 0 0
0.16 0 0
0.24 0 0
0.32 0 0
0.4 0 0
0.48 0 0
0.56 0 0
0.64 0 0
0.72 0 0
0.8 0 0
0.88 0 0
0.96 0 0
1.04 0 0
1.12 0 0
1.2 0 0
1.28 0 0
1.36 0 0
1.44 0 0
1.52 0 0
1.6 0 0
1.68 0 0
1.76 0 0
1.84 0 0
1.92 0 0
2 0 0
2.08 0 0
2.16 0 0
2.24 0 0
2.32 0 0
2.4 0 0
2.48 0 0
2.56 0 0
2.64 0 0
2.72 0 0
2.8 0 0
2.88 0 0
2.96 0 0
3.04 0 0
3.12 0 0
3.2 0 0
3.28 0 0
3.36 0 0
3.44 0 0
3.52 0 0
3.6 0 0
3.68 0 0
3.76 0 0
3.84 0 0
3.92 0 0
4 0 0
4.08 0 0
4.16 0 0
4.24 0 0
4.32 0 0
4.4 0 0
4.48 0 0
4.56 0 0
4.64 0 0
4.72 0 0
4.8 0 0
4.88 0 0
4.96 0 0
5.04 0 0
5.12 0 0
5.2 0 0
5.28 0 0
5.36 0 0
5.44 0 0
5.52 0 0
5.6 0 0
5.68 0 0
5.76 0 0
5.84 0 0
5.92 0 0
6 0 0
6.08 0 0
6.16 0 0
6.24 0 0
6.32 0 0
6.4 0 0
6.48 0 0
6.56 0 0
6.64 0 0
6.72 0 0
6.8 0 0
6.88 0 0
6.96 0 0
7.04 0 0
7.12 0 0
7.2 0 0
7.28 0 0
7.36 0 0
7.44 0 0
7.52 0 0
7.6 0 0
7.68 0 0
7.76 0 0
7.84 0 0
7.92 0 0
8 0 0
8.08 0 0
8.16 0 0
8.24 0 0
8.32 0 0
8.4 0 0
8.48 0 0
8.56 0 0
8.64 0 0
8.72 0 0
8.8 0 0
8.88 0 0
8.96 0 0
9.04 0 0
9.12 0 0
9.2 0 0
9.28 0 0
9.36 0 0
9.44 0 0
9.52 0 0
9.6 0 0
9.68 0 0
9.76 0 0
9.84 0 0
9.92 0 0
10 0 0
10.08 0 0
10.16 0 0
10.24 0 0
10.32 0 0
10.4 0 0
10.48 0 0
10.56 0 0
10.64 0 0
10.72 0 0
10.8 0 0
10.88 0 0
10.96 0 0
11.04 0 0
11.12 0 0
11.2 0 0
11.28 0 0
11.36 0 0
11.44 0 0
11.52 0 0
11.6 0 0
11.68 0 0
11.76 0 0
11.84 0 0
11.92 0 0
12 0 0
12.08 0 0
12.16 0 0
12.24 0 0
12.32 0 0
12.4 0 0
12.48 0 0
12.56 0 0
12.64 0 0
12.72 0 0
12.8 0 0
12.88 0 0
12.96 0 0
13.04 0 0
13.12 0 0
13.2 0 0
13.28 0 0
13.36 0 0
13.44 0 0
13.52 0 0
13.6 0 0
13.68 0 0
13.76 0 0
13.84 0 0
13.92 0 0
14 0 0
14.08 0 0
14.16 0 0
14.24 0 0
14.32 0 0
14.4 0 0
14.48 0 0
14.56 0 0
14.64 0 0
14.72 0 0
14.8 0 0
14.88 0 0
14.96 0 0
15.04 0 0
15.12 0 0
15.2 0 0
15.28 0 0
15.36 0 0
15.44 0 0
15.52 0 0
15.6 0 0
15.68 0 0
15.76 0 0
15.84 0 0
15.92 0 0
16 0 0
16.08 0 0
16.16 0 0
16.24 0 0
16.32 0 0
16.4 0 0
16.48 0 0
16.56 0 0
16.64 0 0
16.72 0 0
16.8 0 0
16.88 0 0
16.96 0 0
17.04 0 0
17.12 0 0
17.2 0 0
17.28 0 0
17.36 0 0
17.44 0 0
17.52 0 0
17.6 0 0
17.68 0 0
17.76 0 0
17.84 0 0
17.92 0 0
18 0 0
18.08 0 0
18.16 0 0
18.24 0 0
18.32 0 0
18.4 0 0
18.48 0 0
18.56 0 0
18.64 0 0
18.72 0 0
18.8 0 0
18.88 0 0
18.96 0 0
19.04 0 0
19.12 0 0
19.2 0 0
19.28 0 0
19.36 0 0
19.44 0 0
19.52 0 0
19.6 0 0
19.68 0 0
19.76 0 0
19.84 0 0
19.92 0 0
20 0 0
20.08 0 0
20.16 0 0
20.24 0 0
20.32 0 0
20.4 0 0
20.48 0 0
20.56 0 0
20.64 0 0
20.72 0 0
20.8 0 0
20.88 0 0
20.96 0 0
21.04 0 0
21.12 0 0
21.2 0 0
21.28 0 0
21.36 0 0
21.44 0 0
21.52 0 0
21.6 0 0
21.68 0 0
21.76 0 0
21.84 0 0
21.92 0 0
22 0 0
22.08 0 0
22.16 0 0
22.24 0 0
22.32 0 0
22.4 0 0
22.48 0 0
22.56 0 0
22.64 0 0
22.72 0 0
22.8 0 0
22.88 0 0
22.96 0 0
23.04 0 0
23.12 0 0
23.2 0 0
23.28 0 0
23.36 0 0
23.44 0 0
23.52 0 0
23.6 0 0
23.68 0 0
23.76 0 0
23.84 0 0
23.92 0 0
24 0 0
24.08 0 0
24.16 0 0
24.24 0 0
24.32 0 0
24.4 0 0
24.48 0 0
24.56 0 0
24.64 0 0
24.72 0 0
24.8 0 0
24.88 0 0
24.96 0 0
25.04 0 0
25.12 0 0
25.2 0 0
25.28 0 0
25.36 0 0
25.44 0 0
25.52 0 0
25.6 0 0
25.68 0 0
25.76 0 0
25.84 0 0
25.92 0 0
26 0 0
26.08 0 0
26.16 0 0
26.24 0 0
26.32 0 0
26.4 0 0
26.48 0 0
26.56 0 0
26.64 0 0
26.72 0 0
26.8 0 0
26.88 0 0
26.96 0 0
27.04 0 0
27.12 0 0
27.2 0 0
27.28 0 0
27.36 0 0
27.44 0 0
27.52 0 0
27.6 0 0
27.68 0 0
27.76 0 0
27.84 0 0
27.92 0 0
28 0 0
28.08 0 0
28.16 0 0
28.24 0 0
28.32 0 0
28.4 0 0
28.48 0 0
28.56 0 0
28.64 0 0
28.72 0 0
28.8 0 0
28.88 0 0
28.96 0 0
29.04 0 0
29.12 0 0
29.2 0 0
29.28 0 0
29.36 0 0
29.44 0 0
29.52 0 0
29.6 0 0
29.68 0 0
29.76 0 0
29.84 0 0
29.92 0 0
30 0 0
30.08 0 0
30.16 0 0
30.24 0 0
30.32 0 0
30.4 0 0
30.48 0 0
30.56 0 0
30.64 0 0
30.72 0 0
30.8 0 0
30.88 0 0
30.96 0 0
31.04 0 0
31.12 0 0
31.2 0 0
31.28 0 0
31.36 0 0
31.44 0 0
31.52 0 0
31.6 0 0
31.68 0 0
31.76 0 0
31.84 0 0
31.92 0 0
0 0.005 0
0.08 0.005 0
0.16 0.005 0
0.24 0.005 0
0.32 0.005 0
0.4 0.005 0
0.48 0.005 0
0.56 0.005 0
0.64 0.005 0
0.72 0.005 0
0.8 0.005 0
0.88 0.005 0
0.96 0.005 0
1.04 0.005 0
1.12 0.005 0
1.2 0.005 0
1.28 0.005 0
1.36 0.005 0
1.44 0.005 0
1.52 0.005 0
1.6 0.005 0
1.68 0.005 0
1.76 0.005 0
1.84 0.005 0
1.92 0.005 0
2 0.005 0
2.08 0.005 0
2.16 0.005 0
2.24 0.005 0
2.32 0.005 0
2.4 0.005 0
2.48 0.005 0
2.56 0.005 0
2.64 0.005 0
2.72 0.005 0
2.8 0.005 0
2.88 0.005 0
2.96 0.005 0
3.04 0.005 0
3.12 0.005 0
3.2 0.005 0
3.28 0.005 0
3.36 0.005 0
3.44 0.005 0
3.52 0.005 0
3.6 0.005 0
3.68 0.005 0
3.76 0.005 0
3.84 0.005 0
3.92 0.005 0
4 0.005 0
4.08 0.005 0
4.16 0.005 0
4.24 0.005 0
4.32 0.005 0
4.4 0.005 0
4.48 0.005 0
4.56 0.005 0
4.64 0.005 0
4.72 0.005 0
4.8 0.005 0
4.88 0.005 0
4.96 0.005 0
5.04 0.005 0
5.12 0.005 0
5.2 0.005 0
5.28 0.005 0
5.36 0.005 0
5.44 0.005 0
5.52 0.005 0
5.6 0.005 0
5.68 0.005 0
5.76 0.005 0
5.84 0.005 0
5.92 0.005 0
6 0.005 0
6.08 0.005 0
6.16 0.005 0
6.24 0.005 0
6.32 0.005 0
6.4 0.005 0
6.48 0.005 0
6.56 0.005 0
6.64 0.005 0
6.72 0.005 0
6.8 0.005 0
6.88 0.005 0
6.96 0.005 0
7.04 0.005 0
7.12 0.005 0
7.2 0.005 0
7.28 0.005 0
7.36 0.005 0
7.44 0.005 0
7.52 0.005 0
7.6 0.005 0
7.68 0.005 0
7.76 0.005 0
7.84 0.005 0
7.92 0.005 0
8 0.005 0
8.08 0.005 0
8.16 0.005 0
8.24 0.005 0
8.32 0.005 0
8.4 0.005 0
8.48 0.005 0
8.56 0.005 0
8.64 0.005 0
8.72 0.005 0
8.8 0.005 0
8.88 0.005 0
8.96 0.005 0
9.04 0.005 0
9.12 0.005 0
9.2 0.005 0
9.28 0.005 0
9.36 0.005 0
9.44 0.005 0
9.52 0.005 0
9.6 0.005 0
9.68 0.005 0
9.76 0.005 0
9.84 0.005 0
9.92 0.005 0
10 0.005 0
10.08 0.005 0
10.16 0.005 0
10.24 0.005 0
10.32 0.005 0
10.4 0.005 0
10.48 0.005 0
10.56 0.005 0
10.64 0.005 0
10.72 0.005 0
10.8 0.005 0
10.88 0.005 0
10.96 0.005 0
11.04 0.005 0
11.12 0.005 0
11.2 0.005 0
11.28 0.005 0
11.36 0.005 0
11.44 0.005 0
11.52 0.005 0
11.6 0.005 0
11.68 0.005 0
11.76 0.005 0
11.84 0.005 0
11.92 0.005 0
12 0.005 0
12.08 0.005 0
12.16 0.005 0
12.24 0.005 0
12.32 0.005 0
12.4 0.005 0
12.48 0.005 0
12.56 0.005 0
12.64 0.005 0
12.72 0.005 0
12.8 0.005 0
12.88 0.005 0
12.96 0.005 0
13.04 0.005 0
13.12 0.005 0
13.2 0.005 0
13.28 0.005 0
13.36 0.005 0
13.44 0.005 0
13.52 0.005 0
13.6 0.005 0
13.68 0.005 0
13.76 0.005 0
13.84 0.005 0
13.92 0.005 0
14 0.005 0
14.08 0.005 0
14.16 0.005 0
14.24 0.005 0
14.32 0.005 0
14.4 0.005 0
14.48 0.005 0
14.56 0.005 0
14.64 0.005 0
14.72 0.005 0
14.8 0.005 0
14.88 0.005 0
14.96 0.005 0
15.04 0.005 0
15.12 0.005 0
15.2 0.005 0
15.28 0.005 0
15.36 0.005 0
15.44 0.005 0
15.52 0.005 0
15.6 0.005 0
15.68 0.005 0
15.76 0.005 0
15.84 0.005 0
15.92 0.005 0
16 0.005 0
16.08 0.005 0
16.16 0.005 0
16.24 0.005 0
16.32 0.005 0
16.4 0.005 0
16.48 0.005 0
16.56 0.005 0
16.64 0.005 0
16.72 0.005 0
16.8 0.005 0
16.88 0.005 0
16.96 0.005 0
17.04 0.005 0
17.12 0.005 0
17.2 0.005 0
17.28 0.005 0
17.36 0.005 0
17.44 0.005 0
17.52 0.005 0
17.6 0.005 0
17.68 0.005 0
17.76 0.005 0
17.84 0.005 0
17.92 0.005 0
18 0.005 0
18.08 0.005 0
18.16 0.005 0
18.24 0.005 0
18.32 0.005 0
18.4 0.005 0
18.48 0.005 0
18.56 0.005 0
18.64 0.005 0
18.72 0.005 0
18.8 0.005 0
18.88 0.005 0
18.96 0.005 0
19.04 0.005 0
19.12 0.005 0
19.2 0.005 0
19.28 0.005 0
19.36 0.005 0
19.44 0.005 0
19.52 0.005 0
19.6 0.005 0
19.68 0.005 0
19.76 0.005 0
19.84 0.005 0
19.92 0.005 0
20 0.005 0
20.08 0.005 0
20.16 0.005 0
20.24 0.005 0
20.32 0.005 0
20.4 0.005 0
20.48 0.005 0
20.56 0.005 0
20.64 0.005 0
20.72 0.005 0
20.8 0.005 0
20.88 0.005 0
20.96 0.005 0
21.04 0.005 0
21.12 0.005 0
21.2 0.005 0
21.28 0.005 0
21.36 0.005 0
21.44 0.005 0
21.52 0.005 0
21.6 0.005 0
21.68 0.005 0
21.76 0.005 0
21.84 0.005 0
21.92 0.005 0
22 0.005 0
22.08 0.005 0
22.16 0.005 0
22.24 0.005 0
22.32 0.005 0
22.4 0.005 0
22.48 0.005 0
22.56 0.005 0
22.64 0.005 0
22.72 0.005 0
22.8 0.005 0
22.88 0.005 0
22.96 0.005 0
23.04 0.005 0
23.12 0.005 0
23.2 0.005 0
23.28 0.005 0
23.36 0.005 0
23.44 0.005 0
23.52 0.005 0
23.6 0.005 0
23.68 0.005 0
23.76 0.005 0
23.84 0.005 0
23.92 0.005 0
24 0.005 0
24.08 0.005 0
24.16 0.005 0
24.24 0.005 0
24.32 0.005 0
24.4 0.005 0
24.48 0.005 0
24.56 0.005 0
24.64 0.005 0
24.72 0.005 0
24.8 0.005 0
24.88 0.005 0
24.96 0.005 0
25.04 0.005 0
25.12 0.005 0
25.2 0.005 0
25.28 0.005 0
25.36 0.005 0
25.44 0.005 0
25.52 0.005 0
25.6 0.005 0
25.68 0.005 0
25.76 0.005 0
25.84 0.005 0
25.92 0.005 0
26 0.005 0
26.08 0.005 0
26.16 0.005 0
26.24 0.005 0
26.32 0.005 0
26.4 0.005 0
26.48 0.005 0
26.56 0.005 0
26.64 0.005 0
26.72 0.005 0
26.8 0.005 0
26.88 0.005 0
26.96 0.005 0
27.04 0.005 0
27.12 0.005 0
27.2 0.005 0
27.28 0.005 0
27.36 0.005 0
27.44 0.005 0
27.52 0.005 0
27.6 0.005 0
27.68 0.005 0
27.76 0.005 0
27.84 0.005 0
27.92 0.005 0
28 0.005 0
28.08 0.005 0
28.16 0.005 0
28.24 0.005 0
28.32 0.005 0
28.4 0.005 0
28.48 0.005 0
28.56 0.005 0
28.64 0.005 0
28.72 0.005 0
28.8 0.005 0
28.88 0.005 0
28.96 0.005 0
29.04 0.005 0
29.12 0.005 0
29.2 0.005 0
29.28 0.005 0
29.36 0.005 0
29.44 0.005 0
29.52 0.005 0
29.6 0.005 0
29.68 0.005 0
29.76 0.005 0
29.84 0.005 0
29.92 0.005 0
30 0.005 0
30.08 0.005 0
30.16 0.005 0
30.24 0.005 0
30.32 0.005 0
30.4 0.005 0
30.48 0.005 0
30.56 0.005 0
30.64 0.005 0
30.72 0.005 0
30.8 0.005 0
30.88 0.005 0
30.96 0.005 0
31.04 0.005 0
31.12 0.005 0
31.2 0.005 0
31.28 0.005 0
31.36 0.005 0
31.44 0.005 0
31.52 0.005 0
31.6 0.005 0
31.68 0.005 0
31.76 0.005 0
31.84 0.005 0
31.92 0.005 0
0 0.01 0
0.08 0.01 0
0.16 0.01 0
0.24 0.01 0
0.32 0.01 0
0.4 0.01 0
0.48 0.01 0
0.56 0.01 0
0.64 0.01 0
0.72 0.01 0
0.8 0.01 0
0.88 0.01 0
0.96 0.01 0
1.04 0.01 0
1.12 0.01 0
1.2 0.01 0
1.28 0.01 0
1.36 0.01 0
1.44 0.01 0
1.52 0.01 0
1.6 0.01 0
1.68 0.01 0
1.76 0.01 0
1.84 0.01 0
1.92 0.01 0
2 0.01 0
2.08 0.01 0
2.16 0.01 0
2.24 0.01 0
2.32 0.01 0
2.4 0.01 0
2.48 0.01 0
2.56 0.01 0
2.64 0.01 0
2.72 0.01 0
2.8 0.01 0
2.88 0.01 0
2.96 0.01 0
3.04 0.01 0
3.12 0.01 0
3.2 0.01 0
3.28 0.01 0
3.36 0.01 0
3.44 0.01 0
3.52 0.01 0
3.6 0.01 0
3.68 0.01 0
3.76 0.01 0
3.84 0.01 0
3.92 0.01 0
4 0.01 0
4.08 0.01 0
4.16 0.01 0
4.24 0.01 0
4.32 0.01 0
4.4 0.01 0
4.48 0.01 0
4.56 0.01 0
4.64 0.01 0
4.72 0.01 0
4.8 0.01 0
4.88 0.01 0
4.96 0.01 0
5.04 0.01 0
5.12 0.01 0
[...]
POINT_DATA 80000

SCALARS v float 1
LOOKUP_TABLE default
0
0
0
0
0
0
0
0
0
0
0
0
0
0
0
0
0
0
0
0
0
0
0
0
0
0
0
0
0
0
0
0
0
0
0
0
0
0
0
0
0
0
0
0
0
0
0
0
0
0
0
0
0
0
0
0
0
0
0
0
0
0
0
0
0
0
0
0
0
0
0
0
0
0
0
0
0
0
0
0
0
0
0
0
0
0
0
0
0
0
0
0
0
0
0
0
0
0
0
0
0
0
0
0
0
0
0
0
0
0
0
0
0
0
0
0
0
0
0
0
0
0
0
0
0
0
0
0
0
0
0
0
0
0
0
0
0
0
0
0
0
0
0
0
0
0
0
0
0
0
0
0
0
0
0
0
0
0
0
0
0
0
0
0
0
0
0
0
0
0
0
0
0
0
0
0
0
0
0
0
0
0
0
0
0
0
0
0
0
0
0
0
0
0
0
0
0
0
0
0
0
0
0
0
0
0
0
0
0
0
0
0
0
0
0
0
0
0
0
0
0
0
0
0
0
0
0
0
0
0
0
0
0
0
0
0
0
0
0
0
0
0
0
0
0
0
0
0
0
0
0
0
0
0
0
0
0
0
0
0
0
0
0
0
0
0
0
0
0
0
0
0
0
0
0
0
0
0
0
0
0
0
0
0
0
0
0
0
0
0
0
0
0
0
0
0
0
0
0
0
0
0
0
0
0
0
0
0
0
0
0
0
0
0
0
0
0
0
0
0
0
0
0
0
0
0
0
0
0
0
0
0
0
0
0
0
0
0
0
0
0
0
0
0
0
0
0
0
0
0
0
0
0
0
0
0
0
0
0
0
0
0
0
0
0
0
0
0
0
0
0
0
0
0
0
0
0
0
0
0
0
0
0
0
0
0
0
0
0
0
0
0
0
0
0
0
0
0
0
0
-0.0542711349961648
0.0542711349961648
0.00396214156251826
0.000998376880132867
0.00049230766561908
0.000302743845838949
0.000207367786852763
0.00015173943589806
0.000116298069577285
9.23417282204414e-05
7.54286142446305e-05
6.3068029617236e-05
5.3767609976268e-05
4.65891835804421e-05
4.09213608270369e-05
3.63543025723026e-05
3.26067764759528e-05
2.94818068939473e-05
2.6838810598462e-05
2.4575640187555e-05
2.26167763069642e-05
2.090543266395e-05
1.93982002168554e-05
1.806136550044e-05
1.68683474484185e-05
1.57978901656712e-05
1.48327727041455e-05
1.3958876199981e-05
1.31645003947677e-05
1.24398556821346e-05
1.17766801055539e-05
1.11679469360968e-05
1.06076392734002e-05
1.00905744086862e-05
9.61226438475425e-06
9.16880310988397e-06
8.75677410321533e-06
8.37317603100109e-06
8.01536348582383e-06
7.68099885498495e-06
7.36801052923948e-06
7.07455465283275e-06
6.79898197410599e-06
6.5398123477598e-06
6.2957173243742e-06
6.06550630761604e-06
5.84811092303687e-06
5.64256553350793e-06
5.44798909291446e-06
5.26357408645929e-06
5.08858478951387e-06
4.92235839157497e-06
4.76430014763e-06
4.61386932591385e-06
4.47056200539457e-06
4.33390179611264e-06
4.20344392499459e-06
4.0787866933749e-06
3.95957707327207e-06
3.8455012000501e-06
3.73626402084317e-06
3.63157230560309e-06
3.53113491491057e-06
3.43467988152581e-06
3.34197387965835e-06
3.25282586485404e-06
3.16706868460676e-06
3.08453038957697e-06
3.00501726094371e-06
2.92832242995769e-06
2.85425517847086e-06
2.78266816331207e-06
2.71345971072768e-06
2.64654534862744e-06
2.58181565551967e-06
2.5191088219981e-06
2.45821668876968e-06
2.39891932703237e-06
2.341021330248e-06
2.28436095692769e-06
2.2287822877358e-06
2.17408884068392e-06
2.12001427550157e-06
2.06623904684723e-06
2.01245282443387e-06
1.95843181229666e-06
1.90408597353273e-06
1.84944655533168e-06
1.79460000796962e-06
1.73960828358058e-06
1.68446616285527e-06
1.62912496927944e-06
1.57357098875388e-06
1.51791015348989e-06
1.46240203961354e-06
1.4074121385775e-06
1.35329782905954e-06
1.3002843261523e-06
1.24839736487611e-06
1.19749216158348e-06
1.14736788230443e-06
1.09791045907917e-06
1.04918945856212e-06
1.00145763377139e-06
9.55051079236733e-07
9.10239264000341e-07
8.67099898239713e-07
8.25481627327143e-07
7.8507427067615e-07
7.45553627611484e-07
7.06733256386526e-07
6.68653148312921e-07
6.31565555909614e-07
5.95826285658482e-07
5.61741216313026e-07
5.29435499302898e-07
4.98800196917e-07
4.6953612210784e-07
4.41273032363158e-07
4.13713478449225e-07
3.86743677474821e-07
3.60470651245399e-07
3.35175527949799e-07
3.11205013976027e-07
2.88843328382529e-07
2.68210128267972e-07
2.49216847152441e-07
2.31590855563864e-07
2.14954030060299e-07
1.98926771465694e-07
1.83224482903746e-07
1.6772005592772e-07
1.52459886540488e-07
1.37635694272699e-07
1.23525880331064e-07
1.1042591511516e-07
9.8586002201574e-08
8.81688927170153e-08
7.92327652488768e-08
7.17373127366025e-08
6.5565889081253e-08
6.05552151391819e-08
5.65245466125325e-08
5.32987570618225e-08
5.07228894222897e-08
4.86684408474357e-08
4.70329730919025e-08
4.57359949329367e-08
4.47135123897867e-08
4.39128370869333e-08
4.32889584244917e-08
4.28024413740964e-08
4.24187355514652e-08
4.21081462785222e-08
4.18461836783306e-08
4.16136972958857e-08
4.13967876978654e-08
4.11861701846295e-08
4.09764056347912e-08
4.07649265457595e-08
4.05510852807052e-08
4.03353023205713e-08
4.01184866854724e-08
3.99015777288832e-08
3.96852819318562e-08
3.9470036712245e-08
3.92559551060266e-08
3.90430030179641e-08
3.88309302988237e-08
3.86194641283171e-08
3.84083692518977e-08
3.81974025180682e-08
3.79864093902746e-08
3.77752826536462e-08
3.75639658691107e-08
3.7352470192114e-08
3.71407763628715e-08
3.69289446998015e-08
3.6716993675694e-08
3.65049424287392e-08
3.62928195456748e-08
3.60806577988571e-08
3.58684501065181e-08
3.56562127289181e-08
3.54439435919967e-08
3.52316348518994e-08
3.50192877046561e-08
3.48069207436912e-08
3.45945020451067e-08
3.43820495800965e-08
3.41695511539214e-08
3.39570040745727e-08
3.374441420703e-08
3.35317815992968e-08
3.33191090192574e-08
3.31063840165369e-08
3.28936296005058e-08
3.26808234411409e-08
3.24679671915519e-08
3.22550782760604e-08
3.20421396501871e-08
3.18291664445255e-08
3.16161464823905e-08
3.14030753845241e-08
3.11899639451662e-08
3.09768090520793e-08
3.07636020852669e-08
3.05503477640612e-08
3.03370482778019e-08
3.01237074546297e-08
2.99103157224172e-08
2.9696875989143e-08
2.94833950445834e-08
2.9269860745278e-08
2.90562813804251e-08
2.88426534223017e-08
2.86289671311777e-08
2.84152548575316e-08
2.82014780555813e-08
2.79876457160677e-08
2.77737776052238e-08
2.7559850627871e-08
2.73458767818536e-08
2.71318601463655e-08
2.69177846596767e-08
2.67036607795155e-08
2.64894832074906e-08
2.6275260989301e-08
2.60609886592532e-08
2.58466641966737e-08
2.56322801236343e-08
2.54178518481394e-08
2.52033818125403e-08
2.49888495688008e-08
2.4774259629824e-08
2.45596333698822e-08
2.43449400300246e-08
2.41302078512754e-08
2.39154223490624e-08
2.37005696986585e-08
2.34856807792781e-08
2.32707372180605e-08
2.30557323572474e-08
2.28406810675978e-08
2.26255723533419e-08
2.24104224168985e-08
2.21952085539322e-08
2.19799589279685e-08
2.17646261224064e-08
2.15492582432084e-08
2.13338396099316e-08
2.11183571145879e-08
2.09028247411782e-08
2.06872435484792e-08
2.04716106541115e-08
2.02559116077534e-08
2.0040164995662e-08
1.98243634465977e-08
1.96085047841641e-08
1.93925971456684e-08
1.91766334391752e-08
1.89606100334377e-08
1.87445363518269e-08
1.85284092984384e-08
1.83122251568753e-08
1.80959931583953e-08
1.78796883152778e-08
1.76633395877715e-08
1.74469512401185e-08
1.72304848302513e-08
1.70139733073024e-08
1.67973947798758e-08
1.65807637660494e-08
1.63640899088178e-08
1.61473491568746e-08
1.59305609835298e-08
1.57136898621436e-08
1.54967878671684e-08
1.52798323622269e-08
1.50628077990521e-08
1.48457284612838e-08
1.46285957200112e-08
1.44114083872665e-08
1.41941583183559e-08
1.39768654513662e-08
1.3759500117791e-08
1.35420753597301e-08
1.33246059516925e-08
1.31070725794586e-08
1.28894807760863e-08
1.26718400324451e-08
1.24541386892993e-08
1.22363754534668e-08
1.20185524101297e-08
1.18006832587951e-08
1.15827479994899e-08
1.13647566535006e-08
1.11466995164724e-08
1.0928589210937e-08
1.07104226935405e-08
1.04922027914607e-08
1.02739098582284e-08
1.00555747054103e-08
9.83716133435759e-09
9.61872349107887e-09
9.40017516339793e-09
9.18162107760735e-09
8.96293985352661e-09
8.74429123239696e-09
8.52548596463749e-09
8.30671467945161e-09
8.08778138397409e-09
7.86891745926246e-09
7.64984682844787e-09
7.43087348191742e-09
7.21165906876921e-09
6.99259768589039e-09
6.773242993155e-09
6.55408104648201e-09
6.33456000635118e-09
6.1153314663962e-09
5.89563993570937e-09
5.67635289702656e-09
5.4564679847369e-09
5.23712887124412e-09
5.01703854098883e-09
4.79767907030565e-09
4.57734832843112e-09
4.35799614451219e-09
4.13739650044295e-09
3.9180955576898e-09
3.69716390744237e-09
3.47797531504175e-09
3.25666426526687e-09
3.03763163099679e-09
2.81587413010688e-09
2.59709534297826e-09
2.37477062820578e-09
2.15636708837627e-09
1.93336143769116e-09
1.71547636821455e-09
1.49161767250654e-09
1.2744408063389e-09
1.04948928627995e-09
8.33268290410374e-10
6.06962534097362e-10
3.9202907700362e-10
1.63987878641363e-10
-4.92495592040439e-11
-2.79482090158239e-10
-4.90490692554865e-10
-7.23521533976632e-10
-9.31613561464816e-10
-1.16821995569769e-09
-1.37250811053061e-09
-1.61370987533428e-09
-1.81305753380269e-09
-2.06009111351235e-09
-2.25306539832662e-09
-2.50757258378454e-09
-2.69234896885038e-09
-2.95637355106299e-09
-3.13063284504399e-09
-3.40672514582048e-09
-3.56757869611568e-09
-3.85897955157254e-09
-4.00281998235975e-09
-4.31347721526819e-09
-4.43592633220974e-09
-4.77063373868814e-09
-4.86637812160916e-09
-5.23083273546899e-09
-5.29375248643346e-09
-5.69436914750916e-09
-5.71773733960651e-09
-6.16127704484297e-09
-6.1384555197879e-09
-6.63095039739724e-09
-6.55698455187379e-09
-7.10152596876591e-09
-6.97658585431999e-09
-7.56855699496445e-09
-7.40492105499094e-09
-8.02253071464134e-09
-7.85911796221e-09
-8.44384880862688e-09
-8.37653241376603e-09
-8.79194400449605e-09
-9.03954780420577e-09
-8.97940895035495e-09
-1.00343038996881e-08
-8.7959811975504e-09
-1.17949713386963e-08
-7.61124252466997e-09
-1.53473889385984e-08
-2.63985330994475e-09
-2.2822358002395e-08
3.32446924236056e-08
-1.12134460773123e-08
-1.12134460773123e-08
-0.0952159127244296
0.0952159127244296
0.0129756754359428
0.00385467563548617
0.00193436633507987
0.00119625828079404
0.000821800498777333
0.000602374228508344
0.000462127024896216
0.000367101178358449
0.000299891049444068
0.000250705562894809
0.000213662404591645
0.00018505472955396
0.000162461439746965
0.000144256195466917
0.000129320872400872
0.000116871005375272
0.000106345901869886
9.73376845243178e-05
8.95445361130035e-05
8.27393740562586e-05
7.67485577433492e-05
7.14372240869414e-05
6.66990600752076e-05
6.24490809541596e-05
5.86184672681257e-05
5.5150827986756e-05
5.19994601673158e-05
4.91253112649437e-05
4.64954425499226e-05
4.40818561890009e-05
4.186059136818e-05
3.98110194166345e-05
3.79152846318065e-05
3.61578519095835e-05
3.45251383558174e-05
3.3005216319495e-05
3.1587576681352e-05
3.0262935319227e-05
2.90230648649942e-05
2.78606427906442e-05
2.67691209929117e-05
2.57426261080135e-05
2.47758893035604e-05
2.38641885764054e-05
2.30032838555054e-05
2.21893408194401e-05
2.1418861824032e-05
2.06886458207126e-05
1.99957803684485e-05
1.93376415172077e-05
1.87118700130467e-05
1.81163152270403e-05
1.75489724452128e-05
1.70079523205668e-05
1.649149853717e-05
1.59980275307553e-05
1.55261421797145e-05
1.50745906295718e-05
1.46421898750067e-05
1.42277691920068e-05
1.38301776823725e-05
1.3448349720981e-05
1.3081370603179e-05
1.27284797281671e-05
1.2388996013625e-05
1.2062214846502e-05
1.17473551722281e-05
1.14436015287267e-05
1.11502129749816e-05
1.08666137575205e-05
1.05923869930812e-05
1.03271602579251e-05
1.00704530222277e-05
9.82158867916872e-06
9.57973070594497e-06
9.34401366106928e-06
9.11366750272322e-06
8.88803537046589e-06
8.666461341782e-06
8.44812619911697e-06
8.23196197872647e-06
8.01673875657896e-06
7.80130900194824e-06
7.58488454663096e-06
7.36718523938811e-06
7.14836551497139e-06
6.92875816574012e-06
6.7085918038918e-06
6.48786158405062e-06
6.26644351694077e-06
6.04438948666902e-06
5.82221716396314e-06
5.6009939837038e-06
5.38212201003588e-06
5.16690340155632e-06
4.9561034921164e-06
4.74974804572392e-06
4.54727758488997e-06
4.34799354630382e-06
4.15157166117155e-06
3.95837556830952e-06
3.76940254312804e-06
3.58588133572937e-06
3.40872128298801e-06
3.23808910524415e-06
3.07332711520817e-06
2.91325811583176e-06
2.75673539323617e-06
2.60317977080637e-06
2.452856830249e-06
2.30677121509358e-06
2.16623168239831e-06
2.0322848649908e-06
1.90526542820328e-06
1.78464980230866e-06
1.66926434680441e-06
1.55774956592404e-06
1.44908437992195e-06
1.34296233854546e-06
1.23988340272478e-06
1.14094152625487e-06
1.04740303495814e-06
9.60237972537587e-07
8.79769052299627e-07
8.05547223106686e-07
7.36476112018494e-07
6.7112532968083e-07
6.0811990622471e-07
5.4648471041143e-07
4.85852301553567e-07
4.26495347089819e-07
3.69199492930763e-07
3.15032857543211e-07
2.65085205717794e-07
2.20243316392452e-07
1.81046344991079e-07
1.47636069102244e-07
1.19790975853837e-07
9.70166991183195e-08
7.86597836731396e-08
6.40159376230083e-08
5.24133506492762e-08
4.32633860920779e-08
3.60801911122559e-08
3.04770520730831e-08
2.61495486711515e-08
2.28544189883234e-08
2.03907648569267e-08
1.85867412948106e-08
1.7292190405034e-08
1.63762014744866e-08
1.57271660039826e-08
1.5253875028214e-08
1.48857846004503e-08
1.4572116617304e-08
1.42795491977935e-08
1.39889254825517e-08
1.36915197110808e-08
1.33854971896965e-08
1.30727998126574e-08
1.27569046266463e-08
1.24412257599684e-08
1.21283213152231e-08
1.18196634393032e-08
1.15156193292067e-08
1.12158197295208e-08
1.09194101357624e-08
1.06253422090135e-08
1.0332637319319e-08
1.00404632737417e-08
9.74823900058825e-09
9.45558703289758e-09
9.16236777796072e-09
8.86850450476931e-09
8.57411191716961e-09
8.27926829659842e-09
7.98409080266412e-09
7.68872193208481e-09
7.39320274334605e-09
7.09762957120304e-09
6.80204076064503e-09
6.50643258464981e-09
6.21082316002572e-09
5.91520717871109e-09
5.61958593109989e-09
5.32393251451033e-09
5.02825746077454e-09
4.73254889586918e-09
4.43679682512784e-09
4.14100516984065e-09
3.84517050153937e-09
3.54929255955835e-09
3.25335783394087e-09
2.9573911233564e-09
2.66139172906954e-09
2.36533060923219e-09
2.06924862929447e-09
1.77310188164672e-09
1.47692059769459e-09
1.18070503064784e-09
8.84440840142134e-10
5.88119829307039e-10
2.91759892779039e-10
-4.66451936345074e-12
-3.01117388832558e-10
-5.97635085511063e-10
-8.94206148099792e-10
-1.19083268847842e-09
-1.48750599851701e-09
-1.78424525438351e-09
-2.08103404879462e-09
-2.37788528554232e-09
-2.67478604761458e-09
-2.97176010728677e-09
-3.26879082178542e-09
-3.56587258426547e-09
-3.86303162780429e-09
-4.16024038124243e-09
-4.45753162340009e-09
-4.75486213965701e-09
-5.05226570908936e-09
-5.34974693227271e-09
-5.64728389700017e-09
-5.94488728488908e-09
-6.24255191349211e-09
-6.54029599154381e-09
-6.83809272812343e-09
-7.13597215461059e-09
-7.43390961258201e-09
-7.73191812352794e-09
-8.02998301411473e-09
-8.32814102526137e-09
-8.62634847999732e-09
-8.92463928482096e-09
-9.22299554087123e-09
-9.52141751167173e-09
-9.81992602736446e-09
-1.01184996639883e-08
-1.04171451291711e-08
-1.07158496220394e-08
-1.10146446854907e-08
-1.13135016526532e-08
-1.16124329069303e-08
-1.19114540858678e-08
-1.22105379217832e-08
-1.25096896940225e-08
-1.2808916332082e-08
-1.31082195127133e-08
-1.34076048396074e-08
-1.37070694534189e-08
-1.40065949334932e-08
-1.43062079530912e-08
-1.46058876573107e-08
-1.49056529313307e-08
-1.52054900546855e-08
-1.55054068400546e-08
-1.58053981739771e-08
-1.61054788144293e-08
-1.64056229310266e-08
-1.67058522584854e-08
-1.70061523402154e-08
-1.73065477199292e-08
-1.76070029625474e-08
-1.79075484781661e-08
-1.82081763874874e-08
-1.85088769763824e-08
-1.88096583711867e-08
-1.91105177861052e-08
-1.9411463629712e-08
-1.97124870397517e-08
-2.0013598824056e-08
-2.03147876457552e-08
-2.06160392743652e-08
-2.09173968517995e-08
-2.12188243248953e-08
-2.15203414742644e-08
-2.18219344580076e-08
-2.21236051732402e-08
-2.24253775114202e-08
-2.27272195883406e-08
-2.30291383311853e-08
-2.33311562501238e-08
-2.36332442823157e-08
-2.39354234379205e-08
-2.42376783699112e-08
-2.45400311997724e-08
-2.48424512967624e-08
-2.51449714888701e-08
-2.54475586162482e-08
-2.57502493106802e-08
-2.60530074075413e-08
-2.63558865802582e-08
-2.66588073386323e-08
-2.69618534542165e-08
-2.72649412546563e-08
-2.75681719729985e-08
-2.78714256609822e-08
-2.81748333534107e-08
-2.84782657855508e-08
-2.87818525680562e-08
-2.90854379585512e-08
-2.93892325983043e-08
-2.96929627327777e-08
-2.99969569159932e-08
-3.03008541782057e-08
-3.06050488886483e-08
-3.09090880546904e-08
-3.12135035805479e-08
-3.15176803934443e-08
-3.18223211726024e-08
-3.21266262226557e-08
-3.24315153667918e-08
-3.27359227956937e-08
-3.30410825289513e-08
-3.33455751928558e-08
-3.36510235813837e-08
-3.39555663902081e-08
-3.4261366588227e-08
-3.45659162066467e-08
-3.48720916924469e-08
-3.51766150837582e-08
-3.54832211887421e-08
-3.57876499975356e-08
-3.60947642757929e-08
-3.63990153774068e-08
-3.67067568334617e-08
-3.70106967743411e-08
-3.73191780427288e-08
-3.76226729624257e-08
-3.79320898515255e-08
-3.82349301279069e-08
-3.85455017017092e-08
-3.88474389392671e-08
-3.91594558784315e-08
-3.94601682855932e-08
-3.97739829579707e-08
-4.00730537251889e-08
-4.03891793069617e-08
-4.06860291413962e-08
-4.1005096193445e-08
-4.12990178943276e-08
-4.1621838508276e-08
-4.19119115762023e-08
-4.22395360879588e-08
-4.25245508479675e-08
-4.28583552252055e-08
-4.31367664296578e-08
-4.34784921699208e-08
-4.37483020372288e-08
-4.41002066519507e-08
-4.43588520430383e-08
-4.47238471943195e-08
-4.49680123217116e-08
-4.53498192721165e-08
-4.5575304679919e-08
-4.59786508134806e-08
-4.61800687019577e-08
-4.66110057871434e-08
-4.67815304165512e-08
-4.72476836509996e-08
-4.73786666382024e-08
-4.78896750635069e-08
-4.79702923430947e-08
-4.85381604301644e-08
-4.8554969573267e-08
-4.91945063886182e-08
-4.91310207550644e-08
-4.98601754711463e-08
-4.96966416869142e-08
-5.05366399168464e-08
-5.02501205296175e-08
-5.1225027727498e-08
-5.0790259500104e-08
-5.19254580029196e-08
-5.13174574300556e-08
-5.26357899416234e-08
-5.18357204349446e-08
-5.33491405995977e-08
-5.23569335887603e-08
-5.40491758913485e-08
-5.29095211220993e-08
-5.47009559390525e-08
-5.35568972976068e-08
-5.52325103397928e-08
-5.44378247440818e-08
-5.54953603345881e-08
-5.58581796799852e-08
-5.51699615540303e-08
-5.85090087443233e-08
-5.34885544981781e-08
-6.39969870064146e-08
-4.81431961022896e-08
-7.60772618071778e-08
-2.88858339523161e-08
-1.02061069174087e-07
1.02697225977281e-07
-5.88387865422394e-08
-5.88387865422394e-08
-0.125293090724378
0.125293090724378
0.0249359301754294
0.00835808396058907
0.00427806332629638
0.00266158733509415
0.00183380487243672
0.00134642247780481
0.00103395497436058
0.000821774802270722
0.000671458266809947
0.000561321656130418
0.000478304291501018
0.000414157559591589
0.000363483278201231
0.000322648786030801
0.000289152559270158
0.000261237054511506
0.000237644552501362
0.000217459220112543
0.000200002861284532
0.000184764952092783
0.000171355005995338
0.000159469716651119
0.000148870009771092
0.000139364818670703
0.000130799472973252
0.000123047286589809
0.000116003384970812
0.000109580112773982
0.000103703570563804
9.83109716277914e-05
9.3348604817142e-05
8.87702458195504e-05
8.45358966109009e-05
8.06107672977498e-05
7.69644483583345e-05
7.35702441704635e-05
7.04046403605982e-05
6.74468670138946e-05
6.4678519112483e-05
6.20832167636773e-05
5.9646315557215e-05
5.7354685263236e-05
5.51965508814293e-05
5.31613590452874e-05
5.12396292984928e-05
4.94227856868709e-05
4.77030077625953e-05
4.60731452851555e-05
4.45266984435997e-05
4.30578099906577e-05
4.16612055618127e-05
4.03320694964094e-05
3.90659134533959e-05
3.78585172625478e-05
3.67059687879348e-05
3.56047431903778e-05
3.45517209332801e-05
3.35440917554029e-05
3.25791929926953e-05
3.16543987036881e-05
3.07671457133586e-05
2.99150730504881e-05
2.90961505684372e-05
2.83086704619029e-05
2.75510809862976e-05
2.68217739952053e-05
2.61189886288241e-05
2.54409137522881e-05
2.4785917442168e-05
2.4152722237092e-05
2.35403698451871e-05
2.29479672932255e-05
2.23743712746057e-05
2.18180226217299e-05
2.12770421039028e-05
2.07495099256642e-05
2.02337123358414e-05
1.9728155872893e-05
1.92313193234492e-05
1.87413211154052e-05
1.82557743240171e-05
1.77720078832095e-05
1.72875993472651e-05
1.68009441871456e-05
1.63115299276207e-05
1.58197412937343e-05
1.53263047703553e-05
1.48317123656272e-05
1.43359914028818e-05
1.38389819510251e-05
1.33409624388799e-05
1.28432228534065e-05
1.23481781261801e-05
1.18588592764752e-05
1.13779817695879e-05
1.09070601000339e-05
1.0446050809691e-05
9.99374656427671e-06
9.54874694270107e-06
9.11051549773031e-06
8.67997237842208e-06
8.25930293996691e-06
7.85106468563931e-06
7.45703606416508e-06