# vtk DataFile Version 2.0
FlowField
ASCII
DATASET STRUCTURED_GRID
DIMENSIONS 400 1 200
POINTS 80000 float
0 0 0
0.08 0 0
0.16 0 0
0.24 0 0
0.32 0 0
0.4 0 0
0.48 0 0
0.56 0 0
0.64 0 0
0.72 0 0
0.8 0 0
0.88 0 0
0.96 0 0
1.04 0 0
1.12 0 0
1.2 0 0
1.28 0 0
1.36 0 0
1.44 0 0
1.52 0 0
1.6 0 0
1.68 0 0
1.76 0 0
1.84 0 0
1.92 0 0
2 0 0
2.08 0 0
2.16 0 0
2.24 0 0
2.32 0 0
2.4 0 0
2.48 0 0
2.56 0 0
2.64 0 0
2.72 0 0
2.8 0 0
2.88 0 0
2.96 0 0
3.04 0 0
3.12 0 0
3.2 0 0
3.28 0 0
3.36 0 0
3.44 0 0
3.52 0 0
3.6 0 0
3.68 0 0
3.76 0 0
3.84 0 0
3.92 0 0
4 0 0
4.08 0 0
4.16 0 0
4.24 0 0
4.32 0 0
4.4 0 0
4.48 0 0
4.56 0 0
4.64 0 0
4.72 0 0
4.8 0 0
4.88 0 0
4.96 0 0
5.04 0 0
5.12 0 0
5.2 0 0
5.28 0 0
5.36 0 0
5.44 0 0
5.52 0 0
5.6 0 0
5.68 0 0
5.76 0 0
5.84 0 0
5.92 0 0
6 0 0
6.08 0 0
6.16 0 0
6.24 0 0
6.32 0 0
6.4 0 0
6.48 0 0
6.56 0 0
6.64 0 0
6.72 0 0
6.8 0 0
6.88 0 0
6.96 0 0
7.04 0 0
7.12 0 0
7.2 0 0
7.28 0 0
7.36 0 0
7.44 0 0
7.52 0 0
7.6 0 0
7.68 0 0
7.76 0 0
7.84 0 0
7.92 0 0
8 0 0
8.08 0 0
8.16 0 0
8.24 0 0
8.32 0 0
8.4 0 0
8.48 0 0
8.56 0 0
8.64 0 0
8.72 0 0
8.8 0 0
8.88 0 0
8.96 0 0
9.04 0 0
9.12 0 0
9.2 0 0
9.28 0 0
9.36 0 0
9.44 0 0
9.52 0 0
9.6 0 0
9.68 0 0
9.76 0 0
9.84 0 0
9.92 0 0
10 0 0
10.08 0 0
10.16 0 0
10.24 0 0
10.32 0 0
10.4 0 0
10.48 0 0
10.56 0 0
10.64 0 0
10.72 0 0
10.8 0 0
10.88 0 0
10.96 0 0
11.04 0 0
11.12 0 0
11.2 0 0
11.28 0 0
11.36 0 0
11.44 0 0
11.52 0 0
11.6 0 0
11.68 0 0
11.76 0 0
11.84 0 0
11.92 0 0
12 0 0
12.08 0 0
12.16 0 0
12.24 0 0
12.32 0 0
12.4 0 0
12.48 0 0
12.56 0 0
12.64 0 0
12.72 0 0
12.8 0 0
12.88 0 0
12.96 0 0
13.04 0 0
13.12 0 0
13.2 0 0
13.28 0 0
13.36 0 0
13.44 0 0
13.52 0 0
13.6 0 0
13.68 0 0
13.76 0 0
13.84 0 0
13.92 0 0
14 0 0
14.08 0 0
14.16 0 0
14.24 0 0
14.32 0 0
14.4 0 0
14.48 0 0
14.56 0 0
14.64 0 0
14.72 0 0
14.8 0 0
14.88 0 0
14.96 0 0
15.04 0 0
15.12 0 0
15.2 0 0
15.28 0 0
15.36 0 0
15.44 0 0
15.52 0 0
15.6 0 0
15.68 0 0
15.76 0 0
15.84 0 0
15.92 0 0
16 0 0
16.08 0 0
16.16 0 0
16.24 0 0
16.32 0 0
16.4 0 0
16.48 0 0
16.56 0 0
16.64 0 0
16.72 0 0
16.8 0 0
16.88 0 0
16.96 0 0
17.04 0 0
17.12 0 0
17.2 0 0
17.28 0 0
17.36 0 0
17.44 0 0
17.52 0 0
17.6 0 0
17.68 0 0
17.76 0 0
17.84 0 0
17.92 0 0
18 0 0
18.08 0 0
18.16 0 0
18.24 0 0
18.32 0 0
18.4 0 0
18.48 0 0
18.56 0 0
18.64 0 0
18.72 0 0
18.8 0 0
18.88 0 0
18.96 0 0
19.04 0 0
19.12 0 0
19.2 0 0
19.28 0 0
19.36 0 0
19.44 0 0
19.52 0 0
19.6 0 0
19.68 0 0
19.76 0 0
19.84 0 0
19.92 0 0
20 0 0
20.08 0 0
20.16 0 0
20.24 0 0
20.32 0 0
20.4 0 0
20.48 0 0
20.56 0 0
20.64 0 0
20.72 0 0
20.8 0 0
20.88 0 0
20.96 0 0
21.04 0 0
21.12 0 0
21.2 0 0
21.28 0 0
21.36 0 0
21.44 0 0
21.52 0 0
21.6 0 0
21.68 0 0
21.76 0 0
21.84 0 0
21.92 0 0
22 0 0
22.08 0 0
22.16 0 0
22.24 0 0
22.32 0 0
22.4 0 0
22.48 0 0
22.56 0 0
22.64 0 0
22.72 0 0
22.8 0 0
22.88 0 0
22.96 0 0
23.04 0 0
23.12 0 0
23.2 0 0
23.28 0 0
23.36 0 0
23.44 0 0
23.52 0 0
23.6 0 0
23.68 0 0
23.76 0 0
23.84 0 0
23.92 0 0
24 0 0
24.08 0 0
24.16 0 0
24.24 0 0
24.32 0 0
24.4 0 0
24.48 0 0
24.56 0 0
24.64 0 0
24.72 0 0
24.8 0 0
24.88 0 0
24.96 0 0
25.04 0 0
25.12 0 0
25.2 0 0
25.28 0 0
25.36 0 0
25.44 0 0
25.52 0 0
25.6 0 0
25.68 0 0
25.76 0 0
25.84 0 0
25.92 0 0
26 0 0
26.08 0 0
26.16 0 0
26.24 0 0
26.32 0 0
26.4 0 0
26.48 0 0
26.56 0 0
26.64 0 0
26.72 0 0
26.8 0 0
26.88 0 0
26.96 0 0
27.04 0 0
27.12 0 0
27.2 0 0
27.28 0 0
27.36 0 0
27.44 0 0
27.52 0 0
27.6 0 0
27.68 0 0
27.76 0 0
27.84 0 0
27.92 0 0
28 0 0
28.08 0 0
28.16 0 0
28.24 0 0
28.32 0 0
28.4 0 0
28.48 0 0
28.56 0 0
28.64 0 0
28.72 0 0
28.8 0 0
28.88 0 0
28.96 0 0
29.04 0 0
29.12 0 0
29.2 0 0
29.28 0 0
29.36 0 0
29.44 0 0
29.52 0 0
29.6 0 0
29.68 0 0
29.76 0 0
29.84 0 0
29.92 0 0
30 0 0
30.08 0 0
30.16 0 0
30.24 0 0
30.32 0 0
30.4 0 0
30.48 0 0
30.56 0 0
30.64 0 0
30.72 0 0
30.8 0 0
30.88 0 0
30.96 0 0
31.04 0 0
31.12 0 0
31.2 0 0
31.28 0 0
31.36 0 0
31.44 0 0
31.52 0 0
31.6 0 0
31.68 0 0
31.76 0 0
31.84 0 0
31.92 0 0
0 0.005 0
0.08 0.005 0
0.16 0.005 0
0.24 0.005 0
0.32 0.005 0
0.4 0.005 0
0.48 0.005 0
0.56 0.005 0
0.64 0.005 0
0.72 0.005 0
0.8 0.005 0
0.88 0.005 0
0.96 0.005 0
1.04 0.005 0
1.12 0.005 0
1.2 0.005 0
1.28 0.005 0
1.36 0.005 0
1.44 0.005 0
1.52 0.005 0
1.6 0.005 0
1.68 0.005 0
1.76 0.005 0
1.84 0.005 0
1.92 0.005 0
2 0.005 0
2.08 0.005 0
2.16 0.005 0
2.24 0.005 0
2.32 0.005 0
2.4 0.005 0
2.48 0.005 0
2.56 0.005 0
2.64 0.005 0
2.72 0.005 0
2.8 0.005 0
2.88 0.005 0
2.96 0.005 0
3.04 0.005 0
3.12 0.005 0
3.2 0.005 0
3.28 0.005 0
3.36 0.005 0
3.44 0.005 0
3.52 0.005 0
3.6 0.005 0
3.68 0.005 0
3.76 0.005 0
3.84 0.005 0
3.92 0.005 0
4 0.005 0
4.08 0.005 0
4.16 0.005 0
4.24 0.005 0
4.32 0.005 0
4.4 0.005 0
4.48 0.005 0
4.56 0.005 0
4.64 0.005 0
4.72 0.005 0
4.8 0.005 0
4.88 0.005 0
4.96 0.005 0
5.04 0.005 0
5.12 0.005 0
5.2 0.005 0
5.28 0.005 0
5.36 0.005 0
5.44 0.005 0
5.52 0.005 0
5.6 0.005 0
5.68 0.005 0
5.76 0.005 0
5.84 0.005 0
5.92 0.005 0
6 0.005 0
6.08 0.005 0
6.16 0.005 0
6.24 0.005 0
6.32 0.005 0
6.4 0.005 0
6.48 0.005 0
6.56 0.005 0
6.64 0.005 0
6.72 0.005 0
6.8 0.005 0
6.88 0.005 0
6.96 0.005 0
7.04 0.005 0
7.12 0.005 0
7.2 0.005 0
7.28 0.005 0
7.36 0.005 0
7.44 0.005 0
7.52 0.005 0
7.6 0.005 0
7.68 0.005 0
7.76 0.005 0
7.84 0.005 0
7.92 0.005 0
8 0.005 0
8.08 0.005 0
8.16 0.005 0
8.24 0.005 0
8.32 0.005 0
8.4 0.005 0
8.48 0.005 0
8.56 0.005 0
8.64 0.005 0
8.72 0.005 0
8.8 0.005 0
8.88 0.005 0
8.96 0.005 0
9.04 0.005 0
9.12 0.005 0
9.2 0.005 0
9.28 0.005 0
9.36 0.005 0
9.44 0.005 0
9.52 0.005 0
9.6 0.005 0
9.68 0.005 0
9.76 0.005 0
9.84 0.005 0
9.92 0.005 0
10 0.005 0
10.08 0.005 0
10.16 0.005 0
10.24 0.005 0
10.32 0.005 0
10.4 0.005 0
10.48 0.005 0
10.56 0.005 0
10.64 0.005 0
10.72 0.005 0
10.8 0.005 0
10.88 0.005 0
10.96 0.005 0
11.04 0.005 0
11.12 0.005 0
11.2 0.005 0
11.28 0.005 0
11.36 0.005 0
11.44 0.005 0
11.52 0.005 0
11.6 0.005 0
11.68 0.005 0
11.76 0.005 0
11.84 0.005 0
11.92 0.005 0
12 0.005 0
12.08 0.005 0
12.16 0.005 0
12.24 0.005 0
12.32 0.005 0
12.4 0.005 0
12.48 0.005 0
12.56 0.005 0
12.64 0.005 0
12.72 0.005 0
12.8 0.005 0
12.88 0.005 0
12.96 0.005 0
13.04 0.005 0
13.12 0.005 0
13.2 0.005 0
13.28 0.005 0
13.36 0.005 0
13.44 0.005 0
13.52 0.005 0
13.6 0.005 0
13.68 0.005 0
13.76 0.005 0
13.84 0.005 0
13.92 0.005 0
14 0.005 0
14.08 0.005 0
14.16 0.005 0
14.24 0.005 0
14.32 0.005 0
14.4 0.005 0
14.48 0.005 0
14.56 0.005 0
14.64 0.005 0
14.72 0.005 0
14.8 0.005 0
14.88 0.005 0
14.96 0.005 0
15.04 0.005 0
15.12 0.005 0
15.2 0.005 0
15.28 0.005 0
15.36 0.005 0
15.44 0.005 0
15.52 0.005 0
15.6 0.005 0
15.68 0.005 0
15.76 0.005 0
15.84 0.005 0
15.92 0.005 0
16 0.005 0
16.08 0.005 0
16.16 0.005 0
16.24 0.005 0
16.32 0.005 0
16.4 0.005 0
16.48 0.005 0
16.56 0.005 0
16.64 0.005 0
16.72 0.005 0
16.8 0.005 0
16.88 0.005 0
16.96 0.005 0
17.04 0.005 0
17.12 0.005 0
17.2 0.005 0
17.28 0.005 0
17.36 0.005 0
17.44 0.005 0
17.52 0.005 0
17.6 0.005 0
17.68 0.005 0
17.76 0.005 0
17.84 0.005 0
17.92 0.005 0
18 0.005 0
18.08 0.005 0
18.16 0.005 0
18.24 0.005 0
18.32 0.005 0
18.4 0.005 0
18.48 0.005 0
18.56 0.005 0
18.64 0.005 0
18.72 0.005 0
18.8 0.005 0
18.88 0.005 0
18.96 0.005 0
19.04 0.005 0
19.12 0.005 0
19.2 0.005 0
19.28 0.005 0
19.36 0.005 0
19.44 0.005 0
19.52 0.005 0
19.6 0.005 0
19.68 0.005 0
19.76 0.005 0
19.84 0.005 0
19.92 0.005 0
20 0.005 0
20.08 0.005 0
20.16 0.005 0
20.24 0.005 0
20.32 0.005 0
20.4 0.005 0
20.48 0.005 0
20.56 0.005 0
20.64 0.005 0
20.72 0.005 0
20.8 0.005 0
20.88 0.005 0
20.96 0.005 0
21.04 0.005 0
21.12 0.005 0
21.2 0.005 0
21.28 0.005 0
21.36 0.005 0
21.44 0.005 0
21.52 0.005 0
21.6 0.005 0
21.68 0.005 0
21.76 0.005 0
21.84 0.005 0
21.92 0.005 0
22 0.005 0
22.08 0.005 0
22.16 0.005 0
22.24 0.005 0
22.32 0.005 0
22.4 0.005 0
22.48 0.005 0
22.56 0.005 0
22.64 0.005 0
22.72 0.005 0
22.8 0.005 0
22.88 0.005 0
22.96 0.005 0
23.04 0.005 0
23.12 0.005 0
23.2 0.005 0
23.28 0.005 0
23.36 0.005 0
23.44 0.005 0
23.52 0.005 0
23.6 0.005 0
23.68 0.005 0
23.76 0.005 0
23.84 0.005 0
23.92 0.005 0
24 0.005 0
24.08 0.005 0
24.16 0.005 0
24.24 0.005 0
24.32 0.005 0
24.4 0.005 0
24.48 0.005 0
24.56 0.005 0
24.64 0.005 0
24.72 0.005 0
24.8 0.005 0
24.88 0.005 0
24.96 0.005 0
25.04 0.005 0
25.12 0.005 0
25.2 0.005 0
25.28 0.005 0
25.36 0.005 0
25.44 0.005 0
25.52 0.005 0
25.6 0.005 0
25.68 0.005 0
25.76 0.005 0
25.84 0.005 0
25.92 0.005 0
26 0.005 0
26.08 0.005 0
26.16 0.005 0
26.24 0.005 0
26.32 0.005 0
26.4 0.005 0
26.48 0.005 0
26.56 0.005 0
26.64 0.005 0
26.72 0.005 0
26.8 0.005 0
26.88 0.005 0
26.96 0.005 0
27.04 0.005 0
27.12 0.005 0
27.2 0.005 0
27.28 0.005 0
27.36 0.005 0
27.44 0.005 0
27.52 0.005 0
27.6 0.005 0
27.68 0.005 0
27.76 0.005 0
27.84 0.005 0
27.92 0.005 0
28 0.005 0
28.08 0.005 0
28.16 0.005 0
28.24 0.005 0
28.32 0.005 0
28.4 0.005 0
28.48 0.005 0
28.56 0.005 0
28.64 0.005 0
28.72 0.005 0
28.8 0.005 0
28.88 0.005 0
28.96 0.005 0
29.04 0.005 0
29.12 0.005 0
29.2 0.005 0
29.28 0.005 0
29.36 0.005 0
29.44 0.005 0
29.52 0.005 0
29.6 0.005 0
29.68 0.005 0
29.76 0.005 0
29.84 0.005 0
29.92 0.005 0
30 0.005 0
30.08 0.005 0
30.16 0.005 0
30.24 0.005 0
30.32 0.005 0
30.4 0.005 0
30.48 0.005 0
30.56 0.005 0
30.64 0.005 0
30.72 0.005 0
30.8 0.005 0
30.88 0.005 0
30.96 0.005 0
31.04 0.005 0
31.12 0.005 0
31.2 0.005 0
31.28 0.005 0
31.36 0.005 0
31.44 0.005 0
31.52 0.005 0
31.6 0.005 0
31.68 0.005 0
31.76 0.005 0
31.84 0.005 0
31.92 0.005 0
0 0.01 0
0.08 0.01 0
0.16 0.01 0
0.24 0.01 0
0.32 0.01 0
0.4 0.01 0
0.48 0.01 0
0.56 0.01 0
0.64 0.01 0
0.72 0.01 0
0.8 0.01 0
0.88 0.01 0
0.96 0.01 0
1.04 0.01 0
1.12 0.01 0
1.2 0.01 0
1.28 0.01 0
1.36 0.01 0
1.44 0.01 0
1.52 0.01 0
1.6 0.01 0
1.68 0.01 0
1.76 0.01 0
1.84 0.01 0
1.92 0.01 0
2 0.01 0
2.08 0.01 0
2.16 0.01 0
2.24 0.01 0
2.32 0.01 0
2.4 0.01 0
2.48 0.01 0
2.56 0.01 0
2.64 0.01 0
2.72 0.01 0
2.8 0.01 0
2.88 0.01 0
2.96 0.01 0
3.04 0.01 0
3.12 0.01 0
3.2 0.01 0
3.28 0.01 0
3.36 0.01 0
3.44 0.01 0
3.52 0.01 0
3.6 0.01 0
3.68 0.01 0
3.76 0.01 0
3.84 0.01 0
3.92 0.01 0
4 0.01 0
4.08 0.01 0
4.16 0.01 0
4.24 0.01 0
4.32 0.01 0
4.4 0.01 0
4.48 0.01 0
4.56 0.01 0
4.64 0.01 0
4.72 0.01 0
4.8 0.01 0
4.88 0.01 0
4.96 0.01 0
5.04 0.01 0
5.12 0.01 0
[...]
POINT_DATA 80000

SCALARS p float 1
LOOKUP_TABLE default
1
56.7727082290517
56.470969389964
56.4298059789358
56.409712299484
56.395289529359
56.3832845853007
56.3725370400687
56.3625346503571
56.3530246579267
56.3438737956081
56.335008374685
56.3263857007346
56.3179794253807
56.3097717967749
56.3017497059902
56.2939027818351
56.2862222637923
56.2787000303206
56.2713279815255
56.2640982043118
56.2570037011747
56.2500387755801
56.2431984505557
56.2364774145106
56.229869694931
56.2233696463314
56.2169734459127
56.210679591617
56.2044877220319
56.1983967110724
56.1924038646958
56.1865062605235
56.1807034325761
56.1749992703198
56.1694013167635
56.1639174089965
56.158551482222
56.1533009925077
56.1481574034362
56.1431092891725
56.1381461191117
56.1332605999859
56.1284485243563
56.1237066088741
56.1190298595108
56.1144100710455
56.109836281208
56.1052969099849
56.1007825226784
56.0962879918165
56.0918132493325
56.0873625008367
56.0829423593374
56.0785596299618
56.0742194227937
56.0699240091668
56.065672524522
56.0614613745992
56.0572850715443
56.0531372080683
56.0490113369132
56.0449016174931
56.0408031859224
56.0367122759212
56.0326261575521
56.0285429708439
56.0244615211165
56.0203810826639
56.0163012362387
56.0122217486416
56.0081424916892
56.0040633924911
55.9999844057415
55.9959054998495
55.9918266508433
55.9877478400562
55.9836690533222
55.9795902805534
55.97551151527
55.9714327540042
55.9673539956378
55.9632752407581
55.9591964910959
55.9551177490763
55.9510390174843
55.9469602992344
55.9428815972238
55.9388029142453
55.9347242529381
55.9306456157702
55.926567005029
55.9224884228249
55.9184098710926
55.9143313515967
55.9102528659359
55.9061744155429
55.9020960016888
55.8980176254808
55.8939392878656
55.8898609896262
55.8857827313851
55.8817045136026
55.8776263365795
55.8735482004576
55.8694701052197
55.8653920506963
55.8613140365643
55.857236062351
55.8531581274373
55.8490802310615
55.8450023723222
55.8409245501821
55.8368467634714
55.8327690108936
55.8286912910267
55.8246136023288
55.8205359431429
55.8164583117001
55.8123807061215
55.8083031244264
55.8042255645335
55.8001480242667
55.7960705013575
55.7919929934507
55.7879154981076
55.7838380128102
55.7797605349658
55.7756830619101
55.7716055909127
55.7675281191792
55.7634506438573
55.7593731620391
55.7552956707658
55.7512181670316
55.7471406477862
55.7430631099424
55.738985550376
55.7349079659299
55.7308303534195
55.7267527096353
55.722675031348
55.7185973153086
55.7145195582545
55.710441756912
55.7063639079993
55.7022860082313
55.6982080543194
55.6941300429778
55.6900519709243
55.6859738348836
55.6818956315905
55.6778173577927
55.6737390102512
55.6696605857451
55.6655820810726
55.6615034930552
55.6574248185365
55.653346054387
55.6492671975037
55.6451882448145
55.6411091932782
55.6370300398866
55.6329507816651
55.628871415676
55.6247919390184
55.6207123488293
55.6166326422855
55.612552816604
55.6084728690441
55.604392796907
55.6003125975352
55.5962322683186
55.5921518066891
55.5880712101234
55.583990476144
55.57990960232
55.5758285862653
55.5717474256398
55.567666118152
55.5635846615545
55.559503053647
55.555421292276
55.551339375334
55.5472573007609
55.5431750665412
55.5390926707057
55.5350101113305
55.5309273865375
55.5268444944918
55.5227614334049
55.5186782015305
55.5145947971659
55.5105112186513
55.5064274643692
55.5023435327432
55.4982594222384
55.4941751313603
55.4900906586534
55.4860060027014
55.4819211621266
55.4778361355876
55.4737509217803
55.4696655194376
55.4655799273262
55.4614941442479
55.4574081690377
55.4533220005637
55.4492356377264
55.4451490794567
55.4410623247163
55.4369753724972
55.4328882218192
55.4288008717309
55.4247133213082
55.4206255696525
55.4165376158922
55.4124494591803
55.408361098694
55.4042725336327
55.4001837632211
55.3960947867034
55.3920056033452
55.3879162124343
55.3838266132785
55.3797368052017
55.3756467875483
55.3715565596816
55.3674661209808
55.3633754708408
55.3592846086741
55.3551935339073
55.3511022459823
55.3470107443544
55.3429190284939
55.3388270978828
55.3347349520159
55.3306425903999
55.3265500125538
55.3224572180065
55.3183642062975
55.3142709769767
55.3101775296039
55.3060838637474
55.3019899789845
55.2978958749007
55.29380155109
55.2897070071532
55.2856122426997
55.2815172573441
55.277422050708
55.2733266224196
55.2692309721137
55.2651350994298
55.2610390040133
55.2569426855138
55.2528461435873
55.2487493778918
55.2446523880925
55.2405551738573
55.2364577348573
55.2323600707688
55.2282621812703
55.2241640660443
55.2200657247769
55.2159671571549
55.211868362871
55.2077693416175
55.203670093091
55.1995706169901
55.195470913015
55.1913709808682
55.1872708202548
55.1831704308807
55.1790698124537
55.1749689646831
55.1708678872805
55.1667665799578
55.1626650424292
55.1585632744091
55.1544612756138
55.1503590457603
55.1462565845669
55.1421538917523
55.1380509670367
55.1339478101409
55.1298444207856
55.125740798694
55.1216369435879
55.1175328551918
55.1134285332287
55.1093239774236
55.1052191875018
55.1011141631877
55.0970089042081
55.0929034102892
55.0887976811574
55.0846917165399
55.0805855161647
55.0764790797585
55.0723724070495
55.0682654977663
55.0641583516371
55.0600509683908
55.0559433477559
55.0518354894624
55.0477273932396
55.0436190588167
55.0395104859236
55.0354016742903
55.0312926236476
55.0271833337252
55.0230738042539
55.0189640349642
55.0148540255874
55.0107437758538
55.0066332854949
55.002522554242
54.9984115818274
54.994300367982
54.9901889124375
54.9860772149261
54.9819652751806
54.9778530929328
54.9737406679153
54.9696279998614
54.9655150885027
54.9614019335737
54.9572885348071
54.9531748919369
54.9490610046958
54.9449468728191
54.9408324960402
54.9367178740935
54.9326030067134
54.9284878936348
54.9243725345937
54.9202569293257
54.9161410775643
54.9120249790476
54.9079086335098
54.9037920406911
54.8996752003212
54.8955581121514
54.8914407758914
54.8873231913303
54.8832053581151
54.8790872761433
54.8749689448847
54.8708503645216
54.8667315340853
54.8626124544184
54.8584931235976
54.8543735438031
54.8502537113053
54.8461336306459
54.8420132951234
54.8378927129003
54.833771873009
54.8296507884938
54.8255294429648
54.8214078553453
54.8172860030306
54.8131639113667
54.8090415512863
54.8049189544802
54.8007960858159
54.7966729827167
54.7925496045764
54.788425994344
54.7843021053646
54.7801779877949
54.7760535860306
54.7719289614475
54.767804044585
54.763678913753
54.759553478952
54.7554278433976
54.751301887129
54.747175748764
54.7430492677408
54.7389226275394
54.7347956197336
54.7306684767489
54.7265409419649
54.7224132915174
54.7182852329031
54.7141570623371
54.7100284894568
54.7058997680749
54.7017707046671
54.6976413609179
54.6935118653122
54.6893817275106
54.6852519853816
54.681120625505
54.6769914619621
54.6728577555662
54.668739520018
0.5
56.7727082290517
56.7727082290517
56.470969389964
56.4298059789358
56.409712299484
56.395289529359
56.3832845853007
56.3725370400687
56.3625346503571
56.3530246579267
56.3438737956081
56.335008374685
56.3263857007346
56.3179794253807
56.3097717967749
56.3017497059902
56.2939027818351
56.2862222637923
56.2787000303206
56.2713279815255
56.2640982043118
56.2570037011747
56.2500387755801
56.2431984505557
56.2364774145106
56.229869694931
56.2233696463314
56.2169734459127
56.210679591617
56.2044877220319
56.1983967110724
56.1924038646958
56.1865062605235
56.1807034325761
56.1749992703198
56.1694013167635
56.1639174089965
56.158551482222
56.1533009925077
56.1481574034362
56.1431092891725
56.1381461191117
56.1332605999859
56.1284485243563
56.1237066088741
56.1190298595108
56.1144100710455
56.109836281208
56.1052969099849
56.1007825226784
56.0962879918165
56.0918132493325
56.0873625008367
56.0829423593374
56.0785596299618
56.0742194227937
56.0699240091668
56.065672524522
56.0614613745992
56.0572850715443
56.0531372080683
56.0490113369132
56.0449016174931
56.0408031859224
56.0367122759212
56.0326261575521
56.0285429708439
56.0244615211165
56.0203810826639
56.0163012362387
56.0122217486416
56.0081424916892
56.0040633924911
55.9999844057415
55.9959054998495
55.9918266508433
55.9877478400562
55.9836690533222
55.9795902805534
55.97551151527
55.9714327540042
55.9673539956378
55.9632752407581
55.9591964910959
55.9551177490763
55.9510390174843
55.9469602992344
55.9428815972238
55.9388029142453
55.9347242529381
55.9306456157702
55.926567005029
55.9224884228249
55.9184098710926
55.9143313515967
55.9102528659359
55.9061744155429
55.9020960016888
55.8980176254808
55.8939392878656
55.8898609896262
55.8857827313851
55.8817045136026
55.8776263365795
55.8735482004576
55.8694701052197
55.8653920506963
55.8613140365643
55.857236062351
55.8531581274373
55.8490802310615
55.8450023723222
55.8409245501821
55.8368467634714
55.8327690108936
55.8286912910267
55.8246136023288
55.8205359431429
55.8164583117001
55.8123807061215
55.8083031244264
55.8042255645335
55.8001480242667
55.7960705013575
55.7919929934507
55.7879154981076
55.7838380128102
55.7797605349658
55.7756830619101
55.7716055909127
55.7675281191792
55.7634506438573
55.7593731620391
55.7552956707658
55.7512181670316
55.7471406477862
55.7430631099424
55.738985550376
55.7349079659299
55.7308303534195
55.7267527096353
55.722675031348
55.7185973153086
55.7145195582545
55.710441756912
55.7063639079993
55.7022860082313
55.6982080543194
55.6941300429778
55.6900519709243
55.6859738348836
55.6818956315905
55.6778173577927
55.6737390102512
55.6696605857451
55.6655820810726
55.6615034930552
55.6574248185365
55.653346054387
55.6492671975037
55.6451882448145
55.6411091932782
55.6370300398866
55.6329507816651
55.628871415676
55.6247919390184
55.6207123488293
55.6166326422855
55.612552816604
55.6084728690441
55.604392796907
55.6003125975352
55.5962322683186
55.5921518066891
55.5880712101234
55.583990476144
55.57990960232
55.5758285862653
55.5717474256398
55.567666118152
55.5635846615545
55.559503053647
55.555421292276
55.551339375334
55.5472573007609
55.5431750665412
55.5390926707057
55.5350101113305
55.5309273865375
55.5268444944918
55.5227614334049
55.5186782015305
55.5145947971659
55.5105112186513
55.5064274643692
55.5023435327432
55.4982594222384
55.4941751313603
55.4900906586534
55.4860060027014
55.4819211621266
55.4778361355876
55.4737509217803
55.4696655194376
55.4655799273262
55.4614941442479
55.4574081690377
55.4533220005637
55.4492356377264
55.4451490794567
55.4410623247163
55.4369753724972
55.4328882218192
55.4288008717309
55.4247133213082
55.4206255696525
55.4165376158922
55.4124494591803
55.408361098694
55.4042725336327
55.4001837632211
55.3960947867034
55.3920056033452
55.3879162124343
55.3838266132785
55.3797368052017
55.3756467875483
55.3715565596816
55.3674661209808
55.3633754708408
55.3592846086741
55.3551935339073
55.3511022459823
55.3470107443544
55.3429190284939
55.3388270978828
55.3347349520159
55.3306425903999
55.3265500125538
55.3224572180065
55.3183642062975
55.3142709769767
55.3101775296039
55.3060838637474
55.3019899789845
55.2978958749007
55.29380155109
55.2897070071532
55.2856122426997
55.2815172573441
55.277422050708
55.2733266224196
55.2692309721137
55.2651350994298
55.2610390040133
55.2569426855138
55.2528461435873
55.2487493778918
55.2446523880925
55.2405551738573
55.2364577348573
55.2323600707688
55.2282621812703
55.2241640660443
55.2200657247769
55.2159671571549
55.211868362871
55.2077693416175
55.203670093091
55.1995706169901
55.195470913015
55.1913709808682
55.1872708202548
55.1831704308807
55.1790698124537
55.1749689646831
55.1708678872805
55.1667665799578
55.1626650424292
55.1585632744091
55.1544612756138
55.1503590457603
55.1462565845669
55.1421538917523
55.1380509670367
55.1339478101409
55.1298444207856
55.125740798694
55.1216369435879
55.1175328551918
55.1134285332287
55.1093239774236
55.1052191875018
55.1011141631877
55.0970089042081
55.0929034102892
55.0887976811574
55.0846917165399
55.0805855161647
55.0764790797585
55.0723724070495
55.0682654977663
55.0641583516371
55.0600509683908
55.0559433477559
55.0518354894624
55.0477273932396
55.0436190588167
55.0395104859236
55.0354016742903
55.0312926236476
55.0271833337252
55.0230738042539
55.0189640349642
55.0148540255874
55.0107437758538
55.0066332854949
55.002522554242
54.9984115818274
54.994300367982
54.9901889124375
54.9860772149261
54.9819652751806
54.9778530929328
54.9737406679153
54.9696279998614
54.9655150885027
54.9614019335737
54.9572885348071
54.9531748919369
54.9490610046958
54.9449468728191
54.9408324960402
54.9367178740935
54.9326030067134
54.9284878936348
54.9243725345937
54.9202569293257
54.9161410775643
54.9120249790476
54.9079086335098
54.9037920406911
54.8996752003212
54.8955581121514
54.8914407758914
54.8873231913303
54.8832053581151
54.8790872761433
54.8749689448847
54.8708503645216
54.8667315340853
54.8626124544184
54.8584931235976
54.8543735438031
54.8502537113053
54.8461336306459
54.8420132951234
54.8378927129003
54.833771873009
54.8296507884938
54.8255294429648
54.8214078553453
54.8172860030306
54.8131639113667
54.8090415512863
54.8049189544802
54.8007960858159
54.7966729827167
54.7925496045764
54.788425994344
54.7843021053646
54.7801779877949
54.7760535860306
54.7719289614475
54.767804044585
54.763678913753
54.759553478952
54.7554278433976
54.751301887129
54.747175748764
54.7430492677408
54.7389226275394
54.7347956197336
54.7306684767489
54.7265409419649
54.7224132915174
54.7182852329031
54.7141570623371
54.7100284894568
54.7058997680749
54.7017707046671
54.6976413609179
54.6935118653122
54.6893817275106
54.6852519853816
54.681120625505
54.6769914619621
54.6728577555662
54.668739520018
54.668739520018
56.7581262771452
56.7581262771452
56.4748051079139
56.4310612402812
56.4103473870781
56.395683892146
56.3835561286076
56.3727363380364
56.362687642314
56.3531462067575
56.3439730681428
56.335091324262
56.3264563450845
56.3180405608175
56.3098254214088
56.3017972794745
56.2939453897448
56.2862607279763
56.2787349878092
56.2713599391887
56.2641275708581
56.2570308035095
56.2500638725308
56.2432217524585
56.2364991043194
56.2298899388964
56.223388588994
56.2169911986833
56.2106962310307
56.2045033047503
56.1984112957241
56.1924175217899
56.1865190597725
56.1807154155951
56.1750104301875
56.1694116030956
56.1639267600482
56.1585598669568
56.1533084386994
56.1481639967638
56.1431151459312
56.1381513496467
56.1332652828263
56.1284527023004
56.1237103048335
56.1190330999832
56.1144129032787
56.1098387757389
56.1052991489263
56.1007845809074
56.0962899202293
56.0918150667494
56.0873641963388
56.0829439025194
56.0785609844312
56.0742205583962
56.0699249100184
56.0656731919247
56.0614618255282
56.0572853342858
56.0531373167717
56.0490113265116
56.0449015198859
56.0408030277384
56.0367120777383
56.0326259341929
56.0285427322989
56.0244612736986
56.020380830119
56.0163009806623
56.0122214911516
56.0081422328733
56.004063132675
55.9999841451334
55.9959052386078
55.9918263891023
55.9877475779325
55.9836687909143
55.9795900179408
55.9755112525136
55.9714324911481
55.9673537327119
55.9632749777819
55.9591962280807
55.9551174860279
55.9510387544051
55.9469600361247
55.9428813340825
55.9388026510708
55.9347239897283
55.930645352523
55.9265667417423
55.9224881594967
55.9184096077209
55.9143310881795
55.9102526024715
55.9061741520295
55.9020957381247
55.8980173618646
55.8939390241961
55.8898607259023
55.8857824676059
55.8817042497674
55.8776260726877
55.8735479365091
55.8694698412144
55.8653917866345
55.8613137724465
55.8572357981779
55.8531578632099
55.849079966781
55.8450021079902
55.8409242858001
55.8368464990414
55.8327687464178
55.8286910265074
55.8246133377686
55.8205356785446
55.8164580470666
55.8123804414561
55.8083028597324
55.8042252998143
55.8001477595261
55.7960702365993
55.791992728679
55.7879152333265
55.783837748024
55.7797602701789
55.7756827971272
55.7716053261384
55.7675278544184
55.7634503791149
55.7593728973203
55.7552954060755
55.7512179023752
55.7471403831689
55.7430628453698
55.7389852858534
55.7349077014631
55.7308300890139
55.7267524452967
55.7226747670822
55.7185970511214
55.7145192941516
55.7104414928993
55.7063636440827
55.7022857444167
55.6982077906129
55.6941297793852
55.6900517074515
55.6859735715367
55.6818953683753
55.6778170947153
55.6737387473174
55.6696603229608
55.6655818184439
55.6615032305877
55.6574245562361
55.6533457922595
55.6492669355549
55.6451879830501
55.6411089317039
55.6370297785079
55.6329505204876
55.6288711547052
55.6247916782598
55.6207120882882
55.6166323819673
55.6125525565139
55.6084726091872
55.6043925372885
55.6003123381601
55.5962320091917
55.5921515478155
55.5880709515077
55.5839902177911
55.5799093442344
55.5758283284515
55.5717471681024
55.5676658608952
55.5635844045828
55.5595027969644
55.5554210358867
55.551339119242
55.5472570449703
55.5431748110556
55.5390924155291
55.5350098564663
55.5309271319894
55.5268442402634
55.5227611794996
55.5186779479515
55.5145945439165
55.5105109657347
55.5064272117886
55.5023432805014
55.4982591703383
55.4941748798049
55.4900904074454
55.4860057518434
55.4819209116212
55.4778358854373
55.4737506719877
55.4696652700049
55.4655796782558
55.461493895542
55.4574079206984
55.4533217525931
55.4492353901266
55.4451488322295
55.4410620778637
55.436975126021
55.4328879757212
55.4288006260128
55.4247130759716
55.4206253246991
55.4165373713234
55.4124492149976
55.4083608548988
55.4042722902265
55.4001835202051
55.3960945440789
55.3920053611135
55.3879159705965
55.3838263718358
55.3797365641551
55.3756465468989
55.3715563194304
55.3674658811288
55.3633752313889
55.3592843696234
55.3551932952584
55.3511020077361
55.3470105065117
55.3429187910554
55.3388268608494
55.3347347153882
55.3306423541786
55.3265497767395
55.3224569825999
55.3183639712992
55.3142707423872
55.3101772954238
55.3060836299772
55.3019897456247
55.2978956419518
55.2938013185524
55.2897067750274
55.2856120109861
55.2815170260432
55.2774218198201
55.2733263919452
55.269230742053
55.2651348697832
55.2610387747811
55.2569424566964
55.2528459151849
55.2487491499048
55.2446521605211
55.2405549467019
55.236457508118
55.2323598444459
55.228261955364
55.2241638405549
55.2200654997045
55.2159669324999
55.2118681386334
55.2077691177976
55.203669869689
55.1995703940061
55.1954706904493
55.1913707587208
55.1872705985261
55.1831702095705
55.1790695915624
55.1749687442108
55.1708676672273
55.1667663603238
55.1626648232146
55.158563055614
55.1544610572382
55.1503588278045
55.1462563670308
55.1421536746361
55.1380507503406
55.1339475938648
55.1298442049297
55.1257405832585
55.1216367285727
55.117532640597
55.1134283190544
55.10932376367
55.1052189741688
55.1011139502755
55.0970086917167
55.0929031982186
55.0887974695077
55.0846915053113
55.0805853053571
55.0764788693719
55.0723721970841
55.0682652882221
55.0641581425142
55.0600507596892
55.0559431394756
55.0518352816035
55.0477271858021
55.0436188518006
55.039510279329
55.0354014681172
55.031292417896
55.0271831283951
55.0230735993455
55.0189638304774
55.0148538215222
55.0107435722102
55.006633082273
55.0025223514418
54.9984113794489
54.9943001660252
54.9901887109024
54.9860770138127
54.9819650744889
54.9778528926629
54.9737404680671
54.9696278004349
54.9655148894979
54.9614017349906
54.9572883366457
54.9531746941972
54.9490608073777
54.9449466759227
54.9408322995654
54.9367176780403
54.9326028110818
54.9284876984248
54.9243723398053
54.9202567349586
54.9161408836187
54.9120247855234
54.907908440407
54.9037918480096
54.899675008061
54.8955579203122
54.8914405844739
54.8873230003328
54.8832051675407
54.8790870859864
54.8749687551547
54.8708501752024
54.8667313452031
54.8626122659314
54.8584929355703
54.8543733561379
54.850253524145
54.8461334437869
54.8420131088473
54.837892526828
54.8337716876369
54.8296506031878
54.8255292585141
54.8214076707902
54.8172858195122
54.8131637275552
54.8090413687015
54.8049187714151
54.8007959041566
54.7966728004079
54.7925494238325
54.7884258127956
54.784301925541
54.7801778069865
54.7760534071652
54.7719287813218
54.7678038667525
54.7636787342182
54.7595533022591
54.7554276643311
54.7513017117093
54.7471755700227
54.7430490937307