# vtk DataFile Version 2.0
FlowField
ASCII
DATASET STRUCTURED_GRID
DIMENSIONS 400 1 200
POINTS 80000 float
0 0 0
0.08 0 0
0.16 0 0
0.24 0 0
0.32 0 0
0.4 0 0
0.48 0 0
0.56 0 0
0.64 0 0
0.72 0 0
0.8 0 0
0.88 0 0
0.96 0 0
1.04 0 0
1.12 0 0
1.2 0 0
1.28 0 0
1.36 0 0
1.44 0 0
1.52 0 0
1.6 0 0
1.68 0 0
1.76 0 0
1.84 0 0
1.92 0 0
2 0 0
2.08 0 0
2.16 0 0
2.24 0 0
2.32 0 0
2.4 0 0
2.48 0 0
2.56 0 0
2.64 0 0
2.72 0 0
2.8 0 0
2.88 0 0
2.96 0 0
3.04 0 0
3.12 0 0
3.2 0 0
3.28 0 0
3.36 0 0
3.44 0 0
3.52 0 0
3.6 0 0
3.68 0 0
3.76 0 0
3.84 0 0
3.92 0 0
4 0 0
4.08 0 0
4.16 0 0
4.24 0 0
4.32 0 0
4.4 0 0
4.48 0 0
4.56 0 0
4.64 0 0
4.72 0 0
4.8 0 0
4.88 0 0
4.96 0 0
5.04 0 0
5.12 0 0
5.2 0 0
5.28 0 0
5.36 0 0
5.44 0 0
5.52 0 0
5.6 0 0
5.68 0 0
5.76 0 0
5.84 0 0
5.92 0 0
6 0 0
6.08 0 0
6.16 0 0
6.24 0 0
6.32 0 0
6.4 0 0
6.48 0 0
6.56 0 0
6.64 0 0
6.72 0 0
6.8 0 0
6.88 0 0
6.96 0 0
7.04 0 0
7.12 0 0
7.2 0 0
7.28 0 0
7.36 0 0
7.44 0 0
7.52 0 0
7.6 0 0
7.68 0 0
7.76 0 0
7.84 0 0
7.92 0 0
8 0 0
8.08 0 0
8.16 0 0
8.24 0 0
8.32 0 0
8.4 0 0
8.48 0 0
8.56 0 0
8.64 0 0
8.72 0 0
8.8 0 0
8.88 0 0
8.96 0 0
9.04 0 0
9.12 0 0
9.2 0 0
9.28 0 0
9.36 0 0
9.44 0 0
9.52 0 0
9.6 0 0
9.68 0 0
9.76 0 0
9.84 0 0
9.92 0 0
10 0 0
10.08 0 0
10.16 0 0
10.24 0 0
10.32 0 0
10.4 0 0
10.48 0 0
10.56 0 0
10.64 0 0
10.72 0 0
10.8 0 0
10.88 0 0
10.96 0 0
11.04 0 0
11.12 0 0
11.2 0 0
11.28 0 0
11.36 0 0
11.44 0 0
11.52 0 0
11.6 0 0
11.68 0 0
11.76 0 0
11.84 0 0
11.92 0 0
12 0 0
12.08 0 0
12.16 0 0
12.24 0 0
12.32 0 0
12.4 0 0
12.48 0 0
12.56 0 0
12.64 0 0
12.72 0 0
12.8 0 0
12.88 0 0
12.96 0 0
13.04 0 0
13.12 0 0
13.2 0 0
13.28 0 0
13.36 0 0
13.44 0 0
13.52 0 0
13.6 0 0
13.68 0 0
13.76 0 0
13.84 0 0
13.92 0 0
14 0 0
14.08 0 0
14.16 0 0
14.24 0 0
14.32 0 0
14.4 0 0
14.48 0 0
14.56 0 0
14.64 0 0
14.72 0 0
14.8 0 0
14.88 0 0
14.96 0 0
15.04 0 0
15.12 0 0
15.2 0 0
15.28 0 0
15.36 0 0
15.44 0 0
15.52 0 0
15.6 0 0
15.68 0 0
15.76 0 0
15.84 0 0
15.92 0 0
16 0 0
16.08 0 0
16.16 0 0
16.24 0 0
16.32 0 0
16.4 0 0
16.48 0 0
16.56 0 0
16.64 0 0
16.72 0 0
16.8 0 0
16.88 0 0
16.96 0 0
17.04 0 0
17.12 0 0
17.2 0 0
17.28 0 0
17.36 0 0
17.44 0 0
17.52 0 0
17.6 0 0
17.68 0 0
17.76 0 0
17.84 0 0
17.92 0 0
18 0 0
18.08 0 0
18.16 0 0
18.24 0 0
18.32 0 0
18.4 0 0
18.48 0 0
18.56 0 0
18.64 0 0
18.72 0 0
18.8 0 0
18.88 0 0
18.96 0 0
19.04 0 0
19.12 0 0
19.2 0 0
19.28 0 0
19.36 0 0
19.44 0 0
19.52 0 0
19.6 0 0
19.68 0 0
19.76 0 0
19.84 0 0
19.92 0 0
20 0 0
20.08 0 0
20.16 0 0
20.24 0 0
20.32 0 0
20.4 0 0
20.48 0 0
20.56 0 0
20.64 0 0
20.72 0 0
20.8 0 0
20.88 0 0
20.96 0 0
21.04 0 0
21.12 0 0
21.2 0 0
21.28 0 0
21.36 0 0
21.44 0 0
21.52 0 0
21.6 0 0
21.68 0 0
21.76 0 0
21.84 0 0
21.92 0 0
22 0 0
22.08 0 0
22.16 0 0
22.24 0 0
22.32 0 0
22.4 0 0
22.48 0 0
22.56 0 0
22.64 0 0
22.72 0 0
22.8 0 0
22.88 0 0
22.96 0 0
23.04 0 0
23.12 0 0
23.2 0 0
23.28 0 0
23.36 0 0
23.44 0 0
23.52 0 0
23.6 0 0
23.68 0 0
23.76 0 0
23.84 0 0
23.92 0 0
24 0 0
24.08 0 0
24.16 0 0
24.24 0 0
24.32 0 0
24.4 0 0
24.48 0 0
24.56 0 0
24.64 0 0
24.72 0 0
24.8 0 0
24.88 0 0
24.96 0 0
25.04 0 0
25.12 0 0
25.2 0 0
25.28 0 0
25.36 0 0
25.44 0 0
25.52 0 0
25.6 0 0
25.68 0 0
25.76 0 0
25.84 0 0
25.92 0 0
26 0 0
26.08 0 0
26.16 0 0
26.24 0 0
26.32 0 0
26.4 0 0
26.48 0 0
26.56 0 0
26.64 0 0
26.72 0 0
26.8 0 0
26.88 0 0
26.96 0 0
27.04 0 0
27.12 0 0
27.2 0 0
27.28 0 0
27.36 0 0
27.44 0 0
27.52 0 0
27.6 0 0
27.68 0 0
27.76 0 0
27.84 0 0
27.92 0 0
28 0 0
28.08 0 0
28.16 0 0
28.24 0 0
28.32 0 0
28.4 0 0
28.48 0 0
28.56 0 0
28.64 0 0
28.72 0 0
28.8 0 0
28.88 0 0
28.96 0 0
29.04 0 0
29.12 0 0
29.2 0 0
29.28 0 0
29.36 0 0
29.44 0 0
29.52 0 0
29.6 0 0
29.68 0 0
29.76 0 0
29.84 0 0
29.92 0 0
30 0 0
30.08 0 0
30.16 0 0
30.24 0 0
30.32 0 0
30.4 0 0
30.48 0 0
30.56 0 0
30.64 0 0
30.72 0 0
30.8 0 0
30.88 0 0
30.96 0 0
31.04 0 0
31.12 0 0
31.2 0 0
31.28 0 0
31.36 0 0
31.44 0 0
31.52 0 0
31.6 0 0
31.68 0 0
31.76 0 0
31.84 0 0
31.92 0 0
0 0.005 0
0.08 0.005 0
0.16 0.005 0
0.24 0.005 0
0.32 0.005 0
0.4 0.005 0
0.48 0.005 0
0.56 0.005 0
0.64 0.005 0
0.72 0.005 0
0.8 0.005 0
0.88 0.005 0
0.96 0.005 0
1.04 0.005 0
1.12 0.005 0
1.2 0.005 0
1.28 0.005 0
1.36 0.005 0
1.44 0.005 0
1.52 0.005 0
1.6 0.005 0
1.68 0.005 0
1.76 0.005 0
1.84 0.005 0
1.92 0.005 0
2 0.005 0
2.08 0.005 0
2.16 0.005 0
2.24 0.005 0
2.32 0.005 0
2.4 0.005 0
2.48 0.005 0
2.56 0.005 0
2.64 0.005 0
2.72 0.005 0
2.8 0.005 0
2.88 0.005 0
2.96 0.005 0
3.04 0.005 0
3.12 0.005 0
3.2 0.005 0
3.28 0.005 0
3.36 0.005 0
3.44 0.005 0
3.52 0.005 0
3.6 0.005 0
3.68 0.005 0
3.76 0.005 0
3.84 0.005 0
3.92 0.005 0
4 0.005 0
4.08 0.005 0
4.16 0.005 0
4.24 0.005 0
4.32 0.005 0
4.4 0.005 0
4.48 0.005 0
4.56 0.005 0
4.64 0.005 0
4.72 0.005 0
4.8 0.005 0
4.88 0.005 0
4.96 0.005 0
5.04 0.005 0
5.12 0.005 0
5.2 0.005 0
5.28 0.005 0
5.36 0.005 0
5.44 0.005 0
5.52 0.005 0
5.6 0.005 0
5.68 0.005 0
5.76 0.005 0
5.84 0.005 0
5.92 0.005 0
6 0.005 0
6.08 0.005 0
6.16 0.005 0
6.24 0.005 0
6.32 0.005 0
6.4 0.005 0
6.48 0.005 0
6.56 0.005 0
6.64 0.005 0
6.72 0.005 0
6.8 0.005 0
6.88 0.005 0
6.96 0.005 0
7.04 0.005 0
7.12 0.005 0
7.2 0.005 0
7.28 0.005 0
7.36 0.005 0
7.44 0.005 0
7.52 0.005 0
7.6 0.005 0
7.68 0.005 0
7.76 0.005 0
7.84 0.005 0
7.92 0.005 0
8 0.005 0
8.08 0.005 0
8.16 0.005 0
8.24 0.005 0
8.32 0.005 0
8.4 0.005 0
8.48 0.005 0
8.56 0.005 0
8.64 0.005 0
8.72 0.005 0
8.8 0.005 0
8.88 0.005 0
8.96 0.005 0
9.04 0.005 0
9.12 0.005 0
9.2 0.005 0
9.28 0.005 0
9.36 0.005 0
9.44 0.005 0
9.52 0.005 0
9.6 0.005 0
9.68 0.005 0
9.76 0.005 0
9.84 0.005 0
9.92 0.005 0
10 0.005 0
10.08 0.005 0
10.16 0.005 0
10.24 0.005 0
10.32 0.005 0
10.4 0.005 0
10.48 0.005 0
10.56 0.005 0
10.64 0.005 0
10.72 0.005 0
10.8 0.005 0
10.88 0.005 0
10.96 0.005 0
11.04 0.005 0
11.12 0.005 0
11.2 0.005 0
11.28 0.005 0
11.36 0.005 0
11.44 0.005 0
11.52 0.005 0
11.6 0.005 0
11.68 0.005 0
11.76 0.005 0
11.84 0.005 0
11.92 0.005 0
12 0.005 0
12.08 0.005 0
12.16 0.005 0
12.24 0.005 0
12.32 0.005 0
12.4 0.005 0
12.48 0.005 0
12.56 0.005 0
12.64 0.005 0
12.72 0.005 0
12.8 0.005 0
12.88 0.005 0
12.96 0.005 0
13.04 0.005 0
13.12 0.005 0
13.2 0.005 0
13.28 0.005 0
13.36 0.005 0
13.44 0.005 0
13.52 0.005 0
13.6 0.005 0
13.68 0.005 0
13.76 0.005 0
13.84 0.005 0
13.92 0.005 0
14 0.005 0
14.08 0.005 0
14.16 0.005 0
14.24 0.005 0
14.32 0.005 0
14.4 0.005 0
14.48 0.005 0
14.56 0.005 0
14.64 0.005 0
14.72 0.005 0
14.8 0.005 0
14.88 0.005 0
14.96 0.005 0
15.04 0.005 0
15.12 0.005 0
15.2 0.005 0
15.28 0.005 0
15.36 0.005 0
15.44 0.005 0
15.52 0.005 0
15.6 0.005 0
15.68 0.005 0
15.76 0.005 0
15.84 0.005 0
15.92 0.005 0
16 0.005 0
16.08 0.005 0
16.16 0.005 0
16.24 0.005 0
16.32 0.005 0
16.4 0.005 0
16.48 0.005 0
16.56 0.005 0
16.64 0.005 0
16.72 0.005 0
16.8 0.005 0
16.88 0.005 0
16.96 0.005 0
17.04 0.005 0
17.12 0.005 0
17.2 0.005 0
17.28 0.005 0
17.36 0.005 0
17.44 0.005 0
17.52 0.005 0
17.6 0.005 0
17.68 0.005 0
17.76 0.005 0
17.84 0.005 0
17.92 0.005 0
18 0.005 0
18.08 0.005 0
18.16 0.005 0
18.24 0.005 0
18.32 0.005 0
18.4 0.005 0
18.48 0.005 0
18.56 0.005 0
18.64 0.005 0
18.72 0.005 0
18.8 0.005 0
18.88 0.005 0
18.96 0.005 0
19.04 0.005 0
19.12 0.005 0
19.2 0.005 0
19.28 0.005 0
19.36 0.005 0
19.44 0.005 0
19.52 0.005 0
19.6 0.005 0
19.68 0.005 0
19.76 0.005 0
19.84 0.005 0
19.92 0.005 0
20 0.005 0
20.08 0.005 0
20.16 0.005 0
20.24 0.005 0
20.32 0.005 0
20.4 0.005 0
20.48 0.005 0
20.56 0.005 0
20.64 0.005 0
20.72 0.005 0
20.8 0.005 0
20.88 0.005 0
20.96 0.005 0
21.04 0.005 0
21.12 0.005 0
21.2 0.005 0
21.28 0.005 0
21.36 0.005 0
21.44 0.005 0
21.52 0.005 0
21.6 0.005 0
21.68 0.005 0
21.76 0.005 0
21.84 0.005 0
21.92 0.005 0
22 0.005 0
22.08 0.005 0
22.16 0.005 0
22.24 0.005 0
22.32 0.005 0
22.4 0.005 0
22.48 0.005 0
22.56 0.005 0
22.64 0.005 0
22.72 0.005 0
22.8 0.005 0
22.88 0.005 0
22.96 0.005 0
23.04 0.005 0
23.12 0.005 0
23.2 0.005 0
23.28 0.005 0
23.36 0.005 0
23.44 0.005 0
23.52 0.005 0
23.6 0.005 0
23.68 0.005 0
23.76 0.005 0
23.84 0.005 0
23.92 0.005 0
24 0.005 0
24.08 0.005 0
24.16 0.005 0
24.24 0.005 0
24.32 0.005 0
24.4 0.005 0
24.48 0.005 0
24.56 0.005 0
24.64 0.005 0
24.72 0.005 0
24.8 0.005 0
24.88 0.005 0
24.96 0.005 0
25.04 0.005 0
25.12 0.005 0
25.2 0.005 0
25.28 0.005 0
25.36 0.005 0
25.44 0.005 0
25.52 0.005 0
25.6 0.005 0
25.68 0.005 0
25.76 0.005 0
25.84 0.005 0
25.92 0.005 0
26 0.005 0
26.08 0.005 0
26.16 0.005 0
26.24 0.005 0
26.32 0.005 0
26.4 0.005 0
26.48 0.005 0
26.56 0.005 0
26.64 0.005 0
26.72 0.005 0
26.8 0.005 0
26.88 0.005 0
26.96 0.005 0
27.04 0.005 0
27.12 0.005 0
27.2 0.005 0
27.28 0.005 0
27.36 0.005 0
27.44 0.005 0
27.52 0.005 0
27.6 0.005 0
27.68 0.005 0
27.76 0.005 0
27.84 0.005 0
27.92 0.005 0
28 0.005 0
28.08 0.005 0
28.16 0.005 0
28.24 0.005 0
28.32 0.005 0
28.4 0.005 0
28.48 0.005 0
28.56 0.005 0
28.64 0.005 0
28.72 0.005 0
28.8 0.005 0
28.88 0.005 0
28.96 0.005 0
29.04 0.005 0
29.12 0.005 0
29.2 0.005 0
29.28 0.005 0
29.36 0.005 0
29.44 0.005 0
29.52 0.005 0
29.6 0.005 0
29.68 0.005 0
29.76 0.005 0
29.84 0.005 0
29.92 0.005 0
30 0.005 0
30.08 0.005 0
30.16 0.005 0
30.24 0.005 0
30.32 0.005 0
30.4 0.005 0
30.48 0.005 0
30.56 0.005 0
30.64 0.005 0
30.72 0.005 0
30.8 0.005 0
30.88 0.005 0
30.96 0.005 0
31.04 0.005 0
31.12 0.005 0
31.2 0.005 0
31.28 0.005 0
31.36 0.005 0
31.44 0.005 0
31.52 0.005 0
31.6 0.005 0
31.68 0.005 0
31.76 0.005 0
31.84 0.005 0
31.92 0.005 0
0 0.01 0
0.08 0.01 0
0.16 0.01 0
0.24 0.01 0
0.32 0.01 0
0.4 0.01 0
0.48 0.01 0
0.56 0.01 0
0.64 0.01 0
0.72 0.01 0
0.8 0.01 0
0.88 0.01 0
0.96 0.01 0
1.04 0.01 0
1.12 0.01 0
1.2 0.01 0
1.28 0.01 0
1.36 0.01 0
1.44 0.01 0
1.52 0.01 0
1.6 0.01 0
1.68 0.01 0
1.76 0.01 0
1.84 0.01 0
1.92 0.01 0
2 0.01 0
2.08 0.01 0
2.16 0.01 0
2.24 0.01 0
2.32 0.01 0
2.4 0.01 0
2.48 0.01 0
2.56 0.01 0
2.64 0.01 0
2.72 0.01 0
2.8 0.01 0
2.88 0.01 0
2.96 0.01 0
3.04 0.01 0
3.12 0.01 0
3.2 0.01 0
3.28 0.01 0
3.36 0.01 0
3.44 0.01 0
3.52 0.01 0
3.6 0.01 0
3.68 0.01 0
3.76 0.01 0
3.84 0.01 0
3.92 0.01 0
4 0.01 0
4.08 0.01 0
4.16 0.01 0
4.24 0.01 0
4.32 0.01 0
4.4 0.01 0
4.48 0.01 0
4.56 0.01 0
4.64 0.01 0
4.72 0.01 0
4.8 0.01 0
4.88 0.01 0
4.96 0.01 0
5.04 0.01 0
5.12 0.01 0
[...]
POINT_DATA 80000

SCALARS u float 1
LOOKUP_TABLE default
0
-0.131662619996185
-0.0682691327968415
-0.0522958805039218
-0.0444197356317126
-0.0395766118644917
-0.0362595050300704
-0.0338324517999292
-0.0319724604200362
-0.0304957704912361
-0.0292896903753022
-0.0282813796029977
-0.0274218755346435
-0.0266772262783571
-0.0260232621758246
-0.0254423709953556
-0.0249214402225
-0.0244505089531513
-0.0240218656147408
-0.0236294329933987
-0.023268342184672
-0.0229346328647937
-0.0226250392548106
-0.0223368349911089
-0.0220677190073507
-0.0218157303313381
-0.0215791835259038
-0.0213566190558628
-0.0211467645902422
-0.0209485044316935
-0.020760855074151
-0.0205829454392458
-0.0204140007189486
-0.0202533290287931
-0.020100310291408
-0.0199543869267493
-0.0198150560186106
-0.0196818626724274
-0.0195543943202222
-0.0194322757952632
-0.0193151650767442
-0.0192027496451932
-0.0190947433697862
-0.0189908838022176
-0.0188909297496082
-0.0187946590677411
-0.0187018667067149
-0.018612363065867
-0.0185259726426485
-0.018442532855175
-0.0183618928935526
-0.0182839125525213
-0.0182084611415365
-0.0181354166215548
-0.018064665017135
-0.0179960999767703
-0.017929622266697
-0.0178651390802735
-0.0178025632584546
-0.0177418126623074
-0.0176828098750721
-0.0176254821742211
-0.0175697614995735
-0.017515584144771
-0.0174628901366682
-0.0174116225576381
-0.0173617271653065
-0.0173131524719748
-0.0172658500974638
-0.0172197749797435
-0.0171748851151894
-0.0171311408614176
-0.0170885042055717
-0.0170469384923638
-0.0170064088300776
-0.0169668829360718
-0.0169283318813625
-0.0168907302788818
-0.0168540558879928
-0.0168182890746595
-0.0167834127218667
-0.0167494128861464
-0.0167162799209159
-0.0166840093291832
-0.0166526016066289
-0.0166220608423526
-0.0165923925637973
-0.0165636017866774
-0.0165356921315637
-0.0165086662211367
-0.0164825267586032
-0.0164572772176181
-0.0164329212681981
-0.016409460842361
-0.016386893660097
-0.016365211532886
-0.0163444005069682
-0.0163244430008745
-0.0163053210187671
-0.0162870188871317
-0.0162695241422424
-0.0162528261208273
-0.0162369129983489
-0.0162217688470306
-0.0162073723104274
-0.0161936976947899
-0.0161807180680964
-0.0161684089473308
-0.0161567508452676
-0.0161457294780728
-0.0161353335314124
-0.0161255510102384
-0.0161163658278976
-0.0161077561556334
-0.0160996952465481
-0.0160921543608262
-0.0160851065382425
-0.0160785296540775
-0.0160724075465862
-0.0160667288274192
-0.0160614839118579
-0.0160566614620424
-0.0160522455922647
-0.0160482148300343
-0.0160445431409656
-0.0160412025924583
-0.01603816671245
-0.0160354134488527
-0.0160329268550571
-0.0160306970958752
-0.0160287189012194
-0.0160269890168936
-0.0160255034046259
-0.0160242549038821
-0.0160232318433958
-0.0160224177778062
-0.0160217922285468
-0.0160213321034015
-0.0160210133879815
-0.0160208127370179
-0.0160207087046276
-0.0160206824945355
-0.0160207182394466
-0.0160208029076964
-0.016020925975209
-0.0160210789983002
-0.0160212551915142
-0.0160214490727667
-0.016021656197558
-0.0160218729753669
-0.0160220965454173
-0.016022324685718
-0.0160225557342977
-0.0160227885096301
-0.0160230222262985
-0.0160232564079242
-0.0160234908030054
-0.0160237253095682
-0.0160239599132623
-0.0160241946410806
-0.0160244295303415
-0.0160246646112374
-0.0160248998994337
-0.0160251353956735
-0.0160253710890959
-0.0160256069620468
-0.0160258429946623
-0.0160260791683705
-0.0160263154680761
-0.0160265518830232
-0.0160267884067322
-0.0160270250363512
-0.0160272617716225
-0.0160274986139604
-0.0160277355655866
-0.0160279726288646
-0.0160282098059459
-0.0160284470985195
-0.0160286845077551
-0.0160289220343615
-0.0160291596786689
-0.0160293974406993
-0.0160296353203582
-0.0160298733174097
-0.0160301114316075
-0.016030349662739
-0.0160305880105838
-0.0160308264749602
-0.0160310650557496
-0.0160313037528482
-0.01603154256615
-0.0160317814955893
-0.0160320205410878
-0.0160322597025642
-0.0160324989799634
-0.016032738373205
-0.0160329778822004
-0.0160332175068627
-0.0160334572471382
-0.0160336971029161
-0.0160339370741357
-0.0160341771607199
-0.016034417362588
-0.0160346576796933
-0.0160348981119509
-0.0160351386593106
-0.0160353793217183
-0.0160356200991446
-0.0160358609915241
-0.0160361019988338
-0.0160363431210295
-0.0160365843580828
-0.016036825709965
-0.0160370671766632
-0.0160373087581468
-0.016037550454401
-0.0160377922654092
-0.0160380341911678
-0.0160382762316549
-0.0160385183868767
-0.0160387606568102
-0.0160390030414739
-0.0160392455408448
-0.0160394881549383
-0.0160397308837594
-0.0160399737272961
-0.0160402166855635
-0.0160404597585771
-0.016040702946332
-0.0160409462488409
-0.0160411896661185
-0.0160414331981804
-0.0160416768450409
-0.0160419206067037
-0.016042164483202
-0.016042408474546
-0.0160426525807532
-0.0160428968018505
-0.016043141137852
-0.0160433855887948
-0.0160436301546897
-0.016043874835558
-0.0160441196314422
-0.0160443645423598
-0.0160446095683314
-0.0160448547093991
-0.0160450999655925
-0.0160453453369431
-0.0160455908234743
-0.0160458364252242
-0.0160460821422218
-0.0160463279745045
-0.0160465739221181
-0.0160468199850878
-0.0160470661634577
-0.016047312457264
-0.0160475588665457
-0.0160478053913321
-0.0160480520316859
-0.0160482987876286
-0.0160485456592152
-0.0160487926464836
-0.0160490397494785
-0.0160492869682355
-0.0160495343028214
-0.0160497817532521
-0.0160500293196013
-0.0160502770019023
-0.0160505248002057
-0.0160507727145628
-0.0160510207450137
-0.0160512688916185
-0.0160515171544166
-0.0160517655334679
-0.0160520140288293
-0.0160522626405368
-0.0160525113686482
-0.016052760213232
-0.0160530091743065
-0.016053258251972
-0.0160535074462397
-0.0160537567572006
-0.0160540061848787
-0.0160542557293633
-0.0160545053906767
-0.016054755168914
-0.0160550050640961
-0.0160552550763207
-0.0160555052055999
-0.0160557554520503
-0.0160560058156623
-0.0160562562965995
-0.0160565068947974
-0.0160567576104596
-0.0160570084434907
-0.0160572593941375
-0.0160575104622651
-0.016057761648162
-0.0160580129516349
-0.0160582643730582
-0.0160585159121522
-0.0160587675693788
-0.0160590193443486
-0.0160592712376757
-0.0160595232488123
-0.0160597753785254
-0.0160600276260924
-0.0160602799925155
-0.016060532476793
-0.0160607850802294
-0.0160610378014817
-0.0160612906422703
-0.01606154360078
-0.0160617966792645
-0.016062049875302
-0.0160623031918434
-0.016062556625676
-0.0160628101806422
-0.0160630638525303
-0.0160633176463454
-0.0160635715565091
-0.016063825589598
-0.0160640797382677
-0.0160643340111078
-0.0160645883984603
-0.0160648429115828
-0.0160650975377731
-0.0160653522917497
-0.0160656071568749
-0.0160658621523764
-0.016066117256451
-0.0160663724942331
-0.0160666278371856
-0.0160668833181208
-0.0160671388997442
-0.016067394624896
-0.0160676504448277
-0.0160679064154221
-0.0160681624730686
-0.0160684186906186
-0.0160686749851074
-0.0160689314514436
-0.0160691879815309
-0.0160694446989079
-0.0160697014628643
-0.0160699584340749
-0.0160702154295467
-0.016070472658094
-0.016070729881918
-0.016070987372153
-0.0160712448201619
-0.0160715025775745
-0.0160717602442281
-0.0160720182757375
-0.0160722761538329
-0.016072534468131
-0.0160727925482904
-0.01607305115634
-0.0160733094264693
-0.0160735683420645
-0.0160738267866541
-0.0160740860270142
-0.0160743446263417
-0.016074604212964
-0.0160748629421137
-0.0160751229015225
-0.0160753817294402
-0.0160756420939595
-0.0160759009825266
-0.0160761617908333
-0.0160764206942377
-0.0160766819912655
-0.016076940856378
-0.0160772026918323
-0.0160774614606627
-0.0160777238846491
-0.0160779825011127
-0.016078245554282
-0.0160785039799443
-0.0160787676729476
-0.0160790259209248
-0.016079290193322
-0.0160795483996862
-0.0160798130388472
-0.0160800716134374
-0.01608033609285
-0.0160805960435416
-0.0160808591880743
-0.0160811228405634
-0.016081382076092
-0.0160816547344275
-0.0160819041228869
-0.0160821980376759
-0.0160824215537652
-0.0160827653887065
-0.0160829024413603
-0.0160833589507988
-0.0160829149797022
-0.0160829149797022
-0.0160829149797022
1
0.131662619996185
0.0682691327968415
0.0522958805039218
0.0444197356317126
0.0395766118644917
0.0362595050300704
0.0338324517999292
0.0319724604200362
0.0304957704912361
0.0292896903753022
0.0282813796029977
0.0274218755346435
0.0266772262783571
0.0260232621758246
0.0254423709953556
0.0249214402225
0.0244505089531513
0.0240218656147408
0.0236294329933987
0.023268342184672
0.0229346328647937
0.0226250392548106
0.0223368349911089
0.0220677190073507
0.0218157303313381
0.0215791835259038
0.0213566190558628
0.0211467645902422
0.0209485044316935
0.020760855074151
0.0205829454392458
0.0204140007189486
0.0202533290287931
0.020100310291408
0.0199543869267493
0.0198150560186106
0.0196818626724274
0.0195543943202222
0.0194322757952632
0.0193151650767442
0.0192027496451932
0.0190947433697862
0.0189908838022176
0.0188909297496082
0.0187946590677411
0.0187018667067149
0.018612363065867
0.0185259726426485
0.018442532855175
0.0183618928935526
0.0182839125525213
0.0182084611415365
0.0181354166215548
0.018064665017135
0.0179960999767703
0.017929622266697
0.0178651390802735
0.0178025632584546
0.0177418126623074
0.0176828098750721
0.0176254821742211
0.0175697614995735
0.017515584144771
0.0174628901366682
0.0174116225576381
0.0173617271653065
0.0173131524719748
0.0172658500974638
0.0172197749797435
0.0171748851151894
0.0171311408614176
0.0170885042055717
0.0170469384923638
0.0170064088300776
0.0169668829360718
0.0169283318813625
0.0168907302788818
0.0168540558879928
0.0168182890746595
0.0167834127218667
0.0167494128861464
0.0167162799209159
0.0166840093291832
0.0166526016066289
0.0166220608423526
0.0165923925637973
0.0165636017866774
0.0165356921315637
0.0165086662211367
0.0164825267586032
0.0164572772176181
0.0164329212681981
0.016409460842361
0.016386893660097
0.016365211532886
0.0163444005069682
0.0163244430008745
0.0163053210187671
0.0162870188871317
0.0162695241422424
0.0162528261208273
0.0162369129983489
0.0162217688470306
0.0162073723104274
0.0161936976947899
0.0161807180680964
0.0161684089473308
0.0161567508452676
0.0161457294780728
0.0161353335314124
0.0161255510102384
0.0161163658278976
0.0161077561556334
0.0160996952465481
0.0160921543608262
0.0160851065382425
0.0160785296540775
0.0160724075465862
0.0160667288274192
0.0160614839118579
0.0160566614620424
0.0160522455922647
0.0160482148300343
0.0160445431409656
0.0160412025924583
0.01603816671245
0.0160354134488527
0.0160329268550571
0.0160306970958752
0.0160287189012194
0.0160269890168936
0.0160255034046259
0.0160242549038821
0.0160232318433958
0.0160224177778062
0.0160217922285468
0.0160213321034015
0.0160210133879815
0.0160208127370179
0.0160207087046276
0.0160206824945355
0.0160207182394466
0.0160208029076964
0.016020925975209
0.0160210789983002
0.0160212551915142
0.0160214490727667
0.016021656197558
0.0160218729753669
0.0160220965454173
0.016022324685718
0.0160225557342977
0.0160227885096301
0.0160230222262985
0.0160232564079242
0.0160234908030054
0.0160237253095682
0.0160239599132623
0.0160241946410806
0.0160244295303415
0.0160246646112374
0.0160248998994337
0.0160251353956735
0.0160253710890959
0.0160256069620468
0.0160258429946623
0.0160260791683705
0.0160263154680761
0.0160265518830232
0.0160267884067322
0.0160270250363512
0.0160272617716225
0.0160274986139604
0.0160277355655866
0.0160279726288646
0.0160282098059459
0.0160284470985195
0.0160286845077551
0.0160289220343615
0.0160291596786689
0.0160293974406993
0.0160296353203582
0.0160298733174097
0.0160301114316075
0.016030349662739
0.0160305880105838
0.0160308264749602
0.0160310650557496
0.0160313037528482
0.01603154256615
0.0160317814955893
0.0160320205410878
0.0160322597025642
0.0160324989799634
0.016032738373205
0.0160329778822004
0.0160332175068627
0.0160334572471382
0.0160336971029161
0.0160339370741357
0.0160341771607199
0.016034417362588
0.0160346576796933
0.0160348981119509
0.0160351386593106
0.0160353793217183
0.0160356200991446
0.0160358609915241
0.0160361019988338
0.0160363431210295
0.0160365843580828
0.016036825709965
0.0160370671766632
0.0160373087581468
0.016037550454401
0.0160377922654092
0.0160380341911678
0.0160382762316549
0.0160385183868767
0.0160387606568102
0.0160390030414739
0.0160392455408448
0.0160394881549383
0.0160397308837594
0.0160399737272961
0.0160402166855635
0.0160404597585771
0.016040702946332
0.0160409462488409
0.0160411896661185
0.0160414331981804
0.0160416768450409
0.0160419206067037
0.016042164483202
0.016042408474546
0.0160426525807532
0.0160428968018505
0.016043141137852
0.0160433855887948
0.0160436301546897
0.016043874835558
0.0160441196314422
0.0160443645423598
0.0160446095683314
0.0160448547093991
0.0160450999655925
0.0160453453369431
0.0160455908234743
0.0160458364252242
0.0160460821422218
0.0160463279745045
0.0160465739221181
0.0160468199850878
0.0160470661634577
0.016047312457264
0.0160475588665457
0.0160478053913321
0.0160480520316859
0.0160482987876286
0.0160485456592152
0.0160487926464836
0.0160490397494785
0.0160492869682355
0.0160495343028214
0.0160497817532521
0.0160500293196013
0.0160502770019023
0.0160505248002057
0.0160507727145628
0.0160510207450137
0.0160512688916185
0.0160515171544166
0.0160517655334679
0.0160520140288293
0.0160522626405368
0.0160525113686482
0.016052760213232
0.0160530091743065
0.016053258251972
0.0160535074462397
0.0160537567572006
0.0160540061848787
0.0160542557293633
0.0160545053906767
0.016054755168914
0.0160550050640961
0.0160552550763207
0.0160555052055999
0.0160557554520503
0.0160560058156623
0.0160562562965995
0.0160565068947974
0.0160567576104596
0.0160570084434907
0.0160572593941375
0.0160575104622651
0.016057761648162
0.0160580129516349
0.0160582643730582
0.0160585159121522
0.0160587675693788
0.0160590193443486
0.0160592712376757
0.0160595232488123
0.0160597753785254
0.0160600276260924
0.0160602799925155
0.016060532476793
0.0160607850802294
0.0160610378014817
0.0160612906422703
0.01606154360078
0.0160617966792645
0.016062049875302
0.0160623031918434
0.016062556625676
0.0160628101806422
0.0160630638525303
0.0160633176463454
0.0160635715565091
0.016063825589598
0.0160640797382677
0.0160643340111078
0.0160645883984603
0.0160648429115828
0.0160650975377731
0.0160653522917497
0.0160656071568749
0.0160658621523764
0.016066117256451
0.0160663724942331
0.0160666278371856
0.0160668833181208
0.0160671388997442
0.016067394624896
0.0160676504448277
0.0160679064154221
0.0160681624730686
0.0160684186906186
0.0160686749851074
0.0160689314514436
0.0160691879815309
0.0160694446989079
0.0160697014628643
0.0160699584340749
0.0160702154295467
0.016070472658094
0.016070729881918
0.016070987372153
0.0160712448201619
0.0160715025775745
0.0160717602442281
0.0160720182757375
0.0160722761538329
0.016072534468131
0.0160727925482904
0.01607305115634
0.0160733094264693
0.0160735683420645
0.0160738267866541
0.0160740860270142
0.0160743446263417
0.016074604212964
0.0160748629421137
0.0160751229015225
0.0160753817294402
0.0160756420939595
0.0160759009825266
0.0160761617908333
0.0160764206942377
0.0160766819912655
0.016076940856378
0.0160772026918323
0.0160774614606627
0.0160777238846491
0.0160779825011127
0.016078245554282
0.0160785039799443
0.0160787676729476
0.0160790259209248
0.016079290193322
0.0160795483996862
0.0160798130388472
0.0160800716134374
0.01608033609285
0.0160805960435416
0.0160808591880743
0.0160811228405634
0.016081382076092
0.0160816547344275
0.0160819041228869
0.0160821980376759
0.0160824215537652
0.0160827653887065
0.0160829024413603
0.0160833589507988
0.0160829149797022
0.0160829149797022
0.0160829149797022
1
0.344883792452333
0.200667484454904
0.154966938343211
0.131894233602154
0.117598236610112
0.107767547183027
0.100557624461621
0.095024595133839
0.090628677885617
0.0870375128734055
0.0840355462886616
0.0814774635192588
0.0792622487252229
0.0773178414009555
0.0755916450500026
0.0740444534475888
0.0726464602014116
0.0713745806676953
0.0702106218819125
0.0691400116456874
0.0681509025013768
0.0672335306960946
0.0663797508712073
0.0655826933787902
0.0648365082331953
0.0641361710245329
0.0634773336977396
0.0628562082406615
0.0622694748479994
0.0617142085431396
0.061187819886818
0.0606880065428508
0.0602127133098396
0.0597600988706892
0.0593285079723618
0.0589164480246958
0.058522569258242
0.0581456477230715
0.0577845706135157
0.0574383236160085
0.0571059800757035
0.0567866917191978
0.0564796805649763
0.056184231677579
0.055899686623949
0.0556254377180772
0.0553609231729418
0.0551056230668579
0.0548590557754487
0.0546207745017167
0.0543903638265807
0.054167436563153
0.0539516312824428
0.0537426105686901
0.0535400596136371
0.0533436845945339
0.053153210598352
0.0529683794168479
0.0527889478499327
0.0526146869042212
0.0524453816281617
0.0522808308263058
0.0521208460028878
0.0519652495645797
0.0518138730305275
0.0516665561425154
0.0515231471665773
0.0513835037681335
0.0512474933528239
0.0511149921318314
0.0509858831718774
0.050860054584039
0.050737399088611
0.0506178153471568
0.0505012102640834
0.0503875008047821
0.0502766142697758
0.0501684871594003
0.0500630639019656
0.0499602969325413
0.0498601486584863
0.0497625943246438
0.0496676237518909
0.0495752401650966
0.0494854558231563
0.049398286025528
0.049313744097559
0.0492318394192799
0.0491525787025036
0.0490759686516362
0.0490020171738423
0.0489307311198514
0.0488621107390548
0.0487961433379845
0.0487327996198098
0.0486720351563987
0.0486137968709347
0.0485580316854273
0.0485046931584961
0.0484537428118543
0.0484051455224694
0.0483588614475472
0.0483148388142269
0.0482730115521869
0.0482333033449767
0.0481956364532706
0.0481599412488488
0.0481261619840892
0.0480942560770679
0.0480641872257166
0.0480359155057372
0.0480093889378006
0.0479845402806731
0.0479612904338982
0.047939556947751
0.0479192640178974
0.0479003498456499
0.0478827684720082
0.0478664855207041
0.0478514696925448
0.0478376833891696
0.0478250759920406
0.0478135821567841
0.0478031255614174
0.0477936266402074
0.0477850116087546
0.047777219879331
0.0477702077172128
0.0477639473253302
0.0477584219583128
0.0477536187106271
0.0477495210440512
0.0477461029007467
0.0477433255705269
0.0477411376204416
0.0477394774236458
0.0477382773275839
0.0477374683451586
0.0477369843955466
0.0477367654517973
0.0477367593408205
0.0477369222773515
0.0477372184329058
0.0477376189270914
0.0477381006038737
0.0477386448612903
0.0477392366856491
0.0477398639347583
0.0477405168412834
0.0477411876703844
0.0477418704610662
0.0477425607963827
0.0477432555712327
0.0477439527495891
0.0477446511187386
0.047745350056126
0.0477460493244409
0.0477467489061506
0.0477474488820706
0.0477481493520523
0.0477488503916649
0.0477495520355477
0.0477502542784042
0.0477509570852443
0.0477516604047202
0.0477523641813935
0.0477530683647831
0.0477537729147435
0.0477544778033577
0.0477551830143759
0.0477558885411607
0.04775659438389
0.0477573005469362
0.0477580070365814
0.0477587138593186
0.0477594210208965
0.0477601285257384
0.0477608363768549
0.0477615445759896
0.0477622531238734
0.0477629620204807
0.0477636712654151
0.0477643808579964
0.0477650907975103
0.0477658010833012
0.047766511714762
0.0477672226913863
0.0477679340127927
0.0477686456786576
0.047769357688686
0.0477700700426387
0.0477707827402836
0.0477714957813742
0.0477722091656891
0.0477729228929852
0.0477736369630038
0.0477743513754889
0.0477750661302179
0.0477757812269137
0.0477764966653565
0.0477772124453167
0.0477779285665711
0.0477786450289355
0.047779361832203
0.047780078976205
0.047780796460791
0.0477815142858264
0.0477822324511664
0.047782950956709
0.0477836698023415
0.0477843889879733
0.0477851085135209
0.0477858283789217
0.0477865485841046
0.0477872691290199
0.0477879900136238
0.0477887112378797
0.0477894328017513
0.0477901547052267
0.0477908769482688
0.0477915995308921
0.047792322453066
0.0477930457148103
0.0477937693161303
0.0477944932570238
0.047795217537513
0.0477959421576276
0.047796667117378
0.047797392416798
0.047798118055921
0.0477988440347899
0.0477995703534463
0.0478002970119267
0.0478010240102945
0.0478017513485934
0.0478024790268807
0.0478032070452226
0.0478039354036778