# vtk DataFile Version 2.0
FlowField
ASCII
DATASET STRUCTURED_GRID
DIMENSIONS 400 1 200
POINTS 80000 float
0 0 0
0.08 0 0
0.16 0 0
0.24 0 0
0.32 0 0
0.4 0 0
0.48 0 0
0.56 0 0
0.64 0 0
0.72 0 0
0.8 0 0
0.88 0 0
0.96 0 0
1.04 0 0
1.12 0 0
1.2 0 0
1.28 0 0
1.36 0 0
1.44 0 0
1.52 0 0
1.6 0 0
1.68 0 0
1.76 0 0
1.84 0 0
1.92 0 0
2 0 0
2.08 0 0
2.16 0 0
2.24 0 0
2.32 0 0
2.4 0 0
2.48 0 0
2.56 0 0
2.64 0 0
2.72 0 0
2.8 0 0
2.88 0 0
2.96 0 0
3.04 0 0
3.12 0 0
3.2 0 0
3.28 0 0
3.36 0 0
3.44 0 0
3.52 0 0
3.6 0 0
3.68 0 0
3.76 0 0
3.84 0 0
3.92 0 0
4 0 0
4.08 0 0
4.16 0 0
4.24 0 0
4.32 0 0
4.4 0 0
4.48 0 0
4.56 0 0
4.64 0 0
4.72 0 0
4.8 0 0
4.88 0 0
4.96 0 0
5.04 0 0
5.12 0 0
5.2 0 0
5.28 0 0
5.36 0 0
5.44 0 0
5.52 0 0
5.6 0 0
5.68 0 0
5.76 0 0
5.84 0 0
5.92 0 0
6 0 0
6.08 0 0
6.16 0 0
6.24 0 0
6.32 0 0
6.4 0 0
6.48 0 0
6.56 0 0
6.64 0 0
6.72 0 0
6.8 0 0
6.88 0 0
6.96 0 0
7.04 0 0
7.12 0 0
7.2 0 0
7.28 0 0
7.36 0 0
7.44 0 0
7.52 0 0
7.6 0 0
7.68 0 0
7.76 0 0
7.84 0 0
7.92 0 0
8 0 0
8.08 0 0
8.16 0 0
8.24 0 0
8.32 0 0
8.4 0 0
8.48 0 0
8.56 0 0
8.64 0 0
8.72 0 0
8.8 0 0
8.88 0 0
8.96 0 0
9.04 0 0
9.12 0 0
9.2 0 0
9.28 0 0
9.36 0 0
9.44 0 0
9.52 0 0
9.6 0 0
9.68 0 0
9.76 0 0
9.84 0 0
9.92 0 0
10 0 0
10.08 0 0
10.16 0 0
10.24 0 0
10.32 0 0
10.4 0 0
10.48 0 0
10.56 0 0
10.64 0 0
10.72 0 0
10.8 0 0
10.88 0 0
10.96 0 0
11.04 0 0
11.12 0 0
11.2 0 0
11.28 0 0
11.36 0 0
11.44 0 0
11.52 0 0
11.6 0 0
11.68 0 0
11.76 0 0
11.84 0 0
11.92 0 0
12 0 0
12.08 0 0
12.16 0 0
12.24 0 0
12.32 0 0
12.4 0 0
12.48 0 0
12.56 0 0
12.64 0 0
12.72 0 0
12.8 0 0
12.88 0 0
12.96 0 0
13.04 0 0
13.12 0 0
13.2 0 0
13.28 0 0
13.36 0 0
13.44 0 0
13.52 0 0
13.6 0 0
13.68 0 0
13.76 0 0
13.84 0 0
13.92 0 0
14 0 0
14.08 0 0
14.16 0 0
14.24 0 0
14.32 0 0
14.4 0 0
14.48 0 0
14.56 0 0
14.64 0 0
14.72 0 0
14.8 0 0
14.88 0 0
14.96 0 0
15.04 0 0
15.12 0 0
15.2 0 0
15.28 0 0
15.36 0 0
15.44 0 0
15.52 0 0
15.6 0 0
15.68 0 0
15.76 0 0
15.84 0 0
15.92 0 0
16 0 0
16.08 0 0
16.16 0 0
16.24 0 0
16.32 0 0
16.4 0 0
16.48 0 0
16.56 0 0
16.64 0 0
16.72 0 0
16.8 0 0
16.88 0 0
16.96 0 0
17.04 0 0
17.12 0 0
17.2 0 0
17.28 0 0
17.36 0 0
17.44 0 0
17.52 0 0
17.6 0 0
17.68 0 0
17.76 0 0
17.84 0 0
17.92 0 0
18 0 0
18.08 0 0
18.16 0 0
18.24 0 0
18.32 0 0
18.4 0 0
18.48 0 0
18.56 0 0
18.64 0 0
18.72 0 0
18.8 0 0
18.88 0 0
18.96 0 0
19.04 0 0
19.12 0 0
19.2 0 0
19.28 0 0
19.36 0 0
19.44 0 0
19.52 0 0
19.6 0 0
19.68 0 0
19.76 0 0
19.84 0 0
19.92 0 0
20 0 0
20.08 0 0
20.16 0 0
20.24 0 0
20.32 0 0
20.4 0 0
20.48 0 0
20.56 0 0
20.64 0 0
20.72 0 0
20.8 0 0
20.88 0 0
20.96 0 0
21.04 0 0
21.12 0 0
21.2 0 0
21.28 0 0
21.36 0 0
21.44 0 0
21.52 0 0
21.6 0 0
21.68 0 0
21.76 0 0
21.84 0 0
21.92 0 0
22 0 0
22.08 0 0
22.16 0 0
22.24 0 0
22.32 0 0
22.4 0 0
22.48 0 0
22.56 0 0
22.64 0 0
22.72 0 0
22.8 0 0
22.88 0 0
22.96 0 0
23.04 0 0
23.12 0 0
23.2 0 0
23.28 0 0
23.36 0 0
23.44 0 0
23.52 0 0
23.6 0 0
23.68 0 0
23.76 0 0
23.84 0 0
23.92 0 0
24 0 0
24.08 0 0
24.16 0 0
24.24 0 0
24.32 0 0
24.4 0 0
24.48 0 0
24.56 0 0
24.64 0 0
24.72 0 0
24.8 0 0
24.88 0 0
24.96 0 0
25.04 0 0
25.12 0 0
25.2 0 0
25.28 0 0
25.36 0 0
25.44 0 0
25.52 0 0
25.6 0 0
25.68 0 0
25.76 0 0
25.84 0 0
25.92 0 0
26 0 0
26.08 0 0
26.16 0 0
26.24 0 0
26.32 0 0
26.4 0 0
26.48 0 0
26.56 0 0
26.64 0 0
26.72 0 0
26.8 0 0
26.88 0 0
26.96 0 0
27.04 0 0
27.12 0 0
27.2 0 0
27.28 0 0
27.36 0 0
27.44 0 0
27.52 0 0
27.6 0 0
27.68 0 0
27.76 0 0
27.84 0 0
27.92 0 0
28 0 0
28.08 0 0
28.16 0 0
28.24 0 0
28.32 0 0
28.4 0 0
28.48 0 0
28.56 0 0
28.64 0 0
28.72 0 0
28.8 0 0
28.88 0 0
28.96 0 0
29.04 0 0
29.12 0 0
29.2 0 0
29.28 0 0
29.36 0 0
29.44 0 0
29.52 0 0
29.6 0 0
29.68 0 0
29.76 0 0
29.84 0 0
29.92 0 0
30 0 0
30.08 0 0
30.16 0 0
30.24 0 0
30.32 0 0
30.4 0 0
30.48 0 0
30.56 0 0
30.64 0 0
30.72 0 0
30.8 0 0
30.88 0 0
30.96 0 0
31.04 0 0
31.12 0 0
31.2 0 0
31.28 0 0
31.36 0 0
31.44 0 0
31.52 0 0
31.6 0 0
31.68 0 0
31.76 0 0
31.84 0 0
31.92 0 0
0 0.005 0
0.08 0.005 0
0.16 0.005 0
0.24 0.005 0
0.32 0.005 0
0.4 0.005 0
0.48 0.005 0
0.56 0.005 0
0.64 0.005 0
0.72 0.005 0
0.8 0.005 0
0.88 0.005 0
0.96 0.005 0
1.04 0.005 0
1.12 0.005 0
1.2 0.005 0
1.28 0.005 0
1.36 0.005 0
1.44 0.005 0
1.52 0.005 0
1.6 0.005 0
1.68 0.005 0
1.76 0.005 0
1.84 0.005 0
1.92 0.005 0
2 0.005 0
2.08 0.005 0
2.16 0.005 0
2.24 0.005 0
2.32 0.005 0
2.4 0.005 0
2.48 0.005 0
2.56 0.005 0
2.64 0.005 0
2.72 0.005 0
2.8 0.005 0
2.88 0.005 0
2.96 0.005 0
3.04 0.005 0
3.12 0.005 0
3.2 0.005 0
3.28 0.005 0
3.36 0.005 0
3.44 0.005 0
3.52 0.005 0
3.6 0.005 0
3.68 0.005 0
3.76 0.005 0
3.84 0.005 0
3.92 0.005 0
4 0.005 0
4.08 0.005 0
4.16 0.005 0
4.24 0.005 0
4.32 0.005 0
4.4 0.005 0
4.48 0.005 0
4.56 0.005 0
4.64 0.005 0
4.72 0.005 0
4.8 0.005 0
4.88 0.005 0
4.96 0.005 0
5.04 0.005 0
5.12 0.005 0
5.2 0.005 0
5.28 0.005 0
5.36 0.005 0
5.44 0.005 0
5.52 0.005 0
5.6 0.005 0
5.68 0.005 0
5.76 0.005 0
5.84 0.005 0
5.92 0.005 0
6 0.005 0
6.08 0.005 0
6.16 0.005 0
6.24 0.005 0
6.32 0.005 0
6.4 0.005 0
6.48 0.005 0
6.56 0.005 0
6.64 0.005 0
6.72 0.005 0
6.8 0.005 0
6.88 0.005 0
6.96 0.005 0
7.04 0.005 0
7.12 0.005 0
7.2 0.005 0
7.28 0.005 0
7.36 0.005 0
7.44 0.005 0
7.52 0.005 0
7.6 0.005 0
7.68 0.005 0
7.76 0.005 0
7.84 0.005 0
7.92 0.005 0
8 0.005 0
8.08 0.005 0
8.16 0.005 0
8.24 0.005 0
8.32 0.005 0
8.4 0.005 0
8.48 0.005 0
8.56 0.005 0
8.64 0.005 0
8.72 0.005 0
8.8 0.005 0
8.88 0.005 0
8.96 0.005 0
9.04 0.005 0
9.12 0.005 0
9.2 0.005 0
9.28 0.005 0
9.36 0.005 0
9.44 0.005 0
9.52 0.005 0
9.6 0.005 0
9.68 0.005 0
9.76 0.005 0
9.84 0.005 0
9.92 0.005 0
10 0.005 0
10.08 0.005 0
10.16 0.005 0
10.24 0.005 0
10.32 0.005 0
10.4 0.005 0
10.48 0.005 0
10.56 0.005 0
10.64 0.005 0
10.72 0.005 0
10.8 0.005 0
10.88 0.005 0
10.96 0.005 0
11.04 0.005 0
11.12 0.005 0
11.2 0.005 0
11.28 0.005 0
11.36 0.005 0
11.44 0.005 0
11.52 0.005 0
11.6 0.005 0
11.68 0.005 0
11.76 0.005 0
11.84 0.005 0
11.92 0.005 0
12 0.005 0
12.08 0.005 0
12.16 0.005 0
12.24 0.005 0
12.32 0.005 0
12.4 0.005 0
12.48 0.005 0
12.56 0.005 0
12.64 0.005 0
12.72 0.005 0
12.8 0.005 0
12.88 0.005 0
12.96 0.005 0
13.04 0.005 0
13.12 0.005 0
13.2 0.005 0
13.28 0.005 0
13.36 0.005 0
13.44 0.005 0
13.52 0.005 0
13.6 0.005 0
13.68 0.005 0
13.76 0.005 0
13.84 0.005 0
13.92 0.005 0
14 0.005 0
14.08 0.005 0
14.16 0.005 0
14.24 0.005 0
14.32 0.005 0
14.4 0.005 0
14.48 0.005 0
14.56 0.005 0
14.64 0.005 0
14.72 0.005 0
14.8 0.005 0
14.88 0.005 0
14.96 0.005 0
15.04 0.005 0
15.12 0.005 0
15.2 0.005 0
15.28 0.005 0
15.36 0.005 0
15.44 0.005 0
15.52 0.005 0
15.6 0.005 0
15.68 0.005 0
15.76 0.005 0
15.84 0.005 0
15.92 0.005 0
16 0.005 0
16.08 0.005 0
16.16 0.005 0
16.24 0.005 0
16.32 0.005 0
16.4 0.005 0
16.48 0.005 0
16.56 0.005 0
16.64 0.005 0
16.72 0.005 0
16.8 0.005 0
16.88 0.005 0
16.96 0.005 0
17.04 0.005 0
17.12 0.005 0
17.2 0.005 0
17.28 0.005 0
17.36 0.005 0
17.44 0.005 0
17.52 0.005 0
17.6 0.005 0
17.68 0.005 0
17.76 0.005 0
17.84 0.005 0
17.92 0.005 0
18 0.005 0
18.08 0.005 0
18.16 0.005 0
18.24 0.005 0
18.32 0.005 0
18.4 0.005 0
18.48 0.005 0
18.56 0.005 0
18.64 0.005 0
18.72 0.005 0
18.8 0.005 0
18.88 0.005 0
18.96 0.005 0
19.04 0.005 0
19.12 0.005 0
19.2 0.005 0
19.28 0.005 0
19.36 0.005 0
19.44 0.005 0
19.52 0.005 0
19.6 0.005 0
19.68 0.005 0
19.76 0.005 0
19.84 0.005 0
19.92 0.005 0
20 0.005 0
20.08 0.005 0
20.16 0.005 0
20.24 0.005 0
20.32 0.005 0
20.4 0.005 0
20.48 0.005 0
20.56 0.005 0
20.64 0.005 0
20.72 0.005 0
20.8 0.005 0
20.88 0.005 0
20.96 0.005 0
21.04 0.005 0
21.12 0.005 0
21.2 0.005 0
21.28 0.005 0
21.36 0.005 0
21.44 0.005 0
21.52 0.005 0
21.6 0.005 0
21.68 0.005 0
21.76 0.005 0
21.84 0.005 0
21.92 0.005 0
22 0.005 0
22.08 0.005 0
22.16 0.005 0
22.24 0.005 0
22.32 0.005 0
22.4 0.005 0
22.48 0.005 0
22.56 0.005 0
22.64 0.005 0
22.72 0.005 0
22.8 0.005 0
22.88 0.005 0
22.96 0.005 0
23.04 0.005 0
23.12 0.005 0
23.2 0.005 0
23.28 0.005 0
23.36 0.005 0
23.44 0.005 0
23.52 0.005 0
23.6 0.005 0
23.68 0.005 0
23.76 0.005 0
23.84 0.005 0
23.92 0.005 0
24 0.005 0
24.08 0.005 0
24.16 0.005 0
24.24 0.005 0
24.32 0.005 0
24.4 0.005 0
24.48 0.005 0
24.56 0.005 0
24.64 0.005 0
24.72 0.005 0
24.8 0.005 0
24.88 0.005 0
24.96 0.005 0
25.04 0.005 0
25.12 0.005 0
25.2 0.005 0
25.28 0.005 0
25.36 0.005 0
25.44 0.005 0
25.52 0.005 0
25.6 0.005 0
25.68 0.005 0
25.76 0.005 0
25.84 0.005 0
25.92 0.005 0
26 0.005 0
26.08 0.005 0
26.16 0.005 0
26.24 0.005 0
26.32 0.005 0
26.4 0.005 0
26.48 0.005 0
26.56 0.005 0
26.64 0.005 0
26.72 0.005 0
26.8 0.005 0
26.88 0.005 0
26.96 0.005 0
27.04 0.005 0
27.12 0.005 0
27.2 0.005 0
27.28 0.005 0
27.36 0.005 0
27.44 0.005 0
27.52 0.005 0
27.6 0.005 0
27.68 0.005 0
27.76 0.005 0
27.84 0.005 0
27.92 0.005 0
28 0.005 0
28.08 0.005 0
28.16 0.005 0
28.24 0.005 0
28.32 0.005 0
28.4 0.005 0
28.48 0.005 0
28.56 0.005 0
28.64 0.005 0
28.72 0.005 0
28.8 0.005 0
28.88 0.005 0
28.96 0.005 0
29.04 0.005 0
29.12 0.005 0
29.2 0.005 0
29.28 0.005 0
29.36 0.005 0
29.44 0.005 0
29.52 0.005 0
29.6 0.005 0
29.68 0.005 0
29.76 0.005 0
29.84 0.005 0
29.92 0.005 0
30 0.005 0
30.08 0.005 0
30.16 0.005 0
30.24 0.005 0
30.32 0.005 0
30.4 0.005 0
30.48 0.005 0
30.56 0.005 0
30.64 0.005 0
30.72 0.005 0
30.8 0.005 0
30.88 0.005 0
30.96 0.005 0
31.04 0.005 0
31.12 0.005 0
31.2 0.005 0
31.28 0.005 0
31.36 0.005 0
31.44 0.005 0
31.52 0.005 0
31.6 0.005 0
31.68 0.005 0
31.76 0.005 0
31.84 0.005 0
31.92 0.005 0
0 0.01 0
0.08 0.01 0
0.16 0.01 0
0.24 0.01 0
0.32 0.01 0
0.4 0.01 0
0.48 0.01 0
0.56 0.01 0
0.64 0.01 0
0.72 0.01 0
0.8 0.01 0
0.88 0.01 0
0.96 0.01 0
1.04 0.01 0
1.12 0.01 0
1.2 0.01 0
1.28 0.01 0
1.36 0.01 0
1.44 0.01 0
1.52 0.01 0
1.6 0.01 0
1.68 0.01 0
1.76 0.01 0
1.84 0.01 0
1.92 0.01 0
2 0.01 0
2.08 0.01 0
2.16 0.01 0
2.24 0.01 0
2.32 0.01 0
2.4 0.01 0
2.48 0.01 0
2.56 0.01 0
2.64 0.01 0
2.72 0.01 0
2.8 0.01 0
2.88 0.01 0
2.96 0.01 0
3.04 0.01 0
3.12 0.01 0
3.2 0.01 0
3.28 0.01 0
3.36 0.01 0
3.44 0.01 0
3.52 0.01 0
3.6 0.01 0
3.68 0.01 0
3.76 0.01 0
3.84 0.01 0
3.92 0.01 0
4 0.01 0
4.08 0.01 0
4.16 0.01 0
4.24 0.01 0
4.32 0.01 0
4.4 0.01 0
4.48 0.01 0
4.56 0.01 0
4.64 0.01 0
4.72 0.01 0
4.8 0.01 0
4.88 0.01 0
4.96 0.01 0
5.04 0.01 0
5.12 0.01 0
[...]
POINT_DATA 80000

SCALARS p float 1
LOOKUP_TABLE default
1
56.5928236657277
56.2910878071003
56.2499272736535
56.2298365803272
56.2154169413726
56.2034152850637
56.1926711786288
56.1826723670045
56.1731660985903
56.164019126265
56.1551577393943
56.1465391615437
56.1381370019404
56.1299335959271
56.1219159200571
56.1140734224164
56.1063968925838
56.0988778946019
56.091508499681
56.0842811729571
56.0771887345955
56.0702243527615
56.0633815469326
56.0566541914174
56.0500365148194
56.0435230942292
56.0371088446148
56.0307890047793
56.0245591213044
56.0184150312224
56.012352843595
56.0063689203888
56.0004598577379
55.9946224688635
55.9888537689203
55.9831509607053
55.9775114199469
55.9719326803253
55.9664124200164
55.960948451472
55.9555387139598
55.950181266214
55.9448742767773
55.9396160125329
55.9344048288213
55.929239164261
55.9241175397554
55.919038557362
55.9140008946233
55.9090032942589
55.9040445541359
55.8991235233656
55.8942391058594
55.8893902662382
55.8845760305067
55.8797954779909
55.8750477287803
55.8703319357282
55.8656472874854
55.8609930206201
55.8563684313148
55.8517728768971
55.8472057653785
55.8426665414258
55.838154681661
55.8336697067739
55.8292112060872
55.8247788604152
55.8203724488196
55.8159918348481
55.811636941262
55.8073077294784
55.8030041954387
55.7987263800051
55.7944743785503
55.7902483308479
55.7860483821925
55.7818746244461
55.7777270403774
55.773605476452
55.7695096560042
55.7654392236147
55.7613937947217
55.7573729820664
55.7533763843684
55.7494035449983
55.7454539068327
55.7415267934086
55.7376214335738
55.7337370239212
55.7298728027175
55.7260281016609
55.7222023515868
55.7183950400098
55.7146056412734
55.7108335527851
55.7070780676107
55.7033383965628
55.6996137303224
55.6959033145614
55.6922065059755
55.6885227861212
55.6848517282091
55.6811929313541
55.677545949189
55.6739102408884
55.6702851629518
55.6666700042891
55.6630640515795
55.6594666621288
55.6558773203203
55.6522956605177
55.6487214508147
55.6451545439309
55.6415948101136
55.6380420701083
55.6344960440002
55.6309563256705
55.6274223851139
55.6238935941878
55.620369267116
55.616848705736
55.6133312407286
55.6098162629168
55.6063032421178
55.6027917339916
55.5992813773402
55.5957718852112
55.5922630330671
55.5887546466234
55.5852465909888
55.581738761853
55.5782310787802
55.5747234802662
55.5712159200642
55.5677083643263
55.5642007892171
55.5606931788154
55.5571855232277
55.5536778169199
55.5501700572989
55.5466622435734
55.5431543759041
55.5396464548214
55.5361384808689
55.5326304544284
55.5291223756669
55.525614244553
55.5221060609141
55.5185978244987
55.5150895350321
55.5115811922536
55.5080727959444
55.5045643459308
55.5010558420871
55.4975472843244
55.4940386725847
55.4905300068267
55.4870212870176
55.4835125131297
55.4800036851318
55.4764948029897
55.4729858666635
55.4694768761077
55.4659678312739
55.4624587321086
55.4589495785556
55.4554403705578
55.4519311080543
55.4484217909864
55.4449124192933
55.441402992913
55.4378935117847
55.4343839758464
55.4308743850369
55.4273647392937
55.4238550385545
55.4203452827574
55.4168354718393
55.4133256057381
55.4098156843911
55.4063057077345
55.4027956757062
55.3992855882428
55.3957754452817
55.3922652467585
55.3887549926109
55.3852446827755
55.3817343171892
55.3782238957892
55.3747134185115
55.3712028852933
55.3676922960708
55.3641816507816
55.3606709493626
55.35716019175
55.3536493778806
55.350138507692
55.34662758112
55.3431165981011
55.3396055585722
55.3360944624707
55.3325833097328
55.3290721002961
55.3255608340965
55.3220495110704
55.3185381311544
55.315026694285
55.3115152003999
55.3080036494348
55.3044920413259
55.3009803760108
55.2974686534257
55.2939568735064
55.2904450361894
55.2869331414123
55.2834211891107
55.2799091792213
55.2763971116803
55.2728849864243
55.2693728033895
55.2658605625121
55.2623482637286
55.2588359069761
55.2553234921895
55.251811019306
55.2482984882623
55.2447858989944
55.2412732514375
55.2377605455287
55.2342477812036
55.2307349583998
55.2272220770517
55.2237091370971
55.2201961384715
55.2166830811104
55.2131699649514
55.2096567899297
55.206143555981
55.2026302630418
55.1991169110484
55.1956034999363
55.192090029642
55.1885765001011
55.1850629112502
55.1815492630248
55.1780355553613
55.174521788195
55.1710079614625
55.1674940750995
55.1639801290412
55.1604661232239
55.1569520575839
55.153437932057
55.1499237465787
55.1464095010853
55.1428951955125
55.1393808297954
55.1358664038698
55.1323519176719
55.1288373711375
55.1253227642029
55.121808096803
55.118293368873
55.1147785803494
55.1112637311673
55.1077488212624
55.1042338505715
55.1007188190287
55.0972037265708
55.0936885731328
55.0901733586499
55.0866580830576
55.0831427462921
55.079627348289
55.0761118889827
55.0725963683097
55.0690807862055
55.0655651426045
55.062049437443
55.058533670656
55.055017842179
55.0515019519477
55.0479859998973
55.0444699859631
55.0409539100804
55.0374377721844
55.033921572211
55.0304053100944
55.0268889857701
55.0233725991738
55.0198561502409
55.0163396389059
55.0128230651043
55.0093064287712
55.0057897298413
55.0022729682506
54.9987561439336
54.9952392568259
54.991722306862
54.9882052939767
54.9846882181054
54.9811710791839
54.9776538771457
54.9741366119278
54.9706192834618
54.9671018916859
54.9635844365336
54.9600669179403
54.9565493358393
54.9530316901681
54.9495139808582
54.9459962078483
54.9424783710686
54.9389604704587
54.9354425059483
54.9319244774788
54.9284063849763
54.9248882283849
54.9213700076292
54.9178517226555
54.9143333733844
54.9108149597666
54.9072964817196
54.9037779391969
54.9002593321107
54.8967406604215
54.8932219240344
54.8897031229177
54.8861842569668
54.8826653261614
54.8791463303842
54.8756272696289
54.8721081437619
54.8685889527958
54.8650696965749
54.8615503751378
54.8580309882995
54.8545115361302
54.8509920184098
54.8474724352488
54.8439527863804
54.8404330719688
54.8369132916855
54.833393445766
54.8298735337998
54.8263535561157
54.822833512198
54.8193134024946
54.8157932263548
54.8122729843801
54.8087526757441
54.8052323012491
54.8017118598408
54.7981913525812
54.7946707781212
54.7911501378571
54.7876294300617
54.7841086565603
54.7805878151398
54.7770669081781
54.7735459328374
54.7700248922017
54.766503782637
54.7629826081272
54.7594613640279
54.7559400554601
54.7524186765051
54.7488972337144
54.7453757195757
54.741854142417
54.7383324927583
54.7348107811056
54.7312889955924
54.7277671493353
54.7242452276473
54.7207232466698
54.7172011885311
54.7136790726694
54.7101568779018
54.7066346268508
54.7031122954782
54.699589908576
54.696067441018
54.6925449167929
54.6890223142314
54.6854996493781
54.6819769144938
54.6784541015336
54.6749312401905
54.6714082619143
54.6678852880548
54.6643621039827
54.6608390599285
54.6573155731022
54.6537926576855
54.6502686183451
54.6467482189163
0.5
56.5928236657277
56.5928236657277
56.2910878071003
56.2499272736535
56.2298365803272
56.2154169413726
56.2034152850637
56.1926711786288
56.1826723670045
56.1731660985903
56.164019126265
56.1551577393943
56.1465391615437
56.1381370019404
56.1299335959271
56.1219159200571
56.1140734224164
56.1063968925838
56.0988778946019
56.091508499681
56.0842811729571
56.0771887345955
56.0702243527615
56.0633815469326
56.0566541914174
56.0500365148194
56.0435230942292
56.0371088446148
56.0307890047793
56.0245591213044
56.0184150312224
56.012352843595
56.0063689203888
56.0004598577379
55.9946224688635
55.9888537689203
55.9831509607053
55.9775114199469
55.9719326803253
55.9664124200164
55.960948451472
55.9555387139598
55.950181266214
55.9448742767773
55.9396160125329
55.9344048288213
55.929239164261
55.9241175397554
55.919038557362
55.9140008946233
55.9090032942589
55.9040445541359
55.8991235233656
55.8942391058594
55.8893902662382
55.8845760305067
55.8797954779909
55.8750477287803
55.8703319357282
55.8656472874854
55.8609930206201
55.8563684313148
55.8517728768971
55.8472057653785
55.8426665414258
55.838154681661
55.8336697067739
55.8292112060872
55.8247788604152
55.8203724488196
55.8159918348481
55.811636941262
55.8073077294784
55.8030041954387
55.7987263800051
55.7944743785503
55.7902483308479
55.7860483821925
55.7818746244461
55.7777270403774
55.773605476452
55.7695096560042
55.7654392236147
55.7613937947217
55.7573729820664
55.7533763843684
55.7494035449983
55.7454539068327
55.7415267934086
55.7376214335738
55.7337370239212
55.7298728027175
55.7260281016609
55.7222023515868
55.7183950400098
55.7146056412734
55.7108335527851
55.7070780676107
55.7033383965628
55.6996137303224
55.6959033145614
55.6922065059755
55.6885227861212
55.6848517282091
55.6811929313541
55.677545949189
55.6739102408884
55.6702851629518
55.6666700042891
55.6630640515795
55.6594666621288
55.6558773203203
55.6522956605177
55.6487214508147
55.6451545439309
55.6415948101136
55.6380420701083
55.6344960440002
55.6309563256705
55.6274223851139
55.6238935941878
55.620369267116
55.616848705736
55.6133312407286
55.6098162629168
55.6063032421178
55.6027917339916
55.5992813773402
55.5957718852112
55.5922630330671
55.5887546466234
55.5852465909888
55.581738761853
55.5782310787802
55.5747234802662
55.5712159200642
55.5677083643263
55.5642007892171
55.5606931788154
55.5571855232277
55.5536778169199
55.5501700572989
55.5466622435734
55.5431543759041
55.5396464548214
55.5361384808689
55.5326304544284
55.5291223756669
55.525614244553
55.5221060609141
55.5185978244987
55.5150895350321
55.5115811922536
55.5080727959444
55.5045643459308
55.5010558420871
55.4975472843244
55.4940386725847
55.4905300068267
55.4870212870176
55.4835125131297
55.4800036851318
55.4764948029897
55.4729858666635
55.4694768761077
55.4659678312739
55.4624587321086
55.4589495785556
55.4554403705578
55.4519311080543
55.4484217909864
55.4449124192933
55.441402992913
55.4378935117847
55.4343839758464
55.4308743850369
55.4273647392937
55.4238550385545
55.4203452827574
55.4168354718393
55.4133256057381
55.4098156843911
55.4063057077345
55.4027956757062
55.3992855882428
55.3957754452817
55.3922652467585
55.3887549926109
55.3852446827755
55.3817343171892
55.3782238957892
55.3747134185115
55.3712028852933
55.3676922960708
55.3641816507816
55.3606709493626
55.35716019175
55.3536493778806
55.350138507692
55.34662758112
55.3431165981011
55.3396055585722
55.3360944624707
55.3325833097328
55.3290721002961
55.3255608340965
55.3220495110704
55.3185381311544
55.315026694285
55.3115152003999
55.3080036494348
55.3044920413259
55.3009803760108
55.2974686534257
55.2939568735064
55.2904450361894
55.2869331414123
55.2834211891107
55.2799091792213
55.2763971116803
55.2728849864243
55.2693728033895
55.2658605625121
55.2623482637286
55.2588359069761
55.2553234921895
55.251811019306
55.2482984882623
55.2447858989944
55.2412732514375
55.2377605455287
55.2342477812036
55.2307349583998
55.2272220770517
55.2237091370971
55.2201961384715
55.2166830811104
55.2131699649514
55.2096567899297
55.206143555981
55.2026302630418
55.1991169110484
55.1956034999363
55.192090029642
55.1885765001011
55.1850629112502
55.1815492630248
55.1780355553613
55.174521788195
55.1710079614625
55.1674940750995
55.1639801290412
55.1604661232239
55.1569520575839
55.153437932057
55.1499237465787
55.1464095010853
55.1428951955125
55.1393808297954
55.1358664038698
55.1323519176719
55.1288373711375
55.1253227642029
55.121808096803
55.118293368873
55.1147785803494
55.1112637311673
55.1077488212624
55.1042338505715
55.1007188190287
55.0972037265708
55.0936885731328
55.0901733586499
55.0866580830576
55.0831427462921
55.079627348289
55.0761118889827
55.0725963683097
55.0690807862055
55.0655651426045
55.062049437443
55.058533670656
55.055017842179
55.0515019519477
55.0479859998973
55.0444699859631
55.0409539100804
55.0374377721844
55.033921572211
55.0304053100944
55.0268889857701
55.0233725991738
55.0198561502409
55.0163396389059
55.0128230651043
55.0093064287712
55.0057897298413
55.0022729682506
54.9987561439336
54.9952392568259
54.991722306862
54.9882052939767
54.9846882181054
54.9811710791839
54.9776538771457
54.9741366119278
54.9706192834618
54.9671018916859
54.9635844365336
54.9600669179403
54.9565493358393
54.9530316901681
54.9495139808582
54.9459962078483
54.9424783710686
54.9389604704587
54.9354425059483
54.9319244774788
54.9284063849763
54.9248882283849
54.9213700076292
54.9178517226555
54.9143333733844
54.9108149597666
54.9072964817196
54.9037779391969
54.9002593321107
54.8967406604215
54.8932219240344
54.8897031229177
54.8861842569668
54.8826653261614
54.8791463303842
54.8756272696289
54.8721081437619
54.8685889527958
54.8650696965749
54.8615503751378
54.8580309882995
54.8545115361302
54.8509920184098
54.8474724352488
54.8439527863804
54.8404330719688
54.8369132916855
54.833393445766
54.8298735337998
54.8263535561157
54.822833512198
54.8193134024946
54.8157932263548
54.8122729843801
54.8087526757441
54.8052323012491
54.8017118598408
54.7981913525812
54.7946707781212
54.7911501378571
54.7876294300617
54.7841086565603
54.7805878151398
54.7770669081781
54.7735459328374
54.7700248922017
54.766503782637
54.7629826081272
54.7594613640279
54.7559400554601
54.7524186765051
54.7488972337144
54.7453757195757
54.741854142417
54.7383324927583
54.7348107811056
54.7312889955924
54.7277671493353
54.7242452276473
54.7207232466698
54.7172011885311
54.7136790726694
54.7101568779018
54.7066346268508
54.7031122954782
54.699589908576
54.696067441018
54.6925449167929
54.6890223142314
54.6854996493781
54.6819769144938
54.6784541015336
54.6749312401905
54.6714082619143
54.6678852880548
54.6643621039827
54.6608390599285
54.6573155731022
54.6537926576855
54.6502686183451
54.6467482189163
54.6467482189163
56.5782418750607
56.5782418750607
56.2949236500854
56.251182655859
56.2304717867438
56.2158114216896
56.2036869451173
56.1928705930688
56.182825475519
56.173287764085
56.1641185155068
56.1552408063147
56.1466099252139
56.138198259404
56.1299873443708
56.1219636182993
56.1141161584624
56.106435493856
56.0989130020134
56.0915406183168
56.0843107073097
56.0772160134341
56.0702496469393
56.0634050823221
56.0566761584383
56.0500570755605
56.0435423878507
56.0371269915028
56.0308061097836
56.0245752762881
56.0184303170957
56.0123673319635
56.0063826749072
56.0004729352271
55.9946349202299
55.9888656399135
55.9831622925569
55.9775222499278
55.9719430422378
55.9664223446132
55.9609579667936
55.955547845605
55.950190037579
55.9448827092966
55.9396241259184
55.9344126412674
55.9292466925844
55.9241247994778
55.9190455627851
55.9140076589434
55.9090098297242
55.9040508721938
55.8991296347416
55.8942450205553
55.889395993502
55.8845815788544
55.8798008553138
55.8750529424969
55.8703369928896
55.8656521947702
55.8609977842405
55.8563730569272
55.8517773696132
55.8472101298954
55.8426707821918
55.83815880295
55.8336737125938
55.829215099959
55.8247826451554
55.8203761264626
55.8159954067554
55.8116404083368
55.8073110923342
55.8030074544086
55.7987295350041
55.7944774289265
55.790251275403
55.7860512194653
55.7818773531975
55.7777296600765
55.7736079875329
55.7695120597728
55.7654415218691
55.7613959893024
55.7573750745911
55.7533783762962
55.74940543798
55.7454557031342
55.7415284961456
55.7376230465889
55.7337385513212
55.7298742482722
55.7260294683413
55.7222036414606
55.718396254543
55.714606781894
55.7108346214472
55.7070790671003
55.7033393304116
55.6996146023724
55.6959041283749
55.6922072643451
55.6885234908825
55.6848523804265
55.6811935317985
55.6775464989152
55.6739107416926
55.6702856175464
55.6666704161413
55.6630644244815
55.6594669996514
55.655877625326
55.6522959348759
55.6487216953863
55.6451547588043
55.6415949950077
55.638042224824
55.6344961688067
55.6309564215499
55.6274224538296
55.6238936381947
55.6203692893575
55.6168487093899
55.6133312289591
55.6098162386738
55.6063032080051
55.6027916922057
55.5992813296684
55.5957718330691
55.5922629775576
55.5887545886
55.5852465311123
55.5817387006375
55.5782310166269
55.5747234174875
55.5712158568999
55.5677083009559
55.5642007257703
55.5606931153809
55.557185459862
55.5536777536554
55.5501699941512
55.5466621805475
55.543154312999
55.5396463920335
55.5361384181945
55.5326303918643
55.5291223132114
55.5256141822055
55.5221059986749
55.518597762369
55.5150894730131
55.5115811303464
55.5080727341501
55.5045642842503
55.501055780521
55.497547222873
55.4940386112482
55.490529945605
55.4870212259109
55.4835124521377
55.4800036242545
55.4764947422271
55.4729858060156
55.4694768155743
55.465967770855
55.4624586718041
55.4589495183657
55.4554403104825
55.4519310480935
55.4484217311403
55.4449123595618
55.4414029332964
55.4378934522828
55.4343839164593
55.4308743257646
55.4273646801364
55.4238549795121
55.42034522383
55.4168354130269
55.4133255470408
55.4098156258089
55.4063056492674
55.4027956173543
55.3992855300062
55.3957753871603
55.3922651887524
55.3887549347201
55.3852446250002
55.3817342595293
55.3782238382447
55.3747133610826
55.3712028279799
55.367692238873
55.3641815936994
55.360670892396
55.3571601348991
55.3536493211454
55.3501384510725
55.3466275246164
55.3431165417132
55.3396055023001
55.3360944063145
55.3325832536925
55.3290720443718
55.3255607782881
55.3220494553781
55.3185380755781
55.3150266388248
55.3115151450558
55.3080035942068
55.304491986214
55.3009803210151
55.2974685985463
55.2939568187431
55.2904449815425
55.2869330868817
55.2834211346965
55.2799091249234
55.2763970574988
55.2728849323592
55.2693727494409
55.26586050868
55.262348210013
55.258835853377
55.2553234387071
55.2518109659401
55.248298435013
55.2447858458618
55.2412731984216
55.2377604926295
55.2342477284212
55.2307349057342
55.2272220245028
55.2237090846651
55.2201960861563
55.2166830289122
55.2131699128701
55.2096567379654
55.2061435041337
55.2026302113115
55.1991168594351
55.19560344844
55.1920899782629
55.1885764488391
55.1850628601053
55.1815492119972
55.1780355044508
55.1745217374017
55.1710079107865
55.1674940245408
55.1639800785997
55.1604660728998
55.1569520073772
55.1534378819677
55.1499236966068
55.1464094512308
55.1428951457756
55.139380780176
55.135866354368
55.1323518682876
55.1288373218708
55.1253227150538
55.1218080477715
55.1182933199592
55.1147785315533
55.111263682489
55.1077487727018
55.1042338021287
55.1007187707036
55.0972036783636
55.0936885250435
55.0901733106785
55.0866580352041
55.0831426985566
55.0796273006715
55.0761118414831
55.0725963209281
55.069080738942
55.0655650954591
55.0620493904158
55.0585336237469
55.055017795388
55.0515019052748
55.0479859533428
55.0444699395267
55.0409538637624
55.0374377259847
55.0339215261295
55.0304052641313
55.0268889399254
55.0233725534475
55.019856104633
55.0163395934165
55.0128230197333
55.0093063835188
55.0057896847074
55.0022729232353
54.9987560990368
54.9952392120477
54.9917222622025
54.9882052494358
54.9846881736833
54.9811710348805
54.9776538329611
54.9741365678619
54.9706192395148
54.9671018478576
54.9635843928242
54.9600668743498
54.9565492923677
54.9530316468154
54.9495139376246
54.9459961647335
54.9424783280729
54.9389604275819
54.9354424631907
54.9319244348401
54.9284063424569
54.9248881859844
54.9213699653482
54.9178516804933
54.9143333313417
54.9108149178428
54.9072964399155
54.9037778975116
54.9002592905453
54.8967406189746
54.8932218827078
54.8897030817095
54.8861842158791
54.8826652851919
54.8791462895357
54.8756272288981
54.8721081031524
54.8685889123038
54.8650696562049
54.8615503348845
54.8580309481691
54.8545114961157
54.8509919785192
54.847472395473
54.8439527467297
54.8404330324316
54.8369132522752
54.8333934064672
54.8298734946301
54.8263535170552
54.8228334732696
54.8193133636721
54.815793187668
54.8122729457951
54.8087526372998
54.8052322629011
54.8017118216397
54.7981913144695
54.7946707401645
54.7911500999807
54.7876293923506
54.7841086189179
54.7805877776761
54.777066870768
54.7735458956231
54.770024855022
54.7665037456747
54.7629825711753
54.7594613273211
54.7559400187328
54.7524186400576
54.7488971972079
54.7453756833925
54.7418541061267
54.7383324568447
54.7348107450265
54.7312889599548
54.7277671134622
54.7242451922917
54.720723210998
54.717201153462
54.7136790371972
54.7101568431191
54.7066345915828