# vtk DataFile Version 2.0
FlowField
ASCII
DATASET STRUCTURED_GRID
DIMENSIONS 400 1 200
POINTS 80000 float
0 0 0
0.08 0 0
0.16 0 0
0.24 0 0
0.32 0 0
0.4 0 0
0.48 0 0
0.56 0 0
0.64 0 0
0.72 0 0
0.8 0 0
0.88 0 0
0.96 0 0
1.04 0 0
1.12 0 0
1.2 0 0
1.28 0 0
1.36 0 0
1.44 0 0
1.52 0 0
1.6 0 0
1.68 0 0
1.76 0 0
1.84 0 0
1.92 0 0
2 0 0
2.08 0 0
2.16 0 0
2.24 0 0
2.32 0 0
2.4 0 0
2.48 0 0
2.56 0 0
2.64 0 0
2.72 0 0
2.8 0 0
2.88 0 0
2.96 0 0
3.04 0 0
3.12 0 0
3.2 0 0
3.28 0 0
3.36 0 0
3.44 0 0
3.52 0 0
3.6 0 0
3.68 0 0
3.76 0 0
3.84 0 0
3.92 0 0
4 0 0
4.08 0 0
4.16 0 0
4.24 0 0
4.32 0 0
4.4 0 0
4.48 0 0
4.56 0 0
4.64 0 0
4.72 0 0
4.8 0 0
4.88 0 0
4.96 0 0
5.04 0 0
5.12 0 0
5.2 0 0
5.28 0 0
5.36 0 0
5.44 0 0
5.52 0 0
5.6 0 0
5.68 0 0
5.76 0 0
5.84 0 0
5.92 0 0
6 0 0
6.08 0 0
6.16 0 0
6.24 0 0
6.32 0 0
6.4 0 0
6.48 0 0
6.56 0 0
6.64 0 0
6.72 0 0
6.8 0 0
6.88 0 0
6.96 0 0
7.04 0 0
7.12 0 0
7.2 0 0
7.28 0 0
7.36 0 0
7.44 0 0
7.52 0 0
7.6 0 0
7.68 0 0
7.76 0 0
7.84 0 0
7.92 0 0
8 0 0
8.08 0 0
8.16 0 0
8.24 0 0
8.32 0 0
8.4 0 0
8.48 0 0
8.56 0 0
8.64 0 0
8.72 0 0
8.8 0 0
8.88 0 0
8.96 0 0
9.04 0 0
9.12 0 0
9.2 0 0
9.28 0 0
9.36 0 0
9.44 0 0
9.52 0 0
9.6 0 0
9.68 0 0
9.76 0 0
9.84 0 0
9.92 0 0
10 0 0
10.08 0 0
10.16 0 0
10.24 0 0
10.32 0 0
10.4 0 0
10.48 0 0
10.56 0 0
10.64 0 0
10.72 0 0
10.8 0 0
10.88 0 0
10.96 0 0
11.04 0 0
11.12 0 0
11.2 0 0
11.28 0 0
11.36 0 0
11.44 0 0
11.52 0 0
11.6 0 0
11.68 0 0
11.76 0 0
11.84 0 0
11.92 0 0
12 0 0
12.08 0 0
12.16 0 0
12.24 0 0
12.32 0 0
12.4 0 0
12.48 0 0
12.56 0 0
12.64 0 0
12.72 0 0
12.8 0 0
12.88 0 0
12.96 0 0
13.04 0 0
13.12 0 0
13.2 0 0
13.28 0 0
13.36 0 0
13.44 0 0
13.52 0 0
13.6 0 0
13.68 0 0
13.76 0 0
13.84 0 0
13.92 0 0
14 0 0
14.08 0 0
14.16 0 0
14.24 0 0
14.32 0 0
14.4 0 0
14.48 0 0
14.56 0 0
14.64 0 0
14.72 0 0
14.8 0 0
14.88 0 0
14.96 0 0
15.04 0 0
15.12 0 0
15.2 0 0
15.28 0 0
15.36 0 0
15.44 0 0
15.52 0 0
15.6 0 0
15.68 0 0
15.76 0 0
15.84 0 0
15.92 0 0
16 0 0
16.08 0 0
16.16 0 0
16.24 0 0
16.32 0 0
16.4 0 0
16.48 0 0
16.56 0 0
16.64 0 0
16.72 0 0
16.8 0 0
16.88 0 0
16.96 0 0
17.04 0 0
17.12 0 0
17.2 0 0
17.28 0 0
17.36 0 0
17.44 0 0
17.52 0 0
17.6 0 0
17.68 0 0
17.76 0 0
17.84 0 0
17.92 0 0
18 0 0
18.08 0 0
18.16 0 0
18.24 0 0
18.32 0 0
18.4 0 0
18.48 0 0
18.56 0 0
18.64 0 0
18.72 0 0
18.8 0 0
18.88 0 0
18.96 0 0
19.04 0 0
19.12 0 0
19.2 0 0
19.28 0 0
19.36 0 0
19.44 0 0
19.52 0 0
19.6 0 0
19.68 0 0
19.76 0 0
19.84 0 0
19.92 0 0
20 0 0
20.08 0 0
20.16 0 0
20.24 0 0
20.32 0 0
20.4 0 0
20.48 0 0
20.56 0 0
20.64 0 0
20.72 0 0
20.8 0 0
20.88 0 0
20.96 0 0
21.04 0 0
21.12 0 0
21.2 0 0
21.28 0 0
21.36 0 0
21.44 0 0
21.52 0 0
21.6 0 0
21.68 0 0
21.76 0 0
21.84 0 0
21.92 0 0
22 0 0
22.08 0 0
22.16 0 0
22.24 0 0
22.32 0 0
22.4 0 0
22.48 0 0
22.56 0 0
22.64 0 0
22.72 0 0
22.8 0 0
22.88 0 0
22.96 0 0
23.04 0 0
23.12 0 0
23.2 0 0
23.28 0 0
23.36 0 0
23.44 0 0
23.52 0 0
23.6 0 0
23.68 0 0
23.76 0 0
23.84 0 0
23.92 0 0
24 0 0
24.08 0 0
24.16 0 0
24.24 0 0
24.32 0 0
24.4 0 0
24.48 0 0
24.56 0 0
24.64 0 0
24.72 0 0
24.8 0 0
24.88 0 0
24.96 0 0
25.04 0 0
25.12 0 0
25.2 0 0
25.28 0 0
25.36 0 0
25.44 0 0
25.52 0 0
25.6 0 0
25.68 0 0
25.76 0 0
25.84 0 0
25.92 0 0
26 0 0
26.08 0 0
26.16 0 0
26.24 0 0
26.32 0 0
26.4 0 0
26.48 0 0
26.56 0 0
26.64 0 0
26.72 0 0
26.8 0 0
26.88 0 0
26.96 0 0
27.04 0 0
27.12 0 0
27.2 0 0
27.28 0 0
27.36 0 0
27.44 0 0
27.52 0 0
27.6 0 0
27.68 0 0
27.76 0 0
27.84 0 0
27.92 0 0
28 0 0
28.08 0 0
28.16 0 0
28.24 0 0
28.32 0 0
28.4 0 0
28.48 0 0
28.56 0 0
28.64 0 0
28.72 0 0
28.8 0 0
28.88 0 0
28.96 0 0
29.04 0 0
29.12 0 0
29.2 0 0
29.28 0 0
29.36 0 0
29.44 0 0
29.52 0 0
29.6 0 0
29.68 0 0
29.76 0 0
29.84 0 0
29.92 0 0
30 0 0
30.08 0 0
30.16 0 0
30.24 0 0
30.32 0 0
30.4 0 0
30.48 0 0
30.56 0 0
30.64 0 0
30.72 0 0
30.8 0 0
30.88 0 0
30.96 0 0
31.04 0 0
31.12 0 0
31.2 0 0
31.28 0 0
31.36 0 0
31.44 0 0
31.52 0 0
31.6 0 0
31.68 0 0
31.76 0 0
31.84 0 0
31.92 0 0
0 0.005 0
0.08 0.005 0
0.16 0.005 0
0.24 0.005 0
0.32 0.005 0
0.4 0.005 0
0.48 0.005 0
0.56 0.005 0
0.64 0.005 0
0.72 0.005 0
0.8 0.005 0
0.88 0.005 0
0.96 0.005 0
1.04 0.005 0
1.12 0.005 0
1.2 0.005 0
1.28 0.005 0
1.36 0.005 0
1.44 0.005 0
1.52 0.005 0
1.6 0.005 0
1.68 0.005 0
1.76 0.005 0
1.84 0.005 0
1.92 0.005 0
2 0.005 0
2.08 0.005 0
2.16 0.005 0
2.24 0.005 0
2.32 0.005 0
2.4 0.005 0
2.48 0.005 0
2.56 0.005 0
2.64 0.005 0
2.72 0.005 0
2.8 0.005 0
2.88 0.005 0
2.96 0.005 0
3.04 0.005 0
3.12 0.005 0
3.2 0.005 0
3.28 0.005 0
3.36 0.005 0
3.44 0.005 0
3.52 0.005 0
3.6 0.005 0
3.68 0.005 0
3.76 0.005 0
3.84 0.005 0
3.92 0.005 0
4 0.005 0
4.08 0.005 0
4.16 0.005 0
4.24 0.005 0
4.32 0.005 0
4.4 0.005 0
4.48 0.005 0
4.56 0.005 0
4.64 0.005 0
4.72 0.005 0
4.8 0.005 0
4.88 0.005 0
4.96 0.005 0
5.04 0.005 0
5.12 0.005 0
5.2 0.005 0
5.28 0.005 0
5.36 0.005 0
5.44 0.005 0
5.52 0.005 0
5.6 0.005 0
5.68 0.005 0
5.76 0.005 0
5.84 0.005 0
5.92 0.005 0
6 0.005 0
6.08 0.005 0
6.16 0.005 0
6.24 0.005 0
6.32 0.005 0
6.4 0.005 0
6.48 0.005 0
6.56 0.005 0
6.64 0.005 0
6.72 0.005 0
6.8 0.005 0
6.88 0.005 0
6.96 0.005 0
7.04 0.005 0
7.12 0.005 0
7.2 0.005 0
7.28 0.005 0
7.36 0.005 0
7.44 0.005 0
7.52 0.005 0
7.6 0.005 0
7.68 0.005 0
7.76 0.005 0
7.84 0.005 0
7.92 0.005 0
8 0.005 0
8.08 0.005 0
8.16 0.005 0
8.24 0.005 0
8.32 0.005 0
8.4 0.005 0
8.48 0.005 0
8.56 0.005 0
8.64 0.005 0
8.72 0.005 0
8.8 0.005 0
8.88 0.005 0
8.96 0.005 0
9.04 0.005 0
9.12 0.005 0
9.2 0.005 0
9.28 0.005 0
9.36 0.005 0
9.44 0.005 0
9.52 0.005 0
9.6 0.005 0
9.68 0.005 0
9.76 0.005 0
9.84 0.005 0
9.92 0.005 0
10 0.005 0
10.08 0.005 0
10.16 0.005 0
10.24 0.005 0
10.32 0.005 0
10.4 0.005 0
10.48 0.005 0
10.56 0.005 0
10.64 0.005 0
10.72 0.005 0
10.8 0.005 0
10.88 0.005 0
10.96 0.005 0
11.04 0.005 0
11.12 0.005 0
11.2 0.005 0
11.28 0.005 0
11.36 0.005 0
11.44 0.005 0
11.52 0.005 0
11.6 0.005 0
11.68 0.005 0
11.76 0.005 0
11.84 0.005 0
11.92 0.005 0
12 0.005 0
12.08 0.005 0
12.16 0.005 0
12.24 0.005 0
12.32 0.005 0
12.4 0.005 0
12.48 0.005 0
12.56 0.005 0
12.64 0.005 0
12.72 0.005 0
12.8 0.005 0
12.88 0.005 0
12.96 0.005 0
13.04 0.005 0
13.12 0.005 0
13.2 0.005 0
13.28 0.005 0
13.36 0.005 0
13.44 0.005 0
13.52 0.005 0
13.6 0.005 0
13.68 0.005 0
13.76 0.005 0
13.84 0.005 0
13.92 0.005 0
14 0.005 0
14.08 0.005 0
14.16 0.005 0
14.24 0.005 0
14.32 0.005 0
14.4 0.005 0
14.48 0.005 0
14.56 0.005 0
14.64 0.005 0
14.72 0.005 0
14.8 0.005 0
14.88 0.005 0
14.96 0.005 0
15.04 0.005 0
15.12 0.005 0
15.2 0.005 0
15.28 0.005 0
15.36 0.005 0
15.44 0.005 0
15.52 0.005 0
15.6 0.005 0
15.68 0.005 0
15.76 0.005 0
15.84 0.005 0
15.92 0.005 0
16 0.005 0
16.08 0.005 0
16.16 0.005 0
16.24 0.005 0
16.32 0.005 0
16.4 0.005 0
16.48 0.005 0
16.56 0.005 0
16.64 0.005 0
16.72 0.005 0
16.8 0.005 0
16.88 0.005 0
16.96 0.005 0
17.04 0.005 0
17.12 0.005 0
17.2 0.005 0
17.28 0.005 0
17.36 0.005 0
17.44 0.005 0
17.52 0.005 0
17.6 0.005 0
17.68 0.005 0
17.76 0.005 0
17.84 0.005 0
17.92 0.005 0
18 0.005 0
18.08 0.005 0
18.16 0.005 0
18.24 0.005 0
18.32 0.005 0
18.4 0.005 0
18.48 0.005 0
18.56 0.005 0
18.64 0.005 0
18.72 0.005 0
18.8 0.005 0
18.88 0.005 0
18.96 0.005 0
19.04 0.005 0
19.12 0.005 0
19.2 0.005 0
19.28 0.005 0
19.36 0.005 0
19.44 0.005 0
19.52 0.005 0
19.6 0.005 0
19.68 0.005 0
19.76 0.005 0
19.84 0.005 0
19.92 0.005 0
20 0.005 0
20.08 0.005 0
20.16 0.005 0
20.24 0.005 0
20.32 0.005 0
20.4 0.005 0
20.48 0.005 0
20.56 0.005 0
20.64 0.005 0
20.72 0.005 0
20.8 0.005 0
20.88 0.005 0
20.96 0.005 0
21.04 0.005 0
21.12 0.005 0
21.2 0.005 0
21.28 0.005 0
21.36 0.005 0
21.44 0.005 0
21.52 0.005 0
21.6 0.005 0
21.68 0.005 0
21.76 0.005 0
21.84 0.005 0
21.92 0.005 0
22 0.005 0
22.08 0.005 0
22.16 0.005 0
22.24 0.005 0
22.32 0.005 0
22.4 0.005 0
22.48 0.005 0
22.56 0.005 0
22.64 0.005 0
22.72 0.005 0
22.8 0.005 0
22.88 0.005 0
22.96 0.005 0
23.04 0.005 0
23.12 0.005 0
23.2 0.005 0
23.28 0.005 0
23.36 0.005 0
23.44 0.005 0
23.52 0.005 0
23.6 0.005 0
23.68 0.005 0
23.76 0.005 0
23.84 0.005 0
23.92 0.005 0
24 0.005 0
24.08 0.005 0
24.16 0.005 0
24.24 0.005 0
24.32 0.005 0
24.4 0.005 0
24.48 0.005 0
24.56 0.005 0
24.64 0.005 0
24.72 0.005 0
24.8 0.005 0
24.88 0.005 0
24.96 0.005 0
25.04 0.005 0
25.12 0.005 0
25.2 0.005 0
25.28 0.005 0
25.36 0.005 0
25.44 0.005 0
25.52 0.005 0
25.6 0.005 0
25.68 0.005 0
25.76 0.005 0
25.84 0.005 0
25.92 0.005 0
26 0.005 0
26.08 0.005 0
26.16 0.005 0
26.24 0.005 0
26.32 0.005 0
26.4 0.005 0
26.48 0.005 0
26.56 0.005 0
26.64 0.005 0
26.72 0.005 0
26.8 0.005 0
26.88 0.005 0
26.96 0.005 0
27.04 0.005 0
27.12 0.005 0
27.2 0.005 0
27.28 0.005 0
27.36 0.005 0
27.44 0.005 0
27.52 0.005 0
27.6 0.005 0
27.68 0.005 0
27.76 0.005 0
27.84 0.005 0
27.92 0.005 0
28 0.005 0
28.08 0.005 0
28.16 0.005 0
28.24 0.005 0
28.32 0.005 0
28.4 0.005 0
28.48 0.005 0
28.56 0.005 0
28.64 0.005 0
28.72 0.005 0
28.8 0.005 0
28.88 0.005 0
28.96 0.005 0
29.04 0.005 0
29.12 0.005 0
29.2 0.005 0
29.28 0.005 0
29.36 0.005 0
29.44 0.005 0
29.52 0.005 0
29.6 0.005 0
29.68 0.005 0
29.76 0.005 0
29.84 0.005 0
29.92 0.005 0
30 0.005 0
30.08 0.005 0
30.16 0.005 0
30.24 0.005 0
30.32 0.005 0
30.4 0.005 0
30.48 0.005 0
30.56 0.005 0
30.64 0.005 0
30.72 0.005 0
30.8 0.005 0
30.88 0.005 0
30.96 0.005 0
31.04 0.005 0
31.12 0.005 0
31.2 0.005 0
31.28 0.005 0
31.36 0.005 0
31.44 0.005 0
31.52 0.005 0
31.6 0.005 0
31.68 0.005 0
31.76 0.005 0
31.84 0.005 0
31.92 0.005 0
0 0.01 0
0.08 0.01 0
0.16 0.01 0
0.24 0.01 0
0.32 0.01 0
0.4 0.01 0
0.48 0.01 0
0.56 0.01 0
0.64 0.01 0
0.72 0.01 0
0.8 0.01 0
0.88 0.01 0
0.96 0.01 0
1.04 0.01 0
1.12 0.01 0
1.2 0.01 0
1.28 0.01 0
1.36 0.01 0
1.44 0.01 0
1.52 0.01 0
1.6 0.01 0
1.68 0.01 0
1.76 0.01 0
1.84 0.01 0
1.92 0.01 0
2 0.01 0
2.08 0.01 0
2.16 0.01 0
2.24 0.01 0
2.32 0.01 0
2.4 0.01 0
2.48 0.01 0
2.56 0.01 0
2.64 0.01 0
2.72 0.01 0
2.8 0.01 0
2.88 0.01 0
2.96 0.01 0
3.04 0.01 0
3.12 0.01 0
3.2 0.01 0
3.28 0.01 0
3.36 0.01 0
3.44 0.01 0
3.52 0.01 0
3.6 0.01 0
3.68 0.01 0
3.76 0.01 0
3.84 0.01 0
3.92 0.01 0
4 0.01 0
4.08 0.01 0
4.16 0.01 0
4.24 0.01 0
4.32 0.01 0
4.4 0.01 0
4.48 0.01 0
4.56 0.01 0
4.64 0.01 0
4.72 0.01 0
4.8 0.01 0
4.88 0.01 0
4.96 0.01 0
5.04 0.01 0
5.12 0.01 0
[...]
POINT_DATA 80000

SCALARS v float 1
LOOKUP_TABLE default
0
0
0
0
0
0
0
0
0
0
0
0
0
0
0
0
0
0
0
0
0
0
0
0
0
0
0
0
0
0
0
0
0
0
0
0
0
0
0
0
0
0
0
0
0
0
0
0
0
0
0
0
0
0
0
0
0
0
0
0
0
0
0
0
0
0
0
0
0
0
0
0
0
0
0
0
0
0
0
0
0
0
0
0
0
0
0
0
0
0
0
0
0
0
0
0
0
0
0
0
0
0
0
0
0
0
0
0
0
0
0
0
0
0
0
0
0
0
0
0
0
0
0
0
0
0
0
0
0
0
0
0
0
0
0
0
0
0
0
0
0
0
0
0
0
0
0
0
0
0
0
0
0
0
0
0
0
0
0
0
0
0
0
0
0
0
0
0
0
0
0
0
0
0
0
0
0
0
0
0
0
0
0
0
0
0
0
0
0
0
0
0
0
0
0
0
0
0
0
0
0
0
0
0
0
0
0
0
0
0
0
0
0
0
0
0
0
0
0
0
0
0
0
0
0
0
0
0
0
0
0
0
0
0
0
0
0
0
0
0
0
0
0
0
0
0
0
0
0
0
0
0
0
0
0
0
0
0
0
0
0
0
0
0
0
0
0
0
0
0
0
0
0
0
0
0
0
0
0
0
0
0
0
0
0
0
0
0
0
0
0
0
0
0
0
0
0
0
0
0
0
0
0
0
0
0
0
0
0
0
0
0
0
0
0
0
0
0
0
0
0
0
0
0
0
0
0
0
0
0
0
0
0
0
0
0
0
0
0
0
0
0
0
0
0
0
0
0
0
0
0
0
0
0
0
0
0
0
0
0
0
0
0
0
0
0
0
0
0
0
0
0
0
0
0
0
0
0
0
0
0
0
0
0
0
0
0
0
0
0
0
0
0
0
0
0
0
0
0
0
-0.0547206602221453
0.0547206602221453
0.00442470060253136
0.00146321319066931
0.000953924595293268
0.000760555641022724
0.000663378651409125
0.000604550914326965
0.000559822454572424
0.000520911587585954
0.000488121495779961
0.000463118077954498
0.000445414628400361
0.000432851450750224
0.000423199959833077
0.000414969128687013
0.000407359981398591
0.000399960566143905
0.00039253270235077
0.000384929206673801
0.000377070718343239
0.000368932155127269
0.000360525176249606
0.000351881085106055
0.000343038041563813
0.000334034163286815
0.000324904475502291
0.000315680523297202
0.000306390637226006
0.000297060753613598
0.000287714825184322
0.000278375389146974
0.000269063656437202
0.000259799812991501
0.000250602921843458
0.00024149110655696
0.000232481385096093
0.000223589818011144
0.000214831327481214
0.000206219842863439
0.000197768124052003
0.000189487915256996
0.000181389778434598
0.000173483258191703
0.000165776726411799
0.000158277558254045
0.000150991987345182
0.000143925292058736
0.000137081660077001
0.000130464383460075
0.000124075731245641
0.000117917151730924
0.000111989151439903
0.000106291503063151
0.000100823129066417
9.55823136546904e-05
9.05665893431307e-05
8.57729512452576e-05
8.11977451621826e-05
7.68368825143604e-05
7.26857284214438e-05
6.87393159819339e-05
6.49922328933174e-05
6.14388338553388e-05
5.80731246516695e-05
5.48889714585019e-05
5.18799815075587e-05
4.90397085440438e-05
4.63615292225037e-05
4.38388441481932e-05
4.1464949468423e-05
3.92332331164088e-05
3.7137041326376e-05
3.51698698044752e-05
3.33252251256371e-05
3.15968108692191e-05
2.99783839325724e-05
2.84639357585191e-05
2.7047543816505e-05
2.57235482550306e-05
2.44863988576923e-05
2.33308274729535e-05
2.2251690999697e-05
2.12441399929911e-05
2.03034581198785e-05
1.94252275296151e-05
1.86051652698646e-05
1.7839286018529e-05
1.71237359023446e-05
1.64549530481715e-05
1.58294995543875e-05
1.5244220238589e-05
1.46960730757716e-05
1.4182286808006e-05
1.37001903418688e-05
1.32473694778135e-05
1.28214956642049e-05
1.24204822666336e-05
1.20423129932002e-05
1.16851980309529e-05
1.13474023930265e-05
1.1027402115658e-05
1.07237128090633e-05
1.04350461650957e-05
1.01601387363978e-05
9.89790893092367e-06
9.64728627960498e-06
9.40736888962553e-06
9.17725321489325e-06
8.95619216834686e-06
8.74342542445913e-06
8.53833815359056e-06
8.34029185647667e-06
8.1487837976263e-06
7.96327836360915e-06
7.78336707721207e-06
7.60860055515498e-06
7.43864907493985e-06
7.27313506046368e-06
7.11179410440674e-06
6.95430800793428e-06
6.80046627636102e-06
6.64999953003554e-06
6.502741475252e-06
6.35846267768358e-06
6.21703292571598e-06
6.07825528441161e-06
5.94202886979695e-06
5.80818310695127e-06
5.67664083247198e-06
5.54725281371541e-06
5.41996102697898e-06
5.29463344214929e-06
5.17122746314152e-06
5.04962491733812e-06
4.9297956433093e-06
4.81163259393923e-06
4.69511564660977e-06
4.58014675337411e-06
4.46671386207859e-06
4.35472620338455e-06
4.24417826394552e-06
4.13498517698857e-06
4.02714676747371e-06
3.92058297229709e-06
3.81529800049712e-06
3.71121574453122e-06
3.60834399358674e-06
3.50660994662999e-06
3.40602440073526e-06
3.30651729409121e-06
3.20810196544198e-06
3.11071066849302e-06
3.01435890240075e-06
2.91898090772287e-06
2.82459405631614e-06
2.73113430172457e-06
2.63862061597138e-06
2.54699047763259e-06
2.45626430237685e-06
2.36638087299687e-06
2.27736188051294e-06
2.18914731334128e-06
2.10175998345906e-06
2.01514095931306e-06
1.92931409810145e-06
1.84422142095059e-06
1.75988772601196e-06
1.6762559468252e-06
1.59335172393595e-06
1.51111880445879e-06
1.42958365843033e-06
1.34869074793822e-06
1.2684672836767e-06
1.18885846480388e-06
1.10989215099105e-06
1.0315141969364e-06
9.5375311789353e-07
8.76555345159234e-07
7.99950011331543e-07
7.23884123408414e-07
6.48387344126461e-07
5.73407254965357e-07
4.98973986694568e-07
4.2503562458737e-07
3.51622840585933e-07
2.7868415231233e-07
2.06250690543532e-07
1.34271428430747e-07
6.27778985912999e-08
-8.28049370709308e-09
-7.88717832629463e-08
-1.49046205507715e-07
-2.18771412591483e-07
-2.88097265834272e-07
-3.56991043816608e-07
-4.2550226902809e-07
-4.93597897580116e-07
-5.6132709623701e-07
-6.28656513865849e-07
-6.9563501066656e-07
-7.62228914096424e-07
-8.28486796288294e-07
-8.94374701732608e-07
-9.59940922318789e-07
-1.02515121013906e-06
-1.09005363378381e-06
-1.15461367538686e-06
-1.21887911862052e-06
-1.282815230403e-06
-1.34646954399933e-06
-1.40980708558136e-06
-1.47287520232266e-06
-1.53563866186123e-06
-1.59814461448008e-06
-1.66035762789697e-06
-1.72232463310719e-06
-1.78401000638221e-06
-1.84546049899332e-06
-1.90664029707959e-06
-1.96759596553572e-06
-2.0282915088467e-06
-2.08877332649531e-06
-2.14900525668202e-06
-2.20903354565471e-06
-2.26882184895995e-06
-2.32841627355646e-06
-2.38778031627329e-06
-2.44695993934657e-06
-2.50591850861113e-06
-2.5647018287807e-06
-2.62327311931249e-06
-2.6816780614404e-06
-2.7398797663379e-06
-2.79792374886083e-06
-2.8557730134803e-06
-2.91347297717395e-06
-2.97098648057158e-06
-3.02835885621312e-06
-3.08555284057154e-06
-3.14261362615024e-06
-3.19950385940194e-06
-3.25626862510169e-06
-3.31287047587752e-06
-3.36935439325797e-06
-3.42568281926587e-06
-3.48190066382342e-06
-3.53797025826906e-06
-3.59393645018372e-06
-3.64976144218186e-06
-3.70549003263957e-06
-3.7610843271137e-06
-3.81658901662033e-06
-3.87196619413799e-06
-3.92726041730457e-06
-3.98243370225759e-06
-4.03753057748863e-06
-4.09251295537877e-06
-4.14742529324342e-06
-4.20222944143404e-06
-4.25696980071787e-06
-4.31160814656953e-06
-4.36618881516187e-06
-4.42067352849823e-06
-4.47510656786416e-06
-4.52944957912943e-06
-4.58374678603591e-06
-4.63795980232126e-06
-4.6921327957903e-06
-4.74622730240139e-06
-4.80028744702043e-06
-4.85427473536252e-06
-4.90823323232525e-06
-4.96212438474418e-06
-5.01599223344154e-06
-5.06979815884243e-06
-5.12358617877866e-06
-5.17731761634688e-06
-5.2310364454439e-06
-5.2847039683426e-06
-5.33836410577784e-06
-5.39197811461254e-06
-5.44558990084546e-06
-5.49916066837561e-06
-5.55273427543336e-06
-5.60627193254649e-06
-5.65981743519187e-06
-5.7133319521398e-06
-5.76685926226754e-06
-5.82036051436154e-06
-5.87387945155248e-06
-5.9273771566891e-06
-5.98089739225327e-06
-6.03440121599143e-06
-6.08793231437676e-06
-6.14145175832688e-06
-6.19500320096078e-06
-6.24854768054873e-06
-6.30212885153705e-06
-6.35570770067752e-06
-6.409327867173e-06
-6.46295031495411e-06
-6.51661867848994e-06
-6.57029389222729e-06
-6.62401958403708e-06
-6.67775663976666e-06
-6.73154869808274e-06
-6.78535665245602e-06
-6.83922409369427e-06
-6.89311190802695e-06
-6.9470636829473e-06
-7.00104030658085e-06
-7.05508536095811e-06
-7.10915971920808e-06
-7.16330697287106e-06
-7.21748799832611e-06
-7.27174641032991e-06
-7.32604307141866e-06
-7.38042160762027e-06
-7.43484291816957e-06
-7.48935062115348e-06
-7.54390567528767e-06
-7.59855173072217e-06
-7.65324976097233e-06
-7.70804345140204e-06
-7.76289383822412e-06
-7.81784465799456e-06
-7.8728569819512e-06
-7.92797465776923e-06
-7.98315879314756e-06
-8.03845330825822e-06
-8.09381940249783e-06
-8.14930110400764e-06
-8.20485969971049e-06
-8.26053930655462e-06
-8.31630135373997e-06
-8.37219004941554e-06
-8.42816695425365e-06
-8.48427640258655e-06
-8.54048009239328e-06
-8.59682253660233e-06
-8.65326553376579e-06
-8.70985375290026e-06
-8.76654916432986e-06
-8.82339659638128e-06
-8.88035817264142e-06
-8.9374788812879e-06
-8.99472102535379e-06
-9.0521297243359e-06
-9.10966746030612e-06
-9.16737954047363e-06
-9.22522854234209e-06
-9.28325995925293e-06
-9.34143651192994e-06
-9.39980378813919e-06
-9.45832468926841e-06
-9.51704490921545e-06
-9.5759274045785e-06
-9.63501801730115e-06
-9.69427974815119e-06
-9.75375849336688e-06
-9.81341728861908e-06
-9.87330206194721e-06
-9.93337582935524e-06
-9.99368447094404e-06
-1.00541909473097e-05
-1.01149410256791e-05
-1.017589752836e-05
-1.02371060155614e-05
-1.02985290903048e-05
-1.03602120325811e-05
-1.0422117084922e-05
-1.04842891363206e-05
-1.05466899847403e-05
-1.06093640105555e-05
-1.06722725317892e-05
-1.07354594266338e-05
-1.07988856120635e-05
-1.08625948121741e-05
-1.09265481556954e-05
-1.0990790311099e-05
-1.10552847306102e-05
-1.11200795965352e-05
-1.11851500092261e-05
-1.12505360450367e-05
-1.13163409422524e-05
-1.13821465913737e-05
-1.14502632769626e-05
-1.15117763217727e-05
-1.16007459301115e-05
-1.16031595487085e-05
-1.18694914116609e-05
-1.14489201052079e-05
-1.26195054767503e-05
-1.07112938797228e-05
-1.37537684682174e-05
-1.07917244578339e-05
-1.13959800766771e-05
-1.21041296300707e-05
-1.21041296300707e-05
-0.0957225669313179
0.0957225669313179
0.0135193413265927
0.00440891438898924
0.00248038187194915
0.00173401243677101
0.00135985453306266
0.00113490067679887
0.000966136096235195
0.00082289456925601
0.000706558327331259
0.000622712655584058
0.000568605892803779
0.000535508770711934
0.000514750002223874
0.000500553502173536
0.000489758540095162
0.000480666750401142
0.000472260360183289
0.000463895483791812
0.000455204801475151
0.000446034247328458
0.000436369341093797
0.000426268104528358
0.000415812944919314
0.000405085567345345
0.00039415633749937
0.000383083393854821
0.000371914000613956
0.00036068786170334
0.000349438841898127
0.000338197258762526
0.000326990368132277
0.0003158436389492
0.000304780521008569
0.000293823257239564
0.00028299237084145
0.000272307317233112
0.000261785884933335
0.000251444806232538
0.000241299141859647
0.000231362890653142
0.000221648380404193
0.000212166888162439
0.000202928042960941
0.00019394045905052
0.000185211151046263
0.00017674617912032
0.00016855007525536
0.000160626498814595
0.000152977671800872
0.0001456050428631
0.000138508729479706
0.000131688188174944
0.000125141661586377
0.000118866852720559
0.000112860374779271
0.000107118427527564
0.000101636247905862
9.64087866095045e-05
9.14301576836044e-05
8.66943136713597e-05
8.21944926422698e-05
7.79238904419364e-05
7.38751039302343e-05
7.00407990453226e-05
6.64131492504688e-05
6.29844985966965e-05
5.97467945115139e-05
5.66922452885191e-05
5.38127467085644e-05
5.11005336224073e-05
4.85476001546709e-05
4.61463452305799e-05
4.38889864446807e-05
4.17681995155377e-05
3.97765260660723e-05
3.790700729546e-05
3.61525860057543e-05
3.45067349172464e-05
3.29628533845109e-05
3.15148909123185e-05
3.01567391472973e-05
2.88828511471369e-05
2.76876292631178e-05
2.65660408415507e-05
2.55130026146228e-05
2.45239934337457e-05
2.35944358500205e-05
2.2720306488254e-05
2.18975154159877e-05
2.11225147452936e-05
2.03916763665254e-05
1.97018992900437e-05
1.90499862266028e-05
1.84332501692059e-05
1.78488902729619e-05
1.72945980765712e-05
1.67679330120204e-05
1.62669286298409e-05
1.5789468030441e-05
1.53338903818587e-05
1.48983665203405e-05
1.44815058991851e-05
1.4081732583363e-05
1.36978928229762e-05
1.33286315133782e-05
1.29730004500463e-05
1.26298354440588e-05
1.22983652600598e-05
1.19775893529874e-05
1.16668876283158e-05
1.13653987974498e-05
1.10726308919185e-05
1.07878402597769e-05
1.05106427897678e-05
1.02403934945065e-05
9.97679853061795e-06
9.71929519896606e-06
9.46766468644134e-06
9.22141251599505e-06
8.98038196346288e-06
8.74413485963375e-06
8.51256553898042e-06
8.28528210831864e-06
8.06222077748e-06
7.84302752173622e-06
7.62767280176106e-06
7.41583348902992e-06
7.20750796695885e-06
7.00239824569555e-06
6.80052549595005e-06
6.60161219305175e-06
6.40569801717491e-06
6.21252214381064e-06
6.0221393244656e-06
5.83430236965018e-06
5.6490783571278e-06
5.46623117222829e-06
5.28583805189089e-06
5.10767203694056e-06
4.93181865105347e-06
4.75805851530089e-06
4.58648406774652e-06
4.41688219474861e-06
4.24935113280673e-06
4.08368302701033e-06
3.91998100637553e-06
3.75804167080852e-06
3.59797229019244e-06
3.43957329975756e-06
3.28295553792545e-06
3.12792273141398e-06
2.97458883626465e-06
2.82276043849416e-06
2.6725542229001e-06
2.52377934300297e-06
2.37655487053965e-06
2.23069222121061e-06
2.08631263783676e-06
1.9432295481721e-06
1.80156616012922e-06
1.66113771611665e-06
1.52206921685842e-06
1.38417755121258e-06
1.24758933783213e-06
1.11212301371003e-06
9.77906653952059e-07
8.44760115862669e-07
7.12812853710671e-07
5.81886007359837e-07
4.52110310366563e-07
3.2330811130712e-07
1.95611303001239e-07
6.88433504185421e-08
-5.68627206483783e-08
-1.81682413637468e-07
-3.05481683161915e-07
-4.28435068918222e-07
-5.5040754242938e-07
-6.71572750265127e-07
-7.91794753707723e-07
-9.11246333998043e-07
-1.02979073292263e-06
-1.14759990552708e-06
-1.26453632669167e-06
-1.38077117138713e-06
-1.49616618692985e-06
-1.61089185130835e-06
-1.72480916116941e-06
-1.83808799126861e-06
-1.95058864311404e-06
-2.06248037111689e-06
-2.17362286887929e-06
-2.28418479066296e-06
-2.39402524519266e-06
-2.50331232750207e-06
-2.61190460348841e-06
-2.71996963708668e-06
-2.82736546270002e-06
-2.93425915659559e-06
-3.04050825975752e-06
-3.14627935807217e-06
-3.25142952840721e-06
-3.356124930068e-06
-3.46022216241858e-06
-3.56388699526824e-06
-3.6669755500753e-06
-3.76965321288957e-06
-3.87177574182879e-06
-3.97350810126768e-06
-4.07470567216117e-06
-4.17553307379462e-06
-4.27584530612852e-06
-4.37580667262708e-06
-4.47527181503554e-06
-4.5744047304855e-06
-4.67305974231205e-06
-4.77140053090421e-06
-4.86928111352528e-06
-4.96686492250039e-06
-5.0640056574329e-06
-5.16086646528631e-06
-5.25730079861575e-06
-5.35347155717179e-06
-5.44923191057291e-06
-5.54474451874198e-06
-5.63986228862252e-06
-5.734747670523e-06
-5.82925334993164e-06
-5.9235415256981e-06
-6.0174646423094e-06
-6.11118473260628e-06
-6.20455401275231e-06
-6.2977342898067e-06
-6.39057758639264e-06
-6.48324554769203e-06
-6.5755899812421e-06
-6.66777234510029e-06
-6.75964427395964e-06
-6.85136705746747e-06
-6.94279212367893e-06
-7.0340806474766e-06
-7.12508385097311e-06
-7.21596276204678e-06
-7.30656847203758e-06
-7.39706184004392e-06
-7.48729379736613e-06
-7.57742506372052e-06
-7.66730644636458e-06
-7.7570985487202e-06
-7.84665200090652e-06
-7.93612729125546e-06
-8.025374944275e-06
-8.11455530031449e-06
-8.20351875926722e-06
-8.2924255752621e-06
-8.3811260193209e-06
-8.46978023935234e-06
-8.55823839371063e-06
-8.64666053780088e-06
-8.7348967019208e-06
-8.82310685466235e-06
-8.91114093975689e-06
-8.99915883678692e-06
-9.0870103865984e-06
-9.17485538106997e-06
-9.26254354481927e-06
-9.350234630118e-06
-9.43777827899025e-06
-9.52533414223393e-06
-9.61275178523686e-06
-9.7001907960355e-06
-9.78750066935304e-06
-9.8748409141479e-06
-9.96206092840713e-06
-1.00493202026892e-05
-1.01364680515047e-05
-1.02236639036356e-05
-1.03107570018033e-05
-1.03979067215945e-05
-1.04849622670005e-05
-1.05720829374909e-05
-1.06591178712331e-05
-1.07462263414789e-05
-1.08332574351945e-05
-1.09203703693372e-05
-1.10074141589161e-05
-1.10945480122958e-05
-1.11816208897171e-05
-1.12687919592161e-05
-1.13559101250585e-05
-1.14431345175327e-05
-1.15303140185789e-05
-1.16176077307868e-05
-1.17048644610429e-05
-1.17922433161585e-05
-1.18795930570262e-05
-1.19670727593553e-05
-1.20545311507433e-05
-1.21421272870698e-05
-1.22297098675441e-05
-1.23174379396987e-05
-1.24051601519739e-05
-1.24930355521802e-05
-1.25809127594994e-05
-1.26689508110696e-05
-1.27569983251469e-05
-1.28452143169893e-05
-1.29334473740631e-05
-1.30218565358146e-05
-1.31102903665533e-05
-1.31989079279915e-05
-1.32875577865136e-05
-1.33763989987033e-05
-1.3465280125516e-05
-1.35543602670528e-05
-1.36434879845232e-05
-1.37328224151291e-05
-1.3822212148587e-05
-1.39118163465587e-05
-1.40014836403754e-05
-1.40913732451255e-05
-1.41813338276283e-05
-1.42715246774142e-05
-1.43617945247857e-05
-1.44523027257036e-05
-1.45428980781731e-05
-1.46337400539414e-05
-1.47246775304067e-05
-1.48158700820893e-05
-1.49071666981084e-05
-1.49987270773667e-05
-1.50904003306501e-05
-1.51823463033806e-05
-1.52744142602124e-05
-1.53667641693055e-05
-1.54592454846771e-05
-1.55520183598145e-05
-1.5644932399776e-05
-1.57381479693475e-05
-1.58315148436035e-05
-1.59251936175313e-05
-1.6019034278228e-05
-1.61131976430741e-05
-1.62075339005836e-05
-1.63022041106237e-05
-1.63970587198097e-05
-1.6492259010634e-05
-1.65876556753659e-05
-1.66834102924187e-05
-1.67793737650054e-05
-1.68757079592472e-05
-1.69722640390387e-05
-1.70692041569566e-05
-1.7166379740602e-05
-1.72639532384544e-05
-1.73617763377949e-05
-1.74600117996711e-05
-1.75585115592584e-05
-1.76574386554998e-05
-1.77566453105142e-05
-1.78562948139307e-05
-1.79562395976846e-05
-1.80566431781842e-05
-1.81573581418439e-05
-1.82585480946241e-05
-1.83600656911431e-05
-1.84620744907736e-05
-1.85644269977373e-05
-1.86672864987094e-05
-1.8770505110657e-05
-1.88742456279876e-05
-1.89783594908363e-05
-1.90830087344909e-05
-1.91880440592218e-05
-1.9293626893945e-05
-1.93996076757148e-05
-1.95061484719336e-05
-1.96131019061917e-05
-1.97206348783601e-05
-1.98286100147612e-05
-1.99372092560397e-05
-2.00463385043542e-05
-2.01561598820174e-05
-2.0267019614416e-05
-2.03775490522632e-05
-2.04956241528642e-05
-2.05907989555348e-05
-2.07806906028476e-05
-2.06687291539972e-05
-2.1485479020845e-05
-1.98619526621644e-05
-2.39528989845571e-05
-1.68610993937421e-05
-2.79945588938615e-05
-1.66512995793278e-05
-1.9890125320694e-05
-2.15095196755642e-05
-2.15095196755642e-05
-0.12581802418531
0.12581802418531
0.0255224366465434
0.00896523018615701
0.00486863447865634
0.00323749404918107
0.00241362965793039
0.00191558609727414
0.00154184999558529
0.00122739996814998
0.000975472860704962
0.000797004099982962
0.000684771754135599
0.000619223441788782
0.000581379528926195
0.000558625871906372
0.000543969866906579
0.00053357219809344
0.000525103969045232
0.000517094182286474
0.00050870321231486
0.000499566447543264
0.000489623342910139
0.000478968376040815
0.000467747056802762
0.000456102803706853
0.000444154907352571
0.000431997097713023
0.000419700667910197
0.000407321659114757
0.00039490459092508
0.000382487403084298
0.000370102540189654
0.000357779729562254
0.000345545539475329
0.000333425168850258
0.000321441399655852
0.00030961603321412
0.000297968644352481
0.000286517913942713
0.000275280332568853
0.000264271514172584
0.000253504896960471
0.000242993063949711
0.000232746454204975
0.000222774696698712
0.000213085334094049
0.000203685169852882
0.000194579003821446
0.000185770990623662
0.000177263384906281
0.000169057908907005
0.000161154504896446
0.000153552709551881
0.00014625041118164
0.000139245228418166
0.000132533270086675
0.000126110515966879
0.00011997157696457
0.000114111076025818
0.000108522406702985
0.000103199112211811
9.81336409411963e-05
9.33187219787807e-05
8.87461160991908e-05
8.44079866823581e-05
8.02956449968277e-05
7.64009155722676e-05
7.27148749761218e-05
6.92292110443259e-05
6.59349546983313e-05
6.28238326477936e-05
5.98869920247317e-05
5.71163464524134e-05
5.45032936447711e-05
5.20400549648315e-05
4.97183861273707e-05
4.75309106645891e-05
4.54698241768887e-05
4.35282221551299e-05
4.16987983758271e-05
3.99751676009729e-05
3.83505587890109e-05
3.68191333819861e-05
3.53746739537969e-05
3.40118988192087e-05
3.27251468315636e-05
3.15096889813093e-05
3.03604100714262e-05
2.92731179454067e-05
2.8243222721524e-05
2.72670442831759e-05
2.63404896735721e-05
2.54603593742595e-05
2.46230234805465e-05
2.38257272472454e-05
2.30652664395602e-05