# vtk DataFile Version 2.0
FlowField
ASCII
DATASET STRUCTURED_GRID
DIMENSIONS 400 1 200
POINTS 80000 float
0 0 0
0.08 0 0
0.16 0 0
0.24 0 0
0.32 0 0
0.4 0 0
0.48 0 0
0.56 0 0
0.64 0 0
0.72 0 0
0.8 0 0
0.88 0 0
0.96 0 0
1.04 0 0
1.12 0 0
1.2 0 0
1.28 0 0
1.36 0 0
1.44 0 0
1.52 0 0
1.6 0 0
1.68 0 0
1.76 0 0
1.84 0 0
1.92 0 0
2 0 0
2.08 0 0
2.16 0 0
2.24 0 0
2.32 0 0
2.4 0 0
2.48 0 0
2.56 0 0
2.64 0 0
2.72 0 0
2.8 0 0
2.88 0 0
2.96 0 0
3.04 0 0
3.12 0 0
3.2 0 0
3.28 0 0
3.36 0 0
3.44 0 0
3.52 0 0
3.6 0 0
3.68 0 0
3.76 0 0
3.84 0 0
3.92 0 0
4 0 0
4.08 0 0
4.16 0 0
4.24 0 0
4.32 0 0
4.4 0 0
4.48 0 0
4.56 0 0
4.64 0 0
4.72 0 0
4.8 0 0
4.88 0 0
4.96 0 0
5.04 0 0
5.12 0 0
5.2 0 0
5.28 0 0
5.36 0 0
5.44 0 0
5.52 0 0
5.6 0 0
5.68 0 0
5.76 0 0
5.84 0 0
5.92 0 0
6 0 0
6.08 0 0
6.16 0 0
6.24 0 0
6.32 0 0
6.4 0 0
6.48 0 0
6.56 0 0
6.64 0 0
6.72 0 0
6.8 0 0
6.88 0 0
6.96 0 0
7.04 0 0
7.12 0 0
7.2 0 0
7.28 0 0
7.36 0 0
7.44 0 0
7.52 0 0
7.6 0 0
7.68 0 0
7.76 0 0
7.84 0 0
7.92 0 0
8 0 0
8.08 0 0
8.16 0 0
8.24 0 0
8.32 0 0
8.4 0 0
8.48 0 0
8.56 0 0
8.64 0 0
8.72 0 0
8.8 0 0
8.88 0 0
8.96 0 0
9.04 0 0
9.12 0 0
9.2 0 0
9.28 0 0
9.36 0 0
9.44 0 0
9.52 0 0
9.6 0 0
9.68 0 0
9.76 0 0
9.84 0 0
9.92 0 0
10 0 0
10.08 0 0
10.16 0 0
10.24 0 0
10.32 0 0
10.4 0 0
10.48 0 0
10.56 0 0
10.64 0 0
10.72 0 0
10.8 0 0
10.88 0 0
10.96 0 0
11.04 0 0
11.12 0 0
11.2 0 0
11.28 0 0
11.36 0 0
11.44 0 0
11.52 0 0
11.6 0 0
11.68 0 0
11.76 0 0
11.84 0 0
11.92 0 0
12 0 0
12.08 0 0
12.16 0 0
12.24 0 0
12.32 0 0
12.4 0 0
12.48 0 0
12.56 0 0
12.64 0 0
12.72 0 0
12.8 0 0
12.88 0 0
12.96 0 0
13.04 0 0
13.12 0 0
13.2 0 0
13.28 0 0
13.36 0 0
13.44 0 0
13.52 0 0
13.6 0 0
13.68 0 0
13.76 0 0
13.84 0 0
13.92 0 0
14 0 0
14.08 0 0
14.16 0 0
14.24 0 0
14.32 0 0
14.4 0 0
14.48 0 0
14.56 0 0
14.64 0 0
14.72 0 0
14.8 0 0
14.88 0 0
14.96 0 0
15.04 0 0
15.12 0 0
15.2 0 0
15.28 0 0
15.36 0 0
15.44 0 0
15.52 0 0
15.6 0 0
15.68 0 0
15.76 0 0
15.84 0 0
15.92 0 0
16 0 0
16.08 0 0
16.16 0 0
16.24 0 0
16.32 0 0
16.4 0 0
16.48 0 0
16.56 0 0
16.64 0 0
16.72 0 0
16.8 0 0
16.88 0 0
16.96 0 0
17.04 0 0
17.12 0 0
17.2 0 0
17.28 0 0
17.36 0 0
17.44 0 0
17.52 0 0
17.6 0 0
17.68 0 0
17.76 0 0
17.84 0 0
17.92 0 0
18 0 0
18.08 0 0
18.16 0 0
18.24 0 0
18.32 0 0
18.4 0 0
18.48 0 0
18.56 0 0
18.64 0 0
18.72 0 0
18.8 0 0
18.88 0 0
18.96 0 0
19.04 0 0
19.12 0 0
19.2 0 0
19.28 0 0
19.36 0 0
19.44 0 0
19.52 0 0
19.6 0 0
19.68 0 0
19.76 0 0
19.84 0 0
19.92 0 0
20 0 0
20.08 0 0
20.16 0 0
20.24 0 0
20.32 0 0
20.4 0 0
20.48 0 0
20.56 0 0
20.64 0 0
20.72 0 0
20.8 0 0
20.88 0 0
20.96 0 0
21.04 0 0
21.12 0 0
21.2 0 0
21.28 0 0
21.36 0 0
21.44 0 0
21.52 0 0
21.6 0 0
21.68 0 0
21.76 0 0
21.84 0 0
21.92 0 0
22 0 0
22.08 0 0
22.16 0 0
22.24 0 0
22.32 0 0
22.4 0 0
22.48 0 0
22.56 0 0
22.64 0 0
22.72 0 0
22.8 0 0
22.88 0 0
22.96 0 0
23.04 0 0
23.12 0 0
23.2 0 0
23.28 0 0
23.36 0 0
23.44 0 0
23.52 0 0
23.6 0 0
23.68 0 0
23.76 0 0
23.84 0 0
23.92 0 0
24 0 0
24.08 0 0
24.16 0 0
24.24 0 0
24.32 0 0
24.4 0 0
24.48 0 0
24.56 0 0
24.64 0 0
24.72 0 0
24.8 0 0
24.88 0 0
24.96 0 0
25.04 0 0
25.12 0 0
25.2 0 0
25.28 0 0
25.36 0 0
25.44 0 0
25.52 0 0
25.6 0 0
25.68 0 0
25.76 0 0
25.84 0 0
25.92 0 0
26 0 0
26.08 0 0
26.16 0 0
26.24 0 0
26.32 0 0
26.4 0 0
26.48 0 0
26.56 0 0
26.64 0 0
26.72 0 0
26.8 0 0
26.88 0 0
26.96 0 0
27.04 0 0
27.12 0 0
27.2 0 0
27.28 0 0
27.36 0 0
27.44 0 0
27.52 0 0
27.6 0 0
27.68 0 0
27.76 0 0
27.84 0 0
27.92 0 0
28 0 0
28.08 0 0
28.16 0 0
28.24 0 0
28.32 0 0
28.4 0 0
28.48 0 0
28.56 0 0
28.64 0 0
28.72 0 0
28.8 0 0
28.88 0 0
28.96 0 0
29.04 0 0
29.12 0 0
29.2 0 0
29.28 0 0
29.36 0 0
29.44 0 0
29.52 0 0
29.6 0 0
29.68 0 0
29.76 0 0
29.84 0 0
29.92 0 0
30 0 0
30.08 0 0
30.16 0 0
30.24 0 0
30.32 0 0
30.4 0 0
30.48 0 0
30.56 0 0
30.64 0 0
30.72 0 0
30.8 0 0
30.88 0 0
30.96 0 0
31.04 0 0
31.12 0 0
31.2 0 0
31.28 0 0
31.36 0 0
31.44 0 0
31.52 0 0
31.6 0 0
31.68 0 0
31.76 0 0
31.84 0 0
31.92 0 0
0 0.005 0
0.08 0.005 0
0.16 0.005 0
0.24 0.005 0
0.32 0.005 0
0.4 0.005 0
0.48 0.005 0
0.56 0.005 0
0.64 0.005 0
0.72 0.005 0
0.8 0.005 0
0.88 0.005 0
0.96 0.005 0
1.04 0.005 0
1.12 0.005 0
1.2 0.005 0
1.28 0.005 0
1.36 0.005 0
1.44 0.005 0
1.52 0.005 0
1.6 0.005 0
1.68 0.005 0
1.76 0.005 0
1.84 0.005 0
1.92 0.005 0
2 0.005 0
2.08 0.005 0
2.16 0.005 0
2.24 0.005 0
2.32 0.005 0
2.4 0.005 0
2.48 0.005 0
2.56 0.005 0
2.64 0.005 0
2.72 0.005 0
2.8 0.005 0
2.88 0.005 0
2.96 0.005 0
3.04 0.005 0
3.12 0.005 0
3.2 0.005 0
3.28 0.005 0
3.36 0.005 0
3.44 0.005 0
3.52 0.005 0
3.6 0.005 0
3.68 0.005 0
3.76 0.005 0
3.84 0.005 0
3.92 0.005 0
4 0.005 0
4.08 0.005 0
4.16 0.005 0
4.24 0.005 0
4.32 0.005 0
4.4 0.005 0
4.48 0.005 0
4.56 0.005 0
4.64 0.005 0
4.72 0.005 0
4.8 0.005 0
4.88 0.005 0
4.96 0.005 0
5.04 0.005 0
5.12 0.005 0
5.2 0.005 0
5.28 0.005 0
5.36 0.005 0
5.44 0.005 0
5.52 0.005 0
5.6 0.005 0
5.68 0.005 0
5.76 0.005 0
5.84 0.005 0
5.92 0.005 0
6 0.005 0
6.08 0.005 0
6.16 0.005 0
6.24 0.005 0
6.32 0.005 0
6.4 0.005 0
6.48 0.005 0
6.56 0.005 0
6.64 0.005 0
6.72 0.005 0
6.8 0.005 0
6.88 0.005 0
6.96 0.005 0
7.04 0.005 0
7.12 0.005 0
7.2 0.005 0
7.28 0.005 0
7.36 0.005 0
7.44 0.005 0
7.52 0.005 0
7.6 0.005 0
7.68 0.005 0
7.76 0.005 0
7.84 0.005 0
7.92 0.005 0
8 0.005 0
8.08 0.005 0
8.16 0.005 0
8.24 0.005 0
8.32 0.005 0
8.4 0.005 0
8.48 0.005 0
8.56 0.005 0
8.64 0.005 0
8.72 0.005 0
8.8 0.005 0
8.88 0.005 0
8.96 0.005 0
9.04 0.005 0
9.12 0.005 0
9.2 0.005 0
9.28 0.005 0
9.36 0.005 0
9.44 0.005 0
9.52 0.005 0
9.6 0.005 0
9.68 0.005 0
9.76 0.005 0
9.84 0.005 0
9.92 0.005 0
10 0.005 0
10.08 0.005 0
10.16 0.005 0
10.24 0.005 0
10.32 0.005 0
10.4 0.005 0
10.48 0.005 0
10.56 0.005 0
10.64 0.005 0
10.72 0.005 0
10.8 0.005 0
10.88 0.005 0
10.96 0.005 0
11.04 0.005 0
11.12 0.005 0
11.2 0.005 0
11.28 0.005 0
11.36 0.005 0
11.44 0.005 0
11.52 0.005 0
11.6 0.005 0
11.68 0.005 0
11.76 0.005 0
11.84 0.005 0
11.92 0.005 0
12 0.005 0
12.08 0.005 0
12.16 0.005 0
12.24 0.005 0
12.32 0.005 0
12.4 0.005 0
12.48 0.005 0
12.56 0.005 0
12.64 0.005 0
12.72 0.005 0
12.8 0.005 0
12.88 0.005 0
12.96 0.005 0
13.04 0.005 0
13.12 0.005 0
13.2 0.005 0
13.28 0.005 0
13.36 0.005 0
13.44 0.005 0
13.52 0.005 0
13.6 0.005 0
13.68 0.005 0
13.76 0.005 0
13.84 0.005 0
13.92 0.005 0
14 0.005 0
14.08 0.005 0
14.16 0.005 0
14.24 0.005 0
14.32 0.005 0
14.4 0.005 0
14.48 0.005 0
14.56 0.005 0
14.64 0.005 0
14.72 0.005 0
14.8 0.005 0
14.88 0.005 0
14.96 0.005 0
15.04 0.005 0
15.12 0.005 0
15.2 0.005 0
15.28 0.005 0
15.36 0.005 0
15.44 0.005 0
15.52 0.005 0
15.6 0.005 0
15.68 0.005 0
15.76 0.005 0
15.84 0.005 0
15.92 0.005 0
16 0.005 0
16.08 0.005 0
16.16 0.005 0
16.24 0.005 0
16.32 0.005 0
16.4 0.005 0
16.48 0.005 0
16.56 0.005 0
16.64 0.005 0
16.72 0.005 0
16.8 0.005 0
16.88 0.005 0
16.96 0.005 0
17.04 0.005 0
17.12 0.005 0
17.2 0.005 0
17.28 0.005 0
17.36 0.005 0
17.44 0.005 0
17.52 0.005 0
17.6 0.005 0
17.68 0.005 0
17.76 0.005 0
17.84 0.005 0
17.92 0.005 0
18 0.005 0
18.08 0.005 0
18.16 0.005 0
18.24 0.005 0
18.32 0.005 0
18.4 0.005 0
18.48 0.005 0
18.56 0.005 0
18.64 0.005 0
18.72 0.005 0
18.8 0.005 0
18.88 0.005 0
18.96 0.005 0
19.04 0.005 0
19.12 0.005 0
19.2 0.005 0
19.28 0.005 0
19.36 0.005 0
19.44 0.005 0
19.52 0.005 0
19.6 0.005 0
19.68 0.005 0
19.76 0.005 0
19.84 0.005 0
19.92 0.005 0
20 0.005 0
20.08 0.005 0
20.16 0.005 0
20.24 0.005 0
20.32 0.005 0
20.4 0.005 0
20.48 0.005 0
20.56 0.005 0
20.64 0.005 0
20.72 0.005 0
20.8 0.005 0
20.88 0.005 0
20.96 0.005 0
21.04 0.005 0
21.12 0.005 0
21.2 0.005 0
21.28 0.005 0
21.36 0.005 0
21.44 0.005 0
21.52 0.005 0
21.6 0.005 0
21.68 0.005 0
21.76 0.005 0
21.84 0.005 0
21.92 0.005 0
22 0.005 0
22.08 0.005 0
22.16 0.005 0
22.24 0.005 0
22.32 0.005 0
22.4 0.005 0
22.48 0.005 0
22.56 0.005 0
22.64 0.005 0
22.72 0.005 0
22.8 0.005 0
22.88 0.005 0
22.96 0.005 0
23.04 0.005 0
23.12 0.005 0
23.2 0.005 0
23.28 0.005 0
23.36 0.005 0
23.44 0.005 0
23.52 0.005 0
23.6 0.005 0
23.68 0.005 0
23.76 0.005 0
23.84 0.005 0
23.92 0.005 0
24 0.005 0
24.08 0.005 0
24.16 0.005 0
24.24 0.005 0
24.32 0.005 0
24.4 0.005 0
24.48 0.005 0
24.56 0.005 0
24.64 0.005 0
24.72 0.005 0
24.8 0.005 0
24.88 0.005 0
24.96 0.005 0
25.04 0.005 0
25.12 0.005 0
25.2 0.005 0
25.28 0.005 0
25.36 0.005 0
25.44 0.005 0
25.52 0.005 0
25.6 0.005 0
25.68 0.005 0
25.76 0.005 0
25.84 0.005 0
25.92 0.005 0
26 0.005 0
26.08 0.005 0
26.16 0.005 0
26.24 0.005 0
26.32 0.005 0
26.4 0.005 0
26.48 0.005 0
26.56 0.005 0
26.64 0.005 0
26.72 0.005 0
26.8 0.005 0
26.88 0.005 0
26.96 0.005 0
27.04 0.005 0
27.12 0.005 0
27.2 0.005 0
27.28 0.005 0
27.36 0.005 0
27.44 0.005 0
27.52 0.005 0
27.6 0.005 0
27.68 0.005 0
27.76 0.005 0
27.84 0.005 0
27.92 0.005 0
28 0.005 0
28.08 0.005 0
28.16 0.005 0
28.24 0.005 0
28.32 0.005 0
28.4 0.005 0
28.48 0.005 0
28.56 0.005 0
28.64 0.005 0
28.72 0.005 0
28.8 0.005 0
28.88 0.005 0
28.96 0.005 0
29.04 0.005 0
29.12 0.005 0
29.2 0.005 0
29.28 0.005 0
29.36 0.005 0
29.44 0.005 0
29.52 0.005 0
29.6 0.005 0
29.68 0.005 0
29.76 0.005 0
29.84 0.005 0
29.92 0.005 0
30 0.005 0
30.08 0.005 0
30.16 0.005 0
30.24 0.005 0
30.32 0.005 0
30.4 0.005 0
30.48 0.005 0
30.56 0.005 0
30.64 0.005 0
30.72 0.005 0
30.8 0.005 0
30.88 0.005 0
30.96 0.005 0
31.04 0.005 0
31.12 0.005 0
31.2 0.005 0
31.28 0.005 0
31.36 0.005 0
31.44 0.005 0
31.52 0.005 0
31.6 0.005 0
31.68 0.005 0
31.76 0.005 0
31.84 0.005 0
31.92 0.005 0
0 0.01 0
0.08 0.01 0
0.16 0.01 0
0.24 0.01 0
0.32 0.01 0
0.4 0.01 0
0.48 0.01 0
0.56 0.01 0
0.64 0.01 0
0.72 0.01 0
0.8 0.01 0
0.88 0.01 0
0.96 0.01 0
1.04 0.01 0
1.12 0.01 0
1.2 0.01 0
1.28 0.01 0
1.36 0.01 0
1.44 0.01 0
1.52 0.01 0
1.6 0.01 0
1.68 0.01 0
1.76 0.01 0
1.84 0.01 0
1.92 0.01 0
2 0.01 0
2.08 0.01 0
2.16 0.01 0
2.24 0.01 0
2.32 0.01 0
2.4 0.01 0
2.48 0.01 0
2.56 0.01 0
2.64 0.01 0
2.72 0.01 0
2.8 0.01 0
2.88 0.01 0
2.96 0.01 0
3.04 0.01 0
3.12 0.01 0
3.2 0.01 0
3.28 0.01 0
3.36 0.01 0
3.44 0.01 0
3.52 0.01 0
3.6 0.01 0
3.68 0.01 0
3.76 0.01 0
3.84 0.01 0
3.92 0.01 0
4 0.01 0
4.08 0.01 0
4.16 0.01 0
4.24 0.01 0
4.32 0.01 0
4.4 0.01 0
4.48 0.01 0
4.56 0.01 0
4.64 0.01 0
4.72 0.01 0
4.8 0.01 0
4.88 0.01 0
4.96 0.01 0
5.04 0.01 0
5.12 0.01 0
[...]
POINT_DATA 80000

SCALARS p float 1
LOOKUP_TABLE default
1
56.577844586942
56.2761089891058
56.2349486884137
56.2148582197376
56.2004388005435
56.1884373602891
56.1776934668515
56.1676948655581
56.1581888050426
56.1490420383144
56.1401808547947
56.1315624780661
56.1231605173553
56.1149573079928
56.1069398264945
56.0990975208888
56.0914211807116
56.0839023699964
56.0765331599332
56.0693060155844
56.0622137570204
56.0552495523878
56.0484069212374
56.041679737898
56.0350622308106
56.0285489768208
56.0221348908604
56.0158152120116
56.0095854871195
56.0034415529876
55.9973795179793
55.9913957435667
55.9854868262353
55.9796495801191
55.9738810206708
55.9681783495068
55.9625389403188
55.9569603256597
55.9514401845825
55.9459763313267
55.9405667052312
55.9352093617815
55.9299024643273
55.9246442760681
55.9194331523282
55.9142675336035
55.9091459398084
55.9040669655758
55.8990292758281
55.8940316009034
55.8890727312685
55.8841515126852
55.8792668427638
55.874417668947
55.8696029868592
55.864821837688
55.8600733042299
55.8553565066576
55.8506705996938
55.8460147720174
55.841388246981
55.8367902825827
55.8322201691906
55.8276772254676
55.823160794719
55.8186702439634
55.8142049661342
55.8097643833995
55.8053479485874
55.800955143096
55.7965854725534
55.7922384636712
55.787913665439
55.7836106550817
55.7793290458964
55.7750684927586
55.7708286927285
55.7666093818019
55.7624103317394
55.7582313508221
55.7540722891328
55.7499330446339
55.7458135640575
55.7417138343013
55.7376338649624
55.7335736678033
55.7295332409223
55.7255125626621
55.7215115942289
55.7175302844135
55.7135685682708
55.7096263554561
55.7057035110436
55.7017998378007
55.6979150700899
55.6940488846713
55.6902009250801
55.6863708287116
55.6825582437019
55.6787628275485
55.6749842288274
55.6712220624331
55.6674758925255
55.6637452338208
55.6600295726782
55.6563283993408
55.6526412367778
55.6489676528632
55.6453072503389
55.6416596394326
55.6380244060385
55.6344010903417
55.6307891859356
55.6271881602707
55.6235974879617
55.6200166831408
55.6164453177785
55.6128830190273
55.6093294473382
55.6057842646169
55.6022471051712
55.5987175605648
55.5951951837962
55.5916795109484
55.5881700923829
55.5846665226802
55.5811684595917
55.5776756263683
55.5741877973223
55.570704771422
55.5672263416396
55.5637522681385
55.5602822614361
55.5568159784279
55.5533530306666
55.549893001605
55.5464354681317
55.5429800217296
55.5395262856771
55.5360739263055
55.53262265799
55.5291722427863
55.5257224863401
55.522273231833
55.5188243534845
55.5153757506071
55.5119273427323
55.5084790658681
55.5050308697132
55.5015827155169
55.4981345743061
55.4946864252869
55.4912382543093
55.4877900523989
55.484341814389
55.4808935377165
55.4774452214307
55.4739968654409
55.4705484699966
55.4671000353692
55.4636515617018
55.4602030489622
55.456754496972
55.4533059054563
55.4498572741054
55.4464086026236
55.442959890759
55.4395111383195
55.4360623451718
55.4326135112345
55.4291646364651
55.4257157208442
55.4222667643649
55.4188177670227
55.4153687288094
55.4119196497107
55.4084705297037
55.4050213687579
55.4015721668376
55.3981229239026
55.3946736399083
55.3912243148108
55.3877749485632
55.3843255411201
55.380876092436
55.3774266024648
55.3739770711607
55.3705274984801
55.3670778843778
55.3636282288085
55.3601785317275
55.3567287930892
55.3532790128484
55.3498291909609
55.3463793273798
55.342929422059
55.3394794749534
55.3360294860171
55.3325794552033
55.3291293824666
55.3256792677603
55.3222291110384
55.3187789122555
55.315328671364
55.3118783883185
55.3084280630727
55.3049776955814
55.3015272857967
55.2980768336734
55.2946263391649
55.2911758022254
55.2877252228087
55.2842746008688
55.2808239363592
55.2773732292334
55.2739224794456
55.2704716869498
55.2670208516991
55.2635699736482
55.2601190527496
55.2566680889581
55.2532170822268
55.2497660325099
55.2463149397608
55.2428638039325
55.2394126249798
55.2359614028562
55.2325101375149
55.2290588289096
55.2256074769944
55.2221560817223
55.218704643047
55.2152531609219
55.2118016353017
55.208350066139
55.2048984533874
55.2014467970006
55.1979950969322
55.1945433531359
55.1910915655647
55.1876397341722
55.1841878589124
55.1807359397384
55.1772839766033
55.1738319694613
55.1703799182654
55.1669278229693
55.1634756835261
55.1600234998895
55.1565712720124
55.1531189998486
55.149666683352
55.1462143224749
55.1427619171714
55.1393094673946
55.1358569730979
55.1324044342345
55.1289518507582
55.1254992226215
55.1220465497784
55.1185938321818
55.1151410697849
55.1116882625409
55.1082354104038
55.1047825133255
55.1013295712606
55.0978765841619
55.0944235519823
55.0909704746748
55.0875173521929
55.0840641844902
55.0806109715195
55.0771577132335
55.0737044095859
55.0702510605292
55.0667976660173
55.0633442260029
55.0598907404384
55.0564372092784
55.0529836324745
55.0495300099808
55.0460763417496
55.0426226277343
55.039168867888
55.0357150621636
55.0322612105142
55.0288073128924
55.0253533692512
55.0218993795433
55.0184453437229
55.0149912617427
55.011537133554
55.0080829591114
55.0046287383666
55.0011744712737
54.9977201577841
54.9942657978519
54.9908113914295
54.9873569384701
54.983902438926
54.9804478927501
54.9769932998952
54.9735386603154
54.9700839739614
54.9666292407873
54.9631744607449
54.9597196337879
54.9562647598679
54.952809838939
54.9493548709522
54.945899855863
54.9424447936204
54.938989684181
54.935534527493
54.9320793235138
54.9286240721909
54.9251687734825
54.9217134273353
54.9182580337082
54.914802592546
54.9113471038108
54.9078915674445
54.9044359834111
54.9009803516499
54.8975246721295
54.8940689447836
54.8906131695859
54.8871573464646
54.8837014753996
54.8802455563125
54.8767895891909
54.8733335739467
54.8698775105784
54.8664213989865
54.8629652391828
54.8595090310513
54.8560527746225
54.85259646976
54.8491401165171
54.8456837147304
54.8422272644856
54.8387707655826
54.8353142181468
54.831857621934
54.8284009771206
54.8249442834038
54.8214875410275
54.8180307496106
54.8145739094861
54.8111170201731
54.8076600821172
54.8042030947103
54.8007460585431
54.7972889728417
54.7938318383851
54.790374654187
54.7869174212675
54.7834601383676
54.7800028068176
54.7765454250056
54.7730879946613
54.769630513726
54.7661729844337
54.7627154041559
54.7592577757708
54.7558000959266
54.7523423683159
54.748884588678
54.7454267617212
54.7419688820534
54.7385109556459
54.7350529757109
54.7315949497635
54.7281368693264
54.7246787437576
54.7212205625955
54.7177623373225
54.7143040552498
54.7108457301548
54.7073873470604
54.7039289219206
54.7004704378474
54.6970119121804
54.6935533274679
54.6900947001982
54.6866360157527
54.6831772844567
54.6797185022943
54.6762596614747
54.6728007859528
54.669341822928
54.6658828643319
54.6624237491932
54.658964738662
54.6555053996592
54.6520464837567
54.6485867357938
54.6451296745174
0.5
56.577844586942
56.577844586942
56.2761089891058
56.2349486884137
56.2148582197376
56.2004388005435
56.1884373602891
56.1776934668515
56.1676948655581
56.1581888050426
56.1490420383144
56.1401808547947
56.1315624780661
56.1231605173553
56.1149573079928
56.1069398264945
56.0990975208888
56.0914211807116
56.0839023699964
56.0765331599332
56.0693060155844
56.0622137570204
56.0552495523878
56.0484069212374
56.041679737898
56.0350622308106
56.0285489768208
56.0221348908604
56.0158152120116
56.0095854871195
56.0034415529876
55.9973795179793
55.9913957435667
55.9854868262353
55.9796495801191
55.9738810206708
55.9681783495068
55.9625389403188
55.9569603256597
55.9514401845825
55.9459763313267
55.9405667052312
55.9352093617815
55.9299024643273
55.9246442760681
55.9194331523282
55.9142675336035
55.9091459398084
55.9040669655758
55.8990292758281
55.8940316009034
55.8890727312685
55.8841515126852
55.8792668427638
55.874417668947
55.8696029868592
55.864821837688
55.8600733042299
55.8553565066576
55.8506705996938
55.8460147720174
55.841388246981
55.8367902825827
55.8322201691906
55.8276772254676
55.823160794719
55.8186702439634
55.8142049661342
55.8097643833995
55.8053479485874
55.800955143096
55.7965854725534
55.7922384636712
55.787913665439
55.7836106550817
55.7793290458964
55.7750684927586
55.7708286927285
55.7666093818019
55.7624103317394
55.7582313508221
55.7540722891328
55.7499330446339
55.7458135640575
55.7417138343013
55.7376338649624
55.7335736678033
55.7295332409223
55.7255125626621
55.7215115942289
55.7175302844135
55.7135685682708
55.7096263554561
55.7057035110436
55.7017998378007
55.6979150700899
55.6940488846713
55.6902009250801
55.6863708287116
55.6825582437019
55.6787628275485
55.6749842288274
55.6712220624331
55.6674758925255
55.6637452338208
55.6600295726782
55.6563283993408
55.6526412367778
55.6489676528632
55.6453072503389
55.6416596394326
55.6380244060385
55.6344010903417
55.6307891859356
55.6271881602707
55.6235974879617
55.6200166831408
55.6164453177785
55.6128830190273
55.6093294473382
55.6057842646169
55.6022471051712
55.5987175605648
55.5951951837962
55.5916795109484
55.5881700923829
55.5846665226802
55.5811684595917
55.5776756263683
55.5741877973223
55.570704771422
55.5672263416396
55.5637522681385
55.5602822614361
55.5568159784279
55.5533530306666
55.549893001605
55.5464354681317
55.5429800217296
55.5395262856771
55.5360739263055
55.53262265799
55.5291722427863
55.5257224863401
55.522273231833
55.5188243534845
55.5153757506071
55.5119273427323
55.5084790658681
55.5050308697132
55.5015827155169
55.4981345743061
55.4946864252869
55.4912382543093
55.4877900523989
55.484341814389
55.4808935377165
55.4774452214307
55.4739968654409
55.4705484699966
55.4671000353692
55.4636515617018
55.4602030489622
55.456754496972
55.4533059054563
55.4498572741054
55.4464086026236
55.442959890759
55.4395111383195
55.4360623451718
55.4326135112345
55.4291646364651
55.4257157208442
55.4222667643649
55.4188177670227
55.4153687288094
55.4119196497107
55.4084705297037
55.4050213687579
55.4015721668376
55.3981229239026
55.3946736399083
55.3912243148108
55.3877749485632
55.3843255411201
55.380876092436
55.3774266024648
55.3739770711607
55.3705274984801
55.3670778843778
55.3636282288085
55.3601785317275
55.3567287930892
55.3532790128484
55.3498291909609
55.3463793273798
55.342929422059
55.3394794749534
55.3360294860171
55.3325794552033
55.3291293824666
55.3256792677603
55.3222291110384
55.3187789122555
55.315328671364
55.3118783883185
55.3084280630727
55.3049776955814
55.3015272857967
55.2980768336734
55.2946263391649
55.2911758022254
55.2877252228087
55.2842746008688
55.2808239363592
55.2773732292334
55.2739224794456
55.2704716869498
55.2670208516991
55.2635699736482
55.2601190527496
55.2566680889581
55.2532170822268
55.2497660325099
55.2463149397608
55.2428638039325
55.2394126249798
55.2359614028562
55.2325101375149
55.2290588289096
55.2256074769944
55.2221560817223
55.218704643047
55.2152531609219
55.2118016353017
55.208350066139
55.2048984533874
55.2014467970006
55.1979950969322
55.1945433531359
55.1910915655647
55.1876397341722
55.1841878589124
55.1807359397384
55.1772839766033
55.1738319694613
55.1703799182654
55.1669278229693
55.1634756835261
55.1600234998895
55.1565712720124
55.1531189998486
55.149666683352
55.1462143224749
55.1427619171714
55.1393094673946
55.1358569730979
55.1324044342345
55.1289518507582
55.1254992226215
55.1220465497784
55.1185938321818
55.1151410697849
55.1116882625409
55.1082354104038
55.1047825133255
55.1013295712606
55.0978765841619
55.0944235519823
55.0909704746748
55.0875173521929
55.0840641844902
55.0806109715195
55.0771577132335
55.0737044095859
55.0702510605292
55.0667976660173
55.0633442260029
55.0598907404384
55.0564372092784
55.0529836324745
55.0495300099808
55.0460763417496
55.0426226277343
55.039168867888
55.0357150621636
55.0322612105142
55.0288073128924
55.0253533692512
55.0218993795433
55.0184453437229
55.0149912617427
55.011537133554
55.0080829591114
55.0046287383666
55.0011744712737
54.9977201577841
54.9942657978519
54.9908113914295
54.9873569384701
54.983902438926
54.9804478927501
54.9769932998952
54.9735386603154
54.9700839739614
54.9666292407873
54.9631744607449
54.9597196337879
54.9562647598679
54.952809838939
54.9493548709522
54.945899855863
54.9424447936204
54.938989684181
54.935534527493
54.9320793235138
54.9286240721909
54.9251687734825
54.9217134273353
54.9182580337082
54.914802592546
54.9113471038108
54.9078915674445
54.9044359834111
54.9009803516499
54.8975246721295
54.8940689447836
54.8906131695859
54.8871573464646
54.8837014753996
54.8802455563125
54.8767895891909
54.8733335739467
54.8698775105784
54.8664213989865
54.8629652391828
54.8595090310513
54.8560527746225
54.85259646976
54.8491401165171
54.8456837147304
54.8422272644856
54.8387707655826
54.8353142181468
54.831857621934
54.8284009771206
54.8249442834038
54.8214875410275
54.8180307496106
54.8145739094861
54.8111170201731
54.8076600821172
54.8042030947103
54.8007460585431
54.7972889728417
54.7938318383851
54.790374654187
54.7869174212675
54.7834601383676
54.7800028068176
54.7765454250056
54.7730879946613
54.769630513726
54.7661729844337
54.7627154041559
54.7592577757708
54.7558000959266
54.7523423683159
54.748884588678
54.7454267617212
54.7419688820534
54.7385109556459
54.7350529757109
54.7315949497635
54.7281368693264
54.7246787437576
54.7212205625955
54.7177623373225
54.7143040552498
54.7108457301548
54.7073873470604
54.7039289219206
54.7004704378474
54.6970119121804
54.6935533274679
54.6900947001982
54.6866360157527
54.6831772844567
54.6797185022943
54.6762596614747
54.6728007859528
54.669341822928
54.6658828643319
54.6624237491932
54.658964738662
54.6555053996592
54.6520464837567
54.6485867357938
54.6451296745174
54.6451296745174
56.5632628111608
56.5632628111608
56.2799448435585
56.2362040816947
56.2154934370518
56.2008332916544
56.1887090310659
56.1778928919621
56.1678479847012
56.1583104811309
56.1491414381199
56.1402639322524
56.1316332522497
56.1232217853107
56.1150110669078
56.1069875351889
56.0991402673691
56.0914597924008
56.0839374878076
56.0765652889513
56.0693355603026
56.0622410462085
56.0552748568988
56.0484304669419
56.0417017152147
56.0350828018296
56.0285682807043
56.0221530479942
56.015832327241
56.0096016523032
56.0034568490375
55.9973940165086
55.9914095082348
55.9854999138575
55.9796620415897
55.9738929017342
55.9681896914063
55.9625497803466
55.9569706976284
55.9514501192321
55.9459858566736
55.9405758468682
55.9352181431341
55.9299109068785
55.9246523995596
55.9194409749414
55.9142750721174
55.909153209733
55.9040739812631
55.8990360505721
55.8940381470378
55.8890790602621
55.8841576352278
55.8792727688315
55.8744234078504
55.8696085472833
55.8648272277401
55.8600785314984
55.8553615782716
55.8506755223665
55.8460195520652
55.8413928903288
55.8367947947754
55.8322245554262
55.8276814906479
55.823164943495
55.8186742807545
55.8142088951167
55.8097682084842
55.8053516734165
55.8009587710738
55.7965890069001
55.7922419074671
55.7879170216278
55.7836139264281
55.7793322349248
55.7750716017101
55.770831723561
55.7666123362237
55.7624132112386
55.7582341566554
55.7540750222666
55.7499357056707
55.7458161532021
55.7417163514103
55.7376363096747
55.7335760397019
55.7295355396583
55.7255147879931
55.7215137459763
55.7175323623958
55.7135705722875
55.7096282853676
55.705705366928
55.7018016201158
55.6979167797468
55.6940505229669
55.6902024935053
55.6863723287226
55.6825596765642
55.6787641943316
55.6749855305511
55.6712233002855
55.6674770680365
55.6637463488923
55.660030629446
55.6563293999267
55.6526421830476
55.648968546302
55.6453080921057
55.6416604305671
55.6380251477263
55.6344017841177
55.6307898337358
55.6271887643096
55.623598050489
55.6200172061811
55.6164458029594
55.6128834675635
55.6093298601728
55.6057846426605
55.6022474495451
55.598717872757
55.5951954656773
55.5916797646458
55.5881703200612
55.584666726303
55.5811686407405
55.5776757861691
55.5741879364944
55.5707048904257
55.5672264408755
55.5637523481426
55.5602823230244
55.5568160227627
55.5533530592419
55.5498930161668
55.5464354705598
55.5429800139115
55.5395262693981
55.5360739031711
55.5326226293845
55.5291722098645
55.5257224500432
55.5222731929185
55.5188243125592
55.5153757081585
55.5119272991536
55.5084790214768
55.5050308247639
55.5015826702101
55.4981345287951
55.4946863796842
55.4912382086929
55.4877900068194
55.4843417688757
55.4808934922839
55.4774451760839
55.4739968201796
55.4705484248186
55.4670999902718
55.4636515166833
55.4602030040219
55.4567544521102
55.4533058606741
55.4498572294042
55.446408558005
55.4429598462243
55.4395110938697
55.4360623008077
55.4326134669565
55.4291645922734
55.4257156767386
55.4222667203455
55.4188177230892
55.4153686849617
55.4119196059487
55.4084704860273
55.405021325167
55.4015721233322
55.3981228804828
55.3946735965741
55.3912242715621
55.3877749054002
55.3843254980427
55.3808760494444
55.377426559559
55.3739770283406
55.3705274557458
55.3670778417293
55.363628186246
55.3601784892508
55.3567287506985
55.3532789705437
55.3498291487421
55.3463792852471
55.3429293800123
55.3394794329928
55.3360294441427
55.332579413415
55.3291293407645
55.3256792261444
55.3222290695087
55.3187788708121
55.3153286300068
55.3118783470476
55.3084280218882
55.3049776544834
55.3015272447851
55.2980767927482
55.2946262983261
55.2911757614731
55.2877251821429
55.2842745602895
55.2808238958664
55.2773731888273
55.2739224391261
55.2704716467169
55.2670208115527
55.2635699335886
55.2601190127766
55.2566680490719
55.2532170424274
55.2497659927971
55.2463149001348
55.2428637643933
55.2394125855275
55.2359613634907
55.2325100982363
55.2290587897179
55.2256074378897
55.2221560427045
55.2187046041161
55.215253122078
55.2118015965448
55.2083500274692
55.2048984148046
55.2014467585049
55.1979950585236
55.1945433148145
55.1910915273304
55.187639696025
55.1841878208524
55.1807359017657
55.1772839387178
55.173831931663
55.1703798805544
55.1669277853455
55.1634756459897
55.1600234624404
55.1565712346507
55.1531189625743
55.149666646165
55.1462142853754
55.1427618801592
55.13930943047
55.1358569362608
55.1324043974848
55.1289518140961
55.1254991860469
55.1220465132913
55.1185937957824
55.1151410334731
55.1116882263167
55.1082353742673
55.1047824772766
55.1013295352994
55.0978765482884
55.0944235161965
55.0909704389767
55.0875173165827
55.0840641489677
55.0806109360849
55.0771576778866
55.0737043743269
55.0702510253581
55.0667976309341
55.0633441910076
55.059890705531
55.0564371744589
55.052983597743
55.0495299753374
55.0460763071942
55.0426225932669
55.0391688335086
55.0357150278723
55.032261176311
55.0288072787773
55.0253533352242
55.0218993456045
55.0184453098722
55.0149912279802
55.0115370998797
55.0080829255254
55.0046287048688
55.0011744378641
54.9977201244629
54.9942657646189
54.990811358285
54.9873569054138
54.9839024059581
54.9804478598706
54.9769932671041
54.9735386276127
54.9700839413472
54.9666292082616
54.9631744283076
54.9597196014392
54.9562647276077
54.9528098067673
54.9493548388692
54.9458998238685
54.9424447617145
54.9389896523637
54.9355344957644
54.9320792918737
54.9286240406396
54.9251687420197
54.9217133959615
54.9182580024229
54.9148025613497
54.9113470727029
54.9078915364257
54.9044359524808
54.9009803208088
54.8975246413769
54.8940689141203
54.8906131390109
54.8871573159792
54.8837014450024
54.880245526005
54.8767895589715
54.8733335438173
54.8698774805368
54.8664213690353
54.862965209319
54.8595090012784
54.8560527449366
54.8525964401655
54.849140087009
54.8456836853146
54.8422272351551
54.8387707363455
54.8353141889941
54.831857592876
54.8284009481457
54.8249442545251
54.8214875122301
54.8180307209115
54.814573880866
54.8111169916541
54.807660053674
54.8042030663718
54.8007460302764
54.7972889446842
54.7938318102947
54.7903746262115
54.7869173933524
54.7834601105749
54.780002779077
54.776545397397
54.7730879670942
54.7696304863031
54.7661729570384
54.7627153769205
54.7592577485456
54.7558000688811
54.7523423412586
54.7488845618252
54.7454267348292
54.7419688553968
54.7385109289161
54.7350529492544
54.7315949231924
54.7281368430743
54.7246787173416
54.7212205365521
54.7177623110588
54.7143040294181
54.7108457040426
54.70738732144