# vtk DataFile Version 2.0
FlowField
ASCII
DATASET STRUCTURED_GRID
DIMENSIONS 400 1 200
POINTS 80000 float
0 0 0
0.08 0 0
0.16 0 0
0.24 0 0
0.32 0 0
0.4 0 0
0.48 0 0
0.56 0 0
0.64 0 0
0.72 0 0
0.8 0 0
0.88 0 0
0.96 0 0
1.04 0 0
1.12 0 0
1.2 0 0
1.28 0 0
1.36 0 0
1.44 0 0
1.52 0 0
1.6 0 0
1.68 0 0
1.76 0 0
1.84 0 0
1.92 0 0
2 0 0
2.08 0 0
2.16 0 0
2.24 0 0
2.32 0 0
2.4 0 0
2.48 0 0
2.56 0 0
2.64 0 0
2.72 0 0
2.8 0 0
2.88 0 0
2.96 0 0
3.04 0 0
3.12 0 0
3.2 0 0
3.28 0 0
3.36 0 0
3.44 0 0
3.52 0 0
3.6 0 0
3.68 0 0
3.76 0 0
3.84 0 0
3.92 0 0
4 0 0
4.08 0 0
4.16 0 0
4.24 0 0
4.32 0 0
4.4 0 0
4.48 0 0
4.56 0 0
4.64 0 0
4.72 0 0
4.8 0 0
4.88 0 0
4.96 0 0
5.04 0 0
5.12 0 0
5.2 0 0
5.28 0 0
5.36 0 0
5.44 0 0
5.52 0 0
5.6 0 0
5.68 0 0
5.76 0 0
5.84 0 0
5.92 0 0
6 0 0
6.08 0 0
6.16 0 0
6.24 0 0
6.32 0 0
6.4 0 0
6.48 0 0
6.56 0 0
6.64 0 0
6.72 0 0
6.8 0 0
6.88 0 0
6.96 0 0
7.04 0 0
7.12 0 0
7.2 0 0
7.28 0 0
7.36 0 0
7.44 0 0
7.52 0 0
7.6 0 0
7.68 0 0
7.76 0 0
7.84 0 0
7.92 0 0
8 0 0
8.08 0 0
8.16 0 0
8.24 0 0
8.32 0 0
8.4 0 0
8.48 0 0
8.56 0 0
8.64 0 0
8.72 0 0
8.8 0 0
8.88 0 0
8.96 0 0
9.04 0 0
9.12 0 0
9.2 0 0
9.28 0 0
9.36 0 0
9.44 0 0
9.52 0 0
9.6 0 0
9.68 0 0
9.76 0 0
9.84 0 0
9.92 0 0
10 0 0
10.08 0 0
10.16 0 0
10.24 0 0
10.32 0 0
10.4 0 0
10.48 0 0
10.56 0 0
10.64 0 0
10.72 0 0
10.8 0 0
10.88 0 0
10.96 0 0
11.04 0 0
11.12 0 0
11.2 0 0
11.28 0 0
11.36 0 0
11.44 0 0
11.52 0 0
11.6 0 0
11.68 0 0
11.76 0 0
11.84 0 0
11.92 0 0
12 0 0
12.08 0 0
12.16 0 0
12.24 0 0
12.32 0 0
12.4 0 0
12.48 0 0
12.56 0 0
12.64 0 0
12.72 0 0
12.8 0 0
12.88 0 0
12.96 0 0
13.04 0 0
13.12 0 0
13.2 0 0
13.28 0 0
13.36 0 0
13.44 0 0
13.52 0 0
13.6 0 0
13.68 0 0
13.76 0 0
13.84 0 0
13.92 0 0
14 0 0
14.08 0 0
14.16 0 0
14.24 0 0
14.32 0 0
14.4 0 0
14.48 0 0
14.56 0 0
14.64 0 0
14.72 0 0
14.8 0 0
14.88 0 0
14.96 0 0
15.04 0 0
15.12 0 0
15.2 0 0
15.28 0 0
15.36 0 0
15.44 0 0
15.52 0 0
15.6 0 0
15.68 0 0
15.76 0 0
15.84 0 0
15.92 0 0
16 0 0
16.08 0 0
16.16 0 0
16.24 0 0
16.32 0 0
16.4 0 0
16.48 0 0
16.56 0 0
16.64 0 0
16.72 0 0
16.8 0 0
16.88 0 0
16.96 0 0
17.04 0 0
17.12 0 0
17.2 0 0
17.28 0 0
17.36 0 0
17.44 0 0
17.52 0 0
17.6 0 0
17.68 0 0
17.76 0 0
17.84 0 0
17.92 0 0
18 0 0
18.08 0 0
18.16 0 0
18.24 0 0
18.32 0 0
18.4 0 0
18.48 0 0
18.56 0 0
18.64 0 0
18.72 0 0
18.8 0 0
18.88 0 0
18.96 0 0
19.04 0 0
19.12 0 0
19.2 0 0
19.28 0 0
19.36 0 0
19.44 0 0
19.52 0 0
19.6 0 0
19.68 0 0
19.76 0 0
19.84 0 0
19.92 0 0
20 0 0
20.08 0 0
20.16 0 0
20.24 0 0
20.32 0 0
20.4 0 0
20.48 0 0
20.56 0 0
20.64 0 0
20.72 0 0
20.8 0 0
20.88 0 0
20.96 0 0
21.04 0 0
21.12 0 0
21.2 0 0
21.28 0 0
21.36 0 0
21.44 0 0
21.52 0 0
21.6 0 0
21.68 0 0
21.76 0 0
21.84 0 0
21.92 0 0
22 0 0
22.08 0 0
22.16 0 0
22.24 0 0
22.32 0 0
22.4 0 0
22.48 0 0
22.56 0 0
22.64 0 0
22.72 0 0
22.8 0 0
22.88 0 0
22.96 0 0
23.04 0 0
23.12 0 0
23.2 0 0
23.28 0 0
23.36 0 0
23.44 0 0
23.52 0 0
23.6 0 0
23.68 0 0
23.76 0 0
23.84 0 0
23.92 0 0
24 0 0
24.08 0 0
24.16 0 0
24.24 0 0
24.32 0 0
24.4 0 0
24.48 0 0
24.56 0 0
24.64 0 0
24.72 0 0
24.8 0 0
24.88 0 0
24.96 0 0
25.04 0 0
25.12 0 0
25.2 0 0
25.28 0 0
25.36 0 0
25.44 0 0
25.52 0 0
25.6 0 0
25.68 0 0
25.76 0 0
25.84 0 0
25.92 0 0
26 0 0
26.08 0 0
26.16 0 0
26.24 0 0
26.32 0 0
26.4 0 0
26.48 0 0
26.56 0 0
26.64 0 0
26.72 0 0
26.8 0 0
26.88 0 0
26.96 0 0
27.04 0 0
27.12 0 0
27.2 0 0
27.28 0 0
27.36 0 0
27.44 0 0
27.52 0 0
27.6 0 0
27.68 0 0
27.76 0 0
27.84 0 0
27.92 0 0
28 0 0
28.08 0 0
28.16 0 0
28.24 0 0
28.32 0 0
28.4 0 0
28.48 0 0
28.56 0 0
28.64 0 0
28.72 0 0
28.8 0 0
28.88 0 0
28.96 0 0
29.04 0 0
29.12 0 0
29.2 0 0
29.28 0 0
29.36 0 0
29.44 0 0
29.52 0 0
29.6 0 0
29.68 0 0
29.76 0 0
29.84 0 0
29.92 0 0
30 0 0
30.08 0 0
30.16 0 0
30.24 0 0
30.32 0 0
30.4 0 0
30.48 0 0
30.56 0 0
30.64 0 0
30.72 0 0
30.8 0 0
30.88 0 0
30.96 0 0
31.04 0 0
31.12 0 0
31.2 0 0
31.28 0 0
31.36 0 0
31.44 0 0
31.52 0 0
31.6 0 0
31.68 0 0
31.76 0 0
31.84 0 0
31.92 0 0
0 0.005 0
0.08 0.005 0
0.16 0.005 0
0.24 0.005 0
0.32 0.005 0
0.4 0.005 0
0.48 0.005 0
0.56 0.005 0
0.64 0.005 0
0.72 0.005 0
0.8 0.005 0
0.88 0.005 0
0.96 0.005 0
1.04 0.005 0
1.12 0.005 0
1.2 0.005 0
1.28 0.005 0
1.36 0.005 0
1.44 0.005 0
1.52 0.005 0
1.6 0.005 0
1.68 0.005 0
1.76 0.005 0
1.84 0.005 0
1.92 0.005 0
2 0.005 0
2.08 0.005 0
2.16 0.005 0
2.24 0.005 0
2.32 0.005 0
2.4 0.005 0
2.48 0.005 0
2.56 0.005 0
2.64 0.005 0
2.72 0.005 0
2.8 0.005 0
2.88 0.005 0
2.96 0.005 0
3.04 0.005 0
3.12 0.005 0
3.2 0.005 0
3.28 0.005 0
3.36 0.005 0
3.44 0.005 0
3.52 0.005 0
3.6 0.005 0
3.68 0.005 0
3.76 0.005 0
3.84 0.005 0
3.92 0.005 0
4 0.005 0
4.08 0.005 0
4.16 0.005 0
4.24 0.005 0
4.32 0.005 0
4.4 0.005 0
4.48 0.005 0
4.56 0.005 0
4.64 0.005 0
4.72 0.005 0
4.8 0.005 0
4.88 0.005 0
4.96 0.005 0
5.04 0.005 0
5.12 0.005 0
5.2 0.005 0
5.28 0.005 0
5.36 0.005 0
5.44 0.005 0
5.52 0.005 0
5.6 0.005 0
5.68 0.005 0
5.76 0.005 0
5.84 0.005 0
5.92 0.005 0
6 0.005 0
6.08 0.005 0
6.16 0.005 0
6.24 0.005 0
6.32 0.005 0
6.4 0.005 0
6.48 0.005 0
6.56 0.005 0
6.64 0.005 0
6.72 0.005 0
6.8 0.005 0
6.88 0.005 0
6.96 0.005 0
7.04 0.005 0
7.12 0.005 0
7.2 0.005 0
7.28 0.005 0
7.36 0.005 0
7.44 0.005 0
7.52 0.005 0
7.6 0.005 0
7.68 0.005 0
7.76 0.005 0
7.84 0.005 0
7.92 0.005 0
8 0.005 0
8.08 0.005 0
8.16 0.005 0
8.24 0.005 0
8.32 0.005 0
8.4 0.005 0
8.48 0.005 0
8.56 0.005 0
8.64 0.005 0
8.72 0.005 0
8.8 0.005 0
8.88 0.005 0
8.96 0.005 0
9.04 0.005 0
9.12 0.005 0
9.2 0.005 0
9.28 0.005 0
9.36 0.005 0
9.44 0.005 0
9.52 0.005 0
9.6 0.005 0
9.68 0.005 0
9.76 0.005 0
9.84 0.005 0
9.92 0.005 0
10 0.005 0
10.08 0.005 0
10.16 0.005 0
10.24 0.005 0
10.32 0.005 0
10.4 0.005 0
10.48 0.005 0
10.56 0.005 0
10.64 0.005 0
10.72 0.005 0
10.8 0.005 0
10.88 0.005 0
10.96 0.005 0
11.04 0.005 0
11.12 0.005 0
11.2 0.005 0
11.28 0.005 0
11.36 0.005 0
11.44 0.005 0
11.52 0.005 0
11.6 0.005 0
11.68 0.005 0
11.76 0.005 0
11.84 0.005 0
11.92 0.005 0
12 0.005 0
12.08 0.005 0
12.16 0.005 0
12.24 0.005 0
12.32 0.005 0
12.4 0.005 0
12.48 0.005 0
12.56 0.005 0
12.64 0.005 0
12.72 0.005 0
12.8 0.005 0
12.88 0.005 0
12.96 0.005 0
13.04 0.005 0
13.12 0.005 0
13.2 0.005 0
13.28 0.005 0
13.36 0.005 0
13.44 0.005 0
13.52 0.005 0
13.6 0.005 0
13.68 0.005 0
13.76 0.005 0
13.84 0.005 0
13.92 0.005 0
14 0.005 0
14.08 0.005 0
14.16 0.005 0
14.24 0.005 0
14.32 0.005 0
14.4 0.005 0
14.48 0.005 0
14.56 0.005 0
14.64 0.005 0
14.72 0.005 0
14.8 0.005 0
14.88 0.005 0
14.96 0.005 0
15.04 0.005 0
15.12 0.005 0
15.2 0.005 0
15.28 0.005 0
15.36 0.005 0
15.44 0.005 0
15.52 0.005 0
15.6 0.005 0
15.68 0.005 0
15.76 0.005 0
15.84 0.005 0
15.92 0.005 0
16 0.005 0
16.08 0.005 0
16.16 0.005 0
16.24 0.005 0
16.32 0.005 0
16.4 0.005 0
16.48 0.005 0
16.56 0.005 0
16.64 0.005 0
16.72 0.005 0
16.8 0.005 0
16.88 0.005 0
16.96 0.005 0
17.04 0.005 0
17.12 0.005 0
17.2 0.005 0
17.28 0.005 0
17.36 0.005 0
17.44 0.005 0
17.52 0.005 0
17.6 0.005 0
17.68 0.005 0
17.76 0.005 0
17.84 0.005 0
17.92 0.005 0
18 0.005 0
18.08 0.005 0
18.16 0.005 0
18.24 0.005 0
18.32 0.005 0
18.4 0.005 0
18.48 0.005 0
18.56 0.005 0
18.64 0.005 0
18.72 0.005 0
18.8 0.005 0
18.88 0.005 0
18.96 0.005 0
19.04 0.005 0
19.12 0.005 0
19.2 0.005 0
19.28 0.005 0
19.36 0.005 0
19.44 0.005 0
19.52 0.005 0
19.6 0.005 0
19.68 0.005 0
19.76 0.005 0
19.84 0.005 0
19.92 0.005 0
20 0.005 0
20.08 0.005 0
20.16 0.005 0
20.24 0.005 0
20.32 0.005 0
20.4 0.005 0
20.48 0.005 0
20.56 0.005 0
20.64 0.005 0
20.72 0.005 0
20.8 0.005 0
20.88 0.005 0
20.96 0.005 0
21.04 0.005 0
21.12 0.005 0
21.2 0.005 0
21.28 0.005 0
21.36 0.005 0
21.44 0.005 0
21.52 0.005 0
21.6 0.005 0
21.68 0.005 0
21.76 0.005 0
21.84 0.005 0
21.92 0.005 0
22 0.005 0
22.08 0.005 0
22.16 0.005 0
22.24 0.005 0
22.32 0.005 0
22.4 0.005 0
22.48 0.005 0
22.56 0.005 0
22.64 0.005 0
22.72 0.005 0
22.8 0.005 0
22.88 0.005 0
22.96 0.005 0
23.04 0.005 0
23.12 0.005 0
23.2 0.005 0
23.28 0.005 0
23.36 0.005 0
23.44 0.005 0
23.52 0.005 0
23.6 0.005 0
23.68 0.005 0
23.76 0.005 0
23.84 0.005 0
23.92 0.005 0
24 0.005 0
24.08 0.005 0
24.16 0.005 0
24.24 0.005 0
24.32 0.005 0
24.4 0.005 0
24.48 0.005 0
24.56 0.005 0
24.64 0.005 0
24.72 0.005 0
24.8 0.005 0
24.88 0.005 0
24.96 0.005 0
25.04 0.005 0
25.12 0.005 0
25.2 0.005 0
25.28 0.005 0
25.36 0.005 0
25.44 0.005 0
25.52 0.005 0
25.6 0.005 0
25.68 0.005 0
25.76 0.005 0
25.84 0.005 0
25.92 0.005 0
26 0.005 0
26.08 0.005 0
26.16 0.005 0
26.24 0.005 0
26.32 0.005 0
26.4 0.005 0
26.48 0.005 0
26.56 0.005 0
26.64 0.005 0
26.72 0.005 0
26.8 0.005 0
26.88 0.005 0
26.96 0.005 0
27.04 0.005 0
27.12 0.005 0
27.2 0.005 0
27.28 0.005 0
27.36 0.005 0
27.44 0.005 0
27.52 0.005 0
27.6 0.005 0
27.68 0.005 0
27.76 0.005 0
27.84 0.005 0
27.92 0.005 0
28 0.005 0
28.08 0.005 0
28.16 0.005 0
28.24 0.005 0
28.32 0.005 0
28.4 0.005 0
28.48 0.005 0
28.56 0.005 0
28.64 0.005 0
28.72 0.005 0
28.8 0.005 0
28.88 0.005 0
28.96 0.005 0
29.04 0.005 0
29.12 0.005 0
29.2 0.005 0
29.28 0.005 0
29.36 0.005 0
29.44 0.005 0
29.52 0.005 0
29.6 0.005 0
29.68 0.005 0
29.76 0.005 0
29.84 0.005 0
29.92 0.005 0
30 0.005 0
30.08 0.005 0
30.16 0.005 0
30.24 0.005 0
30.32 0.005 0
30.4 0.005 0
30.48 0.005 0
30.56 0.005 0
30.64 0.005 0
30.72 0.005 0
30.8 0.005 0
30.88 0.005 0
30.96 0.005 0
31.04 0.005 0
31.12 0.005 0
31.2 0.005 0
31.28 0.005 0
31.36 0.005 0
31.44 0.005 0
31.52 0.005 0
31.6 0.005 0
31.68 0.005 0
31.76 0.005 0
31.84 0.005 0
31.92 0.005 0
0 0.01 0
0.08 0.01 0
0.16 0.01 0
0.24 0.01 0
0.32 0.01 0
0.4 0.01 0
0.48 0.01 0
0.56 0.01 0
0.64 0.01 0
0.72 0.01 0
0.8 0.01 0
0.88 0.01 0
0.96 0.01 0
1.04 0.01 0
1.12 0.01 0
1.2 0.01 0
1.28 0.01 0
1.36 0.01 0
1.44 0.01 0
1.52 0.01 0
1.6 0.01 0
1.68 0.01 0
1.76 0.01 0
1.84 0.01 0
1.92 0.01 0
2 0.01 0
2.08 0.01 0
2.16 0.01 0
2.24 0.01 0
2.32 0.01 0
2.4 0.01 0
2.48 0.01 0
2.56 0.01 0
2.64 0.01 0
2.72 0.01 0
2.8 0.01 0
2.88 0.01 0
2.96 0.01 0
3.04 0.01 0
3.12 0.01 0
3.2 0.01 0
3.28 0.01 0
3.36 0.01 0
3.44 0.01 0
3.52 0.01 0
3.6 0.01 0
3.68 0.01 0
3.76 0.01 0
3.84 0.01 0
3.92 0.01 0
4 0.01 0
4.08 0.01 0
4.16 0.01 0
4.24 0.01 0
4.32 0.01 0
4.4 0.01 0
4.48 0.01 0
4.56 0.01 0
4.64 0.01 0
4.72 0.01 0
4.8 0.01 0
4.88 0.01 0
4.96 0.01 0
5.04 0.01 0
5.12 0.01 0
[...]
POINT_DATA 80000

SCALARS p float 1
LOOKUP_TABLE default
1
56.9548736905428
56.6531164828215
56.6119416822495
56.5918418715959
56.5774179397728
56.5654166773925
56.5546776103175
56.5446883637951
56.5351959693008
56.5260673439906
56.5172296202337
56.5086408357616
56.500274387242
56.4921117667872
56.4841404038758
56.4763527399418
56.4687436777432
56.4613070565827
56.4540343615202
56.4469174237451
56.4399528562074
56.4331439002202
56.4264976737441
56.4200202241454
56.4137138732606
56.4075790735078
56.4016185401917
56.3958389225719
56.3902469830963
56.38484168666
56.3796071292455
56.3745112439291
56.3695119110359
56.3645678810508
56.3596494718512
56.3547445344587
56.3498579283044
56.3450058127157
56.3402078207122
56.3354801613204
56.3308314780219
56.3262618131586
56.3217639683636
56.3173261218912
56.31293464215
56.3085763818098
56.3042401354393
56.2999172641647
56.2956016807664
56.2912894528836
56.2869782568561
56.2826668452965
56.278354615115
56.2740413019282
56.2697267892825
56.265411004764
56.2610938730352
56.2567753012604
56.2524551799811
56.2481333893852
56.2438098059015
56.2394843072011
56.2351567752646
56.2308270978979
56.2264951692068
56.2221608895042
56.2178241649517
56.2134849071483
56.2091430327436
56.2047984631301
56.2004511242056
56.1961009462087
56.1917478635975
56.187391814976
56.1830327430287
56.178670594486
56.174305320082
56.1699368745282
56.1655652164726
56.1611903084707
56.1568121169392
56.1524306121161
56.1480457680085
56.1436575623437
56.1392659765055
56.1348709954779
56.1304726077711
56.1260708053579
56.1216655835918
56.1172569411341
56.1128448798668
56.1084294048107
56.1040105240319
56.0995882485549
56.0951625922625
56.0907335718046
56.0863012064926
56.0818655182024
56.0774265312675
56.0729842723772
56.0685387704673
56.0640900566156
56.0596381639304
56.0551831274476
56.0507249840132
56.0462637721846
56.0417995321131
56.0373323054421
56.0328621351929
56.0283890656664
56.0239131423288
56.0194344117143
56.0149529213171
56.0104687194947
56.0059818553657
56.0014923787133
55.9970003398891
55.9925057897238
55.9880087794313
55.983509360527
55.9790075847354
55.9745035039155
55.9699971699732
55.9654886347911
55.9609779501493
55.9564651676603
55.9519503386924
55.9474335143153
55.94291474523
55.9383940817164
55.9338715735707
55.9293472700617
55.9248212198739
55.9202934710674
55.9157640710285
55.9112330664362
55.9067005032206
55.9021664265312
55.8976308807029
55.8930939092314
55.8885555547445
55.8840158589811
55.8794748627695
55.8749326060104
55.8703891276612
55.8658444657264
55.8612986572409
55.8567517382673
55.8522037438873
55.8476547081989
55.8431046643126
55.8385536443546
55.8340016794634
55.8294487997988
55.8248950345414
55.8203404119043
55.8157849591365
55.8112287025367
55.8066716674571
55.8021138783227
55.7975553586391
55.7929961310087
55.7884362171416
55.7838756378774
55.7793144131929
55.7747525622284
55.7701901032966
55.765627053907
55.7610634307797
55.7564992498678
55.7519345263733
55.7473692747699
55.7428035088181
55.73823724159
55.7336704854856
55.7291032522534
55.7245355530113
55.7199673982665
55.7153987979328
55.7108297613538
55.7062602973179
55.7016904140835
55.697120119391
55.6925494204891
55.6879783241455
55.6834068366723
55.6788349639376
55.67426271139
55.6696900840675
55.6651170866212
55.6605437233278
55.6559699981078
55.6513959145391
55.6468214758746
55.6422466850528
55.6376715447174
55.6330960572268
55.6285202246716
55.6239440488818
55.6193675314462
55.6147906737189
55.6102134768359
55.6056359417203
55.6010580690991
55.5964798595107
55.5919013133164
55.5873224307065
55.5827432117155
55.5781636562247
55.5735837639761
55.5690035345764
55.5644229675074
55.5598420621305
55.5552608177005
55.550679233361
55.5460973081627
55.5415150410601
55.5369324309258
55.5323494765471
55.5277661766381
55.523182529842
55.5185985347371
55.5140141898366
55.5094294936008
55.5048444444328
55.5002590406888
55.4956732806775
55.491087162666
55.4865006848793
55.4819138455091
55.4773266427097
55.4727390746081
55.4681511392975
55.4635628348496
55.4589741593073
55.4543851106943
55.4497956870114
55.4452058862432
55.4406157063537
55.4360251452951
55.4314342010009
55.4268428713961
55.4222511543906
55.4176590478868
55.4130665497742
55.4084736579364
55.4038803702477
55.3992866845773
55.3946925987855
55.3900981107306
55.3855032182634
55.3809079192325
55.3763122114803
55.371716092849
55.3671195611755
55.3625226142965
55.3579252500445
55.3533274662534
55.3487292607517
55.3441306313704
55.3395315759373
55.3349320922812
55.330332178228
55.3257318316074
55.3211310502437
55.3165298319655
55.3119281745986
55.307326075971
55.3027235339079
55.2981205462376
55.293517110787
55.2889132253844
55.2843088878565
55.2797040960321
55.2750988477385
55.2704931408061
55.2658869730619
55.2612803423358
55.2566732464557
55.2520656832519
55.2474576505515
55.2428491461856
55.2382401679815
55.2336307137697
55.2290207813769
55.2244103686327
55.2197994733633
55.2151880933983
55.2105762265624
55.2059638706824
55.2013510235835
55.196737683091
55.1921238470282
55.187509513219
55.1828946794829
55.1782793436425
55.1736635035157
55.1690471569216
55.1644303016752
55.1598129355933
55.155195056488
55.150576662172
55.145957750453
55.1413383191408
55.1367183660399
55.1320978889548
55.1274768856861
55.1228553540343
55.1182332917941
55.1136106967617
55.1089875667273
55.10436389948
55.0997396928052
55.0951149444872
55.0904896523052
55.0858638140363
55.0812374274538
55.0766104903283
55.0719830004259
55.0673549555118
55.0627263533433
55.0580971916783
55.0534674682676
55.048837180861
55.0442063272004
55.0395749050282
55.034942912078
55.0303103460825
55.0256772047681
55.0210434858584
55.0164091870697
55.0117743061157
55.0071388407042
55.0025027885391
54.9978661473179
54.9932289147345
54.9885910884758
54.9839526662249
54.9793136456581
54.9746740244479
54.9700338002586
54.9653929707522
54.9607515335809
54.9561094863942
54.9514668268335
54.9468235525363
54.9421796611313
54.9375351502438
54.9328900174886
54.9282442604787
54.9235978768176
54.9189508641024
54.9143032199264
54.9096549418679
54.9050060275194
54.9003564744153
54.8957062802012
54.8910554422583
54.8864039585038
54.8817518257353
54.8770990429546
54.872445604909
54.8677915142191
54.8631367594002
54.858481353267
54.8538252682907
54.8491685413149
54.8445111104576
54.839853059172
54.8351942655584
54.830534886148
54.8258747149199
54.8212139998145
54.8165524409062
54.8118903774397
54.8072274253308
54.8025639968974
54.7978996497062
54.793234835592
54.7885690955289
54.7839028721177
54.7792357397352
54.7745680905783
54.7698995519138
54.7652304763823
54.7605605000477
54.7558900036857
54.7512185563989
54.7465466159035
54.7418737017905
54.7372002047016
54.7325258805673
54.7278506286143
54.7231749975624
54.7184974314411
54.7138218793674
54.7091395059337
54.7044818259859
0.5
56.9548736905428
56.9548736905428
56.6531164828215
56.6119416822495
56.5918418715959
56.5774179397728
56.5654166773925
56.5546776103175
56.5446883637951
56.5351959693008
56.5260673439906
56.5172296202337
56.5086408357616
56.500274387242
56.4921117667872
56.4841404038758
56.4763527399418
56.4687436777432
56.4613070565827
56.4540343615202
56.4469174237451
56.4399528562074
56.4331439002202
56.4264976737441
56.4200202241454
56.4137138732606
56.4075790735078
56.4016185401917
56.3958389225719
56.3902469830963
56.38484168666
56.3796071292455
56.3745112439291
56.3695119110359
56.3645678810508
56.3596494718512
56.3547445344587
56.3498579283044
56.3450058127157
56.3402078207122
56.3354801613204
56.3308314780219
56.3262618131586
56.3217639683636
56.3173261218912
56.31293464215
56.3085763818098
56.3042401354393
56.2999172641647
56.2956016807664
56.2912894528836
56.2869782568561
56.2826668452965
56.278354615115
56.2740413019282
56.2697267892825
56.265411004764
56.2610938730352
56.2567753012604
56.2524551799811
56.2481333893852
56.2438098059015
56.2394843072011
56.2351567752646
56.2308270978979
56.2264951692068
56.2221608895042
56.2178241649517
56.2134849071483
56.2091430327436
56.2047984631301
56.2004511242056
56.1961009462087
56.1917478635975
56.187391814976
56.1830327430287
56.178670594486
56.174305320082
56.1699368745282
56.1655652164726
56.1611903084707
56.1568121169392
56.1524306121161
56.1480457680085
56.1436575623437
56.1392659765055
56.1348709954779
56.1304726077711
56.1260708053579
56.1216655835918
56.1172569411341
56.1128448798668
56.1084294048107
56.1040105240319
56.0995882485549
56.0951625922625
56.0907335718046
56.0863012064926
56.0818655182024
56.0774265312675
56.0729842723772
56.0685387704673
56.0640900566156
56.0596381639304
56.0551831274476
56.0507249840132
56.0462637721846
56.0417995321131
56.0373323054421
56.0328621351929
56.0283890656664
56.0239131423288
56.0194344117143
56.0149529213171
56.0104687194947
56.0059818553657
56.0014923787133
55.9970003398891
55.9925057897238
55.9880087794313
55.983509360527
55.9790075847354
55.9745035039155
55.9699971699732
55.9654886347911
55.9609779501493
55.9564651676603
55.9519503386924
55.9474335143153
55.94291474523
55.9383940817164
55.9338715735707
55.9293472700617
55.9248212198739
55.9202934710674
55.9157640710285
55.9112330664362
55.9067005032206
55.9021664265312
55.8976308807029
55.8930939092314
55.8885555547445
55.8840158589811
55.8794748627695
55.8749326060104
55.8703891276612
55.8658444657264
55.8612986572409
55.8567517382673
55.8522037438873
55.8476547081989
55.8431046643126
55.8385536443546
55.8340016794634
55.8294487997988
55.8248950345414
55.8203404119043
55.8157849591365
55.8112287025367
55.8066716674571
55.8021138783227
55.7975553586391
55.7929961310087
55.7884362171416
55.7838756378774
55.7793144131929
55.7747525622284
55.7701901032966
55.765627053907
55.7610634307797
55.7564992498678
55.7519345263733
55.7473692747699
55.7428035088181
55.73823724159
55.7336704854856
55.7291032522534
55.7245355530113
55.7199673982665
55.7153987979328
55.7108297613538
55.7062602973179
55.7016904140835
55.697120119391
55.6925494204891
55.6879783241455
55.6834068366723
55.6788349639376
55.67426271139
55.6696900840675
55.6651170866212
55.6605437233278
55.6559699981078
55.6513959145391
55.6468214758746
55.6422466850528
55.6376715447174
55.6330960572268
55.6285202246716
55.6239440488818
55.6193675314462
55.6147906737189
55.6102134768359
55.6056359417203
55.6010580690991
55.5964798595107
55.5919013133164
55.5873224307065
55.5827432117155
55.5781636562247
55.5735837639761
55.5690035345764
55.5644229675074
55.5598420621305
55.5552608177005
55.550679233361
55.5460973081627
55.5415150410601
55.5369324309258
55.5323494765471
55.5277661766381
55.523182529842
55.5185985347371
55.5140141898366
55.5094294936008
55.5048444444328
55.5002590406888
55.4956732806775
55.491087162666
55.4865006848793
55.4819138455091
55.4773266427097
55.4727390746081
55.4681511392975
55.4635628348496
55.4589741593073
55.4543851106943
55.4497956870114
55.4452058862432
55.4406157063537
55.4360251452951
55.4314342010009
55.4268428713961
55.4222511543906
55.4176590478868
55.4130665497742
55.4084736579364
55.4038803702477
55.3992866845773
55.3946925987855
55.3900981107306
55.3855032182634
55.3809079192325
55.3763122114803
55.371716092849
55.3671195611755
55.3625226142965
55.3579252500445
55.3533274662534
55.3487292607517
55.3441306313704
55.3395315759373
55.3349320922812
55.330332178228
55.3257318316074
55.3211310502437
55.3165298319655
55.3119281745986
55.307326075971
55.3027235339079
55.2981205462376
55.293517110787
55.2889132253844
55.2843088878565
55.2797040960321
55.2750988477385
55.2704931408061
55.2658869730619
55.2612803423358
55.2566732464557
55.2520656832519
55.2474576505515
55.2428491461856
55.2382401679815
55.2336307137697
55.2290207813769
55.2244103686327
55.2197994733633
55.2151880933983
55.2105762265624
55.2059638706824
55.2013510235835
55.196737683091
55.1921238470282
55.187509513219
55.1828946794829
55.1782793436425
55.1736635035157
55.1690471569216
55.1644303016752
55.1598129355933
55.155195056488
55.150576662172
55.145957750453
55.1413383191408
55.1367183660399
55.1320978889548
55.1274768856861
55.1228553540343
55.1182332917941
55.1136106967617
55.1089875667273
55.10436389948
55.0997396928052
55.0951149444872
55.0904896523052
55.0858638140363
55.0812374274538
55.0766104903283
55.0719830004259
55.0673549555118
55.0627263533433
55.0580971916783
55.0534674682676
55.048837180861
55.0442063272004
55.0395749050282
55.034942912078
55.0303103460825
55.0256772047681
55.0210434858584
55.0164091870697
55.0117743061157
55.0071388407042
55.0025027885391
54.9978661473179
54.9932289147345
54.9885910884758
54.9839526662249
54.9793136456581
54.9746740244479
54.9700338002586
54.9653929707522
54.9607515335809
54.9561094863942
54.9514668268335
54.9468235525363
54.9421796611313
54.9375351502438
54.9328900174886
54.9282442604787
54.9235978768176
54.9189508641024
54.9143032199264
54.9096549418679
54.9050060275194
54.9003564744153
54.8957062802012
54.8910554422583
54.8864039585038
54.8817518257353
54.8770990429546
54.872445604909
54.8677915142191
54.8631367594002
54.858481353267
54.8538252682907
54.8491685413149
54.8445111104576
54.839853059172
54.8351942655584
54.830534886148
54.8258747149199
54.8212139998145
54.8165524409062
54.8118903774397
54.8072274253308
54.8025639968974
54.7978996497062
54.793234835592
54.7885690955289
54.7839028721177
54.7792357397352
54.7745680905783
54.7698995519138
54.7652304763823
54.7605605000477
54.7558900036857
54.7512185563989
54.7465466159035
54.7418737017905
54.7372002047016
54.7325258805673
54.7278506286143
54.7231749975624
54.7184974314411
54.7138218793674
54.7091395059337
54.7044818259859
54.7044818259859
56.940290489394
56.940290489394
56.6569512536311
56.6131960275392
56.5924760522384
56.577811397992
56.5656873144694
56.5548759969192
56.5448404389543
56.5353165956903
56.526165681007
56.5173116074393
56.5087104811776
56.5003344878012
56.4921643234908
56.4841868656418
56.4763941610122
56.4687808398359
56.4613405696988
56.4540647293751
56.4469450616005
56.4399780764327
56.433166902529
56.4265185667113
56.4200390706768
56.4137307284474
56.4075939918778
56.4016315608943
56.3958500636604
56.3902562683275
56.3848491981667
56.3796130536348
56.3745158780207
56.3695156162382
56.3645710051843
56.3596522743286
56.3547471461241
56.3498603569491
56.3450079836595
56.3402096304564
56.3354815236392
56.3308323509896
56.3262622056821
56.3217639314847
56.3173257324676
56.3129339856759
56.3085755387544
56.3042391729089
56.2999162327054
56.2956006149951
56.2912883742995
56.2869771774002
56.2826657706877
56.2783535474823
56.2740402416214
56.2697257359693
56.2654099580011
56.2610928325068
56.2567742668327
56.2524541516758
56.2481323673275
56.2438087902722
56.2394832982014
56.2351557730942
56.230826102744
56.2264941812397
56.2221599088765
56.2178231918003
56.2134839415961
56.2091420749015
56.2047975130988
56.2004501820769
56.1961000120665
56.1917469375185
56.1873908970303
56.1830318332799
56.1786696929917
56.1743044268938
56.1699359896916
56.1655643400278
56.1611894404519
56.1568112573752
56.15242976103
56.1480449254181
56.1436567282614
56.1392651509381
56.1348701784272
56.1304717992335
56.1260700053248
56.1216647920495
56.1172561580639
56.1128441052451
56.1084286386091
56.1040097662174
56.0995874990896
56.0951618511043
56.0907328389068
56.0863004818042
56.0818648016681
56.0774258228283
56.0729835719699
56.068538078025
56.0640893720675
56.0596374872026
56.0551824584625
56.0507243226902
56.0462631184399
56.0417988858603
56.0373316665915
56.0328615036527
56.0283884413422
56.023912525124
56.0194338015301
56.014952318053
56.0104681230482
56.005981265633
56.0014917955889
55.9969997632664
55.992505219495
55.9880082154878
55.9835088027592
55.9790070330333
55.9745029581685
55.9699966300703
55.9654881006212
55.9609774216012
55.956464644623
55.951949821055
55.9474330019672
55.9429142380613
55.9383935796174
55.9338710764327
55.9293467777767
55.9248207323348
55.920292988168
55.9157635926641
55.9112325925027
55.9067000336156
55.9021659611535
55.8976304194526
55.8930934520101
55.8885551014558
55.8840154095295
55.8794744170617
55.8749321639545
55.8703886891671
55.8658440307058
55.8612982256074
55.8567513099363
55.852203318776
55.8476542862264
55.8431042454
55.8385532284249
55.8340012664414
55.8294483896113
55.8248946271172
55.820340007174
55.8157845570329
55.8112283029941
55.8066712704121
55.8021134837135
55.797554966406
55.7929957410938
55.7884358294888
55.7838752524323
55.7793140299031
55.7747521810432
55.770189724167
55.7656266767856
55.7610630556211
55.7564988766279
55.7519341550098
55.7473689052421
55.7428031410868
55.7382368756173
55.7336701212354
55.7291028896908
55.7245351921029
55.7199670389803
55.7153984402381
55.7108294052209
55.7062599427189
55.7016900609911
55.6971197677795
55.6925490703337
55.6879779754228
55.6834064893595
55.6788346180135
55.6742623668338
55.6696897408597
55.6651167447432
55.6605433827617
55.6559696588368
55.6513955765471
55.6468211391462
55.6422463495735
55.6376712104732
55.6330957242047
55.6285198928591
55.6239437182671
55.6193672020179
55.6147903454665
55.6102131497494
55.6056356157901
55.601057744316
55.5964795358664
55.5919009908026
55.5873221093156
55.5827428914403
55.5781633370585
55.5735834459123
55.5690032176089
55.5644226516304
55.5598417473388
55.5552605039888
55.5506789207247
55.5460969965972
55.5415147305611
55.5369321214893
55.5323491681693
55.5277658693155
55.5231822235712
55.5185982295151
55.5140138856605
55.5094291904678
55.5048441423403
55.5002587396343
55.4956729806589
55.4910868636811
55.4865003869262
55.4819135485859
55.4773263468146
55.4727387797397
55.4681508454542
55.46356254203
55.4589738675101
55.4543848199183
55.4497953972554
55.4452055975064
55.440615418635
55.4360248585937
55.4314339153159
55.4268425867268
55.4222508707363
55.4176587652468
55.4130662681481
55.4084733773237
55.4038800906478
55.3992864059899
55.3946923212102
55.390097834167
55.3855029427114
55.3809076446917
55.3763119379507
55.3717158203302
55.3671192896674
55.362522343799
55.3579249805576
55.3533271977771
55.3487289932858
55.3441303649151
55.3395313104926
55.334931827847
55.3303319148048
55.3257315691948
55.3211307888423
55.3165295715751
55.3119279152197
55.3073258176035
55.3027232765523
55.2981202898939
55.2935168554555
55.2889129710654
55.2843086345504
55.2797038437392
55.2750985964591
55.2704928905405
55.2658867238106
55.261280094099
55.2566729992339
55.2520654370455
55.2474574053609
55.2428489020113
55.238239924824
55.2336304716293
55.2290205402543
55.2244101285283
55.2197992342776
55.2151878553319
55.2105759895158
55.2059636346562
55.2013507885783
55.1967374491073
55.1921236140668
55.1875092812803
55.1828944485677
55.1782791137513
55.1736632746492
55.1690469290805
55.1644300748602
55.1598127098051
55.1551948317272
55.1505764384394
55.1459575277495
55.1413380974669
55.1367181453965
55.1320976693426
55.127476667106
55.122855136487
55.1182330752805
55.1136104812825
55.1089873522834
55.1043636860721
55.0997394804345
55.0951147331544
55.0904894420112
55.0858636047819
55.08123721924
55.0766102831561
55.0719827942961
55.0673547504253
55.0627261493014
55.0580969886816
55.0534672663172
55.0488369799579
55.0442061273457
55.0395747062227
55.034942714323
55.0303101493788
55.0256770091169
55.0210432912608
55.0164089935266
55.0117741136282
55.0071386492735
55.0025025981663
54.9978659580041
54.9932287264808
54.9885909012834
54.9839524800949
54.9793134605916
54.974673840446
54.9700336173228
54.9653927888834
54.9607513527804
54.9561093066631
54.9514666481731
54.9468233749478
54.942179484616
54.9375349748027
54.9328898431232
54.92824408719
54.923597704607
54.9189506929713
54.9143030498757
54.9096547728993
54.9050058596336
54.9003563076147
54.8957061144845
54.8910552776324
54.8864037949582
54.8817516632957
54.8770988815732
54.8724454446826
54.8677913549699
54.8631366014535
54.8584811960586
54.8538251127734
54.8491683859487
54.8445109576458
54.8398529053174
54.8351941158416
54.8305347334113
54.8258745686698
54.821213847922
54.8165522982718
54.8118902264162
54.8072272861334
54.8025638470739
54.7978995135099
54.7932346875042
54.7885689617149
54.7839027264585