# vtk DataFile Version 2.0
FlowField
ASCII
DATASET STRUCTURED_GRID
DIMENSIONS 400 1 200
POINTS 80000 float
0 0 0
0.08 0 0
0.16 0 0
0.24 0 0
0.32 0 0
0.4 0 0
0.48 0 0
0.56 0 0
0.64 0 0
0.72 0 0
0.8 0 0
0.88 0 0
0.96 0 0
1.04 0 0
1.12 0 0
1.2 0 0
1.28 0 0
1.36 0 0
1.44 0 0
1.52 0 0
1.6 0 0
1.68 0 0
1.76 0 0
1.84 0 0
1.92 0 0
2 0 0
2.08 0 0
2.16 0 0
2.24 0 0
2.32 0 0
2.4 0 0
2.48 0 0
2.56 0 0
2.64 0 0
2.72 0 0
2.8 0 0
2.88 0 0
2.96 0 0
3.04 0 0
3.12 0 0
3.2 0 0
3.28 0 0
3.36 0 0
3.44 0 0
3.52 0 0
3.6 0 0
3.68 0 0
3.76 0 0
3.84 0 0
3.92 0 0
4 0 0
4.08 0 0
4.16 0 0
4.24 0 0
4.32 0 0
4.4 0 0
4.48 0 0
4.56 0 0
4.64 0 0
4.72 0 0
4.8 0 0
4.88 0 0
4.96 0 0
5.04 0 0
5.12 0 0
5.2 0 0
5.28 0 0
5.36 0 0
5.44 0 0
5.52 0 0
5.6 0 0
5.68 0 0
5.76 0 0
5.84 0 0
5.92 0 0
6 0 0
6.08 0 0
6.16 0 0
6.24 0 0
6.32 0 0
6.4 0 0
6.48 0 0
6.56 0 0
6.64 0 0
6.72 0 0
6.8 0 0
6.88 0 0
6.96 0 0
7.04 0 0
7.12 0 0
7.2 0 0
7.28 0 0
7.36 0 0
7.44 0 0
7.52 0 0
7.6 0 0
7.68 0 0
7.76 0 0
7.84 0 0
7.92 0 0
8 0 0
8.08 0 0
8.16 0 0
8.24 0 0
8.32 0 0
8.4 0 0
8.48 0 0
8.56 0 0
8.64 0 0
8.72 0 0
8.8 0 0
8.88 0 0
8.96 0 0
9.04 0 0
9.12 0 0
9.2 0 0
9.28 0 0
9.36 0 0
9.44 0 0
9.52 0 0
9.6 0 0
9.68 0 0
9.76 0 0
9.84 0 0
9.92 0 0
10 0 0
10.08 0 0
10.16 0 0
10.24 0 0
10.32 0 0
10.4 0 0
10.48 0 0
10.56 0 0
10.64 0 0
10.72 0 0
10.8 0 0
10.88 0 0
10.96 0 0
11.04 0 0
11.12 0 0
11.2 0 0
11.28 0 0
11.36 0 0
11.44 0 0
11.52 0 0
11.6 0 0
11.68 0 0
11.76 0 0
11.84 0 0
11.92 0 0
12 0 0
12.08 0 0
12.16 0 0
12.24 0 0
12.32 0 0
12.4 0 0
12.48 0 0
12.56 0 0
12.64 0 0
12.72 0 0
12.8 0 0
12.88 0 0
12.96 0 0
13.04 0 0
13.12 0 0
13.2 0 0
13.28 0 0
13.36 0 0
13.44 0 0
13.52 0 0
13.6 0 0
13.68 0 0
13.76 0 0
13.84 0 0
13.92 0 0
14 0 0
14.08 0 0
14.16 0 0
14.24 0 0
14.32 0 0
14.4 0 0
14.48 0 0
14.56 0 0
14.64 0 0
14.72 0 0
14.8 0 0
14.88 0 0
14.96 0 0
15.04 0 0
15.12 0 0
15.2 0 0
15.28 0 0
15.36 0 0
15.44 0 0
15.52 0 0
15.6 0 0
15.68 0 0
15.76 0 0
15.84 0 0
15.92 0 0
16 0 0
16.08 0 0
16.16 0 0
16.24 0 0
16.32 0 0
16.4 0 0
16.48 0 0
16.56 0 0
16.64 0 0
16.72 0 0
16.8 0 0
16.88 0 0
16.96 0 0
17.04 0 0
17.12 0 0
17.2 0 0
17.28 0 0
17.36 0 0
17.44 0 0
17.52 0 0
17.6 0 0
17.68 0 0
17.76 0 0
17.84 0 0
17.92 0 0
18 0 0
18.08 0 0
18.16 0 0
18.24 0 0
18.32 0 0
18.4 0 0
18.48 0 0
18.56 0 0
18.64 0 0
18.72 0 0
18.8 0 0
18.88 0 0
18.96 0 0
19.04 0 0
19.12 0 0
19.2 0 0
19.28 0 0
19.36 0 0
19.44 0 0
19.52 0 0
19.6 0 0
19.68 0 0
19.76 0 0
19.84 0 0
19.92 0 0
20 0 0
20.08 0 0
20.16 0 0
20.24 0 0
20.32 0 0
20.4 0 0
20.48 0 0
20.56 0 0
20.64 0 0
20.72 0 0
20.8 0 0
20.88 0 0
20.96 0 0
21.04 0 0
21.12 0 0
21.2 0 0
21.28 0 0
21.36 0 0
21.44 0 0
21.52 0 0
21.6 0 0
21.68 0 0
21.76 0 0
21.84 0 0
21.92 0 0
22 0 0
22.08 0 0
22.16 0 0
22.24 0 0
22.32 0 0
22.4 0 0
22.48 0 0
22.56 0 0
22.64 0 0
22.72 0 0
22.8 0 0
22.88 0 0
22.96 0 0
23.04 0 0
23.12 0 0
23.2 0 0
23.28 0 0
23.36 0 0
23.44 0 0
23.52 0 0
23.6 0 0
23.68 0 0
23.76 0 0
23.84 0 0
23.92 0 0
24 0 0
24.08 0 0
24.16 0 0
24.24 0 0
24.32 0 0
24.4 0 0
24.48 0 0
24.56 0 0
24.64 0 0
24.72 0 0
24.8 0 0
24.88 0 0
24.96 0 0
25.04 0 0
25.12 0 0
25.2 0 0
25.28 0 0
25.36 0 0
25.44 0 0
25.52 0 0
25.6 0 0
25.68 0 0
25.76 0 0
25.84 0 0
25.92 0 0
26 0 0
26.08 0 0
26.16 0 0
26.24 0 0
26.32 0 0
26.4 0 0
26.48 0 0
26.56 0 0
26.64 0 0
26.72 0 0
26.8 0 0
26.88 0 0
26.96 0 0
27.04 0 0
27.12 0 0
27.2 0 0
27.28 0 0
27.36 0 0
27.44 0 0
27.52 0 0
27.6 0 0
27.68 0 0
27.76 0 0
27.84 0 0
27.92 0 0
28 0 0
28.08 0 0
28.16 0 0
28.24 0 0
28.32 0 0
28.4 0 0
28.48 0 0
28.56 0 0
28.64 0 0
28.72 0 0
28.8 0 0
28.88 0 0
28.96 0 0
29.04 0 0
29.12 0 0
29.2 0 0
29.28 0 0
29.36 0 0
29.44 0 0
29.52 0 0
29.6 0 0
29.68 0 0
29.76 0 0
29.84 0 0
29.92 0 0
30 0 0
30.08 0 0
30.16 0 0
30.24 0 0
30.32 0 0
30.4 0 0
30.48 0 0
30.56 0 0
30.64 0 0
30.72 0 0
30.8 0 0
30.88 0 0
30.96 0 0
31.04 0 0
31.12 0 0
31.2 0 0
31.28 0 0
31.36 0 0
31.44 0 0
31.52 0 0
31.6 0 0
31.68 0 0
31.76 0 0
31.84 0 0
31.92 0 0
0 0.005 0
0.08 0.005 0
0.16 0.005 0
0.24 0.005 0
0.32 0.005 0
0.4 0.005 0
0.48 0.005 0
0.56 0.005 0
0.64 0.005 0
0.72 0.005 0
0.8 0.005 0
0.88 0.005 0
0.96 0.005 0
1.04 0.005 0
1.12 0.005 0
1.2 0.005 0
1.28 0.005 0
1.36 0.005 0
1.44 0.005 0
1.52 0.005 0
1.6 0.005 0
1.68 0.005 0
1.76 0.005 0
1.84 0.005 0
1.92 0.005 0
2 0.005 0
2.08 0.005 0
2.16 0.005 0
2.24 0.005 0
2.32 0.005 0
2.4 0.005 0
2.48 0.005 0
2.56 0.005 0
2.64 0.005 0
2.72 0.005 0
2.8 0.005 0
2.88 0.005 0
2.96 0.005 0
3.04 0.005 0
3.12 0.005 0
3.2 0.005 0
3.28 0.005 0
3.36 0.005 0
3.44 0.005 0
3.52 0.005 0
3.6 0.005 0
3.68 0.005 0
3.76 0.005 0
3.84 0.005 0
3.92 0.005 0
4 0.005 0
4.08 0.005 0
4.16 0.005 0
4.24 0.005 0
4.32 0.005 0
4.4 0.005 0
4.48 0.005 0
4.56 0.005 0
4.64 0.005 0
4.72 0.005 0
4.8 0.005 0
4.88 0.005 0
4.96 0.005 0
5.04 0.005 0
5.12 0.005 0
5.2 0.005 0
5.28 0.005 0
5.36 0.005 0
5.44 0.005 0
5.52 0.005 0
5.6 0.005 0
5.68 0.005 0
5.76 0.005 0
5.84 0.005 0
5.92 0.005 0
6 0.005 0
6.08 0.005 0
6.16 0.005 0
6.24 0.005 0
6.32 0.005 0
6.4 0.005 0
6.48 0.005 0
6.56 0.005 0
6.64 0.005 0
6.72 0.005 0
6.8 0.005 0
6.88 0.005 0
6.96 0.005 0
7.04 0.005 0
7.12 0.005 0
7.2 0.005 0
7.28 0.005 0
7.36 0.005 0
7.44 0.005 0
7.52 0.005 0
7.6 0.005 0
7.68 0.005 0
7.76 0.005 0
7.84 0.005 0
7.92 0.005 0
8 0.005 0
8.08 0.005 0
8.16 0.005 0
8.24 0.005 0
8.32 0.005 0
8.4 0.005 0
8.48 0.005 0
8.56 0.005 0
8.64 0.005 0
8.72 0.005 0
8.8 0.005 0
8.88 0.005 0
8.96 0.005 0
9.04 0.005 0
9.12 0.005 0
9.2 0.005 0
9.28 0.005 0
9.36 0.005 0
9.44 0.005 0
9.52 0.005 0
9.6 0.005 0
9.68 0.005 0
9.76 0.005 0
9.84 0.005 0
9.92 0.005 0
10 0.005 0
10.08 0.005 0
10.16 0.005 0
10.24 0.005 0
10.32 0.005 0
10.4 0.005 0
10.48 0.005 0
10.56 0.005 0
10.64 0.005 0
10.72 0.005 0
10.8 0.005 0
10.88 0.005 0
10.96 0.005 0
11.04 0.005 0
11.12 0.005 0
11.2 0.005 0
11.28 0.005 0
11.36 0.005 0
11.44 0.005 0
11.52 0.005 0
11.6 0.005 0
11.68 0.005 0
11.76 0.005 0
11.84 0.005 0
11.92 0.005 0
12 0.005 0
12.08 0.005 0
12.16 0.005 0
12.24 0.005 0
12.32 0.005 0
12.4 0.005 0
12.48 0.005 0
12.56 0.005 0
12.64 0.005 0
12.72 0.005 0
12.8 0.005 0
12.88 0.005 0
12.96 0.005 0
13.04 0.005 0
13.12 0.005 0
13.2 0.005 0
13.28 0.005 0
13.36 0.005 0
13.44 0.005 0
13.52 0.005 0
13.6 0.005 0
13.68 0.005 0
13.76 0.005 0
13.84 0.005 0
13.92 0.005 0
14 0.005 0
14.08 0.005 0
14.16 0.005 0
14.24 0.005 0
14.32 0.005 0
14.4 0.005 0
14.48 0.005 0
14.56 0.005 0
14.64 0.005 0
14.72 0.005 0
14.8 0.005 0
14.88 0.005 0
14.96 0.005 0
15.04 0.005 0
15.12 0.005 0
15.2 0.005 0
15.28 0.005 0
15.36 0.005 0
15.44 0.005 0
15.52 0.005 0
15.6 0.005 0
15.68 0.005 0
15.76 0.005 0
15.84 0.005 0
15.92 0.005 0
16 0.005 0
16.08 0.005 0
16.16 0.005 0
16.24 0.005 0
16.32 0.005 0
16.4 0.005 0
16.48 0.005 0
16.56 0.005 0
16.64 0.005 0
16.72 0.005 0
16.8 0.005 0
16.88 0.005 0
16.96 0.005 0
17.04 0.005 0
17.12 0.005 0
17.2 0.005 0
17.28 0.005 0
17.36 0.005 0
17.44 0.005 0
17.52 0.005 0
17.6 0.005 0
17.68 0.005 0
17.76 0.005 0
17.84 0.005 0
17.92 0.005 0
18 0.005 0
18.08 0.005 0
18.16 0.005 0
18.24 0.005 0
18.32 0.005 0
18.4 0.005 0
18.48 0.005 0
18.56 0.005 0
18.64 0.005 0
18.72 0.005 0
18.8 0.005 0
18.88 0.005 0
18.96 0.005 0
19.04 0.005 0
19.12 0.005 0
19.2 0.005 0
19.28 0.005 0
19.36 0.005 0
19.44 0.005 0
19.52 0.005 0
19.6 0.005 0
19.68 0.005 0
19.76 0.005 0
19.84 0.005 0
19.92 0.005 0
20 0.005 0
20.08 0.005 0
20.16 0.005 0
20.24 0.005 0
20.32 0.005 0
20.4 0.005 0
20.48 0.005 0
20.56 0.005 0
20.64 0.005 0
20.72 0.005 0
20.8 0.005 0
20.88 0.005 0
20.96 0.005 0
21.04 0.005 0
21.12 0.005 0
21.2 0.005 0
21.28 0.005 0
21.36 0.005 0
21.44 0.005 0
21.52 0.005 0
21.6 0.005 0
21.68 0.005 0
21.76 0.005 0
21.84 0.005 0
21.92 0.005 0
22 0.005 0
22.08 0.005 0
22.16 0.005 0
22.24 0.005 0
22.32 0.005 0
22.4 0.005 0
22.48 0.005 0
22.56 0.005 0
22.64 0.005 0
22.72 0.005 0
22.8 0.005 0
22.88 0.005 0
22.96 0.005 0
23.04 0.005 0
23.12 0.005 0
23.2 0.005 0
23.28 0.005 0
23.36 0.005 0
23.44 0.005 0
23.52 0.005 0
23.6 0.005 0
23.68 0.005 0
23.76 0.005 0
23.84 0.005 0
23.92 0.005 0
24 0.005 0
24.08 0.005 0
24.16 0.005 0
24.24 0.005 0
24.32 0.005 0
24.4 0.005 0
24.48 0.005 0
24.56 0.005 0
24.64 0.005 0
24.72 0.005 0
24.8 0.005 0
24.88 0.005 0
24.96 0.005 0
25.04 0.005 0
25.12 0.005 0
25.2 0.005 0
25.28 0.005 0
25.36 0.005 0
25.44 0.005 0
25.52 0.005 0
25.6 0.005 0
25.68 0.005 0
25.76 0.005 0
25.84 0.005 0
25.92 0.005 0
26 0.005 0
26.08 0.005 0
26.16 0.005 0
26.24 0.005 0
26.32 0.005 0
26.4 0.005 0
26.48 0.005 0
26.56 0.005 0
26.64 0.005 0
26.72 0.005 0
26.8 0.005 0
26.88 0.005 0
26.96 0.005 0
27.04 0.005 0
27.12 0.005 0
27.2 0.005 0
27.28 0.005 0
27.36 0.005 0
27.44 0.005 0
27.52 0.005 0
27.6 0.005 0
27.68 0.005 0
27.76 0.005 0
27.84 0.005 0
27.92 0.005 0
28 0.005 0
28.08 0.005 0
28.16 0.005 0
28.24 0.005 0
28.32 0.005 0
28.4 0.005 0
28.48 0.005 0
28.56 0.005 0
28.64 0.005 0
28.72 0.005 0
28.8 0.005 0
28.88 0.005 0
28.96 0.005 0
29.04 0.005 0
29.12 0.005 0
29.2 0.005 0
29.28 0.005 0
29.36 0.005 0
29.44 0.005 0
29.52 0.005 0
29.6 0.005 0
29.68 0.005 0
29.76 0.005 0
29.84 0.005 0
29.92 0.005 0
30 0.005 0
30.08 0.005 0
30.16 0.005 0
30.24 0.005 0
30.32 0.005 0
30.4 0.005 0
30.48 0.005 0
30.56 0.005 0
30.64 0.005 0
30.72 0.005 0
30.8 0.005 0
30.88 0.005 0
30.96 0.005 0
31.04 0.005 0
31.12 0.005 0
31.2 0.005 0
31.28 0.005 0
31.36 0.005 0
31.44 0.005 0
31.52 0.005 0
31.6 0.005 0
31.68 0.005 0
31.76 0.005 0
31.84 0.005 0
31.92 0.005 0
0 0.01 0
0.08 0.01 0
0.16 0.01 0
0.24 0.01 0
0.32 0.01 0
0.4 0.01 0
0.48 0.01 0
0.56 0.01 0
0.64 0.01 0
0.72 0.01 0
0.8 0.01 0
0.88 0.01 0
0.96 0.01 0
1.04 0.01 0
1.12 0.01 0
1.2 0.01 0
1.28 0.01 0
1.36 0.01 0
1.44 0.01 0
1.52 0.01 0
1.6 0.01 0
1.68 0.01 0
1.76 0.01 0
1.84 0.01 0
1.92 0.01 0
2 0.01 0
2.08 0.01 0
2.16 0.01 0
2.24 0.01 0
2.32 0.01 0
2.4 0.01 0
2.48 0.01 0
2.56 0.01 0
2.64 0.01 0
2.72 0.01 0
2.8 0.01 0
2.88 0.01 0
2.96 0.01 0
3.04 0.01 0
3.12 0.01 0
3.2 0.01 0
3.28 0.01 0
3.36 0.01 0
3.44 0.01 0
3.52 0.01 0
3.6 0.01 0
3.68 0.01 0
3.76 0.01 0
3.84 0.01 0
3.92 0.01 0
4 0.01 0
4.08 0.01 0
4.16 0.01 0
4.24 0.01 0
4.32 0.01 0
4.4 0.01 0
4.48 0.01 0
4.56 0.01 0
4.64 0.01 0
4.72 0.01 0
4.8 0.01 0
4.88 0.01 0
4.96 0.01 0
5.04 0.01 0
5.12 0.01 0
[...]
POINT_DATA 80000

SCALARS p float 1
LOOKUP_TABLE default
1
56.7295552043088
56.4280022306547
56.3869061763973
56.3667842556117
56.3522412823469
56.3400249270197
56.3289793230344
56.3185970258297
56.3086249334513
56.2989337186831
56.2894673542197
56.2802005562789
56.2711026335843
56.2621384528675
56.2533051740693
56.2446594429458
56.2362956698719
56.2282851522399
56.2206236247742
56.2132265258051
56.2059712111308
56.1987528493874
56.1915194007153
56.1842730585133
56.1770480364112
56.1698830846207
56.1628024266441
56.1558094160728
56.1488901159736
56.1420214054058
56.1351789882116
56.1283428074575
56.1214993623189
56.1146416306611
56.1077676894153
56.1008789752593
56.0939787623767
56.0870710850389
56.0801601011533
56.0732497881043
56.0663438438176
56.0594456917661
56.0525585243053
56.0456853501165
56.0388290314759
56.0319923087848
56.0251778140626
56.0183880769384
56.0116255258154
56.0048924866511
55.9981911804628
55.9915237206643
55.9848921103768
55.9782982402219
55.9717438863821
55.9652307092585
55.9587602524172
55.9523339421077
55.9459530870376
55.939618878673
55.9333323917626
55.9270945853436
55.9209063039327
55.914768279167
55.9086811315899
55.9026453728544
55.8966614080365
55.8907295383274
55.8848499638016
55.8790227865264
55.8732480137159
55.8675255611832
55.8618552568054
55.8562368442496
55.8506699866748
55.8451542706619
55.8396892100808
55.8342742501593
55.8289087714438
55.823592093939
55.818323481108
55.8131021440159
55.807927245308
55.8027979033017
55.7977131958929
55.7926721645436
55.7876738180654
55.7827171364592
55.7778010745362
55.7729245655713
55.7680865247195
55.7632858524585
55.7585214377691
55.753792161336
55.7490968984748
55.744434522073
55.739803905244
55.7352039239895
55.7306334595798
55.7260914009256
55.7215766466747
55.717088107299
55.7126247068999
55.7081853850183
55.7037690981524
55.6993748212911
55.6950015491617
55.6906482974916
55.6863141039978
55.6819980293926
55.6776991581281
55.6734165991626
55.6691494864748
55.6648969796131
55.6606582639957
55.6564325512608
55.6522190793762
55.6480171128066
55.6438259424553
55.6396448856704
55.6354732860382
55.6313105132489
55.6271559627604
55.6230090555473
55.6188692376551
55.6147359798501
55.6106087770824
55.6064871480563
55.6023706346224
55.5982588012848
55.5941512345378
55.5900475423278
55.5859473533479
55.5818503164691
55.5777561000122
55.5736643911552
55.5695748951953
55.5654873349494
55.5614014500117
55.5573169961583
55.5532337446122
55.5491514814584
55.5450700069259
55.5409891348174
55.5369086918154
55.532828516938
55.528748460867
55.5246683854348
55.5205881629831
55.5165076758822
55.512426815922
55.5083454838662
55.5042635888767
55.5001810481063
55.4960977861594
55.4920137347188
55.4879288320431
55.483843022631
55.4797562567546
55.475668490159
55.4715796836333
55.4674898027385
55.4633988174188
55.4593067017625
55.4552134336401
55.4511189945039
55.4470233690514
55.4429265450564
55.438828513062
55.4347292662365
55.4306288000984
55.4265271123908
55.4224242028359
55.4183200730334
55.4142147262312
55.4101081672504
55.4060004022772
55.4018914388051
55.3977812854442
55.3936699518801
55.3895574487033
55.3854437873829
55.3813289801077
55.3772130397752
55.3730959798454
55.3689778143442
55.3648585577265
55.36073822489
55.3566168310491
55.3524943917576
55.3483709227921
55.3442464401831
55.3401209601039
55.3359944989118
55.3318670730405
55.3277386990478
55.3236093935162
55.3194791731035
55.3153480544493
55.3112160542285
55.3070831890626
55.3029494755772
55.2988149303174
55.2946795698073
55.2905434104683
55.2864064686821
55.2822687607096
55.2781303027589
55.2739911109037
55.2698512011539
55.265710589377
55.2615692913674
55.2574273227715
55.2532846991578
55.2491414359421
55.2449975484586
55.2408530518881
55.2367079613275
55.2325622917192
55.2284160579234
55.2242692746442
55.2201219565046
55.2159741179753
55.2118257734468
55.2076769371583
55.2035276232708
55.1993778457979
55.1952276186799
55.1910769557107
55.1869258706143
55.1827743769718
55.1786224882975
55.1744702179686
55.1703175792993
55.1661645854671
55.1620112495924
55.1578575846648
55.1537036036182
55.1495493192605
55.1453947443476
55.1412398915129
55.1370847733437
55.1329294023075
55.1287737908287
55.1246179512167
55.120461895741
55.1163056365621
55.1121491858026
55.1079925554794
55.1038357575768
55.0996788039757
55.0955217065288
55.0913644769886
55.0872071270834
55.0830496684452
55.0788921126835
55.0747344713174
55.0705767558455
55.0664189776784
55.0622611482124
55.0581032787563
55.0539453806083
55.049787464985
55.0456295430924
55.0414716260584
55.0373137250049
55.033155850978
55.0289980150202
55.0248402281019
55.0206825011928
55.0165248451936
55.0123672710066
55.0082097894681
55.0040524114186
54.9998951476352
54.995738008905
54.9915810059492
54.9874241495044
54.9832674502453
54.979110918862
54.9749545659875
54.9707984022704
54.9666424383069
54.9624866847108
54.9583311520438
54.9541758508913
54.9500207917873
54.9458659852908
54.9417114419134
54.9375571721931
54.9334031866226
54.9292494957247
54.9250961099788
54.9209430398953
54.9167902959451
54.912637888632
54.9084858284205
54.9043341258129
54.900182791273
54.8960318353043
54.891881268376
54.8877311009959
54.8835813436416
54.8794320068313
54.8752831010545
54.8711346368446
54.8669866247062
54.862839075191
54.8586919988244
54.8545454061807
54.8503993078094
54.8462537143103
54.8421086362622
54.8379640842951
54.8338200690193
54.8296766010992
54.8255336911812
54.821391349968
54.817249588146
54.8131084164596
54.8089678456387
54.8048278864746
54.8006885497452
54.7965498462896
54.792411786938
54.7882743825844
54.7841376441133
54.7800015824764
54.7758662086182
54.7717315335508
54.7675975682824
54.7634643238901
54.7593318114486
54.7552000421058
54.7510690270063
54.7469387773703
54.7428093044191
54.7386806194485
54.7345527337581
54.730425658725
54.7262994057319
54.7221739862404
54.7180494117179
54.7139256937151
54.7098028437906
54.7056808735867
54.7015597947557
54.6974396190352
54.6933203581752
54.6892020240135
54.6850846284011
54.6809681832776
54.6768527005993
54.6727381924139
54.6686246707847
54.6645121478682
54.6604006358412
54.6562901469737
54.6521806935575
54.6480722879798
54.6439649426514
54.6398586700804
54.6357534828017
54.6316493934466
54.6275464146771
54.6234445592525
54.6193438399734
54.6152442697098
54.6111458614677
54.6070486280603
54.6029525831705
54.598857738352
54.5947641109584
54.5906717042395
54.586580555021
54.5824906247092
54.5784020367426
54.5743145845835
54.5702286987777
54.5661436489109
54.5620606955694
54.5579778985682
54.5538981219878
54.5498175223504
54.545740936625
54.5416627993951
54.537589115423
54.5335138127991
54.529442866558
54.5253705246325
54.5213019955268
54.5172336892725
54.5131652438056
54.5091039942565
54.5050332785597
54.5009788164048
54.4969079176585
54.4928931442958
0.5
56.7295552043088
56.7295552043088
56.4280022306547
56.3869061763973
56.3667842556117
56.3522412823469
56.3400249270197
56.3289793230344
56.3185970258297
56.3086249334513
56.2989337186831
56.2894673542197
56.2802005562789
56.2711026335843
56.2621384528675
56.2533051740693
56.2446594429458
56.2362956698719
56.2282851522399
56.2206236247742
56.2132265258051
56.2059712111308
56.1987528493874
56.1915194007153
56.1842730585133
56.1770480364112
56.1698830846207
56.1628024266441
56.1558094160728
56.1488901159736
56.1420214054058
56.1351789882116
56.1283428074575
56.1214993623189
56.1146416306611
56.1077676894153
56.1008789752593
56.0939787623767
56.0870710850389
56.0801601011533
56.0732497881043
56.0663438438176
56.0594456917661
56.0525585243053
56.0456853501165
56.0388290314759
56.0319923087848
56.0251778140626
56.0183880769384
56.0116255258154
56.0048924866511
55.9981911804628
55.9915237206643
55.9848921103768
55.9782982402219
55.9717438863821
55.9652307092585
55.9587602524172
55.9523339421077
55.9459530870376
55.939618878673
55.9333323917626
55.9270945853436
55.9209063039327
55.914768279167
55.9086811315899
55.9026453728544
55.8966614080365
55.8907295383274
55.8848499638016
55.8790227865264
55.8732480137159
55.8675255611832
55.8618552568054
55.8562368442496
55.8506699866748
55.8451542706619
55.8396892100808
55.8342742501593
55.8289087714438
55.823592093939
55.818323481108
55.8131021440159
55.807927245308
55.8027979033017
55.7977131958929
55.7926721645436
55.7876738180654
55.7827171364592
55.7778010745362
55.7729245655713
55.7680865247195
55.7632858524585
55.7585214377691
55.753792161336
55.7490968984748
55.744434522073
55.739803905244
55.7352039239895
55.7306334595798
55.7260914009256
55.7215766466747
55.717088107299
55.7126247068999
55.7081853850183
55.7037690981524
55.6993748212911
55.6950015491617
55.6906482974916
55.6863141039978
55.6819980293926
55.6776991581281
55.6734165991626
55.6691494864748
55.6648969796131
55.6606582639957
55.6564325512608
55.6522190793762
55.6480171128066
55.6438259424553
55.6396448856704
55.6354732860382
55.6313105132489
55.6271559627604
55.6230090555473
55.6188692376551
55.6147359798501
55.6106087770824
55.6064871480563
55.6023706346224
55.5982588012848
55.5941512345378
55.5900475423278
55.5859473533479
55.5818503164691
55.5777561000122
55.5736643911552
55.5695748951953
55.5654873349494
55.5614014500117
55.5573169961583
55.5532337446122
55.5491514814584
55.5450700069259
55.5409891348174
55.5369086918154
55.532828516938
55.528748460867
55.5246683854348
55.5205881629831
55.5165076758822
55.512426815922
55.5083454838662
55.5042635888767
55.5001810481063
55.4960977861594
55.4920137347188
55.4879288320431
55.483843022631
55.4797562567546
55.475668490159
55.4715796836333
55.4674898027385
55.4633988174188
55.4593067017625
55.4552134336401
55.4511189945039
55.4470233690514
55.4429265450564
55.438828513062
55.4347292662365
55.4306288000984
55.4265271123908
55.4224242028359
55.4183200730334
55.4142147262312
55.4101081672504
55.4060004022772
55.4018914388051
55.3977812854442
55.3936699518801
55.3895574487033
55.3854437873829
55.3813289801077
55.3772130397752
55.3730959798454
55.3689778143442
55.3648585577265
55.36073822489
55.3566168310491
55.3524943917576
55.3483709227921
55.3442464401831
55.3401209601039
55.3359944989118
55.3318670730405
55.3277386990478
55.3236093935162
55.3194791731035
55.3153480544493
55.3112160542285
55.3070831890626
55.3029494755772
55.2988149303174
55.2946795698073
55.2905434104683
55.2864064686821
55.2822687607096
55.2781303027589
55.2739911109037
55.2698512011539
55.265710589377
55.2615692913674
55.2574273227715
55.2532846991578
55.2491414359421
55.2449975484586
55.2408530518881
55.2367079613275
55.2325622917192
55.2284160579234
55.2242692746442
55.2201219565046
55.2159741179753
55.2118257734468
55.2076769371583
55.2035276232708
55.1993778457979
55.1952276186799
55.1910769557107
55.1869258706143
55.1827743769718
55.1786224882975
55.1744702179686
55.1703175792993
55.1661645854671
55.1620112495924
55.1578575846648
55.1537036036182
55.1495493192605
55.1453947443476
55.1412398915129
55.1370847733437
55.1329294023075
55.1287737908287
55.1246179512167
55.120461895741
55.1163056365621
55.1121491858026
55.1079925554794
55.1038357575768
55.0996788039757
55.0955217065288
55.0913644769886
55.0872071270834
55.0830496684452
55.0788921126835
55.0747344713174
55.0705767558455
55.0664189776784
55.0622611482124
55.0581032787563
55.0539453806083
55.049787464985
55.0456295430924
55.0414716260584
55.0373137250049
55.033155850978
55.0289980150202
55.0248402281019
55.0206825011928
55.0165248451936
55.0123672710066
55.0082097894681
55.0040524114186
54.9998951476352
54.995738008905
54.9915810059492
54.9874241495044
54.9832674502453
54.979110918862
54.9749545659875
54.9707984022704
54.9666424383069
54.9624866847108
54.9583311520438
54.9541758508913
54.9500207917873
54.9458659852908
54.9417114419134
54.9375571721931
54.9334031866226
54.9292494957247
54.9250961099788
54.9209430398953
54.9167902959451
54.912637888632
54.9084858284205
54.9043341258129
54.900182791273
54.8960318353043
54.891881268376
54.8877311009959
54.8835813436416
54.8794320068313
54.8752831010545
54.8711346368446
54.8669866247062
54.862839075191
54.8586919988244
54.8545454061807
54.8503993078094
54.8462537143103
54.8421086362622
54.8379640842951
54.8338200690193
54.8296766010992
54.8255336911812
54.821391349968
54.817249588146
54.8131084164596
54.8089678456387
54.8048278864746
54.8006885497452
54.7965498462896
54.792411786938
54.7882743825844
54.7841376441133
54.7800015824764
54.7758662086182
54.7717315335508
54.7675975682824
54.7634643238901
54.7593318114486
54.7552000421058
54.7510690270063
54.7469387773703
54.7428093044191
54.7386806194485
54.7345527337581
54.730425658725
54.7262994057319
54.7221739862404
54.7180494117179
54.7139256937151
54.7098028437906
54.7056808735867
54.7015597947557
54.6974396190352
54.6933203581752
54.6892020240135
54.6850846284011
54.6809681832776
54.6768527005993
54.6727381924139
54.6686246707847
54.6645121478682
54.6604006358412
54.6562901469737
54.6521806935575
54.6480722879798
54.6439649426514
54.6398586700804
54.6357534828017
54.6316493934466
54.6275464146771
54.6234445592525
54.6193438399734
54.6152442697098
54.6111458614677
54.6070486280603
54.6029525831705
54.598857738352
54.5947641109584
54.5906717042395
54.586580555021
54.5824906247092
54.5784020367426
54.5743145845835
54.5702286987777
54.5661436489109
54.5620606955694
54.5579778985682
54.5538981219878
54.5498175223504
54.545740936625
54.5416627993951
54.537589115423
54.5335138127991
54.529442866558
54.5253705246325
54.5213019955268
54.5172336892725
54.5131652438056
54.5091039942565
54.5050332785597
54.5009788164048
54.4969079176585
54.4928931442958
54.4928931442958
56.7149879492913
56.7149879492913
56.4318489644292
56.3881720338952
56.3674297365456
56.3526459307734
56.3403066535585
56.329188596304
56.318759742492
56.3087560226499
56.299042277717
56.2895590328936
56.2802791503545
56.2711710959285
56.262199094269
56.2533593483268
56.2447074173326
56.2363370778244
56.2283197857788
56.2206520064036
56.2132499171076
56.2059911661776
56.1987706889811
56.1915359204295
56.1842885439319
56.1770624674122
56.1698963644565
56.1628145311363
56.1558204402923
56.1489002481458
56.1420308716279
56.1351880013609
56.1283515360892
56.1215079209723
56.114650085277
56.107776069876
56.100887288783
56.0939870043577
56.0870792462846
56.0801681719305
56.0732577599193
56.0663517098831
56.059453446831
56.0525661642877
56.0456928717322
56.0388364319591
56.0319995856921
56.0251849651619
56.0183951001409
56.0116324191502
56.0048992482488
55.9981978085581
55.9915302135954
55.9848984665937
55.9783044582882
55.9717499649841
55.9652366472055
55.9587660486498
55.9523395956971
55.9459585971927
55.9396242447383
55.9333376132245
55.9270996618275
55.9209112352076
55.914773065142
55.9086857723181
55.9026498685283
55.8966657589909
55.8907337450336
55.88485402687
55.8790267066998
55.873251791871
55.8675291983234
55.8618587540614
55.8562402028715
55.8506732080323
55.8451573562356
55.8396921614618
55.8342770690403
55.8289114596181
55.823594653291
55.8183259136118
55.8131044517262
55.807929430358
55.8027999678934
55.7977151422955
55.7926739950835
55.7876755351243
55.7827187424646
55.7778025719592
55.7729259569169
55.7680878125252
55.7632870392845
55.7585225261969
55.7537931539592
55.7490977978973
55.7444353309006
55.7398046260833
55.7352045594391
55.7306340122299
55.7260918733496
55.7215770414292
55.7170884269154
55.7126249538859
55.7081855618487
55.7037692072718
55.6993748651051
55.6950015300394
55.6906482177584
55.6863139659371
55.68199783524
55.6776989100731
55.6734162993431
55.6691491369799
55.6648965824772
55.6606578212022
55.6564320647364
55.6522185509949
55.648016544385
55.6438253357559
55.6396442423977
55.635472607843
55.6313098017239
55.6271552194446
55.6230082819225
55.6188684351503
55.6147351498383
55.6106079208849
55.6064862669401
55.6023697298048
55.5982578739302
55.5941502857632
55.5900465731992
55.5859463648865
55.5818493096473
55.5777550757599
55.5736633503564
55.5695738386938
55.5654862635459
55.5614003644694
55.5573158971998
55.5532326329253
55.5491503576934
55.5450688717005
55.5409879887147
55.5369075353887
55.5328273507084
55.5287472853287
55.5246672010522
55.5205869701961
55.5165064751033
55.512425607542
55.5083442682506
55.5042623663715
55.5001798190346
55.4960965508269
55.4920124934103
55.4879275850279
55.4838417701597
55.4797549990642
55.4756672274692
55.4715784161523
55.467488530659
55.4633975409232
55.4593054210191
55.4552121488086
55.4511177057315
55.4470220764776
55.4429252488097
55.4388272132643
55.4347279629997
55.4306274935289
55.4265258025861
55.4224228898891
55.4183187570294
55.4142134072513
55.4101068453685
55.4059990775644
55.4018901113259
55.3977799552608
55.3936686190487
55.3895561132786
55.385442449414
55.3813276396426
55.3772116968568
55.3730946345162
55.3689764666419
55.3648572076885
55.3607368725494
55.3566154764391
55.3524930349077
55.3483695637317
55.3442450789382
55.340119596701
55.3359931333739
55.3318657053915
55.3277373293081
55.3236080217074
55.3194777992439
55.3153466785585
55.3112146763231
55.3070818091602
55.3029480936928
55.2988135464673
55.294678184005
55.2905420227288
55.2864050790176
55.2822673691341
55.2781289092834
55.2739897155411
55.2698498039145
55.2657091902726
55.2615678904075
55.2574259199671
55.2532832945175
55.2491400294764
55.2449961401754
55.2408516417972
55.2367065494361
55.2325608780365
55.2284146424561
55.224267857401
55.2201205374916
55.2159726972006
55.2118243509161
55.2076755128793
55.2035261972487
55.1993764180399
55.1952261891908
55.1910755244974
55.186924437681
55.182772942325
55.1786210519411
55.1744687799087
55.1703161395395
55.166163144013
55.1620098064474
55.157856139834
55.1537021571046
55.149547871069
55.1453932944808
55.1412384399755
55.1370833201379
55.1329279474375
55.1287723342966
55.1246164930264
55.1204604358942
55.1163041750624
55.1121477226514
55.1079910906801
55.1038342911305
55.0996773358854
55.0955202367954
55.0913630056147
55.0872056540697
55.0830481937942
55.0788906363954
55.0747329933944
55.0705752762876
55.0664174964875
55.0622596653883
55.0581017943008
55.0539438945208
55.0497859772668
55.0456280537429
55.0414701350787
55.037312232394
55.0331543567369
55.0289965191476
55.0248387305985
55.020681002057
55.0165233444258
55.0123657686052
55.0082082854332
55.0040509057483
54.9998936403294
54.9957364999614
54.9915794953676
54.9874226372823
54.9832659363823
54.9791094033553
54.9749530488364
54.970796883472
54.9666409178603
54.9624851626128
54.9583296282931
54.9541743254847
54.9500192647233
54.9458644565658
54.9417099115259
54.937555640139
54.9334016529002
54.92924796033
54.9250945729096
54.9209415011475
54.9167887555163
54.9126363465177
54.9084842846181
54.9043325803177
54.9001812440824
54.8960302864133
54.8918797177815
54.8877295486929
54.8835797896268
54.8794304510993
54.875281543602
54.8711330776658
54.8669850637976
54.8628375125467
54.8586904344405
54.8545438400512
54.8503977399301
54.846252144675
54.8421070648664
54.8379625111324
54.8338184940851
54.8296750243867
54.8255321126855
54.8213897696822
54.817248006065
54.8131068325762
54.8089662599475
54.8048262989681
54.800686960418
54.7965482551337
54.7924101939478
54.7882727877519
54.7841360474324
54.7799999839388
54.7758646082177
54.7717299312788
54.7675959641323
54.7634627178531
54.7593302035179
54.7551984322723
54.751067415263
54.7469371637078
54.74280768883
54.7386790019233
54.734551114289
54.7304240373021
54.7262977823474
54.7221723608839
54.7180477843813
54.7139240643878
54.7098012124642
54.7056792402503
54.7015581594006
54.6974379816501
54.6933187187511
54.6892003825389
54.6850829848665
54.6809665376713
54.6768510529116
54.6727365426325
54.6686230188996
54.6645104938669
54.6603989797133
54.6562884887063
54.6521790331397
54.6480706253985
54.6439632778953
54.6398570031359
54.6357518136573
54.6316477220882
54.6275447410927
54.6234428834277
54.6193421618954
54.6152425893647
54.6111441788402
54.6070469431418
54.6029508959285
54.5988560488225
54.5947624189938
54.5906700101555
54.5865788580151
54.5824889265521
54.5784003335552
54.5743128842905
54.5702269858847
54.5661419519158