# vtk DataFile Version 2.0
FlowField
ASCII
DATASET STRUCTURED_GRID
DIMENSIONS 400 1 200
POINTS 80000 float
0 0 0
0.08 0 0
0.16 0 0
0.24 0 0
0.32 0 0
0.4 0 0
0.48 0 0
0.56 0 0
0.64 0 0
0.72 0 0
0.8 0 0
0.88 0 0
0.96 0 0
1.04 0 0
1.12 0 0
1.2 0 0
1.28 0 0
1.36 0 0
1.44 0 0
1.52 0 0
1.6 0 0
1.68 0 0
1.76 0 0
1.84 0 0
1.92 0 0
2 0 0
2.08 0 0
2.16 0 0
2.24 0 0
2.32 0 0
2.4 0 0
2.48 0 0
2.56 0 0
2.64 0 0
2.72 0 0
2.8 0 0
2.88 0 0
2.96 0 0
3.04 0 0
3.12 0 0
3.2 0 0
3.28 0 0
3.36 0 0
3.44 0 0
3.52 0 0
3.6 0 0
3.68 0 0
3.76 0 0
3.84 0 0
3.92 0 0
4 0 0
4.08 0 0
4.16 0 0
4.24 0 0
4.32 0 0
4.4 0 0
4.48 0 0
4.56 0 0
4.64 0 0
4.72 0 0
4.8 0 0
4.88 0 0
4.96 0 0
5.04 0 0
5.12 0 0
5.2 0 0
5.28 0 0
5.36 0 0
5.44 0 0
5.52 0 0
5.6 0 0
5.68 0 0
5.76 0 0
5.84 0 0
5.92 0 0
6 0 0
6.08 0 0
6.16 0 0
6.24 0 0
6.32 0 0
6.4 0 0
6.48 0 0
6.56 0 0
6.64 0 0
6.72 0 0
6.8 0 0
6.88 0 0
6.96 0 0
7.04 0 0
7.12 0 0
7.2 0 0
7.28 0 0
7.36 0 0
7.44 0 0
7.52 0 0
7.6 0 0
7.68 0 0
7.76 0 0
7.84 0 0
7.92 0 0
8 0 0
8.08 0 0
8.16 0 0
8.24 0 0
8.32 0 0
8.4 0 0
8.48 0 0
8.56 0 0
8.64 0 0
8.72 0 0
8.8 0 0
8.88 0 0
8.96 0 0
9.04 0 0
9.12 0 0
9.2 0 0
9.28 0 0
9.36 0 0
9.44 0 0
9.52 0 0
9.6 0 0
9.68 0 0
9.76 0 0
9.84 0 0
9.92 0 0
10 0 0
10.08 0 0
10.16 0 0
10.24 0 0
10.32 0 0
10.4 0 0
10.48 0 0
10.56 0 0
10.64 0 0
10.72 0 0
10.8 0 0
10.88 0 0
10.96 0 0
11.04 0 0
11.12 0 0
11.2 0 0
11.28 0 0
11.36 0 0
11.44 0 0
11.52 0 0
11.6 0 0
11.68 0 0
11.76 0 0
11.84 0 0
11.92 0 0
12 0 0
12.08 0 0
12.16 0 0
12.24 0 0
12.32 0 0
12.4 0 0
12.48 0 0
12.56 0 0
12.64 0 0
12.72 0 0
12.8 0 0
12.88 0 0
12.96 0 0
13.04 0 0
13.12 0 0
13.2 0 0
13.28 0 0
13.36 0 0
13.44 0 0
13.52 0 0
13.6 0 0
13.68 0 0
13.76 0 0
13.84 0 0
13.92 0 0
14 0 0
14.08 0 0
14.16 0 0
14.24 0 0
14.32 0 0
14.4 0 0
14.48 0 0
14.56 0 0
14.64 0 0
14.72 0 0
14.8 0 0
14.88 0 0
14.96 0 0
15.04 0 0
15.12 0 0
15.2 0 0
15.28 0 0
15.36 0 0
15.44 0 0
15.52 0 0
15.6 0 0
15.68 0 0
15.76 0 0
15.84 0 0
15.92 0 0
16 0 0
16.08 0 0
16.16 0 0
16.24 0 0
16.32 0 0
16.4 0 0
16.48 0 0
16.56 0 0
16.64 0 0
16.72 0 0
16.8 0 0
16.88 0 0
16.96 0 0
17.04 0 0
17.12 0 0
17.2 0 0
17.28 0 0
17.36 0 0
17.44 0 0
17.52 0 0
17.6 0 0
17.68 0 0
17.76 0 0
17.84 0 0
17.92 0 0
18 0 0
18.08 0 0
18.16 0 0
18.24 0 0
18.32 0 0
18.4 0 0
18.48 0 0
18.56 0 0
18.64 0 0
18.72 0 0
18.8 0 0
18.88 0 0
18.96 0 0
19.04 0 0
19.12 0 0
19.2 0 0
19.28 0 0
19.36 0 0
19.44 0 0
19.52 0 0
19.6 0 0
19.68 0 0
19.76 0 0
19.84 0 0
19.92 0 0
20 0 0
20.08 0 0
20.16 0 0
20.24 0 0
20.32 0 0
20.4 0 0
20.48 0 0
20.56 0 0
20.64 0 0
20.72 0 0
20.8 0 0
20.88 0 0
20.96 0 0
21.04 0 0
21.12 0 0
21.2 0 0
21.28 0 0
21.36 0 0
21.44 0 0
21.52 0 0
21.6 0 0
21.68 0 0
21.76 0 0
21.84 0 0
21.92 0 0
22 0 0
22.08 0 0
22.16 0 0
22.24 0 0
22.32 0 0
22.4 0 0
22.48 0 0
22.56 0 0
22.64 0 0
22.72 0 0
22.8 0 0
22.88 0 0
22.96 0 0
23.04 0 0
23.12 0 0
23.2 0 0
23.28 0 0
23.36 0 0
23.44 0 0
23.52 0 0
23.6 0 0
23.68 0 0
23.76 0 0
23.84 0 0
23.92 0 0
24 0 0
24.08 0 0
24.16 0 0
24.24 0 0
24.32 0 0
24.4 0 0
24.48 0 0
24.56 0 0
24.64 0 0
24.72 0 0
24.8 0 0
24.88 0 0
24.96 0 0
25.04 0 0
25.12 0 0
25.2 0 0
25.28 0 0
25.36 0 0
25.44 0 0
25.52 0 0
25.6 0 0
25.68 0 0
25.76 0 0
25.84 0 0
25.92 0 0
26 0 0
26.08 0 0
26.16 0 0
26.24 0 0
26.32 0 0
26.4 0 0
26.48 0 0
26.56 0 0
26.64 0 0
26.72 0 0
26.8 0 0
26.88 0 0
26.96 0 0
27.04 0 0
27.12 0 0
27.2 0 0
27.28 0 0
27.36 0 0
27.44 0 0
27.52 0 0
27.6 0 0
27.68 0 0
27.76 0 0
27.84 0 0
27.92 0 0
28 0 0
28.08 0 0
28.16 0 0
28.24 0 0
28.32 0 0
28.4 0 0
28.48 0 0
28.56 0 0
28.64 0 0
28.72 0 0
28.8 0 0
28.88 0 0
28.96 0 0
29.04 0 0
29.12 0 0
29.2 0 0
29.28 0 0
29.36 0 0
29.44 0 0
29.52 0 0
29.6 0 0
29.68 0 0
29.76 0 0
29.84 0 0
29.92 0 0
30 0 0
30.08 0 0
30.16 0 0
30.24 0 0
30.32 0 0
30.4 0 0
30.48 0 0
30.56 0 0
30.64 0 0
30.72 0 0
30.8 0 0
30.88 0 0
30.96 0 0
31.04 0 0
31.12 0 0
31.2 0 0
31.28 0 0
31.36 0 0
31.44 0 0
31.52 0 0
31.6 0 0
31.68 0 0
31.76 0 0
31.84 0 0
31.92 0 0
0 0.005 0
0.08 0.005 0
0.16 0.005 0
0.24 0.005 0
0.32 0.005 0
0.4 0.005 0
0.48 0.005 0
0.56 0.005 0
0.64 0.005 0
0.72 0.005 0
0.8 0.005 0
0.88 0.005 0
0.96 0.005 0
1.04 0.005 0
1.12 0.005 0
1.2 0.005 0
1.28 0.005 0
1.36 0.005 0
1.44 0.005 0
1.52 0.005 0
1.6 0.005 0
1.68 0.005 0
1.76 0.005 0
1.84 0.005 0
1.92 0.005 0
2 0.005 0
2.08 0.005 0
2.16 0.005 0
2.24 0.005 0
2.32 0.005 0
2.4 0.005 0
2.48 0.005 0
2.56 0.005 0
2.64 0.005 0
2.72 0.005 0
2.8 0.005 0
2.88 0.005 0
2.96 0.005 0
3.04 0.005 0
3.12 0.005 0
3.2 0.005 0
3.28 0.005 0
3.36 0.005 0
3.44 0.005 0
3.52 0.005 0
3.6 0.005 0
3.68 0.005 0
3.76 0.005 0
3.84 0.005 0
3.92 0.005 0
4 0.005 0
4.08 0.005 0
4.16 0.005 0
4.24 0.005 0
4.32 0.005 0
4.4 0.005 0
4.48 0.005 0
4.56 0.005 0
4.64 0.005 0
4.72 0.005 0
4.8 0.005 0
4.88 0.005 0
4.96 0.005 0
5.04 0.005 0
5.12 0.005 0
5.2 0.005 0
5.28 0.005 0
5.36 0.005 0
5.44 0.005 0
5.52 0.005 0
5.6 0.005 0
5.68 0.005 0
5.76 0.005 0
5.84 0.005 0
5.92 0.005 0
6 0.005 0
6.08 0.005 0
6.16 0.005 0
6.24 0.005 0
6.32 0.005 0
6.4 0.005 0
6.48 0.005 0
6.56 0.005 0
6.64 0.005 0
6.72 0.005 0
6.8 0.005 0
6.88 0.005 0
6.96 0.005 0
7.04 0.005 0
7.12 0.005 0
7.2 0.005 0
7.28 0.005 0
7.36 0.005 0
7.44 0.005 0
7.52 0.005 0
7.6 0.005 0
7.68 0.005 0
7.76 0.005 0
7.84 0.005 0
7.92 0.005 0
8 0.005 0
8.08 0.005 0
8.16 0.005 0
8.24 0.005 0
8.32 0.005 0
8.4 0.005 0
8.48 0.005 0
8.56 0.005 0
8.64 0.005 0
8.72 0.005 0
8.8 0.005 0
8.88 0.005 0
8.96 0.005 0
9.04 0.005 0
9.12 0.005 0
9.2 0.005 0
9.28 0.005 0
9.36 0.005 0
9.44 0.005 0
9.52 0.005 0
9.6 0.005 0
9.68 0.005 0
9.76 0.005 0
9.84 0.005 0
9.92 0.005 0
10 0.005 0
10.08 0.005 0
10.16 0.005 0
10.24 0.005 0
10.32 0.005 0
10.4 0.005 0
10.48 0.005 0
10.56 0.005 0
10.64 0.005 0
10.72 0.005 0
10.8 0.005 0
10.88 0.005 0
10.96 0.005 0
11.04 0.005 0
11.12 0.005 0
11.2 0.005 0
11.28 0.005 0
11.36 0.005 0
11.44 0.005 0
11.52 0.005 0
11.6 0.005 0
11.68 0.005 0
11.76 0.005 0
11.84 0.005 0
11.92 0.005 0
12 0.005 0
12.08 0.005 0
12.16 0.005 0
12.24 0.005 0
12.32 0.005 0
12.4 0.005 0
12.48 0.005 0
12.56 0.005 0
12.64 0.005 0
12.72 0.005 0
12.8 0.005 0
12.88 0.005 0
12.96 0.005 0
13.04 0.005 0
13.12 0.005 0
13.2 0.005 0
13.28 0.005 0
13.36 0.005 0
13.44 0.005 0
13.52 0.005 0
13.6 0.005 0
13.68 0.005 0
13.76 0.005 0
13.84 0.005 0
13.92 0.005 0
14 0.005 0
14.08 0.005 0
14.16 0.005 0
14.24 0.005 0
14.32 0.005 0
14.4 0.005 0
14.48 0.005 0
14.56 0.005 0
14.64 0.005 0
14.72 0.005 0
14.8 0.005 0
14.88 0.005 0
14.96 0.005 0
15.04 0.005 0
15.12 0.005 0
15.2 0.005 0
15.28 0.005 0
15.36 0.005 0
15.44 0.005 0
15.52 0.005 0
15.6 0.005 0
15.68 0.005 0
15.76 0.005 0
15.84 0.005 0
15.92 0.005 0
16 0.005 0
16.08 0.005 0
16.16 0.005 0
16.24 0.005 0
16.32 0.005 0
16.4 0.005 0
16.48 0.005 0
16.56 0.005 0
16.64 0.005 0
16.72 0.005 0
16.8 0.005 0
16.88 0.005 0
16.96 0.005 0
17.04 0.005 0
17.12 0.005 0
17.2 0.005 0
17.28 0.005 0
17.36 0.005 0
17.44 0.005 0
17.52 0.005 0
17.6 0.005 0
17.68 0.005 0
17.76 0.005 0
17.84 0.005 0
17.92 0.005 0
18 0.005 0
18.08 0.005 0
18.16 0.005 0
18.24 0.005 0
18.32 0.005 0
18.4 0.005 0
18.48 0.005 0
18.56 0.005 0
18.64 0.005 0
18.72 0.005 0
18.8 0.005 0
18.88 0.005 0
18.96 0.005 0
19.04 0.005 0
19.12 0.005 0
19.2 0.005 0
19.28 0.005 0
19.36 0.005 0
19.44 0.005 0
19.52 0.005 0
19.6 0.005 0
19.68 0.005 0
19.76 0.005 0
19.84 0.005 0
19.92 0.005 0
20 0.005 0
20.08 0.005 0
20.16 0.005 0
20.24 0.005 0
20.32 0.005 0
20.4 0.005 0
20.48 0.005 0
20.56 0.005 0
20.64 0.005 0
20.72 0.005 0
20.8 0.005 0
20.88 0.005 0
20.96 0.005 0
21.04 0.005 0
21.12 0.005 0
21.2 0.005 0
21.28 0.005 0
21.36 0.005 0
21.44 0.005 0
21.52 0.005 0
21.6 0.005 0
21.68 0.005 0
21.76 0.005 0
21.84 0.005 0
21.92 0.005 0
22 0.005 0
22.08 0.005 0
22.16 0.005 0
22.24 0.005 0
22.32 0.005 0
22.4 0.005 0
22.48 0.005 0
22.56 0.005 0
22.64 0.005 0
22.72 0.005 0
22.8 0.005 0
22.88 0.005 0
22.96 0.005 0
23.04 0.005 0
23.12 0.005 0
23.2 0.005 0
23.28 0.005 0
23.36 0.005 0
23.44 0.005 0
23.52 0.005 0
23.6 0.005 0
23.68 0.005 0
23.76 0.005 0
23.84 0.005 0
23.92 0.005 0
24 0.005 0
24.08 0.005 0
24.16 0.005 0
24.24 0.005 0
24.32 0.005 0
24.4 0.005 0
24.48 0.005 0
24.56 0.005 0
24.64 0.005 0
24.72 0.005 0
24.8 0.005 0
24.88 0.005 0
24.96 0.005 0
25.04 0.005 0
25.12 0.005 0
25.2 0.005 0
25.28 0.005 0
25.36 0.005 0
25.44 0.005 0
25.52 0.005 0
25.6 0.005 0
25.68 0.005 0
25.76 0.005 0
25.84 0.005 0
25.92 0.005 0
26 0.005 0
26.08 0.005 0
26.16 0.005 0
26.24 0.005 0
26.32 0.005 0
26.4 0.005 0
26.48 0.005 0
26.56 0.005 0
26.64 0.005 0
26.72 0.005 0
26.8 0.005 0
26.88 0.005 0
26.96 0.005 0
27.04 0.005 0
27.12 0.005 0
27.2 0.005 0
27.28 0.005 0
27.36 0.005 0
27.44 0.005 0
27.52 0.005 0
27.6 0.005 0
27.68 0.005 0
27.76 0.005 0
27.84 0.005 0
27.92 0.005 0
28 0.005 0
28.08 0.005 0
28.16 0.005 0
28.24 0.005 0
28.32 0.005 0
28.4 0.005 0
28.48 0.005 0
28.56 0.005 0
28.64 0.005 0
28.72 0.005 0
28.8 0.005 0
28.88 0.005 0
28.96 0.005 0
29.04 0.005 0
29.12 0.005 0
29.2 0.005 0
29.28 0.005 0
29.36 0.005 0
29.44 0.005 0
29.52 0.005 0
29.6 0.005 0
29.68 0.005 0
29.76 0.005 0
29.84 0.005 0
29.92 0.005 0
30 0.005 0
30.08 0.005 0
30.16 0.005 0
30.24 0.005 0
30.32 0.005 0
30.4 0.005 0
30.48 0.005 0
30.56 0.005 0
30.64 0.005 0
30.72 0.005 0
30.8 0.005 0
30.88 0.005 0
30.96 0.005 0
31.04 0.005 0
31.12 0.005 0
31.2 0.005 0
31.28 0.005 0
31.36 0.005 0
31.44 0.005 0
31.52 0.005 0
31.6 0.005 0
31.68 0.005 0
31.76 0.005 0
31.84 0.005 0
31.92 0.005 0
0 0.01 0
0.08 0.01 0
0.16 0.01 0
0.24 0.01 0
0.32 0.01 0
0.4 0.01 0
0.48 0.01 0
0.56 0.01 0
0.64 0.01 0
0.72 0.01 0
0.8 0.01 0
0.88 0.01 0
0.96 0.01 0
1.04 0.01 0
1.12 0.01 0
1.2 0.01 0
1.28 0.01 0
1.36 0.01 0
1.44 0.01 0
1.52 0.01 0
1.6 0.01 0
1.68 0.01 0
1.76 0.01 0
1.84 0.01 0
1.92 0.01 0
2 0.01 0
2.08 0.01 0
2.16 0.01 0
2.24 0.01 0
2.32 0.01 0
2.4 0.01 0
2.48 0.01 0
2.56 0.01 0
2.64 0.01 0
2.72 0.01 0
2.8 0.01 0
2.88 0.01 0
2.96 0.01 0
3.04 0.01 0
3.12 0.01 0
3.2 0.01 0
3.28 0.01 0
3.36 0.01 0
3.44 0.01 0
3.52 0.01 0
3.6 0.01 0
3.68 0.01 0
3.76 0.01 0
3.84 0.01 0
3.92 0.01 0
4 0.01 0
4.08 0.01 0
4.16 0.01 0
4.24 0.01 0
4.32 0.01 0
4.4 0.01 0
4.48 0.01 0
4.56 0.01 0
4.64 0.01 0
4.72 0.01 0
4.8 0.01 0
4.88 0.01 0
4.96 0.01 0
5.04 0.01 0
5.12 0.01 0
[...]
POINT_DATA 80000

SCALARS u float 1
LOOKUP_TABLE default
0
-0.131662863293812
-0.0682695101239582
-0.0522963525870187
-0.0444202849191284
-0.0395772279383287
-0.036260180673098
-0.0338331815502618
-0.0319732401079192
-0.0304965968938262
-0.0292905604960731
-0.0282822903835268
-0.0274228250412039
-0.0266782149930164
-0.0260242915456511
-0.0254434400064874
-0.0249225454448741
-0.0244516506116887
-0.0240230529182078
-0.0236306795647999
-0.0232696543071789
-0.022936006090686
-0.0226264730393108
-0.0223383526309457
-0.0220693682559054
-0.0218175582184963
-0.0215812108425565
-0.0213588478039045
-0.0211492204501119
-0.0209512759517733
-0.0207640873275434
-0.0205867886708263
-0.0204185638770716
-0.0202586922649711
-0.0201065996642733
-0.0199618536466986
-0.0198240900398727
-0.0196929227586042
-0.019567911642546
-0.0194486212831621
-0.01933473140174
-0.0192261157998504
-0.0191228275375274
-0.0190249962762409
-0.0189327067620438
-0.0188459383504426
-0.0187645980774636
-0.0186886104909881
-0.0186179863759281
-0.0185528072428107
-0.018493120941725
-0.0184388056606079
-0.018389484928783
-0.0183445506990408
-0.0183032926905715
-0.0182650756621236
-0.0182294831574331
-0.0181963658294477
-0.0181657803194643
-0.0181378541495125
-0.018112639849573
-0.0180900183033207
-0.0180696834328009
-0.0180512038887636
-0.0180341289778037
-0.0180180954374601
-0.0180028991580038
-0.0179885145179827
-0.0179750641663577
-0.0179627564319998
-0.0179518129490282
-0.0179424064434968
-0.0179346211245581
-0.0179284393770136
-0.0179237512369531
-0.0179203788807246
-0.0179181072397353
-0.0179167131645974
-0.0179159881986446
-0.0179157529066715
-0.0179158630631126
-0.0179162094639022
-0.0179167136776214
-0.0179173219115028
-0.0179179986418521
-0.0179187210186057
-0.017919474488698
-0.0179202496795974
-0.0179210403571703
-0.0179218421851427
-0.017922652020096
-0.0179234675280284
-0.017924286973731
-0.0179251090920145
-0.0179259329933499
-0.0179267580833069
-0.0179275839902887
-0.0179284105021064
-0.0179292375131192
-0.0179300649831276
-0.0179308929076213
-0.0179317212978979
-0.0179325501690963
-0.0179333795339776
-0.0179342094004679
-0.0179350397714622
-0.0179358706458049
-0.0179367020195932
-0.0179375338875405
-0.017938366243951
-0.0179391990835424
-0.017940032401812
-0.0179408661952693
-0.0179417004614423
-0.0179425351987953
-0.0179433704065264
-0.0179442060844506
-0.0179450422327803
-0.0179458788519653
-0.017946715942583
-0.0179475535052522
-0.0179483915405168
-0.0179492300488226
-0.0179500690304896
-0.0179509084856959
-0.0179517484144887
-0.0179525888167621
-0.0179534296923124
-0.0179542710408221
-0.0179551128618844
-0.0179559551550539
-0.0179567979198006
-0.0179576411555923
-0.0179584848618925
-0.0179593290381511
-0.0179601736837962
-0.0179610187983502
-0.0179618643812901
-0.0179627104321799
-0.0179635569506081
-0.0179644039361834
-0.0179652513885825
-0.0179660993075466
-0.0179669476928103
-0.0179677965441947
-0.01796864586157
-0.0179694956448262
-0.0179703458938995
-0.0179711966087883
-0.0179720477895151
-0.017972899436143
-0.0179737515487504
-0.0179746041274979
-0.0179754571725302
-0.017976310684046
-0.0179771646622606
-0.0179780191074436
-0.0179788740198474
-0.0179797293997874
-0.0179805852475707
-0.0179814415635559
-0.0179822983480903
-0.0179831556015726
-0.0179840133243978
-0.0179848715169888
-0.0179857301797803
-0.0179865893132328
-0.017987448917797
-0.0179883089939648
-0.0179891695422328
-0.0179900305631093
-0.0179908920571117
-0.0179917540247859
-0.0179926164666543
-0.0179934793832851
-0.0179943427752287
-0.0179952066430774
-0.0179960709874025
-0.0179969358088016
-0.0179978011078512
-0.0179986668851823
-0.0179995331413786
-0.0180003998770841
-0.0180012670929071
-0.0180021347894722
-0.018003002967416
-0.0180038716273725
-0.0180047407699776
-0.0180056103958872
-0.0180064805057257
-0.0180073511001542
-0.0180082221798087
-0.0180090937453556
-0.0180099657974394
-0.0180108383367125
-0.0180117113638193
-0.0180125848794252
-0.0180134588841712
-0.018014333378717
-0.0180152083636986
-0.0180160838397929
-0.0180169598076258
-0.0180178362678447
-0.0180187132211012
-0.0180195906680295
-0.0180204686092756
-0.0180213470454764
-0.0180222259772679
-0.0180231054052781
-0.0180239853301359
-0.0180248657524698
-0.0180257466729054
-0.0180266280920535
-0.0180275100105321
-0.0180283924289612
-0.0180292753479379
-0.0180301587680743
-0.0180310426899677
-0.0180319271142158
-0.018032812041414
-0.0180336974721482
-0.0180345834070081
-0.0180354698465752
-0.0180363567914193
-0.0180372442421332
-0.0180381321992781
-0.0180390206634179
-0.0180399096351143
-0.0180407991149327
-0.018041689103438
-0.0180425796011794
-0.0180434706087002
-0.018044362126557
-0.0180452541552898
-0.0180461466954439
-0.0180470397475392
-0.0180479333121467
-0.0180488273897696
-0.0180497219809469
-0.0180506170862117
-0.0180515127060856
-0.0180524088410855
-0.0180533054917376
-0.0180542026585309
-0.0180551003420168
-0.0180559985426775
-0.0180568972610168
-0.0180577964975525
-0.0180586962527745
-0.0180595965271752
-0.0180604973212558
-0.018061398635495
-0.0180623004703727
-0.0180632028263924
-0.0180641057040149
-0.0180650091037315
-0.0180659130260114
-0.0180668174713288
-0.0180677224401626
-0.0180686279329649
-0.0180695339502153
-0.0180704404923909
-0.018071347559949
-0.0180722551533462
-0.0180731632730605
-0.0180740719195437
-0.0180749810932748
-0.0180758907947099
-0.0180768010243135
-0.018077711782534
-0.0180786230698585
-0.0180795348867381
-0.0180804472336293
-0.0180813601110104
-0.0180822735193392
-0.0180831874590752
-0.0180841019307038
-0.018085016934653
-0.0180859324714254
-0.0180868485414718
-0.0180877651452729
-0.0180886822832821
-0.0180895999559795
-0.0180905181638406
-0.0180914369073382
-0.0180923561869472
-0.0180932760031512
-0.0180941963564153
-0.0180951172472392
-0.0180960386760867
-0.0180969606434713
-0.0180978831498547
-0.0180988061957458
-0.0180997297816373
-0.0181006539080114
-0.0181015785753747
-0.0181025037842468
-0.0181034295350868
-0.0181043558284554
-0.0181052826648301
-0.0181062100447424
-0.0181071379686981
-0.0181080664372331
-0.0181089954508598
-0.0181099250101168
-0.018110855115537
-0.0181117857676429
-0.0181127169670113
-0.018113648714162
-0.0181145810096427
-0.0181155138540275
-0.0181164472478539
-0.0181173811917185
-0.0181183156861658
-0.0181192507317909
-0.0181201863291665
-0.018121122478877
-0.0181220591815335
-0.0181229964377151
-0.0181239342480385
-0.0181248726131081
-0.0181258115335591
-0.0181267510099963
-0.01812769104309
-0.0181286316334047
-0.0181295727817477
-0.0181305144884766
-0.0181314567547738
-0.0181323995804075
-0.0181333429676375
-0.0181342869144526
-0.0181352314260971
-0.0181361764957892
-0.018137122136289
-0.0181380683294145
-0.0181390151049546
-0.0181399624200118
-0.01814091033944
-0.0181418587719914
-0.0181428078476621
-0.0181437573897255
-0.0181447076376899
-0.0181456582780457
-0.0181466097172795
-0.0181475614426767
-0.0181485140935098
-0.0181494668904721
-0.0181504207727592
-0.0181513746293016
-0.0181523297609389
-0.0181532846675546
-0.0181542410643127
-0.0181551970128566
-0.0181561546913305
-0.0181571116697314
-0.0181580706547881
-0.0181590286380313
-0.0181599889722607
-0.0181609479134055
-0.0181619096648681
-0.0181628694879341
-0.0181638327575868
-0.0181647933484023
-0.01816575828021
-0.0181667194772271
-0.0181676862626306
-0.0181686478582959
-0.0181696167297426
-0.0181705784769085
-0.0181715497043171
-0.0181725113162184
-0.0181734852048653
-0.0181744463626622
-0.018175423240149
-0.0181763836051944
-0.0181773638145705
-0.0181783230359908
-0.0181793069192738
-0.0181802646801068
-0.0181812525139445
-0.0181822086407974
-0.0181832005141803
-0.018184155212
-0.0181851507566119
-0.0181861051385239
-0.0181871029655921
-0.0181880602150694
-0.0181890566726095
-0.0181900247042212
-0.0181910110180558
-0.0181920085838574
-0.0181929634199437
-0.0181940348961076
-0.0181948995922764
-0.0181961514870935
-0.0181967067415968
-0.0181983872616022
-0.0181968243905688
-0.0181968243905688
-0.0181968243905688
1
0.131662863293812
0.0682695101239582
0.0522963525870187
0.0444202849191284
0.0395772279383287
0.036260180673098
0.0338331815502618
0.0319732401079192
0.0304965968938262
0.0292905604960731
0.0282822903835268
0.0274228250412039
0.0266782149930164
0.0260242915456511
0.0254434400064874
0.0249225454448741
0.0244516506116887
0.0240230529182078
0.0236306795647999
0.0232696543071789
0.022936006090686
0.0226264730393108
0.0223383526309457
0.0220693682559054
0.0218175582184963
0.0215812108425565
0.0213588478039045
0.0211492204501119
0.0209512759517733
0.0207640873275434
0.0205867886708263
0.0204185638770716
0.0202586922649711
0.0201065996642733
0.0199618536466986
0.0198240900398727
0.0196929227586042
0.019567911642546
0.0194486212831621
0.01933473140174
0.0192261157998504
0.0191228275375274
0.0190249962762409
0.0189327067620438
0.0188459383504426
0.0187645980774636
0.0186886104909881
0.0186179863759281
0.0185528072428107
0.018493120941725
0.0184388056606079
0.018389484928783
0.0183445506990408
0.0183032926905715
0.0182650756621236
0.0182294831574331
0.0181963658294477
0.0181657803194643
0.0181378541495125
0.018112639849573
0.0180900183033207
0.0180696834328009
0.0180512038887636
0.0180341289778037
0.0180180954374601
0.0180028991580038
0.0179885145179827
0.0179750641663577
0.0179627564319998
0.0179518129490282
0.0179424064434968
0.0179346211245581
0.0179284393770136
0.0179237512369531
0.0179203788807246
0.0179181072397353
0.0179167131645974
0.0179159881986446
0.0179157529066715
0.0179158630631126
0.0179162094639022
0.0179167136776214
0.0179173219115028
0.0179179986418521
0.0179187210186057
0.017919474488698
0.0179202496795974
0.0179210403571703
0.0179218421851427
0.017922652020096
0.0179234675280284
0.017924286973731
0.0179251090920145
0.0179259329933499
0.0179267580833069
0.0179275839902887
0.0179284105021064
0.0179292375131192
0.0179300649831276
0.0179308929076213
0.0179317212978979
0.0179325501690963
0.0179333795339776
0.0179342094004679
0.0179350397714622
0.0179358706458049
0.0179367020195932
0.0179375338875405
0.017938366243951
0.0179391990835424
0.017940032401812
0.0179408661952693
0.0179417004614423
0.0179425351987953
0.0179433704065264
0.0179442060844506
0.0179450422327803
0.0179458788519653
0.017946715942583
0.0179475535052522
0.0179483915405168
0.0179492300488226
0.0179500690304896
0.0179509084856959
0.0179517484144887
0.0179525888167621
0.0179534296923124
0.0179542710408221
0.0179551128618844
0.0179559551550539
0.0179567979198006
0.0179576411555923
0.0179584848618925
0.0179593290381511
0.0179601736837962
0.0179610187983502
0.0179618643812901
0.0179627104321799
0.0179635569506081
0.0179644039361834
0.0179652513885825
0.0179660993075466
0.0179669476928103
0.0179677965441947
0.01796864586157
0.0179694956448262
0.0179703458938995
0.0179711966087883
0.0179720477895151
0.017972899436143
0.0179737515487504
0.0179746041274979
0.0179754571725302
0.017976310684046
0.0179771646622606
0.0179780191074436
0.0179788740198474
0.0179797293997874
0.0179805852475707
0.0179814415635559
0.0179822983480903
0.0179831556015726
0.0179840133243978
0.0179848715169888
0.0179857301797803
0.0179865893132328
0.017987448917797
0.0179883089939648
0.0179891695422328
0.0179900305631093
0.0179908920571117
0.0179917540247859
0.0179926164666543
0.0179934793832851
0.0179943427752287
0.0179952066430774
0.0179960709874025
0.0179969358088016
0.0179978011078512
0.0179986668851823
0.0179995331413786
0.0180003998770841
0.0180012670929071
0.0180021347894722
0.018003002967416
0.0180038716273725
0.0180047407699776
0.0180056103958872
0.0180064805057257
0.0180073511001542
0.0180082221798087
0.0180090937453556
0.0180099657974394
0.0180108383367125
0.0180117113638193
0.0180125848794252
0.0180134588841712
0.018014333378717
0.0180152083636986
0.0180160838397929
0.0180169598076258
0.0180178362678447
0.0180187132211012
0.0180195906680295
0.0180204686092756
0.0180213470454764
0.0180222259772679
0.0180231054052781
0.0180239853301359
0.0180248657524698
0.0180257466729054
0.0180266280920535
0.0180275100105321
0.0180283924289612
0.0180292753479379
0.0180301587680743
0.0180310426899677
0.0180319271142158
0.018032812041414
0.0180336974721482
0.0180345834070081
0.0180354698465752
0.0180363567914193
0.0180372442421332
0.0180381321992781
0.0180390206634179
0.0180399096351143
0.0180407991149327
0.018041689103438
0.0180425796011794
0.0180434706087002
0.018044362126557
0.0180452541552898
0.0180461466954439
0.0180470397475392
0.0180479333121467
0.0180488273897696
0.0180497219809469
0.0180506170862117
0.0180515127060856
0.0180524088410855
0.0180533054917376
0.0180542026585309
0.0180551003420168
0.0180559985426775
0.0180568972610168
0.0180577964975525
0.0180586962527745
0.0180595965271752
0.0180604973212558
0.018061398635495
0.0180623004703727
0.0180632028263924
0.0180641057040149
0.0180650091037315
0.0180659130260114
0.0180668174713288
0.0180677224401626
0.0180686279329649
0.0180695339502153
0.0180704404923909
0.018071347559949
0.0180722551533462
0.0180731632730605
0.0180740719195437
0.0180749810932748
0.0180758907947099
0.0180768010243135
0.018077711782534
0.0180786230698585
0.0180795348867381
0.0180804472336293
0.0180813601110104
0.0180822735193392
0.0180831874590752
0.0180841019307038
0.018085016934653
0.0180859324714254
0.0180868485414718
0.0180877651452729
0.0180886822832821
0.0180895999559795
0.0180905181638406
0.0180914369073382
0.0180923561869472
0.0180932760031512
0.0180941963564153
0.0180951172472392
0.0180960386760867
0.0180969606434713
0.0180978831498547
0.0180988061957458
0.0180997297816373
0.0181006539080114
0.0181015785753747
0.0181025037842468
0.0181034295350868
0.0181043558284554
0.0181052826648301
0.0181062100447424
0.0181071379686981
0.0181080664372331
0.0181089954508598
0.0181099250101168
0.018110855115537
0.0181117857676429
0.0181127169670113
0.018113648714162
0.0181145810096427
0.0181155138540275
0.0181164472478539
0.0181173811917185
0.0181183156861658
0.0181192507317909
0.0181201863291665
0.018121122478877
0.0181220591815335
0.0181229964377151
0.0181239342480385
0.0181248726131081
0.0181258115335591
0.0181267510099963
0.01812769104309
0.0181286316334047
0.0181295727817477
0.0181305144884766
0.0181314567547738
0.0181323995804075
0.0181333429676375
0.0181342869144526
0.0181352314260971
0.0181361764957892
0.018137122136289
0.0181380683294145
0.0181390151049546
0.0181399624200118
0.01814091033944
0.0181418587719914
0.0181428078476621
0.0181437573897255
0.0181447076376899
0.0181456582780457
0.0181466097172795
0.0181475614426767
0.0181485140935098
0.0181494668904721
0.0181504207727592
0.0181513746293016
0.0181523297609389
0.0181532846675546
0.0181542410643127
0.0181551970128566
0.0181561546913305
0.0181571116697314
0.0181580706547881
0.0181590286380313
0.0181599889722607
0.0181609479134055
0.0181619096648681
0.0181628694879341
0.0181638327575868
0.0181647933484023
0.01816575828021
0.0181667194772271
0.0181676862626306
0.0181686478582959
0.0181696167297426
0.0181705784769085
0.0181715497043171
0.0181725113162184
0.0181734852048653
0.0181744463626622
0.018175423240149
0.0181763836051944
0.0181773638145705
0.0181783230359908
0.0181793069192738
0.0181802646801068
0.0181812525139445
0.0181822086407974
0.0181832005141803
0.018184155212
0.0181851507566119
0.0181861051385239
0.0181871029655921
0.0181880602150694
0.0181890566726095
0.0181900247042212
0.0181910110180558
0.0181920085838574
0.0181929634199437
0.0181940348961076
0.0181948995922764
0.0181961514870935
0.0181967067415968
0.0181983872616022
0.0181968243905688
0.0181968243905688
0.0181968243905688
1
0.344884378491899
0.200668459473352
0.154968196387744
0.131895724080403
0.117599929038606
0.107769420257943
0.100559662078758
0.0950267849932259
0.0906310103003254
0.0870399788703648
0.0840381373149028
0.0814801747366646
0.0792650815809922
0.0773207989620516
0.0755947238817617
0.0740476459190944
0.0726497709120179
0.0713780376551461
0.0702142617665911
0.0691438506383329
0.0681549337012441
0.0672377662116203
0.0663842697749931
0.0655876346028284
0.0648420021811872
0.064142282533615
0.0634840962667662
0.0628637402748902
0.0622780712637358
0.0617243077013342
0.0611998661046167
0.0607023472052704
0.0602296599209546
0.0597801371962189
0.0593524933486842
0.0589456130277111
0.0585583244732266
0.0581893465083459
0.0578374708528129
0.0575018527925762
0.0571821892132852
0.0568786398004346
0.0565915337601723
0.0563210567191118
0.0560671180737509
0.0558294591772055
0.0556078841666115
0.0554024066617229
0.0552131656291044
0.0550401261819785
0.0548827344952007
0.0547397417441626
0.0546093253386484
0.0544894741016671
0.0543784642223347
0.0542752101955488
0.0541793436052394
0.0540910063044795
0.0540104707507705
0.0539377612792435
0.0538724282371777
0.0538135449626111
0.0537599005172141
0.0537102915468316
0.0536637968882179
0.0536199454473656
0.0535787404828564
0.0535405563639847
0.0535059587846031
0.053475509833809
0.0534496090755093
0.0534284000720028
0.053411748243524
0.0533992775653173
0.0533904436196752
0.0533846188903028
0.0533811706906244
0.0533795196819897
0.0533791747219352
0.0533797458559401
0.0533809408034986
0.05338255140288
0.0533844358340055
0.0533865008759196
0.0533886866902837
0.05339095512489
0.0533932815010664
0.0533956492951091
0.0533980469385458
0.0534004660109877
0.0534029002564999
0.0534053450359808
0.0534077969834323
0.0534102537475001
0.0534127137688974
0.0534151760816158
0.0534176401399825
0.0534201056763962
0.0534225725917926
0.0534250408773794
0.0534275105629996
0.0534299816866245
0.0534324542787834
0.0534349283569045
0.0534374039252893
0.0534398809779992
0.0534423595024469
0.0534448394829838
0.0534473209035067
0.0534498037494407
0.0534522880087032
0.0534547736721868
0.0534572607336573
0.0534597491894947
0.0534622390381224
0.0534647302795949
0.0534672229150134
0.0534697169461343
0.0534722123749841
0.0534747092036465
0.0534772074339781
0.053479707067553
0.0534822081055373
0.0534847105487194
0.0534872143974609
0.0534897196517491
0.0534922263112343
0.053494734375289
0.0534972438430206
0.0534997547134097
0.053502266985248
0.0535047806572923
0.053507295728253
0.0535098121968516
0.0535123300617849
0.0535148493218997
0.0535173699760345
0.0535198920231925
0.0535224154624507
0.0535249402930079
0.0535274665141732
0.0535299941254343
0.0535325231263252
0.0535350535165715
0.0535375852959907
0.0535401184645267
0.0535426530222109
0.053545188969232
0.0535477263058438
0.0535502650324242
0.0535528051493962
0.0535553466573366
0.0535578895568456
0.0535604338486368
0.0535629795334652
0.0535655266121989
0.0535680750857073
0.0535706249549862
0.0535731762210169
0.0535757288848999
0.0535782829477296
0.0535808384106944
0.0535833952749852
0.0535859535418721
0.0535885132126245
0.0535910742885947
0.0535936367711137
0.0535962006615963
0.0535987659614588
0.0536013326721639
0.0536039007951842
0.0536064703320489
0.0536090412842573
0.0536116136533959
0.0536141874410111
0.0536167626487315
0.0536193392781512
0.053621917330917
0.0536244968086513
0.0536270777130519
0.0536296600457552
0.0536322438084873
0.0536348290029196
0.0536374156307741
0.0536400036937527
0.0536425931935951
0.053645184132012
0.0536477765107649
0.0536503703315626
0.0536529655961739
0.0536555623063112
0.0536581604637559
0.0536607600702304
0.0536633611274982
0.0536659636372806
0.0536685676013482
0.0536711730214214
0.0536737798992554
0.0536763882365556
0.0536789980350955
0.0536816092965626
0.0536842220226906
0.0536868362151923
0.0536894518757721
0.0536920690061345
0.0536946876079752
0.0536973076829755
0.0536999292328204
0.0537025522591646
0.0537051767636946
0.0537078027480489
0.053710430213878
0.0537130591628089
0.0537156895964884
0.0537183215165113
0.0537209549245094
0.0537235898220606
0.053726226210777
0.0537288640922249
0.05373150346799
0.0537341443396271
0.0537367867087029
0.0537394305767475
0.0537420759453226
0.0537447228159472
0.0537473711901457
0.0537500210694255
0.0537526724553094
0.0537553253492942
0.0537579797528798
0.0537606356675395
0.0537632930947722
0.0537659520360403
0.0537686124928274
0.0537712744665674
0.053773937958768