# vtk DataFile Version 2.0
FlowField
ASCII
DATASET STRUCTURED_GRID
DIMENSIONS 400 1 200
POINTS 80000 float
0 0 0
0.08 0 0
0.16 0 0
0.24 0 0
0.32 0 0
0.4 0 0
0.48 0 0
0.56 0 0
0.64 0 0
0.72 0 0
0.8 0 0
0.88 0 0
0.96 0 0
1.04 0 0
1.12 0 0
1.2 0 0
1.28 0 0
1.36 0 0
1.44 0 0
1.52 0 0
1.6 0 0
1.68 0 0
1.76 0 0
1.84 0 0
1.92 0 0
2 0 0
2.08 0 0
2.16 0 0
2.24 0 0
2.32 0 0
2.4 0 0
2.48 0 0
2.56 0 0
2.64 0 0
2.72 0 0
2.8 0 0
2.88 0 0
2.96 0 0
3.04 0 0
3.12 0 0
3.2 0 0
3.28 0 0
3.36 0 0
3.44 0 0
3.52 0 0
3.6 0 0
3.68 0 0
3.76 0 0
3.84 0 0
3.92 0 0
4 0 0
4.08 0 0
4.16 0 0
4.24 0 0
4.32 0 0
4.4 0 0
4.48 0 0
4.56 0 0
4.64 0 0
4.72 0 0
4.8 0 0
4.88 0 0
4.96 0 0
5.04 0 0
5.12 0 0
5.2 0 0
5.28 0 0
5.36 0 0
5.44 0 0
5.52 0 0
5.6 0 0
5.68 0 0
5.76 0 0
5.84 0 0
5.92 0 0
6 0 0
6.08 0 0
6.16 0 0
6.24 0 0
6.32 0 0
6.4 0 0
6.48 0 0
6.56 0 0
6.64 0 0
6.72 0 0
6.8 0 0
6.88 0 0
6.96 0 0
7.04 0 0
7.12 0 0
7.2 0 0
7.28 0 0
7.36 0 0
7.44 0 0
7.52 0 0
7.6 0 0
7.68 0 0
7.76 0 0
7.84 0 0
7.92 0 0
8 0 0
8.08 0 0
8.16 0 0
8.24 0 0
8.32 0 0
8.4 0 0
8.48 0 0
8.56 0 0
8.64 0 0
8.72 0 0
8.8 0 0
8.88 0 0
8.96 0 0
9.04 0 0
9.12 0 0
9.2 0 0
9.28 0 0
9.36 0 0
9.44 0 0
9.52 0 0
9.6 0 0
9.68 0 0
9.76 0 0
9.84 0 0
9.92 0 0
10 0 0
10.08 0 0
10.16 0 0
10.24 0 0
10.32 0 0
10.4 0 0
10.48 0 0
10.56 0 0
10.64 0 0
10.72 0 0
10.8 0 0
10.88 0 0
10.96 0 0
11.04 0 0
11.12 0 0
11.2 0 0
11.28 0 0
11.36 0 0
11.44 0 0
11.52 0 0
11.6 0 0
11.68 0 0
11.76 0 0
11.84 0 0
11.92 0 0
12 0 0
12.08 0 0
12.16 0 0
12.24 0 0
12.32 0 0
12.4 0 0
12.48 0 0
12.56 0 0
12.64 0 0
12.72 0 0
12.8 0 0
12.88 0 0
12.96 0 0
13.04 0 0
13.12 0 0
13.2 0 0
13.28 0 0
13.36 0 0
13.44 0 0
13.52 0 0
13.6 0 0
13.68 0 0
13.76 0 0
13.84 0 0
13.92 0 0
14 0 0
14.08 0 0
14.16 0 0
14.24 0 0
14.32 0 0
14.4 0 0
14.48 0 0
14.56 0 0
14.64 0 0
14.72 0 0
14.8 0 0
14.88 0 0
14.96 0 0
15.04 0 0
15.12 0 0
15.2 0 0
15.28 0 0
15.36 0 0
15.44 0 0
15.52 0 0
15.6 0 0
15.68 0 0
15.76 0 0
15.84 0 0
15.92 0 0
16 0 0
16.08 0 0
16.16 0 0
16.24 0 0
16.32 0 0
16.4 0 0
16.48 0 0
16.56 0 0
16.64 0 0
16.72 0 0
16.8 0 0
16.88 0 0
16.96 0 0
17.04 0 0
17.12 0 0
17.2 0 0
17.28 0 0
17.36 0 0
17.44 0 0
17.52 0 0
17.6 0 0
17.68 0 0
17.76 0 0
17.84 0 0
17.92 0 0
18 0 0
18.08 0 0
18.16 0 0
18.24 0 0
18.32 0 0
18.4 0 0
18.48 0 0
18.56 0 0
18.64 0 0
18.72 0 0
18.8 0 0
18.88 0 0
18.96 0 0
19.04 0 0
19.12 0 0
19.2 0 0
19.28 0 0
19.36 0 0
19.44 0 0
19.52 0 0
19.6 0 0
19.68 0 0
19.76 0 0
19.84 0 0
19.92 0 0
20 0 0
20.08 0 0
20.16 0 0
20.24 0 0
20.32 0 0
20.4 0 0
20.48 0 0
20.56 0 0
20.64 0 0
20.72 0 0
20.8 0 0
20.88 0 0
20.96 0 0
21.04 0 0
21.12 0 0
21.2 0 0
21.28 0 0
21.36 0 0
21.44 0 0
21.52 0 0
21.6 0 0
21.68 0 0
21.76 0 0
21.84 0 0
21.92 0 0
22 0 0
22.08 0 0
22.16 0 0
22.24 0 0
22.32 0 0
22.4 0 0
22.48 0 0
22.56 0 0
22.64 0 0
22.72 0 0
22.8 0 0
22.88 0 0
22.96 0 0
23.04 0 0
23.12 0 0
23.2 0 0
23.28 0 0
23.36 0 0
23.44 0 0
23.52 0 0
23.6 0 0
23.68 0 0
23.76 0 0
23.84 0 0
23.92 0 0
24 0 0
24.08 0 0
24.16 0 0
24.24 0 0
24.32 0 0
24.4 0 0
24.48 0 0
24.56 0 0
24.64 0 0
24.72 0 0
24.8 0 0
24.88 0 0
24.96 0 0
25.04 0 0
25.12 0 0
25.2 0 0
25.28 0 0
25.36 0 0
25.44 0 0
25.52 0 0
25.6 0 0
25.68 0 0
25.76 0 0
25.84 0 0
25.92 0 0
26 0 0
26.08 0 0
26.16 0 0
26.24 0 0
26.32 0 0
26.4 0 0
26.48 0 0
26.56 0 0
26.64 0 0
26.72 0 0
26.8 0 0
26.88 0 0
26.96 0 0
27.04 0 0
27.12 0 0
27.2 0 0
27.28 0 0
27.36 0 0
27.44 0 0
27.52 0 0
27.6 0 0
27.68 0 0
27.76 0 0
27.84 0 0
27.92 0 0
28 0 0
28.08 0 0
28.16 0 0
28.24 0 0
28.32 0 0
28.4 0 0
28.48 0 0
28.56 0 0
28.64 0 0
28.72 0 0
28.8 0 0
28.88 0 0
28.96 0 0
29.04 0 0
29.12 0 0
29.2 0 0
29.28 0 0
29.36 0 0
29.44 0 0
29.52 0 0
29.6 0 0
29.68 0 0
29.76 0 0
29.84 0 0
29.92 0 0
30 0 0
30.08 0 0
30.16 0 0
30.24 0 0
30.32 0 0
30.4 0 0
30.48 0 0
30.56 0 0
30.64 0 0
30.72 0 0
30.8 0 0
30.88 0 0
30.96 0 0
31.04 0 0
31.12 0 0
31.2 0 0
31.28 0 0
31.36 0 0
31.44 0 0
31.52 0 0
31.6 0 0
31.68 0 0
31.76 0 0
31.84 0 0
31.92 0 0
0 0.005 0
0.08 0.005 0
0.16 0.005 0
0.24 0.005 0
0.32 0.005 0
0.4 0.005 0
0.48 0.005 0
0.56 0.005 0
0.64 0.005 0
0.72 0.005 0
0.8 0.005 0
0.88 0.005 0
0.96 0.005 0
1.04 0.005 0
1.12 0.005 0
1.2 0.005 0
1.28 0.005 0
1.36 0.005 0
1.44 0.005 0
1.52 0.005 0
1.6 0.005 0
1.68 0.005 0
1.76 0.005 0
1.84 0.005 0
1.92 0.005 0
2 0.005 0
2.08 0.005 0
2.16 0.005 0
2.24 0.005 0
2.32 0.005 0
2.4 0.005 0
2.48 0.005 0
2.56 0.005 0
2.64 0.005 0
2.72 0.005 0
2.8 0.005 0
2.88 0.005 0
2.96 0.005 0
3.04 0.005 0
3.12 0.005 0
3.2 0.005 0
3.28 0.005 0
3.36 0.005 0
3.44 0.005 0
3.52 0.005 0
3.6 0.005 0
3.68 0.005 0
3.76 0.005 0
3.84 0.005 0
3.92 0.005 0
4 0.005 0
4.08 0.005 0
4.16 0.005 0
4.24 0.005 0
4.32 0.005 0
4.4 0.005 0
4.48 0.005 0
4.56 0.005 0
4.64 0.005 0
4.72 0.005 0
4.8 0.005 0
4.88 0.005 0
4.96 0.005 0
5.04 0.005 0
5.12 0.005 0
5.2 0.005 0
5.28 0.005 0
5.36 0.005 0
5.44 0.005 0
5.52 0.005 0
5.6 0.005 0
5.68 0.005 0
5.76 0.005 0
5.84 0.005 0
5.92 0.005 0
6 0.005 0
6.08 0.005 0
6.16 0.005 0
6.24 0.005 0
6.32 0.005 0
6.4 0.005 0
6.48 0.005 0
6.56 0.005 0
6.64 0.005 0
6.72 0.005 0
6.8 0.005 0
6.88 0.005 0
6.96 0.005 0
7.04 0.005 0
7.12 0.005 0
7.2 0.005 0
7.28 0.005 0
7.36 0.005 0
7.44 0.005 0
7.52 0.005 0
7.6 0.005 0
7.68 0.005 0
7.76 0.005 0
7.84 0.005 0
7.92 0.005 0
8 0.005 0
8.08 0.005 0
8.16 0.005 0
8.24 0.005 0
8.32 0.005 0
8.4 0.005 0
8.48 0.005 0
8.56 0.005 0
8.64 0.005 0
8.72 0.005 0
8.8 0.005 0
8.88 0.005 0
8.96 0.005 0
9.04 0.005 0
9.12 0.005 0
9.2 0.005 0
9.28 0.005 0
9.36 0.005 0
9.44 0.005 0
9.52 0.005 0
9.6 0.005 0
9.68 0.005 0
9.76 0.005 0
9.84 0.005 0
9.92 0.005 0
10 0.005 0
10.08 0.005 0
10.16 0.005 0
10.24 0.005 0
10.32 0.005 0
10.4 0.005 0
10.48 0.005 0
10.56 0.005 0
10.64 0.005 0
10.72 0.005 0
10.8 0.005 0
10.88 0.005 0
10.96 0.005 0
11.04 0.005 0
11.12 0.005 0
11.2 0.005 0
11.28 0.005 0
11.36 0.005 0
11.44 0.005 0
11.52 0.005 0
11.6 0.005 0
11.68 0.005 0
11.76 0.005 0
11.84 0.005 0
11.92 0.005 0
12 0.005 0
12.08 0.005 0
12.16 0.005 0
12.24 0.005 0
12.32 0.005 0
12.4 0.005 0
12.48 0.005 0
12.56 0.005 0
12.64 0.005 0
12.72 0.005 0
12.8 0.005 0
12.88 0.005 0
12.96 0.005 0
13.04 0.005 0
13.12 0.005 0
13.2 0.005 0
13.28 0.005 0
13.36 0.005 0
13.44 0.005 0
13.52 0.005 0
13.6 0.005 0
13.68 0.005 0
13.76 0.005 0
13.84 0.005 0
13.92 0.005 0
14 0.005 0
14.08 0.005 0
14.16 0.005 0
14.24 0.005 0
14.32 0.005 0
14.4 0.005 0
14.48 0.005 0
14.56 0.005 0
14.64 0.005 0
14.72 0.005 0
14.8 0.005 0
14.88 0.005 0
14.96 0.005 0
15.04 0.005 0
15.12 0.005 0
15.2 0.005 0
15.28 0.005 0
15.36 0.005 0
15.44 0.005 0
15.52 0.005 0
15.6 0.005 0
15.68 0.005 0
15.76 0.005 0
15.84 0.005 0
15.92 0.005 0
16 0.005 0
16.08 0.005 0
16.16 0.005 0
16.24 0.005 0
16.32 0.005 0
16.4 0.005 0
16.48 0.005 0
16.56 0.005 0
16.64 0.005 0
16.72 0.005 0
16.8 0.005 0
16.88 0.005 0
16.96 0.005 0
17.04 0.005 0
17.12 0.005 0
17.2 0.005 0
17.28 0.005 0
17.36 0.005 0
17.44 0.005 0
17.52 0.005 0
17.6 0.005 0
17.68 0.005 0
17.76 0.005 0
17.84 0.005 0
17.92 0.005 0
18 0.005 0
18.08 0.005 0
18.16 0.005 0
18.24 0.005 0
18.32 0.005 0
18.4 0.005 0
18.48 0.005 0
18.56 0.005 0
18.64 0.005 0
18.72 0.005 0
18.8 0.005 0
18.88 0.005 0
18.96 0.005 0
19.04 0.005 0
19.12 0.005 0
19.2 0.005 0
19.28 0.005 0
19.36 0.005 0
19.44 0.005 0
19.52 0.005 0
19.6 0.005 0
19.68 0.005 0
19.76 0.005 0
19.84 0.005 0
19.92 0.005 0
20 0.005 0
20.08 0.005 0
20.16 0.005 0
20.24 0.005 0
20.32 0.005 0
20.4 0.005 0
20.48 0.005 0
20.56 0.005 0
20.64 0.005 0
20.72 0.005 0
20.8 0.005 0
20.88 0.005 0
20.96 0.005 0
21.04 0.005 0
21.12 0.005 0
21.2 0.005 0
21.28 0.005 0
21.36 0.005 0
21.44 0.005 0
21.52 0.005 0
21.6 0.005 0
21.68 0.005 0
21.76 0.005 0
21.84 0.005 0
21.92 0.005 0
22 0.005 0
22.08 0.005 0
22.16 0.005 0
22.24 0.005 0
22.32 0.005 0
22.4 0.005 0
22.48 0.005 0
22.56 0.005 0
22.64 0.005 0
22.72 0.005 0
22.8 0.005 0
22.88 0.005 0
22.96 0.005 0
23.04 0.005 0
23.12 0.005 0
23.2 0.005 0
23.28 0.005 0
23.36 0.005 0
23.44 0.005 0
23.52 0.005 0
23.6 0.005 0
23.68 0.005 0
23.76 0.005 0
23.84 0.005 0
23.92 0.005 0
24 0.005 0
24.08 0.005 0
24.16 0.005 0
24.24 0.005 0
24.32 0.005 0
24.4 0.005 0
24.48 0.005 0
24.56 0.005 0
24.64 0.005 0
24.72 0.005 0
24.8 0.005 0
24.88 0.005 0
24.96 0.005 0
25.04 0.005 0
25.12 0.005 0
25.2 0.005 0
25.28 0.005 0
25.36 0.005 0
25.44 0.005 0
25.52 0.005 0
25.6 0.005 0
25.68 0.005 0
25.76 0.005 0
25.84 0.005 0
25.92 0.005 0
26 0.005 0
26.08 0.005 0
26.16 0.005 0
26.24 0.005 0
26.32 0.005 0
26.4 0.005 0
26.48 0.005 0
26.56 0.005 0
26.64 0.005 0
26.72 0.005 0
26.8 0.005 0
26.88 0.005 0
26.96 0.005 0
27.04 0.005 0
27.12 0.005 0
27.2 0.005 0
27.28 0.005 0
27.36 0.005 0
27.44 0.005 0
27.52 0.005 0
27.6 0.005 0
27.68 0.005 0
27.76 0.005 0
27.84 0.005 0
27.92 0.005 0
28 0.005 0
28.08 0.005 0
28.16 0.005 0
28.24 0.005 0
28.32 0.005 0
28.4 0.005 0
28.48 0.005 0
28.56 0.005 0
28.64 0.005 0
28.72 0.005 0
28.8 0.005 0
28.88 0.005 0
28.96 0.005 0
29.04 0.005 0
29.12 0.005 0
29.2 0.005 0
29.28 0.005 0
29.36 0.005 0
29.44 0.005 0
29.52 0.005 0
29.6 0.005 0
29.68 0.005 0
29.76 0.005 0
29.84 0.005 0
29.92 0.005 0
30 0.005 0
30.08 0.005 0
30.16 0.005 0
30.24 0.005 0
30.32 0.005 0
30.4 0.005 0
30.48 0.005 0
30.56 0.005 0
30.64 0.005 0
30.72 0.005 0
30.8 0.005 0
30.88 0.005 0
30.96 0.005 0
31.04 0.005 0
31.12 0.005 0
31.2 0.005 0
31.28 0.005 0
31.36 0.005 0
31.44 0.005 0
31.52 0.005 0
31.6 0.005 0
31.68 0.005 0
31.76 0.005 0
31.84 0.005 0
31.92 0.005 0
0 0.01 0
0.08 0.01 0
0.16 0.01 0
0.24 0.01 0
0.32 0.01 0
0.4 0.01 0
0.48 0.01 0
0.56 0.01 0
0.64 0.01 0
0.72 0.01 0
0.8 0.01 0
0.88 0.01 0
0.96 0.01 0
1.04 0.01 0
1.12 0.01 0
1.2 0.01 0
1.28 0.01 0
1.36 0.01 0
1.44 0.01 0
1.52 0.01 0
1.6 0.01 0
1.68 0.01 0
1.76 0.01 0
1.84 0.01 0
1.92 0.01 0
2 0.01 0
2.08 0.01 0
2.16 0.01 0
2.24 0.01 0
2.32 0.01 0
2.4 0.01 0
2.48 0.01 0
2.56 0.01 0
2.64 0.01 0
2.72 0.01 0
2.8 0.01 0
2.88 0.01 0
2.96 0.01 0
3.04 0.01 0
3.12 0.01 0
3.2 0.01 0
3.28 0.01 0
3.36 0.01 0
3.44 0.01 0
3.52 0.01 0
3.6 0.01 0
3.68 0.01 0
3.76 0.01 0
3.84 0.01 0
3.92 0.01 0
4 0.01 0
4.08 0.01 0
4.16 0.01 0
4.24 0.01 0
4.32 0.01 0
4.4 0.01 0
4.48 0.01 0
4.56 0.01 0
4.64 0.01 0
4.72 0.01 0
4.8 0.01 0
4.88 0.01 0
4.96 0.01 0
5.04 0.01 0
5.12 0.01 0
[...]
POINT_DATA 80000

SCALARS u float 1
LOOKUP_TABLE default
0
-0.131662750079234
-0.0682693349113817
-0.0522961337237395
-0.0444200304977098
-0.0395769426938995
-0.0362598678707441
-0.0338328436231544
-0.0319728787626171
-0.0304962132955759
-0.0292901558631942
-0.0282818661162676
-0.0274223814700228
-0.0266777502306194
-0.0260238030654449
-0.0254429278304473
-0.0249220116753791
-0.0244510934581239
-0.0240224621662573
-0.0236300416384592
-0.0232689631735084
-0.02293526517535
-0.0226256806116949
-0.0223374841333722
-0.0220683778625739
-0.0218164029684817
-0.0215798722246416
-0.0213573219877518
-0.0211474789486171
-0.0209492329225698
-0.0207616088173891
-0.0205837389137373
-0.0204148429160606
-0.0202542205151511
-0.0201012514216044
-0.0199553912544191
-0.0198161562588441
-0.0196831022489144
-0.0195558113614581
-0.0194338953214134
-0.0193170095955785
-0.0192048622998182
-0.0190972054516188
-0.0189938116911933
-0.0188944534748274
-0.0187989014583099
-0.0187069439187965
-0.0186184118034855
-0.0185331888240828
-0.0184511976052931
-0.0183723722770529
-0.0182966397182886
-0.0182239262654318
-0.0181541875561581
-0.0180874401792542
-0.0180237689723189
-0.0179632972434585
-0.0179061303306825
-0.0178523006197296
-0.0178017429197692
-0.0177543124230267
-0.0177098337023045
-0.0176681526253008
-0.0176291630380845
-0.0175927957823171
-0.0175589793456015
-0.0175275968466144
-0.0174984652238705
-0.0174713498386321
-0.0174460088489908
-0.0174222467324177
-0.0173999522984203
-0.01737910436654
-0.0173597431783249
-0.0173419201368132
-0.0173256463829104
-0.0173108595388587
-0.0172974193665541
-0.0172851315296891
-0.0172737889616036
-0.0172632157767871
-0.0172532999291811
-0.0172440063620698
-0.0172353694964445
-0.0172274699602973
-0.0172204038404337
-0.0172142530739877
-0.0172090635383137
-0.0172048341218043
-0.0172015167602524
-0.0171990249714809
-0.017197247206798
-0.0171960613118224
-0.0171953472081707
-0.0171949961160913
-0.0171949158280947
-0.0171950324453752
-0.0171952894955312
-0.0171956454896366
-0.017196070852974
-0.0171965449057173
-0.0171970532843456
-0.0171975859540112
-0.01719813579709
-0.0171986976749996
-0.0171992678327867
-0.0171998435262073
-0.0172004227796314
-0.0172010042143996
-0.0172015869138257
-0.0172021703095753
-0.0172027540842543
-0.0172033380902287
-0.0172039222851701
-0.0172045066840465
-0.0172050913261343
-0.0172056762546096
-0.0172062615056083
-0.0172068471039886
-0.0172074330631826
-0.017208019387212
-0.0172086060734647
-0.0172091931154246
-0.0172097805049687
-0.0172103682339038
-0.0172109562950529
-0.0172115446826753
-0.0172121333926285
-0.0172127224222345
-0.0172133117700661
-0.0172139014356211
-0.0172144914190923
-0.0172150817210955
-0.0172156723424517
-0.0172162632840944
-0.0172168545469226
-0.0172174461317171
-0.0172180380391812
-0.0172186302698349
-0.0172192228240932
-0.0172198157022114
-0.0172204089043356
-0.0172210024305024
-0.0172215962806699
-0.0172221904547359
-0.0172227849525086
-0.017223379773786
-0.0172239749183403
-0.0172245703858839
-0.0172251661761752
-0.017225762288907
-0.0172263587238128
-0.0172269554806315
-0.0172275525590992
-0.0172281499589641
-0.017228747679991
-0.0172293457219618
-0.0172299440846776
-0.0172305427679358
-0.0172311417715859
-0.0172317410954448
-0.0172323407393963
-0.0172329407033131
-0.0172335409870757
-0.0172341415905882
-0.0172347425137548
-0.0172353437565315
-0.0172359453188349
-0.0172365472005942
-0.0172371494017793
-0.0172377519223628
-0.0172383547623078
-0.0172389579215902
-0.017239561400211
-0.0172401651981291
-0.0172407693153655
-0.0172413737519202
-0.0172419785077853
-0.0172425835829815
-0.0172431889775114
-0.017243794691423
-0.0172444007247237
-0.017245007077429
-0.0172456137495822
-0.0172462207412175
-0.0172468280523708
-0.017247435683081
-0.0172480436333878
-0.017248651903344
-0.0172492604930055
-0.0172498694024079
-0.0172504786316191
-0.0172510881806974
-0.0172516980497032
-0.0172523082386962
-0.0172529187477489
-0.0172535295769276
-0.0172541407262958
-0.0172547521959345
-0.0172553639859248
-0.0172559760963341
-0.0172565885272548
-0.0172572012787564
-0.0172578143509352
-0.0172584277438815
-0.017259041457668
-0.0172596554924026
-0.0172602698481718
-0.0172608845250774
-0.0172614995231974
-0.0172621148426551
-0.0172627304835486
-0.0172633464459713
-0.0172639627300372
-0.0172645793358392
-0.0172651962635108
-0.0172658135131407
-0.0172664310848586
-0.0172670489787652
-0.0172676671949875
-0.0172682857336384
-0.0172689045948425
-0.017269523778724
-0.0172701432854001
-0.0172707631149972
-0.0172713832676511
-0.0172720037434767
-0.0172726245426247
-0.0172732456652168
-0.017273867111384
-0.017274488881278
-0.0172751109750198
-0.0172757333927612
-0.0172763561346413
-0.0172769792008127
-0.0172776025914073
-0.0172782263065898
-0.0172788503464992
-0.0172794747112926
-0.0172800994011284
-0.0172807244161479
-0.0172813497565202
-0.0172819754224073
-0.0172826014139702
-0.0172832277313696
-0.0172838543747762
-0.0172844813443563
-0.0172851086402763
-0.0172857362627112
-0.0172863642118306
-0.0172869924878193
-0.0172876210908566
-0.0172882500211022
-0.0172888792787506
-0.017289508863987
-0.0172901387769849
-0.0172907690179307
-0.0172913995870151
-0.0172920304844232
-0.0172926617103481
-0.0172932932649832
-0.0172939251485017
-0.0172945573611208
-0.017295189903015
-0.0172958227743942
-0.0172964559754583
-0.0172970895063899
-0.0172977233674012
-0.0172983575586964
-0.0172989920804766
-0.0172996269329511
-0.0173002621163182
-0.0173008976308053
-0.0173015334766026
-0.0173021696539469
-0.0173028061630326
-0.0173034430040961
-0.0173040801773402
-0.0173047176830011
-0.0173053555212765
-0.0173059936924176
-0.0173066321966483
-0.0173072710341782
-0.017307910205256
-0.0173085497101013
-0.0173091895489719
-0.0173098297220828
-0.0173104702296786
-0.0173111110719967
-0.0173117522492861
-0.0173123937617881
-0.017313035609747
-0.0173136777934134
-0.0173143203130607
-0.0173149631689062
-0.0173156063612399
-0.0173162498902971
-0.0173168937563426
-0.0173175379596502
-0.0173181825004906
-0.0173188273791124
-0.0173194725958094
-0.0173201181508433
-0.0173207640444904
-0.0173214102770337
-0.0173220568487581
-0.0173227037599488
-0.0173233510108828
-0.017323998601864
-0.0173246465332005
-0.0173252948051484
-0.0173259434180646
-0.0173265923721681
-0.0173272416679055
-0.0173278913053659
-0.0173285412852059
-0.0173291916072132
-0.0173298422725347
-0.0173304932802233
-0.0173311446325017
-0.0173317963269475
-0.0173324483678442
-0.0173331007499617
-0.0173337534813417
-0.0173344065518902
-0.0173350599758952
-0.0173357137354402
-0.0173363678544461
-0.0173370223033717
-0.0173376771199509
-0.0173383322585787
-0.0173389877754892
-0.0173396436040253
-0.017340299824132
-0.0173409563427634
-0.0173416132691109
-0.0173422704778933
-0.0173429281137635
-0.0173435860124751
-0.0173442443617136
-0.0173449029494572
-0.0173455620168979
-0.0173462212915973
-0.0173468810835803
-0.0173475410415272
-0.0173482015663586
-0.0173488622016565
-0.0173495234702727
-0.0173501847740008
-0.0173508468009254
-0.0173515087602154
-0.0173521715642497
-0.0173528341617866
-0.017353497766429
-0.0173541609797346
-0.0173548254143157
-0.0173554892142013
-0.0173561545153753
-0.0173568188645919
-0.01735748507739
-0.0173581499293759
-0.0173588171089784
-0.0173594824049312
-0.017360150619968
-0.0173608162853991
-0.0173614856209667
-0.01736215156218
-0.0173628221235717
-0.0173634882229345
-0.0173641601399504
-0.017364826252107
-0.0173654996810462
-0.0173661656313749
-0.0173668407550252
-0.0173675063422135
-0.0173681833621894
-0.0173688483737848
-0.0173695274881252
-0.017370191737986
-0.0173708730926031
-0.0173715365066085
-0.0173722200915331
-0.0173728828917001
-0.017373568334119
-0.017374231428542
-0.0173749175716836
-0.0173755833954332
-0.0173762674217938
-0.017376941790863
-0.0173776172471209
-0.0173783136259378
-0.0173789652680077
-0.0173797149903184
-0.0173803014391321
-0.0173811786216154
-0.0173815450308253
-0.0173827169473661
-0.0173815998148481
-0.0173815998148481
-0.0173815998148481
1
0.131662750079234
0.0682693349113817
0.0522961337237395
0.0444200304977098
0.0395769426938995
0.0362598678707441
0.0338328436231544
0.0319728787626171
0.0304962132955759
0.0292901558631942
0.0282818661162676
0.0274223814700228
0.0266777502306194
0.0260238030654449
0.0254429278304473
0.0249220116753791
0.0244510934581239
0.0240224621662573
0.0236300416384592
0.0232689631735084
0.02293526517535
0.0226256806116949
0.0223374841333722
0.0220683778625739
0.0218164029684817
0.0215798722246416
0.0213573219877518
0.0211474789486171
0.0209492329225698
0.0207616088173891
0.0205837389137373
0.0204148429160606
0.0202542205151511
0.0201012514216044
0.0199553912544191
0.0198161562588441
0.0196831022489144
0.0195558113614581
0.0194338953214134
0.0193170095955785
0.0192048622998182
0.0190972054516188
0.0189938116911933
0.0188944534748274
0.0187989014583099
0.0187069439187965
0.0186184118034855
0.0185331888240828
0.0184511976052931
0.0183723722770529
0.0182966397182886
0.0182239262654318
0.0181541875561581
0.0180874401792542
0.0180237689723189
0.0179632972434585
0.0179061303306825
0.0178523006197296
0.0178017429197692
0.0177543124230267
0.0177098337023045
0.0176681526253008
0.0176291630380845
0.0175927957823171
0.0175589793456015
0.0175275968466144
0.0174984652238705
0.0174713498386321
0.0174460088489908
0.0174222467324177
0.0173999522984203
0.01737910436654
0.0173597431783249
0.0173419201368132
0.0173256463829104
0.0173108595388587
0.0172974193665541
0.0172851315296891
0.0172737889616036
0.0172632157767871
0.0172532999291811
0.0172440063620698
0.0172353694964445
0.0172274699602973
0.0172204038404337
0.0172142530739877
0.0172090635383137
0.0172048341218043
0.0172015167602524
0.0171990249714809
0.017197247206798
0.0171960613118224
0.0171953472081707
0.0171949961160913
0.0171949158280947
0.0171950324453752
0.0171952894955312
0.0171956454896366
0.017196070852974
0.0171965449057173
0.0171970532843456
0.0171975859540112
0.01719813579709
0.0171986976749996
0.0171992678327867
0.0171998435262073
0.0172004227796314
0.0172010042143996
0.0172015869138257
0.0172021703095753
0.0172027540842543
0.0172033380902287
0.0172039222851701
0.0172045066840465
0.0172050913261343
0.0172056762546096
0.0172062615056083
0.0172068471039886
0.0172074330631826
0.017208019387212
0.0172086060734647
0.0172091931154246
0.0172097805049687
0.0172103682339038
0.0172109562950529
0.0172115446826753
0.0172121333926285
0.0172127224222345
0.0172133117700661
0.0172139014356211
0.0172144914190923
0.0172150817210955
0.0172156723424517
0.0172162632840944
0.0172168545469226
0.0172174461317171
0.0172180380391812
0.0172186302698349
0.0172192228240932
0.0172198157022114
0.0172204089043356
0.0172210024305024
0.0172215962806699
0.0172221904547359
0.0172227849525086
0.017223379773786
0.0172239749183403
0.0172245703858839
0.0172251661761752
0.017225762288907
0.0172263587238128
0.0172269554806315
0.0172275525590992
0.0172281499589641
0.017228747679991
0.0172293457219618
0.0172299440846776
0.0172305427679358
0.0172311417715859
0.0172317410954448
0.0172323407393963
0.0172329407033131
0.0172335409870757
0.0172341415905882
0.0172347425137548
0.0172353437565315
0.0172359453188349
0.0172365472005942
0.0172371494017793
0.0172377519223628
0.0172383547623078
0.0172389579215902
0.017239561400211
0.0172401651981291
0.0172407693153655
0.0172413737519202
0.0172419785077853
0.0172425835829815
0.0172431889775114
0.017243794691423
0.0172444007247237
0.017245007077429
0.0172456137495822
0.0172462207412175
0.0172468280523708
0.017247435683081
0.0172480436333878
0.017248651903344
0.0172492604930055
0.0172498694024079
0.0172504786316191
0.0172510881806974
0.0172516980497032
0.0172523082386962
0.0172529187477489
0.0172535295769276
0.0172541407262958
0.0172547521959345
0.0172553639859248
0.0172559760963341
0.0172565885272548
0.0172572012787564
0.0172578143509352
0.0172584277438815
0.017259041457668
0.0172596554924026
0.0172602698481718
0.0172608845250774
0.0172614995231974
0.0172621148426551
0.0172627304835486
0.0172633464459713
0.0172639627300372
0.0172645793358392
0.0172651962635108
0.0172658135131407
0.0172664310848586
0.0172670489787652
0.0172676671949875
0.0172682857336384
0.0172689045948425
0.017269523778724
0.0172701432854001
0.0172707631149972
0.0172713832676511
0.0172720037434767
0.0172726245426247
0.0172732456652168
0.017273867111384
0.017274488881278
0.0172751109750198
0.0172757333927612
0.0172763561346413
0.0172769792008127
0.0172776025914073
0.0172782263065898
0.0172788503464992
0.0172794747112926
0.0172800994011284
0.0172807244161479
0.0172813497565202
0.0172819754224073
0.0172826014139702
0.0172832277313696
0.0172838543747762
0.0172844813443563
0.0172851086402763
0.0172857362627112
0.0172863642118306
0.0172869924878193
0.0172876210908566
0.0172882500211022
0.0172888792787506
0.017289508863987
0.0172901387769849
0.0172907690179307
0.0172913995870151
0.0172920304844232
0.0172926617103481
0.0172932932649832
0.0172939251485017
0.0172945573611208
0.017295189903015
0.0172958227743942
0.0172964559754583
0.0172970895063899
0.0172977233674012
0.0172983575586964
0.0172989920804766
0.0172996269329511
0.0173002621163182
0.0173008976308053
0.0173015334766026
0.0173021696539469
0.0173028061630326
0.0173034430040961
0.0173040801773402
0.0173047176830011
0.0173053555212765
0.0173059936924176
0.0173066321966483
0.0173072710341782
0.017307910205256
0.0173085497101013
0.0173091895489719
0.0173098297220828
0.0173104702296786
0.0173111110719967
0.0173117522492861
0.0173123937617881
0.017313035609747
0.0173136777934134
0.0173143203130607
0.0173149631689062
0.0173156063612399
0.0173162498902971
0.0173168937563426
0.0173175379596502
0.0173181825004906
0.0173188273791124
0.0173194725958094
0.0173201181508433
0.0173207640444904
0.0173214102770337
0.0173220568487581
0.0173227037599488
0.0173233510108828
0.017323998601864
0.0173246465332005
0.0173252948051484
0.0173259434180646
0.0173265923721681
0.0173272416679055
0.0173278913053659
0.0173285412852059
0.0173291916072132
0.0173298422725347
0.0173304932802233
0.0173311446325017
0.0173317963269475
0.0173324483678442
0.0173331007499617
0.0173337534813417
0.0173344065518902
0.0173350599758952
0.0173357137354402
0.0173363678544461
0.0173370223033717
0.0173376771199509
0.0173383322585787
0.0173389877754892
0.0173396436040253
0.017340299824132
0.0173409563427634
0.0173416132691109
0.0173422704778933
0.0173429281137635
0.0173435860124751
0.0173442443617136
0.0173449029494572
0.0173455620168979
0.0173462212915973
0.0173468810835803
0.0173475410415272
0.0173482015663586
0.0173488622016565
0.0173495234702727
0.0173501847740008
0.0173508468009254
0.0173515087602154
0.0173521715642497
0.0173528341617866
0.017353497766429
0.0173541609797346
0.0173548254143157
0.0173554892142013
0.0173561545153753
0.0173568188645919
0.01735748507739
0.0173581499293759
0.0173588171089784
0.0173594824049312
0.017360150619968
0.0173608162853991
0.0173614856209667
0.01736215156218
0.0173628221235717
0.0173634882229345
0.0173641601399504
0.017364826252107
0.0173654996810462
0.0173661656313749
0.0173668407550252
0.0173675063422135
0.0173681833621894
0.0173688483737848
0.0173695274881252
0.017370191737986
0.0173708730926031
0.0173715365066085
0.0173722200915331
0.0173728828917001
0.017373568334119
0.017374231428542
0.0173749175716836
0.0173755833954332
0.0173762674217938
0.017376941790863
0.0173776172471209
0.0173783136259378
0.0173789652680077
0.0173797149903184
0.0173803014391321
0.0173811786216154
0.0173815450308253
0.0173827169473661
0.0173815998148481
0.0173815998148481
0.0173815998148481
1
0.34488410546517
0.20066800594079
0.154967611850169
0.131895031859641
0.117599143001958
0.107768550048805
0.100558714834671
0.0950257657271287
0.0906299226062815
0.0870388264235757
0.0840369237328689
0.0814789001648422
0.0792637405064929
0.0773193851002772
0.0755932375756265
0.074046090846301
0.0726481381642606
0.0713762966143987
0.0702123758599292
0.069141803807827
0.0681527296004332
0.0672353869294172
0.0663816340725648
0.0655846098733879
0.0648384690002662
0.0641381815553395
0.063479389645099
0.0628583052780677
0.0622716252634108
0.0617164464179651
0.0611901859877868
0.0606905264277704
0.0602153936794667
0.0597629523851289
0.0593315876050069
0.058919858300111
0.0585264405439444
0.0581500959889577
0.0577896839151419
0.0574441971123762
0.0571127784874286
0.0567946903689375
0.0564892507752335
0.0561957834825364
0.0559136218956995
0.0556421646049205
0.0553809378905334
0.0551296132771192
0.0548879635931069
0.0546557912220478
0.0544328872874503
0.0542190594965072
0.0540142135809975
0.0538184272947272
0.0536319510798567
0.0534551112683077
0.0532881532017954
0.053131102650301
0.0529837176919297
0.0528455535413401
0.0527161003283814
0.052594915841383
0.0524816827821378
0.0523761665271137
0.0522781064782664
0.0521871097270049
0.0521026121543989
0.0520239340010633
0.051950406765411
0.0518815124447284
0.0518169710912359
0.0517567380174715
0.0517009130279697
0.0516496007729616
0.0516027783747921
0.0515602191984208
0.0515214962026969
0.0514860572560114
0.0514533407412415
0.0514228903583022
0.0513944339698632
0.0513679076467536
0.0513434252418176
0.0513212091337562
0.0513015054145706
0.0512845063091372
0.051270296139094
0.0512588279758529
0.0512499294190791
0.0512433298311613
0.0512386986872312
0.051235685149594
0.0512339515160592
0.0512331965761595
0.0512331680756563
0.0512336657802984
0.0512345378259133
0.0512356732687015
0.0512369933144767
0.0512384429580743
0.0512399839849841
0.051241589653801
0.0512432409595888
0.0512449241667185
0.0512466292454794
0.0512483488878125
0.0512500778599759
0.0512518125365379
0.0512535505302533
0.0512552903801019
0.0512570312857838
0.0512587728884103
0.051260515098323
0.0512622579686006
0.0512640016094046
0.0512657461359375
0.0512674916415094
0.0512692381879077
0.0512709858061794
0.0512727345026939
0.0512744842669283
0.0512762350788468
0.0512779869148934
0.0512797397520766
0.0512814935705657
0.0512832483547647
0.0512850040935582
0.051286760779882
0.0512885184100454
0.0512902769828776
0.0512920364990086
0.0512937969601628
0.0512955583686176
0.0512973207268486
0.051299084037221
0.0513008483018053
0.0513026135223479
0.051304379700164
0.0513061468362027
0.05130791493102
0.0513096839848487
0.0513114539976371
0.0513132249691035
0.0513149968987935
0.0513167697860647
0.0513185436302032
0.051320318430424
0.0513220941858452
0.0513238708956306
0.0513256485588678
0.0513274271746985
0.0513292067422898
0.0513309872608181
0.0513327687295154
0.05133455114765
0.0513363345145387
0.051338118829558
0.0513399040921092
0.0513416903016853
0.0513434774577741
0.0513452655599566
0.0513470546078478
0.0513488446010858
0.0513506355393588
0.0513524274223939
0.0513542202499761
0.0513560140218852
0.0513578087379262
0.051359604397964
0.0513614010018901
0.0513631985495931
0.0513649970409899
0.0513667964760463
0.0513685968546871
0.0513703981769191
0.0513722004427311
0.0513740036521218
0.0513758078051246
0.0513776129017628
0.0513794189421178
0.051381225926237
0.0513830338541885
0.0513848427260633
0.0513866525419679
0.051388463302004
0.0513902750062895
0.0513920876549515
0.0513939012481314
0.0513957157859842
0.051397531268649
0.051399347696307
0.051401165069132
0.0514029833873098
0.0514048026510247
0.0514066228604856
0.0514084440158957
0.0514102661174652
0.0514120891654281
0.0514139131600162
0.051415738101458
0.0514175639900137
0.0514193908259224
0.0514212186094537
0.0514230473408804
0.0514248770204571
0.0514267076484821
0.0514285392252298
0.0514303717510028
0.0514322052260818
0.0514340396507899
0.0514358750254426
0.0514377113503437
0.0514395486258237
0.0514413868522019
0.0514432260298289
0.0514450661590302
0.051446907240164
0.0514487492735708
0.0514505922596184
0.0514524361986632
0.0514542810910805
0.0514561269372456
0.0514579737375301
0.0514598214923212
0.0514616702020173
0.051463519867003
0.0514653704876957
0.0514672220644926
0.0514690745978015
0.051470928088061
0.0514727825356718
0.0514746379410752
0.0514764943047089
0.0514783516270132
0.0514802099084296
0.0514820691494196