# vtk DataFile Version 2.0
FlowField
ASCII
DATASET STRUCTURED_GRID
DIMENSIONS 400 1 200
POINTS 80000 float
0 0 0
0.08 0 0
0.16 0 0
0.24 0 0
0.32 0 0
0.4 0 0
0.48 0 0
0.56 0 0
0.64 0 0
0.72 0 0
0.8 0 0
0.88 0 0
0.96 0 0
1.04 0 0
1.12 0 0
1.2 0 0
1.28 0 0
1.36 0 0
1.44 0 0
1.52 0 0
1.6 0 0
1.68 0 0
1.76 0 0
1.84 0 0
1.92 0 0
2 0 0
2.08 0 0
2.16 0 0
2.24 0 0
2.32 0 0
2.4 0 0
2.48 0 0
2.56 0 0
2.64 0 0
2.72 0 0
2.8 0 0
2.88 0 0
2.96 0 0
3.04 0 0
3.12 0 0
3.2 0 0
3.28 0 0
3.36 0 0
3.44 0 0
3.52 0 0
3.6 0 0
3.68 0 0
3.76 0 0
3.84 0 0
3.92 0 0
4 0 0
4.08 0 0
4.16 0 0
4.24 0 0
4.32 0 0
4.4 0 0
4.48 0 0
4.56 0 0
4.64 0 0
4.72 0 0
4.8 0 0
4.88 0 0
4.96 0 0
5.04 0 0
5.12 0 0
5.2 0 0
5.28 0 0
5.36 0 0
5.44 0 0
5.52 0 0
5.6 0 0
5.68 0 0
5.76 0 0
5.84 0 0
5.92 0 0
6 0 0
6.08 0 0
6.16 0 0
6.24 0 0
6.32 0 0
6.4 0 0
6.48 0 0
6.56 0 0
6.64 0 0
6.72 0 0
6.8 0 0
6.88 0 0
6.96 0 0
7.04 0 0
7.12 0 0
7.2 0 0
7.28 0 0
7.36 0 0
7.44 0 0
7.52 0 0
7.6 0 0
7.68 0 0
7.76 0 0
7.84 0 0
7.92 0 0
8 0 0
8.08 0 0
8.16 0 0
8.24 0 0
8.32 0 0
8.4 0 0
8.48 0 0
8.56 0 0
8.64 0 0
8.72 0 0
8.8 0 0
8.88 0 0
8.96 0 0
9.04 0 0
9.12 0 0
9.2 0 0
9.28 0 0
9.36 0 0
9.44 0 0
9.52 0 0
9.6 0 0
9.68 0 0
9.76 0 0
9.84 0 0
9.92 0 0
10 0 0
10.08 0 0
10.16 0 0
10.24 0 0
10.32 0 0
10.4 0 0
10.48 0 0
10.56 0 0
10.64 0 0
10.72 0 0
10.8 0 0
10.88 0 0
10.96 0 0
11.04 0 0
11.12 0 0
11.2 0 0
11.28 0 0
11.36 0 0
11.44 0 0
11.52 0 0
11.6 0 0
11.68 0 0
11.76 0 0
11.84 0 0
11.92 0 0
12 0 0
12.08 0 0
12.16 0 0
12.24 0 0
12.32 0 0
12.4 0 0
12.48 0 0
12.56 0 0
12.64 0 0
12.72 0 0
12.8 0 0
12.88 0 0
12.96 0 0
13.04 0 0
13.12 0 0
13.2 0 0
13.28 0 0
13.36 0 0
13.44 0 0
13.52 0 0
13.6 0 0
13.68 0 0
13.76 0 0
13.84 0 0
13.92 0 0
14 0 0
14.08 0 0
14.16 0 0
14.24 0 0
14.32 0 0
14.4 0 0
14.48 0 0
14.56 0 0
14.64 0 0
14.72 0 0
14.8 0 0
14.88 0 0
14.96 0 0
15.04 0 0
15.12 0 0
15.2 0 0
15.28 0 0
15.36 0 0
15.44 0 0
15.52 0 0
15.6 0 0
15.68 0 0
15.76 0 0
15.84 0 0
15.92 0 0
16 0 0
16.08 0 0
16.16 0 0
16.24 0 0
16.32 0 0
16.4 0 0
16.48 0 0
16.56 0 0
16.64 0 0
16.72 0 0
16.8 0 0
16.88 0 0
16.96 0 0
17.04 0 0
17.12 0 0
17.2 0 0
17.28 0 0
17.36 0 0
17.44 0 0
17.52 0 0
17.6 0 0
17.68 0 0
17.76 0 0
17.84 0 0
17.92 0 0
18 0 0
18.08 0 0
18.16 0 0
18.24 0 0
18.32 0 0
18.4 0 0
18.48 0 0
18.56 0 0
18.64 0 0
18.72 0 0
18.8 0 0
18.88 0 0
18.96 0 0
19.04 0 0
19.12 0 0
19.2 0 0
19.28 0 0
19.36 0 0
19.44 0 0
19.52 0 0
19.6 0 0
19.68 0 0
19.76 0 0
19.84 0 0
19.92 0 0
20 0 0
20.08 0 0
20.16 0 0
20.24 0 0
20.32 0 0
20.4 0 0
20.48 0 0
20.56 0 0
20.64 0 0
20.72 0 0
20.8 0 0
20.88 0 0
20.96 0 0
21.04 0 0
21.12 0 0
21.2 0 0
21.28 0 0
21.36 0 0
21.44 0 0
21.52 0 0
21.6 0 0
21.68 0 0
21.76 0 0
21.84 0 0
21.92 0 0
22 0 0
22.08 0 0
22.16 0 0
22.24 0 0
22.32 0 0
22.4 0 0
22.48 0 0
22.56 0 0
22.64 0 0
22.72 0 0
22.8 0 0
22.88 0 0
22.96 0 0
23.04 0 0
23.12 0 0
23.2 0 0
23.28 0 0
23.36 0 0
23.44 0 0
23.52 0 0
23.6 0 0
23.68 0 0
23.76 0 0
23.84 0 0
23.92 0 0
24 0 0
24.08 0 0
24.16 0 0
24.24 0 0
24.32 0 0
24.4 0 0
24.48 0 0
24.56 0 0
24.64 0 0
24.72 0 0
24.8 0 0
24.88 0 0
24.96 0 0
25.04 0 0
25.12 0 0
25.2 0 0
25.28 0 0
25.36 0 0
25.44 0 0
25.52 0 0
25.6 0 0
25.68 0 0
25.76 0 0
25.84 0 0
25.92 0 0
26 0 0
26.08 0 0
26.16 0 0
26.24 0 0
26.32 0 0
26.4 0 0
26.48 0 0
26.56 0 0
26.64 0 0
26.72 0 0
26.8 0 0
26.88 0 0
26.96 0 0
27.04 0 0
27.12 0 0
27.2 0 0
27.28 0 0
27.36 0 0
27.44 0 0
27.52 0 0
27.6 0 0
27.68 0 0
27.76 0 0
27.84 0 0
27.92 0 0
28 0 0
28.08 0 0
28.16 0 0
28.24 0 0
28.32 0 0
28.4 0 0
28.48 0 0
28.56 0 0
28.64 0 0
28.72 0 0
28.8 0 0
28.88 0 0
28.96 0 0
29.04 0 0
29.12 0 0
29.2 0 0
29.28 0 0
29.36 0 0
29.44 0 0
29.52 0 0
29.6 0 0
29.68 0 0
29.76 0 0
29.84 0 0
29.92 0 0
30 0 0
30.08 0 0
30.16 0 0
30.24 0 0
30.32 0 0
30.4 0 0
30.48 0 0
30.56 0 0
30.64 0 0
30.72 0 0
30.8 0 0
30.88 0 0
30.96 0 0
31.04 0 0
31.12 0 0
31.2 0 0
31.28 0 0
31.36 0 0
31.44 0 0
31.52 0 0
31.6 0 0
31.68 0 0
31.76 0 0
31.84 0 0
31.92 0 0
0 0.005 0
0.08 0.005 0
0.16 0.005 0
0.24 0.005 0
0.32 0.005 0
0.4 0.005 0
0.48 0.005 0
0.56 0.005 0
0.64 0.005 0
0.72 0.005 0
0.8 0.005 0
0.88 0.005 0
0.96 0.005 0
1.04 0.005 0
1.12 0.005 0
1.2 0.005 0
1.28 0.005 0
1.36 0.005 0
1.44 0.005 0
1.52 0.005 0
1.6 0.005 0
1.68 0.005 0
1.76 0.005 0
1.84 0.005 0
1.92 0.005 0
2 0.005 0
2.08 0.005 0
2.16 0.005 0
2.24 0.005 0
2.32 0.005 0
2.4 0.005 0
2.48 0.005 0
2.56 0.005 0
2.64 0.005 0
2.72 0.005 0
2.8 0.005 0
2.88 0.005 0
2.96 0.005 0
3.04 0.005 0
3.12 0.005 0
3.2 0.005 0
3.28 0.005 0
3.36 0.005 0
3.44 0.005 0
3.52 0.005 0
3.6 0.005 0
3.68 0.005 0
3.76 0.005 0
3.84 0.005 0
3.92 0.005 0
4 0.005 0
4.08 0.005 0
4.16 0.005 0
4.24 0.005 0
4.32 0.005 0
4.4 0.005 0
4.48 0.005 0
4.56 0.005 0
4.64 0.005 0
4.72 0.005 0
4.8 0.005 0
4.88 0.005 0
4.96 0.005 0
5.04 0.005 0
5.12 0.005 0
5.2 0.005 0
5.28 0.005 0
5.36 0.005 0
5.44 0.005 0
5.52 0.005 0
5.6 0.005 0
5.68 0.005 0
5.76 0.005 0
5.84 0.005 0
5.92 0.005 0
6 0.005 0
6.08 0.005 0
6.16 0.005 0
6.24 0.005 0
6.32 0.005 0
6.4 0.005 0
6.48 0.005 0
6.56 0.005 0
6.64 0.005 0
6.72 0.005 0
6.8 0.005 0
6.88 0.005 0
6.96 0.005 0
7.04 0.005 0
7.12 0.005 0
7.2 0.005 0
7.28 0.005 0
7.36 0.005 0
7.44 0.005 0
7.52 0.005 0
7.6 0.005 0
7.68 0.005 0
7.76 0.005 0
7.84 0.005 0
7.92 0.005 0
8 0.005 0
8.08 0.005 0
8.16 0.005 0
8.24 0.005 0
8.32 0.005 0
8.4 0.005 0
8.48 0.005 0
8.56 0.005 0
8.64 0.005 0
8.72 0.005 0
8.8 0.005 0
8.88 0.005 0
8.96 0.005 0
9.04 0.005 0
9.12 0.005 0
9.2 0.005 0
9.28 0.005 0
9.36 0.005 0
9.44 0.005 0
9.52 0.005 0
9.6 0.005 0
9.68 0.005 0
9.76 0.005 0
9.84 0.005 0
9.92 0.005 0
10 0.005 0
10.08 0.005 0
10.16 0.005 0
10.24 0.005 0
10.32 0.005 0
10.4 0.005 0
10.48 0.005 0
10.56 0.005 0
10.64 0.005 0
10.72 0.005 0
10.8 0.005 0
10.88 0.005 0
10.96 0.005 0
11.04 0.005 0
11.12 0.005 0
11.2 0.005 0
11.28 0.005 0
11.36 0.005 0
11.44 0.005 0
11.52 0.005 0
11.6 0.005 0
11.68 0.005 0
11.76 0.005 0
11.84 0.005 0
11.92 0.005 0
12 0.005 0
12.08 0.005 0
12.16 0.005 0
12.24 0.005 0
12.32 0.005 0
12.4 0.005 0
12.48 0.005 0
12.56 0.005 0
12.64 0.005 0
12.72 0.005 0
12.8 0.005 0
12.88 0.005 0
12.96 0.005 0
13.04 0.005 0
13.12 0.005 0
13.2 0.005 0
13.28 0.005 0
13.36 0.005 0
13.44 0.005 0
13.52 0.005 0
13.6 0.005 0
13.68 0.005 0
13.76 0.005 0
13.84 0.005 0
13.92 0.005 0
14 0.005 0
14.08 0.005 0
14.16 0.005 0
14.24 0.005 0
14.32 0.005 0
14.4 0.005 0
14.48 0.005 0
14.56 0.005 0
14.64 0.005 0
14.72 0.005 0
14.8 0.005 0
14.88 0.005 0
14.96 0.005 0
15.04 0.005 0
15.12 0.005 0
15.2 0.005 0
15.28 0.005 0
15.36 0.005 0
15.44 0.005 0
15.52 0.005 0
15.6 0.005 0
15.68 0.005 0
15.76 0.005 0
15.84 0.005 0
15.92 0.005 0
16 0.005 0
16.08 0.005 0
16.16 0.005 0
16.24 0.005 0
16.32 0.005 0
16.4 0.005 0
16.48 0.005 0
16.56 0.005 0
16.64 0.005 0
16.72 0.005 0
16.8 0.005 0
16.88 0.005 0
16.96 0.005 0
17.04 0.005 0
17.12 0.005 0
17.2 0.005 0
17.28 0.005 0
17.36 0.005 0
17.44 0.005 0
17.52 0.005 0
17.6 0.005 0
17.68 0.005 0
17.76 0.005 0
17.84 0.005 0
17.92 0.005 0
18 0.005 0
18.08 0.005 0
18.16 0.005 0
18.24 0.005 0
18.32 0.005 0
18.4 0.005 0
18.48 0.005 0
18.56 0.005 0
18.64 0.005 0
18.72 0.005 0
18.8 0.005 0
18.88 0.005 0
18.96 0.005 0
19.04 0.005 0
19.12 0.005 0
19.2 0.005 0
19.28 0.005 0
19.36 0.005 0
19.44 0.005 0
19.52 0.005 0
19.6 0.005 0
19.68 0.005 0
19.76 0.005 0
19.84 0.005 0
19.92 0.005 0
20 0.005 0
20.08 0.005 0
20.16 0.005 0
20.24 0.005 0
20.32 0.005 0
20.4 0.005 0
20.48 0.005 0
20.56 0.005 0
20.64 0.005 0
20.72 0.005 0
20.8 0.005 0
20.88 0.005 0
20.96 0.005 0
21.04 0.005 0
21.12 0.005 0
21.2 0.005 0
21.28 0.005 0
21.36 0.005 0
21.44 0.005 0
21.52 0.005 0
21.6 0.005 0
21.68 0.005 0
21.76 0.005 0
21.84 0.005 0
21.92 0.005 0
22 0.005 0
22.08 0.005 0
22.16 0.005 0
22.24 0.005 0
22.32 0.005 0
22.4 0.005 0
22.48 0.005 0
22.56 0.005 0
22.64 0.005 0
22.72 0.005 0
22.8 0.005 0
22.88 0.005 0
22.96 0.005 0
23.04 0.005 0
23.12 0.005 0
23.2 0.005 0
23.28 0.005 0
23.36 0.005 0
23.44 0.005 0
23.52 0.005 0
23.6 0.005 0
23.68 0.005 0
23.76 0.005 0
23.84 0.005 0
23.92 0.005 0
24 0.005 0
24.08 0.005 0
24.16 0.005 0
24.24 0.005 0
24.32 0.005 0
24.4 0.005 0
24.48 0.005 0
24.56 0.005 0
24.64 0.005 0
24.72 0.005 0
24.8 0.005 0
24.88 0.005 0
24.96 0.005 0
25.04 0.005 0
25.12 0.005 0
25.2 0.005 0
25.28 0.005 0
25.36 0.005 0
25.44 0.005 0
25.52 0.005 0
25.6 0.005 0
25.68 0.005 0
25.76 0.005 0
25.84 0.005 0
25.92 0.005 0
26 0.005 0
26.08 0.005 0
26.16 0.005 0
26.24 0.005 0
26.32 0.005 0
26.4 0.005 0
26.48 0.005 0
26.56 0.005 0
26.64 0.005 0
26.72 0.005 0
26.8 0.005 0
26.88 0.005 0
26.96 0.005 0
27.04 0.005 0
27.12 0.005 0
27.2 0.005 0
27.28 0.005 0
27.36 0.005 0
27.44 0.005 0
27.52 0.005 0
27.6 0.005 0
27.68 0.005 0
27.76 0.005 0
27.84 0.005 0
27.92 0.005 0
28 0.005 0
28.08 0.005 0
28.16 0.005 0
28.24 0.005 0
28.32 0.005 0
28.4 0.005 0
28.48 0.005 0
28.56 0.005 0
28.64 0.005 0
28.72 0.005 0
28.8 0.005 0
28.88 0.005 0
28.96 0.005 0
29.04 0.005 0
29.12 0.005 0
29.2 0.005 0
29.28 0.005 0
29.36 0.005 0
29.44 0.005 0
29.52 0.005 0
29.6 0.005 0
29.68 0.005 0
29.76 0.005 0
29.84 0.005 0
29.92 0.005 0
30 0.005 0
30.08 0.005 0
30.16 0.005 0
30.24 0.005 0
30.32 0.005 0
30.4 0.005 0
30.48 0.005 0
30.56 0.005 0
30.64 0.005 0
30.72 0.005 0
30.8 0.005 0
30.88 0.005 0
30.96 0.005 0
31.04 0.005 0
31.12 0.005 0
31.2 0.005 0
31.28 0.005 0
31.36 0.005 0
31.44 0.005 0
31.52 0.005 0
31.6 0.005 0
31.68 0.005 0
31.76 0.005 0
31.84 0.005 0
31.92 0.005 0
0 0.01 0
0.08 0.01 0
0.16 0.01 0
0.24 0.01 0
0.32 0.01 0
0.4 0.01 0
0.48 0.01 0
0.56 0.01 0
0.64 0.01 0
0.72 0.01 0
0.8 0.01 0
0.88 0.01 0
0.96 0.01 0
1.04 0.01 0
1.12 0.01 0
1.2 0.01 0
1.28 0.01 0
1.36 0.01 0
1.44 0.01 0
1.52 0.01 0
1.6 0.01 0
1.68 0.01 0
1.76 0.01 0
1.84 0.01 0
1.92 0.01 0
2 0.01 0
2.08 0.01 0
2.16 0.01 0
2.24 0.01 0
2.32 0.01 0
2.4 0.01 0
2.48 0.01 0
2.56 0.01 0
2.64 0.01 0
2.72 0.01 0
2.8 0.01 0
2.88 0.01 0
2.96 0.01 0
3.04 0.01 0
3.12 0.01 0
3.2 0.01 0
3.28 0.01 0
3.36 0.01 0
3.44 0.01 0
3.52 0.01 0
3.6 0.01 0
3.68 0.01 0
3.76 0.01 0
3.84 0.01 0
3.92 0.01 0
4 0.01 0
4.08 0.01 0
4.16 0.01 0
4.24 0.01 0
4.32 0.01 0
4.4 0.01 0
4.48 0.01 0
4.56 0.01 0
4.64 0.01 0
4.72 0.01 0
4.8 0.01 0
4.88 0.01 0
4.96 0.01 0
5.04 0.01 0
5.12 0.01 0
[...]
POINT_DATA 80000

SCALARS u float 1
LOOKUP_TABLE default
0
-0.13166264676282
-0.0682691744211206
-0.0522959327048997
-0.044419796485445
-0.0395766802225323
-0.036259580100788
-0.0338325329849795
-0.031972547237821
-0.0304958625365345
-0.0292897872965933
-0.0282814810892138
-0.027421981305454
-0.0266773360752985
-0.0260233757560194
-0.0254424881299827
-0.0249215606966541
-0.0244506325606792
-0.024021992149225
-0.0236295622458945
-0.0232684739522493
-0.0229347669562213
-0.0226251754778717
-0.0223369731312103
-0.0220678588283406
-0.0218158716076231
-0.0215793260678417
-0.0213567626830766
-0.0211469090686284
-0.0209486494527914
-0.0207610003262663
-0.0205830907072014
-0.0204141458855934
-0.0202534739406524
-0.0201004546207505
-0.0199545302117055
-0.0198151978937292
-0.0196820030689683
-0.0195545333917155
-0.0194324135880303
-0.0193153012699883
-0.0192028836853088
-0.0190948749555413
-0.0189910132835241
-0.0188910580095634
-0.0187947869284345
-0.0187019944095309
-0.01861249040173
-0.0185260997498678
-0.0184426610440591
-0.0183620247364406
-0.0182840510807525
-0.0182086088245317
-0.0181355751093802
-0.018064836067139
-0.0179962869851233
-0.0179298312431471
-0.0178653782909866
-0.017802841859461
-0.0177421395672075
-0.0176831940516042
-0.0176259345180441
-0.0175702971869966
-0.0175162239292332
-0.0174636598496895
-0.01741255158301
-0.0173628477764627
-0.0173145017907944
-0.0172674750646115
-0.0172217390286448
-0.0171772743774291
-0.0171340682990357
-0.0170921116707005
-0.0170513982241413
-0.0170119262056836
-0.016973701072455
-0.0169367366414092
-0.0169010526897583
-0.0168666690380698
-0.0168335984088318
-0.0168018414109926
-0.0167713861182285
-0.016742212317745
-0.0167142979667275
-0.0166876241857756
-0.0166621759674159
-0.0166379382283791
-0.0166148895202475
-0.0165929971375715
-0.0165722167388857
-0.0165524972630746
-0.0165337891352063
-0.0165160519804619
-0.0164992582067539
-0.0164833907709301
-0.0164684362010786
-0.0164543761453817
-0.0164411813326826
-0.0164288106428325
-0.0164172156293218
-0.0164063484356676
-0.0163961696575681
-0.016386652855968
-0.016377783940245
-0.0163695557843263
-0.0163619602912279
-0.0163549809816884
-0.0163485888154929
-0.0163427426252809
-0.0163373938435718
-0.0163324937820554
-0.0163280010365676
-0.0163238867719418
-0.0163201365070587
-0.0163167481906162
-0.0163137274211398
-0.0163110813196209
-0.0163088126910175
-0.0163069157772834
-0.0163053742952292
-0.0163041617907104
-0.0163032438139116
-0.0163025811318562
-0.0163021331588419
-0.0163018609449208
-0.0163017293262427
-0.0163017081156313
-0.0163017724300989
-0.0163019023817012
-0.0163020823969643
-0.0163023004022352
-0.0163025470450121
-0.0163028150454604
-0.0163030987071321
-0.0163033935720561
-0.0163036961835404
-0.0163040039167963
-0.0163043148447272
-0.0163046276184499
-0.0163049413534107
-0.0163052555205583
-0.0163055698461998
-0.0163058842253059
-0.0163061986516931
-0.0163065131665
-0.0163068278237107
-0.0163071426703047
-0.0163074577374682
-0.0163077730391971
-0.0163080885751133
-0.0163084043350929
-0.0163087203040021
-0.0163090364654719
-0.0163093528046718
-0.0163096693096971
-0.0163099859720951
-0.0163103027866542
-0.0163106197508565
-0.016310936864157
-0.016311254127239
-0.016311571541492
-0.0163118891084952
-0.0163122068297939
-0.0163125247066891
-0.0163128427401697
-0.0163131609309615
-0.0163134792795076
-0.0163137977860489
-0.0163141164506815
-0.0163144352733545
-0.0163147542540113
-0.0163150733925232
-0.0163153926887499
-0.01631571214255
-0.0163160317537607
-0.0163163515222535
-0.0163166714478842
-0.0163169915305058
-0.0163173117699919
-0.0163176321662003
-0.0163179527190002
-0.016318273428271
-0.0163185942938768
-0.0163189153156973
-0.016319236493615
-0.0163195578275283
-0.0163198793173098
-0.0163202009628689
-0.0163205227641131
-0.0163208447209418
-0.0163211668332966
-0.016321489101088
-0.0163218115242582
-0.0163221341027358
-0.01632245683647
-0.0163227797254243
-0.0163231027695412
-0.0163234259687886
-0.0163237493231352
-0.0163240728325525
-0.0163243964970197
-0.0163247203165023
-0.0163250442910025
-0.016325368420488
-0.0163256927049708
-0.016326017144437
-0.0163263417388739
-0.0163266664882923
-0.0163269913926749
-0.0163273164520479
-0.0163276416664121
-0.0163279670357572
-0.0163282925601147
-0.0163286182395008
-0.0163289440739189
-0.0163292700633755
-0.0163295962079092
-0.0163299225075293
-0.0163302489622639
-0.0163305755721316
-0.0163309023371619
-0.0163312292573799
-0.0163315563328141
-0.0163318835634922
-0.0163322109494584
-0.0163325384907237
-0.0163328661873332
-0.0163331940393326
-0.0163335220467548
-0.0163338502096322
-0.0163341785280161
-0.0163345070019251
-0.0163348356314292
-0.0163351644165514
-0.0163354933573514
-0.016335822453874
-0.0163361517061514
-0.0163364811142495
-0.0163368106782179
-0.016337140398097
-0.0163374702739472
-0.016337800305813
-0.0163381304937597
-0.0163384608378337
-0.0163387913380899
-0.0163391219945935
-0.0163394528073935
-0.0163397837765638
-0.0163401149021459
-0.0163404461842213
-0.0163407776228431
-0.016341109218069
-0.0163414409699632
-0.016341772878586
-0.016342104944022
-0.0163424371663229
-0.0163427695455622
-0.0163431020818107
-0.0163434347751374
-0.0163437676256047
-0.0163441006332841
-0.0163444337982458
-0.016344767120571
-0.0163451006003422
-0.0163454342376127
-0.0163457680324629
-0.0163461019849684
-0.016346436095202
-0.0163467703632561
-0.0163471047891844
-0.0163474393730906
-0.0163477741150407
-0.0163481090151196
-0.0163484440733964
-0.0163487792899612
-0.0163491146649027
-0.0163494501982922
-0.0163497858902128
-0.0163501217407646
-0.0163504577500137
-0.0163507939180585
-0.0163511302449803
-0.0163514667308665
-0.0163518033758054
-0.0163521401798899
-0.0163524771432097
-0.0163528142658527
-0.0163531515479182
-0.0163534889894891
-0.016353826590682
-0.0163541643515494
-0.0163545022722396
-0.0163548403527927
-0.0163551785933766
-0.016355516993992
-0.0163558555548726
-0.016356194275945
-0.0163565331575254
-0.0163568721994566
-0.0163572114021445
-0.0163575507653418
-0.0163578902895758
-0.0163582299744375
-0.0163585698206534
-0.0163589098275996
-0.0163592499962333
-0.0163595903256883
-0.0163599308171877
-0.0163602714695736
-0.0163606122844151
-0.0163609532601473
-0.0163612943988211
-0.0163616356983275
-0.0163619771613368
-0.016362318785019
-0.0163626605729025
-0.0163630025211762
-0.0163633446344979
-0.0163636869077687
-0.0163640293471073
-0.0163643719457395
-0.0163647147117674
-0.0163650576361161
-0.0163654007295033
-0.0163657439798863
-0.0163660874014168
-0.0163664309780858
-0.0163667747285949
-0.01636711863174
-0.0163674627121879
-0.0163678069419115
-0.0163681513533789
-0.0163684959096472
-0.0163688406533991
-0.0163691855360101
-0.0163695306135245
-0.0163698758220468
-0.0163702212350726
-0.0163705667688051
-0.0163709125194502
-0.0163712583772773
-0.0163716044681292
-0.0163719506484365
-0.0163722970826512
-0.0163726435831538
-0.0163729903646818
-0.016373337182225
-0.0163736843159621
-0.0163740314462961
-0.0163743789383879
-0.0163747263758076
-0.0163750742340033
-0.0163754219709632
-0.0163757702050191
-0.016376118231585
-0.0163764668538044
-0.0163768151570547
-0.0163771641829682
-0.0163775127461613
-0.0163778621952983
-0.0163782109969031
-0.0163785608937607
-0.0163789099063293
-0.0163792602814917
-0.0163796094702982
-0.0163799603615743
-0.0163803096832087
-0.0163806611368722
-0.0163810105378655
-0.0163813626094858
-0.0163817120254348
-0.0163820647799602
-0.0163824141358304
-0.0163827676457746
-0.0163831168590592
-0.0163834711988953
-0.0163838201887014
-0.016384175421742
-0.0163845241299956
-0.0163848802808184
-0.0163852287181454
-0.0163855857172032
-0.0163859340598873
-0.0163862916335948
-0.016386640428047
-0.0163869978792648
-0.016387348481445
-0.0163877042342342
-0.0163880597831093
-0.0163884103611497
-0.0163887780207341
-0.0163891153754044
-0.0163895116887113
-0.016389814095028
-0.0163902777920423
-0.0163904633890888
-0.0163910796334345
-0.0163904815577748
-0.0163904815577748
-0.0163904815577748
1
0.13166264676282
0.0682691744211206
0.0522959327048997
0.044419796485445
0.0395766802225323
0.036259580100788
0.0338325329849795
0.031972547237821
0.0304958625365345
0.0292897872965933
0.0282814810892138
0.027421981305454
0.0266773360752985
0.0260233757560194
0.0254424881299827
0.0249215606966541
0.0244506325606792
0.024021992149225
0.0236295622458945
0.0232684739522493
0.0229347669562213
0.0226251754778717
0.0223369731312103
0.0220678588283406
0.0218158716076231
0.0215793260678417
0.0213567626830766
0.0211469090686284
0.0209486494527914
0.0207610003262663
0.0205830907072014
0.0204141458855934
0.0202534739406524
0.0201004546207505
0.0199545302117055
0.0198151978937292
0.0196820030689683
0.0195545333917155
0.0194324135880303
0.0193153012699883
0.0192028836853088
0.0190948749555413
0.0189910132835241
0.0188910580095634
0.0187947869284345
0.0187019944095309
0.01861249040173
0.0185260997498678
0.0184426610440591
0.0183620247364406
0.0182840510807525
0.0182086088245317
0.0181355751093802
0.018064836067139
0.0179962869851233
0.0179298312431471
0.0178653782909866
0.017802841859461
0.0177421395672075
0.0176831940516042
0.0176259345180441
0.0175702971869966
0.0175162239292332
0.0174636598496895
0.01741255158301
0.0173628477764627
0.0173145017907944
0.0172674750646115
0.0172217390286448
0.0171772743774291
0.0171340682990357
0.0170921116707005
0.0170513982241413
0.0170119262056836
0.016973701072455
0.0169367366414092
0.0169010526897583
0.0168666690380698
0.0168335984088318
0.0168018414109926
0.0167713861182285
0.016742212317745
0.0167142979667275
0.0166876241857756
0.0166621759674159
0.0166379382283791
0.0166148895202475
0.0165929971375715
0.0165722167388857
0.0165524972630746
0.0165337891352063
0.0165160519804619
0.0164992582067539
0.0164833907709301
0.0164684362010786
0.0164543761453817
0.0164411813326826
0.0164288106428325
0.0164172156293218
0.0164063484356676
0.0163961696575681
0.016386652855968
0.016377783940245
0.0163695557843263
0.0163619602912279
0.0163549809816884
0.0163485888154929
0.0163427426252809
0.0163373938435718
0.0163324937820554
0.0163280010365676
0.0163238867719418
0.0163201365070587
0.0163167481906162
0.0163137274211398
0.0163110813196209
0.0163088126910175
0.0163069157772834
0.0163053742952292
0.0163041617907104
0.0163032438139116
0.0163025811318562
0.0163021331588419
0.0163018609449208
0.0163017293262427
0.0163017081156313
0.0163017724300989
0.0163019023817012
0.0163020823969643
0.0163023004022352
0.0163025470450121
0.0163028150454604
0.0163030987071321
0.0163033935720561
0.0163036961835404
0.0163040039167963
0.0163043148447272
0.0163046276184499
0.0163049413534107
0.0163052555205583
0.0163055698461998
0.0163058842253059
0.0163061986516931
0.0163065131665
0.0163068278237107
0.0163071426703047
0.0163074577374682
0.0163077730391971
0.0163080885751133
0.0163084043350929
0.0163087203040021
0.0163090364654719
0.0163093528046718
0.0163096693096971
0.0163099859720951
0.0163103027866542
0.0163106197508565
0.016310936864157
0.016311254127239
0.016311571541492
0.0163118891084952
0.0163122068297939
0.0163125247066891
0.0163128427401697
0.0163131609309615
0.0163134792795076
0.0163137977860489
0.0163141164506815
0.0163144352733545
0.0163147542540113
0.0163150733925232
0.0163153926887499
0.01631571214255
0.0163160317537607
0.0163163515222535
0.0163166714478842
0.0163169915305058
0.0163173117699919
0.0163176321662003
0.0163179527190002
0.016318273428271
0.0163185942938768
0.0163189153156973
0.016319236493615
0.0163195578275283
0.0163198793173098
0.0163202009628689
0.0163205227641131
0.0163208447209418
0.0163211668332966
0.016321489101088
0.0163218115242582
0.0163221341027358
0.01632245683647
0.0163227797254243
0.0163231027695412
0.0163234259687886
0.0163237493231352
0.0163240728325525
0.0163243964970197
0.0163247203165023
0.0163250442910025
0.016325368420488
0.0163256927049708
0.016326017144437
0.0163263417388739
0.0163266664882923
0.0163269913926749
0.0163273164520479
0.0163276416664121
0.0163279670357572
0.0163282925601147
0.0163286182395008
0.0163289440739189
0.0163292700633755
0.0163295962079092
0.0163299225075293
0.0163302489622639
0.0163305755721316
0.0163309023371619
0.0163312292573799
0.0163315563328141
0.0163318835634922
0.0163322109494584
0.0163325384907237
0.0163328661873332
0.0163331940393326
0.0163335220467548
0.0163338502096322
0.0163341785280161
0.0163345070019251
0.0163348356314292
0.0163351644165514
0.0163354933573514
0.016335822453874
0.0163361517061514
0.0163364811142495
0.0163368106782179
0.016337140398097
0.0163374702739472
0.016337800305813
0.0163381304937597
0.0163384608378337
0.0163387913380899
0.0163391219945935
0.0163394528073935
0.0163397837765638
0.0163401149021459
0.0163404461842213
0.0163407776228431
0.016341109218069
0.0163414409699632
0.016341772878586
0.016342104944022
0.0163424371663229
0.0163427695455622
0.0163431020818107
0.0163434347751374
0.0163437676256047
0.0163441006332841
0.0163444337982458
0.016344767120571
0.0163451006003422
0.0163454342376127
0.0163457680324629
0.0163461019849684
0.016346436095202
0.0163467703632561
0.0163471047891844
0.0163474393730906
0.0163477741150407
0.0163481090151196
0.0163484440733964
0.0163487792899612
0.0163491146649027
0.0163494501982922
0.0163497858902128
0.0163501217407646
0.0163504577500137
0.0163507939180585
0.0163511302449803
0.0163514667308665
0.0163518033758054
0.0163521401798899
0.0163524771432097
0.0163528142658527
0.0163531515479182
0.0163534889894891
0.016353826590682
0.0163541643515494
0.0163545022722396
0.0163548403527927
0.0163551785933766
0.016355516993992
0.0163558555548726
0.016356194275945
0.0163565331575254
0.0163568721994566
0.0163572114021445
0.0163575507653418
0.0163578902895758
0.0163582299744375
0.0163585698206534
0.0163589098275996
0.0163592499962333
0.0163595903256883
0.0163599308171877
0.0163602714695736
0.0163606122844151
0.0163609532601473
0.0163612943988211
0.0163616356983275
0.0163619771613368
0.016362318785019
0.0163626605729025
0.0163630025211762
0.0163633446344979
0.0163636869077687
0.0163640293471073
0.0163643719457395
0.0163647147117674
0.0163650576361161
0.0163654007295033
0.0163657439798863
0.0163660874014168
0.0163664309780858
0.0163667747285949
0.01636711863174
0.0163674627121879
0.0163678069419115
0.0163681513533789
0.0163684959096472
0.0163688406533991
0.0163691855360101
0.0163695306135245
0.0163698758220468
0.0163702212350726
0.0163705667688051
0.0163709125194502
0.0163712583772773
0.0163716044681292
0.0163719506484365
0.0163722970826512
0.0163726435831538
0.0163729903646818
0.016373337182225
0.0163736843159621
0.0163740314462961
0.0163743789383879
0.0163747263758076
0.0163750742340033
0.0163754219709632
0.0163757702050191
0.016376118231585
0.0163764668538044
0.0163768151570547
0.0163771641829682
0.0163775127461613
0.0163778621952983
0.0163782109969031
0.0163785608937607
0.0163789099063293
0.0163792602814917
0.0163796094702982
0.0163799603615743
0.0163803096832087
0.0163806611368722
0.0163810105378655
0.0163813626094858
0.0163817120254348
0.0163820647799602
0.0163824141358304
0.0163827676457746
0.0163831168590592
0.0163834711988953
0.0163838201887014
0.016384175421742
0.0163845241299956
0.0163848802808184
0.0163852287181454
0.0163855857172032
0.0163859340598873
0.0163862916335948
0.016386640428047
0.0163869978792648
0.016387348481445
0.0163877042342342
0.0163880597831093
0.0163884103611497
0.0163887780207341
0.0163891153754044
0.0163895116887113
0.016389814095028
0.0163902777920423
0.0163904633890888
0.0163910796334345
0.0163904815577748
0.0163904815577748
0.0163904815577748
1
0.344883856848662
0.20066759182316
0.154967077139262
0.131894398279976
0.117598423812097
0.107767754574375
0.100557850270217
0.095024837931321
0.0906289364704233
0.08703778620436
0.0840358334449101
0.0814777636704949
0.079262561105823
0.0773181652927185
0.0755919797772479
0.0740447983740614
0.0726468147139025
0.0713749441528797
0.0702109937231345
0.0691403912450324
0.0681512892888965
0.0672339240918118
0.0663801502335308
0.0655830980167349
0.0648369174919782
0.0641365843376362
0.0634777505015446
0.0628566278163088
0.0622698962964874
0.0617146309905646
0.061188242724449
0.0606884293842998
0.0602131356220182
0.0597605196602674
0.0593289259669431
0.0589168622980018
0.0585229796825271
0.058146054672707
0.0577849740887255
0.0574387226828619
0.0571063733779455
0.0567870787905639
0.0564800627367625
0.0561846115780821
0.0559000665841968
0.0556258186167002
0.0553613050867324
0.0551060075092953
0.0548594477028056
0.0546211822317508
0.0543907967796649
0.0541679028228428
0.0539521374535529
0.0537431646723569
0.0535406751702729
0.0533443828524447
0.0531540192456672
0.0529693290755416
0.0527900697724246
0.0526160147151973
0.052446956970142
0.0522827096831709
0.0521231018247364
0.0519679718427154
0.0518171639642166
0.0516705305614263
0.0515279399325494
0.051389284935558
0.0512544870473204
0.0511234933671339
0.0509962688552293
0.0508727893258248
0.050753040021051
0.050637020290486
0.0505247498549359
0.050416269858994
0.0503116342192009
0.0502108924797137
0.0501140710213544
0.0500211614232711
0.0499321215933201
0.0498468886153396
0.0497653959199285
0.0496875850781802
0.0496134056540361
0.0495428034192122
0.0494757039990084
0.0494120019089336
0.0493515623605927
0.0492942365622045
0.0492398840817587
0.0491883919412227
0.0491396814415758
0.049093699523681
0.0490503987782165
0.0490097154453669
0.0489715554873917
0.0489357949218537
0.0489022940788769
0.0488709193600667
0.0488415630707699
0.0488141530549409
0.0487886483855117
0.0487650231252082
0.0487432447475454
0.0487232555076475
0.0487049635040422
0.0486882462903088
0.048672965349976
0.0486589862288968
0.048646197712864
0.0486345243328628
0.0486239290575491
0.0486144062181115
0.0486059674245105
0.0485986247416913
0.0485923754768791
0.0485871918355519
0.0485830169737294
0.0485797672095398
0.0485773388301944
0.0485756172780762
0.0485744865192542
0.0485738369086941
0.0485735706120592
0.0485736043802936
0.0485738700315768
0.0485743133036323
0.048574891807987
0.0485755727141658
0.0485763305975455
0.0485771456769496
0.0485780024971791
0.0485788890013311
0.0485797958872818
0.0485807161396937
0.0485816446522611
0.0485825778886366
0.0485835135609377
0.0485844503259966
0.048585387509987
0.0485863248735475
0.0485872624256639
0.0485882002884422
0.0485891386086862
0.0485900775084822
0.0485910170647511
0.0485919573078024
0.0485928982303278
0.0485938398004173
0.0485947819743373
0.0485957247066009
0.0485966679568589
0.0485976116933852
0.0485985558940622
0.0485995005456429
0.0486004456420406
0.0486013911823191
0.0486023371687507
0.0486032836052751
0.0486042304962833
0.0486051778459266
0.0486061256576537
0.0486070739340785
0.048608022677026
0.0486089718875932
0.048609921566335
0.0486108717133974
0.0486118223286156
0.0486127734117152
0.048613724962287
0.048614676979888
0.048615629464064
0.0486165824143382
0.0486175358302758
0.0486184897114357
0.0486194440573737
0.0486203988676777
0.0486213541419271
0.0486223098797086
0.048623266080637
0.0486242227443184
0.0486251798703753
0.048626137458452
0.0486270955082128
0.0486280540193149
0.0486290129914665
0.0486299724243853
0.0486309323177921
0.048631892671466
0.0486328534851741
0.0486338147587222
0.0486347764919161
0.0486357386845982
0.0486367013366329
0.0486376644478767
0.0486386280182225
0.0486395920475666
0.0486405565358241
0.0486415214829277
0.048642486888803
0.0486434527534156
0.0486444190767044
0.0486453858586596
0.0486463530992532
0.0486473207984611
0.0486482889562932
0.0486492575727322
0.0486502266478099
0.0486511961815347
0.0486521661739177
0.0486531366250013
0.0486541075348351
0.04865507890344
0.0486560507308619
0.0486570230171726
0.048657995762415
0.0486589689666642
0.0486599426299856
0.048660916752456
0.048661891334152
0.0486628663751593
0.0486638418755671
0.0486648178354757
0.0486657942549633
0.0486667711341451
0.0486677484731339
0.048668726272032
0.0486697045309561
0.0486706832500307
0.0486716624293616
0.048672642069093
0.0486736221693433
0.0486746027302553
0.0486755837519643
0.0486765652346024
0.0486775471783237