# vtk DataFile Version 2.0
FlowField
ASCII
DATASET STRUCTURED_GRID
DIMENSIONS 100 1 100
POINTS 10000 float
0 0 0
0.01 0 0
0.02 0 0
0.03 0 0
0.04 0 0
0.05 0 0
0.06 0 0
0.07 0 0
0.08 0 0
0.09 0 0
0.1 0 0
0.11 0 0
0.12 0 0
0.13 0 0
0.14 0 0
0.15 0 0
0.16 0 0
0.17 0 0
0.18 0 0
0.19 0 0
0.2 0 0
0.21 0 0
0.22 0 0
0.23 0 0
0.24 0 0
0.25 0 0
0.26 0 0
0.27 0 0
0.28 0 0
0.29 0 0
0.3 0 0
0.31 0 0
0.32 0 0
0.33 0 0
0.34 0 0
0.35 0 0
0.36 0 0
0.37 0 0
0.38 0 0
0.39 0 0
0.4 0 0
0.41 0 0
0.42 0 0
0.43 0 0
0.44 0 0
0.45 0 0
0.46 0 0
0.47 0 0
0.48 0 0
0.49 0 0
0.5 0 0
0.51 0 0
0.52 0 0
0.53 0 0
0.54 0 0
0.55 0 0
0.56 0 0
0.57 0 0
0.58 0 0
0.59 0 0
0.6 0 0
0.61 0 0
0.62 0 0
0.63 0 0
0.64 0 0
0.65 0 0
0.66 0 0
0.67 0 0
0.68 0 0
0.69 0 0
0.7 0 0
0.71 0 0
0.72 0 0
0.73 0 0
0.74 0 0
0.75 0 0
0.76 0 0
0.77 0 0
0.78 0 0
0.79 0 0
0.8 0 0
0.81 0 0
0.82 0 0
0.83 0 0
0.84 0 0
0.85 0 0
0.86 0 0
0.87 0 0
0.88 0 0
0.89 0 0
0.9 0 0
0.91 0 0
0.92 0 0
0.93 0 0
0.94 0 0
0.95 0 0
0.96 0 0
0.97 0 0
0.98 0 0
0.99 0 0
0 0.001 0
0.01 0.001 0
0.02 0.001 0
0.03 0.001 0
0.04 0.001 0
0.05 0.001 0
0.06 0.001 0
0.07 0.001 0
0.08 0.001 0
0.09 0.001 0
0.1 0.001 0
0.11 0.001 0
0.12 0.001 0
0.13 0.001 0
0.14 0.001 0
0.15 0.001 0
0.16 0.001 0
0.17 0.001 0
0.18 0.001 0
0.19 0.001 0
0.2 0.001 0
0.21 0.001 0
0.22 0.001 0
0.23 0.001 0
0.24 0.001 0
0.25 0.001 0
0.26 0.001 0
0.27 0.001 0
0.28 0.001 0
0.29 0.001 0
0.3 0.001 0
0.31 0.001 0
0.32 0.001 0
0.33 0.001 0
0.34 0.001 0
0.35 0.001 0
0.36 0.001 0
0.37 0.001 0
0.38 0.001 0
0.39 0.001 0
0.4 0.001 0
0.41 0.001 0
0.42 0.001 0
0.43 0.001 0
0.44 0.001 0
0.45 0.001 0
0.46 0.001 0
0.47 0.001 0
0.48 0.001 0
0.49 0.001 0
0.5 0.001 0
0.51 0.001 0
0.52 0.001 0
0.53 0.001 0
0.54 0.001 0
0.55 0.001 0
0.56 0.001 0
0.57 0.001 0
0.58 0.001 0
0.59 0.001 0
0.6 0.001 0
0.61 0.001 0
0.62 0.001 0
0.63 0.001 0
0.64 0.001 0
0.65 0.001 0
0.66 0.001 0
0.67 0.001 0
0.68 0.001 0
0.69 0.001 0
0.7 0.001 0
0.71 0.001 0
0.72 0.001 0
0.73 0.001 0
0.74 0.001 0
0.75 0.001 0
0.76 0.001 0
0.77 0.001 0
0.78 0.001 0
0.79 0.001 0
0.8 0.001 0
0.81 0.001 0
0.82 0.001 0
0.83 0.001 0
0.84 0.001 0
0.85 0.001 0
0.86 0.001 0
0.87 0.001 0
0.88 0.001 0
0.89 0.001 0
0.9 0.001 0
0.91 0.001 0
0.92 0.001 0
0.93 0.001 0
0.94 0.001 0
0.95 0.001 0
0.96 0.001 0
0.97 0.001 0
0.98 0.001 0
0.99 0.001 0
0 0.002 0
0.01 0.002 0
0.02 0.002 0
0.03 0.002 0
0.04 0.002 0
0.05 0.002 0
0.06 0.002 0
0.07 0.002 0
0.08 0.002 0
0.09 0.002 0
0.1 0.002 0
0.11 0.002 0
0.12 0.002 0
0.13 0.002 0
0.14 0.002 0
0.15 0.002 0
0.16 0.002 0
0.17 0.002 0
0.18 0.002 0
0.19 0.002 0
0.2 0.002 0
0.21 0.002 0
0.22 0.002 0
0.23 0.002 0
0.24 0.002 0
0.25 0.002 0
0.26 0.002 0
0.27 0.002 0
0.28 0.002 0
0.29 0.002 0
0.3 0.002 0
0.31 0.002 0
0.32 0.002 0
0.33 0.002 0
0.34 0.002 0
0.35 0.002 0
0.36 0.002 0
0.37 0.002 0
0.38 0.002 0
0.39 0.002 0
0.4 0.002 0
0.41 0.002 0
0.42 0.002 0
0.43 0.002 0
0.44 0.002 0
0.45 0.002 0
0.46 0.002 0
0.47 0.002 0
0.48 0.002 0
0.49 0.002 0
0.5 0.002 0
0.51 0.002 0
0.52 0.002 0
0.53 0.002 0
0.54 0.002 0
0.55 0.002 0
0.56 0.002 0
0.57 0.002 0
0.58 0.002 0
0.59 0.002 0
0.6 0.002 0
0.61 0.002 0
0.62 0.002 0
0.63 0.002 0
0.64 0.002 0
0.65 0.002 0
0.66 0.002 0
0.67 0.002 0
0.68 0.002 0
0.69 0.002 0
0.7 0.002 0
0.71 0.002 0
0.72 0.002 0
0.73 0.002 0
0.74 0.002 0
0.75 0.002 0
0.76 0.002 0
0.77 0.002 0
0.78 0.002 0
0.79 0.002 0
0.8 0.002 0
0.81 0.002 0
0.82 0.002 0
0.83 0.002 0
0.84 0.002 0
0.85 0.002 0
0.86 0.002 0
0.87 0.002 0
0.88 0.002 0
0.89 0.002 0
0.9 0.002 0
0.91 0.002 0
0.92 0.002 0
0.93 0.002 0
0.94 0.002 0
0.95 0.002 0
0.96 0.002 0
0.97 0.002 0
0.98 0.002 0
0.99 0.002 0
0 0.003 0
0.01 0.003 0
0.02 0.003 0
0.03 0.003 0
0.04 0.003 0
0.05 0.003 0
0.06 0.003 0
0.07 0.003 0
0.08 0.003 0
0.09 0.003 0
0.1 0.003 0
0.11 0.003 0
0.12 0.003 0
0.13 0.003 0
0.14 0.003 0
0.15 0.003 0
0.16 0.003 0
0.17 0.003 0
0.18 0.003 0
0.19 0.003 0
0.2 0.003 0
0.21 0.003 0
0.22 0.003 0
0.23 0.003 0
0.24 0.003 0
0.25 0.003 0
0.26 0.003 0
0.27 0.003 0
0.28 0.003 0
0.29 0.003 0
0.3 0.003 0
0.31 0.003 0
0.32 0.003 0
0.33 0.003 0
0.34 0.003 0
0.35 0.003 0
0.36 0.003 0
0.37 0.003 0
0.38 0.003 0
0.39 0.003 0
0.4 0.003 0
0.41 0.003 0
0.42 0.003 0
0.43 0.003 0
0.44 0.003 0
0.45 0.003 0
0.46 0.003 0
0.47 0.003 0
0.48 0.003 0
0.49 0.003 0
0.5 0.003 0
0.51 0.003 0
0.52 0.003 0
0.53 0.003 0
0.54 0.003 0
0.55 0.003 0
0.56 0.003 0
0.57 0.003 0
0.58 0.003 0
0.59 0.003 0
0.6 0.003 0
0.61 0.003 0
0.62 0.003 0
0.63 0.003 0
0.64 0.003 0
0.65 0.003 0
0.66 0.003 0
0.67 0.003 0
0.68 0.003 0
0.69 0.003 0
0.7 0.003 0
0.71 0.003 0
0.72 0.003 0
0.73 0.003 0
0.74 0.003 0
0.75 0.003 0
0.76 0.003 0
0.77 0.003 0
0.78 0.003 0
0.79 0.003 0
0.8 0.003 0
0.81 0.003 0
0.82 0.003 0
0.83 0.003 0
0.84 0.003 0
0.85 0.003 0
0.86 0.003 0
0.87 0.003 0
0.88 0.003 0
0.89 0.003 0
0.9 0.003 0
0.91 0.003 0
0.92 0.003 0
0.93 0.003 0
0.94 0.003 0
0.95 0.003 0
0.96 0.003 0
0.97 0.003 0
0.98 0.003 0
0.99 0.003 0
0 0.004 0
0.01 0.004 0
0.02 0.004 0
0.03 0.004 0
0.04 0.004 0
0.05 0.004 0
0.06 0.004 0
0.07 0.004 0
0.08 0.004 0
0.09 0.004 0
0.1 0.004 0
0.11 0.004 0
0.12 0.004 0
0.13 0.004 0
0.14 0.004 0
0.15 0.004 0
0.16 0.004 0
0.17 0.004 0
0.18 0.004 0
0.19 0.004 0
0.2 0.004 0
0.21 0.004 0
0.22 0.004 0
0.23 0.004 0
0.24 0.004 0
0.25 0.004 0
0.26 0.004 0
0.27 0.004 0
0.28 0.004 0
0.29 0.004 0
0.3 0.004 0
0.31 0.004 0
0.32 0.004 0
0.33 0.004 0
0.34 0.004 0
0.35 0.004 0
0.36 0.004 0
0.37 0.004 0
0.38 0.004 0
0.39 0.004 0
0.4 0.004 0
0.41 0.004 0
0.42 0.004 0
0.43 0.004 0
0.44 0.004 0
0.45 0.004 0
0.46 0.004 0
0.47 0.004 0
0.48 0.004 0
0.49 0.004 0
0.5 0.004 0
0.51 0.004 0
0.52 0.004 0
0.53 0.004 0
0.54 0.004 0
0.55 0.004 0
0.56 0.004 0
0.57 0.004 0
0.58 0.004 0
0.59 0.004 0
0.6 0.004 0
0.61 0.004 0
0.62 0.004 0
0.63 0.004 0
0.64 0.004 0
0.65 0.004 0
0.66 0.004 0
0.67 0.004 0
0.68 0.004 0
0.69 0.004 0
0.7 0.004 0
0.71 0.004 0
0.72 0.004 0
0.73 0.004 0
0.74 0.004 0
0.75 0.004 0
0.76 0.004 0
0.77 0.004 0
0.78 0.004 0
0.79 0.004 0
0.8 0.004 0
0.81 0.004 0
0.82 0.004 0
0.83 0.004 0
0.84 0.004 0
0.85 0.004 0
0.86 0.004 0
0.87 0.004 0
0.88 0.004 0
0.89 0.004 0
0.9 0.004 0
0.91 0.004 0
0.92 0.004 0
0.93 0.004 0
0.94 0.004 0
0.95 0.004 0
0.96 0.004 0
0.97 0.004 0
0.98 0.004 0
0.99 0.004 0
0 0.005 0
0.01 0.005 0
0.02 0.005 0
0.03 0.005 0
0.04 0.005 0
0.05 0.005 0
0.06 0.005 0
0.07 0.005 0
0.08 0.005 0
0.09 0.005 0
0.1 0.005 0
0.11 0.005 0
0.12 0.005 0
0.13 0.005 0
0.14 0.005 0
0.15 0.005 0
0.16 0.005 0
0.17 0.005 0
0.18 0.005 0
0.19 0.005 0
0.2 0.005 0
0.21 0.005 0
0.22 0.005 0
0.23 0.005 0
0.24 0.005 0
0.25 0.005 0
0.26 0.005 0
0.27 0.005 0
0.28 0.005 0
0.29 0.005 0
0.3 0.005 0
0.31 0.005 0
0.32 0.005 0
0.33 0.005 0
0.34 0.005 0
0.35 0.005 0
0.36 0.005 0
0.37 0.005 0
0.38 0.005 0
0.39 0.005 0
0.4 0.005 0
0.41 0.005 0
0.42 0.005 0
0.43 0.005 0
0.44 0.005 0
0.45 0.005 0
0.46 0.005 0
0.47 0.005 0
0.48 0.005 0
0.49 0.005 0
0.5 0.005 0
0.51 0.005 0
0.52 0.005 0
0.53 0.005 0
0.54 0.005 0
0.55 0.005 0
0.56 0.005 0
0.57 0.005 0
0.58 0.005 0
0.59 0.005 0
0.6 0.005 0
0.61 0.005 0
0.62 0.005 0
0.63 0.005 0
0.64 0.005 0
0.65 0.005 0
0.66 0.005 0
0.67 0.005 0
0.68 0.005 0
0.69 0.005 0
0.7 0.005 0
0.71 0.005 0
0.72 0.005 0
0.73 0.005 0
0.74 0.005 0
0.75 0.005 0
0.76 0.005 0
0.77 0.005 0
0.78 0.005 0
0.79 0.005 0
0.8 0.005 0
0.81 0.005 0
0.82 0.005 0
0.83 0.005 0
0.84 0.005 0
0.85 0.005 0
0.86 0.005 0
0.87 0.005 0
0.88 0.005 0
0.89 0.005 0
0.9 0.005 0
0.91 0.005 0
0.92 0.005 0
0.93 0.005 0
0.94 0.005 0
0.95 0.005 0
0.96 0.005 0
0.97 0.005 0
0.98 0.005 0
0.99 0.005 0
0 0.006 0
0.01 0.006 0
0.02 0.006 0
0.03 0.006 0
0.04 0.006 0
0.05 0.006 0
0.06 0.006 0
0.07 0.006 0
0.08 0.006 0
0.09 0.006 0
0.1 0.006 0
0.11 0.006 0
0.12 0.006 0
0.13 0.006 0
0.14 0.006 0
0.15 0.006 0
0.16 0.006 0
0.17 0.006 0
0.18 0.006 0
0.19 0.006 0
0.2 0.006 0
0.21 0.006 0
0.22 0.006 0
0.23 0.006 0
0.24 0.006 0
0.25 0.006 0
0.26 0.006 0
0.27 0.006 0
0.28 0.006 0
0.29 0.006 0
0.3 0.006 0
0.31 0.006 0
0.32 0.006 0
0.33 0.006 0
0.34 0.006 0
0.35 0.006 0
0.36 0.006 0
0.37 0.006 0
0.38 0.006 0
0.39 0.006 0
0.4 0.006 0
0.41 0.006 0
0.42 0.006 0
0.43 0.006 0
0.44 0.006 0
0.45 0.006 0
0.46 0.006 0
0.47 0.006 0
0.48 0.006 0
0.49 0.006 0
0.5 0.006 0
0.51 0.006 0
0.52 0.006 0
0.53 0.006 0
0.54 0.006 0
0.55 0.006 0
0.56 0.006 0
0.57 0.006 0
0.58 0.006 0
0.59 0.006 0
0.6 0.006 0
0.61 0.006 0
0.62 0.006 0
0.63 0.006 0
0.64 0.006 0
0.65 0.006 0
0.66 0.006 0
0.67 0.006 0
0.68 0.006 0
0.69 0.006 0
0.7 0.006 0
0.71 0.006 0
0.72 0.006 0
0.73 0.006 0
0.74 0.006 0
0.75 0.006 0
0.76 0.006 0
0.77 0.006 0
0.78 0.006 0
0.79 0.006 0
0.8 0.006 0
0.81 0.006 0
0.82 0.006 0
0.83 0.006 0
0.84 0.006 0
0.85 0.006 0
0.86 0.006 0
0.87 0.006 0
0.88 0.006 0
0.89 0.006 0
0.9 0.006 0
0.91 0.006 0
0.92 0.006 0
0.93 0.006 0
0.94 0.006 0
0.95 0.006 0
0.96 0.006 0
0.97 0.006 0
0.98 0.006 0
0.99 0.006 0
0 0.007 0
0.01 0.007 0
0.02 0.007 0
0.03 0.007 0
0.04 0.007 0
0.05 0.007 0
0.06 0.007 0
0.07 0.007 0
0.08 0.007 0
0.09 0.007 0
0.1 0.007 0
0.11 0.007 0
0.12 0.007 0
0.13 0.007 0
0.14 0.007 0
0.15 0.007 0
0.16 0.007 0
0.17 0.007 0
0.18 0.007 0
0.19 0.007 0
0.2 0.007 0
0.21 0.007 0
0.22 0.007 0
0.23 0.007 0
0.24 0.007 0
0.25 0.007 0
0.26 0.007 0
0.27 0.007 0
0.28 0.007 0
0.29 0.007 0
0.3 0.007 0
0.31 0.007 0
0.32 0.007 0
0.33 0.007 0
0.34 0.007 0
0.35 0.007 0
0.36 0.007 0
0.37 0.007 0
0.38 0.007 0
0.39 0.007 0
0.4 0.007 0
0.41 0.007 0
0.42 0.007 0
0.43 0.007 0
0.44 0.007 0
0.45 0.007 0
0.46 0.007 0
0.47 0.007 0
0.48 0.007 0
0.49 0.007 0
0.5 0.007 0
0.51 0.007 0
0.52 0.007 0
0.53 0.007 0
0.54 0.007 0
0.55 0.007 0
0.56 0.007 0
0.57 0.007 0
0.58 0.007 0
0.59 0.007 0
0.6 0.007 0
0.61 0.007 0
0.62 0.007 0
0.63 0.007 0
0.64 0.007 0
0.65 0.007 0
0.66 0.007 0
0.67 0.007 0
0.68 0.007 0
0.69 0.007 0
0.7 0.007 0
0.71 0.007 0
0.72 0.007 0
0.73 0.007 0
0.74 0.007 0
0.75 0.007 0
0.76 0.007 0
0.77 0.007 0
0.78 0.007 0
0.79 0.007 0
0.8 0.007 0
0.81 0.007 0
0.82 0.007 0
0.83 0.007 0
0.84 0.007 0
0.85 0.007 0
0.86 0.007 0
0.87 0.007 0
0.88 0.007 0
0.89 0.007 0
0.9 0.007 0
0.91 0.007 0
0.92 0.007 0
0.93 0.007 0
0.94 0.007 0
0.95 0.007 0
0.96 0.007 0
0.97 0.007 0
0.98 0.007 0
[...]
POINT_DATA 10000

SCALARS vel_X float 1
LOOKUP_TABLE default
0
0
0
0
0
0
0
0
0
0
0
0
0
0
0
0
0
0
0
0
0
0
0
0
0
0
0
0
0
0
0
0
0
0
0
0
0
0
0
0
0
0
0
0
0
0
0
0
0
0
0
0
0
0
0
0
0
0
0
0
0
0
0
0
0
0
0
0
0
0
0
0
0
0
0
0
0
0
0
0
0
0
0
0
0
0
0
0
0
0
0
0
0
0
0
0
0
0
0
0
1
0.309436
0.238546
0.0788226
0.197457
0.00666653
0.184488
-0.0231493
0.179751
-0.0566977
0.183026
-0.0528528
0.106412
0.0361711
0.0414573
-0.0350026
0.199973
-0.164521
0.129668
0.0238648
0.0362872
-0.102576
0.167252
-0.0699903
0.0844276
-0.0833773
0.0799649
-0.0613914
0.170311
-0.0590624
0.0533777
-0.107234
0.139899
-0.0158609
0.185104
0.0561709
0.302082
0.140103
0.322367
0.1546
0.373008
0.20207
0.353309
0.104402
0.218503
-0.0189684
0.128975
-0.0737564
0.099214
-0.0883058
0.0926591
-0.091029
0.0915984
-0.0914187
0.091457
-0.0914717
0.0914432
-0.0914543
0.0914759
-0.0914631
0.0913681
-0.0915808
0.0915195
-0.0911244
0.0915415
-0.0921714
0.0909168
-0.0902302
0.0926526
-0.0936113
0.0897575
-0.0878067
0.0915448
-0.0979172
0.0964231
-0.0842579
0.0781817
-0.0916064
0.10671
-0.104176
0.0907445
-0.0834533
0.0817228
-0.0784832
0.0751395
-0.0814365
0.0991111
-0.12124
0.135987
-0.138272
0.127382
-0.10878
0.086603
-0.065687
0.0469236
-0.032032
0.0190981
-0.0127749
-0.265294
-0.265294
1
0.549767
0.420193
0.199256
0.326246
0.0800065
0.295694
0.0258464
0.283089
-0.0286985
0.283671
-0.0337027
0.181017
0.0804771
0.0809077
-0.0024673
0.280947
-0.189743
0.207758
0.0520921
0.0638929
-0.0994099
0.244902
-0.0694117
0.134151
-0.0832254
0.134038
-0.0378008
0.259383
-0.0493831
0.101312
-0.0876792
0.24898
0.0589534
0.336632
0.188692
0.518063
0.310555
0.548539
0.334979
0.614491
0.376949
0.545001
0.193868
0.317352
-0.00592675
0.175919
-0.0912878
0.130081
-0.113549
0.120122
-0.117671
0.118525
-0.118256
0.118312
-0.118338
0.118288
-0.118315
0.118338
-0.11832
0.118186
-0.118506
0.118371
-0.117846
0.118493
-0.119283
0.117429
-0.116732
0.120178
-0.121067
0.115589
-0.113594
0.119032
-0.127229
0.124074
-0.107601
0.101098
-0.120544
0.139457
-0.133955
0.1154
-0.106627
0.105138
-0.101874
0.0986598
-0.108224
0.131277
-0.158786
0.175479
-0.176114
0.160103
-0.135321
0.106462
-0.08018
0.056633
-0.0386305
0.0226499
-0.0110386
0.40631
0.40631
1
0.721713
0.5732
0.321446
0.430894
0.17353
0.378583
0.101758
0.356014
0.0363606
0.342624
0.033043
0.224328
0.140698
0.130392
0.0384703
0.329148
-0.139403
0.237161
0.101888
0.103939
-0.0587957
0.281138
-0.0198037
0.171385
-0.0342481
0.177562
0.0220102
0.312494
0.0154911
0.158515
-0.00667966
0.336804
0.176616
0.459742
0.339767
0.6692
0.478777
0.70507
0.49979
0.757627
0.511627
0.639242
0.268288
0.354001
0.0229456
0.182268
-0.0803036
0.12703
-0.107125
0.115047
-0.112091
0.113123
-0.112798
0.112866
-0.112897
0.112835
-0.112873
0.11289
-0.11288
0.11272
-0.113088
0.112922
-0.112362
0.113058
-0.113923
0.111911
-0.111179
0.114828
-0.115801
0.110034
-0.107982
0.113374
-0.122041
0.119177
-0.102282
0.0948079
-0.114369
0.134149
-0.129465
0.110549
-0.101345
0.099761
-0.0969703
0.0931077
-0.101191
0.122417
-0.149737
0.167877
-0.171609
0.158649
-0.136725
0.109286
-0.0838663
0.0599108
-0.0415783
0.0244256
-0.0150671
-0.355173
-0.355173
1
0.839191
0.704546
0.432507
0.527641
0.266502
0.454518
0.181517
0.421564
0.111839
0.387248
0.120483
0.252608
0.211346
0.188053
0.0753166
0.377641
-0.0605225
0.245198
0.168163
0.156573
-0.00851875
0.307714
0.0537422
0.210482
0.0368218
0.220329
0.0928078
0.359204
0.110667
0.22633
0.0935597
0.41272
0.301161
0.559753
0.476636
0.776335
0.623151
0.81262
0.628791
0.836862
0.605914
0.68263
0.32637
0.364569
0.0542673
0.174315
-0.0604528
0.112809
-0.0904364
0.099375
-0.0960279
0.097201
-0.0968299
0.0969097
-0.0969413
0.0968748
-0.0969184
0.096928
-0.0969321
0.0967479
-0.0971343
0.0969805
-0.0964024
0.0970405
-0.098014
0.096057
-0.0951229
0.0986339
-0.100031
0.0945135
-0.091993
0.0965113
-0.105533
0.104368
-0.0883419
0.0784363
-0.095317
0.116104
-0.115036
0.0974355
-0.0872029
0.0847906
-0.0823394
0.0770921
-0.0814739
0.0984016
-0.124535
0.145472
-0.155488
0.149506
-0.133996
0.110662
-0.0877018
0.0641112
-0.0455609
0.0271674
-0.0134175
0.377066
0.377066
1
0.918198
0.813323
0.532939
0.616536
0.3558
0.526654
0.260302
0.483424
0.191457
0.424729
0.216921
0.275162
0.286533
0.249144
0.112901
0.426744
0.0302737
0.247547
0.242914
0.21479
0.047917
0.332638
0.138378
0.25269
0.118231
0.262183
0.167854
0.405629
0.219371
0.296134
0.195451
0.475433
0.416559
0.635439
0.590608
0.8482
0.739354
0.880908
0.723763
0.873519
0.671555
0.698036
0.374016
0.36301
0.0860107
0.160474
-0.0370355
0.0941199
-0.0695994
0.0794509
-0.0757431
0.0770499
-0.0766336
0.076726
-0.0767562
0.0766886
-0.0767333
0.0767381
-0.0767588
0.0765485
-0.0769413
0.0768253
-0.0762252
0.076757
-0.0778762
0.0760578
-0.0748063
0.0780713
-0.0800948
0.0749837
-0.07175
0.075141
-0.084543
0.0856447
-0.0708751
0.0578406
-0.0710412
0.0931566
-0.0968542
0.0810294
-0.0692202
0.0654806
-0.063369
0.0569375
-0.057424
0.0695099
-0.0938745
0.117415
-0.133993
0.135735
-0.127542
0.109272
-0.089565
0.0670084
-0.0486854
0.0294375
-0.0181463
-0.363499
-0.363499
1
0.971534
0.898998
0.625338
0.694505
0.442925
0.592565
0.339359
0.53866
0.276274
0.453842
0.318997
0.29516
0.361922
0.310601
0.156281
0.468831
0.130255
0.249026
0.319811
0.272753
0.112595
0.353948
0.228204
0.294289
0.205312
0.300003
0.245631
0.44759
0.331511
0.359218
0.292994
0.520857
0.517754
0.685359
0.683141
0.888856
0.831044
0.916515
0.794416
0.880947
0.721123
0.69596
0.417749
0.353548
0.119977
0.142001
-0.00988143
0.0714085
-0.0448119
0.0555668
-0.0514948
0.0529391
-0.0524753
0.0525819
-0.0526089
0.0525427
-0.0525854
0.0525874
-0.0526251
0.0523889
-0.052781
0.0527165
-0.052091
0.0524969
-0.0537739
0.0521307
-0.0505234
0.0534985
-0.0562001
0.0515493
-0.0475785
0.0497991
-0.059437
0.0628728
-0.0496658
0.033589
-0.0427117
0.0658649
-0.074517
0.0608295
-0.0473571
0.0419856
-0.0403049
0.0334465
-0.0307415
0.0379081
-0.0594037
0.0839907
-0.105753
0.114589
-0.113826
0.101399
-0.0860279
0.0657597
-0.0488163
0.0298626
-0.0154383
0.375198
0.375198
1
1.00806
0.96322
0.710785
0.760262
0.528377
0.650364
0.419787
0.584458
0.367348
0.472925
0.424708
0.313995
0.434021
0.371102
0.206902
0.498826
0.238359
0.250635
0.394117
0.327387
0.185618
0.369079
0.318953
0.332063
0.294815
0.331794
0.323739
0.480314
0.44023
0.411098
0.383511
0.547547
0.603546
0.711196
0.757403
0.903029
0.903115
0.926826
0.849554
0.869142
0.762672
0.682604
0.460936
0.338394
0.156899
0.119576
0.0209658
0.0449836
-0.016277
0.0279651
-0.0235115
0.0251016
-0.0245867
0.0247092
-0.0247317
0.0246686
-0.0247075
0.0247078
-0.0247622
0.0245016
-0.0248873
0.0248808
-0.0242326
0.0245038
-0.0259288
0.0244876
-0.0225367
0.0251779
-0.028521
0.0243875
-0.0197855
0.020834
-0.030423
0.0360438
-0.024807
0.00621578
-0.0109673
0.034364
-0.0477783
0.0368003
-0.0219461
0.0146785
-0.013409
0.00697614
-0.00209006
0.00446373
-0.0218445
0.0454322
-0.0703832
0.0851352
-0.0915651
0.085654
-0.0757771
0.0592586
-0.0451139
0.027817
-0.0179878
-0.363941
-0.363941
1
1.03354
1.00905
0.789028
0.814455
0.611132
0.699702
0.501338
0.619661
0.463933
0.482273
0.530851
0.333434
0.499693
0.430033
0.263863
0.51545
0.35138
0.253464
0.462076
0.377396
0.264541
0.377674
0.406257
0.364705
0.383183
0.357435
0.39844
0.501776
0.540347
0.451341
0.464965
0.557513
0.673695
0.717415
0.8157
0.897041
0.959305
0.919941
0.89455
0.846301
0.799606
0.662901
0.503802
0.32011
0.195599
0.0950023
0.0539767
0.0164853
0.0144094
-0.00174204
0.00660084
-0.00485452
0.00542478
-0.00528467
0.00526778
-0.00532665
0.00529257
-0.00529354
0.00522274
-0.00550508
0.00513149
-0.0050774
0.0057404
-0.00560988
0.00405954
-0.00527075
0.00752795
-0.00527554
0.00136552
-0.00490867
0.00998595
-0.010106
0.00090058
0.00666308
0.00215445
-0.0225365
0.0224113
0.000196027
-0.018022
0.0104718
0.00525582
-0.0146965
0.0157982
-0.0211156
0.0270586
-0.0290181
0.0166723
0.00397618
-0.0299597
0.0490706
-0.0620127
0.0628699
-0.0593195
0.0477877
-0.0377234
0.023414
-0.0127507
0.374565
0.374565
1
1.05166
1.04001
0.859317
0.858688
0.689541
0.741096
0.582948
0.644432
0.563816
0.483989
0.633015
0.355903
0.556169
0.48686
0.325458
0.519854
0.464297
0.259529
0.520662
0.422307
0.345696
0.381342
0.485803
0.392427
0.466676
0.378187
0.46586
0.51266
0.627941
0.481997
0.535672
0.555006
0.728198
0.709789
0.859385
0.877852
1.0019
0.903492
0.931755
0.81906
0.832313
0.641151
0.544739
0.301649
0.233744
0.0708767
0.0866658
-0.0115572
0.0447363
-0.0310366
0.0363271
-0.0344129
0.0350434
-0.0348836
0.0348734
-0.0349273
0.0348984
-0.0349009
0.0348138
-0.035115
0.0347592
-0.0346437
0.0353108
-0.0353257
0.0336789
-0.034632
0.0371464
-0.0353417
0.0309535
-0.0338316
0.0392183
-0.0404857
0.0319858
-0.0227864
0.0287838
-0.0501461
0.0547905
-0.0340667
0.012321
-0.0157173
0.0316492
-0.0435095
0.0449203
-0.0487117
0.054558
-0.059974
0.0530143
-0.0368537
0.0119626
0.00961588
-0.027847
0.0351102
-0.038156
0.0323798
-0.0273193
0.0169907
-0.0129436
-0.365192
-0.365192
1
1.06465
1.05956
0.920882
0.894818
0.762035
0.77532
0.663292
0.659773
0.663911
0.481341
0.726285
0.38404
0.601277
0.540957
0.389863
0.514461
0.571442
0.271359
0.567599
0.462067
0.425217
0.382774
0.553866
0.41629
0.541837
0.39613
0.522893
0.515366
0.700214
0.506228
0.594446
0.545135
0.767212
0.694185
0.889223
0.852022
1.03206
0.883849
0.961566
0.792582
0.859694
0.621022
0.581449
0.285937
0.26866
0.0499679
0.116302
-0.0363974
0.0719651
-0.0571762
0.0629267
-0.0608324
0.0615281
-0.0613467
0.0613442
-0.0613924
0.0613688
-0.0613735
0.06127
-0.0615869
0.0612546
-0.0610784
0.0617371
-0.0619008
0.0601892
-0.0608592
0.0635756
-0.0622726
0.0575011
-0.0596524
0.0651874
-0.0675477
0.0600332
-0.0495674
0.0524511
-0.0739362
0.083311
-0.0655353
0.0405421
-0.0391572
0.0544801
-0.0688944
0.0712744
-0.0734641
0.0781355
-0.0857667
0.0839195
-0.0732598
0.0513972
-0.029456
0.00765202
0.00501724
-0.0142964
0.0144762
-0.0148764
0.00919176
-0.00580874
0.372683
0.372683
1
1.07378
1.07089
0.973115
0.924626
0.827424
0.803152
0.741013
0.667291
0.760644
0.478215
0.805898
0.420185
0.633692
0.591619
0.455271
0.502395
0.667373
0.291375
0.601484
0.496929
0.499533
0.385036
0.607676
0.437713
0.60582
0.413698
0.56752
0.513053
0.755371
0.527398
0.640641
0.532899
0.791075
0.675832
0.905693
0.82506
1.05015
0.865866
0.983386
0.770705
0.880167
0.605491
0.611652
0.27554
0.297869
0.0347779
0.140391
-0.055536
0.0935992
-0.0776623
0.0839025
-0.0816149
0.0823814
-0.0821762
0.0821823
-0.0822244
0.0822059
-0.0822137
0.0820936
-0.082423
0.0821193
-0.0818845
0.0825218
-0.0828356
0.0810919
-0.0814596
0.0843186
-0.0835611
0.0785054
-0.0798883
0.0854189
-0.0887796
0.0824762
-0.0711694
0.0707809
-0.0915111
0.105358
-0.0915136
0.0641482
-0.0575256
0.0712946
-0.0882041
0.0923166
-0.093188
0.0958134
-0.104199
0.106613
-0.101846
0.0845835
-0.0643947
0.0410652
-0.0245308
0.00998162
-0.00423458
-0.00156872
0.000688954
-0.00472208
-0.367568
-0.367568
1
1.07967
1.07679
1.01565
0.949661
0.884973
0.82533
0.814763
0.669088
0.850215
0.478681
0.867768
0.465954
0.65311
0.638085
0.519897
0.48717
0.747402
0.321405
0.621896
0.52737
0.565579
0.391055
0.645613
0.458122
0.65658
0.433269
0.598818
0.508929
0.79254
0.54849
0.674138
0.522576
0.800382
0.658928
0.909217
0.801134
1.05626
0.85291
0.996344
0.756084
0.892303
0.596757
0.633504
0.272426
0.319412
0.0272572
0.156972
-0.0670154
0.107682
-0.0905368
0.0972973
-0.0948028
0.0956458
-0.0954143
0.0954303
-0.0954658
0.095452
-0.095464
0.0953272
-0.0956658
0.0953954
-0.0951052
0.0957083
-0.0961707
0.0944283
-0.0944813
0.0974197
-0.0972391
0.092002
-0.0925969
0.0979815
-0.102215
0.0972873
-0.0856051
0.0819332
-0.101042
0.118878
-0.10982
0.0811532
-0.0690613
0.0802321
-0.0993236
0.105937
-0.106121
0.106164
-0.113809
0.119165
-0.120026
0.108404
-0.09186
0.0691667
-0.0506832
0.032331
-0.0219566
0.0113245
-0.00765267
0.00290187
0.370019
0.370019
1
1.08263
1.07959
1.04846
0.971133
0.934407
0.842563
0.883194
0.667653
0.928853
0.486581
0.908902
0.521933
0.660333
0.67953
0.582008
0.472402
0.807947
0.362353
0.629445
0.55396
0.620932
0.403239
0.667269
0.478686
0.692963
0.456791
0.616873
0.505753
0.811733
0.571724
0.695338
0.51737
0.796093
0.64643
0.900388
0.782969
1.05053
0.846957
0.999819
0.75025
0.895207
0.596156
0.645867
0.277791
0.332071
0.0286033
0.164834
-0.0696274
0.113004
-0.0945897
0.101902
-0.0991863
0.100112
-0.0998517
0.0998786
-0.099907
0.0998977
-0.0999148
0.0997614
-0.100106
0.0998726
-0.0995316
0.100088
-0.100694
0.0989866
-0.0987203
0.101673
-0.102087
0.0967729
-0.0965812
0.101692
-0.106643
0.103191
-0.0916165
0.0848001
-0.10147
0.1226
-0.119008
0.0902733
-0.0727497
0.0802359
-0.100907
0.110685
-0.111108
0.108462
-0.114027
0.120693
-0.126291
0.1207
-0.109256
0.0892418
-0.0708936
0.0505613
-0.0369573
0.0225387
-0.0150732
0.00367069
-0.370284
-0.370284
1
1.08278
1.08106
1.07189
0.989838
0.975887
0.855547
0.944979
0.665691
0.993107
0.505123
0.92773
0.587488
0.657235
0.715079
0.640004
0.461477
0.846784
0.414005
0.625732
0.577211
0.663941
0.423176
0.673452
0.500115
0.71474
0.485462
0.622694
0.505509
0.813842
0.598312
0.705198
0.519229
0.779648
0.639971
0.880188
0.771868
1.03352
0.848692
0.993783
0.753643
0.888766
0.604079
0.648471
0.291933
0.335512
0.0391242
0.16365
-0.0630499
0.109243
-0.0894968
0.0973933
-0.0944415
0.095456
-0.0951646
0.0952036
-0.0952246
0.0952192
-0.0952425
0.0950727
-0.0954197
0.0952269
-0.0948406
0.0953382
-0.0960814
0.0944407
-0.0938583
0.0967578
-0.0977708
0.0924853
-0.0915272
0.0962536
-0.101749
0.0998025
-0.0888136
0.0791375
-0.0926419
0.116183
-0.118515
0.0910563
-0.0684425
0.071193
-0.0925455
0.105939
-0.107727
0.102759
-0.105238
0.111462
-0.120374
0.120507
-0.115016
0.0993836
-0.0831972
0.0628762
-0.0477548
0.0309612
-0.0207826
0.0101271
0.367494
0.367494
1
1.08031
1.08234
1.08676
1.00613
1.00995
0.864967
0.998855
0.665904
1.04016
0.536509
0.924325
0.6607
0.646622
0.743841
0.692506
0.457234
0.863226
0.474953
0.613222
0.59745
0.693818
0.451435
0.666091
0.522529
0.722594
0.519536
0.618113
0.509237
0.800606
0.628359
0.705245
0.528803
0.753044
0.639891
0.850141
0.767822
1.00642
0.857631
0.978982
0.765651
0.873739
0.619949
0.64198
0.314209
0.33034
0.058187
0.154033
-0.0479013
0.0970148
-0.0758738
0.0843875
-0.0811841
0.0822943
-0.0819688
0.0820212
-0.0820343
0.0820324
-0.0820627
0.0818772
-0.0822231
0.0820733
-0.0816483
0.0820763
-0.0829461
0.0814037
-0.0805158
0.0832957
-0.0848992
0.0797445
-0.0780567
0.0823075
-0.088167
0.0876877
-0.0777299
0.0656142
-0.075358
0.100273
-0.108722
0.0839328
-0.0568932
0.0539821
-0.07485
0.0919946
-0.0963482
0.0898902
-0.0887435
0.0928645
-0.103301
0.108181
-0.108796
0.0987213
-0.0864434
0.0680836
-0.053289
0.0357578
-0.0242677
0.00904226
-0.372392
-0.372392
1
1.07549
1.08401
1.0943
1.01997
1.03743
0.871513
1.04369
0.670755
1.06811
0.581645
0.900485
0.738446
0.631996
0.76498
0.738425
0.461707
0.858174
0.542644
0.595045
0.614752
0.710674
0.487481
0.648072
0.545429
0.718044
0.558259
0.60566
0.517008
0.774539
0.66091
0.697542
0.545529
0.718833
0.645383
0.812361
0.769688
0.971111
0.872278
0.956958
0.784716
0.851742
0.642286
0.627949
0.343082
0.318054
0.0842653
0.137487
-0.0256931
0.0778288
-0.0552293
0.064394
-0.0609229
0.0621358
-0.0617731
0.0618401
-0.0618451
0.0618461
-0.0618844
0.0616838
-0.0620251
0.0619202
-0.0614638
0.0618127
-0.062796
0.0613812
-0.0602057
0.0628012
-0.0649738
0.0600482
-0.0576811
0.0613864
-0.0674301
0.0683148
-0.0597802
0.0457629
-0.051315
0.0764598
-0.0909295
0.0701723
-0.0396935
0.0304141
-0.0494207
0.0700629
-0.0781069
0.0713846
-0.0666323
0.0672859
-0.0772961
0.0853857
-0.0915422
0.0875404
-0.0804436
0.0657429
-0.0530513
0.0364737
-0.0251367
0.0130934
0.36599
0.36599
1
1.06879
1.08609
1.0961
1.03098
1.05932
0.875881
1.07854
0.682239
1.0762
0.639978
0.859649
0.816608
0.617237
0.777816
0.777004
0.475951
0.834052
0.613547
0.574727
0.628937
0.715483
0.52972
0.622996
0.567763
0.70331
0.599949
0.588374
0.528021
0.738785
0.694112
0.684588
0.567829
0.680034
0.654718
0.769494
0.775442
0.930078
0.890344
0.92994
0.808509
0.825103
0.668866
0.608675
0.376276
0.300899
0.115087
0.116263
0.00131707
0.0539397
-0.0298176
0.0396675
-0.035912
0.0372349
-0.0368321
0.036915
-0.0369114
0.0369148
-0.0369619
0.0367471
-0.0370803
0.0370215
-0.0365416
0.0368034
-0.0378847
0.036624
-0.0351855
0.0375353
-0.0402439
0.0356391
-0.0326542
0.0357657
-0.0418246
0.0439106
-0.0371179
0.0218301
-0.0229509
0.0471286
-0.0672147
0.0517438
-0.0191102
0.00306316
-0.0187099
0.0421629
-0.0547966
0.0493096
-0.0415559
0.0378552
-0.0455569
0.0549311
-0.0654079
0.0672732
-0.0660128
0.0562295
-0.0471529
0.0330916
-0.0233852
0.00934417
-0.373165
-0.373165
1
1.06083
1.08812
1.09399
1.03861
1.07667
0.878791
1.10277
0.701692
1.06495
0.70947
0.806655
0.890416
0.606238
0.781942
0.807827
0.499983
0.7946
0.683447
0.555888
0.639629
0.709965
0.575662
0.594869
0.588081
0.68112
0.642191
0.569571
0.54081
0.696909
0.725485
0.669144
0.593389
0.639951
0.665551
0.724549
0.782481
0.886243
0.909027
0.900628
0.834187
0.79663
0.696955
0.58696
0.411008
0.281628
0.14787
0.0931207
0.0303613
0.0281124
-0.00240335
0.0129733
-0.00891618
0.0103567
-0.00991037
0.0100106
-0.00999826
0.0100034
-0.0100598
0.00983223
-0.0101539
0.0101415
-0.00964654
0.00981462
-0.0109767
0.00989331
-0.00822237
0.0102698
-0.0134705
0.00927032
-0.00573753
0.00822754
-0.0141509
0.0172269
-0.0124048
-0.00345972
0.0068007
0.0152202
-0.0402151
0.0310921
0.00216252
-0.0249942
0.0142169
0.0109275
-0.0286848
0.0260454
-0.0164402
0.00810516
-0.0119098
0.0204799
-0.0335358
0.0403585
-0.0448968
0.040707
-0.0363241
0.0260417
-0.0191848
0.0107316
0.365998
0.365998
1
1.05238
1.08939
1.08988
1.04229
1.09043
0.880977
1.11605
0.72965
1.0362
0.786729
0.747351
0.954886
0.602529
0.777337
0.8308
0.532824
0.744558
0.747806
0.541918
0.646367
0.696411
0.622182
0.567759
0.604756
0.654472
0.682114
0.552563
0.553513
0.652632
0.752247
0.654001
0.619496
0.601931
0.675262
0.680649
0.787966
0.842683
0.925329
0.871909
0.858703
0.769317
0.723618
0.565813
0.444294
0.263207
0.179622
0.0710326
0.0584586
0.00332461
0.0240357
-0.0127105
0.0170871
-0.015521
0.0160142
-0.0158953
0.0159167
-0.0159105
0.0158441
-0.0160831
0.0157763
-0.0157427
0.016244
-0.0161742
0.0149505
-0.0158372
0.0177044
-0.0160098
0.0123709
-0.0160919
0.0200969
-0.0182372
0.0125754
-0.00875681
0.0114809
-0.0272005
0.0348173
-0.0160717
-0.012841
0.010857
0.0213074
-0.0505068
0.0459931
-0.020663
-0.00227545
0.00402272
0.00584173
-0.0184201
0.0196093
-0.0138486
0.000279656
0.00998555
-0.0195924
0.0210101
-0.0218434
0.0161605
-0.0130863
0.00461739
-0.372406
-0.372406
1
1.04423
1.08899
1.08556
1.04157
1.10138
0.883181
1.11848
0.765786
0.993009
0.867273
0.688101
1.0053
0.608914
0.764462
0.846108
0.572641
0.689255
0.802198
0.535659
0.648742
0.677451
0.665853
0.545441
0.616239
0.626375
0.71673
0.540364
0.564183
0.609545
0.771681
0.64172
0.643385
0.569084
0.681307
0.640746
0.78917
0.802318
0.936395
0.846536
0.879127
0.746019
0.746035
0.548121
0.473267
0.248485
0.207464
0.0528561
0.0827414
-0.0175598
0.0466351
-0.0345192
0.0392333
-0.0375335
0.0380773
-0.0379382
0.0379689
-0.0379621
0.0378855
-0.0381342
0.0378455
-0.037767
0.0382659
-0.0382969
0.037032
-0.037707
0.0397297
-0.0384313
0.0344166
-0.037594
0.0419918
-0.0407558
0.0354516
-0.031159
0.0317659
-0.0466283
0.0581218
-0.0436358
0.0120422
-0.00643347
0.0357104
-0.0704052
0.0733024
-0.0495875
0.0219568
-0.0145476
0.0227941
-0.0385657
0.0452051
-0.0439332
0.0320078
-0.0202509
0.00692079
-0.000550544
-0.00540373
0.00460446
-0.00574527
0.00421163
0.367396
0.367396
1
1.03719
1.08606
1.08252
1.03628
1.10998
0.886127
1.11057
0.808924
0.939427
0.945917
0.635232
1.0377
0.627166
0.74432
0.854157
0.616951
0.634162
0.842736
0.53913
0.64654
0.655804
0.703304
0.531063
0.621305
0.599581
0.743272
0.53541
0.57109
0.570816
0.78147
0.634374
0.662586
0.543996
0.681542
0.607328
0.783805
0.767615
0.939832
0.826814
0.892978
0.729134
0.761828
0.536332
0.495503
0.23988
0.228954
0.0410165
0.100774
-0.0321082
0.0629616
-0.0500191
0.0550896
-0.0532474
0.0538456
-0.0536847
0.0537251
-0.0537183
0.0536311
-0.0538877
0.05362
-0.0534986
0.0539864
-0.0541188
0.0528338
-0.0532868