# vtk DataFile Version 2.0
FlowField
ASCII
DATASET STRUCTURED_GRID
DIMENSIONS 100 1 100
POINTS 10000 float
0 0 0
0.01 0 0
0.02 0 0
0.03 0 0
0.04 0 0
0.05 0 0
0.06 0 0
0.07 0 0
0.08 0 0
0.09 0 0
0.1 0 0
0.11 0 0
0.12 0 0
0.13 0 0
0.14 0 0
0.15 0 0
0.16 0 0
0.17 0 0
0.18 0 0
0.19 0 0
0.2 0 0
0.21 0 0
0.22 0 0
0.23 0 0
0.24 0 0
0.25 0 0
0.26 0 0
0.27 0 0
0.28 0 0
0.29 0 0
0.3 0 0
0.31 0 0
0.32 0 0
0.33 0 0
0.34 0 0
0.35 0 0
0.36 0 0
0.37 0 0
0.38 0 0
0.39 0 0
0.4 0 0
0.41 0 0
0.42 0 0
0.43 0 0
0.44 0 0
0.45 0 0
0.46 0 0
0.47 0 0
0.48 0 0
0.49 0 0
0.5 0 0
0.51 0 0
0.52 0 0
0.53 0 0
0.54 0 0
0.55 0 0
0.56 0 0
0.57 0 0
0.58 0 0
0.59 0 0
0.6 0 0
0.61 0 0
0.62 0 0
0.63 0 0
0.64 0 0
0.65 0 0
0.66 0 0
0.67 0 0
0.68 0 0
0.69 0 0
0.7 0 0
0.71 0 0
0.72 0 0
0.73 0 0
0.74 0 0
0.75 0 0
0.76 0 0
0.77 0 0
0.78 0 0
0.79 0 0
0.8 0 0
0.81 0 0
0.82 0 0
0.83 0 0
0.84 0 0
0.85 0 0
0.86 0 0
0.87 0 0
0.88 0 0
0.89 0 0
0.9 0 0
0.91 0 0
0.92 0 0
0.93 0 0
0.94 0 0
0.95 0 0
0.96 0 0
0.97 0 0
0.98 0 0
0.99 0 0
0 0.001 0
0.01 0.001 0
0.02 0.001 0
0.03 0.001 0
0.04 0.001 0
0.05 0.001 0
0.06 0.001 0
0.07 0.001 0
0.08 0.001 0
0.09 0.001 0
0.1 0.001 0
0.11 0.001 0
0.12 0.001 0
0.13 0.001 0
0.14 0.001 0
0.15 0.001 0
0.16 0.001 0
0.17 0.001 0
0.18 0.001 0
0.19 0.001 0
0.2 0.001 0
0.21 0.001 0
0.22 0.001 0
0.23 0.001 0
0.24 0.001 0
0.25 0.001 0
0.26 0.001 0
0.27 0.001 0
0.28 0.001 0
0.29 0.001 0
0.3 0.001 0
0.31 0.001 0
0.32 0.001 0
0.33 0.001 0
0.34 0.001 0
0.35 0.001 0
0.36 0.001 0
0.37 0.001 0
0.38 0.001 0
0.39 0.001 0
0.4 0.001 0
0.41 0.001 0
0.42 0.001 0
0.43 0.001 0
0.44 0.001 0
0.45 0.001 0
0.46 0.001 0
0.47 0.001 0
0.48 0.001 0
0.49 0.001 0
0.5 0.001 0
0.51 0.001 0
0.52 0.001 0
0.53 0.001 0
0.54 0.001 0
0.55 0.001 0
0.56 0.001 0
0.57 0.001 0
0.58 0.001 0
0.59 0.001 0
0.6 0.001 0
0.61 0.001 0
0.62 0.001 0
0.63 0.001 0
0.64 0.001 0
0.65 0.001 0
0.66 0.001 0
0.67 0.001 0
0.68 0.001 0
0.69 0.001 0
0.7 0.001 0
0.71 0.001 0
0.72 0.001 0
0.73 0.001 0
0.74 0.001 0
0.75 0.001 0
0.76 0.001 0
0.77 0.001 0
0.78 0.001 0
0.79 0.001 0
0.8 0.001 0
0.81 0.001 0
0.82 0.001 0
0.83 0.001 0
0.84 0.001 0
0.85 0.001 0
0.86 0.001 0
0.87 0.001 0
0.88 0.001 0
0.89 0.001 0
0.9 0.001 0
0.91 0.001 0
0.92 0.001 0
0.93 0.001 0
0.94 0.001 0
0.95 0.001 0
0.96 0.001 0
0.97 0.001 0
0.98 0.001 0
0.99 0.001 0
0 0.002 0
0.01 0.002 0
0.02 0.002 0
0.03 0.002 0
0.04 0.002 0
0.05 0.002 0
0.06 0.002 0
0.07 0.002 0
0.08 0.002 0
0.09 0.002 0
0.1 0.002 0
0.11 0.002 0
0.12 0.002 0
0.13 0.002 0
0.14 0.002 0
0.15 0.002 0
0.16 0.002 0
0.17 0.002 0
0.18 0.002 0
0.19 0.002 0
0.2 0.002 0
0.21 0.002 0
0.22 0.002 0
0.23 0.002 0
0.24 0.002 0
0.25 0.002 0
0.26 0.002 0
0.27 0.002 0
0.28 0.002 0
0.29 0.002 0
0.3 0.002 0
0.31 0.002 0
0.32 0.002 0
0.33 0.002 0
0.34 0.002 0
0.35 0.002 0
0.36 0.002 0
0.37 0.002 0
0.38 0.002 0
0.39 0.002 0
0.4 0.002 0
0.41 0.002 0
0.42 0.002 0
0.43 0.002 0
0.44 0.002 0
0.45 0.002 0
0.46 0.002 0
0.47 0.002 0
0.48 0.002 0
0.49 0.002 0
0.5 0.002 0
0.51 0.002 0
0.52 0.002 0
0.53 0.002 0
0.54 0.002 0
0.55 0.002 0
0.56 0.002 0
0.57 0.002 0
0.58 0.002 0
0.59 0.002 0
0.6 0.002 0
0.61 0.002 0
0.62 0.002 0
0.63 0.002 0
0.64 0.002 0
0.65 0.002 0
0.66 0.002 0
0.67 0.002 0
0.68 0.002 0
0.69 0.002 0
0.7 0.002 0
0.71 0.002 0
0.72 0.002 0
0.73 0.002 0
0.74 0.002 0
0.75 0.002 0
0.76 0.002 0
0.77 0.002 0
0.78 0.002 0
0.79 0.002 0
0.8 0.002 0
0.81 0.002 0
0.82 0.002 0
0.83 0.002 0
0.84 0.002 0
0.85 0.002 0
0.86 0.002 0
0.87 0.002 0
0.88 0.002 0
0.89 0.002 0
0.9 0.002 0
0.91 0.002 0
0.92 0.002 0
0.93 0.002 0
0.94 0.002 0
0.95 0.002 0
0.96 0.002 0
0.97 0.002 0
0.98 0.002 0
0.99 0.002 0
0 0.003 0
0.01 0.003 0
0.02 0.003 0
0.03 0.003 0
0.04 0.003 0
0.05 0.003 0
0.06 0.003 0
0.07 0.003 0
0.08 0.003 0
0.09 0.003 0
0.1 0.003 0
0.11 0.003 0
0.12 0.003 0
0.13 0.003 0
0.14 0.003 0
0.15 0.003 0
0.16 0.003 0
0.17 0.003 0
0.18 0.003 0
0.19 0.003 0
0.2 0.003 0
0.21 0.003 0
0.22 0.003 0
0.23 0.003 0
0.24 0.003 0
0.25 0.003 0
0.26 0.003 0
0.27 0.003 0
0.28 0.003 0
0.29 0.003 0
0.3 0.003 0
0.31 0.003 0
0.32 0.003 0
0.33 0.003 0
0.34 0.003 0
0.35 0.003 0
0.36 0.003 0
0.37 0.003 0
0.38 0.003 0
0.39 0.003 0
0.4 0.003 0
0.41 0.003 0
0.42 0.003 0
0.43 0.003 0
0.44 0.003 0
0.45 0.003 0
0.46 0.003 0
0.47 0.003 0
0.48 0.003 0
0.49 0.003 0
0.5 0.003 0
0.51 0.003 0
0.52 0.003 0
0.53 0.003 0
0.54 0.003 0
0.55 0.003 0
0.56 0.003 0
0.57 0.003 0
0.58 0.003 0
0.59 0.003 0
0.6 0.003 0
0.61 0.003 0
0.62 0.003 0
0.63 0.003 0
0.64 0.003 0
0.65 0.003 0
0.66 0.003 0
0.67 0.003 0
0.68 0.003 0
0.69 0.003 0
0.7 0.003 0
0.71 0.003 0
0.72 0.003 0
0.73 0.003 0
0.74 0.003 0
0.75 0.003 0
0.76 0.003 0
0.77 0.003 0
0.78 0.003 0
0.79 0.003 0
0.8 0.003 0
0.81 0.003 0
0.82 0.003 0
0.83 0.003 0
0.84 0.003 0
0.85 0.003 0
0.86 0.003 0
0.87 0.003 0
0.88 0.003 0
0.89 0.003 0
0.9 0.003 0
0.91 0.003 0
0.92 0.003 0
0.93 0.003 0
0.94 0.003 0
0.95 0.003 0
0.96 0.003 0
0.97 0.003 0
0.98 0.003 0
0.99 0.003 0
0 0.004 0
0.01 0.004 0
0.02 0.004 0
0.03 0.004 0
0.04 0.004 0
0.05 0.004 0
0.06 0.004 0
0.07 0.004 0
0.08 0.004 0
0.09 0.004 0
0.1 0.004 0
0.11 0.004 0
0.12 0.004 0
0.13 0.004 0
0.14 0.004 0
0.15 0.004 0
0.16 0.004 0
0.17 0.004 0
0.18 0.004 0
0.19 0.004 0
0.2 0.004 0
0.21 0.004 0
0.22 0.004 0
0.23 0.004 0
0.24 0.004 0
0.25 0.004 0
0.26 0.004 0
0.27 0.004 0
0.28 0.004 0
0.29 0.004 0
0.3 0.004 0
0.31 0.004 0
0.32 0.004 0
0.33 0.004 0
0.34 0.004 0
0.35 0.004 0
0.36 0.004 0
0.37 0.004 0
0.38 0.004 0
0.39 0.004 0
0.4 0.004 0
0.41 0.004 0
0.42 0.004 0
0.43 0.004 0
0.44 0.004 0
0.45 0.004 0
0.46 0.004 0
0.47 0.004 0
0.48 0.004 0
0.49 0.004 0
0.5 0.004 0
0.51 0.004 0
0.52 0.004 0
0.53 0.004 0
0.54 0.004 0
0.55 0.004 0
0.56 0.004 0
0.57 0.004 0
0.58 0.004 0
0.59 0.004 0
0.6 0.004 0
0.61 0.004 0
0.62 0.004 0
0.63 0.004 0
0.64 0.004 0
0.65 0.004 0
0.66 0.004 0
0.67 0.004 0
0.68 0.004 0
0.69 0.004 0
0.7 0.004 0
0.71 0.004 0
0.72 0.004 0
0.73 0.004 0
0.74 0.004 0
0.75 0.004 0
0.76 0.004 0
0.77 0.004 0
0.78 0.004 0
0.79 0.004 0
0.8 0.004 0
0.81 0.004 0
0.82 0.004 0
0.83 0.004 0
0.84 0.004 0
0.85 0.004 0
0.86 0.004 0
0.87 0.004 0
0.88 0.004 0
0.89 0.004 0
0.9 0.004 0
0.91 0.004 0
0.92 0.004 0
0.93 0.004 0
0.94 0.004 0
0.95 0.004 0
0.96 0.004 0
0.97 0.004 0
0.98 0.004 0
0.99 0.004 0
0 0.005 0
0.01 0.005 0
0.02 0.005 0
0.03 0.005 0
0.04 0.005 0
0.05 0.005 0
0.06 0.005 0
0.07 0.005 0
0.08 0.005 0
0.09 0.005 0
0.1 0.005 0
0.11 0.005 0
0.12 0.005 0
0.13 0.005 0
0.14 0.005 0
0.15 0.005 0
0.16 0.005 0
0.17 0.005 0
0.18 0.005 0
0.19 0.005 0
0.2 0.005 0
0.21 0.005 0
0.22 0.005 0
0.23 0.005 0
0.24 0.005 0
0.25 0.005 0
0.26 0.005 0
0.27 0.005 0
0.28 0.005 0
0.29 0.005 0
0.3 0.005 0
0.31 0.005 0
0.32 0.005 0
0.33 0.005 0
0.34 0.005 0
0.35 0.005 0
0.36 0.005 0
0.37 0.005 0
0.38 0.005 0
0.39 0.005 0
0.4 0.005 0
0.41 0.005 0
0.42 0.005 0
0.43 0.005 0
0.44 0.005 0
0.45 0.005 0
0.46 0.005 0
0.47 0.005 0
0.48 0.005 0
0.49 0.005 0
0.5 0.005 0
0.51 0.005 0
0.52 0.005 0
0.53 0.005 0
0.54 0.005 0
0.55 0.005 0
0.56 0.005 0
0.57 0.005 0
0.58 0.005 0
0.59 0.005 0
0.6 0.005 0
0.61 0.005 0
0.62 0.005 0
0.63 0.005 0
0.64 0.005 0
0.65 0.005 0
0.66 0.005 0
0.67 0.005 0
0.68 0.005 0
0.69 0.005 0
0.7 0.005 0
0.71 0.005 0
0.72 0.005 0
0.73 0.005 0
0.74 0.005 0
0.75 0.005 0
0.76 0.005 0
0.77 0.005 0
0.78 0.005 0
0.79 0.005 0
0.8 0.005 0
0.81 0.005 0
0.82 0.005 0
0.83 0.005 0
0.84 0.005 0
0.85 0.005 0
0.86 0.005 0
0.87 0.005 0
0.88 0.005 0
0.89 0.005 0
0.9 0.005 0
0.91 0.005 0
0.92 0.005 0
0.93 0.005 0
0.94 0.005 0
0.95 0.005 0
0.96 0.005 0
0.97 0.005 0
0.98 0.005 0
0.99 0.005 0
0 0.006 0
0.01 0.006 0
0.02 0.006 0
0.03 0.006 0
0.04 0.006 0
0.05 0.006 0
0.06 0.006 0
0.07 0.006 0
0.08 0.006 0
0.09 0.006 0
0.1 0.006 0
0.11 0.006 0
0.12 0.006 0
0.13 0.006 0
0.14 0.006 0
0.15 0.006 0
0.16 0.006 0
0.17 0.006 0
0.18 0.006 0
0.19 0.006 0
0.2 0.006 0
0.21 0.006 0
0.22 0.006 0
0.23 0.006 0
0.24 0.006 0
0.25 0.006 0
0.26 0.006 0
0.27 0.006 0
0.28 0.006 0
0.29 0.006 0
0.3 0.006 0
0.31 0.006 0
0.32 0.006 0
0.33 0.006 0
0.34 0.006 0
0.35 0.006 0
0.36 0.006 0
0.37 0.006 0
0.38 0.006 0
0.39 0.006 0
0.4 0.006 0
0.41 0.006 0
0.42 0.006 0
0.43 0.006 0
0.44 0.006 0
0.45 0.006 0
0.46 0.006 0
0.47 0.006 0
0.48 0.006 0
0.49 0.006 0
0.5 0.006 0
0.51 0.006 0
0.52 0.006 0
0.53 0.006 0
0.54 0.006 0
0.55 0.006 0
0.56 0.006 0
0.57 0.006 0
0.58 0.006 0
0.59 0.006 0
0.6 0.006 0
0.61 0.006 0
0.62 0.006 0
0.63 0.006 0
0.64 0.006 0
0.65 0.006 0
0.66 0.006 0
0.67 0.006 0
0.68 0.006 0
0.69 0.006 0
0.7 0.006 0
0.71 0.006 0
0.72 0.006 0
0.73 0.006 0
0.74 0.006 0
0.75 0.006 0
0.76 0.006 0
0.77 0.006 0
0.78 0.006 0
0.79 0.006 0
0.8 0.006 0
0.81 0.006 0
0.82 0.006 0
0.83 0.006 0
0.84 0.006 0
0.85 0.006 0
0.86 0.006 0
0.87 0.006 0
0.88 0.006 0
0.89 0.006 0
0.9 0.006 0
0.91 0.006 0
0.92 0.006 0
0.93 0.006 0
0.94 0.006 0
0.95 0.006 0
0.96 0.006 0
0.97 0.006 0
0.98 0.006 0
0.99 0.006 0
0 0.007 0
0.01 0.007 0
0.02 0.007 0
0.03 0.007 0
0.04 0.007 0
0.05 0.007 0
0.06 0.007 0
0.07 0.007 0
0.08 0.007 0
0.09 0.007 0
0.1 0.007 0
0.11 0.007 0
0.12 0.007 0
0.13 0.007 0
0.14 0.007 0
0.15 0.007 0
0.16 0.007 0
0.17 0.007 0
0.18 0.007 0
0.19 0.007 0
0.2 0.007 0
0.21 0.007 0
0.22 0.007 0
0.23 0.007 0
0.24 0.007 0
0.25 0.007 0
0.26 0.007 0
0.27 0.007 0
0.28 0.007 0
0.29 0.007 0
0.3 0.007 0
0.31 0.007 0
0.32 0.007 0
0.33 0.007 0
0.34 0.007 0
0.35 0.007 0
0.36 0.007 0
0.37 0.007 0
0.38 0.007 0
0.39 0.007 0
0.4 0.007 0
0.41 0.007 0
0.42 0.007 0
0.43 0.007 0
0.44 0.007 0
0.45 0.007 0
0.46 0.007 0
0.47 0.007 0
0.48 0.007 0
0.49 0.007 0
0.5 0.007 0
0.51 0.007 0
0.52 0.007 0
0.53 0.007 0
0.54 0.007 0
0.55 0.007 0
0.56 0.007 0
0.57 0.007 0
0.58 0.007 0
0.59 0.007 0
0.6 0.007 0
0.61 0.007 0
0.62 0.007 0
0.63 0.007 0
0.64 0.007 0
0.65 0.007 0
0.66 0.007 0
0.67 0.007 0
0.68 0.007 0
0.69 0.007 0
0.7 0.007 0
0.71 0.007 0
0.72 0.007 0
0.73 0.007 0
0.74 0.007 0
0.75 0.007 0
0.76 0.007 0
0.77 0.007 0
0.78 0.007 0
0.79 0.007 0
0.8 0.007 0
0.81 0.007 0
0.82 0.007 0
0.83 0.007 0
0.84 0.007 0
0.85 0.007 0
0.86 0.007 0
0.87 0.007 0
0.88 0.007 0
0.89 0.007 0
0.9 0.007 0
0.91 0.007 0
0.92 0.007 0
0.93 0.007 0
0.94 0.007 0
0.95 0.007 0
0.96 0.007 0
0.97 0.007 0
0.98 0.007 0
[...]
POINT_DATA 10000

SCALARS vel_X float 1
LOOKUP_TABLE default
0
0
0
0
0
0
0
0
0
0
0
0
0
0
0
0
0
0
0
0
0
0
0
0
0
0
0
0
0
0
0
0
0
0
0
0
0
0
0
0
0
0
0
0
0
0
0
0
0
0
0
0
0
0
0
0
0
0
0
0
0
0
0
0
0
0
0
0
0
0
0
0
0
0
0
0
0
0
0
0
0
0
0
0
0
0
0
0
0
0
0
0
0
0
0
0
0
0
0
0
1
0.338169
0.222822
0.21753
0.178023
0.210571
0.20524
0.193125
0.246326
0.256026
0.24487
0.327437
0.394684
0.34714
0.216933
0.108209
0.040715
0.015779
0.00250892
0.00264763
-0.00136226
0.0016488
-0.00159112
0.00160169
-0.00159992
0.00160019
-0.00160015
0.00160016
-0.00160016
0.00160016
-0.00160016
0.00160016
-0.00160016
0.00160016
-0.00160016
0.00160016
-0.00160016
0.00160016
-0.00160016
0.00160016
-0.00160016
0.00160016
-0.00160016
0.00160016
-0.00160016
0.00160016
-0.00160016
0.00160016
-0.00160016
0.00160016
-0.00160016
0.00160016
-0.00160016
0.00160016
-0.00160016
0.00160016
-0.00160016
0.00160016
-0.00160016
0.00160016
-0.00160016
0.00160016
-0.00160016
0.00160016
-0.00160016
0.00160016
-0.00160016
0.00160016
-0.00160016
0.00160016
-0.00160016
0.00160016
-0.00160016
0.00160016
-0.00160016
0.00160016
-0.00160016
0.00160015
-0.00160018
0.00159998
-0.00160116
0.00159565
-0.0016155
0.00156358
-0.00164855
0.0016035
-0.00151256
0.00152946
-0.00201961
0.00167331
-0.00083229
0.000809033
-0.00213325
0.00313491
-0.00344489
0.00253781
-0.00215121
-0.00144259
-0.119395
-0.119395
1
0.590344
0.428306
0.409611
0.356051
0.401513
0.392227
0.386498
0.462092
0.476194
0.473534
0.590919
0.657029
0.549357
0.333986
0.163649
0.0610345
0.0234187
0.00375647
0.00387634
-0.00197839
0.00240089
-0.00231591
0.00233148
-0.00232886
0.00232927
-0.00232921
0.00232922
-0.00232922
0.00232922
-0.00232922
0.00232922
-0.00232922
0.00232922
-0.00232922
0.00232922
-0.00232922
0.00232922
-0.00232922
0.00232922
-0.00232922
0.00232922
-0.00232922
0.00232922
-0.00232922
0.00232922
-0.00232922
0.00232922
-0.00232922
0.00232922
-0.00232922
0.00232922
-0.00232922
0.00232922
-0.00232922
0.00232922
-0.00232922
0.00232922
-0.00232922
0.00232922
-0.00232922
0.00232922
-0.00232922
0.00232922
-0.00232922
0.00232922
-0.00232922
0.00232922
-0.00232922
0.00232922
-0.00232922
0.00232922
-0.00232922
0.00232922
-0.00232922
0.00232922
-0.00232922
0.00232921
-0.00232926
0.00232895
-0.00233071
0.00232256
-0.00235207
0.0022738
-0.00240662
0.00231982
-0.00221266
0.00224273
-0.0029303
0.00233591
-0.00127117
0.00136891
-0.00322973
0.00435832
-0.00466107
0.00323691
-0.00286765
5.65927e-05
0.157655
0.157655
1
0.77301
0.607065
0.578931
0.523483
0.566606
0.563104
0.560223
0.640271
0.660645
0.662009
0.772336
0.813948
0.661993
0.40021
0.194791
0.0738291
0.0274165
0.00530284
0.00393611
-0.00162522
0.00214288
-0.00203808
0.00205741
-0.00205414
0.00205465
-0.00205458
0.00205459
-0.00205459
0.00205459
-0.00205459
0.00205459
-0.00205459
0.00205459
-0.00205459
0.00205459
-0.00205459
0.00205459
-0.00205459
0.00205459
-0.00205459
0.00205459
-0.00205459
0.00205459
-0.00205459
0.00205459
-0.00205459
0.00205459
-0.00205459
0.00205459
-0.00205459
0.00205459
-0.00205459
0.00205459
-0.00205459
0.00205459
-0.00205459
0.00205459
-0.00205459
0.00205459
-0.00205459
0.00205459
-0.00205459
0.00205459
-0.00205459
0.00205459
-0.00205459
0.00205459
-0.00205459
0.00205459
-0.00205459
0.00205459
-0.00205459
0.00205459
-0.00205459
0.00205459
-0.00205459
0.00205458
-0.00205464
0.00205426
-0.00205641
0.00204656
-0.00208181
0.0019892
-0.00214609
0.00203712
-0.00193825
0.00194184
-0.00271576
0.00205303
-0.000989914
0.00101521
-0.00293261
0.00400733
-0.00448649
0.0030091
-0.00290658
-0.000856772
-0.137267
-0.137267
1
0.901684
0.755469
0.725476
0.671845
0.706142
0.712721
0.705107
0.781011
0.806399
0.800625
0.882722
0.900045
0.724548
0.44169
0.215543
0.0838902
0.0301106
0.00711248
0.00350752
-0.000823821
0.00143108
-0.00130693
0.00133005
-0.0013261
0.00132672
-0.00132663
0.00132664
-0.00132664
0.00132664
-0.00132664
0.00132664
-0.00132664
0.00132664
-0.00132664
0.00132664
-0.00132664
0.00132664
-0.00132664
0.00132664
-0.00132664
0.00132664
-0.00132664
0.00132664
-0.00132664
0.00132664
-0.00132664
0.00132664
-0.00132664
0.00132664
-0.00132664
0.00132664
-0.00132664
0.00132664
-0.00132664
0.00132664
-0.00132664
0.00132664
-0.00132664
0.00132664
-0.00132664
0.00132664
-0.00132664
0.00132664
-0.00132664
0.00132664
-0.00132664
0.00132664
-0.00132664
0.00132664
-0.00132664
0.00132664
-0.00132664
0.00132664
-0.00132664
0.00132664
-0.00132664
0.00132663
-0.0013267
0.00132625
-0.00132876
0.00131746
-0.00135706
0.00125545
-0.00142311
0.00130936
-0.00122028
0.00117091
-0.0019996
0.00138943
-0.000364465
0.000157815
-0.00195017
0.00302241
-0.00383402
0.00254551
-0.00271646
0.000711096
0.14879
0.14879
1
0.989355
0.873907
0.847901
0.79737
0.820896
0.836638
0.819615
0.886719
0.913304
0.893342
0.94251
0.943514
0.76071
0.471343
0.232133
0.0929868
0.032527
0.00900237
0.00299745
7.20164e-05
0.000630676
-0.0004854
0.000512741
-0.000508025
0.000508775
-0.000508665
0.00050868
-0.000508678
0.000508678
-0.000508678
0.000508678
-0.000508678
0.000508678
-0.000508678
0.000508678
-0.000508678
0.000508678
-0.000508678
0.000508678
-0.000508678
0.000508678
-0.000508678
0.000508678
-0.000508678
0.000508678
-0.000508678
0.000508678
-0.000508678
0.000508678
-0.000508678
0.000508678
-0.000508678
0.000508678
-0.000508678
0.000508678
-0.000508678
0.000508678
-0.000508678
0.000508678
-0.000508678
0.000508678
-0.000508678
0.000508678
-0.000508678
0.000508678
-0.000508678
0.000508678
-0.000508678
0.000508678
-0.000508678
0.000508678
-0.000508678
0.000508678
-0.000508678
0.000508678
-0.000508679
0.000508669
-0.00050875
0.000508218
-0.000511112
0.000498388
-0.000541855
0.000433678
-0.000604983
0.000497762
-0.000414269
0.00030171
-0.00117425
0.000675132
0.000321784
-0.000817792
-0.00080154
0.00191663
-0.00308612
0.0020674
-0.00246122
-0.000299686
-0.141761
-0.141761
1
1.04649
0.964772
0.945644
0.899538
0.91167
0.933756
0.906091
0.961314
0.985657
0.950826
0.970698
0.963257
0.783236
0.495219
0.247103
0.101799
0.0350256
0.0109089
0.00254578
0.00094047
-0.000132543
0.000301531
-0.000269373
0.000274979
-0.000274078
0.000274212
-0.000274194
0.000274196
-0.000274196
0.000274196
-0.000274196
0.000274196
-0.000274196
0.000274196
-0.000274196
0.000274196
-0.000274196
0.000274196
-0.000274196
0.000274196
-0.000274196
0.000274196
-0.000274196
0.000274196
-0.000274196
0.000274196
-0.000274196
0.000274196
-0.000274196
0.000274196
-0.000274196
0.000274196
-0.000274196
0.000274196
-0.000274196
0.000274196
-0.000274196
0.000274196
-0.000274196
0.000274196
-0.000274196
0.000274196
-0.000274196
0.000274196
-0.000274196
0.000274196
-0.000274196
0.000274196
-0.000274196
0.000274196
-0.000274196
0.000274196
-0.000274196
0.000274196
-0.000274196
0.000274194
-0.000274207
0.000274111
-0.000274731
0.000271424
-0.000285622
0.000238436
-0.000351915
0.000180954
-0.000275387
0.000356208
-0.000533145
-0.000371753
6.26622e-06
0.000964244
-0.00173982
0.00031253
0.00083496
-0.00230804
0.00157653
-0.00212949
0.00109196
0.146427
0.146427
1
1.08131
1.03138
1.01971
0.979546
0.980069
1.00586
0.968544
1.01006
1.03062
0.98452
0.981188
0.970522
0.798534
0.515996
0.261407
0.110578
0.0377085
0.0128272
0.00218327
0.00175751
-0.000832822
0.00102853
-0.000990866
0.000997502
-0.000996425
0.000996587
-0.000996564
0.000996567
-0.000996567
0.000996567
-0.000996567
0.000996567
-0.000996567
0.000996567
-0.000996567
0.000996567
-0.000996567
0.000996567
-0.000996567
0.000996567
-0.000996567
0.000996567
-0.000996567
0.000996567
-0.000996567
0.000996567
-0.000996567
0.000996567
-0.000996567
0.000996567
-0.000996567
0.000996567
-0.000996567
0.000996567
-0.000996567
0.000996567
-0.000996567
0.000996567
-0.000996567
0.000996567
-0.000996567
0.000996567
-0.000996567
0.000996567
-0.000996567
0.000996567
-0.000996567
0.000996567
-0.000996567
0.000996567
-0.000996567
0.000996567
-0.000996567
0.000996567
-0.000996567
0.000996565
-0.00099658
0.000996466
-0.000997186
0.000993432
-0.00100917
0.000958332
-0.00107625
0.000908155
-0.000986768
0.00106511
-0.0013042
0.000382391
-0.000607773
0.0015374
-0.00255521
0.00134243
-0.000207234
-0.00149063
0.00104613
-0.00174193
-0.000130243
-0.143073
-0.143073
1
1.10012
1.07744
1.07245
1.03953
1.02874
1.05637
1.01158
1.03892
1.0559
1.00365
0.982828
0.971474
0.809696
0.534773
0.275368
0.119389
0.0406078
0.0147512
0.00192447
0.0025117
-0.00145768
0.00168343
-0.00163949
0.00164731
-0.00164603
0.00164623
-0.0016462
0.0016462
-0.0016462
0.0016462
-0.0016462
0.0016462
-0.0016462
0.0016462
-0.0016462
0.0016462
-0.0016462
0.0016462
-0.0016462
0.0016462
-0.0016462
0.0016462
-0.0016462
0.0016462
-0.0016462
0.0016462
-0.0016462
0.0016462
-0.0016462
0.0016462
-0.0016462
0.0016462
-0.0016462
0.0016462
-0.0016462
0.0016462
-0.0016462
0.0016462
-0.0016462
0.0016462
-0.0016462
0.0016462
-0.0016462
0.0016462
-0.0016462
0.0016462
-0.0016462
0.0016462
-0.0016462
0.0016462
-0.0016462
0.0016462
-0.0016462
0.0016462
-0.0016462
0.0016462
-0.00164622
0.00164608
-0.00164691
0.00164268
-0.00166001
0.0016056
-0.00172721
0.00156382
-0.00162546
0.00169938
-0.00199746
0.00107625
-0.00116213
0.00202731
-0.00324322
0.00226915
-0.00119909
-0.000645525
0.000478925
-0.00129438
0.0010721
0.145649
0.145649
1
1.10771
1.10679
1.107
1.08217
1.06105
1.08931
1.03977
1.05368
1.06813
1.01453
0.980709
0.969316
0.818206
0.551962
0.289076
0.128214
0.0437427
0.0166627
0.00179049
0.00318381
-0.00198706
0.00224644
-0.00219538
0.00220458
-0.00220305
0.00220329
-0.00220326
0.00220326
-0.00220326
0.00220326
-0.00220326
0.00220326
-0.00220326
0.00220326
-0.00220326
0.00220326
-0.00220326
0.00220326
-0.00220326
0.00220326
-0.00220326
0.00220326
-0.00220326
0.00220326
-0.00220326
0.00220326
-0.00220326
0.00220326
-0.00220326
0.00220326
-0.00220326
0.00220326
-0.00220326
0.00220326
-0.00220326
0.00220326
-0.00220326
0.00220326
-0.00220326
0.00220326
-0.00220326
0.00220326
-0.00220326
0.00220326
-0.00220326
0.00220326
-0.00220326
0.00220326
-0.00220326
0.00220326
-0.00220326
0.00220326
-0.00220326
0.00220326
-0.00220326
0.00220326
-0.00220328
0.00220312
-0.00220407
0.00219932
-0.0022183
0.00216042
-0.00228496
0.0021278
-0.00217241
0.00223874
-0.0025923
0.00168911
-0.00164037
0.00241581
-0.00378555
0.00306786
-0.00211048
0.000190657
-0.00010008
-0.000835853
-0.000295268
-0.143568
-0.143568
1
1.10766
1.12311
1.12685
1.11043
1.08059
1.10865
1.05726
1.05922
1.07228
1.02096
0.977519
0.965665
0.824808
0.5677
0.302536
0.137006
0.0471266
0.0185393
0.00180385
0.00375268
-0.00239905
0.00269594
-0.00263683
0.00264759
-0.00264579
0.00264607
-0.00264603
0.00264603
-0.00264603
0.00264603
-0.00264603
0.00264603
-0.00264603
0.00264603
-0.00264603
0.00264603
-0.00264603
0.00264603
-0.00264603
0.00264603
-0.00264603
0.00264603
-0.00264603
0.00264603
-0.00264603
0.00264603
-0.00264603
0.00264603
-0.00264603
0.00264603
-0.00264603
0.00264603
-0.00264603
0.00264603
-0.00264603
0.00264603
-0.00264603
0.00264603
-0.00264603
0.00264603
-0.00264603
0.00264603
-0.00264603
0.00264603
-0.00264603
0.00264603
-0.00264603
0.00264603
-0.00264603
0.00264603
-0.00264603
0.00264603
-0.00264603
0.00264603
-0.00264603
0.00264603
-0.00264606
0.00264587
-0.00264696
0.00264165
-0.00266232
0.0026011
-0.00272781
0.00257818
-0.00260636
0.00266145
-0.00306651
0.00219745
-0.00202266
0.00268561
-0.00416575
0.00371075
-0.00290439
0.000974622
-0.000659964
-0.000372009
0.000812659
0.145314
0.145314
1
1.10266
1.12972
1.13539
1.12727
1.09073
1.11796
1.06743
1.05926
1.07168
1.02506
0.974551
0.96135
0.829919
0.582035
0.315718
0.145713
0.0507638
0.0203632
0.00198113
0.00420275
-0.00267738
0.00301595
-0.00294777
0.00296032
-0.00295819
0.00295853
-0.00295848
0.00295849
-0.00295848
0.00295848
-0.00295848
0.00295848
-0.00295848
0.00295848
-0.00295848
0.00295848
-0.00295848
0.00295848
-0.00295848
0.00295848
-0.00295848
0.00295848
-0.00295848
0.00295848
-0.00295848
0.00295848
-0.00295848
0.00295848
-0.00295848
0.00295848
-0.00295848
0.00295848
-0.00295848
0.00295848
-0.00295848
0.00295848
-0.00295848
0.00295848
-0.00295848
0.00295848
-0.00295848
0.00295848
-0.00295848
0.00295848
-0.00295848
0.00295848
-0.00295848
0.00295848
-0.00295848
0.00295848
-0.00295848
0.00295848
-0.00295848
0.00295848
-0.00295848
0.00295848
-0.00295851
0.0029583
-0.00295953
0.00295364
-0.00297603
0.00291165
-0.00303972
0.00289875
-0.00291158
0.00295177
-0.00340363
0.00258293
-0.0022941
0.00282624
-0.00437417
0.00417606
-0.00354957
0.00166891
-0.00117337
5.32595e-05
-0.000607375
-0.143805
-0.143805
1
1.0947
1.12948
1.13572
1.13543
1.09435
1.12019
1.07284
1.05637
1.06842
1.02785
0.97235
0.956816
0.833813
0.594993
0.328578
0.154292
0.0546481
0.0221248
0.00232998
0.00452712
-0.00281453
0.0031992
-0.00312085
0.00313543
-0.00313293
0.00313333
-0.00313327
0.00313328
-0.00313328
0.00313328
-0.00313328
0.00313328
-0.00313328
0.00313328
-0.00313328
0.00313328
-0.00313328
0.00313328
-0.00313328
0.00313328
-0.00313328
0.00313328
-0.00313328
0.00313328
-0.00313328
0.00313328
-0.00313328
0.00313328
-0.00313328
0.00313328
-0.00313328
0.00313328
-0.00313328
0.00313328
-0.00313328
0.00313328
-0.00313328
0.00313328
-0.00313328
0.00313328
-0.00313328
0.00313328
-0.00313328
0.00313328
-0.00313328
0.00313328
-0.00313328
0.00313328
-0.00313328
0.00313328
-0.00313328
0.00313328
-0.00313328
0.00313328
-0.00313328
0.00313327
-0.00313331
0.00313307
-0.00313446
0.00312795
-0.00315207
0.00308474
-0.00321336
0.00308199
-0.00308092
0.00310283
-0.00359599
0.00283577
-0.0024478
0.00283598
-0.00441036
0.00445272
-0.00402578
0.00224603
-0.00161871
0.000444336
0.000483266
0.145141
0.145141
1
1.08524
1.12472
1.13051
1.13725
1.09377
1.11765
1.07528
1.05218
1.06372
1.02981
0.971081
0.952328
0.836696
0.60661
0.341068
0.162705
0.0587637
0.0238221
0.00284927
0.0047274
-0.0028115
0.00324696
-0.00315725
0.00317412
-0.00317121
0.00317167
-0.0031716
0.00317161
-0.00317161
0.00317161
-0.00317161
0.00317161
-0.00317161
0.00317161
-0.00317161
0.00317161
-0.00317161
0.00317161
-0.00317161
0.00317161
-0.00317161
0.00317161
-0.00317161
0.00317161
-0.00317161
0.00317161
-0.00317161
0.00317161
-0.00317161
0.00317161
-0.00317161
0.00317161
-0.00317161
0.00317161
-0.00317161
0.00317161
-0.00317161
0.00317161
-0.00317161
0.00317161
-0.00317161
0.00317161
-0.00317161
0.00317161
-0.00317161
0.00317161
-0.00317161
0.00317161
-0.00317161
0.00317161
-0.00317161
0.00317161
-0.00317161
0.00317161
-0.00317161
0.00317161
-0.00317165
0.00317137
-0.00317293
0.00316578
-0.00319164
0.00312161
-0.00324994
0.00312895
-0.00311569
0.00311638
-0.00364456
0.00295473
-0.00248477
0.00272109
-0.0042828
0.00454082
-0.00432416
0.00268854
-0.00198055
0.000767298
-0.00092846
-0.143935
-0.143935
1
1.07529
1.11722
1.12192
1.13466
1.09072
1.11209
1.07589
1.04763
1.05831
1.03111
0.970725
0.948056
0.838745
0.616936
0.35314
0.170924
0.0630866
0.0254599
0.00353042
0.00481231
-0.00267651
0.00316772
-0.00306538
0.00308484
-0.00308144
0.00308199
-0.00308191
0.00308192
-0.00308192
0.00308192
-0.00308192
0.00308192
-0.00308192
0.00308192
-0.00308192
0.00308192
-0.00308192
0.00308192
-0.00308192
0.00308192
-0.00308192
0.00308192
-0.00308192
0.00308192
-0.00308192
0.00308192
-0.00308192
0.00308192
-0.00308192
0.00308192
-0.00308192
0.00308192
-0.00308192
0.00308192
-0.00308192
0.00308192
-0.00308192
0.00308192
-0.00308192
0.00308192
-0.00308192
0.00308192
-0.00308192
0.00308192
-0.00308192
0.00308192
-0.00308192
0.00308192
-0.00308192
0.00308192
-0.00308192
0.00308192
-0.00308192
0.00308192
-0.00308192
0.00308191
-0.00308196
0.00308164
-0.00308339
0.00307557
-0.00310315
0.0030307
-0.00315793
0.00304789
-0.00302437
0.00300146
-0.00355772
0.00294593
-0.00241253
0.00249429
-0.00400748
0.00445025
-0.00444588
0.00298805
-0.00224896
0.00103544
0.000191691
0.145039
0.145039
1
1.06557
1.10832
1.11159
1.12914
1.08642
1.10473
1.07536
1.04325
1.05262
1.03182
0.971177
0.944118
0.840114
0.626035
0.364747
0.178929
0.0675864
0.0270479
0.00435889
0.00479627
-0.00242353
0.0029757
-0.00285935
0.00288171
-0.00287776
0.00287841
-0.00287831
0.00287832
-0.00287832
0.00287832
-0.00287832
0.00287832
-0.00287832
0.00287832
-0.00287832
0.00287832
-0.00287832
0.00287832
-0.00287832
0.00287832
-0.00287832
0.00287832
-0.00287832
0.00287832
-0.00287832
0.00287832
-0.00287832
0.00287832
-0.00287832
0.00287832
-0.00287832
0.00287832
-0.00287832
0.00287832
-0.00287832
0.00287832
-0.00287832
0.00287832
-0.00287832
0.00287832
-0.00287832
0.00287832
-0.00287832
0.00287832
-0.00287832
0.00287832
-0.00287832
0.00287832
-0.00287832
0.00287832
-0.00287832
0.00287832
-0.00287832
0.00287832
-0.00287832
0.00287832
-0.00287837
0.00287801
-0.00287995
0.00287145
-0.00290071
0.00282615
-0.00295149
0.00285279
-0.00282108
0.0027728
-0.00334974
0.00282133
-0.0022437
0.00217309
-0.00360619
0.00419878
-0.00440053
0.00314422
-0.00241965
0.00122298
-0.00117676
-0.14402
-0.14402
1
1.05651
1.09892
1.1007
1.12179
1.08165
1.09643
1.07406
1.03928
1.04689
1.03196
0.972298
0.940594
0.840938
0.633987
0.375846
0.186704
0.0722284
0.0285996
0.00531572
0.00469782
-0.00207074
0.00268929
-0.00255748
0.00258309
-0.00257853
0.00257928
-0.00257916
0.00257918
-0.00257918
0.00257918
-0.00257918
0.00257918
-0.00257918
0.00257918
-0.00257918
0.00257918
-0.00257918
0.00257918
-0.00257918
0.00257918
-0.00257918
0.00257918
-0.00257918
0.00257918
-0.00257918
0.00257918
-0.00257918
0.00257918
-0.00257918
0.00257918
-0.00257918
0.00257918
-0.00257918
0.00257918
-0.00257918
0.00257918
-0.00257918
0.00257918
-0.00257918
0.00257918
-0.00257918
0.00257918
-0.00257918
0.00257918
-0.00257918
0.00257918
-0.00257918
0.00257918
-0.00257918
0.00257918
-0.00257918
0.00257918
-0.00257918
0.00257918
-0.00257918
0.00257917
-0.00257923
0.00257883
-0.00258097
0.00257176
-0.00260267
0.00252634
-0.00264903
0.00256184
-0.00252412
0.00244934
-0.00303929
0.00259735
-0.00199462
0.00177827
-0.00310469
0.00381013
-0.00420453
0.00316367
-0.00249324
0.00135079
-2.93598e-06
0.144964
0.144964
1
1.04834
1.08962
1.09005
1.1134
1.07689
1.08778
1.07221
1.03581
1.0413
1.03156
0.973939
0.93754
0.841339
0.64088
0.3864
0.194239
0.0769747
0.030131
0.00637889
0.00453817
-0.0016391
0.0023297
-0.00218087
0.0022101
-0.00220483
0.00220571
-0.00220557
0.00220559
-0.00220559
0.00220559
-0.00220559
0.00220559
-0.00220559
0.00220559
-0.00220559
0.00220559
-0.00220559
0.00220559
-0.00220559
0.00220559
-0.00220559
0.00220559
-0.00220559
0.00220559
-0.00220559
0.00220559
-0.00220559
0.00220559
-0.00220559
0.00220559
-0.00220559
0.00220559
-0.00220559
0.00220559
-0.00220559
0.00220559
-0.00220559
0.00220559
-0.00220559
0.00220559
-0.00220559
0.00220559
-0.00220559
0.00220559
-0.00220559
0.00220559
-0.00220559
0.00220559
-0.00220559
0.00220559
-0.00220559
0.00220559
-0.00220559
0.00220559
-0.00220559
0.00220558
-0.00220566
0.0022052
-0.00220756
0.00219764
-0.00223012
0.00215238
-0.00227169
0.00219602
-0.00215449
0.00205273
-0.00264797
0.00229342
-0.00168401
0.00133242
-0.00253105
0.00331201
-0.00387948
0.00305882
-0.00247509
0.00139995
-0.00131333
-0.14409
-0.14409
1
1.04117
1.08077
1.08012
1.10452
1.07239
1.07916
1.06991
1.03284
1.03596
1.03066
0.975953
0.934989
0.841421
0.646807
0.396378
0.201529
0.0817861
0.0316586
0.00752485
0.00433984
-0.00115093
0.00191943
-0.00175196
0.00178521
-0.00177915
0.00178017
-0.00178001
0.00178003
-0.00178003
0.00178003
-0.00178003
0.00178003
-0.00178003
0.00178003
-0.00178003
0.00178003
-0.00178003
0.00178003
-0.00178003
0.00178003
-0.00178003
0.00178003
-0.00178003
0.00178003
-0.00178003
0.00178003
-0.00178003
0.00178003
-0.00178003
0.00178003
-0.00178003
0.00178003
-0.00178003
0.00178003
-0.00178003
0.00178003
-0.00178003
0.00178003
-0.00178003
0.00178003
-0.00178003
0.00178003
-0.00178003
0.00178003
-0.00178003
0.00178003
-0.00178003
0.00178003
-0.00178003
0.00178003
-0.00178003
0.00178003
-0.00178003
0.00178003
-0.00178003
0.00178002
-0.0017801
0.00177959
-0.00178219
0.00177154
-0.00180552
0.00172673
-0.00184202
0.00177768
-0.00173452
0.00160593
-0.0021989
0.00193059
-0.0013317
0.000858582
-0.00191395
0.00273427
-0.00345053
0.00284653
-0.00237415
0.0013973
-7.98171e-05
0.144894
0.144894
1
1.03501
1.07254
1.07116
1.09552
1.06823
1.07083
1.06723
1.03034