# vtk DataFile Version 2.0
FlowField
ASCII
DATASET STRUCTURED_GRID
DIMENSIONS 100 1 100
POINTS 10000 float
0 0 0
0.01 0 0
0.02 0 0
0.03 0 0
0.04 0 0
0.05 0 0
0.06 0 0
0.07 0 0
0.08 0 0
0.09 0 0
0.1 0 0
0.11 0 0
0.12 0 0
0.13 0 0
0.14 0 0
0.15 0 0
0.16 0 0
0.17 0 0
0.18 0 0
0.19 0 0
0.2 0 0
0.21 0 0
0.22 0 0
0.23 0 0
0.24 0 0
0.25 0 0
0.26 0 0
0.27 0 0
0.28 0 0
0.29 0 0
0.3 0 0
0.31 0 0
0.32 0 0
0.33 0 0
0.34 0 0
0.35 0 0
0.36 0 0
0.37 0 0
0.38 0 0
0.39 0 0
0.4 0 0
0.41 0 0
0.42 0 0
0.43 0 0
0.44 0 0
0.45 0 0
0.46 0 0
0.47 0 0
0.48 0 0
0.49 0 0
0.5 0 0
0.51 0 0
0.52 0 0
0.53 0 0
0.54 0 0
0.55 0 0
0.56 0 0
0.57 0 0
0.58 0 0
0.59 0 0
0.6 0 0
0.61 0 0
0.62 0 0
0.63 0 0
0.64 0 0
0.65 0 0
0.66 0 0
0.67 0 0
0.68 0 0
0.69 0 0
0.7 0 0
0.71 0 0
0.72 0 0
0.73 0 0
0.74 0 0
0.75 0 0
0.76 0 0
0.77 0 0
0.78 0 0
0.79 0 0
0.8 0 0
0.81 0 0
0.82 0 0
0.83 0 0
0.84 0 0
0.85 0 0
0.86 0 0
0.87 0 0
0.88 0 0
0.89 0 0
0.9 0 0
0.91 0 0
0.92 0 0
0.93 0 0
0.94 0 0
0.95 0 0
0.96 0 0
0.97 0 0
0.98 0 0
0.99 0 0
0 0.001 0
0.01 0.001 0
0.02 0.001 0
0.03 0.001 0
0.04 0.001 0
0.05 0.001 0
0.06 0.001 0
0.07 0.001 0
0.08 0.001 0
0.09 0.001 0
0.1 0.001 0
0.11 0.001 0
0.12 0.001 0
0.13 0.001 0
0.14 0.001 0
0.15 0.001 0
0.16 0.001 0
0.17 0.001 0
0.18 0.001 0
0.19 0.001 0
0.2 0.001 0
0.21 0.001 0
0.22 0.001 0
0.23 0.001 0
0.24 0.001 0
0.25 0.001 0
0.26 0.001 0
0.27 0.001 0
0.28 0.001 0
0.29 0.001 0
0.3 0.001 0
0.31 0.001 0
0.32 0.001 0
0.33 0.001 0
0.34 0.001 0
0.35 0.001 0
0.36 0.001 0
0.37 0.001 0
0.38 0.001 0
0.39 0.001 0
0.4 0.001 0
0.41 0.001 0
0.42 0.001 0
0.43 0.001 0
0.44 0.001 0
0.45 0.001 0
0.46 0.001 0
0.47 0.001 0
0.48 0.001 0
0.49 0.001 0
0.5 0.001 0
0.51 0.001 0
0.52 0.001 0
0.53 0.001 0
0.54 0.001 0
0.55 0.001 0
0.56 0.001 0
0.57 0.001 0
0.58 0.001 0
0.59 0.001 0
0.6 0.001 0
0.61 0.001 0
0.62 0.001 0
0.63 0.001 0
0.64 0.001 0
0.65 0.001 0
0.66 0.001 0
0.67 0.001 0
0.68 0.001 0
0.69 0.001 0
0.7 0.001 0
0.71 0.001 0
0.72 0.001 0
0.73 0.001 0
0.74 0.001 0
0.75 0.001 0
0.76 0.001 0
0.77 0.001 0
0.78 0.001 0
0.79 0.001 0
0.8 0.001 0
0.81 0.001 0
0.82 0.001 0
0.83 0.001 0
0.84 0.001 0
0.85 0.001 0
0.86 0.001 0
0.87 0.001 0
0.88 0.001 0
0.89 0.001 0
0.9 0.001 0
0.91 0.001 0
0.92 0.001 0
0.93 0.001 0
0.94 0.001 0
0.95 0.001 0
0.96 0.001 0
0.97 0.001 0
0.98 0.001 0
0.99 0.001 0
0 0.002 0
0.01 0.002 0
0.02 0.002 0
0.03 0.002 0
0.04 0.002 0
0.05 0.002 0
0.06 0.002 0
0.07 0.002 0
0.08 0.002 0
0.09 0.002 0
0.1 0.002 0
0.11 0.002 0
0.12 0.002 0
0.13 0.002 0
0.14 0.002 0
0.15 0.002 0
0.16 0.002 0
0.17 0.002 0
0.18 0.002 0
0.19 0.002 0
0.2 0.002 0
0.21 0.002 0
0.22 0.002 0
0.23 0.002 0
0.24 0.002 0
0.25 0.002 0
0.26 0.002 0
0.27 0.002 0
0.28 0.002 0
0.29 0.002 0
0.3 0.002 0
0.31 0.002 0
0.32 0.002 0
0.33 0.002 0
0.34 0.002 0
0.35 0.002 0
0.36 0.002 0
0.37 0.002 0
0.38 0.002 0
0.39 0.002 0
0.4 0.002 0
0.41 0.002 0
0.42 0.002 0
0.43 0.002 0
0.44 0.002 0
0.45 0.002 0
0.46 0.002 0
0.47 0.002 0
0.48 0.002 0
0.49 0.002 0
0.5 0.002 0
0.51 0.002 0
0.52 0.002 0
0.53 0.002 0
0.54 0.002 0
0.55 0.002 0
0.56 0.002 0
0.57 0.002 0
0.58 0.002 0
0.59 0.002 0
0.6 0.002 0
0.61 0.002 0
0.62 0.002 0
0.63 0.002 0
0.64 0.002 0
0.65 0.002 0
0.66 0.002 0
0.67 0.002 0
0.68 0.002 0
0.69 0.002 0
0.7 0.002 0
0.71 0.002 0
0.72 0.002 0
0.73 0.002 0
0.74 0.002 0
0.75 0.002 0
0.76 0.002 0
0.77 0.002 0
0.78 0.002 0
0.79 0.002 0
0.8 0.002 0
0.81 0.002 0
0.82 0.002 0
0.83 0.002 0
0.84 0.002 0
0.85 0.002 0
0.86 0.002 0
0.87 0.002 0
0.88 0.002 0
0.89 0.002 0
0.9 0.002 0
0.91 0.002 0
0.92 0.002 0
0.93 0.002 0
0.94 0.002 0
0.95 0.002 0
0.96 0.002 0
0.97 0.002 0
0.98 0.002 0
0.99 0.002 0
0 0.003 0
0.01 0.003 0
0.02 0.003 0
0.03 0.003 0
0.04 0.003 0
0.05 0.003 0
0.06 0.003 0
0.07 0.003 0
0.08 0.003 0
0.09 0.003 0
0.1 0.003 0
0.11 0.003 0
0.12 0.003 0
0.13 0.003 0
0.14 0.003 0
0.15 0.003 0
0.16 0.003 0
0.17 0.003 0
0.18 0.003 0
0.19 0.003 0
0.2 0.003 0
0.21 0.003 0
0.22 0.003 0
0.23 0.003 0
0.24 0.003 0
0.25 0.003 0
0.26 0.003 0
0.27 0.003 0
0.28 0.003 0
0.29 0.003 0
0.3 0.003 0
0.31 0.003 0
0.32 0.003 0
0.33 0.003 0
0.34 0.003 0
0.35 0.003 0
0.36 0.003 0
0.37 0.003 0
0.38 0.003 0
0.39 0.003 0
0.4 0.003 0
0.41 0.003 0
0.42 0.003 0
0.43 0.003 0
0.44 0.003 0
0.45 0.003 0
0.46 0.003 0
0.47 0.003 0
0.48 0.003 0
0.49 0.003 0
0.5 0.003 0
0.51 0.003 0
0.52 0.003 0
0.53 0.003 0
0.54 0.003 0
0.55 0.003 0
0.56 0.003 0
0.57 0.003 0
0.58 0.003 0
0.59 0.003 0
0.6 0.003 0
0.61 0.003 0
0.62 0.003 0
0.63 0.003 0
0.64 0.003 0
0.65 0.003 0
0.66 0.003 0
0.67 0.003 0
0.68 0.003 0
0.69 0.003 0
0.7 0.003 0
0.71 0.003 0
0.72 0.003 0
0.73 0.003 0
0.74 0.003 0
0.75 0.003 0
0.76 0.003 0
0.77 0.003 0
0.78 0.003 0
0.79 0.003 0
0.8 0.003 0
0.81 0.003 0
0.82 0.003 0
0.83 0.003 0
0.84 0.003 0
0.85 0.003 0
0.86 0.003 0
0.87 0.003 0
0.88 0.003 0
0.89 0.003 0
0.9 0.003 0
0.91 0.003 0
0.92 0.003 0
0.93 0.003 0
0.94 0.003 0
0.95 0.003 0
0.96 0.003 0
0.97 0.003 0
0.98 0.003 0
0.99 0.003 0
0 0.004 0
0.01 0.004 0
0.02 0.004 0
0.03 0.004 0
0.04 0.004 0
0.05 0.004 0
0.06 0.004 0
0.07 0.004 0
0.08 0.004 0
0.09 0.004 0
0.1 0.004 0
0.11 0.004 0
0.12 0.004 0
0.13 0.004 0
0.14 0.004 0
0.15 0.004 0
0.16 0.004 0
0.17 0.004 0
0.18 0.004 0
0.19 0.004 0
0.2 0.004 0
0.21 0.004 0
0.22 0.004 0
0.23 0.004 0
0.24 0.004 0
0.25 0.004 0
0.26 0.004 0
0.27 0.004 0
0.28 0.004 0
0.29 0.004 0
0.3 0.004 0
0.31 0.004 0
0.32 0.004 0
0.33 0.004 0
0.34 0.004 0
0.35 0.004 0
0.36 0.004 0
0.37 0.004 0
0.38 0.004 0
0.39 0.004 0
0.4 0.004 0
0.41 0.004 0
0.42 0.004 0
0.43 0.004 0
0.44 0.004 0
0.45 0.004 0
0.46 0.004 0
0.47 0.004 0
0.48 0.004 0
0.49 0.004 0
0.5 0.004 0
0.51 0.004 0
0.52 0.004 0
0.53 0.004 0
0.54 0.004 0
0.55 0.004 0
0.56 0.004 0
0.57 0.004 0
0.58 0.004 0
0.59 0.004 0
0.6 0.004 0
0.61 0.004 0
0.62 0.004 0
0.63 0.004 0
0.64 0.004 0
0.65 0.004 0
0.66 0.004 0
0.67 0.004 0
0.68 0.004 0
0.69 0.004 0
0.7 0.004 0
0.71 0.004 0
0.72 0.004 0
0.73 0.004 0
0.74 0.004 0
0.75 0.004 0
0.76 0.004 0
0.77 0.004 0
0.78 0.004 0
0.79 0.004 0
0.8 0.004 0
0.81 0.004 0
0.82 0.004 0
0.83 0.004 0
0.84 0.004 0
0.85 0.004 0
0.86 0.004 0
0.87 0.004 0
0.88 0.004 0
0.89 0.004 0
0.9 0.004 0
0.91 0.004 0
0.92 0.004 0
0.93 0.004 0
0.94 0.004 0
0.95 0.004 0
0.96 0.004 0
0.97 0.004 0
0.98 0.004 0
0.99 0.004 0
0 0.005 0
0.01 0.005 0
0.02 0.005 0
0.03 0.005 0
0.04 0.005 0
0.05 0.005 0
0.06 0.005 0
0.07 0.005 0
0.08 0.005 0
0.09 0.005 0
0.1 0.005 0
0.11 0.005 0
0.12 0.005 0
0.13 0.005 0
0.14 0.005 0
0.15 0.005 0
0.16 0.005 0
0.17 0.005 0
0.18 0.005 0
0.19 0.005 0
0.2 0.005 0
0.21 0.005 0
0.22 0.005 0
0.23 0.005 0
0.24 0.005 0
0.25 0.005 0
0.26 0.005 0
0.27 0.005 0
0.28 0.005 0
0.29 0.005 0
0.3 0.005 0
0.31 0.005 0
0.32 0.005 0
0.33 0.005 0
0.34 0.005 0
0.35 0.005 0
0.36 0.005 0
0.37 0.005 0
0.38 0.005 0
0.39 0.005 0
0.4 0.005 0
0.41 0.005 0
0.42 0.005 0
0.43 0.005 0
0.44 0.005 0
0.45 0.005 0
0.46 0.005 0
0.47 0.005 0
0.48 0.005 0
0.49 0.005 0
0.5 0.005 0
0.51 0.005 0
0.52 0.005 0
0.53 0.005 0
0.54 0.005 0
0.55 0.005 0
0.56 0.005 0
0.57 0.005 0
0.58 0.005 0
0.59 0.005 0
0.6 0.005 0
0.61 0.005 0
0.62 0.005 0
0.63 0.005 0
0.64 0.005 0
0.65 0.005 0
0.66 0.005 0
0.67 0.005 0
0.68 0.005 0
0.69 0.005 0
0.7 0.005 0
0.71 0.005 0
0.72 0.005 0
0.73 0.005 0
0.74 0.005 0
0.75 0.005 0
0.76 0.005 0
0.77 0.005 0
0.78 0.005 0
0.79 0.005 0
0.8 0.005 0
0.81 0.005 0
0.82 0.005 0
0.83 0.005 0
0.84 0.005 0
0.85 0.005 0
0.86 0.005 0
0.87 0.005 0
0.88 0.005 0
0.89 0.005 0
0.9 0.005 0
0.91 0.005 0
0.92 0.005 0
0.93 0.005 0
0.94 0.005 0
0.95 0.005 0
0.96 0.005 0
0.97 0.005 0
0.98 0.005 0
0.99 0.005 0
0 0.006 0
0.01 0.006 0
0.02 0.006 0
0.03 0.006 0
0.04 0.006 0
0.05 0.006 0
0.06 0.006 0
0.07 0.006 0
0.08 0.006 0
0.09 0.006 0
0.1 0.006 0
0.11 0.006 0
0.12 0.006 0
0.13 0.006 0
0.14 0.006 0
0.15 0.006 0
0.16 0.006 0
0.17 0.006 0
0.18 0.006 0
0.19 0.006 0
0.2 0.006 0
0.21 0.006 0
0.22 0.006 0
0.23 0.006 0
0.24 0.006 0
0.25 0.006 0
0.26 0.006 0
0.27 0.006 0
0.28 0.006 0
0.29 0.006 0
0.3 0.006 0
0.31 0.006 0
0.32 0.006 0
0.33 0.006 0
0.34 0.006 0
0.35 0.006 0
0.36 0.006 0
0.37 0.006 0
0.38 0.006 0
0.39 0.006 0
0.4 0.006 0
0.41 0.006 0
0.42 0.006 0
0.43 0.006 0
0.44 0.006 0
0.45 0.006 0
0.46 0.006 0
0.47 0.006 0
0.48 0.006 0
0.49 0.006 0
0.5 0.006 0
0.51 0.006 0
0.52 0.006 0
0.53 0.006 0
0.54 0.006 0
0.55 0.006 0
0.56 0.006 0
0.57 0.006 0
0.58 0.006 0
0.59 0.006 0
0.6 0.006 0
0.61 0.006 0
0.62 0.006 0
0.63 0.006 0
0.64 0.006 0
0.65 0.006 0
0.66 0.006 0
0.67 0.006 0
0.68 0.006 0
0.69 0.006 0
0.7 0.006 0
0.71 0.006 0
0.72 0.006 0
0.73 0.006 0
0.74 0.006 0
0.75 0.006 0
0.76 0.006 0
0.77 0.006 0
0.78 0.006 0
0.79 0.006 0
0.8 0.006 0
0.81 0.006 0
0.82 0.006 0
0.83 0.006 0
0.84 0.006 0
0.85 0.006 0
0.86 0.006 0
0.87 0.006 0
0.88 0.006 0
0.89 0.006 0
0.9 0.006 0
0.91 0.006 0
0.92 0.006 0
0.93 0.006 0
0.94 0.006 0
0.95 0.006 0
0.96 0.006 0
0.97 0.006 0
0.98 0.006 0
0.99 0.006 0
0 0.007 0
0.01 0.007 0
0.02 0.007 0
0.03 0.007 0
0.04 0.007 0
0.05 0.007 0
0.06 0.007 0
0.07 0.007 0
0.08 0.007 0
0.09 0.007 0
0.1 0.007 0
0.11 0.007 0
0.12 0.007 0
0.13 0.007 0
0.14 0.007 0
0.15 0.007 0
0.16 0.007 0
0.17 0.007 0
0.18 0.007 0
0.19 0.007 0
0.2 0.007 0
0.21 0.007 0
0.22 0.007 0
0.23 0.007 0
0.24 0.007 0
0.25 0.007 0
0.26 0.007 0
0.27 0.007 0
0.28 0.007 0
0.29 0.007 0
0.3 0.007 0
0.31 0.007 0
0.32 0.007 0
0.33 0.007 0
0.34 0.007 0
0.35 0.007 0
0.36 0.007 0
0.37 0.007 0
0.38 0.007 0
0.39 0.007 0
0.4 0.007 0
0.41 0.007 0
0.42 0.007 0
0.43 0.007 0
0.44 0.007 0
0.45 0.007 0
0.46 0.007 0
0.47 0.007 0
0.48 0.007 0
0.49 0.007 0
0.5 0.007 0
0.51 0.007 0
0.52 0.007 0
0.53 0.007 0
0.54 0.007 0
0.55 0.007 0
0.56 0.007 0
0.57 0.007 0
0.58 0.007 0
0.59 0.007 0
0.6 0.007 0
0.61 0.007 0
0.62 0.007 0
0.63 0.007 0
0.64 0.007 0
0.65 0.007 0
0.66 0.007 0
0.67 0.007 0
0.68 0.007 0
0.69 0.007 0
0.7 0.007 0
0.71 0.007 0
0.72 0.007 0
0.73 0.007 0
0.74 0.007 0
0.75 0.007 0
0.76 0.007 0
0.77 0.007 0
0.78 0.007 0
0.79 0.007 0
0.8 0.007 0
0.81 0.007 0
0.82 0.007 0
0.83 0.007 0
0.84 0.007 0
0.85 0.007 0
0.86 0.007 0
0.87 0.007 0
0.88 0.007 0
0.89 0.007 0
0.9 0.007 0
0.91 0.007 0
0.92 0.007 0
0.93 0.007 0
0.94 0.007 0
0.95 0.007 0
0.96 0.007 0
0.97 0.007 0
0.98 0.007 0
[...]
POINT_DATA 10000

SCALARS vel_X float 1
LOOKUP_TABLE default
0
0
0
0
0
0
0
0
0
0
0
0
0
0
0
0
0
0
0
0
0
0
0
0
0
0
0
0
0
0
0
0
0
0
0
0
0
0
0
0
0
0
0
0
0
0
0
0
0
0
0
0
0
0
0
0
0
0
0
0
0
0
0
0
0
0
0
0
0
0
0
0
0
0
0
0
0
0
0
0
0
0
0
0
0
0
0
0
0
0
0
0
0
0
0
0
0
0
0
0
1
0.293455
0.263076
0.0549404
0.216076
-0.0120826
0.207196
-0.0640335
0.236246
-0.124531
0.235689
-0.0740142
0.0844021
0.0775885
0.0067622
-0.0399223
0.239261
-0.225119
0.165239
0.0349065
-0.0241533
-0.0755056
0.203514
-0.122094
0.0450166
-0.0589055
0.113191
-0.0607497
0.0768136
-0.144351
0.0762888
-0.00199934
0.141477
-0.11222
0.0366901
-0.0863388
0.107994
-0.038622
0.183428
0.0918395
0.302225
0.140608
0.319819
0.180364
0.373033
0.185038
0.302105
0.0625299
0.175906
-0.037058
0.110437
-0.074799
0.0908457
-0.0841034
0.0867737
-0.0857547
0.086103
-0.0861028
0.0859385
-0.0859269
0.0863602
-0.0860264
0.085288
-0.0864646
0.087369
-0.0848548
0.0837266
-0.0881522
0.0895935
-0.0848485
0.0797399
-0.0824749
0.0946989
-0.0999595
0.0814596
-0.0621076
0.0739245
-0.103925
0.112016
-0.0936016
0.0763265
-0.0760034
0.0793545
-0.0728744
0.060768
-0.0593039
0.0765642
-0.108191
0.140196
-0.162331
0.167951
-0.159341
0.139646
-0.114944
0.0882888
-0.0633561
0.0401457
-0.0243936
-0.272893
-0.272893
1
0.528285
0.454681
0.164175
0.354613
0.0494329
0.328656
-0.032888
0.35919
-0.12465
0.358733
-0.0744058
0.161009
0.123455
0.0373518
-0.0140726
0.331433
-0.279581
0.261577
0.0474937
-0.0111737
-0.0714163
0.287706
-0.158718
0.0860855
-0.0627631
0.174683
-0.0701496
0.11724
-0.179297
0.142434
0.0260499
0.213801
-0.136934
0.0861502
-0.0752487
0.207893
0.0197802
0.348583
0.229567
0.525395
0.301482
0.554121
0.356607
0.610978
0.327558
0.466954
0.114982
0.25971
-0.0440174
0.157064
-0.102549
0.126969
-0.116765
0.120786
-0.119262
0.119785
-0.119777
0.119523
-0.119555
0.120147
-0.119605
0.118648
-0.120417
0.121432
-0.117815
0.116708
-0.123008
0.124196
-0.117467
0.111164
-0.115848
0.132231
-0.137448
0.111137
-0.0874399
0.106427
-0.146169
0.153486
-0.12698
0.104658
-0.10565
0.110473
-0.102595
0.088213
-0.0886422
0.112352
-0.153017
0.192114
-0.217402
0.22116
-0.207295
0.179838
-0.147117
0.112236
-0.0804277
0.0506022
-0.0260953
0.433866
0.433866
1
0.703585
0.602426
0.292871
0.451371
0.147106
0.404814
0.0461122
0.42112
-0.0490696
0.396224
0.00898418
0.182229
0.192767
0.0735537
0.0288707
0.364787
-0.222011
0.266271
0.107209
0.00681644
-0.0309079
0.302351
-0.106838
0.0937172
-0.0150374
0.188613
-0.0191214
0.12931
-0.126091
0.164419
0.0941887
0.242573
-0.070654
0.120005
0.0140946
0.276467
0.149277
0.458246
0.397272
0.66153
0.4815
0.691273
0.527844
0.724788
0.456861
0.525131
0.185897
0.269056
-0.00829035
0.144722
-0.0790434
0.108469
-0.0961814
0.101023
-0.0991961
0.0998195
-0.0998036
0.0995152
-0.0995646
0.100202
-0.0996169
0.09857
-0.100492
0.101574
-0.097726
0.0965116
-0.1032
0.104382
-0.0975843
0.0908951
-0.0953468
0.112264
-0.118563
0.0918485
-0.066686
0.0846961
-0.12559
0.134649
-0.10865
0.0849561
-0.0851441
0.0905288
-0.0841286
0.0694844
-0.0677454
0.0879289
-0.126299
0.165362
-0.193256
0.20111
-0.192173
0.168904
-0.139989
0.107479
-0.077799
0.0489174
-0.0286628
-0.37255
-0.37255
1
0.827901
0.721959
0.418375
0.531788
0.25204
0.465943
0.138098
0.462253
0.0544446
0.397352
0.133929
0.171158
0.281451
0.112408
0.0716973
0.387685
-0.119814
0.226774
0.202148
0.026582
0.0201887
0.296617
-0.00942534
0.0860856
0.0574693
0.185366
0.0657104
0.137315
-0.0325241
0.162726
0.183682
0.262971
0.0446555
0.148135
0.136919
0.326202
0.299577
0.525867
0.559389
0.74021
0.649392
0.761544
0.672297
0.763392
0.566281
0.528638
0.261364
0.24423
0.0459191
0.106278
-0.0328334
0.065848
-0.0520212
0.0574868
-0.0554271
0.0561223
-0.0561007
0.0558071
-0.0558386
0.05649
-0.0559687
0.0548223
-0.056673
0.0579579
-0.0542599
0.0525893
-0.0590744
0.0608084
-0.0547447
0.0475033
-0.050361
0.0667102
-0.0758632
0.0520539
-0.0245899
0.0367055
-0.0766107
0.0909521
-0.0695437
0.0446144
-0.0418861
0.0472816
-0.0434552
0.0287153
-0.0222296
0.0346842
-0.0672745
0.105351
-0.137946
0.15414
-0.155396
0.141551
-0.120974
0.0945271
-0.0697776
0.0441246
-0.023087
0.401616
0.401616
1
0.91427
0.817901
0.534063
0.603552
0.354213
0.521623
0.231785
0.495309
0.167234
0.385678
0.271919
0.151965
0.374486
0.155165
0.114599
0.409561
-0.00290219
0.177138
0.30896
0.0509921
0.0754165
0.289234
0.104177
0.0788238
0.138253
0.18147
0.164205
0.151097
0.0730894
0.155378
0.280139
0.288157
0.176998
0.176407
0.263782
0.363876
0.44051
0.564881
0.69734
0.782289
0.788772
0.789995
0.7837
0.762478
0.654158
0.509546
0.331927
0.209077
0.10295
0.0615956
0.0182109
0.0178525
-0.00267031
0.00870214
-0.00642664
0.00718593
-0.00715929
0.00687539
-0.00686454
0.00752736
-0.0071211
0.0058476
-0.00753255
0.00912715
-0.00571045
0.00336386
-0.00947081
0.0120835
-0.00696273
-0.000974243
0.000205415
0.0152432
-0.0280352
0.00832991
0.0220531
-0.01774
-0.0206988
0.0419453
-0.0266195
0.000259604
0.00658865
-0.00177469
0.0026725
-0.0168413
0.0280164
-0.023966
-0.00180428
0.0379526
-0.0748701
0.099649
-0.111812
0.10847
-0.097357
0.0781336
-0.0593047
0.0377973
-0.0237539
-0.382645
-0.382645
1
0.974518
0.891809
0.639693
0.666839
0.452335
0.571848
0.326603
0.520198
0.286066
0.367237
0.411014
0.13696
0.461062
0.2033
0.160652
0.426128
0.1214
0.130919
0.412267
0.0823016
0.134884
0.282034
0.220734
0.0783089
0.22029
0.180943
0.265444
0.170646
0.179428
0.149788
0.375084
0.31712
0.309215
0.204151
0.38067
0.390013
0.560552
0.582646
0.806819
0.798663
0.897686
0.792331
0.866953
0.741891
0.724549
0.482636
0.395495
0.173216
0.157205
0.0182545
0.0674091
-0.0284535
0.0449582
-0.0383611
0.0408567
-0.0400316
0.0400653
-0.0403308
0.0403972
-0.0397226
0.0399928
-0.0414022
0.0399234
-0.0379828
0.0410638
-0.044152
0.0384876
-0.0349245
0.0390722
-0.0476129
0.0489813
-0.0347541
0.0184125
-0.0334581
0.0663473
-0.070255
0.0340784
-0.00598881
0.0145155
-0.0417983
0.0532591
-0.0498342
0.0477941
-0.0601455
0.0744639
-0.0781165
0.0599531
-0.0277383
-0.0110426
0.0422857
-0.0639421
0.0706096
-0.0691212
0.0578248
-0.0458001
0.0294882
-0.0164063
0.397797
0.397797
1
1.01715
0.946094
0.735474
0.721325
0.546315
0.615312
0.423324
0.535237
0.410271
0.343712
0.545522
0.131729
0.534923
0.25768
0.210721
0.433624
0.250817
0.0926208
0.503695
0.121625
0.197948
0.273609
0.333696
0.0864993
0.299655
0.183638
0.362458
0.194218
0.281592
0.148054
0.462063
0.345964
0.432034
0.229921
0.481182
0.405169
0.656674
0.584769
0.888857
0.797098
0.979443
0.77983
0.928578
0.713272
0.781218
0.455144
0.451661
0.14085
0.206408
-0.0205603
0.111975
-0.070119
0.0879771
-0.0807925
0.0835206
-0.0826242
0.0826692
-0.0829094
0.0830373
-0.0823548
0.0824807
-0.0840148
0.082768
-0.0804958
0.0831927
-0.086993
0.0818416
-0.0774035
0.0805555
-0.08945
0.0928394
-0.0802729
0.0609345
-0.0708611
0.105121
-0.117124
0.0845643
-0.0505995
0.0516664
-0.078692
0.0948303
-0.093821
0.089191
-0.0984183
0.113819
-0.123902
0.113954
-0.0879903
0.0505191
-0.0158169
-0.0131088
0.0286442
-0.0365155
0.033615
-0.02918
0.0190299
-0.0147676
-0.385375
-0.385375
1
1.04757
0.984391
0.820735
0.767962
0.63514
0.651884
0.52127
0.540705
0.537203
0.318114
0.670055
0.139985
0.592219
0.318429
0.263739
0.431876
0.381232
0.0653203
0.578128
0.1693
0.262086
0.264392
0.437644
0.104433
0.372604
0.189635
0.449382
0.221476
0.37559
0.151238
0.535271
0.372828
0.539382
0.254314
0.561907
0.412326
0.728343
0.577385
0.945203
0.785271
1.0374
0.76189
0.972604
0.68476
0.825363
0.432019
0.499016
0.11523
0.248194
-0.0520856
0.149318
-0.104483
0.123752
-0.115949
0.118925
-0.11795
0.118012
-0.11822
0.118412
-0.117729
0.117707
-0.119342
0.118352
-0.11579
0.118045
-0.122484
0.117937
-0.112759
0.114874
-0.123821
0.129051
-0.118621
0.0970409
-0.101443
0.135617
-0.155346
0.128009
-0.0895707
0.0825419
-0.107735
0.128289
-0.130833
0.124393
-0.129546
0.143918
-0.158706
0.156981
-0.139112
0.105966
-0.0710019
0.0374571
-0.0147673
-0.00161576
0.00703221
-0.0104997
0.00713275
-0.00531703
0.394732
0.394732
1
1.06908
1.01076
0.894428
0.80846
0.717266
0.682369
0.618562
0.538686
0.662264
0.295252
0.778477
0.165034
0.630502
0.384864
0.318048
0.423091
0.506458
0.0526111
0.631961
0.224986
0.324029
0.256692
0.527197
0.133056
0.4355
0.200007
0.521154
0.25325
0.457409
0.160715
0.590069
0.398174
0.62698
0.279713
0.621033
0.416097
0.775734
0.566846
0.977358
0.770545
1.07376
0.746156
1.00061
0.662404
0.856336
0.417238
0.535355
0.099423
0.279881
-0.0734727
0.176658
-0.128738
0.149488
-0.14103
0.144271
-0.14321
0.143295
-0.143465
0.14372
-0.143049
0.142876
-0.144581
0.143872
-0.141074
0.142826
-0.147811
0.143969
-0.1382
0.139242
-0.14795
0.15479
-0.146915
0.123942
-0.122567
0.155119
-0.181952
0.161396
-0.120154
0.104599
-0.126213
0.150565
-0.157753
0.150715
-0.151415
0.16283
-0.180176
0.185841
-0.17703
0.150661
-0.118518
0.0832975
-0.0557591
0.0324284
-0.0195242
0.00853555
-0.00518304
-0.00239669
-0.388937
-0.388937
1
1.0836
1.02898
0.955741
0.844532
0.791325
0.707839
0.712867
0.532207
0.779995
0.280637
0.86481
0.209429
0.648706
0.455476
0.372187
0.410362
0.619809
0.058007
0.662958
0.287628
0.380838
0.253459
0.597677
0.172903
0.485526
0.216233
0.574014
0.290507
0.523734
0.178031
0.623685
0.423566
0.692283
0.309016
0.658197
0.421168
0.799664
0.558662
0.98688
0.758918
1.09003
0.738072
1.01305
0.6503
0.873056
0.413651
0.558684
0.0958106
0.299238
-0.082426
0.191724
-0.140602
0.162907
-0.153756
0.15728
-0.156125
0.15624
-0.156365
0.156682
-0.156033
0.155711
-0.157453
0.157045
-0.154072
0.155265
-0.160695
0.157646
-0.151441
0.151395
-0.159607
0.16777
-0.162758
0.139296
-0.132125
0.16156
-0.194566
0.182113
-0.13996
0.115821
-0.132087
0.15921
-0.171911
0.165831
-0.162358
0.169254
-0.186749
0.198147
-0.198352
0.180436
-0.153842
0.119993
-0.0903689
0.0623065
-0.0434835
0.0260726
-0.0166707
0.00713497
0.390908
0.390908
1
1.09232
1.0422
1.0044
0.877472
0.856493
0.729284
0.801837
0.524641
0.884941
0.279439
0.92428
0.274294
0.647396
0.52799
0.425104
0.396882
0.715352
0.0839859
0.670579
0.355435
0.430402
0.25733
0.645902
0.223669
0.52119
0.239531
0.60592
0.333626
0.572645
0.204399
0.635477
0.450541
0.734554
0.34455
0.674459
0.431176
0.801816
0.556722
0.975778
0.754334
1.08768
0.740702
1.01035
0.65058
0.875037
0.422683
0.567973
0.105584
0.305113
-0.0777772
0.193354
-0.138907
0.162842
-0.152959
0.156784
-0.155526
0.155678
-0.155754
0.156128
-0.155516
0.155044
-0.15679
0.156698
-0.153615
0.154203
-0.15997
0.157786
-0.151296
0.15018
-0.157684
0.166831
-0.164854
0.141833
-0.129119
0.154048
-0.191969
0.188604
-0.147615
0.115303
-0.124549
0.152992
-0.171697
0.168327
-0.161621
0.162986
-0.178213
0.193041
-0.201245
0.192541
-0.173616
0.144008
-0.115254
0.0851194
-0.0625316
0.0404094
-0.0262815
0.00898135
-0.392685
-0.392685
1
1.09602
1.05281
1.04078
0.908017
0.912561
0.74753
0.883277
0.519377
0.972207
0.295801
0.954024
0.358882
0.628885
0.599488
0.476146
0.385602
0.788586
0.131387
0.656197
0.425925
0.471561
0.27014
0.670614
0.283987
0.542478
0.270435
0.616689
0.382085
0.603894
0.240271
0.626796
0.479924
0.754766
0.387437
0.672175
0.448171
0.784829
0.562981
0.946724
0.75852
1.06868
0.754878
0.993674
0.663525
0.862887
0.444238
0.5635
0.128526
0.297716
-0.0597379
0.181752
-0.123857
0.149501
-0.138844
0.14299
-0.14162
0.141816
-0.141836
0.142265
-0.1417
0.141085
-0.142801
0.143033
-0.139908
0.139856
-0.145846
0.144578
-0.137953
0.135816
-0.142446
0.1522
-0.153287
0.131626
-0.113894
0.133095
-0.174377
0.180677
-0.143032
0.103472
-0.104248
0.132168
-0.156866
0.157965
-0.14956
0.145087
-0.155912
0.171485
-0.185813
0.186087
-0.176119
0.153145
-0.128089
0.0987084
-0.074864
0.050178
-0.0330447
0.0163069
0.387581
0.387581
1
1.09532
1.06238
1.06585
0.936341
0.959864
0.763263
0.955219
0.51958
1.03785
0.332383
0.953461
0.460441
0.597114
0.6666
0.524982
0.379032
0.836774
0.199177
0.623056
0.496034
0.504084
0.292704
0.67257
0.351398
0.550752
0.308599
0.607923
0.434389
0.61883
0.285089
0.600668
0.511522
0.755362
0.437362
0.654781
0.472502
0.752246
0.577487
0.903109
0.771172
1.0357
0.77952
0.9651
0.687781
0.838445
0.476772
0.546887
0.163026
0.278627
-0.0298997
0.158503
-0.0970355
0.124466
-0.112994
0.11748
-0.115988
0.116236
-0.116196
0.116675
-0.116168
0.115416
-0.117069
0.117625
-0.114528
0.113819
-0.119913
0.119589
-0.112975
0.109894
-0.115531
0.125496
-0.129536
0.1101
-0.088123
0.10061
-0.143465
0.159547
-0.127418
0.0820501
-0.0732548
0.0985172
-0.128604
0.135731
-0.127621
0.117795
-0.122631
0.136189
-0.154118
0.162152
-0.161451
0.146763
-0.127798
0.101867
-0.0793613
0.0544758
-0.0363914
0.0151236
-0.395292
-0.395292
1
1.09092
1.07168
1.08117
0.962124
0.999164
0.777069
1.01599
0.527954
1.07921
0.39007
0.924406
0.574325
0.557344
0.725771
0.571537
0.379083
0.859079
0.284479
0.576001
0.562302
0.528567
0.32475
0.654402
0.422478
0.548523
0.352769
0.582787
0.488148
0.620127
0.337223
0.561398
0.544092
0.739942
0.492605
0.626535
0.502968
0.708357
0.598631
0.848984
0.790313
0.992207
0.812031
0.927687
0.720651
0.804675
0.517506
0.520954
0.206261
0.250634
0.00893324
0.1264
-0.0612371
0.0905309
-0.0782014
0.0830481
-0.0814236
0.0817306
-0.0816265
0.0821486
-0.0817118
0.0808322
-0.0823908
0.0832622
-0.0802644
0.0788941
-0.0849708
0.0855983
-0.0791354
0.0752063
-0.079781
0.0895673
-0.0963108
0.079871
-0.0546369
0.059713
-0.102201
0.127688
-0.103117
0.0538578
-0.034866
0.0551782
-0.0894283
0.103734
-0.098181
0.0842775
-0.082294
0.0913219
-0.109948
0.123663
-0.131519
0.125842
-0.114667
0.0944643
-0.0757069
0.0529611
-0.0359842
0.0188293
0.385917
0.385917
1
1.0836
1.0808
1.08876
0.984669
1.03151
0.789469
1.06431
0.546521
1.09515
0.467814
0.870974
0.69431
0.515689
0.773573
0.615898
0.386934
0.856564
0.38277
0.521037
0.621123
0.546289
0.364958
0.620304
0.49308
0.539123
0.400875
0.545667
0.54026
0.61141
0.394074
0.51414
0.575498
0.712903
0.550278
0.592212
0.537125
0.657961
0.623551
0.788895
0.812757
0.942284
0.848741
0.885258
0.758462
0.765411
0.562734
0.489428
0.254486
0.217442
0.0530375
0.0891531
-0.0201749
0.0514092
-0.0381779
0.0434062
-0.0416384
0.0420124
-0.041841
0.0423996
-0.0420414
0.0410476
-0.042482
0.0436532
-0.0408242
0.0388034
-0.0447423
0.0463083
-0.0401255
0.0354582
-0.0389526
0.048194
-0.057271
0.0444568
-0.017124
0.0144317
-0.0545609
0.088568
-0.0733313
0.022503
0.00673142
0.00635443
-0.0429446
0.0649882
-0.0642863
0.0482813
-0.0395347
0.0420618
-0.0584197
0.0750886
-0.0898463
0.0928913
-0.0903263
0.0774748
-0.0644311
0.0458951
-0.0319886
0.013858
-0.395886
-0.395886
1
1.0743
1.08921
1.09093
1.00306
1.05807
0.800949
1.09932
0.576429
1.08621
0.562654
0.799271
0.813082
0.478553
0.807041
0.658214
0.402969
0.83205
0.488238
0.464787
0.669056
0.559001
0.411109
0.575604
0.55869
0.526324
0.450236
0.501734
0.5872
0.596823
0.452337
0.464436
0.603005
0.679051
0.606703
0.556755
0.57172
0.606058
0.648611
0.727606
0.834623
0.890374
0.88538
0.842069
0.79699
0.724979
0.60823
0.456564
0.303432
0.183286
0.0981576
0.0510063
0.0219053
0.0113458
0.00283208
0.00279971
-0.000876777
0.00132582
-0.00108443
0.00167202
-0.00140013
0.000307464
-0.00159062
0.00303841
-0.000445349
-0.00220042
-0.00348263
0.00595529
-0.000170602
-0.0051185
0.00267598
0.00569966
-0.0166362
0.00790406
0.0202549
-0.0307008
-0.00512282
0.0462754
-0.0417637
-0.00801644
0.0468891
-0.0430965
0.00650073
0.0231096
-0.0293298
0.0137215
0.000808947
-0.00595914
-0.00543174
0.0219823
-0.0412117
0.0516995
-0.0575982
0.0528849
-0.0468674
0.0341244
-0.024831
0.0139739
0.386411
0.386411
1
1.06411
1.09604
1.09008
1.01637
1.08001
0.811978
1.12069
0.617843
1.05458
0.669895
0.716904
0.922844
0.452032
0.824001
0.698568
0.426808
0.789827
0.59425
0.413901
0.703154
0.568673
0.460325
0.52624
0.614832
0.513928
0.497853
0.456454
0.625383
0.580583
0.508349
0.417748
0.623678
0.643178
0.657877
0.52489
0.603176
0.557477
0.669938
0.669749
0.851865
0.840889
0.917584
0.802395
0.831921
0.687759
0.649693
0.426694
0.348748
0.152482
0.139954
0.0162871
0.0606724
-0.025329
0.0404988
-0.0344411
0.0365315
-0.0359993
0.0363127
-0.035704
0.0358835
-0.0370577
0.0359497
-0.0342553
0.0365493
-0.0397805
0.0344665
-0.0311364
0.0364179
-0.0422114
0.0407509
-0.0335004
0.0212578
-0.0256507
0.05331
-0.0711112
0.0413887
0.00509307
-0.0122001
-0.03376
0.0809866
-0.0881495
0.0542508
-0.0180497
0.00331067
-0.0157476
0.03422
-0.047262
0.0429612
-0.0296046
0.00884615
0.00694755
-0.0202082
0.023496
-0.025022
0.0189969
-0.0153895
0.00598861
-0.394399
-0.394399
1
1.05412
1.10017
1.0885
1.02381
1.09828
0.823033
1.12861
0.669901
1.00405
0.783465
0.632334
1.016
0.441324
0.82335
0.736868
0.457403
0.735253
0.693913
0.374454
0.721282
0.577227
0.509378
0.478206
0.657518
0.505353
0.540737
0.415086
0.651571
0.56654
0.558505
0.378997
0.634805
0.609652
0.699963
0.500737
0.628087
0.516497
0.683931
0.619435
0.86078
0.797796
0.941377
0.770084
0.859326
0.657727
0.683209
0.403765
0.386467
0.128971
0.174463
-0.0110533
0.0921707
-0.0546602
0.0708679
-0.064361
0.066632
-0.0660086
0.0663952
-0.0657735
0.0658563
-0.0670929
0.0661804
-0.0642754
0.0662127
-0.0699769
0.0651379
-0.0610154
0.0657022
-0.0718871
0.0713047
-0.0653647
0.0524202
-0.0524311
0.078278
-0.102662
0.080585
-0.0309527
0.0119159
-0.0512945
0.10493
-0.124126
0.0958048
-0.0547926
0.030631
-0.0371359
0.0570012
-0.077121
0.081203
-0.0737668
0.0546189
-0.0362842
0.0176039
-0.00736683
-0.00136598
0.00222422
-0.00467352
0.00401518
0.388693
0.388693
1
1.0454
1.10054
1.08815
1.02498
1.11357
0.834595
1.12382
0.730772
0.939636
0.8964
0.554154
1.08588
0.450213
0.805251
0.77275
0.493199
0.674262
0.78066
0.351406
0.72238
0.586276
0.555033
0.437006
0.683662
0.503268
0.576252
0.38221
0.663267
0.557793
0.599665
0.35216
0.634306
0.582043
0.729755
0.48745
0.643676
0.486481
0.687723
0.579885
0.858456
0.764221
0.953609
0.748153
0.876083
0.638032
0.705683
0.390919
0.41343
0.115887
0.198523
-0.0278652
0.113245
-0.0734935
0.0907852
-0.0838053
0.0862705
-0.0855476
0.0860083
-0.0853816
0.0853655
-0.086644
0.085943
-0.0838687
0.0853987
-0.0896315
0.0853644
-0.0805282
0.0845423
-0.0910142
0.0911811
-0.0866554
0.0736321
-0.0694358
0.0922379
-0.122089
0.10886
-0.0585119
0.0278722
-0.0580962
0.115606
-0.147182
0.127271
-0.0839488
0.0503187
-0.0484493
0.0666894
-0.0920904
0.104842
-0.105384
0.0908413
-0.0730556
0.0515346
-0.0362055
0.0214244
-0.0142987
0.00605157
-0.00495957
-0.391604
-0.391604
1
1.03886
1.09631
1.09045
1.01992
1.12619
0.84714
1.10757
0.797791
0.867257
1.00143
0.490339
1.12733
0.480665
0.771228
0.805524
0.532331
0.612843
0.84883
0.348158
0.706652
0.596907
0.594386
0.407179
0.691427
0.509307
0.602417
0.361336
0.659047
0.556383
0.629501
0.339941
0.621069
0.56282
0.745056
0.486937
0.648149
0.46959
0.679542
0.553133
0.84312
0.742131
0.952297
0.738453
0.880218
0.630663
0.715167
0.390149
0.427627
0.115222
0.210119
-0.0321424
0.121883
-0.0798176
0.0982396
-0.0907619
0.0934355
-0.092605
0.0931399
-0.0925162
0.0924006
-0.0936998
0.0932218
-0.0910237
0.0921037
-0.0967304
0.0931213
-0.0876622
0.0909386
-0.0976046
0.098378
-0.0952852
0.0827919
-0.0747722
0.0934426
-0.127356
0.123756
-0.0752555
0.0339982
-0.0528599
0.11124
-0.154715
0.145757
-0.10319
0.0609936
-0.0489142
0.0623408
-0.0903969
0.111026
-0.120685
0.113262
-0.0990978
0.0776781
-0.059721
0.0407525
-0.0286933
0.0156279
-0.00664206
0.391667
0.391667
1
1.03516
1.08701
1.09617
1.00927
1.13608
0.861122
1.08156
0.867663
0.793252
1.09159
0.447551
1.1373
0.532585
0.724134
0.834179
0.572826
0.556542
0.894168
0.366236
0.675636
0.60954
0.625156
0.391919
0.680462
0.523886
0.618134
0.35462
0.638795
0.563104
0.646764
0.343559
0.595177
0.553156
0.744948
0.499681
0.640941
0.466594
0.658932
0.539834
0.814353
0.732127
0.936838
0.741462
0.871119
0.63623
0.711085
0.40208
0.428419
0.127599
0.208597
-0.0232444
0.117438
-0.0729858
0.0925841
-0.0845835
0.0874799
-0.0865339
0.0871424
-0.0865294
0.0863159
-0.0876141
0.0873659
-0.0850924
0.0856892
-0.0906261
0.0877488
-0.0817675
0.0842533
-0.0910337
0.0922674
-0.0905433
0.0791419
-0.0678715
0.0815278
-0.117877
0.124212
-0.0801089
0.0298569
-0.0356777
0.0916197
-0.145649
0.149662
-0.11125
0.0623448
-0.0390668
0.0446542
-0.0721561
0.0988288
-0.117666
0.119111
-0.111277
0.0929485
-0.0751674
0.05438
-0.0392987