# vtk DataFile Version 2.0
FlowField
ASCII
DATASET STRUCTURED_GRID
DIMENSIONS 100 1 100
POINTS 10000 float
0 0 0
0.01 0 0
0.02 0 0
0.03 0 0
0.04 0 0
0.05 0 0
0.06 0 0
0.07 0 0
0.08 0 0
0.09 0 0
0.1 0 0
0.11 0 0
0.12 0 0
0.13 0 0
0.14 0 0
0.15 0 0
0.16 0 0
0.17 0 0
0.18 0 0
0.19 0 0
0.2 0 0
0.21 0 0
0.22 0 0
0.23 0 0
0.24 0 0
0.25 0 0
0.26 0 0
0.27 0 0
0.28 0 0
0.29 0 0
0.3 0 0
0.31 0 0
0.32 0 0
0.33 0 0
0.34 0 0
0.35 0 0
0.36 0 0
0.37 0 0
0.38 0 0
0.39 0 0
0.4 0 0
0.41 0 0
0.42 0 0
0.43 0 0
0.44 0 0
0.45 0 0
0.46 0 0
0.47 0 0
0.48 0 0
0.49 0 0
0.5 0 0
0.51 0 0
0.52 0 0
0.53 0 0
0.54 0 0
0.55 0 0
0.56 0 0
0.57 0 0
0.58 0 0
0.59 0 0
0.6 0 0
0.61 0 0
0.62 0 0
0.63 0 0
0.64 0 0
0.65 0 0
0.66 0 0
0.67 0 0
0.68 0 0
0.69 0 0
0.7 0 0
0.71 0 0
0.72 0 0
0.73 0 0
0.74 0 0
0.75 0 0
0.76 0 0
0.77 0 0
0.78 0 0
0.79 0 0
0.8 0 0
0.81 0 0
0.82 0 0
0.83 0 0
0.84 0 0
0.85 0 0
0.86 0 0
0.87 0 0
0.88 0 0
0.89 0 0
0.9 0 0
0.91 0 0
0.92 0 0
0.93 0 0
0.94 0 0
0.95 0 0
0.96 0 0
0.97 0 0
0.98 0 0
0.99 0 0
0 0.001 0
0.01 0.001 0
0.02 0.001 0
0.03 0.001 0
0.04 0.001 0
0.05 0.001 0
0.06 0.001 0
0.07 0.001 0
0.08 0.001 0
0.09 0.001 0
0.1 0.001 0
0.11 0.001 0
0.12 0.001 0
0.13 0.001 0
0.14 0.001 0
0.15 0.001 0
0.16 0.001 0
0.17 0.001 0
0.18 0.001 0
0.19 0.001 0
0.2 0.001 0
0.21 0.001 0
0.22 0.001 0
0.23 0.001 0
0.24 0.001 0
0.25 0.001 0
0.26 0.001 0
0.27 0.001 0
0.28 0.001 0
0.29 0.001 0
0.3 0.001 0
0.31 0.001 0
0.32 0.001 0
0.33 0.001 0
0.34 0.001 0
0.35 0.001 0
0.36 0.001 0
0.37 0.001 0
0.38 0.001 0
0.39 0.001 0
0.4 0.001 0
0.41 0.001 0
0.42 0.001 0
0.43 0.001 0
0.44 0.001 0
0.45 0.001 0
0.46 0.001 0
0.47 0.001 0
0.48 0.001 0
0.49 0.001 0
0.5 0.001 0
0.51 0.001 0
0.52 0.001 0
0.53 0.001 0
0.54 0.001 0
0.55 0.001 0
0.56 0.001 0
0.57 0.001 0
0.58 0.001 0
0.59 0.001 0
0.6 0.001 0
0.61 0.001 0
0.62 0.001 0
0.63 0.001 0
0.64 0.001 0
0.65 0.001 0
0.66 0.001 0
0.67 0.001 0
0.68 0.001 0
0.69 0.001 0
0.7 0.001 0
0.71 0.001 0
0.72 0.001 0
0.73 0.001 0
0.74 0.001 0
0.75 0.001 0
0.76 0.001 0
0.77 0.001 0
0.78 0.001 0
0.79 0.001 0
0.8 0.001 0
0.81 0.001 0
0.82 0.001 0
0.83 0.001 0
0.84 0.001 0
0.85 0.001 0
0.86 0.001 0
0.87 0.001 0
0.88 0.001 0
0.89 0.001 0
0.9 0.001 0
0.91 0.001 0
0.92 0.001 0
0.93 0.001 0
0.94 0.001 0
0.95 0.001 0
0.96 0.001 0
0.97 0.001 0
0.98 0.001 0
0.99 0.001 0
0 0.002 0
0.01 0.002 0
0.02 0.002 0
0.03 0.002 0
0.04 0.002 0
0.05 0.002 0
0.06 0.002 0
0.07 0.002 0
0.08 0.002 0
0.09 0.002 0
0.1 0.002 0
0.11 0.002 0
0.12 0.002 0
0.13 0.002 0
0.14 0.002 0
0.15 0.002 0
0.16 0.002 0
0.17 0.002 0
0.18 0.002 0
0.19 0.002 0
0.2 0.002 0
0.21 0.002 0
0.22 0.002 0
0.23 0.002 0
0.24 0.002 0
0.25 0.002 0
0.26 0.002 0
0.27 0.002 0
0.28 0.002 0
0.29 0.002 0
0.3 0.002 0
0.31 0.002 0
0.32 0.002 0
0.33 0.002 0
0.34 0.002 0
0.35 0.002 0
0.36 0.002 0
0.37 0.002 0
0.38 0.002 0
0.39 0.002 0
0.4 0.002 0
0.41 0.002 0
0.42 0.002 0
0.43 0.002 0
0.44 0.002 0
0.45 0.002 0
0.46 0.002 0
0.47 0.002 0
0.48 0.002 0
0.49 0.002 0
0.5 0.002 0
0.51 0.002 0
0.52 0.002 0
0.53 0.002 0
0.54 0.002 0
0.55 0.002 0
0.56 0.002 0
0.57 0.002 0
0.58 0.002 0
0.59 0.002 0
0.6 0.002 0
0.61 0.002 0
0.62 0.002 0
0.63 0.002 0
0.64 0.002 0
0.65 0.002 0
0.66 0.002 0
0.67 0.002 0
0.68 0.002 0
0.69 0.002 0
0.7 0.002 0
0.71 0.002 0
0.72 0.002 0
0.73 0.002 0
0.74 0.002 0
0.75 0.002 0
0.76 0.002 0
0.77 0.002 0
0.78 0.002 0
0.79 0.002 0
0.8 0.002 0
0.81 0.002 0
0.82 0.002 0
0.83 0.002 0
0.84 0.002 0
0.85 0.002 0
0.86 0.002 0
0.87 0.002 0
0.88 0.002 0
0.89 0.002 0
0.9 0.002 0
0.91 0.002 0
0.92 0.002 0
0.93 0.002 0
0.94 0.002 0
0.95 0.002 0
0.96 0.002 0
0.97 0.002 0
0.98 0.002 0
0.99 0.002 0
0 0.003 0
0.01 0.003 0
0.02 0.003 0
0.03 0.003 0
0.04 0.003 0
0.05 0.003 0
0.06 0.003 0
0.07 0.003 0
0.08 0.003 0
0.09 0.003 0
0.1 0.003 0
0.11 0.003 0
0.12 0.003 0
0.13 0.003 0
0.14 0.003 0
0.15 0.003 0
0.16 0.003 0
0.17 0.003 0
0.18 0.003 0
0.19 0.003 0
0.2 0.003 0
0.21 0.003 0
0.22 0.003 0
0.23 0.003 0
0.24 0.003 0
0.25 0.003 0
0.26 0.003 0
0.27 0.003 0
0.28 0.003 0
0.29 0.003 0
0.3 0.003 0
0.31 0.003 0
0.32 0.003 0
0.33 0.003 0
0.34 0.003 0
0.35 0.003 0
0.36 0.003 0
0.37 0.003 0
0.38 0.003 0
0.39 0.003 0
0.4 0.003 0
0.41 0.003 0
0.42 0.003 0
0.43 0.003 0
0.44 0.003 0
0.45 0.003 0
0.46 0.003 0
0.47 0.003 0
0.48 0.003 0
0.49 0.003 0
0.5 0.003 0
0.51 0.003 0
0.52 0.003 0
0.53 0.003 0
0.54 0.003 0
0.55 0.003 0
0.56 0.003 0
0.57 0.003 0
0.58 0.003 0
0.59 0.003 0
0.6 0.003 0
0.61 0.003 0
0.62 0.003 0
0.63 0.003 0
0.64 0.003 0
0.65 0.003 0
0.66 0.003 0
0.67 0.003 0
0.68 0.003 0
0.69 0.003 0
0.7 0.003 0
0.71 0.003 0
0.72 0.003 0
0.73 0.003 0
0.74 0.003 0
0.75 0.003 0
0.76 0.003 0
0.77 0.003 0
0.78 0.003 0
0.79 0.003 0
0.8 0.003 0
0.81 0.003 0
0.82 0.003 0
0.83 0.003 0
0.84 0.003 0
0.85 0.003 0
0.86 0.003 0
0.87 0.003 0
0.88 0.003 0
0.89 0.003 0
0.9 0.003 0
0.91 0.003 0
0.92 0.003 0
0.93 0.003 0
0.94 0.003 0
0.95 0.003 0
0.96 0.003 0
0.97 0.003 0
0.98 0.003 0
0.99 0.003 0
0 0.004 0
0.01 0.004 0
0.02 0.004 0
0.03 0.004 0
0.04 0.004 0
0.05 0.004 0
0.06 0.004 0
0.07 0.004 0
0.08 0.004 0
0.09 0.004 0
0.1 0.004 0
0.11 0.004 0
0.12 0.004 0
0.13 0.004 0
0.14 0.004 0
0.15 0.004 0
0.16 0.004 0
0.17 0.004 0
0.18 0.004 0
0.19 0.004 0
0.2 0.004 0
0.21 0.004 0
0.22 0.004 0
0.23 0.004 0
0.24 0.004 0
0.25 0.004 0
0.26 0.004 0
0.27 0.004 0
0.28 0.004 0
0.29 0.004 0
0.3 0.004 0
0.31 0.004 0
0.32 0.004 0
0.33 0.004 0
0.34 0.004 0
0.35 0.004 0
0.36 0.004 0
0.37 0.004 0
0.38 0.004 0
0.39 0.004 0
0.4 0.004 0
0.41 0.004 0
0.42 0.004 0
0.43 0.004 0
0.44 0.004 0
0.45 0.004 0
0.46 0.004 0
0.47 0.004 0
0.48 0.004 0
0.49 0.004 0
0.5 0.004 0
0.51 0.004 0
0.52 0.004 0
0.53 0.004 0
0.54 0.004 0
0.55 0.004 0
0.56 0.004 0
0.57 0.004 0
0.58 0.004 0
0.59 0.004 0
0.6 0.004 0
0.61 0.004 0
0.62 0.004 0
0.63 0.004 0
0.64 0.004 0
0.65 0.004 0
0.66 0.004 0
0.67 0.004 0
0.68 0.004 0
0.69 0.004 0
0.7 0.004 0
0.71 0.004 0
0.72 0.004 0
0.73 0.004 0
0.74 0.004 0
0.75 0.004 0
0.76 0.004 0
0.77 0.004 0
0.78 0.004 0
0.79 0.004 0
0.8 0.004 0
0.81 0.004 0
0.82 0.004 0
0.83 0.004 0
0.84 0.004 0
0.85 0.004 0
0.86 0.004 0
0.87 0.004 0
0.88 0.004 0
0.89 0.004 0
0.9 0.004 0
0.91 0.004 0
0.92 0.004 0
0.93 0.004 0
0.94 0.004 0
0.95 0.004 0
0.96 0.004 0
0.97 0.004 0
0.98 0.004 0
0.99 0.004 0
0 0.005 0
0.01 0.005 0
0.02 0.005 0
0.03 0.005 0
0.04 0.005 0
0.05 0.005 0
0.06 0.005 0
0.07 0.005 0
0.08 0.005 0
0.09 0.005 0
0.1 0.005 0
0.11 0.005 0
0.12 0.005 0
0.13 0.005 0
0.14 0.005 0
0.15 0.005 0
0.16 0.005 0
0.17 0.005 0
0.18 0.005 0
0.19 0.005 0
0.2 0.005 0
0.21 0.005 0
0.22 0.005 0
0.23 0.005 0
0.24 0.005 0
0.25 0.005 0
0.26 0.005 0
0.27 0.005 0
0.28 0.005 0
0.29 0.005 0
0.3 0.005 0
0.31 0.005 0
0.32 0.005 0
0.33 0.005 0
0.34 0.005 0
0.35 0.005 0
0.36 0.005 0
0.37 0.005 0
0.38 0.005 0
0.39 0.005 0
0.4 0.005 0
0.41 0.005 0
0.42 0.005 0
0.43 0.005 0
0.44 0.005 0
0.45 0.005 0
0.46 0.005 0
0.47 0.005 0
0.48 0.005 0
0.49 0.005 0
0.5 0.005 0
0.51 0.005 0
0.52 0.005 0
0.53 0.005 0
0.54 0.005 0
0.55 0.005 0
0.56 0.005 0
0.57 0.005 0
0.58 0.005 0
0.59 0.005 0
0.6 0.005 0
0.61 0.005 0
0.62 0.005 0
0.63 0.005 0
0.64 0.005 0
0.65 0.005 0
0.66 0.005 0
0.67 0.005 0
0.68 0.005 0
0.69 0.005 0
0.7 0.005 0
0.71 0.005 0
0.72 0.005 0
0.73 0.005 0
0.74 0.005 0
0.75 0.005 0
0.76 0.005 0
0.77 0.005 0
0.78 0.005 0
0.79 0.005 0
0.8 0.005 0
0.81 0.005 0
0.82 0.005 0
0.83 0.005 0
0.84 0.005 0
0.85 0.005 0
0.86 0.005 0
0.87 0.005 0
0.88 0.005 0
0.89 0.005 0
0.9 0.005 0
0.91 0.005 0
0.92 0.005 0
0.93 0.005 0
0.94 0.005 0
0.95 0.005 0
0.96 0.005 0
0.97 0.005 0
0.98 0.005 0
0.99 0.005 0
0 0.006 0
0.01 0.006 0
0.02 0.006 0
0.03 0.006 0
0.04 0.006 0
0.05 0.006 0
0.06 0.006 0
0.07 0.006 0
0.08 0.006 0
0.09 0.006 0
0.1 0.006 0
0.11 0.006 0
0.12 0.006 0
0.13 0.006 0
0.14 0.006 0
0.15 0.006 0
0.16 0.006 0
0.17 0.006 0
0.18 0.006 0
0.19 0.006 0
0.2 0.006 0
0.21 0.006 0
0.22 0.006 0
0.23 0.006 0
0.24 0.006 0
0.25 0.006 0
0.26 0.006 0
0.27 0.006 0
0.28 0.006 0
0.29 0.006 0
0.3 0.006 0
0.31 0.006 0
0.32 0.006 0
0.33 0.006 0
0.34 0.006 0
0.35 0.006 0
0.36 0.006 0
0.37 0.006 0
0.38 0.006 0
0.39 0.006 0
0.4 0.006 0
0.41 0.006 0
0.42 0.006 0
0.43 0.006 0
0.44 0.006 0
0.45 0.006 0
0.46 0.006 0
0.47 0.006 0
0.48 0.006 0
0.49 0.006 0
0.5 0.006 0
0.51 0.006 0
0.52 0.006 0
0.53 0.006 0
0.54 0.006 0
0.55 0.006 0
0.56 0.006 0
0.57 0.006 0
0.58 0.006 0
0.59 0.006 0
0.6 0.006 0
0.61 0.006 0
0.62 0.006 0
0.63 0.006 0
0.64 0.006 0
0.65 0.006 0
0.66 0.006 0
0.67 0.006 0
0.68 0.006 0
0.69 0.006 0
0.7 0.006 0
0.71 0.006 0
0.72 0.006 0
0.73 0.006 0
0.74 0.006 0
0.75 0.006 0
0.76 0.006 0
0.77 0.006 0
0.78 0.006 0
0.79 0.006 0
0.8 0.006 0
0.81 0.006 0
0.82 0.006 0
0.83 0.006 0
0.84 0.006 0
0.85 0.006 0
0.86 0.006 0
0.87 0.006 0
0.88 0.006 0
0.89 0.006 0
0.9 0.006 0
0.91 0.006 0
0.92 0.006 0
0.93 0.006 0
0.94 0.006 0
0.95 0.006 0
0.96 0.006 0
0.97 0.006 0
0.98 0.006 0
0.99 0.006 0
0 0.007 0
0.01 0.007 0
0.02 0.007 0
0.03 0.007 0
0.04 0.007 0
0.05 0.007 0
0.06 0.007 0
0.07 0.007 0
0.08 0.007 0
0.09 0.007 0
0.1 0.007 0
0.11 0.007 0
0.12 0.007 0
0.13 0.007 0
0.14 0.007 0
0.15 0.007 0
0.16 0.007 0
0.17 0.007 0
0.18 0.007 0
0.19 0.007 0
0.2 0.007 0
0.21 0.007 0
0.22 0.007 0
0.23 0.007 0
0.24 0.007 0
0.25 0.007 0
0.26 0.007 0
0.27 0.007 0
0.28 0.007 0
0.29 0.007 0
0.3 0.007 0
0.31 0.007 0
0.32 0.007 0
0.33 0.007 0
0.34 0.007 0
0.35 0.007 0
0.36 0.007 0
0.37 0.007 0
0.38 0.007 0
0.39 0.007 0
0.4 0.007 0
0.41 0.007 0
0.42 0.007 0
0.43 0.007 0
0.44 0.007 0
0.45 0.007 0
0.46 0.007 0
0.47 0.007 0
0.48 0.007 0
0.49 0.007 0
0.5 0.007 0
0.51 0.007 0
0.52 0.007 0
0.53 0.007 0
0.54 0.007 0
0.55 0.007 0
0.56 0.007 0
0.57 0.007 0
0.58 0.007 0
0.59 0.007 0
0.6 0.007 0
0.61 0.007 0
0.62 0.007 0
0.63 0.007 0
0.64 0.007 0
0.65 0.007 0
0.66 0.007 0
0.67 0.007 0
0.68 0.007 0
0.69 0.007 0
0.7 0.007 0
0.71 0.007 0
0.72 0.007 0
0.73 0.007 0
0.74 0.007 0
0.75 0.007 0
0.76 0.007 0
0.77 0.007 0
0.78 0.007 0
0.79 0.007 0
0.8 0.007 0
0.81 0.007 0
0.82 0.007 0
0.83 0.007 0
0.84 0.007 0
0.85 0.007 0
0.86 0.007 0
0.87 0.007 0
0.88 0.007 0
0.89 0.007 0
0.9 0.007 0
0.91 0.007 0
0.92 0.007 0
0.93 0.007 0
0.94 0.007 0
0.95 0.007 0
0.96 0.007 0
0.97 0.007 0
0.98 0.007 0
[...]
POINT_DATA 10000

SCALARS vel_X float 1
LOOKUP_TABLE default
0
0
0
0
0
0
0
0
0
0
0
0
0
0
0
0
0
0
0
0
0
0
0
0
0
0
0
0
0
0
0
0
0
0
0
0
0
0
0
0
0
0
0
0
0
0
0
0
0
0
0
0
0
0
0
0
0
0
0
0
0
0
0
0
0
0
0
0
0
0
0
0
0
0
0
0
0
0
0
0
0
0
0
0
0
0
0
0
0
0
0
0
0
0
0
0
0
0
0
0
1
0.330708
0.231139
0.182787
0.204611
0.166758
0.196133
0.206397
0.184017
0.225623
0.260074
0.236868
0.289944
0.371756
0.373659
0.264776
0.149291
0.0625879
0.0266706
0.00531349
0.00465632
-0.00190988
0.00258641
-0.00243594
0.0024664
-0.00246075
0.00246172
-0.00246156
0.00246159
-0.00246158
0.00246158
-0.00246158
0.00246158
-0.00246158
0.00246158
-0.00246158
0.00246158
-0.00246158
0.00246158
-0.00246158
0.00246158
-0.00246158
0.00246158
-0.00246158
0.00246158
-0.00246158
0.00246158
-0.00246158
0.00246158
-0.00246158
0.00246158
-0.00246158
0.00246158
-0.00246158
0.00246158
-0.00246158
0.00246158
-0.00246158
0.00246158
-0.00246158
0.00246158
-0.00246158
0.00246158
-0.00246158
0.00246158
-0.00246158
0.00246158
-0.00246158
0.00246158
-0.00246158
0.00246158
-0.00246158
0.00246158
-0.00246158
0.00246158
-0.00246158
0.00246157
-0.00246165
0.00246117
-0.00246356
0.00245406
-0.00248309
0.00242041
-0.00249734
0.00249523
-0.00239409
0.00228701
-0.00282684
0.00279615
-0.00189818
0.00139443
-0.00246569
0.00377221
-0.00445843
0.00379073
-0.00305946
0.00145832
-0.00340221
-0.128408
-0.128408
1
0.580475
0.433795
0.362118
0.384913
0.334945
0.379099
0.39028
0.368906
0.432687
0.478908
0.456052
0.538773
0.636684
0.601755
0.412858
0.227474
0.0946256
0.0395737
0.00816181
0.00664502
-0.0025796
0.00357891
-0.00335695
0.00340185
-0.00339352
0.00339495
-0.00339472
0.00339476
-0.00339475
0.00339475
-0.00339475
0.00339475
-0.00339475
0.00339475
-0.00339475
0.00339475
-0.00339475
0.00339475
-0.00339475
0.00339475
-0.00339475
0.00339475
-0.00339475
0.00339475
-0.00339475
0.00339475
-0.00339475
0.00339475
-0.00339475
0.00339475
-0.00339475
0.00339475
-0.00339475
0.00339475
-0.00339475
0.00339475
-0.00339475
0.00339475
-0.00339475
0.00339475
-0.00339475
0.00339475
-0.00339475
0.00339475
-0.00339475
0.00339475
-0.00339475
0.00339475
-0.00339475
0.00339475
-0.00339475
0.00339475
-0.00339475
0.00339475
-0.00339475
0.00339474
-0.00339486
0.00339414
-0.00339767
0.00338358
-0.00342703
0.00333133
-0.00345591
0.00342977
-0.00329984
0.00316075
-0.00394155
0.00377353
-0.00256695
0.00201682
-0.00360723
0.0052074
-0.00597849
0.0048565
-0.00396409
0.00169534
-0.00222472
0.172141
0.172141
1
0.760946
0.609549
0.526666
0.544503
0.496119
0.539046
0.556215
0.539001
0.607148
0.659419
0.641911
0.722
0.803593
0.731514
0.496634
0.27109
0.114163
0.0465375
0.0108007
0.00706097
-0.00213227
0.00335047
-0.00307833
0.00313371
-0.00312337
0.00312515
-0.00312487
0.00312491
-0.00312491
0.00312491
-0.00312491
0.00312491
-0.00312491
0.00312491
-0.00312491
0.00312491
-0.00312491
0.00312491
-0.00312491
0.00312491
-0.00312491
0.00312491
-0.00312491
0.00312491
-0.00312491
0.00312491
-0.00312491
0.00312491
-0.00312491
0.00312491
-0.00312491
0.00312491
-0.00312491
0.00312491
-0.00312491
0.00312491
-0.00312491
0.00312491
-0.00312491
0.00312491
-0.00312491
0.00312491
-0.00312491
0.00312491
-0.00312491
0.00312491
-0.00312491
0.00312491
-0.00312491
0.00312491
-0.00312491
0.00312491
-0.00312491
0.00312491
-0.00312491
0.00312489
-0.00312504
0.00312416
-0.00312845
0.00311151
-0.00316322
0.00305003
-0.00319866
0.00315586
-0.0030335
0.00285349
-0.00372366
0.0035152
-0.00230226
0.00167276
-0.00330331
0.00485065
-0.00577087
0.00463301
-0.00397956
0.00155761
-0.00321227
-0.148908
-0.148908
1
0.887161
0.757539
0.670851
0.684621
0.641529
0.675056
0.701573
0.684357
0.746359
0.802146
0.784716
0.841703
0.898413
0.802444
0.546902
0.299008
0.128637
0.0513477
0.0134767
0.00691071
-0.00123111
0.00264824
-0.00232871
0.00239433
-0.00238197
0.00238412
-0.00238377
0.00238383
-0.00238382
0.00238382
-0.00238382
0.00238382
-0.00238382
0.00238382
-0.00238382
0.00238382
-0.00238382
0.00238382
-0.00238382
0.00238382
-0.00238382
0.00238382
-0.00238382
0.00238382
-0.00238382
0.00238382
-0.00238382
0.00238382
-0.00238382
0.00238382
-0.00238382
0.00238382
-0.00238382
0.00238382
-0.00238382
0.00238382
-0.00238382
0.00238382
-0.00238382
0.00238382
-0.00238382
0.00238382
-0.00238382
0.00238382
-0.00238382
0.00238382
-0.00238382
0.00238382
-0.00238382
0.00238382
-0.00238382
0.00238382
-0.00238382
0.00238382
-0.00238382
0.0023838
-0.00238397
0.00238294
-0.00238791
0.00236868
-0.00242618
0.00230312
-0.00246085
0.00241414
-0.00231076
0.00207128
-0.00296986
0.00282028
-0.00170072
0.000882374
-0.00232617
0.0037859
-0.00499314
0.00408853
-0.00379249
0.00144946
-0.00144354
0.162256
0.162256
1
0.9729
0.877381
0.793023
0.80428
0.766633
0.787916
0.822871
0.801723
0.852266
0.908102
0.885158
0.912188
0.946975
0.840686
0.580261
0.32008
0.14112
0.0555714
0.0161735
0.00666549
-0.000228465
0.00185265
-0.00148247
0.00155928
-0.00154468
0.00154724
-0.00154682
0.00154688
-0.00154688
0.00154688
-0.00154688
0.00154688
-0.00154688
0.00154688
-0.00154688
0.00154688
-0.00154688
0.00154688
-0.00154688
0.00154688
-0.00154688
0.00154688
-0.00154688
0.00154688
-0.00154688
0.00154688
-0.00154688
0.00154688
-0.00154688
0.00154688
-0.00154688
0.00154688
-0.00154688
0.00154688
-0.00154688
0.00154688
-0.00154688
0.00154688
-0.00154688
0.00154688
-0.00154688
0.00154688
-0.00154688
0.00154688
-0.00154688
0.00154688
-0.00154688
0.00154688
-0.00154688
0.00154688
-0.00154688
0.00154688
-0.00154688
0.00154688
-0.00154688
0.00154685
-0.00154706
0.00154586
-0.00155151
0.00153013
-0.00159244
0.00146323
-0.00162152
0.00158068
-0.0014974
0.00118959
-0.00209191
0.00205597
-0.00104853
-8.9088e-06
-0.00117836
0.0025707
-0.00410027
0.00350446
-0.00355082
0.0013751
-0.00247579
-0.153775
-0.153775
1
1.02917
0.970304
0.893356
0.902528
0.87029
0.878557
0.91889
0.892183
0.92872
0.980979
0.950802
0.949658
0.968652
0.861468
0.605078
0.338133
0.152893
0.0597495
0.01892
0.00645663
0.000785448
0.00106366
-0.000637436
0.000726831
-0.000709655
0.000712697
-0.000712198
0.000712274
-0.000712263
0.000712265
-0.000712265
0.000712265
-0.000712265
0.000712265
-0.000712265
0.000712265
-0.000712265
0.000712265
-0.000712265
0.000712265
-0.000712265
0.000712265
-0.000712265
0.000712265
-0.000712265
0.000712265
-0.000712265
0.000712265
-0.000712265
0.000712265
-0.000712265
0.000712265
-0.000712265
0.000712265
-0.000712265
0.000712265
-0.000712265
0.000712265
-0.000712265
0.000712265
-0.000712265
0.000712265
-0.000712265
0.000712265
-0.000712265
0.000712265
-0.000712265
0.000712265
-0.000712265
0.000712265
-0.000712265
0.000712265
-0.000712265
0.000712264
-0.000712269
0.000712232
-0.000712479
0.000711098
-0.000717464
0.000693926
-0.000760625
0.000627287
-0.000781325
0.000751923
-0.000687944
0.000311936
-0.00120222
0.0012988
-0.000407566
-0.000878063
-3.94384e-05
0.00135383
-0.00315672
0.0028683
-0.00321739
0.00129024
-0.000827259
0.159745
0.159745
1
1.06427
1.03894
0.972943
0.979629
0.953226
0.948439
0.990945
0.958996
0.980624
1.02686
0.991303
0.967363
0.975907
0.872992
0.625318
0.354717
0.164455
0.0640464
0.0217478
0.00630717
0.0018023
0.000293467
0.000195193
-9.15767e-05
0.000111694
-0.000108095
0.000108692
-0.0001086
0.000108613
-0.000108611
0.000108611
-0.000108611
0.000108611
-0.000108611
0.000108611
-0.000108611
0.000108611
-0.000108611
0.000108611
-0.000108611
0.000108611
-0.000108611
0.000108611
-0.000108611
0.000108611
-0.000108611
0.000108611
-0.000108611
0.000108611
-0.000108611
0.000108611
-0.000108611
0.000108611
-0.000108611
0.000108611
-0.000108611
0.000108611
-0.000108611
0.000108611
-0.000108611
0.000108611
-0.000108611
0.000108611
-0.000108611
0.000108611
-0.000108611
0.000108611
-0.000108611
0.000108611
-0.000108611
0.000108611
-0.000108611
0.000108611
-0.000108612
0.000108606
-0.000108651
0.000108361
-0.000109943
0.00010281
-0.000128549
5.77212e-05
-0.000193863
4.69021e-05
-6.25703e-05
0.000106969
-0.000546277
-0.000316433
0.000544867
0.000220385
-0.00169151
0.00104642
0.000150403
-0.00214433
0.002141
-0.00276193
0.00112718
-0.00193577
-0.155186
-0.155186
1
1.08433
1.08669
1.03354
1.03713
1.01714
0.999849
1.04202
1.00628
1.01338
1.05266
1.01529
0.97444
0.97598
0.879474
0.642748
0.370429
0.175951
0.0685199
0.0246549
0.00623612
0.00280891
-0.00044275
0.00100087
-0.000881216
0.000904692
-0.00090045
0.00090116
-0.000901049
0.000901065
-0.000901063
0.000901064
-0.000901063
0.000901064
-0.000901064
0.000901064
-0.000901064
0.000901064
-0.000901064
0.000901064
-0.000901064
0.000901064
-0.000901064
0.000901064
-0.000901064
0.000901064
-0.000901064
0.000901064
-0.000901064
0.000901064
-0.000901064
0.000901064
-0.000901064
0.000901064
-0.000901064
0.000901064
-0.000901064
0.000901064
-0.000901064
0.000901064
-0.000901064
0.000901064
-0.000901064
0.000901064
-0.000901064
0.000901064
-0.000901064
0.000901064
-0.000901064
0.000901064
-0.000901064
0.000901063
-0.000901064
0.000901063
-0.000901064
0.000901057
-0.00090111
0.000900774
-0.000902575
0.000894627
-0.000922608
0.000847883
-0.000985752
0.000847689
-0.000849392
0.000872552
-0.00136836
0.000549152
-0.000198687
0.000822802
-0.00242681
0.00205518
-0.00102352
-0.00107605
0.00132975
-0.00219731
0.00090288
-0.000316169
0.158848
0.158848
1
1.09389
1.1172
1.07741
1.07744
1.06428
1.03573
1.07583
1.03829
1.03223
1.06475
1.02916
0.976491
0.972785
0.883042
0.658114
0.385487
0.187379
0.0732029
0.027613
0.0062755
0.003776
-0.00111432
0.00174946
-0.00161178
0.00163908
-0.0016341
0.00163494
-0.00163481
0.00163483
-0.00163482
0.00163482
-0.00163482
0.00163482
-0.00163482
0.00163482
-0.00163482
0.00163482
-0.00163482
0.00163482
-0.00163482
0.00163482
-0.00163482
0.00163482
-0.00163482
0.00163482
-0.00163482
0.00163482
-0.00163482
0.00163482
-0.00163482
0.00163482
-0.00163482
0.00163482
-0.00163482
0.00163482
-0.00163482
0.00163482
-0.00163482
0.00163482
-0.00163482
0.00163482
-0.00163482
0.00163482
-0.00163482
0.00163482
-0.00163482
0.00163482
-0.00163482
0.00163482
-0.00163482
0.00163482
-0.00163482
0.00163482
-0.00163482
0.00163482
-0.00163488
0.00163449
-0.00163653
0.00162772
-0.00165797
0.00157961
-0.0017182
0.00159031
-0.00157904
0.00157848
-0.00212328
0.00136259
-0.000904442
0.00137183
-0.00305616
0.00295378
-0.00212865
1.95927e-06
0.000474242
-0.00156087
0.000608226
-0.0014351
-0.155837
-0.155837
1
1.09629
1.13402
1.10718
1.1034
1.0972
1.05928
1.09615
1.05892
1.04176
1.06813
1.0371
0.976631
0.968326
0.884792
0.671728
0.399961
0.198682
0.0781169
0.0305856
0.0064602
0.00467019
-0.00168673
0.00240694
-0.00224909
0.00228072
-0.00227489
0.00227588
-0.00227573
0.00227575
-0.00227575
0.00227575
-0.00227575
0.00227575
-0.00227575
0.00227575
-0.00227575
0.00227575
-0.00227575
0.00227575
-0.00227575
0.00227575
-0.00227575
0.00227575
-0.00227575
0.00227575
-0.00227575
0.00227575
-0.00227575
0.00227575
-0.00227575
0.00227575
-0.00227575
0.00227575
-0.00227575
0.00227575
-0.00227575
0.00227575
-0.00227575
0.00227575
-0.00227575
0.00227575
-0.00227575
0.00227575
-0.00227575
0.00227575
-0.00227575
0.00227575
-0.00227575
0.00227575
-0.00227575
0.00227575
-0.00227575
0.00227575
-0.00227575
0.00227574
-0.00227581
0.00227536
-0.00227766
0.00226795
-0.00230048
0.00221876
-0.00235712
0.00224034
-0.00221778
0.0021908
-0.00277672
0.0020875
-0.00153884
0.00183727
-0.00355243
0.0037062
-0.00311743
0.00103372
-0.000377672
-0.000894282
0.000287453
0.000177801
0.158322
0.158322
1
1.09398
1.14041
1.12551
1.11795
1.11852
1.07355
1.10644
1.07146
1.04551
1.06638
1.04159
0.97643
0.963596
0.88533
0.683732
0.413859
0.209791
0.0832717
0.0335402
0.00681864
0.00546386
-0.00213134
0.00294519
-0.00276483
0.00280136
-0.00279455
0.00279573
-0.00279554
0.00279557
-0.00279556
0.00279556
-0.00279556
0.00279556
-0.00279556
0.00279556
-0.00279556
0.00279556
-0.00279556
0.00279556
-0.00279556
0.00279556
-0.00279556
0.00279556
-0.00279556
0.00279556
-0.00279556
0.00279556
-0.00279556
0.00279556
-0.00279556
0.00279556
-0.00279556
0.00279556
-0.00279556
0.00279556
-0.00279556
0.00279556
-0.00279556
0.00279556
-0.00279556
0.00279556
-0.00279556
0.00279556
-0.00279556
0.00279556
-0.00279556
0.00279556
-0.00279556
0.00279556
-0.00279556
0.00279556
-0.00279556
0.00279556
-0.00279556
0.00279555
-0.00279564
0.00279513
-0.0027977
0.00278705
-0.00282185
0.00273712
-0.00287428
0.00276926
-0.00273752
0.0026817
-0.00330046
0.00269309
-0.00207312
0.00219551
-0.00389585
0.00428299
-0.00394829
0.00196906
-0.0011826
-0.00023536
-6.16263e-05
-0.000953335
-0.156291
-0.156291
1
1.08879
1.13923
1.13496
1.12386
1.13073
1.08121
1.10959
1.07849
1.04601
1.06184
1.044
0.976583
0.959076
0.885027
0.694219
0.42717
0.220643
0.088665
0.0364526
0.00736933
0.00613878
-0.00242907
0.00334555
-0.0031402
0.00318223
-0.00317432
0.00317569
-0.00317547
0.0031755
-0.0031755
0.0031755
-0.0031755
0.0031755
-0.0031755
0.0031755
-0.0031755
0.0031755
-0.0031755
0.0031755
-0.0031755
0.0031755
-0.0031755
0.0031755
-0.0031755
0.0031755
-0.0031755
0.0031755
-0.0031755
0.0031755
-0.0031755
0.0031755
-0.0031755
0.0031755
-0.0031755
0.0031755
-0.0031755
0.0031755
-0.0031755
0.0031755
-0.0031755
0.0031755
-0.0031755
0.0031755
-0.0031755
0.0031755
-0.0031755
0.0031755
-0.0031755
0.0031755
-0.0031755
0.0031755
-0.0031755
0.0031755
-0.0031755
0.00317549
-0.00317559
0.00317501
-0.00317788
0.00316625
-0.00320329
0.00311591
-0.00325095
0.00315811
-0.00311957
0.00303297
-0.00367595
0.003158
-0.0024873
0.00243225
-0.00407635
0.00466578
-0.00459165
0.00276899
-0.00190513
0.00038425
-0.000395748
0.000638121
0.15792
0.15792
1
1.08201
1.13289
1.1378
1.12359
1.13604
1.08444
1.10793
1.08186
1.04491
1.05595
1.04504
0.977323
0.954999
0.884143
0.703273
0.439872
0.231184
0.0942834
0.0393072
0.00812074
0.00668624
-0.00257044
0.00359904
-0.00336601
0.00341421
-0.00340505
0.00340666
-0.00340639
0.00340643
-0.00340643
0.00340643
-0.00340643
0.00340643
-0.00340643
0.00340643
-0.00340643
0.00340643
-0.00340643
0.00340643
-0.00340643
0.00340643
-0.00340643
0.00340643
-0.00340643
0.00340643
-0.00340643
0.00340643
-0.00340643
0.00340643
-0.00340643
0.00340643
-0.00340643
0.00340643
-0.00340643
0.00340643
-0.00340643
0.00340643
-0.00340643
0.00340643
-0.00340643
0.00340643
-0.00340643
0.00340643
-0.00340643
0.00340643
-0.00340643
0.00340643
-0.00340643
0.00340643
-0.00340643
0.00340643
-0.00340643
0.00340643
-0.00340643
0.00340641
-0.00340653
0.00340587
-0.00340906
0.00339642
-0.00343566
0.00334604
-0.00347805
0.00339757
-0.00335473
0.00323611
-0.00389442
0.00347071
-0.00277049
0.00254205
-0.00409339
0.00484805
-0.00503076
0.00340629
-0.00251805
0.000938722
-0.00072059
-0.00052573
-0.156651
-0.156651
1
1.07455
1.12336
1.13596
1.1192
1.13631
1.08487
1.10322
1.08286
1.04318
1.04958
1.04505
0.978659
0.951469
0.882879
0.710986
0.451946
0.241372
0.100104
0.0420965
0.00907227
0.00710613
-0.00255476
0.00370535
-0.0034418
0.00349689
-0.00348631
0.00348819
-0.00348788
0.00348793
-0.00348792
0.00348792
-0.00348792
0.00348792
-0.00348792
0.00348792
-0.00348792
0.00348792
-0.00348792
0.00348792
-0.00348792
0.00348792
-0.00348792
0.00348792
-0.00348792
0.00348792
-0.00348792
0.00348792
-0.00348792
0.00348792
-0.00348792
0.00348792
-0.00348792
0.00348792
-0.00348792
0.00348792
-0.00348792
0.00348792
-0.00348792
0.00348792
-0.00348792
0.00348792
-0.00348792
0.00348792
-0.00348792
0.00348792
-0.00348792
0.00348792
-0.00348792
0.00348792
-0.00348792
0.00348792
-0.00348792
0.00348792
-0.00348792
0.0034879
-0.00348803
0.00348729
-0.00349082
0.00347715
-0.00351851
0.00342708
-0.00355523
0.00348707
-0.00344249
0.00329133
-0.00395597
0.00362865
-0.00291996
0.0025272
-0.00395485
0.00483403
-0.00526075
0.00386482
-0.00300218
0.00140847
-0.000997714
0.00102139
0.157599
0.157599
1
1.06704
1.11214
1.13097
1.11235
1.13301
1.08367
1.09671
1.08228
1.04135
1.04322
1.04423
0.980498
0.948529
0.881393
0.717459
0.463372
0.251175
0.106098
0.0448195
0.0102154
0.00740579
-0.00238888
0.00367176
-0.00337466
0.00343743
-0.00342525
0.00342743
-0.00342707
0.00342713
-0.00342712
0.00342712
-0.00342712
0.00342712
-0.00342712
0.00342712
-0.00342712
0.00342712
-0.00342712
0.00342712
-0.00342712
0.00342712
-0.00342712
0.00342712
-0.00342712
0.00342712
-0.00342712
0.00342712
-0.00342712
0.00342712
-0.00342712
0.00342712
-0.00342712
0.00342712
-0.00342712
0.00342712
-0.00342712
0.00342712
-0.00342712
0.00342712
-0.00342712
0.00342712
-0.00342712
0.00342712
-0.00342712
0.00342712
-0.00342712
0.00342712
-0.00342712
0.00342712
-0.00342712
0.00342712
-0.00342712
0.00342712
-0.00342712
0.0034271
-0.00342725
0.00342642
-0.0034303
0.00341559
-0.00345897
0.00336618
-0.0034897
0.00343359
-0.00338981
0.00320634
-0.00386842
0.00363715
-0.00294018
0.0023965
-0.00367565
0.00463727
-0.00528725
0.00413876
-0.00334623
0.0017799
-0.00123886
-0.000196973
-0.156933
-0.156933
1
1.05987
1.10036
1.12403
1.10427
1.12729
1.08161
1.0893
1.08064
1.03965
1.03716
1.0427
0.982708
0.946187
0.879816
0.722805
0.474132
0.260571
0.112227
0.0474813
0.0115348
0.00759874
-0.00208605
0.00351186
-0.00317803
0.0032493
-0.00323533
0.00323786
-0.00323744
0.0032375
-0.00323749
0.00323749
-0.00323749
0.00323749
-0.00323749
0.00323749
-0.00323749
0.00323749
-0.00323749
0.00323749
-0.00323749
0.00323749
-0.00323749
0.00323749
-0.00323749
0.00323749
-0.00323749
0.00323749
-0.00323749
0.00323749
-0.00323749
0.00323749
-0.00323749
0.00323749
-0.00323749
0.00323749
-0.00323749
0.00323749
-0.00323749
0.00323749
-0.00323749
0.00323749
-0.00323749
0.00323749
-0.00323749
0.00323749
-0.00323749
0.00323749
-0.00323749
0.00323749
-0.00323749
0.00323749
-0.00323749
0.00323749
-0.0032375
0.00323747
-0.00323764
0.00323671
-0.00324096
0.0032252
-0.00327049
0.00317682
-0.00329501
0.00325049
-0.00320997
0.00299514
-0.00364608
0.00350819
-0.00284163
0.00216404
-0.00327635
0.00427883
-0.00512486
0.00423166
-0.00354664
0.00204578
-0.0014126
0.00128751
0.157355
0.157355
1
1.05326
1.0888
1.11599
1.09584
1.12001
1.07916
1.08157
1.07822
1.03818
1.03157
1.04054
0.985148
0.944429
0.878252
0.727144
0.484216
0.269548
0.11845
0.0500914
0.01301
0.00770335
-0.00166449
0.0032442
-0.00287028
0.00295096
-0.00293499
0.00293791
-0.00293741
0.00293749
-0.00293748
0.00293748
-0.00293748
0.00293748
-0.00293748
0.00293748
-0.00293748
0.00293748
-0.00293748
0.00293748
-0.00293748
0.00293748
-0.00293748
0.00293748
-0.00293748
0.00293748
-0.00293748
0.00293748
-0.00293748
0.00293748
-0.00293748
0.00293748
-0.00293748
0.00293748
-0.00293748
0.00293748
-0.00293748
0.00293748
-0.00293748
0.00293748
-0.00293748
0.00293748
-0.00293748
0.00293748
-0.00293748
0.00293748
-0.00293748
0.00293748
-0.00293748
0.00293748
-0.00293748
0.00293748
-0.00293748
0.00293748
-0.00293748
0.00293745
-0.00293764
0.00293661
-0.00294125
0.00292444
-0.0029715
0.00287743
-0.00298966
0.00295609
-0.00292114
0.00267659
-0.00330831
0.00325909
-0.00263963
0.00184791
-0.00278155
0.00378546
-0.00479544
0.00415524
-0.0036069
0.0022045
-0.00153809
1.59867e-06
-0.15714
-0.15714
1
1.0473
1.07795
1.10746
1.08763
1.1118
1.07659
1.07391
1.07522
1.03692
1.02653
1.03787
0.987688
0.943226
0.876781
0.730596
0.493614
0.278102
0.124724
0.0526621
0.0146167
0.00774132
-0.00114597
0.00289082
-0.0024733
0.00256433
-0.00254613
0.00254949
-0.00254891
0.00254901
-0.00254899
0.00254899
-0.00254899
0.00254899
-0.00254899
0.00254899
-0.00254899
0.00254899
-0.00254899
0.00254899
-0.00254899
0.00254899
-0.00254899
0.00254899
-0.00254899
0.00254899
-0.00254899
0.00254899
-0.00254899
0.00254899
-0.00254899
0.00254899
-0.00254899
0.00254899
-0.00254899
0.00254899
-0.00254899
0.00254899
-0.00254899
0.00254899
-0.00254899
0.00254899
-0.00254899
0.00254899
-0.00254899
0.00254899
-0.00254899
0.00254899
-0.00254899
0.00254899
-0.00254899
0.00254899
-0.00254899
0.00254899
-0.002549
0.00254896
-0.00254918
0.00254804
-0.00255307
0.00253521
-0.0025839
0.00248991
-0.00259568
0.00257223
-0.00254497
0.00227296
-0.00287806
0.00291101
-0.00235294
0.0014688
-0.0022183
0.00318766
-0.00432632
0.00392788
-0.0035367
0.00225986
-0.00159118
0.00141658
0.157184
0.157184
1
1.04202
1.06811
1.09884
1.07999
1.10312
1.07401
1.06659
1.07177
1.03583
1.02208
1.03478
0.990209
0.942539
0.875465
0.733285
0.502325
0.286233
0.131003
0.0552076