# vtk DataFile Version 2.0
FlowField
ASCII
DATASET STRUCTURED_GRID
DIMENSIONS 100 1 100
POINTS 10000 float
0 0 0
0.01 0 0
0.02 0 0
0.03 0 0
0.04 0 0
0.05 0 0
0.06 0 0
0.07 0 0
0.08 0 0
0.09 0 0
0.1 0 0
0.11 0 0
0.12 0 0
0.13 0 0
0.14 0 0
0.15 0 0
0.16 0 0
0.17 0 0
0.18 0 0
0.19 0 0
0.2 0 0
0.21 0 0
0.22 0 0
0.23 0 0
0.24 0 0
0.25 0 0
0.26 0 0
0.27 0 0
0.28 0 0
0.29 0 0
0.3 0 0
0.31 0 0
0.32 0 0
0.33 0 0
0.34 0 0
0.35 0 0
0.36 0 0
0.37 0 0
0.38 0 0
0.39 0 0
0.4 0 0
0.41 0 0
0.42 0 0
0.43 0 0
0.44 0 0
0.45 0 0
0.46 0 0
0.47 0 0
0.48 0 0
0.49 0 0
0.5 0 0
0.51 0 0
0.52 0 0
0.53 0 0
0.54 0 0
0.55 0 0
0.56 0 0
0.57 0 0
0.58 0 0
0.59 0 0
0.6 0 0
0.61 0 0
0.62 0 0
0.63 0 0
0.64 0 0
0.65 0 0
0.66 0 0
0.67 0 0
0.68 0 0
0.69 0 0
0.7 0 0
0.71 0 0
0.72 0 0
0.73 0 0
0.74 0 0
0.75 0 0
0.76 0 0
0.77 0 0
0.78 0 0
0.79 0 0
0.8 0 0
0.81 0 0
0.82 0 0
0.83 0 0
0.84 0 0
0.85 0 0
0.86 0 0
0.87 0 0
0.88 0 0
0.89 0 0
0.9 0 0
0.91 0 0
0.92 0 0
0.93 0 0
0.94 0 0
0.95 0 0
0.96 0 0
0.97 0 0
0.98 0 0
0.99 0 0
0 0.001 0
0.01 0.001 0
0.02 0.001 0
0.03 0.001 0
0.04 0.001 0
0.05 0.001 0
0.06 0.001 0
0.07 0.001 0
0.08 0.001 0
0.09 0.001 0
0.1 0.001 0
0.11 0.001 0
0.12 0.001 0
0.13 0.001 0
0.14 0.001 0
0.15 0.001 0
0.16 0.001 0
0.17 0.001 0
0.18 0.001 0
0.19 0.001 0
0.2 0.001 0
0.21 0.001 0
0.22 0.001 0
0.23 0.001 0
0.24 0.001 0
0.25 0.001 0
0.26 0.001 0
0.27 0.001 0
0.28 0.001 0
0.29 0.001 0
0.3 0.001 0
0.31 0.001 0
0.32 0.001 0
0.33 0.001 0
0.34 0.001 0
0.35 0.001 0
0.36 0.001 0
0.37 0.001 0
0.38 0.001 0
0.39 0.001 0
0.4 0.001 0
0.41 0.001 0
0.42 0.001 0
0.43 0.001 0
0.44 0.001 0
0.45 0.001 0
0.46 0.001 0
0.47 0.001 0
0.48 0.001 0
0.49 0.001 0
0.5 0.001 0
0.51 0.001 0
0.52 0.001 0
0.53 0.001 0
0.54 0.001 0
0.55 0.001 0
0.56 0.001 0
0.57 0.001 0
0.58 0.001 0
0.59 0.001 0
0.6 0.001 0
0.61 0.001 0
0.62 0.001 0
0.63 0.001 0
0.64 0.001 0
0.65 0.001 0
0.66 0.001 0
0.67 0.001 0
0.68 0.001 0
0.69 0.001 0
0.7 0.001 0
0.71 0.001 0
0.72 0.001 0
0.73 0.001 0
0.74 0.001 0
0.75 0.001 0
0.76 0.001 0
0.77 0.001 0
0.78 0.001 0
0.79 0.001 0
0.8 0.001 0
0.81 0.001 0
0.82 0.001 0
0.83 0.001 0
0.84 0.001 0
0.85 0.001 0
0.86 0.001 0
0.87 0.001 0
0.88 0.001 0
0.89 0.001 0
0.9 0.001 0
0.91 0.001 0
0.92 0.001 0
0.93 0.001 0
0.94 0.001 0
0.95 0.001 0
0.96 0.001 0
0.97 0.001 0
0.98 0.001 0
0.99 0.001 0
0 0.002 0
0.01 0.002 0
0.02 0.002 0
0.03 0.002 0
0.04 0.002 0
0.05 0.002 0
0.06 0.002 0
0.07 0.002 0
0.08 0.002 0
0.09 0.002 0
0.1 0.002 0
0.11 0.002 0
0.12 0.002 0
0.13 0.002 0
0.14 0.002 0
0.15 0.002 0
0.16 0.002 0
0.17 0.002 0
0.18 0.002 0
0.19 0.002 0
0.2 0.002 0
0.21 0.002 0
0.22 0.002 0
0.23 0.002 0
0.24 0.002 0
0.25 0.002 0
0.26 0.002 0
0.27 0.002 0
0.28 0.002 0
0.29 0.002 0
0.3 0.002 0
0.31 0.002 0
0.32 0.002 0
0.33 0.002 0
0.34 0.002 0
0.35 0.002 0
0.36 0.002 0
0.37 0.002 0
0.38 0.002 0
0.39 0.002 0
0.4 0.002 0
0.41 0.002 0
0.42 0.002 0
0.43 0.002 0
0.44 0.002 0
0.45 0.002 0
0.46 0.002 0
0.47 0.002 0
0.48 0.002 0
0.49 0.002 0
0.5 0.002 0
0.51 0.002 0
0.52 0.002 0
0.53 0.002 0
0.54 0.002 0
0.55 0.002 0
0.56 0.002 0
0.57 0.002 0
0.58 0.002 0
0.59 0.002 0
0.6 0.002 0
0.61 0.002 0
0.62 0.002 0
0.63 0.002 0
0.64 0.002 0
0.65 0.002 0
0.66 0.002 0
0.67 0.002 0
0.68 0.002 0
0.69 0.002 0
0.7 0.002 0
0.71 0.002 0
0.72 0.002 0
0.73 0.002 0
0.74 0.002 0
0.75 0.002 0
0.76 0.002 0
0.77 0.002 0
0.78 0.002 0
0.79 0.002 0
0.8 0.002 0
0.81 0.002 0
0.82 0.002 0
0.83 0.002 0
0.84 0.002 0
0.85 0.002 0
0.86 0.002 0
0.87 0.002 0
0.88 0.002 0
0.89 0.002 0
0.9 0.002 0
0.91 0.002 0
0.92 0.002 0
0.93 0.002 0
0.94 0.002 0
0.95 0.002 0
0.96 0.002 0
0.97 0.002 0
0.98 0.002 0
0.99 0.002 0
0 0.003 0
0.01 0.003 0
0.02 0.003 0
0.03 0.003 0
0.04 0.003 0
0.05 0.003 0
0.06 0.003 0
0.07 0.003 0
0.08 0.003 0
0.09 0.003 0
0.1 0.003 0
0.11 0.003 0
0.12 0.003 0
0.13 0.003 0
0.14 0.003 0
0.15 0.003 0
0.16 0.003 0
0.17 0.003 0
0.18 0.003 0
0.19 0.003 0
0.2 0.003 0
0.21 0.003 0
0.22 0.003 0
0.23 0.003 0
0.24 0.003 0
0.25 0.003 0
0.26 0.003 0
0.27 0.003 0
0.28 0.003 0
0.29 0.003 0
0.3 0.003 0
0.31 0.003 0
0.32 0.003 0
0.33 0.003 0
0.34 0.003 0
0.35 0.003 0
0.36 0.003 0
0.37 0.003 0
0.38 0.003 0
0.39 0.003 0
0.4 0.003 0
0.41 0.003 0
0.42 0.003 0
0.43 0.003 0
0.44 0.003 0
0.45 0.003 0
0.46 0.003 0
0.47 0.003 0
0.48 0.003 0
0.49 0.003 0
0.5 0.003 0
0.51 0.003 0
0.52 0.003 0
0.53 0.003 0
0.54 0.003 0
0.55 0.003 0
0.56 0.003 0
0.57 0.003 0
0.58 0.003 0
0.59 0.003 0
0.6 0.003 0
0.61 0.003 0
0.62 0.003 0
0.63 0.003 0
0.64 0.003 0
0.65 0.003 0
0.66 0.003 0
0.67 0.003 0
0.68 0.003 0
0.69 0.003 0
0.7 0.003 0
0.71 0.003 0
0.72 0.003 0
0.73 0.003 0
0.74 0.003 0
0.75 0.003 0
0.76 0.003 0
0.77 0.003 0
0.78 0.003 0
0.79 0.003 0
0.8 0.003 0
0.81 0.003 0
0.82 0.003 0
0.83 0.003 0
0.84 0.003 0
0.85 0.003 0
0.86 0.003 0
0.87 0.003 0
0.88 0.003 0
0.89 0.003 0
0.9 0.003 0
0.91 0.003 0
0.92 0.003 0
0.93 0.003 0
0.94 0.003 0
0.95 0.003 0
0.96 0.003 0
0.97 0.003 0
0.98 0.003 0
0.99 0.003 0
0 0.004 0
0.01 0.004 0
0.02 0.004 0
0.03 0.004 0
0.04 0.004 0
0.05 0.004 0
0.06 0.004 0
0.07 0.004 0
0.08 0.004 0
0.09 0.004 0
0.1 0.004 0
0.11 0.004 0
0.12 0.004 0
0.13 0.004 0
0.14 0.004 0
0.15 0.004 0
0.16 0.004 0
0.17 0.004 0
0.18 0.004 0
0.19 0.004 0
0.2 0.004 0
0.21 0.004 0
0.22 0.004 0
0.23 0.004 0
0.24 0.004 0
0.25 0.004 0
0.26 0.004 0
0.27 0.004 0
0.28 0.004 0
0.29 0.004 0
0.3 0.004 0
0.31 0.004 0
0.32 0.004 0
0.33 0.004 0
0.34 0.004 0
0.35 0.004 0
0.36 0.004 0
0.37 0.004 0
0.38 0.004 0
0.39 0.004 0
0.4 0.004 0
0.41 0.004 0
0.42 0.004 0
0.43 0.004 0
0.44 0.004 0
0.45 0.004 0
0.46 0.004 0
0.47 0.004 0
0.48 0.004 0
0.49 0.004 0
0.5 0.004 0
0.51 0.004 0
0.52 0.004 0
0.53 0.004 0
0.54 0.004 0
0.55 0.004 0
0.56 0.004 0
0.57 0.004 0
0.58 0.004 0
0.59 0.004 0
0.6 0.004 0
0.61 0.004 0
0.62 0.004 0
0.63 0.004 0
0.64 0.004 0
0.65 0.004 0
0.66 0.004 0
0.67 0.004 0
0.68 0.004 0
0.69 0.004 0
0.7 0.004 0
0.71 0.004 0
0.72 0.004 0
0.73 0.004 0
0.74 0.004 0
0.75 0.004 0
0.76 0.004 0
0.77 0.004 0
0.78 0.004 0
0.79 0.004 0
0.8 0.004 0
0.81 0.004 0
0.82 0.004 0
0.83 0.004 0
0.84 0.004 0
0.85 0.004 0
0.86 0.004 0
0.87 0.004 0
0.88 0.004 0
0.89 0.004 0
0.9 0.004 0
0.91 0.004 0
0.92 0.004 0
0.93 0.004 0
0.94 0.004 0
0.95 0.004 0
0.96 0.004 0
0.97 0.004 0
0.98 0.004 0
0.99 0.004 0
0 0.005 0
0.01 0.005 0
0.02 0.005 0
0.03 0.005 0
0.04 0.005 0
0.05 0.005 0
0.06 0.005 0
0.07 0.005 0
0.08 0.005 0
0.09 0.005 0
0.1 0.005 0
0.11 0.005 0
0.12 0.005 0
0.13 0.005 0
0.14 0.005 0
0.15 0.005 0
0.16 0.005 0
0.17 0.005 0
0.18 0.005 0
0.19 0.005 0
0.2 0.005 0
0.21 0.005 0
0.22 0.005 0
0.23 0.005 0
0.24 0.005 0
0.25 0.005 0
0.26 0.005 0
0.27 0.005 0
0.28 0.005 0
0.29 0.005 0
0.3 0.005 0
0.31 0.005 0
0.32 0.005 0
0.33 0.005 0
0.34 0.005 0
0.35 0.005 0
0.36 0.005 0
0.37 0.005 0
0.38 0.005 0
0.39 0.005 0
0.4 0.005 0
0.41 0.005 0
0.42 0.005 0
0.43 0.005 0
0.44 0.005 0
0.45 0.005 0
0.46 0.005 0
0.47 0.005 0
0.48 0.005 0
0.49 0.005 0
0.5 0.005 0
0.51 0.005 0
0.52 0.005 0
0.53 0.005 0
0.54 0.005 0
0.55 0.005 0
0.56 0.005 0
0.57 0.005 0
0.58 0.005 0
0.59 0.005 0
0.6 0.005 0
0.61 0.005 0
0.62 0.005 0
0.63 0.005 0
0.64 0.005 0
0.65 0.005 0
0.66 0.005 0
0.67 0.005 0
0.68 0.005 0
0.69 0.005 0
0.7 0.005 0
0.71 0.005 0
0.72 0.005 0
0.73 0.005 0
0.74 0.005 0
0.75 0.005 0
0.76 0.005 0
0.77 0.005 0
0.78 0.005 0
0.79 0.005 0
0.8 0.005 0
0.81 0.005 0
0.82 0.005 0
0.83 0.005 0
0.84 0.005 0
0.85 0.005 0
0.86 0.005 0
0.87 0.005 0
0.88 0.005 0
0.89 0.005 0
0.9 0.005 0
0.91 0.005 0
0.92 0.005 0
0.93 0.005 0
0.94 0.005 0
0.95 0.005 0
0.96 0.005 0
0.97 0.005 0
0.98 0.005 0
0.99 0.005 0
0 0.006 0
0.01 0.006 0
0.02 0.006 0
0.03 0.006 0
0.04 0.006 0
0.05 0.006 0
0.06 0.006 0
0.07 0.006 0
0.08 0.006 0
0.09 0.006 0
0.1 0.006 0
0.11 0.006 0
0.12 0.006 0
0.13 0.006 0
0.14 0.006 0
0.15 0.006 0
0.16 0.006 0
0.17 0.006 0
0.18 0.006 0
0.19 0.006 0
0.2 0.006 0
0.21 0.006 0
0.22 0.006 0
0.23 0.006 0
0.24 0.006 0
0.25 0.006 0
0.26 0.006 0
0.27 0.006 0
0.28 0.006 0
0.29 0.006 0
0.3 0.006 0
0.31 0.006 0
0.32 0.006 0
0.33 0.006 0
0.34 0.006 0
0.35 0.006 0
0.36 0.006 0
0.37 0.006 0
0.38 0.006 0
0.39 0.006 0
0.4 0.006 0
0.41 0.006 0
0.42 0.006 0
0.43 0.006 0
0.44 0.006 0
0.45 0.006 0
0.46 0.006 0
0.47 0.006 0
0.48 0.006 0
0.49 0.006 0
0.5 0.006 0
0.51 0.006 0
0.52 0.006 0
0.53 0.006 0
0.54 0.006 0
0.55 0.006 0
0.56 0.006 0
0.57 0.006 0
0.58 0.006 0
0.59 0.006 0
0.6 0.006 0
0.61 0.006 0
0.62 0.006 0
0.63 0.006 0
0.64 0.006 0
0.65 0.006 0
0.66 0.006 0
0.67 0.006 0
0.68 0.006 0
0.69 0.006 0
0.7 0.006 0
0.71 0.006 0
0.72 0.006 0
0.73 0.006 0
0.74 0.006 0
0.75 0.006 0
0.76 0.006 0
0.77 0.006 0
0.78 0.006 0
0.79 0.006 0
0.8 0.006 0
0.81 0.006 0
0.82 0.006 0
0.83 0.006 0
0.84 0.006 0
0.85 0.006 0
0.86 0.006 0
0.87 0.006 0
0.88 0.006 0
0.89 0.006 0
0.9 0.006 0
0.91 0.006 0
0.92 0.006 0
0.93 0.006 0
0.94 0.006 0
0.95 0.006 0
0.96 0.006 0
0.97 0.006 0
0.98 0.006 0
0.99 0.006 0
0 0.007 0
0.01 0.007 0
0.02 0.007 0
0.03 0.007 0
0.04 0.007 0
0.05 0.007 0
0.06 0.007 0
0.07 0.007 0
0.08 0.007 0
0.09 0.007 0
0.1 0.007 0
0.11 0.007 0
0.12 0.007 0
0.13 0.007 0
0.14 0.007 0
0.15 0.007 0
0.16 0.007 0
0.17 0.007 0
0.18 0.007 0
0.19 0.007 0
0.2 0.007 0
0.21 0.007 0
0.22 0.007 0
0.23 0.007 0
0.24 0.007 0
0.25 0.007 0
0.26 0.007 0
0.27 0.007 0
0.28 0.007 0
0.29 0.007 0
0.3 0.007 0
0.31 0.007 0
0.32 0.007 0
0.33 0.007 0
0.34 0.007 0
0.35 0.007 0
0.36 0.007 0
0.37 0.007 0
0.38 0.007 0
0.39 0.007 0
0.4 0.007 0
0.41 0.007 0
0.42 0.007 0
0.43 0.007 0
0.44 0.007 0
0.45 0.007 0
0.46 0.007 0
0.47 0.007 0
0.48 0.007 0
0.49 0.007 0
0.5 0.007 0
0.51 0.007 0
0.52 0.007 0
0.53 0.007 0
0.54 0.007 0
0.55 0.007 0
0.56 0.007 0
0.57 0.007 0
0.58 0.007 0
0.59 0.007 0
0.6 0.007 0
0.61 0.007 0
0.62 0.007 0
0.63 0.007 0
0.64 0.007 0
0.65 0.007 0
0.66 0.007 0
0.67 0.007 0
0.68 0.007 0
0.69 0.007 0
0.7 0.007 0
0.71 0.007 0
0.72 0.007 0
0.73 0.007 0
0.74 0.007 0
0.75 0.007 0
0.76 0.007 0
0.77 0.007 0
0.78 0.007 0
0.79 0.007 0
0.8 0.007 0
0.81 0.007 0
0.82 0.007 0
0.83 0.007 0
0.84 0.007 0
0.85 0.007 0
0.86 0.007 0
0.87 0.007 0
0.88 0.007 0
0.89 0.007 0
0.9 0.007 0
0.91 0.007 0
0.92 0.007 0
0.93 0.007 0
0.94 0.007 0
0.95 0.007 0
0.96 0.007 0
0.97 0.007 0
0.98 0.007 0
[...]
POINT_DATA 10000

SCALARS vel_X float 1
LOOKUP_TABLE default
0
0
0
0
0
0
0
0
0
0
0
0
0
0
0
0
0
0
0
0
0
0
0
0
0
0
0
0
0
0
0
0
0
0
0
0
0
0
0
0
0
0
0
0
0
0
0
0
0
0
0
0
0
0
0
0
0
0
0
0
0
0
0
0
0
0
0
0
0
0
0
0
0
0
0
0
0
0
0
0
0
0
0
0
0
0
0
0
0
0
0
0
0
0
0
0
0
0
0
0
1
0.374244
0.325837
0.283449
0.403082
0.459178
0.312315
0.134015
0.0433817
0.00886955
0.0032225
-0.000932578
0.00129793
-0.00124771
0.00125376
-0.00125311
0.00125317
-0.00125317
0.00125317
-0.00125317
0.00125317
-0.00125317
0.00125317
-0.00125317
0.00125317
-0.00125317
0.00125317
-0.00125317
0.00125317
-0.00125317
0.00125317
-0.00125317
0.00125317
-0.00125317
0.00125317
-0.00125317
0.00125317
-0.00125317
0.00125317
-0.00125317
0.00125317
-0.00125317
0.00125317
-0.00125317
0.00125317
-0.00125317
0.00125317
-0.00125317
0.00125317
-0.00125317
0.00125317
-0.00125317
0.00125317
-0.00125317
0.00125317
-0.00125317
0.00125317
-0.00125317
0.00125317
-0.00125317
0.00125317
-0.00125317
0.00125317
-0.00125317
0.00125317
-0.00125317
0.00125317
-0.00125317
0.00125317
-0.00125317
0.00125317
-0.00125317
0.00125317
-0.00125317
0.00125317
-0.00125317
0.00125317
-0.00125317
0.00125317
-0.00125317
0.00125317
-0.00125317
0.00125317
-0.00125317
0.00125317
-0.00125317
0.00125316
-0.00125325
0.00125233
-0.00125954
0.00122093
-0.00134588
0.00117701
-0.0010465
0.00121194
-0.00237685
0.00190133
-0.00256518
-0.0615425
-0.0615425
1
0.658561
0.592152
0.546491
0.707568
0.732762
0.475461
0.19968
0.0638421
0.0130782
0.00465604
-0.00129993
0.00183603
-0.00176217
0.0017711
-0.00177014
0.00177023
-0.00177022
0.00177022
-0.00177022
0.00177022
-0.00177022
0.00177022
-0.00177022
0.00177022
-0.00177022
0.00177022
-0.00177022
0.00177022
-0.00177022
0.00177022
-0.00177022
0.00177022
-0.00177022
0.00177022
-0.00177022
0.00177022
-0.00177022
0.00177022
-0.00177022
0.00177022
-0.00177022
0.00177022
-0.00177022
0.00177022
-0.00177022
0.00177022
-0.00177022
0.00177022
-0.00177022
0.00177022
-0.00177022
0.00177022
-0.00177022
0.00177022
-0.00177022
0.00177022
-0.00177022
0.00177022
-0.00177022
0.00177022
-0.00177022
0.00177022
-0.00177022
0.00177022
-0.00177022
0.00177022
-0.00177022
0.00177022
-0.00177022
0.00177022
-0.00177022
0.00177022
-0.00177022
0.00177022
-0.00177022
0.00177022
-0.00177022
0.00177022
-0.00177022
0.00177022
-0.00177022
0.00177022
-0.00177022
0.00177022
-0.00177022
0.00177021
-0.00177034
0.00176898
-0.00177954
0.00172303
-0.00190824
0.0016398
-0.00151164
0.00174634
-0.00334628
0.00238498
-0.00224878
0.0772837
0.0772837
1
0.85707
0.800858
0.756895
0.899567
0.880503
0.562168
0.237488
0.0759466
0.0164057
0.00513729
-0.00100831
0.0016765
-0.00158324
0.00159466
-0.00159342
0.00159354
-0.00159353
0.00159353
-0.00159353
0.00159353
-0.00159353
0.00159353
-0.00159353
0.00159353
-0.00159353
0.00159353
-0.00159353
0.00159353
-0.00159353
0.00159353
-0.00159353
0.00159353
-0.00159353
0.00159353
-0.00159353
0.00159353
-0.00159353
0.00159353
-0.00159353
0.00159353
-0.00159353
0.00159353
-0.00159353
0.00159353
-0.00159353
0.00159353
-0.00159353
0.00159353
-0.00159353
0.00159353
-0.00159353
0.00159353
-0.00159353
0.00159353
-0.00159353
0.00159353
-0.00159353
0.00159353
-0.00159353
0.00159353
-0.00159353
0.00159353
-0.00159353
0.00159353
-0.00159353
0.00159353
-0.00159353
0.00159353
-0.00159353
0.00159353
-0.00159353
0.00159353
-0.00159353
0.00159353
-0.00159353
0.00159353
-0.00159353
0.00159353
-0.00159353
0.00159353
-0.00159353
0.00159353
-0.00159353
0.00159353
-0.00159353
0.00159352
-0.00159369
0.00159198
-0.00160491
0.0015375
-0.00175305
0.00144395
-0.00133159
0.00151579
-0.0032601
0.00217146
-0.00257756
-0.0669215
-0.0669215
1
0.984706
0.952721
0.903171
1.00333
0.954915
0.612705
0.264414
0.0854091
0.0196686
0.00531868
-0.000439384
0.00124322
-0.00112912
0.00114332
-0.00114175
0.0011419
-0.00114189
0.00114189
-0.00114189
0.00114189
-0.00114189
0.00114189
-0.00114189
0.00114189
-0.00114189
0.00114189
-0.00114189
0.00114189
-0.00114189
0.00114189
-0.00114189
0.00114189
-0.00114189
0.00114189
-0.00114189
0.00114189
-0.00114189
0.00114189
-0.00114189
0.00114189
-0.00114189
0.00114189
-0.00114189
0.00114189
-0.00114189
0.00114189
-0.00114189
0.00114189
-0.00114189
0.00114189
-0.00114189
0.00114189
-0.00114189
0.00114189
-0.00114189
0.00114189
-0.00114189
0.00114189
-0.00114189
0.00114189
-0.00114189
0.00114189
-0.00114189
0.00114189
-0.00114189
0.00114189
-0.00114189
0.00114189
-0.00114189
0.00114189
-0.00114189
0.00114189
-0.00114189
0.00114189
-0.00114189
0.00114189
-0.00114189
0.00114189
-0.00114189
0.00114189
-0.00114189
0.00114189
-0.00114189
0.00114189
-0.00114189
0.00114187
-0.00114208
0.00114001
-0.00115517
0.00107909
-0.00131177
0.000997903
-0.000881545
0.000957974
-0.00275574
0.00183656
-0.00161122
0.0741769
0.0741769
1
1.05876
1.05195
0.992548
1.05035
0.990459
0.64654
0.287035
0.0942498
0.0229997
0.00550579
0.000177203
0.000777423
-0.000639423
0.000656891
-0.000654927
0.000655126
-0.000655107
0.000655109
-0.000655109
0.000655109
-0.000655109
0.000655109
-0.000655109
0.000655109
-0.000655109
0.000655109
-0.000655109
0.000655109
-0.000655109
0.000655109
-0.000655109
0.000655109
-0.000655109
0.000655109
-0.000655109
0.000655109
-0.000655109
0.000655109
-0.000655109
0.000655109
-0.000655109
0.000655109
-0.000655109
0.000655109
-0.000655109
0.000655109
-0.000655109
0.000655109
-0.000655109
0.000655109
-0.000655109
0.000655109
-0.000655109
0.000655109
-0.000655109
0.000655109
-0.000655109
0.000655109
-0.000655109
0.000655109
-0.000655109
0.000655109
-0.000655109
0.000655109
-0.000655109
0.000655109
-0.000655109
0.000655109
-0.000655109
0.000655109
-0.000655109
0.000655109
-0.000655109
0.000655109
-0.000655109
0.000655109
-0.000655109
0.000655109
-0.000655109
0.000655109
-0.000655109
0.000655109
-0.000655109
0.000655109
-0.00065511
0.00065509
-0.000655346
0.000652868
-0.000670333
0.000586345
-0.000829754
0.000530482
-0.000392917
0.000349787
-0.0021617
0.00154256
-0.00191407
-0.0688105
-0.0688105
1
1.09492
1.10753
1.04043
1.06566
1.00647
0.672196
0.307704
0.103069
0.0264257
0.00578814
0.000772523
0.000351659
-0.0001861
0.000207424
-0.000204987
0.000205237
-0.000205214
0.000205216
-0.000205216
0.000205216
-0.000205216
0.000205216
-0.000205216
0.000205216
-0.000205216
0.000205216
-0.000205216
0.000205216
-0.000205216
0.000205216
-0.000205216
0.000205216
-0.000205216
0.000205216
-0.000205216
0.000205216
-0.000205216
0.000205216
-0.000205216
0.000205216
-0.000205216
0.000205216
-0.000205216
0.000205216
-0.000205216
0.000205216
-0.000205216
0.000205216
-0.000205216
0.000205216
-0.000205216
0.000205216
-0.000205216
0.000205216
-0.000205216
0.000205216
-0.000205216
0.000205216
-0.000205216
0.000205216
-0.000205216
0.000205216
-0.000205216
0.000205216
-0.000205216
0.000205216
-0.000205216
0.000205216
-0.000205216
0.000205216
-0.000205216
0.000205216
-0.000205216
0.000205216
-0.000205216
0.000205216
-0.000205216
0.000205216
-0.000205216
0.000205216
-0.000205216
0.000205216
-0.000205216
0.000205215
-0.000205217
0.000205192
-0.000205505
0.000202579
-0.000222444
0.000130996
-0.000381134
0.000106734
5.90523e-05
-0.000215013
-0.00157281
0.00128674
-0.00102935
0.0729542
0.0729542
1
1.10612
1.13111
1.06211
1.06536
1.01277
0.693147
0.327169
0.11198
0.0299603
0.00617156
0.00134583
-3.177e-05
0.000228942
-0.000203097
0.0002061
-0.000205787
0.000205816
-0.000205814
0.000205814
-0.000205814
0.000205814
-0.000205814
0.000205814
-0.000205814
0.000205814
-0.000205814
0.000205814
-0.000205814
0.000205814
-0.000205814
0.000205814
-0.000205814
0.000205814
-0.000205814
0.000205814
-0.000205814
0.000205814
-0.000205814
0.000205814
-0.000205814
0.000205814
-0.000205814
0.000205814
-0.000205814
0.000205814
-0.000205814
0.000205814
-0.000205814
0.000205814
-0.000205814
0.000205814
-0.000205814
0.000205814
-0.000205814
0.000205814
-0.000205814
0.000205814
-0.000205814
0.000205814
-0.000205814
0.000205814
-0.000205814
0.000205814
-0.000205814
0.000205814
-0.000205814
0.000205814
-0.000205814
0.000205814
-0.000205814
0.000205814
-0.000205814
0.000205814
-0.000205814
0.000205814
-0.000205814
0.000205814
-0.000205814
0.000205814
-0.000205814
0.000205814
-0.000205814
0.000205814
-0.000205814
0.000205812
-0.000205844
0.000205466
-0.000208882
0.000186532
-0.000284984
3.13569e-05
-0.000275184
0.000468153
-0.000726108
-0.000996145
0.00101319
-0.00138029
-0.0696582
-0.0696582
1
1.10242
1.13402
1.06909
1.05846
1.01405
0.710788
0.345593
0.120965
0.0335907
0.00665903
0.00189452
-0.000369339
0.000602505
-0.0005714
0.000575074
-0.000574685
0.000574723
-0.000574719
0.000574719
-0.000574719
0.000574719
-0.000574719
0.000574719
-0.000574719
0.000574719
-0.000574719
0.000574719
-0.000574719
0.000574719
-0.000574719
0.000574719
-0.000574719
0.000574719
-0.000574719
0.000574719
-0.000574719
0.000574719
-0.000574719
0.000574719
-0.000574719
0.000574719
-0.000574719
0.000574719
-0.000574719
0.000574719
-0.000574719
0.000574719
-0.000574719
0.000574719
-0.000574719
0.000574719
-0.000574719
0.000574719
-0.000574719
0.000574719
-0.000574719
0.000574719
-0.000574719
0.000574719
-0.000574719
0.000574719
-0.000574719
0.000574719
-0.000574719
0.000574719
-0.000574719
0.000574719
-0.000574719
0.000574719
-0.000574719
0.000574719
-0.000574719
0.000574719
-0.000574719
0.000574719
-0.000574719
0.000574719
-0.000574719
0.000574719
-0.000574719
0.000574719
-0.000574719
0.000574719
-0.00057472
0.000574717
-0.000574756
0.000574305
-0.000578253
0.000553363
-0.00065826
0.000404144
-0.000614126
0.000828695
-0.00117806
-0.00044033
0.000720534
-0.000515091
0.072326
0.072326
1
1.09118
1.12532
1.06867
1.0495
1.01255
0.725724
0.362959
0.129972
0.0372934
0.00725435
0.00241327
-0.000655086
0.000928924
-0.000891745
0.00089621
-0.00089573
0.000895777
-0.000895772
0.000895773
-0.000895773
0.000895773
-0.000895773
0.000895773
-0.000895773
0.000895773
-0.000895773
0.000895773
-0.000895773
0.000895773
-0.000895773
0.000895773
-0.000895773
0.000895773
-0.000895773
0.000895773
-0.000895773
0.000895773
-0.000895773
0.000895773
-0.000895773
0.000895773
-0.000895773
0.000895773
-0.000895773
0.000895773
-0.000895773
0.000895773
-0.000895773
0.000895773
-0.000895773
0.000895773
-0.000895773
0.000895773
-0.000895773
0.000895773
-0.000895773
0.000895773
-0.000895773
0.000895773
-0.000895773
0.000895773
-0.000895773
0.000895773
-0.000895773
0.000895773
-0.000895773
0.000895773
-0.000895773
0.000895773
-0.000895773
0.000895773
-0.000895773
0.000895773
-0.000895773
0.000895773
-0.000895773
0.000895773
-0.000895773
0.000895773
-0.000895773
0.000895773
-0.000895773
0.000895773
-0.000895773
0.00089577
-0.000895817
0.000895284
-0.000899801
0.000872352
-0.000983024
0.000731285
-0.000905688
0.00113425
-0.00156481
8.05631e-05
0.000405793
-0.000884703
-0.0701509
-0.0701509
1
1.07728
1.11128
1.06497
1.04059
1.00939
0.738301
0.379204
0.138949
0.0410345
0.00796796
0.00288888
-0.000875438
0.00119489
-0.00115075
0.00115614
-0.00115555
0.00115561
-0.00115561
0.00115561
-0.00115561
0.00115561
-0.00115561
0.00115561
-0.00115561
0.00115561
-0.00115561
0.00115561
-0.00115561
0.00115561
-0.00115561
0.00115561
-0.00115561
0.00115561
-0.00115561
0.00115561
-0.00115561
0.00115561
-0.00115561
0.00115561
-0.00115561
0.00115561
-0.00115561
0.00115561
-0.00115561
0.00115561
-0.00115561
0.00115561
-0.00115561
0.00115561
-0.00115561
0.00115561
-0.00115561
0.00115561
-0.00115561
0.00115561
-0.00115561
0.00115561
-0.00115561
0.00115561
-0.00115561
0.00115561
-0.00115561
0.00115561
-0.00115561
0.00115561
-0.00115561
0.00115561
-0.00115561
0.00115561
-0.00115561
0.00115561
-0.00115561
0.00115561
-0.00115561
0.00115561
-0.00115561
0.00115561
-0.00115561
0.00115561
-0.00115561
0.00115561
-0.00115561
0.00115561
-0.00115561
0.0011556
-0.00115566
0.00115504
-0.00116016
0.00113017
-0.00124584
0.000999192
-0.00113746
0.00137183
-0.00187307
0.000543963
0.000101027
-4.8817e-05
0.0719229
0.0719229
1
1.06363
1.09568
1.06003
1.0326
1.00521
0.748774
0.394278
0.147839
0.0447873
0.00880077
0.00331669
-0.00102558
0.00139584
-0.00134377
0.00135024
-0.00134952
0.00134959
-0.00134959
0.00134959
-0.00134959
0.00134959
-0.00134959
0.00134959
-0.00134959
0.00134959
-0.00134959
0.00134959
-0.00134959
0.00134959
-0.00134959
0.00134959
-0.00134959
0.00134959
-0.00134959
0.00134959
-0.00134959
0.00134959
-0.00134959
0.00134959
-0.00134959
0.00134959
-0.00134959
0.00134959
-0.00134959
0.00134959
-0.00134959
0.00134959
-0.00134959
0.00134959
-0.00134959
0.00134959
-0.00134959
0.00134959
-0.00134959
0.00134959
-0.00134959
0.00134959
-0.00134959
0.00134959
-0.00134959
0.00134959
-0.00134959
0.00134959
-0.00134959
0.00134959
-0.00134959
0.00134959
-0.00134959
0.00134959
-0.00134959
0.00134959
-0.00134959
0.00134959
-0.00134959
0.00134959
-0.00134959
0.00134959
-0.00134959
0.00134959
-0.00134959
0.00134959
-0.00134959
0.00134959
-0.00134959
0.00134958
-0.00134965
0.00134893
-0.00135468
0.0013222
-0.00144202
0.00120297
-0.00130555
0.00153778
-0.00209841
0.000936726
-0.000189085
-0.000458509
-0.0704898
-0.0704898
1
1.05161
1.08056
1.0548
1.02581
1.00044
0.75738
0.408154
0.156588
0.0485244
0.00975327
0.0036916
-0.00110048
0.00152692
-0.00146591
0.00147361
-0.00147274
0.00147283
-0.00147282
0.00147282
-0.00147282
0.00147282
-0.00147282
0.00147282
-0.00147282
0.00147282
-0.00147282
0.00147282
-0.00147282
0.00147282
-0.00147282
0.00147282
-0.00147282
0.00147282
-0.00147282
0.00147282
-0.00147282
0.00147282
-0.00147282
0.00147282
-0.00147282
0.00147282
-0.00147282
0.00147282
-0.00147282
0.00147282
-0.00147282
0.00147282
-0.00147282
0.00147282
-0.00147282
0.00147282
-0.00147282
0.00147282
-0.00147282
0.00147282
-0.00147282
0.00147282
-0.00147282
0.00147282
-0.00147282
0.00147282
-0.00147282
0.00147282
-0.00147282
0.00147282
-0.00147282
0.00147282
-0.00147282
0.00147282
-0.00147282
0.00147282
-0.00147282
0.00147282
-0.00147282
0.00147282
-0.00147282
0.00147282
-0.00147282
0.00147282
-0.00147282
0.00147282
-0.00147282
0.00147282
-0.00147282
0.00147282
-0.0014729
0.00147206
-0.00147847
0.00144359
-0.00156664
0.00133743
-0.00140565
0.00162846
-0.00223649
0.00124712
-0.000438194
0.000329648
0.071634
0.071634
1
1.04169
1.06684
1.04967
1.02026
0.995417
0.764343
0.420831
0.16514
0.0522282
0.0108153
0.00401832
-0.00110521
0.00159336
-0.0015223
0.00153142
-0.00153038
0.00153049
-0.00153047
0.00153048
-0.00153048
0.00153048
-0.00153048
0.00153048
-0.00153048
0.00153048
-0.00153048
0.00153048
-0.00153048
0.00153048
-0.00153048
0.00153048
-0.00153048
0.00153048
-0.00153048
0.00153048
-0.00153048
0.00153048
-0.00153048
0.00153048
-0.00153048
0.00153048
-0.00153048
0.00153048
-0.00153048
0.00153048
-0.00153048
0.00153048
-0.00153048
0.00153048
-0.00153048
0.00153048
-0.00153048
0.00153048
-0.00153048
0.00153048
-0.00153048
0.00153048
-0.00153048
0.00153048
-0.00153048
0.00153048
-0.00153048
0.00153048
-0.00153048
0.00153048
-0.00153048
0.00153048
-0.00153048
0.00153048
-0.00153048
0.00153048
-0.00153048
0.00153048
-0.00153048
0.00153048
-0.00153048
0.00153048
-0.00153048
0.00153048
-0.00153048
0.00153048
-0.00153048
0.00153048
-0.00153048
0.00153047
-0.00153056
0.00152961
-0.00153668
0.00149954
-0.00162486
0.00140745
-0.00144334
0.00165038
-0.00229342
0.00147511
-0.000650972
-0.000132596
-0.070737
-0.070737
1
1.0338
1.05483
1.04476
1.01586
0.99037
0.76988
0.432327
0.173449
0.0558797
0.0119782
0.0042995
-0.00104297
0.00159847
-0.00151622
0.00152695
-0.0015257
0.00152583
-0.00152582
0.00152582
-0.00152582
0.00152582
-0.00152582
0.00152582
-0.00152582
0.00152582
-0.00152582
0.00152582
-0.00152582
0.00152582
-0.00152582
0.00152582
-0.00152582
0.00152582
-0.00152582
0.00152582
-0.00152582
0.00152582
-0.00152582
0.00152582
-0.00152582
0.00152582
-0.00152582
0.00152582
-0.00152582
0.00152582
-0.00152582
0.00152582
-0.00152582
0.00152582
-0.00152582
0.00152582
-0.00152582
0.00152582
-0.00152582
0.00152582
-0.00152582
0.00152582
-0.00152582
0.00152582
-0.00152582
0.00152582
-0.00152582
0.00152582
-0.00152582
0.00152582
-0.00152582
0.00152582
-0.00152582
0.00152582
-0.00152582
0.00152582
-0.00152582
0.00152582
-0.00152582
0.00152582
-0.00152582
0.00152582
-0.00152582
0.00152582
-0.00152582
0.00152582
-0.00152582
0.00152582
-0.00152582
0.00152581
-0.00152592
0.00152485
-0.00153259
0.00149334
-0.00161995
0.00141595
-0.00142217
0.00160819
-0.00227381
0.00162043
-0.000810012
0.000600041
0.0714232
0.0714232
1
1.02764
1.04455
1.0401
1.0125
0.985489
0.774195
0.442685
0.181467
0.0594685
0.0132249
0.00454536
-0.000924777
0.00155332
-0.00145867
0.00147122
-0.00146974
0.00146989
-0.00146988
0.00146988
-0.00146988
0.00146988
-0.00146988
0.00146988
-0.00146988
0.00146988
-0.00146988
0.00146988
-0.00146988
0.00146988
-0.00146988
0.00146988
-0.00146988
0.00146988
-0.00146988
0.00146988
-0.00146988
0.00146988
-0.00146988
0.00146988
-0.00146988
0.00146988
-0.00146988
0.00146988
-0.00146988
0.00146988
-0.00146988
0.00146988
-0.00146988
0.00146988
-0.00146988
0.00146988
-0.00146988
0.00146988
-0.00146988
0.00146988
-0.00146988
0.00146988
-0.00146988
0.00146988
-0.00146988
0.00146988
-0.00146988
0.00146988
-0.00146988
0.00146988
-0.00146988
0.00146988
-0.00146988
0.00146988
-0.00146988
0.00146988
-0.00146988
0.00146988
-0.00146988
0.00146988
-0.00146988
0.00146988
-0.00146988
0.00146988
-0.00146988
0.00146988
-0.00146988
0.00146988
-0.00146988
0.00146987
-0.00147
0.00146879
-0.00147721
0.00143604
-0.00156298
0.00137367
-0.00135331
0.00151421
-0.00219037
0.00169194
-0.000927595
8.13901e-05
-0.0709151
-0.0709151
1
1.02285
1.03588
1.03569
1.01002
0.980907
0.777482
0.451955
0.189159
0.0629812
0.0145425
0.00476194
-0.000757689
0.00146499
-0.00135668
0.00137127
-0.00136952
0.00136971
-0.00136969
0.00136969
-0.00136969
0.00136969
-0.00136969
0.00136969
-0.00136969
0.00136969
-0.00136969
0.00136969
-0.00136969
0.00136969
-0.00136969
0.00136969
-0.00136969
0.00136969
-0.00136969
0.00136969
-0.00136969
0.00136969
-0.00136969
0.00136969
-0.00136969
0.00136969
-0.00136969
0.00136969
-0.00136969
0.00136969
-0.00136969
0.00136969
-0.00136969
0.00136969
-0.00136969
0.00136969
-0.00136969
0.00136969
-0.00136969
0.00136969
-0.00136969
0.00136969
-0.00136969
0.00136969
-0.00136969
0.00136969
-0.00136969
0.00136969
-0.00136969
0.00136969
-0.00136969
0.00136969
-0.00136969
0.00136969
-0.00136969
0.00136969
-0.00136969
0.00136969
-0.00136969
0.00136969
-0.00136969
0.00136969
-0.00136969
0.00136969
-0.00136969
0.00136969
-0.00136969
0.00136969
-0.00136969
0.00136968
-0.00136983
0.00136849
-0.00137757
0.00133469
-0.00146103
0.00128732
-0.0012438
0.00137666
-0.00205204
0.0016958
-0.000992545
0.000758604
0.0712748
0.0712748
1
1.01912
1.02864
1.03153
1.00828
0.976721
0.779912
0.460203
0.196489
0.0664118
0.0159115
0.00496108
-0.000554771
0.00134648
-0.00122323
0.0012401
-0.00123805
0.00123827
-0.00123825
0.00123825
-0.00123825
0.00123825
-0.00123825
0.00123825
-0.00123825
0.00123825
-0.00123825
0.00123825
-0.00123825
0.00123825
-0.00123825
0.00123825
-0.00123825
0.00123825
-0.00123825
0.00123825
-0.00123825
0.00123825
-0.00123825
0.00123825
-0.00123825
0.00123825
-0.00123825
0.00123825
-0.00123825
0.00123825
-0.00123825
0.00123825
-0.00123825
0.00123825
-0.00123825
0.00123825
-0.00123825
0.00123825
-0.00123825
0.00123825
-0.00123825
0.00123825
-0.00123825
0.00123825
-0.00123825
0.00123825
-0.00123825
0.00123825
-0.00123825
0.00123825
-0.00123825
0.00123825
-0.00123825
0.00123825
-0.00123825
0.00123825
-0.00123825
0.00123825
-0.00123825
0.00123825
-0.00123825
0.00123825
-0.00123825
0.00123825
-0.00123825
0.00123825
-0.00123825
0.00123825
-0.00123825
0.00123824
-0.0012384
0.00123692
-0.00124665
0.0012023
-0.00132713
0.00116963
-0.00110651
0.00120957
-0.00187387
0.00164508
-0.00102201
0.000187583
-0.0710365
-0.0710365
1
1.01618
1.02265
1.0276
1.00712
0.972984
0.781647
0.467499
0.203437
0.0697503
0.0173183
0.00514897
-0.000323609
0.00120529
-0.00106577
0.00108518
-0.00108278
0.00108304
-0.00108302
0.00108302
-0.00108302
0.00108302
-0.00108302
0.00108302
-0.00108302
0.00108302
-0.00108302
0.00108302
-0.00108302
0.00108302
-0.00108302
0.00108302
-0.00108302
0.00108302
-0.00108302
0.00108302
-0.00108302
0.00108302
-0.00108302
0.00108302