# vtk DataFile Version 2.0
FlowField
ASCII
DATASET STRUCTURED_GRID
DIMENSIONS 100 1 100
POINTS 10000 float
0 0 0
0.01 0 0
0.02 0 0
0.03 0 0
0.04 0 0
0.05 0 0
0.06 0 0
0.07 0 0
0.08 0 0
0.09 0 0
0.1 0 0
0.11 0 0
0.12 0 0
0.13 0 0
0.14 0 0
0.15 0 0
0.16 0 0
0.17 0 0
0.18 0 0
0.19 0 0
0.2 0 0
0.21 0 0
0.22 0 0
0.23 0 0
0.24 0 0
0.25 0 0
0.26 0 0
0.27 0 0
0.28 0 0
0.29 0 0
0.3 0 0
0.31 0 0
0.32 0 0
0.33 0 0
0.34 0 0
0.35 0 0
0.36 0 0
0.37 0 0
0.38 0 0
0.39 0 0
0.4 0 0
0.41 0 0
0.42 0 0
0.43 0 0
0.44 0 0
0.45 0 0
0.46 0 0
0.47 0 0
0.48 0 0
0.49 0 0
0.5 0 0
0.51 0 0
0.52 0 0
0.53 0 0
0.54 0 0
0.55 0 0
0.56 0 0
0.57 0 0
0.58 0 0
0.59 0 0
0.6 0 0
0.61 0 0
0.62 0 0
0.63 0 0
0.64 0 0
0.65 0 0
0.66 0 0
0.67 0 0
0.68 0 0
0.69 0 0
0.7 0 0
0.71 0 0
0.72 0 0
0.73 0 0
0.74 0 0
0.75 0 0
0.76 0 0
0.77 0 0
0.78 0 0
0.79 0 0
0.8 0 0
0.81 0 0
0.82 0 0
0.83 0 0
0.84 0 0
0.85 0 0
0.86 0 0
0.87 0 0
0.88 0 0
0.89 0 0
0.9 0 0
0.91 0 0
0.92 0 0
0.93 0 0
0.94 0 0
0.95 0 0
0.96 0 0
0.97 0 0
0.98 0 0
0.99 0 0
0 0.001 0
0.01 0.001 0
0.02 0.001 0
0.03 0.001 0
0.04 0.001 0
0.05 0.001 0
0.06 0.001 0
0.07 0.001 0
0.08 0.001 0
0.09 0.001 0
0.1 0.001 0
0.11 0.001 0
0.12 0.001 0
0.13 0.001 0
0.14 0.001 0
0.15 0.001 0
0.16 0.001 0
0.17 0.001 0
0.18 0.001 0
0.19 0.001 0
0.2 0.001 0
0.21 0.001 0
0.22 0.001 0
0.23 0.001 0
0.24 0.001 0
0.25 0.001 0
0.26 0.001 0
0.27 0.001 0
0.28 0.001 0
0.29 0.001 0
0.3 0.001 0
0.31 0.001 0
0.32 0.001 0
0.33 0.001 0
0.34 0.001 0
0.35 0.001 0
0.36 0.001 0
0.37 0.001 0
0.38 0.001 0
0.39 0.001 0
0.4 0.001 0
0.41 0.001 0
0.42 0.001 0
0.43 0.001 0
0.44 0.001 0
0.45 0.001 0
0.46 0.001 0
0.47 0.001 0
0.48 0.001 0
0.49 0.001 0
0.5 0.001 0
0.51 0.001 0
0.52 0.001 0
0.53 0.001 0
0.54 0.001 0
0.55 0.001 0
0.56 0.001 0
0.57 0.001 0
0.58 0.001 0
0.59 0.001 0
0.6 0.001 0
0.61 0.001 0
0.62 0.001 0
0.63 0.001 0
0.64 0.001 0
0.65 0.001 0
0.66 0.001 0
0.67 0.001 0
0.68 0.001 0
0.69 0.001 0
0.7 0.001 0
0.71 0.001 0
0.72 0.001 0
0.73 0.001 0
0.74 0.001 0
0.75 0.001 0
0.76 0.001 0
0.77 0.001 0
0.78 0.001 0
0.79 0.001 0
0.8 0.001 0
0.81 0.001 0
0.82 0.001 0
0.83 0.001 0
0.84 0.001 0
0.85 0.001 0
0.86 0.001 0
0.87 0.001 0
0.88 0.001 0
0.89 0.001 0
0.9 0.001 0
0.91 0.001 0
0.92 0.001 0
0.93 0.001 0
0.94 0.001 0
0.95 0.001 0
0.96 0.001 0
0.97 0.001 0
0.98 0.001 0
0.99 0.001 0
0 0.002 0
0.01 0.002 0
0.02 0.002 0
0.03 0.002 0
0.04 0.002 0
0.05 0.002 0
0.06 0.002 0
0.07 0.002 0
0.08 0.002 0
0.09 0.002 0
0.1 0.002 0
0.11 0.002 0
0.12 0.002 0
0.13 0.002 0
0.14 0.002 0
0.15 0.002 0
0.16 0.002 0
0.17 0.002 0
0.18 0.002 0
0.19 0.002 0
0.2 0.002 0
0.21 0.002 0
0.22 0.002 0
0.23 0.002 0
0.24 0.002 0
0.25 0.002 0
0.26 0.002 0
0.27 0.002 0
0.28 0.002 0
0.29 0.002 0
0.3 0.002 0
0.31 0.002 0
0.32 0.002 0
0.33 0.002 0
0.34 0.002 0
0.35 0.002 0
0.36 0.002 0
0.37 0.002 0
0.38 0.002 0
0.39 0.002 0
0.4 0.002 0
0.41 0.002 0
0.42 0.002 0
0.43 0.002 0
0.44 0.002 0
0.45 0.002 0
0.46 0.002 0
0.47 0.002 0
0.48 0.002 0
0.49 0.002 0
0.5 0.002 0
0.51 0.002 0
0.52 0.002 0
0.53 0.002 0
0.54 0.002 0
0.55 0.002 0
0.56 0.002 0
0.57 0.002 0
0.58 0.002 0
0.59 0.002 0
0.6 0.002 0
0.61 0.002 0
0.62 0.002 0
0.63 0.002 0
0.64 0.002 0
0.65 0.002 0
0.66 0.002 0
0.67 0.002 0
0.68 0.002 0
0.69 0.002 0
0.7 0.002 0
0.71 0.002 0
0.72 0.002 0
0.73 0.002 0
0.74 0.002 0
0.75 0.002 0
0.76 0.002 0
0.77 0.002 0
0.78 0.002 0
0.79 0.002 0
0.8 0.002 0
0.81 0.002 0
0.82 0.002 0
0.83 0.002 0
0.84 0.002 0
0.85 0.002 0
0.86 0.002 0
0.87 0.002 0
0.88 0.002 0
0.89 0.002 0
0.9 0.002 0
0.91 0.002 0
0.92 0.002 0
0.93 0.002 0
0.94 0.002 0
0.95 0.002 0
0.96 0.002 0
0.97 0.002 0
0.98 0.002 0
0.99 0.002 0
0 0.003 0
0.01 0.003 0
0.02 0.003 0
0.03 0.003 0
0.04 0.003 0
0.05 0.003 0
0.06 0.003 0
0.07 0.003 0
0.08 0.003 0
0.09 0.003 0
0.1 0.003 0
0.11 0.003 0
0.12 0.003 0
0.13 0.003 0
0.14 0.003 0
0.15 0.003 0
0.16 0.003 0
0.17 0.003 0
0.18 0.003 0
0.19 0.003 0
0.2 0.003 0
0.21 0.003 0
0.22 0.003 0
0.23 0.003 0
0.24 0.003 0
0.25 0.003 0
0.26 0.003 0
0.27 0.003 0
0.28 0.003 0
0.29 0.003 0
0.3 0.003 0
0.31 0.003 0
0.32 0.003 0
0.33 0.003 0
0.34 0.003 0
0.35 0.003 0
0.36 0.003 0
0.37 0.003 0
0.38 0.003 0
0.39 0.003 0
0.4 0.003 0
0.41 0.003 0
0.42 0.003 0
0.43 0.003 0
0.44 0.003 0
0.45 0.003 0
0.46 0.003 0
0.47 0.003 0
0.48 0.003 0
0.49 0.003 0
0.5 0.003 0
0.51 0.003 0
0.52 0.003 0
0.53 0.003 0
0.54 0.003 0
0.55 0.003 0
0.56 0.003 0
0.57 0.003 0
0.58 0.003 0
0.59 0.003 0
0.6 0.003 0
0.61 0.003 0
0.62 0.003 0
0.63 0.003 0
0.64 0.003 0
0.65 0.003 0
0.66 0.003 0
0.67 0.003 0
0.68 0.003 0
0.69 0.003 0
0.7 0.003 0
0.71 0.003 0
0.72 0.003 0
0.73 0.003 0
0.74 0.003 0
0.75 0.003 0
0.76 0.003 0
0.77 0.003 0
0.78 0.003 0
0.79 0.003 0
0.8 0.003 0
0.81 0.003 0
0.82 0.003 0
0.83 0.003 0
0.84 0.003 0
0.85 0.003 0
0.86 0.003 0
0.87 0.003 0
0.88 0.003 0
0.89 0.003 0
0.9 0.003 0
0.91 0.003 0
0.92 0.003 0
0.93 0.003 0
0.94 0.003 0
0.95 0.003 0
0.96 0.003 0
0.97 0.003 0
0.98 0.003 0
0.99 0.003 0
0 0.004 0
0.01 0.004 0
0.02 0.004 0
0.03 0.004 0
0.04 0.004 0
0.05 0.004 0
0.06 0.004 0
0.07 0.004 0
0.08 0.004 0
0.09 0.004 0
0.1 0.004 0
0.11 0.004 0
0.12 0.004 0
0.13 0.004 0
0.14 0.004 0
0.15 0.004 0
0.16 0.004 0
0.17 0.004 0
0.18 0.004 0
0.19 0.004 0
0.2 0.004 0
0.21 0.004 0
0.22 0.004 0
0.23 0.004 0
0.24 0.004 0
0.25 0.004 0
0.26 0.004 0
0.27 0.004 0
0.28 0.004 0
0.29 0.004 0
0.3 0.004 0
0.31 0.004 0
0.32 0.004 0
0.33 0.004 0
0.34 0.004 0
0.35 0.004 0
0.36 0.004 0
0.37 0.004 0
0.38 0.004 0
0.39 0.004 0
0.4 0.004 0
0.41 0.004 0
0.42 0.004 0
0.43 0.004 0
0.44 0.004 0
0.45 0.004 0
0.46 0.004 0
0.47 0.004 0
0.48 0.004 0
0.49 0.004 0
0.5 0.004 0
0.51 0.004 0
0.52 0.004 0
0.53 0.004 0
0.54 0.004 0
0.55 0.004 0
0.56 0.004 0
0.57 0.004 0
0.58 0.004 0
0.59 0.004 0
0.6 0.004 0
0.61 0.004 0
0.62 0.004 0
0.63 0.004 0
0.64 0.004 0
0.65 0.004 0
0.66 0.004 0
0.67 0.004 0
0.68 0.004 0
0.69 0.004 0
0.7 0.004 0
0.71 0.004 0
0.72 0.004 0
0.73 0.004 0
0.74 0.004 0
0.75 0.004 0
0.76 0.004 0
0.77 0.004 0
0.78 0.004 0
0.79 0.004 0
0.8 0.004 0
0.81 0.004 0
0.82 0.004 0
0.83 0.004 0
0.84 0.004 0
0.85 0.004 0
0.86 0.004 0
0.87 0.004 0
0.88 0.004 0
0.89 0.004 0
0.9 0.004 0
0.91 0.004 0
0.92 0.004 0
0.93 0.004 0
0.94 0.004 0
0.95 0.004 0
0.96 0.004 0
0.97 0.004 0
0.98 0.004 0
0.99 0.004 0
0 0.005 0
0.01 0.005 0
0.02 0.005 0
0.03 0.005 0
0.04 0.005 0
0.05 0.005 0
0.06 0.005 0
0.07 0.005 0
0.08 0.005 0
0.09 0.005 0
0.1 0.005 0
0.11 0.005 0
0.12 0.005 0
0.13 0.005 0
0.14 0.005 0
0.15 0.005 0
0.16 0.005 0
0.17 0.005 0
0.18 0.005 0
0.19 0.005 0
0.2 0.005 0
0.21 0.005 0
0.22 0.005 0
0.23 0.005 0
0.24 0.005 0
0.25 0.005 0
0.26 0.005 0
0.27 0.005 0
0.28 0.005 0
0.29 0.005 0
0.3 0.005 0
0.31 0.005 0
0.32 0.005 0
0.33 0.005 0
0.34 0.005 0
0.35 0.005 0
0.36 0.005 0
0.37 0.005 0
0.38 0.005 0
0.39 0.005 0
0.4 0.005 0
0.41 0.005 0
0.42 0.005 0
0.43 0.005 0
0.44 0.005 0
0.45 0.005 0
0.46 0.005 0
0.47 0.005 0
0.48 0.005 0
0.49 0.005 0
0.5 0.005 0
0.51 0.005 0
0.52 0.005 0
0.53 0.005 0
0.54 0.005 0
0.55 0.005 0
0.56 0.005 0
0.57 0.005 0
0.58 0.005 0
0.59 0.005 0
0.6 0.005 0
0.61 0.005 0
0.62 0.005 0
0.63 0.005 0
0.64 0.005 0
0.65 0.005 0
0.66 0.005 0
0.67 0.005 0
0.68 0.005 0
0.69 0.005 0
0.7 0.005 0
0.71 0.005 0
0.72 0.005 0
0.73 0.005 0
0.74 0.005 0
0.75 0.005 0
0.76 0.005 0
0.77 0.005 0
0.78 0.005 0
0.79 0.005 0
0.8 0.005 0
0.81 0.005 0
0.82 0.005 0
0.83 0.005 0
0.84 0.005 0
0.85 0.005 0
0.86 0.005 0
0.87 0.005 0
0.88 0.005 0
0.89 0.005 0
0.9 0.005 0
0.91 0.005 0
0.92 0.005 0
0.93 0.005 0
0.94 0.005 0
0.95 0.005 0
0.96 0.005 0
0.97 0.005 0
0.98 0.005 0
0.99 0.005 0
0 0.006 0
0.01 0.006 0
0.02 0.006 0
0.03 0.006 0
0.04 0.006 0
0.05 0.006 0
0.06 0.006 0
0.07 0.006 0
0.08 0.006 0
0.09 0.006 0
0.1 0.006 0
0.11 0.006 0
0.12 0.006 0
0.13 0.006 0
0.14 0.006 0
0.15 0.006 0
0.16 0.006 0
0.17 0.006 0
0.18 0.006 0
0.19 0.006 0
0.2 0.006 0
0.21 0.006 0
0.22 0.006 0
0.23 0.006 0
0.24 0.006 0
0.25 0.006 0
0.26 0.006 0
0.27 0.006 0
0.28 0.006 0
0.29 0.006 0
0.3 0.006 0
0.31 0.006 0
0.32 0.006 0
0.33 0.006 0
0.34 0.006 0
0.35 0.006 0
0.36 0.006 0
0.37 0.006 0
0.38 0.006 0
0.39 0.006 0
0.4 0.006 0
0.41 0.006 0
0.42 0.006 0
0.43 0.006 0
0.44 0.006 0
0.45 0.006 0
0.46 0.006 0
0.47 0.006 0
0.48 0.006 0
0.49 0.006 0
0.5 0.006 0
0.51 0.006 0
0.52 0.006 0
0.53 0.006 0
0.54 0.006 0
0.55 0.006 0
0.56 0.006 0
0.57 0.006 0
0.58 0.006 0
0.59 0.006 0
0.6 0.006 0
0.61 0.006 0
0.62 0.006 0
0.63 0.006 0
0.64 0.006 0
0.65 0.006 0
0.66 0.006 0
0.67 0.006 0
0.68 0.006 0
0.69 0.006 0
0.7 0.006 0
0.71 0.006 0
0.72 0.006 0
0.73 0.006 0
0.74 0.006 0
0.75 0.006 0
0.76 0.006 0
0.77 0.006 0
0.78 0.006 0
0.79 0.006 0
0.8 0.006 0
0.81 0.006 0
0.82 0.006 0
0.83 0.006 0
0.84 0.006 0
0.85 0.006 0
0.86 0.006 0
0.87 0.006 0
0.88 0.006 0
0.89 0.006 0
0.9 0.006 0
0.91 0.006 0
0.92 0.006 0
0.93 0.006 0
0.94 0.006 0
0.95 0.006 0
0.96 0.006 0
0.97 0.006 0
0.98 0.006 0
0.99 0.006 0
0 0.007 0
0.01 0.007 0
0.02 0.007 0
0.03 0.007 0
0.04 0.007 0
0.05 0.007 0
0.06 0.007 0
0.07 0.007 0
0.08 0.007 0
0.09 0.007 0
0.1 0.007 0
0.11 0.007 0
0.12 0.007 0
0.13 0.007 0
0.14 0.007 0
0.15 0.007 0
0.16 0.007 0
0.17 0.007 0
0.18 0.007 0
0.19 0.007 0
0.2 0.007 0
0.21 0.007 0
0.22 0.007 0
0.23 0.007 0
0.24 0.007 0
0.25 0.007 0
0.26 0.007 0
0.27 0.007 0
0.28 0.007 0
0.29 0.007 0
0.3 0.007 0
0.31 0.007 0
0.32 0.007 0
0.33 0.007 0
0.34 0.007 0
0.35 0.007 0
0.36 0.007 0
0.37 0.007 0
0.38 0.007 0
0.39 0.007 0
0.4 0.007 0
0.41 0.007 0
0.42 0.007 0
0.43 0.007 0
0.44 0.007 0
0.45 0.007 0
0.46 0.007 0
0.47 0.007 0
0.48 0.007 0
0.49 0.007 0
0.5 0.007 0
0.51 0.007 0
0.52 0.007 0
0.53 0.007 0
0.54 0.007 0
0.55 0.007 0
0.56 0.007 0
0.57 0.007 0
0.58 0.007 0
0.59 0.007 0
0.6 0.007 0
0.61 0.007 0
0.62 0.007 0
0.63 0.007 0
0.64 0.007 0
0.65 0.007 0
0.66 0.007 0
0.67 0.007 0
0.68 0.007 0
0.69 0.007 0
0.7 0.007 0
0.71 0.007 0
0.72 0.007 0
0.73 0.007 0
0.74 0.007 0
0.75 0.007 0
0.76 0.007 0
0.77 0.007 0
0.78 0.007 0
0.79 0.007 0
0.8 0.007 0
0.81 0.007 0
0.82 0.007 0
0.83 0.007 0
0.84 0.007 0
0.85 0.007 0
0.86 0.007 0
0.87 0.007 0
0.88 0.007 0
0.89 0.007 0
0.9 0.007 0
0.91 0.007 0
0.92 0.007 0
0.93 0.007 0
0.94 0.007 0
0.95 0.007 0
0.96 0.007 0
0.97 0.007 0
0.98 0.007 0
[...]
POINT_DATA 10000

SCALARS vel_X float 1
LOOKUP_TABLE default
0
0
0
0
0
0
0
0
0
0
0
0
0
0
0
0
0
0
0
0
0
0
0
0
0
0
0
0
0
0
0
0
0
0
0
0
0
0
0
0
0
0
0
0
0
0
0
0
0
0
0
0
0
0
0
0
0
0
0
0
0
0
0
0
0
0
0
0
0
0
0
0
0
0
0
0
0
0
0
0
0
0
0
0
0
0
0
0
0
0
0
0
0
0
0
0
0
0
0
0
1
0.324495
0.218626
0.176392
0.162484
0.175902
0.138157
0.186497
0.157057
0.162165
0.199748
0.186535
0.176899
0.241553
0.244342
0.242289
0.286541
0.364016
0.344046
0.258778
0.142709
0.0739637
0.0243698
0.0142317
-0.000860601
0.00500247
-0.00384323
0.00413869
-0.00406963
0.00408452
-0.00408154
0.00408209
-0.004082
0.00408201
-0.00408201
0.00408201
-0.00408201
0.00408201
-0.00408201
0.00408201
-0.00408201
0.00408201
-0.00408201
0.00408201
-0.00408201
0.00408201
-0.00408201
0.00408201
-0.00408201
0.00408201
-0.00408201
0.00408201
-0.00408201
0.00408201
-0.00408201
0.00408201
-0.00408201
0.00408201
-0.00408201
0.00408201
-0.00408201
0.00408201
-0.00408201
0.00408201
-0.00408201
0.00408201
-0.00408201
0.00408201
-0.00408201
0.00408201
-0.00408201
0.00408201
-0.00408203
0.00408191
-0.00408252
0.00407993
-0.004089
0.00406387
-0.00411506
0.00405066
-0.0040678
0.00413671
-0.00415501
0.00379084
-0.0040744
0.00469036
-0.0042912
0.00301292
-0.00305108
0.00452899
-0.00612155
0.00605107
-0.00489885
0.00299193
-0.00175636
0.000494564
-0.000575024
-0.00285887
-0.153366
-0.153366
1
0.568555
0.413044
0.341696
0.321594
0.332132
0.286938
0.350251
0.311138
0.325723
0.377291
0.360055
0.359672
0.450745
0.456005
0.460963
0.529056
0.618561
0.558114
0.403951
0.220519
0.110931
0.0378187
0.0201249
-0.000164369
0.00632307
-0.00460432
0.0050415
-0.00493946
0.00496144
-0.00495705
0.00495786
-0.00495772
0.00495774
-0.00495774
0.00495774
-0.00495774
0.00495774
-0.00495774
0.00495774
-0.00495774
0.00495774
-0.00495774
0.00495774
-0.00495774
0.00495774
-0.00495774
0.00495774
-0.00495774
0.00495774
-0.00495774
0.00495774
-0.00495774
0.00495774
-0.00495774
0.00495774
-0.00495774
0.00495774
-0.00495774
0.00495774
-0.00495774
0.00495774
-0.00495774
0.00495774
-0.00495774
0.00495774
-0.00495774
0.00495774
-0.00495774
0.00495774
-0.00495774
0.00495774
-0.00495777
0.00495759
-0.00495849
0.00495465
-0.00496817
0.00493034
-0.00500895
0.0049048
-0.00494805
0.0050321
-0.00505269
0.00453483
-0.00501217
0.00578856
-0.00513984
0.00344004
-0.00373291
0.00574742
-0.00773646
0.0073387
-0.00574948
0.00318149
-0.00179498
0.000150455
-0.000611389
-0.00128437
0.210671
0.210671
1
0.746401
0.579827
0.496733
0.466839
0.477306
0.430705
0.494598
0.460278
0.476488
0.532281
0.521741
0.525542
0.622851
0.633782
0.641788
0.706061
0.778436
0.682854
0.48596
0.265273
0.13208
0.0462073
0.0233561
0.000673339
0.00676706
-0.00468222
0.00521486
-0.00508996
0.00511699
-0.00511156
0.00511258
-0.0051124
0.00511243
-0.00511242
0.00511242
-0.00511242
0.00511242
-0.00511242
0.00511242
-0.00511242
0.00511242
-0.00511242
0.00511242
-0.00511242
0.00511242
-0.00511242
0.00511242
-0.00511242
0.00511242
-0.00511242
0.00511242
-0.00511242
0.00511242
-0.00511242
0.00511242
-0.00511242
0.00511242
-0.00511242
0.00511242
-0.00511242
0.00511242
-0.00511242
0.00511242
-0.00511242
0.00511242
-0.00511242
0.00511242
-0.00511242
0.00511242
-0.00511242
0.00511242
-0.00511246
0.00511224
-0.00511333
0.00510869
-0.00512492
0.00507983
-0.00517321
0.00504825
-0.0051083
0.00518528
-0.00522895
0.00464157
-0.00517914
0.00597615
-0.0053375
0.00354283
-0.0038409
0.00580411
-0.00790613
0.00753799
-0.00613773
0.00350698
-0.00223806
0.000336867
-0.000947184
-0.00244062
-0.182777
-0.182777
1
0.872411
0.719374
0.637587
0.596136
0.611153
0.56171
0.622421
0.597844
0.608839
0.665724
0.665462
0.664475
0.759138
0.775216
0.778106
0.821175
0.870284
0.752848
0.534887
0.293987
0.146869
0.0523253
0.0259827
0.00127772
0.00722971
-0.00482706
0.00544571
-0.00529952
0.0053314
-0.00532495
0.00532617
-0.00532595
0.00532599
-0.00532598
0.00532599
-0.00532598
0.00532598
-0.00532598
0.00532598
-0.00532598
0.00532598
-0.00532598
0.00532598
-0.00532598
0.00532598
-0.00532598
0.00532598
-0.00532598
0.00532598
-0.00532598
0.00532598
-0.00532598
0.00532598
-0.00532598
0.00532598
-0.00532598
0.00532598
-0.00532598
0.00532598
-0.00532598
0.00532598
-0.00532598
0.00532598
-0.00532598
0.00532598
-0.00532598
0.00532598
-0.00532598
0.00532598
-0.00532599
0.00532598
-0.00532602
0.00532577
-0.00532704
0.00532171
-0.00534004
0.00528997
-0.00539182
0.00525793
-0.00532332
0.00538871
-0.00547282
0.00484209
-0.00535094
0.00615858
-0.00569077
0.00386888
-0.00395132
0.00564519
-0.00788644
0.00783086
-0.00687979
0.00435836
-0.00317506
0.000982909
-0.00147686
-0.00010782
0.19722
0.19722
1
0.959437
0.833205
0.760991
0.709638
0.730655
0.677624
0.733813
0.719004
0.721483
0.777512
0.786167
0.774917
0.862212
0.880622
0.872576
0.88906
0.91846
0.791835
0.566864
0.315361
0.159077
0.0576962
0.0284451
0.00185377
0.00769696
-0.00497348
0.00568134
-0.00551255
0.00554968
-0.00554211
0.00554355
-0.00554329
0.00554334
-0.00554333
0.00554333
-0.00554333
0.00554333
-0.00554333
0.00554333
-0.00554333
0.00554333
-0.00554333
0.00554333
-0.00554333
0.00554333
-0.00554333
0.00554333
-0.00554333
0.00554333
-0.00554333
0.00554333
-0.00554333
0.00554333
-0.00554333
0.00554333
-0.00554333
0.00554333
-0.00554333
0.00554333
-0.00554333
0.00554333
-0.00554333
0.00554333
-0.00554333
0.00554333
-0.00554333
0.00554333
-0.00554333
0.00554333
-0.00554333
0.00554332
-0.00554338
0.00554307
-0.00554454
0.00553853
-0.00555879
0.00550466
-0.00561187
0.00547587
-0.00553815
0.00559349
-0.00572573
0.00506065
-0.0054957
0.00632876
-0.00609496
0.00425029
-0.00402433
0.00540163
-0.00780841
0.00815928
-0.00770442
0.00533701
-0.00420242
0.00174567
-0.00202308
-0.0011665
-0.189026
-0.189026
1
1.01797
0.923359
0.865558
0.807522
0.833545
0.778157
0.827962
0.821726
0.814776
0.867549
0.882347
0.859246
0.935704
0.953947
0.933474
0.925558
0.94078
0.814121
0.590027
0.33355
0.170135
0.0630846
0.0307449
0.00264103
0.00799854
-0.00493283
0.00573761
-0.00554388
0.00558689
-0.00557804
0.00557974
-0.00557943
0.00557948
-0.00557948
0.00557948
-0.00557948
0.00557948
-0.00557948
0.00557948
-0.00557948
0.00557948
-0.00557948
0.00557948
-0.00557948
0.00557948
-0.00557948
0.00557948
-0.00557948
0.00557948
-0.00557948
0.00557948
-0.00557948
0.00557948
-0.00557948
0.00557948
-0.00557948
0.00557948
-0.00557948
0.00557948
-0.00557948
0.00557948
-0.00557948
0.00557948
-0.00557948
0.00557948
-0.00557948
0.00557948
-0.00557948
0.00557948
-0.00557948
0.00557947
-0.00557953
0.00557918
-0.00558085
0.00557414
-0.00559631
0.00553851
-0.00564943
0.00551519
-0.00556938
0.00561653
-0.00579817
0.00510667
-0.00544784
0.00630993
-0.00632154
0.00447083
-0.00393132
0.00498353
-0.00751482
0.00825168
-0.00827548
0.00610917
-0.00504616
0.00241751
-0.00245201
0.000999256
0.194186
0.194186
1
1.05605
0.992357
0.951361
0.889953
0.919072
0.86357
0.904684
0.905969
0.889819
0.936809
0.955411
0.921316
0.984392
1.00148
0.970453
0.943327
0.948748
0.827581
0.608331
0.350364
0.180601
0.0687928
0.0328628
0.00374582
0.00805346
-0.00461702
0.00552838
-0.00530684
0.00535649
-0.00534618
0.00534817
-0.00534781
0.00534787
-0.00534786
0.00534786
-0.00534786
0.00534786
-0.00534786
0.00534786
-0.00534786
0.00534786
-0.00534786
0.00534786
-0.00534786
0.00534786
-0.00534786
0.00534786
-0.00534786
0.00534786
-0.00534786
0.00534786
-0.00534786
0.00534786
-0.00534786
0.00534786
-0.00534786
0.00534786
-0.00534786
0.00534786
-0.00534786
0.00534786
-0.00534786
0.00534786
-0.00534786
0.00534786
-0.00534786
0.00534786
-0.00534786
0.00534786
-0.00534787
0.00534785
-0.00534793
0.00534753
-0.00534941
0.00534196
-0.00536606
0.00530482
-0.00541842
0.00528822
-0.0053319
0.00537129
-0.0056008
0.00489321
-0.00513171
0.00601198
-0.00626109
0.0044423
-0.00362197
0.00433619
-0.00690866
0.00796967
-0.00844843
0.00654674
-0.00561286
0.00292706
-0.0027696
-0.000298246
-0.190636
-0.190636
1
1.07955
1.04308
1.01936
0.95746
0.98768
0.934427
0.96483
0.972834
0.948299
0.987479
1.00838
0.965412
1.01372
1.03002
0.991895
0.950991
0.949198
0.836285
0.623653
0.366502
0.190707
0.0748889
0.0348244
0.00517229
0.00786737
-0.00402843
0.00505706
-0.00480456
0.00486168
-0.00484971
0.00485204
-0.00485162
0.00485169
-0.00485168
0.00485168
-0.00485168
0.00485168
-0.00485168
0.00485168
-0.00485168
0.00485168
-0.00485168
0.00485168
-0.00485168
0.00485168
-0.00485168
0.00485168
-0.00485168
0.00485168
-0.00485168
0.00485168
-0.00485168
0.00485168
-0.00485168
0.00485168
-0.00485168
0.00485168
-0.00485168
0.00485168
-0.00485168
0.00485168
-0.00485168
0.00485168
-0.00485168
0.00485168
-0.00485168
0.00485168
-0.00485168
0.00485168
-0.00485168
0.00485167
-0.00485175
0.00485129
-0.00485342
0.00484518
-0.00487125
0.00480674
-0.00492222
0.00479754
-0.00482992
0.00486052
-0.00513548
0.00442377
-0.00455589
0.00543466
-0.00590782
0.00416885
-0.00311211
0.00347164
-0.00599216
0.00730648
-0.00821541
0.0066389
-0.00589598
0.00326115
-0.00295215
0.00164695
0.193215
0.193215
1
1.0927
1.07852
1.07107
1.01107
1.04056
0.991668
1.01008
1.02405
0.992389
1.02254
1.04487
0.995749
1.02905
1.0456
1.00395
0.95382
0.945952
0.842261
0.636877
0.382174
0.200558
0.0813456
0.0366775
0.0068809
0.00748395
-0.00320878
0.00436619
-0.00407926
0.00414478
-0.00413093
0.00413366
-0.00413315
0.00413324
-0.00413323
0.00413323
-0.00413323
0.00413323
-0.00413323
0.00413323
-0.00413323
0.00413323
-0.00413323
0.00413323
-0.00413323
0.00413323
-0.00413323
0.00413323
-0.00413323
0.00413323
-0.00413323
0.00413323
-0.00413323
0.00413323
-0.00413323
0.00413323
-0.00413323
0.00413323
-0.00413323
0.00413323
-0.00413323
0.00413323
-0.00413323
0.00413323
-0.00413323
0.00413323
-0.00413323
0.00413323
-0.00413323
0.00413323
-0.00413323
0.00413321
-0.00413331
0.00413279
-0.00413517
0.0041261
-0.00415417
0.00408658
-0.00420321
0.00408514
-0.00410639
0.00412619
-0.00444393
0.00374043
-0.00376555
0.00461974
-0.005301
0.00368903
-0.0024437
0.00243782
-0.00482107
0.00631618
-0.00762137
0.00641259
-0.00591201
0.00341963
-0.00303492
0.000156971
-0.191304
-0.191304
1
1.09854
1.1016
1.10834
1.05222
1.07937
1.03659
1.04257
1.06171
1.02453
1.04525
1.06844
1.01611
1.03502
1.05284
1.01064
0.954759
0.941066
0.84651
0.648434
0.397401
0.210202
0.0881037
0.0384736
0.00882013
0.00695674
-0.00221014
0.00350851
-0.00318345
0.00325839
-0.0032424
0.00324557
-0.00324498
0.00324508
-0.00324507
0.00324507
-0.00324507
0.00324507
-0.00324507
0.00324507
-0.00324507
0.00324507
-0.00324507
0.00324507
-0.00324507
0.00324507
-0.00324507
0.00324507
-0.00324507
0.00324507
-0.00324507
0.00324507
-0.00324507
0.00324507
-0.00324507
0.00324507
-0.00324507
0.00324507
-0.00324507
0.00324507
-0.00324507
0.00324507
-0.00324507
0.00324507
-0.00324507
0.00324507
-0.00324507
0.00324507
-0.00324507
0.00324507
-0.00324507
0.00324505
-0.00324517
0.00324457
-0.00324724
0.00323729
-0.00326738
0.0031969
-0.00331399
0.00320336
-0.00321424
0.00322081
-0.00357836
0.00289488
-0.00281521
0.00362159
-0.0044921
0.0030478
-0.00166394
0.00129414
-0.0034684
0.00507021
-0.00672424
0.00590305
-0.00568174
0.00340576
-0.00299371
0.00193166
0.19271
0.19271
1
1.09926
1.11496
1.13321
1.0826
1.10603
1.07074
1.0646
1.08801
1.04719
1.05868
1.08232
1.02961
1.03526
1.05498
1.01437
0.955309
0.935629
0.849545
0.658558
0.412127
0.219664
0.0950936
0.040263
0.010936
0.00634066
-0.0010862
0.00253841
-0.00217123
0.00225668
-0.00223828
0.00224196
-0.00224127
0.0022414
-0.00224138
0.00224138
-0.00224138
0.00224138
-0.00224138
0.00224138
-0.00224138
0.00224138
-0.00224138
0.00224138
-0.00224138
0.00224138
-0.00224138
0.00224138
-0.00224138
0.00224138
-0.00224138
0.00224138
-0.00224138
0.00224138
-0.00224138
0.00224138
-0.00224138
0.00224138
-0.00224138
0.00224138
-0.00224138
0.00224138
-0.00224138
0.00224138
-0.00224138
0.00224138
-0.00224138
0.00224138
-0.00224138
0.00224138
-0.00224138
0.00224136
-0.00224149
0.00224081
-0.00224378
0.00223293
-0.00226503
0.0021919
-0.00230874
0.00220621
-0.00220784
0.00219868
-0.00259265
0.00194006
-0.00176061
0.00249744
-0.00353485
0.00229024
-0.000819903
0.000101295
-0.00200953
0.00364322
-0.00558604
0.00515067
-0.00523099
0.0032281
-0.00286315
0.000286287
-0.191702
-0.191702
1
1.09648
1.12094
1.14777
1.10393
1.12258
1.09575
1.07842
1.10512
1.06261
1.06553
1.08917
1.03863
1.03237
1.05408
1.01646
0.956142
0.930229
0.851646
0.667405
0.426278
0.228962
0.102242
0.0420949
0.0131738
0.00569076
0.000109071
0.00151048
-0.00109693
0.00119409
-0.00117298
0.00117724
-0.00117644
0.00117658
-0.00117655
0.00117656
-0.00117656
0.00117656
-0.00117656
0.00117656
-0.00117656
0.00117656
-0.00117656
0.00117656
-0.00117656
0.00117656
-0.00117656
0.00117656
-0.00117656
0.00117656
-0.00117656
0.00117656
-0.00117656
0.00117656
-0.00117656
0.00117656
-0.00117656
0.00117656
-0.00117656
0.00117656
-0.00117656
0.00117656
-0.00117656
0.00117656
-0.00117656
0.00117656
-0.00117656
0.00117656
-0.00117656
0.00117656
-0.00117656
0.00117654
-0.00117669
0.00117592
-0.00117921
0.00116742
-0.00120151
0.001126
-0.00124192
0.00114798
-0.00114173
0.00111451
-0.00154095
0.000928957
-0.000657387
0.00130534
-0.0024838
0.00146184
4.20036e-05
-0.00108196
-0.000517932
0.00211056
-0.00427309
0.00420305
-0.00459311
0.00290335
-0.0026244
0.00192034
0.192396
0.192396
1
1.09139
1.12154
1.15405
1.1179
1.13103
1.11321
1.08609
1.11503
1.07271
1.06796
1.09113
1.0448
1.02806
1.05142
1.01759
0.957486
0.925193
0.85299
0.675107
0.439774
0.238111
0.109475
0.0440165
0.0154793
0.00506109
0.00132251
0.000478511
-1.40646e-05
0.000124211
-0.000100061
0.000104981
-0.000104046
0.000104212
-0.000104184
0.000104189
-0.000104188
0.000104188
-0.000104188
0.000104188
-0.000104188
0.000104188
-0.000104188
0.000104188
-0.000104188
0.000104188
-0.000104188
0.000104188
-0.000104188
0.000104188
-0.000104188
0.000104188
-0.000104188
0.000104188
-0.000104188
0.000104188
-0.000104188
0.000104188
-0.000104188
0.000104188
-0.000104188
0.000104188
-0.000104188
0.000104188
-0.000104188
0.000104188
-0.000104188
0.000104188
-0.000104188
0.000104188
-0.000104192
0.000104162
-0.000104335
0.000103477
-0.000107105
9.43502e-05
-0.000130403
5.27948e-05
-0.000167106
8.20966e-05
-6.95501e-05
2.22226e-05
-0.000476648
-8.63213e-05
0.000440054
0.000102615
-0.00139347
0.000608235
0.000877057
-0.00220078
0.000936833
0.00054689
-0.00285521
0.00311458
-0.00380871
0.00245564
-0.0023207
0.000149832
-0.191945
-0.191945
1
1.08486
1.11838
1.15393
1.12604
1.13325
1.12456
1.08938
1.11948
1.07903
1.06764
1.08979
1.04917
1.02341
1.04774
1.01812
0.959349
0.920714
0.853707
0.681788
0.452545
0.247124
0.116721
0.046071
0.0178007
0.00450255
0.00250397
-0.000506791
0.00102692
-0.000902396
0.000929949
-0.000924287
0.000925372
-0.000925177
0.00092521
-0.000925205
0.000925206
-0.000925206
0.000925206
-0.000925206
0.000925206
-0.000925206
0.000925206
-0.000925206
0.000925206
-0.000925206
0.000925206
-0.000925206
0.000925206
-0.000925206
0.000925206
-0.000925206
0.000925206
-0.000925206
0.000925206
-0.000925206
0.000925206
-0.000925206
0.000925206
-0.000925206
0.000925206
-0.000925206
0.000925206
-0.000925206
0.000925206
-0.000925206
0.000925206
-0.000925206
0.000925206
-0.000925206
0.000925201
-0.000925235
0.00092504
-0.000925999
0.000922012
-0.000935757
0.00089779
-0.000977177
0.000865122
-0.000941012
0.000958178
-0.00102724
0.000549859
-0.00105674
0.00148078
-0.00105646
-0.000316222
-0.000226696
0.00164431
-0.00320649
0.00229155
-0.000976512
-0.0014027
0.00194349
-0.00292289
0.00191472
-0.00194177
0.00167832
0.192216
0.192216
1
1.07756
1.11278
1.14905
1.12966
1.1309
1.13106
1.08974
1.11991
1.0827
1.06576
1.0863
1.05237
1.01905
1.04348
1.01819
0.961637
0.916907
0.853902
0.687564
0.46453
0.256009
0.123913
0.0482954
0.0200919
0.00405992
0.00360923
-0.00140066
0.00198153
-0.00184114
0.00187248
-0.00186599
0.00186724
-0.00186702
0.00186705
-0.00186705
0.00186705
-0.00186705
0.00186705
-0.00186705
0.00186705
-0.00186705
0.00186705
-0.00186705
0.00186705
-0.00186705
0.00186705
-0.00186705
0.00186705
-0.00186705
0.00186705
-0.00186705
0.00186705
-0.00186705
0.00186705
-0.00186705
0.00186705
-0.00186705
0.00186705
-0.00186705
0.00186705
-0.00186705
0.00186705
-0.00186705
0.00186705
-0.00186705
0.00186705
-0.00186705
0.00186705
-0.00186705
0.00186704
-0.00186708
0.00186686
-0.00186793
0.00186356
-0.00187832
0.0018385
-0.00191933
0.00181015
-0.00187689
0.0018969
-0.00198889
0.001494
-0.00193918
0.00242027
-0.00212378
0.000700689
-0.00100364
0.00230919
-0.00405913
0.00349237
-0.00239551
1.79089e-05
0.000747771
-0.0019817
0.00131227
-0.00153706
-0.000176997
-0.19207
-0.19207
1
1.06997
1.10575
1.14086
1.12985
1.12536
1.13375
1.08828
1.11746
1.08456
1.06314
1.08149
1.0547
1.01529
1.0389
1.01789
0.964222
0.913836
0.853673
0.69255
0.475688
0.26477
0.130993
0.0507169
0.0223152
0.00376924
0.00460265
-0.00216694
0.00281386
-0.00265603
0.00269159
-0.00268416
0.00268561
-0.00268534
0.00268539
-0.00268538
0.00268538
-0.00268538
0.00268538
-0.00268538
0.00268538
-0.00268538
0.00268538
-0.00268538
0.00268538
-0.00268538
0.00268538
-0.00268538
0.00268538
-0.00268538
0.00268538
-0.00268538
0.00268538
-0.00268538
0.00268538
-0.00268538
0.00268538
-0.00268538
0.00268538
-0.00268538
0.00268538
-0.00268538
0.00268538
-0.00268538
0.00268538
-0.00268538
0.00268538
-0.00268538
0.00268538
-0.00268538
0.00268537
-0.00268542
0.00268517
-0.00268635
0.00268159
-0.00269737
0.00265578
-0.00273771
0.00263198
-0.00268967
0.00271073
-0.00282636
0.00231971
-0.00269908
0.00322301
-0.00306012
0.00161788
-0.00169045
0.00284573
-0.00472966
0.00449747
-0.0036566
0.00134786
-0.000418683
-0.00102886
0.000678985
-0.00109851
0.00129124
0.192138
0.192138
1
1.06242
1.09805
1.13054
1.1275
1.11773
1.13342
1.08581
1.11304
1.08516
1.06029
1.07591
1.05632
1.01228
1.03418
1.01726
0.966966
0.911527
0.853108
0.696852
0.485992
0.273405
0.137915
0.0533527
0.0244422
0.00365644
0.00545847
-0.00277945
0.003498
-0.00332103
0.00336127
-0.00335278
0.00335445
-0.00335414
0.00335419
-0.00335419
0.00335419
-0.00335419
0.00335419
-0.00335419
0.00335419
-0.00335419
0.00335419
-0.00335419
0.00335419
-0.00335419
0.00335419
-0.00335419
0.00335419
-0.00335419
0.00335419
-0.00335419
0.00335419
-0.00335419
0.00335419
-0.00335419
0.00335419
-0.00335419
0.00335419
-0.00335419
0.00335419
-0.00335419
0.00335419
-0.00335419
0.00335419
-0.00335419
0.00335419
-0.00335419
0.00335419
-0.00335419
0.00335418
-0.00335423
0.00335395
-0.00335526
0.00335009
-0.00336689
0.00332363
-0.00340629
0.00330454
-0.00335343
0.00337375
-0.00351323
0.00300075
-0.00331174
0.00386384
-0.00383659
0.00240533
-0.00226348
0.00323746
-0.00520072
0.00527841
-0.00471891
0.00253882
-0.00150863
-0.000103815
4.18637e-05
-0.000673062
-0.000601469
-0.192109
-0.192109
1
1.05514
1.0902
1.11905
1.12329
1.10886
1.1307
1.08286
1.1073
1.08486
1.05751
1.06997
1.05728
1.01005
1.02944
1.01634
0.969744
0.909978
0.852292
0.700567
0.495435
0.281903
0.144641
0.0562102
0.0264535
0.00373807
0.00616012
-0.00322123
0.0040172
-0.00381932
0.00386472
-0.00385506
0.00385698
-0.00385662
0.00385668
-0.00385667
0.00385667
-0.00385667
0.00385667
-0.00385667
0.00385667
-0.00385667
0.00385667
-0.00385667
0.00385667
-0.00385667
0.00385667
-0.00385667
0.00385667
-0.00385667
0.00385667
-0.00385667
0.00385667
-0.00385667
0.00385667
-0.00385667
0.00385667
-0.00385667
0.00385667
-0.00385667
0.00385667
-0.00385667
0.00385667
-0.00385667
0.00385667
-0.00385667
0.00385667
-0.00385667
0.00385667
-0.00385667
0.00385666
-0.00385672
0.00385641
-0.00385785
0.00385226
-0.00387008
0.00382527
-0.00390828
0.00381098
-0.00385146
0.00386928
-0.00403236
0.00351999
-0.00376156
0.00432713
-0.00443398
0.00304188
-0.00270691
0.00347636
-0.00546547
0.00581912
-0.00555394
0.00355323
-0.00248212
0.000758044
-0.00057519
-0.000246854
0.000852822
0.192128
0.192128
1
1.0483
1.08251
1.10713
1.11776
1.09938
1.12603
1.07972
1.10073
1.08388
1.05497
1.06392
1.0576
1.00856
1.02478
1.01518
0.972444
0.909163
0.851299
0.703787
0.504019
0.290254
0.151139
0.0592893
0.0283363
0.00402356
0.00669797
-0.00348231
0.00436175
-0.00414106
0.00419216
-0.00418119
0.00418338
-0.00418297
0.00418304
-0.00418303
0.00418303
-0.00418303
0.00418303
-0.00418303
0.00418303
-0.00418303