# vtk DataFile Version 2.0
FlowField
ASCII
DATASET STRUCTURED_GRID
DIMENSIONS 100 1 100
POINTS 10000 float
0 0 0
0.01 0 0
0.02 0 0
0.03 0 0
0.04 0 0
0.05 0 0
0.06 0 0
0.07 0 0
0.08 0 0
0.09 0 0
0.1 0 0
0.11 0 0
0.12 0 0
0.13 0 0
0.14 0 0
0.15 0 0
0.16 0 0
0.17 0 0
0.18 0 0
0.19 0 0
0.2 0 0
0.21 0 0
0.22 0 0
0.23 0 0
0.24 0 0
0.25 0 0
0.26 0 0
0.27 0 0
0.28 0 0
0.29 0 0
0.3 0 0
0.31 0 0
0.32 0 0
0.33 0 0
0.34 0 0
0.35 0 0
0.36 0 0
0.37 0 0
0.38 0 0
0.39 0 0
0.4 0 0
0.41 0 0
0.42 0 0
0.43 0 0
0.44 0 0
0.45 0 0
0.46 0 0
0.47 0 0
0.48 0 0
0.49 0 0
0.5 0 0
0.51 0 0
0.52 0 0
0.53 0 0
0.54 0 0
0.55 0 0
0.56 0 0
0.57 0 0
0.58 0 0
0.59 0 0
0.6 0 0
0.61 0 0
0.62 0 0
0.63 0 0
0.64 0 0
0.65 0 0
0.66 0 0
0.67 0 0
0.68 0 0
0.69 0 0
0.7 0 0
0.71 0 0
0.72 0 0
0.73 0 0
0.74 0 0
0.75 0 0
0.76 0 0
0.77 0 0
0.78 0 0
0.79 0 0
0.8 0 0
0.81 0 0
0.82 0 0
0.83 0 0
0.84 0 0
0.85 0 0
0.86 0 0
0.87 0 0
0.88 0 0
0.89 0 0
0.9 0 0
0.91 0 0
0.92 0 0
0.93 0 0
0.94 0 0
0.95 0 0
0.96 0 0
0.97 0 0
0.98 0 0
0.99 0 0
0 0.001 0
0.01 0.001 0
0.02 0.001 0
0.03 0.001 0
0.04 0.001 0
0.05 0.001 0
0.06 0.001 0
0.07 0.001 0
0.08 0.001 0
0.09 0.001 0
0.1 0.001 0
0.11 0.001 0
0.12 0.001 0
0.13 0.001 0
0.14 0.001 0
0.15 0.001 0
0.16 0.001 0
0.17 0.001 0
0.18 0.001 0
0.19 0.001 0
0.2 0.001 0
0.21 0.001 0
0.22 0.001 0
0.23 0.001 0
0.24 0.001 0
0.25 0.001 0
0.26 0.001 0
0.27 0.001 0
0.28 0.001 0
0.29 0.001 0
0.3 0.001 0
0.31 0.001 0
0.32 0.001 0
0.33 0.001 0
0.34 0.001 0
0.35 0.001 0
0.36 0.001 0
0.37 0.001 0
0.38 0.001 0
0.39 0.001 0
0.4 0.001 0
0.41 0.001 0
0.42 0.001 0
0.43 0.001 0
0.44 0.001 0
0.45 0.001 0
0.46 0.001 0
0.47 0.001 0
0.48 0.001 0
0.49 0.001 0
0.5 0.001 0
0.51 0.001 0
0.52 0.001 0
0.53 0.001 0
0.54 0.001 0
0.55 0.001 0
0.56 0.001 0
0.57 0.001 0
0.58 0.001 0
0.59 0.001 0
0.6 0.001 0
0.61 0.001 0
0.62 0.001 0
0.63 0.001 0
0.64 0.001 0
0.65 0.001 0
0.66 0.001 0
0.67 0.001 0
0.68 0.001 0
0.69 0.001 0
0.7 0.001 0
0.71 0.001 0
0.72 0.001 0
0.73 0.001 0
0.74 0.001 0
0.75 0.001 0
0.76 0.001 0
0.77 0.001 0
0.78 0.001 0
0.79 0.001 0
0.8 0.001 0
0.81 0.001 0
0.82 0.001 0
0.83 0.001 0
0.84 0.001 0
0.85 0.001 0
0.86 0.001 0
0.87 0.001 0
0.88 0.001 0
0.89 0.001 0
0.9 0.001 0
0.91 0.001 0
0.92 0.001 0
0.93 0.001 0
0.94 0.001 0
0.95 0.001 0
0.96 0.001 0
0.97 0.001 0
0.98 0.001 0
0.99 0.001 0
0 0.002 0
0.01 0.002 0
0.02 0.002 0
0.03 0.002 0
0.04 0.002 0
0.05 0.002 0
0.06 0.002 0
0.07 0.002 0
0.08 0.002 0
0.09 0.002 0
0.1 0.002 0
0.11 0.002 0
0.12 0.002 0
0.13 0.002 0
0.14 0.002 0
0.15 0.002 0
0.16 0.002 0
0.17 0.002 0
0.18 0.002 0
0.19 0.002 0
0.2 0.002 0
0.21 0.002 0
0.22 0.002 0
0.23 0.002 0
0.24 0.002 0
0.25 0.002 0
0.26 0.002 0
0.27 0.002 0
0.28 0.002 0
0.29 0.002 0
0.3 0.002 0
0.31 0.002 0
0.32 0.002 0
0.33 0.002 0
0.34 0.002 0
0.35 0.002 0
0.36 0.002 0
0.37 0.002 0
0.38 0.002 0
0.39 0.002 0
0.4 0.002 0
0.41 0.002 0
0.42 0.002 0
0.43 0.002 0
0.44 0.002 0
0.45 0.002 0
0.46 0.002 0
0.47 0.002 0
0.48 0.002 0
0.49 0.002 0
0.5 0.002 0
0.51 0.002 0
0.52 0.002 0
0.53 0.002 0
0.54 0.002 0
0.55 0.002 0
0.56 0.002 0
0.57 0.002 0
0.58 0.002 0
0.59 0.002 0
0.6 0.002 0
0.61 0.002 0
0.62 0.002 0
0.63 0.002 0
0.64 0.002 0
0.65 0.002 0
0.66 0.002 0
0.67 0.002 0
0.68 0.002 0
0.69 0.002 0
0.7 0.002 0
0.71 0.002 0
0.72 0.002 0
0.73 0.002 0
0.74 0.002 0
0.75 0.002 0
0.76 0.002 0
0.77 0.002 0
0.78 0.002 0
0.79 0.002 0
0.8 0.002 0
0.81 0.002 0
0.82 0.002 0
0.83 0.002 0
0.84 0.002 0
0.85 0.002 0
0.86 0.002 0
0.87 0.002 0
0.88 0.002 0
0.89 0.002 0
0.9 0.002 0
0.91 0.002 0
0.92 0.002 0
0.93 0.002 0
0.94 0.002 0
0.95 0.002 0
0.96 0.002 0
0.97 0.002 0
0.98 0.002 0
0.99 0.002 0
0 0.003 0
0.01 0.003 0
0.02 0.003 0
0.03 0.003 0
0.04 0.003 0
0.05 0.003 0
0.06 0.003 0
0.07 0.003 0
0.08 0.003 0
0.09 0.003 0
0.1 0.003 0
0.11 0.003 0
0.12 0.003 0
0.13 0.003 0
0.14 0.003 0
0.15 0.003 0
0.16 0.003 0
0.17 0.003 0
0.18 0.003 0
0.19 0.003 0
0.2 0.003 0
0.21 0.003 0
0.22 0.003 0
0.23 0.003 0
0.24 0.003 0
0.25 0.003 0
0.26 0.003 0
0.27 0.003 0
0.28 0.003 0
0.29 0.003 0
0.3 0.003 0
0.31 0.003 0
0.32 0.003 0
0.33 0.003 0
0.34 0.003 0
0.35 0.003 0
0.36 0.003 0
0.37 0.003 0
0.38 0.003 0
0.39 0.003 0
0.4 0.003 0
0.41 0.003 0
0.42 0.003 0
0.43 0.003 0
0.44 0.003 0
0.45 0.003 0
0.46 0.003 0
0.47 0.003 0
0.48 0.003 0
0.49 0.003 0
0.5 0.003 0
0.51 0.003 0
0.52 0.003 0
0.53 0.003 0
0.54 0.003 0
0.55 0.003 0
0.56 0.003 0
0.57 0.003 0
0.58 0.003 0
0.59 0.003 0
0.6 0.003 0
0.61 0.003 0
0.62 0.003 0
0.63 0.003 0
0.64 0.003 0
0.65 0.003 0
0.66 0.003 0
0.67 0.003 0
0.68 0.003 0
0.69 0.003 0
0.7 0.003 0
0.71 0.003 0
0.72 0.003 0
0.73 0.003 0
0.74 0.003 0
0.75 0.003 0
0.76 0.003 0
0.77 0.003 0
0.78 0.003 0
0.79 0.003 0
0.8 0.003 0
0.81 0.003 0
0.82 0.003 0
0.83 0.003 0
0.84 0.003 0
0.85 0.003 0
0.86 0.003 0
0.87 0.003 0
0.88 0.003 0
0.89 0.003 0
0.9 0.003 0
0.91 0.003 0
0.92 0.003 0
0.93 0.003 0
0.94 0.003 0
0.95 0.003 0
0.96 0.003 0
0.97 0.003 0
0.98 0.003 0
0.99 0.003 0
0 0.004 0
0.01 0.004 0
0.02 0.004 0
0.03 0.004 0
0.04 0.004 0
0.05 0.004 0
0.06 0.004 0
0.07 0.004 0
0.08 0.004 0
0.09 0.004 0
0.1 0.004 0
0.11 0.004 0
0.12 0.004 0
0.13 0.004 0
0.14 0.004 0
0.15 0.004 0
0.16 0.004 0
0.17 0.004 0
0.18 0.004 0
0.19 0.004 0
0.2 0.004 0
0.21 0.004 0
0.22 0.004 0
0.23 0.004 0
0.24 0.004 0
0.25 0.004 0
0.26 0.004 0
0.27 0.004 0
0.28 0.004 0
0.29 0.004 0
0.3 0.004 0
0.31 0.004 0
0.32 0.004 0
0.33 0.004 0
0.34 0.004 0
0.35 0.004 0
0.36 0.004 0
0.37 0.004 0
0.38 0.004 0
0.39 0.004 0
0.4 0.004 0
0.41 0.004 0
0.42 0.004 0
0.43 0.004 0
0.44 0.004 0
0.45 0.004 0
0.46 0.004 0
0.47 0.004 0
0.48 0.004 0
0.49 0.004 0
0.5 0.004 0
0.51 0.004 0
0.52 0.004 0
0.53 0.004 0
0.54 0.004 0
0.55 0.004 0
0.56 0.004 0
0.57 0.004 0
0.58 0.004 0
0.59 0.004 0
0.6 0.004 0
0.61 0.004 0
0.62 0.004 0
0.63 0.004 0
0.64 0.004 0
0.65 0.004 0
0.66 0.004 0
0.67 0.004 0
0.68 0.004 0
0.69 0.004 0
0.7 0.004 0
0.71 0.004 0
0.72 0.004 0
0.73 0.004 0
0.74 0.004 0
0.75 0.004 0
0.76 0.004 0
0.77 0.004 0
0.78 0.004 0
0.79 0.004 0
0.8 0.004 0
0.81 0.004 0
0.82 0.004 0
0.83 0.004 0
0.84 0.004 0
0.85 0.004 0
0.86 0.004 0
0.87 0.004 0
0.88 0.004 0
0.89 0.004 0
0.9 0.004 0
0.91 0.004 0
0.92 0.004 0
0.93 0.004 0
0.94 0.004 0
0.95 0.004 0
0.96 0.004 0
0.97 0.004 0
0.98 0.004 0
0.99 0.004 0
0 0.005 0
0.01 0.005 0
0.02 0.005 0
0.03 0.005 0
0.04 0.005 0
0.05 0.005 0
0.06 0.005 0
0.07 0.005 0
0.08 0.005 0
0.09 0.005 0
0.1 0.005 0
0.11 0.005 0
0.12 0.005 0
0.13 0.005 0
0.14 0.005 0
0.15 0.005 0
0.16 0.005 0
0.17 0.005 0
0.18 0.005 0
0.19 0.005 0
0.2 0.005 0
0.21 0.005 0
0.22 0.005 0
0.23 0.005 0
0.24 0.005 0
0.25 0.005 0
0.26 0.005 0
0.27 0.005 0
0.28 0.005 0
0.29 0.005 0
0.3 0.005 0
0.31 0.005 0
0.32 0.005 0
0.33 0.005 0
0.34 0.005 0
0.35 0.005 0
0.36 0.005 0
0.37 0.005 0
0.38 0.005 0
0.39 0.005 0
0.4 0.005 0
0.41 0.005 0
0.42 0.005 0
0.43 0.005 0
0.44 0.005 0
0.45 0.005 0
0.46 0.005 0
0.47 0.005 0
0.48 0.005 0
0.49 0.005 0
0.5 0.005 0
0.51 0.005 0
0.52 0.005 0
0.53 0.005 0
0.54 0.005 0
0.55 0.005 0
0.56 0.005 0
0.57 0.005 0
0.58 0.005 0
0.59 0.005 0
0.6 0.005 0
0.61 0.005 0
0.62 0.005 0
0.63 0.005 0
0.64 0.005 0
0.65 0.005 0
0.66 0.005 0
0.67 0.005 0
0.68 0.005 0
0.69 0.005 0
0.7 0.005 0
0.71 0.005 0
0.72 0.005 0
0.73 0.005 0
0.74 0.005 0
0.75 0.005 0
0.76 0.005 0
0.77 0.005 0
0.78 0.005 0
0.79 0.005 0
0.8 0.005 0
0.81 0.005 0
0.82 0.005 0
0.83 0.005 0
0.84 0.005 0
0.85 0.005 0
0.86 0.005 0
0.87 0.005 0
0.88 0.005 0
0.89 0.005 0
0.9 0.005 0
0.91 0.005 0
0.92 0.005 0
0.93 0.005 0
0.94 0.005 0
0.95 0.005 0
0.96 0.005 0
0.97 0.005 0
0.98 0.005 0
0.99 0.005 0
0 0.006 0
0.01 0.006 0
0.02 0.006 0
0.03 0.006 0
0.04 0.006 0
0.05 0.006 0
0.06 0.006 0
0.07 0.006 0
0.08 0.006 0
0.09 0.006 0
0.1 0.006 0
0.11 0.006 0
0.12 0.006 0
0.13 0.006 0
0.14 0.006 0
0.15 0.006 0
0.16 0.006 0
0.17 0.006 0
0.18 0.006 0
0.19 0.006 0
0.2 0.006 0
0.21 0.006 0
0.22 0.006 0
0.23 0.006 0
0.24 0.006 0
0.25 0.006 0
0.26 0.006 0
0.27 0.006 0
0.28 0.006 0
0.29 0.006 0
0.3 0.006 0
0.31 0.006 0
0.32 0.006 0
0.33 0.006 0
0.34 0.006 0
0.35 0.006 0
0.36 0.006 0
0.37 0.006 0
0.38 0.006 0
0.39 0.006 0
0.4 0.006 0
0.41 0.006 0
0.42 0.006 0
0.43 0.006 0
0.44 0.006 0
0.45 0.006 0
0.46 0.006 0
0.47 0.006 0
0.48 0.006 0
0.49 0.006 0
0.5 0.006 0
0.51 0.006 0
0.52 0.006 0
0.53 0.006 0
0.54 0.006 0
0.55 0.006 0
0.56 0.006 0
0.57 0.006 0
0.58 0.006 0
0.59 0.006 0
0.6 0.006 0
0.61 0.006 0
0.62 0.006 0
0.63 0.006 0
0.64 0.006 0
0.65 0.006 0
0.66 0.006 0
0.67 0.006 0
0.68 0.006 0
0.69 0.006 0
0.7 0.006 0
0.71 0.006 0
0.72 0.006 0
0.73 0.006 0
0.74 0.006 0
0.75 0.006 0
0.76 0.006 0
0.77 0.006 0
0.78 0.006 0
0.79 0.006 0
0.8 0.006 0
0.81 0.006 0
0.82 0.006 0
0.83 0.006 0
0.84 0.006 0
0.85 0.006 0
0.86 0.006 0
0.87 0.006 0
0.88 0.006 0
0.89 0.006 0
0.9 0.006 0
0.91 0.006 0
0.92 0.006 0
0.93 0.006 0
0.94 0.006 0
0.95 0.006 0
0.96 0.006 0
0.97 0.006 0
0.98 0.006 0
0.99 0.006 0
0 0.007 0
0.01 0.007 0
0.02 0.007 0
0.03 0.007 0
0.04 0.007 0
0.05 0.007 0
0.06 0.007 0
0.07 0.007 0
0.08 0.007 0
0.09 0.007 0
0.1 0.007 0
0.11 0.007 0
0.12 0.007 0
0.13 0.007 0
0.14 0.007 0
0.15 0.007 0
0.16 0.007 0
0.17 0.007 0
0.18 0.007 0
0.19 0.007 0
0.2 0.007 0
0.21 0.007 0
0.22 0.007 0
0.23 0.007 0
0.24 0.007 0
0.25 0.007 0
0.26 0.007 0
0.27 0.007 0
0.28 0.007 0
0.29 0.007 0
0.3 0.007 0
0.31 0.007 0
0.32 0.007 0
0.33 0.007 0
0.34 0.007 0
0.35 0.007 0
0.36 0.007 0
0.37 0.007 0
0.38 0.007 0
0.39 0.007 0
0.4 0.007 0
0.41 0.007 0
0.42 0.007 0
0.43 0.007 0
0.44 0.007 0
0.45 0.007 0
0.46 0.007 0
0.47 0.007 0
0.48 0.007 0
0.49 0.007 0
0.5 0.007 0
0.51 0.007 0
0.52 0.007 0
0.53 0.007 0
0.54 0.007 0
0.55 0.007 0
0.56 0.007 0
0.57 0.007 0
0.58 0.007 0
0.59 0.007 0
0.6 0.007 0
0.61 0.007 0
0.62 0.007 0
0.63 0.007 0
0.64 0.007 0
0.65 0.007 0
0.66 0.007 0
0.67 0.007 0
0.68 0.007 0
0.69 0.007 0
0.7 0.007 0
0.71 0.007 0
0.72 0.007 0
0.73 0.007 0
0.74 0.007 0
0.75 0.007 0
0.76 0.007 0
0.77 0.007 0
0.78 0.007 0
0.79 0.007 0
0.8 0.007 0
0.81 0.007 0
0.82 0.007 0
0.83 0.007 0
0.84 0.007 0
0.85 0.007 0
0.86 0.007 0
0.87 0.007 0
0.88 0.007 0
0.89 0.007 0
0.9 0.007 0
0.91 0.007 0
0.92 0.007 0
0.93 0.007 0
0.94 0.007 0
0.95 0.007 0
0.96 0.007 0
0.97 0.007 0
0.98 0.007 0
[...]
POINT_DATA 10000

SCALARS vel_X float 1
LOOKUP_TABLE default
0
0
0
0
0
0
0
0
0
0
0
0
0
0
0
0
0
0
0
0
0
0
0
0
0
0
0
0
0
0
0
0
0
0
0
0
0
0
0
0
0
0
0
0
0
0
0
0
0
0
0
0
0
0
0
0
0
0
0
0
0
0
0
0
0
0
0
0
0
0
0
0
0
0
0
0
0
0
0
0
0
0
0
0
0
0
0
0
0
0
0
0
0
0
0
0
0
0
0
0
1
0.33146
0.216208
0.198956
0.160586
0.19666
0.161595
0.18105
0.206285
0.182239
0.203049
0.257899
0.238091
0.261765
0.338038
0.382679
0.306601
0.194834
0.0910328
0.0421541
0.0103786
0.00760446
-0.00216872
0.00363746
-0.0032792
0.00335872
-0.00334254
0.00334558
-0.00334505
0.00334513
-0.00334512
0.00334512
-0.00334512
0.00334512
-0.00334512
0.00334512
-0.00334512
0.00334512
-0.00334512
0.00334512
-0.00334512
0.00334512
-0.00334512
0.00334512
-0.00334512
0.00334512
-0.00334512
0.00334512
-0.00334512
0.00334512
-0.00334512
0.00334512
-0.00334512
0.00334512
-0.00334512
0.00334512
-0.00334512
0.00334512
-0.00334512
0.00334512
-0.00334512
0.00334512
-0.00334512
0.00334512
-0.00334512
0.00334512
-0.00334512
0.00334512
-0.00334512
0.00334512
-0.00334512
0.00334512
-0.00334512
0.00334512
-0.00334513
0.00334509
-0.00334529
0.00334427
-0.00334866
0.00333359
-0.00337276
0.00330373
-0.00336153
0.00340017
-0.00332587
0.00308635
-0.00358074
0.00387715
-0.00310225
0.00216065
-0.0028033
0.00426294
-0.00539975
0.00507327
-0.00425478
0.00271949
-0.00214447
-0.00177175
-0.137749
-0.137749
1
0.578952
0.414059
0.376692
0.324745
0.369673
0.323053
0.356068
0.387956
0.3612
0.399894
0.474631
0.452204
0.496285
0.597394
0.628867
0.484997
0.299497
0.138743
0.0627696
0.0160158
0.0107931
-0.00272335
0.00489762
-0.00436829
0.00448565
-0.00446179
0.00446626
-0.00446549
0.00446561
-0.00446559
0.0044656
-0.00446559
0.00446559
-0.00446559
0.00446559
-0.00446559
0.00446559
-0.00446559
0.00446559
-0.00446559
0.00446559
-0.00446559
0.00446559
-0.00446559
0.00446559
-0.00446559
0.00446559
-0.00446559
0.00446559
-0.00446559
0.00446559
-0.00446559
0.00446559
-0.00446559
0.00446559
-0.00446559
0.00446559
-0.00446559
0.00446559
-0.00446559
0.00446559
-0.00446559
0.00446559
-0.00446559
0.00446559
-0.00446559
0.00446559
-0.00446559
0.00446559
-0.00446559
0.00446559
-0.0044656
0.00446559
-0.0044656
0.00446555
-0.00446584
0.00446433
-0.00447084
0.00444837
-0.0045075
0.00440024
-0.00450023
0.00453412
-0.00443305
0.00410563
-0.00484992
0.00514274
-0.00404095
0.00286829
-0.00394
0.00582758
-0.00719681
0.00649743
-0.00541646
0.00326592
-0.00275189
-0.00010844
0.18557
0.18557
1
0.758727
0.585722
0.537466
0.479748
0.522218
0.479301
0.511948
0.549372
0.52785
0.570968
0.651477
0.63508
0.679454
0.770961
0.773403
0.586659
0.357775
0.167142
0.0741024
0.0203899
0.0118689
-0.00211849
0.00475813
-0.00411221
0.00425619
-0.00422676
0.00423231
-0.00423134
0.0042315
-0.00423147
0.00423148
-0.00423148
0.00423148
-0.00423148
0.00423148
-0.00423148
0.00423148
-0.00423148
0.00423148
-0.00423148
0.00423148
-0.00423148
0.00423148
-0.00423148
0.00423148
-0.00423148
0.00423148
-0.00423148
0.00423148
-0.00423148
0.00423148
-0.00423148
0.00423148
-0.00423148
0.00423148
-0.00423148
0.00423148
-0.00423148
0.00423148
-0.00423148
0.00423148
-0.00423148
0.00423148
-0.00423148
0.00423148
-0.00423148
0.00423148
-0.00423148
0.00423148
-0.00423148
0.00423148
-0.00423148
0.00423148
-0.00423148
0.00423142
-0.00423178
0.00422994
-0.0042378
0.00421091
-0.00428113
0.00415397
-0.0042761
0.00429861
-0.00420908
0.00382566
-0.00465311
0.00493425
-0.00382925
0.00256931
-0.00366436
0.0054943
-0.00699023
0.00629669
-0.00543376
0.00317988
-0.00290631
-0.00116242
-0.161429
-0.161429
1
0.885963
0.729148
0.68042
0.61884
0.656563
0.622126
0.645828
0.690027
0.673143
0.710027
0.790833
0.779359
0.807367
0.874777
0.852647
0.64562
0.393717
0.18707
0.0819303
0.0243334
0.0122644
-0.00110393
0.00415221
-0.00339974
0.00356892
-0.00353404
0.00354067
-0.0035395
0.00353969
-0.00353967
0.00353967
-0.00353967
0.00353967
-0.00353967
0.00353967
-0.00353967
0.00353967
-0.00353967
0.00353967
-0.00353967
0.00353967
-0.00353967
0.00353967
-0.00353967
0.00353967
-0.00353967
0.00353967
-0.00353967
0.00353967
-0.00353967
0.00353967
-0.00353967
0.00353967
-0.00353967
0.00353967
-0.00353967
0.00353967
-0.00353967
0.00353967
-0.00353967
0.00353967
-0.00353967
0.00353967
-0.00353967
0.00353967
-0.00353967
0.00353967
-0.00353967
0.00353967
-0.00353967
0.00353967
-0.00353967
0.00353967
-0.00353968
0.00353961
-0.00354003
0.00353788
-0.00354688
0.00351666
-0.00359405
0.00345687
-0.00358614
0.0036032
-0.00354322
0.00310143
-0.00392885
0.00425717
-0.00329411
0.00191228
-0.00278779
0.00443377
-0.00614302
0.00571117
-0.00524991
0.00307854
-0.00297161
0.000762215
0.174327
0.174327
1
0.973513
0.845314
0.80334
0.739742
0.772416
0.746495
0.75797
0.807797
0.792667
0.817681
0.894962
0.884386
0.888657
0.930584
0.89358
0.681934
0.419227
0.2034
0.0886133
0.0281499
0.012534
1.17287e-05
0.00345199
-0.00258806
0.00278425
-0.00274342
0.00275125
-0.00274986
0.00275009
-0.00275005
0.00275006
-0.00275006
0.00275006
-0.00275006
0.00275006
-0.00275006
0.00275006
-0.00275006
0.00275006
-0.00275006
0.00275006
-0.00275006
0.00275006
-0.00275006
0.00275006
-0.00275006
0.00275006
-0.00275006
0.00275006
-0.00275006
0.00275006
-0.00275006
0.00275006
-0.00275006
0.00275006
-0.00275006
0.00275006
-0.00275006
0.00275006
-0.00275006
0.00275006
-0.00275006
0.00275006
-0.00275006
0.00275006
-0.00275006
0.00275006
-0.00275006
0.00275006
-0.00275006
0.00275006
-0.00275006
0.00275005
-0.00275007
0.00274998
-0.00275048
0.00274802
-0.00275812
0.00272492
-0.00280776
0.00266572
-0.00279282
0.00281135
-0.00278644
0.002283
-0.00307329
0.00349089
-0.00271366
0.00117959
-0.00175012
0.00320199
-0.00515681
0.00506578
-0.00502153
0.0030012
-0.00299676
-0.000329345
-0.166859
-0.166859
1
1.03174
0.936471
0.905002
0.842135
0.868936
0.850715
0.849265
0.901744
0.886281
0.897341
0.967518
0.955474
0.936236
0.957011
0.913302
0.706472
0.439766
0.218289
0.0949899
0.0320271
0.0128043
0.00118922
0.002719
-0.00173344
0.00195961
-0.00191206
0.00192127
-0.00191962
0.0019199
-0.00191985
0.00191986
-0.00191986
0.00191986
-0.00191986
0.00191986
-0.00191986
0.00191986
-0.00191986
0.00191986
-0.00191986
0.00191986
-0.00191986
0.00191986
-0.00191986
0.00191986
-0.00191986
0.00191986
-0.00191986
0.00191986
-0.00191986
0.00191986
-0.00191986
0.00191986
-0.00191986
0.00191986
-0.00191986
0.00191986
-0.00191986
0.00191986
-0.00191986
0.00191986
-0.00191986
0.00191986
-0.00191986
0.00191986
-0.00191986
0.00191986
-0.00191986
0.00191986
-0.00191986
0.00191986
-0.00191986
0.00191986
-0.00191987
0.00191977
-0.00192035
0.00191755
-0.0019288
0.00189271
-0.00198015
0.0018361
-0.00195577
0.00198
-0.00199096
0.00142884
-0.00216292
0.00268283
-0.00209964
0.000426927
-0.000684412
0.00193366
-0.00408824
0.00432364
-0.00466477
0.00284946
-0.00290727
0.00140385
0.171605
0.171605
1
1.06866
1.00545
0.985674
0.926479
0.946148
0.935129
0.921072
0.972917
0.956446
0.953525
1.01389
1.00062
0.962116
0.967108
0.921691
0.724726
0.457715
0.232616
0.101338
0.0360569
0.0130928
0.00244175
0.0019484
-0.000828836
0.00108851
-0.00103336
0.00104415
-0.0010422
0.00104253
-0.00104247
0.00104248
-0.00104248
0.00104248
-0.00104248
0.00104248
-0.00104248
0.00104248
-0.00104248
0.00104248
-0.00104248
0.00104248
-0.00104248
0.00104248
-0.00104248
0.00104248
-0.00104248
0.00104248
-0.00104248
0.00104248
-0.00104248
0.00104248
-0.00104248
0.00104248
-0.00104248
0.00104248
-0.00104248
0.00104248
-0.00104248
0.00104248
-0.00104248
0.00104248
-0.00104248
0.00104248
-0.00104248
0.00104248
-0.00104248
0.00104248
-0.00104248
0.00104248
-0.00104248
0.00104248
-0.00104248
0.00104248
-0.0010425
0.00104238
-0.00104304
0.00103988
-0.00105233
0.00101337
-0.00110489
0.000960626
-0.00107
0.00110134
-0.00114816
0.000535127
-0.00119929
0.00181473
-0.00142766
-0.000339754
0.000378653
0.000640631
-0.00291092
0.00342876
-0.00412218
0.00256709
-0.00271066
5.94806e-05
-0.168314
-0.168314
1
1.0903
1.0554
1.0468
0.993761
1.00523
1.00115
0.975401
1.02392
1.00682
0.99114
1.04031
1.02772
0.97536
0.968941
0.924126
0.739311
0.474082
0.246676
0.107763
0.0402484
0.0134245
0.00375552
0.00115775
0.000109439
0.000187649
-0.000123907
0.0001365
-0.000134197
0.000134589
-0.000134527
0.000134536
-0.000134535
0.000134535
-0.000134535
0.000134535
-0.000134535
0.000134535
-0.000134535
0.000134535
-0.000134535
0.000134535
-0.000134535
0.000134535
-0.000134535
0.000134535
-0.000134535
0.000134535
-0.000134535
0.000134535
-0.000134535
0.000134535
-0.000134535
0.000134535
-0.000134535
0.000134535
-0.000134535
0.000134535
-0.000134535
0.000134535
-0.000134535
0.000134535
-0.000134535
0.000134535
-0.000134535
0.000134535
-0.000134535
0.000134535
-0.000134535
0.000134535
-0.000134535
0.000134535
-0.000134535
0.000134532
-0.000134553
0.000134418
-0.000135175
0.000131617
-0.000145326
0.000103511
-0.000198645
5.55348e-05
-0.00015307
0.000190926
-0.000274018
-0.000379864
-0.000202608
0.000896722
-0.000708504
-0.00109857
0.00141114
-0.000655694
-0.0016404
0.00239068
-0.00340456
0.00215461
-0.00239626
0.00155863
0.170757
0.170757
1
1.10109
1.08953
1.09055
1.04547
1.04821
1.05076
1.01483
1.05818
1.04136
1.01496
1.05276
1.04311
0.98193
0.967069
0.923443
0.751423
0.489293
0.260509
0.114319
0.0445647
0.0138424
0.00509132
0.000388422
0.00104095
-0.000702208
0.000775638
-0.000760988
0.000763692
-0.000763228
0.000763303
-0.000763291
0.000763293
-0.000763293
0.000763293
-0.000763293
0.000763293
-0.000763293
0.000763293
-0.000763293
0.000763293
-0.000763293
0.000763293
-0.000763293
0.000763293
-0.000763293
0.000763293
-0.000763293
0.000763293
-0.000763293
0.000763293
-0.000763293
0.000763293
-0.000763293
0.000763293
-0.000763293
0.000763293
-0.000763293
0.000763293
-0.000763293
0.000763293
-0.000763293
0.000763293
-0.000763293
0.000763293
-0.000763293
0.000763293
-0.000763293
0.000763293
-0.000763293
0.000763293
-0.000763293
0.000763292
-0.000763296
0.000763271
-0.000763429
0.000762564
-0.000766547
0.000751533
-0.00079617
0.00069787
-0.000838675
0.000753747
-0.000711197
0.000591094
-0.00127499
0.00078404
-3.24301e-05
1.99962e-05
-0.00181219
0.00237163
-0.00190739
-0.000332665
0.00126255
-0.0025596
0.00163977
-0.0020163
2.33101e-05
-0.168856
-0.168856
1
1.10431
1.11096
1.11947
1.08347
1.07757
1.08629
1.04222
1.07926
1.06383
1.0292
1.0562
1.05125
0.985356
0.963888
0.921126
0.761612
0.503524
0.274062
0.121038
0.0489544
0.0143935
0.00640341
-0.000312282
0.00191921
-0.00153426
0.00161857
-0.00160158
0.00160475
-0.0016042
0.00160429
-0.00160428
0.00160428
-0.00160428
0.00160428
-0.00160428
0.00160428
-0.00160428
0.00160428
-0.00160428
0.00160428
-0.00160428
0.00160428
-0.00160428
0.00160428
-0.00160428
0.00160428
-0.00160428
0.00160428
-0.00160428
0.00160428
-0.00160428
0.00160428
-0.00160428
0.00160428
-0.00160428
0.00160428
-0.00160428
0.00160428
-0.00160428
0.00160428
-0.00160428
0.00160428
-0.00160428
0.00160428
-0.00160428
0.00160428
-0.00160428
0.00160428
-0.00160428
0.00160428
-0.00160428
0.00160428
-0.00160428
0.00160425
-0.00160443
0.00160345
-0.00160789
0.00159153
-0.00163893
0.00153794
-0.00167539
0.00160337
-0.00155859
0.0014008
-0.00210379
0.00171159
-0.000925305
0.000713953
-0.00244195
0.0032157
-0.00305751
0.000943789
0.000109174
-0.00164349
0.00105732
-0.00157279
0.00137958
0.170386
0.170386
1
1.10235
1.12256
1.13624
1.10988
1.09592
1.11015
1.06035
1.0905
1.07747
1.03722
1.0543
1.05499
0.987536
0.960576
0.917977
0.770153
0.516855
0.287259
0.127935
0.0533681
0.0151182
0.00765135
-0.000902716
0.00270333
-0.00226731
0.0023638
-0.00234417
0.00234786
-0.00234721
0.00234732
-0.0023473
0.00234731
-0.00234731
0.00234731
-0.00234731
0.00234731
-0.00234731
0.00234731
-0.00234731
0.00234731
-0.00234731
0.00234731
-0.00234731
0.00234731
-0.00234731
0.00234731
-0.00234731
0.00234731
-0.00234731
0.00234731
-0.00234731
0.00234731
-0.00234731
0.00234731
-0.00234731
0.00234731
-0.00234731
0.00234731
-0.00234731
0.00234731
-0.00234731
0.00234731
-0.00234731
0.00234731
-0.00234731
0.00234731
-0.00234731
0.00234731
-0.00234731
0.00234731
-0.00234731
0.00234731
-0.00234731
0.00234728
-0.00234749
0.00234638
-0.00235129
0.00233355
-0.00238364
0.00228048
-0.0024136
0.00235443
-0.00231019
0.00211447
-0.00282578
0.00253654
-0.00173879
0.00133522
-0.00295637
0.00390563
-0.00405493
0.0021259
-0.00100915
-0.000709072
0.000441034
-0.00111574
-0.000258944
-0.169121
-0.169121
1
1.09701
1.12683
1.14346
1.1268
1.10577
1.12469
1.0717
1.09472
1.0849
1.0415
1.04956
1.05604
0.989383
0.957664
0.914459
0.777216
0.529326
0.300021
0.135012
0.0577642
0.0160462
0.00880409
-0.00135088
0.00336206
-0.00286977
0.00297984
-0.00295722
0.00296152
-0.00296076
0.00296088
-0.00296087
0.00296087
-0.00296087
0.00296087
-0.00296087
0.00296087
-0.00296087
0.00296087
-0.00296087
0.00296087
-0.00296087
0.00296087
-0.00296087
0.00296087
-0.00296087
0.00296087
-0.00296087
0.00296087
-0.00296087
0.00296087
-0.00296087
0.00296087
-0.00296087
0.00296087
-0.00296087
0.00296087
-0.00296087
0.00296087
-0.00296087
0.00296087
-0.00296087
0.00296087
-0.00296087
0.00296087
-0.00296087
0.00296087
-0.00296087
0.00296087
-0.00296087
0.00296087
-0.00296087
0.00296087
-0.00296087
0.00296083
-0.00296107
0.00295982
-0.00296525
0.0029461
-0.00299876
0.00289396
-0.00302187
0.00297523
-0.00293438
0.00270112
-0.00341029
0.00322514
-0.0024387
0.00185482
-0.00333356
0.00441458
-0.00486068
0.00316244
-0.00204126
0.000196959
-0.000177211
-0.000642161
0.00103001
0.170193
0.170193
1
1.08963
1.12589
1.14355
1.13623
1.1094
1.13202
1.0783
1.09424
1.08809
1.04367
1.0436
1.05534
0.99127
0.955359
0.910862
0.782936
0.540962
0.312284
0.14226
0.0621101
0.017197
0.0098405
-0.00163492
0.00387418
-0.00332014
0.0034453
-0.00341932
0.00342431
-0.00342342
0.00342357
-0.00342354
0.00342355
-0.00342355
0.00342355
-0.00342355
0.00342355
-0.00342355
0.00342355
-0.00342355
0.00342355
-0.00342355
0.00342355
-0.00342355
0.00342355
-0.00342355
0.00342355
-0.00342355
0.00342355
-0.00342355
0.00342355
-0.00342355
0.00342355
-0.00342355
0.00342355
-0.00342355
0.00342355
-0.00342355
0.00342355
-0.00342355
0.00342355
-0.00342355
0.00342355
-0.00342355
0.00342355
-0.00342355
0.00342355
-0.00342355
0.00342355
-0.00342355
0.00342355
-0.00342355
0.00342354
-0.00342355
0.00342351
-0.00342378
0.00342238
-0.00342834
0.00340776
-0.00346287
0.00335699
-0.00347888
0.00344419
-0.00340952
0.0031399
-0.00383687
0.00375404
-0.00300054
0.00225303
-0.00356106
0.00472733
-0.00544917
0.00401518
-0.00294578
0.00103446
-0.00076841
-0.000197507
-0.000646787
-0.169259
-0.169259
1
1.08118
1.12145
1.13861
1.13994
1.10871
1.13397
1.08172
1.09078
1.08846
1.04474
1.03737
1.05346
0.993295
0.95371
0.907387
0.787443
0.551786
0.323995
0.14966
0.0663819
0.0185793
0.0107489
-0.00174273
0.0042282
-0.0036066
0.00374848
-0.00371874
0.0037245
-0.00372346
0.00372364
-0.00372361
0.00372361
-0.00372361
0.00372361
-0.00372361
0.00372361
-0.00372361
0.00372361
-0.00372361
0.00372361
-0.00372361
0.00372361
-0.00372361
0.00372361
-0.00372361
0.00372361
-0.00372361
0.00372361
-0.00372361
0.00372361
-0.00372361
0.00372361
-0.00372361
0.00372361
-0.00372361
0.00372361
-0.00372361
0.00372361
-0.00372361
0.00372361
-0.00372361
0.00372361
-0.00372361
0.00372361
-0.00372361
0.00372361
-0.00372361
0.00372361
-0.00372361
0.00372361
-0.00372361
0.00372361
-0.00372362
0.00372357
-0.00372388
0.00372232
-0.00372884
0.00370682
-0.00376421
0.00365784
-0.00377301
0.00374946
-0.00372363
0.00341957
-0.00409486
0.00410995
-0.00340924
0.00251874
-0.00363523
0.00483981
-0.00580783
0.00465864
-0.00369132
0.00177048
-0.00130687
0.000225872
0.00063165
0.170096
0.170096
1
1.0724
1.11483
1.13043
1.13943
1.10527
1.13201
1.08311
1.08562
1.08694
1.04527
1.03141
1.05069
0.995429
0.952692
0.904175
0.790864
0.561821
0.335114
0.157185
0.0705638
0.0201927
0.0115266
-0.00167135
0.0044217
-0.00372646
0.00388679
-0.00385285
0.00385948
-0.00385828
0.00385848
-0.00385845
0.00385845
-0.00385845
0.00385845
-0.00385845
0.00385845
-0.00385845
0.00385845
-0.00385845
0.00385845
-0.00385845
0.00385845
-0.00385845
0.00385845
-0.00385845
0.00385845
-0.00385845
0.00385845
-0.00385845
0.00385845
-0.00385845
0.00385845
-0.00385845
0.00385845
-0.00385845
0.00385845
-0.00385845
0.00385845
-0.00385845
0.00385845
-0.00385845
0.00385845
-0.00385845
0.00385845
-0.00385845
0.00385845
-0.00385845
0.00385845
-0.00385845
0.00385845
-0.00385845
0.00385845
-0.00385846
0.0038584
-0.00385875
0.00385702
-0.00386412
0.00384067
-0.00390016
0.00379386
-0.00390173
0.00388834
-0.00387378
0.00353794
-0.00418282
0.00428913
-0.0036587
0.00264889
-0.00356049
0.00475811
-0.00593611
0.00507969
-0.00425677
0.00238004
-0.00177172
0.000588035
-0.00103387
-0.169328
-0.169328
1
1.06377
1.10705
1.12039
1.13592
1.10027
1.12731
1.08323
1.07962
1.08419
1.04551
1.02603
1.04724
0.997592
0.952246
0.901326
0.793334
0.571089
0.345619
0.164799
0.0746484
0.0220277
0.0121788
-0.00142622
0.0044606
-0.00368533
0.00386596
-0.00382734
0.00383496
-0.00383357
0.0038338
-0.00383377
0.00383377
-0.00383377
0.00383377
-0.00383377
0.00383377
-0.00383377
0.00383377
-0.00383377
0.00383377
-0.00383377
0.00383377
-0.00383377
0.00383377
-0.00383377
0.00383377
-0.00383377
0.00383377
-0.00383377
0.00383377
-0.00383377
0.00383377
-0.00383377
0.00383377
-0.00383377
0.00383377
-0.00383377
0.00383377
-0.00383377
0.00383377
-0.00383377
0.00383377
-0.00383377
0.00383377
-0.00383377
0.00383377
-0.00383377
0.00383377
-0.00383377
0.00383377
-0.00383377
0.00383377
-0.00383378
0.00383371
-0.00383411
0.00383219
-0.00383989
0.00381503
-0.0038764
0.00377076
-0.00387085
0.00386646
-0.00386532
0.00350102
-0.00410768
0.00429657
-0.00375113
0.00264776
-0.00334843
0.00449725
-0.00584427
0.00527688
-0.00463138
0.00284659
-0.00214725
0.000903169
0.00027604
0.170047
0.170047
1
1.05563
1.0988
1.10959
1.13034
1.09457
1.12079
1.08258
1.07338
1.0806
1.04558
1.02136
1.04329
0.999695
0.952298
0.898908
0.794987
0.579612
0.355498
0.172462
0.0786345
0.0240671
0.0127179
-0.00102005
0.00435797
-0.00349603
0.00369893
-0.00365511
0.00366384
-0.00366223
0.00366251
-0.00366246
0.00366247
-0.00366247
0.00366247
-0.00366247
0.00366247
-0.00366247
0.00366247
-0.00366247
0.00366247
-0.00366247
0.00366247
-0.00366247
0.00366247
-0.00366247
0.00366247
-0.00366247
0.00366247
-0.00366247
0.00366247
-0.00366247
0.00366247
-0.00366247
0.00366247
-0.00366247
0.00366247
-0.00366247
0.00366247
-0.00366247
0.00366247
-0.00366247
0.00366247
-0.00366247
0.00366247
-0.00366247
0.00366247
-0.00366247
0.00366247
-0.00366247
0.00366247
-0.00366247
0.00366247
-0.00366248
0.0036624
-0.00366284
0.00366073
-0.00366905
0.0036428
-0.00370583
0.00360142
-0.00369338
0.00369669
-0.0037108
0.00332191
-0.00388362
0.0041449
-0.00369606
0.00252598
-0.00301658
0.00407956
-0.00555182
0.00525934
-0.00481428
0.00316207
-0.0024237
0.00113855
-0.00134411
-0.169366
-0.169366
1
1.04819
1.09057
1.09878
1.12343
1.08875
1.11312
1.08143
1.06726
1.07645
1.04547
1.01745
1.03896
1.00165
0.952771
0.896959
0.795957
0.587416
0.364752
0.180128
0.0825267
0.0262876
0.0131618
-0.000471432
0.00413271
-0.00317721
0.00340443
-0.00335488
0.00336484
-0.00336299
0.00336331
-0.00336326
0.00336326
-0.00336326
0.00336326
-0.00336326
0.00336326
-0.00336326
0.00336326
-0.00336326
0.00336326
-0.00336326
0.00336326
-0.00336326
0.00336326
-0.00336326
0.00336326
-0.00336326
0.00336326
-0.00336326
0.00336326
-0.00336326
0.00336326
-0.00336326
0.00336326
-0.00336326
0.00336326
-0.00336326
0.00336326
-0.00336326
0.00336326
-0.00336326
0.00336326
-0.00336326
0.00336326
-0.00336326
0.00336326
-0.00336326
0.00336326
-0.00336326
0.00336326
-0.00336326
0.00336326
-0.00336328
0.00336319
-0.00336368
0.00336137
-0.00337031
0.00334271
-0.00340716
0.00330451
-0.00338813
0.00339776
-0.00342857
0.00301942
-0.00353063
0.00385293
-0.00350904
0.00229927
-0.00258693
0.00353282
-0.00508565
0.00504523
-0.00481353
0.0033263
-0.00259684
0.00131579
2.27808e-05
0.170013
0.170013
1
1.04153
1.08264
1.08848
1.11571
1.08318
1.10482
1.07994
1.06148
1.07193
1.04516
1.0143
1.0344
1.00339
0.953591
0.895494
0.796374
0.594527
0.37339
0.18775
0.086334
0.0286611
0.0135326
0.000196713
0.00380793
-0.00275175
0.00300548
-0.0029496
0.00296095
-0.00295881