# vtk DataFile Version 2.0
FlowField
ASCII
DATASET STRUCTURED_GRID
DIMENSIONS 100 1 100
POINTS 10000 float
0 0 0
0.01 0 0
0.02 0 0
0.03 0 0
0.04 0 0
0.05 0 0
0.06 0 0
0.07 0 0
0.08 0 0
0.09 0 0
0.1 0 0
0.11 0 0
0.12 0 0
0.13 0 0
0.14 0 0
0.15 0 0
0.16 0 0
0.17 0 0
0.18 0 0
0.19 0 0
0.2 0 0
0.21 0 0
0.22 0 0
0.23 0 0
0.24 0 0
0.25 0 0
0.26 0 0
0.27 0 0
0.28 0 0
0.29 0 0
0.3 0 0
0.31 0 0
0.32 0 0
0.33 0 0
0.34 0 0
0.35 0 0
0.36 0 0
0.37 0 0
0.38 0 0
0.39 0 0
0.4 0 0
0.41 0 0
0.42 0 0
0.43 0 0
0.44 0 0
0.45 0 0
0.46 0 0
0.47 0 0
0.48 0 0
0.49 0 0
0.5 0 0
0.51 0 0
0.52 0 0
0.53 0 0
0.54 0 0
0.55 0 0
0.56 0 0
0.57 0 0
0.58 0 0
0.59 0 0
0.6 0 0
0.61 0 0
0.62 0 0
0.63 0 0
0.64 0 0
0.65 0 0
0.66 0 0
0.67 0 0
0.68 0 0
0.69 0 0
0.7 0 0
0.71 0 0
0.72 0 0
0.73 0 0
0.74 0 0
0.75 0 0
0.76 0 0
0.77 0 0
0.78 0 0
0.79 0 0
0.8 0 0
0.81 0 0
0.82 0 0
0.83 0 0
0.84 0 0
0.85 0 0
0.86 0 0
0.87 0 0
0.88 0 0
0.89 0 0
0.9 0 0
0.91 0 0
0.92 0 0
0.93 0 0
0.94 0 0
0.95 0 0
0.96 0 0
0.97 0 0
0.98 0 0
0.99 0 0
0 0.001 0
0.01 0.001 0
0.02 0.001 0
0.03 0.001 0
0.04 0.001 0
0.05 0.001 0
0.06 0.001 0
0.07 0.001 0
0.08 0.001 0
0.09 0.001 0
0.1 0.001 0
0.11 0.001 0
0.12 0.001 0
0.13 0.001 0
0.14 0.001 0
0.15 0.001 0
0.16 0.001 0
0.17 0.001 0
0.18 0.001 0
0.19 0.001 0
0.2 0.001 0
0.21 0.001 0
0.22 0.001 0
0.23 0.001 0
0.24 0.001 0
0.25 0.001 0
0.26 0.001 0
0.27 0.001 0
0.28 0.001 0
0.29 0.001 0
0.3 0.001 0
0.31 0.001 0
0.32 0.001 0
0.33 0.001 0
0.34 0.001 0
0.35 0.001 0
0.36 0.001 0
0.37 0.001 0
0.38 0.001 0
0.39 0.001 0
0.4 0.001 0
0.41 0.001 0
0.42 0.001 0
0.43 0.001 0
0.44 0.001 0
0.45 0.001 0
0.46 0.001 0
0.47 0.001 0
0.48 0.001 0
0.49 0.001 0
0.5 0.001 0
0.51 0.001 0
0.52 0.001 0
0.53 0.001 0
0.54 0.001 0
0.55 0.001 0
0.56 0.001 0
0.57 0.001 0
0.58 0.001 0
0.59 0.001 0
0.6 0.001 0
0.61 0.001 0
0.62 0.001 0
0.63 0.001 0
0.64 0.001 0
0.65 0.001 0
0.66 0.001 0
0.67 0.001 0
0.68 0.001 0
0.69 0.001 0
0.7 0.001 0
0.71 0.001 0
0.72 0.001 0
0.73 0.001 0
0.74 0.001 0
0.75 0.001 0
0.76 0.001 0
0.77 0.001 0
0.78 0.001 0
0.79 0.001 0
0.8 0.001 0
0.81 0.001 0
0.82 0.001 0
0.83 0.001 0
0.84 0.001 0
0.85 0.001 0
0.86 0.001 0
0.87 0.001 0
0.88 0.001 0
0.89 0.001 0
0.9 0.001 0
0.91 0.001 0
0.92 0.001 0
0.93 0.001 0
0.94 0.001 0
0.95 0.001 0
0.96 0.001 0
0.97 0.001 0
0.98 0.001 0
0.99 0.001 0
0 0.002 0
0.01 0.002 0
0.02 0.002 0
0.03 0.002 0
0.04 0.002 0
0.05 0.002 0
0.06 0.002 0
0.07 0.002 0
0.08 0.002 0
0.09 0.002 0
0.1 0.002 0
0.11 0.002 0
0.12 0.002 0
0.13 0.002 0
0.14 0.002 0
0.15 0.002 0
0.16 0.002 0
0.17 0.002 0
0.18 0.002 0
0.19 0.002 0
0.2 0.002 0
0.21 0.002 0
0.22 0.002 0
0.23 0.002 0
0.24 0.002 0
0.25 0.002 0
0.26 0.002 0
0.27 0.002 0
0.28 0.002 0
0.29 0.002 0
0.3 0.002 0
0.31 0.002 0
0.32 0.002 0
0.33 0.002 0
0.34 0.002 0
0.35 0.002 0
0.36 0.002 0
0.37 0.002 0
0.38 0.002 0
0.39 0.002 0
0.4 0.002 0
0.41 0.002 0
0.42 0.002 0
0.43 0.002 0
0.44 0.002 0
0.45 0.002 0
0.46 0.002 0
0.47 0.002 0
0.48 0.002 0
0.49 0.002 0
0.5 0.002 0
0.51 0.002 0
0.52 0.002 0
0.53 0.002 0
0.54 0.002 0
0.55 0.002 0
0.56 0.002 0
0.57 0.002 0
0.58 0.002 0
0.59 0.002 0
0.6 0.002 0
0.61 0.002 0
0.62 0.002 0
0.63 0.002 0
0.64 0.002 0
0.65 0.002 0
0.66 0.002 0
0.67 0.002 0
0.68 0.002 0
0.69 0.002 0
0.7 0.002 0
0.71 0.002 0
0.72 0.002 0
0.73 0.002 0
0.74 0.002 0
0.75 0.002 0
0.76 0.002 0
0.77 0.002 0
0.78 0.002 0
0.79 0.002 0
0.8 0.002 0
0.81 0.002 0
0.82 0.002 0
0.83 0.002 0
0.84 0.002 0
0.85 0.002 0
0.86 0.002 0
0.87 0.002 0
0.88 0.002 0
0.89 0.002 0
0.9 0.002 0
0.91 0.002 0
0.92 0.002 0
0.93 0.002 0
0.94 0.002 0
0.95 0.002 0
0.96 0.002 0
0.97 0.002 0
0.98 0.002 0
0.99 0.002 0
0 0.003 0
0.01 0.003 0
0.02 0.003 0
0.03 0.003 0
0.04 0.003 0
0.05 0.003 0
0.06 0.003 0
0.07 0.003 0
0.08 0.003 0
0.09 0.003 0
0.1 0.003 0
0.11 0.003 0
0.12 0.003 0
0.13 0.003 0
0.14 0.003 0
0.15 0.003 0
0.16 0.003 0
0.17 0.003 0
0.18 0.003 0
0.19 0.003 0
0.2 0.003 0
0.21 0.003 0
0.22 0.003 0
0.23 0.003 0
0.24 0.003 0
0.25 0.003 0
0.26 0.003 0
0.27 0.003 0
0.28 0.003 0
0.29 0.003 0
0.3 0.003 0
0.31 0.003 0
0.32 0.003 0
0.33 0.003 0
0.34 0.003 0
0.35 0.003 0
0.36 0.003 0
0.37 0.003 0
0.38 0.003 0
0.39 0.003 0
0.4 0.003 0
0.41 0.003 0
0.42 0.003 0
0.43 0.003 0
0.44 0.003 0
0.45 0.003 0
0.46 0.003 0
0.47 0.003 0
0.48 0.003 0
0.49 0.003 0
0.5 0.003 0
0.51 0.003 0
0.52 0.003 0
0.53 0.003 0
0.54 0.003 0
0.55 0.003 0
0.56 0.003 0
0.57 0.003 0
0.58 0.003 0
0.59 0.003 0
0.6 0.003 0
0.61 0.003 0
0.62 0.003 0
0.63 0.003 0
0.64 0.003 0
0.65 0.003 0
0.66 0.003 0
0.67 0.003 0
0.68 0.003 0
0.69 0.003 0
0.7 0.003 0
0.71 0.003 0
0.72 0.003 0
0.73 0.003 0
0.74 0.003 0
0.75 0.003 0
0.76 0.003 0
0.77 0.003 0
0.78 0.003 0
0.79 0.003 0
0.8 0.003 0
0.81 0.003 0
0.82 0.003 0
0.83 0.003 0
0.84 0.003 0
0.85 0.003 0
0.86 0.003 0
0.87 0.003 0
0.88 0.003 0
0.89 0.003 0
0.9 0.003 0
0.91 0.003 0
0.92 0.003 0
0.93 0.003 0
0.94 0.003 0
0.95 0.003 0
0.96 0.003 0
0.97 0.003 0
0.98 0.003 0
0.99 0.003 0
0 0.004 0
0.01 0.004 0
0.02 0.004 0
0.03 0.004 0
0.04 0.004 0
0.05 0.004 0
0.06 0.004 0
0.07 0.004 0
0.08 0.004 0
0.09 0.004 0
0.1 0.004 0
0.11 0.004 0
0.12 0.004 0
0.13 0.004 0
0.14 0.004 0
0.15 0.004 0
0.16 0.004 0
0.17 0.004 0
0.18 0.004 0
0.19 0.004 0
0.2 0.004 0
0.21 0.004 0
0.22 0.004 0
0.23 0.004 0
0.24 0.004 0
0.25 0.004 0
0.26 0.004 0
0.27 0.004 0
0.28 0.004 0
0.29 0.004 0
0.3 0.004 0
0.31 0.004 0
0.32 0.004 0
0.33 0.004 0
0.34 0.004 0
0.35 0.004 0
0.36 0.004 0
0.37 0.004 0
0.38 0.004 0
0.39 0.004 0
0.4 0.004 0
0.41 0.004 0
0.42 0.004 0
0.43 0.004 0
0.44 0.004 0
0.45 0.004 0
0.46 0.004 0
0.47 0.004 0
0.48 0.004 0
0.49 0.004 0
0.5 0.004 0
0.51 0.004 0
0.52 0.004 0
0.53 0.004 0
0.54 0.004 0
0.55 0.004 0
0.56 0.004 0
0.57 0.004 0
0.58 0.004 0
0.59 0.004 0
0.6 0.004 0
0.61 0.004 0
0.62 0.004 0
0.63 0.004 0
0.64 0.004 0
0.65 0.004 0
0.66 0.004 0
0.67 0.004 0
0.68 0.004 0
0.69 0.004 0
0.7 0.004 0
0.71 0.004 0
0.72 0.004 0
0.73 0.004 0
0.74 0.004 0
0.75 0.004 0
0.76 0.004 0
0.77 0.004 0
0.78 0.004 0
0.79 0.004 0
0.8 0.004 0
0.81 0.004 0
0.82 0.004 0
0.83 0.004 0
0.84 0.004 0
0.85 0.004 0
0.86 0.004 0
0.87 0.004 0
0.88 0.004 0
0.89 0.004 0
0.9 0.004 0
0.91 0.004 0
0.92 0.004 0
0.93 0.004 0
0.94 0.004 0
0.95 0.004 0
0.96 0.004 0
0.97 0.004 0
0.98 0.004 0
0.99 0.004 0
0 0.005 0
0.01 0.005 0
0.02 0.005 0
0.03 0.005 0
0.04 0.005 0
0.05 0.005 0
0.06 0.005 0
0.07 0.005 0
0.08 0.005 0
0.09 0.005 0
0.1 0.005 0
0.11 0.005 0
0.12 0.005 0
0.13 0.005 0
0.14 0.005 0
0.15 0.005 0
0.16 0.005 0
0.17 0.005 0
0.18 0.005 0
0.19 0.005 0
0.2 0.005 0
0.21 0.005 0
0.22 0.005 0
0.23 0.005 0
0.24 0.005 0
0.25 0.005 0
0.26 0.005 0
0.27 0.005 0
0.28 0.005 0
0.29 0.005 0
0.3 0.005 0
0.31 0.005 0
0.32 0.005 0
0.33 0.005 0
0.34 0.005 0
0.35 0.005 0
0.36 0.005 0
0.37 0.005 0
0.38 0.005 0
0.39 0.005 0
0.4 0.005 0
0.41 0.005 0
0.42 0.005 0
0.43 0.005 0
0.44 0.005 0
0.45 0.005 0
0.46 0.005 0
0.47 0.005 0
0.48 0.005 0
0.49 0.005 0
0.5 0.005 0
0.51 0.005 0
0.52 0.005 0
0.53 0.005 0
0.54 0.005 0
0.55 0.005 0
0.56 0.005 0
0.57 0.005 0
0.58 0.005 0
0.59 0.005 0
0.6 0.005 0
0.61 0.005 0
0.62 0.005 0
0.63 0.005 0
0.64 0.005 0
0.65 0.005 0
0.66 0.005 0
0.67 0.005 0
0.68 0.005 0
0.69 0.005 0
0.7 0.005 0
0.71 0.005 0
0.72 0.005 0
0.73 0.005 0
0.74 0.005 0
0.75 0.005 0
0.76 0.005 0
0.77 0.005 0
0.78 0.005 0
0.79 0.005 0
0.8 0.005 0
0.81 0.005 0
0.82 0.005 0
0.83 0.005 0
0.84 0.005 0
0.85 0.005 0
0.86 0.005 0
0.87 0.005 0
0.88 0.005 0
0.89 0.005 0
0.9 0.005 0
0.91 0.005 0
0.92 0.005 0
0.93 0.005 0
0.94 0.005 0
0.95 0.005 0
0.96 0.005 0
0.97 0.005 0
0.98 0.005 0
0.99 0.005 0
0 0.006 0
0.01 0.006 0
0.02 0.006 0
0.03 0.006 0
0.04 0.006 0
0.05 0.006 0
0.06 0.006 0
0.07 0.006 0
0.08 0.006 0
0.09 0.006 0
0.1 0.006 0
0.11 0.006 0
0.12 0.006 0
0.13 0.006 0
0.14 0.006 0
0.15 0.006 0
0.16 0.006 0
0.17 0.006 0
0.18 0.006 0
0.19 0.006 0
0.2 0.006 0
0.21 0.006 0
0.22 0.006 0
0.23 0.006 0
0.24 0.006 0
0.25 0.006 0
0.26 0.006 0
0.27 0.006 0
0.28 0.006 0
0.29 0.006 0
0.3 0.006 0
0.31 0.006 0
0.32 0.006 0
0.33 0.006 0
0.34 0.006 0
0.35 0.006 0
0.36 0.006 0
0.37 0.006 0
0.38 0.006 0
0.39 0.006 0
0.4 0.006 0
0.41 0.006 0
0.42 0.006 0
0.43 0.006 0
0.44 0.006 0
0.45 0.006 0
0.46 0.006 0
0.47 0.006 0
0.48 0.006 0
0.49 0.006 0
0.5 0.006 0
0.51 0.006 0
0.52 0.006 0
0.53 0.006 0
0.54 0.006 0
0.55 0.006 0
0.56 0.006 0
0.57 0.006 0
0.58 0.006 0
0.59 0.006 0
0.6 0.006 0
0.61 0.006 0
0.62 0.006 0
0.63 0.006 0
0.64 0.006 0
0.65 0.006 0
0.66 0.006 0
0.67 0.006 0
0.68 0.006 0
0.69 0.006 0
0.7 0.006 0
0.71 0.006 0
0.72 0.006 0
0.73 0.006 0
0.74 0.006 0
0.75 0.006 0
0.76 0.006 0
0.77 0.006 0
0.78 0.006 0
0.79 0.006 0
0.8 0.006 0
0.81 0.006 0
0.82 0.006 0
0.83 0.006 0
0.84 0.006 0
0.85 0.006 0
0.86 0.006 0
0.87 0.006 0
0.88 0.006 0
0.89 0.006 0
0.9 0.006 0
0.91 0.006 0
0.92 0.006 0
0.93 0.006 0
0.94 0.006 0
0.95 0.006 0
0.96 0.006 0
0.97 0.006 0
0.98 0.006 0
0.99 0.006 0
0 0.007 0
0.01 0.007 0
0.02 0.007 0
0.03 0.007 0
0.04 0.007 0
0.05 0.007 0
0.06 0.007 0
0.07 0.007 0
0.08 0.007 0
0.09 0.007 0
0.1 0.007 0
0.11 0.007 0
0.12 0.007 0
0.13 0.007 0
0.14 0.007 0
0.15 0.007 0
0.16 0.007 0
0.17 0.007 0
0.18 0.007 0
0.19 0.007 0
0.2 0.007 0
0.21 0.007 0
0.22 0.007 0
0.23 0.007 0
0.24 0.007 0
0.25 0.007 0
0.26 0.007 0
0.27 0.007 0
0.28 0.007 0
0.29 0.007 0
0.3 0.007 0
0.31 0.007 0
0.32 0.007 0
0.33 0.007 0
0.34 0.007 0
0.35 0.007 0
0.36 0.007 0
0.37 0.007 0
0.38 0.007 0
0.39 0.007 0
0.4 0.007 0
0.41 0.007 0
0.42 0.007 0
0.43 0.007 0
0.44 0.007 0
0.45 0.007 0
0.46 0.007 0
0.47 0.007 0
0.48 0.007 0
0.49 0.007 0
0.5 0.007 0
0.51 0.007 0
0.52 0.007 0
0.53 0.007 0
0.54 0.007 0
0.55 0.007 0
0.56 0.007 0
0.57 0.007 0
0.58 0.007 0
0.59 0.007 0
0.6 0.007 0
0.61 0.007 0
0.62 0.007 0
0.63 0.007 0
0.64 0.007 0
0.65 0.007 0
0.66 0.007 0
0.67 0.007 0
0.68 0.007 0
0.69 0.007 0
0.7 0.007 0
0.71 0.007 0
0.72 0.007 0
0.73 0.007 0
0.74 0.007 0
0.75 0.007 0
0.76 0.007 0
0.77 0.007 0
0.78 0.007 0
0.79 0.007 0
0.8 0.007 0
0.81 0.007 0
0.82 0.007 0
0.83 0.007 0
0.84 0.007 0
0.85 0.007 0
0.86 0.007 0
0.87 0.007 0
0.88 0.007 0
0.89 0.007 0
0.9 0.007 0
0.91 0.007 0
0.92 0.007 0
0.93 0.007 0
0.94 0.007 0
0.95 0.007 0
0.96 0.007 0
0.97 0.007 0
0.98 0.007 0
[...]
POINT_DATA 10000

SCALARS vel_X float 1
LOOKUP_TABLE default
0
0
0
0
0
0
0
0
0
0
0
0
0
0
0
0
0
0
0
0
0
0
0
0
0
0
0
0
0
0
0
0
0
0
0
0
0
0
0
0
0
0
0
0
0
0
0
0
0
0
0
0
0
0
0
0
0
0
0
0
0
0
0
0
0
0
0
0
0
0
0
0
0
0
0
0
0
0
0
0
0
0
0
0
0
0
0
0
0
0
0
0
0
0
0
0
0
0
0
0
1
0.405262
0.30786
0.385701
0.481683
0.339306
0.147974
0.042871
0.0108226
0.000794048
0.00123216
-0.000937467
0.000974128
-0.000970147
0.00097053
-0.000970497
0.0009705
-0.0009705
0.0009705
-0.0009705
0.0009705
-0.0009705
0.0009705
-0.0009705
0.0009705
-0.0009705
0.0009705
-0.0009705
0.0009705
-0.0009705
0.0009705
-0.0009705
0.0009705
-0.0009705
0.0009705
-0.0009705
0.0009705
-0.0009705
0.0009705
-0.0009705
0.0009705
-0.0009705
0.0009705
-0.0009705
0.0009705
-0.0009705
0.0009705
-0.0009705
0.0009705
-0.0009705
0.0009705
-0.0009705
0.0009705
-0.0009705
0.0009705
-0.0009705
0.0009705
-0.0009705
0.0009705
-0.0009705
0.0009705
-0.0009705
0.0009705
-0.0009705
0.0009705
-0.0009705
0.0009705
-0.0009705
0.0009705
-0.0009705
0.0009705
-0.0009705
0.0009705
-0.0009705
0.0009705
-0.0009705
0.0009705
-0.0009705
0.0009705
-0.0009705
0.0009705
-0.0009705
0.0009705
-0.0009705
0.0009705
-0.0009705
0.000970499
-0.000970504
0.000970432
-0.000971317
0.000963551
-0.00100876
0.000857311
-0.00104183
0.0012643
-0.00125601
-0.00038993
-0.000559856
-0.0543504
-0.0543504
1
0.699529
0.580434
0.692273
0.773011
0.516902
0.219362
0.0634097
0.015429
0.00157443
0.00139212
-0.000959709
0.00101368
-0.0010078
0.00100837
-0.00100832
0.00100832
-0.00100832
0.00100832
-0.00100832
0.00100832
-0.00100832
0.00100832
-0.00100832
0.00100832
-0.00100832
0.00100832
-0.00100832
0.00100832
-0.00100832
0.00100832
-0.00100832
0.00100832
-0.00100832
0.00100832
-0.00100832
0.00100832
-0.00100832
0.00100832
-0.00100832
0.00100832
-0.00100832
0.00100832
-0.00100832
0.00100832
-0.00100832
0.00100832
-0.00100832
0.00100832
-0.00100832
0.00100832
-0.00100832
0.00100832
-0.00100832
0.00100832
-0.00100832
0.00100832
-0.00100832
0.00100832
-0.00100832
0.00100832
-0.00100832
0.00100832
-0.00100832
0.00100832
-0.00100832
0.00100832
-0.00100832
0.00100832
-0.00100832
0.00100832
-0.00100832
0.00100832
-0.00100832
0.00100832
-0.00100832
0.00100832
-0.00100832
0.00100832
-0.00100832
0.00100832
-0.00100832
0.00100832
-0.00100832
0.00100832
-0.00100832
0.00100832
-0.00100833
0.00100822
-0.00100953
0.000998172
-0.00106412
0.000840396
-0.00113768
0.00138459
-0.00134693
-0.000949076
0.000264131
0.0664717
0.0664717
1
0.898965
0.796126
0.892792
0.929545
0.610391
0.259776
0.0760686
0.0186121
0.00208881
0.00157606
-0.00103391
0.00110256
-0.00109497
0.00109572
-0.00109565
0.00109566
-0.00109566
0.00109566
-0.00109566
0.00109566
-0.00109566
0.00109566
-0.00109566
0.00109566
-0.00109566
0.00109566
-0.00109566
0.00109566
-0.00109566
0.00109566
-0.00109566
0.00109566
-0.00109566
0.00109566
-0.00109566
0.00109566
-0.00109566
0.00109566
-0.00109566
0.00109566
-0.00109566
0.00109566
-0.00109566
0.00109566
-0.00109566
0.00109566
-0.00109566
0.00109566
-0.00109566
0.00109566
-0.00109566
0.00109566
-0.00109566
0.00109566
-0.00109566
0.00109566
-0.00109566
0.00109566
-0.00109566
0.00109566
-0.00109566
0.00109566
-0.00109566
0.00109566
-0.00109566
0.00109566
-0.00109566
0.00109566
-0.00109566
0.00109566
-0.00109566
0.00109566
-0.00109566
0.00109566
-0.00109566
0.00109566
-0.00109566
0.00109566
-0.00109566
0.00109566
-0.00109566
0.00109566
-0.00109566
0.00109566
-0.00109566
0.00109566
-0.00109567
0.00109553
-0.00109718
0.00108323
-0.00116183
0.000902742
-0.00124294
0.00147453
-0.00151695
-0.00091908
-0.00019286
-0.0587387
-0.0587387
1
1.02348
0.945332
1.00379
1.00592
0.663624
0.288324
0.0861972
0.0216915
0.00240998
0.00194631
-0.00128906
0.00137385
-0.00136431
0.00136526
-0.00136518
0.00136518
-0.00136518
0.00136518
-0.00136518
0.00136518
-0.00136518
0.00136518
-0.00136518
0.00136518
-0.00136518
0.00136518
-0.00136518
0.00136518
-0.00136518
0.00136518
-0.00136518
0.00136518
-0.00136518
0.00136518
-0.00136518
0.00136518
-0.00136518
0.00136518
-0.00136518
0.00136518
-0.00136518
0.00136518
-0.00136518
0.00136518
-0.00136518
0.00136518
-0.00136518
0.00136518
-0.00136518
0.00136518
-0.00136518
0.00136518
-0.00136518
0.00136518
-0.00136518
0.00136518
-0.00136518
0.00136518
-0.00136518
0.00136518
-0.00136518
0.00136518
-0.00136518
0.00136518
-0.00136518
0.00136518
-0.00136518
0.00136518
-0.00136518
0.00136518
-0.00136518
0.00136518
-0.00136518
0.00136518
-0.00136518
0.00136518
-0.00136518
0.00136518
-0.00136518
0.00136518
-0.00136518
0.00136518
-0.00136518
0.00136518
-0.00136518
0.00136518
-0.00136519
0.00136502
-0.00136704
0.00135061
-0.0014393
0.0011613
-0.00150045
0.00173056
-0.00191568
-0.000450537
0.000243043
0.0639326
0.0639326
1
1.09166
1.03453
1.05466
1.03951
0.698151
0.312163
0.0957274
0.0248536
0.00274702
0.00235648
-0.00156999
0.00167348
-0.00166162
0.00166282
-0.00166271
0.00166272
-0.00166272
0.00166272
-0.00166272
0.00166272
-0.00166272
0.00166272
-0.00166272
0.00166272
-0.00166272
0.00166272
-0.00166272
0.00166272
-0.00166272
0.00166272
-0.00166272
0.00166272
-0.00166272
0.00166272
-0.00166272
0.00166272
-0.00166272
0.00166272
-0.00166272
0.00166272
-0.00166272
0.00166272
-0.00166272
0.00166272
-0.00166272
0.00166272
-0.00166272
0.00166272
-0.00166272
0.00166272
-0.00166272
0.00166272
-0.00166272
0.00166272
-0.00166272
0.00166272
-0.00166272
0.00166272
-0.00166272
0.00166272
-0.00166272
0.00166272
-0.00166272
0.00166272
-0.00166272
0.00166272
-0.00166272
0.00166272
-0.00166272
0.00166272
-0.00166272
0.00166272
-0.00166272
0.00166272
-0.00166272
0.00166272
-0.00166272
0.00166272
-0.00166272
0.00166272
-0.00166272
0.00166272
-0.00166272
0.00166272
-0.00166272
0.00166272
-0.00166274
0.00166252
-0.00166495
0.00164596
-0.0017438
0.00145501
-0.00176951
0.00201503
-0.00235142
0.000129766
-0.000410932
-0.0602503
-0.0602503
1
1.12018
1.07904
1.07112
1.05175
0.723503
0.333732
0.105256
0.0280808
0.0032138
0.00270859
-0.001776
0.0019012
-0.00188659
0.00188809
-0.00188795
0.00188797
-0.00188796
0.00188796
-0.00188796
0.00188796
-0.00188796
0.00188796
-0.00188796
0.00188796
-0.00188796
0.00188796
-0.00188796
0.00188796
-0.00188796
0.00188796
-0.00188796
0.00188796
-0.00188796
0.00188796
-0.00188796
0.00188796
-0.00188796
0.00188796
-0.00188796
0.00188796
-0.00188796
0.00188796
-0.00188796
0.00188796
-0.00188796
0.00188796
-0.00188796
0.00188796
-0.00188796
0.00188796
-0.00188796
0.00188796
-0.00188796
0.00188796
-0.00188796
0.00188796
-0.00188796
0.00188796
-0.00188796
0.00188796
-0.00188796
0.00188796
-0.00188796
0.00188796
-0.00188796
0.00188796
-0.00188796
0.00188796
-0.00188796
0.00188796
-0.00188796
0.00188796
-0.00188796
0.00188796
-0.00188796
0.00188796
-0.00188796
0.00188796
-0.00188796
0.00188796
-0.00188796
0.00188796
-0.00188796
0.00188796
-0.00188796
0.00188796
-0.00188798
0.00188771
-0.0018906
0.00186895
-0.0019753
0.00168093
-0.00195882
0.00222626
-0.00269672
0.000666848
-4.59122e-06
0.0630076
0.0630076
1
1.12344
1.09504
1.07051
1.05366
0.743618
0.35375
0.114913
0.0313341
0.00385855
0.00295761
-0.00186085
0.0020111
-0.00199322
0.0019951
-0.00199492
0.00199494
-0.00199494
0.00199494
-0.00199494
0.00199494
-0.00199494
0.00199494
-0.00199494
0.00199494
-0.00199494
0.00199494
-0.00199494
0.00199494
-0.00199494
0.00199494
-0.00199494
0.00199494
-0.00199494
0.00199494
-0.00199494
0.00199494
-0.00199494
0.00199494
-0.00199494
0.00199494
-0.00199494
0.00199494
-0.00199494
0.00199494
-0.00199494
0.00199494
-0.00199494
0.00199494
-0.00199494
0.00199494
-0.00199494
0.00199494
-0.00199494
0.00199494
-0.00199494
0.00199494
-0.00199494
0.00199494
-0.00199494
0.00199494
-0.00199494
0.00199494
-0.00199494
0.00199494
-0.00199494
0.00199494
-0.00199494
0.00199494
-0.00199494
0.00199494
-0.00199494
0.00199494
-0.00199494
0.00199494
-0.00199494
0.00199494
-0.00199494
0.00199494
-0.00199494
0.00199494
-0.00199494
0.00199494
-0.00199494
0.00199494
-0.00199494
0.00199494
-0.00199496
0.00199463
-0.00199802
0.00197363
-0.00208781
0.00179211
-0.0020274
0.00231413
-0.00289543
0.00108384
-0.000642964
-0.0608321
-0.0608321
1
1.11283
1.0953
1.06281
1.05058
0.760075
0.372399
0.124643
0.0346172
0.00466196
0.00312223
-0.00184251
0.00202139
-0.0019997
0.00200202
-0.0020018
0.00200182
-0.00200182
0.00200182
-0.00200182
0.00200182
-0.00200182
0.00200182
-0.00200182
0.00200182
-0.00200182
0.00200182
-0.00200182
0.00200182
-0.00200182
0.00200182
-0.00200182
0.00200182
-0.00200182
0.00200182
-0.00200182
0.00200182
-0.00200182
0.00200182
-0.00200182
0.00200182
-0.00200182
0.00200182
-0.00200182
0.00200182
-0.00200182
0.00200182
-0.00200182
0.00200182
-0.00200182
0.00200182
-0.00200182
0.00200182
-0.00200182
0.00200182
-0.00200182
0.00200182
-0.00200182
0.00200182
-0.00200182
0.00200182
-0.00200182
0.00200182
-0.00200182
0.00200182
-0.00200182
0.00200182
-0.00200182
0.00200182
-0.00200182
0.00200182
-0.00200182
0.00200182
-0.00200182
0.00200182
-0.00200182
0.00200182
-0.00200182
0.00200182
-0.00200182
0.00200182
-0.00200182
0.00200182
-0.00200182
0.00200182
-0.00200182
0.00200181
-0.00200184
0.00200145
-0.00200537
0.00197821
-0.00209942
0.00180624
-0.00199619
0.00229451
-0.00296461
0.00139672
-0.000220449
0.0626306
0.0626306
1
1.09637
1.08816
1.0531
1.04503
0.773599
0.389686
0.134368
0.0379161
0.00561405
0.00321008
-0.00172816
0.00193951
-0.0019134
0.00191624
-0.00191596
0.00191599
-0.00191598
0.00191598
-0.00191598
0.00191598
-0.00191598
0.00191598
-0.00191598
0.00191598
-0.00191598
0.00191598
-0.00191598
0.00191598
-0.00191598
0.00191598
-0.00191598
0.00191598
-0.00191598
0.00191598
-0.00191598
0.00191598
-0.00191598
0.00191598
-0.00191598
0.00191598
-0.00191598
0.00191598
-0.00191598
0.00191598
-0.00191598
0.00191598
-0.00191598
0.00191598
-0.00191598
0.00191598
-0.00191598
0.00191598
-0.00191598
0.00191598
-0.00191598
0.00191598
-0.00191598
0.00191598
-0.00191598
0.00191598
-0.00191598
0.00191598
-0.00191598
0.00191598
-0.00191598
0.00191598
-0.00191598
0.00191598
-0.00191598
0.00191598
-0.00191598
0.00191598
-0.00191598
0.00191598
-0.00191598
0.00191598
-0.00191598
0.00191598
-0.00191598
0.00191598
-0.00191598
0.00191598
-0.00191598
0.00191598
-0.00191598
0.00191598
-0.00191602
0.00191554
-0.00192005
0.00189012
-0.00201742
0.00173035
-0.00187428
0.00217455
-0.00291369
0.00159408
-0.00083991
-0.0610858
-0.0610858
1
1.07892
1.07837
1.04369
1.03831
0.784597
0.405607
0.143989
0.0412372
0.00668114
0.00325135
-0.00154779
0.00179564
-0.00176443
0.00176789
-0.00176755
0.00176758
-0.00176757
0.00176757
-0.00176757
0.00176757
-0.00176757
0.00176757
-0.00176757
0.00176757
-0.00176757
0.00176757
-0.00176757
0.00176757
-0.00176757
0.00176757
-0.00176757
0.00176757
-0.00176757
0.00176757
-0.00176757
0.00176757
-0.00176757
0.00176757
-0.00176757
0.00176757
-0.00176757
0.00176757
-0.00176757
0.00176757
-0.00176757
0.00176757
-0.00176757
0.00176757
-0.00176757
0.00176757
-0.00176757
0.00176757
-0.00176757
0.00176757
-0.00176757
0.00176757
-0.00176757
0.00176757
-0.00176757
0.00176757
-0.00176757
0.00176757
-0.00176757
0.00176757
-0.00176757
0.00176757
-0.00176757
0.00176757
-0.00176757
0.00176757
-0.00176757
0.00176757
-0.00176757
0.00176757
-0.00176757
0.00176757
-0.00176757
0.00176757
-0.00176757
0.00176757
-0.00176757
0.00176757
-0.00176757
0.00176757
-0.00176757
0.00176757
-0.00176762
0.00176706
-0.00177217
0.00173953
-0.00187187
0.00159418
-0.00169295
0.00198545
-0.0027754
0.00170655
-0.000384521
0.0624509
0.0624509
1
1.06301
1.06825
1.03546
1.03111
0.793405
0.420151
0.153432
0.0445624
0.00785244
0.00325243
-0.00130778
0.00159635
-0.00155933
0.00156351
-0.00156309
0.00156313
-0.00156312
0.00156312
-0.00156312
0.00156312
-0.00156312
0.00156312
-0.00156312
0.00156312
-0.00156312
0.00156312
-0.00156312
0.00156312
-0.00156312
0.00156312
-0.00156312
0.00156312
-0.00156312
0.00156312
-0.00156312
0.00156312
-0.00156312
0.00156312
-0.00156312
0.00156312
-0.00156312
0.00156312
-0.00156312
0.00156312
-0.00156312
0.00156312
-0.00156312
0.00156312
-0.00156312
0.00156312
-0.00156312
0.00156312
-0.00156312
0.00156312
-0.00156312
0.00156312
-0.00156312
0.00156312
-0.00156312
0.00156312
-0.00156312
0.00156312
-0.00156312
0.00156312
-0.00156312
0.00156312
-0.00156312
0.00156312
-0.00156312
0.00156312
-0.00156312
0.00156312
-0.00156312
0.00156312
-0.00156312
0.00156312
-0.00156312
0.00156312
-0.00156312
0.00156312
-0.00156312
0.00156312
-0.00156312
0.00156312
-0.00156312
0.00156312
-0.00156317
0.00156252
-0.00156827
0.001533
-0.00166926
0.00140385
-0.00145954
0.00173541
-0.00255898
0.0017253
-0.0009572
-0.0612218
-0.0612218
1
1.04954
1.05878
1.02866
1.02388
0.800305
0.433353
0.16261
0.0478952
0.00909495
0.00324104
-0.0010361
0.00136975
-0.00132614
0.00133115
-0.00133064
0.00133069
-0.00133068
0.00133068
-0.00133068
0.00133068
-0.00133068
0.00133068
-0.00133068
0.00133068
-0.00133068
0.00133068
-0.00133068
0.00133068
-0.00133068
0.00133068
-0.00133068
0.00133068
-0.00133068
0.00133068
-0.00133068
0.00133068
-0.00133068
0.00133068
-0.00133068
0.00133068
-0.00133068
0.00133068
-0.00133068
0.00133068
-0.00133068
0.00133068
-0.00133068
0.00133068
-0.00133068
0.00133068
-0.00133068
0.00133068
-0.00133068
0.00133068
-0.00133068
0.00133068
-0.00133068
0.00133068
-0.00133068
0.00133068
-0.00133068
0.00133068
-0.00133068
0.00133068
-0.00133068
0.00133068
-0.00133068
0.00133068
-0.00133068
0.00133068
-0.00133068
0.00133068
-0.00133068
0.00133068
-0.00133068
0.00133068
-0.00133068
0.00133068
-0.00133068
0.00133068
-0.00133068
0.00133068
-0.00133068
0.00133068
-0.00133068
0.00133068
-0.00133074
0.00133
-0.00133639
0.00129864
-0.00143764
0.00118697
-0.00120268
0.0014544
-0.0022952
0.00168378
-0.000446849
0.0623398
0.0623398
1
1.03864
1.05027
1.02324
1.01691
0.805583
0.445243
0.171471
0.051216
0.0103987
0.00322118
-0.000737213
0.00112042
-0.0010694
0.00107536
-0.00107474
0.0010748
-0.00107479
0.00107479
-0.00107479
0.00107479
-0.00107479
0.00107479
-0.00107479
0.00107479
-0.00107479
0.00107479
-0.00107479
0.00107479
-0.00107479
0.00107479
-0.00107479
0.00107479
-0.00107479
0.00107479
-0.00107479
0.00107479
-0.00107479
0.00107479
-0.00107479
0.00107479
-0.00107479
0.00107479
-0.00107479
0.00107479
-0.00107479
0.00107479
-0.00107479
0.00107479
-0.00107479
0.00107479
-0.00107479
0.00107479
-0.00107479
0.00107479
-0.00107479
0.00107479
-0.00107479
0.00107479
-0.00107479
0.00107479
-0.00107479
0.00107479
-0.00107479
0.00107479
-0.00107479
0.00107479
-0.00107479
0.00107479
-0.00107479
0.00107479
-0.00107479
0.00107479
-0.00107479
0.00107479
-0.00107479
0.00107479
-0.00107479
0.00107479
-0.00107479
0.00107479
-0.00107479
0.00107479
-0.00107479
0.00107479
-0.00107479
0.00107479
-0.00107486
0.00107401
-0.00108106
0.00104101
-0.00118155
0.000947628
-0.000927216
0.00114883
-0.00199159
0.00157628
-0.000964516
-0.0613194
-0.0613194
1
1.03
1.04275
1.01903
1.01042
0.809486
0.455893
0.179949
0.0545268
0.0117327
0.00321726
-0.00043624
0.000873519
-0.000814225
0.000821275
-0.000820529
0.0008206
-0.000820594
0.000820595
-0.000820595
0.000820595
-0.000820595
0.000820595
-0.000820595
0.000820595
-0.000820595
0.000820595
-0.000820595
0.000820595
-0.000820595
0.000820595
-0.000820595
0.000820595
-0.000820595
0.000820595
-0.000820595
0.000820595
-0.000820595
0.000820595
-0.000820595
0.000820595
-0.000820595
0.000820595
-0.000820595
0.000820595
-0.000820595
0.000820595
-0.000820595
0.000820595
-0.000820595
0.000820595
-0.000820595
0.000820595
-0.000820595
0.000820595
-0.000820595
0.000820595
-0.000820595
0.000820595
-0.000820595
0.000820595
-0.000820595
0.000820595
-0.000820595
0.000820595
-0.000820595
0.000820595
-0.000820595
0.000820595
-0.000820595
0.000820595
-0.000820595
0.000820595
-0.000820595
0.000820595
-0.000820595
0.000820595
-0.000820595
0.000820595
-0.000820595
0.000820595
-0.000820595
0.000820595
-0.000820595
0.000820595
-0.000820595
0.000820589
-0.000820676
0.000819714
-0.00082742
0.000785272
-0.000926193
0.000710532
-0.000658391
0.000845577
-0.00167632
0.00143766
-0.000404283
0.0622489
0.0622489
1
1.02327
1.03611
1.01587
1.00452
0.81226
0.465365
0.188014
0.0578061
0.0130905
0.00322883
-0.000133618
0.000629508
-0.000561041
0.000569324
-0.000568434
0.00056852
-0.000568512
0.000568513
-0.000568513
0.000568513
-0.000568513
0.000568513
-0.000568513
0.000568513
-0.000568513
0.000568513
-0.000568513
0.000568513
-0.000568513
0.000568513
-0.000568513
0.000568513
-0.000568513
0.000568513
-0.000568513
0.000568513
-0.000568513
0.000568513
-0.000568513
0.000568513
-0.000568513
0.000568513
-0.000568513
0.000568513
-0.000568513
0.000568513
-0.000568513
0.000568513
-0.000568513
0.000568513
-0.000568513
0.000568513
-0.000568513
0.000568513
-0.000568513
0.000568513
-0.000568513
0.000568513
-0.000568513
0.000568513
-0.000568513
0.000568513
-0.000568513
0.000568513
-0.000568513
0.000568513
-0.000568513
0.000568513
-0.000568513
0.000568513
-0.000568513
0.000568513
-0.000568513
0.000568513
-0.000568513
0.000568513
-0.000568513
0.000568513
-0.000568513
0.000568513
-0.000568513
0.000568513
-0.000568513
0.000568513
-0.000568513
0.000568506
-0.000568607
0.000567529
-0.000575884
0.000531884
-0.000672038
0.000475688
-0.000396547
0.000546596
-0.001353
0.00126147
-0.000880522
-0.0614074
-0.0614074
1
1.01804
1.03028
1.01353
0.999303
0.814109
0.473751
0.195624
0.061054
0.0144454
0.00327514
0.000150322
0.000408687
-0.000330117
0.000339787
-0.00033873
0.000338834
-0.000338825
0.000338825
-0.000338825
0.000338825
-0.000338825
0.000338825
-0.000338825
0.000338825
-0.000338825
0.000338825
-0.000338825
0.000338825
-0.000338825
0.000338825
-0.000338825
0.000338825
-0.000338825
0.000338825
-0.000338825
0.000338825
-0.000338825
0.000338825
-0.000338825
0.000338825
-0.000338825
0.000338825
-0.000338825
0.000338825
-0.000338825
0.000338825
-0.000338825
0.000338825
-0.000338825
0.000338825
-0.000338825
0.000338825
-0.000338825
0.000338825
-0.000338825
0.000338825
-0.000338825
0.000338825
-0.000338825
0.000338825
-0.000338825
0.000338825
-0.000338825
0.000338825
-0.000338825
0.000338825
-0.000338825
0.000338825
-0.000338825
0.000338825
-0.000338825
0.000338825
-0.000338825
0.000338825
-0.000338825
0.000338825
-0.000338825
0.000338825
-0.000338825
0.000338825
-0.000338825
0.000338825
-0.000338825
0.000338825
-0.000338826
0.000338818
-0.000338933
0.000337734
-0.000346723
0.000301135
-0.000439447
0.000263
-0.000161718
0.000273426
-0.00104496
0.00108018
-0.000288369
0.0621624
0.0621624
1
1.01402
1.02513
1.01185
0.994776
0.815232
0.481128
0.202769
0.0642477
0.0157959
0.00335039
0.000420092
0.000206467
-0.000116842
0.000128062
-0.000126815
0.00012694
-0.000126929
0.000126929
-0.000126929
0.000126929
-0.000126929
0.000126929
-0.000126929
0.000126929
-0.000126929
0.000126929
-0.000126929
0.000126929
-0.000126929
0.000126929
-0.000126929
0.000126929
-0.000126929
0.000126929
-0.000126929
0.000126929
-0.000126929
0.000126929
-0.000126929
0.000126929
-0.000126929
0.000126929
-0.000126929
0.000126929
-0.000126929
0.000126929
-0.000126929
0.000126929
-0.000126929
0.000126929
-0.000126929
0.000126929
-0.000126929
0.000126929
-0.000126929
0.000126929
-0.000126929
0.000126929
-0.000126929
0.000126929
-0.000126929
0.000126929
-0.000126929
0.000126929
-0.000126929
0.000126929
-0.000126929
0.000126929
-0.000126929
0.000126929
-0.000126929
0.000126929
-0.000126929
0.000126929
-0.000126929
0.000126929
-0.000126929
0.000126929
-0.000126929
0.000126929
-0.000126929
0.000126929
-0.000126929
0.000126929
-0.00012693
0.00012692
-0.000127051
0.000125729
-0.000135328
8.84338e-05
-0.000223909
6.75341e-05
5.1068e-05
2.24407e-05
-0.000750565
0.000883973
-0.000742407
-0.0614927
-0.0614927
1
1.01092
1.02059
1.01068
0.990947
0.815784
0.487594
0.209427
0.0673865
0.01712
0.00346882
0.000660064
3.83538e-05
6.32937e-05
-5.03534e-05
5.18146e-05
-5.16665e-05
5.16801e-05
-5.16789e-05
5.1679e-05
-5.1679e-05
5.1679e-05
-5.1679e-05
5.1679e-05
-5.1679e-05
5.1679e-05
-5.1679e-05
5.1679e-05
-5.1679e-05
5.1679e-05
-5.1679e-05
5.1679e-05
-5.1679e-05
5.1679e-05
-5.1679e-05
5.1679e-05
-5.1679e-05
5.1679e-05
-5.1679e-05
5.1679e-05
-5.1679e-05
5.1679e-05
-5.1679e-05
5.1679e-05
-5.1679e-05
5.1679e-05
-5.1679e-05
5.1679e-05