# vtk DataFile Version 2.0
FlowField
ASCII
DATASET STRUCTURED_GRID
DIMENSIONS 100 1 100
POINTS 10000 float
0 0 0
0.01 0 0
0.02 0 0
0.03 0 0
0.04 0 0
0.05 0 0
0.06 0 0
0.07 0 0
0.08 0 0
0.09 0 0
0.1 0 0
0.11 0 0
0.12 0 0
0.13 0 0
0.14 0 0
0.15 0 0
0.16 0 0
0.17 0 0
0.18 0 0
0.19 0 0
0.2 0 0
0.21 0 0
0.22 0 0
0.23 0 0
0.24 0 0
0.25 0 0
0.26 0 0
0.27 0 0
0.28 0 0
0.29 0 0
0.3 0 0
0.31 0 0
0.32 0 0
0.33 0 0
0.34 0 0
0.35 0 0
0.36 0 0
0.37 0 0
0.38 0 0
0.39 0 0
0.4 0 0
0.41 0 0
0.42 0 0
0.43 0 0
0.44 0 0
0.45 0 0
0.46 0 0
0.47 0 0
0.48 0 0
0.49 0 0
0.5 0 0
0.51 0 0
0.52 0 0
0.53 0 0
0.54 0 0
0.55 0 0
0.56 0 0
0.57 0 0
0.58 0 0
0.59 0 0
0.6 0 0
0.61 0 0
0.62 0 0
0.63 0 0
0.64 0 0
0.65 0 0
0.66 0 0
0.67 0 0
0.68 0 0
0.69 0 0
0.7 0 0
0.71 0 0
0.72 0 0
0.73 0 0
0.74 0 0
0.75 0 0
0.76 0 0
0.77 0 0
0.78 0 0
0.79 0 0
0.8 0 0
0.81 0 0
0.82 0 0
0.83 0 0
0.84 0 0
0.85 0 0
0.86 0 0
0.87 0 0
0.88 0 0
0.89 0 0
0.9 0 0
0.91 0 0
0.92 0 0
0.93 0 0
0.94 0 0
0.95 0 0
0.96 0 0
0.97 0 0
0.98 0 0
0.99 0 0
0 0.001 0
0.01 0.001 0
0.02 0.001 0
0.03 0.001 0
0.04 0.001 0
0.05 0.001 0
0.06 0.001 0
0.07 0.001 0
0.08 0.001 0
0.09 0.001 0
0.1 0.001 0
0.11 0.001 0
0.12 0.001 0
0.13 0.001 0
0.14 0.001 0
0.15 0.001 0
0.16 0.001 0
0.17 0.001 0
0.18 0.001 0
0.19 0.001 0
0.2 0.001 0
0.21 0.001 0
0.22 0.001 0
0.23 0.001 0
0.24 0.001 0
0.25 0.001 0
0.26 0.001 0
0.27 0.001 0
0.28 0.001 0
0.29 0.001 0
0.3 0.001 0
0.31 0.001 0
0.32 0.001 0
0.33 0.001 0
0.34 0.001 0
0.35 0.001 0
0.36 0.001 0
0.37 0.001 0
0.38 0.001 0
0.39 0.001 0
0.4 0.001 0
0.41 0.001 0
0.42 0.001 0
0.43 0.001 0
0.44 0.001 0
0.45 0.001 0
0.46 0.001 0
0.47 0.001 0
0.48 0.001 0
0.49 0.001 0
0.5 0.001 0
0.51 0.001 0
0.52 0.001 0
0.53 0.001 0
0.54 0.001 0
0.55 0.001 0
0.56 0.001 0
0.57 0.001 0
0.58 0.001 0
0.59 0.001 0
0.6 0.001 0
0.61 0.001 0
0.62 0.001 0
0.63 0.001 0
0.64 0.001 0
0.65 0.001 0
0.66 0.001 0
0.67 0.001 0
0.68 0.001 0
0.69 0.001 0
0.7 0.001 0
0.71 0.001 0
0.72 0.001 0
0.73 0.001 0
0.74 0.001 0
0.75 0.001 0
0.76 0.001 0
0.77 0.001 0
0.78 0.001 0
0.79 0.001 0
0.8 0.001 0
0.81 0.001 0
0.82 0.001 0
0.83 0.001 0
0.84 0.001 0
0.85 0.001 0
0.86 0.001 0
0.87 0.001 0
0.88 0.001 0
0.89 0.001 0
0.9 0.001 0
0.91 0.001 0
0.92 0.001 0
0.93 0.001 0
0.94 0.001 0
0.95 0.001 0
0.96 0.001 0
0.97 0.001 0
0.98 0.001 0
0.99 0.001 0
0 0.002 0
0.01 0.002 0
0.02 0.002 0
0.03 0.002 0
0.04 0.002 0
0.05 0.002 0
0.06 0.002 0
0.07 0.002 0
0.08 0.002 0
0.09 0.002 0
0.1 0.002 0
0.11 0.002 0
0.12 0.002 0
0.13 0.002 0
0.14 0.002 0
0.15 0.002 0
0.16 0.002 0
0.17 0.002 0
0.18 0.002 0
0.19 0.002 0
0.2 0.002 0
0.21 0.002 0
0.22 0.002 0
0.23 0.002 0
0.24 0.002 0
0.25 0.002 0
0.26 0.002 0
0.27 0.002 0
0.28 0.002 0
0.29 0.002 0
0.3 0.002 0
0.31 0.002 0
0.32 0.002 0
0.33 0.002 0
0.34 0.002 0
0.35 0.002 0
0.36 0.002 0
0.37 0.002 0
0.38 0.002 0
0.39 0.002 0
0.4 0.002 0
0.41 0.002 0
0.42 0.002 0
0.43 0.002 0
0.44 0.002 0
0.45 0.002 0
0.46 0.002 0
0.47 0.002 0
0.48 0.002 0
0.49 0.002 0
0.5 0.002 0
0.51 0.002 0
0.52 0.002 0
0.53 0.002 0
0.54 0.002 0
0.55 0.002 0
0.56 0.002 0
0.57 0.002 0
0.58 0.002 0
0.59 0.002 0
0.6 0.002 0
0.61 0.002 0
0.62 0.002 0
0.63 0.002 0
0.64 0.002 0
0.65 0.002 0
0.66 0.002 0
0.67 0.002 0
0.68 0.002 0
0.69 0.002 0
0.7 0.002 0
0.71 0.002 0
0.72 0.002 0
0.73 0.002 0
0.74 0.002 0
0.75 0.002 0
0.76 0.002 0
0.77 0.002 0
0.78 0.002 0
0.79 0.002 0
0.8 0.002 0
0.81 0.002 0
0.82 0.002 0
0.83 0.002 0
0.84 0.002 0
0.85 0.002 0
0.86 0.002 0
0.87 0.002 0
0.88 0.002 0
0.89 0.002 0
0.9 0.002 0
0.91 0.002 0
0.92 0.002 0
0.93 0.002 0
0.94 0.002 0
0.95 0.002 0
0.96 0.002 0
0.97 0.002 0
0.98 0.002 0
0.99 0.002 0
0 0.003 0
0.01 0.003 0
0.02 0.003 0
0.03 0.003 0
0.04 0.003 0
0.05 0.003 0
0.06 0.003 0
0.07 0.003 0
0.08 0.003 0
0.09 0.003 0
0.1 0.003 0
0.11 0.003 0
0.12 0.003 0
0.13 0.003 0
0.14 0.003 0
0.15 0.003 0
0.16 0.003 0
0.17 0.003 0
0.18 0.003 0
0.19 0.003 0
0.2 0.003 0
0.21 0.003 0
0.22 0.003 0
0.23 0.003 0
0.24 0.003 0
0.25 0.003 0
0.26 0.003 0
0.27 0.003 0
0.28 0.003 0
0.29 0.003 0
0.3 0.003 0
0.31 0.003 0
0.32 0.003 0
0.33 0.003 0
0.34 0.003 0
0.35 0.003 0
0.36 0.003 0
0.37 0.003 0
0.38 0.003 0
0.39 0.003 0
0.4 0.003 0
0.41 0.003 0
0.42 0.003 0
0.43 0.003 0
0.44 0.003 0
0.45 0.003 0
0.46 0.003 0
0.47 0.003 0
0.48 0.003 0
0.49 0.003 0
0.5 0.003 0
0.51 0.003 0
0.52 0.003 0
0.53 0.003 0
0.54 0.003 0
0.55 0.003 0
0.56 0.003 0
0.57 0.003 0
0.58 0.003 0
0.59 0.003 0
0.6 0.003 0
0.61 0.003 0
0.62 0.003 0
0.63 0.003 0
0.64 0.003 0
0.65 0.003 0
0.66 0.003 0
0.67 0.003 0
0.68 0.003 0
0.69 0.003 0
0.7 0.003 0
0.71 0.003 0
0.72 0.003 0
0.73 0.003 0
0.74 0.003 0
0.75 0.003 0
0.76 0.003 0
0.77 0.003 0
0.78 0.003 0
0.79 0.003 0
0.8 0.003 0
0.81 0.003 0
0.82 0.003 0
0.83 0.003 0
0.84 0.003 0
0.85 0.003 0
0.86 0.003 0
0.87 0.003 0
0.88 0.003 0
0.89 0.003 0
0.9 0.003 0
0.91 0.003 0
0.92 0.003 0
0.93 0.003 0
0.94 0.003 0
0.95 0.003 0
0.96 0.003 0
0.97 0.003 0
0.98 0.003 0
0.99 0.003 0
0 0.004 0
0.01 0.004 0
0.02 0.004 0
0.03 0.004 0
0.04 0.004 0
0.05 0.004 0
0.06 0.004 0
0.07 0.004 0
0.08 0.004 0
0.09 0.004 0
0.1 0.004 0
0.11 0.004 0
0.12 0.004 0
0.13 0.004 0
0.14 0.004 0
0.15 0.004 0
0.16 0.004 0
0.17 0.004 0
0.18 0.004 0
0.19 0.004 0
0.2 0.004 0
0.21 0.004 0
0.22 0.004 0
0.23 0.004 0
0.24 0.004 0
0.25 0.004 0
0.26 0.004 0
0.27 0.004 0
0.28 0.004 0
0.29 0.004 0
0.3 0.004 0
0.31 0.004 0
0.32 0.004 0
0.33 0.004 0
0.34 0.004 0
0.35 0.004 0
0.36 0.004 0
0.37 0.004 0
0.38 0.004 0
0.39 0.004 0
0.4 0.004 0
0.41 0.004 0
0.42 0.004 0
0.43 0.004 0
0.44 0.004 0
0.45 0.004 0
0.46 0.004 0
0.47 0.004 0
0.48 0.004 0
0.49 0.004 0
0.5 0.004 0
0.51 0.004 0
0.52 0.004 0
0.53 0.004 0
0.54 0.004 0
0.55 0.004 0
0.56 0.004 0
0.57 0.004 0
0.58 0.004 0
0.59 0.004 0
0.6 0.004 0
0.61 0.004 0
0.62 0.004 0
0.63 0.004 0
0.64 0.004 0
0.65 0.004 0
0.66 0.004 0
0.67 0.004 0
0.68 0.004 0
0.69 0.004 0
0.7 0.004 0
0.71 0.004 0
0.72 0.004 0
0.73 0.004 0
0.74 0.004 0
0.75 0.004 0
0.76 0.004 0
0.77 0.004 0
0.78 0.004 0
0.79 0.004 0
0.8 0.004 0
0.81 0.004 0
0.82 0.004 0
0.83 0.004 0
0.84 0.004 0
0.85 0.004 0
0.86 0.004 0
0.87 0.004 0
0.88 0.004 0
0.89 0.004 0
0.9 0.004 0
0.91 0.004 0
0.92 0.004 0
0.93 0.004 0
0.94 0.004 0
0.95 0.004 0
0.96 0.004 0
0.97 0.004 0
0.98 0.004 0
0.99 0.004 0
0 0.005 0
0.01 0.005 0
0.02 0.005 0
0.03 0.005 0
0.04 0.005 0
0.05 0.005 0
0.06 0.005 0
0.07 0.005 0
0.08 0.005 0
0.09 0.005 0
0.1 0.005 0
0.11 0.005 0
0.12 0.005 0
0.13 0.005 0
0.14 0.005 0
0.15 0.005 0
0.16 0.005 0
0.17 0.005 0
0.18 0.005 0
0.19 0.005 0
0.2 0.005 0
0.21 0.005 0
0.22 0.005 0
0.23 0.005 0
0.24 0.005 0
0.25 0.005 0
0.26 0.005 0
0.27 0.005 0
0.28 0.005 0
0.29 0.005 0
0.3 0.005 0
0.31 0.005 0
0.32 0.005 0
0.33 0.005 0
0.34 0.005 0
0.35 0.005 0
0.36 0.005 0
0.37 0.005 0
0.38 0.005 0
0.39 0.005 0
0.4 0.005 0
0.41 0.005 0
0.42 0.005 0
0.43 0.005 0
0.44 0.005 0
0.45 0.005 0
0.46 0.005 0
0.47 0.005 0
0.48 0.005 0
0.49 0.005 0
0.5 0.005 0
0.51 0.005 0
0.52 0.005 0
0.53 0.005 0
0.54 0.005 0
0.55 0.005 0
0.56 0.005 0
0.57 0.005 0
0.58 0.005 0
0.59 0.005 0
0.6 0.005 0
0.61 0.005 0
0.62 0.005 0
0.63 0.005 0
0.64 0.005 0
0.65 0.005 0
0.66 0.005 0
0.67 0.005 0
0.68 0.005 0
0.69 0.005 0
0.7 0.005 0
0.71 0.005 0
0.72 0.005 0
0.73 0.005 0
0.74 0.005 0
0.75 0.005 0
0.76 0.005 0
0.77 0.005 0
0.78 0.005 0
0.79 0.005 0
0.8 0.005 0
0.81 0.005 0
0.82 0.005 0
0.83 0.005 0
0.84 0.005 0
0.85 0.005 0
0.86 0.005 0
0.87 0.005 0
0.88 0.005 0
0.89 0.005 0
0.9 0.005 0
0.91 0.005 0
0.92 0.005 0
0.93 0.005 0
0.94 0.005 0
0.95 0.005 0
0.96 0.005 0
0.97 0.005 0
0.98 0.005 0
0.99 0.005 0
0 0.006 0
0.01 0.006 0
0.02 0.006 0
0.03 0.006 0
0.04 0.006 0
0.05 0.006 0
0.06 0.006 0
0.07 0.006 0
0.08 0.006 0
0.09 0.006 0
0.1 0.006 0
0.11 0.006 0
0.12 0.006 0
0.13 0.006 0
0.14 0.006 0
0.15 0.006 0
0.16 0.006 0
0.17 0.006 0
0.18 0.006 0
0.19 0.006 0
0.2 0.006 0
0.21 0.006 0
0.22 0.006 0
0.23 0.006 0
0.24 0.006 0
0.25 0.006 0
0.26 0.006 0
0.27 0.006 0
0.28 0.006 0
0.29 0.006 0
0.3 0.006 0
0.31 0.006 0
0.32 0.006 0
0.33 0.006 0
0.34 0.006 0
0.35 0.006 0
0.36 0.006 0
0.37 0.006 0
0.38 0.006 0
0.39 0.006 0
0.4 0.006 0
0.41 0.006 0
0.42 0.006 0
0.43 0.006 0
0.44 0.006 0
0.45 0.006 0
0.46 0.006 0
0.47 0.006 0
0.48 0.006 0
0.49 0.006 0
0.5 0.006 0
0.51 0.006 0
0.52 0.006 0
0.53 0.006 0
0.54 0.006 0
0.55 0.006 0
0.56 0.006 0
0.57 0.006 0
0.58 0.006 0
0.59 0.006 0
0.6 0.006 0
0.61 0.006 0
0.62 0.006 0
0.63 0.006 0
0.64 0.006 0
0.65 0.006 0
0.66 0.006 0
0.67 0.006 0
0.68 0.006 0
0.69 0.006 0
0.7 0.006 0
0.71 0.006 0
0.72 0.006 0
0.73 0.006 0
0.74 0.006 0
0.75 0.006 0
0.76 0.006 0
0.77 0.006 0
0.78 0.006 0
0.79 0.006 0
0.8 0.006 0
0.81 0.006 0
0.82 0.006 0
0.83 0.006 0
0.84 0.006 0
0.85 0.006 0
0.86 0.006 0
0.87 0.006 0
0.88 0.006 0
0.89 0.006 0
0.9 0.006 0
0.91 0.006 0
0.92 0.006 0
0.93 0.006 0
0.94 0.006 0
0.95 0.006 0
0.96 0.006 0
0.97 0.006 0
0.98 0.006 0
0.99 0.006 0
0 0.007 0
0.01 0.007 0
0.02 0.007 0
0.03 0.007 0
0.04 0.007 0
0.05 0.007 0
0.06 0.007 0
0.07 0.007 0
0.08 0.007 0
0.09 0.007 0
0.1 0.007 0
0.11 0.007 0
0.12 0.007 0
0.13 0.007 0
0.14 0.007 0
0.15 0.007 0
0.16 0.007 0
0.17 0.007 0
0.18 0.007 0
0.19 0.007 0
0.2 0.007 0
0.21 0.007 0
0.22 0.007 0
0.23 0.007 0
0.24 0.007 0
0.25 0.007 0
0.26 0.007 0
0.27 0.007 0
0.28 0.007 0
0.29 0.007 0
0.3 0.007 0
0.31 0.007 0
0.32 0.007 0
0.33 0.007 0
0.34 0.007 0
0.35 0.007 0
0.36 0.007 0
0.37 0.007 0
0.38 0.007 0
0.39 0.007 0
0.4 0.007 0
0.41 0.007 0
0.42 0.007 0
0.43 0.007 0
0.44 0.007 0
0.45 0.007 0
0.46 0.007 0
0.47 0.007 0
0.48 0.007 0
0.49 0.007 0
0.5 0.007 0
0.51 0.007 0
0.52 0.007 0
0.53 0.007 0
0.54 0.007 0
0.55 0.007 0
0.56 0.007 0
0.57 0.007 0
0.58 0.007 0
0.59 0.007 0
0.6 0.007 0
0.61 0.007 0
0.62 0.007 0
0.63 0.007 0
0.64 0.007 0
0.65 0.007 0
0.66 0.007 0
0.67 0.007 0
0.68 0.007 0
0.69 0.007 0
0.7 0.007 0
0.71 0.007 0
0.72 0.007 0
0.73 0.007 0
0.74 0.007 0
0.75 0.007 0
0.76 0.007 0
0.77 0.007 0
0.78 0.007 0
0.79 0.007 0
0.8 0.007 0
0.81 0.007 0
0.82 0.007 0
0.83 0.007 0
0.84 0.007 0
0.85 0.007 0
0.86 0.007 0
0.87 0.007 0
0.88 0.007 0
0.89 0.007 0
0.9 0.007 0
0.91 0.007 0
0.92 0.007 0
0.93 0.007 0
0.94 0.007 0
0.95 0.007 0
0.96 0.007 0
0.97 0.007 0
0.98 0.007 0
[...]
POINT_DATA 10000

SCALARS vel_X float 1
LOOKUP_TABLE default
0
0
0
0
0
0
0
0
0
0
0
0
0
0
0
0
0
0
0
0
0
0
0
0
0
0
0
0
0
0
0
0
0
0
0
0
0
0
0
0
0
0
0
0
0
0
0
0
0
0
0
0
0
0
0
0
0
0
0
0
0
0
0
0
0
0
0
0
0
0
0
0
0
0
0
0
0
0
0
0
0
0
0
0
0
0
0
0
0
0
0
0
0
0
0
0
0
0
0
0
1
0.314492
0.218106
0.117268
0.148148
0.088957
0.0941404
0.10911
0.0457882
0.111832
0.0463658
0.0763429
0.0732154
0.0354616
0.0934936
0.0550323
0.0171856
0.102239
0.0771222
0.0356193
0.0719552
0.0859606
0.0596665
0.115709
0.168959
0.165844
0.153334
0.202432
0.236869
0.240067
0.235456
0.276241
0.309555
0.30349
0.236549
0.160089
0.088066
0.0475508
0.0186535
0.0106533
0.00124494
0.00321599
-0.00166186
0.002167
-0.00201313
0.00205719
-0.00204529
0.00204833
-0.00204759
0.00204776
-0.00204772
0.00204773
-0.00204773
0.00204773
-0.00204773
0.00204773
-0.00204774
0.00204767
-0.00204796
0.00204695
-0.00205008
0.00204172
-0.00206033
0.00202743
-0.00206894
0.00204311
-0.00202607
0.00205562
-0.00213755
0.00188868
-0.00199904
0.00243553
-0.00198497
0.0012035
-0.00236067
0.00354297
-0.00191439
-0.000536621
-0.000854196
0.00509934
-0.00641738
0.00147966
0.00333265
-0.00381175
-6.87294e-05
0.00606766
-0.0120416
0.012657
-0.00739008
-0.00121468
0.00794752
-0.0119916
0.0125483
-0.0117969
0.00938653
-0.00739884
0.00436219
-0.00608537
-0.230217
-0.230217
1
0.55226
0.39955
0.244222
0.276105
0.18329
0.19589
0.198315
0.124801
0.200746
0.115583
0.155984
0.147137
0.0990158
0.179525
0.11807
0.0828241
0.1928
0.157618
0.106432
0.165778
0.180922
0.1617
0.247073
0.326215
0.319792
0.317808
0.389384
0.441837
0.442219
0.444954
0.497071
0.534245
0.496218
0.380459
0.248181
0.138651
0.0702814
0.0308305
0.013633
0.00432437
0.00237993
-5.22456e-05
0.000806685
-0.000577409
0.000642928
-0.000625258
0.000629766
-0.000628674
0.000628926
-0.00062887
0.000628882
-0.00062888
0.00062888
-0.000628881
0.000628876
-0.0006289
0.000628793
-0.000629219
0.000627709
-0.000632414
0.000619779
-0.000648244
0.000596928
-0.000664377
0.000615616
-0.000602605
0.000641334
-0.000754896
0.000386657
-0.000598279
0.00116894
-0.000470957
-0.000525297
-0.00122093
0.00262234
-0.000190587
-0.00291555
0.000571296
0.00502997
-0.00618942
-0.000887596
0.00677715
-0.0067023
0.00103391
0.00668289
-0.0139565
0.0137359
-0.00636983
-0.00500013
0.0132401
-0.0180978
0.0181084
-0.0168156
0.0130728
-0.0103964
0.00591251
-0.00422076
0.341952
0.341952
1
0.725193
0.550236
0.374382
0.383412
0.290489
0.285616
0.291601
0.209568
0.283821
0.196449
0.236171
0.225361
0.177686
0.25621
0.20281
0.161029
0.277749
0.246293
0.200967
0.261033
0.288662
0.274959
0.375137
0.462019
0.467828
0.469076
0.552388
0.606836
0.612781
0.610404
0.660635
0.678199
0.616252
0.462317
0.30213
0.165376
0.0863363
0.0353186
0.0181653
0.0034483
0.00462997
-0.00182068
0.00273292
-0.00245507
0.00253466
-0.00251314
0.00251864
-0.00251731
0.00251762
-0.00251755
0.00251756
-0.00251756
0.00251756
-0.00251756
0.00251755
-0.00251758
0.00251745
-0.00251797
0.00251615
-0.00252181
0.00250665
-0.00254075
0.00247914
-0.00256116
0.00249793
-0.00249356
0.0025256
-0.00266378
0.00224302
-0.00249232
0.00309623
-0.00235734
0.00127215
-0.00314592
0.0046083
-0.00211816
-0.00117289
-0.00118403
0.00691853
-0.00837953
0.0011794
0.00483142
-0.00507697
-0.000475396
0.00793732
-0.0155911
0.0159596
-0.00951221
-0.00176764
0.010213
-0.0159708
0.0164848
-0.0159755
0.0123489
-0.0102156
0.00552731
-0.00647874
-0.298257
-0.298257
1
0.847055
0.675451
0.498809
0.477604
0.401979
0.365395
0.389245
0.291584
0.36726
0.28011
0.316518
0.306858
0.261325
0.32859
0.301133
0.239086
0.360772
0.339602
0.304406
0.35205
0.400361
0.382683
0.490255
0.57659
0.603666
0.59697
0.687033
0.734136
0.750232
0.729876
0.772878
0.761969
0.690246
0.507727
0.339245
0.179416
0.100667
0.0352063
0.0247732
-0.000428062
0.00956865
-0.00637494
0.00741693
-0.00709804
0.00718981
-0.00716488
0.00717129
-0.00716972
0.00717009
-0.00717001
0.00717002
-0.00717002
0.00717002
-0.00717002
0.00717001
-0.00717005
0.0071699
-0.00717049
0.00716841
-0.00717481
0.00715785
-0.00719563
0.00712802
-0.00721743
0.00714755
-0.00714964
0.00716754
-0.00733416
0.00688936
-0.00712433
0.00774734
-0.00708785
0.00589172
-0.00765364
0.00926284
-0.00709703
0.00360486
-0.00538248
0.010944
-0.0133115
0.0068661
-0.000645925
-0.000681846
-0.00392561
0.0106288
-0.0187936
0.02085
-0.0166941
0.00642064
0.00221133
-0.00940734
0.011301
-0.0123985
0.00969301
-0.00867345
0.00442048
-0.00301944
0.316477
0.316477
1
0.931215
0.777947
0.613029
0.562793
0.510117
0.43998
0.485312
0.370409
0.450191
0.362055
0.395975
0.388546
0.344748
0.398193
0.402583
0.314565
0.440778
0.431227
0.406658
0.436478
0.50623
0.477827
0.588519
0.670717
0.7206
0.699402
0.79287
0.828273
0.854515
0.810003
0.844761
0.806422
0.735915
0.533595
0.367419
0.187813
0.114093
0.0333739
0.0321609
-0.00538611
0.015504
-0.0119463
0.0131143
-0.0127547
0.0128588
-0.0128304
0.0128377
-0.0128359
0.0128363
-0.0128362
0.0128363
-0.0128363
0.0128363
-0.0128363
0.0128362
-0.0128363
0.0128361
-0.0128368
0.0128345
-0.0128415
0.012823
-0.0128636
0.0127922
-0.0128848
0.0128138
-0.0128188
0.0128205
-0.0130187
0.0125618
-0.012752
0.0134014
-0.0128746
0.0115344
-0.0130879
0.0149231
-0.0132197
0.0094668
-0.0104345
0.0157741
-0.0193165
0.0139011
-0.00731744
0.0046466
-0.00813559
0.0140203
-0.0226825
0.0266685
-0.0251572
0.0162466
-0.00752282
-0.00119368
0.00476216
-0.0077453
0.00629762
-0.00658688
0.00302748
-0.00493108
-0.307561
-0.307561
1
0.988754
0.859652
0.715668
0.639832
0.610998
0.511386
0.575291
0.446478
0.529934
0.440249
0.472602
0.46744
0.425486
0.463432
0.500179
0.38721
0.514727
0.515685
0.502141
0.512278
0.600042
0.558279
0.668942
0.744667
0.815457
0.77794
0.872192
0.894176
0.929156
0.860264
0.888177
0.827253
0.764648
0.549536
0.390534
0.194173
0.126701
0.0313863
0.0394403
-0.0102806
0.0213817
-0.0174504
0.0187501
-0.0183472
0.0184646
-0.0184323
0.0184407
-0.0184386
0.0184391
-0.018439
0.018439
-0.018439
0.018439
-0.018439
0.018439
-0.0184391
0.0184389
-0.0184396
0.018437
-0.0184448
0.0184248
-0.0184678
0.0183938
-0.0184872
0.0184186
-0.0184236
0.0184092
-0.0186393
0.0181773
-0.0183077
0.0189874
-0.0186131
0.0171222
-0.0184303
0.020507
-0.0193027
0.0153099
-0.0154264
0.0204728
-0.0251805
0.0208956
-0.0139878
0.0100233
-0.0124328
0.0174504
-0.0263018
0.031929
-0.0330342
0.0258475
-0.0174591
0.00757167
-0.00242308
-0.00244472
0.00240366
-0.0040907
0.00144221
-0.00133419
0.312994
0.312994
1
1.02791
0.922827
0.806417
0.708615
0.702844
0.579564
0.657039
0.519209
0.604355
0.513615
0.544229
0.541417
0.502011
0.522094
0.589997
0.456493
0.57994
0.589522
0.58788
0.578003
0.679146
0.624173
0.731928
0.799209
0.888245
0.835691
0.928683
0.937126
0.979824
0.88989
0.913128
0.834838
0.783355
0.560611
0.410536
0.200151
0.138503
0.0299422
0.0461945
-0.01459
0.0267167
-0.0223901
0.0238308
-0.0233811
0.0235131
-0.0234765
0.0234861
-0.0234837
0.0234843
-0.0234842
0.0234842
-0.0234842
0.0234842
-0.0234842
0.0234842
-0.0234842
0.023484
-0.0234849
0.023482
-0.0234904
0.0234691
-0.0235143
0.0234382
-0.023531
0.0234667
-0.0234704
0.0234403
-0.0237007
0.0232401
-0.0233034
0.0240093
-0.0237953
0.022171
-0.0232132
0.0254982
-0.0248036
0.02066
-0.0199528
0.0245697
-0.0302971
0.0272347
-0.0201909
0.0150834
-0.0164739
0.020541
-0.0291489
0.0359181
-0.039474
0.0344043
-0.0269664
0.016489
-0.0100625
0.00344395
-0.00200547
-0.00114971
-0.00043234
-0.00305173
-0.309135
-0.309135
1
1.0544
0.97021
0.885139
0.769291
0.784618
0.643843
0.729788
0.58745
0.672142
0.581516
0.60897
0.609174
0.573122
0.572776
0.669693
0.521686
0.634951
0.651199
0.662222
0.63329
0.743143
0.676733
0.778627
0.836179
0.940763
0.876373
0.966431
0.962603
1.01242
0.90653
0.926728
0.835654
0.795878
0.56949
0.428257
0.206579
0.14939
0.0294446
0.0521334
-0.0179824
0.0311922
-0.0264431
0.0280362
-0.0275354
0.0276834
-0.0276421
0.027653
-0.0276503
0.0276509
-0.0276508
0.0276508
-0.0276508
0.0276508
-0.0276508
0.0276508
-0.0276509
0.0276506
-0.0276515
0.0276484
-0.0276576
0.0276347
-0.0276821
0.0276044
-0.0276957
0.0276367
-0.0276387
0.0275928
-0.027881
0.0274288
-0.0274218
0.0281437
-0.0280944
0.0263675
-0.0271257
0.0295615
-0.0293838
0.0252087
-0.0237282
0.0277489
-0.0342987
0.0325596
-0.025628
0.0195338
-0.0199534
0.023012
-0.0309738
0.0383269
-0.0440498
0.0414001
-0.0355443
0.0251545
-0.0178853
0.00975848
-0.00684922
0.00219404
-0.00254205
0.000808291
0.311935
0.311935
1
1.07203
1.00474
0.951756
0.822456
0.855586
0.703633
0.793355
0.650172
0.732446
0.64372
0.665454
0.669986
0.637912
0.615191
0.737662
0.582297
0.679464
0.700611
0.724291
0.678812
0.792781
0.717795
0.81067
0.858325
0.975501
0.903821
0.989325
0.975822
1.03193
0.915913
0.933433
0.833667
0.804125
0.577689
0.443865
0.214012
0.159092
0.0302727
0.0569197
-0.0201042
0.0344611
-0.0292598
0.0310176
-0.0304612
0.0306267
-0.0305803
0.0305926
-0.0305895
0.0305902
-0.0305901
0.0305901
-0.0305901
0.0305901
-0.0305901
0.0305901
-0.0305902
0.0305899
-0.0305909
0.0305875
-0.0305974
0.0305731
-0.0306224
0.0305436
-0.0306327
0.0305796
-0.0305801
0.0305181
-0.030831
0.0303943
-0.0303161
0.0310402
-0.0311587
0.0293659
-0.0298242
0.0323448
-0.0326865
0.0286034
-0.0264159
0.0296793
-0.0368328
0.0365004
-0.0299375
0.0230002
-0.0224945
0.0245526
-0.0315713
0.0389512
-0.0464178
0.0463043
-0.0425676
0.0329653
-0.0253977
0.016129
-0.0118766
0.00577274
-0.00484174
-0.000667697
-0.310124
-0.310124
1
1.08328
1.02924
1.00635
0.868948
0.91536
0.758546
0.847814
0.706813
0.784609
0.700416
0.712872
0.723497
0.695831
0.649951
0.792801
0.638222
0.714028
0.738608
0.773784
0.715896
0.829331
0.749524
0.829992
0.868834
0.995045
0.921615
1.00073
0.98127
1.04199
0.922
0.935747
0.831293
0.808917
0.586163
0.457196
0.222907
0.167247
0.0328175
0.0601743
-0.0205703
0.0361418
-0.0304569
0.0323925
-0.0317754
0.0319602
-0.0319081
0.031922
-0.0319185
0.0319193
-0.0319191
0.0319192
-0.0319192
0.0319192
-0.0319192
0.0319191
-0.0319192
0.0319189
-0.0319201
0.0319163
-0.031927
0.0319012
-0.0319525
0.0318728
-0.0319592
0.0319121
-0.031912
0.0318333
-0.0321678
0.0317534
-0.0316046
0.0323159
-0.0326032
0.0307826
-0.0309303
0.0334687
-0.0343223
0.0304462
-0.0276375
0.0300093
-0.0375321
0.0386495
-0.0327022
0.0250613
-0.0236779
0.0248114
-0.0307205
0.0376104
-0.0462659
0.0485782
-0.0473352
0.0391857
-0.0319453
0.0220295
-0.0167043
0.00932032
-0.00712628
0.00331566
0.310918
0.310918
1
1.08974
1.04625
1.04927
0.909617
0.963996
0.808328
0.893415
0.757323
0.828069
0.752116
0.750979
0.769584
0.746659
0.678264
0.834521
0.689617
0.739719
0.766634
0.810876
0.746109
0.854297
0.774166
0.83867
0.870864
1.00181
0.932812
1.00335
0.982448
1.04509
0.927327
0.934963
0.829981
0.810557
0.595535
0.467993
0.233618
0.173511
0.0374222
0.0615542
-0.0190357
0.0358911
-0.0296898
0.0318172
-0.0311341
0.0313401
-0.0312816
0.0312973
-0.0312933
0.0312943
-0.0312941
0.0312941
-0.0312941
0.0312941
-0.0312941
0.0312941
-0.0312942
0.0312938
-0.0312951
0.031291
-0.0313025
0.0312753
-0.0313283
0.0312481
-0.0313313
0.0312902
-0.0312906
0.0311944
-0.0315472
0.0311616
-0.0309446
0.0316274
-0.0320818
0.0302716
-0.0301051
0.0325958
-0.0339409
0.0303736
-0.0270505
0.0284317
-0.0360757
0.0386352
-0.0335378
0.0253388
-0.023121
0.0234526
-0.0282176
0.0341834
-0.0433857
0.0477893
-0.049207
0.0430803
-0.0368255
0.0268626
-0.0208767
0.0125114
-0.00924209
0.00179344
-0.31115
-0.31115
1
1.09242
1.05793
1.08113
0.945189
1.00201
0.85282
0.93054
0.802082
0.862407
0.799472
0.780083
0.80827
0.790437
0.701657
0.862801
0.736692
0.757911
0.786444
0.836146
0.770939
0.869286
0.793816
0.838781
0.867215
0.997981
0.939785
0.999276
0.981826
1.04284
0.93336
0.931729
0.830546
0.809188
0.606172
0.476059
0.246357
0.17765
0.0443043
0.0608357
-0.015277
0.0334867
-0.0267353
0.0290688
-0.0283143
0.0285434
-0.0284779
0.0284956
-0.028491
0.0284921
-0.0284919
0.0284919
-0.0284919
0.0284919
-0.0284919
0.0284919
-0.028492
0.0284916
-0.028493
0.0284885
-0.0285008
0.0284722
-0.0285269
0.0284465
-0.0285263
0.0284908
-0.028493
0.0283786
-0.0287464
0.0283953
-0.0281139
0.028753
-0.0293696
0.0276066
-0.0271305
0.0295112
-0.0313137
0.0281412
-0.0244295
0.0247607
-0.0322687
0.0362087
-0.0321812
0.0235835
-0.0205615
0.0202303
-0.0239375
0.0286696
-0.0377548
0.043722
-0.0477325
0.0440403
-0.0393956
0.0300445
-0.0239262
0.0150021
-0.0109243
0.00551197
0.30994
0.30994
1
1.09204
1.06598
1.10287
0.97619
1.0303
0.891953
0.959648
0.841779
0.88743
0.843069
0.801019
0.839659
0.82737
0.721758
0.878199
0.779536
0.770118
0.799872
0.850524
0.791594
0.875936
0.810234
0.832329
0.860149
0.985492
0.944169
0.990094
0.980932
1.03631
0.940774
0.92644
0.833336
0.805
0.618192
0.481366
0.261136
0.17961
0.0534933
0.0579805
-0.00925721
0.0288927
-0.0215563
0.024111
-0.023279
0.0235334
-0.0234602
0.0234801
-0.023475
0.0234763
-0.023476
0.023476
-0.023476
0.023476
-0.023476
0.023476
-0.0234761
0.0234757
-0.0234772
0.0234724
-0.0234855
0.0234554
-0.0235116
0.0234313
-0.0235073
0.0234772
-0.0234825
0.0233496
-0.0237286
0.0234169
-0.0230767
0.0236575
-0.0244277
0.0227472
-0.0219742
0.0241868
-0.0264004
0.0236915
-0.0197308
0.0189937
-0.0261078
0.0313129
-0.0285572
0.0197388
-0.0159251
0.0150566
-0.0178906
0.0212362
-0.0295898
0.0364527
-0.0427484
0.0416892
-0.0391725
0.0310868
-0.025435
0.016472
-0.0120104
0.00350818
-0.312012
-0.312012
1
1.08913
1.07165
1.11568
1.00293
1.05007
0.925772
0.981231
0.877272
0.903266
0.883251
0.815097
0.863903
0.857755
0.740102
0.881831
0.818002
0.777879
0.808653
0.855241
0.808888
0.875869
0.824715
0.82121
0.851316
0.966118
0.946883
0.977041
0.980507
1.02636
0.949668
0.919474
0.838323
0.798339
0.631463
0.484105
0.277737
0.179569
0.0647891
0.0531783
-0.00116782
0.022301
-0.0143438
0.0171355
-0.0162199
0.0165018
-0.0164201
0.0164425
-0.0164367
0.0164381
-0.0164378
0.0164378
-0.0164378
0.0164378
-0.0164378
0.0164378
-0.0164379
0.0164374
-0.0164391
0.0164339
-0.0164479
0.0164164
-0.016474
0.0163941
-0.0164661
0.0164409
-0.0164505
0.0162989
-0.0166854
0.0164172
-0.0160248
0.016534
-0.0174461
0.015881
-0.014831
0.0168232
-0.0193915
0.017196
-0.0131334
0.0113515
-0.017823
0.0241256
-0.0228192
0.0139813
-0.00937308
0.00805272
-0.0102628
0.0122398
-0.0193639
0.0263849
-0.0344397
0.0359637
-0.0359183
0.0296746
-0.0250979
0.0166701
-0.0122817
0.00653264
0.309262
0.309262
1
1.08417
1.07577
1.12099
1.02554
1.06266
0.954462
0.995787
0.909437
0.910449
0.919994
0.824005
0.881196
0.881939
0.757969
0.875334
0.851679
0.782675
0.814277
0.851798
0.823213
0.870655
0.838041
0.807206
0.841765
0.941518
0.948225
0.961166
0.980661
1.01378
0.959703
0.911318
0.845159
0.789761
0.6456
0.484711
0.295702
0.17794
0.0777496
0.0468595
0.00855809
0.0141449
-0.0055303
0.00857529
-0.00756945
0.00788132
-0.00779034
0.0078154
-0.00780887
0.00781049
-0.00781011
0.00781019
-0.00781017
0.00781018
-0.00781018
0.00781015
-0.00781029
0.00780975
-0.00781162
0.00780594
-0.00782083
0.00778791
-0.00784677
0.00776765
-0.00783535
0.00781464
-0.00782974
0.00765954
-0.00804966
0.00782836
-0.00739162
0.00781725
-0.00885631
0.00743632
-0.00613613
0.00786222
-0.0107216
0.0090691
-0.00505262
0.0022911
-0.00789076
0.015074
-0.0153611
0.00673179
-0.00132038
-0.000426229
-0.00143168
0.00222198
-0.00779079
0.0142429
-0.023361
0.027162
-0.0297038
0.0257314
-0.0227787
0.0154568
-0.0116791
0.00367865
-0.312451
-0.312451
1
1.07767
1.07874
1.12038
1.044
1.06946
0.978351
1.00382
0.939024
0.909971
0.952862
0.829675
0.891801
0.900281
0.776269
0.860783
0.879923
0.785853
0.817915
0.841922
0.834565
0.86178
0.850489
0.791989
0.832009
0.913296
0.948003
0.943441
0.981033
0.999449
0.970221
0.902611
0.853229
0.780018
0.659995
0.483842
0.314351
0.175362
0.0917098
0.0396765
0.019265
0.00508
0.00422955
-0.000914342
0.00201729
-0.00167294
0.00177407
-0.00174603
0.00175338
-0.00175155
0.00175199
-0.00175189
0.00175191
-0.00175191
0.0017519
-0.00175194
0.00175178
-0.00175238
0.00175034
-0.00175645
0.00174066
-0.00177494
0.00171503
-0.00179307
0.00172979
-0.00174665
0.0017248
-0.00191315
0.00152353
-0.00169549
0.00216775
-0.00183591
0.0006875
-0.00193616
0.00345441
-0.00203231
-0.00104973
-5.02918e-05
0.00387841
-0.00751487
0.00298679
0.00481545
-0.0067977
-0.001367
0.00758075
-0.00979808
0.00804362
-0.00812225
0.00422716
0.00102279
-0.0104108
0.0159489
-0.0209377
0.019459
-0.0185502
0.0128379
-0.0101393
0.00576402
0.309101
0.309101
1
1.07017
1.08067
1.11548
1.05824
1.07178
0.997898
1.00589
0.966528
0.903291
0.981038
0.834109
0.896085
0.913146
0.795465
0.840592
0.901941
0.78856
0.820379
0.827498
0.842631
0.850613
0.861898
0.777108
0.82214
0.883013
0.94568
0.924806
0.980936
0.984275
0.980349
0.894121
0.861728
0.770019
0.673875
0.482329
0.332836
0.172642
0.105835
0.0324505
0.0301281
-0.00406925
0.0141118
-0.0105089
0.0117162
-0.0113367
0.0114489
-0.0114176
0.0114258
-0.0114238
0.0114243
-0.0114242
0.0114242
-0.0114242
0.0114242
-0.0114242
0.011424
-0.0114247
0.0114225
-0.011429
0.0114123
-0.0114479
0.0113871
-0.0114638
0.011405
-0.0114187
0.011389
-0.0115948
0.0112097
-0.0113308
0.0118291
-0.0115993
0.0103614
-0.0114167
0.0131164
-0.0120277
0.00879337
-0.0093514
0.0128608
-0.0172317
0.0139358
-0.00581391
0.00208811
-0.00950622
0.0164933
-0.019295
0.0174622
-0.0180021
0.0156799
-0.0120968
0.00324261
0.00331094
-0.0103523
0.0113436
-0.0127103
0.00898081
-0.00779471
0.00197921
-0.31232
-0.31232
1
1.06222
1.08143
1.1079
1.06822
1.07076
1.01366
1.00263
0.992098
0.892283
1.00343
0.839186
0.894583
0.920897
0.815554
0.81737
0.916929
0.791679
0.822142
0.810483
0.846911
0.838363
0.871784
0.763951
0.811965
0.852168
0.940546
0.906166
0.979509
0.969217
0.989116
0.886679
0.869746
0.760744
0.68638
0.48109
0.35023
0.170674
0.119205
0.0260885
0.040236
-0.012392
0.0232063
-0.0192977
0.0206168
-0.0201993
0.0203236
-0.0202887
0.0202979
-0.0202956
0.0202962
-0.020296
0.0202961
-0.0202961
0.0202961
-0.0202961
0.0202959
-0.0202966
0.0202942
-0.0203012
0.0202836
-0.0203205
0.020259
-0.020334
0.0202798
-0.020291
0.0202524
-0.0204746
0.0200981
-0.0201677
0.020682
-0.0205602
0.0192546
-0.0200991
0.0219402
-0.0212055
0.0178889
-0.0179338
0.0210117
-0.0259464
0.0239954
-0.0158819
0.0104269
-0.0167977
0.0244811
-0.0280368
0.0260468
-0.0266098
0.0255552
-0.0238786
0.0162794
-0.00953522
0.00105753
0.00212282
-0.00576758
0.00421074
-0.00478725
0.00325082
0.309509
0.309509
1
1.05438
1.08077
1.09906
1.07403
1.06729
1.02625
0.99478
1.0155
0.879131
1.01883
0.846471
0.888034
0.923894
0.836103
0.793751
0.924212
0.795784
0.823388
0.792799
0.846865
0.826035
0.879471
0.753689
0.801154
0.822148
0.931869
0.888341
0.975856
0.955176
0.995567
0.881084
0.876384
0.753143
0.696674
0.481031
0.365624
0.170333
0.130916
0.0214795
0.0486947
-0.0189952
0.0306202
-0.0263876
0.0278264
-0.0273679
0.0275053
-0.0274664
0.0274768
-0.0274742
0.0274748
-0.0274747
0.0274747
-0.0274747
0.0274747
-0.0274747
0.0274745
-0.0274753
0.0274727
-0.0274802
0.0274617
-0.0274997
0.0274378
-0.0275108
0.0274611
-0.0274706
0.0274223
-0.0276595
0.0272956
-0.027314
0.0278341
-0.0278241
0.0264738
-0.0270948
0.0290351
-0.0286662
0.0253343
-0.0249109
0.027467
-0.0327717
0.032224
-0.0244632
0.0173651
-0.022381
0.0306181
-0.0351293
0.0330292
-0.0332112
0.0329555
-0.033169
0.0273771
-0.0212759
0.0121371
-0.00728618
0.00160438
-0.00101674
-0.00144098
-0.00113784
-0.311678
-0.311678
1
1.04714
1.07844
1.0901
1.07594
1.06201
1.03629
0.983269
1.03613
0.866158
1.02615
0.857039
0.877419
0.922506
0.856325
0.772209
0.923405
0.8011
0.82409
0.776208
0.842071
0.814375
0.884239
0.747205
0.789385
0.794145
0.91905
0.871992
0.969183
0.942899
0.998885
0.877998
0.880863
0.748021
0.704051
0.482925
0.378244
0.172365
0.140195
0.0193824
0.0547398
-0.0231155
0.0355906
-0.031015
0.0325816
-0.0320789
0.0322305
-0.0321874
0.032199
-0.032196
0.0321968
-0.0321966
0.0321966
-0.0321966
0.0321966
-0.0321967
0.0321964
-0.0321973
0.0321945
-0.0322025
0.0321831
-0.0322222
0.03216
-0.0322308
0.0321856
-0.0321942
0.0321354
-0.0323861
0.0320384
-0.0320069
0.0325224
-0.0326256
0.0312543
-0.0316444
0.0336405
-0.0336407
0.0303555
-0.029522
0.0314923
-0.0369585
0.0378125
-0.0307514
0.0221737
-0.0255379
0.0341072
-0.0397738
0.0377433
-0.0372375
0.0372106
-0.0390427
0.0353726
-0.0306566
0.0217051