# vtk DataFile Version 2.0
FlowField
ASCII
DATASET STRUCTURED_GRID
DIMENSIONS 100 1 100
POINTS 10000 float
0 0 0
0.01 0 0
0.02 0 0
0.03 0 0
0.04 0 0
0.05 0 0
0.06 0 0
0.07 0 0
0.08 0 0
0.09 0 0
0.1 0 0
0.11 0 0
0.12 0 0
0.13 0 0
0.14 0 0
0.15 0 0
0.16 0 0
0.17 0 0
0.18 0 0
0.19 0 0
0.2 0 0
0.21 0 0
0.22 0 0
0.23 0 0
0.24 0 0
0.25 0 0
0.26 0 0
0.27 0 0
0.28 0 0
0.29 0 0
0.3 0 0
0.31 0 0
0.32 0 0
0.33 0 0
0.34 0 0
0.35 0 0
0.36 0 0
0.37 0 0
0.38 0 0
0.39 0 0
0.4 0 0
0.41 0 0
0.42 0 0
0.43 0 0
0.44 0 0
0.45 0 0
0.46 0 0
0.47 0 0
0.48 0 0
0.49 0 0
0.5 0 0
0.51 0 0
0.52 0 0
0.53 0 0
0.54 0 0
0.55 0 0
0.56 0 0
0.57 0 0
0.58 0 0
0.59 0 0
0.6 0 0
0.61 0 0
0.62 0 0
0.63 0 0
0.64 0 0
0.65 0 0
0.66 0 0
0.67 0 0
0.68 0 0
0.69 0 0
0.7 0 0
0.71 0 0
0.72 0 0
0.73 0 0
0.74 0 0
0.75 0 0
0.76 0 0
0.77 0 0
0.78 0 0
0.79 0 0
0.8 0 0
0.81 0 0
0.82 0 0
0.83 0 0
0.84 0 0
0.85 0 0
0.86 0 0
0.87 0 0
0.88 0 0
0.89 0 0
0.9 0 0
0.91 0 0
0.92 0 0
0.93 0 0
0.94 0 0
0.95 0 0
0.96 0 0
0.97 0 0
0.98 0 0
0.99 0 0
0 0.001 0
0.01 0.001 0
0.02 0.001 0
0.03 0.001 0
0.04 0.001 0
0.05 0.001 0
0.06 0.001 0
0.07 0.001 0
0.08 0.001 0
0.09 0.001 0
0.1 0.001 0
0.11 0.001 0
0.12 0.001 0
0.13 0.001 0
0.14 0.001 0
0.15 0.001 0
0.16 0.001 0
0.17 0.001 0
0.18 0.001 0
0.19 0.001 0
0.2 0.001 0
0.21 0.001 0
0.22 0.001 0
0.23 0.001 0
0.24 0.001 0
0.25 0.001 0
0.26 0.001 0
0.27 0.001 0
0.28 0.001 0
0.29 0.001 0
0.3 0.001 0
0.31 0.001 0
0.32 0.001 0
0.33 0.001 0
0.34 0.001 0
0.35 0.001 0
0.36 0.001 0
0.37 0.001 0
0.38 0.001 0
0.39 0.001 0
0.4 0.001 0
0.41 0.001 0
0.42 0.001 0
0.43 0.001 0
0.44 0.001 0
0.45 0.001 0
0.46 0.001 0
0.47 0.001 0
0.48 0.001 0
0.49 0.001 0
0.5 0.001 0
0.51 0.001 0
0.52 0.001 0
0.53 0.001 0
0.54 0.001 0
0.55 0.001 0
0.56 0.001 0
0.57 0.001 0
0.58 0.001 0
0.59 0.001 0
0.6 0.001 0
0.61 0.001 0
0.62 0.001 0
0.63 0.001 0
0.64 0.001 0
0.65 0.001 0
0.66 0.001 0
0.67 0.001 0
0.68 0.001 0
0.69 0.001 0
0.7 0.001 0
0.71 0.001 0
0.72 0.001 0
0.73 0.001 0
0.74 0.001 0
0.75 0.001 0
0.76 0.001 0
0.77 0.001 0
0.78 0.001 0
0.79 0.001 0
0.8 0.001 0
0.81 0.001 0
0.82 0.001 0
0.83 0.001 0
0.84 0.001 0
0.85 0.001 0
0.86 0.001 0
0.87 0.001 0
0.88 0.001 0
0.89 0.001 0
0.9 0.001 0
0.91 0.001 0
0.92 0.001 0
0.93 0.001 0
0.94 0.001 0
0.95 0.001 0
0.96 0.001 0
0.97 0.001 0
0.98 0.001 0
0.99 0.001 0
0 0.002 0
0.01 0.002 0
0.02 0.002 0
0.03 0.002 0
0.04 0.002 0
0.05 0.002 0
0.06 0.002 0
0.07 0.002 0
0.08 0.002 0
0.09 0.002 0
0.1 0.002 0
0.11 0.002 0
0.12 0.002 0
0.13 0.002 0
0.14 0.002 0
0.15 0.002 0
0.16 0.002 0
0.17 0.002 0
0.18 0.002 0
0.19 0.002 0
0.2 0.002 0
0.21 0.002 0
0.22 0.002 0
0.23 0.002 0
0.24 0.002 0
0.25 0.002 0
0.26 0.002 0
0.27 0.002 0
0.28 0.002 0
0.29 0.002 0
0.3 0.002 0
0.31 0.002 0
0.32 0.002 0
0.33 0.002 0
0.34 0.002 0
0.35 0.002 0
0.36 0.002 0
0.37 0.002 0
0.38 0.002 0
0.39 0.002 0
0.4 0.002 0
0.41 0.002 0
0.42 0.002 0
0.43 0.002 0
0.44 0.002 0
0.45 0.002 0
0.46 0.002 0
0.47 0.002 0
0.48 0.002 0
0.49 0.002 0
0.5 0.002 0
0.51 0.002 0
0.52 0.002 0
0.53 0.002 0
0.54 0.002 0
0.55 0.002 0
0.56 0.002 0
0.57 0.002 0
0.58 0.002 0
0.59 0.002 0
0.6 0.002 0
0.61 0.002 0
0.62 0.002 0
0.63 0.002 0
0.64 0.002 0
0.65 0.002 0
0.66 0.002 0
0.67 0.002 0
0.68 0.002 0
0.69 0.002 0
0.7 0.002 0
0.71 0.002 0
0.72 0.002 0
0.73 0.002 0
0.74 0.002 0
0.75 0.002 0
0.76 0.002 0
0.77 0.002 0
0.78 0.002 0
0.79 0.002 0
0.8 0.002 0
0.81 0.002 0
0.82 0.002 0
0.83 0.002 0
0.84 0.002 0
0.85 0.002 0
0.86 0.002 0
0.87 0.002 0
0.88 0.002 0
0.89 0.002 0
0.9 0.002 0
0.91 0.002 0
0.92 0.002 0
0.93 0.002 0
0.94 0.002 0
0.95 0.002 0
0.96 0.002 0
0.97 0.002 0
0.98 0.002 0
0.99 0.002 0
0 0.003 0
0.01 0.003 0
0.02 0.003 0
0.03 0.003 0
0.04 0.003 0
0.05 0.003 0
0.06 0.003 0
0.07 0.003 0
0.08 0.003 0
0.09 0.003 0
0.1 0.003 0
0.11 0.003 0
0.12 0.003 0
0.13 0.003 0
0.14 0.003 0
0.15 0.003 0
0.16 0.003 0
0.17 0.003 0
0.18 0.003 0
0.19 0.003 0
0.2 0.003 0
0.21 0.003 0
0.22 0.003 0
0.23 0.003 0
0.24 0.003 0
0.25 0.003 0
0.26 0.003 0
0.27 0.003 0
0.28 0.003 0
0.29 0.003 0
0.3 0.003 0
0.31 0.003 0
0.32 0.003 0
0.33 0.003 0
0.34 0.003 0
0.35 0.003 0
0.36 0.003 0
0.37 0.003 0
0.38 0.003 0
0.39 0.003 0
0.4 0.003 0
0.41 0.003 0
0.42 0.003 0
0.43 0.003 0
0.44 0.003 0
0.45 0.003 0
0.46 0.003 0
0.47 0.003 0
0.48 0.003 0
0.49 0.003 0
0.5 0.003 0
0.51 0.003 0
0.52 0.003 0
0.53 0.003 0
0.54 0.003 0
0.55 0.003 0
0.56 0.003 0
0.57 0.003 0
0.58 0.003 0
0.59 0.003 0
0.6 0.003 0
0.61 0.003 0
0.62 0.003 0
0.63 0.003 0
0.64 0.003 0
0.65 0.003 0
0.66 0.003 0
0.67 0.003 0
0.68 0.003 0
0.69 0.003 0
0.7 0.003 0
0.71 0.003 0
0.72 0.003 0
0.73 0.003 0
0.74 0.003 0
0.75 0.003 0
0.76 0.003 0
0.77 0.003 0
0.78 0.003 0
0.79 0.003 0
0.8 0.003 0
0.81 0.003 0
0.82 0.003 0
0.83 0.003 0
0.84 0.003 0
0.85 0.003 0
0.86 0.003 0
0.87 0.003 0
0.88 0.003 0
0.89 0.003 0
0.9 0.003 0
0.91 0.003 0
0.92 0.003 0
0.93 0.003 0
0.94 0.003 0
0.95 0.003 0
0.96 0.003 0
0.97 0.003 0
0.98 0.003 0
0.99 0.003 0
0 0.004 0
0.01 0.004 0
0.02 0.004 0
0.03 0.004 0
0.04 0.004 0
0.05 0.004 0
0.06 0.004 0
0.07 0.004 0
0.08 0.004 0
0.09 0.004 0
0.1 0.004 0
0.11 0.004 0
0.12 0.004 0
0.13 0.004 0
0.14 0.004 0
0.15 0.004 0
0.16 0.004 0
0.17 0.004 0
0.18 0.004 0
0.19 0.004 0
0.2 0.004 0
0.21 0.004 0
0.22 0.004 0
0.23 0.004 0
0.24 0.004 0
0.25 0.004 0
0.26 0.004 0
0.27 0.004 0
0.28 0.004 0
0.29 0.004 0
0.3 0.004 0
0.31 0.004 0
0.32 0.004 0
0.33 0.004 0
0.34 0.004 0
0.35 0.004 0
0.36 0.004 0
0.37 0.004 0
0.38 0.004 0
0.39 0.004 0
0.4 0.004 0
0.41 0.004 0
0.42 0.004 0
0.43 0.004 0
0.44 0.004 0
0.45 0.004 0
0.46 0.004 0
0.47 0.004 0
0.48 0.004 0
0.49 0.004 0
0.5 0.004 0
0.51 0.004 0
0.52 0.004 0
0.53 0.004 0
0.54 0.004 0
0.55 0.004 0
0.56 0.004 0
0.57 0.004 0
0.58 0.004 0
0.59 0.004 0
0.6 0.004 0
0.61 0.004 0
0.62 0.004 0
0.63 0.004 0
0.64 0.004 0
0.65 0.004 0
0.66 0.004 0
0.67 0.004 0
0.68 0.004 0
0.69 0.004 0
0.7 0.004 0
0.71 0.004 0
0.72 0.004 0
0.73 0.004 0
0.74 0.004 0
0.75 0.004 0
0.76 0.004 0
0.77 0.004 0
0.78 0.004 0
0.79 0.004 0
0.8 0.004 0
0.81 0.004 0
0.82 0.004 0
0.83 0.004 0
0.84 0.004 0
0.85 0.004 0
0.86 0.004 0
0.87 0.004 0
0.88 0.004 0
0.89 0.004 0
0.9 0.004 0
0.91 0.004 0
0.92 0.004 0
0.93 0.004 0
0.94 0.004 0
0.95 0.004 0
0.96 0.004 0
0.97 0.004 0
0.98 0.004 0
0.99 0.004 0
0 0.005 0
0.01 0.005 0
0.02 0.005 0
0.03 0.005 0
0.04 0.005 0
0.05 0.005 0
0.06 0.005 0
0.07 0.005 0
0.08 0.005 0
0.09 0.005 0
0.1 0.005 0
0.11 0.005 0
0.12 0.005 0
0.13 0.005 0
0.14 0.005 0
0.15 0.005 0
0.16 0.005 0
0.17 0.005 0
0.18 0.005 0
0.19 0.005 0
0.2 0.005 0
0.21 0.005 0
0.22 0.005 0
0.23 0.005 0
0.24 0.005 0
0.25 0.005 0
0.26 0.005 0
0.27 0.005 0
0.28 0.005 0
0.29 0.005 0
0.3 0.005 0
0.31 0.005 0
0.32 0.005 0
0.33 0.005 0
0.34 0.005 0
0.35 0.005 0
0.36 0.005 0
0.37 0.005 0
0.38 0.005 0
0.39 0.005 0
0.4 0.005 0
0.41 0.005 0
0.42 0.005 0
0.43 0.005 0
0.44 0.005 0
0.45 0.005 0
0.46 0.005 0
0.47 0.005 0
0.48 0.005 0
0.49 0.005 0
0.5 0.005 0
0.51 0.005 0
0.52 0.005 0
0.53 0.005 0
0.54 0.005 0
0.55 0.005 0
0.56 0.005 0
0.57 0.005 0
0.58 0.005 0
0.59 0.005 0
0.6 0.005 0
0.61 0.005 0
0.62 0.005 0
0.63 0.005 0
0.64 0.005 0
0.65 0.005 0
0.66 0.005 0
0.67 0.005 0
0.68 0.005 0
0.69 0.005 0
0.7 0.005 0
0.71 0.005 0
0.72 0.005 0
0.73 0.005 0
0.74 0.005 0
0.75 0.005 0
0.76 0.005 0
0.77 0.005 0
0.78 0.005 0
0.79 0.005 0
0.8 0.005 0
0.81 0.005 0
0.82 0.005 0
0.83 0.005 0
0.84 0.005 0
0.85 0.005 0
0.86 0.005 0
0.87 0.005 0
0.88 0.005 0
0.89 0.005 0
0.9 0.005 0
0.91 0.005 0
0.92 0.005 0
0.93 0.005 0
0.94 0.005 0
0.95 0.005 0
0.96 0.005 0
0.97 0.005 0
0.98 0.005 0
0.99 0.005 0
0 0.006 0
0.01 0.006 0
0.02 0.006 0
0.03 0.006 0
0.04 0.006 0
0.05 0.006 0
0.06 0.006 0
0.07 0.006 0
0.08 0.006 0
0.09 0.006 0
0.1 0.006 0
0.11 0.006 0
0.12 0.006 0
0.13 0.006 0
0.14 0.006 0
0.15 0.006 0
0.16 0.006 0
0.17 0.006 0
0.18 0.006 0
0.19 0.006 0
0.2 0.006 0
0.21 0.006 0
0.22 0.006 0
0.23 0.006 0
0.24 0.006 0
0.25 0.006 0
0.26 0.006 0
0.27 0.006 0
0.28 0.006 0
0.29 0.006 0
0.3 0.006 0
0.31 0.006 0
0.32 0.006 0
0.33 0.006 0
0.34 0.006 0
0.35 0.006 0
0.36 0.006 0
0.37 0.006 0
0.38 0.006 0
0.39 0.006 0
0.4 0.006 0
0.41 0.006 0
0.42 0.006 0
0.43 0.006 0
0.44 0.006 0
0.45 0.006 0
0.46 0.006 0
0.47 0.006 0
0.48 0.006 0
0.49 0.006 0
0.5 0.006 0
0.51 0.006 0
0.52 0.006 0
0.53 0.006 0
0.54 0.006 0
0.55 0.006 0
0.56 0.006 0
0.57 0.006 0
0.58 0.006 0
0.59 0.006 0
0.6 0.006 0
0.61 0.006 0
0.62 0.006 0
0.63 0.006 0
0.64 0.006 0
0.65 0.006 0
0.66 0.006 0
0.67 0.006 0
0.68 0.006 0
0.69 0.006 0
0.7 0.006 0
0.71 0.006 0
0.72 0.006 0
0.73 0.006 0
0.74 0.006 0
0.75 0.006 0
0.76 0.006 0
0.77 0.006 0
0.78 0.006 0
0.79 0.006 0
0.8 0.006 0
0.81 0.006 0
0.82 0.006 0
0.83 0.006 0
0.84 0.006 0
0.85 0.006 0
0.86 0.006 0
0.87 0.006 0
0.88 0.006 0
0.89 0.006 0
0.9 0.006 0
0.91 0.006 0
0.92 0.006 0
0.93 0.006 0
0.94 0.006 0
0.95 0.006 0
0.96 0.006 0
0.97 0.006 0
0.98 0.006 0
0.99 0.006 0
0 0.007 0
0.01 0.007 0
0.02 0.007 0
0.03 0.007 0
0.04 0.007 0
0.05 0.007 0
0.06 0.007 0
0.07 0.007 0
0.08 0.007 0
0.09 0.007 0
0.1 0.007 0
0.11 0.007 0
0.12 0.007 0
0.13 0.007 0
0.14 0.007 0
0.15 0.007 0
0.16 0.007 0
0.17 0.007 0
0.18 0.007 0
0.19 0.007 0
0.2 0.007 0
0.21 0.007 0
0.22 0.007 0
0.23 0.007 0
0.24 0.007 0
0.25 0.007 0
0.26 0.007 0
0.27 0.007 0
0.28 0.007 0
0.29 0.007 0
0.3 0.007 0
0.31 0.007 0
0.32 0.007 0
0.33 0.007 0
0.34 0.007 0
0.35 0.007 0
0.36 0.007 0
0.37 0.007 0
0.38 0.007 0
0.39 0.007 0
0.4 0.007 0
0.41 0.007 0
0.42 0.007 0
0.43 0.007 0
0.44 0.007 0
0.45 0.007 0
0.46 0.007 0
0.47 0.007 0
0.48 0.007 0
0.49 0.007 0
0.5 0.007 0
0.51 0.007 0
0.52 0.007 0
0.53 0.007 0
0.54 0.007 0
0.55 0.007 0
0.56 0.007 0
0.57 0.007 0
0.58 0.007 0
0.59 0.007 0
0.6 0.007 0
0.61 0.007 0
0.62 0.007 0
0.63 0.007 0
0.64 0.007 0
0.65 0.007 0
0.66 0.007 0
0.67 0.007 0
0.68 0.007 0
0.69 0.007 0
0.7 0.007 0
0.71 0.007 0
0.72 0.007 0
0.73 0.007 0
0.74 0.007 0
0.75 0.007 0
0.76 0.007 0
0.77 0.007 0
0.78 0.007 0
0.79 0.007 0
0.8 0.007 0
0.81 0.007 0
0.82 0.007 0
0.83 0.007 0
0.84 0.007 0
0.85 0.007 0
0.86 0.007 0
0.87 0.007 0
0.88 0.007 0
0.89 0.007 0
0.9 0.007 0
0.91 0.007 0
0.92 0.007 0
0.93 0.007 0
0.94 0.007 0
0.95 0.007 0
0.96 0.007 0
0.97 0.007 0
0.98 0.007 0
[...]
POINT_DATA 10000

SCALARS vel_X float 1
LOOKUP_TABLE default
0
0
0
0
0
0
0
0
0
0
0
0
0
0
0
0
0
0
0
0
0
0
0
0
0
0
0
0
0
0
0
0
0
0
0
0
0
0
0
0
0
0
0
0
0
0
0
0
0
0
0
0
0
0
0
0
0
0
0
0
0
0
0
0
0
0
0
0
0
0
0
0
0
0
0
0
0
0
0
0
0
0
0
0
0
0
0
0
0
0
0
0
0
0
0
0
0
0
0
0
1
0.318948
0.207201
0.137733
0.129811
0.120006
0.0764092
0.136744
0.0448778
0.120523
0.0713362
0.0738919
0.0975523
0.0671776
0.0729312
0.127863
0.0461013
0.0891805
0.119059
0.118717
0.109173
0.190592
0.170576
0.168792
0.177681
0.246875
0.229866
0.246323
0.257622
0.325358
0.304195
0.266222
0.160425
0.108152
0.0382241
0.0324469
-0.00167275
0.0138935
-0.00942801
0.0109376
-0.0104628
0.0106022
-0.0105638
0.0105738
-0.0105713
0.0105719
-0.0105718
0.0105718
-0.0105718
0.0105718
-0.0105718
0.0105718
-0.0105718
0.0105718
-0.0105718
0.0105718
-0.0105718
0.0105718
-0.0105718
0.0105718
-0.0105718
0.0105715
-0.0105727
0.010569
-0.010579
0.0105569
-0.0105946
0.0105511
-0.0105693
0.0105995
-0.0105833
0.0104365
-0.0107153
0.0107638
-0.0101603
0.0102621
-0.0115058
0.0111251
-0.00915373
0.00895123
-0.0119384
0.0139122
-0.0116496
0.00715082
-0.00565769
0.00778688
-0.0130183
0.0175829
-0.0186948
0.0151866
-0.0105099
0.00588079
-0.00296877
0.000600521
0.000169247
-0.00102105
0.000373851
-0.00402595
-0.217766
-0.217766
1
0.557407
0.387332
0.272267
0.256326
0.228405
0.176807
0.243132
0.127343
0.223745
0.155072
0.163287
0.193039
0.150253
0.169238
0.23383
0.131767
0.197578
0.24168
0.241918
0.245416
0.355539
0.331222
0.332835
0.359399
0.452157
0.432951
0.456135
0.4788
0.556955
0.507224
0.421207
0.255409
0.163075
0.0621802
0.0456014
0.00101183
0.0174018
-0.010702
0.0129593
-0.0122513
0.0124588
-0.0124017
0.0124165
-0.0124129
0.0124137
-0.0124135
0.0124136
-0.0124136
0.0124136
-0.0124136
0.0124136
-0.0124136
0.0124136
-0.0124136
0.0124136
-0.0124136
0.0124136
-0.0124136
0.0124136
-0.0124137
0.0124132
-0.012415
0.0124093
-0.0124245
0.0123907
-0.0124498
0.0123781
-0.0124172
0.0124495
-0.0124271
0.0122203
-0.0126438
0.012645
-0.0118136
0.0120616
-0.013761
0.0129993
-0.0103726
0.0104167
-0.0145829
0.0167915
-0.0133656
0.00745678
-0.00614131
0.00936503
-0.0163799
0.0218266
-0.0227143
0.0175362
-0.0114028
0.00533336
-0.00195199
-0.000935345
0.0013571
-0.00232434
0.000887205
-0.00185914
0.318691
0.318691
1
0.730628
0.539492
0.405372
0.369322
0.340224
0.275787
0.342682
0.224139
0.315781
0.249892
0.25655
0.286826
0.247363
0.264853
0.337237
0.238093
0.307494
0.358524
0.368524
0.377899
0.497687
0.47922
0.487453
0.51948
0.619937
0.602369
0.626589
0.643727
0.709391
0.63152
0.511681
0.310872
0.194546
0.0766367
0.052965
0.00308359
0.0190759
-0.0110018
0.0137273
-0.0128706
0.0131223
-0.0130529
0.0130709
-0.0130665
0.0130675
-0.0130673
0.0130673
-0.0130673
0.0130673
-0.0130673
0.0130673
-0.0130673
0.0130673
-0.0130673
0.0130673
-0.0130673
0.0130673
-0.0130673
0.0130673
-0.0130674
0.0130668
-0.013069
0.0130622
-0.0130804
0.0130399
-0.0131108
0.0130234
-0.0130765
0.0131015
-0.0130889
0.0128464
-0.013328
0.013311
-0.0124291
0.0126768
-0.0145045
0.01369
-0.0109729
0.0109285
-0.0152379
0.0175678
-0.0142492
0.00814527
-0.00672374
0.00961777
-0.0166241
0.0221694
-0.0237063
0.0188405
-0.012981
0.00658286
-0.0031556
-0.000170005
0.000549962
-0.00199209
0.000376718
-0.00382914
-0.278302
-0.278302
1
0.853158
0.666404
0.531689
0.47051
0.452936
0.368035
0.440996
0.322096
0.402825
0.34819
0.348466
0.379079
0.349299
0.354065
0.440969
0.34855
0.411241
0.465919
0.489909
0.494688
0.619881
0.610477
0.624533
0.649852
0.753574
0.735689
0.756096
0.754382
0.803198
0.703027
0.566319
0.344288
0.216037
0.0855998
0.0591537
0.00373097
0.0212509
-0.0121032
0.0152069
-0.0142262
0.0145158
-0.0144356
0.0144565
-0.0144514
0.0144526
-0.0144523
0.0144524
-0.0144523
0.0144523
-0.0144523
0.0144523
-0.0144523
0.0144523
-0.0144523
0.0144523
-0.0144523
0.0144523
-0.0144524
0.0144523
-0.0144525
0.0144518
-0.0144542
0.0144466
-0.0144669
0.0144222
-0.0144997
0.0144047
-0.0144641
0.0144815
-0.0144884
0.0142129
-0.0147091
0.0147201
-0.0138471
0.0139702
-0.0158385
0.0152237
-0.012563
0.0120985
-0.0161612
0.018874
-0.0163331
0.0102792
-0.00824453
0.0100968
-0.0165239
0.0222739
-0.0252139
0.0216454
-0.0166286
0.0100861
-0.00642619
0.00239181
-0.00163269
-0.000604405
-0.000698554
-0.000483661
0.295136
0.295136
1
0.938028
0.770624
0.647028
0.562395
0.560806
0.454817
0.53529
0.416733
0.486095
0.443811
0.436572
0.467911
0.448629
0.436464
0.540146
0.454014
0.505497
0.561371
0.598613
0.59342
0.722377
0.72184
0.738987
0.751142
0.855513
0.834807
0.847826
0.822685
0.857068
0.742708
0.601055
0.366572
0.232852
0.0922366
0.0649342
0.00383746
0.0236767
-0.0135322
0.0169976
-0.0158953
0.016223
-0.0161316
0.0161556
-0.0161496
0.016151
-0.0161507
0.0161508
-0.0161508
0.0161508
-0.0161508
0.0161508
-0.0161508
0.0161508
-0.0161508
0.0161508
-0.0161508
0.0161508
-0.0161508
0.0161507
-0.0161509
0.0161502
-0.0161529
0.0161445
-0.0161666
0.0161186
-0.0162002
0.0161024
-0.0161623
0.0161746
-0.0162047
0.0158954
-0.0163858
0.0164562
-0.0156061
0.0155408
-0.0174359
0.017141
-0.0145533
0.0135194
-0.0172239
0.0204704
-0.0189288
0.0129379
-0.0100785
0.0107266
-0.0164346
0.022423
-0.0269487
0.0249953
-0.0210024
0.0143857
-0.0103742
0.00552161
-0.00419521
0.00109133
-0.0019142
-0.00220117
-0.287332
-0.287332
1
0.995911
0.854361
0.749502
0.645826
0.659915
0.537289
0.621924
0.506718
0.564222
0.533221
0.519108
0.550711
0.541212
0.511675
0.629391
0.550409
0.588736
0.643073
0.690842
0.674741
0.804728
0.812016
0.829804
0.826932
0.928957
0.904513
0.908734
0.861949
0.885514
0.76454
0.624541
0.383739
0.247083
0.0984078
0.0701823
0.00422457
0.0257899
-0.0146366
0.0184756
-0.0172456
0.0176138
-0.0175104
0.0175377
-0.0175309
0.0175325
-0.0175322
0.0175322
-0.0175322
0.0175322
-0.0175322
0.0175322
-0.0175322
0.0175322
-0.0175322
0.0175322
-0.0175322
0.0175322
-0.0175322
0.0175322
-0.0175324
0.0175315
-0.0175346
0.0175254
-0.0175492
0.0174985
-0.0175827
0.017485
-0.0175417
0.0175512
-0.017605
0.017263
-0.0177365
0.0178813
-0.0170593
0.016785
-0.0186945
0.0187542
-0.0162558
0.0146391
-0.0179318
0.0216944
-0.0211874
0.0153248
-0.0116824
0.0111846
-0.0160831
0.0221087
-0.0280265
0.027748
-0.024952
0.0184688
-0.0141793
0.00858095
-0.00667135
0.0027663
-0.00304246
0.00106384
0.291589
0.291589
1
1.03487
0.919947
0.838577
0.720773
0.748296
0.615338
0.698833
0.591032
0.635621
0.614643
0.594535
0.625358
0.625093
0.57887
0.705433
0.636052
0.660386
0.710319
0.765711
0.739867
0.86725
0.881579
0.898747
0.881503
0.978293
0.950926
0.946963
0.883111
0.898695
0.776811
0.641471
0.39872
0.259681
0.104937
0.0748135
0.00526267
0.0273232
-0.0151139
0.01935
-0.0179824
0.0183949
-0.0182782
0.0183093
-0.0183015
0.0183033
-0.0183029
0.018303
-0.018303
0.018303
-0.018303
0.018303
-0.018303
0.018303
-0.018303
0.018303
-0.018303
0.018303
-0.018303
0.0183029
-0.0183032
0.0183022
-0.0183056
0.0182955
-0.018321
0.0182678
-0.0183538
0.0182579
-0.0183093
0.0183172
-0.0183945
0.018023
-0.0184712
0.0186946
-0.0179094
0.017427
-0.0193233
0.0197338
-0.0173682
0.0152192
-0.0180356
0.0221964
-0.0227136
0.017122
-0.0128485
0.0113114
-0.0152935
0.0210315
-0.0279865
0.0293531
-0.0279734
0.021948
-0.0175872
0.0114119
-0.00897442
0.00436624
-0.00411438
-0.000802507
-0.288923
-0.288923
1
1.06064
0.969974
0.914281
0.78723
0.825068
0.68824
0.7654
0.668489
0.699329
0.687276
0.661663
0.690626
0.699397
0.637491
0.767042
0.710293
0.72056
0.763591
0.823947
0.790231
0.911351
0.932486
0.948851
0.919207
1.00852
0.980223
0.96979
0.893946
0.903128
0.784119
0.654337
0.412826
0.27111
0.112111
0.0788378
0.00705396
0.0282151
-0.0148883
0.0195497
-0.0180332
0.0184939
-0.0183627
0.0183979
-0.018389
0.0183911
-0.0183906
0.0183907
-0.0183907
0.0183907
-0.0183907
0.0183907
-0.0183907
0.0183907
-0.0183907
0.0183907
-0.0183907
0.0183907
-0.0183907
0.0183907
-0.0183909
0.0183898
-0.0183936
0.0183826
-0.0184098
0.0183544
-0.0184416
0.0183484
-0.0183937
0.0183999
-0.0185004
0.0181038
-0.018519
0.0188193
-0.0180843
0.0174033
-0.019248
0.0199912
-0.0178189
0.015211
-0.0174771
0.0218797
-0.0234016
0.0182547
-0.0135246
0.0110582
-0.0140404
0.0191601
-0.0267397
0.0296451
-0.029886
0.0246842
-0.0205291
0.0139936
-0.0111154
0.00590301
-0.00510876
0.00235649
0.290646
0.290646
1
1.07715
1.00715
0.976903
0.845521
0.889913
0.755248
0.821824
0.738053
0.754945
0.750934
0.7198
0.746083
0.763781
0.687668
0.814313
0.773041
0.76989
0.804302
0.867027
0.827589
0.939239
0.967469
0.983436
0.944204
1.02448
0.997804
0.982723
0.899524
0.902677
0.788954
0.664392
0.426642
0.28156
0.120036
0.0822573
0.00963623
0.0284431
-0.0139312
0.0190487
-0.0173708
0.0178845
-0.0177371
0.0177769
-0.0177667
0.0177692
-0.0177686
0.0177687
-0.0177687
0.0177687
-0.0177687
0.0177687
-0.0177687
0.0177687
-0.0177687
0.0177687
-0.0177687
0.0177687
-0.0177687
0.0177687
-0.017769
0.0177678
-0.0177718
0.01776
-0.0177889
0.0177313
-0.0178192
0.0177296
-0.0177683
0.0177723
-0.0178958
0.0174792
-0.017854
0.0182265
-0.0175574
0.0166912
-0.0184424
0.0194936
-0.0175777
0.0145926
-0.0162423
0.0207212
-0.023215
0.0186791
-0.0136592
0.0103786
-0.0123377
0.0165669
-0.024338
0.0285749
-0.0305603
0.0265308
-0.022896
0.0162566
-0.0130611
0.00735485
-0.00606606
0.000415857
-0.289668
-0.289668
1
1.08703
1.03408
1.02694
0.896236
0.942937
0.815814
0.868702
0.799125
0.802381
0.805889
0.768783
0.791855
0.818237
0.730192
0.848101
0.824622
0.809334
0.834411
0.896772
0.854005
0.953488
0.989499
1.00559
0.960224
1.03029
1.0079
0.989462
0.902948
0.899478
0.792687
0.672212
0.440455
0.291048
0.128786
0.0850257
0.0130661
0.0279563
-0.0121883
0.0177943
-0.015942
0.0165133
-0.0163482
0.0163931
-0.0163816
0.0163844
-0.0163837
0.0163839
-0.0163838
0.0163838
-0.0163838
0.0163838
-0.0163838
0.0163838
-0.0163838
0.0163838
-0.0163838
0.0163838
-0.0163838
0.0163838
-0.0163841
0.0163828
-0.0163872
0.0163745
-0.0164051
0.0163455
-0.0164337
0.0163481
-0.0163804
0.016381
-0.0165275
0.016096
-0.016424
0.0168616
-0.0162745
0.0152392
-0.0168567
0.0181855
-0.0165823
0.0133071
-0.0142951
0.0186864
-0.0220948
0.0183132
-0.0131585
0.00918705
-0.0101692
0.0133214
-0.0208536
0.026105
-0.0298381
0.027272
-0.0244889
0.0180438
-0.0147056
0.00864797
-0.00690397
0.00348783
0.289968
0.289968
1
1.09201
1.05314
1.06512
0.940065
0.984658
0.869585
0.906822
0.851625
0.841694
0.852751
0.808923
0.828437
0.862999
0.766266
0.869717
0.865684
0.839995
0.856081
0.915157
0.871675
0.956692
1.0014
1.01796
0.970352
1.02915
1.01357
0.992278
0.906009
0.894652
0.796096
0.678038
0.454431
0.299512
0.138428
0.0870673
0.0174169
0.0266824
-0.00958575
0.0157142
-0.0136733
0.0143075
-0.014123
0.0141735
-0.0141604
0.0141636
-0.0141629
0.014163
-0.014163
0.014163
-0.014163
0.014163
-0.014163
0.014163
-0.014163
0.014163
-0.014163
0.014163
-0.014163
0.0141629
-0.0141633
0.0141618
-0.0141667
0.0141531
-0.0141853
0.0141238
-0.014212
0.0141309
-0.0141571
0.0141528
-0.0143224
0.0138812
-0.0141568
0.0146509
-0.0141607
0.0129755
-0.0144232
0.0159932
-0.0147482
0.0112747
-0.0115817
0.0157269
-0.0199632
0.0170522
-0.0119083
0.00737249
-0.00748232
0.00946752
-0.0163628
0.0222175
-0.027563
0.0266602
-0.0250508
0.0191335
-0.0158854
0.00966565
-0.00759831
0.00141392
-0.290299
-0.290299
1
1.09326
1.06634
1.09238
0.977668
1.01598
0.916381
0.93705
0.895945
0.873039
0.892311
0.840916
0.856566
0.898471
0.797253
0.880788
0.897085
0.86298
0.87142
0.924196
0.882722
0.951249
1.00565
1.02266
0.976927
1.02336
1.01682
0.992472
0.909667
0.888776
0.79963
0.681987
0.468657
0.306881
0.149003
0.0883197
0.0227432
0.0245662
-0.00606683
0.0127526
-0.0105087
0.0112113
-0.0110054
0.0110621
-0.0110474
0.011051
-0.0110501
0.0110503
-0.0110503
0.0110503
-0.0110503
0.0110503
-0.0110503
0.0110503
-0.0110503
0.0110503
-0.0110503
0.0110503
-0.0110503
0.0110502
-0.0110507
0.011049
-0.0110543
0.0110397
-0.0110735
0.0110104
-0.0110981
0.0110218
-0.0110425
0.0110319
-0.0112241
0.0107786
-0.0109974
0.011538
-0.0111578
0.00984451
-0.0110919
0.0128611
-0.0120071
0.0084307
-0.00806408
0.0118132
-0.0167623
0.0148116
-0.00981645
0.00483614
-0.00421697
0.00504418
-0.0109706
0.0169575
-0.0236407
0.0244793
-0.0243221
0.0192806
-0.0164067
0.0102657
-0.00801848
0.00427471
0.2894
0.2894
1
1.0916
1.07533
1.10988
1.00959
1.0381
0.956182
0.960247
0.932829
0.896697
0.925379
0.865762
0.877132
0.925158
0.824456
0.883158
0.919785
0.879325
0.8823
0.925862
0.889014
0.939283
1.0042
1.02136
0.98154
1.01454
1.01888
0.990777
0.914345
0.882185
0.803525
0.68417
0.483136
0.313134
0.160491
0.0887763
0.0290411
0.0216094
-0.00163271
0.00891178
-0.00644969
0.0072264
-0.00699709
0.00706069
-0.00704408
0.00704818
-0.00704722
0.00704743
-0.00704739
0.0070474
-0.0070474
0.0070474
-0.0070474
0.0070474
-0.0070474
0.0070474
-0.0070474
0.00704739
-0.00704742
0.0070473
-0.0070478
0.00704598
-0.00705172
0.00703611
-0.00707159
0.00700703
-0.00709382
0.00702254
-0.00703834
0.00701993
-0.00723435
0.00678969
-0.00694883
0.00752461
-0.00726506
0.0058481
-0.00687083
0.00879233
-0.0083492
0.00476587
-0.00375868
0.00697482
-0.0124958
0.0115693
-0.00685449
0.00153434
-0.000345337
0.00011613
-0.00484031
0.0104736
-0.0180952
0.0206088
-0.0220982
0.0182624
-0.016078
0.0103003
-0.0081141
0.00189963
-0.290774
-0.290774
1
1.08764
1.08137
1.11898
1.03625
1.05244
0.989139
0.977215
0.963244
0.913123
0.952637
0.884673
0.891121
0.943632
0.84896
0.878819
0.934756
0.889958
0.890226
0.922012
0.892068
0.922629
0.998557
1.01529
0.985108
1.00379
1.02039
0.987648
0.920117
0.875148
0.807843
0.684762
0.497777
0.31834
0.172776
0.0885218
0.0362142
0.017906
0.0036233
0.00428598
-0.00158977
0.00244677
-0.00219192
0.0022631
-0.00224438
0.00224903
-0.00224794
0.00224818
-0.00224813
0.00224814
-0.00224814
0.00224814
-0.00224814
0.00224814
-0.00224814
0.00224814
-0.00224814
0.00224813
-0.00224816
0.00224803
-0.00224858
0.00224659
-0.0022528
0.00223619
-0.00227324
0.00220741
-0.00229294
0.00222689
-0.00223856
0.00221095
-0.00244661
0.00200809
-0.00210574
0.00270458
-0.00257373
0.00107963
-0.00185959
0.00388335
-0.00385826
0.000361085
0.00123007
0.00133405
-0.00726445
0.00739969
-0.003092
-0.00248305
0.00408954
-0.00519656
0.00178594
0.00304304
-0.0111093
0.0150767
-0.0182866
0.0159273
-0.014747
0.00964261
-0.00775632
0.00436331
0.289048
0.289048
1
1.08189
1.08534
1.12117
1.05791
1.06047
1.01558
0.988663
0.988228
0.923007
0.974544
0.89898
0.899558
0.954518
0.871519
0.869829
0.94292
0.8957
0.896263
0.914363
0.893
0.902878
0.989705
1.00547
0.987994
0.991919
1.02158
0.983448
0.926802
0.86796
0.812494
0.684046
0.51237
0.322683
0.185629
0.0877544
0.0440507
0.0136639
0.00949339
-0.000916209
0.00386301
-0.00291929
0.00320196
-0.00312246
0.00314351
-0.00313824
0.00313949
-0.00313921
0.00313927
-0.00313926
0.00313926
-0.00313926
0.00313926
-0.00313926
0.00313926
-0.00313926
0.00313926
-0.00313927
0.00313923
-0.00313939
0.00313877
-0.00314095
0.00313425
-0.00315188
0.00311331
-0.00318019
0.00309628
-0.00315701
0.00314861
-0.00318672
0.0029311
-0.00335836
0.00332265
-0.00271343
0.00271041
-0.00425367
0.00372814
-0.00165362
0.0012659
-0.00459014
0.00668776
-0.00487209
-0.00128837
0.0024951
0.00128153
-0.00704574
0.00894436
-0.0106982
0.00857978
-0.00492175
-0.00304579
0.00809879
-0.0129542
0.012242
-0.0123402
0.00821453
-0.00693057
0.00151151
-0.290977
-0.290977
1
1.07486
1.08776
1.11801
1.07476
1.06363
1.03601
0.995213
1.00875
0.92731
0.991294
0.91003
0.90348
0.958507
0.892495
0.858229
0.945122
0.897292
0.901018
0.904462
0.892546
0.881426
0.97824
0.992685
0.99013
0.979569
1.02234
0.978555
0.934033
0.860989
0.817244
0.682419
0.526593
0.326471
0.1987
0.0867915
0.0522193
0.0092105
0.0156502
-0.00636666
0.00958113
-0.00854393
0.00885685
-0.00876822
0.00879185
-0.0087859
0.00878732
-0.008787
0.00878707
-0.00878705
0.00878706
-0.00878706
0.00878706
-0.00878706
0.00878706
-0.00878706
0.00878705
-0.00878706
0.00878702
-0.0087872
0.00878651
-0.00878889
0.00878169
-0.00880034
0.00876032
-0.00882801
0.00874609
-0.00880145
0.00879543
-0.00884518
0.00857121
-0.00898229
0.00900774
-0.00840104
0.00826194
-0.00982564
0.00955973
-0.00748572
0.006702
-0.00977605
0.012285
-0.0112875
0.00508845
-0.00283007
0.00595251
-0.011854
0.0139619
-0.0161109
0.015135
-0.0128888
0.00555825
9.2314e-05
-0.00635812
0.00732807
-0.00889678
0.00601383
-0.00557989
0.00345143
0.289014
0.289014
1
1.06704
1.08887
1.11109
1.08692
1.06323
1.05107
0.997436
1.02558
0.927267
1.00284
0.919081
0.9039
0.956373
0.911841
0.845958
0.942134
0.895419
0.904667
0.893671
0.891105
0.85952
0.964441
0.977682
0.991144
0.967312
1.02239
0.973399
0.941305
0.854675
0.82174
0.680382
0.540024
0.330114
0.211538
0.0860535
0.0602846
0.00497627
0.0216626
-0.0116338
0.0151336
-0.0139958
0.0143416
-0.014243
0.0142695
-0.0142627
0.0142644
-0.014264
0.0142641
-0.0142641
0.0142641
-0.0142641
0.0142641
-0.0142641
0.0142641
-0.0142641
0.0142641
-0.0142641
0.014264
-0.0142642
0.0142635
-0.014266
0.0142583
-0.014278
0.0142366
-0.0143049
0.0142253
-0.0142753
0.0142707
-0.014333
0.0140427
-0.0144329
0.0145176
-0.0139262
0.0136518
-0.0152072
0.0151998
-0.0131757
0.0120233
-0.0147821
0.0175936
-0.0174539
0.0114143
-0.0081559
0.0105009
-0.0164925
0.0187782
-0.0210841
0.0209934
-0.020245
0.0140252
-0.00833929
0.00105002
0.00147847
-0.00458948
0.00313246
-0.00379307
7.65228e-05
-0.290837
-0.290837
1
1.05893
1.08869
1.10191
1.09455
1.06036
1.06152
0.995903
1.03921
0.924349
1.00896
0.927187
0.901796
0.948991
0.929143
0.834759
0.934675
0.890726
0.907025
0.883153
0.888819
0.838274
0.948379
0.961137
0.99048
0.955661
1.0213
0.968454
0.94804
0.849503
0.825553
0.678496
0.552179
0.334094
0.223624
0.0860256
0.0677455
0.0014568
0.0270345
-0.0162209
0.0200242
-0.0187785
0.0191598
-0.0190503
0.0190799
-0.0190723
0.0190741
-0.0190737
0.0190738
-0.0190738
0.0190738
-0.0190738
0.0190738
-0.0190738
0.0190738
-0.0190738
0.0190738
-0.0190738
0.0190738
-0.019074
0.0190731
-0.019076
0.0190677
-0.0190884
0.0190457
-0.0191143
0.0190373
-0.0190822
0.019078
-0.0191537
0.0188492
-0.0192143
0.019355
-0.0187914
0.0183853
-0.0199043
0.0201483
-0.0182205
0.0167356
-0.0191285
0.0221245
-0.0228498
0.0171682
-0.0129954
0.0144406
-0.0204681
0.0229519
-0.0252239
0.0256869
-0.0263553
0.0216003
-0.0164556
0.0086519
-0.00485114
0.000273147
-0.000236847
-0.00163616
0.00156068
0.28932
0.28932
1
1.05101
1.08712
1.09178
1.09793
1.05585
1.06817
0.991234
1.04979
0.920171
1.00939
0.935108
0.898092
0.937343
0.9437
0.826083
0.923456
0.883834
0.907653
0.873832
0.885664
0.818667
0.930025
0.943681
0.987514
0.945066
1.01862
0.96419
0.953645
0.845951
0.82824
0.677331
0.562575
0.338901
0.234437
0.087201
0.0740928
-0.000844397
0.0312612
-0.0196231
0.0237484
-0.0223871
0.0228068
-0.0226854
0.0227185
-0.02271
0.022712
-0.0227116
0.0227117
-0.0227116
0.0227117
-0.0227117
0.0227117
-0.0227117
0.0227117
-0.0227117
0.0227117
-0.0227117
0.0227116
-0.0227118
0.0227109
-0.022714
0.0227052
-0.0227269
0.022683
-0.0227517
0.0226776
-0.0227174
0.0227127
-0.0228023
0.0224863
-0.0228223
0.023015
-0.0224907
0.0219594
-0.0234153
0.0238982
-0.0221085
0.0203343
-0.0223265
0.0253847
-0.0269486
0.0218173
-0.0168512
0.0172787
-0.0232683
0.0260144
-0.0281369
0.0287921
-0.0306379
0.0275369
-0.023458
0.0157217
-0.0110803
0.00526766
-0.00381132
0.000677092
-0.00214555
-0.290391
-0.290391
1
1.0437
1.08404
1.08176
1.09745
1.05027
1.07178
0.984144
1.05718
0.916366
1.00399
0.943236
0.893643
0.9225
0.954646
0.821002
0.909219
0.875329
0.905984
0.866365
0.881543
0.801511
0.909363
0.925871
0.981665
0.935861
1.01391
0.961017
0.957595
0.844421
0.829405
0.67739
0.570791
0.344969
0.243513
0.090012
0.0788772
-0.00148461
0.0338986
-0.0213958
0.0258624
-0.0243775
0.0248387
-0.0247043
0.0247411
-0.0247316
0.024734
-0.0247334
0.0247335
-0.0247335
0.0247335
-0.0247335
0.0247335
-0.0247335
0.0247335
-0.0247335
0.0247335
-0.0247335
0.0247335
-0.0247337
0.0247327
-0.024736
0.0247266
-0.0247494
0.0247044
-0.0247729
0.0247019
-0.024737
0.0247307
-0.0248345
0.0245097
-0.0248134
0.0250529
-0.0245787
0.0239314
-0.0252992
0.0260034
-0.0243884
0.0223734
-0.0239467
0.0269456
-0.0292882
0.0248854
-0.0192838
0.0185867
-0.0244342
0.027534
-0.0294847
0.0299903
-0.0326442
0.0311953
-0.0285892
0.0215111
-0.0165671
0.00989831