# vtk DataFile Version 2.0
FlowField
ASCII
DATASET STRUCTURED_GRID
DIMENSIONS 100 1 100
POINTS 10000 float
0 0 0
0.01 0 0
0.02 0 0
0.03 0 0
0.04 0 0
0.05 0 0
0.06 0 0
0.07 0 0
0.08 0 0
0.09 0 0
0.1 0 0
0.11 0 0
0.12 0 0
0.13 0 0
0.14 0 0
0.15 0 0
0.16 0 0
0.17 0 0
0.18 0 0
0.19 0 0
0.2 0 0
0.21 0 0
0.22 0 0
0.23 0 0
0.24 0 0
0.25 0 0
0.26 0 0
0.27 0 0
0.28 0 0
0.29 0 0
0.3 0 0
0.31 0 0
0.32 0 0
0.33 0 0
0.34 0 0
0.35 0 0
0.36 0 0
0.37 0 0
0.38 0 0
0.39 0 0
0.4 0 0
0.41 0 0
0.42 0 0
0.43 0 0
0.44 0 0
0.45 0 0
0.46 0 0
0.47 0 0
0.48 0 0
0.49 0 0
0.5 0 0
0.51 0 0
0.52 0 0
0.53 0 0
0.54 0 0
0.55 0 0
0.56 0 0
0.57 0 0
0.58 0 0
0.59 0 0
0.6 0 0
0.61 0 0
0.62 0 0
0.63 0 0
0.64 0 0
0.65 0 0
0.66 0 0
0.67 0 0
0.68 0 0
0.69 0 0
0.7 0 0
0.71 0 0
0.72 0 0
0.73 0 0
0.74 0 0
0.75 0 0
0.76 0 0
0.77 0 0
0.78 0 0
0.79 0 0
0.8 0 0
0.81 0 0
0.82 0 0
0.83 0 0
0.84 0 0
0.85 0 0
0.86 0 0
0.87 0 0
0.88 0 0
0.89 0 0
0.9 0 0
0.91 0 0
0.92 0 0
0.93 0 0
0.94 0 0
0.95 0 0
0.96 0 0
0.97 0 0
0.98 0 0
0.99 0 0
0 0.001 0
0.01 0.001 0
0.02 0.001 0
0.03 0.001 0
0.04 0.001 0
0.05 0.001 0
0.06 0.001 0
0.07 0.001 0
0.08 0.001 0
0.09 0.001 0
0.1 0.001 0
0.11 0.001 0
0.12 0.001 0
0.13 0.001 0
0.14 0.001 0
0.15 0.001 0
0.16 0.001 0
0.17 0.001 0
0.18 0.001 0
0.19 0.001 0
0.2 0.001 0
0.21 0.001 0
0.22 0.001 0
0.23 0.001 0
0.24 0.001 0
0.25 0.001 0
0.26 0.001 0
0.27 0.001 0
0.28 0.001 0
0.29 0.001 0
0.3 0.001 0
0.31 0.001 0
0.32 0.001 0
0.33 0.001 0
0.34 0.001 0
0.35 0.001 0
0.36 0.001 0
0.37 0.001 0
0.38 0.001 0
0.39 0.001 0
0.4 0.001 0
0.41 0.001 0
0.42 0.001 0
0.43 0.001 0
0.44 0.001 0
0.45 0.001 0
0.46 0.001 0
0.47 0.001 0
0.48 0.001 0
0.49 0.001 0
0.5 0.001 0
0.51 0.001 0
0.52 0.001 0
0.53 0.001 0
0.54 0.001 0
0.55 0.001 0
0.56 0.001 0
0.57 0.001 0
0.58 0.001 0
0.59 0.001 0
0.6 0.001 0
0.61 0.001 0
0.62 0.001 0
0.63 0.001 0
0.64 0.001 0
0.65 0.001 0
0.66 0.001 0
0.67 0.001 0
0.68 0.001 0
0.69 0.001 0
0.7 0.001 0
0.71 0.001 0
0.72 0.001 0
0.73 0.001 0
0.74 0.001 0
0.75 0.001 0
0.76 0.001 0
0.77 0.001 0
0.78 0.001 0
0.79 0.001 0
0.8 0.001 0
0.81 0.001 0
0.82 0.001 0
0.83 0.001 0
0.84 0.001 0
0.85 0.001 0
0.86 0.001 0
0.87 0.001 0
0.88 0.001 0
0.89 0.001 0
0.9 0.001 0
0.91 0.001 0
0.92 0.001 0
0.93 0.001 0
0.94 0.001 0
0.95 0.001 0
0.96 0.001 0
0.97 0.001 0
0.98 0.001 0
0.99 0.001 0
0 0.002 0
0.01 0.002 0
0.02 0.002 0
0.03 0.002 0
0.04 0.002 0
0.05 0.002 0
0.06 0.002 0
0.07 0.002 0
0.08 0.002 0
0.09 0.002 0
0.1 0.002 0
0.11 0.002 0
0.12 0.002 0
0.13 0.002 0
0.14 0.002 0
0.15 0.002 0
0.16 0.002 0
0.17 0.002 0
0.18 0.002 0
0.19 0.002 0
0.2 0.002 0
0.21 0.002 0
0.22 0.002 0
0.23 0.002 0
0.24 0.002 0
0.25 0.002 0
0.26 0.002 0
0.27 0.002 0
0.28 0.002 0
0.29 0.002 0
0.3 0.002 0
0.31 0.002 0
0.32 0.002 0
0.33 0.002 0
0.34 0.002 0
0.35 0.002 0
0.36 0.002 0
0.37 0.002 0
0.38 0.002 0
0.39 0.002 0
0.4 0.002 0
0.41 0.002 0
0.42 0.002 0
0.43 0.002 0
0.44 0.002 0
0.45 0.002 0
0.46 0.002 0
0.47 0.002 0
0.48 0.002 0
0.49 0.002 0
0.5 0.002 0
0.51 0.002 0
0.52 0.002 0
0.53 0.002 0
0.54 0.002 0
0.55 0.002 0
0.56 0.002 0
0.57 0.002 0
0.58 0.002 0
0.59 0.002 0
0.6 0.002 0
0.61 0.002 0
0.62 0.002 0
0.63 0.002 0
0.64 0.002 0
0.65 0.002 0
0.66 0.002 0
0.67 0.002 0
0.68 0.002 0
0.69 0.002 0
0.7 0.002 0
0.71 0.002 0
0.72 0.002 0
0.73 0.002 0
0.74 0.002 0
0.75 0.002 0
0.76 0.002 0
0.77 0.002 0
0.78 0.002 0
0.79 0.002 0
0.8 0.002 0
0.81 0.002 0
0.82 0.002 0
0.83 0.002 0
0.84 0.002 0
0.85 0.002 0
0.86 0.002 0
0.87 0.002 0
0.88 0.002 0
0.89 0.002 0
0.9 0.002 0
0.91 0.002 0
0.92 0.002 0
0.93 0.002 0
0.94 0.002 0
0.95 0.002 0
0.96 0.002 0
0.97 0.002 0
0.98 0.002 0
0.99 0.002 0
0 0.003 0
0.01 0.003 0
0.02 0.003 0
0.03 0.003 0
0.04 0.003 0
0.05 0.003 0
0.06 0.003 0
0.07 0.003 0
0.08 0.003 0
0.09 0.003 0
0.1 0.003 0
0.11 0.003 0
0.12 0.003 0
0.13 0.003 0
0.14 0.003 0
0.15 0.003 0
0.16 0.003 0
0.17 0.003 0
0.18 0.003 0
0.19 0.003 0
0.2 0.003 0
0.21 0.003 0
0.22 0.003 0
0.23 0.003 0
0.24 0.003 0
0.25 0.003 0
0.26 0.003 0
0.27 0.003 0
0.28 0.003 0
0.29 0.003 0
0.3 0.003 0
0.31 0.003 0
0.32 0.003 0
0.33 0.003 0
0.34 0.003 0
0.35 0.003 0
0.36 0.003 0
0.37 0.003 0
0.38 0.003 0
0.39 0.003 0
0.4 0.003 0
0.41 0.003 0
0.42 0.003 0
0.43 0.003 0
0.44 0.003 0
0.45 0.003 0
0.46 0.003 0
0.47 0.003 0
0.48 0.003 0
0.49 0.003 0
0.5 0.003 0
0.51 0.003 0
0.52 0.003 0
0.53 0.003 0
0.54 0.003 0
0.55 0.003 0
0.56 0.003 0
0.57 0.003 0
0.58 0.003 0
0.59 0.003 0
0.6 0.003 0
0.61 0.003 0
0.62 0.003 0
0.63 0.003 0
0.64 0.003 0
0.65 0.003 0
0.66 0.003 0
0.67 0.003 0
0.68 0.003 0
0.69 0.003 0
0.7 0.003 0
0.71 0.003 0
0.72 0.003 0
0.73 0.003 0
0.74 0.003 0
0.75 0.003 0
0.76 0.003 0
0.77 0.003 0
0.78 0.003 0
0.79 0.003 0
0.8 0.003 0
0.81 0.003 0
0.82 0.003 0
0.83 0.003 0
0.84 0.003 0
0.85 0.003 0
0.86 0.003 0
0.87 0.003 0
0.88 0.003 0
0.89 0.003 0
0.9 0.003 0
0.91 0.003 0
0.92 0.003 0
0.93 0.003 0
0.94 0.003 0
0.95 0.003 0
0.96 0.003 0
0.97 0.003 0
0.98 0.003 0
0.99 0.003 0
0 0.004 0
0.01 0.004 0
0.02 0.004 0
0.03 0.004 0
0.04 0.004 0
0.05 0.004 0
0.06 0.004 0
0.07 0.004 0
0.08 0.004 0
0.09 0.004 0
0.1 0.004 0
0.11 0.004 0
0.12 0.004 0
0.13 0.004 0
0.14 0.004 0
0.15 0.004 0
0.16 0.004 0
0.17 0.004 0
0.18 0.004 0
0.19 0.004 0
0.2 0.004 0
0.21 0.004 0
0.22 0.004 0
0.23 0.004 0
0.24 0.004 0
0.25 0.004 0
0.26 0.004 0
0.27 0.004 0
0.28 0.004 0
0.29 0.004 0
0.3 0.004 0
0.31 0.004 0
0.32 0.004 0
0.33 0.004 0
0.34 0.004 0
0.35 0.004 0
0.36 0.004 0
0.37 0.004 0
0.38 0.004 0
0.39 0.004 0
0.4 0.004 0
0.41 0.004 0
0.42 0.004 0
0.43 0.004 0
0.44 0.004 0
0.45 0.004 0
0.46 0.004 0
0.47 0.004 0
0.48 0.004 0
0.49 0.004 0
0.5 0.004 0
0.51 0.004 0
0.52 0.004 0
0.53 0.004 0
0.54 0.004 0
0.55 0.004 0
0.56 0.004 0
0.57 0.004 0
0.58 0.004 0
0.59 0.004 0
0.6 0.004 0
0.61 0.004 0
0.62 0.004 0
0.63 0.004 0
0.64 0.004 0
0.65 0.004 0
0.66 0.004 0
0.67 0.004 0
0.68 0.004 0
0.69 0.004 0
0.7 0.004 0
0.71 0.004 0
0.72 0.004 0
0.73 0.004 0
0.74 0.004 0
0.75 0.004 0
0.76 0.004 0
0.77 0.004 0
0.78 0.004 0
0.79 0.004 0
0.8 0.004 0
0.81 0.004 0
0.82 0.004 0
0.83 0.004 0
0.84 0.004 0
0.85 0.004 0
0.86 0.004 0
0.87 0.004 0
0.88 0.004 0
0.89 0.004 0
0.9 0.004 0
0.91 0.004 0
0.92 0.004 0
0.93 0.004 0
0.94 0.004 0
0.95 0.004 0
0.96 0.004 0
0.97 0.004 0
0.98 0.004 0
0.99 0.004 0
0 0.005 0
0.01 0.005 0
0.02 0.005 0
0.03 0.005 0
0.04 0.005 0
0.05 0.005 0
0.06 0.005 0
0.07 0.005 0
0.08 0.005 0
0.09 0.005 0
0.1 0.005 0
0.11 0.005 0
0.12 0.005 0
0.13 0.005 0
0.14 0.005 0
0.15 0.005 0
0.16 0.005 0
0.17 0.005 0
0.18 0.005 0
0.19 0.005 0
0.2 0.005 0
0.21 0.005 0
0.22 0.005 0
0.23 0.005 0
0.24 0.005 0
0.25 0.005 0
0.26 0.005 0
0.27 0.005 0
0.28 0.005 0
0.29 0.005 0
0.3 0.005 0
0.31 0.005 0
0.32 0.005 0
0.33 0.005 0
0.34 0.005 0
0.35 0.005 0
0.36 0.005 0
0.37 0.005 0
0.38 0.005 0
0.39 0.005 0
0.4 0.005 0
0.41 0.005 0
0.42 0.005 0
0.43 0.005 0
0.44 0.005 0
0.45 0.005 0
0.46 0.005 0
0.47 0.005 0
0.48 0.005 0
0.49 0.005 0
0.5 0.005 0
0.51 0.005 0
0.52 0.005 0
0.53 0.005 0
0.54 0.005 0
0.55 0.005 0
0.56 0.005 0
0.57 0.005 0
0.58 0.005 0
0.59 0.005 0
0.6 0.005 0
0.61 0.005 0
0.62 0.005 0
0.63 0.005 0
0.64 0.005 0
0.65 0.005 0
0.66 0.005 0
0.67 0.005 0
0.68 0.005 0
0.69 0.005 0
0.7 0.005 0
0.71 0.005 0
0.72 0.005 0
0.73 0.005 0
0.74 0.005 0
0.75 0.005 0
0.76 0.005 0
0.77 0.005 0
0.78 0.005 0
0.79 0.005 0
0.8 0.005 0
0.81 0.005 0
0.82 0.005 0
0.83 0.005 0
0.84 0.005 0
0.85 0.005 0
0.86 0.005 0
0.87 0.005 0
0.88 0.005 0
0.89 0.005 0
0.9 0.005 0
0.91 0.005 0
0.92 0.005 0
0.93 0.005 0
0.94 0.005 0
0.95 0.005 0
0.96 0.005 0
0.97 0.005 0
0.98 0.005 0
0.99 0.005 0
0 0.006 0
0.01 0.006 0
0.02 0.006 0
0.03 0.006 0
0.04 0.006 0
0.05 0.006 0
0.06 0.006 0
0.07 0.006 0
0.08 0.006 0
0.09 0.006 0
0.1 0.006 0
0.11 0.006 0
0.12 0.006 0
0.13 0.006 0
0.14 0.006 0
0.15 0.006 0
0.16 0.006 0
0.17 0.006 0
0.18 0.006 0
0.19 0.006 0
0.2 0.006 0
0.21 0.006 0
0.22 0.006 0
0.23 0.006 0
0.24 0.006 0
0.25 0.006 0
0.26 0.006 0
0.27 0.006 0
0.28 0.006 0
0.29 0.006 0
0.3 0.006 0
0.31 0.006 0
0.32 0.006 0
0.33 0.006 0
0.34 0.006 0
0.35 0.006 0
0.36 0.006 0
0.37 0.006 0
0.38 0.006 0
0.39 0.006 0
0.4 0.006 0
0.41 0.006 0
0.42 0.006 0
0.43 0.006 0
0.44 0.006 0
0.45 0.006 0
0.46 0.006 0
0.47 0.006 0
0.48 0.006 0
0.49 0.006 0
0.5 0.006 0
0.51 0.006 0
0.52 0.006 0
0.53 0.006 0
0.54 0.006 0
0.55 0.006 0
0.56 0.006 0
0.57 0.006 0
0.58 0.006 0
0.59 0.006 0
0.6 0.006 0
0.61 0.006 0
0.62 0.006 0
0.63 0.006 0
0.64 0.006 0
0.65 0.006 0
0.66 0.006 0
0.67 0.006 0
0.68 0.006 0
0.69 0.006 0
0.7 0.006 0
0.71 0.006 0
0.72 0.006 0
0.73 0.006 0
0.74 0.006 0
0.75 0.006 0
0.76 0.006 0
0.77 0.006 0
0.78 0.006 0
0.79 0.006 0
0.8 0.006 0
0.81 0.006 0
0.82 0.006 0
0.83 0.006 0
0.84 0.006 0
0.85 0.006 0
0.86 0.006 0
0.87 0.006 0
0.88 0.006 0
0.89 0.006 0
0.9 0.006 0
0.91 0.006 0
0.92 0.006 0
0.93 0.006 0
0.94 0.006 0
0.95 0.006 0
0.96 0.006 0
0.97 0.006 0
0.98 0.006 0
0.99 0.006 0
0 0.007 0
0.01 0.007 0
0.02 0.007 0
0.03 0.007 0
0.04 0.007 0
0.05 0.007 0
0.06 0.007 0
0.07 0.007 0
0.08 0.007 0
0.09 0.007 0
0.1 0.007 0
0.11 0.007 0
0.12 0.007 0
0.13 0.007 0
0.14 0.007 0
0.15 0.007 0
0.16 0.007 0
0.17 0.007 0
0.18 0.007 0
0.19 0.007 0
0.2 0.007 0
0.21 0.007 0
0.22 0.007 0
0.23 0.007 0
0.24 0.007 0
0.25 0.007 0
0.26 0.007 0
0.27 0.007 0
0.28 0.007 0
0.29 0.007 0
0.3 0.007 0
0.31 0.007 0
0.32 0.007 0
0.33 0.007 0
0.34 0.007 0
0.35 0.007 0
0.36 0.007 0
0.37 0.007 0
0.38 0.007 0
0.39 0.007 0
0.4 0.007 0
0.41 0.007 0
0.42 0.007 0
0.43 0.007 0
0.44 0.007 0
0.45 0.007 0
0.46 0.007 0
0.47 0.007 0
0.48 0.007 0
0.49 0.007 0
0.5 0.007 0
0.51 0.007 0
0.52 0.007 0
0.53 0.007 0
0.54 0.007 0
0.55 0.007 0
0.56 0.007 0
0.57 0.007 0
0.58 0.007 0
0.59 0.007 0
0.6 0.007 0
0.61 0.007 0
0.62 0.007 0
0.63 0.007 0
0.64 0.007 0
0.65 0.007 0
0.66 0.007 0
0.67 0.007 0
0.68 0.007 0
0.69 0.007 0
0.7 0.007 0
0.71 0.007 0
0.72 0.007 0
0.73 0.007 0
0.74 0.007 0
0.75 0.007 0
0.76 0.007 0
0.77 0.007 0
0.78 0.007 0
0.79 0.007 0
0.8 0.007 0
0.81 0.007 0
0.82 0.007 0
0.83 0.007 0
0.84 0.007 0
0.85 0.007 0
0.86 0.007 0
0.87 0.007 0
0.88 0.007 0
0.89 0.007 0
0.9 0.007 0
0.91 0.007 0
0.92 0.007 0
0.93 0.007 0
0.94 0.007 0
0.95 0.007 0
0.96 0.007 0
0.97 0.007 0
0.98 0.007 0
[...]
POINT_DATA 10000

SCALARS vel_X float 1
LOOKUP_TABLE default
0
0
0
0
0
0
0
0
0
0
0
0
0
0
0
0
0
0
0
0
0
0
0
0
0
0
0
0
0
0
0
0
0
0
0
0
0
0
0
0
0
0
0
0
0
0
0
0
0
0
0
0
0
0
0
0
0
0
0
0
0
0
0
0
0
0
0
0
0
0
0
0
0
0
0
0
0
0
0
0
0
0
0
0
0
0
0
0
0
0
0
0
0
0
0
0
0
0
0
0
1
0.335785
0.179193
0.166308
0.107418
0.111539
0.11384
0.0570544
0.128713
0.0422135
0.0973466
0.0728586
0.0566516
0.0931256
0.0568815
0.0457561
0.123821
0.056119
0.0552142
0.0949679
0.104283
0.0825318
0.160413
0.175487
0.167463
0.161749
0.228527
0.235233
0.242124
0.241787
0.303131
0.311067
0.290402
0.198239
0.133764
0.0599325
0.0395144
0.00633751
0.0128938
-0.00548226
0.00812266
-0.00724794
0.00751841
-0.00743999
0.00746137
-0.00745587
0.00745721
-0.0074569
0.00745697
-0.00745695
0.00745695
-0.00745695
0.00745695
-0.00745695
0.00745695
-0.00745695
0.00745695
-0.00745696
0.00745692
-0.00745708
0.00745649
-0.00745846
0.00745275
-0.00746672
0.00743903
-0.00748014
0.00744315
-0.00744337
0.00748028
-0.00750577
0.00729593
-0.00752036
0.00777198
-0.00717115
0.00683912
-0.00818032
0.00856278
-0.00653635
0.00516223
-0.00766321
0.0110038
-0.0102236
0.00515716
-0.00207509
0.00297411
-0.00770982
0.013529
-0.0171712
0.0149474
-0.00924063
0.00273297
0.00143603
-0.00408466
0.00455176
-0.00465512
0.00341611
-0.00303552
-0.0018237
-0.225723
-0.225723
1
0.580209
0.347952
0.312539
0.218226
0.224535
0.211686
0.145695
0.227151
0.116815
0.188672
0.151582
0.133572
0.182884
0.128545
0.127795
0.224357
0.136244
0.142682
0.203748
0.214346
0.202487
0.312532
0.336648
0.326137
0.334163
0.426523
0.4397
0.447182
0.456113
0.531515
0.527634
0.466299
0.317146
0.204326
0.0955757
0.0568272
0.0129009
0.0161726
-0.00502088
0.00897877
-0.00767167
0.00807483
-0.00795819
0.00798993
-0.00798178
0.00798376
-0.0079833
0.0079834
-0.00798338
0.00798338
-0.00798338
0.00798338
-0.00798338
0.00798338
-0.00798338
0.00798338
-0.00798339
0.00798334
-0.00798357
0.00798269
-0.00798564
0.00797704
-0.00799828
0.00795554
-0.00802089
0.00795713
-0.00797018
0.00801553
-0.00804943
0.00774684
-0.00810807
0.00840065
-0.00753236
0.00718324
-0.00909823
0.00936726
-0.00652997
0.0049725
-0.00866516
0.0128382
-0.0112435
0.00431369
-0.000859814
0.0026209
-0.0092022
0.0164583
-0.0205978
0.0168701
-0.00923157
0.000711655
0.00425779
-0.00744254
0.00743401
-0.00734257
0.00512883
-0.00459606
0.00161959
0.328851
0.328851
1
0.752377
0.501942
0.438643
0.336258
0.324278
0.314198
0.237078
0.317734
0.206257
0.274498
0.237509
0.219703
0.268595
0.219153
0.21423
0.318699
0.234188
0.244699
0.309928
0.332221
0.326503
0.448749
0.479647
0.477895
0.49015
0.592168
0.607213
0.617718
0.621841
0.690533
0.662987
0.571962
0.385511
0.246178
0.115467
0.0679277
0.0159267
0.0190479
-0.00561906
0.0103923
-0.00881293
0.00930115
-0.00915956
0.00919819
-0.00918824
0.00919066
-0.0091901
0.00919023
-0.0091902
0.00919021
-0.0091902
0.0091902
-0.0091902
0.0091902
-0.0091902
0.0091902
-0.00919022
0.00919015
-0.00919043
0.00918937
-0.00919293
0.00918259
-0.00920804
0.00915685
-0.00923564
0.00915627
-0.00918074
0.00922016
-0.00927002
0.00892176
-0.00933507
0.00963579
-0.00871347
0.00832132
-0.0103764
0.0106478
-0.00772288
0.00602192
-0.00980384
0.0141248
-0.0127253
0.00561998
-0.00206308
0.00349641
-0.00997592
0.0171426
-0.0218768
0.0186886
-0.011611
0.00283729
0.00235599
-0.00620225
0.00635692
-0.00681139
0.00451998
-0.00451216
-0.000752723
-0.289761
-0.289761
1
0.871137
0.636361
0.549186
0.454268
0.413218
0.419927
0.323823
0.407528
0.298413
0.357854
0.326631
0.307637
0.352276
0.319254
0.296232
0.41207
0.338538
0.348575
0.408719
0.449204
0.439283
0.56695
0.603505
0.615413
0.619661
0.725808
0.73808
0.751911
0.737672
0.79353
0.740869
0.636157
0.42493
0.27493
0.126722
0.0776955
0.0161584
0.0231614
-0.00799347
0.013411
-0.0116096
0.0121692
-0.0120061
0.0120508
-0.0120392
0.0120421
-0.0120414
0.0120415
-0.0120415
0.0120415
-0.0120415
0.0120415
-0.0120415
0.0120415
-0.0120415
0.0120415
-0.0120415
0.0120415
-0.0120418
0.0120406
-0.0120446
0.012033
-0.0120613
0.0120049
-0.0120909
0.0120043
-0.0120348
0.012064
-0.0121384
0.0117594
-0.0121725
0.0125025
-0.0116237
0.011101
-0.0131211
0.0135907
-0.0108638
0.00881144
-0.0121459
0.0166196
-0.0161276
0.00940286
-0.00539303
0.00575455
-0.0113948
0.01823
-0.0240886
0.0226202
-0.017078
0.00847619
-0.002862
-0.00208086
0.00301502
-0.00454065
0.00274319
-0.0035674
0.00160909
0.304696
0.304696
1
0.951311
0.750006
0.646481
0.56627
0.495281
0.52255
0.406587
0.494956
0.388107
0.43916
0.414494
0.393379
0.433292
0.419804
0.373099
0.50168
0.440317
0.447244
0.497927
0.55652
0.536124
0.666191
0.707218
0.732419
0.721851
0.828972
0.835468
0.850837
0.812447
0.855705
0.782707
0.676143
0.449283
0.29713
0.13423
0.086892
0.0153464
0.0277816
-0.0110326
0.0170546
-0.0150392
0.0156693
-0.0154845
0.0155355
-0.0155222
0.0155255
-0.0155247
0.0155249
-0.0155249
0.0155249
-0.0155249
0.0155249
-0.0155249
0.0155249
-0.0155249
0.0155249
-0.0155249
0.0155248
-0.0155252
0.0155238
-0.0155283
0.0155155
-0.0155462
0.0154862
-0.0155759
0.0154875
-0.015519
0.015538
-0.0156414
0.0152364
-0.0156223
0.0160041
-0.0152045
0.0144954
-0.0164232
0.0172034
-0.014756
0.0122315
-0.0149334
0.0196276
-0.020316
0.0141007
-0.00943142
0.00852329
-0.0131672
0.0196299
-0.0267014
0.0272775
-0.0235731
0.0153477
-0.00925928
0.00308218
-0.00110755
-0.00166765
0.000606147
-0.00235275
-0.00146823
-0.298438
-0.298438
1
1.00388
0.844149
0.731022
0.669236
0.572006
0.617565
0.486368
0.576858
0.473363
0.516922
0.497939
0.474599
0.509265
0.515383
0.444952
0.58295
0.534064
0.537205
0.575846
0.649123
0.616573
0.746146
0.790174
0.826581
0.799421
0.904601
0.904065
0.919435
0.857571
0.890598
0.803665
0.70205
0.46633
0.315658
0.14064
0.0954409
0.0146567
0.032167
-0.0138415
0.02048
-0.0182422
0.0189467
-0.0187387
0.0187965
-0.0187813
0.0187851
-0.0187842
0.0187844
-0.0187843
0.0187843
-0.0187843
0.0187843
-0.0187843
0.0187843
-0.0187843
0.0187843
-0.0187844
0.0187843
-0.0187847
0.0187831
-0.0187881
0.0187742
-0.018807
0.0187442
-0.0188358
0.0187488
-0.0187779
0.018788
-0.0189212
0.0184939
-0.0188386
0.0192828
-0.0185761
0.0176643
-0.019474
0.0205932
-0.0184541
0.0154597
-0.0174756
0.0223449
-0.0242359
0.0186103
-0.0133138
0.0112072
-0.0148457
0.0207778
-0.0287592
0.0312785
-0.0295628
0.0220552
-0.0157263
0.00846416
-0.00543474
0.00141321
-0.00164074
-0.000991467
0.000584636
0.301802
0.301802
1
1.03689
0.920937
0.803042
0.761758
0.6434
0.702796
0.562823
0.651205
0.55299
0.589236
0.575134
0.549652
0.577817
0.603193
0.511307
0.652595
0.616897
0.616801
0.641557
0.725338
0.681519
0.807295
0.85291
0.898698
0.856162
0.956767
0.94944
0.964522
0.883258
0.908524
0.813219
0.719683
0.479998
0.331891
0.147142
0.103279
0.0146115
0.0359687
-0.0160095
0.0232971
-0.0208219
0.0216069
-0.0213735
0.0214388
-0.0214216
0.0214259
-0.0214248
0.0214251
-0.021425
0.021425
-0.021425
0.021425
-0.021425
0.021425
-0.021425
0.021425
-0.021425
0.0214249
-0.0214254
0.0214237
-0.0214291
0.0214142
-0.0214489
0.0213837
-0.021476
0.0213924
-0.0214172
0.021419
-0.0215814
0.0211368
-0.0214317
0.0219387
-0.0213344
0.0202289
-0.0218937
0.0233321
-0.0215331
0.0181447
-0.0194494
0.0243541
-0.0273757
0.0224671
-0.0167077
0.0135429
-0.0161793
0.0213465
-0.0297674
0.0339572
-0.0343488
0.0280063
-0.0218526
0.0138197
-0.00984764
0.00465145
-0.00399016
0.000461477
-0.00270368
-0.299273
-0.299273
1
1.05626
0.982542
0.863259
0.843006
0.709153
0.777386
0.634868
0.717205
0.62598
0.654546
0.645172
0.617346
0.637428
0.681678
0.571631
0.709173
0.687555
0.685323
0.695246
0.785474
0.732387
0.850948
0.897235
0.951167
0.896126
0.990023
0.977355
0.992723
0.89732
0.916439
0.81694
0.732192
0.492206
0.346445
0.154257
0.110356
0.0154431
0.0390225
-0.017348
0.025326
-0.0225955
0.0234679
-0.0232066
0.0232802
-0.0232606
0.0232656
-0.0232644
0.0232646
-0.0232646
0.0232646
-0.0232646
0.0232646
-0.0232646
0.0232646
-0.0232646
0.0232646
-0.0232646
0.0232645
-0.023265
0.0232631
-0.0232691
0.023253
-0.0232896
0.0232223
-0.0233146
0.0232354
-0.0232553
0.0232488
-0.023439
0.022983
-0.0232221
0.0237853
-0.0232943
0.0220162
-0.0235041
0.0252208
-0.023802
0.0201249
-0.0206991
0.0254597
-0.0295098
0.0254725
-0.019454
0.015367
-0.017018
0.0212103
-0.0295793
0.035074
-0.0376107
0.0328713
-0.0273812
0.0189834
-0.0142651
0.00801215
-0.00643916
0.00204516
-0.000825374
0.301663
0.301663
1
1.06632
1.03089
0.912901
0.912427
0.769133
0.841112
0.701405
0.774738
0.691657
0.711779
0.70773
0.676988
0.687528
0.74983
0.625869
0.752657
0.7458
0.742638
0.738049
0.830783
0.770996
0.879049
0.925844
0.986882
0.923275
1.00875
0.993111
1.00934
0.905202
0.918574
0.818042
0.741148
0.503944
0.359495
0.162279
0.116555
0.0173357
0.0411699
-0.0176881
0.026402
-0.0233965
0.024364
-0.0240722
0.0241549
-0.0241328
0.0241384
-0.0241371
0.0241374
-0.0241373
0.0241373
-0.0241373
0.0241373
-0.0241373
0.0241373
-0.0241373
0.0241373
-0.0241373
0.0241372
-0.0241378
0.0241357
-0.0241422
0.0241249
-0.0241635
0.0240943
-0.0241861
0.0241118
-0.0241269
0.0241112
-0.0243279
0.0238671
-0.0240454
0.0246548
-0.0242886
0.0228644
-0.0241421
0.0260883
-0.0250887
0.0212355
-0.0210728
0.0255062
-0.0304638
0.0274441
-0.0213683
0.0164822
-0.0171981
0.0202892
-0.0281625
0.0345171
-0.0390964
0.0362996
-0.0319642
0.0236686
-0.0184849
0.0113583
-0.00890842
0.00366091
-0.00425232
-0.299186
-0.299186
1
1.07022
1.06764
0.953475
0.969789
0.82339
0.894154
0.761636
0.823941
0.749854
0.760275
0.762853
0.728403
0.728304
0.806984
0.674499
0.78392
0.792092
0.789003
0.771676
0.862929
0.799459
0.89389
0.941797
1.00866
0.941215
1.01675
1.00109
1.01812
0.91044
0.917288
0.818391
0.74725
0.515786
0.370974
0.171443
0.121692
0.0204907
0.0422172
-0.016832
0.0263296
-0.0230284
0.024099
-0.0237739
0.0238667
-0.0238417
0.0238481
-0.0238465
0.0238469
-0.0238468
0.0238468
-0.0238468
0.0238468
-0.0238468
0.0238468
-0.0238468
0.0238468
-0.0238468
0.0238467
-0.0238473
0.023845
-0.0238521
0.0238336
-0.0238741
0.0238033
-0.0238939
0.0238252
-0.0238358
0.0238099
-0.0240517
0.0235925
-0.0237065
0.0243499
-0.0241191
0.0225778
-0.0236158
0.0257386
-0.0251882
0.0212704
-0.0203869
0.0243234
-0.0300444
0.0281593
-0.0222185
0.0166485
-0.0165153
0.0184788
-0.0254931
0.0322031
-0.0385579
0.0378919
-0.0351545
0.0274653
-0.0221835
0.014451
-0.0112421
0.00525306
-0.00242342
0.301823
0.301823
1
1.07025
1.09422
0.986529
1.01527
0.872038
0.937037
0.815132
0.865021
0.800913
0.799726
0.810798
0.771877
0.760477
0.852797
0.718324
0.804378
0.827369
0.824944
0.79802
0.883748
0.820003
0.897849
0.948085
1.01901
0.952973
1.01699
1.00459
1.02145
0.91518
0.9138
0.819081
0.750775
0.528096
0.38073
0.181942
0.125573
0.0250987
0.0419745
-0.0145879
0.0249185
-0.0212999
0.0224823
-0.0221206
0.0222246
-0.0221964
0.0222036
-0.0222019
0.0222023
-0.0222022
0.0222022
-0.0222022
0.0222022
-0.0222022
0.0222022
-0.0222022
0.0222022
-0.0222022
0.022202
-0.0222028
0.0222002
-0.0222079
0.0221882
-0.0222305
0.0221584
-0.0222474
0.0221843
-0.0221913
0.0221539
-0.0224192
0.0219681
-0.0220154
0.0226797
-0.0225927
0.0209652
-0.0217401
0.0239839
-0.0238991
0.0200245
-0.018463
0.021753
-0.0280673
0.0273969
-0.0217758
0.0156326
-0.0147572
0.0156597
-0.0215565
0.0280964
-0.0358058
0.0372787
-0.0364876
0.0299101
-0.0249689
0.0169866
-0.0132325
0.00664218
-0.00578512
-0.299012
-0.299012
1
1.06805
1.11191
1.01348
1.04946
0.915169
0.970577
0.861799
0.898201
0.845556
0.830179
0.851898
0.808046
0.785124
0.887242
0.758211
0.815776
0.852877
0.85116
0.818875
0.895136
0.834755
0.893217
0.947347
1.02006
0.960863
1.01174
1.00588
1.02081
0.920606
0.908727
0.820732
0.751861
0.541078
0.388634
0.193885
0.128062
0.031284
0.0403146
-0.0108277
0.0220421
-0.0180834
0.0193866
-0.0189851
0.0191013
-0.0190696
0.0190778
-0.0190758
0.0190763
-0.0190762
0.0190762
-0.0190762
0.0190762
-0.0190762
0.0190762
-0.0190762
0.0190762
-0.0190762
0.019076
-0.0190768
0.019074
-0.0190823
0.0190614
-0.0191054
0.0190322
-0.0191193
0.019062
-0.0190662
0.0190161
-0.0193031
0.0188661
-0.0188461
0.0195173
-0.0195798
0.0178979
-0.0183937
0.0207014
-0.0210839
0.0173543
-0.0151837
0.0177021
-0.0244154
0.0250011
-0.0198799
0.0132691
-0.0117592
0.0117405
-0.0163848
0.0222598
-0.0307842
0.0342128
-0.0355759
0.030568
-0.0264428
0.0186406
-0.0146479
0.00772186
-0.00373756
0.301976
0.301976
1
1.06481
1.12191
1.03551
1.07338
0.952829
0.995787
0.901845
0.923718
0.884689
0.852062
0.886449
0.83777
0.80354
0.910608
0.794868
0.820045
0.87001
0.868473
0.835742
0.898962
0.845563
0.882106
0.941729
1.01356
0.966455
1.00258
1.00636
1.01712
0.927247
0.902433
0.823633
0.750662
0.554784
0.394664
0.207261
0.129135
0.0390529
0.0372264
-0.0055402
0.0176902
-0.0133679
0.0148016
-0.0143567
0.0144863
-0.0144507
0.01446
-0.0144577
0.0144582
-0.0144581
0.0144581
-0.0144581
0.0144581
-0.0144581
0.0144581
-0.0144581
0.0144581
-0.0144582
0.0144579
-0.0144588
0.0144558
-0.0144647
0.0144425
-0.0144883
0.0144142
-0.014499
0.0144474
-0.0144499
0.0143859
-0.0146925
0.0142753
-0.0141889
0.0148527
-0.0150671
0.0133634
-0.0135719
0.0158857
-0.0167233
0.0132318
-0.0105443
0.0121939
-0.0190933
0.0209365
-0.0164915
0.00951482
-0.00746033
0.0067081
-0.0100963
0.014895
-0.0236276
0.028645
-0.0321919
0.0291101
-0.0262649
0.0191141
-0.0152649
0.00829692
-0.00672877
-0.298917
-0.298917
1
1.06131
1.12539
1.05349
1.08833
0.985036
1.01377
0.935736
0.941855
0.919216
0.866215
0.914635
0.862026
0.817115
0.92349
0.828706
0.819194
0.88018
0.877801
0.84971
0.897019
0.853874
0.866427
0.932826
1.00103
0.970631
0.990718
1.00674
1.01101
0.93517
0.895236
0.827807
0.747446
0.569095
0.398946
0.221901
0.128925
0.0482558
0.0328535
0.00113059
0.0120077
-0.00729736
0.00887149
-0.00837951
0.0085239
-0.008484
0.00849442
-0.00849184
0.00849245
-0.00849231
0.00849234
-0.00849234
0.00849234
-0.00849234
0.00849234
-0.00849234
0.00849232
-0.00849239
0.00849212
-0.00849312
0.00848982
-0.00849934
0.00847596
-0.00852326
0.00844862
-0.00853068
0.00848478
-0.00848677
0.00840785
-0.00873161
0.0083396
-0.00818889
0.00883113
-0.00919646
0.00750367
-0.00742426
0.00968735
-0.010955
0.00778307
-0.00468951
0.00540502
-0.0122659
0.0153273
-0.0117298
0.00448873
-0.00194852
0.000667582
-0.00292225
0.00636198
-0.01469
0.0207742
-0.0263358
0.0253839
-0.0242151
0.0181842
-0.014903
0.00828583
-0.00415512
0.301971
0.301971
1
1.05803
1.12354
1.06801
1.09585
1.01182
1.02561
0.964131
0.952989
0.949855
0.873881
0.9365
0.881799
0.827218
0.926792
0.859763
0.815205
0.884718
0.880158
0.861415
0.890978
0.860686
0.847911
0.921707
0.983747
0.973684
0.977054
1.0072
1.00308
0.944102
0.887518
0.833043
0.742632
0.583717
0.401784
0.237461
0.127735
0.0585696
0.0275122
0.00886749
0.00531236
-0.00018899
0.00191403
-0.001371
0.00153148
-0.00148684
0.00149857
-0.00149566
0.00149634
-0.00149619
0.00149622
-0.00149622
0.00149622
-0.00149622
0.00149622
-0.00149622
0.0014962
-0.00149628
0.00149598
-0.00149708
0.00149349
-0.00150368
0.00147907
-0.00152785
0.00145293
-0.00153195
0.00149155
-0.00149411
0.0013995
-0.00173774
0.00137575
-0.00116442
0.00177115
-0.00228321
0.000633417
-0.000272614
0.00243099
-0.00409227
0.00130715
0.00206807
-0.00231669
-0.00427667
0.00847502
-0.00588865
-0.00150867
0.00451289
-0.00613235
0.00478324
-0.00282563
-0.00454413
0.0110669
-0.0182772
0.0194685
-0.0202496
0.0157507
-0.0134608
0.00756331
-0.00650472
-0.299061
-0.299061
1
1.05519
1.1176
1.07937
1.09758
1.03326
1.03231
0.987801
0.957655
0.977019
0.876659
0.951978
0.897999
0.835101
0.921725
0.887696
0.809943
0.884809
0.876661
0.871044
0.882358
0.866555
0.828134
0.908978
0.962921
0.975447
0.96238
1.00753
0.993913
0.953527
0.879769
0.838932
0.736796
0.598192
0.403649
0.253433
0.126034
0.0695035
0.0216855
0.0171864
-0.0019111
0.00747333
-0.00558649
0.00618473
-0.0060067
0.00605655
-0.00604337
0.00604667
-0.00604588
0.00604606
-0.00604602
0.00604603
-0.00604603
0.00604603
-0.00604603
0.00604602
-0.00604604
0.00604596
-0.00604629
0.00604509
-0.00604898
0.00603809
-0.00606393
0.00601377
-0.0060887
0.00601301
-0.00604818
0.00604389
-0.00615472
0.00580498
-0.00613264
0.00639976
-0.00584167
0.0051903
-0.0067664
0.00739539
-0.00539157
0.00338238
-0.00572995
0.00925411
-0.0104598
0.00435869
0.000852149
0.000571362
-0.00800164
0.0114837
-0.0132962
0.0125535
-0.0120287
0.00605015
0.000241811
-0.00856414
0.0117031
-0.0145382
0.0118733
-0.0109453
0.00616113
-0.00322045
0.301659
0.301659
1
1.05279
1.10881
1.08765
1.09514
1.04955
1.03474
1.00753
0.956607
1.00074
0.876404
0.96096
0.911379
0.841824
0.909785
0.911838
0.805057
0.881466
0.868516
0.878397
0.872501
0.871648
0.808529
0.894884
0.939686
0.975434
0.947418
1.00726
0.984194
0.962756
0.872577
0.844911
0.730636
0.611932
0.405149
0.269177
0.124427
0.0804335
0.0159889
0.02547
-0.0090451
0.0150727
-0.0130127
0.0136705
-0.0134734
0.013529
-0.0135142
0.0135179
-0.013517
0.0135172
-0.0135172
0.0135172
-0.0135172
0.0135172
-0.0135172
0.0135172
-0.0135172
0.0135171
-0.0135175
0.0135161
-0.0135204
0.0135088
-0.0135358
0.0134844
-0.0135591
0.0134869
-0.0135172
0.01351
-0.0136374
0.0132794
-0.013569
0.0138859
-0.0133886
0.0126083
-0.0140821
0.0149601
-0.0131551
0.010851
-0.0127282
0.016266
-0.018384
0.0129871
-0.006931
0.0070582
-0.0143745
0.0183742
-0.0203034
0.0198406
-0.020535
0.0162098
-0.0107846
0.0020069
0.0026813
-0.00747566
0.00678976
-0.0074904
0.00410088
-0.00486544
-0.299556
-0.299556
1
1.05069
1.09839
1.09281
1.09001
1.06102
1.03362
1.02404
0.950856
1.02065
0.875081
0.963397
0.922485
0.848201
0.892711
0.931293
0.801901
0.875531
0.856999
0.882999
0.86254
0.875837
0.790382
0.879431
0.915128
0.972985
0.93284
1.00578
0.974623
0.971018
0.866583
0.850331
0.724919
0.624281
0.406968
0.283982
0.123589
0.0906619
0.011111
0.0330276
-0.0153987
0.0219187
-0.0196738
0.0203959
-0.020178
0.0202398
-0.0202233
0.0202275
-0.0202265
0.0202267
-0.0202266
0.0202267
-0.0202267
0.0202267
-0.0202267
0.0202266
-0.0202267
0.0202266
-0.020227
0.0202255
-0.0202301
0.0202178
-0.020246
0.0201935
-0.0202676
0.0201992
-0.020225
0.0202139
-0.0203577
0.0199948
-0.0202434
0.0206033
-0.0201774
0.0192813
-0.0206268
0.0217293
-0.0201611
0.0176199
-0.0190124
0.0224318
-0.0253806
0.0208784
-0.0141853
0.0129092
-0.0199344
0.0245018
-0.0265545
0.0260661
-0.0276305
0.0250187
-0.0209878
0.0124625
-0.00679312
0.000339755
0.000908518
-0.00335686
0.00157751
-0.0009671
0.30099
0.30099
1
1.04864
1.08746
1.09482
1.0834
1.06815
1.02956
1.03786
0.941674
1.03609
0.874593
0.959419
0.931617
0.854773
0.872404
0.945086
0.801444
0.867703
0.843409
0.884235
0.853356
0.878805
0.774797
0.86251
0.890265
0.967402
0.919236
1.00241
0.965877
0.977548
0.862405
0.854537
0.720395
0.634593
0.409787
0.297143
0.12419
0.0994971
0.00773403
0.0391745
-0.0202874
0.0273273
-0.0248853
0.0256765
-0.0254361
0.0255048
-0.0254863
0.025491
-0.0254899
0.0254901
-0.0254901
0.0254901
-0.0254901
0.0254901
-0.0254901
0.0254901
-0.0254901
0.02549
-0.0254904
0.0254889
-0.0254937
0.0254807
-0.0255101
0.0254566
-0.0255299
0.0254655
-0.0254873
0.0254711
-0.0256311
0.0252668
-0.0254721
0.0258672
-0.025522
0.0245256
-0.0257202
0.0270183
-0.0257175
0.0229996
-0.0239114
0.0270893
-0.030753
0.0273058
-0.0202214
0.0174711
-0.023995
0.029169
-0.0314382
0.0306867
-0.0326827
0.0316342
-0.0293519
0.0217576
-0.0157877
0.00816128
-0.00522408
0.00108552
-0.00123057
-0.00216532
-0.300367
-0.300367
1
1.04636
1.07696
1.0937
1.07624
1.07159
1.02304
1.04931
0.930552
1.04618
0.876584
0.949438
0.938819
0.861813
0.850828
0.952323
0.804215
0.858578
0.828999
0.881498
0.845547
0.880162
0.762645
0.844024
0.865985
0.958081
0.907059
0.996557
0.958522
0.98168
0.860554
0.856962
0.717714
0.642323
0.414193
0.308055
0.126804
0.106343
0.00644418
0.0433213
-0.0231218
0.0307097
-0.0280582
0.0289235
-0.0286588
0.0287349
-0.0287142
0.0287196
-0.0287183
0.0287186
-0.0287185
0.0287185
-0.0287185
0.0287185
-0.0287185
0.0287185
-0.0287185
0.0287184
-0.0287189
0.0287172
-0.0287224
0.0287086
-0.0287391
0.0286848
-0.028757
0.0286967
-0.028715
0.0286927
-0.0288685
0.0285064
-0.0286668
0.0290889
-0.0288317
0.0277524
-0.028777
0.0302384
-0.0292281
0.0263943
-0.0268465
0.0296741
-0.0339071
0.0316362
-0.0244375
0.0201891
-0.0259708
0.0317555
-0.0344096
0.0332644
-0.0352245
0.0353968
-0.0349978
0.0289027