# vtk DataFile Version 2.0
FlowField
ASCII
DATASET STRUCTURED_GRID
DIMENSIONS 100 1 100
POINTS 10000 float
0 0 0
0.01 0 0
0.02 0 0
0.03 0 0
0.04 0 0
0.05 0 0
0.06 0 0
0.07 0 0
0.08 0 0
0.09 0 0
0.1 0 0
0.11 0 0
0.12 0 0
0.13 0 0
0.14 0 0
0.15 0 0
0.16 0 0
0.17 0 0
0.18 0 0
0.19 0 0
0.2 0 0
0.21 0 0
0.22 0 0
0.23 0 0
0.24 0 0
0.25 0 0
0.26 0 0
0.27 0 0
0.28 0 0
0.29 0 0
0.3 0 0
0.31 0 0
0.32 0 0
0.33 0 0
0.34 0 0
0.35 0 0
0.36 0 0
0.37 0 0
0.38 0 0
0.39 0 0
0.4 0 0
0.41 0 0
0.42 0 0
0.43 0 0
0.44 0 0
0.45 0 0
0.46 0 0
0.47 0 0
0.48 0 0
0.49 0 0
0.5 0 0
0.51 0 0
0.52 0 0
0.53 0 0
0.54 0 0
0.55 0 0
0.56 0 0
0.57 0 0
0.58 0 0
0.59 0 0
0.6 0 0
0.61 0 0
0.62 0 0
0.63 0 0
0.64 0 0
0.65 0 0
0.66 0 0
0.67 0 0
0.68 0 0
0.69 0 0
0.7 0 0
0.71 0 0
0.72 0 0
0.73 0 0
0.74 0 0
0.75 0 0
0.76 0 0
0.77 0 0
0.78 0 0
0.79 0 0
0.8 0 0
0.81 0 0
0.82 0 0
0.83 0 0
0.84 0 0
0.85 0 0
0.86 0 0
0.87 0 0
0.88 0 0
0.89 0 0
0.9 0 0
0.91 0 0
0.92 0 0
0.93 0 0
0.94 0 0
0.95 0 0
0.96 0 0
0.97 0 0
0.98 0 0
0.99 0 0
0 0.001 0
0.01 0.001 0
0.02 0.001 0
0.03 0.001 0
0.04 0.001 0
0.05 0.001 0
0.06 0.001 0
0.07 0.001 0
0.08 0.001 0
0.09 0.001 0
0.1 0.001 0
0.11 0.001 0
0.12 0.001 0
0.13 0.001 0
0.14 0.001 0
0.15 0.001 0
0.16 0.001 0
0.17 0.001 0
0.18 0.001 0
0.19 0.001 0
0.2 0.001 0
0.21 0.001 0
0.22 0.001 0
0.23 0.001 0
0.24 0.001 0
0.25 0.001 0
0.26 0.001 0
0.27 0.001 0
0.28 0.001 0
0.29 0.001 0
0.3 0.001 0
0.31 0.001 0
0.32 0.001 0
0.33 0.001 0
0.34 0.001 0
0.35 0.001 0
0.36 0.001 0
0.37 0.001 0
0.38 0.001 0
0.39 0.001 0
0.4 0.001 0
0.41 0.001 0
0.42 0.001 0
0.43 0.001 0
0.44 0.001 0
0.45 0.001 0
0.46 0.001 0
0.47 0.001 0
0.48 0.001 0
0.49 0.001 0
0.5 0.001 0
0.51 0.001 0
0.52 0.001 0
0.53 0.001 0
0.54 0.001 0
0.55 0.001 0
0.56 0.001 0
0.57 0.001 0
0.58 0.001 0
0.59 0.001 0
0.6 0.001 0
0.61 0.001 0
0.62 0.001 0
0.63 0.001 0
0.64 0.001 0
0.65 0.001 0
0.66 0.001 0
0.67 0.001 0
0.68 0.001 0
0.69 0.001 0
0.7 0.001 0
0.71 0.001 0
0.72 0.001 0
0.73 0.001 0
0.74 0.001 0
0.75 0.001 0
0.76 0.001 0
0.77 0.001 0
0.78 0.001 0
0.79 0.001 0
0.8 0.001 0
0.81 0.001 0
0.82 0.001 0
0.83 0.001 0
0.84 0.001 0
0.85 0.001 0
0.86 0.001 0
0.87 0.001 0
0.88 0.001 0
0.89 0.001 0
0.9 0.001 0
0.91 0.001 0
0.92 0.001 0
0.93 0.001 0
0.94 0.001 0
0.95 0.001 0
0.96 0.001 0
0.97 0.001 0
0.98 0.001 0
0.99 0.001 0
0 0.002 0
0.01 0.002 0
0.02 0.002 0
0.03 0.002 0
0.04 0.002 0
0.05 0.002 0
0.06 0.002 0
0.07 0.002 0
0.08 0.002 0
0.09 0.002 0
0.1 0.002 0
0.11 0.002 0
0.12 0.002 0
0.13 0.002 0
0.14 0.002 0
0.15 0.002 0
0.16 0.002 0
0.17 0.002 0
0.18 0.002 0
0.19 0.002 0
0.2 0.002 0
0.21 0.002 0
0.22 0.002 0
0.23 0.002 0
0.24 0.002 0
0.25 0.002 0
0.26 0.002 0
0.27 0.002 0
0.28 0.002 0
0.29 0.002 0
0.3 0.002 0
0.31 0.002 0
0.32 0.002 0
0.33 0.002 0
0.34 0.002 0
0.35 0.002 0
0.36 0.002 0
0.37 0.002 0
0.38 0.002 0
0.39 0.002 0
0.4 0.002 0
0.41 0.002 0
0.42 0.002 0
0.43 0.002 0
0.44 0.002 0
0.45 0.002 0
0.46 0.002 0
0.47 0.002 0
0.48 0.002 0
0.49 0.002 0
0.5 0.002 0
0.51 0.002 0
0.52 0.002 0
0.53 0.002 0
0.54 0.002 0
0.55 0.002 0
0.56 0.002 0
0.57 0.002 0
0.58 0.002 0
0.59 0.002 0
0.6 0.002 0
0.61 0.002 0
0.62 0.002 0
0.63 0.002 0
0.64 0.002 0
0.65 0.002 0
0.66 0.002 0
0.67 0.002 0
0.68 0.002 0
0.69 0.002 0
0.7 0.002 0
0.71 0.002 0
0.72 0.002 0
0.73 0.002 0
0.74 0.002 0
0.75 0.002 0
0.76 0.002 0
0.77 0.002 0
0.78 0.002 0
0.79 0.002 0
0.8 0.002 0
0.81 0.002 0
0.82 0.002 0
0.83 0.002 0
0.84 0.002 0
0.85 0.002 0
0.86 0.002 0
0.87 0.002 0
0.88 0.002 0
0.89 0.002 0
0.9 0.002 0
0.91 0.002 0
0.92 0.002 0
0.93 0.002 0
0.94 0.002 0
0.95 0.002 0
0.96 0.002 0
0.97 0.002 0
0.98 0.002 0
0.99 0.002 0
0 0.003 0
0.01 0.003 0
0.02 0.003 0
0.03 0.003 0
0.04 0.003 0
0.05 0.003 0
0.06 0.003 0
0.07 0.003 0
0.08 0.003 0
0.09 0.003 0
0.1 0.003 0
0.11 0.003 0
0.12 0.003 0
0.13 0.003 0
0.14 0.003 0
0.15 0.003 0
0.16 0.003 0
0.17 0.003 0
0.18 0.003 0
0.19 0.003 0
0.2 0.003 0
0.21 0.003 0
0.22 0.003 0
0.23 0.003 0
0.24 0.003 0
0.25 0.003 0
0.26 0.003 0
0.27 0.003 0
0.28 0.003 0
0.29 0.003 0
0.3 0.003 0
0.31 0.003 0
0.32 0.003 0
0.33 0.003 0
0.34 0.003 0
0.35 0.003 0
0.36 0.003 0
0.37 0.003 0
0.38 0.003 0
0.39 0.003 0
0.4 0.003 0
0.41 0.003 0
0.42 0.003 0
0.43 0.003 0
0.44 0.003 0
0.45 0.003 0
0.46 0.003 0
0.47 0.003 0
0.48 0.003 0
0.49 0.003 0
0.5 0.003 0
0.51 0.003 0
0.52 0.003 0
0.53 0.003 0
0.54 0.003 0
0.55 0.003 0
0.56 0.003 0
0.57 0.003 0
0.58 0.003 0
0.59 0.003 0
0.6 0.003 0
0.61 0.003 0
0.62 0.003 0
0.63 0.003 0
0.64 0.003 0
0.65 0.003 0
0.66 0.003 0
0.67 0.003 0
0.68 0.003 0
0.69 0.003 0
0.7 0.003 0
0.71 0.003 0
0.72 0.003 0
0.73 0.003 0
0.74 0.003 0
0.75 0.003 0
0.76 0.003 0
0.77 0.003 0
0.78 0.003 0
0.79 0.003 0
0.8 0.003 0
0.81 0.003 0
0.82 0.003 0
0.83 0.003 0
0.84 0.003 0
0.85 0.003 0
0.86 0.003 0
0.87 0.003 0
0.88 0.003 0
0.89 0.003 0
0.9 0.003 0
0.91 0.003 0
0.92 0.003 0
0.93 0.003 0
0.94 0.003 0
0.95 0.003 0
0.96 0.003 0
0.97 0.003 0
0.98 0.003 0
0.99 0.003 0
0 0.004 0
0.01 0.004 0
0.02 0.004 0
0.03 0.004 0
0.04 0.004 0
0.05 0.004 0
0.06 0.004 0
0.07 0.004 0
0.08 0.004 0
0.09 0.004 0
0.1 0.004 0
0.11 0.004 0
0.12 0.004 0
0.13 0.004 0
0.14 0.004 0
0.15 0.004 0
0.16 0.004 0
0.17 0.004 0
0.18 0.004 0
0.19 0.004 0
0.2 0.004 0
0.21 0.004 0
0.22 0.004 0
0.23 0.004 0
0.24 0.004 0
0.25 0.004 0
0.26 0.004 0
0.27 0.004 0
0.28 0.004 0
0.29 0.004 0
0.3 0.004 0
0.31 0.004 0
0.32 0.004 0
0.33 0.004 0
0.34 0.004 0
0.35 0.004 0
0.36 0.004 0
0.37 0.004 0
0.38 0.004 0
0.39 0.004 0
0.4 0.004 0
0.41 0.004 0
0.42 0.004 0
0.43 0.004 0
0.44 0.004 0
0.45 0.004 0
0.46 0.004 0
0.47 0.004 0
0.48 0.004 0
0.49 0.004 0
0.5 0.004 0
0.51 0.004 0
0.52 0.004 0
0.53 0.004 0
0.54 0.004 0
0.55 0.004 0
0.56 0.004 0
0.57 0.004 0
0.58 0.004 0
0.59 0.004 0
0.6 0.004 0
0.61 0.004 0
0.62 0.004 0
0.63 0.004 0
0.64 0.004 0
0.65 0.004 0
0.66 0.004 0
0.67 0.004 0
0.68 0.004 0
0.69 0.004 0
0.7 0.004 0
0.71 0.004 0
0.72 0.004 0
0.73 0.004 0
0.74 0.004 0
0.75 0.004 0
0.76 0.004 0
0.77 0.004 0
0.78 0.004 0
0.79 0.004 0
0.8 0.004 0
0.81 0.004 0
0.82 0.004 0
0.83 0.004 0
0.84 0.004 0
0.85 0.004 0
0.86 0.004 0
0.87 0.004 0
0.88 0.004 0
0.89 0.004 0
0.9 0.004 0
0.91 0.004 0
0.92 0.004 0
0.93 0.004 0
0.94 0.004 0
0.95 0.004 0
0.96 0.004 0
0.97 0.004 0
0.98 0.004 0
0.99 0.004 0
0 0.005 0
0.01 0.005 0
0.02 0.005 0
0.03 0.005 0
0.04 0.005 0
0.05 0.005 0
0.06 0.005 0
0.07 0.005 0
0.08 0.005 0
0.09 0.005 0
0.1 0.005 0
0.11 0.005 0
0.12 0.005 0
0.13 0.005 0
0.14 0.005 0
0.15 0.005 0
0.16 0.005 0
0.17 0.005 0
0.18 0.005 0
0.19 0.005 0
0.2 0.005 0
0.21 0.005 0
0.22 0.005 0
0.23 0.005 0
0.24 0.005 0
0.25 0.005 0
0.26 0.005 0
0.27 0.005 0
0.28 0.005 0
0.29 0.005 0
0.3 0.005 0
0.31 0.005 0
0.32 0.005 0
0.33 0.005 0
0.34 0.005 0
0.35 0.005 0
0.36 0.005 0
0.37 0.005 0
0.38 0.005 0
0.39 0.005 0
0.4 0.005 0
0.41 0.005 0
0.42 0.005 0
0.43 0.005 0
0.44 0.005 0
0.45 0.005 0
0.46 0.005 0
0.47 0.005 0
0.48 0.005 0
0.49 0.005 0
0.5 0.005 0
0.51 0.005 0
0.52 0.005 0
0.53 0.005 0
0.54 0.005 0
0.55 0.005 0
0.56 0.005 0
0.57 0.005 0
0.58 0.005 0
0.59 0.005 0
0.6 0.005 0
0.61 0.005 0
0.62 0.005 0
0.63 0.005 0
0.64 0.005 0
0.65 0.005 0
0.66 0.005 0
0.67 0.005 0
0.68 0.005 0
0.69 0.005 0
0.7 0.005 0
0.71 0.005 0
0.72 0.005 0
0.73 0.005 0
0.74 0.005 0
0.75 0.005 0
0.76 0.005 0
0.77 0.005 0
0.78 0.005 0
0.79 0.005 0
0.8 0.005 0
0.81 0.005 0
0.82 0.005 0
0.83 0.005 0
0.84 0.005 0
0.85 0.005 0
0.86 0.005 0
0.87 0.005 0
0.88 0.005 0
0.89 0.005 0
0.9 0.005 0
0.91 0.005 0
0.92 0.005 0
0.93 0.005 0
0.94 0.005 0
0.95 0.005 0
0.96 0.005 0
0.97 0.005 0
0.98 0.005 0
0.99 0.005 0
0 0.006 0
0.01 0.006 0
0.02 0.006 0
0.03 0.006 0
0.04 0.006 0
0.05 0.006 0
0.06 0.006 0
0.07 0.006 0
0.08 0.006 0
0.09 0.006 0
0.1 0.006 0
0.11 0.006 0
0.12 0.006 0
0.13 0.006 0
0.14 0.006 0
0.15 0.006 0
0.16 0.006 0
0.17 0.006 0
0.18 0.006 0
0.19 0.006 0
0.2 0.006 0
0.21 0.006 0
0.22 0.006 0
0.23 0.006 0
0.24 0.006 0
0.25 0.006 0
0.26 0.006 0
0.27 0.006 0
0.28 0.006 0
0.29 0.006 0
0.3 0.006 0
0.31 0.006 0
0.32 0.006 0
0.33 0.006 0
0.34 0.006 0
0.35 0.006 0
0.36 0.006 0
0.37 0.006 0
0.38 0.006 0
0.39 0.006 0
0.4 0.006 0
0.41 0.006 0
0.42 0.006 0
0.43 0.006 0
0.44 0.006 0
0.45 0.006 0
0.46 0.006 0
0.47 0.006 0
0.48 0.006 0
0.49 0.006 0
0.5 0.006 0
0.51 0.006 0
0.52 0.006 0
0.53 0.006 0
0.54 0.006 0
0.55 0.006 0
0.56 0.006 0
0.57 0.006 0
0.58 0.006 0
0.59 0.006 0
0.6 0.006 0
0.61 0.006 0
0.62 0.006 0
0.63 0.006 0
0.64 0.006 0
0.65 0.006 0
0.66 0.006 0
0.67 0.006 0
0.68 0.006 0
0.69 0.006 0
0.7 0.006 0
0.71 0.006 0
0.72 0.006 0
0.73 0.006 0
0.74 0.006 0
0.75 0.006 0
0.76 0.006 0
0.77 0.006 0
0.78 0.006 0
0.79 0.006 0
0.8 0.006 0
0.81 0.006 0
0.82 0.006 0
0.83 0.006 0
0.84 0.006 0
0.85 0.006 0
0.86 0.006 0
0.87 0.006 0
0.88 0.006 0
0.89 0.006 0
0.9 0.006 0
0.91 0.006 0
0.92 0.006 0
0.93 0.006 0
0.94 0.006 0
0.95 0.006 0
0.96 0.006 0
0.97 0.006 0
0.98 0.006 0
0.99 0.006 0
0 0.007 0
0.01 0.007 0
0.02 0.007 0
0.03 0.007 0
0.04 0.007 0
0.05 0.007 0
0.06 0.007 0
0.07 0.007 0
0.08 0.007 0
0.09 0.007 0
0.1 0.007 0
0.11 0.007 0
0.12 0.007 0
0.13 0.007 0
0.14 0.007 0
0.15 0.007 0
0.16 0.007 0
0.17 0.007 0
0.18 0.007 0
0.19 0.007 0
0.2 0.007 0
0.21 0.007 0
0.22 0.007 0
0.23 0.007 0
0.24 0.007 0
0.25 0.007 0
0.26 0.007 0
0.27 0.007 0
0.28 0.007 0
0.29 0.007 0
0.3 0.007 0
0.31 0.007 0
0.32 0.007 0
0.33 0.007 0
0.34 0.007 0
0.35 0.007 0
0.36 0.007 0
0.37 0.007 0
0.38 0.007 0
0.39 0.007 0
0.4 0.007 0
0.41 0.007 0
0.42 0.007 0
0.43 0.007 0
0.44 0.007 0
0.45 0.007 0
0.46 0.007 0
0.47 0.007 0
0.48 0.007 0
0.49 0.007 0
0.5 0.007 0
0.51 0.007 0
0.52 0.007 0
0.53 0.007 0
0.54 0.007 0
0.55 0.007 0
0.56 0.007 0
0.57 0.007 0
0.58 0.007 0
0.59 0.007 0
0.6 0.007 0
0.61 0.007 0
0.62 0.007 0
0.63 0.007 0
0.64 0.007 0
0.65 0.007 0
0.66 0.007 0
0.67 0.007 0
0.68 0.007 0
0.69 0.007 0
0.7 0.007 0
0.71 0.007 0
0.72 0.007 0
0.73 0.007 0
0.74 0.007 0
0.75 0.007 0
0.76 0.007 0
0.77 0.007 0
0.78 0.007 0
0.79 0.007 0
0.8 0.007 0
0.81 0.007 0
0.82 0.007 0
0.83 0.007 0
0.84 0.007 0
0.85 0.007 0
0.86 0.007 0
0.87 0.007 0
0.88 0.007 0
0.89 0.007 0
0.9 0.007 0
0.91 0.007 0
0.92 0.007 0
0.93 0.007 0
0.94 0.007 0
0.95 0.007 0
0.96 0.007 0
0.97 0.007 0
0.98 0.007 0
[...]
POINT_DATA 10000

SCALARS vel_X float 1
LOOKUP_TABLE default
0
0
0
0
0
0
0
0
0
0
0
0
0
0
0
0
0
0
0
0
0
0
0
0
0
0
0
0
0
0
0
0
0
0
0
0
0
0
0
0
0
0
0
0
0
0
0
0
0
0
0
0
0
0
0
0
0
0
0
0
0
0
0
0
0
0
0
0
0
0
0
0
0
0
0
0
0
0
0
0
0
0
0
0
0
0
0
0
0
0
0
0
0
0
0
0
0
0
0
0
1
0.334732
0.209182
0.196808
0.166459
0.17004
0.186688
0.153192
0.197755
0.196748
0.178088
0.225668
0.255361
0.236098
0.281675
0.359135
0.366315
0.272319
0.160014
0.0733673
0.0311723
0.0089279
0.00453272
-0.000518114
0.00159372
-0.00133249
0.00139043
-0.00137861
0.00138084
-0.00138045
0.00138051
-0.0013805
0.00138051
-0.00138051
0.00138051
-0.00138051
0.00138051
-0.00138051
0.00138051
-0.00138051
0.00138051
-0.00138051
0.00138051
-0.00138051
0.00138051
-0.00138051
0.00138051
-0.00138051
0.00138051
-0.00138051
0.00138051
-0.00138051
0.00138051
-0.00138051
0.00138051
-0.00138051
0.00138051
-0.00138051
0.00138051
-0.00138051
0.00138051
-0.00138051
0.00138051
-0.00138051
0.00138051
-0.00138051
0.00138051
-0.00138051
0.00138051
-0.00138051
0.00138051
-0.00138051
0.00138051
-0.00138051
0.00138049
-0.00138061
0.00137995
-0.0013829
0.00137226
-0.00140202
0.00134269
-0.00141023
0.00141089
-0.00132548
0.00123456
-0.0017037
0.00160951
-0.000779475
0.000602617
-0.00192078
0.00293845
-0.00263742
0.000995873
0.000356509
-0.00139161
0.00124404
-0.00153662
-0.00194509
-0.142438
-0.142438
1
0.583213
0.402477
0.374501
0.327362
0.335289
0.352313
0.314395
0.376786
0.375063
0.358791
0.431502
0.470359
0.453163
0.523772
0.619153
0.593636
0.42761
0.244762
0.11182
0.0460544
0.014027
0.00603056
-7.13989e-05
0.00166373
-0.00127771
0.00136323
-0.0013458
0.00134909
-0.00134851
0.0013486
-0.00134859
0.00134859
-0.00134859
0.00134859
-0.00134859
0.00134859
-0.00134859
0.00134859
-0.00134859
0.00134859
-0.00134859
0.00134859
-0.00134859
0.00134859
-0.00134859
0.00134859
-0.00134859
0.00134859
-0.00134859
0.00134859
-0.00134859
0.00134859
-0.00134859
0.00134859
-0.00134859
0.00134859
-0.00134859
0.00134859
-0.00134859
0.00134859
-0.00134859
0.00134859
-0.00134859
0.00134859
-0.00134859
0.00134859
-0.00134859
0.00134859
-0.00134859
0.00134859
-0.00134859
0.00134859
-0.0013486
0.00134857
-0.00134875
0.00134777
-0.00135214
0.00133629
-0.00138106
0.00128985
-0.00140056
0.00138064
-0.00127105
0.00115222
-0.00183086
0.00159201
-0.000487186
0.000379801
-0.00224342
0.00339999
-0.00283485
0.000552472
0.00104218
-0.0023205
0.00182324
-0.00227447
-9.76185e-05
0.192227
0.192227
1
0.761799
0.573963
0.531684
0.481481
0.48434
0.504756
0.468272
0.533074
0.537246
0.526281
0.603188
0.649246
0.635518
0.704991
0.784564
0.725994
0.514914
0.293279
0.133807
0.0552976
0.0168182
0.00733609
-0.000130389
0.00206469
-0.00159344
0.00169838
-0.00167688
0.00168095
-0.00168024
0.00168035
-0.00168034
0.00168034
-0.00168034
0.00168034
-0.00168034
0.00168034
-0.00168034
0.00168034
-0.00168034
0.00168034
-0.00168034
0.00168034
-0.00168034
0.00168034
-0.00168034
0.00168034
-0.00168034
0.00168034
-0.00168034
0.00168034
-0.00168034
0.00168034
-0.00168034
0.00168034
-0.00168034
0.00168034
-0.00168034
0.00168034
-0.00168034
0.00168034
-0.00168034
0.00168034
-0.00168034
0.00168034
-0.00168034
0.00168034
-0.00168034
0.00168034
-0.00168034
0.00168034
-0.00168034
0.00168034
-0.00168034
0.00168031
-0.00168053
0.00167933
-0.00168463
0.00166562
-0.0017189
0.00161075
-0.00174378
0.00170845
-0.00160613
0.00145159
-0.00221205
0.00193061
-0.000803455
0.000639477
-0.00257089
0.00372553
-0.00329207
0.000985001
0.000522286
-0.00199857
0.00143537
-0.00221675
-0.00132148
-0.16746
-0.16746
1
0.887068
0.71967
0.66905
0.623066
0.615282
0.643149
0.606001
0.666993
0.679863
0.670025
0.739198
0.791951
0.775005
0.826169
0.879206
0.800099
0.565745
0.324946
0.148585
0.0627101
0.0185385
0.00890703
-0.000648959
0.00288482
-0.00233547
0.00245882
-0.00243334
0.00243821
-0.00243734
0.00243749
-0.00243747
0.00243747
-0.00243747
0.00243747
-0.00243747
0.00243747
-0.00243747
0.00243747
-0.00243747
0.00243747
-0.00243747
0.00243747
-0.00243747
0.00243747
-0.00243747
0.00243747
-0.00243747
0.00243747
-0.00243747
0.00243747
-0.00243747
0.00243747
-0.00243747
0.00243747
-0.00243747
0.00243747
-0.00243747
0.00243747
-0.00243747
0.00243747
-0.00243747
0.00243747
-0.00243747
0.00243747
-0.00243747
0.00243747
-0.00243747
0.00243747
-0.00243747
0.00243747
-0.00243747
0.00243747
-0.00243747
0.00243743
-0.0024377
0.0024363
-0.00244239
0.00242091
-0.00247998
0.00236247
-0.00250415
0.0024642
-0.00237924
0.00217295
-0.00296495
0.00273343
-0.00165695
0.00129804
-0.00310865
0.00433667
-0.00428309
0.002176
-0.000759821
-0.00100098
0.000602359
-0.00175541
0.000355215
0.180593
0.180593
1
0.972699
0.838992
0.786595
0.747913
0.728495
0.764171
0.724462
0.77888
0.799334
0.786436
0.842251
0.898853
0.873128
0.899679
0.927935
0.84081
0.598012
0.348776
0.160573
0.0694691
0.0200234
0.0105462
-0.00124878
0.00379228
-0.00316107
0.00330417
-0.00327435
0.00328009
-0.00327906
0.00327924
-0.00327921
0.00327921
-0.00327921
0.00327921
-0.00327921
0.00327921
-0.00327921
0.00327921
-0.00327921
0.00327921
-0.00327921
0.00327921
-0.00327921
0.00327921
-0.00327921
0.00327921
-0.00327921
0.00327921
-0.00327921
0.00327921
-0.00327921
0.00327921
-0.00327921
0.00327921
-0.00327921
0.00327921
-0.00327921
0.00327921
-0.00327921
0.00327921
-0.00327921
0.00327921
-0.00327921
0.00327921
-0.00327921
0.00327921
-0.00327921
0.00327921
-0.00327921
0.00327921
-0.00327921
0.00327921
-0.00327922
0.00327917
-0.00327948
0.00327787
-0.00328474
0.00326101
-0.00332473
0.00320166
-0.00334397
0.00330805
-0.00324152
0.0029755
-0.00377884
0.00364792
-0.00263249
0.00201741
-0.00365367
0.00500781
-0.00540253
0.00355019
-0.00219747
0.000146482
-0.000294734
-0.00119225
-0.00112886
-0.172901
-0.172901
1
1.02929
0.933528
0.884158
0.854217
0.824344
0.865642
0.823389
0.869077
0.894469
0.876487
0.91645
0.97326
0.937422
0.940415
0.949707
0.86314
0.620995
0.368807
0.171695
0.075934
0.021684
0.012076
-0.00168787
0.0045615
-0.00384077
0.00400583
-0.00397109
0.00397785
-0.00397663
0.00397683
-0.0039768
0.0039768
-0.0039768
0.0039768
-0.0039768
0.0039768
-0.0039768
0.0039768
-0.0039768
0.0039768
-0.0039768
0.0039768
-0.0039768
0.0039768
-0.0039768
0.0039768
-0.0039768
0.0039768
-0.0039768
0.0039768
-0.0039768
0.0039768
-0.0039768
0.0039768
-0.0039768
0.0039768
-0.0039768
0.0039768
-0.0039768
0.0039768
-0.0039768
0.0039768
-0.0039768
0.0039768
-0.0039768
0.0039768
-0.0039768
0.0039768
-0.0039768
0.0039768
-0.0039768
0.0039768
-0.00397681
0.00397675
-0.00397712
0.00397527
-0.00398296
0.003957
-0.00402487
0.00389828
-0.00403671
0.00400989
-0.00396097
0.00363485
-0.00443631
0.00442545
-0.00347501
0.00260337
-0.00404526
0.00551317
-0.00633231
0.00475705
-0.00348887
0.0012196
-0.00111859
-0.000605744
0.000365345
0.177996
0.177996
1
1.06486
1.00591
0.962211
0.941818
0.903269
0.94726
0.903727
0.93872
0.966541
0.943388
0.966679
1.02097
0.977206
0.960992
0.956895
0.875491
0.639164
0.386796
0.182691
0.0822385
0.0236637
0.0134348
-0.00188143
0.00511399
-0.00429444
0.00448407
-0.00444377
0.00445168
-0.00445024
0.00445048
-0.00445044
0.00445045
-0.00445045
0.00445045
-0.00445045
0.00445045
-0.00445045
0.00445045
-0.00445045
0.00445045
-0.00445045
0.00445045
-0.00445045
0.00445045
-0.00445045
0.00445045
-0.00445045
0.00445045
-0.00445045
0.00445045
-0.00445045
0.00445045
-0.00445045
0.00445045
-0.00445045
0.00445045
-0.00445045
0.00445045
-0.00445045
0.00445045
-0.00445045
0.00445045
-0.00445045
0.00445045
-0.00445045
0.00445045
-0.00445045
0.00445045
-0.00445045
0.00445045
-0.00445045
0.00445045
-0.00445046
0.00445038
-0.00445081
0.00444872
-0.00445727
0.00442905
-0.00450078
0.00437197
-0.00450389
0.00448835
-0.00445713
0.00407459
-0.0048607
0.0049728
-0.00409963
0.00300044
-0.00422659
0.00575613
-0.0069473
0.00567685
-0.0045475
0.00216106
-0.001845
-5.3595e-05
-0.00125833
-0.174199
-0.174199
1
1.08542
1.05915
1.02209
1.01151
0.966202
1.01016
0.967051
0.989964
1.01842
0.991184
0.99824
1.04864
1.00083
0.97033
0.956822
0.88231
0.654568
0.403473
0.193798
0.0884404
0.0259919
0.0146202
-0.00181818
0.00544143
-0.00451277
0.00472989
-0.00468329
0.00469252
-0.00469082
0.00469111
-0.00469107
0.00469107
-0.00469107
0.00469107
-0.00469107
0.00469107
-0.00469107
0.00469107
-0.00469107
0.00469107
-0.00469107
0.00469107
-0.00469107
0.00469107
-0.00469107
0.00469107
-0.00469107
0.00469107
-0.00469107
0.00469107
-0.00469107
0.00469107
-0.00469107
0.00469107
-0.00469107
0.00469107
-0.00469107
0.00469107
-0.00469107
0.00469107
-0.00469107
0.00469107
-0.00469107
0.00469107
-0.00469107
0.00469107
-0.00469107
0.00469107
-0.00469107
0.00469107
-0.00469107
0.00469107
-0.00469109
0.004691
-0.00469149
0.00468912
-0.00469859
0.00466809
-0.00474341
0.00461341
-0.00473717
0.00473325
-0.00472102
0.00428738
-0.00504397
0.00527402
-0.00449691
0.00320911
-0.00419554
0.00572242
-0.00722842
0.00629015
-0.00535882
0.00295499
-0.00246857
0.000471748
0.000143644
0.17729
0.17729
1
1.0954
1.09629
1.0658
1.06471
1.01466
1.05634
1.01538
1.0257
1.05368
1.024
1.0163
1.0624
1.01456
0.974008
0.953531
0.885879
0.668116
0.419112
0.205061
0.0945607
0.0286623
0.0156448
-0.00150702
0.00555458
-0.00450578
0.00475356
-0.00469984
0.00471059
-0.0047086
0.00470894
-0.00470888
0.00470889
-0.00470889
0.00470889
-0.00470889
0.00470889
-0.00470889
0.00470889
-0.00470889
0.00470889
-0.00470889
0.00470889
-0.00470889
0.00470889
-0.00470889
0.00470889
-0.00470889
0.00470889
-0.00470889
0.00470889
-0.00470889
0.00470889
-0.00470889
0.00470889
-0.00470889
0.00470889
-0.00470889
0.00470889
-0.00470889
0.00470889
-0.00470889
0.00470889
-0.00470889
0.00470889
-0.00470889
0.00470889
-0.00470889
0.00470889
-0.00470889
0.00470889
-0.00470889
0.00470889
-0.00470891
0.00470881
-0.00470937
0.00470671
-0.00471713
0.00468433
-0.00476299
0.00463271
-0.00474722
0.00475409
-0.00476296
0.00428414
-0.0049975
0.00533628
-0.00467551
0.00324021
-0.00396733
0.0054296
-0.00719153
0.006601
-0.00591629
0.00358318
-0.00297674
0.000923215
-0.00152826
-0.174632
-0.174632
1
1.09807
1.12028
1.09573
1.10323
1.05059
1.0882
1.05101
1.04908
1.07593
1.04563
1.02537
1.06712
1.02256
0.975197
0.949143
0.887372
0.680214
0.433802
0.216453
0.100604
0.0316576
0.0165243
-0.00096197
0.00546887
-0.00428822
0.00457008
-0.00450836
0.00452083
-0.00451849
0.0045189
-0.00451883
0.00451884
-0.00451884
0.00451884
-0.00451884
0.00451884
-0.00451884
0.00451884
-0.00451884
0.00451884
-0.00451884
0.00451884
-0.00451884
0.00451884
-0.00451884
0.00451884
-0.00451884
0.00451884
-0.00451884
0.00451884
-0.00451884
0.00451884
-0.00451884
0.00451884
-0.00451884
0.00451884
-0.00451884
0.00451884
-0.00451884
0.00451884
-0.00451884
0.00451884
-0.00451884
0.00451884
-0.00451884
0.00451884
-0.00451884
0.00451884
-0.00451884
0.00451884
-0.00451884
0.00451884
-0.00451886
0.00451874
-0.00451938
0.00451641
-0.00452783
0.00449273
-0.00457443
0.00444475
-0.00454922
0.00456544
-0.00459776
0.00408007
-0.00473789
0.00517325
-0.00464699
0.00310545
-0.00356307
0.00490598
-0.00686189
0.00661764
-0.00621311
0.00402545
-0.00335343
0.00130738
-0.000128459
0.176987
0.176987
1
1.09585
1.13383
1.11438
1.12915
1.07609
1.10829
1.07627
1.06316
1.08847
1.05926
1.02896
1.0663
1.02736
0.975544
0.944722
0.887433
0.691053
0.447567
0.227921
0.10657
0.0349525
0.0172789
-0.000202606
0.00520504
-0.0038802
0.00419979
-0.00412911
0.00414353
-0.0041408
0.00414128
-0.0041412
0.00414121
-0.00414121
0.00414121
-0.00414121
0.00414121
-0.00414121
0.00414121
-0.00414121
0.00414121
-0.00414121
0.00414121
-0.00414121
0.00414121
-0.00414121
0.00414121
-0.00414121
0.00414121
-0.00414121
0.00414121
-0.00414121
0.00414121
-0.00414121
0.00414121
-0.00414121
0.00414121
-0.00414121
0.00414121
-0.00414121
0.00414121
-0.00414121
0.00414121
-0.00414121
0.00414121
-0.00414121
0.00414121
-0.00414121
0.00414121
-0.00414121
0.00414121
-0.00414121
0.00414121
-0.00414123
0.0041411
-0.00414182
0.00413851
-0.00415098
0.00411359
-0.004198
0.00406978
-0.0041637
0.0041874
-0.0042454
0.00369552
-0.00428745
0.00480481
-0.00442724
0.00282041
-0.00300937
0.00418655
-0.00627153
0.00635535
-0.00624967
0.00426869
-0.00358732
0.00158397
-0.00176848
-0.174872
-0.174872
1
1.0905
1.13936
1.12419
1.14464
1.09326
1.11911
1.09336
1.07058
1.09407
1.06739
1.02958
1.06227
1.03032
0.975823
0.940774
0.88646
0.700734
0.460414
0.239394
0.112466
0.038513
0.0179355
0.000744197
0.00479097
-0.00330898
0.00367024
-0.00358954
0.00360615
-0.00360298
0.00360355
-0.00360345
0.00360347
-0.00360347
0.00360347
-0.00360347
0.00360347
-0.00360347
0.00360347
-0.00360347
0.00360347
-0.00360347
0.00360347
-0.00360347
0.00360347
-0.00360347
0.00360347
-0.00360347
0.00360347
-0.00360347
0.00360347
-0.00360347
0.00360347
-0.00360347
0.00360347
-0.00360347
0.00360347
-0.00360347
0.00360347
-0.00360347
0.00360347
-0.00360347
0.00360347
-0.00360347
0.00360347
-0.00360347
0.00360347
-0.00360347
0.00360347
-0.00360347
0.00360347
-0.00360347
0.00360346
-0.00360349
0.00360333
-0.00360415
0.00360048
-0.00361402
0.0035744
-0.00366116
0.00353521
-0.00361826
0.00364738
-0.00373287
0.00315788
-0.00367575
0.0042586
-0.00403918
0.00240723
-0.00233879
0.00331261
-0.00546084
0.00584053
-0.00603853
0.00431138
-0.0036749
0.00177234
-0.000310589
0.176781
0.176781
1
1.08336
1.13897
1.12738
1.15182
1.10399
1.12292
1.10421
1.07354
1.09492
1.07183
1.02888
1.0565
1.03217
0.976344
0.937519
0.884739
0.709325
0.472359
0.250795
0.118302
0.0422975
0.0185272
0.00184488
0.00426108
-0.00260838
0.00301546
-0.00292361
0.00294271
-0.00293903
0.00293969
-0.00293958
0.0029396
-0.0029396
0.0029396
-0.0029396
0.0029396
-0.0029396
0.0029396
-0.0029396
0.0029396
-0.0029396
0.0029396
-0.0029396
0.0029396
-0.0029396
0.0029396
-0.0029396
0.0029396
-0.0029396
0.0029396
-0.0029396
0.0029396
-0.0029396
0.0029396
-0.0029396
0.0029396
-0.0029396
0.0029396
-0.0029396
0.0029396
-0.0029396
0.0029396
-0.0029396
0.0029396
-0.0029396
0.0029396
-0.0029396
0.0029396
-0.0029396
0.0029396
-0.0029396
0.00293959
-0.00293962
0.00293944
-0.00294037
0.00293631
-0.00295095
0.00290915
-0.00299787
0.00287498
-0.00294706
0.00297938
-0.00309366
0.00250099
-0.00293882
0.0035693
-0.00351261
0.00189406
-0.00158841
0.00233048
-0.00447797
0.00511068
-0.00560447
0.00416365
-0.00362106
0.00184596
-0.00187906
-0.175059
-0.175059
1
1.07537
1.13438
1.12587
1.15264
1.10993
1.1217
1.11038
1.07369
1.09269
1.07381
1.02781
1.0499
1.03322
0.977186
0.93503
0.882499
0.716884
0.483424
0.262046
0.124091
0.0462594
0.0190907
0.00306147
0.00365396
-0.00181647
0.0022738
-0.00216958
0.00219146
-0.00218721
0.00218797
-0.00218784
0.00218786
-0.00218786
0.00218786
-0.00218786
0.00218786
-0.00218786
0.00218786
-0.00218786
0.00218786
-0.00218786
0.00218786
-0.00218786
0.00218786
-0.00218786
0.00218786
-0.00218786
0.00218786
-0.00218786
0.00218786
-0.00218786
0.00218786
-0.00218786
0.00218786
-0.00218786
0.00218786
-0.00218786
0.00218786
-0.00218786
0.00218786
-0.00218786
0.00218786
-0.00218786
0.00218786
-0.00218786
0.00218786
-0.00218786
0.00218786
-0.00218786
0.00218786
-0.00218786
0.00218786
-0.00218789
0.00218769
-0.00218872
0.00218427
-0.00220002
0.00215612
-0.00224639
0.00212731
-0.00218851
0.00222175
-0.0023655
0.0017628
-0.00211682
0.00277642
-0.00288219
0.00131293
-0.000797411
0.00128902
-0.00337622
0.00421169
-0.00498193
0.00384521
-0.00343736
0.00183623
-0.000342248
0.176602
0.176602
1
1.06721
1.12703
1.12126
1.1488
1.11241
1.1171
1.1131
1.07224
1.08855
1.07414
1.02687
1.04303
1.03364
0.978325
0.933304
0.879937
0.723467
0.493644
0.273069
0.129849
0.0503497
0.0196639
0.00435425
0.00300983
-0.000972928
0.00148518
-0.00136727
0.00139226
-0.00138736
0.00138825
-0.0013881
0.00138812
-0.00138812
0.00138812
-0.00138812
0.00138812
-0.00138812
0.00138812
-0.00138812
0.00138812
-0.00138812
0.00138812
-0.00138812
0.00138812
-0.00138812
0.00138812
-0.00138812
0.00138812
-0.00138812
0.00138812
-0.00138812
0.00138812
-0.00138812
0.00138812
-0.00138812
0.00138812
-0.00138812
0.00138812
-0.00138812
0.00138812
-0.00138812
0.00138812
-0.00138812
0.00138812
-0.00138812
0.00138812
-0.00138812
0.00138812
-0.00138812
0.00138812
-0.00138812
0.00138812
-0.00138815
0.00138793
-0.00138908
0.0013842
-0.00140109
0.00135519
-0.00144657
0.00133197
-0.00138257
0.00141448
-0.00158772
0.000982726
-0.00125134
0.00192146
-0.00218492
0.000697228
-4.55135e-06
0.000236763
-0.00221071
0.00319433
-0.00421184
0.00338288
-0.00314099
0.00172641
-0.00183286
-0.175234
-0.175234
1
1.05934
1.118
1.11481
1.14174
1.11249
1.11041
1.1133
1.07
1.08333
1.07332
1.02628
1.03624
1.03348
0.979694
0.932296
0.877225
0.729133
0.503059
0.283792
0.135591
0.0545196
0.0202837
0.00568419
0.00236796
-0.000116604
0.000688675
-0.000555683
0.000584139
-0.000578506
0.000579543
-0.000579364
0.000579393
-0.000579389
0.000579389
-0.000579389
0.000579389
-0.000579389
0.000579389
-0.000579389
0.000579389
-0.000579389
0.000579389
-0.000579389
0.000579389
-0.000579389
0.000579389
-0.000579389
0.000579389
-0.000579389
0.000579389
-0.000579389
0.000579389
-0.000579389
0.000579389
-0.000579389
0.000579389
-0.000579389
0.000579389
-0.000579389
0.000579389
-0.000579389
0.000579389
-0.000579389
0.000579389
-0.000579389
0.000579389
-0.000579389
0.000579389
-0.000579389
0.000579389
-0.00057939
0.000579384
-0.000579428
0.00057917
-0.000580449
0.00057513
-0.000593158
0.000545379
-0.000637432
0.000527924
-0.000568381
0.000596751
-0.000798897
0.000199225
-0.000382847
0.00104549
-0.00145773
7.94945e-05
0.000754025
-0.000780645
-0.0010352
0.00211083
-0.00333858
0.00280822
-0.00275283
0.00155547
-0.000222983
0.176429
0.176429
1
1.05207
1.10813
1.10748
1.13264
1.11094
1.10261
1.11164
1.06749
1.07757
1.07165
1.02608
1.02977
1.03277
0.981216
0.931936
0.874511
0.733944
0.511717
0.29415
0.141328
0.0587227
0.0209835
0.00701492
0.00176478
0.000716495
-7.94673e-05
0.000229037
-0.000196726
0.000203182
-0.000201983
0.000202191
-0.000202157
0.000202162
-0.000202162
0.000202162
-0.000202162
0.000202162
-0.000202162
0.000202162
-0.000202162
0.000202162
-0.000202162
0.000202162
-0.000202162
0.000202162
-0.000202162
0.000202162
-0.000202162
0.000202162
-0.000202162
0.000202162
-0.000202162
0.000202162
-0.000202162
0.000202162
-0.000202162
0.000202162
-0.000202162
0.000202162
-0.000202162
0.000202162
-0.000202162
0.000202162
-0.000202162
0.000202162
-0.000202162
0.000202162
-0.000202162
0.000202162
-0.000202162
0.000202161
-0.000202169
0.000202118
-0.000202408
0.000200993
-0.000206768
0.000187604
-0.000237123
0.000144854
-0.000248736
0.000217812
-0.000195058
-3.47826e-05
-0.000552222
0.00045125
0.000186997
-0.000735517
-0.000510374
0.00144647
-0.00172257
0.000100564
0.00101204
-0.00240736
0.00215538
-0.00229649
0.00131217
-0.00165017
-0.175408
-0.175408
1
1.04555
1.09803
1.09992
1.1224
1.10831
1.09443
1.10862
1.065
1.07165
1.06933
1.02622
1.02376
1.03156
0.982815
0.932144
0.871918
0.737966
0.519667
0.304085
0.14707
0.0629164
0.021792
0.00831432
0.00123225
0.00149474
-0.000787402
0.000955133
-0.000918551
0.000925928
-0.000924546
0.000924788
-0.000924748
0.000924754
-0.000924753
0.000924754
-0.000924754
0.000924754
-0.000924754
0.000924754
-0.000924754
0.000924754
-0.000924754
0.000924754
-0.000924754
0.000924754
-0.000924754
0.000924754
-0.000924754
0.000924754
-0.000924754
0.000924754
-0.000924754
0.000924754
-0.000924754
0.000924754
-0.000924754
0.000924754
-0.000924754
0.000924754
-0.000924754
0.000924754
-0.000924754
0.000924754
-0.000924754
0.000924754
-0.000924754
0.000924754
-0.000924754
0.000924754
-0.000924754
0.000924753
-0.000924761
0.000924704
-0.000925028
0.00092347
-0.000929715
0.000909426
-0.00096053
0.000868498
-0.000966305
0.000944159
-0.000928942
0.000673175
-0.00124062
0.00121822
-0.000619742
-4.95629e-05
-0.00104644
0.00204645
-0.00255496
0.00115287
-5.50011e-05
-0.00146191
0.00145905
-0.00179647
0.00103915
1.1381e-05
0.176255
0.176255
1
1.03984
1.08811
1.09257
1.11172
1.10496
1.08637
1.10457
1.06268
1.0658
1.06649
1.0266
1.01831
1.02989
0.984425
0.932831
0.869548
0.741269
0.52696
0.313551
0.152821
0.0670637
0.022732
0.00955563
0.000796741
0.00219204
-0.00140882
0.00159639
-0.00155509
0.00156349
-0.0015619
0.00156218
-0.00156214
0.00156215
-0.00156214