# vtk DataFile Version 2.0
FlowField
ASCII
DATASET STRUCTURED_GRID
DIMENSIONS 100 1 100
POINTS 10000 float
0 0 0
0.01 0 0
0.02 0 0
0.03 0 0
0.04 0 0
0.05 0 0
0.06 0 0
0.07 0 0
0.08 0 0
0.09 0 0
0.1 0 0
0.11 0 0
0.12 0 0
0.13 0 0
0.14 0 0
0.15 0 0
0.16 0 0
0.17 0 0
0.18 0 0
0.19 0 0
0.2 0 0
0.21 0 0
0.22 0 0
0.23 0 0
0.24 0 0
0.25 0 0
0.26 0 0
0.27 0 0
0.28 0 0
0.29 0 0
0.3 0 0
0.31 0 0
0.32 0 0
0.33 0 0
0.34 0 0
0.35 0 0
0.36 0 0
0.37 0 0
0.38 0 0
0.39 0 0
0.4 0 0
0.41 0 0
0.42 0 0
0.43 0 0
0.44 0 0
0.45 0 0
0.46 0 0
0.47 0 0
0.48 0 0
0.49 0 0
0.5 0 0
0.51 0 0
0.52 0 0
0.53 0 0
0.54 0 0
0.55 0 0
0.56 0 0
0.57 0 0
0.58 0 0
0.59 0 0
0.6 0 0
0.61 0 0
0.62 0 0
0.63 0 0
0.64 0 0
0.65 0 0
0.66 0 0
0.67 0 0
0.68 0 0
0.69 0 0
0.7 0 0
0.71 0 0
0.72 0 0
0.73 0 0
0.74 0 0
0.75 0 0
0.76 0 0
0.77 0 0
0.78 0 0
0.79 0 0
0.8 0 0
0.81 0 0
0.82 0 0
0.83 0 0
0.84 0 0
0.85 0 0
0.86 0 0
0.87 0 0
0.88 0 0
0.89 0 0
0.9 0 0
0.91 0 0
0.92 0 0
0.93 0 0
0.94 0 0
0.95 0 0
0.96 0 0
0.97 0 0
0.98 0 0
0.99 0 0
0 0.001 0
0.01 0.001 0
0.02 0.001 0
0.03 0.001 0
0.04 0.001 0
0.05 0.001 0
0.06 0.001 0
0.07 0.001 0
0.08 0.001 0
0.09 0.001 0
0.1 0.001 0
0.11 0.001 0
0.12 0.001 0
0.13 0.001 0
0.14 0.001 0
0.15 0.001 0
0.16 0.001 0
0.17 0.001 0
0.18 0.001 0
0.19 0.001 0
0.2 0.001 0
0.21 0.001 0
0.22 0.001 0
0.23 0.001 0
0.24 0.001 0
0.25 0.001 0
0.26 0.001 0
0.27 0.001 0
0.28 0.001 0
0.29 0.001 0
0.3 0.001 0
0.31 0.001 0
0.32 0.001 0
0.33 0.001 0
0.34 0.001 0
0.35 0.001 0
0.36 0.001 0
0.37 0.001 0
0.38 0.001 0
0.39 0.001 0
0.4 0.001 0
0.41 0.001 0
0.42 0.001 0
0.43 0.001 0
0.44 0.001 0
0.45 0.001 0
0.46 0.001 0
0.47 0.001 0
0.48 0.001 0
0.49 0.001 0
0.5 0.001 0
0.51 0.001 0
0.52 0.001 0
0.53 0.001 0
0.54 0.001 0
0.55 0.001 0
0.56 0.001 0
0.57 0.001 0
0.58 0.001 0
0.59 0.001 0
0.6 0.001 0
0.61 0.001 0
0.62 0.001 0
0.63 0.001 0
0.64 0.001 0
0.65 0.001 0
0.66 0.001 0
0.67 0.001 0
0.68 0.001 0
0.69 0.001 0
0.7 0.001 0
0.71 0.001 0
0.72 0.001 0
0.73 0.001 0
0.74 0.001 0
0.75 0.001 0
0.76 0.001 0
0.77 0.001 0
0.78 0.001 0
0.79 0.001 0
0.8 0.001 0
0.81 0.001 0
0.82 0.001 0
0.83 0.001 0
0.84 0.001 0
0.85 0.001 0
0.86 0.001 0
0.87 0.001 0
0.88 0.001 0
0.89 0.001 0
0.9 0.001 0
0.91 0.001 0
0.92 0.001 0
0.93 0.001 0
0.94 0.001 0
0.95 0.001 0
0.96 0.001 0
0.97 0.001 0
0.98 0.001 0
0.99 0.001 0
0 0.002 0
0.01 0.002 0
0.02 0.002 0
0.03 0.002 0
0.04 0.002 0
0.05 0.002 0
0.06 0.002 0
0.07 0.002 0
0.08 0.002 0
0.09 0.002 0
0.1 0.002 0
0.11 0.002 0
0.12 0.002 0
0.13 0.002 0
0.14 0.002 0
0.15 0.002 0
0.16 0.002 0
0.17 0.002 0
0.18 0.002 0
0.19 0.002 0
0.2 0.002 0
0.21 0.002 0
0.22 0.002 0
0.23 0.002 0
0.24 0.002 0
0.25 0.002 0
0.26 0.002 0
0.27 0.002 0
0.28 0.002 0
0.29 0.002 0
0.3 0.002 0
0.31 0.002 0
0.32 0.002 0
0.33 0.002 0
0.34 0.002 0
0.35 0.002 0
0.36 0.002 0
0.37 0.002 0
0.38 0.002 0
0.39 0.002 0
0.4 0.002 0
0.41 0.002 0
0.42 0.002 0
0.43 0.002 0
0.44 0.002 0
0.45 0.002 0
0.46 0.002 0
0.47 0.002 0
0.48 0.002 0
0.49 0.002 0
0.5 0.002 0
0.51 0.002 0
0.52 0.002 0
0.53 0.002 0
0.54 0.002 0
0.55 0.002 0
0.56 0.002 0
0.57 0.002 0
0.58 0.002 0
0.59 0.002 0
0.6 0.002 0
0.61 0.002 0
0.62 0.002 0
0.63 0.002 0
0.64 0.002 0
0.65 0.002 0
0.66 0.002 0
0.67 0.002 0
0.68 0.002 0
0.69 0.002 0
0.7 0.002 0
0.71 0.002 0
0.72 0.002 0
0.73 0.002 0
0.74 0.002 0
0.75 0.002 0
0.76 0.002 0
0.77 0.002 0
0.78 0.002 0
0.79 0.002 0
0.8 0.002 0
0.81 0.002 0
0.82 0.002 0
0.83 0.002 0
0.84 0.002 0
0.85 0.002 0
0.86 0.002 0
0.87 0.002 0
0.88 0.002 0
0.89 0.002 0
0.9 0.002 0
0.91 0.002 0
0.92 0.002 0
0.93 0.002 0
0.94 0.002 0
0.95 0.002 0
0.96 0.002 0
0.97 0.002 0
0.98 0.002 0
0.99 0.002 0
0 0.003 0
0.01 0.003 0
0.02 0.003 0
0.03 0.003 0
0.04 0.003 0
0.05 0.003 0
0.06 0.003 0
0.07 0.003 0
0.08 0.003 0
0.09 0.003 0
0.1 0.003 0
0.11 0.003 0
0.12 0.003 0
0.13 0.003 0
0.14 0.003 0
0.15 0.003 0
0.16 0.003 0
0.17 0.003 0
0.18 0.003 0
0.19 0.003 0
0.2 0.003 0
0.21 0.003 0
0.22 0.003 0
0.23 0.003 0
0.24 0.003 0
0.25 0.003 0
0.26 0.003 0
0.27 0.003 0
0.28 0.003 0
0.29 0.003 0
0.3 0.003 0
0.31 0.003 0
0.32 0.003 0
0.33 0.003 0
0.34 0.003 0
0.35 0.003 0
0.36 0.003 0
0.37 0.003 0
0.38 0.003 0
0.39 0.003 0
0.4 0.003 0
0.41 0.003 0
0.42 0.003 0
0.43 0.003 0
0.44 0.003 0
0.45 0.003 0
0.46 0.003 0
0.47 0.003 0
0.48 0.003 0
0.49 0.003 0
0.5 0.003 0
0.51 0.003 0
0.52 0.003 0
0.53 0.003 0
0.54 0.003 0
0.55 0.003 0
0.56 0.003 0
0.57 0.003 0
0.58 0.003 0
0.59 0.003 0
0.6 0.003 0
0.61 0.003 0
0.62 0.003 0
0.63 0.003 0
0.64 0.003 0
0.65 0.003 0
0.66 0.003 0
0.67 0.003 0
0.68 0.003 0
0.69 0.003 0
0.7 0.003 0
0.71 0.003 0
0.72 0.003 0
0.73 0.003 0
0.74 0.003 0
0.75 0.003 0
0.76 0.003 0
0.77 0.003 0
0.78 0.003 0
0.79 0.003 0
0.8 0.003 0
0.81 0.003 0
0.82 0.003 0
0.83 0.003 0
0.84 0.003 0
0.85 0.003 0
0.86 0.003 0
0.87 0.003 0
0.88 0.003 0
0.89 0.003 0
0.9 0.003 0
0.91 0.003 0
0.92 0.003 0
0.93 0.003 0
0.94 0.003 0
0.95 0.003 0
0.96 0.003 0
0.97 0.003 0
0.98 0.003 0
0.99 0.003 0
0 0.004 0
0.01 0.004 0
0.02 0.004 0
0.03 0.004 0
0.04 0.004 0
0.05 0.004 0
0.06 0.004 0
0.07 0.004 0
0.08 0.004 0
0.09 0.004 0
0.1 0.004 0
0.11 0.004 0
0.12 0.004 0
0.13 0.004 0
0.14 0.004 0
0.15 0.004 0
0.16 0.004 0
0.17 0.004 0
0.18 0.004 0
0.19 0.004 0
0.2 0.004 0
0.21 0.004 0
0.22 0.004 0
0.23 0.004 0
0.24 0.004 0
0.25 0.004 0
0.26 0.004 0
0.27 0.004 0
0.28 0.004 0
0.29 0.004 0
0.3 0.004 0
0.31 0.004 0
0.32 0.004 0
0.33 0.004 0
0.34 0.004 0
0.35 0.004 0
0.36 0.004 0
0.37 0.004 0
0.38 0.004 0
0.39 0.004 0
0.4 0.004 0
0.41 0.004 0
0.42 0.004 0
0.43 0.004 0
0.44 0.004 0
0.45 0.004 0
0.46 0.004 0
0.47 0.004 0
0.48 0.004 0
0.49 0.004 0
0.5 0.004 0
0.51 0.004 0
0.52 0.004 0
0.53 0.004 0
0.54 0.004 0
0.55 0.004 0
0.56 0.004 0
0.57 0.004 0
0.58 0.004 0
0.59 0.004 0
0.6 0.004 0
0.61 0.004 0
0.62 0.004 0
0.63 0.004 0
0.64 0.004 0
0.65 0.004 0
0.66 0.004 0
0.67 0.004 0
0.68 0.004 0
0.69 0.004 0
0.7 0.004 0
0.71 0.004 0
0.72 0.004 0
0.73 0.004 0
0.74 0.004 0
0.75 0.004 0
0.76 0.004 0
0.77 0.004 0
0.78 0.004 0
0.79 0.004 0
0.8 0.004 0
0.81 0.004 0
0.82 0.004 0
0.83 0.004 0
0.84 0.004 0
0.85 0.004 0
0.86 0.004 0
0.87 0.004 0
0.88 0.004 0
0.89 0.004 0
0.9 0.004 0
0.91 0.004 0
0.92 0.004 0
0.93 0.004 0
0.94 0.004 0
0.95 0.004 0
0.96 0.004 0
0.97 0.004 0
0.98 0.004 0
0.99 0.004 0
0 0.005 0
0.01 0.005 0
0.02 0.005 0
0.03 0.005 0
0.04 0.005 0
0.05 0.005 0
0.06 0.005 0
0.07 0.005 0
0.08 0.005 0
0.09 0.005 0
0.1 0.005 0
0.11 0.005 0
0.12 0.005 0
0.13 0.005 0
0.14 0.005 0
0.15 0.005 0
0.16 0.005 0
0.17 0.005 0
0.18 0.005 0
0.19 0.005 0
0.2 0.005 0
0.21 0.005 0
0.22 0.005 0
0.23 0.005 0
0.24 0.005 0
0.25 0.005 0
0.26 0.005 0
0.27 0.005 0
0.28 0.005 0
0.29 0.005 0
0.3 0.005 0
0.31 0.005 0
0.32 0.005 0
0.33 0.005 0
0.34 0.005 0
0.35 0.005 0
0.36 0.005 0
0.37 0.005 0
0.38 0.005 0
0.39 0.005 0
0.4 0.005 0
0.41 0.005 0
0.42 0.005 0
0.43 0.005 0
0.44 0.005 0
0.45 0.005 0
0.46 0.005 0
0.47 0.005 0
0.48 0.005 0
0.49 0.005 0
0.5 0.005 0
0.51 0.005 0
0.52 0.005 0
0.53 0.005 0
0.54 0.005 0
0.55 0.005 0
0.56 0.005 0
0.57 0.005 0
0.58 0.005 0
0.59 0.005 0
0.6 0.005 0
0.61 0.005 0
0.62 0.005 0
0.63 0.005 0
0.64 0.005 0
0.65 0.005 0
0.66 0.005 0
0.67 0.005 0
0.68 0.005 0
0.69 0.005 0
0.7 0.005 0
0.71 0.005 0
0.72 0.005 0
0.73 0.005 0
0.74 0.005 0
0.75 0.005 0
0.76 0.005 0
0.77 0.005 0
0.78 0.005 0
0.79 0.005 0
0.8 0.005 0
0.81 0.005 0
0.82 0.005 0
0.83 0.005 0
0.84 0.005 0
0.85 0.005 0
0.86 0.005 0
0.87 0.005 0
0.88 0.005 0
0.89 0.005 0
0.9 0.005 0
0.91 0.005 0
0.92 0.005 0
0.93 0.005 0
0.94 0.005 0
0.95 0.005 0
0.96 0.005 0
0.97 0.005 0
0.98 0.005 0
0.99 0.005 0
0 0.006 0
0.01 0.006 0
0.02 0.006 0
0.03 0.006 0
0.04 0.006 0
0.05 0.006 0
0.06 0.006 0
0.07 0.006 0
0.08 0.006 0
0.09 0.006 0
0.1 0.006 0
0.11 0.006 0
0.12 0.006 0
0.13 0.006 0
0.14 0.006 0
0.15 0.006 0
0.16 0.006 0
0.17 0.006 0
0.18 0.006 0
0.19 0.006 0
0.2 0.006 0
0.21 0.006 0
0.22 0.006 0
0.23 0.006 0
0.24 0.006 0
0.25 0.006 0
0.26 0.006 0
0.27 0.006 0
0.28 0.006 0
0.29 0.006 0
0.3 0.006 0
0.31 0.006 0
0.32 0.006 0
0.33 0.006 0
0.34 0.006 0
0.35 0.006 0
0.36 0.006 0
0.37 0.006 0
0.38 0.006 0
0.39 0.006 0
0.4 0.006 0
0.41 0.006 0
0.42 0.006 0
0.43 0.006 0
0.44 0.006 0
0.45 0.006 0
0.46 0.006 0
0.47 0.006 0
0.48 0.006 0
0.49 0.006 0
0.5 0.006 0
0.51 0.006 0
0.52 0.006 0
0.53 0.006 0
0.54 0.006 0
0.55 0.006 0
0.56 0.006 0
0.57 0.006 0
0.58 0.006 0
0.59 0.006 0
0.6 0.006 0
0.61 0.006 0
0.62 0.006 0
0.63 0.006 0
0.64 0.006 0
0.65 0.006 0
0.66 0.006 0
0.67 0.006 0
0.68 0.006 0
0.69 0.006 0
0.7 0.006 0
0.71 0.006 0
0.72 0.006 0
0.73 0.006 0
0.74 0.006 0
0.75 0.006 0
0.76 0.006 0
0.77 0.006 0
0.78 0.006 0
0.79 0.006 0
0.8 0.006 0
0.81 0.006 0
0.82 0.006 0
0.83 0.006 0
0.84 0.006 0
0.85 0.006 0
0.86 0.006 0
0.87 0.006 0
0.88 0.006 0
0.89 0.006 0
0.9 0.006 0
0.91 0.006 0
0.92 0.006 0
0.93 0.006 0
0.94 0.006 0
0.95 0.006 0
0.96 0.006 0
0.97 0.006 0
0.98 0.006 0
0.99 0.006 0
0 0.007 0
0.01 0.007 0
0.02 0.007 0
0.03 0.007 0
0.04 0.007 0
0.05 0.007 0
0.06 0.007 0
0.07 0.007 0
0.08 0.007 0
0.09 0.007 0
0.1 0.007 0
0.11 0.007 0
0.12 0.007 0
0.13 0.007 0
0.14 0.007 0
0.15 0.007 0
0.16 0.007 0
0.17 0.007 0
0.18 0.007 0
0.19 0.007 0
0.2 0.007 0
0.21 0.007 0
0.22 0.007 0
0.23 0.007 0
0.24 0.007 0
0.25 0.007 0
0.26 0.007 0
0.27 0.007 0
0.28 0.007 0
0.29 0.007 0
0.3 0.007 0
0.31 0.007 0
0.32 0.007 0
0.33 0.007 0
0.34 0.007 0
0.35 0.007 0
0.36 0.007 0
0.37 0.007 0
0.38 0.007 0
0.39 0.007 0
0.4 0.007 0
0.41 0.007 0
0.42 0.007 0
0.43 0.007 0
0.44 0.007 0
0.45 0.007 0
0.46 0.007 0
0.47 0.007 0
0.48 0.007 0
0.49 0.007 0
0.5 0.007 0
0.51 0.007 0
0.52 0.007 0
0.53 0.007 0
0.54 0.007 0
0.55 0.007 0
0.56 0.007 0
0.57 0.007 0
0.58 0.007 0
0.59 0.007 0
0.6 0.007 0
0.61 0.007 0
0.62 0.007 0
0.63 0.007 0
0.64 0.007 0
0.65 0.007 0
0.66 0.007 0
0.67 0.007 0
0.68 0.007 0
0.69 0.007 0
0.7 0.007 0
0.71 0.007 0
0.72 0.007 0
0.73 0.007 0
0.74 0.007 0
0.75 0.007 0
0.76 0.007 0
0.77 0.007 0
0.78 0.007 0
0.79 0.007 0
0.8 0.007 0
0.81 0.007 0
0.82 0.007 0
0.83 0.007 0
0.84 0.007 0
0.85 0.007 0
0.86 0.007 0
0.87 0.007 0
0.88 0.007 0
0.89 0.007 0
0.9 0.007 0
0.91 0.007 0
0.92 0.007 0
0.93 0.007 0
0.94 0.007 0
0.95 0.007 0
0.96 0.007 0
0.97 0.007 0
0.98 0.007 0
[...]
POINT_DATA 10000

SCALARS vel_X float 1
LOOKUP_TABLE default
0
0
0
0
0
0
0
0
0
0
0
0
0
0
0
0
0
0
0
0
0
0
0
0
0
0
0
0
0
0
0
0
0
0
0
0
0
0
0
0
0
0
0
0
0
0
0
0
0
0
0
0
0
0
0
0
0
0
0
0
0
0
0
0
0
0
0
0
0
0
0
0
0
0
0
0
0
0
0
0
0
0
0
0
0
0
0
0
0
0
0
0
0
0
0
0
0
0
0
0
1
0.354052
0.268605
0.237851
0.286006
0.255673
0.305507
0.419115
0.401864
0.247088
0.112908
0.035895
0.0125916
0.000388343
0.00254886
-0.00197518
0.00207347
-0.0020585
0.00206055
-0.00206029
0.00206032
-0.00206032
0.00206032
-0.00206032
0.00206032
-0.00206032
0.00206032
-0.00206032
0.00206032
-0.00206032
0.00206032
-0.00206032
0.00206032
-0.00206032
0.00206032
-0.00206032
0.00206032
-0.00206032
0.00206032
-0.00206032
0.00206032
-0.00206032
0.00206032
-0.00206032
0.00206032
-0.00206032
0.00206032
-0.00206032
0.00206032
-0.00206032
0.00206032
-0.00206032
0.00206032
-0.00206032
0.00206032
-0.00206032
0.00206032
-0.00206032
0.00206032
-0.00206032
0.00206032
-0.00206032
0.00206032
-0.00206032
0.00206032
-0.00206032
0.00206032
-0.00206032
0.00206032
-0.00206032
0.00206032
-0.00206032
0.00206032
-0.00206032
0.00206032
-0.00206032
0.00206032
-0.00206032
0.00206032
-0.00206032
0.00206032
-0.00206032
0.00206032
-0.00206033
0.00206021
-0.00206114
0.00205543
-0.00208122
0.00200312
-0.00213009
0.00211984
-0.00192153
0.00162264
-0.00252865
0.00310287
-0.00286503
0.00128914
-0.00248683
-0.0837944
-0.0837944
1
0.621466
0.502119
0.463482
0.524695
0.489957
0.57242
0.707948
0.634008
0.377488
0.168767
0.0535792
0.0182382
0.000895164
0.00342462
-0.00258147
0.002726
-0.00270396
0.00270698
-0.00270661
0.00270665
-0.00270664
0.00270665
-0.00270665
0.00270665
-0.00270665
0.00270665
-0.00270665
0.00270665
-0.00270665
0.00270665
-0.00270665
0.00270665
-0.00270665
0.00270665
-0.00270665
0.00270665
-0.00270665
0.00270665
-0.00270665
0.00270665
-0.00270665
0.00270665
-0.00270665
0.00270665
-0.00270665
0.00270665
-0.00270665
0.00270665
-0.00270665
0.00270665
-0.00270665
0.00270665
-0.00270665
0.00270665
-0.00270665
0.00270665
-0.00270665
0.00270665
-0.00270665
0.00270665
-0.00270665
0.00270665
-0.00270665
0.00270665
-0.00270665
0.00270665
-0.00270665
0.00270665
-0.00270665
0.00270665
-0.00270665
0.00270665
-0.00270665
0.00270665
-0.00270665
0.00270665
-0.00270665
0.00270665
-0.00270665
0.00270665
-0.00270665
0.00270664
-0.00270666
0.00270649
-0.00270785
0.00269947
-0.00273747
0.00262096
-0.00281898
0.00276835
-0.00251119
0.00212184
-0.00345982
0.00402288
-0.00364395
0.00141015
-0.00176343
0.107298
0.107298
1
0.8123
0.699466
0.656857
0.717186
0.688663
0.767972
0.880882
0.760225
0.449569
0.200345
0.0648571
0.0213281
0.00181573
0.00345629
-0.0024176
0.00259735
-0.00256968
0.00257351
-0.00257303
0.00257308
-0.00257308
0.00257308
-0.00257308
0.00257308
-0.00257308
0.00257308
-0.00257308
0.00257308
-0.00257308
0.00257308
-0.00257308
0.00257308
-0.00257308
0.00257308
-0.00257308
0.00257308
-0.00257308
0.00257308
-0.00257308
0.00257308
-0.00257308
0.00257308
-0.00257308
0.00257308
-0.00257308
0.00257308
-0.00257308
0.00257308
-0.00257308
0.00257308
-0.00257308
0.00257308
-0.00257308
0.00257308
-0.00257308
0.00257308
-0.00257308
0.00257308
-0.00257308
0.00257308
-0.00257308
0.00257308
-0.00257308
0.00257308
-0.00257308
0.00257308
-0.00257308
0.00257308
-0.00257308
0.00257308
-0.00257308
0.00257308
-0.00257308
0.00257308
-0.00257308
0.00257308
-0.00257308
0.00257308
-0.00257308
0.00257308
-0.00257308
0.00257308
-0.0025731
0.00257288
-0.00257457
0.00256436
-0.00260978
0.00247286
-0.00270378
0.00263127
-0.00238612
0.00191681
-0.00337204
0.00386173
-0.00364151
0.00131214
-0.00234948
-0.0929572
-0.0929572
1
0.941942
0.857308
0.810537
0.865716
0.840722
0.892802
0.972647
0.827558
0.494093
0.222313
0.0739819
0.0237209
0.00290279
0.00324994
-0.00202064
0.00223627
-0.00220264
0.00220735
-0.00220675
0.00220682
-0.00220682
0.00220682
-0.00220682
0.00220682
-0.00220682
0.00220682
-0.00220682
0.00220682
-0.00220682
0.00220682
-0.00220682
0.00220682
-0.00220682
0.00220682
-0.00220682
0.00220682
-0.00220682
0.00220682
-0.00220682
0.00220682
-0.00220682
0.00220682
-0.00220682
0.00220682
-0.00220682
0.00220682
-0.00220682
0.00220682
-0.00220682
0.00220682
-0.00220682
0.00220682
-0.00220682
0.00220682
-0.00220682
0.00220682
-0.00220682
0.00220682
-0.00220682
0.00220682
-0.00220682
0.00220682
-0.00220682
0.00220682
-0.00220682
0.00220682
-0.00220682
0.00220682
-0.00220682
0.00220682
-0.00220682
0.00220682
-0.00220682
0.00220682
-0.00220682
0.00220682
-0.00220682
0.00220682
-0.00220682
0.00220682
-0.00220682
0.00220682
-0.00220684
0.00220658
-0.0022086
0.00219673
-0.00224801
0.00209845
-0.00234061
0.00226979
-0.00205882
0.00148591
-0.00291058
0.00341221
-0.00350552
0.00132773
-0.00123114
0.102338
0.102338
1
1.02511
0.975106
0.925152
0.972859
0.945968
0.963413
1.01527
0.86425
0.525854
0.240627
0.0824969
0.0260494
0.00405306
0.00302019
-0.00158455
0.00184016
-0.00179972
0.00180547
-0.00180473
0.00180481
-0.0018048
0.0018048
-0.0018048
0.0018048
-0.0018048
0.0018048
-0.0018048
0.0018048
-0.0018048
0.0018048
-0.0018048
0.0018048
-0.0018048
0.0018048
-0.0018048
0.0018048
-0.0018048
0.0018048
-0.0018048
0.0018048
-0.0018048
0.0018048
-0.0018048
0.0018048
-0.0018048
0.0018048
-0.0018048
0.0018048
-0.0018048
0.0018048
-0.0018048
0.0018048
-0.0018048
0.0018048
-0.0018048
0.0018048
-0.0018048
0.0018048
-0.0018048
0.0018048
-0.0018048
0.0018048
-0.0018048
0.0018048
-0.0018048
0.0018048
-0.0018048
0.0018048
-0.0018048
0.0018048
-0.0018048
0.0018048
-0.0018048
0.0018048
-0.0018048
0.0018048
-0.0018048
0.0018048
-0.0018048
0.0018048
-0.0018048
0.0018048
-0.00180484
0.00180452
-0.00180689
0.00179333
-0.00184999
0.00169139
-0.00193318
0.00187992
-0.00170584
0.00102087
-0.00235436
0.00293395
-0.00335306
0.00140696
-0.00186997
-0.0957482
-0.0957482
1
1.07408
1.05616
1.00518
1.04337
1.01237
0.998726
1.03114
0.88534
0.551457
0.257477
0.0909639
0.0284676
0.00527568
0.00279192
-0.00112754
0.00142846
-0.00138016
0.00138712
-0.00138621
0.00138632
-0.00138631
0.00138631
-0.00138631
0.00138631
-0.00138631
0.00138631
-0.00138631
0.00138631
-0.00138631
0.00138631
-0.00138631
0.00138631
-0.00138631
0.00138631
-0.00138631
0.00138631
-0.00138631
0.00138631
-0.00138631
0.00138631
-0.00138631
0.00138631
-0.00138631
0.00138631
-0.00138631
0.00138631
-0.00138631
0.00138631
-0.00138631
0.00138631
-0.00138631
0.00138631
-0.00138631
0.00138631
-0.00138631
0.00138631
-0.00138631
0.00138631
-0.00138631
0.00138631
-0.00138631
0.00138631
-0.00138631
0.00138631
-0.00138631
0.00138631
-0.00138631
0.00138631
-0.00138631
0.00138631
-0.00138631
0.00138631
-0.00138631
0.00138631
-0.00138631
0.00138631
-0.00138631
0.00138631
-0.00138631
0.00138631
-0.00138631
0.00138631
-0.00138635
0.00138596
-0.00138873
0.0013734
-0.00143526
0.00126967
-0.00150458
0.00147675
-0.00133882
0.000550448
-0.00176347
0.00243712
-0.00313117
0.00146762
-0.000836543
0.10068
0.10068
1
1.09871
1.10638
1.0567
1.08428
1.05068
1.01382
1.03368
0.898245
0.573637
0.273584
0.0995561
0.0309996
0.00658986
0.00255638
-0.000638176
0.000990402
-0.000933037
0.000941416
-0.000940308
0.000940442
-0.000940427
0.000940429
-0.000940428
0.000940428
-0.000940428
0.000940428
-0.000940428
0.000940428
-0.000940428
0.000940428
-0.000940428
0.000940428
-0.000940428
0.000940428
-0.000940428
0.000940428
-0.000940428
0.000940428
-0.000940428
0.000940428
-0.000940428
0.000940428
-0.000940428
0.000940428
-0.000940428
0.000940428
-0.000940428
0.000940428
-0.000940428
0.000940428
-0.000940428
0.000940428
-0.000940428
0.000940428
-0.000940428
0.000940428
-0.000940428
0.000940428
-0.000940428
0.000940428
-0.000940428
0.000940428
-0.000940428
0.000940428
-0.000940428
0.000940428
-0.000940428
0.000940428
-0.000940428
0.000940428
-0.000940428
0.000940428
-0.000940428
0.000940428
-0.000940428
0.000940428
-0.000940428
0.000940428
-0.000940428
0.000940428
-0.000940429
0.000940424
-0.000940475
0.00094002
-0.000943219
0.00092603
-0.000992943
0.000821949
-0.00104588
0.00104593
-0.000945038
7.09494e-05
-0.00114307
0.00189345
-0.00280132
0.00144392
-0.00152016
-0.0968031
-0.0968031
1
1.10679
1.13266
1.08628
1.1035
1.07068
1.01865
1.03012
0.906485
0.593449
0.289145
0.108284
0.0336545
0.00799044
0.00232177
-0.000123145
0.000533181
-0.000465413
0.00047545
-0.000474105
0.000474269
-0.000474251
0.000474253
-0.000474253
0.000474253
-0.000474253
0.000474253
-0.000474253
0.000474253
-0.000474253
0.000474253
-0.000474253
0.000474253
-0.000474253
0.000474253
-0.000474253
0.000474253
-0.000474253
0.000474253
-0.000474253
0.000474253
-0.000474253
0.000474253
-0.000474253
0.000474253
-0.000474253
0.000474253
-0.000474253
0.000474253
-0.000474253
0.000474253
-0.000474253
0.000474253
-0.000474253
0.000474253
-0.000474253
0.000474253
-0.000474253
0.000474253
-0.000474253
0.000474253
-0.000474253
0.000474253
-0.000474253
0.000474253
-0.000474253
0.000474253
-0.000474253
0.000474253
-0.000474253
0.000474253
-0.000474253
0.000474253
-0.000474253
0.000474253
-0.000474253
0.000474253
-0.000474253
0.000474253
-0.000474253
0.000474253
-0.000474253
0.000474247
-0.000474309
0.000473773
-0.000477439
0.000458326
-0.000530106
0.000355203
-0.000565225
0.000592418
-0.000531292
-0.000407953
-0.000507198
0.00130286
-0.00237113
0.00134415
-0.000502056
0.0999541
0.0999541
1
1.10437
1.14169
1.10016
1.10832
1.0796
1.01897
1.02414
0.911743
0.611272
0.304184
0.117097
0.0364453
0.00945527
0.00211065
0.000396056
7.87423e-05
8.9188e-07
1.10689e-05
-9.44453e-06
9.64569e-06
-9.6228e-06
9.62521e-06
-9.62498e-06
9.625e-06
-9.625e-06
9.625e-06
-9.625e-06
9.625e-06
-9.625e-06
9.625e-06
-9.625e-06
9.625e-06
-9.625e-06
9.625e-06
-9.625e-06
9.625e-06
-9.625e-06
9.625e-06
-9.625e-06
9.625e-06
-9.625e-06
9.625e-06
-9.625e-06
9.625e-06
-9.625e-06
9.625e-06
-9.625e-06
9.625e-06
-9.625e-06
9.625e-06
-9.625e-06
9.625e-06
-9.625e-06
9.625e-06
-9.625e-06
9.625e-06
-9.625e-06
9.625e-06
-9.625e-06
9.625e-06
-9.625e-06
9.625e-06
-9.625e-06
9.625e-06
-9.625e-06
9.625e-06
-9.625e-06
9.625e-06
-9.625e-06
9.625e-06
-9.625e-06
9.625e-06
-9.625e-06
9.625e-06
-9.625e-06
9.625e-06
-9.625e-06
9.625e-06
-9.625e-06
9.62496e-06
-9.62552e-06
9.61843e-06
-9.69251e-06
9.06648e-06
-1.32359e-05
-7.85371e-06
-6.85413e-05
-0.000108774
-8.50831e-05
0.000136956
-0.000118957
-0.000864774
0.000117375
0.00068928
-0.00187301
0.00116786
-0.00119069
-0.0973434
-0.0973434
1
1.09599
1.13926
1.1037
1.1045
1.08217
1.01773
1.01748
0.914892
0.62725
0.31867
0.125925
0.0393836
0.0109582
0.00194819
0.000895058
-0.000348121
0.000441213
-0.000427034
0.000428985
-0.00042874
0.000428769
-0.000428766
0.000428766
-0.000428766
0.000428766
-0.000428766
0.000428766
-0.000428766
0.000428766
-0.000428766
0.000428766
-0.000428766
0.000428766
-0.000428766
0.000428766
-0.000428766
0.000428766
-0.000428766
0.000428766
-0.000428766
0.000428766
-0.000428766
0.000428766
-0.000428766
0.000428766
-0.000428766
0.000428766
-0.000428766
0.000428766
-0.000428766
0.000428766
-0.000428766
0.000428766
-0.000428766
0.000428766
-0.000428766
0.000428766
-0.000428766
0.000428766
-0.000428766
0.000428766
-0.000428766
0.000428766
-0.000428766
0.000428766
-0.000428766
0.000428766
-0.000428766
0.000428766
-0.000428766
0.000428766
-0.000428766
0.000428766
-0.000428766
0.000428766
-0.000428766
0.000428766
-0.000428766
0.000428766
-0.000428766
0.000428765
-0.000428774
0.000428686
-0.000429412
0.000424705
-0.000447803
0.000367112
-0.000545326
0.000369373
-0.000296264
0.000268184
-0.00127655
0.000701336
8.39976e-05
-0.00134334
0.000948645
-0.000173733
0.0995245
0.0995245
1
1.08486
1.12995
1.10106
1.09612
1.08115
1.01629
1.01095
0.916455
0.641458
0.332563
0.134699
0.0424745
0.0124764
0.00185529
0.00135355
-0.000726708
0.000834976
-0.000818254
0.000820586
-0.00082029
0.000820324
-0.00082032
0.000820321
-0.000820321
0.000820321
-0.000820321
0.000820321
-0.000820321
0.000820321
-0.000820321
0.000820321
-0.000820321
0.000820321
-0.000820321
0.000820321
-0.000820321
0.000820321
-0.000820321
0.000820321
-0.000820321
0.000820321
-0.000820321
0.000820321
-0.000820321
0.000820321
-0.000820321
0.000820321
-0.000820321
0.000820321
-0.000820321
0.000820321
-0.000820321
0.000820321
-0.000820321
0.000820321
-0.000820321
0.000820321
-0.000820321
0.000820321
-0.000820321
0.000820321
-0.000820321
0.000820321
-0.000820321
0.000820321
-0.000820321
0.000820321
-0.000820321
0.000820321
-0.000820321
0.000820321
-0.000820321
0.000820321
-0.000820321
0.000820321
-0.000820321
0.000820321
-0.000820321
0.000820321
-0.000820321
0.00082032
-0.00082033
0.000820226
-0.000821062
0.000815786
-0.000840905
0.000756302
-0.000933905
0.000777126
-0.000686777
0.000610706
-0.00162496
0.00121999
-0.000484464
-0.000813734
0.000690475
-0.000864002
-0.0977022
-0.0977022
1
1.07308
1.11712
1.09516
1.08578
1.0781
1.01517
1.00492
0.916805
0.653971
0.345819
0.143356
0.0457164
0.013992
0.00184691
0.00175691
-0.00104204
0.00116733
-0.00114771
0.00115048
-0.00115013
0.00115017
-0.00115016
0.00115016
-0.00115016
0.00115016
-0.00115016
0.00115016
-0.00115016
0.00115016
-0.00115016
0.00115016
-0.00115016
0.00115016
-0.00115016
0.00115016
-0.00115016
0.00115016
-0.00115016
0.00115016
-0.00115016
0.00115016
-0.00115016
0.00115016
-0.00115016
0.00115016
-0.00115016
0.00115016
-0.00115016
0.00115016
-0.00115016
0.00115016
-0.00115016
0.00115016
-0.00115016
0.00115016
-0.00115016
0.00115016
-0.00115016
0.00115016
-0.00115016
0.00115016
-0.00115016
0.00115016
-0.00115016
0.00115016
-0.00115016
0.00115016
-0.00115016
0.00115016
-0.00115016
0.00115016
-0.00115016
0.00115016
-0.00115016
0.00115016
-0.00115016
0.00115016
-0.00115016
0.00115016
-0.00115016
0.00115016
-0.00115018
0.00115005
-0.00115101
0.00114514
-0.00117226
0.00108419
-0.00125971
0.00112292
-0.00101961
0.000894958
-0.00189768
0.00165536
-0.000993474
-0.000309364
0.000425205
0.00014812
0.0992151
0.0992151
1
1.06193
1.10306
1.08789
1.07503
1.07383
1.01448
0.999575
0.916238
0.664873
0.358404
0.151842
0.0491009
0.0154923
0.00193218
0.00209609
-0.00128479
0.00142906
-0.00140615
0.00140943
-0.001409
0.00140905
-0.00140905
0.00140905
-0.00140905
0.00140905
-0.00140905
0.00140905
-0.00140905
0.00140905
-0.00140905
0.00140905
-0.00140905
0.00140905
-0.00140905
0.00140905
-0.00140905
0.00140905
-0.00140905
0.00140905
-0.00140905
0.00140905
-0.00140905
0.00140905
-0.00140905
0.00140905
-0.00140905
0.00140905
-0.00140905
0.00140905
-0.00140905
0.00140905
-0.00140905
0.00140905
-0.00140905
0.00140905
-0.00140905
0.00140905
-0.00140905
0.00140905
-0.00140905
0.00140905
-0.00140905
0.00140905
-0.00140905
0.00140905
-0.00140905
0.00140905
-0.00140905
0.00140905
-0.00140905
0.00140905
-0.00140905
0.00140905
-0.00140905
0.00140905
-0.00140905
0.00140905
-0.00140905
0.00140905
-0.00140905
0.00140905
-0.00140906
0.00140892
-0.00141001
0.00140351
-0.00143261
0.00134156
-0.00151358
0.00139716
-0.00128528
0.00111282
-0.00208815
0.0019963
-0.00142676
0.000150367
0.000153962
-0.000553145
-0.0979738
-0.0979738
1
1.05204
1.08918
1.08031
1.06472
1.06882
1.01417
0.994962
0.915006
0.674266
0.37029
0.16011
0.0526146
0.0169687
0.00211518
0.0023669
-0.00145047
0.00161582
-0.00158919
0.00159305
-0.00159254
0.00159261
-0.0015926
0.0015926
-0.0015926
0.0015926
-0.0015926
0.0015926
-0.0015926
0.0015926
-0.0015926
0.0015926
-0.0015926
0.0015926
-0.0015926
0.0015926
-0.0015926
0.0015926
-0.0015926
0.0015926
-0.0015926
0.0015926
-0.0015926
0.0015926
-0.0015926
0.0015926
-0.0015926
0.0015926
-0.0015926
0.0015926
-0.0015926
0.0015926
-0.0015926
0.0015926
-0.0015926
0.0015926
-0.0015926
0.0015926
-0.0015926
0.0015926
-0.0015926
0.0015926
-0.0015926
0.0015926
-0.0015926
0.0015926
-0.0015926
0.0015926
-0.0015926
0.0015926
-0.0015926
0.0015926
-0.0015926
0.0015926
-0.0015926
0.0015926
-0.0015926
0.0015926
-0.0015926
0.0015926
-0.0015926
0.0015926
-0.00159262
0.00159245
-0.00159368
0.00158654
-0.00161756
0.00152406
-0.00169126
0.00159516
-0.00147902
0.00126085
-0.00219476
0.00223775
-0.00177389
0.000551299
-9.50474e-05
0.000440316
0.098975
0.098975
1
1.04364
1.07626
1.07298
1.05529
1.06335
1.01415
0.991093
0.91332
0.682264
0.381457
0.168121
0.0562391
0.0184167
0.00239533
0.0025695
-0.00153906
0.00172767
-0.00169687
0.0017014
-0.0017008
0.00170087
-0.00170086
0.00170086
-0.00170086
0.00170086
-0.00170086
0.00170086
-0.00170086
0.00170086
-0.00170086
0.00170086
-0.00170086
0.00170086
-0.00170086
0.00170086
-0.00170086
0.00170086
-0.00170086
0.00170086
-0.00170086
0.00170086
-0.00170086
0.00170086
-0.00170086
0.00170086
-0.00170086
0.00170086
-0.00170086
0.00170086
-0.00170086
0.00170086
-0.00170086
0.00170086
-0.00170086
0.00170086
-0.00170086
0.00170086
-0.00170086
0.00170086
-0.00170086
0.00170086
-0.00170086
0.00170086
-0.00170086
0.00170086
-0.00170086
0.00170086
-0.00170086
0.00170086
-0.00170086
0.00170086
-0.00170086
0.00170086
-0.00170086
0.00170086
-0.00170086
0.00170086
-0.00170086
0.00170086
-0.00170086
0.00170086
-0.00170088
0.00170069
-0.00170206
0.00169428
-0.00172712
0.00163174
-0.00179292
0.00171671
-0.00160043
0.0013398
-0.00222032
0.00238017
-0.00202992
0.000884092
-0.000325489
-0.000287366
-0.0981858
-0.0981858
1
1.03671
1.06465
1.06613
1.04692
1.0576
1.01431
0.987943
0.911361
0.688991
0.391895
0.175842
0.0599524
0.0198347
0.00276822
0.00270764
-0.00155417
0.00176833
-0.00173288
0.00173816
-0.00173745
0.00173753
-0.00173752
0.00173753
-0.00173752
0.00173752
-0.00173752
0.00173752
-0.00173752
0.00173752
-0.00173752
0.00173752
-0.00173752
0.00173752
-0.00173752
0.00173752
-0.00173752
0.00173752
-0.00173752
0.00173752
-0.00173752
0.00173752
-0.00173752
0.00173752
-0.00173752
0.00173752
-0.00173752
0.00173752
-0.00173752
0.00173752
-0.00173752
0.00173752
-0.00173752
0.00173752
-0.00173752
0.00173752
-0.00173752
0.00173752
-0.00173752
0.00173752
-0.00173752
0.00173752
-0.00173752
0.00173752
-0.00173752
0.00173752
-0.00173752
0.00173752
-0.00173752
0.00173752
-0.00173752
0.00173752
-0.00173752
0.00173752
-0.00173752
0.00173752
-0.00173752
0.00173752
-0.00173752
0.00173752
-0.00173753
0.00173752
-0.00173755
0.00173733
-0.00173886
0.00173041
-0.00176499
0.0016683
-0.00182239
0.00176527
-0.00165267
0.00135381
-0.00217121
0.00242852
-0.00219477
0.00114399
-0.000514895
0.000672876
0.098789
0.098789
1
1.03107
1.05446
1.05983
1.03964
1.05175
1.01453
0.985464
0.909278
0.694575
0.401601
0.183251
0.06373
0.0212241
0.00322619
0.00278809
-0.0015025
0.00174458
-0.00170395
0.00171009
-0.00170925
0.00170935
-0.00170934
0.00170934
-0.00170934
0.00170934
-0.00170934
0.00170934
-0.00170934
0.00170934
-0.00170934
0.00170934
-0.00170934
0.00170934
-0.00170934
0.00170934
-0.00170934
0.00170934
-0.00170934
0.00170934
-0.00170934
0.00170934
-0.00170934
0.00170934
-0.00170934
0.00170934
-0.00170934
0.00170934
-0.00170934
0.00170934
-0.00170934
0.00170934
-0.00170934
0.00170934
-0.00170934
0.00170934
-0.00170934
0.00170934
-0.00170934
0.00170934
-0.00170934
0.00170934
-0.00170934
0.00170934
-0.00170934
0.00170934
-0.00170934
0.00170934
-0.00170934
0.00170934
-0.00170934
0.00170934
-0.00170934
0.00170934
-0.00170934
0.00170934
-0.00170934
0.00170934
-0.00170934
0.00170934
-0.00170934
0.00170934
-0.00170937
0.00170912
-0.00171082
0.00170171
-0.00173788
0.00164049
-0.00178656
0.00174743
-0.00164196
0.00130986
-0.0020567
0.00239159
-0.00227261
0.00133029
-0.000673038
-9.29402e-05
-0.0983472
-0.0983472
1
1.02653
1.04565
1.05405
1.03343
1.04591
1.01474
0.983598
0.907188
0.699148
0.41058
0.19033
0.0675458
0.0225881
0.00375927
0.00281967
-0.00139284
0.00166531
-0.00161896
0.00162605
-0.00162507
0.0016252
-0.00162518
0.00162518
-0.00162518
0.00162518
-0.00162518
0.00162518
-0.00162518
0.00162518
-0.00162518
0.00162518
-0.00162518
0.00162518
-0.00162518
0.00162518
-0.00162518
0.00162518
-0.00162518
0.00162518
-0.00162518
0.00162518
-0.00162518
0.00162518
-0.00162518
0.00162518
-0.00162518
0.00162518
-0.00162518
0.00162518
-0.00162518
0.00162518
-0.00162518
0.00162518
-0.00162518
0.00162518
-0.00162518
0.00162518
-0.00162518
0.00162518
-0.00162518
0.00162518
-0.00162518
0.00162518
-0.00162518
0.00162518
-0.00162518
0.00162518
-0.00162518
0.00162518
-0.00162518
0.00162518
-0.00162518
0.00162518
-0.00162518
0.00162518
-0.00162518
0.00162518