# vtk DataFile Version 2.0
FlowField
ASCII
DATASET STRUCTURED_GRID
DIMENSIONS 100 1 100
POINTS 10000 float
0 0 0
0.01 0 0
0.02 0 0
0.03 0 0
0.04 0 0
0.05 0 0
0.06 0 0
0.07 0 0
0.08 0 0
0.09 0 0
0.1 0 0
0.11 0 0
0.12 0 0
0.13 0 0
0.14 0 0
0.15 0 0
0.16 0 0
0.17 0 0
0.18 0 0
0.19 0 0
0.2 0 0
0.21 0 0
0.22 0 0
0.23 0 0
0.24 0 0
0.25 0 0
0.26 0 0
0.27 0 0
0.28 0 0
0.29 0 0
0.3 0 0
0.31 0 0
0.32 0 0
0.33 0 0
0.34 0 0
0.35 0 0
0.36 0 0
0.37 0 0
0.38 0 0
0.39 0 0
0.4 0 0
0.41 0 0
0.42 0 0
0.43 0 0
0.44 0 0
0.45 0 0
0.46 0 0
0.47 0 0
0.48 0 0
0.49 0 0
0.5 0 0
0.51 0 0
0.52 0 0
0.53 0 0
0.54 0 0
0.55 0 0
0.56 0 0
0.57 0 0
0.58 0 0
0.59 0 0
0.6 0 0
0.61 0 0
0.62 0 0
0.63 0 0
0.64 0 0
0.65 0 0
0.66 0 0
0.67 0 0
0.68 0 0
0.69 0 0
0.7 0 0
0.71 0 0
0.72 0 0
0.73 0 0
0.74 0 0
0.75 0 0
0.76 0 0
0.77 0 0
0.78 0 0
0.79 0 0
0.8 0 0
0.81 0 0
0.82 0 0
0.83 0 0
0.84 0 0
0.85 0 0
0.86 0 0
0.87 0 0
0.88 0 0
0.89 0 0
0.9 0 0
0.91 0 0
0.92 0 0
0.93 0 0
0.94 0 0
0.95 0 0
0.96 0 0
0.97 0 0
0.98 0 0
0.99 0 0
0 0.001 0
0.01 0.001 0
0.02 0.001 0
0.03 0.001 0
0.04 0.001 0
0.05 0.001 0
0.06 0.001 0
0.07 0.001 0
0.08 0.001 0
0.09 0.001 0
0.1 0.001 0
0.11 0.001 0
0.12 0.001 0
0.13 0.001 0
0.14 0.001 0
0.15 0.001 0
0.16 0.001 0
0.17 0.001 0
0.18 0.001 0
0.19 0.001 0
0.2 0.001 0
0.21 0.001 0
0.22 0.001 0
0.23 0.001 0
0.24 0.001 0
0.25 0.001 0
0.26 0.001 0
0.27 0.001 0
0.28 0.001 0
0.29 0.001 0
0.3 0.001 0
0.31 0.001 0
0.32 0.001 0
0.33 0.001 0
0.34 0.001 0
0.35 0.001 0
0.36 0.001 0
0.37 0.001 0
0.38 0.001 0
0.39 0.001 0
0.4 0.001 0
0.41 0.001 0
0.42 0.001 0
0.43 0.001 0
0.44 0.001 0
0.45 0.001 0
0.46 0.001 0
0.47 0.001 0
0.48 0.001 0
0.49 0.001 0
0.5 0.001 0
0.51 0.001 0
0.52 0.001 0
0.53 0.001 0
0.54 0.001 0
0.55 0.001 0
0.56 0.001 0
0.57 0.001 0
0.58 0.001 0
0.59 0.001 0
0.6 0.001 0
0.61 0.001 0
0.62 0.001 0
0.63 0.001 0
0.64 0.001 0
0.65 0.001 0
0.66 0.001 0
0.67 0.001 0
0.68 0.001 0
0.69 0.001 0
0.7 0.001 0
0.71 0.001 0
0.72 0.001 0
0.73 0.001 0
0.74 0.001 0
0.75 0.001 0
0.76 0.001 0
0.77 0.001 0
0.78 0.001 0
0.79 0.001 0
0.8 0.001 0
0.81 0.001 0
0.82 0.001 0
0.83 0.001 0
0.84 0.001 0
0.85 0.001 0
0.86 0.001 0
0.87 0.001 0
0.88 0.001 0
0.89 0.001 0
0.9 0.001 0
0.91 0.001 0
0.92 0.001 0
0.93 0.001 0
0.94 0.001 0
0.95 0.001 0
0.96 0.001 0
0.97 0.001 0
0.98 0.001 0
0.99 0.001 0
0 0.002 0
0.01 0.002 0
0.02 0.002 0
0.03 0.002 0
0.04 0.002 0
0.05 0.002 0
0.06 0.002 0
0.07 0.002 0
0.08 0.002 0
0.09 0.002 0
0.1 0.002 0
0.11 0.002 0
0.12 0.002 0
0.13 0.002 0
0.14 0.002 0
0.15 0.002 0
0.16 0.002 0
0.17 0.002 0
0.18 0.002 0
0.19 0.002 0
0.2 0.002 0
0.21 0.002 0
0.22 0.002 0
0.23 0.002 0
0.24 0.002 0
0.25 0.002 0
0.26 0.002 0
0.27 0.002 0
0.28 0.002 0
0.29 0.002 0
0.3 0.002 0
0.31 0.002 0
0.32 0.002 0
0.33 0.002 0
0.34 0.002 0
0.35 0.002 0
0.36 0.002 0
0.37 0.002 0
0.38 0.002 0
0.39 0.002 0
0.4 0.002 0
0.41 0.002 0
0.42 0.002 0
0.43 0.002 0
0.44 0.002 0
0.45 0.002 0
0.46 0.002 0
0.47 0.002 0
0.48 0.002 0
0.49 0.002 0
0.5 0.002 0
0.51 0.002 0
0.52 0.002 0
0.53 0.002 0
0.54 0.002 0
0.55 0.002 0
0.56 0.002 0
0.57 0.002 0
0.58 0.002 0
0.59 0.002 0
0.6 0.002 0
0.61 0.002 0
0.62 0.002 0
0.63 0.002 0
0.64 0.002 0
0.65 0.002 0
0.66 0.002 0
0.67 0.002 0
0.68 0.002 0
0.69 0.002 0
0.7 0.002 0
0.71 0.002 0
0.72 0.002 0
0.73 0.002 0
0.74 0.002 0
0.75 0.002 0
0.76 0.002 0
0.77 0.002 0
0.78 0.002 0
0.79 0.002 0
0.8 0.002 0
0.81 0.002 0
0.82 0.002 0
0.83 0.002 0
0.84 0.002 0
0.85 0.002 0
0.86 0.002 0
0.87 0.002 0
0.88 0.002 0
0.89 0.002 0
0.9 0.002 0
0.91 0.002 0
0.92 0.002 0
0.93 0.002 0
0.94 0.002 0
0.95 0.002 0
0.96 0.002 0
0.97 0.002 0
0.98 0.002 0
0.99 0.002 0
0 0.003 0
0.01 0.003 0
0.02 0.003 0
0.03 0.003 0
0.04 0.003 0
0.05 0.003 0
0.06 0.003 0
0.07 0.003 0
0.08 0.003 0
0.09 0.003 0
0.1 0.003 0
0.11 0.003 0
0.12 0.003 0
0.13 0.003 0
0.14 0.003 0
0.15 0.003 0
0.16 0.003 0
0.17 0.003 0
0.18 0.003 0
0.19 0.003 0
0.2 0.003 0
0.21 0.003 0
0.22 0.003 0
0.23 0.003 0
0.24 0.003 0
0.25 0.003 0
0.26 0.003 0
0.27 0.003 0
0.28 0.003 0
0.29 0.003 0
0.3 0.003 0
0.31 0.003 0
0.32 0.003 0
0.33 0.003 0
0.34 0.003 0
0.35 0.003 0
0.36 0.003 0
0.37 0.003 0
0.38 0.003 0
0.39 0.003 0
0.4 0.003 0
0.41 0.003 0
0.42 0.003 0
0.43 0.003 0
0.44 0.003 0
0.45 0.003 0
0.46 0.003 0
0.47 0.003 0
0.48 0.003 0
0.49 0.003 0
0.5 0.003 0
0.51 0.003 0
0.52 0.003 0
0.53 0.003 0
0.54 0.003 0
0.55 0.003 0
0.56 0.003 0
0.57 0.003 0
0.58 0.003 0
0.59 0.003 0
0.6 0.003 0
0.61 0.003 0
0.62 0.003 0
0.63 0.003 0
0.64 0.003 0
0.65 0.003 0
0.66 0.003 0
0.67 0.003 0
0.68 0.003 0
0.69 0.003 0
0.7 0.003 0
0.71 0.003 0
0.72 0.003 0
0.73 0.003 0
0.74 0.003 0
0.75 0.003 0
0.76 0.003 0
0.77 0.003 0
0.78 0.003 0
0.79 0.003 0
0.8 0.003 0
0.81 0.003 0
0.82 0.003 0
0.83 0.003 0
0.84 0.003 0
0.85 0.003 0
0.86 0.003 0
0.87 0.003 0
0.88 0.003 0
0.89 0.003 0
0.9 0.003 0
0.91 0.003 0
0.92 0.003 0
0.93 0.003 0
0.94 0.003 0
0.95 0.003 0
0.96 0.003 0
0.97 0.003 0
0.98 0.003 0
0.99 0.003 0
0 0.004 0
0.01 0.004 0
0.02 0.004 0
0.03 0.004 0
0.04 0.004 0
0.05 0.004 0
0.06 0.004 0
0.07 0.004 0
0.08 0.004 0
0.09 0.004 0
0.1 0.004 0
0.11 0.004 0
0.12 0.004 0
0.13 0.004 0
0.14 0.004 0
0.15 0.004 0
0.16 0.004 0
0.17 0.004 0
0.18 0.004 0
0.19 0.004 0
0.2 0.004 0
0.21 0.004 0
0.22 0.004 0
0.23 0.004 0
0.24 0.004 0
0.25 0.004 0
0.26 0.004 0
0.27 0.004 0
0.28 0.004 0
0.29 0.004 0
0.3 0.004 0
0.31 0.004 0
0.32 0.004 0
0.33 0.004 0
0.34 0.004 0
0.35 0.004 0
0.36 0.004 0
0.37 0.004 0
0.38 0.004 0
0.39 0.004 0
0.4 0.004 0
0.41 0.004 0
0.42 0.004 0
0.43 0.004 0
0.44 0.004 0
0.45 0.004 0
0.46 0.004 0
0.47 0.004 0
0.48 0.004 0
0.49 0.004 0
0.5 0.004 0
0.51 0.004 0
0.52 0.004 0
0.53 0.004 0
0.54 0.004 0
0.55 0.004 0
0.56 0.004 0
0.57 0.004 0
0.58 0.004 0
0.59 0.004 0
0.6 0.004 0
0.61 0.004 0
0.62 0.004 0
0.63 0.004 0
0.64 0.004 0
0.65 0.004 0
0.66 0.004 0
0.67 0.004 0
0.68 0.004 0
0.69 0.004 0
0.7 0.004 0
0.71 0.004 0
0.72 0.004 0
0.73 0.004 0
0.74 0.004 0
0.75 0.004 0
0.76 0.004 0
0.77 0.004 0
0.78 0.004 0
0.79 0.004 0
0.8 0.004 0
0.81 0.004 0
0.82 0.004 0
0.83 0.004 0
0.84 0.004 0
0.85 0.004 0
0.86 0.004 0
0.87 0.004 0
0.88 0.004 0
0.89 0.004 0
0.9 0.004 0
0.91 0.004 0
0.92 0.004 0
0.93 0.004 0
0.94 0.004 0
0.95 0.004 0
0.96 0.004 0
0.97 0.004 0
0.98 0.004 0
0.99 0.004 0
0 0.005 0
0.01 0.005 0
0.02 0.005 0
0.03 0.005 0
0.04 0.005 0
0.05 0.005 0
0.06 0.005 0
0.07 0.005 0
0.08 0.005 0
0.09 0.005 0
0.1 0.005 0
0.11 0.005 0
0.12 0.005 0
0.13 0.005 0
0.14 0.005 0
0.15 0.005 0
0.16 0.005 0
0.17 0.005 0
0.18 0.005 0
0.19 0.005 0
0.2 0.005 0
0.21 0.005 0
0.22 0.005 0
0.23 0.005 0
0.24 0.005 0
0.25 0.005 0
0.26 0.005 0
0.27 0.005 0
0.28 0.005 0
0.29 0.005 0
0.3 0.005 0
0.31 0.005 0
0.32 0.005 0
0.33 0.005 0
0.34 0.005 0
0.35 0.005 0
0.36 0.005 0
0.37 0.005 0
0.38 0.005 0
0.39 0.005 0
0.4 0.005 0
0.41 0.005 0
0.42 0.005 0
0.43 0.005 0
0.44 0.005 0
0.45 0.005 0
0.46 0.005 0
0.47 0.005 0
0.48 0.005 0
0.49 0.005 0
0.5 0.005 0
0.51 0.005 0
0.52 0.005 0
0.53 0.005 0
0.54 0.005 0
0.55 0.005 0
0.56 0.005 0
0.57 0.005 0
0.58 0.005 0
0.59 0.005 0
0.6 0.005 0
0.61 0.005 0
0.62 0.005 0
0.63 0.005 0
0.64 0.005 0
0.65 0.005 0
0.66 0.005 0
0.67 0.005 0
0.68 0.005 0
0.69 0.005 0
0.7 0.005 0
0.71 0.005 0
0.72 0.005 0
0.73 0.005 0
0.74 0.005 0
0.75 0.005 0
0.76 0.005 0
0.77 0.005 0
0.78 0.005 0
0.79 0.005 0
0.8 0.005 0
0.81 0.005 0
0.82 0.005 0
0.83 0.005 0
0.84 0.005 0
0.85 0.005 0
0.86 0.005 0
0.87 0.005 0
0.88 0.005 0
0.89 0.005 0
0.9 0.005 0
0.91 0.005 0
0.92 0.005 0
0.93 0.005 0
0.94 0.005 0
0.95 0.005 0
0.96 0.005 0
0.97 0.005 0
0.98 0.005 0
0.99 0.005 0
0 0.006 0
0.01 0.006 0
0.02 0.006 0
0.03 0.006 0
0.04 0.006 0
0.05 0.006 0
0.06 0.006 0
0.07 0.006 0
0.08 0.006 0
0.09 0.006 0
0.1 0.006 0
0.11 0.006 0
0.12 0.006 0
0.13 0.006 0
0.14 0.006 0
0.15 0.006 0
0.16 0.006 0
0.17 0.006 0
0.18 0.006 0
0.19 0.006 0
0.2 0.006 0
0.21 0.006 0
0.22 0.006 0
0.23 0.006 0
0.24 0.006 0
0.25 0.006 0
0.26 0.006 0
0.27 0.006 0
0.28 0.006 0
0.29 0.006 0
0.3 0.006 0
0.31 0.006 0
0.32 0.006 0
0.33 0.006 0
0.34 0.006 0
0.35 0.006 0
0.36 0.006 0
0.37 0.006 0
0.38 0.006 0
0.39 0.006 0
0.4 0.006 0
0.41 0.006 0
0.42 0.006 0
0.43 0.006 0
0.44 0.006 0
0.45 0.006 0
0.46 0.006 0
0.47 0.006 0
0.48 0.006 0
0.49 0.006 0
0.5 0.006 0
0.51 0.006 0
0.52 0.006 0
0.53 0.006 0
0.54 0.006 0
0.55 0.006 0
0.56 0.006 0
0.57 0.006 0
0.58 0.006 0
0.59 0.006 0
0.6 0.006 0
0.61 0.006 0
0.62 0.006 0
0.63 0.006 0
0.64 0.006 0
0.65 0.006 0
0.66 0.006 0
0.67 0.006 0
0.68 0.006 0
0.69 0.006 0
0.7 0.006 0
0.71 0.006 0
0.72 0.006 0
0.73 0.006 0
0.74 0.006 0
0.75 0.006 0
0.76 0.006 0
0.77 0.006 0
0.78 0.006 0
0.79 0.006 0
0.8 0.006 0
0.81 0.006 0
0.82 0.006 0
0.83 0.006 0
0.84 0.006 0
0.85 0.006 0
0.86 0.006 0
0.87 0.006 0
0.88 0.006 0
0.89 0.006 0
0.9 0.006 0
0.91 0.006 0
0.92 0.006 0
0.93 0.006 0
0.94 0.006 0
0.95 0.006 0
0.96 0.006 0
0.97 0.006 0
0.98 0.006 0
0.99 0.006 0
0 0.007 0
0.01 0.007 0
0.02 0.007 0
0.03 0.007 0
0.04 0.007 0
0.05 0.007 0
0.06 0.007 0
0.07 0.007 0
0.08 0.007 0
0.09 0.007 0
0.1 0.007 0
0.11 0.007 0
0.12 0.007 0
0.13 0.007 0
0.14 0.007 0
0.15 0.007 0
0.16 0.007 0
0.17 0.007 0
0.18 0.007 0
0.19 0.007 0
0.2 0.007 0
0.21 0.007 0
0.22 0.007 0
0.23 0.007 0
0.24 0.007 0
0.25 0.007 0
0.26 0.007 0
0.27 0.007 0
0.28 0.007 0
0.29 0.007 0
0.3 0.007 0
0.31 0.007 0
0.32 0.007 0
0.33 0.007 0
0.34 0.007 0
0.35 0.007 0
0.36 0.007 0
0.37 0.007 0
0.38 0.007 0
0.39 0.007 0
0.4 0.007 0
0.41 0.007 0
0.42 0.007 0
0.43 0.007 0
0.44 0.007 0
0.45 0.007 0
0.46 0.007 0
0.47 0.007 0
0.48 0.007 0
0.49 0.007 0
0.5 0.007 0
0.51 0.007 0
0.52 0.007 0
0.53 0.007 0
0.54 0.007 0
0.55 0.007 0
0.56 0.007 0
0.57 0.007 0
0.58 0.007 0
0.59 0.007 0
0.6 0.007 0
0.61 0.007 0
0.62 0.007 0
0.63 0.007 0
0.64 0.007 0
0.65 0.007 0
0.66 0.007 0
0.67 0.007 0
0.68 0.007 0
0.69 0.007 0
0.7 0.007 0
0.71 0.007 0
0.72 0.007 0
0.73 0.007 0
0.74 0.007 0
0.75 0.007 0
0.76 0.007 0
0.77 0.007 0
0.78 0.007 0
0.79 0.007 0
0.8 0.007 0
0.81 0.007 0
0.82 0.007 0
0.83 0.007 0
0.84 0.007 0
0.85 0.007 0
0.86 0.007 0
0.87 0.007 0
0.88 0.007 0
0.89 0.007 0
0.9 0.007 0
0.91 0.007 0
0.92 0.007 0
0.93 0.007 0
0.94 0.007 0
0.95 0.007 0
0.96 0.007 0
0.97 0.007 0
0.98 0.007 0
[...]
POINT_DATA 10000

SCALARS vel_X float 1
LOOKUP_TABLE default
0
0
0
0
0
0
0
0
0
0
0
0
0
0
0
0
0
0
0
0
0
0
0
0
0
0
0
0
0
0
0
0
0
0
0
0
0
0
0
0
0
0
0
0
0
0
0
0
0
0
0
0
0
0
0
0
0
0
0
0
0
0
0
0
0
0
0
0
0
0
0
0
0
0
0
0
0
0
0
0
0
0
0
0
0
0
0
0
0
0
0
0
0
0
0
0
0
0
0
0
1
0.341478
0.266941
0.230431
0.236909
0.278975
0.249155
0.316789
0.418481
0.383095
0.232486
0.106434
0.0352602
0.0121146
0.00103889
0.00207339
-0.00143373
0.00154963
-0.00153089
0.00153362
-0.00153326
0.0015333
-0.0015333
0.0015333
-0.0015333
0.0015333
-0.0015333
0.0015333
-0.0015333
0.0015333
-0.0015333
0.0015333
-0.0015333
0.0015333
-0.0015333
0.0015333
-0.0015333
0.0015333
-0.0015333
0.0015333
-0.0015333
0.0015333
-0.0015333
0.0015333
-0.0015333
0.0015333
-0.0015333
0.0015333
-0.0015333
0.0015333
-0.0015333
0.0015333
-0.0015333
0.0015333
-0.0015333
0.0015333
-0.0015333
0.0015333
-0.0015333
0.0015333
-0.0015333
0.0015333
-0.0015333
0.0015333
-0.0015333
0.0015333
-0.0015333
0.0015333
-0.0015333
0.0015333
-0.0015333
0.0015333
-0.0015333
0.0015333
-0.0015333
0.0015333
-0.0015333
0.0015333
-0.0015333
0.0015333
-0.0015333
0.0015333
-0.00153331
0.00153319
-0.00153409
0.00152882
-0.00155174
0.00148333
-0.00159898
0.00156729
-0.00139711
0.00124492
-0.00208489
0.0023169
-0.00156895
0.000141797
-1.95015e-05
-0.00228728
-0.0906281
-0.0906281
1
0.602007
0.498147
0.443162
0.458584
0.511713
0.481928
0.585189
0.701199
0.603154
0.355607
0.159147
0.0529083
0.0173789
0.00203912
0.0025434
-0.0016026
0.00177306
-0.00174547
0.0017495
-0.00174897
0.00174903
-0.00174903
0.00174903
-0.00174903
0.00174903
-0.00174903
0.00174903
-0.00174903
0.00174903
-0.00174903
0.00174903
-0.00174903
0.00174903
-0.00174903
0.00174903
-0.00174903
0.00174903
-0.00174903
0.00174903
-0.00174903
0.00174903
-0.00174903
0.00174903
-0.00174903
0.00174903
-0.00174903
0.00174903
-0.00174903
0.00174903
-0.00174903
0.00174903
-0.00174903
0.00174903
-0.00174903
0.00174903
-0.00174903
0.00174903
-0.00174903
0.00174903
-0.00174903
0.00174903
-0.00174903
0.00174903
-0.00174903
0.00174903
-0.00174903
0.00174903
-0.00174903
0.00174903
-0.00174903
0.00174903
-0.00174903
0.00174903
-0.00174903
0.00174903
-0.00174903
0.00174903
-0.00174903
0.00174903
-0.00174903
0.00174902
-0.00174904
0.00174886
-0.0017502
0.00174243
-0.00177628
0.00167406
-0.00185385
0.00177705
-0.00156142
0.00137012
-0.00258172
0.00269617
-0.00166703
-0.000241769
9.41628e-05
-0.00157543
0.117283
0.117283
1
0.791775
0.689554
0.632869
0.645731
0.702218
0.678089
0.777149
0.868432
0.72384
0.423624
0.189477
0.0636213
0.0207213
0.00274537
0.00283727
-0.00168131
0.0018926
-0.0018581
0.00186319
-0.0018625
0.00186259
-0.00186258
0.00186258
-0.00186258
0.00186258
-0.00186258
0.00186258
-0.00186258
0.00186258
-0.00186258
0.00186258
-0.00186258
0.00186258
-0.00186258
0.00186258
-0.00186258
0.00186258
-0.00186258
0.00186258
-0.00186258
0.00186258
-0.00186258
0.00186258
-0.00186258
0.00186258
-0.00186258
0.00186258
-0.00186258
0.00186258
-0.00186258
0.00186258
-0.00186258
0.00186258
-0.00186258
0.00186258
-0.00186258
0.00186258
-0.00186258
0.00186258
-0.00186258
0.00186258
-0.00186258
0.00186258
-0.00186258
0.00186258
-0.00186258
0.00186258
-0.00186258
0.00186258
-0.00186258
0.00186258
-0.00186258
0.00186258
-0.00186258
0.00186258
-0.00186258
0.00186258
-0.00186258
0.00186258
-0.00186258
0.00186258
-0.0018626
0.00186238
-0.00186403
0.00185458
-0.00189505
0.00177466
-0.00198494
0.00188491
-0.00167834
0.00142637
-0.00275315
0.00280904
-0.00188856
-0.000129464
-0.000149199
-0.0021142
-0.101433
-0.101433
1
0.923668
0.841407
0.791828
0.793683
0.851233
0.826064
0.8972
0.956835
0.789769
0.465569
0.21099
0.0718151
0.0237049
0.00323476
0.00326057
-0.00189793
0.00215017
-0.00210848
0.00211469
-0.00211385
0.00211396
-0.00211394
0.00211395
-0.00211395
0.00211395
-0.00211395
0.00211395
-0.00211395
0.00211395
-0.00211395
0.00211395
-0.00211395
0.00211395
-0.00211395
0.00211395
-0.00211395
0.00211395
-0.00211395
0.00211395
-0.00211395
0.00211395
-0.00211395
0.00211395
-0.00211395
0.00211395
-0.00211395
0.00211395
-0.00211395
0.00211395
-0.00211395
0.00211395
-0.00211395
0.00211395
-0.00211395
0.00211395
-0.00211395
0.00211395
-0.00211395
0.00211395
-0.00211395
0.00211395
-0.00211395
0.00211395
-0.00211395
0.00211395
-0.00211395
0.00211395
-0.00211395
0.00211395
-0.00211395
0.00211395
-0.00211395
0.00211395
-0.00211395
0.00211395
-0.00211395
0.00211395
-0.00211395
0.00211395
-0.00211395
0.00211394
-0.00211397
0.0021137
-0.00211566
0.0021047
-0.0021504
0.00201855
-0.00224057
0.00214015
-0.0019562
0.0016122
-0.00294737
0.00306574
-0.00241475
0.00037703
-0.000566938
-0.00061535
0.111446
0.111446
1
1.01069
0.955715
0.916464
0.904434
0.959817
0.927104
0.963733
0.998231
0.827156
0.495569
0.229068
0.079322
0.0266662
0.00372199
0.00372022
-0.0021356
0.00243309
-0.00238326
0.00239078
-0.00238975
0.00238988
-0.00238986
0.00238986
-0.00238986
0.00238986
-0.00238986
0.00238986
-0.00238986
0.00238986
-0.00238986
0.00238986
-0.00238986
0.00238986
-0.00238986
0.00238986
-0.00238986
0.00238986
-0.00238986
0.00238986
-0.00238986
0.00238986
-0.00238986
0.00238986
-0.00238986
0.00238986
-0.00238986
0.00238986
-0.00238986
0.00238986
-0.00238986
0.00238986
-0.00238986
0.00238986
-0.00238986
0.00238986
-0.00238986
0.00238986
-0.00238986
0.00238986
-0.00238986
0.00238986
-0.00238986
0.00238986
-0.00238986
0.00238986
-0.00238986
0.00238986
-0.00238986
0.00238986
-0.00238986
0.00238986
-0.00238986
0.00238986
-0.00238986
0.00238986
-0.00238986
0.00238986
-0.00238986
0.00238986
-0.00238986
0.00238986
-0.0023899
0.00238957
-0.00239187
0.00237937
-0.00242987
0.00228961
-0.00251337
0.00242752
-0.00226576
0.0018179
-0.00311854
0.00336954
-0.00300937
0.00098276
-0.000982166
-0.00100664
-0.10473
-0.10473
1
1.06434
1.03608
1.00786
0.982547
1.03215
0.990387
0.996129
1.01418
0.849866
0.519946
0.245696
0.0868462
0.0296336
0.0043541
0.00410735
-0.00227769
0.00262622
-0.00256704
0.00257609
-0.00257483
0.00257499
-0.00257497
0.00257497
-0.00257497
0.00257497
-0.00257497
0.00257497
-0.00257497
0.00257497
-0.00257497
0.00257497
-0.00257497
0.00257497
-0.00257497
0.00257497
-0.00257497
0.00257497
-0.00257497
0.00257497
-0.00257497
0.00257497
-0.00257497
0.00257497
-0.00257497
0.00257497
-0.00257497
0.00257497
-0.00257497
0.00257497
-0.00257497
0.00257497
-0.00257497
0.00257497
-0.00257497
0.00257497
-0.00257497
0.00257497
-0.00257497
0.00257497
-0.00257497
0.00257497
-0.00257497
0.00257497
-0.00257497
0.00257497
-0.00257497
0.00257497
-0.00257497
0.00257497
-0.00257497
0.00257497
-0.00257497
0.00257497
-0.00257497
0.00257497
-0.00257497
0.00257497
-0.00257497
0.00257497
-0.00257497
0.00257497
-0.00257502
0.00257462
-0.00257729
0.00256319
-0.00261835
0.00247138
-0.00269125
0.00262765
-0.00248666
0.00193879
-0.00317942
0.0035795
-0.00348484
0.00151763
-0.00130329
0.000366985
0.10947
0.10947
1
1.09398
1.08755
1.07009
1.03372
1.07518
1.02714
1.00929
1.01738
0.864741
0.541311
0.261561
0.0946032
0.0326048
0.00518267
0.00438246
-0.00228163
0.00268775
-0.00261782
0.00262865
-0.00262713
0.00262733
-0.0026273
0.00262731
-0.00262731
0.00262731
-0.00262731
0.00262731
-0.00262731
0.00262731
-0.00262731
0.00262731
-0.00262731
0.00262731
-0.00262731
0.00262731
-0.00262731
0.00262731
-0.00262731
0.00262731
-0.00262731
0.00262731
-0.00262731
0.00262731
-0.00262731
0.00262731
-0.00262731
0.00262731
-0.00262731
0.00262731
-0.00262731
0.00262731
-0.00262731
0.00262731
-0.00262731
0.00262731
-0.00262731
0.00262731
-0.00262731
0.00262731
-0.00262731
0.00262731
-0.00262731
0.00262731
-0.00262731
0.00262731
-0.00262731
0.00262731
-0.00262731
0.00262731
-0.00262731
0.00262731
-0.00262731
0.00262731
-0.00262731
0.00262731
-0.00262731
0.00262731
-0.00262731
0.00262731
-0.00262731
0.0026273
-0.00262736
0.00262689
-0.00262997
0.00261418
-0.0026739
0.0025215
-0.00273388
0.00269548
-0.00257633
0.00193982
-0.00309756
0.00363255
-0.00377427
0.0019298
-0.00154256
-0.000217441
-0.106
-0.106
1
1.10694
1.11605
1.10858
1.06409
1.0968
1.04706
1.01283
1.01464
0.875026
0.560654
0.276862
0.102616
0.0355892
0.00620603
0.00455107
-0.00215125
0.00262207
-0.00253985
0.00255276
-0.00255092
0.00255116
-0.00255114
0.00255114
-0.00255114
0.00255114
-0.00255114
0.00255114
-0.00255114
0.00255114
-0.00255114
0.00255114
-0.00255114
0.00255114
-0.00255114
0.00255114
-0.00255114
0.00255114
-0.00255114
0.00255114
-0.00255114
0.00255114
-0.00255114
0.00255114
-0.00255114
0.00255114
-0.00255114
0.00255114
-0.00255114
0.00255114
-0.00255114
0.00255114
-0.00255114
0.00255114
-0.00255114
0.00255114
-0.00255114
0.00255114
-0.00255114
0.00255114
-0.00255114
0.00255114
-0.00255114
0.00255114
-0.00255114
0.00255114
-0.00255114
0.00255114
-0.00255114
0.00255114
-0.00255114
0.00255114
-0.00255114
0.00255114
-0.00255114
0.00255114
-0.00255114
0.00255114
-0.00255114
0.00255114
-0.00255114
0.00255113
-0.0025512
0.00255065
-0.00255418
0.00253663
-0.00260078
0.00244416
-0.00264639
0.00263336
-0.00253931
0.00182807
-0.00288152
0.0035245
-0.00387862
0.00221633
-0.00169743
0.000975601
0.108595
0.108595
1
1.10886
1.12752
1.12894
1.07956
1.10414
1.05706
1.01225
1.00942
0.88227
0.578324
0.291631
0.110842
0.0385998
0.0074047
0.00463357
-0.00190575
0.00244887
-0.00235269
0.002368
-0.00236579
0.00236608
-0.00236605
0.00236605
-0.00236605
0.00236605
-0.00236605
0.00236605
-0.00236605
0.00236605
-0.00236605
0.00236605
-0.00236605
0.00236605
-0.00236605
0.00236605
-0.00236605
0.00236605
-0.00236605
0.00236605
-0.00236605
0.00236605
-0.00236605
0.00236605
-0.00236605
0.00236605
-0.00236605
0.00236605
-0.00236605
0.00236605
-0.00236605
0.00236605
-0.00236605
0.00236605
-0.00236605
0.00236605
-0.00236605
0.00236605
-0.00236605
0.00236605
-0.00236605
0.00236605
-0.00236605
0.00236605
-0.00236605
0.00236605
-0.00236605
0.00236605
-0.00236605
0.00236605
-0.00236605
0.00236605
-0.00236605
0.00236605
-0.00236605
0.00236605
-0.00236605
0.00236605
-0.00236605
0.00236605
-0.00236605
0.00236604
-0.00236612
0.00236549
-0.00236948
0.00235012
-0.00241853
0.00225891
-0.00244886
0.00245982
-0.00239506
0.0016236
-0.00255495
0.00327501
-0.00381971
0.00238335
-0.00179262
0.000234915
-0.106638
-0.106638
1
1.10395
1.12736
1.13629
1.08519
1.10276
1.0615
1.01035
1.00338
0.887265
0.59444
0.305839
0.119221
0.041647
0.00875595
0.00465219
-0.00156644
0.00218994
-0.00207797
0.00209603
-0.00209339
0.00209374
-0.0020937
0.0020937
-0.0020937
0.0020937
-0.0020937
0.0020937
-0.0020937
0.0020937
-0.0020937
0.0020937
-0.0020937
0.0020937
-0.0020937
0.0020937
-0.0020937
0.0020937
-0.0020937
0.0020937
-0.0020937
0.0020937
-0.0020937
0.0020937
-0.0020937
0.0020937
-0.0020937
0.0020937
-0.0020937
0.0020937
-0.0020937
0.0020937
-0.0020937
0.0020937
-0.0020937
0.0020937
-0.0020937
0.0020937
-0.0020937
0.0020937
-0.0020937
0.0020937
-0.0020937
0.0020937
-0.0020937
0.0020937
-0.0020937
0.0020937
-0.0020937
0.0020937
-0.0020937
0.0020937
-0.0020937
0.0020937
-0.0020937
0.0020937
-0.0020937
0.0020937
-0.0020937
0.0020937
-0.00209371
0.00209369
-0.00209379
0.00209305
-0.00209756
0.00207635
-0.00214878
0.0019874
-0.00216334
0.00219597
-0.00216463
0.00134756
-0.00214405
0.00290982
-0.00362173
0.00243685
-0.00181597
0.00129198
0.108112
0.108112
1
1.09528
1.11999
1.13494
1.08491
1.0965
1.06285
1.0084
0.997339
0.890489
0.60905
0.319445
0.127688
0.0447385
0.0102365
0.00462873
-0.00115445
0.00186682
-0.0017371
0.0017583
-0.00175516
0.00175558
-0.00175553
0.00175554
-0.00175554
0.00175554
-0.00175554
0.00175554
-0.00175554
0.00175554
-0.00175554
0.00175554
-0.00175554
0.00175554
-0.00175554
0.00175554
-0.00175554
0.00175554
-0.00175554
0.00175554
-0.00175554
0.00175554
-0.00175554
0.00175554
-0.00175554
0.00175554
-0.00175554
0.00175554
-0.00175554
0.00175554
-0.00175554
0.00175554
-0.00175554
0.00175554
-0.00175554
0.00175554
-0.00175554
0.00175554
-0.00175554
0.00175554
-0.00175554
0.00175554
-0.00175554
0.00175554
-0.00175554
0.00175554
-0.00175554
0.00175554
-0.00175554
0.00175554
-0.00175554
0.00175554
-0.00175554
0.00175554
-0.00175554
0.00175554
-0.00175554
0.00175554
-0.00175554
0.00175554
-0.00175554
0.00175552
-0.00175564
0.00175479
-0.00175984
0.00173676
-0.00181291
0.00165104
-0.00181158
0.00186299
-0.00186852
0.00102044
-0.00167477
0.00245593
-0.00330872
0.00238456
-0.00178653
0.000430915
-0.107011
-0.107011
1
1.08498
1.10881
1.12821
1.08146
1.08785
1.06243
1.00691
0.991689
0.892287
0.622193
0.332413
0.136177
0.0478811
0.0118224
0.00458481
-0.000690931
0.00150107
-0.00135148
0.00137625
-0.00137254
0.00137305
-0.00137298
0.00137299
-0.00137299
0.00137299
-0.00137299
0.00137299
-0.00137299
0.00137299
-0.00137299
0.00137299
-0.00137299
0.00137299
-0.00137299
0.00137299
-0.00137299
0.00137299
-0.00137299
0.00137299
-0.00137299
0.00137299
-0.00137299
0.00137299
-0.00137299
0.00137299
-0.00137299
0.00137299
-0.00137299
0.00137299
-0.00137299
0.00137299
-0.00137299
0.00137299
-0.00137299
0.00137299
-0.00137299
0.00137299
-0.00137299
0.00137299
-0.00137299
0.00137299
-0.00137299
0.00137299
-0.00137299
0.00137299
-0.00137299
0.00137299
-0.00137299
0.00137299
-0.00137299
0.00137299
-0.00137299
0.00137299
-0.00137299
0.00137299
-0.00137299
0.00137299
-0.00137299
0.00137299
-0.00137299
0.00137298
-0.00137311
0.00137214
-0.00137776
0.0013528
-0.00143233
0.00127124
-0.00141535
0.00148225
-0.00152708
0.000662437
-0.00117253
0.0019408
-0.00290555
0.00223843
-0.00169357
0.00138233
0.107822
0.107822
1
1.07443
1.09617
1.11852
1.07659
1.07828
1.06089
1.00598
0.986618
0.892945
0.633914
0.344715
0.144625
0.0510799
0.0134891
0.0045417
-0.000196907
0.00111407
-0.000942347
0.000971167
-0.000966792
0.000967397
-0.00096732
0.000967329
-0.000967328
0.000967329
-0.000967329
0.000967329
-0.000967329
0.000967329
-0.000967329
0.000967329
-0.000967329
0.000967329
-0.000967329
0.000967329
-0.000967329
0.000967329
-0.000967329
0.000967329
-0.000967329
0.000967329
-0.000967329
0.000967329
-0.000967329
0.000967329
-0.000967329
0.000967329
-0.000967329
0.000967329
-0.000967329
0.000967329
-0.000967329
0.000967329
-0.000967329
0.000967329
-0.000967329
0.000967329
-0.000967329
0.000967329
-0.000967329
0.000967329
-0.000967329
0.000967329
-0.000967329
0.000967329
-0.000967329
0.000967329
-0.000967329
0.000967329
-0.000967329
0.000967329
-0.000967329
0.000967329
-0.000967329
0.000967329
-0.000967329
0.000967329
-0.000967329
0.000967328
-0.00096733
0.000967313
-0.000967465
0.000966371
-0.000972584
0.000945767
-0.00102828
0.000869201
-0.000996213
0.00107508
-0.00116049
0.000293327
-0.00066172
0.00139177
-0.0024381
0.00201435
-0.00156065
0.000430166
-0.107233
-0.107233
1
1.06444
1.08362
1.10748
1.0713
1.06866
1.05857
1.00556
0.982214
0.892715
0.644272
0.356332
0.152969
0.0543386
0.0152129
0.00451931
0.000307668
0.000726065
-0.00052983
0.000563203
-0.000558071
0.000558791
-0.000558698
0.000558709
-0.000558708
0.000558708
-0.000558708
0.000558708
-0.000558708
0.000558708
-0.000558708
0.000558708
-0.000558708
0.000558708
-0.000558708
0.000558708
-0.000558708
0.000558708
-0.000558708
0.000558708
-0.000558708
0.000558708
-0.000558708
0.000558708
-0.000558708
0.000558708
-0.000558708
0.000558708
-0.000558708
0.000558708
-0.000558708
0.000558708
-0.000558708
0.000558708
-0.000558708
0.000558708
-0.000558708
0.000558708
-0.000558708
0.000558708
-0.000558708
0.000558708
-0.000558708
0.000558708
-0.000558708
0.000558708
-0.000558708
0.000558708
-0.000558708
0.000558708
-0.000558708
0.000558708
-0.000558708
0.000558708
-0.000558708
0.000558708
-0.000558708
0.000558708
-0.000558708
0.000558708
-0.00055871
0.00055869
-0.000558865
0.000557632
-0.00056446
0.000535825
-0.000620886
0.000464996
-0.000574585
0.000661824
-0.000787941
-6.84407e-05
-0.000164724
0.000834927
-0.00193232
0.00173089
-0.00138129
0.00130587
0.107655
0.107655
1
1.05541
1.07202
1.09613
1.06611
1.05946
1.05566
1.00556
0.978505
0.891821
0.653339
0.367257
0.161155
0.0576584
0.0169714
0.00453531
0.000804873
0.000355234
-0.000131966
0.000170441
-0.000164449
0.000165299
-0.000165189
0.000165202
-0.0001652
0.000165201
-0.000165201
0.000165201
-0.000165201
0.000165201
-0.000165201
0.000165201
-0.000165201
0.000165201
-0.000165201
0.000165201
-0.000165201
0.000165201
-0.000165201
0.000165201
-0.000165201
0.000165201
-0.000165201
0.000165201
-0.000165201
0.000165201
-0.000165201
0.000165201
-0.000165201
0.000165201
-0.000165201
0.000165201
-0.000165201
0.000165201
-0.000165201
0.000165201
-0.000165201
0.000165201
-0.000165201
0.000165201
-0.000165201
0.000165201
-0.000165201
0.000165201
-0.000165201
0.000165201
-0.000165201
0.000165201
-0.000165201
0.000165201
-0.000165201
0.000165201
-0.000165201
0.000165201
-0.000165201
0.000165201
-0.000165201
0.000165201
-0.000165201
0.0001652
-0.000165203
0.000165179
-0.00016538
0.000163999
-0.000171457
0.000141065
-0.000228206
7.66108e-05
-0.00016879
0.00026081
-0.000426648
-0.000406671
0.000299042
0.000293905
-0.00141288
0.00140744
-0.00118184
0.000292984
-0.107356
-0.107356
1
1.04749
1.06177
1.08507
1.06124
1.05094
1.05228
1.00584
0.975483
0.89046
0.661196
0.377489
0.169133
0.0610372
0.0187447
0.00460427
0.00127962
1.68512e-05
0.000236083
-0.000191921
0.000198886
-0.000197885
0.000198017
-0.000198001
0.000198003
-0.000198003
0.000198003
-0.000198003
0.000198003
-0.000198003
0.000198003
-0.000198003
0.000198003
-0.000198003
0.000198003
-0.000198003
0.000198003
-0.000198003
0.000198003
-0.000198003
0.000198003
-0.000198003
0.000198003
-0.000198003
0.000198003
-0.000198003
0.000198003
-0.000198003
0.000198003
-0.000198003
0.000198003
-0.000198003
0.000198003
-0.000198003
0.000198003
-0.000198003
0.000198003
-0.000198003
0.000198003
-0.000198003
0.000198003
-0.000198003
0.000198003
-0.000198003
0.000198003
-0.000198003
0.000198003
-0.000198003
0.000198003
-0.000198003
0.000198003
-0.000198003
0.000198003
-0.000198003
0.000198003
-0.000198003
0.000198003
-0.000198003
0.000198003
-0.000198003
0.000198
-0.000198028
0.000197799
-0.000199337
0.000191237
-0.000223309
0.000134579
-0.000280867
0.000205769
-0.000112433
-9.11342e-05
-0.000708156
0.000713866
-0.000211126
-0.000902007
0.00106297
-0.000957044
0.00112324
0.10757
0.10757
1
1.04066
1.053
1.07464
1.05675
1.04323
1.04854
1.00631
0.973115
0.888803
0.667934
0.387033
0.176859
0.06447
0.0205159
0.00473727
0.00172004
-0.000277105
0.000562448
-0.000511974
0.000520035
-0.000518863
0.000519019
-0.000519
0.000519002
-0.000519002
0.000519002
-0.000519002
0.000519002
-0.000519002
0.000519002
-0.000519002
0.000519002
-0.000519002
0.000519002
-0.000519002
0.000519002
-0.000519002
0.000519002
-0.000519002
0.000519002
-0.000519002
0.000519002
-0.000519002
0.000519002
-0.000519002
0.000519002
-0.000519002
0.000519002
-0.000519002
0.000519002
-0.000519002
0.000519002
-0.000519002
0.000519002
-0.000519002
0.000519002
-0.000519002
0.000519002
-0.000519002
0.000519002
-0.000519002
0.000519002
-0.000519002
0.000519002
-0.000519002
0.000519002
-0.000519002
0.000519002
-0.000519002
0.000519002
-0.000519002
0.000519002
-0.000519002
0.000519002
-0.000519002
0.000519002
-0.000519002
0.000519002
-0.000519002
0.000518999
-0.000519031
0.000518771
-0.000520474
0.000511727
-0.000545381
0.00045557
-0.000595646
0.000537013
-0.000445617
0.000207193
-0.000963007
0.00106805
-0.000664014
-0.000418688
0.00071478
-0.000733161
7.89349e-05
-0.107411
-0.107411
1
1.03481
1.04563
1.06499
1.0526
1.03639
1.04454
1.00687
0.97135
0.886994
0.673649
0.395901
0.184297
0.0679484
0.022271
0.00494172
0.00211772
-0.000518154
0.000838745
-0.000781296
0.000790586
-0.000789219
0.000789403
-0.000789381
0.000789383
-0.000789383
0.000789383
-0.000789383
0.000789383
-0.000789383
0.000789383
-0.000789383
0.000789383
-0.000789383
0.000789383
-0.000789383
0.000789383
-0.000789383
0.000789383
-0.000789383
0.000789383
-0.000789383
0.000789383
-0.000789383
0.000789383
-0.000789383
0.000789383
-0.000789383
0.000789383
-0.000789383
0.000789383
-0.000789383
0.000789383
-0.000789383
0.000789383
-0.000789383
0.000789383
-0.000789383
0.000789383
-0.000789383
0.000789383
-0.000789383
0.000789383
-0.000789383
0.000789383
-0.000789383
0.000789383
-0.000789383
0.000789383
-0.000789383
0.000789383
-0.000789383
0.000789383