# vtk DataFile Version 2.0
FlowField
ASCII
DATASET STRUCTURED_GRID
DIMENSIONS 100 1 100
POINTS 10000 float
0 0 0
0.01 0 0
0.02 0 0
0.03 0 0
0.04 0 0
0.05 0 0
0.06 0 0
0.07 0 0
0.08 0 0
0.09 0 0
0.1 0 0
0.11 0 0
0.12 0 0
0.13 0 0
0.14 0 0
0.15 0 0
0.16 0 0
0.17 0 0
0.18 0 0
0.19 0 0
0.2 0 0
0.21 0 0
0.22 0 0
0.23 0 0
0.24 0 0
0.25 0 0
0.26 0 0
0.27 0 0
0.28 0 0
0.29 0 0
0.3 0 0
0.31 0 0
0.32 0 0
0.33 0 0
0.34 0 0
0.35 0 0
0.36 0 0
0.37 0 0
0.38 0 0
0.39 0 0
0.4 0 0
0.41 0 0
0.42 0 0
0.43 0 0
0.44 0 0
0.45 0 0
0.46 0 0
0.47 0 0
0.48 0 0
0.49 0 0
0.5 0 0
0.51 0 0
0.52 0 0
0.53 0 0
0.54 0 0
0.55 0 0
0.56 0 0
0.57 0 0
0.58 0 0
0.59 0 0
0.6 0 0
0.61 0 0
0.62 0 0
0.63 0 0
0.64 0 0
0.65 0 0
0.66 0 0
0.67 0 0
0.68 0 0
0.69 0 0
0.7 0 0
0.71 0 0
0.72 0 0
0.73 0 0
0.74 0 0
0.75 0 0
0.76 0 0
0.77 0 0
0.78 0 0
0.79 0 0
0.8 0 0
0.81 0 0
0.82 0 0
0.83 0 0
0.84 0 0
0.85 0 0
0.86 0 0
0.87 0 0
0.88 0 0
0.89 0 0
0.9 0 0
0.91 0 0
0.92 0 0
0.93 0 0
0.94 0 0
0.95 0 0
0.96 0 0
0.97 0 0
0.98 0 0
0.99 0 0
0 0.001 0
0.01 0.001 0
0.02 0.001 0
0.03 0.001 0
0.04 0.001 0
0.05 0.001 0
0.06 0.001 0
0.07 0.001 0
0.08 0.001 0
0.09 0.001 0
0.1 0.001 0
0.11 0.001 0
0.12 0.001 0
0.13 0.001 0
0.14 0.001 0
0.15 0.001 0
0.16 0.001 0
0.17 0.001 0
0.18 0.001 0
0.19 0.001 0
0.2 0.001 0
0.21 0.001 0
0.22 0.001 0
0.23 0.001 0
0.24 0.001 0
0.25 0.001 0
0.26 0.001 0
0.27 0.001 0
0.28 0.001 0
0.29 0.001 0
0.3 0.001 0
0.31 0.001 0
0.32 0.001 0
0.33 0.001 0
0.34 0.001 0
0.35 0.001 0
0.36 0.001 0
0.37 0.001 0
0.38 0.001 0
0.39 0.001 0
0.4 0.001 0
0.41 0.001 0
0.42 0.001 0
0.43 0.001 0
0.44 0.001 0
0.45 0.001 0
0.46 0.001 0
0.47 0.001 0
0.48 0.001 0
0.49 0.001 0
0.5 0.001 0
0.51 0.001 0
0.52 0.001 0
0.53 0.001 0
0.54 0.001 0
0.55 0.001 0
0.56 0.001 0
0.57 0.001 0
0.58 0.001 0
0.59 0.001 0
0.6 0.001 0
0.61 0.001 0
0.62 0.001 0
0.63 0.001 0
0.64 0.001 0
0.65 0.001 0
0.66 0.001 0
0.67 0.001 0
0.68 0.001 0
0.69 0.001 0
0.7 0.001 0
0.71 0.001 0
0.72 0.001 0
0.73 0.001 0
0.74 0.001 0
0.75 0.001 0
0.76 0.001 0
0.77 0.001 0
0.78 0.001 0
0.79 0.001 0
0.8 0.001 0
0.81 0.001 0
0.82 0.001 0
0.83 0.001 0
0.84 0.001 0
0.85 0.001 0
0.86 0.001 0
0.87 0.001 0
0.88 0.001 0
0.89 0.001 0
0.9 0.001 0
0.91 0.001 0
0.92 0.001 0
0.93 0.001 0
0.94 0.001 0
0.95 0.001 0
0.96 0.001 0
0.97 0.001 0
0.98 0.001 0
0.99 0.001 0
0 0.002 0
0.01 0.002 0
0.02 0.002 0
0.03 0.002 0
0.04 0.002 0
0.05 0.002 0
0.06 0.002 0
0.07 0.002 0
0.08 0.002 0
0.09 0.002 0
0.1 0.002 0
0.11 0.002 0
0.12 0.002 0
0.13 0.002 0
0.14 0.002 0
0.15 0.002 0
0.16 0.002 0
0.17 0.002 0
0.18 0.002 0
0.19 0.002 0
0.2 0.002 0
0.21 0.002 0
0.22 0.002 0
0.23 0.002 0
0.24 0.002 0
0.25 0.002 0
0.26 0.002 0
0.27 0.002 0
0.28 0.002 0
0.29 0.002 0
0.3 0.002 0
0.31 0.002 0
0.32 0.002 0
0.33 0.002 0
0.34 0.002 0
0.35 0.002 0
0.36 0.002 0
0.37 0.002 0
0.38 0.002 0
0.39 0.002 0
0.4 0.002 0
0.41 0.002 0
0.42 0.002 0
0.43 0.002 0
0.44 0.002 0
0.45 0.002 0
0.46 0.002 0
0.47 0.002 0
0.48 0.002 0
0.49 0.002 0
0.5 0.002 0
0.51 0.002 0
0.52 0.002 0
0.53 0.002 0
0.54 0.002 0
0.55 0.002 0
0.56 0.002 0
0.57 0.002 0
0.58 0.002 0
0.59 0.002 0
0.6 0.002 0
0.61 0.002 0
0.62 0.002 0
0.63 0.002 0
0.64 0.002 0
0.65 0.002 0
0.66 0.002 0
0.67 0.002 0
0.68 0.002 0
0.69 0.002 0
0.7 0.002 0
0.71 0.002 0
0.72 0.002 0
0.73 0.002 0
0.74 0.002 0
0.75 0.002 0
0.76 0.002 0
0.77 0.002 0
0.78 0.002 0
0.79 0.002 0
0.8 0.002 0
0.81 0.002 0
0.82 0.002 0
0.83 0.002 0
0.84 0.002 0
0.85 0.002 0
0.86 0.002 0
0.87 0.002 0
0.88 0.002 0
0.89 0.002 0
0.9 0.002 0
0.91 0.002 0
0.92 0.002 0
0.93 0.002 0
0.94 0.002 0
0.95 0.002 0
0.96 0.002 0
0.97 0.002 0
0.98 0.002 0
0.99 0.002 0
0 0.003 0
0.01 0.003 0
0.02 0.003 0
0.03 0.003 0
0.04 0.003 0
0.05 0.003 0
0.06 0.003 0
0.07 0.003 0
0.08 0.003 0
0.09 0.003 0
0.1 0.003 0
0.11 0.003 0
0.12 0.003 0
0.13 0.003 0
0.14 0.003 0
0.15 0.003 0
0.16 0.003 0
0.17 0.003 0
0.18 0.003 0
0.19 0.003 0
0.2 0.003 0
0.21 0.003 0
0.22 0.003 0
0.23 0.003 0
0.24 0.003 0
0.25 0.003 0
0.26 0.003 0
0.27 0.003 0
0.28 0.003 0
0.29 0.003 0
0.3 0.003 0
0.31 0.003 0
0.32 0.003 0
0.33 0.003 0
0.34 0.003 0
0.35 0.003 0
0.36 0.003 0
0.37 0.003 0
0.38 0.003 0
0.39 0.003 0
0.4 0.003 0
0.41 0.003 0
0.42 0.003 0
0.43 0.003 0
0.44 0.003 0
0.45 0.003 0
0.46 0.003 0
0.47 0.003 0
0.48 0.003 0
0.49 0.003 0
0.5 0.003 0
0.51 0.003 0
0.52 0.003 0
0.53 0.003 0
0.54 0.003 0
0.55 0.003 0
0.56 0.003 0
0.57 0.003 0
0.58 0.003 0
0.59 0.003 0
0.6 0.003 0
0.61 0.003 0
0.62 0.003 0
0.63 0.003 0
0.64 0.003 0
0.65 0.003 0
0.66 0.003 0
0.67 0.003 0
0.68 0.003 0
0.69 0.003 0
0.7 0.003 0
0.71 0.003 0
0.72 0.003 0
0.73 0.003 0
0.74 0.003 0
0.75 0.003 0
0.76 0.003 0
0.77 0.003 0
0.78 0.003 0
0.79 0.003 0
0.8 0.003 0
0.81 0.003 0
0.82 0.003 0
0.83 0.003 0
0.84 0.003 0
0.85 0.003 0
0.86 0.003 0
0.87 0.003 0
0.88 0.003 0
0.89 0.003 0
0.9 0.003 0
0.91 0.003 0
0.92 0.003 0
0.93 0.003 0
0.94 0.003 0
0.95 0.003 0
0.96 0.003 0
0.97 0.003 0
0.98 0.003 0
0.99 0.003 0
0 0.004 0
0.01 0.004 0
0.02 0.004 0
0.03 0.004 0
0.04 0.004 0
0.05 0.004 0
0.06 0.004 0
0.07 0.004 0
0.08 0.004 0
0.09 0.004 0
0.1 0.004 0
0.11 0.004 0
0.12 0.004 0
0.13 0.004 0
0.14 0.004 0
0.15 0.004 0
0.16 0.004 0
0.17 0.004 0
0.18 0.004 0
0.19 0.004 0
0.2 0.004 0
0.21 0.004 0
0.22 0.004 0
0.23 0.004 0
0.24 0.004 0
0.25 0.004 0
0.26 0.004 0
0.27 0.004 0
0.28 0.004 0
0.29 0.004 0
0.3 0.004 0
0.31 0.004 0
0.32 0.004 0
0.33 0.004 0
0.34 0.004 0
0.35 0.004 0
0.36 0.004 0
0.37 0.004 0
0.38 0.004 0
0.39 0.004 0
0.4 0.004 0
0.41 0.004 0
0.42 0.004 0
0.43 0.004 0
0.44 0.004 0
0.45 0.004 0
0.46 0.004 0
0.47 0.004 0
0.48 0.004 0
0.49 0.004 0
0.5 0.004 0
0.51 0.004 0
0.52 0.004 0
0.53 0.004 0
0.54 0.004 0
0.55 0.004 0
0.56 0.004 0
0.57 0.004 0
0.58 0.004 0
0.59 0.004 0
0.6 0.004 0
0.61 0.004 0
0.62 0.004 0
0.63 0.004 0
0.64 0.004 0
0.65 0.004 0
0.66 0.004 0
0.67 0.004 0
0.68 0.004 0
0.69 0.004 0
0.7 0.004 0
0.71 0.004 0
0.72 0.004 0
0.73 0.004 0
0.74 0.004 0
0.75 0.004 0
0.76 0.004 0
0.77 0.004 0
0.78 0.004 0
0.79 0.004 0
0.8 0.004 0
0.81 0.004 0
0.82 0.004 0
0.83 0.004 0
0.84 0.004 0
0.85 0.004 0
0.86 0.004 0
0.87 0.004 0
0.88 0.004 0
0.89 0.004 0
0.9 0.004 0
0.91 0.004 0
0.92 0.004 0
0.93 0.004 0
0.94 0.004 0
0.95 0.004 0
0.96 0.004 0
0.97 0.004 0
0.98 0.004 0
0.99 0.004 0
0 0.005 0
0.01 0.005 0
0.02 0.005 0
0.03 0.005 0
0.04 0.005 0
0.05 0.005 0
0.06 0.005 0
0.07 0.005 0
0.08 0.005 0
0.09 0.005 0
0.1 0.005 0
0.11 0.005 0
0.12 0.005 0
0.13 0.005 0
0.14 0.005 0
0.15 0.005 0
0.16 0.005 0
0.17 0.005 0
0.18 0.005 0
0.19 0.005 0
0.2 0.005 0
0.21 0.005 0
0.22 0.005 0
0.23 0.005 0
0.24 0.005 0
0.25 0.005 0
0.26 0.005 0
0.27 0.005 0
0.28 0.005 0
0.29 0.005 0
0.3 0.005 0
0.31 0.005 0
0.32 0.005 0
0.33 0.005 0
0.34 0.005 0
0.35 0.005 0
0.36 0.005 0
0.37 0.005 0
0.38 0.005 0
0.39 0.005 0
0.4 0.005 0
0.41 0.005 0
0.42 0.005 0
0.43 0.005 0
0.44 0.005 0
0.45 0.005 0
0.46 0.005 0
0.47 0.005 0
0.48 0.005 0
0.49 0.005 0
0.5 0.005 0
0.51 0.005 0
0.52 0.005 0
0.53 0.005 0
0.54 0.005 0
0.55 0.005 0
0.56 0.005 0
0.57 0.005 0
0.58 0.005 0
0.59 0.005 0
0.6 0.005 0
0.61 0.005 0
0.62 0.005 0
0.63 0.005 0
0.64 0.005 0
0.65 0.005 0
0.66 0.005 0
0.67 0.005 0
0.68 0.005 0
0.69 0.005 0
0.7 0.005 0
0.71 0.005 0
0.72 0.005 0
0.73 0.005 0
0.74 0.005 0
0.75 0.005 0
0.76 0.005 0
0.77 0.005 0
0.78 0.005 0
0.79 0.005 0
0.8 0.005 0
0.81 0.005 0
0.82 0.005 0
0.83 0.005 0
0.84 0.005 0
0.85 0.005 0
0.86 0.005 0
0.87 0.005 0
0.88 0.005 0
0.89 0.005 0
0.9 0.005 0
0.91 0.005 0
0.92 0.005 0
0.93 0.005 0
0.94 0.005 0
0.95 0.005 0
0.96 0.005 0
0.97 0.005 0
0.98 0.005 0
0.99 0.005 0
0 0.006 0
0.01 0.006 0
0.02 0.006 0
0.03 0.006 0
0.04 0.006 0
0.05 0.006 0
0.06 0.006 0
0.07 0.006 0
0.08 0.006 0
0.09 0.006 0
0.1 0.006 0
0.11 0.006 0
0.12 0.006 0
0.13 0.006 0
0.14 0.006 0
0.15 0.006 0
0.16 0.006 0
0.17 0.006 0
0.18 0.006 0
0.19 0.006 0
0.2 0.006 0
0.21 0.006 0
0.22 0.006 0
0.23 0.006 0
0.24 0.006 0
0.25 0.006 0
0.26 0.006 0
0.27 0.006 0
0.28 0.006 0
0.29 0.006 0
0.3 0.006 0
0.31 0.006 0
0.32 0.006 0
0.33 0.006 0
0.34 0.006 0
0.35 0.006 0
0.36 0.006 0
0.37 0.006 0
0.38 0.006 0
0.39 0.006 0
0.4 0.006 0
0.41 0.006 0
0.42 0.006 0
0.43 0.006 0
0.44 0.006 0
0.45 0.006 0
0.46 0.006 0
0.47 0.006 0
0.48 0.006 0
0.49 0.006 0
0.5 0.006 0
0.51 0.006 0
0.52 0.006 0
0.53 0.006 0
0.54 0.006 0
0.55 0.006 0
0.56 0.006 0
0.57 0.006 0
0.58 0.006 0
0.59 0.006 0
0.6 0.006 0
0.61 0.006 0
0.62 0.006 0
0.63 0.006 0
0.64 0.006 0
0.65 0.006 0
0.66 0.006 0
0.67 0.006 0
0.68 0.006 0
0.69 0.006 0
0.7 0.006 0
0.71 0.006 0
0.72 0.006 0
0.73 0.006 0
0.74 0.006 0
0.75 0.006 0
0.76 0.006 0
0.77 0.006 0
0.78 0.006 0
0.79 0.006 0
0.8 0.006 0
0.81 0.006 0
0.82 0.006 0
0.83 0.006 0
0.84 0.006 0
0.85 0.006 0
0.86 0.006 0
0.87 0.006 0
0.88 0.006 0
0.89 0.006 0
0.9 0.006 0
0.91 0.006 0
0.92 0.006 0
0.93 0.006 0
0.94 0.006 0
0.95 0.006 0
0.96 0.006 0
0.97 0.006 0
0.98 0.006 0
0.99 0.006 0
0 0.007 0
0.01 0.007 0
0.02 0.007 0
0.03 0.007 0
0.04 0.007 0
0.05 0.007 0
0.06 0.007 0
0.07 0.007 0
0.08 0.007 0
0.09 0.007 0
0.1 0.007 0
0.11 0.007 0
0.12 0.007 0
0.13 0.007 0
0.14 0.007 0
0.15 0.007 0
0.16 0.007 0
0.17 0.007 0
0.18 0.007 0
0.19 0.007 0
0.2 0.007 0
0.21 0.007 0
0.22 0.007 0
0.23 0.007 0
0.24 0.007 0
0.25 0.007 0
0.26 0.007 0
0.27 0.007 0
0.28 0.007 0
0.29 0.007 0
0.3 0.007 0
0.31 0.007 0
0.32 0.007 0
0.33 0.007 0
0.34 0.007 0
0.35 0.007 0
0.36 0.007 0
0.37 0.007 0
0.38 0.007 0
0.39 0.007 0
0.4 0.007 0
0.41 0.007 0
0.42 0.007 0
0.43 0.007 0
0.44 0.007 0
0.45 0.007 0
0.46 0.007 0
0.47 0.007 0
0.48 0.007 0
0.49 0.007 0
0.5 0.007 0
0.51 0.007 0
0.52 0.007 0
0.53 0.007 0
0.54 0.007 0
0.55 0.007 0
0.56 0.007 0
0.57 0.007 0
0.58 0.007 0
0.59 0.007 0
0.6 0.007 0
0.61 0.007 0
0.62 0.007 0
0.63 0.007 0
0.64 0.007 0
0.65 0.007 0
0.66 0.007 0
0.67 0.007 0
0.68 0.007 0
0.69 0.007 0
0.7 0.007 0
0.71 0.007 0
0.72 0.007 0
0.73 0.007 0
0.74 0.007 0
0.75 0.007 0
0.76 0.007 0
0.77 0.007 0
0.78 0.007 0
0.79 0.007 0
0.8 0.007 0
0.81 0.007 0
0.82 0.007 0
0.83 0.007 0
0.84 0.007 0
0.85 0.007 0
0.86 0.007 0
0.87 0.007 0
0.88 0.007 0
0.89 0.007 0
0.9 0.007 0
0.91 0.007 0
0.92 0.007 0
0.93 0.007 0
0.94 0.007 0
0.95 0.007 0
0.96 0.007 0
0.97 0.007 0
0.98 0.007 0
[...]
POINT_DATA 10000

SCALARS vel_X float 1
LOOKUP_TABLE default
0
0
0
0
0
0
0
0
0
0
0
0
0
0
0
0
0
0
0
0
0
0
0
0
0
0
0
0
0
0
0
0
0
0
0
0
0
0
0
0
0
0
0
0
0
0
0
0
0
0
0
0
0
0
0
0
0
0
0
0
0
0
0
0
0
0
0
0
0
0
0
0
0
0
0
0
0
0
0
0
0
0
0
0
0
0
0
0
0
0
0
0
0
0
0
0
0
0
0
0
1
0.342621
0.271318
0.226561
0.252159
0.275689
0.253109
0.344421
0.428137
0.354459
0.19907
0.0839862
0.0270271
0.00805729
0.00119659
0.000890663
-0.000480666
0.00055182
-0.000540777
0.000542325
-0.000542128
0.000542151
-0.000542148
0.000542149
-0.000542149
0.000542149
-0.000542149
0.000542149
-0.000542149
0.000542149
-0.000542149
0.000542149
-0.000542149
0.000542149
-0.000542149
0.000542149
-0.000542149
0.000542149
-0.000542149
0.000542149
-0.000542149
0.000542149
-0.000542149
0.000542149
-0.000542149
0.000542149
-0.000542149
0.000542149
-0.000542149
0.000542149
-0.000542149
0.000542149
-0.000542149
0.000542149
-0.000542149
0.000542149
-0.000542149
0.000542149
-0.000542149
0.000542149
-0.000542149
0.000542149
-0.000542149
0.000542149
-0.000542149
0.000542149
-0.000542149
0.000542149
-0.000542149
0.000542149
-0.000542149
0.000542149
-0.000542149
0.000542149
-0.000542149
0.000542149
-0.000542149
0.000542149
-0.000542149
0.000542149
-0.000542149
0.000542148
-0.000542155
0.000542085
-0.000542647
0.000539105
-0.000555933
0.000499859
-0.000612239
0.000541261
-0.000397125
0.0003919
-0.0011858
0.00104215
-7.16616e-05
-0.00111291
0.00075663
-0.00260218
-0.0888502
-0.0888502
1
0.604488
0.503976
0.440568
0.479822
0.508148
0.491744
0.621857
0.704645
0.552918
0.302674
0.125206
0.0404332
0.0115193
0.00212578
0.000945474
-0.000342603
0.000447261
-0.000431002
0.000433285
-0.000432993
0.000433027
-0.000433024
0.000433024
-0.000433024
0.000433024
-0.000433024
0.000433024
-0.000433024
0.000433024
-0.000433024
0.000433024
-0.000433024
0.000433024
-0.000433024
0.000433024
-0.000433024
0.000433024
-0.000433024
0.000433024
-0.000433024
0.000433024
-0.000433024
0.000433024
-0.000433024
0.000433024
-0.000433024
0.000433024
-0.000433024
0.000433024
-0.000433024
0.000433024
-0.000433024
0.000433024
-0.000433024
0.000433024
-0.000433024
0.000433024
-0.000433024
0.000433024
-0.000433024
0.000433024
-0.000433024
0.000433024
-0.000433024
0.000433024
-0.000433024
0.000433024
-0.000433024
0.000433024
-0.000433024
0.000433024
-0.000433024
0.000433024
-0.000433024
0.000433024
-0.000433024
0.000433024
-0.000433024
0.000433024
-0.000433024
0.000433023
-0.000433034
0.00043293
-0.000433758
0.000428548
-0.000453345
0.000369967
-0.000542029
0.000412238
-0.00024008
0.000246707
-0.00136338
0.000970139
0.000292682
-0.00181889
0.00103583
-0.00197029
0.114885
0.114885
1
0.794548
0.696634
0.631611
0.667824
0.700901
0.688747
0.811018
0.863279
0.661454
0.360069
0.149471
0.048426
0.014022
0.00250444
0.00124671
-0.000503865
0.000633982
-0.000613586
0.000616475
-0.000616102
0.000616147
-0.000616142
0.000616142
-0.000616142
0.000616142
-0.000616142
0.000616142
-0.000616142
0.000616142
-0.000616142
0.000616142
-0.000616142
0.000616142
-0.000616142
0.000616142
-0.000616142
0.000616142
-0.000616142
0.000616142
-0.000616142
0.000616142
-0.000616142
0.000616142
-0.000616142
0.000616142
-0.000616142
0.000616142
-0.000616142
0.000616142
-0.000616142
0.000616142
-0.000616142
0.000616142
-0.000616142
0.000616142
-0.000616142
0.000616142
-0.000616142
0.000616142
-0.000616142
0.000616142
-0.000616142
0.000616142
-0.000616142
0.000616142
-0.000616142
0.000616142
-0.000616142
0.000616142
-0.000616142
0.000616142
-0.000616142
0.000616142
-0.000616142
0.000616142
-0.000616142
0.000616142
-0.000616142
0.000616142
-0.000616142
0.000616141
-0.000616155
0.000616024
-0.000617053
0.000610686
-0.000640462
0.000541958
-0.000743054
0.00058572
-0.000422646
0.000385136
-0.00161728
0.00115155
1.59205e-05
-0.0016727
0.000785747
-0.00249983
-0.0992312
-0.0992312
1
0.925885
0.849671
0.790462
0.814409
0.852121
0.832733
0.923736
0.945898
0.722392
0.396455
0.167358
0.0545125
0.0164732
0.00257371
0.00180859
-0.000929226
0.00108523
-0.00106047
0.00106402
-0.00106356
0.00106361
-0.00106361
0.00106361
-0.00106361
0.00106361
-0.00106361
0.00106361
-0.00106361
0.00106361
-0.00106361
0.00106361
-0.00106361
0.00106361
-0.00106361
0.00106361
-0.00106361
0.00106361
-0.00106361
0.00106361
-0.00106361
0.00106361
-0.00106361
0.00106361
-0.00106361
0.00106361
-0.00106361
0.00106361
-0.00106361
0.00106361
-0.00106361
0.00106361
-0.00106361
0.00106361
-0.00106361
0.00106361
-0.00106361
0.00106361
-0.00106361
0.00106361
-0.00106361
0.00106361
-0.00106361
0.00106361
-0.00106361
0.00106361
-0.00106361
0.00106361
-0.00106361
0.00106361
-0.00106361
0.00106361
-0.00106361
0.00106361
-0.00106361
0.00106361
-0.00106361
0.00106361
-0.00106361
0.00106361
-0.00106361
0.00106361
-0.00106362
0.00106346
-0.0010647
0.00105726
-0.00109112
0.00098242
-0.00119659
0.00103682
-0.000885036
0.00076418
-0.00204092
0.00166113
-0.000708788
-0.00107413
0.000359144
-0.0010436
0.109265
0.109265
1
1.01195
0.964624
0.913908
0.922655
0.961707
0.927626
0.98275
0.984914
0.759185
0.423596
0.182879
0.0601609
0.0189654
0.00261899
0.00242549
-0.00139811
0.00158295
-0.00155323
0.00155754
-0.00155697
0.00155704
-0.00155704
0.00155704
-0.00155704
0.00155704
-0.00155704
0.00155704
-0.00155704
0.00155704
-0.00155704
0.00155704
-0.00155704
0.00155704
-0.00155704
0.00155704
-0.00155704
0.00155704
-0.00155704
0.00155704
-0.00155704
0.00155704
-0.00155704
0.00155704
-0.00155704
0.00155704
-0.00155704
0.00155704
-0.00155704
0.00155704
-0.00155704
0.00155704
-0.00155704
0.00155704
-0.00155704
0.00155704
-0.00155704
0.00155704
-0.00155704
0.00155704
-0.00155704
0.00155704
-0.00155704
0.00155704
-0.00155704
0.00155704
-0.00155704
0.00155704
-0.00155704
0.00155704
-0.00155704
0.00155704
-0.00155704
0.00155704
-0.00155704
0.00155704
-0.00155704
0.00155704
-0.00155704
0.00155704
-0.00155704
0.00155703
-0.00155706
0.00155686
-0.00155832
0.00154977
-0.0015875
0.00147072
-0.00168974
0.0015428
-0.00139669
0.00117896
-0.00247285
0.00225763
-0.00152291
-0.000376161
-5.91827e-05
-0.0014417
-0.102415
-0.102415
1
1.0645
1.04489
1.00375
0.997478
1.03406
0.984938
1.00907
1.00085
0.783686
0.44653
0.197465
0.0659174
0.0214656
0.00279152
0.0029712
-0.00177931
0.0019969
-0.00196143
0.00196665
-0.00196595
0.00196603
-0.00196602
0.00196602
-0.00196602
0.00196602
-0.00196602
0.00196602
-0.00196602
0.00196602
-0.00196602
0.00196602
-0.00196602
0.00196602
-0.00196602
0.00196602
-0.00196602
0.00196602
-0.00196602
0.00196602
-0.00196602
0.00196602
-0.00196602
0.00196602
-0.00196602
0.00196602
-0.00196602
0.00196602
-0.00196602
0.00196602
-0.00196602
0.00196602
-0.00196602
0.00196602
-0.00196602
0.00196602
-0.00196602
0.00196602
-0.00196602
0.00196602
-0.00196602
0.00196602
-0.00196602
0.00196602
-0.00196602
0.00196602
-0.00196602
0.00196602
-0.00196602
0.00196602
-0.00196602
0.00196602
-0.00196602
0.00196602
-0.00196602
0.00196602
-0.00196602
0.00196602
-0.00196602
0.00196602
-0.00196602
0.00196602
-0.00196605
0.00196581
-0.00196752
0.00195779
-0.00199938
0.00187565
-0.00209484
0.00196873
-0.00182507
0.00151177
-0.00280042
0.00277097
-0.00223401
0.000273781
-0.000406899
-9.73853e-05
0.107347
0.107347
1
1.09307
1.09565
1.06456
1.04489
1.07682
1.0171
1.01774
1.00522
0.801515
0.46723
0.211589
0.0719384
0.0239621
0.00313652
0.00340881
-0.00203381
0.00228855
-0.00224644
0.00225271
-0.00225186
0.00225197
-0.00225196
0.00225196
-0.00225196
0.00225196
-0.00225196
0.00225196
-0.00225196
0.00225196
-0.00225196
0.00225196
-0.00225196
0.00225196
-0.00225196
0.00225196
-0.00225196
0.00225196
-0.00225196
0.00225196
-0.00225196
0.00225196
-0.00225196
0.00225196
-0.00225196
0.00225196
-0.00225196
0.00225196
-0.00225196
0.00225196
-0.00225196
0.00225196
-0.00225196
0.00225196
-0.00225196
0.00225196
-0.00225196
0.00225196
-0.00225196
0.00225196
-0.00225196
0.00225196
-0.00225196
0.00225196
-0.00225196
0.00225196
-0.00225196
0.00225196
-0.00225196
0.00225196
-0.00225196
0.00225196
-0.00225196
0.00225196
-0.00225196
0.00225196
-0.00225196
0.00225196
-0.00225196
0.00225196
-0.00225196
0.00225195
-0.00225198
0.00225171
-0.00225368
0.00224271
-0.00228814
0.00215836
-0.00237453
0.00227295
-0.00213254
0.00173069
-0.00298889
0.00313804
-0.00278741
0.000842366
-0.000710539
-0.000649275
-0.103659
-0.103659
1
1.10509
1.12304
1.10203
1.07142
1.09836
1.03406
1.01798
1.00402
0.815236
0.486396
0.225374
0.0782378
0.0264591
0.00365548
0.00373989
-0.00216192
0.0024586
-0.00240887
0.00241637
-0.00241534
0.00241547
-0.00241546
0.00241546
-0.00241546
0.00241546
-0.00241546
0.00241546
-0.00241546
0.00241546
-0.00241546
0.00241546
-0.00241546
0.00241546
-0.00241546
0.00241546
-0.00241546
0.00241546
-0.00241546
0.00241546
-0.00241546
0.00241546
-0.00241546
0.00241546
-0.00241546
0.00241546
-0.00241546
0.00241546
-0.00241546
0.00241546
-0.00241546
0.00241546
-0.00241546
0.00241546
-0.00241546
0.00241546
-0.00241546
0.00241546
-0.00241546
0.00241546
-0.00241546
0.00241546
-0.00241546
0.00241546
-0.00241546
0.00241546
-0.00241546
0.00241546
-0.00241546
0.00241546
-0.00241546
0.00241546
-0.00241546
0.00241546
-0.00241546
0.00241546
-0.00241546
0.00241546
-0.00241546
0.00241546
-0.00241546
0.00241546
-0.00241549
0.00241517
-0.00241744
0.00240515
-0.00245439
0.00231943
-0.00253006
0.00245428
-0.00232073
0.00183901
-0.00304092
0.00334982
-0.00318233
0.00132516
-0.000965782
0.000559187
0.106478
0.106478
1
1.10625
1.13325
1.12188
1.08331
1.106
1.04255
1.01486
1.00024
0.826031
0.504244
0.238813
0.0847867
0.0289614
0.0043399
0.00397417
-0.00217236
0.00251615
-0.00245771
0.00246665
-0.00246541
0.00246557
-0.00246555
0.00246555
-0.00246555
0.00246555
-0.00246555
0.00246555
-0.00246555
0.00246555
-0.00246555
0.00246555
-0.00246555
0.00246555
-0.00246555
0.00246555
-0.00246555
0.00246555
-0.00246555
0.00246555
-0.00246555
0.00246555
-0.00246555
0.00246555
-0.00246555
0.00246555
-0.00246555
0.00246555
-0.00246555
0.00246555
-0.00246555
0.00246555
-0.00246555
0.00246555
-0.00246555
0.00246555
-0.00246555
0.00246555
-0.00246555
0.00246555
-0.00246555
0.00246555
-0.00246555
0.00246555
-0.00246555
0.00246555
-0.00246555
0.00246555
-0.00246555
0.00246555
-0.00246555
0.00246555
-0.00246555
0.00246555
-0.00246555
0.00246555
-0.00246555
0.00246555
-0.00246555
0.00246555
-0.00246555
0.00246555
-0.00246559
0.00246521
-0.00246781
0.00245415
-0.00250712
0.00236791
-0.0025708
0.00252068
-0.00239897
0.00184664
-0.0029689
0.0034137
-0.00342739
0.00171546
-0.00118757
-0.000110862
-0.104305
-0.104305
1
1.10082
1.13182
1.12925
1.08584
1.1052
1.04656
1.0109
0.995349
0.834497
0.520825
0.25186
0.0915434
0.031471
0.00517967
0.00412198
-0.00207468
0.00247109
-0.00240276
0.00241335
-0.00241186
0.00241205
-0.00241203
0.00241203
-0.00241203
0.00241203
-0.00241203
0.00241203
-0.00241203
0.00241203
-0.00241203
0.00241203
-0.00241203
0.00241203
-0.00241203
0.00241203
-0.00241203
0.00241203
-0.00241203
0.00241203
-0.00241203
0.00241203
-0.00241203
0.00241203
-0.00241203
0.00241203
-0.00241203
0.00241203
-0.00241203
0.00241203
-0.00241203
0.00241203
-0.00241203
0.00241203
-0.00241203
0.00241203
-0.00241203
0.00241203
-0.00241203
0.00241203
-0.00241203
0.00241203
-0.00241203
0.00241203
-0.00241203
0.00241203
-0.00241203
0.00241203
-0.00241203
0.00241203
-0.00241203
0.00241203
-0.00241203
0.00241203
-0.00241203
0.00241203
-0.00241203
0.00241203
-0.00241203
0.00241203
-0.00241203
0.00241203
-0.00241208
0.00241163
-0.00241459
0.0023995
-0.00245609
0.00231361
-0.00250683
0.00248135
-0.00237671
0.0017636
-0.00278711
0.00334126
-0.0035305
0.00200426
-0.0013538
0.000989831
0.105975
0.105975
1
1.09187
1.12326
1.12838
1.08301
1.09965
1.04826
1.00721
0.990081
0.841003
0.536143
0.264461
0.098461
0.0339901
0.00616243
0.00419526
-0.00188011
0.00233501
-0.00225549
0.00226798
-0.0022662
0.00226643
-0.00226641
0.00226641
-0.00226641
0.00226641
-0.00226641
0.00226641
-0.00226641
0.00226641
-0.00226641
0.00226641
-0.00226641
0.00226641
-0.00226641
0.00226641
-0.00226641
0.00226641
-0.00226641
0.00226641
-0.00226641
0.00226641
-0.00226641
0.00226641
-0.00226641
0.00226641
-0.00226641
0.00226641
-0.00226641
0.00226641
-0.00226641
0.00226641
-0.00226641
0.00226641
-0.00226641
0.00226641
-0.00226641
0.00226641
-0.00226641
0.00226641
-0.00226641
0.00226641
-0.00226641
0.00226641
-0.00226641
0.00226641
-0.00226641
0.00226641
-0.00226641
0.00226641
-0.00226641
0.00226641
-0.00226641
0.00226641
-0.00226641
0.00226641
-0.00226641
0.00226641
-0.00226641
0.00226641
-0.00226641
0.0022664
-0.00226647
0.00226595
-0.00226928
0.00225274
-0.00231277
0.00216805
-0.00234992
0.0023474
-0.00226471
0.00160134
-0.00251183
0.00314721
-0.00350107
0.00218598
-0.00147409
0.000218262
-0.104706
-0.104706
1
1.08154
1.11099
1.12249
1.07755
1.09164
1.0487
1.00421
0.984846
0.845832
0.5502
0.276568
0.105489
0.0365224
0.00727232
0.00420875
-0.00160291
0.00212245
-0.00203036
0.00204502
-0.0020429
0.00204318
-0.00204315
0.00204315
-0.00204315
0.00204315
-0.00204315
0.00204315
-0.00204315
0.00204315
-0.00204315
0.00204315
-0.00204315
0.00204315
-0.00204315
0.00204315
-0.00204315
0.00204315
-0.00204315
0.00204315
-0.00204315
0.00204315
-0.00204315
0.00204315
-0.00204315
0.00204315
-0.00204315
0.00204315
-0.00204315
0.00204315
-0.00204315
0.00204315
-0.00204315
0.00204315
-0.00204315
0.00204315
-0.00204315
0.00204315
-0.00204315
0.00204315
-0.00204315
0.00204315
-0.00204315
0.00204315
-0.00204315
0.00204315
-0.00204315
0.00204315
-0.00204315
0.00204315
-0.00204315
0.00204315
-0.00204315
0.00204315
-0.00204315
0.00204315
-0.00204315
0.00204315
-0.00204315
0.00204315
-0.00204315
0.00204315
-0.00204322
0.00204263
-0.00204636
0.00202834
-0.00209159
0.0019457
-0.00211479
0.00213304
-0.00207652
0.00137406
-0.002162
0.00285005
-0.00335253
0.00226179
-0.00153031
0.00122355
0.105652
0.105652
1
1.07114
1.09741
1.11386
1.07115
1.08256
1.04835
1.00199
0.979878
0.849232
0.563006
0.288145
0.112573
0.0390735
0.00849041
0.00417965
-0.00125991
0.00185054
-0.00174438
0.00176151
-0.00175901
0.00175934
-0.0017593
0.00175931
-0.00175931
0.00175931
-0.00175931
0.00175931
-0.00175931
0.00175931
-0.00175931
0.00175931
-0.00175931
0.00175931
-0.00175931
0.00175931
-0.00175931
0.00175931
-0.00175931
0.00175931
-0.00175931
0.00175931
-0.00175931
0.00175931
-0.00175931
0.00175931
-0.00175931
0.00175931
-0.00175931
0.00175931
-0.00175931
0.00175931
-0.00175931
0.00175931
-0.00175931
0.00175931
-0.00175931
0.00175931
-0.00175931
0.00175931
-0.00175931
0.00175931
-0.00175931
0.00175931
-0.00175931
0.00175931
-0.00175931
0.00175931
-0.00175931
0.00175931
-0.00175931
0.00175931
-0.00175931
0.00175931
-0.00175931
0.00175931
-0.00175931
0.00175931
-0.00175931
0.00175931
-0.00175931
0.0017593
-0.00175939
0.00175871
-0.00176287
0.00174336
-0.00180957
0.00166357
-0.00181876
0.00185522
-0.00182816
0.00109821
-0.00175852
0.00247147
-0.00310254
0.00223905
-0.00153905
0.000363587
-0.104965
-0.104965
1
1.06146
1.08402
1.10399
1.06474
1.07319
1.04742
1.0005
0.975322
0.851438
0.574584
0.299165
0.11966
0.0416494
0.00979593
0.00412639
-0.000869374
0.0015378
-0.00141599
0.0014359
-0.00143295
0.00143335
-0.0014333
0.00143331
-0.00143331
0.00143331
-0.00143331
0.00143331
-0.00143331
0.00143331
-0.00143331
0.00143331
-0.00143331
0.00143331
-0.00143331
0.00143331
-0.00143331
0.00143331
-0.00143331
0.00143331
-0.00143331
0.00143331
-0.00143331
0.00143331
-0.00143331
0.00143331
-0.00143331
0.00143331
-0.00143331
0.00143331
-0.00143331
0.00143331
-0.00143331
0.00143331
-0.00143331
0.00143331
-0.00143331
0.00143331
-0.00143331
0.00143331
-0.00143331
0.00143331
-0.00143331
0.00143331
-0.00143331
0.00143331
-0.00143331
0.00143331
-0.00143331
0.00143331
-0.00143331
0.00143331
-0.00143331
0.00143331
-0.00143331
0.00143331
-0.00143331
0.00143331
-0.00143331
0.00143331
-0.00143331
0.0014333
-0.0014334
0.00143263
-0.00143723
0.00141625
-0.00148512
0.00134007
-0.0014805
0.00153234
-0.00153708
0.000791367
-0.00132302
0.00203494
-0.00277173
0.00213
-0.00148877
0.00128884
0.105447
0.105447
1
1.05283
1.07169
1.09379
1.0588
1.06401
1.04599
0.999641
0.971266
0.852667
0.58497
0.309608
0.126699
0.0442556
0.0111676
0.00406728
-0.000449602
0.00120274
-0.00106359
0.00108665
-0.00108319
0.00108366
-0.0010836
0.00108361
-0.00108361
0.00108361
-0.00108361
0.00108361
-0.00108361
0.00108361
-0.00108361
0.00108361
-0.00108361
0.00108361
-0.00108361
0.00108361
-0.00108361
0.00108361
-0.00108361
0.00108361
-0.00108361
0.00108361
-0.00108361
0.00108361
-0.00108361
0.00108361
-0.00108361
0.00108361
-0.00108361
0.00108361
-0.00108361
0.00108361
-0.00108361
0.00108361
-0.00108361
0.00108361
-0.00108361
0.00108361
-0.00108361
0.00108361
-0.00108361
0.00108361
-0.00108361
0.00108361
-0.00108361
0.00108361
-0.00108361
0.00108361
-0.00108361
0.00108361
-0.00108361
0.00108361
-0.00108361
0.00108361
-0.00108361
0.00108361
-0.00108361
0.00108361
-0.00108361
0.00108361
-0.00108361
0.0010836
-0.00108372
0.00108285
-0.0010879
0.00106548
-0.00113666
0.000993585
-0.00111872
0.00118293
-0.00122082
0.000470847
-0.000876406
0.0015641
-0.00238213
0.00194972
-0.00140132
0.000358129
-0.105125
-0.105125
1
1.04535
1.06082
1.0838
1.05348
1.05528
1.04413
0.999283
0.967754
0.85312
0.594215
0.319467
0.13364
0.0468964
0.0125849
0.00401945
-1.79097e-05
0.000862862
-0.000704607
0.000731175
-0.000727141
0.0007277
-0.000727629
0.000727637
-0.000727636
0.000727636
-0.000727636
0.000727636
-0.000727636
0.000727636
-0.000727636
0.000727636
-0.000727636
0.000727636
-0.000727636
0.000727636
-0.000727636
0.000727636
-0.000727636
0.000727636
-0.000727636
0.000727636
-0.000727636
0.000727636
-0.000727636
0.000727636
-0.000727636
0.000727636
-0.000727636
0.000727636
-0.000727636
0.000727636
-0.000727636
0.000727636
-0.000727636
0.000727636
-0.000727636
0.000727636
-0.000727636
0.000727636
-0.000727636
0.000727636
-0.000727636
0.000727636
-0.000727636
0.000727636
-0.000727636
0.000727636
-0.000727636
0.000727636
-0.000727636
0.000727636
-0.000727636
0.000727636
-0.000727636
0.000727636
-0.000727636
0.000727636
-0.000727636
0.000727636
-0.000727637
0.000727622
-0.000727757
0.000726785
-0.000732311
0.000708477
-0.00078161
0.000641482
-0.000751062
0.000824551
-0.000895987
0.000152716
-0.000437836
0.00108149
-0.00195575
0.0017149
-0.00126905
0.00122316
0.105327
0.105327
1
1.03898
1.05151
1.0743
1.04881
1.04718
1.04189
0.999313
0.964804
0.852979
0.602377
0.328737
0.14044
0.0495738
0.0140288
0.00399799
0.000410238
0.000533768
-0.00035455
0.000385033
-0.000380345
0.000381002
-0.000380918
0.000380928
-0.000380927
0.000380927
-0.000380927
0.000380927
-0.000380927
0.000380927
-0.000380927
0.000380927
-0.000380927
0.000380927
-0.000380927
0.000380927
-0.000380927
0.000380927
-0.000380927
0.000380927
-0.000380927
0.000380927
-0.000380927
0.000380927
-0.000380927
0.000380927
-0.000380927
0.000380927
-0.000380927
0.000380927
-0.000380927
0.000380927
-0.000380927
0.000380927
-0.000380927
0.000380927
-0.000380927
0.000380927
-0.000380927
0.000380927
-0.000380927
0.000380927
-0.000380927
0.000380927
-0.000380927
0.000380927
-0.000380927
0.000380927
-0.000380927
0.000380927
-0.000380927
0.000380927
-0.000380927
0.000380927
-0.000380927
0.000380927
-0.000380927
0.000380927
-0.000380927
0.000380927
-0.000380929
0.000380911
-0.000381065
0.000379981
-0.000385988
0.000360799
-0.000435498
0.000299222
-0.000393271
0.000472968
-0.000577417
-0.000149001
-2.38945e-05
0.000607424
-0.00151342
0.00144239
-0.00111638
0.000243107
-0.105211
-0.105211
1
1.03356
1.04369
1.06542
1.04472
1.03979
1.03932
0.999623
0.962407
0.852405
0.609523
0.337424
0.147057
0.0522876
0.0154821
0.00401548
0.000821723
0.000228667
-2.65542e-05
6.13803e-05
-5.59572e-05
5.67265e-05
-5.66264e-05
5.66384e-05
-5.66371e-05
5.66372e-05
-5.66372e-05
5.66372e-05
-5.66372e-05
5.66372e-05
-5.66372e-05
5.66372e-05
-5.66372e-05
5.66372e-05
-5.66372e-05
5.66372e-05
-5.66372e-05
5.66372e-05
-5.66372e-05
5.66372e-05
-5.66372e-05
5.66372e-05
-5.66372e-05
5.66372e-05
-5.66372e-05
5.66372e-05
-5.66372e-05
5.66372e-05
-5.66372e-05
5.66372e-05
-5.66372e-05
5.66372e-05
-5.66372e-05
5.66372e-05
-5.66372e-05
5.66372e-05
-5.66372e-05
5.66372e-05
-5.66372e-05
5.66372e-05