# vtk DataFile Version 2.0
FlowField
ASCII
DATASET STRUCTURED_GRID
DIMENSIONS 100 1 100
POINTS 10000 float
0 0 0
0.01 0 0
0.02 0 0
0.03 0 0
0.04 0 0
0.05 0 0
0.06 0 0
0.07 0 0
0.08 0 0
0.09 0 0
0.1 0 0
0.11 0 0
0.12 0 0
0.13 0 0
0.14 0 0
0.15 0 0
0.16 0 0
0.17 0 0
0.18 0 0
0.19 0 0
0.2 0 0
0.21 0 0
0.22 0 0
0.23 0 0
0.24 0 0
0.25 0 0
0.26 0 0
0.27 0 0
0.28 0 0
0.29 0 0
0.3 0 0
0.31 0 0
0.32 0 0
0.33 0 0
0.34 0 0
0.35 0 0
0.36 0 0
0.37 0 0
0.38 0 0
0.39 0 0
0.4 0 0
0.41 0 0
0.42 0 0
0.43 0 0
0.44 0 0
0.45 0 0
0.46 0 0
0.47 0 0
0.48 0 0
0.49 0 0
0.5 0 0
0.51 0 0
0.52 0 0
0.53 0 0
0.54 0 0
0.55 0 0
0.56 0 0
0.57 0 0
0.58 0 0
0.59 0 0
0.6 0 0
0.61 0 0
0.62 0 0
0.63 0 0
0.64 0 0
0.65 0 0
0.66 0 0
0.67 0 0
0.68 0 0
0.69 0 0
0.7 0 0
0.71 0 0
0.72 0 0
0.73 0 0
0.74 0 0
0.75 0 0
0.76 0 0
0.77 0 0
0.78 0 0
0.79 0 0
0.8 0 0
0.81 0 0
0.82 0 0
0.83 0 0
0.84 0 0
0.85 0 0
0.86 0 0
0.87 0 0
0.88 0 0
0.89 0 0
0.9 0 0
0.91 0 0
0.92 0 0
0.93 0 0
0.94 0 0
0.95 0 0
0.96 0 0
0.97 0 0
0.98 0 0
0.99 0 0
0 0.001 0
0.01 0.001 0
0.02 0.001 0
0.03 0.001 0
0.04 0.001 0
0.05 0.001 0
0.06 0.001 0
0.07 0.001 0
0.08 0.001 0
0.09 0.001 0
0.1 0.001 0
0.11 0.001 0
0.12 0.001 0
0.13 0.001 0
0.14 0.001 0
0.15 0.001 0
0.16 0.001 0
0.17 0.001 0
0.18 0.001 0
0.19 0.001 0
0.2 0.001 0
0.21 0.001 0
0.22 0.001 0
0.23 0.001 0
0.24 0.001 0
0.25 0.001 0
0.26 0.001 0
0.27 0.001 0
0.28 0.001 0
0.29 0.001 0
0.3 0.001 0
0.31 0.001 0
0.32 0.001 0
0.33 0.001 0
0.34 0.001 0
0.35 0.001 0
0.36 0.001 0
0.37 0.001 0
0.38 0.001 0
0.39 0.001 0
0.4 0.001 0
0.41 0.001 0
0.42 0.001 0
0.43 0.001 0
0.44 0.001 0
0.45 0.001 0
0.46 0.001 0
0.47 0.001 0
0.48 0.001 0
0.49 0.001 0
0.5 0.001 0
0.51 0.001 0
0.52 0.001 0
0.53 0.001 0
0.54 0.001 0
0.55 0.001 0
0.56 0.001 0
0.57 0.001 0
0.58 0.001 0
0.59 0.001 0
0.6 0.001 0
0.61 0.001 0
0.62 0.001 0
0.63 0.001 0
0.64 0.001 0
0.65 0.001 0
0.66 0.001 0
0.67 0.001 0
0.68 0.001 0
0.69 0.001 0
0.7 0.001 0
0.71 0.001 0
0.72 0.001 0
0.73 0.001 0
0.74 0.001 0
0.75 0.001 0
0.76 0.001 0
0.77 0.001 0
0.78 0.001 0
0.79 0.001 0
0.8 0.001 0
0.81 0.001 0
0.82 0.001 0
0.83 0.001 0
0.84 0.001 0
0.85 0.001 0
0.86 0.001 0
0.87 0.001 0
0.88 0.001 0
0.89 0.001 0
0.9 0.001 0
0.91 0.001 0
0.92 0.001 0
0.93 0.001 0
0.94 0.001 0
0.95 0.001 0
0.96 0.001 0
0.97 0.001 0
0.98 0.001 0
0.99 0.001 0
0 0.002 0
0.01 0.002 0
0.02 0.002 0
0.03 0.002 0
0.04 0.002 0
0.05 0.002 0
0.06 0.002 0
0.07 0.002 0
0.08 0.002 0
0.09 0.002 0
0.1 0.002 0
0.11 0.002 0
0.12 0.002 0
0.13 0.002 0
0.14 0.002 0
0.15 0.002 0
0.16 0.002 0
0.17 0.002 0
0.18 0.002 0
0.19 0.002 0
0.2 0.002 0
0.21 0.002 0
0.22 0.002 0
0.23 0.002 0
0.24 0.002 0
0.25 0.002 0
0.26 0.002 0
0.27 0.002 0
0.28 0.002 0
0.29 0.002 0
0.3 0.002 0
0.31 0.002 0
0.32 0.002 0
0.33 0.002 0
0.34 0.002 0
0.35 0.002 0
0.36 0.002 0
0.37 0.002 0
0.38 0.002 0
0.39 0.002 0
0.4 0.002 0
0.41 0.002 0
0.42 0.002 0
0.43 0.002 0
0.44 0.002 0
0.45 0.002 0
0.46 0.002 0
0.47 0.002 0
0.48 0.002 0
0.49 0.002 0
0.5 0.002 0
0.51 0.002 0
0.52 0.002 0
0.53 0.002 0
0.54 0.002 0
0.55 0.002 0
0.56 0.002 0
0.57 0.002 0
0.58 0.002 0
0.59 0.002 0
0.6 0.002 0
0.61 0.002 0
0.62 0.002 0
0.63 0.002 0
0.64 0.002 0
0.65 0.002 0
0.66 0.002 0
0.67 0.002 0
0.68 0.002 0
0.69 0.002 0
0.7 0.002 0
0.71 0.002 0
0.72 0.002 0
0.73 0.002 0
0.74 0.002 0
0.75 0.002 0
0.76 0.002 0
0.77 0.002 0
0.78 0.002 0
0.79 0.002 0
0.8 0.002 0
0.81 0.002 0
0.82 0.002 0
0.83 0.002 0
0.84 0.002 0
0.85 0.002 0
0.86 0.002 0
0.87 0.002 0
0.88 0.002 0
0.89 0.002 0
0.9 0.002 0
0.91 0.002 0
0.92 0.002 0
0.93 0.002 0
0.94 0.002 0
0.95 0.002 0
0.96 0.002 0
0.97 0.002 0
0.98 0.002 0
0.99 0.002 0
0 0.003 0
0.01 0.003 0
0.02 0.003 0
0.03 0.003 0
0.04 0.003 0
0.05 0.003 0
0.06 0.003 0
0.07 0.003 0
0.08 0.003 0
0.09 0.003 0
0.1 0.003 0
0.11 0.003 0
0.12 0.003 0
0.13 0.003 0
0.14 0.003 0
0.15 0.003 0
0.16 0.003 0
0.17 0.003 0
0.18 0.003 0
0.19 0.003 0
0.2 0.003 0
0.21 0.003 0
0.22 0.003 0
0.23 0.003 0
0.24 0.003 0
0.25 0.003 0
0.26 0.003 0
0.27 0.003 0
0.28 0.003 0
0.29 0.003 0
0.3 0.003 0
0.31 0.003 0
0.32 0.003 0
0.33 0.003 0
0.34 0.003 0
0.35 0.003 0
0.36 0.003 0
0.37 0.003 0
0.38 0.003 0
0.39 0.003 0
0.4 0.003 0
0.41 0.003 0
0.42 0.003 0
0.43 0.003 0
0.44 0.003 0
0.45 0.003 0
0.46 0.003 0
0.47 0.003 0
0.48 0.003 0
0.49 0.003 0
0.5 0.003 0
0.51 0.003 0
0.52 0.003 0
0.53 0.003 0
0.54 0.003 0
0.55 0.003 0
0.56 0.003 0
0.57 0.003 0
0.58 0.003 0
0.59 0.003 0
0.6 0.003 0
0.61 0.003 0
0.62 0.003 0
0.63 0.003 0
0.64 0.003 0
0.65 0.003 0
0.66 0.003 0
0.67 0.003 0
0.68 0.003 0
0.69 0.003 0
0.7 0.003 0
0.71 0.003 0
0.72 0.003 0
0.73 0.003 0
0.74 0.003 0
0.75 0.003 0
0.76 0.003 0
0.77 0.003 0
0.78 0.003 0
0.79 0.003 0
0.8 0.003 0
0.81 0.003 0
0.82 0.003 0
0.83 0.003 0
0.84 0.003 0
0.85 0.003 0
0.86 0.003 0
0.87 0.003 0
0.88 0.003 0
0.89 0.003 0
0.9 0.003 0
0.91 0.003 0
0.92 0.003 0
0.93 0.003 0
0.94 0.003 0
0.95 0.003 0
0.96 0.003 0
0.97 0.003 0
0.98 0.003 0
0.99 0.003 0
0 0.004 0
0.01 0.004 0
0.02 0.004 0
0.03 0.004 0
0.04 0.004 0
0.05 0.004 0
0.06 0.004 0
0.07 0.004 0
0.08 0.004 0
0.09 0.004 0
0.1 0.004 0
0.11 0.004 0
0.12 0.004 0
0.13 0.004 0
0.14 0.004 0
0.15 0.004 0
0.16 0.004 0
0.17 0.004 0
0.18 0.004 0
0.19 0.004 0
0.2 0.004 0
0.21 0.004 0
0.22 0.004 0
0.23 0.004 0
0.24 0.004 0
0.25 0.004 0
0.26 0.004 0
0.27 0.004 0
0.28 0.004 0
0.29 0.004 0
0.3 0.004 0
0.31 0.004 0
0.32 0.004 0
0.33 0.004 0
0.34 0.004 0
0.35 0.004 0
0.36 0.004 0
0.37 0.004 0
0.38 0.004 0
0.39 0.004 0
0.4 0.004 0
0.41 0.004 0
0.42 0.004 0
0.43 0.004 0
0.44 0.004 0
0.45 0.004 0
0.46 0.004 0
0.47 0.004 0
0.48 0.004 0
0.49 0.004 0
0.5 0.004 0
0.51 0.004 0
0.52 0.004 0
0.53 0.004 0
0.54 0.004 0
0.55 0.004 0
0.56 0.004 0
0.57 0.004 0
0.58 0.004 0
0.59 0.004 0
0.6 0.004 0
0.61 0.004 0
0.62 0.004 0
0.63 0.004 0
0.64 0.004 0
0.65 0.004 0
0.66 0.004 0
0.67 0.004 0
0.68 0.004 0
0.69 0.004 0
0.7 0.004 0
0.71 0.004 0
0.72 0.004 0
0.73 0.004 0
0.74 0.004 0
0.75 0.004 0
0.76 0.004 0
0.77 0.004 0
0.78 0.004 0
0.79 0.004 0
0.8 0.004 0
0.81 0.004 0
0.82 0.004 0
0.83 0.004 0
0.84 0.004 0
0.85 0.004 0
0.86 0.004 0
0.87 0.004 0
0.88 0.004 0
0.89 0.004 0
0.9 0.004 0
0.91 0.004 0
0.92 0.004 0
0.93 0.004 0
0.94 0.004 0
0.95 0.004 0
0.96 0.004 0
0.97 0.004 0
0.98 0.004 0
0.99 0.004 0
0 0.005 0
0.01 0.005 0
0.02 0.005 0
0.03 0.005 0
0.04 0.005 0
0.05 0.005 0
0.06 0.005 0
0.07 0.005 0
0.08 0.005 0
0.09 0.005 0
0.1 0.005 0
0.11 0.005 0
0.12 0.005 0
0.13 0.005 0
0.14 0.005 0
0.15 0.005 0
0.16 0.005 0
0.17 0.005 0
0.18 0.005 0
0.19 0.005 0
0.2 0.005 0
0.21 0.005 0
0.22 0.005 0
0.23 0.005 0
0.24 0.005 0
0.25 0.005 0
0.26 0.005 0
0.27 0.005 0
0.28 0.005 0
0.29 0.005 0
0.3 0.005 0
0.31 0.005 0
0.32 0.005 0
0.33 0.005 0
0.34 0.005 0
0.35 0.005 0
0.36 0.005 0
0.37 0.005 0
0.38 0.005 0
0.39 0.005 0
0.4 0.005 0
0.41 0.005 0
0.42 0.005 0
0.43 0.005 0
0.44 0.005 0
0.45 0.005 0
0.46 0.005 0
0.47 0.005 0
0.48 0.005 0
0.49 0.005 0
0.5 0.005 0
0.51 0.005 0
0.52 0.005 0
0.53 0.005 0
0.54 0.005 0
0.55 0.005 0
0.56 0.005 0
0.57 0.005 0
0.58 0.005 0
0.59 0.005 0
0.6 0.005 0
0.61 0.005 0
0.62 0.005 0
0.63 0.005 0
0.64 0.005 0
0.65 0.005 0
0.66 0.005 0
0.67 0.005 0
0.68 0.005 0
0.69 0.005 0
0.7 0.005 0
0.71 0.005 0
0.72 0.005 0
0.73 0.005 0
0.74 0.005 0
0.75 0.005 0
0.76 0.005 0
0.77 0.005 0
0.78 0.005 0
0.79 0.005 0
0.8 0.005 0
0.81 0.005 0
0.82 0.005 0
0.83 0.005 0
0.84 0.005 0
0.85 0.005 0
0.86 0.005 0
0.87 0.005 0
0.88 0.005 0
0.89 0.005 0
0.9 0.005 0
0.91 0.005 0
0.92 0.005 0
0.93 0.005 0
0.94 0.005 0
0.95 0.005 0
0.96 0.005 0
0.97 0.005 0
0.98 0.005 0
0.99 0.005 0
0 0.006 0
0.01 0.006 0
0.02 0.006 0
0.03 0.006 0
0.04 0.006 0
0.05 0.006 0
0.06 0.006 0
0.07 0.006 0
0.08 0.006 0
0.09 0.006 0
0.1 0.006 0
0.11 0.006 0
0.12 0.006 0
0.13 0.006 0
0.14 0.006 0
0.15 0.006 0
0.16 0.006 0
0.17 0.006 0
0.18 0.006 0
0.19 0.006 0
0.2 0.006 0
0.21 0.006 0
0.22 0.006 0
0.23 0.006 0
0.24 0.006 0
0.25 0.006 0
0.26 0.006 0
0.27 0.006 0
0.28 0.006 0
0.29 0.006 0
0.3 0.006 0
0.31 0.006 0
0.32 0.006 0
0.33 0.006 0
0.34 0.006 0
0.35 0.006 0
0.36 0.006 0
0.37 0.006 0
0.38 0.006 0
0.39 0.006 0
0.4 0.006 0
0.41 0.006 0
0.42 0.006 0
0.43 0.006 0
0.44 0.006 0
0.45 0.006 0
0.46 0.006 0
0.47 0.006 0
0.48 0.006 0
0.49 0.006 0
0.5 0.006 0
0.51 0.006 0
0.52 0.006 0
0.53 0.006 0
0.54 0.006 0
0.55 0.006 0
0.56 0.006 0
0.57 0.006 0
0.58 0.006 0
0.59 0.006 0
0.6 0.006 0
0.61 0.006 0
0.62 0.006 0
0.63 0.006 0
0.64 0.006 0
0.65 0.006 0
0.66 0.006 0
0.67 0.006 0
0.68 0.006 0
0.69 0.006 0
0.7 0.006 0
0.71 0.006 0
0.72 0.006 0
0.73 0.006 0
0.74 0.006 0
0.75 0.006 0
0.76 0.006 0
0.77 0.006 0
0.78 0.006 0
0.79 0.006 0
0.8 0.006 0
0.81 0.006 0
0.82 0.006 0
0.83 0.006 0
0.84 0.006 0
0.85 0.006 0
0.86 0.006 0
0.87 0.006 0
0.88 0.006 0
0.89 0.006 0
0.9 0.006 0
0.91 0.006 0
0.92 0.006 0
0.93 0.006 0
0.94 0.006 0
0.95 0.006 0
0.96 0.006 0
0.97 0.006 0
0.98 0.006 0
0.99 0.006 0
0 0.007 0
0.01 0.007 0
0.02 0.007 0
0.03 0.007 0
0.04 0.007 0
0.05 0.007 0
0.06 0.007 0
0.07 0.007 0
0.08 0.007 0
0.09 0.007 0
0.1 0.007 0
0.11 0.007 0
0.12 0.007 0
0.13 0.007 0
0.14 0.007 0
0.15 0.007 0
0.16 0.007 0
0.17 0.007 0
0.18 0.007 0
0.19 0.007 0
0.2 0.007 0
0.21 0.007 0
0.22 0.007 0
0.23 0.007 0
0.24 0.007 0
0.25 0.007 0
0.26 0.007 0
0.27 0.007 0
0.28 0.007 0
0.29 0.007 0
0.3 0.007 0
0.31 0.007 0
0.32 0.007 0
0.33 0.007 0
0.34 0.007 0
0.35 0.007 0
0.36 0.007 0
0.37 0.007 0
0.38 0.007 0
0.39 0.007 0
0.4 0.007 0
0.41 0.007 0
0.42 0.007 0
0.43 0.007 0
0.44 0.007 0
0.45 0.007 0
0.46 0.007 0
0.47 0.007 0
0.48 0.007 0
0.49 0.007 0
0.5 0.007 0
0.51 0.007 0
0.52 0.007 0
0.53 0.007 0
0.54 0.007 0
0.55 0.007 0
0.56 0.007 0
0.57 0.007 0
0.58 0.007 0
0.59 0.007 0
0.6 0.007 0
0.61 0.007 0
0.62 0.007 0
0.63 0.007 0
0.64 0.007 0
0.65 0.007 0
0.66 0.007 0
0.67 0.007 0
0.68 0.007 0
0.69 0.007 0
0.7 0.007 0
0.71 0.007 0
0.72 0.007 0
0.73 0.007 0
0.74 0.007 0
0.75 0.007 0
0.76 0.007 0
0.77 0.007 0
0.78 0.007 0
0.79 0.007 0
0.8 0.007 0
0.81 0.007 0
0.82 0.007 0
0.83 0.007 0
0.84 0.007 0
0.85 0.007 0
0.86 0.007 0
0.87 0.007 0
0.88 0.007 0
0.89 0.007 0
0.9 0.007 0
0.91 0.007 0
0.92 0.007 0
0.93 0.007 0
0.94 0.007 0
0.95 0.007 0
0.96 0.007 0
0.97 0.007 0
0.98 0.007 0
[...]
POINT_DATA 10000

SCALARS vel_X float 1
LOOKUP_TABLE default
0
0
0
0
0
0
0
0
0
0
0
0
0
0
0
0
0
0
0
0
0
0
0
0
0
0
0
0
0
0
0
0
0
0
0
0
0
0
0
0
0
0
0
0
0
0
0
0
0
0
0
0
0
0
0
0
0
0
0
0
0
0
0
0
0
0
0
0
0
0
0
0
0
0
0
0
0
0
0
0
0
0
0
0
0
0
0
0
0
0
0
0
0
0
0
0
0
0
0
0
1
0.304749
0.240152
0.0853092
0.179938
0.0408607
0.137853
0.041726
0.101851
0.0425157
0.0730609
0.0593853
0.0325819
0.0497955
0.0900762
-0.0617108
0.126018
0.0249781
-0.0234071
0.0373808
0.102834
-0.045014
0.0381834
0.0114775
0.0496248
0.0275095
0.0885789
-0.0282283
0.0125584
0.0280786
0.134314
0.0858006
0.166467
0.17085
0.262236
0.205988
0.26599
0.242861
0.327546
0.25644
0.254559
0.12428
0.118322
0.0188823
0.0510481
-0.0184784
0.0324814
-0.0268869
0.0289747
-0.028244
0.0284847
-0.0284099
0.0284316
-0.0284265
0.0284252
-0.0284321
0.0284164
-0.0284442
0.0284075
-0.0284359
0.0284402
-0.028411
0.0283821
-0.0285593
0.0283647
-0.0281865
0.0287345
-0.0288088
0.0275613
-0.0279586
0.0300759
-0.0293326
0.0258669
-0.0260911
0.0307829
-0.0344209
0.0288165
-0.0195029
0.0209434
-0.0330418
0.0395003
-0.0361598
0.029986
-0.0244832
0.0164413
-0.00960434
0.0107768
-0.0234866
0.0415614
-0.0578861
0.0661028
-0.0664095
0.0596871
-0.049929
0.0383385
-0.0277596
0.0172822
-0.0126664
-0.253494
-0.253494
1
0.541257
0.426289
0.201882
0.31232
0.116337
0.246384
0.102393
0.191991
0.0963383
0.146143
0.115701
0.083909
0.105366
0.150334
-0.0465701
0.208068
0.052493
0.0066333
0.086213
0.165243
-0.0333909
0.0907408
0.0477727
0.109572
0.0784163
0.159061
-0.00144024
0.0766048
0.108463
0.264523
0.204217
0.333174
0.344184
0.474097
0.394144
0.483429
0.446898
0.553041
0.428468
0.403002
0.199586
0.18019
0.0321174
0.0751723
-0.0255425
0.0467693
-0.0383273
0.0414669
-0.0403716
0.0407315
-0.04062
0.0406523
-0.0406446
0.0406428
-0.0406532
0.0406292
-0.0406726
0.0406132
-0.0406641
0.0406593
-0.0406231
0.0405838
-0.0408411
0.0405283
-0.0403303
0.0411139
-0.0411144
0.0393764
-0.0401679
0.0429942
-0.041603
0.0369565
-0.0378768
0.0442734
-0.0485385
0.0401786
-0.0282833
0.0316447
-0.048211
0.0554839
-0.0498956
0.0412567
-0.0342588
0.0242531
-0.0167586
0.0196915
-0.0371754
0.0601642
-0.0801494
0.0889991
-0.0880187
0.0780365
-0.0649024
0.0493664
-0.035807
0.0219988
-0.0119352
0.38868
0.38868
1
0.715231
0.574895
0.330276
0.412179
0.217696
0.325538
0.187219
0.260801
0.172096
0.203081
0.187929
0.135708
0.165183
0.205156
0.0106597
0.248913
0.117175
0.0492882
0.139991
0.212703
0.0279326
0.135686
0.112841
0.164602
0.152308
0.221017
0.0799868
0.152629
0.216734
0.374178
0.344264
0.470647
0.50932
0.62974
0.567076
0.638224
0.61092
0.684766
0.54945
0.475914
0.258691
0.201388
0.0548558
0.0744239
-0.0146801
0.0402387
-0.0300706
0.0338568
-0.0325346
0.0329698
-0.0328347
0.032874
-0.0328647
0.0328625
-0.0328749
0.0328461
-0.0328983
0.032826
-0.0328909
0.0328764
-0.0328456
0.0327917
-0.0330888
0.0327285
-0.0325281
0.0333697
-0.0333805
0.0314943
-0.0323569
0.0353424
-0.0339133
0.0290214
-0.0299449
0.0364244
-0.0411477
0.0327234
-0.0203252
0.0231681
-0.0401251
0.0478791
-0.0426284
0.033824
-0.0271452
0.0172656
-0.00948966
0.0108265
-0.0267827
0.0488052
-0.0695508
0.0799857
-0.0814584
0.073401
-0.062212
0.0475923
-0.0350919
0.021385
-0.0145561
-0.337364
-0.337364
1
0.838014
0.696504
0.454668
0.496422
0.326533
0.390397
0.282827
0.317358
0.26072
0.249112
0.271915
0.185988
0.227187
0.263736
0.0836272
0.27245
0.207925
0.0939516
0.196678
0.260478
0.11502
0.176744
0.194108
0.21652
0.238926
0.284778
0.190204
0.227524
0.329523
0.464993
0.482863
0.576708
0.652564
0.740786
0.713637
0.739822
0.732378
0.752486
0.634297
0.506887
0.308238
0.202611
0.0824937
0.0617834
0.0051047
0.0236171
-0.0121483
0.0164364
-0.014933
0.01543
-0.0152751
0.0153203
-0.0153095
0.0153071
-0.015321
0.0152891
-0.0153465
0.0152674
-0.0153389
0.0153185
-0.0152974
0.0152226
-0.0155461
0.0151817
-0.0149564
0.0157807
-0.0159017
0.0139772
-0.0146543
0.0176759
-0.0166549
0.0117413
-0.0120636
0.0180581
-0.0236727
0.01657
-0.00385503
0.00434524
-0.0203051
0.0294735
-0.0261295
0.0178829
-0.0118153
0.00239579
0.0062685
-0.00849766
-0.0033525
0.022752
-0.0442412
0.0578033
-0.0640948
0.0605543
-0.0535833
0.0417737
-0.0317111
0.0193
-0.0104473
0.359555
0.359555
1
0.922917
0.794946
0.569299
0.571818
0.432968
0.449792
0.37945
0.368562
0.353955
0.290074
0.360228
0.236645
0.289607
0.325035
0.162612
0.291798
0.308469
0.140958
0.25552
0.310419
0.21175
0.218372
0.280555
0.267081
0.329539
0.350738
0.307773
0.296131
0.43356
0.538072
0.605305
0.654776
0.768227
0.817049
0.828916
0.801141
0.816875
0.78131
0.694027
0.517219
0.350514
0.196205
0.110711
0.0455352
0.0273229
0.00414372
0.00849217
-0.00374097
0.005416
-0.00485921
0.00503365
-0.00498241
0.00499482
-0.00499731
0.00498219
-0.00501654
0.0049557
-0.00503814
0.00496476
-0.00498715
0.00499822
-0.00509753
0.00475183
-0.00509767
0.00536934
-0.00458831
0.00429828
-0.00623489
0.00587439
-0.0028182
0.00322758
-0.00814653
0.00869343
-0.00332618
-0.0033954
-0.00186777
0.0149665
-0.0175831
0.00299603
0.00814502
-0.00727404
-0.000369931
0.00602374
-0.014941
0.024465
-0.0304639
0.0232763
-0.00708265
-0.0147687
0.0314875
-0.0429274
0.0445139
-0.0423934
0.0340778
-0.0269871
0.0164077
-0.0122082
-0.347118
-0.347118
1
0.981453
0.872066
0.67328
0.639373
0.533749
0.506012
0.473099
0.41647
0.447508
0.328619
0.447362
0.289221
0.350599
0.3854
0.245649
0.310081
0.40817
0.191923
0.315095
0.359013
0.309936
0.261427
0.365434
0.315565
0.417713
0.414308
0.420379
0.35594
0.523059
0.59317
0.705914
0.708748
0.85672
0.86544
0.914911
0.833786
0.873911
0.78786
0.737362
0.517993
0.387483
0.187711
0.137837
0.0291747
0.0492701
-0.0151566
0.0289469
-0.0237282
0.0255797
-0.0249605
0.0251557
-0.025098
0.0251121
-0.0251146
0.0250984
-0.0251348
0.0250715
-0.0251553
0.0250831
-0.0251046
0.0251065
-0.0252311
0.0248663
-0.0251815
0.0255108
-0.024783
0.0243023
-0.026236
0.0262397
-0.0231572
0.0228996
-0.0277983
0.0292493
-0.024579
0.0168284
-0.0200837
0.0333816
-0.0392005
0.0262633
-0.0131701
0.0114417
-0.0185036
0.0239609
-0.0322527
0.042039
-0.0510865
0.048437
-0.0360778
0.0150225
0.00373673
-0.0195206
0.0259613
-0.0287647
0.0243465
-0.0206797
0.01253
-0.00726208
0.356052
0.356052
1
1.02203
0.930247
0.766576
0.699004
0.627782
0.558825
0.562493
0.460862
0.539078
0.365773
0.529397
0.344476
0.408229
0.441993
0.331782
0.32709
0.500955
0.247288
0.373228
0.402943
0.404817
0.305117
0.444567
0.36048
0.498361
0.471271
0.52182
0.406374
0.595911
0.631042
0.783898
0.742946
0.920852
0.892202
0.976495
0.847722
0.912049
0.782769
0.769918
0.515023
0.420236
0.179739
0.163062
0.0143208
0.0696676
-0.032871
0.047853
-0.0421449
0.0441834
-0.0434974
0.043715
-0.0436503
0.0436663
-0.0436688
0.0436515
-0.0436898
0.0436246
-0.0437085
0.0436392
-0.0436582
0.0436516
-0.0438009
0.0434208
-0.043698
0.0440873
-0.0434214
0.0427495
-0.0446551
0.0450311
-0.0419638
0.0410466
-0.0458486
0.0481336
-0.0442582
0.0357254
-0.0369039
0.0499825
-0.0588197
0.0479435
-0.0332745
0.0289047
-0.0352719
0.0406916
-0.0482438
0.0575392
-0.0685994
0.0701107
-0.0622239
0.0434179
-0.0241995
0.00535034
0.00527836
-0.0128192
0.0125581
-0.0127162
0.00752705
-0.00790271
-0.348996
-0.348996
1
1.05026
0.97268
0.84882
0.751238
0.714077
0.607817
0.646864
0.501331
0.626649
0.402474
0.603082
0.40273
0.4608
0.49324
0.418999
0.342981
0.582779
0.306543
0.427665
0.440717
0.492515
0.348739
0.514995
0.400947
0.567509
0.51977
0.609002
0.448527
0.651649
0.654222
0.840343
0.762232
0.963804
0.903706
1.01853
0.851252
0.937056
0.773089
0.794419
0.511887
0.448713
0.174107
0.185378
0.00233036
0.0873006
-0.0477296
0.0639614
-0.0577342
0.0599734
-0.059215
0.059457
-0.0593846
0.0594027
-0.0594052
0.0593869
-0.0594269
0.0593601
-0.0594435
0.0593782
-0.0593939
0.0593788
-0.0595518
0.0591611
-0.0593946
0.0598406
-0.0592473
0.0583938
-0.0602364
0.0609769
-0.0579896
0.056441
-0.061039
0.0640527
-0.0610869
0.0520838
-0.0511597
0.0634945
-0.0750509
0.0667263
-0.0510197
0.0439546
-0.0493827
0.0548916
-0.061727
0.0698999
-0.081878
0.0869273
-0.0838773
0.0686291
-0.0505901
0.0301646
-0.0163145
0.00452357
-0.000639473
-0.00352982
0.00170447
-0.00185675
0.354327
0.354327
1
1.0697
1.00283
0.919477
0.797152
0.791537
0.652943
0.725284
0.538039
0.707908
0.440085
0.665552
0.464028
0.507151
0.538371
0.504458
0.359036
0.650464
0.368767
0.476628
0.472406
0.569523
0.392161
0.574593
0.437068
0.622454
0.560028
0.680404
0.484565
0.690737
0.66643
0.876925
0.771568
0.988493
0.906027
1.0448
0.850839
0.952146
0.763594
0.811704
0.511111
0.472118
0.172404
0.203532
-0.00540636
0.100834
-0.0583756
0.0759241
-0.0691448
0.0715994
-0.0707627
0.0710315
-0.0709506
0.070971
-0.0709734
0.0709541
-0.0709958
0.0709277
-0.07101
0.0709491
-0.0709617
0.0709377
-0.071133
0.070737
-0.070922
0.0714184
-0.0709098
0.0698889
-0.0716293
0.0727192
-0.0698853
0.0677418
-0.0720238
0.0756488
-0.0736915
0.0645441
-0.0615506
0.0726067
-0.0865005
0.0811966
-0.0650679
0.0552699
-0.059426
0.0651211
-0.0714401
0.078101
-0.0899466
0.0976354
-0.0993418
0.0885827
-0.0732166
0.0528027
-0.0369811
0.0217847
-0.0141403
0.00610439
-0.0045119
-0.00172581
-0.350916
-0.350916
1
1.08258
1.02397
0.978192
0.837927
0.859293
0.694377
0.79672
0.571733
0.78034
0.480266
0.714495
0.528073
0.546807
0.577058
0.585142
0.377213
0.701633
0.432882
0.519032
0.49899
0.63299
0.435622
0.622106
0.469724
0.661855
0.593399
0.735522
0.517024
0.714342
0.671656
0.89555
0.77542
0.997498
0.904266
1.05797
0.851049
0.958907
0.757409
0.821767
0.514465
0.489507
0.175915
0.216362
-0.00768145
0.109079
-0.0636108
0.0825472
-0.0751808
0.0778666
-0.0769452
0.0772431
-0.0771529
0.0771759
-0.0771781
0.0771578
-0.0772011
0.0771319
-0.0772127
0.0771566
-0.0771664
0.0771328
-0.0773492
0.076953
-0.0770857
0.0776243
-0.0772128
0.0760416
-0.0776408
0.0790585
-0.0764509
0.0737571
-0.0776215
0.0817326
-0.0808454
0.0718745
-0.0669247
0.0762072
-0.0919661
0.0900616
-0.0741807
0.0616827
-0.0641773
0.0700919
-0.0762417
0.0812816
-0.0920721
0.101277
-0.107187
0.101371
-0.0898937
0.0710656
-0.0547325
0.0373063
-0.0266694
0.015275
-0.0104939
0.00454879
0.352242
0.352242
1
1.0903
1.03889
1.025
0.87454
0.916934
0.732325
0.860198
0.603556
0.84151
0.52463
0.748444
0.594109
0.579987
0.609265
0.658289
0.399546
0.73497
0.497653
0.554485
0.521855
0.681044
0.479385
0.657212
0.500163
0.685632
0.621537
0.774668
0.548236
0.7242
0.673454
0.898302
0.777323
0.993146
0.90215
1.05996
0.854701
0.958178
0.756348
0.824491
0.522994
0.500218
0.185432
0.223105
-0.0037238
0.111267
-0.0626636
0.0830612
-0.0750709
0.0780046
-0.0769917
0.0773213
-0.0772209
0.0772468
-0.0772488
0.0772274
-0.0772723
0.0772023
-0.0772812
0.0772299
-0.0772376
0.0771934
-0.0774296
0.0770384
-0.077116
0.0776873
-0.077384
0.0760822
-0.0775042
0.0792217
-0.0769076
0.0737176
-0.0770802
0.0815447
-0.0817435
0.0732551
-0.0665493
0.0736301
-0.0906883
0.0924332
-0.0775162
0.0624646
-0.0628752
0.0689332
-0.07534
0.0789314
-0.087963
0.0974566
-0.106607
0.105676
-0.0989141
0.0830886
-0.0677797
0.049531
-0.0369902
0.023077
-0.0157129
0.00433391
-0.353016
-0.353016
1
1.09377
1.04977
1.06039
0.907628
0.964567
0.766963
0.914891
0.634847
0.88935
0.574406
0.767016
0.660822
0.607531
0.635203
0.721607
0.427706
0.750436
0.561623
0.583188
0.542457
0.712952
0.523446
0.68048
0.529615
0.694778
0.64586
0.798861
0.579936
0.722487
0.674531
0.887461
0.779648
0.977627
0.901939
1.05234
0.863118
0.950668
0.761144
0.82007
0.537011
0.504115
0.201128
0.223573
0.00664387
0.107214
-0.0553512
0.0772845
-0.0686324
0.0718314
-0.0707198
0.0710839
-0.0709723
0.0710013
-0.071003
0.0709807
-0.071027
0.0709565
-0.0710331
0.0709867
-0.0709931
0.0709374
-0.0711918
0.0708107
-0.0708315
0.071425
-0.0712393
0.069829
-0.0710422
0.0730243
-0.0710632
0.0674412
-0.0702368
0.0749175
-0.0761723
0.0684476
-0.0602685
0.0648052
-0.0825152
0.0880091
-0.0748009
0.057483
-0.0553819
0.0613619
-0.0684495
0.0710199
-0.0778903
0.0864882
-0.0976253
0.101022
-0.0993206
0.0876082
-0.0747702
0.0571973
-0.0440531
0.0287178
-0.0195939
0.0096585
0.350308
0.350308
1
1.09367
1.05821
1.0853
0.937473
1.00275
0.79845
0.960155
0.666966
0.922403
0.630156
0.771035
0.726328
0.630771
0.655302
0.773381
0.462724
0.749299
0.623063
0.605834
0.562087
0.729128
0.567369
0.693233
0.558984
0.691149
0.667273
0.80972
0.613051
0.711706
0.676586
0.865516
0.783572
0.953114
0.904535
1.03663
0.876405
0.937306
0.771609
0.809203
0.556115
0.501685
0.222512
0.218223
0.0229477
0.0973865
-0.0421397
0.0656838
-0.056331
0.0598134
-0.0585955
0.058997
-0.0588732
0.0589057
-0.058907
0.0588837
-0.0589314
0.0588605
-0.0589346
0.0588931
-0.058899
0.0588308
-0.0591018
0.0587356
-0.0586991
0.0593036
-0.0592426
0.0577483
-0.0587262
0.060931
-0.0593739
0.0553925
-0.0575753
0.062335
-0.0645735
0.0578577
-0.048558
0.0503115
-0.0679665
0.0771441
-0.066389
0.0472483
-0.0422421
0.0477597
-0.0558669
0.0580432
-0.0627043
0.0694118
-0.0811337
0.087863
-0.0910454
0.0841237
-0.0749525
0.0594868
-0.0471152
0.031605
-0.0217854
0.00800494
-0.354617
-0.354617
1
1.09061
1.06517
1.10103
0.964039
1.03238
0.826968
0.995542
0.701122
0.940013
0.691582
0.762526
0.78825
0.651365
0.670159
0.812544
0.504824
0.734038
0.680004
0.62348
0.581703
0.731046
0.610213
0.697373
0.588675
0.677272
0.686068
0.80934
0.647633
0.694591
0.680317
0.835149
0.789181
0.921858
0.909706
1.01455
0.89371
0.919402
0.786792
0.79314
0.579253
0.49403
0.248468
0.208134
0.0440881
0.0828738
-0.02412
0.0493505
-0.0392569
0.0430413
-0.0417092
0.0421511
-0.042014
0.0420504
-0.0420512
0.042027
-0.042076
0.042005
-0.0420763
0.0420394
-0.0420458
0.0419645
-0.0422501
0.0419032
-0.0418101
0.042414
-0.0424824
0.0409304
-0.041652
0.0440319
-0.0429201
0.0386588
-0.0402017
0.0449088
-0.048022
0.0425128
-0.032499
0.0313476
-0.0482124
0.0608339
-0.0532371
0.0328779
-0.024655
0.0291696
-0.0384742
0.0409998
-0.0437674
0.0479038
-0.0588236
0.0675638
-0.0749428
0.0729755
-0.0682792
0.0561301
-0.0458341
0.0314204
-0.0219971
0.0114995
0.349177
0.349177
1
1.08521
1.07111
1.10925
0.987055
1.05455
0.852752
1.02082
0.738206
0.942458
0.757438
0.744577
0.84389
0.67109
0.680497
0.83872
0.553348
0.708109
0.730335
0.637415
0.601819
0.721068
0.650574
0.695168
0.61853
0.656138
0.701948
0.800148
0.682924
0.673991
0.685541
0.799199
0.795674
0.886219
0.916354
0.988068
0.91347
0.898652
0.805143
0.773618
0.604837
0.482774
0.277351
0.19491
0.0684378
0.0652915
-0.00291028
0.0299025
-0.0190273
0.0231329
-0.0216783
0.022164
-0.0220124
0.022053
-0.0220532
0.0220282
-0.0220782
0.0220075
-0.0220757
0.0220432
-0.0220512
0.021956
-0.0222541
0.0219308
-0.0217827
0.0223743
-0.0225742
0.0209921
-0.0214425
0.0239454
-0.0233102
0.0188525
-0.0197461
0.0242801
-0.0281288
0.023967
-0.0136798
0.0096307
-0.0249753
0.0406238
-0.036808
0.0159879
-0.00437073
0.00721534
-0.0176734
0.0213049
-0.0228234
0.0241095
-0.0330168
0.0422691
-0.0527215
0.0553346
-0.0554384
0.0474582
-0.040323
0.028166
-0.0202457
0.00783217
-0.355185
-0.355185
1
1.07817
1.07601
1.11176
1.00612
1.07045
0.8761
1.03604
0.778653
0.931011
0.825545
0.721087
0.890466
0.691627
0.687123
0.852234
0.606784
0.675652
0.771968
0.649012
0.62248
0.702224
0.686706
0.689044
0.647875
0.630999
0.714154
0.784748
0.717523
0.652744
0.691407
0.760562
0.801632
0.848629
0.92281
0.959338
0.933672
0.877036
0.824709
0.752709
0.630917
0.469907
0.307154
0.180523
0.094003
0.0466211
0.0195052
0.00932398
0.00237457
0.00207223
-0.000486317
0.00101923
-0.0008518
0.00089716
-0.000896614
0.000870803
-0.000921838
0.000851506
-0.000916495
0.000888136
-0.000898551
0.000789168
-0.00109729
0.000801449
-0.000601282
0.00116882
-0.00149949
-8.41709e-05
-8.61771e-05
0.00265682
-0.00251918
-0.00204947
0.00179836
0.00245767
-0.00688047
0.00414279
0.00596324
-0.0127698
-0.000366029
0.0184539
-0.0189146
-0.00147707
0.0164825
-0.0160486
0.00474051
0.000654462
-0.00181906
0.000417656
-0.00642293
0.014687
-0.0267783
0.0330979
-0.037802
0.0343871
-0.0311564
0.0221775
-0.0166557
0.00932316
0.349208
0.349208
1
1.07023
1.07953
1.11044
1.02084
1.08118
0.897376
1.04151
0.822332
0.907909
0.892935
0.696427
0.925405
0.71434
0.690895
0.854065
0.662878
0.641126
0.803043
0.659569
0.643297
0.677949
0.71672
0.681365
0.675654
0.605132
0.721661
0.765734
0.749616
0.63352
0.69665
0.722056
0.805314
0.811477
0.927133
0.930577
0.952113
0.856638
0.843368
0.732624
0.655388
0.457574
0.335714
0.167097
0.118634
0.0290002
0.0409852
-0.0102443
0.0228087
-0.0180002
0.0197265
-0.0191427
0.0193273
-0.0192768
0.0192782
-0.0193048
0.0192529
-0.0193225
0.0192609
-0.0192856
0.0192717
-0.0193955
0.0190799
-0.0193449
0.0195934
-0.0190611
0.018603
-0.0201597
0.020272
-0.0176906
0.0173204
-0.021915
0.0222848
-0.018393
0.013571
-0.0148752
0.024354
-0.0336463
0.0233305
-0.00354479
-0.00151812
-0.0174601
0.0356236
-0.0383442
0.0267576
-0.0191488
0.0173034
-0.020799
0.0181547
-0.0122015
5.39034e-05
0.00869461
-0.0172919
0.0183331
-0.0193204
0.0140969
-0.0116592
0.00388179
-0.35458
-0.35458
1
1.06218
1.08118
1.10704
1.03095
1.0877
0.916988
1.0379
0.86851
0.876228
0.956086
0.675029
0.946644
0.740094
0.692711
0.845758
0.718836
0.608935
0.822141
0.67016
0.663556
0.65178
0.738818
0.674223
0.70061
0.581601
0.723412
0.745509
0.777249
0.618641
0.699878
0.686253
0.804971
0.776944
0.927404
0.903862
0.966662
0.839429
0.859067
0.715472
0.676235
0.447838
0.360954
0.156678
0.140258
0.014487
0.0594672
-0.0267405
0.0402135
-0.0350224
0.0368985
-0.0362601
0.0364633
-0.0364071
0.0364096
-0.0364367
0.0363842
-0.0364529
0.0363948
-0.0364161
0.0363979
-0.036536
0.0362158
-0.036447
0.0367393
-0.0362526
0.0356732
-0.037175
0.0375661
-0.0350314
0.0341535
-0.0386913
0.0396484
-0.0361859
0.0311438
-0.0310726
0.0395088
-0.0508928
0.0438961
-0.0232807
0.0134965
-0.0300312
0.0508719
-0.0574118
0.0463625
-0.0363862
0.0328198
-0.0374503
0.038133
-0.0354737
0.0248178
-0.0151755
0.00382409
0.00106555
-0.00611346
0.00480957
-0.00574701
0.00403693
0.3503
0.3503
1
1.05471
1.08046
1.10306
1.03642
1.09075
0.935361
1.0262
0.915866
0.839669
1.01125
0.660959
0.952913
0.769109
0.69349
0.829295
0.771582
0.583043
0.828489
0.681509
0.68236
0.62707
0.75155
0.669255
0.721491
0.563033
0.718555
0.726102
0.798609
0.609912
0.699838
0.655297
0.799113
0.746827
0.921995
0.880926
0.975513
0.827043
0.870063
0.703033
0.69176
0.44245
0.381114
0.151
0.157119
0.00482691
0.0732008
-0.038415
0.0528401
-0.0472447
0.0492806
-0.0485835
0.0488067
-0.0487445
0.0487481
-0.0487758
0.0487227
-0.0487902
0.0487358
-0.0487542
0.0487307
-0.048883
0.048561
-0.048756
0.0490866
-0.0486553
0.0479629
-0.049383
0.050043
-0.0476115
0.0462364
-0.0506386
0.0521395
-0.0491497
0.0440617
-0.0427368
0.0497665
-0.0627422
0.0594211
-0.0389329
0.0245432
-0.0376207
0.0604001
-0.0712586
0.0617512
-0.049611
0.0434186
-0.0479698
0.0514463
-0.0525998
0.0447665
-0.0358445
0.0231833
-0.0154865
0.00699475
-0.00465173
0.000376554
-0.002171
-0.35314
-0.35314
1
1.04844
1.07698
1.0996
1.03754
1.0908
0.952892
1.00774
0.962586
0.80227
1.05484
0.657515
0.943958
0.800893
0.694161
0.806933
0.818057
0.566644
0.822109
0.693896
0.698787
0.606709
0.754028
0.667499
0.73725
0.551417
0.706659
0.70902
0.812265
0.608467
0.695645
0.630743
0.78675
0.722367
0.909785
0.862967
0.97739
0.820579
0.875128
0.696557
0.700788
0.442641
0.394955
0.151276
0.167975
0.00124776
0.0809525
-0.0440354
0.0594561
-0.0534344
0.0556401
-0.0548801
0.0551252
-0.0550561
0.0550612
-0.0550892
0.0550358
-0.0551019
0.0550511
-0.0550673
0.0550376
-0.0552037
0.0548829
-0.0550398
0.0554027
-0.0550351
0.0542407
-0.0555542
0.0564672
-0.0541933
0.0523409
-0.0565341
0.0585282
-0.056033
0.0510593
-0.048659
0.0539895
-0.0679732
0.0685158
-0.0491548
0.0305263
-0.0392183
0.0629557
-0.0783863
0.0715296
-0.0578078
0.0483527
-0.0515013
0.0567914
-0.0617401
0.0576824
-0.0509824
0.0385977
-0.0294519
0.0185272
-0.0132204
0.00607784
-0.00208672
0.351912
0.351912
1
1.04379
1.0706
1.09728
1.03496
1.08805
0.969909
0.984121
1.00651
0.768071
1.0838
0.666883
0.920667
0.83424
0.695636
0.781031
0.855515
0.561892
0.803909
0.707116
0.712038
0.592902
0.746107
0.669311
0.747206
0.547958
0.687869
0.695137
0.81736
0.614667
0.68695
0.613437
0.767544
0.704132
0.890316
0.850515
0.971698
0.820463
0.873692
0.696614
0.702813
0.448977
0.401908
0.158055