# vtk DataFile Version 2.0
FlowField
ASCII
DATASET STRUCTURED_GRID
DIMENSIONS 100 1 100
POINTS 10000 float
0 0 0
0.01 0 0
0.02 0 0
0.03 0 0
0.04 0 0
0.05 0 0
0.06 0 0
0.07 0 0
0.08 0 0
0.09 0 0
0.1 0 0
0.11 0 0
0.12 0 0
0.13 0 0
0.14 0 0
0.15 0 0
0.16 0 0
0.17 0 0
0.18 0 0
0.19 0 0
0.2 0 0
0.21 0 0
0.22 0 0
0.23 0 0
0.24 0 0
0.25 0 0
0.26 0 0
0.27 0 0
0.28 0 0
0.29 0 0
0.3 0 0
0.31 0 0
0.32 0 0
0.33 0 0
0.34 0 0
0.35 0 0
0.36 0 0
0.37 0 0
0.38 0 0
0.39 0 0
0.4 0 0
0.41 0 0
0.42 0 0
0.43 0 0
0.44 0 0
0.45 0 0
0.46 0 0
0.47 0 0
0.48 0 0
0.49 0 0
0.5 0 0
0.51 0 0
0.52 0 0
0.53 0 0
0.54 0 0
0.55 0 0
0.56 0 0
0.57 0 0
0.58 0 0
0.59 0 0
0.6 0 0
0.61 0 0
0.62 0 0
0.63 0 0
0.64 0 0
0.65 0 0
0.66 0 0
0.67 0 0
0.68 0 0
0.69 0 0
0.7 0 0
0.71 0 0
0.72 0 0
0.73 0 0
0.74 0 0
0.75 0 0
0.76 0 0
0.77 0 0
0.78 0 0
0.79 0 0
0.8 0 0
0.81 0 0
0.82 0 0
0.83 0 0
0.84 0 0
0.85 0 0
0.86 0 0
0.87 0 0
0.88 0 0
0.89 0 0
0.9 0 0
0.91 0 0
0.92 0 0
0.93 0 0
0.94 0 0
0.95 0 0
0.96 0 0
0.97 0 0
0.98 0 0
0.99 0 0
0 0.001 0
0.01 0.001 0
0.02 0.001 0
0.03 0.001 0
0.04 0.001 0
0.05 0.001 0
0.06 0.001 0
0.07 0.001 0
0.08 0.001 0
0.09 0.001 0
0.1 0.001 0
0.11 0.001 0
0.12 0.001 0
0.13 0.001 0
0.14 0.001 0
0.15 0.001 0
0.16 0.001 0
0.17 0.001 0
0.18 0.001 0
0.19 0.001 0
0.2 0.001 0
0.21 0.001 0
0.22 0.001 0
0.23 0.001 0
0.24 0.001 0
0.25 0.001 0
0.26 0.001 0
0.27 0.001 0
0.28 0.001 0
0.29 0.001 0
0.3 0.001 0
0.31 0.001 0
0.32 0.001 0
0.33 0.001 0
0.34 0.001 0
0.35 0.001 0
0.36 0.001 0
0.37 0.001 0
0.38 0.001 0
0.39 0.001 0
0.4 0.001 0
0.41 0.001 0
0.42 0.001 0
0.43 0.001 0
0.44 0.001 0
0.45 0.001 0
0.46 0.001 0
0.47 0.001 0
0.48 0.001 0
0.49 0.001 0
0.5 0.001 0
0.51 0.001 0
0.52 0.001 0
0.53 0.001 0
0.54 0.001 0
0.55 0.001 0
0.56 0.001 0
0.57 0.001 0
0.58 0.001 0
0.59 0.001 0
0.6 0.001 0
0.61 0.001 0
0.62 0.001 0
0.63 0.001 0
0.64 0.001 0
0.65 0.001 0
0.66 0.001 0
0.67 0.001 0
0.68 0.001 0
0.69 0.001 0
0.7 0.001 0
0.71 0.001 0
0.72 0.001 0
0.73 0.001 0
0.74 0.001 0
0.75 0.001 0
0.76 0.001 0
0.77 0.001 0
0.78 0.001 0
0.79 0.001 0
0.8 0.001 0
0.81 0.001 0
0.82 0.001 0
0.83 0.001 0
0.84 0.001 0
0.85 0.001 0
0.86 0.001 0
0.87 0.001 0
0.88 0.001 0
0.89 0.001 0
0.9 0.001 0
0.91 0.001 0
0.92 0.001 0
0.93 0.001 0
0.94 0.001 0
0.95 0.001 0
0.96 0.001 0
0.97 0.001 0
0.98 0.001 0
0.99 0.001 0
0 0.002 0
0.01 0.002 0
0.02 0.002 0
0.03 0.002 0
0.04 0.002 0
0.05 0.002 0
0.06 0.002 0
0.07 0.002 0
0.08 0.002 0
0.09 0.002 0
0.1 0.002 0
0.11 0.002 0
0.12 0.002 0
0.13 0.002 0
0.14 0.002 0
0.15 0.002 0
0.16 0.002 0
0.17 0.002 0
0.18 0.002 0
0.19 0.002 0
0.2 0.002 0
0.21 0.002 0
0.22 0.002 0
0.23 0.002 0
0.24 0.002 0
0.25 0.002 0
0.26 0.002 0
0.27 0.002 0
0.28 0.002 0
0.29 0.002 0
0.3 0.002 0
0.31 0.002 0
0.32 0.002 0
0.33 0.002 0
0.34 0.002 0
0.35 0.002 0
0.36 0.002 0
0.37 0.002 0
0.38 0.002 0
0.39 0.002 0
0.4 0.002 0
0.41 0.002 0
0.42 0.002 0
0.43 0.002 0
0.44 0.002 0
0.45 0.002 0
0.46 0.002 0
0.47 0.002 0
0.48 0.002 0
0.49 0.002 0
0.5 0.002 0
0.51 0.002 0
0.52 0.002 0
0.53 0.002 0
0.54 0.002 0
0.55 0.002 0
0.56 0.002 0
0.57 0.002 0
0.58 0.002 0
0.59 0.002 0
0.6 0.002 0
0.61 0.002 0
0.62 0.002 0
0.63 0.002 0
0.64 0.002 0
0.65 0.002 0
0.66 0.002 0
0.67 0.002 0
0.68 0.002 0
0.69 0.002 0
0.7 0.002 0
0.71 0.002 0
0.72 0.002 0
0.73 0.002 0
0.74 0.002 0
0.75 0.002 0
0.76 0.002 0
0.77 0.002 0
0.78 0.002 0
0.79 0.002 0
0.8 0.002 0
0.81 0.002 0
0.82 0.002 0
0.83 0.002 0
0.84 0.002 0
0.85 0.002 0
0.86 0.002 0
0.87 0.002 0
0.88 0.002 0
0.89 0.002 0
0.9 0.002 0
0.91 0.002 0
0.92 0.002 0
0.93 0.002 0
0.94 0.002 0
0.95 0.002 0
0.96 0.002 0
0.97 0.002 0
0.98 0.002 0
0.99 0.002 0
0 0.003 0
0.01 0.003 0
0.02 0.003 0
0.03 0.003 0
0.04 0.003 0
0.05 0.003 0
0.06 0.003 0
0.07 0.003 0
0.08 0.003 0
0.09 0.003 0
0.1 0.003 0
0.11 0.003 0
0.12 0.003 0
0.13 0.003 0
0.14 0.003 0
0.15 0.003 0
0.16 0.003 0
0.17 0.003 0
0.18 0.003 0
0.19 0.003 0
0.2 0.003 0
0.21 0.003 0
0.22 0.003 0
0.23 0.003 0
0.24 0.003 0
0.25 0.003 0
0.26 0.003 0
0.27 0.003 0
0.28 0.003 0
0.29 0.003 0
0.3 0.003 0
0.31 0.003 0
0.32 0.003 0
0.33 0.003 0
0.34 0.003 0
0.35 0.003 0
0.36 0.003 0
0.37 0.003 0
0.38 0.003 0
0.39 0.003 0
0.4 0.003 0
0.41 0.003 0
0.42 0.003 0
0.43 0.003 0
0.44 0.003 0
0.45 0.003 0
0.46 0.003 0
0.47 0.003 0
0.48 0.003 0
0.49 0.003 0
0.5 0.003 0
0.51 0.003 0
0.52 0.003 0
0.53 0.003 0
0.54 0.003 0
0.55 0.003 0
0.56 0.003 0
0.57 0.003 0
0.58 0.003 0
0.59 0.003 0
0.6 0.003 0
0.61 0.003 0
0.62 0.003 0
0.63 0.003 0
0.64 0.003 0
0.65 0.003 0
0.66 0.003 0
0.67 0.003 0
0.68 0.003 0
0.69 0.003 0
0.7 0.003 0
0.71 0.003 0
0.72 0.003 0
0.73 0.003 0
0.74 0.003 0
0.75 0.003 0
0.76 0.003 0
0.77 0.003 0
0.78 0.003 0
0.79 0.003 0
0.8 0.003 0
0.81 0.003 0
0.82 0.003 0
0.83 0.003 0
0.84 0.003 0
0.85 0.003 0
0.86 0.003 0
0.87 0.003 0
0.88 0.003 0
0.89 0.003 0
0.9 0.003 0
0.91 0.003 0
0.92 0.003 0
0.93 0.003 0
0.94 0.003 0
0.95 0.003 0
0.96 0.003 0
0.97 0.003 0
0.98 0.003 0
0.99 0.003 0
0 0.004 0
0.01 0.004 0
0.02 0.004 0
0.03 0.004 0
0.04 0.004 0
0.05 0.004 0
0.06 0.004 0
0.07 0.004 0
0.08 0.004 0
0.09 0.004 0
0.1 0.004 0
0.11 0.004 0
0.12 0.004 0
0.13 0.004 0
0.14 0.004 0
0.15 0.004 0
0.16 0.004 0
0.17 0.004 0
0.18 0.004 0
0.19 0.004 0
0.2 0.004 0
0.21 0.004 0
0.22 0.004 0
0.23 0.004 0
0.24 0.004 0
0.25 0.004 0
0.26 0.004 0
0.27 0.004 0
0.28 0.004 0
0.29 0.004 0
0.3 0.004 0
0.31 0.004 0
0.32 0.004 0
0.33 0.004 0
0.34 0.004 0
0.35 0.004 0
0.36 0.004 0
0.37 0.004 0
0.38 0.004 0
0.39 0.004 0
0.4 0.004 0
0.41 0.004 0
0.42 0.004 0
0.43 0.004 0
0.44 0.004 0
0.45 0.004 0
0.46 0.004 0
0.47 0.004 0
0.48 0.004 0
0.49 0.004 0
0.5 0.004 0
0.51 0.004 0
0.52 0.004 0
0.53 0.004 0
0.54 0.004 0
0.55 0.004 0
0.56 0.004 0
0.57 0.004 0
0.58 0.004 0
0.59 0.004 0
0.6 0.004 0
0.61 0.004 0
0.62 0.004 0
0.63 0.004 0
0.64 0.004 0
0.65 0.004 0
0.66 0.004 0
0.67 0.004 0
0.68 0.004 0
0.69 0.004 0
0.7 0.004 0
0.71 0.004 0
0.72 0.004 0
0.73 0.004 0
0.74 0.004 0
0.75 0.004 0
0.76 0.004 0
0.77 0.004 0
0.78 0.004 0
0.79 0.004 0
0.8 0.004 0
0.81 0.004 0
0.82 0.004 0
0.83 0.004 0
0.84 0.004 0
0.85 0.004 0
0.86 0.004 0
0.87 0.004 0
0.88 0.004 0
0.89 0.004 0
0.9 0.004 0
0.91 0.004 0
0.92 0.004 0
0.93 0.004 0
0.94 0.004 0
0.95 0.004 0
0.96 0.004 0
0.97 0.004 0
0.98 0.004 0
0.99 0.004 0
0 0.005 0
0.01 0.005 0
0.02 0.005 0
0.03 0.005 0
0.04 0.005 0
0.05 0.005 0
0.06 0.005 0
0.07 0.005 0
0.08 0.005 0
0.09 0.005 0
0.1 0.005 0
0.11 0.005 0
0.12 0.005 0
0.13 0.005 0
0.14 0.005 0
0.15 0.005 0
0.16 0.005 0
0.17 0.005 0
0.18 0.005 0
0.19 0.005 0
0.2 0.005 0
0.21 0.005 0
0.22 0.005 0
0.23 0.005 0
0.24 0.005 0
0.25 0.005 0
0.26 0.005 0
0.27 0.005 0
0.28 0.005 0
0.29 0.005 0
0.3 0.005 0
0.31 0.005 0
0.32 0.005 0
0.33 0.005 0
0.34 0.005 0
0.35 0.005 0
0.36 0.005 0
0.37 0.005 0
0.38 0.005 0
0.39 0.005 0
0.4 0.005 0
0.41 0.005 0
0.42 0.005 0
0.43 0.005 0
0.44 0.005 0
0.45 0.005 0
0.46 0.005 0
0.47 0.005 0
0.48 0.005 0
0.49 0.005 0
0.5 0.005 0
0.51 0.005 0
0.52 0.005 0
0.53 0.005 0
0.54 0.005 0
0.55 0.005 0
0.56 0.005 0
0.57 0.005 0
0.58 0.005 0
0.59 0.005 0
0.6 0.005 0
0.61 0.005 0
0.62 0.005 0
0.63 0.005 0
0.64 0.005 0
0.65 0.005 0
0.66 0.005 0
0.67 0.005 0
0.68 0.005 0
0.69 0.005 0
0.7 0.005 0
0.71 0.005 0
0.72 0.005 0
0.73 0.005 0
0.74 0.005 0
0.75 0.005 0
0.76 0.005 0
0.77 0.005 0
0.78 0.005 0
0.79 0.005 0
0.8 0.005 0
0.81 0.005 0
0.82 0.005 0
0.83 0.005 0
0.84 0.005 0
0.85 0.005 0
0.86 0.005 0
0.87 0.005 0
0.88 0.005 0
0.89 0.005 0
0.9 0.005 0
0.91 0.005 0
0.92 0.005 0
0.93 0.005 0
0.94 0.005 0
0.95 0.005 0
0.96 0.005 0
0.97 0.005 0
0.98 0.005 0
0.99 0.005 0
0 0.006 0
0.01 0.006 0
0.02 0.006 0
0.03 0.006 0
0.04 0.006 0
0.05 0.006 0
0.06 0.006 0
0.07 0.006 0
0.08 0.006 0
0.09 0.006 0
0.1 0.006 0
0.11 0.006 0
0.12 0.006 0
0.13 0.006 0
0.14 0.006 0
0.15 0.006 0
0.16 0.006 0
0.17 0.006 0
0.18 0.006 0
0.19 0.006 0
0.2 0.006 0
0.21 0.006 0
0.22 0.006 0
0.23 0.006 0
0.24 0.006 0
0.25 0.006 0
0.26 0.006 0
0.27 0.006 0
0.28 0.006 0
0.29 0.006 0
0.3 0.006 0
0.31 0.006 0
0.32 0.006 0
0.33 0.006 0
0.34 0.006 0
0.35 0.006 0
0.36 0.006 0
0.37 0.006 0
0.38 0.006 0
0.39 0.006 0
0.4 0.006 0
0.41 0.006 0
0.42 0.006 0
0.43 0.006 0
0.44 0.006 0
0.45 0.006 0
0.46 0.006 0
0.47 0.006 0
0.48 0.006 0
0.49 0.006 0
0.5 0.006 0
0.51 0.006 0
0.52 0.006 0
0.53 0.006 0
0.54 0.006 0
0.55 0.006 0
0.56 0.006 0
0.57 0.006 0
0.58 0.006 0
0.59 0.006 0
0.6 0.006 0
0.61 0.006 0
0.62 0.006 0
0.63 0.006 0
0.64 0.006 0
0.65 0.006 0
0.66 0.006 0
0.67 0.006 0
0.68 0.006 0
0.69 0.006 0
0.7 0.006 0
0.71 0.006 0
0.72 0.006 0
0.73 0.006 0
0.74 0.006 0
0.75 0.006 0
0.76 0.006 0
0.77 0.006 0
0.78 0.006 0
0.79 0.006 0
0.8 0.006 0
0.81 0.006 0
0.82 0.006 0
0.83 0.006 0
0.84 0.006 0
0.85 0.006 0
0.86 0.006 0
0.87 0.006 0
0.88 0.006 0
0.89 0.006 0
0.9 0.006 0
0.91 0.006 0
0.92 0.006 0
0.93 0.006 0
0.94 0.006 0
0.95 0.006 0
0.96 0.006 0
0.97 0.006 0
0.98 0.006 0
0.99 0.006 0
0 0.007 0
0.01 0.007 0
0.02 0.007 0
0.03 0.007 0
0.04 0.007 0
0.05 0.007 0
0.06 0.007 0
0.07 0.007 0
0.08 0.007 0
0.09 0.007 0
0.1 0.007 0
0.11 0.007 0
0.12 0.007 0
0.13 0.007 0
0.14 0.007 0
0.15 0.007 0
0.16 0.007 0
0.17 0.007 0
0.18 0.007 0
0.19 0.007 0
0.2 0.007 0
0.21 0.007 0
0.22 0.007 0
0.23 0.007 0
0.24 0.007 0
0.25 0.007 0
0.26 0.007 0
0.27 0.007 0
0.28 0.007 0
0.29 0.007 0
0.3 0.007 0
0.31 0.007 0
0.32 0.007 0
0.33 0.007 0
0.34 0.007 0
0.35 0.007 0
0.36 0.007 0
0.37 0.007 0
0.38 0.007 0
0.39 0.007 0
0.4 0.007 0
0.41 0.007 0
0.42 0.007 0
0.43 0.007 0
0.44 0.007 0
0.45 0.007 0
0.46 0.007 0
0.47 0.007 0
0.48 0.007 0
0.49 0.007 0
0.5 0.007 0
0.51 0.007 0
0.52 0.007 0
0.53 0.007 0
0.54 0.007 0
0.55 0.007 0
0.56 0.007 0
0.57 0.007 0
0.58 0.007 0
0.59 0.007 0
0.6 0.007 0
0.61 0.007 0
0.62 0.007 0
0.63 0.007 0
0.64 0.007 0
0.65 0.007 0
0.66 0.007 0
0.67 0.007 0
0.68 0.007 0
0.69 0.007 0
0.7 0.007 0
0.71 0.007 0
0.72 0.007 0
0.73 0.007 0
0.74 0.007 0
0.75 0.007 0
0.76 0.007 0
0.77 0.007 0
0.78 0.007 0
0.79 0.007 0
0.8 0.007 0
0.81 0.007 0
0.82 0.007 0
0.83 0.007 0
0.84 0.007 0
0.85 0.007 0
0.86 0.007 0
0.87 0.007 0
0.88 0.007 0
0.89 0.007 0
0.9 0.007 0
0.91 0.007 0
0.92 0.007 0
0.93 0.007 0
0.94 0.007 0
0.95 0.007 0
0.96 0.007 0
0.97 0.007 0
0.98 0.007 0
[...]
POINT_DATA 10000

SCALARS vel_X float 1
LOOKUP_TABLE default
0
0
0
0
0
0
0
0
0
0
0
0
0
0
0
0
0
0
0
0
0
0
0
0
0
0
0
0
0
0
0
0
0
0
0
0
0
0
0
0
0
0
0
0
0
0
0
0
0
0
0
0
0
0
0
0
0
0
0
0
0
0
0
0
0
0
0
0
0
0
0
0
0
0
0
0
0
0
0
0
0
0
0
0
0
0
0
0
0
0
0
0
0
0
0
0
0
0
0
0
1
0.321076
0.217492
0.161083
0.16403
0.152323
0.134879
0.173041
0.126597
0.163557
0.170143
0.142348
0.176643
0.201025
0.164076
0.199392
0.242273
0.244231
0.240234
0.305981
0.350905
0.327003
0.227038
0.134915
0.0606574
0.0296396
0.00689277
0.00627903
-0.00199505
0.00326269
-0.00291891
0.00300486
-0.00298494
0.00298924
-0.00298837
0.00298853
-0.00298851
0.00298851
-0.00298851
0.00298851
-0.00298851
0.00298851
-0.00298851
0.00298851
-0.00298851
0.00298851
-0.00298851
0.00298851
-0.00298851
0.00298851
-0.00298851
0.00298851
-0.00298851
0.00298851
-0.00298851
0.00298851
-0.00298851
0.00298851
-0.00298851
0.00298851
-0.00298851
0.00298851
-0.00298851
0.00298851
-0.00298851
0.00298851
-0.00298851
0.00298851
-0.00298851
0.00298849
-0.0029886
0.00298808
-0.00299021
0.00298297
-0.00300282
0.00296134
-0.00301952
0.0029863
-0.00294515
0.00297996
-0.00319381
0.00281841
-0.00260184
0.00334267
-0.00387184
0.00266312
-0.00144036
0.00201278
-0.00423382
0.00556563
-0.00522089
0.00316774
-0.00117629
-0.000629085
0.00116647
-0.00163823
0.000760112
-0.00372124
-0.169626
-0.169626
1
0.563152
0.407983
0.317665
0.317634
0.29435
0.27674
0.321778
0.264101
0.316889
0.32367
0.291689
0.345377
0.374485
0.332994
0.389982
0.451508
0.454352
0.459639
0.549534
0.59354
0.525216
0.356996
0.206164
0.0934868
0.0434148
0.0115585
0.00815412
-0.00176901
0.00365263
-0.00314297
0.00327017
-0.00324073
0.00324708
-0.0032458
0.00324604
-0.003246
0.003246
-0.003246
0.003246
-0.003246
0.003246
-0.003246
0.003246
-0.003246
0.003246
-0.003246
0.003246
-0.003246
0.003246
-0.003246
0.003246
-0.003246
0.003246
-0.003246
0.003246
-0.003246
0.003246
-0.003246
0.003246
-0.003246
0.003246
-0.003246
0.003246
-0.003246
0.003246
-0.003246
0.003246
-0.00324601
0.00324598
-0.00324614
0.00324536
-0.00324854
0.00323772
-0.00326764
0.00320402
-0.00329688
0.00323344
-0.00319012
0.00323869
-0.00353664
0.00296418
-0.0027533
0.00380021
-0.00440231
0.00263318
-0.00117599
0.00215275
-0.00515822
0.00661856
-0.00593774
0.00305
-0.000598344
-0.00167579
0.00203151
-0.00261897
0.00109288
-0.00210262
0.237074
0.237074
1
0.739331
0.571083
0.466973
0.455326
0.432334
0.409744
0.457348
0.401166
0.454475
0.465818
0.437963
0.493592
0.530044
0.492853
0.556073
0.623172
0.631381
0.636673
0.721454
0.744056
0.640906
0.430863
0.247364
0.112299
0.0519313
0.0140876
0.00963635
-0.00192996
0.00421099
-0.00359151
0.00374673
-0.00371066
0.00371847
-0.00371688
0.00371718
-0.00371713
0.00371714
-0.00371714
0.00371714
-0.00371714
0.00371714
-0.00371714
0.00371714
-0.00371714
0.00371714
-0.00371714
0.00371714
-0.00371714
0.00371714
-0.00371714
0.00371714
-0.00371714
0.00371714
-0.00371714
0.00371714
-0.00371714
0.00371714
-0.00371714
0.00371714
-0.00371714
0.00371714
-0.00371714
0.00371714
-0.00371714
0.00371714
-0.00371714
0.00371714
-0.00371714
0.00371711
-0.00371731
0.00371636
-0.0037202
0.00370721
-0.00374293
0.00366718
-0.0037785
0.00369728
-0.00366266
0.00369921
-0.00404592
0.00340287
-0.00319893
0.00428217
-0.00495013
0.00310138
-0.00161552
0.00250114
-0.00557816
0.00706406
-0.00659488
0.00371735
-0.00139024
-0.0010882
0.00141033
-0.00235184
0.000698525
-0.00344544
-0.205641
-0.205641
1
0.863879
0.708162
0.603772
0.578102
0.562979
0.529865
0.582302
0.529294
0.576524
0.595788
0.572079
0.620091
0.667784
0.633136
0.692169
0.758485
0.772228
0.765582
0.831209
0.829699
0.70769
0.474691
0.274724
0.124629
0.058841
0.0153995
0.0114617
-0.00267527
0.00529428
-0.00457802
0.00475873
-0.00471645
0.00472567
-0.00472379
0.00472415
-0.00472408
0.00472409
-0.00472409
0.00472409
-0.00472409
0.00472409
-0.00472409
0.00472409
-0.00472409
0.00472409
-0.00472409
0.00472409
-0.00472409
0.00472409
-0.00472409
0.00472409
-0.00472409
0.00472409
-0.00472409
0.00472409
-0.00472409
0.00472409
-0.00472409
0.00472409
-0.00472409
0.00472409
-0.00472409
0.00472409
-0.00472409
0.00472409
-0.00472409
0.00472409
-0.0047241
0.00472405
-0.00472429
0.00472318
-0.00472758
0.00471291
-0.00475267
0.00466967
-0.0047898
0.00470211
-0.00467491
0.00468503
-0.00507691
0.00442912
-0.00418384
0.00518898
-0.00600953
0.0043037
-0.00273761
0.00322597
-0.00615668
0.00782515
-0.00790976
0.00537441
-0.00326573
0.000541488
-2.9038e-05
-0.00143307
8.86968e-06
-0.000862183
0.22128
0.22128
1
0.949857
0.820695
0.724843
0.686962
0.682016
0.6372
0.69484
0.644663
0.683497
0.710815
0.689467
0.72613
0.784727
0.749401
0.798397
0.860263
0.876732
0.851937
0.895026
0.874731
0.746759
0.503367
0.295571
0.134432
0.0651095
0.0164179
0.0133566
-0.00352884
0.00648417
-0.00566901
0.00587639
-0.00582747
0.00583822
-0.00583601
0.00583644
-0.00583636
0.00583637
-0.00583637
0.00583637
-0.00583637
0.00583637
-0.00583637
0.00583637
-0.00583637
0.00583637
-0.00583637
0.00583637
-0.00583637
0.00583637
-0.00583637
0.00583637
-0.00583637
0.00583637
-0.00583637
0.00583637
-0.00583637
0.00583637
-0.00583637
0.00583637
-0.00583637
0.00583637
-0.00583637
0.00583637
-0.00583637
0.00583637
-0.00583637
0.00583637
-0.00583638
0.00583632
-0.0058366
0.00583534
-0.00584028
0.00582407
-0.00586715
0.00577927
-0.00590278
0.00581639
-0.00579255
0.00577101
-0.00620881
0.00558696
-0.00526465
0.00615544
-0.00718066
0.00569312
-0.00399524
0.00398468
-0.00672186
0.00865106
-0.0093783
0.0072698
-0.00537508
0.00240599
-0.00162452
-0.000357166
-0.000722359
-0.00208377
-0.212623
-0.212623
1
1.00792
0.910466
0.829039
0.781973
0.786901
0.732166
0.792812
0.746081
0.775331
0.808888
0.788881
0.812861
0.879101
0.841615
0.877603
0.93248
0.94902
0.906029
0.928577
0.896336
0.770459
0.524641
0.313164
0.143554
0.0709642
0.0176703
0.0150428
-0.00413672
0.00744785
-0.00652615
0.00676271
-0.00670644
0.0067189
-0.00671632
0.00671682
-0.00671673
0.00671675
-0.00671674
0.00671674
-0.00671674
0.00671674
-0.00671674
0.00671674
-0.00671674
0.00671674
-0.00671674
0.00671674
-0.00671674
0.00671674
-0.00671674
0.00671674
-0.00671674
0.00671674
-0.00671674
0.00671674
-0.00671674
0.00671674
-0.00671674
0.00671674
-0.00671674
0.00671674
-0.00671674
0.00671674
-0.00671674
0.00671674
-0.00671674
0.00671674
-0.00671675
0.00671669
-0.00671701
0.00671558
-0.00672109
0.00670335
-0.00674947
0.00665792
-0.00678178
0.00670125
-0.00667775
0.00662364
-0.00710493
0.00652499
-0.00611187
0.00687667
-0.0081102
0.00686504
-0.00504332
0.00453649
-0.00704461
0.00920008
-0.0105313
0.00887493
-0.00722733
0.00410256
-0.0030856
0.000673533
-0.00136825
0.000359745
0.218062
0.218062
1
1.04612
0.979784
0.916413
0.863013
0.876678
0.814839
0.875205
0.833389
0.852067
0.889508
0.870768
0.881533
0.951408
0.912126
0.933888
0.980215
0.995743
0.938253
0.943958
0.905238
0.785597
0.542243
0.32896
0.152737
0.076496
0.0193543
0.0164155
-0.00436596
0.00806058
-0.00702242
0.00729128
-0.00722677
0.00724117
-0.00723817
0.00723876
-0.00723865
0.00723867
-0.00723866
0.00723866
-0.00723866
0.00723866
-0.00723866
0.00723866
-0.00723866
0.00723866
-0.00723866
0.00723866
-0.00723866
0.00723866
-0.00723866
0.00723866
-0.00723866
0.00723866
-0.00723866
0.00723866
-0.00723866
0.00723866
-0.00723866
0.00723866
-0.00723866
0.00723866
-0.00723866
0.00723866
-0.00723866
0.00723866
-0.00723866
0.00723866
-0.00723868
0.0072386
-0.00723897
0.00723735
-0.00724347
0.00722417
-0.00727319
0.0071787
-0.00730109
0.00722886
-0.00720454
0.00711811
-0.00763718
0.00711038
-0.00660814
0.00723779
-0.00865335
0.0076659
-0.00577098
0.00480476
-0.00702757
0.00931562
-0.011174
0.00999397
-0.00866155
0.00551116
-0.00433827
0.00160608
-0.00195056
-0.00104534
-0.214268
-0.214268
1
1.07029
1.03136
0.987643
0.93035
0.951339
0.885317
0.942143
0.906862
0.914304
0.953446
0.936389
0.933954
1.0039
0.9643
0.971834
1.00909
1.02391
0.956962
0.949316
0.907617
0.795767
0.557856
0.343602
0.162222
0.0817684
0.0215075
0.0174704
-0.00420111
0.00831058
-0.00714482
0.00744949
-0.00737576
0.00739236
-0.00738886
0.00738955
-0.00738943
0.00738945
-0.00738944
0.00738944
-0.00738944
0.00738944
-0.00738944
0.00738944
-0.00738944
0.00738944
-0.00738944
0.00738944
-0.00738944
0.00738944
-0.00738944
0.00738944
-0.00738944
0.00738944
-0.00738944
0.00738944
-0.00738944
0.00738944
-0.00738944
0.00738944
-0.00738944
0.00738944
-0.00738944
0.00738944
-0.00738944
0.00738944
-0.00738944
0.00738944
-0.00738946
0.00738937
-0.00738979
0.00738797
-0.00739473
0.00737383
-0.00742566
0.00732879
-0.00744847
0.0073857
-0.00736091
0.00724241
-0.00779171
0.00732769
-0.00674642
0.00722974
-0.00878834
0.00807373
-0.00617298
0.00479244
-0.00666705
0.00897909
-0.0112805
0.010597
-0.00965044
0.00660461
-0.00536635
0.00242146
-0.00243684
0.00124206
0.217069
0.217069
1
1.08454
1.06802
1.0438
0.984757
1.01144
0.944027
0.994522
0.967113
0.963245
1.00228
0.987457
0.972515
1.03972
1.00175
0.995953
1.02451
1.03949
0.967992
0.949625
0.906853
0.802814
0.572207
0.357357
0.172055
0.0868241
0.0241147
0.0182333
-0.00366324
0.00822107
-0.00691573
0.00726
-0.00717595
0.00719503
-0.00719099
0.00719179
-0.00719164
0.00719167
-0.00719166
0.00719166
-0.00719166
0.00719166
-0.00719166
0.00719166
-0.00719166
0.00719166
-0.00719166
0.00719166
-0.00719166
0.00719166
-0.00719166
0.00719166
-0.00719166
0.00719166
-0.00719166
0.00719166
-0.00719166
0.00719166
-0.00719166
0.00719166
-0.00719166
0.00719166
-0.00719166
0.00719166
-0.00719166
0.00719166
-0.00719166
0.00719166
-0.00719168
0.00719158
-0.00719206
0.00719002
-0.00719746
0.00717492
-0.00722947
0.00713072
-0.00724674
0.00719381
-0.00716992
0.00701939
-0.00759068
0.00719777
-0.00655176
0.00687731
-0.0085363
0.00810617
-0.00626789
0.00452288
-0.00599678
0.00822922
-0.010885
0.0107011
-0.0101934
0.00736436
-0.00615172
0.00309658
-0.00285041
-0.000301636
-0.214982
-0.214982
1
1.09178
1.09252
1.08627
1.02739
1.05795
0.991768
1.0337
1.01508
1.0005
1.03799
1.02596
0.999906
1.06223
1.02788
1.01028
1.031
1.04696
0.975011
0.947707
0.904729
0.807691
0.585591
0.370324
0.182211
0.0916914
0.0271462
0.0187357
-0.00278147
0.0078227
-0.00636505
0.00675303
-0.00665748
0.00667936
-0.00667468
0.00667562
-0.00667544
0.00667547
-0.00667547
0.00667547
-0.00667547
0.00667547
-0.00667547
0.00667547
-0.00667547
0.00667547
-0.00667547
0.00667547
-0.00667547
0.00667547
-0.00667547
0.00667547
-0.00667547
0.00667547
-0.00667547
0.00667547
-0.00667547
0.00667547
-0.00667547
0.00667547
-0.00667547
0.00667547
-0.00667547
0.00667547
-0.00667547
0.00667547
-0.00667547
0.00667547
-0.00667548
0.00667538
-0.00667591
0.00667364
-0.00668179
0.0066576
-0.00671473
0.00661461
-0.00672618
0.00668304
-0.00666194
0.0064794
-0.00706431
0.00674912
-0.00605484
0.00621337
-0.00793004
0.00778836
-0.0060753
0.00402246
-0.00506191
0.00712196
-0.0100371
0.0103329
-0.0102928
0.00776966
-0.00667075
0.00360562
-0.0031452
0.00184885
0.216492
0.216492
1
1.09408
1.10735
1.1166
1.05965
1.09213
1.02962
1.06132
1.05194
1.02787
1.06274
1.05396
1.01877
1.0746
1.04566
1.01812
1.03207
1.04935
0.980117
0.94506
0.902167
0.810923
0.598119
0.382541
0.192632
0.0963946
0.0305642
0.0190135
-0.00159045
0.00715138
-0.00552802
0.00596409
-0.00585574
0.00588076
-0.00587537
0.00587645
-0.00587625
0.00587629
-0.00587628
0.00587628
-0.00587628
0.00587628
-0.00587628
0.00587628
-0.00587628
0.00587628
-0.00587628
0.00587628
-0.00587628
0.00587628
-0.00587628
0.00587628
-0.00587628
0.00587628
-0.00587628
0.00587628
-0.00587628
0.00587628
-0.00587628
0.00587628
-0.00587628
0.00587628
-0.00587628
0.00587628
-0.00587628
0.00587628
-0.00587628
0.00587628
-0.0058763
0.00587617
-0.00587678
0.00587426
-0.00588315
0.00585728
-0.00591687
0.00581588
-0.00592232
0.00588859
-0.00587244
0.00565818
-0.0062484
0.00601546
-0.00529063
0.00527663
-0.00700942
0.00715054
-0.00561781
0.00332111
-0.00391294
0.00572015
-0.00879381
0.00952759
-0.0099609
0.00780785
-0.00690387
0.00392649
-0.00334109
0.000162285
-0.21547
-0.21547
1
1.09292
1.11474
1.13651
1.08298
1.11548
1.05882
1.07915
1.07903
1.04711
1.07862
1.07347
1.03148
1.07958
1.05746
1.02195
1.03012
1.0486
0.984393
0.94244
0.899635
0.812841
0.60982
0.394029
0.203245
0.100963
0.0343208
0.0191105
-0.00013327
0.00625134
-0.00444818
0.00493701
-0.00481448
0.00484302
-0.00483682
0.00483808
-0.00483784
0.00483788
-0.00483787
0.00483788
-0.00483787
0.00483787
-0.00483787
0.00483787
-0.00483787
0.00483787
-0.00483787
0.00483787
-0.00483787
0.00483787
-0.00483787
0.00483787
-0.00483787
0.00483787
-0.00483787
0.00483787
-0.00483787
0.00483787
-0.00483787
0.00483787
-0.00483787
0.00483787
-0.00483787
0.00483787
-0.00483787
0.00483787
-0.00483788
0.00483787
-0.0048379
0.00483775
-0.00483844
0.00483565
-0.00484531
0.00481776
-0.00487964
0.00477829
-0.00487902
0.0048541
-0.00484511
0.00459985
-0.00518726
0.00503888
-0.00430184
0.00411423
-0.00582341
0.0062321
-0.00492624
0.00245541
-0.00260563
0.00409337
-0.00722228
0.00833483
-0.00922756
0.00748332
-0.0068424
0.00404516
-0.0033975
0.00216276
0.216079
0.216079
1
1.08938
1.11656
1.14771
1.09887
1.12958
1.08063
1.08902
1.09771
1.05984
1.08754
1.08626
1.03994
1.07944
1.06507
1.02352
1.02675
1.0459
0.988317
0.940202
0.897362
0.813697
0.620693
0.404815
0.213962
0.105434
0.038357
0.0190804
0.00153657
0.00517705
-0.00317938
0.00372592
-0.00358772
0.00362018
-0.00361307
0.00361453
-0.00361424
0.0036143
-0.00361429
0.00361429
-0.00361429
0.00361429
-0.00361429
0.00361429
-0.00361429
0.00361429
-0.00361429
0.00361429
-0.00361429
0.00361429
-0.00361429
0.00361429
-0.00361429
0.00361429
-0.00361429
0.00361429
-0.00361429
0.00361429
-0.00361429
0.00361429
-0.00361429
0.00361429
-0.00361429
0.00361429
-0.00361429
0.00361429
-0.00361429
0.00361428
-0.00361431
0.00361415
-0.00361491
0.00361184
-0.0036223
0.00359309
-0.00365707
0.00355588
-0.0036504
0.00363351
-0.00363382
0.0033588
-0.00393552
0.00387184
-0.00314104
0.00278326
-0.00443165
0.00508413
-0.00404244
0.0014701
-0.00120169
0.00231885
-0.00540181
0.00682081
-0.00814314
0.00682178
-0.00649275
0.00395691
-0.00334367
0.00032219
-0.215812
-0.215812
1
1.08426
1.11439
1.15186
1.10871
1.13603
1.09626
1.09269
1.10931
1.06748
1.09115
1.09385
1.04563
1.07596
1.06976
1.02396
1.02291
1.04199
0.992038
0.938504
0.895454
0.81371
0.630715
0.414937
0.224686
0.109854
0.0426028
0.0189869
0.00335498
0.00399342
-0.0017859
0.00239541
-0.00223992
0.00227675
-0.00226862
0.0022703
-0.00226997
0.00227003
-0.00227002
0.00227002
-0.00227002
0.00227002
-0.00227002
0.00227002
-0.00227002
0.00227002
-0.00227002
0.00227002
-0.00227002
0.00227002
-0.00227002
0.00227002
-0.00227002
0.00227002
-0.00227002
0.00227002
-0.00227002
0.00227002
-0.00227002
0.00227002
-0.00227002
0.00227002
-0.00227002
0.00227002
-0.00227002
0.00227002
-0.00227002
0.00227002
-0.00227005
0.00226987
-0.00227072
0.00226734
-0.00227863
0.00224776
-0.00231364
0.00221314
-0.00230105
0.00229124
-0.00230286
0.00199988
-0.00255841
0.00257748
-0.00187091
0.00135072
-0.00290449
0.00376997
-0.0030198
0.00041845
0.000231211
0.00048126
-0.00342338
0.00506731
-0.00677762
0.0058716
-0.00587957
0.00366905
-0.00315052
0.0021698
0.215809
0.215809
1
1.07816
1.10949
1.15049
1.11377
1.13635
1.10677
1.09181
1.11504
1.07116
1.09076
1.09743
1.04955
1.07048
1.07237
1.02395
1.01912
1.03732
0.99554
0.937406
0.893942
0.813088
0.639864
0.424446
0.235311
0.11428
0.0469784
0.0189023
0.00524886
0.00277424
-0.000340965
0.00101897
-0.000844484
0.000886164
-0.000876884
0.000878817
-0.000878439
0.000878509
-0.000878497
0.000878499
-0.000878498
0.000878498
-0.000878498
0.000878498
-0.000878498
0.000878498
-0.000878498
0.000878498
-0.000878498
0.000878498
-0.000878498
0.000878498
-0.000878498
0.000878498
-0.000878498
0.000878498
-0.000878498
0.000878498
-0.000878498
0.000878498
-0.000878498
0.000878498
-0.000878498
0.000878498
-0.000878498
0.000878498
-0.000878499
0.000878493
-0.000878533
0.000878324
-0.000879272
0.000875573
-0.000887712
0.000855215
-0.000922768
0.000823452
-0.000904467
0.000900678
-0.000925389
0.000596808
-0.00113011
0.00122811
-0.000562776
-0.000108131
-0.00132134
0.00236361
-0.00192194
-0.000638852
0.00162073
-0.00132924
-0.00138713
0.00316841
-0.00521692
0.0047025
-0.00504783
0.00320302
-0.00286156
0.000183887
-0.216012
-0.216012
1
1.07154
1.10286
1.145
1.11518
1.13192
1.11308
1.08781
1.11605
1.07184
1.08739
1.09789
1.05236
1.06397
1.07341
1.02387
1.01566
1.03222
0.998732
0.936921
0.892813
0.812028
0.648112
0.433406
0.245729
0.11877
0.0513986
0.0189035
0.00714013
0.0015981
0.00107737
-0.000325046
0.000520369
-0.000473316
0.000483878
-0.00048166
0.000482097
-0.000482016
0.00048203
-0.000482028
0.000482028
-0.000482028
0.000482028
-0.000482028
0.000482028
-0.000482028
0.000482028
-0.000482028
0.000482028
-0.000482028
0.000482028
-0.000482028
0.000482028
-0.000482028
0.000482028
-0.000482028
0.000482028
-0.000482028
0.000482028
-0.000482028
0.000482028
-0.000482028
0.000482028
-0.000482028
0.000482028
-0.000482028
0.000482027
-0.000482035
0.000481989
-0.000482224
0.000481173
-0.000485208
0.000472205
-0.000506283
0.000437303
-0.000534935
0.000461009
-0.000459952
0.000420595
-0.000771925
0.000270265
-9.88998e-05
0.000707418
-0.00151391
0.00023361
0.000945521
-0.000818843
-0.00163711
0.0028935
-0.00302156
0.000602707
0.00122491
-0.00355633
0.00340036
-0.00406183
0.00259609
-0.00246486
0.00190328
0.215674
0.215674
1
1.06476
1.09526
1.13654
1.11392
1.12402
1.11588
1.08191
1.11332
1.07023
1.08177
1.09589
1.05437
1.0571
1.07319
1.02392
1.01263
1.02693
1.0015
0.937038
0.892032
0.810717
0.65544
0.441884
0.255836
0.123382
0.0557799
0.0190648
0.0089528
0.000541325
0.00239328
-0.00156054
0.00177865
-0.00172566
0.00173765
-0.00173511
0.00173562
-0.00173552
0.00173554
-0.00173554
0.00173554
-0.00173554
0.00173554
-0.00173554
0.00173554
-0.00173554
0.00173554
-0.00173554
0.00173554
-0.00173554
0.00173554
-0.00173554
0.00173554
-0.00173554
0.00173554
-0.00173554
0.00173554
-0.00173554
0.00173554
-0.00173554
0.00173554
-0.00173554
0.00173554
-0.00173554
0.00173554
-0.00173554
0.00173554
-0.00173555
0.00173549
-0.00173576
0.0017346
-0.00173898
0.0017251
-0.00176071
0.00169056
-0.00178604
0.00171928
-0.00171463
0.00165936
-0.00203015
0.00156582
-0.00132811
0.00186607
-0.00279016
0.00167864
-0.000404719
0.000220013
-0.00251402
0.00398168
-0.00451114
0.00244565
-0.000663764
-0.0018909
0.00205746
-0.0029992
0.00189886
-0.00202177
-0.000185939
-0.216089
-0.216089
1
1.05807
1.08726
1.12608
1.11076
1.11373
1.11573
1.07505
1.10777
1.0669
1.07442
1.09185
1.0557
1.05032
1.07191
1.02415
1.01005
1.02165
1.00376
0.937726
0.891554
0.809318
0.661847
0.449939
0.265543
0.128163
0.0600502
0.0194484
0.0106224
-0.00033142
0.00354254
-0.00262302
0.00286598
-0.00280645
0.00282003
-0.00281714
0.00281772
-0.00281761
0.00281763
-0.00281762
0.00281762
-0.00281762
0.00281762
-0.00281762
0.00281762
-0.00281762
0.00281762
-0.00281762
0.00281762
-0.00281762
0.00281762
-0.00281762
0.00281762
-0.00281762
0.00281762
-0.00281762
0.00281762
-0.00281762
0.00281762
-0.00281762
0.00281762
-0.00281762
0.00281762
-0.00281762
0.00281762
-0.00281762
0.00281762
-0.00281763
0.00281757
-0.00281787
0.00281659
-0.00282134
0.00280658
-0.00284364
0.0027726
-0.00286547
0.00280587
-0.00279891
0.00272678
-0.00311338
0.00269123
-0.00239543
0.00285125
-0.00387273
0.00294404
-0.00161798
0.0011349
-0.00321846
0.00483175
-0.00572959
0.00405504
-0.00240947
-0.00030381
0.000759131
-0.00194006
0.00116953
-0.00153473
0.00146464
0.215644
0.215644
1
1.05165
1.07931
1.11438
1.10632
1.10203
1.11302
1.06788
1.10019
1.0623
1.06573
1.08604
1.05631
1.04388
1.06969
1.02457
1.0079
1.01652
1.00543
0.938931
0.891341
0.807962
0.667351
0.457618
0.274783
0.133138
0.064158
0.0200953
0.0121053
-0.000976653
0.00448205
-0.00346914
0.00373912
-0.00367241
0.00368776
-0.00368446
0.00368512
-0.003685
0.00368502
-0.00368502
0.00368502
-0.00368502
0.00368502
-0.00368502
0.00368502
-0.00368502
0.00368502
-0.00368502
0.00368502
-0.00368502
0.00368502
-0.00368502
0.00368502
-0.00368502
0.00368502
-0.00368502
0.00368502
-0.00368502
0.00368502
-0.00368502
0.00368502
-0.00368502
0.00368502
-0.00368502
0.00368502
-0.00368502