# vtk DataFile Version 2.0
FlowField
ASCII
DATASET STRUCTURED_GRID
DIMENSIONS 100 1 100
POINTS 10000 float
0 0 0
0.01 0 0
0.02 0 0
0.03 0 0
0.04 0 0
0.05 0 0
0.06 0 0
0.07 0 0
0.08 0 0
0.09 0 0
0.1 0 0
0.11 0 0
0.12 0 0
0.13 0 0
0.14 0 0
0.15 0 0
0.16 0 0
0.17 0 0
0.18 0 0
0.19 0 0
0.2 0 0
0.21 0 0
0.22 0 0
0.23 0 0
0.24 0 0
0.25 0 0
0.26 0 0
0.27 0 0
0.28 0 0
0.29 0 0
0.3 0 0
0.31 0 0
0.32 0 0
0.33 0 0
0.34 0 0
0.35 0 0
0.36 0 0
0.37 0 0
0.38 0 0
0.39 0 0
0.4 0 0
0.41 0 0
0.42 0 0
0.43 0 0
0.44 0 0
0.45 0 0
0.46 0 0
0.47 0 0
0.48 0 0
0.49 0 0
0.5 0 0
0.51 0 0
0.52 0 0
0.53 0 0
0.54 0 0
0.55 0 0
0.56 0 0
0.57 0 0
0.58 0 0
0.59 0 0
0.6 0 0
0.61 0 0
0.62 0 0
0.63 0 0
0.64 0 0
0.65 0 0
0.66 0 0
0.67 0 0
0.68 0 0
0.69 0 0
0.7 0 0
0.71 0 0
0.72 0 0
0.73 0 0
0.74 0 0
0.75 0 0
0.76 0 0
0.77 0 0
0.78 0 0
0.79 0 0
0.8 0 0
0.81 0 0
0.82 0 0
0.83 0 0
0.84 0 0
0.85 0 0
0.86 0 0
0.87 0 0
0.88 0 0
0.89 0 0
0.9 0 0
0.91 0 0
0.92 0 0
0.93 0 0
0.94 0 0
0.95 0 0
0.96 0 0
0.97 0 0
0.98 0 0
0.99 0 0
0 0.001 0
0.01 0.001 0
0.02 0.001 0
0.03 0.001 0
0.04 0.001 0
0.05 0.001 0
0.06 0.001 0
0.07 0.001 0
0.08 0.001 0
0.09 0.001 0
0.1 0.001 0
0.11 0.001 0
0.12 0.001 0
0.13 0.001 0
0.14 0.001 0
0.15 0.001 0
0.16 0.001 0
0.17 0.001 0
0.18 0.001 0
0.19 0.001 0
0.2 0.001 0
0.21 0.001 0
0.22 0.001 0
0.23 0.001 0
0.24 0.001 0
0.25 0.001 0
0.26 0.001 0
0.27 0.001 0
0.28 0.001 0
0.29 0.001 0
0.3 0.001 0
0.31 0.001 0
0.32 0.001 0
0.33 0.001 0
0.34 0.001 0
0.35 0.001 0
0.36 0.001 0
0.37 0.001 0
0.38 0.001 0
0.39 0.001 0
0.4 0.001 0
0.41 0.001 0
0.42 0.001 0
0.43 0.001 0
0.44 0.001 0
0.45 0.001 0
0.46 0.001 0
0.47 0.001 0
0.48 0.001 0
0.49 0.001 0
0.5 0.001 0
0.51 0.001 0
0.52 0.001 0
0.53 0.001 0
0.54 0.001 0
0.55 0.001 0
0.56 0.001 0
0.57 0.001 0
0.58 0.001 0
0.59 0.001 0
0.6 0.001 0
0.61 0.001 0
0.62 0.001 0
0.63 0.001 0
0.64 0.001 0
0.65 0.001 0
0.66 0.001 0
0.67 0.001 0
0.68 0.001 0
0.69 0.001 0
0.7 0.001 0
0.71 0.001 0
0.72 0.001 0
0.73 0.001 0
0.74 0.001 0
0.75 0.001 0
0.76 0.001 0
0.77 0.001 0
0.78 0.001 0
0.79 0.001 0
0.8 0.001 0
0.81 0.001 0
0.82 0.001 0
0.83 0.001 0
0.84 0.001 0
0.85 0.001 0
0.86 0.001 0
0.87 0.001 0
0.88 0.001 0
0.89 0.001 0
0.9 0.001 0
0.91 0.001 0
0.92 0.001 0
0.93 0.001 0
0.94 0.001 0
0.95 0.001 0
0.96 0.001 0
0.97 0.001 0
0.98 0.001 0
0.99 0.001 0
0 0.002 0
0.01 0.002 0
0.02 0.002 0
0.03 0.002 0
0.04 0.002 0
0.05 0.002 0
0.06 0.002 0
0.07 0.002 0
0.08 0.002 0
0.09 0.002 0
0.1 0.002 0
0.11 0.002 0
0.12 0.002 0
0.13 0.002 0
0.14 0.002 0
0.15 0.002 0
0.16 0.002 0
0.17 0.002 0
0.18 0.002 0
0.19 0.002 0
0.2 0.002 0
0.21 0.002 0
0.22 0.002 0
0.23 0.002 0
0.24 0.002 0
0.25 0.002 0
0.26 0.002 0
0.27 0.002 0
0.28 0.002 0
0.29 0.002 0
0.3 0.002 0
0.31 0.002 0
0.32 0.002 0
0.33 0.002 0
0.34 0.002 0
0.35 0.002 0
0.36 0.002 0
0.37 0.002 0
0.38 0.002 0
0.39 0.002 0
0.4 0.002 0
0.41 0.002 0
0.42 0.002 0
0.43 0.002 0
0.44 0.002 0
0.45 0.002 0
0.46 0.002 0
0.47 0.002 0
0.48 0.002 0
0.49 0.002 0
0.5 0.002 0
0.51 0.002 0
0.52 0.002 0
0.53 0.002 0
0.54 0.002 0
0.55 0.002 0
0.56 0.002 0
0.57 0.002 0
0.58 0.002 0
0.59 0.002 0
0.6 0.002 0
0.61 0.002 0
0.62 0.002 0
0.63 0.002 0
0.64 0.002 0
0.65 0.002 0
0.66 0.002 0
0.67 0.002 0
0.68 0.002 0
0.69 0.002 0
0.7 0.002 0
0.71 0.002 0
0.72 0.002 0
0.73 0.002 0
0.74 0.002 0
0.75 0.002 0
0.76 0.002 0
0.77 0.002 0
0.78 0.002 0
0.79 0.002 0
0.8 0.002 0
0.81 0.002 0
0.82 0.002 0
0.83 0.002 0
0.84 0.002 0
0.85 0.002 0
0.86 0.002 0
0.87 0.002 0
0.88 0.002 0
0.89 0.002 0
0.9 0.002 0
0.91 0.002 0
0.92 0.002 0
0.93 0.002 0
0.94 0.002 0
0.95 0.002 0
0.96 0.002 0
0.97 0.002 0
0.98 0.002 0
0.99 0.002 0
0 0.003 0
0.01 0.003 0
0.02 0.003 0
0.03 0.003 0
0.04 0.003 0
0.05 0.003 0
0.06 0.003 0
0.07 0.003 0
0.08 0.003 0
0.09 0.003 0
0.1 0.003 0
0.11 0.003 0
0.12 0.003 0
0.13 0.003 0
0.14 0.003 0
0.15 0.003 0
0.16 0.003 0
0.17 0.003 0
0.18 0.003 0
0.19 0.003 0
0.2 0.003 0
0.21 0.003 0
0.22 0.003 0
0.23 0.003 0
0.24 0.003 0
0.25 0.003 0
0.26 0.003 0
0.27 0.003 0
0.28 0.003 0
0.29 0.003 0
0.3 0.003 0
0.31 0.003 0
0.32 0.003 0
0.33 0.003 0
0.34 0.003 0
0.35 0.003 0
0.36 0.003 0
0.37 0.003 0
0.38 0.003 0
0.39 0.003 0
0.4 0.003 0
0.41 0.003 0
0.42 0.003 0
0.43 0.003 0
0.44 0.003 0
0.45 0.003 0
0.46 0.003 0
0.47 0.003 0
0.48 0.003 0
0.49 0.003 0
0.5 0.003 0
0.51 0.003 0
0.52 0.003 0
0.53 0.003 0
0.54 0.003 0
0.55 0.003 0
0.56 0.003 0
0.57 0.003 0
0.58 0.003 0
0.59 0.003 0
0.6 0.003 0
0.61 0.003 0
0.62 0.003 0
0.63 0.003 0
0.64 0.003 0
0.65 0.003 0
0.66 0.003 0
0.67 0.003 0
0.68 0.003 0
0.69 0.003 0
0.7 0.003 0
0.71 0.003 0
0.72 0.003 0
0.73 0.003 0
0.74 0.003 0
0.75 0.003 0
0.76 0.003 0
0.77 0.003 0
0.78 0.003 0
0.79 0.003 0
0.8 0.003 0
0.81 0.003 0
0.82 0.003 0
0.83 0.003 0
0.84 0.003 0
0.85 0.003 0
0.86 0.003 0
0.87 0.003 0
0.88 0.003 0
0.89 0.003 0
0.9 0.003 0
0.91 0.003 0
0.92 0.003 0
0.93 0.003 0
0.94 0.003 0
0.95 0.003 0
0.96 0.003 0
0.97 0.003 0
0.98 0.003 0
0.99 0.003 0
0 0.004 0
0.01 0.004 0
0.02 0.004 0
0.03 0.004 0
0.04 0.004 0
0.05 0.004 0
0.06 0.004 0
0.07 0.004 0
0.08 0.004 0
0.09 0.004 0
0.1 0.004 0
0.11 0.004 0
0.12 0.004 0
0.13 0.004 0
0.14 0.004 0
0.15 0.004 0
0.16 0.004 0
0.17 0.004 0
0.18 0.004 0
0.19 0.004 0
0.2 0.004 0
0.21 0.004 0
0.22 0.004 0
0.23 0.004 0
0.24 0.004 0
0.25 0.004 0
0.26 0.004 0
0.27 0.004 0
0.28 0.004 0
0.29 0.004 0
0.3 0.004 0
0.31 0.004 0
0.32 0.004 0
0.33 0.004 0
0.34 0.004 0
0.35 0.004 0
0.36 0.004 0
0.37 0.004 0
0.38 0.004 0
0.39 0.004 0
0.4 0.004 0
0.41 0.004 0
0.42 0.004 0
0.43 0.004 0
0.44 0.004 0
0.45 0.004 0
0.46 0.004 0
0.47 0.004 0
0.48 0.004 0
0.49 0.004 0
0.5 0.004 0
0.51 0.004 0
0.52 0.004 0
0.53 0.004 0
0.54 0.004 0
0.55 0.004 0
0.56 0.004 0
0.57 0.004 0
0.58 0.004 0
0.59 0.004 0
0.6 0.004 0
0.61 0.004 0
0.62 0.004 0
0.63 0.004 0
0.64 0.004 0
0.65 0.004 0
0.66 0.004 0
0.67 0.004 0
0.68 0.004 0
0.69 0.004 0
0.7 0.004 0
0.71 0.004 0
0.72 0.004 0
0.73 0.004 0
0.74 0.004 0
0.75 0.004 0
0.76 0.004 0
0.77 0.004 0
0.78 0.004 0
0.79 0.004 0
0.8 0.004 0
0.81 0.004 0
0.82 0.004 0
0.83 0.004 0
0.84 0.004 0
0.85 0.004 0
0.86 0.004 0
0.87 0.004 0
0.88 0.004 0
0.89 0.004 0
0.9 0.004 0
0.91 0.004 0
0.92 0.004 0
0.93 0.004 0
0.94 0.004 0
0.95 0.004 0
0.96 0.004 0
0.97 0.004 0
0.98 0.004 0
0.99 0.004 0
0 0.005 0
0.01 0.005 0
0.02 0.005 0
0.03 0.005 0
0.04 0.005 0
0.05 0.005 0
0.06 0.005 0
0.07 0.005 0
0.08 0.005 0
0.09 0.005 0
0.1 0.005 0
0.11 0.005 0
0.12 0.005 0
0.13 0.005 0
0.14 0.005 0
0.15 0.005 0
0.16 0.005 0
0.17 0.005 0
0.18 0.005 0
0.19 0.005 0
0.2 0.005 0
0.21 0.005 0
0.22 0.005 0
0.23 0.005 0
0.24 0.005 0
0.25 0.005 0
0.26 0.005 0
0.27 0.005 0
0.28 0.005 0
0.29 0.005 0
0.3 0.005 0
0.31 0.005 0
0.32 0.005 0
0.33 0.005 0
0.34 0.005 0
0.35 0.005 0
0.36 0.005 0
0.37 0.005 0
0.38 0.005 0
0.39 0.005 0
0.4 0.005 0
0.41 0.005 0
0.42 0.005 0
0.43 0.005 0
0.44 0.005 0
0.45 0.005 0
0.46 0.005 0
0.47 0.005 0
0.48 0.005 0
0.49 0.005 0
0.5 0.005 0
0.51 0.005 0
0.52 0.005 0
0.53 0.005 0
0.54 0.005 0
0.55 0.005 0
0.56 0.005 0
0.57 0.005 0
0.58 0.005 0
0.59 0.005 0
0.6 0.005 0
0.61 0.005 0
0.62 0.005 0
0.63 0.005 0
0.64 0.005 0
0.65 0.005 0
0.66 0.005 0
0.67 0.005 0
0.68 0.005 0
0.69 0.005 0
0.7 0.005 0
0.71 0.005 0
0.72 0.005 0
0.73 0.005 0
0.74 0.005 0
0.75 0.005 0
0.76 0.005 0
0.77 0.005 0
0.78 0.005 0
0.79 0.005 0
0.8 0.005 0
0.81 0.005 0
0.82 0.005 0
0.83 0.005 0
0.84 0.005 0
0.85 0.005 0
0.86 0.005 0
0.87 0.005 0
0.88 0.005 0
0.89 0.005 0
0.9 0.005 0
0.91 0.005 0
0.92 0.005 0
0.93 0.005 0
0.94 0.005 0
0.95 0.005 0
0.96 0.005 0
0.97 0.005 0
0.98 0.005 0
0.99 0.005 0
0 0.006 0
0.01 0.006 0
0.02 0.006 0
0.03 0.006 0
0.04 0.006 0
0.05 0.006 0
0.06 0.006 0
0.07 0.006 0
0.08 0.006 0
0.09 0.006 0
0.1 0.006 0
0.11 0.006 0
0.12 0.006 0
0.13 0.006 0
0.14 0.006 0
0.15 0.006 0
0.16 0.006 0
0.17 0.006 0
0.18 0.006 0
0.19 0.006 0
0.2 0.006 0
0.21 0.006 0
0.22 0.006 0
0.23 0.006 0
0.24 0.006 0
0.25 0.006 0
0.26 0.006 0
0.27 0.006 0
0.28 0.006 0
0.29 0.006 0
0.3 0.006 0
0.31 0.006 0
0.32 0.006 0
0.33 0.006 0
0.34 0.006 0
0.35 0.006 0
0.36 0.006 0
0.37 0.006 0
0.38 0.006 0
0.39 0.006 0
0.4 0.006 0
0.41 0.006 0
0.42 0.006 0
0.43 0.006 0
0.44 0.006 0
0.45 0.006 0
0.46 0.006 0
0.47 0.006 0
0.48 0.006 0
0.49 0.006 0
0.5 0.006 0
0.51 0.006 0
0.52 0.006 0
0.53 0.006 0
0.54 0.006 0
0.55 0.006 0
0.56 0.006 0
0.57 0.006 0
0.58 0.006 0
0.59 0.006 0
0.6 0.006 0
0.61 0.006 0
0.62 0.006 0
0.63 0.006 0
0.64 0.006 0
0.65 0.006 0
0.66 0.006 0
0.67 0.006 0
0.68 0.006 0
0.69 0.006 0
0.7 0.006 0
0.71 0.006 0
0.72 0.006 0
0.73 0.006 0
0.74 0.006 0
0.75 0.006 0
0.76 0.006 0
0.77 0.006 0
0.78 0.006 0
0.79 0.006 0
0.8 0.006 0
0.81 0.006 0
0.82 0.006 0
0.83 0.006 0
0.84 0.006 0
0.85 0.006 0
0.86 0.006 0
0.87 0.006 0
0.88 0.006 0
0.89 0.006 0
0.9 0.006 0
0.91 0.006 0
0.92 0.006 0
0.93 0.006 0
0.94 0.006 0
0.95 0.006 0
0.96 0.006 0
0.97 0.006 0
0.98 0.006 0
0.99 0.006 0
0 0.007 0
0.01 0.007 0
0.02 0.007 0
0.03 0.007 0
0.04 0.007 0
0.05 0.007 0
0.06 0.007 0
0.07 0.007 0
0.08 0.007 0
0.09 0.007 0
0.1 0.007 0
0.11 0.007 0
0.12 0.007 0
0.13 0.007 0
0.14 0.007 0
0.15 0.007 0
0.16 0.007 0
0.17 0.007 0
0.18 0.007 0
0.19 0.007 0
0.2 0.007 0
0.21 0.007 0
0.22 0.007 0
0.23 0.007 0
0.24 0.007 0
0.25 0.007 0
0.26 0.007 0
0.27 0.007 0
0.28 0.007 0
0.29 0.007 0
0.3 0.007 0
0.31 0.007 0
0.32 0.007 0
0.33 0.007 0
0.34 0.007 0
0.35 0.007 0
0.36 0.007 0
0.37 0.007 0
0.38 0.007 0
0.39 0.007 0
0.4 0.007 0
0.41 0.007 0
0.42 0.007 0
0.43 0.007 0
0.44 0.007 0
0.45 0.007 0
0.46 0.007 0
0.47 0.007 0
0.48 0.007 0
0.49 0.007 0
0.5 0.007 0
0.51 0.007 0
0.52 0.007 0
0.53 0.007 0
0.54 0.007 0
0.55 0.007 0
0.56 0.007 0
0.57 0.007 0
0.58 0.007 0
0.59 0.007 0
0.6 0.007 0
0.61 0.007 0
0.62 0.007 0
0.63 0.007 0
0.64 0.007 0
0.65 0.007 0
0.66 0.007 0
0.67 0.007 0
0.68 0.007 0
0.69 0.007 0
0.7 0.007 0
0.71 0.007 0
0.72 0.007 0
0.73 0.007 0
0.74 0.007 0
0.75 0.007 0
0.76 0.007 0
0.77 0.007 0
0.78 0.007 0
0.79 0.007 0
0.8 0.007 0
0.81 0.007 0
0.82 0.007 0
0.83 0.007 0
0.84 0.007 0
0.85 0.007 0
0.86 0.007 0
0.87 0.007 0
0.88 0.007 0
0.89 0.007 0
0.9 0.007 0
0.91 0.007 0
0.92 0.007 0
0.93 0.007 0
0.94 0.007 0
0.95 0.007 0
0.96 0.007 0
0.97 0.007 0
0.98 0.007 0
[...]
POINT_DATA 10000

SCALARS vel_X float 1
LOOKUP_TABLE default
0
0
0
0
0
0
0
0
0
0
0
0
0
0
0
0
0
0
0
0
0
0
0
0
0
0
0
0
0
0
0
0
0
0
0
0
0
0
0
0
0
0
0
0
0
0
0
0
0
0
0
0
0
0
0
0
0
0
0
0
0
0
0
0
0
0
0
0
0
0
0
0
0
0
0
0
0
0
0
0
0
0
0
0
0
0
0
0
0
0
0
0
0
0
0
0
0
0
0
0
1
0.3318
0.181951
0.17322
0.0707531
0.163353
0.0215741
0.147671
0.0179796
0.113304
0.0273793
0.0812889
0.047981
0.0424517
0.036236
0.106784
-0.0624206
0.108003
0.0441691
0.0213063
-0.0137536
0.108836
-0.00411453
0.0867843
0.0223903
0.0550724
-0.0240252
0.131179
0.0975273
0.173312
0.114675
0.249577
0.199117
0.274014
0.202082
0.318564
0.265623
0.322809
0.178945
0.182232
0.0422859
0.0808851
-0.0199542
0.0474564
-0.035997
0.0404248
-0.0388268
0.0393665
-0.039195
0.0392464
-0.0392318
0.0392357
-0.0392347
0.0392349
-0.0392351
0.0392343
-0.0392368
0.0392301
-0.0392451
0.0392177
-0.0392555
0.0392241
-0.0392224
0.0392535
-0.0392772
0.0390975
-0.039306
0.0394817
-0.0389167
0.0388273
-0.0401022
0.0397999
-0.037669
0.0380067
-0.041439
0.0422036
-0.0378996
0.0330927
-0.036867
0.0455164
-0.047483
0.0408358
-0.0342539
0.0300681
-0.0286827
0.0323039
-0.043259
0.0555942
-0.0627483
0.0604339
-0.0515845
0.0392705
-0.027986
0.0183268
-0.0118807
0.00683843
-0.00428977
-0.00197173
-0.246564
-0.246564
1
0.573165
0.355325
0.311602
0.175222
0.27603
0.0938454
0.249051
0.0754772
0.201395
0.0800484
0.154136
0.105452
0.0947591
0.0946529
0.171949
-0.0410819
0.186665
0.0924799
0.0630211
0.0301664
0.185268
0.0410942
0.163755
0.0792862
0.122377
0.03952
0.257384
0.222519
0.327308
0.267365
0.451884
0.390256
0.48666
0.39936
0.549149
0.468744
0.514192
0.298029
0.274066
0.0761156
0.113912
-0.0206981
0.0625091
-0.0451801
0.0518491
-0.0494511
0.0502588
-0.0500027
0.0500793
-0.0500576
0.0500634
-0.0500619
0.0500622
-0.0500625
0.0500613
-0.050065
0.050055
-0.0500778
0.0500353
-0.050096
0.0500407
-0.0500498
0.0500879
-0.0501199
0.04986
-0.0501926
0.0503844
-0.0495785
0.049559
-0.0513374
0.0506736
-0.0478129
0.0486416
-0.0533153
0.0537701
-0.0477378
0.0417838
-0.0478004
0.0591205
-0.0606019
0.0509676
-0.0426398
0.0378174
-0.0370535
0.042545
-0.0571439
0.0722898
-0.0803186
0.0758903
-0.0638014
0.0475132
-0.0333144
0.0211008
-0.0135177
0.00730294
-0.00477788
0.00105622
0.370373
0.370373
1
0.748291
0.502691
0.440395
0.279723
0.373763
0.18234
0.330465
0.152703
0.275752
0.148693
0.220778
0.171567
0.158048
0.151395
0.238533
0.0171115
0.243724
0.155577
0.127653
0.0905913
0.25405
0.11258
0.240102
0.158234
0.210049
0.13621
0.371837
0.349918
0.468406
0.417177
0.613361
0.554887
0.653967
0.562162
0.706361
0.605852
0.624907
0.373495
0.322499
0.101023
0.128129
-0.0159038
0.0662271
-0.0453669
0.0534026
-0.0505099
0.051486
-0.051176
0.0512689
-0.0512425
0.0512496
-0.0512478
0.0512481
-0.0512485
0.051247
-0.0512515
0.0512395
-0.0512668
0.0512157
-0.0512893
0.0512197
-0.0512391
0.0512717
-0.0513178
0.0510176
-0.0513996
0.0515928
-0.0507297
0.0506963
-0.0526214
0.0518981
-0.0488932
0.0497124
-0.0546032
0.0551361
-0.0490742
0.0426492
-0.048629
0.0602488
-0.0622255
0.0525271
-0.0441706
0.0391185
-0.0381748
0.0427679
-0.056753
0.0718056
-0.0811493
0.0782556
-0.0678403
0.0521235
-0.0381633
0.0251842
-0.0170503
0.00962601
-0.00659811
-0.000680874
-0.326079
-0.326079
1
0.873221
0.623567
0.562035
0.375843
0.467818
0.271062
0.40658
0.234891
0.345582
0.22435
0.284319
0.243617
0.2275
0.20476
0.31473
0.0873358
0.292777
0.23041
0.205795
0.154299
0.324204
0.194475
0.318855
0.248379
0.308901
0.236871
0.472577
0.466571
0.593391
0.545695
0.739865
0.686773
0.782311
0.682099
0.807399
0.690388
0.688807
0.420609
0.351307
0.118914
0.136192
-0.0108613
0.0672715
-0.0437992
0.0528791
-0.049597
0.0507093
-0.0503546
0.0504613
-0.0504309
0.0504391
-0.050437
0.0504374
-0.0504378
0.0504361
-0.0504412
0.0504278
-0.0504581
0.0504019
-0.0504824
0.0504058
-0.0504312
0.0504543
-0.0505217
0.0501937
-0.0505802
0.0507995
-0.0499564
0.0498074
-0.0517625
0.0512314
-0.0482314
0.0486322
-0.0534327
0.0545381
-0.0491521
0.0420535
-0.0466558
0.0580682
-0.0617227
0.0532583
-0.0450188
0.0393536
-0.0374755
0.0398524
-0.0517462
0.0663235
-0.078086
0.0788714
-0.0722758
0.0587411
-0.04578
0.0321814
-0.0231223
0.0139699
-0.00968417
0.00410202
0.341261
0.341261
1
0.960055
0.722397
0.672211
0.465277
0.556901
0.357008
0.480181
0.316473
0.413206
0.302777
0.345048
0.31901
0.298659
0.257702
0.394385
0.162694
0.339181
0.310613
0.288071
0.219827
0.393536
0.2791
0.396657
0.341719
0.406211
0.330674
0.556598
0.567329
0.696553
0.64951
0.834164
0.78782
0.874599
0.765039
0.866816
0.740555
0.724588
0.452528
0.369731
0.13401
0.141027
-0.00507532
0.0666469
-0.0408756
0.0509051
-0.0472588
0.0485019
-0.0481032
0.0482238
-0.0481893
0.0481987
-0.0481963
0.0481967
-0.0481972
0.0481953
-0.0482009
0.0481862
-0.0482189
0.0481592
-0.0482432
0.0481647
-0.0481918
0.0482052
-0.0482978
0.0479458
-0.0483137
0.0485818
-0.0477848
0.0474608
-0.0494167
0.0492073
-0.0462262
0.0460188
-0.0506695
0.0525804
-0.0480857
0.040169
-0.0428721
0.054026
-0.0598894
0.0530431
-0.044755
0.0382655
-0.0353261
0.0353294
-0.0447811
0.0586494
-0.0728574
0.0777462
-0.0755408
0.0648143
-0.053288
0.0393781
-0.0294692
0.0186327
-0.0129768
0.0030612
-0.336686
-0.336686
1
1.01858
0.80344
0.767587
0.550364
0.637649
0.440839
0.549528
0.396462
0.477169
0.38256
0.401667
0.395364
0.368809
0.311503
0.470046
0.242642
0.382529
0.390596
0.368278
0.287464
0.456989
0.362512
0.468249
0.432458
0.492999
0.414918
0.621437
0.650861
0.774785
0.731152
0.898772
0.863083
0.934987
0.821419
0.896563
0.77139
0.74246
0.478133
0.381045
0.149812
0.142519
0.00311371
0.063344
-0.0353322
0.0463099
-0.0422928
0.0436713
-0.0432264
0.0433619
-0.0433229
0.0433335
-0.0433308
0.0433313
-0.0433318
0.0433297
-0.0433359
0.04332
-0.0433548
0.0432925
-0.043378
0.0433007
-0.0433264
0.0433313
-0.0434499
0.0430768
-0.0434137
0.0437423
-0.0430016
0.0424813
-0.0444216
0.0445786
-0.0416289
0.0407706
-0.045232
0.0479605
-0.0444377
0.0358002
-0.0364738
0.047214
-0.055299
0.0501971
-0.0418443
0.0345675
-0.0308093
0.0287773
-0.0356882
0.0482446
-0.0640662
0.0725809
-0.0747748
0.0673656
-0.0579522
0.0444835
-0.0343192
0.0223462
-0.0156288
0.00758151
0.337158
0.337158
1
1.0565
0.869988
0.847103
0.631732
0.708275
0.522688
0.612695
0.474862
0.535194
0.463071
0.452766
0.470397
0.436389
0.365672
0.536787
0.326832
0.420989
0.466357
0.442709
0.356448
0.510764
0.441909
0.529412
0.516689
0.565068
0.489444
0.666511
0.717605
0.828403
0.794433
0.93737
0.918171
0.969422
0.860888
0.906167
0.792728
0.748438
0.50221
0.38677
0.16808
0.140453
0.0145983
0.0567453
-0.0264459
0.0384085
-0.0340007
0.0355236
-0.035029
0.0351806
-0.0351367
0.0351487
-0.0351456
0.0351462
-0.0351467
0.0351445
-0.0351512
0.0351341
-0.0351708
0.0351064
-0.0351923
0.035118
-0.0351405
0.0351376
-0.0352816
0.0348914
-0.0351897
0.0355811
-0.0349053
0.0341896
-0.0360883
0.0366153
-0.0337388
0.0322527
-0.0364505
0.0398973
-0.0374212
0.0283236
-0.0269714
0.0369734
-0.0470465
0.0438281
-0.0355655
0.0276258
-0.0233663
0.0197761
-0.0241294
0.0346214
-0.050885
0.0621749
-0.0685381
0.0649029
-0.0583952
0.0463339
-0.0367681
0.0244572
-0.0172844
0.00570393
-0.338575
-0.338575
1
1.07957
0.924675
0.91121
0.708827
0.768579
0.60169
0.668661
0.551437
0.585513
0.543506
0.497587
0.541895
0.500384
0.419185
0.591999
0.413693
0.453517
0.535196
0.509063
0.425228
0.553192
0.514985
0.577905
0.592123
0.621627
0.554692
0.693181
0.768926
0.860064
0.842915
0.954663
0.95819
0.984412
0.890523
0.902826
0.810055
0.746404
0.526727
0.388086
0.189165
0.135158
0.0293354
0.047006
-0.014329
0.0273286
-0.0225046
0.024183
-0.0236343
0.0238035
-0.0237542
0.0237678
-0.0237643
0.023765
-0.0237656
0.0237631
-0.0237704
0.0237521
-0.0237906
0.0237245
-0.0238101
0.0237397
-0.0237584
0.0237477
-0.0239161
0.0235136
-0.0237674
0.024218
-0.0236184
0.0227181
-0.0245399
0.0254238
-0.022683
0.0206157
-0.0244528
0.0284774
-0.0271251
0.0178951
-0.0145742
0.023429
-0.0351631
0.0340094
-0.0260809
0.0175784
-0.0130654
0.00842065
-0.0103506
0.0181536
-0.033672
0.0467012
-0.0567544
0.0571308
-0.0541994
0.0444839
-0.0364198
0.0246521
-0.0176886
0.00909015
0.336089
0.336089
1
1.09193
0.969686
0.961141
0.780689
0.819194
0.676586
0.71707
0.625682
0.62716
0.622633
0.536237
0.607744
0.560079
0.47122
0.634543
0.500795
0.480332
0.59532
0.565928
0.492126
0.584386
0.579995
0.613353
0.657644
0.663824
0.611258
0.704217
0.806619
0.873559
0.879547
0.955729
0.987255
0.985922
0.914757
0.891755
0.825931
0.7391
0.552012
0.386182
0.212552
0.127421
0.0466487
0.0348456
0.000316834
0.0137789
-0.0085105
0.0103564
-0.00974892
0.00993754
-0.00988221
0.00989759
-0.00989359
0.00989437
-0.00989499
0.00989226
-0.00990015
0.00988071
-0.00992103
0.00985337
-0.00993814
0.00987229
-0.00988714
0.00986813
-0.0100597
0.0096503
-0.00985456
0.0103576
-0.00984669
0.00877775
-0.0104833
0.0117034
-0.00916772
0.00657432
-0.00995432
0.0144036
-0.0142302
0.00520731
-2.7506e-05
0.00732252
-0.0203421
0.0214299
-0.0141158
0.00510177
-0.000469898
-0.00473416
0.00488786
-0.000119272
-0.0136064
0.0272227
-0.0401949
0.0444754
-0.0455111
0.0388985
-0.0331614
0.0227998
-0.0167935
0.00592234
-0.339201
-0.339201
1
1.09659
1.00675
0.998564
0.846345
0.861091
0.746226
0.757891
0.697003
0.659952
0.698815
0.569637
0.666004
0.615012
0.521296
0.664302
0.585388
0.502651
0.645603
0.612661
0.555618
0.605716
0.63581
0.636773
0.712814
0.693809
0.659775
0.703192
0.832512
0.873033
0.906575
0.945463
1.00828
0.978892
0.935878
0.876713
0.841121
0.728674
0.577498
0.382331
0.237243
0.118337
0.0654793
0.0213364
0.0164259
-0.00117153
0.00691444
-0.00488818
0.00555947
-0.00534968
0.0054116
-0.00539428
0.00539882
-0.00539793
0.00539725
-0.00540023
0.00539172
-0.00541237
0.00537032
-0.00543925
0.00535576
-0.00541675
0.00540536
-0.00543354
0.00521997
-0.00563074
0.00548015
-0.00493335
0.00534295
-0.00656193
0.0050112
-0.00348159
0.00574542
-0.00880257
0.005961
-0.00124518
0.000225673
-0.00871453
0.0155758
-0.0102104
-0.0036713
0.00712969
-0.000731943
-0.00876849
0.0135016
-0.018817
0.0205261
-0.0188099
0.00769605
0.00531774
-0.0201713
0.027868
-0.0329061
0.02988
-0.0271266
0.0189385
-0.0145512
0.0079388
0.335847
0.335847
1
1.09579
1.0371
1.02543
0.90493
0.895367
0.809759
0.791274
0.764786
0.684432
0.770105
0.599336
0.715028
0.664948
0.569163
0.682037
0.664695
0.52229
0.685477
0.649352
0.614345
0.619356
0.68185
0.650094
0.757499
0.714203
0.70081
0.693981
0.848195
0.862553
0.925514
0.928232
1.02299
0.967229
0.954626
0.860504
0.855342
0.716989
0.602135
0.377902
0.261964
0.109195
0.0845394
0.00776798
0.0327114
-0.016234
0.0224828
-0.0202626
0.0210031
-0.0207702
0.0208394
-0.0208199
0.020825
-0.020824
0.0208233
-0.0208265
0.0208174
-0.0208392
0.0207955
-0.0208655
0.0207837
-0.0208396
0.0208311
-0.0208694
0.0206351
-0.0210419
0.020948
-0.0203674
0.0206644
-0.0220121
0.0206513
-0.0188452
0.0207778
-0.0242289
0.0219853
-0.0171628
0.0149855
-0.0226379
0.0309293
-0.027797
0.0135282
-0.00764503
0.0128008
-0.0227524
0.0276772
-0.0327547
0.0353699
-0.0364069
0.028427
-0.0171329
0.00161297
0.00866704
-0.0173673
0.0180789
-0.0187218
0.0133012
-0.0111393
0.00343178
-0.339052
-0.339052
1
1.09131
1.06153
1.04382
0.955738
0.923138
0.866659
0.817544
0.828357
0.70182
0.834353
0.627269
0.753603
0.709813
0.614657
0.689314
0.736052
0.541288
0.71488
0.676735
0.667044
0.627914
0.717958
0.655731
0.79166
0.727766
0.734786
0.680376
0.854908
0.845853
0.937204
0.907727
1.03211
0.95396
0.970755
0.845325
0.867756
0.70575
0.624657
0.374307
0.285315
0.101377
0.102437
-0.00447162
0.0477857
-0.0300196
0.0368067
-0.0343784
0.0351938
-0.0349357
0.0350129
-0.034991
0.0349968
-0.0349956
0.0349948
-0.0349984
0.0349885
-0.0350117
0.0349663
-0.0350371
0.0349573
-0.0350082
0.0350016
-0.0350513
0.0347975
-0.0351951
0.0351598
-0.0345565
0.0347313
-0.0361842
0.0350434
-0.0330004
0.0345517
-0.0383196
0.0367103
-0.0319392
0.0286877
-0.035236
0.0446367
-0.0439596
0.0298253
-0.0215541
0.0251197
-0.035442
0.0407376
-0.0453762
0.0482172
-0.0514357
0.0467658
-0.0381152
0.023196
-0.0114291
-0.00023889
0.00447802
-0.00862715
0.00632496
-0.00676578
0.00427623
0.336378
0.336378
1
1.08459
1.08048
1.05583
0.998298
0.945461
0.916691
0.837235
0.88691
0.713923
0.889358
0.655467
0.781073
0.749596
0.657617
0.688355
0.797029
0.561601
0.734227
0.696019
0.712533
0.634077
0.744306
0.656248
0.815304
0.737117
0.761969
0.665805
0.853573
0.82617
0.941967
0.886896
1.0357
0.941392
0.983507
0.832919
0.877322
0.696496
0.643782
0.372899
0.305925
0.0962228
0.117813
-0.0140307
0.0602964
-0.041175
0.0485339
-0.0458828
0.0467792
-0.0464936
0.0465795
-0.046555
0.0465615
-0.0465602
0.0465594
-0.0465632
0.0465527
-0.046577
0.0465302
-0.0466015
0.046524
-0.0465699
0.0465644
-0.0466264
0.0463549
-0.0467383
0.0467621
-0.0461478
0.0461934
-0.0477256
0.0468295
-0.0445949
0.0457249
-0.0497273
0.048766
-0.0441964
0.0399985
-0.0452203
0.0553512
-0.0572578
0.0438118
-0.0332922
0.0349073
-0.0454449
0.0513474
-0.0555268
0.0579757
-0.0626048
0.0610575
-0.0556744
0.0425386
-0.0305306
0.0168831
-0.00968122
0.00224961
-0.00137711
-0.0018589
-0.00111668
-0.338191
-0.338191
1
1.07682
1.09418
1.06338
1.03244
0.963254
0.95987
0.851116
0.939485
0.722981
0.93306
0.685764
0.797451
0.784262
0.69784
0.681827
0.845566
0.584832
0.744362
0.708694
0.749752
0.640304
0.761354
0.654079
0.828527
0.744511
0.782528
0.65312
0.844914
0.806129
0.939834
0.867933
1.0335
0.9312
0.991994
0.824612
0.883059
0.69051
0.658396
0.374832
0.322609
0.0948832
0.129497
-0.0197448
0.0690776
-0.0485336
0.0564988
-0.0536094
0.054593
-0.0542776
0.0543731
-0.0543457
0.0543531
-0.0543515
0.0543506
-0.0543547
0.0543435
-0.0543691
0.0543208
-0.0543924
0.0543177
-0.0543586
0.0543532
-0.0544284
0.054141
-0.0545055
0.0545879
-0.0539747
0.0538866
-0.0554706
0.054838
-0.0524616
0.053141
-0.0572928
0.0569721
-0.0527402
0.0477609
-0.0514899
0.0619293
-0.0664434
0.0542512
-0.0417347
0.0410471
-0.0515485
0.0583066
-0.0621948
0.0637816
-0.0689466
0.069994
-0.0681289
0.0577444
-0.0467558
0.0323159
-0.023023
0.012861
-0.00907302
0.00317063
-0.000735233
0.337478
0.337478
1
1.06896
1.10281
1.06807
1.05835
0.977242
0.996403
0.860178
0.98499
0.731453
0.963766
0.719519
0.803466
0.813684
0.735067
0.672583
0.880144
0.612019
0.746524
0.716331
0.777861
0.64856
0.769848
0.651324
0.831609
0.751657
0.796639
0.644457
0.829628
0.787664
0.930792
0.852282
1.02524
0.924458
0.995484
0.821265
0.884254
0.688708
0.667714
0.380926
0.334514
0.0981758
0.136646
-0.0207818
0.0732951
-0.0512605
0.0598672
-0.0567236
0.0578011
-0.0574533
0.0575593
-0.0575288
0.057537
-0.0575353
0.0575343
-0.0575387
0.0575268
-0.0575536
0.057504
-0.0575756
0.0575038
-0.05754
0.0575337
-0.0576228
0.0573217
-0.0576629
0.0578021
-0.0572022
0.0569788
-0.0585859
0.0582293
-0.0557643
0.0559743
-0.0601906
0.0604837
-0.0567061
0.0511399
-0.0532742
0.0635756
-0.0706089
0.0602225
-0.046078
0.042772
-0.0528788
0.0607011
-0.064636
0.0651058
-0.0699384
0.0727751
-0.0742749
0.0672853
-0.0584513
0.0444817
-0.0341913
0.0221348
-0.0159917
0.00777515
-0.00612421
-0.336975
-0.336975
1
1.06173
1.10663
1.07112
1.07659
0.987936
1.02663
0.865604
1.02228
0.741759
0.980382
0.757389
0.800569
0.837627
0.768998
0.663391
0.899945
0.643483
0.742282
0.72041
0.796352
0.660133
0.770834
0.649591
0.825113
0.759601
0.804601
0.641154
0.808536
0.771982
0.915008
0.840654
1.01087
0.921637
0.993607
0.82322
0.880607
0.691538
0.671401
0.391553
0.341236
0.106468
0.138869
-0.0167586
0.072563
-0.0489699
0.0582539
-0.0548395
0.0560179
-0.0556352
0.0557525
-0.0557185
0.0557277
-0.0557258
0.0557247
-0.0557295
0.0557168
-0.0557448
0.055694
-0.0557654
0.0556967
-0.0557285
0.0557204
-0.0558238
0.0555115
-0.0558253
0.0560184
-0.0554439
0.0550864
-0.0566873
0.0566128
-0.0541144
0.0538469
-0.0580452
0.0589091
-0.0556779
0.0497391
-0.0502472
0.0599599
-0.0693084
0.061239
-0.0459512
0.039781
-0.0490305
0.0580313
-0.0624768
0.0618316
-0.065581
0.0692229
-0.0735479
0.0701979
-0.0643975
0.0521001
-0.042011
0.0290992
-0.0214111
0.0115297
-0.0052155
0.338668
0.338668
1
1.05559
1.10608
1.07327
1.08809
0.995655
1.05096
0.868712
1.05027
0.75601
0.982611
0.79918
0.790854
0.855764
0.799308
0.656691
0.904973
0.678755
0.733467
0.722197
0.805149
0.675518
0.765659
0.649915
0.809967
0.768685
0.806934
0.643738
0.782708
0.759581
0.892985
0.833066
0.990745
0.922612
0.986465
0.830264
0.87231
0.698916
0.669642
0.406566
0.342896
0.11961
0.136291
-0.00781106
0.0670139
-0.0417939
0.0517918
-0.0480895
0.0493759
-0.0489554
0.0490852
-0.0490474
0.0490577
-0.0490555
0.0490544
-0.0490595
0.049046
-0.0490752
0.0490234
-0.0490943
0.049029
-0.0490566
0.0490456
-0.0491637
0.0488428
-0.0491256
0.0493687
-0.0488311
0.0483436
-0.0499093
0.0501167
-0.0476404
0.0468978
-0.0510005
0.0523783
-0.0497582
0.0436706
-0.042594
0.0512838
-0.0626307
0.0573191
-0.0414801
0.0323051
-0.0401478
0.0502981
-0.0557795
0.0542889
-0.0564218
0.0598281
-0.0661157
0.0662204
-0.063973
0.0543533
-0.0456364
0.0330031
-0.0247474
0.013986
-0.0096251
-0.335953
-0.335953
1
1.05076
1.1018
1.07481
1.09403
1.00057
1.06981
0.870872
1.06807
0.775759
0.971095
0.843802
0.776923
0.867729
0.825678
0.654399
0.89612
0.716593
0.722078
0.722654
0.804676
0.694409
0.755943
0.652734
0.787503
0.778575
0.804432
0.651966
0.753513
0.750306
0.865637
0.828905
0.965658
0.926692
0.974664
0.841636
0.860066
0.710225
0.663154
0.425296
0.34014
0.136921
0.129566
0.00539684
0.0573077
-0.0303928
0.0411416
-0.0371336
0.0385358
-0.0380745
0.0382178
-0.0381758
0.0381873
-0.0381848
0.0381836
-0.0381891
0.0381749
-0.0382052
0.0381525
-0.0382226
0.0381608
-0.0381847
0.0381698
-0.0383026
0.037976
-0.0382247
0.038513
-0.0380232
0.0374124
-0.0389147
0.0393973
-0.036998
0.0357924
-0.0397284
0.0415535
-0.0395798
0.0335658
-0.0310179
0.0382892
-0.051213
0.049001
-0.0332924
0.0211108
-0.0269429
0.0380334
-0.0450597
0.0432366
-0.0435135
0.0457188
-0.0528867
0.0558506
-0.0572519
0.0510014
-0.0446655
0.0334146
-0.0256294
0.0149259
-0.00734428
0.339395
0.339395
1
1.04721
1.09465
1.07564
1.09579
1.0028
1.08356
0.873417
1.07516
0.801804
0.947467
0.889327
0.761684
0.873204
0.847819
0.657763
0.875151
0.755093
0.710164
0.722415
0.795877
0.71576
0.743508
0.657931
0.759436
0.788361
0.798155
0.664932
0.722611
0.743457
0.83429
0.827043
0.936824
0.932704
0.959275
0.856093
0.845031
0.724368
0.653122
0.446603
0.334093
0.157249
0.119822
0.0217269
0.0445785
-0.0159007
0.0274379
-0.023106
0.0246318
-0.0241266
0.0242845
-0.0242379
0.0242508
-0.024248
0.0242467
-0.0242526
0.0242376
-0.0242691
0.0242155
-0.0242847
0.0242265
-0.0242471
0.0242274
-0.0243748
0.0240454
-0.0242575
0.0245853
-0.0241531
0.0234282
-0.0248405
0.0255857
-0.0233159
0.0216686
-0.0253749
0.0275741
-0.0262529
0.0205225
-0.0166841
0.0222002
-0.0361896
0.0372934
-0.0224588
0.00743586
-0.0106448
0.0222677
-0.0312491
0.0297937
-0.0283104
0.028551
-0.0354289
0.0403141
-0.0450209
0.0424328
-0.0392052
0.030285
-0.0239521
0.0141955
-0.0101576
-0.335618
-0.335618
1
1.0447
1.08567
1.07538
1.09479
1.00245
1.09249
0.87754
1.07148
0.834065
0.914301
0.933161
0.7481
0.872021
0.865495
0.667299
0.844603
0.791869
0.699685
0.7218
0.780177
0.737931
0.730266
0.664935
0.727794
0.796713
0.789371
0.681215
0.691875
0.737936
0.800591
0.82598
0.905782
0.939122
0.941718
0.872036
0.828702
0.739888
0.641091
0.468991
0.326239
0.179084
0.108544
0.0396809
0.0303195
0.00018822
0.012175
-0.00750051
0.00915817
-0.00860576
0.0087795
-0.0087279
0.00874226
-0.00873909
0.00873777
-0.00874403
0.00872826
-0.00876076
0.00870654
-0.00877455
0.00872007
-0.00873792
0.00871249
-0.00887407
0.00854488
-0.00871838
0.00907945
-0.00871352
0.0078863
-0.00918366
0.0101732
-0.00808253
0.00602283
-0.00944508
0.0119429
-0.0112522
0.00599266
-0.00110357
0.00460608
-0.0190802
0.0235678
-0.0103779
-0.00713583
0.00711564
0.00443696
-0.0156068
0.0153226
-0.0125123
0.0103316
-0.0158056
0.0214432
-0.02871
0.0296398
-0.0298771
0.023968
-0.0198987
0.0119265
-0.00621108
0.339285
0.339285
1
1.04283
1.07599
1.0735
1.09234
0.99973
1.09683
0.884189
1.05754
0.871555
0.874956
0.972304
0.738924
0.864265
0.878541
0.682789
0.807618
0.824306
0.692363
0.720872
0.759388
0.758895
0.71808
0.672861
0.694789
0.802081
0.779443
0.699068
0.663251
0.732431