# vtk DataFile Version 2.0
FlowField
ASCII
DATASET STRUCTURED_GRID
DIMENSIONS 100 1 100
POINTS 10000 float
0 0 0
0.01 0 0
0.02 0 0
0.03 0 0
0.04 0 0
0.05 0 0
0.06 0 0
0.07 0 0
0.08 0 0
0.09 0 0
0.1 0 0
0.11 0 0
0.12 0 0
0.13 0 0
0.14 0 0
0.15 0 0
0.16 0 0
0.17 0 0
0.18 0 0
0.19 0 0
0.2 0 0
0.21 0 0
0.22 0 0
0.23 0 0
0.24 0 0
0.25 0 0
0.26 0 0
0.27 0 0
0.28 0 0
0.29 0 0
0.3 0 0
0.31 0 0
0.32 0 0
0.33 0 0
0.34 0 0
0.35 0 0
0.36 0 0
0.37 0 0
0.38 0 0
0.39 0 0
0.4 0 0
0.41 0 0
0.42 0 0
0.43 0 0
0.44 0 0
0.45 0 0
0.46 0 0
0.47 0 0
0.48 0 0
0.49 0 0
0.5 0 0
0.51 0 0
0.52 0 0
0.53 0 0
0.54 0 0
0.55 0 0
0.56 0 0
0.57 0 0
0.58 0 0
0.59 0 0
0.6 0 0
0.61 0 0
0.62 0 0
0.63 0 0
0.64 0 0
0.65 0 0
0.66 0 0
0.67 0 0
0.68 0 0
0.69 0 0
0.7 0 0
0.71 0 0
0.72 0 0
0.73 0 0
0.74 0 0
0.75 0 0
0.76 0 0
0.77 0 0
0.78 0 0
0.79 0 0
0.8 0 0
0.81 0 0
0.82 0 0
0.83 0 0
0.84 0 0
0.85 0 0
0.86 0 0
0.87 0 0
0.88 0 0
0.89 0 0
0.9 0 0
0.91 0 0
0.92 0 0
0.93 0 0
0.94 0 0
0.95 0 0
0.96 0 0
0.97 0 0
0.98 0 0
0.99 0 0
0 0.001 0
0.01 0.001 0
0.02 0.001 0
0.03 0.001 0
0.04 0.001 0
0.05 0.001 0
0.06 0.001 0
0.07 0.001 0
0.08 0.001 0
0.09 0.001 0
0.1 0.001 0
0.11 0.001 0
0.12 0.001 0
0.13 0.001 0
0.14 0.001 0
0.15 0.001 0
0.16 0.001 0
0.17 0.001 0
0.18 0.001 0
0.19 0.001 0
0.2 0.001 0
0.21 0.001 0
0.22 0.001 0
0.23 0.001 0
0.24 0.001 0
0.25 0.001 0
0.26 0.001 0
0.27 0.001 0
0.28 0.001 0
0.29 0.001 0
0.3 0.001 0
0.31 0.001 0
0.32 0.001 0
0.33 0.001 0
0.34 0.001 0
0.35 0.001 0
0.36 0.001 0
0.37 0.001 0
0.38 0.001 0
0.39 0.001 0
0.4 0.001 0
0.41 0.001 0
0.42 0.001 0
0.43 0.001 0
0.44 0.001 0
0.45 0.001 0
0.46 0.001 0
0.47 0.001 0
0.48 0.001 0
0.49 0.001 0
0.5 0.001 0
0.51 0.001 0
0.52 0.001 0
0.53 0.001 0
0.54 0.001 0
0.55 0.001 0
0.56 0.001 0
0.57 0.001 0
0.58 0.001 0
0.59 0.001 0
0.6 0.001 0
0.61 0.001 0
0.62 0.001 0
0.63 0.001 0
0.64 0.001 0
0.65 0.001 0
0.66 0.001 0
0.67 0.001 0
0.68 0.001 0
0.69 0.001 0
0.7 0.001 0
0.71 0.001 0
0.72 0.001 0
0.73 0.001 0
0.74 0.001 0
0.75 0.001 0
0.76 0.001 0
0.77 0.001 0
0.78 0.001 0
0.79 0.001 0
0.8 0.001 0
0.81 0.001 0
0.82 0.001 0
0.83 0.001 0
0.84 0.001 0
0.85 0.001 0
0.86 0.001 0
0.87 0.001 0
0.88 0.001 0
0.89 0.001 0
0.9 0.001 0
0.91 0.001 0
0.92 0.001 0
0.93 0.001 0
0.94 0.001 0
0.95 0.001 0
0.96 0.001 0
0.97 0.001 0
0.98 0.001 0
0.99 0.001 0
0 0.002 0
0.01 0.002 0
0.02 0.002 0
0.03 0.002 0
0.04 0.002 0
0.05 0.002 0
0.06 0.002 0
0.07 0.002 0
0.08 0.002 0
0.09 0.002 0
0.1 0.002 0
0.11 0.002 0
0.12 0.002 0
0.13 0.002 0
0.14 0.002 0
0.15 0.002 0
0.16 0.002 0
0.17 0.002 0
0.18 0.002 0
0.19 0.002 0
0.2 0.002 0
0.21 0.002 0
0.22 0.002 0
0.23 0.002 0
0.24 0.002 0
0.25 0.002 0
0.26 0.002 0
0.27 0.002 0
0.28 0.002 0
0.29 0.002 0
0.3 0.002 0
0.31 0.002 0
0.32 0.002 0
0.33 0.002 0
0.34 0.002 0
0.35 0.002 0
0.36 0.002 0
0.37 0.002 0
0.38 0.002 0
0.39 0.002 0
0.4 0.002 0
0.41 0.002 0
0.42 0.002 0
0.43 0.002 0
0.44 0.002 0
0.45 0.002 0
0.46 0.002 0
0.47 0.002 0
0.48 0.002 0
0.49 0.002 0
0.5 0.002 0
0.51 0.002 0
0.52 0.002 0
0.53 0.002 0
0.54 0.002 0
0.55 0.002 0
0.56 0.002 0
0.57 0.002 0
0.58 0.002 0
0.59 0.002 0
0.6 0.002 0
0.61 0.002 0
0.62 0.002 0
0.63 0.002 0
0.64 0.002 0
0.65 0.002 0
0.66 0.002 0
0.67 0.002 0
0.68 0.002 0
0.69 0.002 0
0.7 0.002 0
0.71 0.002 0
0.72 0.002 0
0.73 0.002 0
0.74 0.002 0
0.75 0.002 0
0.76 0.002 0
0.77 0.002 0
0.78 0.002 0
0.79 0.002 0
0.8 0.002 0
0.81 0.002 0
0.82 0.002 0
0.83 0.002 0
0.84 0.002 0
0.85 0.002 0
0.86 0.002 0
0.87 0.002 0
0.88 0.002 0
0.89 0.002 0
0.9 0.002 0
0.91 0.002 0
0.92 0.002 0
0.93 0.002 0
0.94 0.002 0
0.95 0.002 0
0.96 0.002 0
0.97 0.002 0
0.98 0.002 0
0.99 0.002 0
0 0.003 0
0.01 0.003 0
0.02 0.003 0
0.03 0.003 0
0.04 0.003 0
0.05 0.003 0
0.06 0.003 0
0.07 0.003 0
0.08 0.003 0
0.09 0.003 0
0.1 0.003 0
0.11 0.003 0
0.12 0.003 0
0.13 0.003 0
0.14 0.003 0
0.15 0.003 0
0.16 0.003 0
0.17 0.003 0
0.18 0.003 0
0.19 0.003 0
0.2 0.003 0
0.21 0.003 0
0.22 0.003 0
0.23 0.003 0
0.24 0.003 0
0.25 0.003 0
0.26 0.003 0
0.27 0.003 0
0.28 0.003 0
0.29 0.003 0
0.3 0.003 0
0.31 0.003 0
0.32 0.003 0
0.33 0.003 0
0.34 0.003 0
0.35 0.003 0
0.36 0.003 0
0.37 0.003 0
0.38 0.003 0
0.39 0.003 0
0.4 0.003 0
0.41 0.003 0
0.42 0.003 0
0.43 0.003 0
0.44 0.003 0
0.45 0.003 0
0.46 0.003 0
0.47 0.003 0
0.48 0.003 0
0.49 0.003 0
0.5 0.003 0
0.51 0.003 0
0.52 0.003 0
0.53 0.003 0
0.54 0.003 0
0.55 0.003 0
0.56 0.003 0
0.57 0.003 0
0.58 0.003 0
0.59 0.003 0
0.6 0.003 0
0.61 0.003 0
0.62 0.003 0
0.63 0.003 0
0.64 0.003 0
0.65 0.003 0
0.66 0.003 0
0.67 0.003 0
0.68 0.003 0
0.69 0.003 0
0.7 0.003 0
0.71 0.003 0
0.72 0.003 0
0.73 0.003 0
0.74 0.003 0
0.75 0.003 0
0.76 0.003 0
0.77 0.003 0
0.78 0.003 0
0.79 0.003 0
0.8 0.003 0
0.81 0.003 0
0.82 0.003 0
0.83 0.003 0
0.84 0.003 0
0.85 0.003 0
0.86 0.003 0
0.87 0.003 0
0.88 0.003 0
0.89 0.003 0
0.9 0.003 0
0.91 0.003 0
0.92 0.003 0
0.93 0.003 0
0.94 0.003 0
0.95 0.003 0
0.96 0.003 0
0.97 0.003 0
0.98 0.003 0
0.99 0.003 0
0 0.004 0
0.01 0.004 0
0.02 0.004 0
0.03 0.004 0
0.04 0.004 0
0.05 0.004 0
0.06 0.004 0
0.07 0.004 0
0.08 0.004 0
0.09 0.004 0
0.1 0.004 0
0.11 0.004 0
0.12 0.004 0
0.13 0.004 0
0.14 0.004 0
0.15 0.004 0
0.16 0.004 0
0.17 0.004 0
0.18 0.004 0
0.19 0.004 0
0.2 0.004 0
0.21 0.004 0
0.22 0.004 0
0.23 0.004 0
0.24 0.004 0
0.25 0.004 0
0.26 0.004 0
0.27 0.004 0
0.28 0.004 0
0.29 0.004 0
0.3 0.004 0
0.31 0.004 0
0.32 0.004 0
0.33 0.004 0
0.34 0.004 0
0.35 0.004 0
0.36 0.004 0
0.37 0.004 0
0.38 0.004 0
0.39 0.004 0
0.4 0.004 0
0.41 0.004 0
0.42 0.004 0
0.43 0.004 0
0.44 0.004 0
0.45 0.004 0
0.46 0.004 0
0.47 0.004 0
0.48 0.004 0
0.49 0.004 0
0.5 0.004 0
0.51 0.004 0
0.52 0.004 0
0.53 0.004 0
0.54 0.004 0
0.55 0.004 0
0.56 0.004 0
0.57 0.004 0
0.58 0.004 0
0.59 0.004 0
0.6 0.004 0
0.61 0.004 0
0.62 0.004 0
0.63 0.004 0
0.64 0.004 0
0.65 0.004 0
0.66 0.004 0
0.67 0.004 0
0.68 0.004 0
0.69 0.004 0
0.7 0.004 0
0.71 0.004 0
0.72 0.004 0
0.73 0.004 0
0.74 0.004 0
0.75 0.004 0
0.76 0.004 0
0.77 0.004 0
0.78 0.004 0
0.79 0.004 0
0.8 0.004 0
0.81 0.004 0
0.82 0.004 0
0.83 0.004 0
0.84 0.004 0
0.85 0.004 0
0.86 0.004 0
0.87 0.004 0
0.88 0.004 0
0.89 0.004 0
0.9 0.004 0
0.91 0.004 0
0.92 0.004 0
0.93 0.004 0
0.94 0.004 0
0.95 0.004 0
0.96 0.004 0
0.97 0.004 0
0.98 0.004 0
0.99 0.004 0
0 0.005 0
0.01 0.005 0
0.02 0.005 0
0.03 0.005 0
0.04 0.005 0
0.05 0.005 0
0.06 0.005 0
0.07 0.005 0
0.08 0.005 0
0.09 0.005 0
0.1 0.005 0
0.11 0.005 0
0.12 0.005 0
0.13 0.005 0
0.14 0.005 0
0.15 0.005 0
0.16 0.005 0
0.17 0.005 0
0.18 0.005 0
0.19 0.005 0
0.2 0.005 0
0.21 0.005 0
0.22 0.005 0
0.23 0.005 0
0.24 0.005 0
0.25 0.005 0
0.26 0.005 0
0.27 0.005 0
0.28 0.005 0
0.29 0.005 0
0.3 0.005 0
0.31 0.005 0
0.32 0.005 0
0.33 0.005 0
0.34 0.005 0
0.35 0.005 0
0.36 0.005 0
0.37 0.005 0
0.38 0.005 0
0.39 0.005 0
0.4 0.005 0
0.41 0.005 0
0.42 0.005 0
0.43 0.005 0
0.44 0.005 0
0.45 0.005 0
0.46 0.005 0
0.47 0.005 0
0.48 0.005 0
0.49 0.005 0
0.5 0.005 0
0.51 0.005 0
0.52 0.005 0
0.53 0.005 0
0.54 0.005 0
0.55 0.005 0
0.56 0.005 0
0.57 0.005 0
0.58 0.005 0
0.59 0.005 0
0.6 0.005 0
0.61 0.005 0
0.62 0.005 0
0.63 0.005 0
0.64 0.005 0
0.65 0.005 0
0.66 0.005 0
0.67 0.005 0
0.68 0.005 0
0.69 0.005 0
0.7 0.005 0
0.71 0.005 0
0.72 0.005 0
0.73 0.005 0
0.74 0.005 0
0.75 0.005 0
0.76 0.005 0
0.77 0.005 0
0.78 0.005 0
0.79 0.005 0
0.8 0.005 0
0.81 0.005 0
0.82 0.005 0
0.83 0.005 0
0.84 0.005 0
0.85 0.005 0
0.86 0.005 0
0.87 0.005 0
0.88 0.005 0
0.89 0.005 0
0.9 0.005 0
0.91 0.005 0
0.92 0.005 0
0.93 0.005 0
0.94 0.005 0
0.95 0.005 0
0.96 0.005 0
0.97 0.005 0
0.98 0.005 0
0.99 0.005 0
0 0.006 0
0.01 0.006 0
0.02 0.006 0
0.03 0.006 0
0.04 0.006 0
0.05 0.006 0
0.06 0.006 0
0.07 0.006 0
0.08 0.006 0
0.09 0.006 0
0.1 0.006 0
0.11 0.006 0
0.12 0.006 0
0.13 0.006 0
0.14 0.006 0
0.15 0.006 0
0.16 0.006 0
0.17 0.006 0
0.18 0.006 0
0.19 0.006 0
0.2 0.006 0
0.21 0.006 0
0.22 0.006 0
0.23 0.006 0
0.24 0.006 0
0.25 0.006 0
0.26 0.006 0
0.27 0.006 0
0.28 0.006 0
0.29 0.006 0
0.3 0.006 0
0.31 0.006 0
0.32 0.006 0
0.33 0.006 0
0.34 0.006 0
0.35 0.006 0
0.36 0.006 0
0.37 0.006 0
0.38 0.006 0
0.39 0.006 0
0.4 0.006 0
0.41 0.006 0
0.42 0.006 0
0.43 0.006 0
0.44 0.006 0
0.45 0.006 0
0.46 0.006 0
0.47 0.006 0
0.48 0.006 0
0.49 0.006 0
0.5 0.006 0
0.51 0.006 0
0.52 0.006 0
0.53 0.006 0
0.54 0.006 0
0.55 0.006 0
0.56 0.006 0
0.57 0.006 0
0.58 0.006 0
0.59 0.006 0
0.6 0.006 0
0.61 0.006 0
0.62 0.006 0
0.63 0.006 0
0.64 0.006 0
0.65 0.006 0
0.66 0.006 0
0.67 0.006 0
0.68 0.006 0
0.69 0.006 0
0.7 0.006 0
0.71 0.006 0
0.72 0.006 0
0.73 0.006 0
0.74 0.006 0
0.75 0.006 0
0.76 0.006 0
0.77 0.006 0
0.78 0.006 0
0.79 0.006 0
0.8 0.006 0
0.81 0.006 0
0.82 0.006 0
0.83 0.006 0
0.84 0.006 0
0.85 0.006 0
0.86 0.006 0
0.87 0.006 0
0.88 0.006 0
0.89 0.006 0
0.9 0.006 0
0.91 0.006 0
0.92 0.006 0
0.93 0.006 0
0.94 0.006 0
0.95 0.006 0
0.96 0.006 0
0.97 0.006 0
0.98 0.006 0
0.99 0.006 0
0 0.007 0
0.01 0.007 0
0.02 0.007 0
0.03 0.007 0
0.04 0.007 0
0.05 0.007 0
0.06 0.007 0
0.07 0.007 0
0.08 0.007 0
0.09 0.007 0
0.1 0.007 0
0.11 0.007 0
0.12 0.007 0
0.13 0.007 0
0.14 0.007 0
0.15 0.007 0
0.16 0.007 0
0.17 0.007 0
0.18 0.007 0
0.19 0.007 0
0.2 0.007 0
0.21 0.007 0
0.22 0.007 0
0.23 0.007 0
0.24 0.007 0
0.25 0.007 0
0.26 0.007 0
0.27 0.007 0
0.28 0.007 0
0.29 0.007 0
0.3 0.007 0
0.31 0.007 0
0.32 0.007 0
0.33 0.007 0
0.34 0.007 0
0.35 0.007 0
0.36 0.007 0
0.37 0.007 0
0.38 0.007 0
0.39 0.007 0
0.4 0.007 0
0.41 0.007 0
0.42 0.007 0
0.43 0.007 0
0.44 0.007 0
0.45 0.007 0
0.46 0.007 0
0.47 0.007 0
0.48 0.007 0
0.49 0.007 0
0.5 0.007 0
0.51 0.007 0
0.52 0.007 0
0.53 0.007 0
0.54 0.007 0
0.55 0.007 0
0.56 0.007 0
0.57 0.007 0
0.58 0.007 0
0.59 0.007 0
0.6 0.007 0
0.61 0.007 0
0.62 0.007 0
0.63 0.007 0
0.64 0.007 0
0.65 0.007 0
0.66 0.007 0
0.67 0.007 0
0.68 0.007 0
0.69 0.007 0
0.7 0.007 0
0.71 0.007 0
0.72 0.007 0
0.73 0.007 0
0.74 0.007 0
0.75 0.007 0
0.76 0.007 0
0.77 0.007 0
0.78 0.007 0
0.79 0.007 0
0.8 0.007 0
0.81 0.007 0
0.82 0.007 0
0.83 0.007 0
0.84 0.007 0
0.85 0.007 0
0.86 0.007 0
0.87 0.007 0
0.88 0.007 0
0.89 0.007 0
0.9 0.007 0
0.91 0.007 0
0.92 0.007 0
0.93 0.007 0
0.94 0.007 0
0.95 0.007 0
0.96 0.007 0
0.97 0.007 0
0.98 0.007 0
[...]
POINT_DATA 10000

SCALARS vel_X float 1
LOOKUP_TABLE default
0
0
0
0
0
0
0
0
0
0
0
0
0
0
0
0
0
0
0
0
0
0
0
0
0
0
0
0
0
0
0
0
0
0
0
0
0
0
0
0
0
0
0
0
0
0
0
0
0
0
0
0
0
0
0
0
0
0
0
0
0
0
0
0
0
0
0
0
0
0
0
0
0
0
0
0
0
0
0
0
0
0
0
0
0
0
0
0
0
0
0
0
0
0
0
0
0
0
0
0
1
0.328437
0.23303
0.179965
0.201147
0.172226
0.183506
0.211414
0.182875
0.212587
0.25882
0.239659
0.269663
0.356412
0.382786
0.294214
0.173601
0.0792421
0.0324035
0.00930087
0.00420336
-0.000348391
0.00133067
-0.00110503
0.00115215
-0.00114314
0.00114473
-0.00114447
0.00114451
-0.0011445
0.0011445
-0.0011445
0.0011445
-0.0011445
0.0011445
-0.0011445
0.0011445
-0.0011445
0.0011445
-0.0011445
0.0011445
-0.0011445
0.0011445
-0.0011445
0.0011445
-0.0011445
0.0011445
-0.0011445
0.0011445
-0.0011445
0.0011445
-0.0011445
0.0011445
-0.0011445
0.0011445
-0.0011445
0.0011445
-0.0011445
0.0011445
-0.0011445
0.0011445
-0.0011445
0.0011445
-0.0011445
0.0011445
-0.0011445
0.0011445
-0.0011445
0.0011445
-0.0011445
0.0011445
-0.0011445
0.0011445
-0.0011445
0.0011445
-0.0011445
0.00114448
-0.00114461
0.00114389
-0.00114727
0.00113465
-0.00117032
0.00110109
-0.00116982
0.00119635
-0.00110333
0.000895093
-0.00143688
0.0016646
-0.00083831
-7.75387e-05
-0.000557672
0.00193139
-0.00315532
0.00310282
-0.00280941
0.00142679
-0.00347875
-0.129834
-0.129834
1
0.577185
0.436156
0.357014
0.380712
0.340033
0.361844
0.396399
0.364623
0.414024
0.477067
0.45641
0.510057
0.620958
0.624025
0.461383
0.266155
0.119666
0.0486279
0.0137297
0.00635271
-0.000641013
0.00209288
-0.00175989
0.00182936
-0.00181608
0.00181842
-0.00181804
0.0018181
-0.00181809
0.00181809
-0.00181809
0.00181809
-0.00181809
0.00181809
-0.00181809
0.00181809
-0.00181809
0.00181809
-0.00181809
0.00181809
-0.00181809
0.00181809
-0.00181809
0.00181809
-0.00181809
0.00181809
-0.00181809
0.00181809
-0.00181809
0.00181809
-0.00181809
0.00181809
-0.00181809
0.00181809
-0.00181809
0.00181809
-0.00181809
0.00181809
-0.00181809
0.00181809
-0.00181809
0.00181809
-0.00181809
0.00181809
-0.00181809
0.00181809
-0.00181809
0.00181809
-0.00181809
0.00181809
-0.00181809
0.00181809
-0.00181809
0.00181809
-0.0018181
0.00181807
-0.00181826
0.00181718
-0.0018222
0.00180343
-0.00185703
0.00175042
-0.00186547
0.00188025
-0.00175609
0.00147525
-0.00227936
0.00246668
-0.00130935
0.00017828
-0.00123954
0.00301036
-0.00452677
0.00418369
-0.00380562
0.00175831
-0.00234944
0.174541
0.174541
1
0.7576
0.610947
0.521395
0.538767
0.500413
0.520756
0.560472
0.533517
0.587116
0.655753
0.641338
0.694296
0.793224
0.763433
0.555923
0.317781
0.143832
0.0576105
0.0172248
0.00697116
-5.67757e-05
0.0018237
-0.00141617
0.00150169
-0.00148525
0.00148816
-0.00148768
0.00148776
-0.00148775
0.00148775
-0.00148775
0.00148775
-0.00148775
0.00148775
-0.00148775
0.00148775
-0.00148775
0.00148775
-0.00148775
0.00148775
-0.00148775
0.00148775
-0.00148775
0.00148775
-0.00148775
0.00148775
-0.00148775
0.00148775
-0.00148775
0.00148775
-0.00148775
0.00148775
-0.00148775
0.00148775
-0.00148775
0.00148775
-0.00148775
0.00148775
-0.00148775
0.00148775
-0.00148775
0.00148775
-0.00148775
0.00148775
-0.00148775
0.00148775
-0.00148775
0.00148775
-0.00148775
0.00148775
-0.00148775
0.00148775
-0.00148775
0.00148775
-0.00148775
0.00148772
-0.00148795
0.00148664
-0.00149271
0.00147022
-0.00153389
0.00140779
-0.00154645
0.0015479
-0.0014337
0.00109936
-0.00199171
0.00215851
-0.00100425
-0.00021481
-0.000868395
0.00255817
-0.00419937
0.00383234
-0.00371198
0.00154128
-0.00331037
-0.15087
-0.15087
1
0.884177
0.7575
0.666748
0.676665
0.646028
0.656913
0.703208
0.679851
0.72696
0.796547
0.786208
0.819721
0.893772
0.839246
0.611489
0.350093
0.161314
0.0637822
0.0206125
0.00693197
0.00101389
0.00103575
-0.000558635
0.000659668
-0.000640073
0.000643576
-0.000642995
0.000643085
-0.000643072
0.000643074
-0.000643073
0.000643073
-0.000643073
0.000643073
-0.000643073
0.000643073
-0.000643073
0.000643073
-0.000643073
0.000643073
-0.000643073
0.000643073
-0.000643073
0.000643073
-0.000643073
0.000643073
-0.000643073
0.000643073
-0.000643073
0.000643073
-0.000643073
0.000643073
-0.000643073
0.000643073
-0.000643073
0.000643073
-0.000643073
0.000643073
-0.000643073
0.000643073
-0.000643073
0.000643073
-0.000643073
0.000643073
-0.000643073
0.000643073
-0.000643073
0.000643073
-0.000643073
0.000643073
-0.000643073
0.000643073
-0.000643074
0.000643073
-0.000643079
0.000643035
-0.000643316
0.000641774
-0.000648767
0.000623366
-0.000693801
0.000557425
-0.000703961
0.000701045
-0.000613955
0.000217329
-0.00111614
0.00133602
-0.000326096
-0.00102459
0.000159618
0.00132137
-0.00313574
0.0029647
-0.00324491
0.00123347
-0.00141284
0.164401
0.164401
1
0.97043
0.876014
0.790589
0.794276
0.771988
0.770549
0.822292
0.799485
0.834582
0.901383
0.890499
0.897084
0.946413
0.878706
0.646855
0.373689
0.176054
0.0691233
0.0239725
0.00678206
0.00219363
0.00014769
0.000403212
-0.000285343
0.000308432
-0.000304265
0.000304962
-0.000304853
0.000304869
-0.000304867
0.000304867
-0.000304867
0.000304867
-0.000304867
0.000304867
-0.000304867
0.000304867
-0.000304867
0.000304867
-0.000304867
0.000304867
-0.000304867
0.000304867
-0.000304867
0.000304867
-0.000304867
0.000304867
-0.000304867
0.000304867
-0.000304867
0.000304867
-0.000304867
0.000304867
-0.000304867
0.000304867
-0.000304867
0.000304867
-0.000304867
0.000304867
-0.000304867
0.000304867
-0.000304867
0.000304867
-0.000304867
0.000304867
-0.000304867
0.000304867
-0.000304867
0.000304867
-0.000304867
0.000304867
-0.000304867
0.000304867
-0.000304868
0.000304861
-0.000304913
0.000304582
-0.000306362
0.000298455
-0.00032653
0.00025072
-0.000392679
0.000247681
-0.000246586
0.000302132
-0.000766699
-0.000103215
0.000423802
0.000402869
-0.00191676
0.00135226
-8.8853e-05
-0.00191517
0.00201463
-0.00268876
0.000936207
-0.00234161
-0.155874
-0.155874
1
1.0273
0.967882
0.892701
0.89114
0.876591
0.862665
0.916734
0.892691
0.913498
0.97401
0.960146
0.940805
0.970359
0.898495
0.671775
0.39335
0.189664
0.0743951
0.0273142
0.0067358
0.00332701
-0.000670713
0.00130285
-0.00116613
0.00119319
-0.00118826
0.00118909
-0.00118896
0.00118898
-0.00118898
0.00118898
-0.00118898
0.00118898
-0.00118898
0.00118898
-0.00118898
0.00118898
-0.00118898
0.00118898
-0.00118898
0.00118898
-0.00118898
0.00118898
-0.00118898
0.00118898
-0.00118898
0.00118898
-0.00118898
0.00118898
-0.00118898
0.00118898
-0.00118898
0.00118898
-0.00118898
0.00118898
-0.00118898
0.00118898
-0.00118898
0.00118898
-0.00118898
0.00118898
-0.00118898
0.00118898
-0.00118898
0.00118898
-0.00118898
0.00118898
-0.00118898
0.00118898
-0.00118898
0.00118898
-0.00118898
0.00118898
-0.00118898
0.00118897
-0.00118903
0.00118865
-0.00119068
0.00118182
-0.00121253
0.00113201
-0.00127698
0.0011388
-0.00112882
0.00115243
-0.0016827
0.000860698
-0.000424838
0.00106226
-0.00272323
0.00246477
-0.00142255
-0.00072084
0.00107729
-0.00208701
0.000656756
-0.00056628
0.161801
0.161801
1
1.06308
1.03572
0.974038
0.967621
0.960249
0.934742
0.987684
0.962217
0.968354
1.02011
1.00375
0.96359
0.978599
0.907927
0.69103
0.411083
0.202782
0.0798482
0.0306556
0.00685116
0.00437682
-0.00137674
0.00209897
-0.00194105
0.00197263
-0.00196682
0.00196781
-0.00196765
0.00196767
-0.00196767
0.00196767
-0.00196767
0.00196767
-0.00196767
0.00196767
-0.00196767
0.00196767
-0.00196767
0.00196767
-0.00196767
0.00196767
-0.00196767
0.00196767
-0.00196767
0.00196767
-0.00196767
0.00196767
-0.00196767
0.00196767
-0.00196767
0.00196767
-0.00196767
0.00196767
-0.00196767
0.00196767
-0.00196767
0.00196767
-0.00196767
0.00196767
-0.00196767
0.00196767
-0.00196767
0.00196767
-0.00196767
0.00196767
-0.00196767
0.00196767
-0.00196767
0.00196767
-0.00196767
0.00196767
-0.00196767
0.00196767
-0.00196767
0.00196766
-0.00196773
0.00196729
-0.00196961
0.00195973
-0.00199309
0.00190828
-0.00205458
0.00192621
-0.00190561
0.00189708
-0.00248558
0.00172644
-0.00118175
0.00162767
-0.00338864
0.00341802
-0.00261729
0.000418174
0.000150866
-0.00143447
0.000341821
-0.00160435
-0.157352
-0.157352
1
1.08387
1.0829
1.03627
1.02517
1.02455
0.988907
1.03793
1.0119
1.00425
1.04621
1.02956
0.974639
0.978964
0.911919
0.706847
0.427682
0.21562
0.0855564
0.0340009
0.00714734
0.00533162
-0.00195626
0.00277833
-0.00259658
0.00263331
-0.00262648
0.00262765
-0.00262747
0.0026275
-0.00262749
0.00262749
-0.00262749
0.00262749
-0.00262749
0.00262749
-0.00262749
0.00262749
-0.00262749
0.00262749
-0.00262749
0.00262749
-0.00262749
0.00262749
-0.00262749
0.00262749
-0.00262749
0.00262749
-0.00262749
0.00262749
-0.00262749
0.00262749
-0.00262749
0.00262749
-0.00262749
0.00262749
-0.00262749
0.00262749
-0.00262749
0.00262749
-0.00262749
0.00262749
-0.00262749
0.00262749
-0.00262749
0.00262749
-0.00262749
0.00262749
-0.00262749
0.00262749
-0.00262749
0.00262749
-0.00262749
0.00262749
-0.00262749
0.00262748
-0.00262757
0.00262705
-0.00262968
0.00261874
-0.00265476
0.00256602
-0.00271236
0.0025955
-0.00256472
0.00252306
-0.00315998
0.00247731
-0.00184051
0.00209092
-0.00389449
0.00418799
-0.00365454
0.00148637
-0.000755419
-0.0007458
1.022e-05
0.000101564
0.16085
0.16085
1
1.09415
1.11305
1.0816
1.06608
1.0717
1.02786
1.07105
1.0458
1.02615
1.05845
1.04404
0.979804
0.975796
0.912988
0.72023
0.443441
0.228209
0.0915414
0.0373359
0.00764256
0.00617632
-0.0023925
0.00332482
-0.0031164
0.00315897
-0.00315097
0.00315236
-0.00315214
0.00315217
-0.00315217
0.00315217
-0.00315217
0.00315217
-0.00315217
0.00315217
-0.00315217
0.00315217
-0.00315217
0.00315217
-0.00315217
0.00315217
-0.00315217
0.00315217
-0.00315217
0.00315217
-0.00315217
0.00315217
-0.00315217
0.00315217
-0.00315217
0.00315217
-0.00315217
0.00315217
-0.00315217
0.00315217
-0.00315217
0.00315217
-0.00315217
0.00315217
-0.00315217
0.00315217
-0.00315217
0.00315217
-0.00315217
0.00315217
-0.00315217
0.00315217
-0.00315217
0.00315217
-0.00315217
0.00315217
-0.00315217
0.00315217
-0.00315217
0.00315216
-0.00315226
0.00315166
-0.00315462
0.00314257
-0.00318125
0.00308897
-0.00323419
0.00312986
-0.00309059
0.00301432
-0.00368907
0.00309466
-0.00238686
0.00243851
-0.00422869
0.00475871
-0.00451153
0.00245044
-0.00160942
-5.53242e-05
-0.000347919
-0.0009885
-0.158047
-0.158047
1
1.09722
1.12968
1.11253
1.09307
1.10427
1.05453
1.09077
1.06775
1.03845
1.06185
1.05161
0.982434
0.971355
0.912431
0.731639
0.458456
0.240512
0.0978046
0.0406394
0.00835447
0.00689459
-0.00266779
0.00372144
-0.00348327
0.00353244
-0.00352311
0.00352475
-0.00352448
0.00352452
-0.00352451
0.00352451
-0.00352451
0.00352451
-0.00352451
0.00352451
-0.00352451
0.00352451
-0.00352451
0.00352451
-0.00352451
0.00352451
-0.00352451
0.00352451
-0.00352451
0.00352451
-0.00352451
0.00352451
-0.00352451
0.00352451
-0.00352451
0.00352451
-0.00352451
0.00352451
-0.00352451
0.00352451
-0.00352451
0.00352451
-0.00352451
0.00352451
-0.00352451
0.00352451
-0.00352451
0.00352451
-0.00352451
0.00352451
-0.00352451
0.00352451
-0.00352451
0.00352451
-0.00352451
0.00352451
-0.00352451
0.00352451
-0.00352452
0.0035245
-0.00352462
0.00352394
-0.00352725
0.00351405
-0.00355536
0.00345996
-0.00360297
0.00351174
-0.00346638
0.00335403
-0.00405583
0.00355878
-0.00280295
0.0026563
-0.00438304
0.00511634
-0.00516215
0.00327041
-0.00237222
0.000598797
-0.000688599
0.000667663
0.160291
0.160291
1
1.0955
1.13605
1.13169
1.10894
1.1249
1.07181
1.10053
1.08102
1.04461
1.06006
1.05503
0.98426
0.966756
0.91094
0.741316
0.472744
0.252478
0.104334
0.0438941
0.00929371
0.00747615
-0.00277072
0.00395739
-0.00368617
0.00374275
-0.00373191
0.00373383
-0.00373351
0.00373356
-0.00373355
0.00373356
-0.00373356
0.00373356
-0.00373356
0.00373356
-0.00373356
0.00373356
-0.00373356
0.00373356
-0.00373356
0.00373356
-0.00373356
0.00373356
-0.00373356
0.00373356
-0.00373356
0.00373356
-0.00373356
0.00373356
-0.00373356
0.00373356
-0.00373356
0.00373356
-0.00373356
0.00373356
-0.00373356
0.00373356
-0.00373356
0.00373356
-0.00373356
0.00373356
-0.00373356
0.00373356
-0.00373356
0.00373356
-0.00373356
0.00373356
-0.00373356
0.00373356
-0.00373356
0.00373356
-0.00373356
0.00373355
-0.00373356
0.00373354
-0.00373367
0.0037329
-0.0037366
0.00372219
-0.0037661
0.00366802
-0.0038078
0.00372992
-0.00368119
0.00353172
-0.00424984
0.0038561
-0.00307579
0.00273657
-0.00435696
0.0052543
-0.00558714
0.00391317
-0.00301075
0.00118368
-0.00101607
-0.000478134
-0.158522
-0.158522
1
1.09076
1.135
1.14159
1.11638
1.13612
1.08222
1.10326
1.08824
1.04715
1.05553
1.05593
0.986068
0.962523
0.908919
0.749422
0.486294
0.264057
0.111104
0.0470906
0.0104608
0.00792005
-0.00269945
0.0040314
-0.00372358
0.00378849
-0.00377592
0.00377817
-0.00377779
0.00377785
-0.00377784
0.00377784
-0.00377784
0.00377784
-0.00377784
0.00377784
-0.00377784
0.00377784
-0.00377784
0.00377784
-0.00377784
0.00377784
-0.00377784
0.00377784
-0.00377784
0.00377784
-0.00377784
0.00377784
-0.00377784
0.00377784
-0.00377784
0.00377784
-0.00377784
0.00377784
-0.00377784
0.00377784
-0.00377784
0.00377784
-0.00377784
0.00377784
-0.00377784
0.00377784
-0.00377784
0.00377784
-0.00377784
0.00377784
-0.00377784
0.00377784
-0.00377784
0.00377784
-0.00377784
0.00377784
-0.00377784
0.00377784
-0.00377785
0.00377782
-0.00377798
0.00377711
-0.00378121
0.00376558
-0.00381199
0.00371175
-0.00384732
0.00378273
-0.00373352
0.00354657
-0.00427038
0.00398267
-0.00320124
0.00268062
-0.00415917
0.00517682
-0.00577961
0.00435831
-0.00350223
0.00167501
-0.00129035
0.00111409
0.159879
0.159879
1
1.08431
1.12892
1.14453
1.11775
1.14021
1.08784
1.10132
1.09134
1.04774
1.04978
1.05519
0.988134
0.958885
0.906626
0.756099
0.499088
0.27521
0.11808
0.0502277
0.0118465
0.0082346
-0.00246153
0.00395156
-0.00360338
0.00367758
-0.00366306
0.00366569
-0.00366525
0.00366532
-0.00366531
0.00366531
-0.00366531
0.00366531
-0.00366531
0.00366531
-0.00366531
0.00366531
-0.00366531
0.00366531
-0.00366531
0.00366531
-0.00366531
0.00366531
-0.00366531
0.00366531
-0.00366531
0.00366531
-0.00366531
0.00366531
-0.00366531
0.00366531
-0.00366531
0.00366531
-0.00366531
0.00366531
-0.00366531
0.00366531
-0.00366531
0.00366531
-0.00366531
0.00366531
-0.00366531
0.00366531
-0.00366531
0.00366531
-0.00366531
0.00366531
-0.00366531
0.00366531
-0.00366531
0.00366531
-0.00366531
0.00366531
-0.00366531
0.00366528
-0.00366546
0.00366448
-0.00366901
0.00365212
-0.00370095
0.00359905
-0.00372953
0.00367793
-0.00363113
0.00340713
-0.00412625
0.00394422
-0.00318411
0.00249819
-0.00380697
0.00489896
-0.00574557
0.00459856
-0.00383432
0.00205656
-0.00152285
-0.000103534
-0.15888
-0.15888
1
1.07704
1.11975
1.14244
1.11506
1.13911
1.09026
1.09649
1.0917
1.04739
1.04373
1.05331
0.990484
0.955926
0.904242
0.761487
0.511105
0.285911
0.125217
0.0533111
0.0134332
0.00843566
-0.00207229
0.00373372
-0.00334117
0.00342572
-0.00340901
0.00341206
-0.00341154
0.00341163
-0.00341161
0.00341162
-0.00341162
0.00341162
-0.00341162
0.00341162
-0.00341162
0.00341162
-0.00341162
0.00341162
-0.00341162
0.00341162
-0.00341162
0.00341162
-0.00341162
0.00341162
-0.00341162
0.00341162
-0.00341162
0.00341162
-0.00341162
0.00341162
-0.00341162
0.00341162
-0.00341162
0.00341162
-0.00341162
0.00341162
-0.00341162
0.00341162
-0.00341162
0.00341162
-0.00341162
0.00341162
-0.00341162
0.00341162
-0.00341162
0.00341162
-0.00341162
0.00341162
-0.00341162
0.00341162
-0.00341162
0.00341162
-0.00341162
0.00341159
-0.00341179
0.00341069
-0.00341567
0.00339752
-0.00344863
0.00334562
-0.0034702
0.00343103
-0.00338946
0.00312965
-0.00383416
0.00375466
-0.00303663
0.00220563
-0.00332435
0.00444489
-0.00550212
0.00463821
-0.00400403
0.00231991
-0.00168149
0.00141047
0.159572
0.159572
1
1.06958
1.10899
1.13693
1.10987
1.1344
1.09063
1.09005
1.09022
1.04665
1.03787
1.05059
0.993037
0.95366
0.901902
0.76573
0.52233
0.296142
0.132468
0.0563519
0.015197
0.00854481
-0.00155295
0.00339954
-0.00295842
0.00305445
-0.00303528
0.00303881
-0.0030382
0.0030383
-0.00303828
0.00303829
-0.00303829
0.00303829
-0.00303829
0.00303829
-0.00303829
0.00303829
-0.00303829
0.00303829
-0.00303829
0.00303829
-0.00303829
0.00303829
-0.00303829
0.00303829
-0.00303829
0.00303829
-0.00303829
0.00303829
-0.00303829
0.00303829
-0.00303829
0.00303829
-0.00303829
0.00303829
-0.00303829
0.00303829
-0.00303829
0.00303829
-0.00303829
0.00303829
-0.00303829
0.00303829
-0.00303829
0.00303829
-0.00303829
0.00303829
-0.00303829
0.00303829
-0.00303829
0.00303829
-0.00303829
0.00303829
-0.00303829
0.00303825
-0.00303848
0.00303725
-0.00304271
0.00302328
-0.00307653
0.00297297
-0.00309093
0.00306344
-0.00302972
0.00273615
-0.00341675
0.00343416
-0.00277672
0.00182396
-0.00273999
0.00384555
-0.00507504
0.00449117
-0.00401651
0.00246327
-0.00178572
0.000110946
-0.159139
-0.159139
1
1.06234
1.09773
1.12924
1.10337
1.12731
1.08974
1.0829
1.08752
1.04579
1.03247
1.04722
0.99567
0.952061
0.899705
0.768974
0.532752
0.305895
0.139779
0.0593641
0.0171097
0.00858738
-0.000928747
0.00297468
-0.00248055
0.00258925
-0.00256733
0.00257141
-0.00257071
0.00257082
-0.0025708
0.0025708
-0.0025708
0.0025708
-0.0025708
0.0025708
-0.0025708
0.0025708
-0.0025708
0.0025708
-0.0025708
0.0025708
-0.0025708
0.0025708
-0.0025708
0.0025708
-0.0025708
0.0025708
-0.0025708
0.0025708
-0.0025708
0.0025708
-0.0025708
0.0025708
-0.0025708
0.0025708
-0.0025708
0.0025708
-0.0025708
0.0025708
-0.0025708
0.0025708
-0.0025708
0.0025708
-0.0025708
0.0025708
-0.0025708
0.0025708
-0.0025708
0.0025708
-0.0025708
0.0025708
-0.0025708
0.0025708
-0.00257081
0.00257077
-0.00257103
0.00256966
-0.0025756
0.00255491
-0.00261011
0.00250657
-0.00261732
0.00260054
-0.00257709
0.00225251
-0.00290074
0.00300731
-0.00242622
0.00137717
-0.00208525
0.00313623
-0.0044964
0.00417902
-0.00388389
0.00249115
-0.00181136
0.00154236
0.159358
0.159358
1
1.05557
1.08674
1.1203
1.09639
1.11877
1.08807
1.07563
1.08395
1.04492
1.02768
1.04337
0.99826
0.951087
0.897723
0.771365
0.54237
0.31517
0.147096
0.0623639
0.0191406
0.00859075
-0.00022716
0.00248696
-0.00193519
0.00205785
-0.00203286
0.00203756
-0.00203674
0.00203687
-0.00203685
0.00203686
-0.00203685
0.00203685
-0.00203685
0.00203685
-0.00203685
0.00203685
-0.00203685
0.00203685
-0.00203685
0.00203685
-0.00203685
0.00203685
-0.00203685
0.00203685
-0.00203685
0.00203685
-0.00203685
0.00203685
-0.00203685
0.00203685
-0.00203685
0.00203685
-0.00203685
0.00203685
-0.00203685
0.00203685
-0.00203685
0.00203685
-0.00203685
0.00203685
-0.00203685
0.00203685
-0.00203685
0.00203685
-0.00203685
0.00203685
-0.00203685
0.00203685
-0.00203685
0.00203685
-0.00203685
0.00203685
-0.00203686
0.00203681
-0.00203711
0.00203559
-0.00204204
0.00202009
-0.00207706
0.00197408
-0.00207714
0.00206995
-0.00205889
0.00170671
-0.0023151
0.00250136
-0.0020093
0.000890547
-0.00139231
0.00235427
-0.00380221
0.00372902
-0.00362389
0.002413
-0.00178527
0.00016277
-0.159309
-0.159309
1
1.04937
1.07648
1.1108
1.08949
1.10947
1.08591
1.06861
1.07979
1.04405
1.02353
1.03917
1.00069
0.95068
0.896006
0.773044
0.551185
0.323973
0.154366
0.0653673
0.0212576
0.00858267
0.000523731
0.00196475
-0.0013505
0.00148849
-0.00146009
0.00146548
-0.00146453
0.00146469
-0.00146466
0.00146466
-0.00146466
0.00146466
-0.00146466
0.00146466
-0.00146466
0.00146466
-0.00146466
0.00146466
-0.00146466
0.00146466
-0.00146466
0.00146466
-0.00146466
0.00146466
-0.00146466
0.00146466
-0.00146466
0.00146466
-0.00146466
0.00146466
-0.00146466
0.00146466
-0.00146466
0.00146466
-0.00146466
0.00146466
-0.00146466
0.00146466
-0.00146466
0.00146466
-0.00146466
0.00146466
-0.00146466
0.00146466
-0.00146466
0.00146466
-0.00146466
0.00146466
-0.00146466
0.00146466
-0.00146466
0.00146466
-0.00146467
0.00146462
-0.00146495
0.00146328
-0.00147024
0.00144706
-0.00150559
0.00140373
-0.00149873
0.00149989
-0.00150301
0.00112712
-0.00168936
0.00194449
-0.00155088
0.000389188
-0.000692443
0.00153703
-0.00303025
0.0031721
-0.00325835
0.00224248
-0.00168971
0.00151978
0.159227
0.159227
1
1.04379
1.06724
1.10119
1.08298
1.09991
1.08342
1.06207
1.07519
1.04315
1.02001
1.03475
1.00288
0.950776
0.894584
0.774147
0.55921
0.332312
0.161538
0.0683894
0.0234298
0.00858975
0.00129674
0.00143544
-0.000753698
0.000908461
-0.000876287
0.000882449
-0.000881356