# vtk DataFile Version 2.0
FlowField
ASCII
DATASET STRUCTURED_GRID
DIMENSIONS 100 1 100
POINTS 10000 float
0 0 0
0.01 0 0
0.02 0 0
0.03 0 0
0.04 0 0
0.05 0 0
0.06 0 0
0.07 0 0
0.08 0 0
0.09 0 0
0.1 0 0
0.11 0 0
0.12 0 0
0.13 0 0
0.14 0 0
0.15 0 0
0.16 0 0
0.17 0 0
0.18 0 0
0.19 0 0
0.2 0 0
0.21 0 0
0.22 0 0
0.23 0 0
0.24 0 0
0.25 0 0
0.26 0 0
0.27 0 0
0.28 0 0
0.29 0 0
0.3 0 0
0.31 0 0
0.32 0 0
0.33 0 0
0.34 0 0
0.35 0 0
0.36 0 0
0.37 0 0
0.38 0 0
0.39 0 0
0.4 0 0
0.41 0 0
0.42 0 0
0.43 0 0
0.44 0 0
0.45 0 0
0.46 0 0
0.47 0 0
0.48 0 0
0.49 0 0
0.5 0 0
0.51 0 0
0.52 0 0
0.53 0 0
0.54 0 0
0.55 0 0
0.56 0 0
0.57 0 0
0.58 0 0
0.59 0 0
0.6 0 0
0.61 0 0
0.62 0 0
0.63 0 0
0.64 0 0
0.65 0 0
0.66 0 0
0.67 0 0
0.68 0 0
0.69 0 0
0.7 0 0
0.71 0 0
0.72 0 0
0.73 0 0
0.74 0 0
0.75 0 0
0.76 0 0
0.77 0 0
0.78 0 0
0.79 0 0
0.8 0 0
0.81 0 0
0.82 0 0
0.83 0 0
0.84 0 0
0.85 0 0
0.86 0 0
0.87 0 0
0.88 0 0
0.89 0 0
0.9 0 0
0.91 0 0
0.92 0 0
0.93 0 0
0.94 0 0
0.95 0 0
0.96 0 0
0.97 0 0
0.98 0 0
0.99 0 0
0 0.001 0
0.01 0.001 0
0.02 0.001 0
0.03 0.001 0
0.04 0.001 0
0.05 0.001 0
0.06 0.001 0
0.07 0.001 0
0.08 0.001 0
0.09 0.001 0
0.1 0.001 0
0.11 0.001 0
0.12 0.001 0
0.13 0.001 0
0.14 0.001 0
0.15 0.001 0
0.16 0.001 0
0.17 0.001 0
0.18 0.001 0
0.19 0.001 0
0.2 0.001 0
0.21 0.001 0
0.22 0.001 0
0.23 0.001 0
0.24 0.001 0
0.25 0.001 0
0.26 0.001 0
0.27 0.001 0
0.28 0.001 0
0.29 0.001 0
0.3 0.001 0
0.31 0.001 0
0.32 0.001 0
0.33 0.001 0
0.34 0.001 0
0.35 0.001 0
0.36 0.001 0
0.37 0.001 0
0.38 0.001 0
0.39 0.001 0
0.4 0.001 0
0.41 0.001 0
0.42 0.001 0
0.43 0.001 0
0.44 0.001 0
0.45 0.001 0
0.46 0.001 0
0.47 0.001 0
0.48 0.001 0
0.49 0.001 0
0.5 0.001 0
0.51 0.001 0
0.52 0.001 0
0.53 0.001 0
0.54 0.001 0
0.55 0.001 0
0.56 0.001 0
0.57 0.001 0
0.58 0.001 0
0.59 0.001 0
0.6 0.001 0
0.61 0.001 0
0.62 0.001 0
0.63 0.001 0
0.64 0.001 0
0.65 0.001 0
0.66 0.001 0
0.67 0.001 0
0.68 0.001 0
0.69 0.001 0
0.7 0.001 0
0.71 0.001 0
0.72 0.001 0
0.73 0.001 0
0.74 0.001 0
0.75 0.001 0
0.76 0.001 0
0.77 0.001 0
0.78 0.001 0
0.79 0.001 0
0.8 0.001 0
0.81 0.001 0
0.82 0.001 0
0.83 0.001 0
0.84 0.001 0
0.85 0.001 0
0.86 0.001 0
0.87 0.001 0
0.88 0.001 0
0.89 0.001 0
0.9 0.001 0
0.91 0.001 0
0.92 0.001 0
0.93 0.001 0
0.94 0.001 0
0.95 0.001 0
0.96 0.001 0
0.97 0.001 0
0.98 0.001 0
0.99 0.001 0
0 0.002 0
0.01 0.002 0
0.02 0.002 0
0.03 0.002 0
0.04 0.002 0
0.05 0.002 0
0.06 0.002 0
0.07 0.002 0
0.08 0.002 0
0.09 0.002 0
0.1 0.002 0
0.11 0.002 0
0.12 0.002 0
0.13 0.002 0
0.14 0.002 0
0.15 0.002 0
0.16 0.002 0
0.17 0.002 0
0.18 0.002 0
0.19 0.002 0
0.2 0.002 0
0.21 0.002 0
0.22 0.002 0
0.23 0.002 0
0.24 0.002 0
0.25 0.002 0
0.26 0.002 0
0.27 0.002 0
0.28 0.002 0
0.29 0.002 0
0.3 0.002 0
0.31 0.002 0
0.32 0.002 0
0.33 0.002 0
0.34 0.002 0
0.35 0.002 0
0.36 0.002 0
0.37 0.002 0
0.38 0.002 0
0.39 0.002 0
0.4 0.002 0
0.41 0.002 0
0.42 0.002 0
0.43 0.002 0
0.44 0.002 0
0.45 0.002 0
0.46 0.002 0
0.47 0.002 0
0.48 0.002 0
0.49 0.002 0
0.5 0.002 0
0.51 0.002 0
0.52 0.002 0
0.53 0.002 0
0.54 0.002 0
0.55 0.002 0
0.56 0.002 0
0.57 0.002 0
0.58 0.002 0
0.59 0.002 0
0.6 0.002 0
0.61 0.002 0
0.62 0.002 0
0.63 0.002 0
0.64 0.002 0
0.65 0.002 0
0.66 0.002 0
0.67 0.002 0
0.68 0.002 0
0.69 0.002 0
0.7 0.002 0
0.71 0.002 0
0.72 0.002 0
0.73 0.002 0
0.74 0.002 0
0.75 0.002 0
0.76 0.002 0
0.77 0.002 0
0.78 0.002 0
0.79 0.002 0
0.8 0.002 0
0.81 0.002 0
0.82 0.002 0
0.83 0.002 0
0.84 0.002 0
0.85 0.002 0
0.86 0.002 0
0.87 0.002 0
0.88 0.002 0
0.89 0.002 0
0.9 0.002 0
0.91 0.002 0
0.92 0.002 0
0.93 0.002 0
0.94 0.002 0
0.95 0.002 0
0.96 0.002 0
0.97 0.002 0
0.98 0.002 0
0.99 0.002 0
0 0.003 0
0.01 0.003 0
0.02 0.003 0
0.03 0.003 0
0.04 0.003 0
0.05 0.003 0
0.06 0.003 0
0.07 0.003 0
0.08 0.003 0
0.09 0.003 0
0.1 0.003 0
0.11 0.003 0
0.12 0.003 0
0.13 0.003 0
0.14 0.003 0
0.15 0.003 0
0.16 0.003 0
0.17 0.003 0
0.18 0.003 0
0.19 0.003 0
0.2 0.003 0
0.21 0.003 0
0.22 0.003 0
0.23 0.003 0
0.24 0.003 0
0.25 0.003 0
0.26 0.003 0
0.27 0.003 0
0.28 0.003 0
0.29 0.003 0
0.3 0.003 0
0.31 0.003 0
0.32 0.003 0
0.33 0.003 0
0.34 0.003 0
0.35 0.003 0
0.36 0.003 0
0.37 0.003 0
0.38 0.003 0
0.39 0.003 0
0.4 0.003 0
0.41 0.003 0
0.42 0.003 0
0.43 0.003 0
0.44 0.003 0
0.45 0.003 0
0.46 0.003 0
0.47 0.003 0
0.48 0.003 0
0.49 0.003 0
0.5 0.003 0
0.51 0.003 0
0.52 0.003 0
0.53 0.003 0
0.54 0.003 0
0.55 0.003 0
0.56 0.003 0
0.57 0.003 0
0.58 0.003 0
0.59 0.003 0
0.6 0.003 0
0.61 0.003 0
0.62 0.003 0
0.63 0.003 0
0.64 0.003 0
0.65 0.003 0
0.66 0.003 0
0.67 0.003 0
0.68 0.003 0
0.69 0.003 0
0.7 0.003 0
0.71 0.003 0
0.72 0.003 0
0.73 0.003 0
0.74 0.003 0
0.75 0.003 0
0.76 0.003 0
0.77 0.003 0
0.78 0.003 0
0.79 0.003 0
0.8 0.003 0
0.81 0.003 0
0.82 0.003 0
0.83 0.003 0
0.84 0.003 0
0.85 0.003 0
0.86 0.003 0
0.87 0.003 0
0.88 0.003 0
0.89 0.003 0
0.9 0.003 0
0.91 0.003 0
0.92 0.003 0
0.93 0.003 0
0.94 0.003 0
0.95 0.003 0
0.96 0.003 0
0.97 0.003 0
0.98 0.003 0
0.99 0.003 0
0 0.004 0
0.01 0.004 0
0.02 0.004 0
0.03 0.004 0
0.04 0.004 0
0.05 0.004 0
0.06 0.004 0
0.07 0.004 0
0.08 0.004 0
0.09 0.004 0
0.1 0.004 0
0.11 0.004 0
0.12 0.004 0
0.13 0.004 0
0.14 0.004 0
0.15 0.004 0
0.16 0.004 0
0.17 0.004 0
0.18 0.004 0
0.19 0.004 0
0.2 0.004 0
0.21 0.004 0
0.22 0.004 0
0.23 0.004 0
0.24 0.004 0
0.25 0.004 0
0.26 0.004 0
0.27 0.004 0
0.28 0.004 0
0.29 0.004 0
0.3 0.004 0
0.31 0.004 0
0.32 0.004 0
0.33 0.004 0
0.34 0.004 0
0.35 0.004 0
0.36 0.004 0
0.37 0.004 0
0.38 0.004 0
0.39 0.004 0
0.4 0.004 0
0.41 0.004 0
0.42 0.004 0
0.43 0.004 0
0.44 0.004 0
0.45 0.004 0
0.46 0.004 0
0.47 0.004 0
0.48 0.004 0
0.49 0.004 0
0.5 0.004 0
0.51 0.004 0
0.52 0.004 0
0.53 0.004 0
0.54 0.004 0
0.55 0.004 0
0.56 0.004 0
0.57 0.004 0
0.58 0.004 0
0.59 0.004 0
0.6 0.004 0
0.61 0.004 0
0.62 0.004 0
0.63 0.004 0
0.64 0.004 0
0.65 0.004 0
0.66 0.004 0
0.67 0.004 0
0.68 0.004 0
0.69 0.004 0
0.7 0.004 0
0.71 0.004 0
0.72 0.004 0
0.73 0.004 0
0.74 0.004 0
0.75 0.004 0
0.76 0.004 0
0.77 0.004 0
0.78 0.004 0
0.79 0.004 0
0.8 0.004 0
0.81 0.004 0
0.82 0.004 0
0.83 0.004 0
0.84 0.004 0
0.85 0.004 0
0.86 0.004 0
0.87 0.004 0
0.88 0.004 0
0.89 0.004 0
0.9 0.004 0
0.91 0.004 0
0.92 0.004 0
0.93 0.004 0
0.94 0.004 0
0.95 0.004 0
0.96 0.004 0
0.97 0.004 0
0.98 0.004 0
0.99 0.004 0
0 0.005 0
0.01 0.005 0
0.02 0.005 0
0.03 0.005 0
0.04 0.005 0
0.05 0.005 0
0.06 0.005 0
0.07 0.005 0
0.08 0.005 0
0.09 0.005 0
0.1 0.005 0
0.11 0.005 0
0.12 0.005 0
0.13 0.005 0
0.14 0.005 0
0.15 0.005 0
0.16 0.005 0
0.17 0.005 0
0.18 0.005 0
0.19 0.005 0
0.2 0.005 0
0.21 0.005 0
0.22 0.005 0
0.23 0.005 0
0.24 0.005 0
0.25 0.005 0
0.26 0.005 0
0.27 0.005 0
0.28 0.005 0
0.29 0.005 0
0.3 0.005 0
0.31 0.005 0
0.32 0.005 0
0.33 0.005 0
0.34 0.005 0
0.35 0.005 0
0.36 0.005 0
0.37 0.005 0
0.38 0.005 0
0.39 0.005 0
0.4 0.005 0
0.41 0.005 0
0.42 0.005 0
0.43 0.005 0
0.44 0.005 0
0.45 0.005 0
0.46 0.005 0
0.47 0.005 0
0.48 0.005 0
0.49 0.005 0
0.5 0.005 0
0.51 0.005 0
0.52 0.005 0
0.53 0.005 0
0.54 0.005 0
0.55 0.005 0
0.56 0.005 0
0.57 0.005 0
0.58 0.005 0
0.59 0.005 0
0.6 0.005 0
0.61 0.005 0
0.62 0.005 0
0.63 0.005 0
0.64 0.005 0
0.65 0.005 0
0.66 0.005 0
0.67 0.005 0
0.68 0.005 0
0.69 0.005 0
0.7 0.005 0
0.71 0.005 0
0.72 0.005 0
0.73 0.005 0
0.74 0.005 0
0.75 0.005 0
0.76 0.005 0
0.77 0.005 0
0.78 0.005 0
0.79 0.005 0
0.8 0.005 0
0.81 0.005 0
0.82 0.005 0
0.83 0.005 0
0.84 0.005 0
0.85 0.005 0
0.86 0.005 0
0.87 0.005 0
0.88 0.005 0
0.89 0.005 0
0.9 0.005 0
0.91 0.005 0
0.92 0.005 0
0.93 0.005 0
0.94 0.005 0
0.95 0.005 0
0.96 0.005 0
0.97 0.005 0
0.98 0.005 0
0.99 0.005 0
0 0.006 0
0.01 0.006 0
0.02 0.006 0
0.03 0.006 0
0.04 0.006 0
0.05 0.006 0
0.06 0.006 0
0.07 0.006 0
0.08 0.006 0
0.09 0.006 0
0.1 0.006 0
0.11 0.006 0
0.12 0.006 0
0.13 0.006 0
0.14 0.006 0
0.15 0.006 0
0.16 0.006 0
0.17 0.006 0
0.18 0.006 0
0.19 0.006 0
0.2 0.006 0
0.21 0.006 0
0.22 0.006 0
0.23 0.006 0
0.24 0.006 0
0.25 0.006 0
0.26 0.006 0
0.27 0.006 0
0.28 0.006 0
0.29 0.006 0
0.3 0.006 0
0.31 0.006 0
0.32 0.006 0
0.33 0.006 0
0.34 0.006 0
0.35 0.006 0
0.36 0.006 0
0.37 0.006 0
0.38 0.006 0
0.39 0.006 0
0.4 0.006 0
0.41 0.006 0
0.42 0.006 0
0.43 0.006 0
0.44 0.006 0
0.45 0.006 0
0.46 0.006 0
0.47 0.006 0
0.48 0.006 0
0.49 0.006 0
0.5 0.006 0
0.51 0.006 0
0.52 0.006 0
0.53 0.006 0
0.54 0.006 0
0.55 0.006 0
0.56 0.006 0
0.57 0.006 0
0.58 0.006 0
0.59 0.006 0
0.6 0.006 0
0.61 0.006 0
0.62 0.006 0
0.63 0.006 0
0.64 0.006 0
0.65 0.006 0
0.66 0.006 0
0.67 0.006 0
0.68 0.006 0
0.69 0.006 0
0.7 0.006 0
0.71 0.006 0
0.72 0.006 0
0.73 0.006 0
0.74 0.006 0
0.75 0.006 0
0.76 0.006 0
0.77 0.006 0
0.78 0.006 0
0.79 0.006 0
0.8 0.006 0
0.81 0.006 0
0.82 0.006 0
0.83 0.006 0
0.84 0.006 0
0.85 0.006 0
0.86 0.006 0
0.87 0.006 0
0.88 0.006 0
0.89 0.006 0
0.9 0.006 0
0.91 0.006 0
0.92 0.006 0
0.93 0.006 0
0.94 0.006 0
0.95 0.006 0
0.96 0.006 0
0.97 0.006 0
0.98 0.006 0
0.99 0.006 0
0 0.007 0
0.01 0.007 0
0.02 0.007 0
0.03 0.007 0
0.04 0.007 0
0.05 0.007 0
0.06 0.007 0
0.07 0.007 0
0.08 0.007 0
0.09 0.007 0
0.1 0.007 0
0.11 0.007 0
0.12 0.007 0
0.13 0.007 0
0.14 0.007 0
0.15 0.007 0
0.16 0.007 0
0.17 0.007 0
0.18 0.007 0
0.19 0.007 0
0.2 0.007 0
0.21 0.007 0
0.22 0.007 0
0.23 0.007 0
0.24 0.007 0
0.25 0.007 0
0.26 0.007 0
0.27 0.007 0
0.28 0.007 0
0.29 0.007 0
0.3 0.007 0
0.31 0.007 0
0.32 0.007 0
0.33 0.007 0
0.34 0.007 0
0.35 0.007 0
0.36 0.007 0
0.37 0.007 0
0.38 0.007 0
0.39 0.007 0
0.4 0.007 0
0.41 0.007 0
0.42 0.007 0
0.43 0.007 0
0.44 0.007 0
0.45 0.007 0
0.46 0.007 0
0.47 0.007 0
0.48 0.007 0
0.49 0.007 0
0.5 0.007 0
0.51 0.007 0
0.52 0.007 0
0.53 0.007 0
0.54 0.007 0
0.55 0.007 0
0.56 0.007 0
0.57 0.007 0
0.58 0.007 0
0.59 0.007 0
0.6 0.007 0
0.61 0.007 0
0.62 0.007 0
0.63 0.007 0
0.64 0.007 0
0.65 0.007 0
0.66 0.007 0
0.67 0.007 0
0.68 0.007 0
0.69 0.007 0
0.7 0.007 0
0.71 0.007 0
0.72 0.007 0
0.73 0.007 0
0.74 0.007 0
0.75 0.007 0
0.76 0.007 0
0.77 0.007 0
0.78 0.007 0
0.79 0.007 0
0.8 0.007 0
0.81 0.007 0
0.82 0.007 0
0.83 0.007 0
0.84 0.007 0
0.85 0.007 0
0.86 0.007 0
0.87 0.007 0
0.88 0.007 0
0.89 0.007 0
0.9 0.007 0
0.91 0.007 0
0.92 0.007 0
0.93 0.007 0
0.94 0.007 0
0.95 0.007 0
0.96 0.007 0
0.97 0.007 0
0.98 0.007 0
[...]
POINT_DATA 10000

SCALARS vel_X float 1
LOOKUP_TABLE default
0
0
0
0
0
0
0
0
0
0
0
0
0
0
0
0
0
0
0
0
0
0
0
0
0
0
0
0
0
0
0
0
0
0
0
0
0
0
0
0
0
0
0
0
0
0
0
0
0
0
0
0
0
0
0
0
0
0
0
0
0
0
0
0
0
0
0
0
0
0
0
0
0
0
0
0
0
0
0
0
0
0
0
0
0
0
0
0
0
0
0
0
0
0
0
0
0
0
0
0
1
0.334517
0.247507
0.197858
0.224611
0.205953
0.20878
0.261994
0.249886
0.265683
0.368196
0.400892
0.305781
0.168172
0.0737061
0.0250071
0.00850278
0.0012223
0.00123724
-0.000687353
0.000797299
-0.000777448
0.000780712
-0.000780219
0.000780288
-0.000780279
0.00078028
-0.00078028
0.00078028
-0.00078028
0.00078028
-0.00078028
0.00078028
-0.00078028
0.00078028
-0.00078028
0.00078028
-0.00078028
0.00078028
-0.00078028
0.00078028
-0.00078028
0.00078028
-0.00078028
0.00078028
-0.00078028
0.00078028
-0.00078028
0.00078028
-0.00078028
0.00078028
-0.00078028
0.00078028
-0.00078028
0.00078028
-0.00078028
0.00078028
-0.00078028
0.00078028
-0.00078028
0.00078028
-0.00078028
0.00078028
-0.00078028
0.00078028
-0.00078028
0.00078028
-0.00078028
0.00078028
-0.00078028
0.00078028
-0.00078028
0.00078028
-0.00078028
0.00078028
-0.00078028
0.00078028
-0.00078028
0.000780279
-0.000780289
0.00078021
-0.000780742
0.000777836
-0.000790264
0.000750935
-0.000833354
0.000752102
-0.000701393
0.000810124
-0.001174
0.000574353
4.76568e-05
0.000374526
-0.00177436
0.00238252
-0.00246143
0.00127952
-0.00311225
-0.109237
-0.109237
1
0.588745
0.462278
0.390557
0.424413
0.398119
0.412513
0.48448
0.472597
0.508312
0.643326
0.651001
0.476628
0.255966
0.1108
0.0371091
0.0127266
0.00166855
0.00196174
-0.00115139
0.00131331
-0.00128408
0.00128888
-0.00128816
0.00128826
-0.00128825
0.00128825
-0.00128825
0.00128825
-0.00128825
0.00128825
-0.00128825
0.00128825
-0.00128825
0.00128825
-0.00128825
0.00128825
-0.00128825
0.00128825
-0.00128825
0.00128825
-0.00128825
0.00128825
-0.00128825
0.00128825
-0.00128825
0.00128825
-0.00128825
0.00128825
-0.00128825
0.00128825
-0.00128825
0.00128825
-0.00128825
0.00128825
-0.00128825
0.00128825
-0.00128825
0.00128825
-0.00128825
0.00128825
-0.00128825
0.00128825
-0.00128825
0.00128825
-0.00128825
0.00128825
-0.00128825
0.00128825
-0.00128825
0.00128825
-0.00128825
0.00128825
-0.00128825
0.00128825
-0.00128825
0.00128825
-0.00128825
0.00128825
-0.00128826
0.00128814
-0.00128893
0.00128464
-0.00130303
0.00124432
-0.00137029
0.00123443
-0.00119018
0.00133883
-0.00183376
0.000914108
-0.000203674
0.000870128
-0.00276463
0.00332258
-0.00337829
0.00158657
-0.00223195
0.143968
0.143968
1
0.773131
0.645237
0.566701
0.596178
0.574525
0.590217
0.666852
0.661219
0.698606
0.820369
0.794559
0.570733
0.305974
0.131891
0.0450441
0.0148282
0.00256287
0.00185109
-0.000859057
0.00105868
-0.00102238
0.0010284
-0.00102748
0.00102761
-0.00102759
0.0010276
-0.0010276
0.0010276
-0.0010276
0.0010276
-0.0010276
0.0010276
-0.0010276
0.0010276
-0.0010276
0.0010276
-0.0010276
0.0010276
-0.0010276
0.0010276
-0.0010276
0.0010276
-0.0010276
0.0010276
-0.0010276
0.0010276
-0.0010276
0.0010276
-0.0010276
0.0010276
-0.0010276
0.0010276
-0.0010276
0.0010276
-0.0010276
0.0010276
-0.0010276
0.0010276
-0.0010276
0.0010276
-0.0010276
0.0010276
-0.0010276
0.0010276
-0.0010276
0.0010276
-0.0010276
0.0010276
-0.0010276
0.0010276
-0.0010276
0.0010276
-0.0010276
0.0010276
-0.0010276
0.0010276
-0.0010276
0.00102759
-0.00102761
0.00102747
-0.00102843
0.00102321
-0.0010453
0.000975638
-0.00112391
0.000961455
-0.000930058
0.00106337
-0.00163417
0.000622977
6.82298e-05
0.000527704
-0.00249665
0.00299185
-0.00326114
0.00137384
-0.00298055
-0.124345
-0.124345
1
0.901831
0.796151
0.718706
0.740519
0.727768
0.734769
0.810443
0.808667
0.830417
0.921103
0.872239
0.624701
0.338885
0.146562
0.0517046
0.0161418
0.00378927
0.00132638
-0.000163914
0.00040036
-0.000356914
0.000364185
-0.000363069
0.000363227
-0.000363206
0.000363209
-0.000363209
0.000363209
-0.000363209
0.000363209
-0.000363209
0.000363209
-0.000363209
0.000363209
-0.000363209
0.000363209
-0.000363209
0.000363209
-0.000363209
0.000363209
-0.000363209
0.000363209
-0.000363209
0.000363209
-0.000363209
0.000363209
-0.000363209
0.000363209
-0.000363209
0.000363209
-0.000363209
0.000363209
-0.000363209
0.000363209
-0.000363209
0.000363209
-0.000363209
0.000363209
-0.000363209
0.000363209
-0.000363209
0.000363209
-0.000363209
0.000363209
-0.000363209
0.000363209
-0.000363209
0.000363209
-0.000363209
0.000363209
-0.000363209
0.000363209
-0.000363209
0.000363209
-0.000363209
0.000363209
-0.000363209
0.000363206
-0.000363229
0.000363052
-0.000364201
0.000358139
-0.000383228
0.000306003
-0.0004659
0.000296168
-0.000268362
0.000360818
-0.00100606
2.51106e-05
0.000680761
-0.000333917
-0.00159042
0.00214786
-0.00276767
0.00106772
-0.00133662
0.136277
0.136277
1
0.98838
0.915232
0.843834
0.857829
0.853085
0.846495
0.917236
0.91448
0.912851
0.971588
0.912543
0.658629
0.364123
0.158933
0.05799
0.0173359
0.00510313
0.000733434
0.000609846
-0.000333279
0.00038469
-0.000375991
0.00037734
-0.000377147
0.000377173
-0.00037717
0.00037717
-0.00037717
0.00037717
-0.00037717
0.00037717
-0.00037717
0.00037717
-0.00037717
0.00037717
-0.00037717
0.00037717
-0.00037717
0.00037717
-0.00037717
0.00037717
-0.00037717
0.00037717
-0.00037717
0.00037717
-0.00037717
0.00037717
-0.00037717
0.00037717
-0.00037717
0.00037717
-0.00037717
0.00037717
-0.00037717
0.00037717
-0.00037717
0.00037717
-0.00037717
0.00037717
-0.00037717
0.00037717
-0.00037717
0.00037717
-0.00037717
0.00037717
-0.00037717
0.00037717
-0.00037717
0.00037717
-0.00037717
0.00037717
-0.00037717
0.00037717
-0.00037717
0.00037717
-0.00037717
0.00037717
-0.000377173
0.000377146
-0.000377356
0.000376014
-0.000382937
0.000355012
-0.000438411
0.000272266
-0.000437887
0.00047138
-0.000427368
-0.000293714
-0.000603233
0.00136186
-0.00131531
-0.000538396
0.00122343
-0.00219364
0.000778007
-0.00202483
-0.128396
-0.128396
1
1.04395
1.00429
0.942457
0.948818
0.949911
0.928831
0.991049
0.984412
0.960186
0.992643
0.932771
0.682551
0.385775
0.170608
0.0642001
0.0186626
0.00639499
0.000215284
0.00132652
-0.00100503
0.00106552
-0.00105517
0.00105679
-0.00105655
0.00105659
-0.00105658
0.00105658
-0.00105658
0.00105658
-0.00105658
0.00105658
-0.00105658
0.00105658
-0.00105658
0.00105658
-0.00105658
0.00105658
-0.00105658
0.00105658
-0.00105658
0.00105658
-0.00105658
0.00105658
-0.00105658
0.00105658
-0.00105658
0.00105658
-0.00105658
0.00105658
-0.00105658
0.00105658
-0.00105658
0.00105658
-0.00105658
0.00105658
-0.00105658
0.00105658
-0.00105658
0.00105658
-0.00105658
0.00105658
-0.00105658
0.00105658
-0.00105658
0.00105658
-0.00105658
0.00105658
-0.00105658
0.00105658
-0.00105658
0.00105658
-0.00105658
0.00105658
-0.00105658
0.00105658
-0.00105658
0.00105658
-0.00105659
0.00105655
-0.0010568
0.00105525
-0.00106308
0.00103232
-0.00112122
0.000951826
-0.00110705
0.00115132
-0.00115669
0.000366904
-0.00115578
0.0019753
-0.00221837
0.000461838
0.000344092
-0.00159954
0.000514932
-0.000494569
0.134017
0.134017
1
1.0772
1.0667
1.01663
1.0154
1.02068
0.986453
1.03763
1.02711
0.985532
0.998098
0.942482
0.701152
0.405512
0.182135
0.070441
0.0201911
0.00764074
-0.000192326
0.00195334
-0.0015814
0.00165223
-0.00163997
0.00164191
-0.00164163
0.00164167
-0.00164166
0.00164166
-0.00164166
0.00164166
-0.00164166
0.00164166
-0.00164166
0.00164166
-0.00164166
0.00164166
-0.00164166
0.00164166
-0.00164166
0.00164166
-0.00164166
0.00164166
-0.00164166
0.00164166
-0.00164166
0.00164166
-0.00164166
0.00164166
-0.00164166
0.00164166
-0.00164166
0.00164166
-0.00164166
0.00164166
-0.00164166
0.00164166
-0.00164166
0.00164166
-0.00164166
0.00164166
-0.00164166
0.00164166
-0.00164166
0.00164166
-0.00164166
0.00164166
-0.00164166
0.00164166
-0.00164166
0.00164166
-0.00164166
0.00164166
-0.00164166
0.00164166
-0.00164166
0.00164166
-0.00164166
0.00164166
-0.00164167
0.00164163
-0.00164192
0.00164013
-0.00164894
0.00161531
-0.00170925
0.00153862
-0.00167999
0.00173625
-0.00179078
0.000945966
-0.0016131
0.00247787
-0.00298131
0.00136352
-0.000478942
-0.000985192
0.000231669
-0.00129841
-0.129768
-0.129768
1
1.09464
1.10677
1.06935
1.06077
1.06935
1.02448
1.06363
1.05111
0.998468
0.996142
0.946628
0.71653
0.423954
0.193669
0.076737
0.0219383
0.00883579
-0.000480265
0.00248282
-0.00205438
0.00213698
-0.00212251
0.00212483
-0.00212449
0.00212453
-0.00212453
0.00212453
-0.00212453
0.00212453
-0.00212453
0.00212453
-0.00212453
0.00212453
-0.00212453
0.00212453
-0.00212453
0.00212453
-0.00212453
0.00212453
-0.00212453
0.00212453
-0.00212453
0.00212453
-0.00212453
0.00212453
-0.00212453
0.00212453
-0.00212453
0.00212453
-0.00212453
0.00212453
-0.00212453
0.00212453
-0.00212453
0.00212453
-0.00212453
0.00212453
-0.00212453
0.00212453
-0.00212453
0.00212453
-0.00212453
0.00212453
-0.00212453
0.00212453
-0.00212453
0.00212453
-0.00212453
0.00212453
-0.00212453
0.00212453
-0.00212453
0.00212453
-0.00212453
0.00212453
-0.00212453
0.00212453
-0.00212453
0.00212449
-0.00212483
0.00212278
-0.00213261
0.0020961
-0.00219462
0.00202441
-0.00214999
0.00221687
-0.0023207
0.00143735
-0.00197347
0.00285648
-0.00358865
0.00215437
-0.00124138
-0.000361865
-5.84454e-05
0.000147545
0.133097
0.133097
1
1.1012
1.12907
1.10413
1.08884
1.10029
1.04792
1.07534
1.06323
1.00504
0.99123
0.947683
0.729621
0.441291
0.205229
0.0830725
0.0239123
0.00997246
-0.000638762
0.0029064
-0.00241495
0.00251087
-0.00249387
0.00249662
-0.00249621
0.00249627
-0.00249626
0.00249626
-0.00249626
0.00249626
-0.00249626
0.00249626
-0.00249626
0.00249626
-0.00249626
0.00249626
-0.00249626
0.00249626
-0.00249626
0.00249626
-0.00249626
0.00249626
-0.00249626
0.00249626
-0.00249626
0.00249626
-0.00249626
0.00249626
-0.00249626
0.00249626
-0.00249626
0.00249626
-0.00249626
0.00249626
-0.00249626
0.00249626
-0.00249626
0.00249626
-0.00249626
0.00249626
-0.00249626
0.00249626
-0.00249626
0.00249626
-0.00249626
0.00249626
-0.00249626
0.00249626
-0.00249626
0.00249626
-0.00249626
0.00249626
-0.00249626
0.00249626
-0.00249626
0.00249626
-0.00249626
0.00249626
-0.00249627
0.00249621
-0.00249661
0.00249428
-0.0025052
0.00246579
-0.00256842
0.00240012
-0.00250885
0.0025835
-0.00273695
0.00183206
-0.0022316
0.00310297
-0.00403217
0.00281793
-0.00192361
0.000242521
-0.000363888
-0.000724192
-0.130447
-0.130447
1
1.10058
1.13798
1.12462
1.10369
1.11772
1.06121
1.07796
1.06822
1.00864
0.985624
0.946894
0.740873
0.45755
0.216785
0.0894174
0.0261181
0.0110415
-0.00065764
0.00321492
-0.0026535
0.00276443
-0.00274454
0.0027478
-0.00274731
0.00274738
-0.00274737
0.00274737
-0.00274737
0.00274737
-0.00274737
0.00274737
-0.00274737
0.00274737
-0.00274737
0.00274737
-0.00274737
0.00274737
-0.00274737
0.00274737
-0.00274737
0.00274737
-0.00274737
0.00274737
-0.00274737
0.00274737
-0.00274737
0.00274737
-0.00274737
0.00274737
-0.00274737
0.00274737
-0.00274737
0.00274737
-0.00274737
0.00274737
-0.00274737
0.00274737
-0.00274737
0.00274737
-0.00274737
0.00274737
-0.00274737
0.00274737
-0.00274737
0.00274737
-0.00274737
0.00274737
-0.00274737
0.00274737
-0.00274737
0.00274737
-0.00274737
0.00274737
-0.00274737
0.00274737
-0.00274737
0.00274737
-0.00274738
0.00274731
-0.00274777
0.00274514
-0.00275718
0.00271492
-0.00282113
0.00265614
-0.00274752
0.0028264
-0.00302942
0.00211937
-0.002381
0.00321204
-0.00430539
0.00333445
-0.00250024
0.000796734
-0.00064817
0.000658612
0.132558
0.132558
1
1.0955
1.13739
1.13431
1.10905
1.12533
1.06788
1.07527
1.06907
1.011
0.980396
0.944933
0.750532
0.472716
0.228291
0.0957415
0.0285543
0.012038
-0.000531494
0.00340384
-0.00276509
0.00289286
-0.00286968
0.00287352
-0.00287293
0.00287302
-0.00287301
0.00287301
-0.00287301
0.00287301
-0.00287301
0.00287301
-0.00287301
0.00287301
-0.00287301
0.00287301
-0.00287301
0.00287301
-0.00287301
0.00287301
-0.00287301
0.00287301
-0.00287301
0.00287301
-0.00287301
0.00287301
-0.00287301
0.00287301
-0.00287301
0.00287301
-0.00287301
0.00287301
-0.00287301
0.00287301
-0.00287301
0.00287301
-0.00287301
0.00287301
-0.00287301
0.00287301
-0.00287301
0.00287301
-0.00287301
0.00287301
-0.00287301
0.00287301
-0.00287301
0.00287301
-0.00287301
0.00287301
-0.00287301
0.00287301
-0.00287301
0.00287301
-0.00287301
0.00287301
-0.00287301
0.00287301
-0.00287302
0.00287294
-0.00287347
0.0028705
-0.00288372
0.00283866
-0.00294786
0.0027875
-0.00286149
0.00294078
-0.00319252
0.00229274
-0.00241949
0.00318448
-0.00440715
0.00368915
-0.00295067
0.00127493
-0.000914869
-0.000278021
-0.130894
-0.130894
1
1.08795
1.13056
1.13625
1.10808
1.12614
1.07053
1.06982
1.06754
1.01287
0.976002
0.942208
0.75877
0.486772
0.23969
0.102019
0.031211
0.0129632
-0.000262099
0.00347568
-0.00275181
0.00289839
-0.00287148
0.00287599
-0.0028753
0.0028754
-0.00287538
0.00287539
-0.00287539
0.00287539
-0.00287539
0.00287539
-0.00287539
0.00287539
-0.00287539
0.00287539
-0.00287539
0.00287539
-0.00287539
0.00287539
-0.00287539
0.00287539
-0.00287539
0.00287539
-0.00287539
0.00287539
-0.00287539
0.00287539
-0.00287539
0.00287539
-0.00287539
0.00287539
-0.00287539
0.00287539
-0.00287539
0.00287539
-0.00287539
0.00287539
-0.00287539
0.00287539
-0.00287539
0.00287539
-0.00287539
0.00287539
-0.00287539
0.00287539
-0.00287539
0.00287539
-0.00287539
0.00287539
-0.00287539
0.00287539
-0.00287539
0.00287539
-0.00287539
0.00287539
-0.00287539
0.00287538
-0.0028754
0.0028753
-0.00287591
0.0028726
-0.00288702
0.00283924
-0.00295082
0.00279631
-0.00285324
0.00292911
-0.0032277
0.00235241
-0.00235134
0.00302838
-0.00434408
0.00387668
-0.00326323
0.00165974
-0.00113174
0.00103656
0.132179
0.132179
1
1.07933
1.12006
1.13297
1.10325
1.12246
1.07089
1.06318
1.06462
1.01453
0.9726
0.939002
0.765728
0.499714
0.250922
0.108231
0.0340707
0.013825
0.000141913
0.00343964
-0.0026225
0.00279001
-0.00275889
0.00276417
-0.00276335
0.00276347
-0.00276345
0.00276345
-0.00276345
0.00276345
-0.00276345
0.00276345
-0.00276345
0.00276345
-0.00276345
0.00276345
-0.00276345
0.00276345
-0.00276345
0.00276345
-0.00276345
0.00276345
-0.00276345
0.00276345
-0.00276345
0.00276345
-0.00276345
0.00276345
-0.00276345
0.00276345
-0.00276345
0.00276345
-0.00276345
0.00276345
-0.00276345
0.00276345
-0.00276345
0.00276345
-0.00276345
0.00276345
-0.00276345
0.00276345
-0.00276345
0.00276345
-0.00276345
0.00276345
-0.00276345
0.00276345
-0.00276345
0.00276345
-0.00276345
0.00276345
-0.00276345
0.00276345
-0.00276345
0.00276345
-0.00276345
0.00276345
-0.00276346
0.00276336
-0.00276405
0.00276036
-0.00277601
0.00272565
-0.00283894
0.00269138
-0.00273195
0.00280071
-0.00314324
0.00230525
-0.00218689
0.00275836
-0.00413046
0.00390141
-0.00343521
0.00194154
-0.00130935
2.85206e-05
-0.131215
-0.131215
1
1.07055
1.10783
1.12641
1.09638
1.11598
1.07001
1.0563
1.06086
1.01603
0.970195
0.935537
0.771537
0.511554
0.261926
0.114363
0.0371096
0.0146361
0.00066649
0.00331021
-0.00239129
0.00258198
-0.00254614
0.00255229
-0.00255132
0.00255146
-0.00255144
0.00255144
-0.00255144
0.00255144
-0.00255144
0.00255144
-0.00255144
0.00255144
-0.00255144
0.00255144
-0.00255144
0.00255144
-0.00255144
0.00255144
-0.00255144
0.00255144
-0.00255144
0.00255144
-0.00255144
0.00255144
-0.00255144
0.00255144
-0.00255144
0.00255144
-0.00255144
0.00255144
-0.00255144
0.00255144
-0.00255144
0.00255144
-0.00255144
0.00255144
-0.00255144
0.00255144
-0.00255144
0.00255144
-0.00255144
0.00255144
-0.00255144
0.00255144
-0.00255144
0.00255144
-0.00255144
0.00255144
-0.00255144
0.00255144
-0.00255144
0.00255144
-0.00255144
0.00255144
-0.00255144
0.00255144
-0.00255146
0.00255134
-0.00255211
0.00254804
-0.00256492
0.00251214
-0.00262646
0.00248683
-0.00251201
0.00257027
-0.00295282
0.0021634
-0.00194097
0.00239384
-0.00378669
0.00377591
-0.00347147
0.00211769
-0.00142277
0.00126969
0.131908
0.131908
1
1.06219
1.09521
1.118
1.08872
1.10789
1.06849
1.04966
1.05658
1.01732
0.968721
0.931991
0.776323
0.522322
0.272644
0.120404
0.0402998
0.0154123
0.00129377
0.00310551
-0.00207598
0.00229224
-0.00225112
0.00225825
-0.00225711
0.00225728
-0.00225726
0.00225726
-0.00225726
0.00225726
-0.00225726
0.00225726
-0.00225726
0.00225726
-0.00225726
0.00225726
-0.00225726
0.00225726
-0.00225726
0.00225726
-0.00225726
0.00225726
-0.00225726
0.00225726
-0.00225726
0.00225726
-0.00225726
0.00225726
-0.00225726
0.00225726
-0.00225726
0.00225726
-0.00225726
0.00225726
-0.00225726
0.00225726
-0.00225726
0.00225726
-0.00225726
0.00225726
-0.00225726
0.00225726
-0.00225726
0.00225726
-0.00225726
0.00225726
-0.00225726
0.00225726
-0.00225726
0.00225726
-0.00225726
0.00225726
-0.00225726
0.00225726
-0.00225726
0.00225726
-0.00225726
0.00225726
-0.00225728
0.00225714
-0.00225801
0.00225353
-0.00227165
0.00221662
-0.00233129
0.00220041
-0.00221146
0.0022562
-0.002674
0.00194264
-0.00163134
0.00195731
-0.00333743
0.00351892
-0.0033829
0.00219108
-0.00148965
0.000188143
-0.131441
-0.131441
1
1.05455
1.0831
1.10871
1.08106
1.09897
1.0666
1.04355
1.05198
1.01835
0.968074
0.92851
0.780205
0.532058
0.283021
0.126348
0.0436105
0.0161714
0.00200358
0.00284581
-0.00169657
0.0019409
-0.0018939
0.00190214
-0.00190082
0.00190101
-0.00190099
0.00190099
-0.00190099
0.00190099
-0.00190099
0.00190099
-0.00190099
0.00190099
-0.00190099
0.00190099
-0.00190099
0.00190099
-0.00190099
0.00190099
-0.00190099
0.00190099
-0.00190099
0.00190099
-0.00190099
0.00190099
-0.00190099
0.00190099
-0.00190099
0.00190099
-0.00190099
0.00190099
-0.00190099
0.00190099
-0.00190099
0.00190099
-0.00190099
0.00190099
-0.00190099
0.00190099
-0.00190099
0.00190099
-0.00190099
0.00190099
-0.00190099
0.00190099
-0.00190099
0.00190099
-0.00190099
0.00190099
-0.00190099
0.00190099
-0.00190099
0.00190099
-0.00190099
0.00190099
-0.00190099
0.00190099
-0.00190101
0.00190085
-0.00190183
0.00189692
-0.00191628
0.0018592
-0.00197353
0.00185207
-0.00185046
0.0018791
-0.00232667
0.00166102
-0.00127731
0.00147266
-0.0028098
0.00315348
-0.003185
0.00216949
-0.00149175
0.00135799
0.131725
0.131725
1
1.04775
1.072
1.09919
1.07386
1.08978
1.06449
1.03806
1.04721
1.01908
0.968135
0.925213
0.7833
0.540815
0.293006
0.132189
0.0470096
0.0169315
0.00277474
0.00255217
-0.00127387
0.00154894
-0.0014954
0.0015049
-0.00150335
0.00150359
-0.00150355
0.00150356
-0.00150356
0.00150356
-0.00150356
0.00150356
-0.00150356
0.00150356
-0.00150356
0.00150356
-0.00150356
0.00150356
-0.00150356
0.00150356
-0.00150356
0.00150356
-0.00150356
0.00150356
-0.00150356
0.00150356
-0.00150356
0.00150356
-0.00150356
0.00150356
-0.00150356
0.00150356
-0.00150356
0.00150356
-0.00150356
0.00150356
-0.00150356
0.00150356
-0.00150356
0.00150356
-0.00150356
0.00150356
-0.00150356
0.00150356
-0.00150356
0.00150356
-0.00150356
0.00150356
-0.00150356
0.00150356
-0.00150356
0.00150356
-0.00150356
0.00150356
-0.00150356
0.00150356
-0.00150356
0.00150355
-0.00150358
0.0015034
-0.00150449
0.00149915
-0.00151971
0.00146082
-0.00157413
0.0014626
-0.00144998
0.00146042
-0.00193178
0.00133751
-0.000898472
0.000963839
-0.0022317
0.00270512
-0.00289659
0.00206415
-0.00145269
0.000209525
-0.131585
-0.131585
1
1.0418
1.06216
1.08984
1.06732
1.08066
1.0622
1.03325
1.04239
1.01948
0.968777
0.922192
0.785715
0.548655
0.302558
0.137922
0.0504653
0.01771
0.00358629
0.00224529
-0.000828395
0.00113696
-0.00107621
0.0010871
-0.00108531
0.00108558
-0.00108554
0.00108555
-0.00108555
0.00108555
-0.00108555
0.00108555
-0.00108555
0.00108555
-0.00108555
0.00108555
-0.00108555
0.00108555
-0.00108555
0.00108555
-0.00108555
0.00108555
-0.00108555
0.00108555
-0.00108555
0.00108555
-0.00108555
0.00108555
-0.00108555
0.00108555
-0.00108555
0.00108555
-0.00108555
0.00108555
-0.00108555
0.00108555
-0.00108555
0.00108555
-0.00108555
0.00108555
-0.00108555
0.00108555
-0.00108555
0.00108555
-0.00108555
0.00108555
-0.00108555
0.00108555
-0.00108555
0.00108555
-0.00108555
0.00108555
-0.00108555
0.00108555
-0.00108555
0.00108555
-0.00108555
0.00108555
-0.00108557
0.00108537
-0.00108658
0.00108079
-0.00110254
0.00104209
-0.00115372
0.00105246
-0.00103059
0.00102127
-0.00151011
0.000990952
-0.000513631
0.000453574
-0.00163033
0.00220029
-0.00253841
0.00188901
-0.00135917
0.00131914
0.131615
0.131615
1
1.03664
1.05364
1.08087
1.06152
1.07185
1.05972
1.0291
1.03762
1.01952
0.969874