# vtk DataFile Version 2.0
FlowField
ASCII
DATASET STRUCTURED_GRID
DIMENSIONS 100 1 100
POINTS 10000 float
0 0 0
0.01 0 0
0.02 0 0
0.03 0 0
0.04 0 0
0.05 0 0
0.06 0 0
0.07 0 0
0.08 0 0
0.09 0 0
0.1 0 0
0.11 0 0
0.12 0 0
0.13 0 0
0.14 0 0
0.15 0 0
0.16 0 0
0.17 0 0
0.18 0 0
0.19 0 0
0.2 0 0
0.21 0 0
0.22 0 0
0.23 0 0
0.24 0 0
0.25 0 0
0.26 0 0
0.27 0 0
0.28 0 0
0.29 0 0
0.3 0 0
0.31 0 0
0.32 0 0
0.33 0 0
0.34 0 0
0.35 0 0
0.36 0 0
0.37 0 0
0.38 0 0
0.39 0 0
0.4 0 0
0.41 0 0
0.42 0 0
0.43 0 0
0.44 0 0
0.45 0 0
0.46 0 0
0.47 0 0
0.48 0 0
0.49 0 0
0.5 0 0
0.51 0 0
0.52 0 0
0.53 0 0
0.54 0 0
0.55 0 0
0.56 0 0
0.57 0 0
0.58 0 0
0.59 0 0
0.6 0 0
0.61 0 0
0.62 0 0
0.63 0 0
0.64 0 0
0.65 0 0
0.66 0 0
0.67 0 0
0.68 0 0
0.69 0 0
0.7 0 0
0.71 0 0
0.72 0 0
0.73 0 0
0.74 0 0
0.75 0 0
0.76 0 0
0.77 0 0
0.78 0 0
0.79 0 0
0.8 0 0
0.81 0 0
0.82 0 0
0.83 0 0
0.84 0 0
0.85 0 0
0.86 0 0
0.87 0 0
0.88 0 0
0.89 0 0
0.9 0 0
0.91 0 0
0.92 0 0
0.93 0 0
0.94 0 0
0.95 0 0
0.96 0 0
0.97 0 0
0.98 0 0
0.99 0 0
0 0.001 0
0.01 0.001 0
0.02 0.001 0
0.03 0.001 0
0.04 0.001 0
0.05 0.001 0
0.06 0.001 0
0.07 0.001 0
0.08 0.001 0
0.09 0.001 0
0.1 0.001 0
0.11 0.001 0
0.12 0.001 0
0.13 0.001 0
0.14 0.001 0
0.15 0.001 0
0.16 0.001 0
0.17 0.001 0
0.18 0.001 0
0.19 0.001 0
0.2 0.001 0
0.21 0.001 0
0.22 0.001 0
0.23 0.001 0
0.24 0.001 0
0.25 0.001 0
0.26 0.001 0
0.27 0.001 0
0.28 0.001 0
0.29 0.001 0
0.3 0.001 0
0.31 0.001 0
0.32 0.001 0
0.33 0.001 0
0.34 0.001 0
0.35 0.001 0
0.36 0.001 0
0.37 0.001 0
0.38 0.001 0
0.39 0.001 0
0.4 0.001 0
0.41 0.001 0
0.42 0.001 0
0.43 0.001 0
0.44 0.001 0
0.45 0.001 0
0.46 0.001 0
0.47 0.001 0
0.48 0.001 0
0.49 0.001 0
0.5 0.001 0
0.51 0.001 0
0.52 0.001 0
0.53 0.001 0
0.54 0.001 0
0.55 0.001 0
0.56 0.001 0
0.57 0.001 0
0.58 0.001 0
0.59 0.001 0
0.6 0.001 0
0.61 0.001 0
0.62 0.001 0
0.63 0.001 0
0.64 0.001 0
0.65 0.001 0
0.66 0.001 0
0.67 0.001 0
0.68 0.001 0
0.69 0.001 0
0.7 0.001 0
0.71 0.001 0
0.72 0.001 0
0.73 0.001 0
0.74 0.001 0
0.75 0.001 0
0.76 0.001 0
0.77 0.001 0
0.78 0.001 0
0.79 0.001 0
0.8 0.001 0
0.81 0.001 0
0.82 0.001 0
0.83 0.001 0
0.84 0.001 0
0.85 0.001 0
0.86 0.001 0
0.87 0.001 0
0.88 0.001 0
0.89 0.001 0
0.9 0.001 0
0.91 0.001 0
0.92 0.001 0
0.93 0.001 0
0.94 0.001 0
0.95 0.001 0
0.96 0.001 0
0.97 0.001 0
0.98 0.001 0
0.99 0.001 0
0 0.002 0
0.01 0.002 0
0.02 0.002 0
0.03 0.002 0
0.04 0.002 0
0.05 0.002 0
0.06 0.002 0
0.07 0.002 0
0.08 0.002 0
0.09 0.002 0
0.1 0.002 0
0.11 0.002 0
0.12 0.002 0
0.13 0.002 0
0.14 0.002 0
0.15 0.002 0
0.16 0.002 0
0.17 0.002 0
0.18 0.002 0
0.19 0.002 0
0.2 0.002 0
0.21 0.002 0
0.22 0.002 0
0.23 0.002 0
0.24 0.002 0
0.25 0.002 0
0.26 0.002 0
0.27 0.002 0
0.28 0.002 0
0.29 0.002 0
0.3 0.002 0
0.31 0.002 0
0.32 0.002 0
0.33 0.002 0
0.34 0.002 0
0.35 0.002 0
0.36 0.002 0
0.37 0.002 0
0.38 0.002 0
0.39 0.002 0
0.4 0.002 0
0.41 0.002 0
0.42 0.002 0
0.43 0.002 0
0.44 0.002 0
0.45 0.002 0
0.46 0.002 0
0.47 0.002 0
0.48 0.002 0
0.49 0.002 0
0.5 0.002 0
0.51 0.002 0
0.52 0.002 0
0.53 0.002 0
0.54 0.002 0
0.55 0.002 0
0.56 0.002 0
0.57 0.002 0
0.58 0.002 0
0.59 0.002 0
0.6 0.002 0
0.61 0.002 0
0.62 0.002 0
0.63 0.002 0
0.64 0.002 0
0.65 0.002 0
0.66 0.002 0
0.67 0.002 0
0.68 0.002 0
0.69 0.002 0
0.7 0.002 0
0.71 0.002 0
0.72 0.002 0
0.73 0.002 0
0.74 0.002 0
0.75 0.002 0
0.76 0.002 0
0.77 0.002 0
0.78 0.002 0
0.79 0.002 0
0.8 0.002 0
0.81 0.002 0
0.82 0.002 0
0.83 0.002 0
0.84 0.002 0
0.85 0.002 0
0.86 0.002 0
0.87 0.002 0
0.88 0.002 0
0.89 0.002 0
0.9 0.002 0
0.91 0.002 0
0.92 0.002 0
0.93 0.002 0
0.94 0.002 0
0.95 0.002 0
0.96 0.002 0
0.97 0.002 0
0.98 0.002 0
0.99 0.002 0
0 0.003 0
0.01 0.003 0
0.02 0.003 0
0.03 0.003 0
0.04 0.003 0
0.05 0.003 0
0.06 0.003 0
0.07 0.003 0
0.08 0.003 0
0.09 0.003 0
0.1 0.003 0
0.11 0.003 0
0.12 0.003 0
0.13 0.003 0
0.14 0.003 0
0.15 0.003 0
0.16 0.003 0
0.17 0.003 0
0.18 0.003 0
0.19 0.003 0
0.2 0.003 0
0.21 0.003 0
0.22 0.003 0
0.23 0.003 0
0.24 0.003 0
0.25 0.003 0
0.26 0.003 0
0.27 0.003 0
0.28 0.003 0
0.29 0.003 0
0.3 0.003 0
0.31 0.003 0
0.32 0.003 0
0.33 0.003 0
0.34 0.003 0
0.35 0.003 0
0.36 0.003 0
0.37 0.003 0
0.38 0.003 0
0.39 0.003 0
0.4 0.003 0
0.41 0.003 0
0.42 0.003 0
0.43 0.003 0
0.44 0.003 0
0.45 0.003 0
0.46 0.003 0
0.47 0.003 0
0.48 0.003 0
0.49 0.003 0
0.5 0.003 0
0.51 0.003 0
0.52 0.003 0
0.53 0.003 0
0.54 0.003 0
0.55 0.003 0
0.56 0.003 0
0.57 0.003 0
0.58 0.003 0
0.59 0.003 0
0.6 0.003 0
0.61 0.003 0
0.62 0.003 0
0.63 0.003 0
0.64 0.003 0
0.65 0.003 0
0.66 0.003 0
0.67 0.003 0
0.68 0.003 0
0.69 0.003 0
0.7 0.003 0
0.71 0.003 0
0.72 0.003 0
0.73 0.003 0
0.74 0.003 0
0.75 0.003 0
0.76 0.003 0
0.77 0.003 0
0.78 0.003 0
0.79 0.003 0
0.8 0.003 0
0.81 0.003 0
0.82 0.003 0
0.83 0.003 0
0.84 0.003 0
0.85 0.003 0
0.86 0.003 0
0.87 0.003 0
0.88 0.003 0
0.89 0.003 0
0.9 0.003 0
0.91 0.003 0
0.92 0.003 0
0.93 0.003 0
0.94 0.003 0
0.95 0.003 0
0.96 0.003 0
0.97 0.003 0
0.98 0.003 0
0.99 0.003 0
0 0.004 0
0.01 0.004 0
0.02 0.004 0
0.03 0.004 0
0.04 0.004 0
0.05 0.004 0
0.06 0.004 0
0.07 0.004 0
0.08 0.004 0
0.09 0.004 0
0.1 0.004 0
0.11 0.004 0
0.12 0.004 0
0.13 0.004 0
0.14 0.004 0
0.15 0.004 0
0.16 0.004 0
0.17 0.004 0
0.18 0.004 0
0.19 0.004 0
0.2 0.004 0
0.21 0.004 0
0.22 0.004 0
0.23 0.004 0
0.24 0.004 0
0.25 0.004 0
0.26 0.004 0
0.27 0.004 0
0.28 0.004 0
0.29 0.004 0
0.3 0.004 0
0.31 0.004 0
0.32 0.004 0
0.33 0.004 0
0.34 0.004 0
0.35 0.004 0
0.36 0.004 0
0.37 0.004 0
0.38 0.004 0
0.39 0.004 0
0.4 0.004 0
0.41 0.004 0
0.42 0.004 0
0.43 0.004 0
0.44 0.004 0
0.45 0.004 0
0.46 0.004 0
0.47 0.004 0
0.48 0.004 0
0.49 0.004 0
0.5 0.004 0
0.51 0.004 0
0.52 0.004 0
0.53 0.004 0
0.54 0.004 0
0.55 0.004 0
0.56 0.004 0
0.57 0.004 0
0.58 0.004 0
0.59 0.004 0
0.6 0.004 0
0.61 0.004 0
0.62 0.004 0
0.63 0.004 0
0.64 0.004 0
0.65 0.004 0
0.66 0.004 0
0.67 0.004 0
0.68 0.004 0
0.69 0.004 0
0.7 0.004 0
0.71 0.004 0
0.72 0.004 0
0.73 0.004 0
0.74 0.004 0
0.75 0.004 0
0.76 0.004 0
0.77 0.004 0
0.78 0.004 0
0.79 0.004 0
0.8 0.004 0
0.81 0.004 0
0.82 0.004 0
0.83 0.004 0
0.84 0.004 0
0.85 0.004 0
0.86 0.004 0
0.87 0.004 0
0.88 0.004 0
0.89 0.004 0
0.9 0.004 0
0.91 0.004 0
0.92 0.004 0
0.93 0.004 0
0.94 0.004 0
0.95 0.004 0
0.96 0.004 0
0.97 0.004 0
0.98 0.004 0
0.99 0.004 0
0 0.005 0
0.01 0.005 0
0.02 0.005 0
0.03 0.005 0
0.04 0.005 0
0.05 0.005 0
0.06 0.005 0
0.07 0.005 0
0.08 0.005 0
0.09 0.005 0
0.1 0.005 0
0.11 0.005 0
0.12 0.005 0
0.13 0.005 0
0.14 0.005 0
0.15 0.005 0
0.16 0.005 0
0.17 0.005 0
0.18 0.005 0
0.19 0.005 0
0.2 0.005 0
0.21 0.005 0
0.22 0.005 0
0.23 0.005 0
0.24 0.005 0
0.25 0.005 0
0.26 0.005 0
0.27 0.005 0
0.28 0.005 0
0.29 0.005 0
0.3 0.005 0
0.31 0.005 0
0.32 0.005 0
0.33 0.005 0
0.34 0.005 0
0.35 0.005 0
0.36 0.005 0
0.37 0.005 0
0.38 0.005 0
0.39 0.005 0
0.4 0.005 0
0.41 0.005 0
0.42 0.005 0
0.43 0.005 0
0.44 0.005 0
0.45 0.005 0
0.46 0.005 0
0.47 0.005 0
0.48 0.005 0
0.49 0.005 0
0.5 0.005 0
0.51 0.005 0
0.52 0.005 0
0.53 0.005 0
0.54 0.005 0
0.55 0.005 0
0.56 0.005 0
0.57 0.005 0
0.58 0.005 0
0.59 0.005 0
0.6 0.005 0
0.61 0.005 0
0.62 0.005 0
0.63 0.005 0
0.64 0.005 0
0.65 0.005 0
0.66 0.005 0
0.67 0.005 0
0.68 0.005 0
0.69 0.005 0
0.7 0.005 0
0.71 0.005 0
0.72 0.005 0
0.73 0.005 0
0.74 0.005 0
0.75 0.005 0
0.76 0.005 0
0.77 0.005 0
0.78 0.005 0
0.79 0.005 0
0.8 0.005 0
0.81 0.005 0
0.82 0.005 0
0.83 0.005 0
0.84 0.005 0
0.85 0.005 0
0.86 0.005 0
0.87 0.005 0
0.88 0.005 0
0.89 0.005 0
0.9 0.005 0
0.91 0.005 0
0.92 0.005 0
0.93 0.005 0
0.94 0.005 0
0.95 0.005 0
0.96 0.005 0
0.97 0.005 0
0.98 0.005 0
0.99 0.005 0
0 0.006 0
0.01 0.006 0
0.02 0.006 0
0.03 0.006 0
0.04 0.006 0
0.05 0.006 0
0.06 0.006 0
0.07 0.006 0
0.08 0.006 0
0.09 0.006 0
0.1 0.006 0
0.11 0.006 0
0.12 0.006 0
0.13 0.006 0
0.14 0.006 0
0.15 0.006 0
0.16 0.006 0
0.17 0.006 0
0.18 0.006 0
0.19 0.006 0
0.2 0.006 0
0.21 0.006 0
0.22 0.006 0
0.23 0.006 0
0.24 0.006 0
0.25 0.006 0
0.26 0.006 0
0.27 0.006 0
0.28 0.006 0
0.29 0.006 0
0.3 0.006 0
0.31 0.006 0
0.32 0.006 0
0.33 0.006 0
0.34 0.006 0
0.35 0.006 0
0.36 0.006 0
0.37 0.006 0
0.38 0.006 0
0.39 0.006 0
0.4 0.006 0
0.41 0.006 0
0.42 0.006 0
0.43 0.006 0
0.44 0.006 0
0.45 0.006 0
0.46 0.006 0
0.47 0.006 0
0.48 0.006 0
0.49 0.006 0
0.5 0.006 0
0.51 0.006 0
0.52 0.006 0
0.53 0.006 0
0.54 0.006 0
0.55 0.006 0
0.56 0.006 0
0.57 0.006 0
0.58 0.006 0
0.59 0.006 0
0.6 0.006 0
0.61 0.006 0
0.62 0.006 0
0.63 0.006 0
0.64 0.006 0
0.65 0.006 0
0.66 0.006 0
0.67 0.006 0
0.68 0.006 0
0.69 0.006 0
0.7 0.006 0
0.71 0.006 0
0.72 0.006 0
0.73 0.006 0
0.74 0.006 0
0.75 0.006 0
0.76 0.006 0
0.77 0.006 0
0.78 0.006 0
0.79 0.006 0
0.8 0.006 0
0.81 0.006 0
0.82 0.006 0
0.83 0.006 0
0.84 0.006 0
0.85 0.006 0
0.86 0.006 0
0.87 0.006 0
0.88 0.006 0
0.89 0.006 0
0.9 0.006 0
0.91 0.006 0
0.92 0.006 0
0.93 0.006 0
0.94 0.006 0
0.95 0.006 0
0.96 0.006 0
0.97 0.006 0
0.98 0.006 0
0.99 0.006 0
0 0.007 0
0.01 0.007 0
0.02 0.007 0
0.03 0.007 0
0.04 0.007 0
0.05 0.007 0
0.06 0.007 0
0.07 0.007 0
0.08 0.007 0
0.09 0.007 0
0.1 0.007 0
0.11 0.007 0
0.12 0.007 0
0.13 0.007 0
0.14 0.007 0
0.15 0.007 0
0.16 0.007 0
0.17 0.007 0
0.18 0.007 0
0.19 0.007 0
0.2 0.007 0
0.21 0.007 0
0.22 0.007 0
0.23 0.007 0
0.24 0.007 0
0.25 0.007 0
0.26 0.007 0
0.27 0.007 0
0.28 0.007 0
0.29 0.007 0
0.3 0.007 0
0.31 0.007 0
0.32 0.007 0
0.33 0.007 0
0.34 0.007 0
0.35 0.007 0
0.36 0.007 0
0.37 0.007 0
0.38 0.007 0
0.39 0.007 0
0.4 0.007 0
0.41 0.007 0
0.42 0.007 0
0.43 0.007 0
0.44 0.007 0
0.45 0.007 0
0.46 0.007 0
0.47 0.007 0
0.48 0.007 0
0.49 0.007 0
0.5 0.007 0
0.51 0.007 0
0.52 0.007 0
0.53 0.007 0
0.54 0.007 0
0.55 0.007 0
0.56 0.007 0
0.57 0.007 0
0.58 0.007 0
0.59 0.007 0
0.6 0.007 0
0.61 0.007 0
0.62 0.007 0
0.63 0.007 0
0.64 0.007 0
0.65 0.007 0
0.66 0.007 0
0.67 0.007 0
0.68 0.007 0
0.69 0.007 0
0.7 0.007 0
0.71 0.007 0
0.72 0.007 0
0.73 0.007 0
0.74 0.007 0
0.75 0.007 0
0.76 0.007 0
0.77 0.007 0
0.78 0.007 0
0.79 0.007 0
0.8 0.007 0
0.81 0.007 0
0.82 0.007 0
0.83 0.007 0
0.84 0.007 0
0.85 0.007 0
0.86 0.007 0
0.87 0.007 0
0.88 0.007 0
0.89 0.007 0
0.9 0.007 0
0.91 0.007 0
0.92 0.007 0
0.93 0.007 0
0.94 0.007 0
0.95 0.007 0
0.96 0.007 0
0.97 0.007 0
0.98 0.007 0
[...]
POINT_DATA 10000

SCALARS vel_X float 1
LOOKUP_TABLE default
0
0
0
0
0
0
0
0
0
0
0
0
0
0
0
0
0
0
0
0
0
0
0
0
0
0
0
0
0
0
0
0
0
0
0
0
0
0
0
0
0
0
0
0
0
0
0
0
0
0
0
0
0
0
0
0
0
0
0
0
0
0
0
0
0
0
0
0
0
0
0
0
0
0
0
0
0
0
0
0
0
0
0
0
0
0
0
0
0
0
0
0
0
0
0
0
0
0
0
0
1
0.323272
0.20303
0.164954
0.131038
0.156669
0.0992331
0.160427
0.105748
0.133025
0.149553
0.124227
0.142832
0.180663
0.124563
0.172829
0.189571
0.178009
0.166615
0.23751
0.237015
0.243434
0.25727
0.33377
0.328506
0.283845
0.172171
0.107541
0.0383955
0.0281239
-0.00109998
0.0110123
-0.0076971
0.00871492
-0.00842626
0.00850223
-0.00848358
0.00848787
-0.00848694
0.00848713
-0.00848709
0.0084871
-0.0084871
0.0084871
-0.0084871
0.0084871
-0.0084871
0.0084871
-0.0084871
0.0084871
-0.0084871
0.0084871
-0.0084871
0.0084871
-0.0084871
0.0084871
-0.0084871
0.0084871
-0.0084871
0.0084871
-0.0084871
0.0084871
-0.0084871
0.0084871
-0.0084871
0.00848709
-0.00848716
0.00848685
-0.00848808
0.00848387
-0.00849589
0.00846841
-0.00851504
0.00846677
-0.00847167
0.0085217
-0.0085493
0.00827442
-0.00852289
0.0089381
-0.00835902
0.00752872
-0.00854166
0.0100361
-0.00956138
0.00700985
-0.00568118
0.00691655
-0.010057
0.0123014
-0.0128172
0.0111752
-0.00900042
0.00613995
-0.00423307
0.00223544
-0.00174864
-0.00264507
-0.18907
-0.18907
1
0.564148
0.386682
0.316192
0.268359
0.29221
0.21971
0.297544
0.224441
0.266483
0.285321
0.254823
0.287295
0.333041
0.264661
0.336438
0.358738
0.344856
0.342438
0.442287
0.44304
0.455507
0.482433
0.577061
0.54547
0.449519
0.270849
0.16283
0.0605467
0.0403505
0.000363909
0.0144952
-0.0095451
0.0110603
-0.0106316
0.0107442
-0.0107166
0.010723
-0.0107216
0.0107219
-0.0107218
0.0107218
-0.0107218
0.0107218
-0.0107218
0.0107218
-0.0107218
0.0107218
-0.0107218
0.0107218
-0.0107218
0.0107218
-0.0107218
0.0107218
-0.0107218
0.0107218
-0.0107218
0.0107218
-0.0107218
0.0107218
-0.0107218
0.0107218
-0.0107218
0.0107218
-0.0107218
0.0107218
-0.0107219
0.0107215
-0.0107233
0.010717
-0.0107351
0.0106932
-0.0107661
0.0106854
-0.0107078
0.0107694
-0.0108049
0.0104105
-0.0108193
0.0113305
-0.0104652
0.00942169
-0.0109751
0.0128379
-0.0119485
0.00848323
-0.007087
0.00899854
-0.0132207
0.0158222
-0.0161967
0.0136768
-0.0108443
0.00704517
-0.00486726
0.00225624
-0.00205459
-0.000466516
0.268361
0.268361
1
0.739125
0.545034
0.458905
0.397662
0.418931
0.342555
0.418882
0.349284
0.388744
0.412127
0.385107
0.418785
0.470655
0.406185
0.481037
0.509444
0.500848
0.503678
0.610175
0.615864
0.629968
0.654476
0.736796
0.677969
0.544298
0.328801
0.193522
0.0748243
0.0463363
0.00259526
0.0152941
-0.00932072
0.0111543
-0.0106339
0.0107711
-0.0107374
0.0107451
-0.0107435
0.0107438
-0.0107437
0.0107438
-0.0107438
0.0107438
-0.0107438
0.0107438
-0.0107438
0.0107438
-0.0107438
0.0107438
-0.0107438
0.0107438
-0.0107438
0.0107438
-0.0107438
0.0107438
-0.0107438
0.0107438
-0.0107438
0.0107438
-0.0107438
0.0107438
-0.0107438
0.0107438
-0.0107438
0.0107437
-0.0107439
0.0107433
-0.0107455
0.0107379
-0.0107596
0.0107096
-0.0107968
0.0106982
-0.0107341
0.0107892
-0.0108442
0.0103935
-0.0108579
0.0113881
-0.0104893
0.0093595
-0.0109929
0.0129055
-0.0120934
0.0085218
-0.00706676
0.0087934
-0.0130689
0.0157054
-0.0163887
0.0139431
-0.0113987
0.00749983
-0.00547626
0.00251765
-0.00249433
-0.00203474
-0.234046
-0.234046
1
0.863163
0.678019
0.590746
0.5153
0.538577
0.458528
0.52944
0.470794
0.498594
0.529894
0.507648
0.534829
0.596363
0.537725
0.605508
0.641565
0.640001
0.639513
0.743055
0.753698
0.763474
0.772593
0.832983
0.75436
0.599499
0.365114
0.213397
0.0851639
0.0503655
0.00468291
0.0155635
-0.00876182
0.0108626
-0.0102627
0.0104218
-0.0103825
0.0103916
-0.0103896
0.01039
-0.0103899
0.0103899
-0.0103899
0.0103899
-0.0103899
0.0103899
-0.0103899
0.0103899
-0.0103899
0.0103899
-0.0103899
0.0103899
-0.0103899
0.0103899
-0.0103899
0.0103899
-0.0103899
0.0103899
-0.0103899
0.0103899
-0.0103899
0.0103899
-0.0103899
0.0103899
-0.01039
0.0103899
-0.0103901
0.0103894
-0.010392
0.0103834
-0.0104076
0.0103524
-0.0104474
0.0103409
-0.0103826
0.0104265
-0.0105128
0.0100259
-0.0104786
0.0110366
-0.0102375
0.00899067
-0.0104563
0.0124164
-0.0120148
0.0085877
-0.00683786
0.00791823
-0.0119349
0.0147375
-0.0161176
0.0142162
-0.0122687
0.00849012
-0.00660417
0.00327812
-0.00316305
0.00079002
0.249512
0.249512
1
0.949076
0.787469
0.708508
0.621295
0.648594
0.565075
0.629606
0.58342
0.596811
0.636408
0.618061
0.636148
0.707829
0.653997
0.710505
0.753802
0.757405
0.748074
0.843837
0.857515
0.85836
0.847091
0.885994
0.796888
0.6332
0.390607
0.228446
0.0938966
0.0537236
0.00674708
0.0156784
-0.00808393
0.0104481
-0.00976786
0.00994965
-0.00990434
0.00991491
-0.00991259
0.00991307
-0.00991298
0.009913
-0.00991299
0.00991299
-0.00991299
0.00991299
-0.00991299
0.00991299
-0.00991299
0.00991299
-0.00991299
0.00991299
-0.00991299
0.00991299
-0.00991299
0.00991299
-0.00991299
0.00991299
-0.00991299
0.00991299
-0.00991299
0.00991299
-0.00991299
0.00991299
-0.009913
0.00991297
-0.00991313
0.00991239
-0.00991526
0.00990573
-0.00993219
0.00987307
-0.00997247
0.00986425
-0.00990541
0.00993839
-0.0100617
0.00954567
-0.00995145
0.0105571
-0.00990989
0.00851129
-0.00971357
0.0117582
-0.011891
0.00866451
-0.00650488
0.00681035
-0.0104956
0.0135351
-0.0157182
0.014485
-0.0131713
0.00957953
-0.00780819
0.00415837
-0.00385787
-0.000695521
-0.241932
-0.241932
1
1.00723
0.875663
0.810448
0.715932
0.746473
0.661892
0.718071
0.684866
0.683697
0.729724
0.714545
0.723307
0.802469
0.753594
0.796756
0.845379
0.851508
0.831631
0.916137
0.931206
0.921267
0.891001
0.911957
0.820351
0.655164
0.411009
0.241112
0.10233
0.056638
0.00912933
0.0154907
-0.00707814
0.00971968
-0.00895329
0.00915974
-0.00910789
0.00912008
-0.00911738
0.00911795
-0.00911783
0.00911786
-0.00911785
0.00911785
-0.00911785
0.00911785
-0.00911785
0.00911785
-0.00911785
0.00911785
-0.00911785
0.00911785
-0.00911785
0.00911785
-0.00911785
0.00911785
-0.00911785
0.00911785
-0.00911785
0.00911785
-0.00911785
0.00911785
-0.00911785
0.00911785
-0.00911786
0.00911782
-0.00911801
0.00911717
-0.00912038
0.0091099
-0.00913845
0.00907606
-0.00917801
0.00907163
-0.00910817
0.00913169
-0.0092931
0.00875341
-0.00909524
0.00975625
-0.0092777
0.0077265
-0.0086369
0.0107583
-0.0114322
0.00844692
-0.00590391
0.00544981
-0.00874253
0.0119499
-0.0148685
0.0143
-0.0136096
0.0102869
-0.00869092
0.00485526
-0.00436849
0.00193661
0.246121
0.246121
1
1.04555
0.945059
0.896249
0.799194
0.830951
0.7489
0.793872
0.774303
0.75922
0.808984
0.796702
0.796546
0.879249
0.836793
0.865264
0.916869
0.923575
0.893909
0.96447
0.980461
0.960398
0.915604
0.92209
0.833546
0.670517
0.429075
0.252432
0.111041
0.0591552
0.0120059
0.0148982
-0.00561898
0.00855877
-0.00769856
0.00793219
-0.00787304
0.00788706
-0.00788394
0.00788459
-0.00788446
0.00788449
-0.00788448
0.00788448
-0.00788448
0.00788448
-0.00788448
0.00788448
-0.00788448
0.00788448
-0.00788448
0.00788448
-0.00788448
0.00788448
-0.00788448
0.00788448
-0.00788448
0.00788448
-0.00788448
0.00788448
-0.00788448
0.00788448
-0.00788448
0.00788448
-0.00788449
0.00788445
-0.00788466
0.00788372
-0.00788728
0.00787583
-0.00790644
0.00784112
-0.00794451
0.00784204
-0.0078719
0.00788654
-0.00808501
0.00752876
-0.00779751
0.008509
-0.00820536
0.0065281
-0.00713763
0.0092868
-0.0104657
0.00778598
-0.00495978
0.00379913
-0.00661062
0.0098378
-0.0133633
0.0134328
-0.0133652
0.0104114
-0.00909335
0.00524565
-0.00467161
0.000146339
-0.243523
-0.243523
1
1.06982
0.998228
0.966476
0.871087
0.901799
0.825926
0.856946
0.851419
0.823513
0.874323
0.864846
0.856301
0.938649
0.904532
0.917624
0.970126
0.976448
0.938976
0.993923
1.01137
0.983335
0.929058
0.92355
0.841298
0.681936
0.44597
0.262913
0.120174
0.0613659
0.0153683
0.0139374
-0.00373347
0.00699562
-0.00603281
0.00629648
-0.0062292
0.00624526
-0.00624167
0.00624242
-0.00624227
0.0062423
-0.0062423
0.0062423
-0.0062423
0.0062423
-0.0062423
0.0062423
-0.0062423
0.0062423
-0.0062423
0.0062423
-0.0062423
0.0062423
-0.0062423
0.0062423
-0.0062423
0.0062423
-0.0062423
0.0062423
-0.0062423
0.0062423
-0.0062423
0.0062423
-0.00624231
0.00624225
-0.0062425
0.00624144
-0.00624539
0.00623292
-0.00626558
0.00619759
-0.00630162
0.00620431
-0.00622679
0.0062321
-0.00646586
0.00590147
-0.00609144
0.00684069
-0.00671618
0.00495295
-0.00525719
0.00736652
-0.00900177
0.00670273
-0.00371541
0.00190974
-0.00414903
0.00722826
-0.0112183
0.0118964
-0.0124522
0.00995107
-0.0090066
0.0053107
-0.00472932
0.00247353
0.245249
0.245249
1
1.08416
1.03773
1.02217
0.931901
0.959418
0.892875
0.907972
0.916181
0.877076
0.926559
0.91976
0.903485
0.982123
0.958091
0.955996
1.0078
1.01355
0.97076
1.00953
1.02939
0.99601
0.936616
0.920622
0.846104
0.690831
0.462093
0.272845
0.129671
0.0634045
0.0191084
0.0127269
-0.00153575
0.00514619
-0.0040713
0.00436812
-0.00429178
0.00431015
-0.004306
0.00430688
-0.0043067
0.00430674
-0.00430673
0.00430673
-0.00430673
0.00430673
-0.00430673
0.00430673
-0.00430673
0.00430673
-0.00430673
0.00430673
-0.00430673
0.00430673
-0.00430673
0.00430673
-0.00430673
0.00430673
-0.00430673
0.00430673
-0.00430673
0.00430673
-0.00430673
0.00430673
-0.00430674
0.00430668
-0.00430696
0.00430577
-0.00431013
0.0042966
-0.00433131
0.00426087
-0.00436491
0.00427356
-0.0042888
0.00428356
-0.00455064
0.00398702
-0.00409462
0.004865
-0.00492266
0.0031177
-0.00311632
0.0051158
-0.00715299
0.00530152
-0.00227437
-0.000104541
-0.00149534
0.0042677
-0.00857435
0.00982166
-0.0109894
0.0089905
-0.00848457
0.00507305
-0.00459734
0.000405853
-0.244091
-0.244091
1
1.09149
1.06597
1.06465
0.982246
1.0046
0.949863
0.9481
0.968863
0.920724
0.966911
0.962609
0.939441
1.01164
0.998978
0.982848
1.03281
1.03829
0.992772
1.01573
1.03883
1.00256
0.941355
0.915764
0.8492
0.697976
0.477507
0.28242
0.139394
0.0654163
0.0230845
0.0114115
0.00083176
0.00315424
-0.00195719
0.00229051
-0.00220409
0.00222504
-0.00222027
0.00222129
-0.00222109
0.00222113
-0.00222112
0.00222112
-0.00222112
0.00222112
-0.00222112
0.00222112
-0.00222112
0.00222112
-0.00222112
0.00222112
-0.00222112
0.00222112
-0.00222112
0.00222112
-0.00222112
0.00222112
-0.00222112
0.00222112
-0.00222112
0.00222112
-0.00222112
0.00222112
-0.00222113
0.00222107
-0.00222139
0.00222005
-0.00222484
0.00221023
-0.00224697
0.00217431
-0.00227776
0.00219292
-0.00220158
0.00218416
-0.00248246
0.00192838
-0.00195198
0.00272527
-0.00296573
0.0011629
-0.000862378
0.00268745
-0.00506498
0.00370979
-0.000756532
-0.00210885
0.00117999
0.00114551
-0.00561267
0.00737187
-0.00912616
0.00764565
-0.00760788
0.00457567
-0.00426759
0.00248955
0.244836
0.244836
1
1.09386
1.08513
1.09539
1.02298
1.03841
0.99722
0.978742
1.01008
0.955456
0.996817
0.994838
0.965775
1.02937
1.02882
1.00065
1.04794
1.05369
1.00792
1.01607
1.04276
1.00563
0.944919
0.910345
0.851182
0.703831
0.492148
0.291772
0.149192
0.0675368
0.0271557
0.0101328
0.00322917
0.00116085
0.000169068
0.000204355
-0.000106756
0.0001306
-0.000125137
0.000126315
-0.000126075
0.000126121
-0.000126113
0.000126114
-0.000126114
0.000126114
-0.000126114
0.000126114
-0.000126114
0.000126114
-0.000126114
0.000126114
-0.000126114
0.000126114
-0.000126114
0.000126114
-0.000126114
0.000126114
-0.000126114
0.000126114
-0.000126114
0.000126114
-0.000126114
0.000126112
-0.000126127
0.000126049
-0.000126411
0.000124928
-0.000130177
0.000114445
-0.000153181
7.85662e-05
-0.000180861
0.000102892
-0.000105937
7.45827e-05
-0.000401745
-0.000134463
0.000194443
0.000563199
-0.000983518
-0.000775579
0.00136019
0.000234289
-0.00288263
0.00205127
0.000723932
-0.00397464
0.00371107
-0.00194863
-0.00251422
0.00470737
-0.00701259
0.00604361
-0.00647305
0.00387669
-0.0038143
0.0002149
-0.244402
-0.244402
1
1.09276
1.09712
1.11594
1.05511
1.06216
1.03544
1.00141
1.04074
0.982326
1.0178
1.01804
0.984183
1.03751
1.04922
1.0116
1.05567
1.0623
1.01842
1.01317
1.04325
1.0068
0.9481
0.905119
0.852346
0.708696
0.505917
0.300998
0.15892
0.0698795
0.0311987
0.00901291
0.0055354
-0.000711896
0.00218591
-0.00176856
0.00187852
-0.00185145
0.0018577
-0.00185634
0.00185662
-0.00185656
0.00185657
-0.00185657
0.00185657
-0.00185657
0.00185657
-0.00185657
0.00185657
-0.00185657
0.00185657
-0.00185657
0.00185657
-0.00185657
0.00185657
-0.00185657
0.00185657
-0.00185657
0.00185657
-0.00185657
0.00185657
-0.00185657
0.00185657
-0.00185657
0.00185656
-0.00185664
0.00185624
-0.00185788
0.00185215
-0.00186903
0.00182834
-0.00190464
0.00180404
-0.0018749
0.00187631
-0.00192328
0.00156997
-0.00208057
0.00222162
-0.00149785
0.000904687
-0.00258159
0.00342658
-0.00210934
-0.000733531
0.000432991
0.0020714
-0.00559674
0.0059583
-0.0048462
0.000557141
0.00197041
-0.00478427
0.00430864
-0.005183
0.00304466
-0.00324541
0.00213624
0.244607
0.244607
1
1.08923
1.10358
1.12783
1.07968
1.07728
1.06513
1.01761
1.06204
1.00237
1.03134
1.03382
0.996323
1.03816
1.0617
1.01755
1.05799
1.06609
1.02586
1.00879
1.0416
1.00696
0.951214
0.900487
0.852854
0.712785
0.51873
0.310158
0.168465
0.072526
0.0351197
0.00814357
0.0076596
-0.00237218
0.0040021
-0.00353673
0.00366033
-0.00362966
0.0036368
-0.00363524
0.00363556
-0.00363549
0.00363551
-0.0036355
0.0036355
-0.0036355
0.0036355
-0.0036355
0.0036355
-0.0036355
0.0036355
-0.0036355
0.0036355
-0.0036355
0.0036355
-0.0036355
0.0036355
-0.0036355
0.0036355
-0.0036355
0.0036355
-0.0036355
0.0036355
-0.00363551
0.00363549
-0.00363559
0.00363513
-0.00363695
0.00363071
-0.00364875
0.00360617
-0.00368387
0.00358549
-0.00364913
0.00365368
-0.00371777
0.00334143
-0.00381941
0.00403704
-0.00336445
0.00260953
-0.0041696
0.00524359
-0.00423993
0.001283
-0.0010646
0.003219
-0.0069053
0.00782213
-0.00741321
0.00346481
-0.00072453
-0.00254853
0.00254601
-0.00383284
0.00214776
-0.00264342
-0.000254167
-0.244561
-0.244561
1
1.08406
1.10593
1.13255
1.09776
1.08531
1.08696
1.02872
1.07533
1.01654
1.03882
1.04364
1.00373
1.0332
1.06759
1.01986
1.05647
1.06649
1.03129
1.00406
1.03861
1.00658
0.954354
0.896648
0.85283
0.716246
0.530537
0.319275
0.177749
0.0755193
0.0388621
0.00757853
0.00954848
-0.00376583
0.00556399
-0.00504628
0.0051849
-0.00515024
0.00515836
-0.00515657
0.00515694
-0.00515687
0.00515688
-0.00515688
0.00515688
-0.00515688
0.00515688
-0.00515688
0.00515688
-0.00515688
0.00515688
-0.00515688
0.00515688
-0.00515688
0.00515688
-0.00515688
0.00515688
-0.00515688
0.00515688
-0.00515688
0.00515688
-0.00515688
0.00515688
-0.00515688
0.00515686
-0.00515698
0.00515646
-0.00515847
0.0051517
-0.00517093
0.00512652
-0.00520532
0.00510964
-0.00516607
0.00517239
-0.00525481
0.00485897
-0.00529808
0.005586
-0.00498058
0.00407871
-0.00549177
0.0067572
-0.00609257
0.00310326
-0.00239461
0.00413524
-0.00787239
0.00925107
-0.009559
0.00610602
-0.00329653
-0.000374474
0.000827138
-0.00249469
0.00124227
-0.00201089
0.00159987
0.244505
0.244505
1
1.07779
1.10533
1.13151
1.11028
1.08778
1.1017
1.0359
1.08206
1.02574
1.04146
1.04877
1.00776
1.02428
1.06805
1.01951
1.05227
1.06448
1.03534
0.999625
1.03481
1.00585
0.95751
0.893672
0.852391
0.719185
0.541331
0.328334
0.186731
0.0788632
0.042407
0.00733307
0.011187
-0.00487699
0.00685627
-0.00628164
0.00643674
-0.00639765
0.00640688
-0.00640483
0.00640526
-0.00640518
0.00640519
-0.00640519
0.00640519
-0.00640519
0.00640519
-0.00640519
0.00640519
-0.00640519
0.00640519
-0.00640519
0.00640519
-0.00640519
0.00640519
-0.00640519
0.00640519
-0.00640519
0.00640519
-0.00640519
0.00640519
-0.00640519
0.00640519
-0.0064052
0.00640517
-0.0064053
0.00640473
-0.00640693
0.00639961
-0.00642002
0.0063739
-0.00645347
0.00636094
-0.00641029
0.00641695
-0.00651862
0.00610717
-0.00650204
0.0068524
-0.00632835
0.00529761
-0.00653851
0.00795328
-0.00764185
0.00470016
-0.00354455
0.00482401
-0.00851101
0.0102421
-0.0112389
0.00841305
-0.00569709
0.00170861
-0.000817885
-0.00120714
0.000362288
-0.00141053
-0.000821459
-0.244619
-0.244619
1
1.07084
1.10274
1.12601
1.11811
1.08614
1.11015
1.04006
1.08366
1.0308
1.04026
1.05024
1.00954
1.0128
1.06406
1.01708
1.0462
1.06069
1.03839
0.995798
1.03053
1.00486
0.960645
0.891553
0.85166
0.72167
0.55114
0.337295
0.195403
0.0825304
0.0457659
0.00739153
0.0125906
-0.00572053
0.00789427
-0.00725791
0.00743105
-0.00738708
0.00739754
-0.0073952
0.0073957
-0.0073956
0.00739562
-0.00739561
0.00739561
-0.00739561
0.00739561
-0.00739561
0.00739561
-0.00739561
0.00739561
-0.00739561
0.00739561
-0.00739561
0.00739561
-0.00739561
0.00739561
-0.00739561
0.00739561
-0.00739561
0.00739561
-0.00739561
0.00739561
-0.00739562
0.00739559
-0.00739573
0.0073951
-0.00739752
0.00738963
-0.00741123
0.00736347
-0.0074435
0.00735454
-0.00739704
0.00740258
-0.00752406
0.00710122
-0.00744741
0.00785109
-0.00742049
0.00628161
-0.00733071
0.0088499
-0.00889443
0.00607612
-0.0045291
0.00531628
-0.00886552
0.0108323
-0.012449
0.0103473
-0.00790038
0.00370171
-0.00239645
2.63577e-05
-0.00048344
-0.000815136
0.00102773
0.24448
0.24448
1
1.06351
1.09888
1.11727
1.12193
1.0817
1.11318
1.04185
1.08148
1.03248
1.03605
1.0488
1.00999
0.999916
1.05646
1.01291
1.03877
1.05549
1.04057
0.992688
1.02601
1.00362
0.96371
0.89024
0.850755
0.723754
0.560013
0.346105
0.203772
0.0864775
0.0489654
0.00772226
0.0137905
-0.00632706
0.00870911
-0.00800593
0.0081988
-0.00814944
0.00816128
-0.00815861
0.00815918
-0.00815906
0.00815908
-0.00815908
0.00815908
-0.00815908
0.00815908
-0.00815908
0.00815908
-0.00815908
0.00815908
-0.00815908
0.00815908
-0.00815908
0.00815908
-0.00815908
0.00815908
-0.00815908
0.00815908
-0.00815908
0.00815908
-0.00815908
0.00815908
-0.00815909
0.00815905
-0.00815922
0.00815851
-0.00816115
0.00815267
-0.00817546
0.0081262
-0.00820634
0.00812132
-0.00815731
0.00816031
-0.0083018
0.00787197
-0.00816606
0.00861292
-0.00828548
0.00706119
-0.00790465
0.00948217
-0.00987435
0.00724866
-0.00537565
0.00565469
-0.00899466
0.0110826
-0.0132135
0.0118876
-0.00988667
0.00561678
-0.00393822
0.00122895
-0.00130859
-0.000255511
-0.00139232
-0.244618
-0.244618
1
1.05606
1.09428
1.10641
1.12232
1.0756
1.11171
1.0417
1.07667
1.03155
1.02947
1.04498
1.00971
0.986605
1.04599
1.00719
1.03029
1.04908
1.04193
0.990291
1.02141
1.00215
0.966647
0.889669
0.849774
0.725492
0.568001
0.354719
0.211844
0.0906639
0.0520286
0.0082965
0.0148147
-0.00672413
0.00932878
-0.00855347
0.00876784
-0.00871255
0.0087259
-0.00872287
0.00872352
-0.00872339
0.00872342
-0.00872341
0.00872341
-0.00872341
0.00872341
-0.00872341
0.00872341
-0.00872341
0.00872341
-0.00872341
0.00872341
-0.00872341
0.00872341
-0.00872341
0.00872341
-0.00872341
0.00872341
-0.00872341
0.00872341
-0.00872341
0.00872341
-0.00872342
0.00872338
-0.00872356
0.00872279
-0.00872566
0.00871658
-0.00874053
0.0086899
-0.00876984
0.00868906
-0.00871898
0.00871803
-0.00887939
0.00844712
-0.00868674
0.00916592
-0.00894876
0.0076631
-0.00829298
0.00988319
-0.0106043
0.00823207
-0.00610597
0.00587462
-0.00895073
0.0110565
-0.0135677
0.0130149
-0.0116232
0.00745222
-0.00547177
0.00243327
-0.00213807
0.000320378
0.000454317
0.244504
0.244504
1
1.04871
1.08923
1.09445
1.11972
1.06869
1.10669
1.03985
1.07012
1.02876
1.02104
1.03913
1.0091
0.973662
1.03328
0.999999
1.02086
1.04157
1.04238
0.988549
1.01685
1.00048
0.96938
0.889787
0.848782
0.726956
0.575141
0.363115
0.219605
0.0950697
0.0549573
0.00910621
0.0156702
-0.00691837
0.00976031
-0.00890732
0.00914507
-0.00908327
0.00909831
-0.00909487
0.00909561
-0.00909546
0.00909549
-0.00909548
0.00909548
-0.00909548
0.00909548
-0.00909548
0.00909548
-0.00909548
0.00909548
-0.00909548
0.00909548
-0.00909548
0.00909548
-0.00909548
0.00909548
-0.00909548
0.00909548
-0.00909548
0.00909548
-0.00909548
0.00909548
-0.00909549
0.00909545
-0.00909565
0.0090948
-0.00909791
0.00908822
-0.00911332
0.00906146
-0.00914085
0.00906459
-0.00908896
0.00908275
-0.00926345
0.00883331
-0.00901718
0.00951739
-0.00941497
0.00809261
-0.00850676
0.0100659
-0.0110878
0.00901998
-0.00671889
0.00598653
-0.00876019
0.0107998
-0.013541
0.0137004
-0.0130483
0.00916983
-0.00699882
0.00365965
-0.00299339
0.000891412
-0.0019827
-0.244571
-0.244571
1
1.04166
1.08386
1.0823
1.11453
1.06162
1.09903
1.03649
1.06245
1.02483
1.01117
1.03144
1.00826
0.961743
1.0189
0.991445