# vtk DataFile Version 2.0
FlowField
ASCII
DATASET STRUCTURED_GRID
DIMENSIONS 100 1 100
POINTS 10000 float
0 0 0
0.01 0 0
0.02 0 0
0.03 0 0
0.04 0 0
0.05 0 0
0.06 0 0
0.07 0 0
0.08 0 0
0.09 0 0
0.1 0 0
0.11 0 0
0.12 0 0
0.13 0 0
0.14 0 0
0.15 0 0
0.16 0 0
0.17 0 0
0.18 0 0
0.19 0 0
0.2 0 0
0.21 0 0
0.22 0 0
0.23 0 0
0.24 0 0
0.25 0 0
0.26 0 0
0.27 0 0
0.28 0 0
0.29 0 0
0.3 0 0
0.31 0 0
0.32 0 0
0.33 0 0
0.34 0 0
0.35 0 0
0.36 0 0
0.37 0 0
0.38 0 0
0.39 0 0
0.4 0 0
0.41 0 0
0.42 0 0
0.43 0 0
0.44 0 0
0.45 0 0
0.46 0 0
0.47 0 0
0.48 0 0
0.49 0 0
0.5 0 0
0.51 0 0
0.52 0 0
0.53 0 0
0.54 0 0
0.55 0 0
0.56 0 0
0.57 0 0
0.58 0 0
0.59 0 0
0.6 0 0
0.61 0 0
0.62 0 0
0.63 0 0
0.64 0 0
0.65 0 0
0.66 0 0
0.67 0 0
0.68 0 0
0.69 0 0
0.7 0 0
0.71 0 0
0.72 0 0
0.73 0 0
0.74 0 0
0.75 0 0
0.76 0 0
0.77 0 0
0.78 0 0
0.79 0 0
0.8 0 0
0.81 0 0
0.82 0 0
0.83 0 0
0.84 0 0
0.85 0 0
0.86 0 0
0.87 0 0
0.88 0 0
0.89 0 0
0.9 0 0
0.91 0 0
0.92 0 0
0.93 0 0
0.94 0 0
0.95 0 0
0.96 0 0
0.97 0 0
0.98 0 0
0.99 0 0
0 0.001 0
0.01 0.001 0
0.02 0.001 0
0.03 0.001 0
0.04 0.001 0
0.05 0.001 0
0.06 0.001 0
0.07 0.001 0
0.08 0.001 0
0.09 0.001 0
0.1 0.001 0
0.11 0.001 0
0.12 0.001 0
0.13 0.001 0
0.14 0.001 0
0.15 0.001 0
0.16 0.001 0
0.17 0.001 0
0.18 0.001 0
0.19 0.001 0
0.2 0.001 0
0.21 0.001 0
0.22 0.001 0
0.23 0.001 0
0.24 0.001 0
0.25 0.001 0
0.26 0.001 0
0.27 0.001 0
0.28 0.001 0
0.29 0.001 0
0.3 0.001 0
0.31 0.001 0
0.32 0.001 0
0.33 0.001 0
0.34 0.001 0
0.35 0.001 0
0.36 0.001 0
0.37 0.001 0
0.38 0.001 0
0.39 0.001 0
0.4 0.001 0
0.41 0.001 0
0.42 0.001 0
0.43 0.001 0
0.44 0.001 0
0.45 0.001 0
0.46 0.001 0
0.47 0.001 0
0.48 0.001 0
0.49 0.001 0
0.5 0.001 0
0.51 0.001 0
0.52 0.001 0
0.53 0.001 0
0.54 0.001 0
0.55 0.001 0
0.56 0.001 0
0.57 0.001 0
0.58 0.001 0
0.59 0.001 0
0.6 0.001 0
0.61 0.001 0
0.62 0.001 0
0.63 0.001 0
0.64 0.001 0
0.65 0.001 0
0.66 0.001 0
0.67 0.001 0
0.68 0.001 0
0.69 0.001 0
0.7 0.001 0
0.71 0.001 0
0.72 0.001 0
0.73 0.001 0
0.74 0.001 0
0.75 0.001 0
0.76 0.001 0
0.77 0.001 0
0.78 0.001 0
0.79 0.001 0
0.8 0.001 0
0.81 0.001 0
0.82 0.001 0
0.83 0.001 0
0.84 0.001 0
0.85 0.001 0
0.86 0.001 0
0.87 0.001 0
0.88 0.001 0
0.89 0.001 0
0.9 0.001 0
0.91 0.001 0
0.92 0.001 0
0.93 0.001 0
0.94 0.001 0
0.95 0.001 0
0.96 0.001 0
0.97 0.001 0
0.98 0.001 0
0.99 0.001 0
0 0.002 0
0.01 0.002 0
0.02 0.002 0
0.03 0.002 0
0.04 0.002 0
0.05 0.002 0
0.06 0.002 0
0.07 0.002 0
0.08 0.002 0
0.09 0.002 0
0.1 0.002 0
0.11 0.002 0
0.12 0.002 0
0.13 0.002 0
0.14 0.002 0
0.15 0.002 0
0.16 0.002 0
0.17 0.002 0
0.18 0.002 0
0.19 0.002 0
0.2 0.002 0
0.21 0.002 0
0.22 0.002 0
0.23 0.002 0
0.24 0.002 0
0.25 0.002 0
0.26 0.002 0
0.27 0.002 0
0.28 0.002 0
0.29 0.002 0
0.3 0.002 0
0.31 0.002 0
0.32 0.002 0
0.33 0.002 0
0.34 0.002 0
0.35 0.002 0
0.36 0.002 0
0.37 0.002 0
0.38 0.002 0
0.39 0.002 0
0.4 0.002 0
0.41 0.002 0
0.42 0.002 0
0.43 0.002 0
0.44 0.002 0
0.45 0.002 0
0.46 0.002 0
0.47 0.002 0
0.48 0.002 0
0.49 0.002 0
0.5 0.002 0
0.51 0.002 0
0.52 0.002 0
0.53 0.002 0
0.54 0.002 0
0.55 0.002 0
0.56 0.002 0
0.57 0.002 0
0.58 0.002 0
0.59 0.002 0
0.6 0.002 0
0.61 0.002 0
0.62 0.002 0
0.63 0.002 0
0.64 0.002 0
0.65 0.002 0
0.66 0.002 0
0.67 0.002 0
0.68 0.002 0
0.69 0.002 0
0.7 0.002 0
0.71 0.002 0
0.72 0.002 0
0.73 0.002 0
0.74 0.002 0
0.75 0.002 0
0.76 0.002 0
0.77 0.002 0
0.78 0.002 0
0.79 0.002 0
0.8 0.002 0
0.81 0.002 0
0.82 0.002 0
0.83 0.002 0
0.84 0.002 0
0.85 0.002 0
0.86 0.002 0
0.87 0.002 0
0.88 0.002 0
0.89 0.002 0
0.9 0.002 0
0.91 0.002 0
0.92 0.002 0
0.93 0.002 0
0.94 0.002 0
0.95 0.002 0
0.96 0.002 0
0.97 0.002 0
0.98 0.002 0
0.99 0.002 0
0 0.003 0
0.01 0.003 0
0.02 0.003 0
0.03 0.003 0
0.04 0.003 0
0.05 0.003 0
0.06 0.003 0
0.07 0.003 0
0.08 0.003 0
0.09 0.003 0
0.1 0.003 0
0.11 0.003 0
0.12 0.003 0
0.13 0.003 0
0.14 0.003 0
0.15 0.003 0
0.16 0.003 0
0.17 0.003 0
0.18 0.003 0
0.19 0.003 0
0.2 0.003 0
0.21 0.003 0
0.22 0.003 0
0.23 0.003 0
0.24 0.003 0
0.25 0.003 0
0.26 0.003 0
0.27 0.003 0
0.28 0.003 0
0.29 0.003 0
0.3 0.003 0
0.31 0.003 0
0.32 0.003 0
0.33 0.003 0
0.34 0.003 0
0.35 0.003 0
0.36 0.003 0
0.37 0.003 0
0.38 0.003 0
0.39 0.003 0
0.4 0.003 0
0.41 0.003 0
0.42 0.003 0
0.43 0.003 0
0.44 0.003 0
0.45 0.003 0
0.46 0.003 0
0.47 0.003 0
0.48 0.003 0
0.49 0.003 0
0.5 0.003 0
0.51 0.003 0
0.52 0.003 0
0.53 0.003 0
0.54 0.003 0
0.55 0.003 0
0.56 0.003 0
0.57 0.003 0
0.58 0.003 0
0.59 0.003 0
0.6 0.003 0
0.61 0.003 0
0.62 0.003 0
0.63 0.003 0
0.64 0.003 0
0.65 0.003 0
0.66 0.003 0
0.67 0.003 0
0.68 0.003 0
0.69 0.003 0
0.7 0.003 0
0.71 0.003 0
0.72 0.003 0
0.73 0.003 0
0.74 0.003 0
0.75 0.003 0
0.76 0.003 0
0.77 0.003 0
0.78 0.003 0
0.79 0.003 0
0.8 0.003 0
0.81 0.003 0
0.82 0.003 0
0.83 0.003 0
0.84 0.003 0
0.85 0.003 0
0.86 0.003 0
0.87 0.003 0
0.88 0.003 0
0.89 0.003 0
0.9 0.003 0
0.91 0.003 0
0.92 0.003 0
0.93 0.003 0
0.94 0.003 0
0.95 0.003 0
0.96 0.003 0
0.97 0.003 0
0.98 0.003 0
0.99 0.003 0
0 0.004 0
0.01 0.004 0
0.02 0.004 0
0.03 0.004 0
0.04 0.004 0
0.05 0.004 0
0.06 0.004 0
0.07 0.004 0
0.08 0.004 0
0.09 0.004 0
0.1 0.004 0
0.11 0.004 0
0.12 0.004 0
0.13 0.004 0
0.14 0.004 0
0.15 0.004 0
0.16 0.004 0
0.17 0.004 0
0.18 0.004 0
0.19 0.004 0
0.2 0.004 0
0.21 0.004 0
0.22 0.004 0
0.23 0.004 0
0.24 0.004 0
0.25 0.004 0
0.26 0.004 0
0.27 0.004 0
0.28 0.004 0
0.29 0.004 0
0.3 0.004 0
0.31 0.004 0
0.32 0.004 0
0.33 0.004 0
0.34 0.004 0
0.35 0.004 0
0.36 0.004 0
0.37 0.004 0
0.38 0.004 0
0.39 0.004 0
0.4 0.004 0
0.41 0.004 0
0.42 0.004 0
0.43 0.004 0
0.44 0.004 0
0.45 0.004 0
0.46 0.004 0
0.47 0.004 0
0.48 0.004 0
0.49 0.004 0
0.5 0.004 0
0.51 0.004 0
0.52 0.004 0
0.53 0.004 0
0.54 0.004 0
0.55 0.004 0
0.56 0.004 0
0.57 0.004 0
0.58 0.004 0
0.59 0.004 0
0.6 0.004 0
0.61 0.004 0
0.62 0.004 0
0.63 0.004 0
0.64 0.004 0
0.65 0.004 0
0.66 0.004 0
0.67 0.004 0
0.68 0.004 0
0.69 0.004 0
0.7 0.004 0
0.71 0.004 0
0.72 0.004 0
0.73 0.004 0
0.74 0.004 0
0.75 0.004 0
0.76 0.004 0
0.77 0.004 0
0.78 0.004 0
0.79 0.004 0
0.8 0.004 0
0.81 0.004 0
0.82 0.004 0
0.83 0.004 0
0.84 0.004 0
0.85 0.004 0
0.86 0.004 0
0.87 0.004 0
0.88 0.004 0
0.89 0.004 0
0.9 0.004 0
0.91 0.004 0
0.92 0.004 0
0.93 0.004 0
0.94 0.004 0
0.95 0.004 0
0.96 0.004 0
0.97 0.004 0
0.98 0.004 0
0.99 0.004 0
0 0.005 0
0.01 0.005 0
0.02 0.005 0
0.03 0.005 0
0.04 0.005 0
0.05 0.005 0
0.06 0.005 0
0.07 0.005 0
0.08 0.005 0
0.09 0.005 0
0.1 0.005 0
0.11 0.005 0
0.12 0.005 0
0.13 0.005 0
0.14 0.005 0
0.15 0.005 0
0.16 0.005 0
0.17 0.005 0
0.18 0.005 0
0.19 0.005 0
0.2 0.005 0
0.21 0.005 0
0.22 0.005 0
0.23 0.005 0
0.24 0.005 0
0.25 0.005 0
0.26 0.005 0
0.27 0.005 0
0.28 0.005 0
0.29 0.005 0
0.3 0.005 0
0.31 0.005 0
0.32 0.005 0
0.33 0.005 0
0.34 0.005 0
0.35 0.005 0
0.36 0.005 0
0.37 0.005 0
0.38 0.005 0
0.39 0.005 0
0.4 0.005 0
0.41 0.005 0
0.42 0.005 0
0.43 0.005 0
0.44 0.005 0
0.45 0.005 0
0.46 0.005 0
0.47 0.005 0
0.48 0.005 0
0.49 0.005 0
0.5 0.005 0
0.51 0.005 0
0.52 0.005 0
0.53 0.005 0
0.54 0.005 0
0.55 0.005 0
0.56 0.005 0
0.57 0.005 0
0.58 0.005 0
0.59 0.005 0
0.6 0.005 0
0.61 0.005 0
0.62 0.005 0
0.63 0.005 0
0.64 0.005 0
0.65 0.005 0
0.66 0.005 0
0.67 0.005 0
0.68 0.005 0
0.69 0.005 0
0.7 0.005 0
0.71 0.005 0
0.72 0.005 0
0.73 0.005 0
0.74 0.005 0
0.75 0.005 0
0.76 0.005 0
0.77 0.005 0
0.78 0.005 0
0.79 0.005 0
0.8 0.005 0
0.81 0.005 0
0.82 0.005 0
0.83 0.005 0
0.84 0.005 0
0.85 0.005 0
0.86 0.005 0
0.87 0.005 0
0.88 0.005 0
0.89 0.005 0
0.9 0.005 0
0.91 0.005 0
0.92 0.005 0
0.93 0.005 0
0.94 0.005 0
0.95 0.005 0
0.96 0.005 0
0.97 0.005 0
0.98 0.005 0
0.99 0.005 0
0 0.006 0
0.01 0.006 0
0.02 0.006 0
0.03 0.006 0
0.04 0.006 0
0.05 0.006 0
0.06 0.006 0
0.07 0.006 0
0.08 0.006 0
0.09 0.006 0
0.1 0.006 0
0.11 0.006 0
0.12 0.006 0
0.13 0.006 0
0.14 0.006 0
0.15 0.006 0
0.16 0.006 0
0.17 0.006 0
0.18 0.006 0
0.19 0.006 0
0.2 0.006 0
0.21 0.006 0
0.22 0.006 0
0.23 0.006 0
0.24 0.006 0
0.25 0.006 0
0.26 0.006 0
0.27 0.006 0
0.28 0.006 0
0.29 0.006 0
0.3 0.006 0
0.31 0.006 0
0.32 0.006 0
0.33 0.006 0
0.34 0.006 0
0.35 0.006 0
0.36 0.006 0
0.37 0.006 0
0.38 0.006 0
0.39 0.006 0
0.4 0.006 0
0.41 0.006 0
0.42 0.006 0
0.43 0.006 0
0.44 0.006 0
0.45 0.006 0
0.46 0.006 0
0.47 0.006 0
0.48 0.006 0
0.49 0.006 0
0.5 0.006 0
0.51 0.006 0
0.52 0.006 0
0.53 0.006 0
0.54 0.006 0
0.55 0.006 0
0.56 0.006 0
0.57 0.006 0
0.58 0.006 0
0.59 0.006 0
0.6 0.006 0
0.61 0.006 0
0.62 0.006 0
0.63 0.006 0
0.64 0.006 0
0.65 0.006 0
0.66 0.006 0
0.67 0.006 0
0.68 0.006 0
0.69 0.006 0
0.7 0.006 0
0.71 0.006 0
0.72 0.006 0
0.73 0.006 0
0.74 0.006 0
0.75 0.006 0
0.76 0.006 0
0.77 0.006 0
0.78 0.006 0
0.79 0.006 0
0.8 0.006 0
0.81 0.006 0
0.82 0.006 0
0.83 0.006 0
0.84 0.006 0
0.85 0.006 0
0.86 0.006 0
0.87 0.006 0
0.88 0.006 0
0.89 0.006 0
0.9 0.006 0
0.91 0.006 0
0.92 0.006 0
0.93 0.006 0
0.94 0.006 0
0.95 0.006 0
0.96 0.006 0
0.97 0.006 0
0.98 0.006 0
0.99 0.006 0
0 0.007 0
0.01 0.007 0
0.02 0.007 0
0.03 0.007 0
0.04 0.007 0
0.05 0.007 0
0.06 0.007 0
0.07 0.007 0
0.08 0.007 0
0.09 0.007 0
0.1 0.007 0
0.11 0.007 0
0.12 0.007 0
0.13 0.007 0
0.14 0.007 0
0.15 0.007 0
0.16 0.007 0
0.17 0.007 0
0.18 0.007 0
0.19 0.007 0
0.2 0.007 0
0.21 0.007 0
0.22 0.007 0
0.23 0.007 0
0.24 0.007 0
0.25 0.007 0
0.26 0.007 0
0.27 0.007 0
0.28 0.007 0
0.29 0.007 0
0.3 0.007 0
0.31 0.007 0
0.32 0.007 0
0.33 0.007 0
0.34 0.007 0
0.35 0.007 0
0.36 0.007 0
0.37 0.007 0
0.38 0.007 0
0.39 0.007 0
0.4 0.007 0
0.41 0.007 0
0.42 0.007 0
0.43 0.007 0
0.44 0.007 0
0.45 0.007 0
0.46 0.007 0
0.47 0.007 0
0.48 0.007 0
0.49 0.007 0
0.5 0.007 0
0.51 0.007 0
0.52 0.007 0
0.53 0.007 0
0.54 0.007 0
0.55 0.007 0
0.56 0.007 0
0.57 0.007 0
0.58 0.007 0
0.59 0.007 0
0.6 0.007 0
0.61 0.007 0
0.62 0.007 0
0.63 0.007 0
0.64 0.007 0
0.65 0.007 0
0.66 0.007 0
0.67 0.007 0
0.68 0.007 0
0.69 0.007 0
0.7 0.007 0
0.71 0.007 0
0.72 0.007 0
0.73 0.007 0
0.74 0.007 0
0.75 0.007 0
0.76 0.007 0
0.77 0.007 0
0.78 0.007 0
0.79 0.007 0
0.8 0.007 0
0.81 0.007 0
0.82 0.007 0
0.83 0.007 0
0.84 0.007 0
0.85 0.007 0
0.86 0.007 0
0.87 0.007 0
0.88 0.007 0
0.89 0.007 0
0.9 0.007 0
0.91 0.007 0
0.92 0.007 0
0.93 0.007 0
0.94 0.007 0
0.95 0.007 0
0.96 0.007 0
0.97 0.007 0
0.98 0.007 0
[...]
POINT_DATA 10000

SCALARS vel_X float 1
LOOKUP_TABLE default
0
0
0
0
0
0
0
0
0
0
0
0
0
0
0
0
0
0
0
0
0
0
0
0
0
0
0
0
0
0
0
0
0
0
0
0
0
0
0
0
0
0
0
0
0
0
0
0
0
0
0
0
0
0
0
0
0
0
0
0
0
0
0
0
0
0
0
0
0
0
0
0
0
0
0
0
0
0
0
0
0
0
0
0
0
0
0
0
0
0
0
0
0
0
0
0
0
0
0
0
1
0.314787
0.223902
0.100083
0.175287
0.0411091
0.147427
0.0418315
0.099407
0.0605576
0.066115
0.063607
0.0514047
0.0438827
0.0946434
-0.0317962
0.105613
0.0495608
0.0116325
0.0189356
0.108257
0.00973138
0.0749373
0.0382834
0.0521715
0.014635
0.145022
0.125277
0.167952
0.139785
0.246158
0.214058
0.260278
0.220906
0.31463
0.281491
0.302676
0.178331
0.156317
0.045077
0.0622067
-0.0106264
0.0332863
-0.0241003
0.0275556
-0.0263426
0.0267413
-0.026618
0.0266539
-0.026644
0.0266466
-0.026646
0.0266461
-0.0266461
0.0266461
-0.0266462
0.0266456
-0.0266477
0.026642
-0.0266553
0.0266297
-0.0266673
0.0266322
-0.0266369
0.0266679
-0.0266762
0.0265133
-0.0267443
0.0268583
-0.0262916
0.0263287
-0.0275485
0.0270463
-0.0250499
0.0256275
-0.028937
0.0294179
-0.0250612
0.0207897
-0.0246607
0.0322096
-0.0341539
0.0293932
-0.0235595
0.0176966
-0.0146567
0.0178995
-0.0285438
0.0401068
-0.0474505
0.0474438
-0.0426675
0.0347237
-0.0269483
0.0192793
-0.0135214
0.00782669
-0.00753695
-0.241824
-0.241824
1
0.55438
0.403903
0.224498
0.304484
0.123036
0.25798
0.108519
0.190995
0.125405
0.139971
0.129228
0.111989
0.105505
0.163748
0.00114986
0.188462
0.100812
0.0588027
0.0759003
0.190343
0.0604205
0.155055
0.103646
0.129596
0.0968492
0.284343
0.260576
0.326615
0.301121
0.451254
0.407797
0.47221
0.423026
0.546045
0.483737
0.484888
0.28942
0.238377
0.0746956
0.0903652
-0.0116359
0.0460158
-0.0321487
0.0373447
-0.0355269
0.0361228
-0.035939
0.0359925
-0.0359778
0.0359816
-0.0359807
0.0359809
-0.0359809
0.0359808
-0.0359811
0.0359801
-0.0359832
0.0359746
-0.0359949
0.0359553
-0.0360152
0.0359551
-0.0359735
0.0360102
-0.036021
0.0357875
-0.0361477
0.0362497
-0.035454
0.0356087
-0.037287
0.0363591
-0.0337202
0.0348527
-0.0393174
0.0394048
-0.0333453
0.0281328
-0.034194
0.0440068
-0.045624
0.0385507
-0.0310013
0.0237995
-0.0209145
0.0260014
-0.0402831
0.0546189
-0.0632131
0.0620113
-0.0552186
0.0443447
-0.0343122
0.0242033
-0.0171076
0.00961185
-0.00549046
0.362024
0.362024
1
0.726092
0.556428
0.34954
0.411754
0.224055
0.343643
0.196703
0.267914
0.202605
0.21123
0.201772
0.178453
0.171701
0.232009
0.0669943
0.24922
0.172641
0.125701
0.14498
0.262975
0.140811
0.234532
0.19253
0.222879
0.205367
0.404039
0.397168
0.469361
0.457184
0.611984
0.576447
0.637139
0.588795
0.698835
0.619995
0.586998
0.361868
0.278982
0.0992004
0.0996961
-0.00494767
0.0463219
-0.0296272
0.0358902
-0.0336963
0.0344168
-0.0341942
0.0342591
-0.0342412
0.0342459
-0.0342448
0.034245
-0.034245
0.0342449
-0.0342452
0.0342441
-0.0342478
0.0342375
-0.0342618
0.0342143
-0.0342866
0.0342118
-0.0342417
0.0342725
-0.0342953
0.0340242
-0.0344366
0.034531
-0.0336804
0.0338342
-0.0356507
0.0346471
-0.0318809
0.0330122
-0.0376848
0.0378486
-0.03174
0.026088
-0.0321467
0.0421836
-0.0442149
0.0371471
-0.0297525
0.0223876
-0.0191985
0.02323
-0.0368808
0.0511212
-0.0608806
0.0609156
-0.0555865
0.0452882
-0.0358059
0.0253845
-0.0183492
0.010164
-0.00842505
-0.316406
-0.316406
1
0.8446
0.686407
0.465276
0.509073
0.327866
0.418778
0.292759
0.336683
0.287226
0.278884
0.279914
0.247607
0.238746
0.305654
0.144707
0.300519
0.259782
0.201085
0.216775
0.334636
0.234679
0.313608
0.293231
0.320694
0.31474
0.50422
0.524116
0.592001
0.592279
0.734448
0.714684
0.75966
0.711945
0.791547
0.706706
0.642132
0.41103
0.299577
0.120451
0.10112
0.00479072
0.0416403
-0.0228302
0.0299175
-0.0274242
0.0282468
-0.0279916
0.0280663
-0.0280456
0.0280511
-0.0280497
0.02805
-0.02805
0.0280499
-0.0280503
0.0280489
-0.0280531
0.0280416
-0.0280686
0.0280163
-0.0280954
0.0280135
-0.0280494
0.0280716
-0.0281144
0.0278143
-0.0282356
0.0283557
-0.0275162
0.0275573
-0.0294221
0.0286019
-0.025813
0.0265316
-0.0311538
0.0319056
-0.0264078
0.0200464
-0.0248572
0.0347298
-0.0381449
0.0321623
-0.02531
0.0177696
-0.013541
0.0150259
-0.0264866
0.0401589
-0.0518663
0.0547837
-0.052637
0.0443884
-0.0364058
0.0262827
-0.0195295
0.0108811
-0.00584204
0.335408
0.335408
1
0.924886
0.794151
0.570458
0.59805
0.428569
0.489041
0.388272
0.401949
0.373729
0.343341
0.360753
0.316895
0.305892
0.381342
0.226556
0.348429
0.352532
0.278523
0.289058
0.404434
0.331317
0.390221
0.395266
0.413179
0.414334
0.585354
0.63453
0.691412
0.70204
0.823923
0.82213
0.844991
0.797543
0.842248
0.760561
0.670629
0.447083
0.310609
0.139987
0.0992668
0.0158205
0.0349525
-0.0142581
0.0221032
-0.0193269
0.0202484
-0.0199608
0.0200455
-0.0200219
0.0200282
-0.0200266
0.020027
-0.0200269
0.0200268
-0.0200272
0.0200257
-0.0200304
0.0200178
-0.0200469
0.0199912
-0.020074
0.0199899
-0.0200271
0.0200414
-0.020108
0.0197809
-0.0201897
0.0203614
-0.0195522
0.0194195
-0.0213169
0.0208071
-0.0179898
0.018114
-0.0226441
0.0242168
-0.0195271
0.0122865
-0.0153757
0.0250801
-0.0303117
0.025711
-0.0193368
0.0115623
-0.00617668
0.00486761
-0.0137153
0.0265547
-0.0401974
0.0463437
-0.0478465
0.0422007
-0.0361283
0.0266706
-0.0203719
0.0114578
-0.00905257
-0.325305
-0.325305
1
0.978967
0.880094
0.666077
0.677134
0.524965
0.554752
0.480021
0.464475
0.458969
0.404199
0.44146
0.384575
0.372208
0.454072
0.310649
0.393127
0.443466
0.354404
0.360826
0.468236
0.424699
0.460711
0.491604
0.494214
0.501162
0.647193
0.725605
0.766687
0.787938
0.884718
0.902229
0.899488
0.855285
0.865123
0.79486
0.683754
0.476601
0.316475
0.159335
0.0954866
0.0280671
0.0268569
-0.00430964
0.0129173
-0.00985064
0.0108752
-0.0105535
0.0106488
-0.0106221
0.0106292
-0.0106274
0.0106278
-0.0106278
0.0106277
-0.0106281
0.0106265
-0.0106316
0.0106179
-0.010649
0.0105907
-0.0106753
0.0105921
-0.0106272
0.0106351
-0.0107265
0.0103742
-0.0107592
0.0109955
-0.0102239
0.00989537
-0.011814
0.0116583
-0.00881964
0.00830946
-0.0127089
0.0151165
-0.0113189
0.00327813
-0.00452236
0.0139449
-0.0209937
0.0178231
-0.0118805
0.00399128
0.00222149
-0.00599963
-7.67356e-05
0.0114984
-0.0263426
0.0353028
-0.0403885
0.037653
-0.033901
0.0256206
-0.0201701
0.0114518
-0.00622438
0.332626
0.332626
1
1.01546
0.945978
0.752748
0.745318
0.61647
0.614996
0.566913
0.523153
0.541469
0.460542
0.519549
0.449574
0.4362
0.520171
0.395962
0.433063
0.527888
0.426414
0.43065
0.522671
0.511136
0.521948
0.578236
0.561373
0.575005
0.690193
0.797165
0.819308
0.853307
0.921405
0.960006
0.930341
0.894501
0.870569
0.818357
0.687812
0.503157
0.319184
0.179303
0.090267
0.0415952
0.0175074
0.00694266
0.00246084
0.000913037
0.000221936
0.000136817
-2.98142e-05
5.99778e-05
-5.19116e-05
5.3959e-05
-5.34703e-05
5.35513e-05
-5.36676e-05
5.31327e-05
-5.49784e-05
4.93957e-05
-6.4101e-05
3.11737e-05
-9.16882e-05
6.20825e-06
-8.69059e-05
5.56189e-05
-5.33019e-05
-6.23046e-05
-0.000311545
-4.18657e-05
0.000346163
0.000379547
-0.000904989
-0.00100974
0.0012149
0.00160391
-0.00272863
-0.00146038
0.00461056
-0.00179376
-0.00680663
0.00742121
0.00144589
-0.0101155
0.00842022
-0.00295576
-0.00486013
0.0114317
-0.0171627
0.0139301
-0.00465842
-0.0103423
0.0213595
-0.0297202
0.030092
-0.029085
0.0225826
-0.0185094
0.0105238
-0.00873096
-0.326259
-0.326259
1
1.04023
0.994452
0.830473
0.802808
0.702
0.669287
0.648239
0.576691
0.620288
0.511665
0.592781
0.511301
0.49633
0.577533
0.480862
0.467365
0.602811
0.492915
0.496891
0.566309
0.588073
0.572375
0.653215
0.614806
0.63641
0.716171
0.850421
0.852421
0.901589
0.93911
1.00048
0.944606
0.922116
0.865954
0.835938
0.686635
0.528162
0.32006
0.199854
0.0842007
0.0560409
0.00735676
0.0190797
-0.00883488
0.0125372
-0.0112831
0.0116822
-0.0115623
0.0115963
-0.0115872
0.0115895
-0.011589
0.0115891
-0.0115892
0.0115886
-0.0115906
0.0115845
-0.0116003
0.0115656
-0.0116281
0.0115424
-0.0116195
0.0115929
-0.011596
0.0114569
-0.0118479
0.0115325
-0.0111624
0.0118306
-0.012545
0.0106701
-0.0101115
0.0128471
-0.0145467
0.0106714
-0.00691028
0.00865124
-0.0175039
0.019952
-0.0119945
0.001965
-0.00210018
0.00699253
-0.0145926
0.0210944
-0.0281949
0.0277216
-0.021228
0.00714764
0.00500078
-0.0161193
0.0196081
-0.0216541
0.0174725
-0.0153033
0.00864501
-0.00495352
0.332001
0.332001
1
1.05717
1.02849
0.898991
0.850614
0.780205
0.717684
0.723275
0.624275
0.69445
0.557495
0.659087
0.56952
0.551423
0.625161
0.563225
0.496398
0.666233
0.552814
0.558137
0.599458
0.653751
0.612003
0.715826
0.656132
0.686167
0.728103
0.887187
0.869963
0.935784
0.943096
1.02782
0.948387
0.942467
0.856396
0.849858
0.682822
0.551715
0.320289
0.220357
0.0781415
0.0706378
-0.0027951
0.031315
-0.0201781
0.0242324
-0.0228494
0.0232924
-0.0231586
0.0231968
-0.0231864
0.0231891
-0.0231884
0.0231886
-0.0231887
0.023188
-0.0231903
0.0231837
-0.0232006
0.0231641
-0.0232282
0.0231429
-0.0232159
0.0231939
-0.0232031
0.0230413
-0.0234444
0.0231729
-0.0227423
0.0233392
-0.0242305
0.0224356
-0.0215378
0.0241199
-0.0263465
0.0228876
-0.0186613
0.0192514
-0.0280335
0.0322465
-0.0255614
0.0144611
-0.0129388
0.0171534
-0.0244819
0.0305956
-0.0384522
0.0404319
-0.0370925
0.0248975
-0.0126399
-0.000494959
0.00684395
-0.0120264
0.0105381
-0.0106962
0.00583376
-0.0064725
-0.32703
-0.32703
1
1.06875
1.05102
0.958041
0.890095
0.849898
0.760504
0.791385
0.665651
0.7628
0.598657
0.716602
0.62424
0.600801
0.662834
0.640811
0.52149
0.716876
0.605557
0.613364
0.623612
0.707145
0.641957
0.766029
0.687674
0.725208
0.729589
0.909418
0.875986
0.958313
0.938239
1.04509
0.946494
0.957842
0.845426
0.860818
0.678303
0.573248
0.321025
0.239873
0.0730995
0.0844026
-0.0119538
0.0426599
-0.0305773
0.0350084
-0.0334862
0.0339772
-0.0338279
0.0338708
-0.0338591
0.0338621
-0.0338614
0.0338615
-0.0338617
0.0338609
-0.0338634
0.0338562
-0.0338742
0.033836
-0.0339017
0.0338171
-0.0338855
0.033868
-0.0338842
0.0337004
-0.0341103
0.0338877
-0.033404
0.0339156
-0.0349687
0.0332941
-0.032077
0.0344375
-0.0371357
0.0341804
-0.0296428
0.029047
-0.0374417
0.0432903
-0.0382106
0.02636
-0.0231007
0.0265233
-0.0336019
0.0391418
-0.0471524
0.0510615
-0.0509431
0.0414006
-0.0300799
0.0158685
-0.00720292
-0.000922245
0.00226294
-0.00499999
0.0023154
-0.00180574
0.330975
0.330975
1
1.0765
1.06481
1.00747
0.922691
0.910275
0.798117
0.852125
0.701065
0.824049
0.636337
0.763785
0.675592
0.64425
0.690954
0.711504
0.544486
0.754155
0.651071
0.661884
0.640947
0.747907
0.663968
0.804139
0.711983
0.754552
0.72433
0.918977
0.874237
0.971007
0.928663
1.05427
0.942472
0.969169
0.835482
0.868716
0.674598
0.591929
0.32335
0.257383
0.0701035
0.0963072
-0.0190897
0.0520872
-0.0390034
0.0438373
-0.0421651
0.0427082
-0.0425419
0.04259
-0.0425768
0.0425802
-0.0425794
0.0425796
-0.0425797
0.0425789
-0.0425816
0.0425739
-0.042593
0.0425531
-0.0426201
0.0425367
-0.0426002
0.0425867
-0.042611
0.0424059
-0.0428176
0.042648
-0.0421199
0.0425331
-0.0437304
0.042213
-0.0407033
0.042781
-0.0458868
0.0435008
-0.038811
0.0370426
-0.0447496
0.0520355
-0.0488451
0.036605
-0.0315655
0.0340613
-0.0409567
0.0458774
-0.0535091
0.0586641
-0.0615219
0.0551326
-0.0457233
0.0314985
-0.0213131
0.0107221
-0.00668626
0.00133517
-0.00169188
-0.00263244
-0.32829
-0.32829
1
1.08127
1.07232
1.04728
0.949757
0.960996
0.83087
0.905243
0.731189
0.876856
0.672054
0.799565
0.723686
0.68194
0.710452
0.773407
0.567355
0.77819
0.689635
0.703255
0.653905
0.776275
0.679965
0.830665
0.731512
0.775244
0.71574
0.917551
0.867908
0.975178
0.917581
1.0565
0.938787
0.976601
0.828238
0.873138
0.672905
0.606925
0.328203
0.271945
0.0700755
0.105418
-0.0232724
0.0586671
-0.0445253
0.0497891
-0.0479555
0.048555
-0.0483703
0.0484241
-0.0484093
0.0484131
-0.0484122
0.0484123
-0.0484125
0.0484116
-0.0484146
0.0484063
-0.0484266
0.048385
-0.0484531
0.0483712
-0.0484298
0.0484195
-0.0484531
0.0482276
-0.0486361
0.0485224
-0.0479598
0.0482631
-0.0495841
0.048257
-0.0464882
0.0482304
-0.0516714
0.0498971
-0.0452158
0.0423375
-0.049082
0.0575393
-0.0564615
0.044234
-0.0374203
0.0388221
-0.0456085
0.0499991
-0.0568497
0.0624917
-0.067801
0.0647487
-0.0580484
0.044892
-0.0341636
0.0218364
-0.0155122
0.00775351
-0.00579635
0.00242347
0.329554
0.329554
1
1.08354
1.07568
1.07769
0.972454
1.00217
0.859091
0.950621
0.757054
0.919938
0.707389
0.823491
0.768478
0.71434
0.722679
0.824913
0.591873
0.789796
0.721729
0.73721
0.664861
0.792987
0.691784
0.846268
0.748373
0.788327
0.706686
0.906674
0.859506
0.971766
0.90727
1.05245
0.937019
0.979983
0.824769
0.873669
0.674093
0.617578
0.336287
0.282827
0.0737178
0.111018
-0.0237884
0.0616858
-0.0464282
0.0521498
-0.0501427
0.0508036
-0.0505987
0.0506587
-0.050642
0.0506464
-0.0506453
0.0506455
-0.0506457
0.0506447
-0.0506479
0.050639
-0.0506605
0.0506174
-0.0506863
0.0506062
-0.0506598
0.0506519
-0.0506961
0.0504514
-0.0508516
0.0507956
-0.0502093
0.0503936
-0.0518153
0.0507062
-0.0487183
0.0500817
-0.0537795
0.0526362
-0.0481193
0.0442398
-0.0497836
0.0590867
-0.0602729
0.0484951
-0.039974
0.0400788
-0.0468003
0.0508642
-0.0567104
0.062099
-0.0691156
0.0692443
-0.0657806
0.0546774
-0.0444638
0.0313211
-0.0233613
0.0136421
-0.0096607
0.00163275
-0.329773
-0.329773
1
1.08356
1.07658
1.09917
0.99167
1.03429
0.88311
0.98821
0.77996
0.952198
0.743725
0.835832
0.809667
0.742136
0.729265
0.864792
0.619381
0.79042
0.747888
0.763642
0.675847
0.799216
0.700965
0.851767
0.764157
0.794859
0.699332
0.887812
0.85079
0.961519
0.899117
1.04257
0.93801
0.97917
0.825623
0.870101
0.67866
0.623534
0.34798
0.289613
0.081413
0.112704
-0.0202418
0.0607467
-0.0443146
0.0505227
-0.0483298
0.0490568
-0.0488299
0.0488968
-0.0488781
0.0488831
-0.0488819
0.0488821
-0.0488823
0.0488812
-0.0488847
0.0488751
-0.0488977
0.0488532
-0.0489227
0.0488448
-0.0488934
0.0488871
-0.0489428
0.0486804
-0.0490676
0.0490698
-0.0484714
0.0485297
-0.050027
0.0491584
-0.0469963
0.0479478
-0.0518203
0.0513053
-0.0470976
0.0423662
-0.0465185
0.0562942
-0.0598124
0.0489441
-0.0388556
0.0374324
-0.0440683
0.0480864
-0.0529102
0.0574144
-0.0652598
0.0680877
-0.0680523
0.0597804
-0.0511063
0.0381722
-0.0294185
0.0183975
-0.0128447
0.00631188
0.328122
0.328122
1
1.08151
1.07631
1.11251
1.00798
1.0582
0.903286
1.01799
0.801336
0.972876
0.782001
0.83763
0.846658
0.766145
0.731963
0.89228
0.650595
0.782055
0.768592
0.782633
0.688349
0.796526
0.708636
0.848172
0.779826
0.795944
0.695077
0.862456
0.842775
0.945184
0.893711
1.02739
0.941963
0.974244
0.830843
0.862554
0.686689
0.624823
0.363267
0.292279
0.0931516
0.110465
-0.0126282
0.055844
-0.0381779
0.044902
-0.0425102
0.0433087
-0.0430579
0.0431323
-0.0431114
0.043117
-0.0431156
0.0431158
-0.0431161
0.0431149
-0.0431187
0.0431084
-0.0431322
0.0430863
-0.0431562
0.0430808
-0.0431244
0.0431187
-0.0431869
0.0429085
-0.0432781
0.0433379
-0.0427393
0.0426675
-0.0442135
0.0436022
-0.041315
0.0418315
-0.0457962
0.0458862
-0.0421149
0.0367148
-0.0393417
0.0491836
-0.0550092
0.0455159
-0.0340847
0.0308916
-0.0373301
0.0416104
-0.0455985
0.0487747
-0.0565389
0.0613114
-0.0645322
0.0595716
-0.053313
0.041609
-0.0330081
0.0214985
-0.0150504
0.00476518
-0.331039
-0.331039
1
1.07761
1.07567
1.11877
1.02164
1.07495
0.920022
1.03996
0.822585
0.981697
0.822528
0.830678
0.878585
0.787229
0.732493
0.907179
0.685496
0.76712
0.784211
0.794477
0.703184
0.786808
0.715457
0.836712
0.795672
0.792776
0.69456
0.83221
0.835794
0.923647
0.890939
1.00763
0.948522
0.96562
0.839987
0.851539
0.697825
0.621903
0.381713
0.291224
0.108501
0.104713
-0.00136639
0.0473946
-0.0284345
0.035705
-0.0331008
0.0339761
-0.0336994
0.033782
-0.0337587
0.0337649
-0.0337633
0.0337636
-0.0337639
0.0337626
-0.0337667
0.0337558
-0.0337807
0.0337335
-0.0338035
0.0337309
-0.0337698
0.0337637
-0.0338451
0.0335528
-0.0339005
0.0340163
-0.0334293
0.0332259
-0.0347927
0.0344495
-0.0320887
0.0321578
-0.0361338
0.0367877
-0.0335568
0.0276967
-0.0287293
0.0382145
-0.0462232
0.0385554
-0.0260995
0.0209096
-0.0269321
0.0317518
-0.0352676
0.0369164
-0.0437662
0.0495427
-0.0554984
0.0539714
-0.0507522
0.0411847
-0.033687
0.022576
-0.0159697
0.00834087
0.32713
0.32713
1
1.07218
1.07504
1.11926
1.03267
1.08572
0.933784
1.05418
0.84491
0.979007
0.864876
0.817422
0.904397
0.806207
0.73241
0.909916
0.723309
0.748304
0.794985
0.799705
0.720459
0.77221
0.721637
0.818837
0.811359
0.786645
0.697726
0.798818
0.829594
0.898009
0.890115
0.984298
0.956861
0.954071
0.852179
0.837945
0.711304
0.615635
0.402479
0.287254
0.126621
0.096264
0.0127193
0.0362204
-0.015906
0.0237537
-0.020923
0.021881
-0.0215762
0.0216678
-0.0216417
0.0216488
-0.021647
0.0216473
-0.0216476
0.0216462
-0.0216506
0.021639
-0.0216651
0.0216166
-0.0216866
0.0216169
-0.0216513
0.0216439
-0.0217391
0.0214351
-0.021757
0.021926
-0.0213624
0.0210286
-0.0225881
0.0225175
-0.0201358
0.0197551
-0.0236665
0.0248278
-0.0222141
0.0161187
-0.0155573
0.0242651
-0.0342306
0.0288002
-0.0157331
0.00836661
-0.0136467
0.0191935
-0.0227249
0.0229185
-0.0282001
0.0339651
-0.0418424
0.0434929
-0.043607
0.0368622
-0.0313138
0.0214676
-0.0155197
0.00546484
-0.331673
-0.331673
1
1.06563
1.0744
1.11548
1.0409
1.09169
0.945104
1.06078
0.869158
0.965846
0.90786
0.800781
0.922998
0.823761
0.733007
0.901559
0.762561
0.728398
0.801056
0.799082
0.739613
0.755022
0.727001
0.79619
0.826031
0.778917
0.703956
0.764152
0.823484
0.86959
0.890123
0.958637
0.965792
0.940681
0.86619
0.822973
0.726022
0.607218
0.4244
0.281509
0.146342
0.0862677
0.0284698
0.0234777
-0.0017485
0.0102048
-0.00713303
0.00817975
-0.00784447
0.00794585
-0.00791687
0.00792473
-0.00792273
0.0079231
-0.00792346
0.0079219
-0.00792661
0.00791434
-0.00794152
0.00789203
-0.00796159
0.00789512
-0.0079253
0.00791555
-0.00802485
0.00771173
-0.00800434
0.00822272
-0.00769385
0.00723361
-0.00875783
0.00895834
-0.00660837
0.00578517
-0.00956224
0.0111629
-0.00921358
0.00311258
-0.00102877
0.00856068
-0.0201569
0.017311
-0.00413701
-0.00550398
0.00138589
0.00493552
-0.00902456
0.00810028
-0.0114213
0.0162084
-0.0249944
0.0292123
-0.0325824
0.029042
-0.0260842
0.0182498
-0.0136689
0.0076063
0.326907
0.326907
1
1.05847
1.07348
1.10896
1.04613
1.09391
0.954567
1.06001
0.895696
0.943967
0.949621
0.783912
0.933417
0.840371
0.735246
0.883778
0.801223
0.710092
0.802526
0.79358
0.759531
0.737544
0.731104
0.770544
0.838464
0.770962
0.71222
0.730135
0.8165
0.839862
0.889588
0.932068
0.973907
0.926732
0.880571
0.808023
0.740661
0.598064
0.446093
0.275348
0.166272
0.0760912
0.0445086
0.0105398
0.0126646
-0.00356779
0.00689559
-0.00575391
0.00612201
-0.00601
0.00604222
-0.00603344
0.00603568
-0.00603526
0.00603487
-0.00603656
0.0060315
-0.00604449
0.00601621
-0.00606665
0.00599768
-0.00606079
0.00603448
-0.0060475
0.00592397
-0.0062435
0.00598334
-0.00572015
0.0062038
-0.00678375
0.00532196
-0.00485776
0.0071248
-0.00837424
0.00479314
-0.00282894
0.00409788
-0.00998051
0.0134458
-0.00744585
-0.00536306
0.0053584
0.00734195
-0.0192395
0.0167649
-0.00979853
0.0046378
-0.00611731
0.00483466
-0.00182219
-0.0067794
0.0126676
-0.0188467
0.0185367
-0.0185258
0.0132416
-0.0106412
0.00335379
-0.331473
-0.331473
1
1.05125
1.07182
1.10118
1.04818
1.09328
0.962784
1.05237
0.924342
0.915763
0.987809
0.769921
0.934993
0.856246
0.739728
0.858749
0.836929
0.695773
0.799536
0.784321
0.77871
0.721922
0.733377
0.743697
0.847265
0.764056
0.721268
0.698633
0.807584
0.810338
0.887055
0.906039
0.979739
0.913567
0.893805
0.794542
0.753834
0.589652
0.46612
0.270197
0.184957
0.0671677
0.0593924
-0.00115335
0.025893
-0.0161234
0.0197227
-0.0184796
0.018883
-0.0187595
0.0187953
-0.0187854
0.018788
-0.0187875
0.0187871
-0.0187889
0.0187835
-0.0187972
0.0187678
-0.0188191
0.018751
-0.0188106
0.0187877
-0.0188049
0.0186673
-0.0189904
0.0187652
-0.0184626
0.0188915
-0.019582
0.0182083
-0.0174935
0.0196288
-0.0212802
0.0179478
-0.0156994
0.0163025
-0.0217597
0.0264014
-0.0222277
0.00870226
-0.00572412
0.017317
-0.0313087
0.0309763
-0.0236884
0.0170526
-0.01837
0.0188737
-0.0181602
0.0107847
-0.00430597
-0.00391166
0.0064914
-0.00945003
0.00697788
-0.00670495
0.00433575
0.327497
0.327497
1
1.04453
1.06891
1.09339
1.04706
1.09043
0.970357
1.03853
0.95435
0.884126
1.01984
0.761567
0.927538
0.871296
0.746702
0.829004
0.867227
0.687335
0.792355
0.772493
0.795462
0.709988