# vtk DataFile Version 2.0
FlowField
ASCII
DATASET STRUCTURED_GRID
DIMENSIONS 100 1 100
POINTS 10000 float
0 0 0
0.01 0 0
0.02 0 0
0.03 0 0
0.04 0 0
0.05 0 0
0.06 0 0
0.07 0 0
0.08 0 0
0.09 0 0
0.1 0 0
0.11 0 0
0.12 0 0
0.13 0 0
0.14 0 0
0.15 0 0
0.16 0 0
0.17 0 0
0.18 0 0
0.19 0 0
0.2 0 0
0.21 0 0
0.22 0 0
0.23 0 0
0.24 0 0
0.25 0 0
0.26 0 0
0.27 0 0
0.28 0 0
0.29 0 0
0.3 0 0
0.31 0 0
0.32 0 0
0.33 0 0
0.34 0 0
0.35 0 0
0.36 0 0
0.37 0 0
0.38 0 0
0.39 0 0
0.4 0 0
0.41 0 0
0.42 0 0
0.43 0 0
0.44 0 0
0.45 0 0
0.46 0 0
0.47 0 0
0.48 0 0
0.49 0 0
0.5 0 0
0.51 0 0
0.52 0 0
0.53 0 0
0.54 0 0
0.55 0 0
0.56 0 0
0.57 0 0
0.58 0 0
0.59 0 0
0.6 0 0
0.61 0 0
0.62 0 0
0.63 0 0
0.64 0 0
0.65 0 0
0.66 0 0
0.67 0 0
0.68 0 0
0.69 0 0
0.7 0 0
0.71 0 0
0.72 0 0
0.73 0 0
0.74 0 0
0.75 0 0
0.76 0 0
0.77 0 0
0.78 0 0
0.79 0 0
0.8 0 0
0.81 0 0
0.82 0 0
0.83 0 0
0.84 0 0
0.85 0 0
0.86 0 0
0.87 0 0
0.88 0 0
0.89 0 0
0.9 0 0
0.91 0 0
0.92 0 0
0.93 0 0
0.94 0 0
0.95 0 0
0.96 0 0
0.97 0 0
0.98 0 0
0.99 0 0
0 0.001 0
0.01 0.001 0
0.02 0.001 0
0.03 0.001 0
0.04 0.001 0
0.05 0.001 0
0.06 0.001 0
0.07 0.001 0
0.08 0.001 0
0.09 0.001 0
0.1 0.001 0
0.11 0.001 0
0.12 0.001 0
0.13 0.001 0
0.14 0.001 0
0.15 0.001 0
0.16 0.001 0
0.17 0.001 0
0.18 0.001 0
0.19 0.001 0
0.2 0.001 0
0.21 0.001 0
0.22 0.001 0
0.23 0.001 0
0.24 0.001 0
0.25 0.001 0
0.26 0.001 0
0.27 0.001 0
0.28 0.001 0
0.29 0.001 0
0.3 0.001 0
0.31 0.001 0
0.32 0.001 0
0.33 0.001 0
0.34 0.001 0
0.35 0.001 0
0.36 0.001 0
0.37 0.001 0
0.38 0.001 0
0.39 0.001 0
0.4 0.001 0
0.41 0.001 0
0.42 0.001 0
0.43 0.001 0
0.44 0.001 0
0.45 0.001 0
0.46 0.001 0
0.47 0.001 0
0.48 0.001 0
0.49 0.001 0
0.5 0.001 0
0.51 0.001 0
0.52 0.001 0
0.53 0.001 0
0.54 0.001 0
0.55 0.001 0
0.56 0.001 0
0.57 0.001 0
0.58 0.001 0
0.59 0.001 0
0.6 0.001 0
0.61 0.001 0
0.62 0.001 0
0.63 0.001 0
0.64 0.001 0
0.65 0.001 0
0.66 0.001 0
0.67 0.001 0
0.68 0.001 0
0.69 0.001 0
0.7 0.001 0
0.71 0.001 0
0.72 0.001 0
0.73 0.001 0
0.74 0.001 0
0.75 0.001 0
0.76 0.001 0
0.77 0.001 0
0.78 0.001 0
0.79 0.001 0
0.8 0.001 0
0.81 0.001 0
0.82 0.001 0
0.83 0.001 0
0.84 0.001 0
0.85 0.001 0
0.86 0.001 0
0.87 0.001 0
0.88 0.001 0
0.89 0.001 0
0.9 0.001 0
0.91 0.001 0
0.92 0.001 0
0.93 0.001 0
0.94 0.001 0
0.95 0.001 0
0.96 0.001 0
0.97 0.001 0
0.98 0.001 0
0.99 0.001 0
0 0.002 0
0.01 0.002 0
0.02 0.002 0
0.03 0.002 0
0.04 0.002 0
0.05 0.002 0
0.06 0.002 0
0.07 0.002 0
0.08 0.002 0
0.09 0.002 0
0.1 0.002 0
0.11 0.002 0
0.12 0.002 0
0.13 0.002 0
0.14 0.002 0
0.15 0.002 0
0.16 0.002 0
0.17 0.002 0
0.18 0.002 0
0.19 0.002 0
0.2 0.002 0
0.21 0.002 0
0.22 0.002 0
0.23 0.002 0
0.24 0.002 0
0.25 0.002 0
0.26 0.002 0
0.27 0.002 0
0.28 0.002 0
0.29 0.002 0
0.3 0.002 0
0.31 0.002 0
0.32 0.002 0
0.33 0.002 0
0.34 0.002 0
0.35 0.002 0
0.36 0.002 0
0.37 0.002 0
0.38 0.002 0
0.39 0.002 0
0.4 0.002 0
0.41 0.002 0
0.42 0.002 0
0.43 0.002 0
0.44 0.002 0
0.45 0.002 0
0.46 0.002 0
0.47 0.002 0
0.48 0.002 0
0.49 0.002 0
0.5 0.002 0
0.51 0.002 0
0.52 0.002 0
0.53 0.002 0
0.54 0.002 0
0.55 0.002 0
0.56 0.002 0
0.57 0.002 0
0.58 0.002 0
0.59 0.002 0
0.6 0.002 0
0.61 0.002 0
0.62 0.002 0
0.63 0.002 0
0.64 0.002 0
0.65 0.002 0
0.66 0.002 0
0.67 0.002 0
0.68 0.002 0
0.69 0.002 0
0.7 0.002 0
0.71 0.002 0
0.72 0.002 0
0.73 0.002 0
0.74 0.002 0
0.75 0.002 0
0.76 0.002 0
0.77 0.002 0
0.78 0.002 0
0.79 0.002 0
0.8 0.002 0
0.81 0.002 0
0.82 0.002 0
0.83 0.002 0
0.84 0.002 0
0.85 0.002 0
0.86 0.002 0
0.87 0.002 0
0.88 0.002 0
0.89 0.002 0
0.9 0.002 0
0.91 0.002 0
0.92 0.002 0
0.93 0.002 0
0.94 0.002 0
0.95 0.002 0
0.96 0.002 0
0.97 0.002 0
0.98 0.002 0
0.99 0.002 0
0 0.003 0
0.01 0.003 0
0.02 0.003 0
0.03 0.003 0
0.04 0.003 0
0.05 0.003 0
0.06 0.003 0
0.07 0.003 0
0.08 0.003 0
0.09 0.003 0
0.1 0.003 0
0.11 0.003 0
0.12 0.003 0
0.13 0.003 0
0.14 0.003 0
0.15 0.003 0
0.16 0.003 0
0.17 0.003 0
0.18 0.003 0
0.19 0.003 0
0.2 0.003 0
0.21 0.003 0
0.22 0.003 0
0.23 0.003 0
0.24 0.003 0
0.25 0.003 0
0.26 0.003 0
0.27 0.003 0
0.28 0.003 0
0.29 0.003 0
0.3 0.003 0
0.31 0.003 0
0.32 0.003 0
0.33 0.003 0
0.34 0.003 0
0.35 0.003 0
0.36 0.003 0
0.37 0.003 0
0.38 0.003 0
0.39 0.003 0
0.4 0.003 0
0.41 0.003 0
0.42 0.003 0
0.43 0.003 0
0.44 0.003 0
0.45 0.003 0
0.46 0.003 0
0.47 0.003 0
0.48 0.003 0
0.49 0.003 0
0.5 0.003 0
0.51 0.003 0
0.52 0.003 0
0.53 0.003 0
0.54 0.003 0
0.55 0.003 0
0.56 0.003 0
0.57 0.003 0
0.58 0.003 0
0.59 0.003 0
0.6 0.003 0
0.61 0.003 0
0.62 0.003 0
0.63 0.003 0
0.64 0.003 0
0.65 0.003 0
0.66 0.003 0
0.67 0.003 0
0.68 0.003 0
0.69 0.003 0
0.7 0.003 0
0.71 0.003 0
0.72 0.003 0
0.73 0.003 0
0.74 0.003 0
0.75 0.003 0
0.76 0.003 0
0.77 0.003 0
0.78 0.003 0
0.79 0.003 0
0.8 0.003 0
0.81 0.003 0
0.82 0.003 0
0.83 0.003 0
0.84 0.003 0
0.85 0.003 0
0.86 0.003 0
0.87 0.003 0
0.88 0.003 0
0.89 0.003 0
0.9 0.003 0
0.91 0.003 0
0.92 0.003 0
0.93 0.003 0
0.94 0.003 0
0.95 0.003 0
0.96 0.003 0
0.97 0.003 0
0.98 0.003 0
0.99 0.003 0
0 0.004 0
0.01 0.004 0
0.02 0.004 0
0.03 0.004 0
0.04 0.004 0
0.05 0.004 0
0.06 0.004 0
0.07 0.004 0
0.08 0.004 0
0.09 0.004 0
0.1 0.004 0
0.11 0.004 0
0.12 0.004 0
0.13 0.004 0
0.14 0.004 0
0.15 0.004 0
0.16 0.004 0
0.17 0.004 0
0.18 0.004 0
0.19 0.004 0
0.2 0.004 0
0.21 0.004 0
0.22 0.004 0
0.23 0.004 0
0.24 0.004 0
0.25 0.004 0
0.26 0.004 0
0.27 0.004 0
0.28 0.004 0
0.29 0.004 0
0.3 0.004 0
0.31 0.004 0
0.32 0.004 0
0.33 0.004 0
0.34 0.004 0
0.35 0.004 0
0.36 0.004 0
0.37 0.004 0
0.38 0.004 0
0.39 0.004 0
0.4 0.004 0
0.41 0.004 0
0.42 0.004 0
0.43 0.004 0
0.44 0.004 0
0.45 0.004 0
0.46 0.004 0
0.47 0.004 0
0.48 0.004 0
0.49 0.004 0
0.5 0.004 0
0.51 0.004 0
0.52 0.004 0
0.53 0.004 0
0.54 0.004 0
0.55 0.004 0
0.56 0.004 0
0.57 0.004 0
0.58 0.004 0
0.59 0.004 0
0.6 0.004 0
0.61 0.004 0
0.62 0.004 0
0.63 0.004 0
0.64 0.004 0
0.65 0.004 0
0.66 0.004 0
0.67 0.004 0
0.68 0.004 0
0.69 0.004 0
0.7 0.004 0
0.71 0.004 0
0.72 0.004 0
0.73 0.004 0
0.74 0.004 0
0.75 0.004 0
0.76 0.004 0
0.77 0.004 0
0.78 0.004 0
0.79 0.004 0
0.8 0.004 0
0.81 0.004 0
0.82 0.004 0
0.83 0.004 0
0.84 0.004 0
0.85 0.004 0
0.86 0.004 0
0.87 0.004 0
0.88 0.004 0
0.89 0.004 0
0.9 0.004 0
0.91 0.004 0
0.92 0.004 0
0.93 0.004 0
0.94 0.004 0
0.95 0.004 0
0.96 0.004 0
0.97 0.004 0
0.98 0.004 0
0.99 0.004 0
0 0.005 0
0.01 0.005 0
0.02 0.005 0
0.03 0.005 0
0.04 0.005 0
0.05 0.005 0
0.06 0.005 0
0.07 0.005 0
0.08 0.005 0
0.09 0.005 0
0.1 0.005 0
0.11 0.005 0
0.12 0.005 0
0.13 0.005 0
0.14 0.005 0
0.15 0.005 0
0.16 0.005 0
0.17 0.005 0
0.18 0.005 0
0.19 0.005 0
0.2 0.005 0
0.21 0.005 0
0.22 0.005 0
0.23 0.005 0
0.24 0.005 0
0.25 0.005 0
0.26 0.005 0
0.27 0.005 0
0.28 0.005 0
0.29 0.005 0
0.3 0.005 0
0.31 0.005 0
0.32 0.005 0
0.33 0.005 0
0.34 0.005 0
0.35 0.005 0
0.36 0.005 0
0.37 0.005 0
0.38 0.005 0
0.39 0.005 0
0.4 0.005 0
0.41 0.005 0
0.42 0.005 0
0.43 0.005 0
0.44 0.005 0
0.45 0.005 0
0.46 0.005 0
0.47 0.005 0
0.48 0.005 0
0.49 0.005 0
0.5 0.005 0
0.51 0.005 0
0.52 0.005 0
0.53 0.005 0
0.54 0.005 0
0.55 0.005 0
0.56 0.005 0
0.57 0.005 0
0.58 0.005 0
0.59 0.005 0
0.6 0.005 0
0.61 0.005 0
0.62 0.005 0
0.63 0.005 0
0.64 0.005 0
0.65 0.005 0
0.66 0.005 0
0.67 0.005 0
0.68 0.005 0
0.69 0.005 0
0.7 0.005 0
0.71 0.005 0
0.72 0.005 0
0.73 0.005 0
0.74 0.005 0
0.75 0.005 0
0.76 0.005 0
0.77 0.005 0
0.78 0.005 0
0.79 0.005 0
0.8 0.005 0
0.81 0.005 0
0.82 0.005 0
0.83 0.005 0
0.84 0.005 0
0.85 0.005 0
0.86 0.005 0
0.87 0.005 0
0.88 0.005 0
0.89 0.005 0
0.9 0.005 0
0.91 0.005 0
0.92 0.005 0
0.93 0.005 0
0.94 0.005 0
0.95 0.005 0
0.96 0.005 0
0.97 0.005 0
0.98 0.005 0
0.99 0.005 0
0 0.006 0
0.01 0.006 0
0.02 0.006 0
0.03 0.006 0
0.04 0.006 0
0.05 0.006 0
0.06 0.006 0
0.07 0.006 0
0.08 0.006 0
0.09 0.006 0
0.1 0.006 0
0.11 0.006 0
0.12 0.006 0
0.13 0.006 0
0.14 0.006 0
0.15 0.006 0
0.16 0.006 0
0.17 0.006 0
0.18 0.006 0
0.19 0.006 0
0.2 0.006 0
0.21 0.006 0
0.22 0.006 0
0.23 0.006 0
0.24 0.006 0
0.25 0.006 0
0.26 0.006 0
0.27 0.006 0
0.28 0.006 0
0.29 0.006 0
0.3 0.006 0
0.31 0.006 0
0.32 0.006 0
0.33 0.006 0
0.34 0.006 0
0.35 0.006 0
0.36 0.006 0
0.37 0.006 0
0.38 0.006 0
0.39 0.006 0
0.4 0.006 0
0.41 0.006 0
0.42 0.006 0
0.43 0.006 0
0.44 0.006 0
0.45 0.006 0
0.46 0.006 0
0.47 0.006 0
0.48 0.006 0
0.49 0.006 0
0.5 0.006 0
0.51 0.006 0
0.52 0.006 0
0.53 0.006 0
0.54 0.006 0
0.55 0.006 0
0.56 0.006 0
0.57 0.006 0
0.58 0.006 0
0.59 0.006 0
0.6 0.006 0
0.61 0.006 0
0.62 0.006 0
0.63 0.006 0
0.64 0.006 0
0.65 0.006 0
0.66 0.006 0
0.67 0.006 0
0.68 0.006 0
0.69 0.006 0
0.7 0.006 0
0.71 0.006 0
0.72 0.006 0
0.73 0.006 0
0.74 0.006 0
0.75 0.006 0
0.76 0.006 0
0.77 0.006 0
0.78 0.006 0
0.79 0.006 0
0.8 0.006 0
0.81 0.006 0
0.82 0.006 0
0.83 0.006 0
0.84 0.006 0
0.85 0.006 0
0.86 0.006 0
0.87 0.006 0
0.88 0.006 0
0.89 0.006 0
0.9 0.006 0
0.91 0.006 0
0.92 0.006 0
0.93 0.006 0
0.94 0.006 0
0.95 0.006 0
0.96 0.006 0
0.97 0.006 0
0.98 0.006 0
0.99 0.006 0
0 0.007 0
0.01 0.007 0
0.02 0.007 0
0.03 0.007 0
0.04 0.007 0
0.05 0.007 0
0.06 0.007 0
0.07 0.007 0
0.08 0.007 0
0.09 0.007 0
0.1 0.007 0
0.11 0.007 0
0.12 0.007 0
0.13 0.007 0
0.14 0.007 0
0.15 0.007 0
0.16 0.007 0
0.17 0.007 0
0.18 0.007 0
0.19 0.007 0
0.2 0.007 0
0.21 0.007 0
0.22 0.007 0
0.23 0.007 0
0.24 0.007 0
0.25 0.007 0
0.26 0.007 0
0.27 0.007 0
0.28 0.007 0
0.29 0.007 0
0.3 0.007 0
0.31 0.007 0
0.32 0.007 0
0.33 0.007 0
0.34 0.007 0
0.35 0.007 0
0.36 0.007 0
0.37 0.007 0
0.38 0.007 0
0.39 0.007 0
0.4 0.007 0
0.41 0.007 0
0.42 0.007 0
0.43 0.007 0
0.44 0.007 0
0.45 0.007 0
0.46 0.007 0
0.47 0.007 0
0.48 0.007 0
0.49 0.007 0
0.5 0.007 0
0.51 0.007 0
0.52 0.007 0
0.53 0.007 0
0.54 0.007 0
0.55 0.007 0
0.56 0.007 0
0.57 0.007 0
0.58 0.007 0
0.59 0.007 0
0.6 0.007 0
0.61 0.007 0
0.62 0.007 0
0.63 0.007 0
0.64 0.007 0
0.65 0.007 0
0.66 0.007 0
0.67 0.007 0
0.68 0.007 0
0.69 0.007 0
0.7 0.007 0
0.71 0.007 0
0.72 0.007 0
0.73 0.007 0
0.74 0.007 0
0.75 0.007 0
0.76 0.007 0
0.77 0.007 0
0.78 0.007 0
0.79 0.007 0
0.8 0.007 0
0.81 0.007 0
0.82 0.007 0
0.83 0.007 0
0.84 0.007 0
0.85 0.007 0
0.86 0.007 0
0.87 0.007 0
0.88 0.007 0
0.89 0.007 0
0.9 0.007 0
0.91 0.007 0
0.92 0.007 0
0.93 0.007 0
0.94 0.007 0
0.95 0.007 0
0.96 0.007 0
0.97 0.007 0
0.98 0.007 0
[...]
POINT_DATA 10000

SCALARS vel_X float 1
LOOKUP_TABLE default
0
0
0
0
0
0
0
0
0
0
0
0
0
0
0
0
0
0
0
0
0
0
0
0
0
0
0
0
0
0
0
0
0
0
0
0
0
0
0
0
0
0
0
0
0
0
0
0
0
0
0
0
0
0
0
0
0
0
0
0
0
0
0
0
0
0
0
0
0
0
0
0
0
0
0
0
0
0
0
0
0
0
0
0
0
0
0
0
0
0
0
0
0
0
0
0
0
0
0
0
1
0.331483
0.188527
0.174502
0.123475
0.140101
0.125608
0.105149
0.149058
0.0944048
0.132749
0.142056
0.110355
0.15646
0.166394
0.128338
0.173242
0.194075
0.167635
0.177178
0.23422
0.242308
0.236991
0.266921
0.32723
0.33015
0.270057
0.173466
0.0978922
0.0439476
0.021053
0.00556841
0.00429869
-0.000957799
0.001998
-0.0016984
0.00177859
-0.00175855
0.00176324
-0.00176221
0.00176243
-0.00176238
0.00176239
-0.00176239
0.00176239
-0.00176239
0.00176239
-0.00176239
0.00176239
-0.00176239
0.00176239
-0.00176239
0.00176239
-0.00176239
0.00176239
-0.00176239
0.00176239
-0.00176239
0.00176239
-0.00176239
0.00176239
-0.00176239
0.00176239
-0.00176239
0.00176238
-0.00176244
0.00176215
-0.00176331
0.00175937
-0.00177059
0.00174486
-0.00178919
0.00174106
-0.00175126
0.00179692
-0.00180723
0.00156577
-0.00184241
0.00215677
-0.00151412
0.000920321
-0.00214334
0.00327767
-0.0021574
-0.000332811
0.000602178
0.00176865
-0.00490879
0.00582161
-0.00432882
0.00107036
0.00162047
-0.00388934
0.00451072
-0.00464233
0.00342313
-0.00298932
-0.00172397
-0.194755
-0.194755
1
0.575092
0.365363
0.330018
0.251944
0.273822
0.245661
0.225847
0.277005
0.208997
0.263208
0.273387
0.236219
0.304686
0.312482
0.271118
0.336324
0.36454
0.33107
0.357716
0.437199
0.450372
0.446445
0.495036
0.565818
0.545563
0.428613
0.271852
0.148969
0.0682465
0.0304069
0.0097291
0.00507199
-8.01612e-05
0.00162961
-0.00118442
0.00130335
-0.00127367
0.00128062
-0.00127909
0.00127941
-0.00127934
0.00127936
-0.00127935
0.00127935
-0.00127935
0.00127935
-0.00127935
0.00127935
-0.00127935
0.00127935
-0.00127935
0.00127935
-0.00127935
0.00127935
-0.00127935
0.00127935
-0.00127935
0.00127935
-0.00127935
0.00127935
-0.00127935
0.00127935
-0.00127936
0.00127934
-0.00127943
0.001279
-0.00128073
0.00127483
-0.00129173
0.00125249
-0.00132172
0.00124186
-0.00127135
0.00132606
-0.00133822
0.000993873
-0.00143454
0.00180159
-0.000867333
0.000161968
-0.00196148
0.00329092
-0.00157267
-0.00169466
0.00163324
0.00167786
-0.00569806
0.00642188
-0.0041917
-0.000251297
0.00351072
-0.00629075
0.00663799
-0.00669125
0.00469281
-0.00422464
0.00108124
0.275903
0.275903
1
0.748847
0.524458
0.467935
0.382425
0.393652
0.368258
0.341647
0.396607
0.329225
0.383626
0.397675
0.364877
0.434159
0.450595
0.410962
0.481863
0.514431
0.487864
0.51814
0.606196
0.621937
0.621075
0.664773
0.724331
0.674399
0.521881
0.327236
0.179749
0.0812786
0.0372102
0.0110318
0.00678648
-0.000763772
0.0026381
-0.00209795
0.00224272
-0.00220647
0.00221498
-0.0022131
0.00221349
-0.00221342
0.00221343
-0.00221343
0.00221343
-0.00221343
0.00221343
-0.00221343
0.00221343
-0.00221343
0.00221343
-0.00221343
0.00221343
-0.00221343
0.00221343
-0.00221343
0.00221343
-0.00221343
0.00221343
-0.00221343
0.00221343
-0.00221343
0.00221343
-0.00221343
0.00221341
-0.00221353
0.00221299
-0.00221509
0.00220799
-0.00222823
0.00218137
-0.0022642
0.00216681
-0.00221028
0.00225836
-0.00228679
0.00189116
-0.00239078
0.00276717
-0.00178977
0.00101583
-0.00291759
0.00428984
-0.00260515
-0.000805033
0.000798532
0.00239963
-0.00656602
0.00740596
-0.00547931
0.00100869
0.00215142
-0.00519616
0.00557352
-0.00607807
0.00405713
-0.00409066
-0.000851342
-0.241871
-0.241871
1
0.870236
0.661572
0.59076
0.507732
0.501448
0.488925
0.447685
0.51001
0.445028
0.493085
0.513935
0.486171
0.546254
0.579623
0.538178
0.608179
0.645018
0.629061
0.650505
0.741543
0.756952
0.755652
0.778552
0.821449
0.746944
0.578327
0.36015
0.201539
0.0889204
0.0436089
0.0106489
0.00950691
-0.00265378
0.00479932
-0.0041773
0.004345
-0.00430276
0.00431273
-0.00431052
0.00431098
-0.00431089
0.00431091
-0.0043109
0.00431091
-0.00431091
0.00431091
-0.00431091
0.00431091
-0.00431091
0.00431091
-0.00431091
0.00431091
-0.00431091
0.00431091
-0.00431091
0.00431091
-0.00431091
0.00431091
-0.00431091
0.00431091
-0.00431091
0.0043109
-0.00431091
0.00431088
-0.00431102
0.0043104
-0.00431281
0.00430476
-0.00432742
0.00427564
-0.004366
0.0042607
-0.00431013
0.00434823
-0.00440478
0.00397225
-0.00446793
0.00487718
-0.00397506
0.00306553
-0.0048451
0.00634203
-0.00503604
0.00160019
-0.00116788
0.00381836
-0.00804661
0.00939972
-0.00830448
0.00419039
-0.00116667
-0.00226205
0.00300222
-0.00427492
0.00264287
-0.00334399
0.00128149
0.256646
0.256646
1
0.953302
0.776023
0.699058
0.623251
0.598998
0.602054
0.544316
0.614527
0.55198
0.591571
0.619423
0.595295
0.643112
0.69493
0.649242
0.715128
0.755546
0.748539
0.754758
0.845016
0.85754
0.851769
0.84852
0.876434
0.786213
0.614308
0.382255
0.21897
0.0946354
0.0496826
0.009891
0.0124182
-0.0047733
0.00718513
-0.00648069
0.006672
-0.00662347
0.00663501
-0.00663243
0.00663297
-0.00663286
0.00663288
-0.00663288
0.00663288
-0.00663288
0.00663288
-0.00663288
0.00663288
-0.00663288
0.00663288
-0.00663288
0.00663288
-0.00663288
0.00663288
-0.00663288
0.00663288
-0.00663288
0.00663288
-0.00663288
0.00663288
-0.00663288
0.00663288
-0.00663289
0.00663285
-0.00663301
0.00663231
-0.00663502
0.00662609
-0.00665082
0.00659533
-0.00669006
0.00658267
-0.00663165
0.00666101
-0.00675106
0.00628579
-0.00674582
0.00721311
-0.00642981
0.00533673
-0.0069134
0.00860272
-0.00779458
0.00433745
-0.00330963
0.0053056
-0.0095981
0.0116034
-0.0114769
0.00781566
-0.00489112
0.00105393
0.000137007
-0.00220471
0.00108536
-0.00244869
-0.00111718
-0.249543
-0.249543
1
1.00871
0.8693
0.792495
0.726991
0.68653
0.704274
0.632193
0.707311
0.648553
0.678706
0.711987
0.690747
0.725444
0.793191
0.743592
0.803012
0.845315
0.844608
0.833866
0.91985
0.928083
0.916054
0.888297
0.90487
0.806992
0.638905
0.399472
0.234052
0.100077
0.0552882
0.00946768
0.0150054
-0.00654549
0.00923703
-0.00844451
0.00866143
-0.00860599
0.00861927
-0.00861628
0.00861691
-0.00861678
0.00861681
-0.0086168
0.0086168
-0.0086168
0.0086168
-0.0086168
0.0086168
-0.0086168
0.0086168
-0.0086168
0.0086168
-0.0086168
0.0086168
-0.0086168
0.0086168
-0.0086168
0.0086168
-0.0086168
0.0086168
-0.0086168
0.0086168
-0.00861681
0.00861677
-0.00861696
0.00861616
-0.00861918
0.00860937
-0.00863607
0.00857744
-0.00867483
0.00856871
-0.00861321
0.00863555
-0.0087602
0.00826628
-0.00867472
0.00921051
-0.00856105
0.00727726
-0.00862232
0.010506
-0.0102138
0.00677451
-0.00515783
0.00648577
-0.0107657
0.0133625
-0.0141874
0.0110475
-0.00826872
0.00412525
-0.0025571
-0.000189243
-0.000419325
-0.0015022
0.000790909
0.253667
0.253667
1
1.04439
0.943729
0.871001
0.818265
0.763693
0.794093
0.711393
0.78689
0.734176
0.754108
0.790741
0.77238
0.793432
0.87324
0.821805
0.872665
0.914909
0.918652
0.891791
0.970505
0.974472
0.956794
0.909226
0.917676
0.817894
0.656996
0.414555
0.247717
0.105896
0.0603939
0.00963385
0.0170888
-0.00776663
0.0107585
-0.00987018
0.0101153
-0.0100522
0.0100674
-0.0100639
0.0100647
-0.0100645
0.0100646
-0.0100645
0.0100645
-0.0100645
0.0100645
-0.0100645
0.0100645
-0.0100645
0.0100645
-0.0100645
0.0100645
-0.0100645
0.0100645
-0.0100645
0.0100645
-0.0100645
0.0100645
-0.0100645
0.0100645
-0.0100645
0.0100645
-0.0100646
0.0100645
-0.0100647
0.0100638
-0.0100672
0.0100564
-0.0100851
0.0100236
-0.0101227
0.0100198
-0.0100577
0.0100738
-0.0102323
0.00971578
-0.0100631
0.010665
-0.0101581
0.00870449
-0.00979933
0.0118326
-0.0120456
0.00870814
-0.00658027
0.00723206
-0.0113608
0.0144018
-0.0161231
0.0136003
-0.0110764
0.00677763
-0.00495669
0.00168568
-0.00182758
-0.000582766
-0.00174858
-0.250685
-0.250685
1
1.06615
1.00181
0.935137
0.896914
0.830368
0.870997
0.781807
0.853055
0.808561
0.817776
0.855846
0.840581
0.847625
0.9355
0.884948
0.925607
0.966258
0.973552
0.932754
1.00205
1.00292
0.981524
0.919443
0.921771
0.823655
0.6711
0.428702
0.260399
0.112302
0.065025
0.0104478
0.0186387
-0.00839734
0.0117135
-0.0107205
0.0109967
-0.0109251
0.0109425
-0.0109385
0.0109394
-0.0109392
0.0109392
-0.0109392
0.0109392
-0.0109392
0.0109392
-0.0109392
0.0109392
-0.0109392
0.0109392
-0.0109392
0.0109392
-0.0109392
0.0109392
-0.0109392
0.0109392
-0.0109392
0.0109392
-0.0109392
0.0109392
-0.0109392
0.0109392
-0.0109392
0.0109392
-0.0109394
0.0109384
-0.0109421
0.0109304
-0.010961
0.0108969
-0.0109969
0.0108985
-0.010929
0.0109384
-0.0111297
0.010598
-0.0108772
0.0115352
-0.0111796
0.00959042
-0.0104166
0.0125345
-0.0132354
0.0101017
-0.00756151
0.00752782
-0.0113552
0.0146691
-0.0172172
0.0154125
-0.013269
0.00896117
-0.0070078
0.00336389
-0.00310257
0.000309786
9.04926e-05
0.253213
0.253213
1
1.07818
1.04596
0.985988
0.963071
0.886897
0.934967
0.843472
0.906412
0.871657
0.870171
0.908117
0.896096
0.889191
0.981322
0.934413
0.963951
1.00212
1.01267
0.960843
1.01944
1.01897
0.996026
0.924206
0.921233
0.826784
0.682483
0.442399
0.272286
0.119338
0.0692157
0.0119023
0.0196731
-0.00845105
0.0121173
-0.0110102
0.0113206
-0.0112394
0.0112593
-0.0112547
0.0112557
-0.0112555
0.0112556
-0.0112556
0.0112556
-0.0112556
0.0112556
-0.0112556
0.0112556
-0.0112556
0.0112556
-0.0112556
0.0112556
-0.0112556
0.0112556
-0.0112556
0.0112556
-0.0112556
0.0112556
-0.0112556
0.0112556
-0.0112556
0.0112556
-0.0112556
0.0112555
-0.0112558
0.0112547
-0.0112588
0.0112461
-0.0112786
0.0112121
-0.0113124
0.0112192
-0.0112423
0.011244
-0.0114666
0.0109278
-0.0111337
0.0118337
-0.0116381
0.00995221
-0.0104939
0.0126266
-0.0137923
0.0109599
-0.00811155
0.00739588
-0.0107917
0.0142048
-0.0174857
0.0164777
-0.0148336
0.0106431
-0.00865876
0.00478129
-0.00419511
0.00109278
-0.002455
-0.250898
-0.250898
1
1.08345
1.07845
1.02496
1.01714
0.933993
0.986351
0.896632
0.948058
0.923718
0.912119
0.94873
0.940022
0.919774
1.01256
0.97181
0.990139
1.02548
1.03927
0.979702
1.02703
1.02696
1.00427
0.926628
0.918362
0.828568
0.691793
0.455807
0.283467
0.126971
0.0730103
0.0139579
0.020235
-0.00796826
0.0120117
-0.0107803
0.0111285
-0.0110367
0.0110593
-0.0110541
0.0110552
-0.011055
0.011055
-0.011055
0.011055
-0.011055
0.011055
-0.011055
0.011055
-0.011055
0.011055
-0.011055
0.011055
-0.011055
0.011055
-0.011055
0.011055
-0.011055
0.011055
-0.011055
0.011055
-0.011055
0.011055
-0.011055
0.011055
-0.0110553
0.011054
-0.0110585
0.0110448
-0.0110793
0.0110106
-0.0111106
0.0110232
-0.0110394
0.0110318
-0.0112844
0.0107465
-0.0108753
0.0116014
-0.0115725
0.00982987
-0.0100778
0.0121576
-0.0137544
0.0113064
-0.00825666
0.00688464
-0.00975056
0.0130932
-0.0169799
0.0168099
-0.0157718
0.0118096
-0.00987764
0.00588928
-0.0050644
0.00176658
-0.000556666
0.253073
0.253073
1
1.08406
1.10128
1.0536
1.05977
0.97259
1.02584
0.941676
0.979389
0.965319
0.944663
0.979037
0.973726
0.941243
1.03132
0.998835
1.00664
1.03919
1.05631
0.992319
1.02829
1.03
1.00877
0.928387
0.91443
0.829652
0.699405
0.468928
0.294009
0.135122
0.0764723
0.0165464
0.0203934
-0.00701627
0.0114653
-0.0100987
0.0104883
-0.0103848
0.0104105
-0.0104045
0.0104058
-0.0104056
0.0104056
-0.0104056
0.0104056
-0.0104056
0.0104056
-0.0104056
0.0104056
-0.0104056
0.0104056
-0.0104056
0.0104056
-0.0104056
0.0104056
-0.0104056
0.0104056
-0.0104056
0.0104056
-0.0104056
0.0104056
-0.0104056
0.0104056
-0.0104056
0.0104055
-0.0104059
0.0104045
-0.0104094
0.0103947
-0.010431
0.0103604
-0.0104597
0.0103785
-0.0103885
0.0103698
-0.0106509
0.0101217
-0.0101716
0.0109069
-0.0110482
0.00928824
-0.00924176
0.0112056
-0.0131878
0.0111891
-0.00804652
0.00606692
-0.00833899
0.0114511
-0.0157838
0.0164494
-0.0161106
0.0124813
-0.0106717
0.00667491
-0.00569571
0.00227446
-0.00300207
-0.251024
-0.251024
1
1.08151
1.11626
1.07352
1.09182
1.00372
1.05446
0.979054
1.00195
0.997323
0.968947
1.00044
0.998712
0.9555
1.0398
1.01713
1.01569
1.04569
1.06621
1.00095
1.02578
1.03009
1.01104
0.930285
0.910153
0.830346
0.705577
0.481694
0.303975
0.143683
0.0796832
0.0195775
0.0202377
-0.00568341
0.0105674
-0.00905435
0.00948923
-0.00937277
0.00940194
-0.00939508
0.0093966
-0.00939628
0.00939635
-0.00939634
0.00939634
-0.00939634
0.00939634
-0.00939634
0.00939634
-0.00939634
0.00939634
-0.00939634
0.00939634
-0.00939634
0.00939634
-0.00939634
0.00939634
-0.00939634
0.00939634
-0.00939634
0.00939634
-0.00939634
0.00939634
-0.00939635
0.00939627
-0.00939666
0.00939509
-0.0094005
0.00938466
-0.00942289
0.00935047
-0.00944855
0.00937389
-0.00937874
0.00934722
-0.00965484
0.00914162
-0.00911292
0.00984016
-0.0101513
0.00841224
-0.00808001
0.00987053
-0.0121806
0.0106775
-0.00755046
0.00503142
-0.00667901
0.00941878
-0.0140114
0.0154634
-0.0159006
0.0127086
-0.0110853
0.00716196
-0.00610219
0.00265556
-0.00098001
0.252943
0.252943
1
1.0769
1.12488
1.08632
1.11429
1.02841
1.0735
1.00924
1.01732
1.02082
0.986131
1.01431
1.01647
0.964339
1.04013
1.02819
1.01919
1.04694
1.07088
1.00715
1.02129
1.02849
1.01193
0.932633
0.905943
0.830802
0.710518
0.494012
0.313431
0.152536
0.0827286
0.0229542
0.0198629
-0.00406379
0.00941299
-0.00774167
0.00822599
-0.00809527
0.00812827
-0.00812045
0.00812219
-0.00812182
0.0081219
-0.00812188
0.00812189
-0.00812189
0.00812189
-0.00812189
0.00812189
-0.00812189
0.00812189
-0.00812189
0.00812189
-0.00812189
0.00812189
-0.00812189
0.00812189
-0.00812189
0.00812189
-0.00812189
0.00812189
-0.00812189
0.00812188
-0.0081219
0.0081218
-0.00812224
0.00812051
-0.0081264
0.00810946
-0.00814951
0.0080756
-0.00817194
0.00810397
-0.00810475
0.00805883
-0.00839066
0.00790042
-0.00779507
0.00849734
-0.00897399
0.00729201
-0.00669138
0.00825822
-0.0108295
0.00984983
-0.00684271
0.00386623
-0.00488981
0.00714237
-0.0117941
0.013935
-0.0152002
0.0125522
-0.0111816
0.00739755
-0.00631736
0.00288877
-0.00330417
-0.251162
-0.251162
1
1.07105
1.12841
1.09353
1.12824
1.04765
1.0844
1.03275
1.02695
1.03704
0.997337
1.02192
1.02837
0.969371
1.0343
1.03332
1.01861
1.04445
1.07173
1.01192
1.01595
1.02594
1.0119
0.93549
0.902035
0.83111
0.7144
0.505803
0.322429
0.161577
0.0856806
0.0265918
0.0193513
-0.00223915
0.00808477
-0.00624271
0.00678091
-0.00663449
0.00667173
-0.00666285
0.00666484
-0.00666442
0.00666451
-0.00666449
0.00666449
-0.00666449
0.00666449
-0.00666449
0.00666449
-0.00666449
0.00666449
-0.00666449
0.00666449
-0.00666449
0.00666449
-0.00666449
0.00666449
-0.00666449
0.00666449
-0.00666449
0.00666449
-0.00666449
0.00666449
-0.00666451
0.0066644
-0.00666489
0.00666298
-0.00666937
0.00665131
-0.00669313
0.006618
-0.00671213
0.00665093
-0.00664885
0.00658713
-0.00694041
0.00647952
-0.00630138
0.00696233
-0.0075962
0.00600491
-0.0051608
0.00646195
-0.0092209
0.00877442
-0.0059847
0.00264108
-0.00306851
0.00475401
-0.00926273
0.0119473
-0.0140571
0.0120591
-0.0110178
0.00743221
-0.00638064
0.00303527
-0.00117263
0.252798
0.252798
1
1.0646
1.12784
1.09658
1.13481
1.06228
1.08872
1.05011
1.0321
1.04728
1.00362
1.02438
1.03551
0.971972
1.02407
1.03362
1.01498
1.03933
1.06971
1.01584
1.01046
1.02289
1.0112
0.938812
0.898551
0.831344
0.717359
0.517012
0.330996
0.170726
0.088584
0.0304314
0.0187584
-0.000264756
0.00663878
-0.00461304
0.00520977
-0.00504614
0.00508808
-0.005078
0.00508028
-0.00507979
0.00507989
-0.00507987
0.00507987
-0.00507987
0.00507987
-0.00507987
0.00507987
-0.00507987
0.00507987
-0.00507987
0.00507987
-0.00507987
0.00507987
-0.00507987
0.00507987
-0.00507987
0.00507987
-0.00507987
0.00507987
-0.00507987
0.00507987
-0.00507989
0.00507977
-0.00508032
0.00507822
-0.00508513
0.00506593
-0.00510944
0.00503339
-0.00512486
0.0050704
-0.00506674
0.0049881
-0.00535968
0.00493387
-0.00468839
0.00529278
-0.00607198
0.00460153
-0.00354521
0.00454804
-0.00741736
0.00749632
-0.00501172
0.00139457
-0.00127579
0.00235443
-0.00653161
0.00957204
-0.0124965
0.0112451
-0.0106239
0.00730021
-0.00632335
0.00307778
-0.00340763
-0.251311
-0.251311
1
1.05805
1.12402
1.09669
1.13517
1.07301
1.08796
1.06195
1.03375
1.05284
1.00597
1.0227
1.03878
0.97326
1.01093
1.03006
1.00902
1.03234
1.06542
1.01918
1.00516
1.01962
1.00991
0.942524
0.895534
0.831589
0.7195
0.527627
0.339129
0.179936
0.0914514
0.0344455
0.0181077
0.00183581
0.00509927
-0.0028764
0.00353658
-0.00335412
0.00340124
-0.00338983
0.00339243
-0.00339187
0.00339198
-0.00339196
0.00339197
-0.00339197
0.00339197
-0.00339197
0.00339197
-0.00339197
0.00339197
-0.00339197
0.00339197
-0.00339197
0.00339197
-0.00339197
0.00339197
-0.00339197
0.00339197
-0.00339197
0.00339197
-0.00339197
0.00339196
-0.00339199
0.00339185
-0.00339246
0.00339016
-0.00339761
0.00337728
-0.00342238
0.00334571
-0.00343411
0.00338624
-0.00338233
0.00328593
-0.00367231
0.00328658
-0.0029806
0.0035147
-0.00442415
0.0031006
-0.00186824
0.00255038
-0.00545169
0.00603177
-0.00392853
0.000130609
0.000469208
4.25237e-06
-0.00369035
0.00686664
-0.0105195
0.0100879
-0.00999014
0.00700524
-0.00615608
0.00306343
-0.00119945
0.252648
0.252648
1
1.05179
1.11759
1.09492
1.13049
1.08039
1.08353
1.06895
1.03262
1.0549
1.0053
1.01771
1.03877
0.974075
0.99614
1.02344
1.00116
1.024
1.0592
1.02205
1.00022
1.01634
1.00807
0.946549
0.892974
0.831934
0.720898
0.537664
0.346804
0.189188
0.0942683
0.0386326
0.0173962
0.00406528
0.00346412
-0.00103017
0.00175897
-0.00155596
0.00160878
-0.0015959
0.00159885
-0.00159821
0.00159835
-0.00159832
0.00159832
-0.00159832
0.00159832
-0.00159832
0.00159832
-0.00159832
0.00159832
-0.00159832
0.00159832
-0.00159832
0.00159832
-0.00159832
0.00159832
-0.00159832
0.00159832
-0.00159832
0.00159832
-0.00159832
0.00159832
-0.00159835
0.00159819
-0.00159887
0.00159636
-0.00160436
0.00158291
-0.0016295
0.0015525
-0.00163747
0.00159597
-0.00159313
0.00147844
-0.00187582
0.00153436
-0.00117595
0.0016278
-0.00264976
0.0014945
-0.000125745
0.000475488
-0.00333195
0.00437363
-0.00271538
-0.00117444
0.00218259
-0.00227379
-0.000804865
0.00388068
-0.00811493
0.00853547
-0.00906751
0.0065157
-0.00586333
0.00294752
-0.00336082
-0.251462
-0.251462
1
1.04611
1.10913
1.09204
1.12196
1.08483
1.07666
1.0719
1.02918
1.05446
1.00245
1.01015
1.03584
0.974975
0.980725
1.01449
0.991635
1.01463
1.05121
1.02443
0.995641
1.01318
1.00569
0.950815
0.890828
0.832469
0.721616
0.547156
0.353989
0.198473
0.097009
0.0430019
0.0166094
0.00643748
0.00171994
0.000939462
-0.000136635
0.000362035
-0.000302933
0.000317457
-0.0003141
0.000314832
-0.000314681
0.00031471
-0.000314705
0.000314706
-0.000314706
0.000314706
-0.000314706
0.000314706
-0.000314706
0.000314706
-0.000314706
0.000314706
-0.000314706
0.000314706
-0.000314706
0.000314706
-0.000314706
0.000314706
-0.000314706
0.000314705
-0.000314712
0.000314674
-0.000314852
0.000314108
-0.000316834
0.000308262
-0.00033084
0.000282872
-0.000359882
0.000278671
-0.000314145
0.0003146
-0.000447763
4.33747e-05
-0.00033728
0.000739109
-0.000379367
-0.000735207
-0.000235361
0.00169887
-0.00168256
-0.00105624
0.00250634
-0.00134365
-0.00255489
0.00389889
-0.00448212
0.00207296
0.000670249
-0.00528075
0.00652826
-0.00778252
0.00577142
-0.00540502
0.00274476
-0.00106415
0.252493
0.252493
1
1.0412
1.09915
1.08858
1.11074
1.08661
1.06832
1.07164
1.02372
1.05228
0.998204
1.00068
1.0302
0.976236
0.965514
1.00386
0.980627
1.00439
1.04156
1.02621
0.991373
1.01025
1.00278
0.955243
0.889056
0.833257
0.721727
0.556131
0.360665
0.207774
0.0996579
0.0475519
0.0157428
0.00895583
-0.000136319
0.00303599
-0.00215347
0.0024032
-0.00233722
0.00235355
-0.00234975
0.00235058
-0.00235041
0.00235044
-0.00235044
0.00235044
-0.00235044
0.00235044
-0.00235044
0.00235044
-0.00235044
0.00235044
-0.00235044
0.00235044
-0.00235044
0.00235044
-0.00235044
0.00235044
-0.00235044
0.00235044
-0.00235044
0.00235044
-0.00235045
0.0023504
-0.0023506
0.00234978
-0.00235274
0.00234358
-0.00236727
0.00231805
-0.00239477
0.00231759
-0.00234745
0.00234425
-0.00249576
0.00208849
-0.00233246
0.00276799
-0.00250795
0.0013222
-0.0020969
0.00361297
-0.00392082
0.00136621
0.00042734
0.000202494
-0.00403273
0.00564716
-0.00662806
0.00488985
-0.0026839
-0.00205106
0.00402968
-0.0060635
0.00470158
-0.00472772
0.00238349
-0.00310942
-0.251631
-0.251631
1
1.03714
1.08817
1.08481
1.09792
1.08597
1.05921
1.06903
1.01646
1.04883
0.993287
0.989873
1.02195
0.977857
0.951174
0.992094
0.968295
0.993334
1.03029
1.02721
0.987347
1.00757
0.999396
0.959724