# vtk DataFile Version 2.0
FlowField
ASCII
DATASET STRUCTURED_GRID
DIMENSIONS 100 1 100
POINTS 10000 float
0 0 0
0.01 0 0
0.02 0 0
0.03 0 0
0.04 0 0
0.05 0 0
0.06 0 0
0.07 0 0
0.08 0 0
0.09 0 0
0.1 0 0
0.11 0 0
0.12 0 0
0.13 0 0
0.14 0 0
0.15 0 0
0.16 0 0
0.17 0 0
0.18 0 0
0.19 0 0
0.2 0 0
0.21 0 0
0.22 0 0
0.23 0 0
0.24 0 0
0.25 0 0
0.26 0 0
0.27 0 0
0.28 0 0
0.29 0 0
0.3 0 0
0.31 0 0
0.32 0 0
0.33 0 0
0.34 0 0
0.35 0 0
0.36 0 0
0.37 0 0
0.38 0 0
0.39 0 0
0.4 0 0
0.41 0 0
0.42 0 0
0.43 0 0
0.44 0 0
0.45 0 0
0.46 0 0
0.47 0 0
0.48 0 0
0.49 0 0
0.5 0 0
0.51 0 0
0.52 0 0
0.53 0 0
0.54 0 0
0.55 0 0
0.56 0 0
0.57 0 0
0.58 0 0
0.59 0 0
0.6 0 0
0.61 0 0
0.62 0 0
0.63 0 0
0.64 0 0
0.65 0 0
0.66 0 0
0.67 0 0
0.68 0 0
0.69 0 0
0.7 0 0
0.71 0 0
0.72 0 0
0.73 0 0
0.74 0 0
0.75 0 0
0.76 0 0
0.77 0 0
0.78 0 0
0.79 0 0
0.8 0 0
0.81 0 0
0.82 0 0
0.83 0 0
0.84 0 0
0.85 0 0
0.86 0 0
0.87 0 0
0.88 0 0
0.89 0 0
0.9 0 0
0.91 0 0
0.92 0 0
0.93 0 0
0.94 0 0
0.95 0 0
0.96 0 0
0.97 0 0
0.98 0 0
0.99 0 0
0 0.001 0
0.01 0.001 0
0.02 0.001 0
0.03 0.001 0
0.04 0.001 0
0.05 0.001 0
0.06 0.001 0
0.07 0.001 0
0.08 0.001 0
0.09 0.001 0
0.1 0.001 0
0.11 0.001 0
0.12 0.001 0
0.13 0.001 0
0.14 0.001 0
0.15 0.001 0
0.16 0.001 0
0.17 0.001 0
0.18 0.001 0
0.19 0.001 0
0.2 0.001 0
0.21 0.001 0
0.22 0.001 0
0.23 0.001 0
0.24 0.001 0
0.25 0.001 0
0.26 0.001 0
0.27 0.001 0
0.28 0.001 0
0.29 0.001 0
0.3 0.001 0
0.31 0.001 0
0.32 0.001 0
0.33 0.001 0
0.34 0.001 0
0.35 0.001 0
0.36 0.001 0
0.37 0.001 0
0.38 0.001 0
0.39 0.001 0
0.4 0.001 0
0.41 0.001 0
0.42 0.001 0
0.43 0.001 0
0.44 0.001 0
0.45 0.001 0
0.46 0.001 0
0.47 0.001 0
0.48 0.001 0
0.49 0.001 0
0.5 0.001 0
0.51 0.001 0
0.52 0.001 0
0.53 0.001 0
0.54 0.001 0
0.55 0.001 0
0.56 0.001 0
0.57 0.001 0
0.58 0.001 0
0.59 0.001 0
0.6 0.001 0
0.61 0.001 0
0.62 0.001 0
0.63 0.001 0
0.64 0.001 0
0.65 0.001 0
0.66 0.001 0
0.67 0.001 0
0.68 0.001 0
0.69 0.001 0
0.7 0.001 0
0.71 0.001 0
0.72 0.001 0
0.73 0.001 0
0.74 0.001 0
0.75 0.001 0
0.76 0.001 0
0.77 0.001 0
0.78 0.001 0
0.79 0.001 0
0.8 0.001 0
0.81 0.001 0
0.82 0.001 0
0.83 0.001 0
0.84 0.001 0
0.85 0.001 0
0.86 0.001 0
0.87 0.001 0
0.88 0.001 0
0.89 0.001 0
0.9 0.001 0
0.91 0.001 0
0.92 0.001 0
0.93 0.001 0
0.94 0.001 0
0.95 0.001 0
0.96 0.001 0
0.97 0.001 0
0.98 0.001 0
0.99 0.001 0
0 0.002 0
0.01 0.002 0
0.02 0.002 0
0.03 0.002 0
0.04 0.002 0
0.05 0.002 0
0.06 0.002 0
0.07 0.002 0
0.08 0.002 0
0.09 0.002 0
0.1 0.002 0
0.11 0.002 0
0.12 0.002 0
0.13 0.002 0
0.14 0.002 0
0.15 0.002 0
0.16 0.002 0
0.17 0.002 0
0.18 0.002 0
0.19 0.002 0
0.2 0.002 0
0.21 0.002 0
0.22 0.002 0
0.23 0.002 0
0.24 0.002 0
0.25 0.002 0
0.26 0.002 0
0.27 0.002 0
0.28 0.002 0
0.29 0.002 0
0.3 0.002 0
0.31 0.002 0
0.32 0.002 0
0.33 0.002 0
0.34 0.002 0
0.35 0.002 0
0.36 0.002 0
0.37 0.002 0
0.38 0.002 0
0.39 0.002 0
0.4 0.002 0
0.41 0.002 0
0.42 0.002 0
0.43 0.002 0
0.44 0.002 0
0.45 0.002 0
0.46 0.002 0
0.47 0.002 0
0.48 0.002 0
0.49 0.002 0
0.5 0.002 0
0.51 0.002 0
0.52 0.002 0
0.53 0.002 0
0.54 0.002 0
0.55 0.002 0
0.56 0.002 0
0.57 0.002 0
0.58 0.002 0
0.59 0.002 0
0.6 0.002 0
0.61 0.002 0
0.62 0.002 0
0.63 0.002 0
0.64 0.002 0
0.65 0.002 0
0.66 0.002 0
0.67 0.002 0
0.68 0.002 0
0.69 0.002 0
0.7 0.002 0
0.71 0.002 0
0.72 0.002 0
0.73 0.002 0
0.74 0.002 0
0.75 0.002 0
0.76 0.002 0
0.77 0.002 0
0.78 0.002 0
0.79 0.002 0
0.8 0.002 0
0.81 0.002 0
0.82 0.002 0
0.83 0.002 0
0.84 0.002 0
0.85 0.002 0
0.86 0.002 0
0.87 0.002 0
0.88 0.002 0
0.89 0.002 0
0.9 0.002 0
0.91 0.002 0
0.92 0.002 0
0.93 0.002 0
0.94 0.002 0
0.95 0.002 0
0.96 0.002 0
0.97 0.002 0
0.98 0.002 0
0.99 0.002 0
0 0.003 0
0.01 0.003 0
0.02 0.003 0
0.03 0.003 0
0.04 0.003 0
0.05 0.003 0
0.06 0.003 0
0.07 0.003 0
0.08 0.003 0
0.09 0.003 0
0.1 0.003 0
0.11 0.003 0
0.12 0.003 0
0.13 0.003 0
0.14 0.003 0
0.15 0.003 0
0.16 0.003 0
0.17 0.003 0
0.18 0.003 0
0.19 0.003 0
0.2 0.003 0
0.21 0.003 0
0.22 0.003 0
0.23 0.003 0
0.24 0.003 0
0.25 0.003 0
0.26 0.003 0
0.27 0.003 0
0.28 0.003 0
0.29 0.003 0
0.3 0.003 0
0.31 0.003 0
0.32 0.003 0
0.33 0.003 0
0.34 0.003 0
0.35 0.003 0
0.36 0.003 0
0.37 0.003 0
0.38 0.003 0
0.39 0.003 0
0.4 0.003 0
0.41 0.003 0
0.42 0.003 0
0.43 0.003 0
0.44 0.003 0
0.45 0.003 0
0.46 0.003 0
0.47 0.003 0
0.48 0.003 0
0.49 0.003 0
0.5 0.003 0
0.51 0.003 0
0.52 0.003 0
0.53 0.003 0
0.54 0.003 0
0.55 0.003 0
0.56 0.003 0
0.57 0.003 0
0.58 0.003 0
0.59 0.003 0
0.6 0.003 0
0.61 0.003 0
0.62 0.003 0
0.63 0.003 0
0.64 0.003 0
0.65 0.003 0
0.66 0.003 0
0.67 0.003 0
0.68 0.003 0
0.69 0.003 0
0.7 0.003 0
0.71 0.003 0
0.72 0.003 0
0.73 0.003 0
0.74 0.003 0
0.75 0.003 0
0.76 0.003 0
0.77 0.003 0
0.78 0.003 0
0.79 0.003 0
0.8 0.003 0
0.81 0.003 0
0.82 0.003 0
0.83 0.003 0
0.84 0.003 0
0.85 0.003 0
0.86 0.003 0
0.87 0.003 0
0.88 0.003 0
0.89 0.003 0
0.9 0.003 0
0.91 0.003 0
0.92 0.003 0
0.93 0.003 0
0.94 0.003 0
0.95 0.003 0
0.96 0.003 0
0.97 0.003 0
0.98 0.003 0
0.99 0.003 0
0 0.004 0
0.01 0.004 0
0.02 0.004 0
0.03 0.004 0
0.04 0.004 0
0.05 0.004 0
0.06 0.004 0
0.07 0.004 0
0.08 0.004 0
0.09 0.004 0
0.1 0.004 0
0.11 0.004 0
0.12 0.004 0
0.13 0.004 0
0.14 0.004 0
0.15 0.004 0
0.16 0.004 0
0.17 0.004 0
0.18 0.004 0
0.19 0.004 0
0.2 0.004 0
0.21 0.004 0
0.22 0.004 0
0.23 0.004 0
0.24 0.004 0
0.25 0.004 0
0.26 0.004 0
0.27 0.004 0
0.28 0.004 0
0.29 0.004 0
0.3 0.004 0
0.31 0.004 0
0.32 0.004 0
0.33 0.004 0
0.34 0.004 0
0.35 0.004 0
0.36 0.004 0
0.37 0.004 0
0.38 0.004 0
0.39 0.004 0
0.4 0.004 0
0.41 0.004 0
0.42 0.004 0
0.43 0.004 0
0.44 0.004 0
0.45 0.004 0
0.46 0.004 0
0.47 0.004 0
0.48 0.004 0
0.49 0.004 0
0.5 0.004 0
0.51 0.004 0
0.52 0.004 0
0.53 0.004 0
0.54 0.004 0
0.55 0.004 0
0.56 0.004 0
0.57 0.004 0
0.58 0.004 0
0.59 0.004 0
0.6 0.004 0
0.61 0.004 0
0.62 0.004 0
0.63 0.004 0
0.64 0.004 0
0.65 0.004 0
0.66 0.004 0
0.67 0.004 0
0.68 0.004 0
0.69 0.004 0
0.7 0.004 0
0.71 0.004 0
0.72 0.004 0
0.73 0.004 0
0.74 0.004 0
0.75 0.004 0
0.76 0.004 0
0.77 0.004 0
0.78 0.004 0
0.79 0.004 0
0.8 0.004 0
0.81 0.004 0
0.82 0.004 0
0.83 0.004 0
0.84 0.004 0
0.85 0.004 0
0.86 0.004 0
0.87 0.004 0
0.88 0.004 0
0.89 0.004 0
0.9 0.004 0
0.91 0.004 0
0.92 0.004 0
0.93 0.004 0
0.94 0.004 0
0.95 0.004 0
0.96 0.004 0
0.97 0.004 0
0.98 0.004 0
0.99 0.004 0
0 0.005 0
0.01 0.005 0
0.02 0.005 0
0.03 0.005 0
0.04 0.005 0
0.05 0.005 0
0.06 0.005 0
0.07 0.005 0
0.08 0.005 0
0.09 0.005 0
0.1 0.005 0
0.11 0.005 0
0.12 0.005 0
0.13 0.005 0
0.14 0.005 0
0.15 0.005 0
0.16 0.005 0
0.17 0.005 0
0.18 0.005 0
0.19 0.005 0
0.2 0.005 0
0.21 0.005 0
0.22 0.005 0
0.23 0.005 0
0.24 0.005 0
0.25 0.005 0
0.26 0.005 0
0.27 0.005 0
0.28 0.005 0
0.29 0.005 0
0.3 0.005 0
0.31 0.005 0
0.32 0.005 0
0.33 0.005 0
0.34 0.005 0
0.35 0.005 0
0.36 0.005 0
0.37 0.005 0
0.38 0.005 0
0.39 0.005 0
0.4 0.005 0
0.41 0.005 0
0.42 0.005 0
0.43 0.005 0
0.44 0.005 0
0.45 0.005 0
0.46 0.005 0
0.47 0.005 0
0.48 0.005 0
0.49 0.005 0
0.5 0.005 0
0.51 0.005 0
0.52 0.005 0
0.53 0.005 0
0.54 0.005 0
0.55 0.005 0
0.56 0.005 0
0.57 0.005 0
0.58 0.005 0
0.59 0.005 0
0.6 0.005 0
0.61 0.005 0
0.62 0.005 0
0.63 0.005 0
0.64 0.005 0
0.65 0.005 0
0.66 0.005 0
0.67 0.005 0
0.68 0.005 0
0.69 0.005 0
0.7 0.005 0
0.71 0.005 0
0.72 0.005 0
0.73 0.005 0
0.74 0.005 0
0.75 0.005 0
0.76 0.005 0
0.77 0.005 0
0.78 0.005 0
0.79 0.005 0
0.8 0.005 0
0.81 0.005 0
0.82 0.005 0
0.83 0.005 0
0.84 0.005 0
0.85 0.005 0
0.86 0.005 0
0.87 0.005 0
0.88 0.005 0
0.89 0.005 0
0.9 0.005 0
0.91 0.005 0
0.92 0.005 0
0.93 0.005 0
0.94 0.005 0
0.95 0.005 0
0.96 0.005 0
0.97 0.005 0
0.98 0.005 0
0.99 0.005 0
0 0.006 0
0.01 0.006 0
0.02 0.006 0
0.03 0.006 0
0.04 0.006 0
0.05 0.006 0
0.06 0.006 0
0.07 0.006 0
0.08 0.006 0
0.09 0.006 0
0.1 0.006 0
0.11 0.006 0
0.12 0.006 0
0.13 0.006 0
0.14 0.006 0
0.15 0.006 0
0.16 0.006 0
0.17 0.006 0
0.18 0.006 0
0.19 0.006 0
0.2 0.006 0
0.21 0.006 0
0.22 0.006 0
0.23 0.006 0
0.24 0.006 0
0.25 0.006 0
0.26 0.006 0
0.27 0.006 0
0.28 0.006 0
0.29 0.006 0
0.3 0.006 0
0.31 0.006 0
0.32 0.006 0
0.33 0.006 0
0.34 0.006 0
0.35 0.006 0
0.36 0.006 0
0.37 0.006 0
0.38 0.006 0
0.39 0.006 0
0.4 0.006 0
0.41 0.006 0
0.42 0.006 0
0.43 0.006 0
0.44 0.006 0
0.45 0.006 0
0.46 0.006 0
0.47 0.006 0
0.48 0.006 0
0.49 0.006 0
0.5 0.006 0
0.51 0.006 0
0.52 0.006 0
0.53 0.006 0
0.54 0.006 0
0.55 0.006 0
0.56 0.006 0
0.57 0.006 0
0.58 0.006 0
0.59 0.006 0
0.6 0.006 0
0.61 0.006 0
0.62 0.006 0
0.63 0.006 0
0.64 0.006 0
0.65 0.006 0
0.66 0.006 0
0.67 0.006 0
0.68 0.006 0
0.69 0.006 0
0.7 0.006 0
0.71 0.006 0
0.72 0.006 0
0.73 0.006 0
0.74 0.006 0
0.75 0.006 0
0.76 0.006 0
0.77 0.006 0
0.78 0.006 0
0.79 0.006 0
0.8 0.006 0
0.81 0.006 0
0.82 0.006 0
0.83 0.006 0
0.84 0.006 0
0.85 0.006 0
0.86 0.006 0
0.87 0.006 0
0.88 0.006 0
0.89 0.006 0
0.9 0.006 0
0.91 0.006 0
0.92 0.006 0
0.93 0.006 0
0.94 0.006 0
0.95 0.006 0
0.96 0.006 0
0.97 0.006 0
0.98 0.006 0
0.99 0.006 0
0 0.007 0
0.01 0.007 0
0.02 0.007 0
0.03 0.007 0
0.04 0.007 0
0.05 0.007 0
0.06 0.007 0
0.07 0.007 0
0.08 0.007 0
0.09 0.007 0
0.1 0.007 0
0.11 0.007 0
0.12 0.007 0
0.13 0.007 0
0.14 0.007 0
0.15 0.007 0
0.16 0.007 0
0.17 0.007 0
0.18 0.007 0
0.19 0.007 0
0.2 0.007 0
0.21 0.007 0
0.22 0.007 0
0.23 0.007 0
0.24 0.007 0
0.25 0.007 0
0.26 0.007 0
0.27 0.007 0
0.28 0.007 0
0.29 0.007 0
0.3 0.007 0
0.31 0.007 0
0.32 0.007 0
0.33 0.007 0
0.34 0.007 0
0.35 0.007 0
0.36 0.007 0
0.37 0.007 0
0.38 0.007 0
0.39 0.007 0
0.4 0.007 0
0.41 0.007 0
0.42 0.007 0
0.43 0.007 0
0.44 0.007 0
0.45 0.007 0
0.46 0.007 0
0.47 0.007 0
0.48 0.007 0
0.49 0.007 0
0.5 0.007 0
0.51 0.007 0
0.52 0.007 0
0.53 0.007 0
0.54 0.007 0
0.55 0.007 0
0.56 0.007 0
0.57 0.007 0
0.58 0.007 0
0.59 0.007 0
0.6 0.007 0
0.61 0.007 0
0.62 0.007 0
0.63 0.007 0
0.64 0.007 0
0.65 0.007 0
0.66 0.007 0
0.67 0.007 0
0.68 0.007 0
0.69 0.007 0
0.7 0.007 0
0.71 0.007 0
0.72 0.007 0
0.73 0.007 0
0.74 0.007 0
0.75 0.007 0
0.76 0.007 0
0.77 0.007 0
0.78 0.007 0
0.79 0.007 0
0.8 0.007 0
0.81 0.007 0
0.82 0.007 0
0.83 0.007 0
0.84 0.007 0
0.85 0.007 0
0.86 0.007 0
0.87 0.007 0
0.88 0.007 0
0.89 0.007 0
0.9 0.007 0
0.91 0.007 0
0.92 0.007 0
0.93 0.007 0
0.94 0.007 0
0.95 0.007 0
0.96 0.007 0
0.97 0.007 0
0.98 0.007 0
[...]
POINT_DATA 10000

SCALARS vel_X float 1
LOOKUP_TABLE default
0
0
0
0
0
0
0
0
0
0
0
0
0
0
0
0
0
0
0
0
0
0
0
0
0
0
0
0
0
0
0
0
0
0
0
0
0
0
0
0
0
0
0
0
0
0
0
0
0
0
0
0
0
0
0
0
0
0
0
0
0
0
0
0
0
0
0
0
0
0
0
0
0
0
0
0
0
0
0
0
0
0
0
0
0
0
0
0
0
0
0
0
0
0
0
0
0
0
0
0
1
0.315269
0.218901
0.112041
0.160939
0.0690715
0.120164
0.084223
0.0654191
0.103281
0.0480067
0.0806407
0.0699804
0.0375291
0.105477
0.0312011
0.0423376
0.103436
0.0705086
0.0318309
0.0915952
0.074476
0.0762329
0.126934
0.182595
0.152794
0.168705
0.206301
0.248214
0.229175
0.249596
0.279044
0.321698
0.28444
0.226345
0.13362
0.0836502
0.0315325
0.0232134
0.000449588
0.00894479
-0.00549552
0.00667315
-0.00629766
0.00640991
-0.00637834
0.00638672
-0.00638462
0.00638512
-0.006385
0.00638503
-0.00638502
0.00638502
-0.00638502
0.00638502
-0.00638503
0.00638501
-0.00638507
0.00638486
-0.00638561
0.00638319
-0.00638993
0.00637417
-0.00640382
0.00636267
-0.00639525
0.00640188
-0.00636673
0.00632223
-0.0065458
0.00635791
-0.00604461
0.00660791
-0.0070738
0.00575457
-0.00516666
0.00717595
-0.00877809
0.00635904
-0.0027482
0.00340417
-0.00900414
0.0121713
-0.0103905
0.00520606
0.000316052
-0.00361023
0.000578458
0.00688696
-0.0150012
0.0192794
-0.0203062
0.0182077
-0.0154564
0.0116649
-0.0087575
0.00509582
-0.00634924
-0.229363
-0.229363
1
0.553815
0.399546
0.239213
0.290985
0.159706
0.228759
0.166563
0.151988
0.188226
0.120192
0.161485
0.143254
0.104326
0.194013
0.0890612
0.118716
0.193734
0.149998
0.105194
0.192915
0.168535
0.18813
0.264901
0.344387
0.304668
0.340938
0.396225
0.456512
0.428921
0.464737
0.500169
0.54516
0.464059
0.359581
0.208253
0.129302
0.0477025
0.0357486
9.56339e-05
0.014065
-0.0088867
0.010649
-0.0100886
0.0102558
-0.0102088
0.0102213
-0.0102181
0.0102189
-0.0102187
0.0102188
-0.0102187
0.0102187
-0.0102187
0.0102187
-0.0102188
0.0102187
-0.0102188
0.0102185
-0.0102196
0.010216
-0.0102262
0.0102021
-0.0102481
0.0101821
-0.0102399
0.0102372
-0.0101928
0.0101324
-0.0104578
0.0101443
-0.00975913
0.0105883
-0.0111283
0.00921822
-0.00866371
0.0115143
-0.0133856
0.00976866
-0.00521316
0.0066795
-0.0143559
0.0178467
-0.0148658
0.00777107
-0.000997369
-0.00260933
-0.002234
0.0121039
-0.0224679
0.0272937
-0.0281534
0.0247401
-0.0209351
0.0155174
-0.0117771
0.00660975
-0.00443917
0.339984
0.339984
1
0.726026
0.551719
0.367804
0.400328
0.266339
0.318931
0.26147
0.236209
0.272775
0.202008
0.242385
0.222826
0.183543
0.273562
0.174333
0.198265
0.281394
0.241119
0.201085
0.291549
0.279305
0.305208
0.396209
0.483385
0.454289
0.49457
0.560657
0.622742
0.599183
0.629967
0.660938
0.684101
0.575935
0.433777
0.255355
0.15217
0.0609613
0.0394272
0.00369046
0.0133575
-0.00711578
0.00924372
-0.00856576
0.00876847
-0.00871143
0.00872659
-0.00872278
0.00872369
-0.00872348
0.00872352
-0.00872352
0.00872352
-0.00872352
0.00872352
-0.00872352
0.0087235
-0.00872359
0.00872322
-0.00872458
0.0087202
-0.00873241
0.00870364
-0.00875875
0.00867891
-0.00875184
0.00873891
-0.00870041
0.00862127
-0.00899464
0.00863365
-0.00823154
0.00911308
-0.00970951
0.00765757
-0.00708575
0.010029
-0.0120509
0.00834924
-0.00363343
0.00488398
-0.0127805
0.0164199
-0.0137222
0.00664819
5.69855e-05
-0.00423488
-2.46901e-05
0.00928028
-0.0199815
0.0253173
-0.0271456
0.024123
-0.0209059
0.0153998
-0.012018
0.00649234
-0.00681753
-0.296562
-0.296562
1
0.846239
0.680053
0.488783
0.498066
0.376696
0.398268
0.362841
0.314906
0.360018
0.285098
0.323783
0.30625
0.265645
0.35076
0.273396
0.273766
0.369212
0.338035
0.303605
0.384885
0.393991
0.413147
0.512681
0.601641
0.59171
0.621999
0.695385
0.750934
0.735612
0.746258
0.768719
0.76351
0.645266
0.474899
0.288634
0.163754
0.0736008
0.0386348
0.00977305
0.00945274
-0.00238125
0.0048036
-0.00402816
0.00426114
-0.00419527
0.00421286
-0.00420841
0.00420948
-0.00420924
0.00420929
-0.00420928
0.00420928
-0.00420928
0.00420928
-0.00420929
0.00420926
-0.00420937
0.00420894
-0.0042105
0.00420553
-0.00421923
0.00418727
-0.00424789
0.00416077
-0.00424068
0.00422167
-0.00419463
0.00408976
-0.0044916
0.00413546
-0.00370648
0.00453472
-0.0052573
0.00325953
-0.00249706
0.00521711
-0.00757019
0.0043469
0.00049185
-0.000207348
-0.00728533
0.0115224
-0.00996681
0.00355799
0.00296738
-0.00830786
0.00592797
0.00161949
-0.0123339
0.0187367
-0.022434
0.0208082
-0.0189642
0.0140436
-0.0114214
0.00600521
-0.00370392
0.314895
0.314895
1
0.928504
0.786036
0.599197
0.586924
0.483694
0.472141
0.462811
0.390096
0.44692
0.365925
0.404603
0.389627
0.346657
0.425867
0.375203
0.345211
0.454459
0.433262
0.403727
0.470753
0.501846
0.506583
0.61141
0.69941
0.709618
0.722517
0.800563
0.845551
0.838094
0.822054
0.836194
0.80519
0.688882
0.498752
0.314598
0.170499
0.0857906
0.0362338
0.0167488
0.00443274
0.00340847
-0.000705318
0.00157605
-0.00131283
0.0013877
-0.00136759
0.0013727
-0.00137147
0.00137175
-0.00137169
0.0013717
-0.0013717
0.0013717
-0.0013717
0.00137169
-0.00137172
0.0013716
-0.00137209
0.00137034
-0.00137584
0.00136086
-0.00139532
0.00133102
-0.00142167
0.00134025
-0.00136088
0.00137574
-0.00151039
0.00108722
-0.00141018
0.00188385
-0.00115064
0.00025144
-0.00212564
0.00318658
-0.000786836
-0.00201312
-0.000533276
0.00554822
-0.00652474
-0.000405958
0.00549945
-0.00533226
-0.000306578
0.00667566
-0.0132736
0.0130914
-0.00757054
-0.00295258
0.0105244
-0.0163311
0.0164779
-0.0162902
0.0122456
-0.0105075
0.00538377
-0.00601406
-0.305606
-0.305606
1
0.984263
0.870837
0.698742
0.666501
0.584512
0.5419
0.55685
0.46269
0.530136
0.442834
0.482773
0.469747
0.424763
0.496001
0.473693
0.412792
0.53311
0.520959
0.496986
0.546636
0.597043
0.58416
0.691915
0.776197
0.805406
0.798247
0.879062
0.911227
0.911053
0.867728
0.876331
0.824369
0.717619
0.513731
0.336725
0.175304
0.0976905
0.0334014
0.0239768
-0.000861872
0.00948202
-0.00648912
0.00745986
-0.00716445
0.00724901
-0.00722616
0.007232
-0.00723058
0.00723091
-0.00723084
0.00723085
-0.00723085
0.00723085
-0.00723085
0.00723084
-0.00723088
0.00723074
-0.00723129
0.00722934
-0.00723539
0.00721917
-0.00725584
0.00718878
-0.00728089
0.00720126
-0.00722035
0.00722375
-0.00738904
0.00694928
-0.00722461
0.00775164
-0.0071294
0.00603929
-0.00776032
0.00914698
-0.00709951
0.00385537
-0.00567168
0.0108104
-0.013074
0.0068085
-0.000878459
-0.000313271
-0.00454606
0.0106396
-0.0181934
0.0200662
-0.016739
0.00685794
0.00152531
-0.00925479
0.0112472
-0.0128389
0.00989274
-0.00916388
0.00456497
-0.00284568
0.311648
0.311648
1
1.02192
0.936365
0.787578
0.736149
0.677848
0.607133
0.643002
0.531977
0.607625
0.514642
0.556116
0.54452
0.498645
0.558244
0.565747
0.475891
0.602135
0.597598
0.58111
0.610854
0.677523
0.646263
0.754839
0.83239
0.879726
0.852523
0.935005
0.953173
0.960975
0.892839
0.899507
0.830706
0.737961
0.524046
0.356847
0.179355
0.10948
0.030528
0.0312877
-0.006181
0.0156171
-0.0123164
0.0133947
-0.0130643
0.0131595
-0.0131336
0.0131402
-0.0131386
0.013139
-0.0131389
0.0131389
-0.0131389
0.0131389
-0.0131389
0.0131389
-0.0131389
0.0131388
-0.0131394
0.0131372
-0.0131439
0.0131264
-0.0131652
0.0130959
-0.0131882
0.0131123
-0.0131281
0.0131206
-0.0133156
0.0128646
-0.0130843
0.0136635
-0.0131617
0.0118915
-0.0134336
0.0151238
-0.0134571
0.00984654
-0.0109156
0.0160315
-0.0195014
0.0140545
-0.00746555
0.00500465
-0.00905011
0.0146684
-0.0227263
0.0263411
-0.0253422
0.0166935
-0.00809625
-0.00115567
0.00492474
-0.00836989
0.00675046
-0.00720779
0.00336136
-0.00492247
-0.306951
-0.306951
1
1.0473
0.985178
0.865728
0.795943
0.762614
0.667286
0.72045
0.596669
0.678373
0.580448
0.622807
0.612744
0.567184
0.610878
0.649401
0.533809
0.660022
0.661579
0.654843
0.66312
0.743274
0.694203
0.801484
0.86975
0.934774
0.889217
0.972788
0.976959
0.994197
0.905071
0.912792
0.830113
0.753409
0.531886
0.375728
0.183252
0.12114
0.0278648
0.0385189
-0.0113298
0.0216303
-0.0179998
0.0191945
-0.0188258
0.0189328
-0.0189035
0.0189111
-0.0189092
0.0189097
-0.0189096
0.0189096
-0.0189096
0.0189096
-0.0189096
0.0189096
-0.0189096
0.0189094
-0.0189101
0.0189077
-0.0189149
0.0188962
-0.018937
0.0188658
-0.0189575
0.0188864
-0.0188984
0.0188799
-0.0191029
0.018647
-0.0188057
0.0194296
-0.0190573
0.0176309
-0.0189648
0.020914
-0.0196626
0.0157942
-0.0161075
0.0210135
-0.0255716
0.0211264
-0.0141118
0.0104631
-0.0136493
0.0186141
-0.026725
0.0316849
-0.0330499
0.0261945
-0.0180612
0.00781327
-0.00245834
-0.00284396
0.00274604
-0.00457467
0.00176066
-0.00137244
0.310803
0.310803
1
1.06431
1.0201
0.933138
0.846624
0.837777
0.722121
0.788811
0.65568
0.741815
0.639813
0.681495
0.673812
0.629587
0.653444
0.72311
0.586327
0.706516
0.712672
0.717533
0.704355
0.795208
0.729902
0.833605
0.891092
0.973187
0.912318
0.996487
0.987911
1.01578
0.910065
0.920434
0.826208
0.765601
0.538546
0.393463
0.18748
0.132411
0.025756
0.0453591
-0.0159838
0.0272025
-0.0232181
0.024539
-0.0241285
0.0242484
-0.0242154
0.024224
-0.0242218
0.0242223
-0.0242222
0.0242222
-0.0242222
0.0242222
-0.0242222
0.0242222
-0.0242223
0.0242221
-0.0242229
0.0242202
-0.024228
0.024208
-0.0242508
0.024178
-0.0242685
0.0242027
-0.0242111
0.024181
-0.02443
0.0239759
-0.02407
0.0247273
-0.0244938
0.0229404
-0.0240367
0.0261916
-0.0253888
0.0213783
-0.020941
0.0254479
-0.0309524
0.0276818
-0.0204863
0.015723
-0.0180201
0.022226
-0.0300041
0.0358469
-0.0394459
0.0348048
-0.0278055
0.0171839
-0.0105762
0.00353293
-0.00200638
-0.00133113
-0.000257293
-0.00302529
-0.30776
-0.30776
1
1.07551
1.0439
0.989819
0.889294
0.902562
0.771643
0.847978
0.708393
0.797511
0.692862
0.731279
0.727512
0.685462
0.686445
0.785638
0.633785
0.74221
0.75159
0.768967
0.736209
0.83461
0.755671
0.853211
0.899719
0.997512
0.925581
1.00953
0.990613
1.02926
0.911702
0.924689
0.821261
0.775123
0.544928
0.409781
0.192533
0.142871
0.0246472
0.0513727
-0.0197025
0.0318961
-0.0275321
0.0289896
-0.0285335
0.0286676
-0.0286304
0.0286402
-0.0286378
0.0286383
-0.0286382
0.0286382
-0.0286382
0.0286382
-0.0286382
0.0286382
-0.0286383
0.028638
-0.0286389
0.028636
-0.0286445
0.0286232
-0.0286678
0.0285937
-0.0286825
0.0286224
-0.0286277
0.028585
-0.0288582
0.0284125
-0.0284396
0.0291172
-0.0290307
0.0273821
-0.028215
0.0305188
-0.0301888
0.0261496
-0.0249893
0.028924
-0.0352065
0.033249
-0.0261188
0.0203192
-0.0217187
0.0251403
-0.0322914
0.0385144
-0.044034
0.0418319
-0.0365672
0.0262587
-0.0188782
0.0103619
-0.0072429
0.00235136
-0.00255171
0.000901581
0.309908
0.309908
1
1.0825
1.05919
1.03593
0.925159
0.956617
0.815949
0.8981
0.75468
0.845035
0.740216
0.771689
0.773892
0.734766
0.711053
0.836105
0.676871
0.768202
0.779676
0.809265
0.760617
0.862897
0.773974
0.86236
0.898946
1.00998
0.932267
1.01455
0.988674
1.03683
0.912524
0.926579
0.816749
0.782038
0.551734
0.424258
0.198899
0.152036
0.0250207
0.056078
-0.0220022
0.0352291
-0.0304589
0.0320639
-0.031558
0.0317079
-0.031666
0.0316771
-0.0316743
0.031675
-0.0316748
0.0316748
-0.0316748
0.0316748
-0.0316748
0.0316748
-0.0316749
0.0316746
-0.0316756
0.0316724
-0.0316816
0.031659
-0.0317054
0.0316302
-0.0317169
0.0316626
-0.0316657
0.0316094
-0.0319045
0.0314736
-0.031433
0.0321169
-0.032183
0.0304724
-0.0310226
0.0334167
-0.0335702
0.0296104
-0.0277809
0.0309945
-0.037858
0.0373062
-0.0304895
0.0237462
-0.0242511
0.0269283
-0.0332659
0.039369
-0.0463364
0.0465766
-0.0435191
0.0342226
-0.0266714
0.0171063
-0.0125839
0.00621582
-0.00501839
-0.00048186
-0.308744
-0.308744
1
1.08627
1.06826
1.07179
0.955375
1.00005
0.855154
0.939541
0.794849
0.883981
0.782814
0.802693
0.813156
0.777692
0.728882
0.874045
0.71637
0.785869
0.798664
0.838791
0.77948
0.881511
0.787195
0.863007
0.891791
1.01246
0.934991
1.01343
0.984729
1.03973
0.914112
0.926455
0.813657
0.786205
0.559519
0.436454
0.207012
0.159446
0.027321
0.0590262
-0.0224339
0.0367538
-0.0315497
0.0333137
-0.0327538
0.0329208
-0.0328739
0.0328863
-0.0328832
0.0328839
-0.0328838
0.0328838
-0.0328838
0.0328838
-0.0328838
0.0328838
-0.0328839
0.0328836
-0.0328846
0.0328812
-0.032891
0.0328671
-0.0329152
0.0328393
-0.0329235
0.0328749
-0.0328768
0.0328059
-0.0331206
0.0327105
-0.0326028
0.0332786
-0.0335001
0.0317611
-0.0320171
0.0344419
-0.0350755
0.0312951
-0.0288759
0.031248
-0.0384699
0.0393671
-0.0331138
0.0255378
-0.0251482
0.0271638
-0.0326176
0.0381559
-0.0459876
0.0484491
-0.0478888
0.0402474
-0.0331989
0.0231443
-0.0175666
0.00993927
-0.00741387
0.00354117
0.308875
0.308875
1
1.08741
1.07309
1.09796
0.980936
1.0334
0.889386
0.972792
0.829569
0.91401
0.821698
0.824713
0.845572
0.814553
0.741791
0.899421
0.752938
0.796714
0.810466
0.858108
0.794449
0.891856
0.79744
0.856933
0.880791
1.00646
0.935664
1.00746
0.980549
1.03862
0.917376
0.924373
0.812621
0.787473
0.568684
0.446024
0.21719
0.164747
0.0318838
0.0598756
-0.0206561
0.0361297
-0.0304631
0.0323983
-0.0317797
0.0319654
-0.0319129
0.0319269
-0.0319234
0.0319242
-0.031924
0.0319241
-0.0319241
0.0319241
-0.0319241
0.0319241
-0.0319241
0.0319238
-0.031925
0.0319212
-0.0319318
0.0319065
-0.0319563
0.0318799
-0.0319612
0.0319183
-0.0319202
0.0318336
-0.0321653
0.0317815
-0.031609
0.0322622
-0.0326386
0.030905
-0.030863
0.0332595
-0.0343557
0.0308447
-0.0279372
0.0293798
-0.036719
0.0390567
-0.0336144
0.0253384
-0.0240422
0.025495
-0.0301083
0.0347422
-0.0428062
0.0470631
-0.0490657
0.043595
-0.0377261
0.0278334
-0.0216891
0.0131596
-0.00955739
0.00204894
-0.309766
-0.309766
1
1.08629
1.07526
1.11517
1.00261
1.05757
0.918809
0.998386
0.859776
0.934929
0.85779
0.838636
0.871407
0.845708
0.751697
0.912644
0.786959
0.802275
0.816986
0.867963
0.806794
0.895272
0.806391
0.845742
0.867921
0.993294
0.935514
0.997499
0.977186
1.0339
0.922723
0.920344
0.813974
0.785813
0.579436
0.45279
0.229577
0.167756
0.0388713
0.0584561
-0.0164998
0.0331887
-0.0270301
0.029149
-0.0284669
0.0286732
-0.0286144
0.0286302
-0.0286262
0.0286272
-0.028627
0.028627
-0.028627
0.028627
-0.028627
0.028627
-0.0286271
0.0286267
-0.028628
0.0286239
-0.0286352
0.0286086
-0.0286599
0.0285833
-0.0286614
0.028624
-0.028627
0.028524
-0.0288699
0.0285174
-0.0282837
0.0289001
-0.0294275
0.0277327
-0.0273967
0.0297074
-0.0312365
0.028072
-0.0247944
0.0252556
-0.0324613
0.0361775
-0.0317858
0.0229683
-0.0207365
0.0217147
-0.0256289
0.029161
-0.036847
0.0423094
-0.046698
0.0437214
-0.0396365
0.0305887
-0.0244679
0.0155157
-0.011169
0.0057195
0.307932
0.307932
1
1.08321
1.07596
1.12445
1.02089
1.0737
0.943651
1.01684
0.886552
0.946791
0.891712
0.845779
0.89089
0.871502
0.760396
0.914583
0.818459
0.804047
0.819963
0.869307
0.81733
0.89303
0.815217
0.830903
0.854574
0.974114
0.935141
0.984225
0.975095
1.02594
0.930159
0.914486
0.817758
0.781392
0.591755
0.456798
0.244091
0.168512
0.0482212
0.0548213
-0.0100201
0.0279862
-0.0213053
0.0236211
-0.0228704
0.0230989
-0.0230334
0.0230512
-0.0230466
0.0230477
-0.0230475
0.0230475
-0.0230475
0.0230475
-0.0230475
0.0230475
-0.0230476
0.0230472
-0.0230486
0.0230442
-0.0230562
0.0230284
-0.0230811
0.0230045
-0.0230791
0.0230468
-0.0230522
0.0229324
-0.0232893
0.0229725
-0.0226825
0.0232487
-0.0239199
0.0222959
-0.021677
0.0238481
-0.0257697
0.0230136
-0.0194953
0.0189619
-0.0257834
0.0307621
-0.0276438
0.0184741
-0.0152646
0.0158201
-0.0192458
0.0216409
-0.0284278
0.0344051
-0.0407688
0.0403715
-0.0385282
0.0309679
-0.0255055
0.0166945
-0.0120857
0.00364665
-0.310562
-0.310562
1
1.07846
1.07596
1.127
1.03604
1.08311
0.964225
1.02862
0.910987
0.949988
0.923657
0.847829
0.904212
0.892247
0.769403
0.906571
0.847092
0.803434
0.820858
0.863313
0.826401
0.886344
0.824554
0.813804
0.841582
0.950068
0.934613
0.968262
0.974248
1.01519
0.939347
0.907105
0.823722
0.774614
0.605366
0.45835
0.260402
0.167307
0.0596193
0.0492754
-0.00152314
0.020829
-0.0135947
0.016121
-0.0152962
0.0155491
-0.0154761
0.015496
-0.0154908
0.0154921
-0.0154918
0.0154919
-0.0154919
0.0154919
-0.0154919
0.0154918
-0.015492
0.0154915
-0.0154931
0.0154883
-0.0155011
0.015472
-0.0155259
0.0154498
-0.0155206
0.0154931
-0.015502
0.0153651
-0.0157297
0.0154524
-0.0151121
0.0156157
-0.0164203
0.0148976
-0.0140133
0.0159955
-0.0182608
0.015958
-0.0123338
0.0108325
-0.0170297
0.0231009
-0.0214529
0.0121552
-0.00792183
0.00805071
-0.0112286
0.0126136
-0.0181291
0.0239067
-0.0316387
0.0336466
-0.0342935
0.028748
-0.0245545
0.01648
-0.0121067
0.00652865
0.307347
0.307347
1
1.07237
1.07563
1.12423
1.04813
1.08714
0.980946
1.03417
0.934021
0.945339
0.953322
0.846732
0.911563
0.908211
0.779832
0.890377
0.872179
0.8017
0.820781
0.851378
0.833913
0.876375
0.834524
0.795792
0.829291
0.922354
0.933569
0.950285
0.974223
1.0023
0.94966
0.89872
0.831347
0.766121
0.619751
0.457997
0.277932
0.164679
0.0725034
0.0423702
0.0084367
0.0122713
-0.00445182
0.00720282
-0.00629822
0.00657745
-0.00649635
0.0065186
-0.00651282
0.00651425
-0.00651391
0.00651399
-0.00651397
0.00651397
-0.00651398
0.00651395
-0.00651407
0.00651359
-0.00651527
0.00651013
-0.00652373
0.00649334
-0.0065484
0.00647298
-0.00653982
0.00651661
-0.00653022
0.00637633
-0.00674504
0.00651027
-0.00612692
0.00655661
-0.00748162
0.00608767
-0.00496156
0.00671158
-0.00926525
0.00744268
-0.00384689
0.00144368
-0.00679691
0.0137401
-0.0137221
0.00455787
0.000734166
-0.00110407
-0.00205287
0.00269549
-0.00675884
0.0116816
-0.0200434
0.0240321
-0.0271677
0.023981
-0.0215695
0.014793
-0.0112076
0.00353349
-0.310885
-0.310885
1
1.06537
1.07504
1.11762
1.05708
1.08706
0.994318
1.03393
0.95632
0.934128
0.979931
0.844536
0.913187
0.91962
0.792315
0.868142
0.892799
0.799924
0.820469
0.835092
0.839426
0.864225
0.84481
0.778176
0.817656
0.89225
0.931345
0.931061
0.974307
0.988056
0.96025
0.890036
0.839887
0.756753
0.634187
0.456506
0.295896
0.161376
0.0861023
0.0348657
0.0190966
0.00307586
0.00536123
-0.00237097
0.00336125
-0.00305346
0.00314346
-0.00311861
0.0031251
-0.00312349
0.00312387
-0.00312378
0.0031238
-0.0031238
0.00312379
-0.00312383
0.00312369
-0.00312422
0.00312239
-0.00312791
0.00311352
-0.00314512
0.00308911
-0.00316356
0.00310081
-0.00312023
0.00310086
-0.00327142
0.00290218
-0.00309212
0.0035107
-0.00316437
0.0021347
-0.00337533
0.0047148
-0.0032334
0.000450758
-0.00178432
0.00522397
-0.008426
0.00410546
0.00344311
-0.00516618
-0.00356744
0.0099228
-0.0109328
0.00762789
-0.00735915
0.00471613
-0.00116518
-0.00703866
0.0123746
-0.0177347
0.0170168
-0.0167355
0.0117174
-0.00937266
0.00544362
0.307315
0.307315
1
1.05793
1.074
1.10866
1.06281
1.08396
1.00492
1.0284
0.978163
0.918088
1.00232
0.843218
0.909447
0.926675
0.806979
0.842272
0.907929
0.798955
0.820304
0.816183
0.842273
0.850918
0.85476
0.762206
0.806358
0.861085
0.927107
0.91142
0.973601
0.973364
0.970133
0.881877
0.848452
0.747477
0.647816
0.454777
0.313378
0.158281
0.099509
0.027657
0.0295579
-0.00585908
0.0149466
-0.0117021
0.0127842
-0.0124456
0.0125453
-0.0125176
0.0125248
-0.012523
0.0125234
-0.0125233
0.0125234
-0.0125234
0.0125234
-0.0125234
0.0125232
-0.0125238
0.0125218
-0.0125278
0.0125126
-0.0125453
0.0124885
-0.0125617
0.0125032
-0.0125194
0.0124932
-0.0126799
0.0123138
-0.0124574
0.0129026
-0.0126474
0.0115309
-0.0125974
0.0141176
-0.0129339
0.00998348
-0.0108366
0.0140046
-0.0178693
0.0147301
-0.0068808
0.00336553
-0.0113422
0.0187151
-0.0205652
0.0170389
-0.0167294
0.0152679
-0.0134028
0.00610134
-0.00019292
-0.00688457
0.00848612
-0.0104666
0.00750551
-0.00678756
0.00153406
-0.310625
-0.310625
1
1.05055
1.07218
1.09868
1.06531
1.07872
1.01337
1.0182
0.999395
0.899321
1.01912
0.844495
0.900896
0.929559
0.823468
0.815294
0.916606
0.799364
0.820366
0.796425
0.841717
0.837353
0.86352
0.749009
0.794942
0.830181
0.919984
0.892193
0.971147
0.959146
0.978295
0.875095
0.856107
0.739285
0.659751
0.453754
0.329426
0.156313
0.11178
0.021676
0.0388848
-0.0135984
0.0233697
-0.0198554
0.0210359
-0.020664
0.0207742
-0.0207433
0.0207515
-0.0207495
0.0207499
-0.0207498
0.0207499
-0.0207499
0.0207498
-0.0207499
0.0207497
-0.0207504
0.0207482
-0.0207545
0.0207385
-0.0207724
0.020715
-0.0207867
0.0207324
-0.020746
0.0207122
-0.020914
0.0205546
-0.0206512
0.0211142
-0.0209559
0.019772
-0.0206475
0.0223127
-0.0214481
0.0183908
-0.018788
0.0215859
-0.0259501
0.0240925
-0.0162744
0.0109865
-0.0178622
0.0261376
-0.029064
0.025365
-0.024617
0.0239227
-0.0238135
0.0180252
-0.01237