# vtk DataFile Version 2.0
FlowField
ASCII
DATASET STRUCTURED_GRID
DIMENSIONS 100 1 100
POINTS 10000 float
0 0 0
0.01 0 0
0.02 0 0
0.03 0 0
0.04 0 0
0.05 0 0
0.06 0 0
0.07 0 0
0.08 0 0
0.09 0 0
0.1 0 0
0.11 0 0
0.12 0 0
0.13 0 0
0.14 0 0
0.15 0 0
0.16 0 0
0.17 0 0
0.18 0 0
0.19 0 0
0.2 0 0
0.21 0 0
0.22 0 0
0.23 0 0
0.24 0 0
0.25 0 0
0.26 0 0
0.27 0 0
0.28 0 0
0.29 0 0
0.3 0 0
0.31 0 0
0.32 0 0
0.33 0 0
0.34 0 0
0.35 0 0
0.36 0 0
0.37 0 0
0.38 0 0
0.39 0 0
0.4 0 0
0.41 0 0
0.42 0 0
0.43 0 0
0.44 0 0
0.45 0 0
0.46 0 0
0.47 0 0
0.48 0 0
0.49 0 0
0.5 0 0
0.51 0 0
0.52 0 0
0.53 0 0
0.54 0 0
0.55 0 0
0.56 0 0
0.57 0 0
0.58 0 0
0.59 0 0
0.6 0 0
0.61 0 0
0.62 0 0
0.63 0 0
0.64 0 0
0.65 0 0
0.66 0 0
0.67 0 0
0.68 0 0
0.69 0 0
0.7 0 0
0.71 0 0
0.72 0 0
0.73 0 0
0.74 0 0
0.75 0 0
0.76 0 0
0.77 0 0
0.78 0 0
0.79 0 0
0.8 0 0
0.81 0 0
0.82 0 0
0.83 0 0
0.84 0 0
0.85 0 0
0.86 0 0
0.87 0 0
0.88 0 0
0.89 0 0
0.9 0 0
0.91 0 0
0.92 0 0
0.93 0 0
0.94 0 0
0.95 0 0
0.96 0 0
0.97 0 0
0.98 0 0
0.99 0 0
0 0.001 0
0.01 0.001 0
0.02 0.001 0
0.03 0.001 0
0.04 0.001 0
0.05 0.001 0
0.06 0.001 0
0.07 0.001 0
0.08 0.001 0
0.09 0.001 0
0.1 0.001 0
0.11 0.001 0
0.12 0.001 0
0.13 0.001 0
0.14 0.001 0
0.15 0.001 0
0.16 0.001 0
0.17 0.001 0
0.18 0.001 0
0.19 0.001 0
0.2 0.001 0
0.21 0.001 0
0.22 0.001 0
0.23 0.001 0
0.24 0.001 0
0.25 0.001 0
0.26 0.001 0
0.27 0.001 0
0.28 0.001 0
0.29 0.001 0
0.3 0.001 0
0.31 0.001 0
0.32 0.001 0
0.33 0.001 0
0.34 0.001 0
0.35 0.001 0
0.36 0.001 0
0.37 0.001 0
0.38 0.001 0
0.39 0.001 0
0.4 0.001 0
0.41 0.001 0
0.42 0.001 0
0.43 0.001 0
0.44 0.001 0
0.45 0.001 0
0.46 0.001 0
0.47 0.001 0
0.48 0.001 0
0.49 0.001 0
0.5 0.001 0
0.51 0.001 0
0.52 0.001 0
0.53 0.001 0
0.54 0.001 0
0.55 0.001 0
0.56 0.001 0
0.57 0.001 0
0.58 0.001 0
0.59 0.001 0
0.6 0.001 0
0.61 0.001 0
0.62 0.001 0
0.63 0.001 0
0.64 0.001 0
0.65 0.001 0
0.66 0.001 0
0.67 0.001 0
0.68 0.001 0
0.69 0.001 0
0.7 0.001 0
0.71 0.001 0
0.72 0.001 0
0.73 0.001 0
0.74 0.001 0
0.75 0.001 0
0.76 0.001 0
0.77 0.001 0
0.78 0.001 0
0.79 0.001 0
0.8 0.001 0
0.81 0.001 0
0.82 0.001 0
0.83 0.001 0
0.84 0.001 0
0.85 0.001 0
0.86 0.001 0
0.87 0.001 0
0.88 0.001 0
0.89 0.001 0
0.9 0.001 0
0.91 0.001 0
0.92 0.001 0
0.93 0.001 0
0.94 0.001 0
0.95 0.001 0
0.96 0.001 0
0.97 0.001 0
0.98 0.001 0
0.99 0.001 0
0 0.002 0
0.01 0.002 0
0.02 0.002 0
0.03 0.002 0
0.04 0.002 0
0.05 0.002 0
0.06 0.002 0
0.07 0.002 0
0.08 0.002 0
0.09 0.002 0
0.1 0.002 0
0.11 0.002 0
0.12 0.002 0
0.13 0.002 0
0.14 0.002 0
0.15 0.002 0
0.16 0.002 0
0.17 0.002 0
0.18 0.002 0
0.19 0.002 0
0.2 0.002 0
0.21 0.002 0
0.22 0.002 0
0.23 0.002 0
0.24 0.002 0
0.25 0.002 0
0.26 0.002 0
0.27 0.002 0
0.28 0.002 0
0.29 0.002 0
0.3 0.002 0
0.31 0.002 0
0.32 0.002 0
0.33 0.002 0
0.34 0.002 0
0.35 0.002 0
0.36 0.002 0
0.37 0.002 0
0.38 0.002 0
0.39 0.002 0
0.4 0.002 0
0.41 0.002 0
0.42 0.002 0
0.43 0.002 0
0.44 0.002 0
0.45 0.002 0
0.46 0.002 0
0.47 0.002 0
0.48 0.002 0
0.49 0.002 0
0.5 0.002 0
0.51 0.002 0
0.52 0.002 0
0.53 0.002 0
0.54 0.002 0
0.55 0.002 0
0.56 0.002 0
0.57 0.002 0
0.58 0.002 0
0.59 0.002 0
0.6 0.002 0
0.61 0.002 0
0.62 0.002 0
0.63 0.002 0
0.64 0.002 0
0.65 0.002 0
0.66 0.002 0
0.67 0.002 0
0.68 0.002 0
0.69 0.002 0
0.7 0.002 0
0.71 0.002 0
0.72 0.002 0
0.73 0.002 0
0.74 0.002 0
0.75 0.002 0
0.76 0.002 0
0.77 0.002 0
0.78 0.002 0
0.79 0.002 0
0.8 0.002 0
0.81 0.002 0
0.82 0.002 0
0.83 0.002 0
0.84 0.002 0
0.85 0.002 0
0.86 0.002 0
0.87 0.002 0
0.88 0.002 0
0.89 0.002 0
0.9 0.002 0
0.91 0.002 0
0.92 0.002 0
0.93 0.002 0
0.94 0.002 0
0.95 0.002 0
0.96 0.002 0
0.97 0.002 0
0.98 0.002 0
0.99 0.002 0
0 0.003 0
0.01 0.003 0
0.02 0.003 0
0.03 0.003 0
0.04 0.003 0
0.05 0.003 0
0.06 0.003 0
0.07 0.003 0
0.08 0.003 0
0.09 0.003 0
0.1 0.003 0
0.11 0.003 0
0.12 0.003 0
0.13 0.003 0
0.14 0.003 0
0.15 0.003 0
0.16 0.003 0
0.17 0.003 0
0.18 0.003 0
0.19 0.003 0
0.2 0.003 0
0.21 0.003 0
0.22 0.003 0
0.23 0.003 0
0.24 0.003 0
0.25 0.003 0
0.26 0.003 0
0.27 0.003 0
0.28 0.003 0
0.29 0.003 0
0.3 0.003 0
0.31 0.003 0
0.32 0.003 0
0.33 0.003 0
0.34 0.003 0
0.35 0.003 0
0.36 0.003 0
0.37 0.003 0
0.38 0.003 0
0.39 0.003 0
0.4 0.003 0
0.41 0.003 0
0.42 0.003 0
0.43 0.003 0
0.44 0.003 0
0.45 0.003 0
0.46 0.003 0
0.47 0.003 0
0.48 0.003 0
0.49 0.003 0
0.5 0.003 0
0.51 0.003 0
0.52 0.003 0
0.53 0.003 0
0.54 0.003 0
0.55 0.003 0
0.56 0.003 0
0.57 0.003 0
0.58 0.003 0
0.59 0.003 0
0.6 0.003 0
0.61 0.003 0
0.62 0.003 0
0.63 0.003 0
0.64 0.003 0
0.65 0.003 0
0.66 0.003 0
0.67 0.003 0
0.68 0.003 0
0.69 0.003 0
0.7 0.003 0
0.71 0.003 0
0.72 0.003 0
0.73 0.003 0
0.74 0.003 0
0.75 0.003 0
0.76 0.003 0
0.77 0.003 0
0.78 0.003 0
0.79 0.003 0
0.8 0.003 0
0.81 0.003 0
0.82 0.003 0
0.83 0.003 0
0.84 0.003 0
0.85 0.003 0
0.86 0.003 0
0.87 0.003 0
0.88 0.003 0
0.89 0.003 0
0.9 0.003 0
0.91 0.003 0
0.92 0.003 0
0.93 0.003 0
0.94 0.003 0
0.95 0.003 0
0.96 0.003 0
0.97 0.003 0
0.98 0.003 0
0.99 0.003 0
0 0.004 0
0.01 0.004 0
0.02 0.004 0
0.03 0.004 0
0.04 0.004 0
0.05 0.004 0
0.06 0.004 0
0.07 0.004 0
0.08 0.004 0
0.09 0.004 0
0.1 0.004 0
0.11 0.004 0
0.12 0.004 0
0.13 0.004 0
0.14 0.004 0
0.15 0.004 0
0.16 0.004 0
0.17 0.004 0
0.18 0.004 0
0.19 0.004 0
0.2 0.004 0
0.21 0.004 0
0.22 0.004 0
0.23 0.004 0
0.24 0.004 0
0.25 0.004 0
0.26 0.004 0
0.27 0.004 0
0.28 0.004 0
0.29 0.004 0
0.3 0.004 0
0.31 0.004 0
0.32 0.004 0
0.33 0.004 0
0.34 0.004 0
0.35 0.004 0
0.36 0.004 0
0.37 0.004 0
0.38 0.004 0
0.39 0.004 0
0.4 0.004 0
0.41 0.004 0
0.42 0.004 0
0.43 0.004 0
0.44 0.004 0
0.45 0.004 0
0.46 0.004 0
0.47 0.004 0
0.48 0.004 0
0.49 0.004 0
0.5 0.004 0
0.51 0.004 0
0.52 0.004 0
0.53 0.004 0
0.54 0.004 0
0.55 0.004 0
0.56 0.004 0
0.57 0.004 0
0.58 0.004 0
0.59 0.004 0
0.6 0.004 0
0.61 0.004 0
0.62 0.004 0
0.63 0.004 0
0.64 0.004 0
0.65 0.004 0
0.66 0.004 0
0.67 0.004 0
0.68 0.004 0
0.69 0.004 0
0.7 0.004 0
0.71 0.004 0
0.72 0.004 0
0.73 0.004 0
0.74 0.004 0
0.75 0.004 0
0.76 0.004 0
0.77 0.004 0
0.78 0.004 0
0.79 0.004 0
0.8 0.004 0
0.81 0.004 0
0.82 0.004 0
0.83 0.004 0
0.84 0.004 0
0.85 0.004 0
0.86 0.004 0
0.87 0.004 0
0.88 0.004 0
0.89 0.004 0
0.9 0.004 0
0.91 0.004 0
0.92 0.004 0
0.93 0.004 0
0.94 0.004 0
0.95 0.004 0
0.96 0.004 0
0.97 0.004 0
0.98 0.004 0
0.99 0.004 0
0 0.005 0
0.01 0.005 0
0.02 0.005 0
0.03 0.005 0
0.04 0.005 0
0.05 0.005 0
0.06 0.005 0
0.07 0.005 0
0.08 0.005 0
0.09 0.005 0
0.1 0.005 0
0.11 0.005 0
0.12 0.005 0
0.13 0.005 0
0.14 0.005 0
0.15 0.005 0
0.16 0.005 0
0.17 0.005 0
0.18 0.005 0
0.19 0.005 0
0.2 0.005 0
0.21 0.005 0
0.22 0.005 0
0.23 0.005 0
0.24 0.005 0
0.25 0.005 0
0.26 0.005 0
0.27 0.005 0
0.28 0.005 0
0.29 0.005 0
0.3 0.005 0
0.31 0.005 0
0.32 0.005 0
0.33 0.005 0
0.34 0.005 0
0.35 0.005 0
0.36 0.005 0
0.37 0.005 0
0.38 0.005 0
0.39 0.005 0
0.4 0.005 0
0.41 0.005 0
0.42 0.005 0
0.43 0.005 0
0.44 0.005 0
0.45 0.005 0
0.46 0.005 0
0.47 0.005 0
0.48 0.005 0
0.49 0.005 0
0.5 0.005 0
0.51 0.005 0
0.52 0.005 0
0.53 0.005 0
0.54 0.005 0
0.55 0.005 0
0.56 0.005 0
0.57 0.005 0
0.58 0.005 0
0.59 0.005 0
0.6 0.005 0
0.61 0.005 0
0.62 0.005 0
0.63 0.005 0
0.64 0.005 0
0.65 0.005 0
0.66 0.005 0
0.67 0.005 0
0.68 0.005 0
0.69 0.005 0
0.7 0.005 0
0.71 0.005 0
0.72 0.005 0
0.73 0.005 0
0.74 0.005 0
0.75 0.005 0
0.76 0.005 0
0.77 0.005 0
0.78 0.005 0
0.79 0.005 0
0.8 0.005 0
0.81 0.005 0
0.82 0.005 0
0.83 0.005 0
0.84 0.005 0
0.85 0.005 0
0.86 0.005 0
0.87 0.005 0
0.88 0.005 0
0.89 0.005 0
0.9 0.005 0
0.91 0.005 0
0.92 0.005 0
0.93 0.005 0
0.94 0.005 0
0.95 0.005 0
0.96 0.005 0
0.97 0.005 0
0.98 0.005 0
0.99 0.005 0
0 0.006 0
0.01 0.006 0
0.02 0.006 0
0.03 0.006 0
0.04 0.006 0
0.05 0.006 0
0.06 0.006 0
0.07 0.006 0
0.08 0.006 0
0.09 0.006 0
0.1 0.006 0
0.11 0.006 0
0.12 0.006 0
0.13 0.006 0
0.14 0.006 0
0.15 0.006 0
0.16 0.006 0
0.17 0.006 0
0.18 0.006 0
0.19 0.006 0
0.2 0.006 0
0.21 0.006 0
0.22 0.006 0
0.23 0.006 0
0.24 0.006 0
0.25 0.006 0
0.26 0.006 0
0.27 0.006 0
0.28 0.006 0
0.29 0.006 0
0.3 0.006 0
0.31 0.006 0
0.32 0.006 0
0.33 0.006 0
0.34 0.006 0
0.35 0.006 0
0.36 0.006 0
0.37 0.006 0
0.38 0.006 0
0.39 0.006 0
0.4 0.006 0
0.41 0.006 0
0.42 0.006 0
0.43 0.006 0
0.44 0.006 0
0.45 0.006 0
0.46 0.006 0
0.47 0.006 0
0.48 0.006 0
0.49 0.006 0
0.5 0.006 0
0.51 0.006 0
0.52 0.006 0
0.53 0.006 0
0.54 0.006 0
0.55 0.006 0
0.56 0.006 0
0.57 0.006 0
0.58 0.006 0
0.59 0.006 0
0.6 0.006 0
0.61 0.006 0
0.62 0.006 0
0.63 0.006 0
0.64 0.006 0
0.65 0.006 0
0.66 0.006 0
0.67 0.006 0
0.68 0.006 0
0.69 0.006 0
0.7 0.006 0
0.71 0.006 0
0.72 0.006 0
0.73 0.006 0
0.74 0.006 0
0.75 0.006 0
0.76 0.006 0
0.77 0.006 0
0.78 0.006 0
0.79 0.006 0
0.8 0.006 0
0.81 0.006 0
0.82 0.006 0
0.83 0.006 0
0.84 0.006 0
0.85 0.006 0
0.86 0.006 0
0.87 0.006 0
0.88 0.006 0
0.89 0.006 0
0.9 0.006 0
0.91 0.006 0
0.92 0.006 0
0.93 0.006 0
0.94 0.006 0
0.95 0.006 0
0.96 0.006 0
0.97 0.006 0
0.98 0.006 0
0.99 0.006 0
0 0.007 0
0.01 0.007 0
0.02 0.007 0
0.03 0.007 0
0.04 0.007 0
0.05 0.007 0
0.06 0.007 0
0.07 0.007 0
0.08 0.007 0
0.09 0.007 0
0.1 0.007 0
0.11 0.007 0
0.12 0.007 0
0.13 0.007 0
0.14 0.007 0
0.15 0.007 0
0.16 0.007 0
0.17 0.007 0
0.18 0.007 0
0.19 0.007 0
0.2 0.007 0
0.21 0.007 0
0.22 0.007 0
0.23 0.007 0
0.24 0.007 0
0.25 0.007 0
0.26 0.007 0
0.27 0.007 0
0.28 0.007 0
0.29 0.007 0
0.3 0.007 0
0.31 0.007 0
0.32 0.007 0
0.33 0.007 0
0.34 0.007 0
0.35 0.007 0
0.36 0.007 0
0.37 0.007 0
0.38 0.007 0
0.39 0.007 0
0.4 0.007 0
0.41 0.007 0
0.42 0.007 0
0.43 0.007 0
0.44 0.007 0
0.45 0.007 0
0.46 0.007 0
0.47 0.007 0
0.48 0.007 0
0.49 0.007 0
0.5 0.007 0
0.51 0.007 0
0.52 0.007 0
0.53 0.007 0
0.54 0.007 0
0.55 0.007 0
0.56 0.007 0
0.57 0.007 0
0.58 0.007 0
0.59 0.007 0
0.6 0.007 0
0.61 0.007 0
0.62 0.007 0
0.63 0.007 0
0.64 0.007 0
0.65 0.007 0
0.66 0.007 0
0.67 0.007 0
0.68 0.007 0
0.69 0.007 0
0.7 0.007 0
0.71 0.007 0
0.72 0.007 0
0.73 0.007 0
0.74 0.007 0
0.75 0.007 0
0.76 0.007 0
0.77 0.007 0
0.78 0.007 0
0.79 0.007 0
0.8 0.007 0
0.81 0.007 0
0.82 0.007 0
0.83 0.007 0
0.84 0.007 0
0.85 0.007 0
0.86 0.007 0
0.87 0.007 0
0.88 0.007 0
0.89 0.007 0
0.9 0.007 0
0.91 0.007 0
0.92 0.007 0
0.93 0.007 0
0.94 0.007 0
0.95 0.007 0
0.96 0.007 0
0.97 0.007 0
0.98 0.007 0
[...]
POINT_DATA 10000

SCALARS vel_X float 1
LOOKUP_TABLE default
0
0
0
0
0
0
0
0
0
0
0
0
0
0
0
0
0
0
0
0
0
0
0
0
0
0
0
0
0
0
0
0
0
0
0
0
0
0
0
0
0
0
0
0
0
0
0
0
0
0
0
0
0
0
0
0
0
0
0
0
0
0
0
0
0
0
0
0
0
0
0
0
0
0
0
0
0
0
0
0
0
0
0
0
0
0
0
0
0
0
0
0
0
0
0
0
0
0
0
0
1
0.330972
0.195408
0.184503
0.133489
0.16301
0.136539
0.136421
0.165726
0.126665
0.156677
0.1739
0.135246
0.176346
0.196812
0.168518
0.187274
0.242349
0.241479
0.240346
0.287856
0.347319
0.329271
0.24799
0.146338
0.0761355
0.030977
0.0141829
0.00278966
0.00296731
-0.00118926
0.00169287
-0.00156129
0.00159317
-0.00158597
0.00158749
-0.00158719
0.00158725
-0.00158724
0.00158724
-0.00158724
0.00158724
-0.00158724
0.00158724
-0.00158724
0.00158724
-0.00158724
0.00158724
-0.00158724
0.00158724
-0.00158724
0.00158724
-0.00158724
0.00158724
-0.00158724
0.00158724
-0.00158724
0.00158724
-0.00158724
0.00158724
-0.00158724
0.00158724
-0.00158724
0.00158724
-0.00158724
0.00158724
-0.00158724
0.00158723
-0.00158726
0.00158711
-0.00158782
0.0015851
-0.00159379
0.0015714
-0.00161506
0.00155934
-0.00158303
0.00162944
-0.00161362
0.00137561
-0.00171403
0.00200143
-0.00130427
0.000675169
-0.00183175
0.00313725
-0.00257109
0.000236537
0.00107457
-0.000405353
-0.00205575
0.00422235
-0.00574363
0.00568368
-0.00522122
0.00369857
-0.00304063
-0.00162004
-0.177033
-0.177033
1
0.57525
0.378222
0.34731
0.273024
0.310614
0.269922
0.276467
0.309881
0.26256
0.306639
0.327338
0.280759
0.34404
0.368198
0.336902
0.372326
0.451045
0.449494
0.457163
0.524698
0.591885
0.534366
0.390782
0.225751
0.116428
0.0464718
0.0216612
0.0037949
0.0048017
-0.00215555
0.00290314
-0.00270819
0.00275536
-0.00274472
0.00274697
-0.00274652
0.00274661
-0.00274659
0.00274659
-0.00274659
0.00274659
-0.00274659
0.00274659
-0.00274659
0.00274659
-0.00274659
0.00274659
-0.00274659
0.00274659
-0.00274659
0.00274659
-0.00274659
0.00274659
-0.00274659
0.00274659
-0.00274659
0.00274659
-0.00274659
0.00274659
-0.00274659
0.00274659
-0.00274659
0.00274659
-0.00274659
0.00274659
-0.00274659
0.00274659
-0.00274663
0.0027464
-0.00274745
0.0027434
-0.00275641
0.00272254
-0.0027899
0.00269981
-0.00274964
0.00280225
-0.00277871
0.00244373
-0.00296971
0.00328609
-0.00228464
0.00153807
-0.00325294
0.00483243
-0.00384992
0.000691607
0.000719409
0.000407973
-0.0037996
0.0064194
-0.00823823
0.007789
-0.00711992
0.00482714
-0.00412785
0.000842802
0.246897
0.246897
1
0.750665
0.540728
0.492431
0.411205
0.441043
0.403383
0.405373
0.443135
0.397159
0.442622
0.467586
0.425739
0.490597
0.522431
0.495038
0.53715
0.62105
0.625428
0.632961
0.69731
0.745609
0.656455
0.471281
0.272631
0.138478
0.0570012
0.024807
0.0058097
0.00455538
-0.00135535
0.00226251
-0.00202509
0.00208276
-0.0020697
0.00207247
-0.00207192
0.00207202
-0.002072
0.00207201
-0.002072
0.002072
-0.002072
0.002072
-0.002072
0.002072
-0.002072
0.002072
-0.002072
0.002072
-0.002072
0.002072
-0.002072
0.002072
-0.002072
0.002072
-0.002072
0.002072
-0.002072
0.002072
-0.002072
0.002072
-0.002072
0.002072
-0.002072
0.002072
-0.00207201
0.002072
-0.00207205
0.00207176
-0.00207305
0.00206816
-0.00208377
0.00204334
-0.00212362
0.00201509
-0.00208132
0.00212628
-0.00211694
0.00173031
-0.0023226
0.00264091
-0.00160274
0.000784384
-0.00258006
0.00419503
-0.00329729
5.53259e-05
0.00139493
-0.000473115
-0.00292755
0.0054781
-0.00754114
0.00713225
-0.0068131
0.00444172
-0.00413351
-0.000770308
-0.215894
-0.215894
1
0.873984
0.679335
0.621886
0.54087
0.557552
0.531387
0.520817
0.566924
0.522778
0.563737
0.59541
0.559847
0.615371
0.659213
0.634135
0.673958
0.754483
0.766329
0.762813
0.810919
0.83387
0.727387
0.517999
0.303766
0.152246
0.0657975
0.0260187
0.00856544
0.00322055
0.000442575
0.000602871
-0.000327425
0.000394772
-0.000379427
0.000382699
-0.000382044
0.000382168
-0.000382146
0.00038215
-0.000382149
0.000382149
-0.000382149
0.000382149
-0.000382149
0.000382149
-0.000382149
0.000382149
-0.000382149
0.000382149
-0.000382149
0.000382149
-0.000382149
0.000382149
-0.000382149
0.000382149
-0.000382149
0.000382149
-0.000382149
0.000382149
-0.000382149
0.000382149
-0.000382149
0.000382149
-0.000382149
0.000382149
-0.000382151
0.000382139
-0.000382206
0.000381867
-0.000383353
0.000377773
-0.000395342
0.00035048
-0.000438252
0.000321192
-0.000393553
0.000429946
-0.0004489
1.97408e-05
-0.000610823
0.000966756
-1.40472e-05
-0.000945723
-0.000698934
0.00238619
-0.00188982
-0.00121122
0.00288871
-0.00255844
-0.000521688
0.00297772
-0.00544023
0.00539972
-0.00570589
0.00358133
-0.0037357
0.00135817
0.230245
0.230245
1
0.958764
0.794121
0.735399
0.658458
0.661692
0.648924
0.623698
0.678836
0.635866
0.670157
0.708562
0.677868
0.71992
0.775676
0.749909
0.781829
0.854752
0.871893
0.851371
0.879283
0.88028
0.768519
0.547397
0.327189
0.162719
0.0738038
0.0267307
0.0114813
0.00165578
0.00246225
-0.00127719
0.00159195
-0.00151439
0.00153219
-0.00152837
0.00152914
-0.00152899
0.00152902
-0.00152901
0.00152902
-0.00152902
0.00152902
-0.00152902
0.00152902
-0.00152902
0.00152902
-0.00152902
0.00152902
-0.00152902
0.00152902
-0.00152902
0.00152902
-0.00152902
0.00152902
-0.00152902
0.00152902
-0.00152902
0.00152902
-0.00152902
0.00152902
-0.00152902
0.00152902
-0.00152902
0.00152902
-0.00152902
0.00152901
-0.00152903
0.00152895
-0.00152934
0.00152765
-0.0015339
0.00151456
-0.00156298
0.00147042
-0.00159028
0.0015192
-0.00148854
0.00143563
-0.00190568
0.00134835
-0.000923999
0.00174917
-0.00289768
0.00148605
0.000321571
-0.00033579
-0.0025758
0.00457161
-0.00493639
0.00225859
0.000127775
-0.00302047
0.00344343
-0.00441403
0.00264674
-0.00323533
-0.000552728
-0.222959
-0.222959
1
1.01547
0.886968
0.832267
0.762704
0.753372
0.753411
0.714625
0.776509
0.735211
0.761829
0.805018
0.778349
0.805479
0.870145
0.841978
0.863278
0.925927
0.94586
0.907794
0.91707
0.902024
0.792934
0.56809
0.346751
0.172089
0.0813895
0.0275439
0.0142895
0.000233673
0.00436167
-0.00302735
0.00338482
-0.003296
0.00331655
-0.0033121
0.00331301
-0.00331284
0.00331287
-0.00331286
0.00331286
-0.00331286
0.00331286
-0.00331286
0.00331286
-0.00331286
0.00331286
-0.00331286
0.00331286
-0.00331286
0.00331286
-0.00331286
0.00331286
-0.00331286
0.00331286
-0.00331286
0.00331286
-0.00331286
0.00331286
-0.00331286
0.00331286
-0.00331286
0.00331286
-0.00331286
0.00331286
-0.00331286
0.00331286
-0.00331288
0.00331278
-0.00331323
0.00331133
-0.00331826
0.0032972
-0.00334878
0.00325286
-0.00337228
0.00330693
-0.00327954
0.00319157
-0.00369912
0.00319203
-0.00268733
0.00337149
-0.00471189
0.00355881
-0.0016383
0.00111254
-0.00379736
0.00607885
-0.00710902
0.00487216
-0.00260223
-0.000629131
0.00147565
-0.00305436
0.00168604
-0.0026399
0.00135144
0.227244
0.227244
1
1.052
0.960366
0.912441
0.853256
0.832219
0.843933
0.793703
0.858842
0.820572
0.838772
0.884157
0.861658
0.873277
0.943069
0.912377
0.922252
0.972931
0.99444
0.941786
0.936136
0.910138
0.808086
0.5843
0.364257
0.18122
0.08874
0.0286508
0.0169238
-0.000939707
0.00604653
-0.00454995
0.00495445
-0.00485309
0.00487674
-0.00487158
0.00487264
-0.00487243
0.00487247
-0.00487246
0.00487247
-0.00487247
0.00487247
-0.00487247
0.00487247
-0.00487247
0.00487247
-0.00487247
0.00487247
-0.00487247
0.00487247
-0.00487247
0.00487247
-0.00487247
0.00487247
-0.00487247
0.00487247
-0.00487247
0.00487247
-0.00487247
0.00487247
-0.00487247
0.00487247
-0.00487247
0.00487247
-0.00487247
0.00487246
-0.00487248
0.00487238
-0.00487289
0.00487075
-0.0048784
0.00485561
-0.00491015
0.00481173
-0.00492878
0.00487149
-0.00484643
0.00472388
-0.00526271
0.00481647
-0.00423418
0.00476906
-0.00627512
0.00539392
-0.0034106
0.00240914
-0.00480732
0.00727745
-0.00890528
0.0071575
-0.00509986
0.00167026
-0.000488071
-0.00161929
0.000675212
-0.00198246
-0.000775728
-0.22427
-0.22427
1
1.07416
1.01691
0.976683
0.930132
0.898299
0.920394
0.861092
0.925891
0.892167
0.901474
0.946667
0.928951
0.925074
0.996547
0.964317
0.963149
1.00121
1.0243
0.961481
0.94467
0.911183
0.817966
0.598036
0.380484
0.190443
0.0959239
0.030119
0.0193619
-0.00182692
0.0074845
-0.00581097
0.00626736
-0.00615202
0.00617915
-0.00617318
0.00617441
-0.00617418
0.00617422
-0.00617421
0.00617421
-0.00617421
0.00617421
-0.00617421
0.00617421
-0.00617421
0.00617421
-0.00617421
0.00617421
-0.00617421
0.00617421
-0.00617421
0.00617421
-0.00617421
0.00617421
-0.00617421
0.00617421
-0.00617421
0.00617421
-0.00617421
0.00617421
-0.00617421
0.00617421
-0.00617421
0.00617421
-0.00617421
0.00617421
-0.00617423
0.00617411
-0.00617469
0.0061723
-0.00618071
0.00615615
-0.00621351
0.00611323
-0.00622667
0.00617844
-0.00615614
0.00599973
-0.00656193
0.00618489
-0.00553615
0.00591277
-0.00754507
0.00694765
-0.00496914
0.00353712
-0.00558071
0.00812509
-0.0102747
0.00906289
-0.00732072
0.00383481
-0.0024168
-0.000131272
-0.000378605
-0.00124769
0.000950165
0.226626
0.226626
1
1.08621
1.05911
1.02635
0.993657
0.952221
0.983141
0.917314
0.978487
0.950584
0.95097
0.994081
0.981796
0.963208
1.03355
1.00136
0.990269
1.01604
1.04125
0.972783
0.947755
0.908868
0.824618
0.610248
0.395714
0.199893
0.102932
0.0319968
0.0215699
-0.00238802
0.00863832
-0.00677206
0.0072856
-0.0071547
0.00718574
-0.00717886
0.00718029
-0.00718001
0.00718006
-0.00718005
0.00718006
-0.00718006
0.00718006
-0.00718006
0.00718006
-0.00718006
0.00718006
-0.00718006
0.00718006
-0.00718006
0.00718006
-0.00718006
0.00718006
-0.00718006
0.00718006
-0.00718006
0.00718006
-0.00718006
0.00718006
-0.00718006
0.00718006
-0.00718006
0.00718006
-0.00718006
0.00718006
-0.00718006
0.00718005
-0.00718008
0.00717994
-0.0071806
0.00717793
-0.00718713
0.00716079
-0.00722084
0.00711924
-0.00722815
0.0071892
-0.00717102
0.00698141
-0.00755839
0.00725739
-0.00655743
0.00676698
-0.00848226
0.00817693
-0.00627237
0.00446009
-0.00609081
0.00859844
-0.0111866
0.0105388
-0.00919985
0.00578397
-0.00423284
0.00134383
-0.0014349
-0.000505919
-0.00130549
-0.2246
-0.2246
1
1.09118
1.08933
1.06313
1.04449
0.994991
1.03285
0.963264
1.01795
0.996763
0.988695
1.02836
1.02201
0.990326
1.05729
1.02693
1.00745
1.02196
1.04969
0.979542
0.948289
0.905218
0.829068
0.621397
0.410011
0.209628
0.109721
0.0343278
0.0235063
-0.00257886
0.00946567
-0.00738996
0.00796629
-0.00781812
0.00785355
-0.00784564
0.00784729
-0.00784697
0.00784703
-0.00784702
0.00784702
-0.00784702
0.00784702
-0.00784702
0.00784702
-0.00784702
0.00784702
-0.00784702
0.00784702
-0.00784702
0.00784702
-0.00784702
0.00784702
-0.00784702
0.00784702
-0.00784702
0.00784702
-0.00784702
0.00784702
-0.00784702
0.00784702
-0.00784702
0.00784702
-0.00784702
0.00784702
-0.00784702
0.00784702
-0.00784705
0.00784689
-0.00784763
0.00784467
-0.0078547
0.00782656
-0.00788914
0.00778677
-0.00789042
0.00786047
-0.00784829
0.0076262
-0.00820933
0.00798936
-0.00725544
0.00729137
-0.00904639
0.00903411
-0.00726721
0.00513195
-0.00631026
0.00867973
-0.0116125
0.0115301
-0.0106602
0.00742175
-0.00583899
0.00272143
-0.00243837
0.000234299
0.000353351
0.226423
0.226423
1
1.09128
1.10968
1.08885
1.0836
1.02785
1.0705
1.00008
1.04589
1.03193
1.01628
1.05162
1.0515
1.00904
1.07083
1.04401
1.01786
1.02248
1.05268
0.984052
0.94781
0.90131
0.831852
0.631711
0.423365
0.219661
0.116246
0.0371414
0.0251385
-0.00236561
0.00993415
-0.00763144
0.00827658
-0.00810928
0.00814962
-0.00814054
0.00814245
-0.00814207
0.00814214
-0.00814213
0.00814213
-0.00814213
0.00814213
-0.00814213
0.00814213
-0.00814213
0.00814213
-0.00814213
0.00814213
-0.00814213
0.00814213
-0.00814213
0.00814213
-0.00814213
0.00814213
-0.00814213
0.00814213
-0.00814213
0.00814213
-0.00814213
0.00814213
-0.00814213
0.00814213
-0.00814213
0.00814213
-0.00814213
0.00814213
-0.00814216
0.00814198
-0.00814281
0.00813954
-0.00815044
0.0081205
-0.00818542
0.00808282
-0.00818062
0.00815908
-0.00815498
0.00790138
-0.00848221
0.00834621
-0.00759651
0.00745597
-0.009209
0.00948145
-0.00790814
0.0055149
-0.00622212
0.00836348
-0.0115368
0.0119938
-0.0116376
0.00866522
-0.00714523
0.00391825
-0.00333262
0.000898273
-0.00191632
-0.224742
-0.224742
1
1.08812
1.12206
1.10536
1.11217
1.05218
1.09726
1.02897
1.06411
1.05748
1.0354
1.06592
1.07211
1.02168
1.07682
1.05505
1.0239
1.02012
1.05222
0.987556
0.947077
0.897704
0.833291
0.64131
0.435752
0.229974
0.122478
0.0404444
0.0264542
-0.00173576
0.0100324
-0.00748436
0.0082047
-0.00801627
0.00806209
-0.00805169
0.0080539
-0.00805346
0.00805354
-0.00805353
0.00805353
-0.00805353
0.00805353
-0.00805353
0.00805353
-0.00805353
0.00805353
-0.00805353
0.00805353
-0.00805353
0.00805353
-0.00805353
0.00805353
-0.00805353
0.00805353
-0.00805353
0.00805353
-0.00805353
0.00805353
-0.00805353
0.00805353
-0.00805353
0.00805353
-0.00805353
0.00805353
-0.00805353
0.00805352
-0.00805356
0.00805336
-0.00805429
0.00805068
-0.00806248
0.00803074
-0.00809782
0.00799552
-0.00808698
0.00807305
-0.00807913
0.0077954
-0.00836582
0.0083145
-0.00756753
0.007252
-0.00896355
0.00950308
-0.00817051
0.00559049
-0.00582776
0.00766438
-0.0109678
0.0119143
-0.0120968
0.00946085
-0.0080844
0.00486402
-0.00406648
0.00148337
-0.000219914
0.226313
0.226313
1
1.08287
1.12813
1.11441
1.13154
1.06937
1.11448
1.05112
1.07445
1.07486
1.04762
1.07314
1.08553
1.03012
1.0775
1.06189
1.02726
1.01651
1.04955
0.990657
0.946436
0.894677
0.833616
0.650251
0.447169
0.240518
0.128413
0.0442157
0.0274671
-0.000703517
0.00977564
-0.00696318
0.00776545
-0.00755378
0.00760568
-0.0075938
0.00759635
-0.00759583
0.00759593
-0.00759591
0.00759592
-0.00759592
0.00759592
-0.00759592
0.00759592
-0.00759592
0.00759592
-0.00759592
0.00759592
-0.00759592
0.00759592
-0.00759592
0.00759592
-0.00759592
0.00759592
-0.00759592
0.00759592
-0.00759592
0.00759592
-0.00759592
0.00759592
-0.00759592
0.00759592
-0.00759592
0.00759592
-0.00759592
0.00759591
-0.00759595
0.00759572
-0.00759676
0.0075928
-0.00760552
0.007572
-0.00764102
0.00753954
-0.00762429
0.00761699
-0.00763523
0.00732327
-0.00787555
0.00790752
-0.00718155
0.0066969
-0.0083304
0.00911106
-0.00805693
0.0053648
-0.0051509
0.00662168
-0.009944
0.0113091
-0.0120368
0.00979141
-0.00862112
0.00550974
-0.00460002
0.00192647
-0.00241271
-0.224837
-0.224837
1
1.07639
1.12932
1.11762
1.14305
1.0808
1.12356
1.06759
1.07868
1.08552
1.05437
1.07488
1.09315
1.03579
1.0746
1.06584
1.02909
1.01265
1.04545
0.993582
0.946034
0.892345
0.833036
0.658552
0.45764
0.251218
0.134074
0.0484053
0.0282187
0.000688889
0.00920689
-0.00611021
0.00700154
-0.00676433
0.00682297
-0.00680945
0.00681237
-0.00681178
0.00681189
-0.00681187
0.00681187
-0.00681187
0.00681187
-0.00681187
0.00681187
-0.00681187
0.00681187
-0.00681187
0.00681187
-0.00681187
0.00681187
-0.00681187
0.00681187
-0.00681187
0.00681187
-0.00681187
0.00681187
-0.00681187
0.00681187
-0.00681187
0.00681187
-0.00681187
0.00681187
-0.00681187
0.00681187
-0.00681187
0.00681186
-0.00681192
0.00681165
-0.00681281
0.00680848
-0.00682214
0.00678688
-0.00685759
0.00675747
-0.00683523
0.00683344
-0.00686564
0.00652785
-0.00705479
0.00716664
-0.00647917
0.00583544
-0.00735804
0.00834704
-0.00759888
0.00486976
-0.00423869
0.00529996
-0.00853448
0.01023
-0.0114915
0.00967708
-0.00875681
0.00583482
-0.00490986
0.00224232
-0.000604982
0.226221
0.226221
1
1.06931
1.12685
1.11642
1.14802
1.08771
1.12592
1.07927
1.07842
1.09077
1.05688
1.07248
1.09612
1.03964
1.06943
1.06778
1.03006
1.00909
1.04042
0.996362
0.945926
0.890728
0.831756
0.666209
0.467221
0.261974
0.139508
0.0529377
0.0287749
0.00237394
0.00839429
-0.00499291
0.00598077
-0.0057156
0.0057817
-0.00576633
0.00576968
-0.005769
0.00576913
-0.0057691
0.00576911
-0.00576911
0.00576911
-0.00576911
0.00576911
-0.00576911
0.00576911
-0.00576911
0.00576911
-0.00576911
0.00576911
-0.00576911
0.00576911
-0.00576911
0.00576911
-0.00576911
0.00576911
-0.00576911
0.00576911
-0.00576911
0.00576911
-0.00576911
0.00576911
-0.00576911
0.00576911
-0.00576911
0.0057691
-0.00576916
0.00576886
-0.00577014
0.00576542
-0.00578005
0.0057431
-0.00581524
0.00571697
-0.00578758
0.00579009
-0.00583778
0.00547709
-0.00597209
0.0061586
-0.00552591
0.00473687
-0.00612011
0.00727949
-0.00685421
0.00416088
-0.00315915
0.00378569
-0.0068355
0.00875947
-0.0105252
0.00917153
-0.00852977
0.00585125
-0.00499466
0.00239165
-0.0026684
-0.224935
-0.224935
1
1.06206
1.12174
1.11207
1.14767
1.09123
1.12295
1.08686
1.07505
1.09182
1.05624
1.06697
1.09531
1.04224
1.06296
1.06824
1.0306
1.00609
1.03484
0.998934
0.94613
0.889787
0.82998
0.673201
0.47599
0.272669
0.14478
0.0577189
0.0292191
0.0042662
0.00742364
-0.0036965
0.00478872
-0.00449299
0.00456734
-0.00454991
0.00455374
-0.00455295
0.0045531
-0.00455307
0.00455308
-0.00455308
0.00455308
-0.00455308
0.00455308
-0.00455308
0.00455308
-0.00455308
0.00455308
-0.00455308
0.00455308
-0.00455308
0.00455308
-0.00455308
0.00455308
-0.00455308
0.00455308
-0.00455308
0.00455308
-0.00455308
0.00455308
-0.00455308
0.00455308
-0.00455308
0.00455308
-0.00455308
0.00455307
-0.00455313
0.0045528
-0.00455421
0.00454909
-0.00456469
0.00452611
-0.00459941
0.00450347
-0.00456688
0.00457239
-0.00463685
0.00425659
-0.00471379
0.00496818
-0.00440485
0.00348747
-0.00470793
0.00599618
-0.0059
0.00331045
-0.00199415
0.00217914
-0.00496174
0.00700278
-0.00922371
0.00835236
-0.00800857
0.00560226
-0.00487606
0.00241779
-0.000724542
0.22611
0.22611
1
1.05496
1.11483
1.10563
1.14309
1.09226
1.11598
1.09091
1.06967
1.0897
1.05335
1.05917
1.09137
1.04384
1.05583
1.06754
1.03092
1.00373
1.02897
1.0012
0.94665
0.88945
0.827904
0.679503
0.484036
0.283186
0.149961
0.0626484
0.0296404
0.00627406
0.00638676
-0.00231226
0.003517
-0.00318798
0.00327138
-0.00325168
0.00325604
-0.00325513
0.00325531
-0.00325528
0.00325528
-0.00325528
0.00325528
-0.00325528
0.00325528
-0.00325528
0.00325528
-0.00325528
0.00325528
-0.00325528
0.00325528
-0.00325528
0.00325528
-0.00325528
0.00325528
-0.00325528
0.00325528
-0.00325528
0.00325528
-0.00325528
0.00325528
-0.00325528
0.00325528
-0.00325528
0.00325528
-0.00325528
0.00325527
-0.00325535
0.00325497
-0.00325653
0.00325098
-0.00326757
0.00322743
-0.0033016
0.00320844
-0.00326471
0.00327186
-0.00335404
0.00295794
-0.00337232
0.00368644
-0.00320506
0.00217892
-0.0032186
0.00459229
-0.00482102
0.00239653
-0.000828301
0.000582071
-0.00303329
0.00507573
-0.00768264
0.00730656
-0.00727855
0.00515397
-0.00459584
0.00231012
-0.00266318
-0.225061
-0.225061
1
1.04822
1.10674
1.09799
1.13523
1.09151
1.10625
1.09186
1.06307
1.08528
1.04894
1.0497
1.08478
1.04449
1.04845
1.06584
1.03111
1.002
1.02305
1.00306
0.947471
0.889632
0.825705
0.685103
0.491449
0.293418
0.155115
0.0676333
0.0301194
0.00831374
0.00536736
-0.000923408
0.00224917
-0.00188398
0.00197732
-0.00195509
0.00196004
-0.001959
0.00195921
-0.00195917
0.00195918
-0.00195918
0.00195918
-0.00195918
0.00195918
-0.00195918
0.00195918
-0.00195918
0.00195918
-0.00195918
0.00195918
-0.00195918
0.00195918
-0.00195918
0.00195918
-0.00195918
0.00195918
-0.00195918
0.00195918
-0.00195918
0.00195918
-0.00195918
0.00195918
-0.00195918
0.00195918
-0.00195918
0.00195916
-0.00195925
0.00195883
-0.00196054
0.00195455
-0.00197213
0.00193052
-0.00200527
0.0019153
-0.00196458
0.00197202
-0.00207253
0.00166461
-0.00203205
0.00239669
-0.00200753
0.000894154
-0.00174074
0.00315609
-0.0036958
0.00148943
0.000264596
-0.000916785
-0.00116023
0.00309034
-0.00599291
0.00611373
-0.00642359
0.00458099
-0.00420666
0.00213445
-0.000616576
0.22597
0.22597
1
1.04199
1.09795
1.08989
1.12491
1.08947
1.09485
1.09008
1.05576
1.07925
1.04363
1.0391
1.07589
1.04407
1.04104
1.06325
1.03118
1.00084
1.01723
1.00446
0.948559
0.890258
0.823524
0.690008
0.498301
0.303281
0.160284
0.0726017
0.0307152
0.0103226
0.00442783
0.000408052
0.00104753
-0.000643121
0.000747346
-0.000722323
0.000727942
-0.000726758
0.000726993
-0.000726949
0.000726957
-0.000726955
0.000726956
-0.000726956
0.000726956
-0.000726956
0.000726956
-0.000726956
0.000726956
-0.000726956
0.000726956
-0.000726956
0.000726956
-0.000726956
0.000726956
-0.000726956
0.000726956
-0.000726956
0.000726956
-0.000726956
0.000726956
-0.000726956
0.000726956
-0.000726956
0.000726955
-0.000726958
0.00072694
-0.000727038
0.000726579
-0.00072844
0.000722001
-0.000740562
0.000697584
-0.000772611