# vtk DataFile Version 2.0
FlowField
ASCII
DATASET STRUCTURED_GRID
DIMENSIONS 100 1 100
POINTS 10000 float
0 0 0
0.01 0 0
0.02 0 0
0.03 0 0
0.04 0 0
0.05 0 0
0.06 0 0
0.07 0 0
0.08 0 0
0.09 0 0
0.1 0 0
0.11 0 0
0.12 0 0
0.13 0 0
0.14 0 0
0.15 0 0
0.16 0 0
0.17 0 0
0.18 0 0
0.19 0 0
0.2 0 0
0.21 0 0
0.22 0 0
0.23 0 0
0.24 0 0
0.25 0 0
0.26 0 0
0.27 0 0
0.28 0 0
0.29 0 0
0.3 0 0
0.31 0 0
0.32 0 0
0.33 0 0
0.34 0 0
0.35 0 0
0.36 0 0
0.37 0 0
0.38 0 0
0.39 0 0
0.4 0 0
0.41 0 0
0.42 0 0
0.43 0 0
0.44 0 0
0.45 0 0
0.46 0 0
0.47 0 0
0.48 0 0
0.49 0 0
0.5 0 0
0.51 0 0
0.52 0 0
0.53 0 0
0.54 0 0
0.55 0 0
0.56 0 0
0.57 0 0
0.58 0 0
0.59 0 0
0.6 0 0
0.61 0 0
0.62 0 0
0.63 0 0
0.64 0 0
0.65 0 0
0.66 0 0
0.67 0 0
0.68 0 0
0.69 0 0
0.7 0 0
0.71 0 0
0.72 0 0
0.73 0 0
0.74 0 0
0.75 0 0
0.76 0 0
0.77 0 0
0.78 0 0
0.79 0 0
0.8 0 0
0.81 0 0
0.82 0 0
0.83 0 0
0.84 0 0
0.85 0 0
0.86 0 0
0.87 0 0
0.88 0 0
0.89 0 0
0.9 0 0
0.91 0 0
0.92 0 0
0.93 0 0
0.94 0 0
0.95 0 0
0.96 0 0
0.97 0 0
0.98 0 0
0.99 0 0
0 0.001 0
0.01 0.001 0
0.02 0.001 0
0.03 0.001 0
0.04 0.001 0
0.05 0.001 0
0.06 0.001 0
0.07 0.001 0
0.08 0.001 0
0.09 0.001 0
0.1 0.001 0
0.11 0.001 0
0.12 0.001 0
0.13 0.001 0
0.14 0.001 0
0.15 0.001 0
0.16 0.001 0
0.17 0.001 0
0.18 0.001 0
0.19 0.001 0
0.2 0.001 0
0.21 0.001 0
0.22 0.001 0
0.23 0.001 0
0.24 0.001 0
0.25 0.001 0
0.26 0.001 0
0.27 0.001 0
0.28 0.001 0
0.29 0.001 0
0.3 0.001 0
0.31 0.001 0
0.32 0.001 0
0.33 0.001 0
0.34 0.001 0
0.35 0.001 0
0.36 0.001 0
0.37 0.001 0
0.38 0.001 0
0.39 0.001 0
0.4 0.001 0
0.41 0.001 0
0.42 0.001 0
0.43 0.001 0
0.44 0.001 0
0.45 0.001 0
0.46 0.001 0
0.47 0.001 0
0.48 0.001 0
0.49 0.001 0
0.5 0.001 0
0.51 0.001 0
0.52 0.001 0
0.53 0.001 0
0.54 0.001 0
0.55 0.001 0
0.56 0.001 0
0.57 0.001 0
0.58 0.001 0
0.59 0.001 0
0.6 0.001 0
0.61 0.001 0
0.62 0.001 0
0.63 0.001 0
0.64 0.001 0
0.65 0.001 0
0.66 0.001 0
0.67 0.001 0
0.68 0.001 0
0.69 0.001 0
0.7 0.001 0
0.71 0.001 0
0.72 0.001 0
0.73 0.001 0
0.74 0.001 0
0.75 0.001 0
0.76 0.001 0
0.77 0.001 0
0.78 0.001 0
0.79 0.001 0
0.8 0.001 0
0.81 0.001 0
0.82 0.001 0
0.83 0.001 0
0.84 0.001 0
0.85 0.001 0
0.86 0.001 0
0.87 0.001 0
0.88 0.001 0
0.89 0.001 0
0.9 0.001 0
0.91 0.001 0
0.92 0.001 0
0.93 0.001 0
0.94 0.001 0
0.95 0.001 0
0.96 0.001 0
0.97 0.001 0
0.98 0.001 0
0.99 0.001 0
0 0.002 0
0.01 0.002 0
0.02 0.002 0
0.03 0.002 0
0.04 0.002 0
0.05 0.002 0
0.06 0.002 0
0.07 0.002 0
0.08 0.002 0
0.09 0.002 0
0.1 0.002 0
0.11 0.002 0
0.12 0.002 0
0.13 0.002 0
0.14 0.002 0
0.15 0.002 0
0.16 0.002 0
0.17 0.002 0
0.18 0.002 0
0.19 0.002 0
0.2 0.002 0
0.21 0.002 0
0.22 0.002 0
0.23 0.002 0
0.24 0.002 0
0.25 0.002 0
0.26 0.002 0
0.27 0.002 0
0.28 0.002 0
0.29 0.002 0
0.3 0.002 0
0.31 0.002 0
0.32 0.002 0
0.33 0.002 0
0.34 0.002 0
0.35 0.002 0
0.36 0.002 0
0.37 0.002 0
0.38 0.002 0
0.39 0.002 0
0.4 0.002 0
0.41 0.002 0
0.42 0.002 0
0.43 0.002 0
0.44 0.002 0
0.45 0.002 0
0.46 0.002 0
0.47 0.002 0
0.48 0.002 0
0.49 0.002 0
0.5 0.002 0
0.51 0.002 0
0.52 0.002 0
0.53 0.002 0
0.54 0.002 0
0.55 0.002 0
0.56 0.002 0
0.57 0.002 0
0.58 0.002 0
0.59 0.002 0
0.6 0.002 0
0.61 0.002 0
0.62 0.002 0
0.63 0.002 0
0.64 0.002 0
0.65 0.002 0
0.66 0.002 0
0.67 0.002 0
0.68 0.002 0
0.69 0.002 0
0.7 0.002 0
0.71 0.002 0
0.72 0.002 0
0.73 0.002 0
0.74 0.002 0
0.75 0.002 0
0.76 0.002 0
0.77 0.002 0
0.78 0.002 0
0.79 0.002 0
0.8 0.002 0
0.81 0.002 0
0.82 0.002 0
0.83 0.002 0
0.84 0.002 0
0.85 0.002 0
0.86 0.002 0
0.87 0.002 0
0.88 0.002 0
0.89 0.002 0
0.9 0.002 0
0.91 0.002 0
0.92 0.002 0
0.93 0.002 0
0.94 0.002 0
0.95 0.002 0
0.96 0.002 0
0.97 0.002 0
0.98 0.002 0
0.99 0.002 0
0 0.003 0
0.01 0.003 0
0.02 0.003 0
0.03 0.003 0
0.04 0.003 0
0.05 0.003 0
0.06 0.003 0
0.07 0.003 0
0.08 0.003 0
0.09 0.003 0
0.1 0.003 0
0.11 0.003 0
0.12 0.003 0
0.13 0.003 0
0.14 0.003 0
0.15 0.003 0
0.16 0.003 0
0.17 0.003 0
0.18 0.003 0
0.19 0.003 0
0.2 0.003 0
0.21 0.003 0
0.22 0.003 0
0.23 0.003 0
0.24 0.003 0
0.25 0.003 0
0.26 0.003 0
0.27 0.003 0
0.28 0.003 0
0.29 0.003 0
0.3 0.003 0
0.31 0.003 0
0.32 0.003 0
0.33 0.003 0
0.34 0.003 0
0.35 0.003 0
0.36 0.003 0
0.37 0.003 0
0.38 0.003 0
0.39 0.003 0
0.4 0.003 0
0.41 0.003 0
0.42 0.003 0
0.43 0.003 0
0.44 0.003 0
0.45 0.003 0
0.46 0.003 0
0.47 0.003 0
0.48 0.003 0
0.49 0.003 0
0.5 0.003 0
0.51 0.003 0
0.52 0.003 0
0.53 0.003 0
0.54 0.003 0
0.55 0.003 0
0.56 0.003 0
0.57 0.003 0
0.58 0.003 0
0.59 0.003 0
0.6 0.003 0
0.61 0.003 0
0.62 0.003 0
0.63 0.003 0
0.64 0.003 0
0.65 0.003 0
0.66 0.003 0
0.67 0.003 0
0.68 0.003 0
0.69 0.003 0
0.7 0.003 0
0.71 0.003 0
0.72 0.003 0
0.73 0.003 0
0.74 0.003 0
0.75 0.003 0
0.76 0.003 0
0.77 0.003 0
0.78 0.003 0
0.79 0.003 0
0.8 0.003 0
0.81 0.003 0
0.82 0.003 0
0.83 0.003 0
0.84 0.003 0
0.85 0.003 0
0.86 0.003 0
0.87 0.003 0
0.88 0.003 0
0.89 0.003 0
0.9 0.003 0
0.91 0.003 0
0.92 0.003 0
0.93 0.003 0
0.94 0.003 0
0.95 0.003 0
0.96 0.003 0
0.97 0.003 0
0.98 0.003 0
0.99 0.003 0
0 0.004 0
0.01 0.004 0
0.02 0.004 0
0.03 0.004 0
0.04 0.004 0
0.05 0.004 0
0.06 0.004 0
0.07 0.004 0
0.08 0.004 0
0.09 0.004 0
0.1 0.004 0
0.11 0.004 0
0.12 0.004 0
0.13 0.004 0
0.14 0.004 0
0.15 0.004 0
0.16 0.004 0
0.17 0.004 0
0.18 0.004 0
0.19 0.004 0
0.2 0.004 0
0.21 0.004 0
0.22 0.004 0
0.23 0.004 0
0.24 0.004 0
0.25 0.004 0
0.26 0.004 0
0.27 0.004 0
0.28 0.004 0
0.29 0.004 0
0.3 0.004 0
0.31 0.004 0
0.32 0.004 0
0.33 0.004 0
0.34 0.004 0
0.35 0.004 0
0.36 0.004 0
0.37 0.004 0
0.38 0.004 0
0.39 0.004 0
0.4 0.004 0
0.41 0.004 0
0.42 0.004 0
0.43 0.004 0
0.44 0.004 0
0.45 0.004 0
0.46 0.004 0
0.47 0.004 0
0.48 0.004 0
0.49 0.004 0
0.5 0.004 0
0.51 0.004 0
0.52 0.004 0
0.53 0.004 0
0.54 0.004 0
0.55 0.004 0
0.56 0.004 0
0.57 0.004 0
0.58 0.004 0
0.59 0.004 0
0.6 0.004 0
0.61 0.004 0
0.62 0.004 0
0.63 0.004 0
0.64 0.004 0
0.65 0.004 0
0.66 0.004 0
0.67 0.004 0
0.68 0.004 0
0.69 0.004 0
0.7 0.004 0
0.71 0.004 0
0.72 0.004 0
0.73 0.004 0
0.74 0.004 0
0.75 0.004 0
0.76 0.004 0
0.77 0.004 0
0.78 0.004 0
0.79 0.004 0
0.8 0.004 0
0.81 0.004 0
0.82 0.004 0
0.83 0.004 0
0.84 0.004 0
0.85 0.004 0
0.86 0.004 0
0.87 0.004 0
0.88 0.004 0
0.89 0.004 0
0.9 0.004 0
0.91 0.004 0
0.92 0.004 0
0.93 0.004 0
0.94 0.004 0
0.95 0.004 0
0.96 0.004 0
0.97 0.004 0
0.98 0.004 0
0.99 0.004 0
0 0.005 0
0.01 0.005 0
0.02 0.005 0
0.03 0.005 0
0.04 0.005 0
0.05 0.005 0
0.06 0.005 0
0.07 0.005 0
0.08 0.005 0
0.09 0.005 0
0.1 0.005 0
0.11 0.005 0
0.12 0.005 0
0.13 0.005 0
0.14 0.005 0
0.15 0.005 0
0.16 0.005 0
0.17 0.005 0
0.18 0.005 0
0.19 0.005 0
0.2 0.005 0
0.21 0.005 0
0.22 0.005 0
0.23 0.005 0
0.24 0.005 0
0.25 0.005 0
0.26 0.005 0
0.27 0.005 0
0.28 0.005 0
0.29 0.005 0
0.3 0.005 0
0.31 0.005 0
0.32 0.005 0
0.33 0.005 0
0.34 0.005 0
0.35 0.005 0
0.36 0.005 0
0.37 0.005 0
0.38 0.005 0
0.39 0.005 0
0.4 0.005 0
0.41 0.005 0
0.42 0.005 0
0.43 0.005 0
0.44 0.005 0
0.45 0.005 0
0.46 0.005 0
0.47 0.005 0
0.48 0.005 0
0.49 0.005 0
0.5 0.005 0
0.51 0.005 0
0.52 0.005 0
0.53 0.005 0
0.54 0.005 0
0.55 0.005 0
0.56 0.005 0
0.57 0.005 0
0.58 0.005 0
0.59 0.005 0
0.6 0.005 0
0.61 0.005 0
0.62 0.005 0
0.63 0.005 0
0.64 0.005 0
0.65 0.005 0
0.66 0.005 0
0.67 0.005 0
0.68 0.005 0
0.69 0.005 0
0.7 0.005 0
0.71 0.005 0
0.72 0.005 0
0.73 0.005 0
0.74 0.005 0
0.75 0.005 0
0.76 0.005 0
0.77 0.005 0
0.78 0.005 0
0.79 0.005 0
0.8 0.005 0
0.81 0.005 0
0.82 0.005 0
0.83 0.005 0
0.84 0.005 0
0.85 0.005 0
0.86 0.005 0
0.87 0.005 0
0.88 0.005 0
0.89 0.005 0
0.9 0.005 0
0.91 0.005 0
0.92 0.005 0
0.93 0.005 0
0.94 0.005 0
0.95 0.005 0
0.96 0.005 0
0.97 0.005 0
0.98 0.005 0
0.99 0.005 0
0 0.006 0
0.01 0.006 0
0.02 0.006 0
0.03 0.006 0
0.04 0.006 0
0.05 0.006 0
0.06 0.006 0
0.07 0.006 0
0.08 0.006 0
0.09 0.006 0
0.1 0.006 0
0.11 0.006 0
0.12 0.006 0
0.13 0.006 0
0.14 0.006 0
0.15 0.006 0
0.16 0.006 0
0.17 0.006 0
0.18 0.006 0
0.19 0.006 0
0.2 0.006 0
0.21 0.006 0
0.22 0.006 0
0.23 0.006 0
0.24 0.006 0
0.25 0.006 0
0.26 0.006 0
0.27 0.006 0
0.28 0.006 0
0.29 0.006 0
0.3 0.006 0
0.31 0.006 0
0.32 0.006 0
0.33 0.006 0
0.34 0.006 0
0.35 0.006 0
0.36 0.006 0
0.37 0.006 0
0.38 0.006 0
0.39 0.006 0
0.4 0.006 0
0.41 0.006 0
0.42 0.006 0
0.43 0.006 0
0.44 0.006 0
0.45 0.006 0
0.46 0.006 0
0.47 0.006 0
0.48 0.006 0
0.49 0.006 0
0.5 0.006 0
0.51 0.006 0
0.52 0.006 0
0.53 0.006 0
0.54 0.006 0
0.55 0.006 0
0.56 0.006 0
0.57 0.006 0
0.58 0.006 0
0.59 0.006 0
0.6 0.006 0
0.61 0.006 0
0.62 0.006 0
0.63 0.006 0
0.64 0.006 0
0.65 0.006 0
0.66 0.006 0
0.67 0.006 0
0.68 0.006 0
0.69 0.006 0
0.7 0.006 0
0.71 0.006 0
0.72 0.006 0
0.73 0.006 0
0.74 0.006 0
0.75 0.006 0
0.76 0.006 0
0.77 0.006 0
0.78 0.006 0
0.79 0.006 0
0.8 0.006 0
0.81 0.006 0
0.82 0.006 0
0.83 0.006 0
0.84 0.006 0
0.85 0.006 0
0.86 0.006 0
0.87 0.006 0
0.88 0.006 0
0.89 0.006 0
0.9 0.006 0
0.91 0.006 0
0.92 0.006 0
0.93 0.006 0
0.94 0.006 0
0.95 0.006 0
0.96 0.006 0
0.97 0.006 0
0.98 0.006 0
0.99 0.006 0
0 0.007 0
0.01 0.007 0
0.02 0.007 0
0.03 0.007 0
0.04 0.007 0
0.05 0.007 0
0.06 0.007 0
0.07 0.007 0
0.08 0.007 0
0.09 0.007 0
0.1 0.007 0
0.11 0.007 0
0.12 0.007 0
0.13 0.007 0
0.14 0.007 0
0.15 0.007 0
0.16 0.007 0
0.17 0.007 0
0.18 0.007 0
0.19 0.007 0
0.2 0.007 0
0.21 0.007 0
0.22 0.007 0
0.23 0.007 0
0.24 0.007 0
0.25 0.007 0
0.26 0.007 0
0.27 0.007 0
0.28 0.007 0
0.29 0.007 0
0.3 0.007 0
0.31 0.007 0
0.32 0.007 0
0.33 0.007 0
0.34 0.007 0
0.35 0.007 0
0.36 0.007 0
0.37 0.007 0
0.38 0.007 0
0.39 0.007 0
0.4 0.007 0
0.41 0.007 0
0.42 0.007 0
0.43 0.007 0
0.44 0.007 0
0.45 0.007 0
0.46 0.007 0
0.47 0.007 0
0.48 0.007 0
0.49 0.007 0
0.5 0.007 0
0.51 0.007 0
0.52 0.007 0
0.53 0.007 0
0.54 0.007 0
0.55 0.007 0
0.56 0.007 0
0.57 0.007 0
0.58 0.007 0
0.59 0.007 0
0.6 0.007 0
0.61 0.007 0
0.62 0.007 0
0.63 0.007 0
0.64 0.007 0
0.65 0.007 0
0.66 0.007 0
0.67 0.007 0
0.68 0.007 0
0.69 0.007 0
0.7 0.007 0
0.71 0.007 0
0.72 0.007 0
0.73 0.007 0
0.74 0.007 0
0.75 0.007 0
0.76 0.007 0
0.77 0.007 0
0.78 0.007 0
0.79 0.007 0
0.8 0.007 0
0.81 0.007 0
0.82 0.007 0
0.83 0.007 0
0.84 0.007 0
0.85 0.007 0
0.86 0.007 0
0.87 0.007 0
0.88 0.007 0
0.89 0.007 0
0.9 0.007 0
0.91 0.007 0
0.92 0.007 0
0.93 0.007 0
0.94 0.007 0
0.95 0.007 0
0.96 0.007 0
0.97 0.007 0
0.98 0.007 0
[...]
POINT_DATA 10000

SCALARS vel_X float 1
LOOKUP_TABLE default
0
0
0
0
0
0
0
0
0
0
0
0
0
0
0
0
0
0
0
0
0
0
0
0
0
0
0
0
0
0
0
0
0
0
0
0
0
0
0
0
0
0
0
0
0
0
0
0
0
0
0
0
0
0
0
0
0
0
0
0
0
0
0
0
0
0
0
0
0
0
0
0
0
0
0
0
0
0
0
0
0
0
0
0
0
0
0
0
0
0
0
0
0
0
0
0
0
0
0
0
1
0.320704
0.209041
0.156943
0.142841
0.14708
0.108176
0.161001
0.101266
0.14584
0.145646
0.122917
0.156832
0.17137
0.12592
0.18371
0.188389
0.171471
0.179361
0.244966
0.235957
0.243838
0.273247
0.342185
0.322371
0.261103
0.15237
0.090556
0.0316233
0.0223158
-0.00102467
0.00862839
-0.00614869
0.00689186
-0.00668591
0.00673892
-0.00672619
0.00672905
-0.00672845
0.00672857
-0.00672855
0.00672855
-0.00672855
0.00672855
-0.00672855
0.00672855
-0.00672855
0.00672855
-0.00672855
0.00672855
-0.00672855
0.00672855
-0.00672855
0.00672855
-0.00672855
0.00672855
-0.00672855
0.00672855
-0.00672855
0.00672855
-0.00672855
0.00672855
-0.00672855
0.00672855
-0.00672855
0.00672854
-0.00672859
0.00672837
-0.00672927
0.00672607
-0.00673566
0.00671238
-0.00675528
0.00670373
-0.00672274
0.0067661
-0.00675668
0.00653523
-0.00684977
0.00709656
-0.0064098
0.0059315
-0.00720727
0.00821573
-0.0070451
0.00466854
-0.0043934
0.00651658
-0.00951501
0.0106707
-0.00987382
0.00733576
-0.00486684
0.00230773
-0.00108502
-9.25793e-05
-0.000222597
-0.00343655
-0.187622
-0.187622
1
0.561145
0.394369
0.306438
0.284302
0.279648
0.233425
0.297345
0.220977
0.283529
0.280462
0.255201
0.306119
0.320489
0.269284
0.351173
0.357232
0.338166
0.362169
0.452203
0.442515
0.457918
0.50457
0.583771
0.529711
0.410844
0.238817
0.136422
0.0500868
0.0315624
0.000464707
0.0109194
-0.00722051
0.00832596
-0.0080203
0.00809885
-0.00808
0.00808424
-0.00808334
0.00808352
-0.00808349
0.00808349
-0.00808349
0.00808349
-0.00808349
0.00808349
-0.00808349
0.00808349
-0.00808349
0.00808349
-0.00808349
0.00808349
-0.00808349
0.00808349
-0.00808349
0.00808349
-0.00808349
0.00808349
-0.00808349
0.00808349
-0.00808349
0.00808349
-0.00808349
0.00808349
-0.0080835
0.00808348
-0.00808355
0.00808323
-0.00808456
0.00807979
-0.00809419
0.00805883
-0.00812538
0.00804124
-0.00808358
0.00813323
-0.0081187
0.00780586
-0.00829502
0.00856105
-0.0075799
0.00704082
-0.00889189
0.0100398
-0.00827378
0.00516856
-0.00520353
0.00817618
-0.0120488
0.013138
-0.0118328
0.0082719
-0.00520434
0.00192442
-0.000715704
-0.000782471
-7.76369e-05
-0.00149902
0.266537
0.266537
1
0.73614
0.553036
0.449813
0.413681
0.40803
0.355908
0.420941
0.345855
0.407081
0.40879
0.386449
0.4386
0.460002
0.411112
0.497488
0.509027
0.495762
0.524576
0.621999
0.615737
0.632914
0.674742
0.739117
0.65365
0.496869
0.288854
0.162638
0.0613447
0.0367081
0.0017965
0.0119167
-0.00744995
0.0087888
-0.00841742
0.00851319
-0.00849013
0.00849533
-0.00849423
0.00849445
-0.0084944
0.00849441
-0.00849441
0.00849441
-0.00849441
0.00849441
-0.00849441
0.00849441
-0.00849441
0.00849441
-0.00849441
0.00849441
-0.00849441
0.00849441
-0.00849441
0.00849441
-0.00849441
0.00849441
-0.00849441
0.00849441
-0.00849441
0.00849441
-0.00849441
0.00849441
-0.00849441
0.0084944
-0.00849448
0.00849409
-0.0084957
0.00848995
-0.00850722
0.00846499
-0.00854447
0.00844259
-0.00850027
0.00854263
-0.00854191
0.00818045
-0.00873308
0.00899961
-0.00797444
0.00737549
-0.00932851
0.010512
-0.00878303
0.00554423
-0.00552626
0.00836596
-0.0123651
0.0135406
-0.012535
0.00899655
-0.00612478
0.00263657
-0.00148155
-0.000429076
-0.000562922
-0.0030342
-0.231942
-0.231942
1
0.860125
0.686162
0.58269
0.530108
0.53094
0.468949
0.535708
0.465745
0.51763
0.528972
0.508794
0.554727
0.589678
0.540465
0.623263
0.642805
0.635941
0.65824
0.756777
0.753022
0.764806
0.787114
0.831486
0.724268
0.548301
0.319958
0.180573
0.0689469
0.040892
0.0024939
0.0130517
-0.00795681
0.00949352
-0.0090646
0.00917589
-0.00914893
0.00915505
-0.00915374
0.009154
-0.00915395
0.00915396
-0.00915396
0.00915396
-0.00915396
0.00915396
-0.00915396
0.00915396
-0.00915396
0.00915396
-0.00915396
0.00915396
-0.00915396
0.00915396
-0.00915396
0.00915396
-0.00915396
0.00915396
-0.00915396
0.00915396
-0.00915396
0.00915396
-0.00915396
0.00915396
-0.00915396
0.00915395
-0.00915404
0.00915359
-0.00915545
0.00914891
-0.00916829
0.00912151
-0.00920836
0.00909828
-0.00916208
0.0091957
-0.00922151
0.00882056
-0.0093747
0.00967752
-0.00871898
0.00797492
-0.00981846
0.0111398
-0.00978097
0.00651018
-0.00607696
0.00837092
-0.0123789
0.0139609
-0.0137061
0.0105913
-0.00807827
0.00442146
-0.0031339
0.000656223
-0.00140975
-0.000149206
0.24791
0.24791
1
0.945954
0.795653
0.701467
0.634527
0.644418
0.571806
0.64042
0.576153
0.616231
0.63788
0.618473
0.655879
0.705399
0.6535
0.729236
0.756507
0.753431
0.763121
0.859021
0.855403
0.856787
0.855037
0.882195
0.763736
0.581183
0.341969
0.194794
0.0752038
0.0447011
0.00306448
0.0141928
-0.00849123
0.0102245
-0.009737
0.00986443
-0.00983334
0.00984045
-0.00983892
0.00983923
-0.00983917
0.00983918
-0.00983918
0.00983918
-0.00983918
0.00983918
-0.00983918
0.00983918
-0.00983918
0.00983918
-0.00983918
0.00983918
-0.00983918
0.00983918
-0.00983918
0.00983918
-0.00983918
0.00983918
-0.00983918
0.00983918
-0.00983918
0.00983918
-0.00983918
0.00983918
-0.00983918
0.00983916
-0.00983927
0.00983875
-0.00984085
0.00983357
-0.00985481
0.00980449
-0.00989588
0.0097832
-0.00984627
0.00987348
-0.00993109
0.00949237
-0.0100179
0.0103872
-0.00953291
0.0085903
-0.0102521
0.0117843
-0.010906
0.00760396
-0.00661122
0.0082588
-0.0122634
0.0143703
-0.0149779
0.0123837
-0.010234
0.0064393
-0.00495862
0.00192341
-0.0023187
-0.00152807
-0.239777
-0.239777
1
1.00412
0.883614
0.804542
0.727273
0.745667
0.664841
0.732927
0.67566
0.702907
0.733288
0.714202
0.742451
0.804052
0.749753
0.815857
0.849066
0.84709
0.842386
0.932107
0.927268
0.916632
0.893002
0.907282
0.786104
0.603954
0.359961
0.207083
0.0813804
0.0480824
0.00399951
0.0149938
-0.00866259
0.0106039
-0.0100534
0.0101984
-0.0101628
0.010171
-0.0101692
0.0101696
-0.0101695
0.0101695
-0.0101695
0.0101695
-0.0101695
0.0101695
-0.0101695
0.0101695
-0.0101695
0.0101695
-0.0101695
0.0101695
-0.0101695
0.0101695
-0.0101695
0.0101695
-0.0101695
0.0101695
-0.0101695
0.0101695
-0.0101695
0.0101695
-0.0101695
0.0101695
-0.0101695
0.0101695
-0.0101696
0.010169
-0.0101714
0.0101633
-0.0101864
0.0101329
-0.0102274
0.0101153
-0.0101734
0.0101965
-0.0102869
0.00981351
-0.010295
0.0107431
-0.0100062
0.00885661
-0.0103099
0.012055
-0.0116731
0.00837853
-0.006838
0.00783104
-0.0117575
0.0143324
-0.0157643
0.0137198
-0.011961
0.00814144
-0.0065366
0.00307048
-0.0030891
0.00120571
0.244497
0.244497
1
1.04261
0.952421
0.891714
0.808261
0.833457
0.74814
0.811986
0.763831
0.777459
0.814316
0.795777
0.814504
0.884584
0.829936
0.883984
0.921104
0.918627
0.900183
0.980614
0.974841
0.953281
0.912718
0.917512
0.799415
0.620963
0.376293
0.218197
0.0880106
0.0509878
0.00551683
0.0152926
-0.00829139
0.0104573
-0.00983784
0.0100024
-0.00996161
0.00997107
-0.00996901
0.00996943
-0.00996935
0.00996936
-0.00996936
0.00996936
-0.00996936
0.00996936
-0.00996936
0.00996936
-0.00996936
0.00996936
-0.00996936
0.00996936
-0.00996936
0.00996936
-0.00996936
0.00996936
-0.00996936
0.00996936
-0.00996936
0.00996936
-0.00996936
0.00996936
-0.00996936
0.00996936
-0.00996937
0.00996934
-0.00996949
0.00996881
-0.00997144
0.00996261
-0.00998743
0.00993117
-0.0100277
0.00991818
-0.00996913
0.00998897
-0.0101118
0.00960919
-0.0100366
0.0105623
-0.00995227
0.00861575
-0.0098396
0.0117533
-0.0118585
0.00865419
-0.00664465
0.00698293
-0.0107028
0.0136097
-0.0157896
0.0143282
-0.0130195
0.00932407
-0.00771862
0.00398845
-0.0037098
-0.000417775
-0.241428
-0.241428
1
1.06719
1.00468
0.96353
0.877539
0.907544
0.821624
0.877442
0.840459
0.840063
0.881122
0.863517
0.872496
0.947506
0.895194
0.935259
0.974657
0.97115
0.940866
1.00981
1.00458
0.974574
0.922306
0.919549
0.807966
0.634425
0.391936
0.228503
0.0952348
0.0534586
0.00763809
0.0150886
-0.00737005
0.00977942
-0.00908443
0.00927058
-0.00922409
0.00923496
-0.00923257
0.00923306
-0.00923297
0.00923298
-0.00923298
0.00923298
-0.00923298
0.00923298
-0.00923298
0.00923298
-0.00923298
0.00923298
-0.00923298
0.00923298
-0.00923298
0.00923298
-0.00923298
0.00923298
-0.00923298
0.00923298
-0.00923298
0.00923298
-0.00923298
0.00923298
-0.00923298
0.00923298
-0.00923299
0.00923295
-0.00923312
0.00923236
-0.00923529
0.00922563
-0.00925225
0.00919331
-0.00929138
0.00918552
-0.00922836
0.00924466
-0.00939909
0.00887444
-0.00923967
0.00983409
-0.00936172
0.00787127
-0.00884347
0.0108615
-0.0114399
0.00842516
-0.00604464
0.0057287
-0.00910381
0.0121853
-0.015029
0.0141844
-0.0133845
0.00994891
-0.00846872
0.00464103
-0.00413293
0.00207463
0.24354
0.24354
1
1.08195
1.04302
1.02095
0.935517
0.968227
0.885356
0.929908
0.905506
0.891384
0.934528
0.918153
0.917481
0.994234
0.946947
0.971994
1.01255
1.00819
0.968608
1.02488
1.02211
0.98638
0.926844
0.917287
0.813941
0.645473
0.407215
0.238209
0.103021
0.055583
0.0102953
0.0144583
-0.00597131
0.00864459
-0.0078668
0.00807686
-0.00802397
0.00803643
-0.00803368
0.00803425
-0.00803414
0.00803416
-0.00803416
0.00803416
-0.00803416
0.00803416
-0.00803416
0.00803416
-0.00803416
0.00803416
-0.00803416
0.00803416
-0.00803416
0.00803416
-0.00803416
0.00803416
-0.00803416
0.00803416
-0.00803416
0.00803416
-0.00803416
0.00803416
-0.00803416
0.00803415
-0.00803416
0.00803412
-0.00803432
0.00803346
-0.00803671
0.00802618
-0.00805462
0.00799315
-0.00809217
0.00799086
-0.0080254
0.00803699
-0.00822235
0.0076834
-0.00797969
0.00862977
-0.00830637
0.00669951
-0.00740004
0.00945405
-0.0104856
0.00775467
-0.0051053
0.00414929
-0.00706074
0.0101588
-0.01357
0.0133607
-0.0131093
0.0100343
-0.00878492
0.0050104
-0.0043881
0.000220269
-0.242097
-0.242097
1
1.08977
1.06994
1.06522
0.982954
1.01616
0.939643
0.970482
0.959186
0.93245
0.975764
0.960807
0.950968
1.02665
0.986816
0.996843
1.03781
1.03318
0.987111
1.03033
1.0317
0.992644
0.929245
0.912922
0.818411
0.654711
0.422174
0.247449
0.111268
0.0574681
0.0133846
0.0135084
-0.00419989
0.00715861
-0.0062903
0.00652676
-0.00646676
0.00648101
-0.00647783
0.0064785
-0.00647837
0.00647839
-0.00647839
0.00647839
-0.00647839
0.00647839
-0.00647839
0.00647839
-0.00647839
0.00647839
-0.00647839
0.00647839
-0.00647839
0.00647839
-0.00647839
0.00647839
-0.00647839
0.00647839
-0.00647839
0.00647839
-0.00647839
0.00647839
-0.00647839
0.00647839
-0.00647839
0.00647835
-0.00647857
0.00647761
-0.00648119
0.00646977
-0.00650003
0.00643619
-0.00653564
0.00643954
-0.00646608
0.00647128
-0.00668686
0.00614144
-0.0063636
0.00705424
-0.00688935
0.00520474
-0.0056202
0.00764354
-0.00909812
0.00673004
-0.00391549
0.00235572
-0.00471552
0.00767647
-0.0115398
0.0119618
-0.0122779
0.00962754
-0.00868678
0.00509345
-0.00443734
0.0024864
0.243017
0.243017
1
1.09268
1.08768
1.09774
1.02084
1.05228
0.984988
1.00057
1.002
0.964473
1.00629
0.992905
0.974697
1.04685
1.01649
1.01245
1.05331
1.04912
0.999391
1.02972
1.03633
0.995813
0.931031
0.907687
0.821883
0.662503
0.436736
0.256333
0.119844
0.0592308
0.0167859
0.0123602
-0.00217547
0.00544215
-0.00447513
0.00474067
-0.00467275
0.004689
-0.00468535
0.00468612
-0.00468597
0.004686
-0.00468599
0.00468599
-0.00468599
0.00468599
-0.00468599
0.00468599
-0.00468599
0.00468599
-0.00468599
0.00468599
-0.00468599
0.00468599
-0.00468599
0.00468599
-0.00468599
0.00468599
-0.00468599
0.00468599
-0.00468599
0.00468599
-0.00468599
0.00468599
-0.004686
0.00468595
-0.0046862
0.00468513
-0.00468907
0.00467671
-0.0047088
0.00464278
-0.00474215
0.00465175
-0.0046709
0.00466783
-0.0049127
0.00436852
-0.0045132
0.00522809
-0.00522805
0.00350433
-0.00363029
0.0055603
-0.00739538
0.00545136
-0.0025757
0.000471324
-0.00222513
0.00490336
-0.00908281
0.0101082
-0.0109962
0.0088053
-0.00822153
0.00490879
-0.00432788
0.000413339
-0.24252
-0.24252
1
1.09215
1.0982
1.12001
1.05032
1.07776
1.02201
1.02176
1.03471
0.9887
1.02768
1.01604
0.990457
1.05696
1.03759
1.02119
1.06151
1.05852
1.00771
1.02564
1.03789
0.997316
0.932899
0.902289
0.824589
0.669107
0.450778
0.264959
0.128606
0.0609901
0.0203731
0.0111395
-2.26004e-05
0.00362068
-0.0025463
0.00284378
-0.00276708
0.00278557
-0.00278139
0.00278228
-0.0027821
0.00278213
-0.00278213
0.00278213
-0.00278213
0.00278213
-0.00278213
0.00278213
-0.00278213
0.00278213
-0.00278213
0.00278213
-0.00278213
0.00278213
-0.00278213
0.00278213
-0.00278213
0.00278213
-0.00278213
0.00278213
-0.00278213
0.00278213
-0.00278213
0.00278213
-0.00278214
0.00278208
-0.00278236
0.00278117
-0.00278549
0.00277217
-0.00280606
0.00273807
-0.00283685
0.00275257
-0.00276512
0.00275189
-0.00302477
0.00248927
-0.00255506
0.00327729
-0.00344458
0.00171966
-0.00156115
0.00334033
-0.00550192
0.00402488
-0.00118999
-0.00138097
0.000254086
0.00201021
-0.00635163
0.00792886
-0.00938468
0.00766859
-0.00746352
0.00449898
-0.00404898
0.00247939
0.242681
0.242681
1
1.08923
1.10318
1.13352
1.07255
1.09397
1.05137
1.0357
1.05829
1.00632
1.04147
1.03184
0.999962
1.05901
1.05154
1.02503
1.06439
1.0633
1.01363
1.0199
1.03754
0.997945
0.9351
0.897148
0.826642
0.674727
0.464173
0.273413
0.137416
0.0628557
0.0240279
0.00996383
0.00214211
0.00181167
-0.000620811
0.000953299
-0.000866881
0.000887877
-0.000883092
0.000884119
-0.000883911
0.000883951
-0.000883943
0.000883945
-0.000883944
0.000883944
-0.000883944
0.000883944
-0.000883944
0.000883944
-0.000883944
0.000883944
-0.000883944
0.000883944
-0.000883944
0.000883944
-0.000883944
0.000883944
-0.000883944
0.000883944
-0.000883944
0.000883944
-0.000883945
0.000883942
-0.000883955
0.000883887
-0.000884207
0.000882886
-0.000887608
0.000873302
-0.00090896
0.000839231
-0.000936923
0.000859071
-0.000865971
0.000840776
-0.00113995
0.000620239
-0.000607685
0.0013202
-0.00165319
-3.6411e-05
0.000465463
0.00111181
-0.00353668
0.00255168
0.000146283
-0.0030928
0.00258155
-0.000840376
-0.00349643
0.00554909
-0.00756227
0.00632735
-0.00650276
0.00392271
-0.00367406
0.000236917
-0.242775
-0.242775
1
1.08468
1.10406
1.13972
1.08869
1.10238
1.07374
1.04399
1.07387
1.01841
1.04909
1.0418
1.00478
1.05486
1.05955
1.02548
1.0635
1.06488
1.01813
1.01362
1.03595
0.998109
0.937662
0.892517
0.828112
0.679531
0.476817
0.281758
0.14616
0.0649141
0.0276534
0.00892836
0.00422426
0.000110335
0.00120657
-0.000835822
0.00093296
-0.000909176
0.000914637
-0.000913457
0.000913698
-0.000913651
0.00091366
-0.000913658
0.000913659
-0.000913659
0.000913659
-0.000913659
0.000913659
-0.000913659
0.000913659
-0.000913659
0.000913659
-0.000913659
0.000913659
-0.000913659
0.000913659
-0.000913659
0.000913659
-0.000913659
0.000913659
-0.000913659
0.000913658
-0.000913661
0.000913646
-0.000913723
0.000913365
-0.000914826
0.000909682
-0.000924995
0.000887608
-0.000958837
0.000862712
-0.00093394
0.000931607
-0.000970398
0.000647127
-0.00114434
0.00123286
-0.000546774
5.37267e-05
-0.00167368
0.00235147
-0.00101946
-0.00159893
0.00111378
0.00136019
-0.00458438
0.00464779
-0.0035092
-0.000651469
0.00307613
-0.00562814
0.00487966
-0.00542733
0.00324306
-0.00320771
0.0021745
0.242498
0.242498
1
1.07905
1.10206
1.13993
1.09981
1.10448
1.08976
1.04805
1.08272
1.02589
1.05182
1.04727
1.0063
1.04613
1.0626
1.02359
1.05994
1.06418
1.02178
1.00751
1.03352
0.997995
0.940527
0.888539
0.829071
0.68365
0.488641
0.290024
0.154754
0.0672181
0.0311856
0.00809495
0.00616248
-0.00142123
0.00287419
-0.00246173
0.00257066
-0.00254378
0.00255
-0.00254865
0.00254893
-0.00254887
0.00254888
-0.00254888
0.00254888
-0.00254888
0.00254888
-0.00254888
0.00254888
-0.00254888
0.00254888
-0.00254888
0.00254888
-0.00254888
0.00254888
-0.00254888
0.00254888
-0.00254888
0.00254888
-0.00254888
0.00254888
-0.00254888
0.00254888
-0.00254888
0.00254887
-0.00254895
0.00254855
-0.00255016
0.00254458
-0.00256091
0.00252185
-0.00259432
0.00250023
-0.00256473
0.0025658
-0.00261959
0.00227487
-0.00274339
0.0029038
-0.00226006
0.00161636
-0.00313536
0.00403341
-0.00298111
0.000242737
-0.000236547
0.00241116
-0.0058141
0.00638583
-0.00589325
0.00207571
0.000589283
-0.00364742
0.00339356
-0.00430582
0.00251331
-0.00272279
-0.000156133
-0.242899
-0.242899
1
1.07273
1.0982
1.13539
1.10684
1.10177
1.1001
1.04908
1.08611
1.02957
1.0507
1.0493
1.00571
1.0342
1.06149
1.02
1.0545
1.06181
1.02488
1.00193
1.0305
0.99767
0.943613
0.885274
0.829608
0.687177
0.49962
0.298209
0.16315
0.0697832
0.0345966
0.00748879
0.00793182
-0.0027574
0.00435686
-0.00389902
0.00402092
-0.00399061
0.00399767
-0.00399612
0.00399644
-0.00399638
0.00399639
-0.00399639
0.00399639
-0.00399639
0.00399639
-0.00399639
0.00399639
-0.00399639
0.00399639
-0.00399639
0.00399639
-0.00399639
0.00399639
-0.00399639
0.00399639
-0.00399639
0.00399639
-0.00399639
0.00399639
-0.00399639
0.00399639
-0.00399639
0.00399637
-0.00399647
0.00399603
-0.0039978
0.00399175
-0.00400912
0.00396846
-0.00404189
0.00395027
-0.00400805
0.00401128
-0.00408122
0.0037181
-0.00415236
0.00437906
-0.00379235
0.00301079
-0.00440129
0.00548584
-0.00473788
0.00195423
-0.00148025
0.00329333
-0.00678037
0.00777486
-0.00793158
0.00460829
-0.00186151
-0.00164722
0.00189722
-0.00317511
0.00176678
-0.00220747
0.00172968
0.242422
0.242422
1
1.06599
1.09328
1.12723
1.11053
1.09563
1.10541
1.04795
1.08533
1.03014
1.04658
1.0487
1.00395
1.02022
1.05687
1.01508
1.0477
1.0581
1.02755
0.997046
1.0271
0.997132
0.946844
0.882726
0.829827
0.690177
0.509764
0.306282
0.171335
0.0725941
0.0378887
0.00710415
0.00953799
-0.0039033
0.00566013
-0.00515306
0.00528914
-0.00525504
0.00526305
-0.00526128
0.00526165
-0.00526157
0.00526159
-0.00526159
0.00526159
-0.00526159
0.00526159
-0.00526159
0.00526159
-0.00526159
0.00526159
-0.00526159
0.00526159
-0.00526159
0.00526159
-0.00526159
0.00526159
-0.00526159
0.00526159
-0.00526159
0.00526159
-0.00526159
0.00526159
-0.00526159
0.00526157
-0.00526168
0.00526118
-0.00526312
0.0052566
-0.00527501
0.00523282
-0.00530694
0.00521819
-0.00526935
0.00527347
-0.00536041
0.00498231
-0.00537744
0.00566352
-0.00514693
0.00424325
-0.00548204
0.00671543
-0.00628618
0.00353068
-0.00262586
0.00402897
-0.00751397
0.0088343
-0.00960248
0.00689612
-0.00424726
0.000375366
0.000381044
-0.00203698
0.00101114
-0.00170668
-0.000632024
-0.242936
-0.242936
1
1.05904
1.0879
1.11648
1.11148
1.08731
1.10638
1.04526
1.08154
1.02824
1.04009
1.04602
1.00176
1.00516
1.04931
1.00896
1.03985
1.0532
1.02977
0.992893
1.02348
0.996356
0.950155
0.880863
0.829834
0.692699
0.519107
0.3142
0.179308
0.0756179
0.0410806
0.00691835
0.0110034
-0.00488087
0.00680631
-0.00624596
0.00639755
-0.00635927
0.00636832
-0.00636631
0.00636673
-0.00636665
0.00636666
-0.00636666
0.00636666
-0.00636666
0.00636666
-0.00636666
0.00636666
-0.00636666
0.00636666
-0.00636666
0.00636666
-0.00636666
0.00636666
-0.00636666
0.00636666
-0.00636666
0.00636666
-0.00636666
0.00636666
-0.00636666
0.00636666
-0.00636666
0.00636664
-0.00636676
0.00636621
-0.00636834
0.00636132
-0.00638076
0.00633715
-0.00641167
0.00632616
-0.00637089
0.00637462
-0.00647911
0.00608972
-0.00644166
0.00677907
-0.00634382
0.00533617
-0.00640486
0.00774694
-0.00764041
0.00498294
-0.00369581
0.00465394
-0.00806234
0.00960894
-0.0109123
0.0089047
-0.00654382
0.00243457
-0.00118832
-0.000865308
0.000231454
-0.0011769
0.00123059
0.242415
0.242415
1
1.05204
1.08246
1.10409
1.11009
1.07788
1.10372
1.04137
1.07577
1.02447
1.03172
1.04158
0.999648
0.989835
1.03929
1.00165
1.0311
1.04718
1.03149
0.989441
1.01975
0.995325
0.953475
0.879641
0.829724
0.694793
0.527682
0.321924
0.187071
0.0788237
0.0441887
0.0069105
0.0123485
-0.00571005
0.00781572
-0.00719782
0.00736632
-0.00732344
0.00733366
-0.00733137
0.00733186
-0.00733176
0.00733178
-0.00733177
0.00733177
-0.00733177
0.00733177
-0.00733177
0.00733177
-0.00733177
0.00733177
-0.00733177
0.00733177
-0.00733177
0.00733177
-0.00733177
0.00733177
-0.00733177
0.00733177
-0.00733177
0.00733177
-0.00733177
0.00733177
-0.00733178
0.00733175
-0.00733189
0.00733128
-0.00733359
0.00732607
-0.00734654
0.00730161
-0.00737623
0.0072943
-0.00733288
0.00733495
-0.00745724
0.00706043
-0.007366
0.00774583
-0.007401
0.00630937
-0.00719464
0.00860423
-0.00881433
0.00631925
-0.00470797
0.00519859
-0.0084688
0.0101485
-0.011879
0.0106005