# vtk DataFile Version 2.0
FlowField
ASCII
DATASET STRUCTURED_GRID
DIMENSIONS 100 1 100
POINTS 10000 float
0 0 0
0.01 0 0
0.02 0 0
0.03 0 0
0.04 0 0
0.05 0 0
0.06 0 0
0.07 0 0
0.08 0 0
0.09 0 0
0.1 0 0
0.11 0 0
0.12 0 0
0.13 0 0
0.14 0 0
0.15 0 0
0.16 0 0
0.17 0 0
0.18 0 0
0.19 0 0
0.2 0 0
0.21 0 0
0.22 0 0
0.23 0 0
0.24 0 0
0.25 0 0
0.26 0 0
0.27 0 0
0.28 0 0
0.29 0 0
0.3 0 0
0.31 0 0
0.32 0 0
0.33 0 0
0.34 0 0
0.35 0 0
0.36 0 0
0.37 0 0
0.38 0 0
0.39 0 0
0.4 0 0
0.41 0 0
0.42 0 0
0.43 0 0
0.44 0 0
0.45 0 0
0.46 0 0
0.47 0 0
0.48 0 0
0.49 0 0
0.5 0 0
0.51 0 0
0.52 0 0
0.53 0 0
0.54 0 0
0.55 0 0
0.56 0 0
0.57 0 0
0.58 0 0
0.59 0 0
0.6 0 0
0.61 0 0
0.62 0 0
0.63 0 0
0.64 0 0
0.65 0 0
0.66 0 0
0.67 0 0
0.68 0 0
0.69 0 0
0.7 0 0
0.71 0 0
0.72 0 0
0.73 0 0
0.74 0 0
0.75 0 0
0.76 0 0
0.77 0 0
0.78 0 0
0.79 0 0
0.8 0 0
0.81 0 0
0.82 0 0
0.83 0 0
0.84 0 0
0.85 0 0
0.86 0 0
0.87 0 0
0.88 0 0
0.89 0 0
0.9 0 0
0.91 0 0
0.92 0 0
0.93 0 0
0.94 0 0
0.95 0 0
0.96 0 0
0.97 0 0
0.98 0 0
0.99 0 0
0 0.001 0
0.01 0.001 0
0.02 0.001 0
0.03 0.001 0
0.04 0.001 0
0.05 0.001 0
0.06 0.001 0
0.07 0.001 0
0.08 0.001 0
0.09 0.001 0
0.1 0.001 0
0.11 0.001 0
0.12 0.001 0
0.13 0.001 0
0.14 0.001 0
0.15 0.001 0
0.16 0.001 0
0.17 0.001 0
0.18 0.001 0
0.19 0.001 0
0.2 0.001 0
0.21 0.001 0
0.22 0.001 0
0.23 0.001 0
0.24 0.001 0
0.25 0.001 0
0.26 0.001 0
0.27 0.001 0
0.28 0.001 0
0.29 0.001 0
0.3 0.001 0
0.31 0.001 0
0.32 0.001 0
0.33 0.001 0
0.34 0.001 0
0.35 0.001 0
0.36 0.001 0
0.37 0.001 0
0.38 0.001 0
0.39 0.001 0
0.4 0.001 0
0.41 0.001 0
0.42 0.001 0
0.43 0.001 0
0.44 0.001 0
0.45 0.001 0
0.46 0.001 0
0.47 0.001 0
0.48 0.001 0
0.49 0.001 0
0.5 0.001 0
0.51 0.001 0
0.52 0.001 0
0.53 0.001 0
0.54 0.001 0
0.55 0.001 0
0.56 0.001 0
0.57 0.001 0
0.58 0.001 0
0.59 0.001 0
0.6 0.001 0
0.61 0.001 0
0.62 0.001 0
0.63 0.001 0
0.64 0.001 0
0.65 0.001 0
0.66 0.001 0
0.67 0.001 0
0.68 0.001 0
0.69 0.001 0
0.7 0.001 0
0.71 0.001 0
0.72 0.001 0
0.73 0.001 0
0.74 0.001 0
0.75 0.001 0
0.76 0.001 0
0.77 0.001 0
0.78 0.001 0
0.79 0.001 0
0.8 0.001 0
0.81 0.001 0
0.82 0.001 0
0.83 0.001 0
0.84 0.001 0
0.85 0.001 0
0.86 0.001 0
0.87 0.001 0
0.88 0.001 0
0.89 0.001 0
0.9 0.001 0
0.91 0.001 0
0.92 0.001 0
0.93 0.001 0
0.94 0.001 0
0.95 0.001 0
0.96 0.001 0
0.97 0.001 0
0.98 0.001 0
0.99 0.001 0
0 0.002 0
0.01 0.002 0
0.02 0.002 0
0.03 0.002 0
0.04 0.002 0
0.05 0.002 0
0.06 0.002 0
0.07 0.002 0
0.08 0.002 0
0.09 0.002 0
0.1 0.002 0
0.11 0.002 0
0.12 0.002 0
0.13 0.002 0
0.14 0.002 0
0.15 0.002 0
0.16 0.002 0
0.17 0.002 0
0.18 0.002 0
0.19 0.002 0
0.2 0.002 0
0.21 0.002 0
0.22 0.002 0
0.23 0.002 0
0.24 0.002 0
0.25 0.002 0
0.26 0.002 0
0.27 0.002 0
0.28 0.002 0
0.29 0.002 0
0.3 0.002 0
0.31 0.002 0
0.32 0.002 0
0.33 0.002 0
0.34 0.002 0
0.35 0.002 0
0.36 0.002 0
0.37 0.002 0
0.38 0.002 0
0.39 0.002 0
0.4 0.002 0
0.41 0.002 0
0.42 0.002 0
0.43 0.002 0
0.44 0.002 0
0.45 0.002 0
0.46 0.002 0
0.47 0.002 0
0.48 0.002 0
0.49 0.002 0
0.5 0.002 0
0.51 0.002 0
0.52 0.002 0
0.53 0.002 0
0.54 0.002 0
0.55 0.002 0
0.56 0.002 0
0.57 0.002 0
0.58 0.002 0
0.59 0.002 0
0.6 0.002 0
0.61 0.002 0
0.62 0.002 0
0.63 0.002 0
0.64 0.002 0
0.65 0.002 0
0.66 0.002 0
0.67 0.002 0
0.68 0.002 0
0.69 0.002 0
0.7 0.002 0
0.71 0.002 0
0.72 0.002 0
0.73 0.002 0
0.74 0.002 0
0.75 0.002 0
0.76 0.002 0
0.77 0.002 0
0.78 0.002 0
0.79 0.002 0
0.8 0.002 0
0.81 0.002 0
0.82 0.002 0
0.83 0.002 0
0.84 0.002 0
0.85 0.002 0
0.86 0.002 0
0.87 0.002 0
0.88 0.002 0
0.89 0.002 0
0.9 0.002 0
0.91 0.002 0
0.92 0.002 0
0.93 0.002 0
0.94 0.002 0
0.95 0.002 0
0.96 0.002 0
0.97 0.002 0
0.98 0.002 0
0.99 0.002 0
0 0.003 0
0.01 0.003 0
0.02 0.003 0
0.03 0.003 0
0.04 0.003 0
0.05 0.003 0
0.06 0.003 0
0.07 0.003 0
0.08 0.003 0
0.09 0.003 0
0.1 0.003 0
0.11 0.003 0
0.12 0.003 0
0.13 0.003 0
0.14 0.003 0
0.15 0.003 0
0.16 0.003 0
0.17 0.003 0
0.18 0.003 0
0.19 0.003 0
0.2 0.003 0
0.21 0.003 0
0.22 0.003 0
0.23 0.003 0
0.24 0.003 0
0.25 0.003 0
0.26 0.003 0
0.27 0.003 0
0.28 0.003 0
0.29 0.003 0
0.3 0.003 0
0.31 0.003 0
0.32 0.003 0
0.33 0.003 0
0.34 0.003 0
0.35 0.003 0
0.36 0.003 0
0.37 0.003 0
0.38 0.003 0
0.39 0.003 0
0.4 0.003 0
0.41 0.003 0
0.42 0.003 0
0.43 0.003 0
0.44 0.003 0
0.45 0.003 0
0.46 0.003 0
0.47 0.003 0
0.48 0.003 0
0.49 0.003 0
0.5 0.003 0
0.51 0.003 0
0.52 0.003 0
0.53 0.003 0
0.54 0.003 0
0.55 0.003 0
0.56 0.003 0
0.57 0.003 0
0.58 0.003 0
0.59 0.003 0
0.6 0.003 0
0.61 0.003 0
0.62 0.003 0
0.63 0.003 0
0.64 0.003 0
0.65 0.003 0
0.66 0.003 0
0.67 0.003 0
0.68 0.003 0
0.69 0.003 0
0.7 0.003 0
0.71 0.003 0
0.72 0.003 0
0.73 0.003 0
0.74 0.003 0
0.75 0.003 0
0.76 0.003 0
0.77 0.003 0
0.78 0.003 0
0.79 0.003 0
0.8 0.003 0
0.81 0.003 0
0.82 0.003 0
0.83 0.003 0
0.84 0.003 0
0.85 0.003 0
0.86 0.003 0
0.87 0.003 0
0.88 0.003 0
0.89 0.003 0
0.9 0.003 0
0.91 0.003 0
0.92 0.003 0
0.93 0.003 0
0.94 0.003 0
0.95 0.003 0
0.96 0.003 0
0.97 0.003 0
0.98 0.003 0
0.99 0.003 0
0 0.004 0
0.01 0.004 0
0.02 0.004 0
0.03 0.004 0
0.04 0.004 0
0.05 0.004 0
0.06 0.004 0
0.07 0.004 0
0.08 0.004 0
0.09 0.004 0
0.1 0.004 0
0.11 0.004 0
0.12 0.004 0
0.13 0.004 0
0.14 0.004 0
0.15 0.004 0
0.16 0.004 0
0.17 0.004 0
0.18 0.004 0
0.19 0.004 0
0.2 0.004 0
0.21 0.004 0
0.22 0.004 0
0.23 0.004 0
0.24 0.004 0
0.25 0.004 0
0.26 0.004 0
0.27 0.004 0
0.28 0.004 0
0.29 0.004 0
0.3 0.004 0
0.31 0.004 0
0.32 0.004 0
0.33 0.004 0
0.34 0.004 0
0.35 0.004 0
0.36 0.004 0
0.37 0.004 0
0.38 0.004 0
0.39 0.004 0
0.4 0.004 0
0.41 0.004 0
0.42 0.004 0
0.43 0.004 0
0.44 0.004 0
0.45 0.004 0
0.46 0.004 0
0.47 0.004 0
0.48 0.004 0
0.49 0.004 0
0.5 0.004 0
0.51 0.004 0
0.52 0.004 0
0.53 0.004 0
0.54 0.004 0
0.55 0.004 0
0.56 0.004 0
0.57 0.004 0
0.58 0.004 0
0.59 0.004 0
0.6 0.004 0
0.61 0.004 0
0.62 0.004 0
0.63 0.004 0
0.64 0.004 0
0.65 0.004 0
0.66 0.004 0
0.67 0.004 0
0.68 0.004 0
0.69 0.004 0
0.7 0.004 0
0.71 0.004 0
0.72 0.004 0
0.73 0.004 0
0.74 0.004 0
0.75 0.004 0
0.76 0.004 0
0.77 0.004 0
0.78 0.004 0
0.79 0.004 0
0.8 0.004 0
0.81 0.004 0
0.82 0.004 0
0.83 0.004 0
0.84 0.004 0
0.85 0.004 0
0.86 0.004 0
0.87 0.004 0
0.88 0.004 0
0.89 0.004 0
0.9 0.004 0
0.91 0.004 0
0.92 0.004 0
0.93 0.004 0
0.94 0.004 0
0.95 0.004 0
0.96 0.004 0
0.97 0.004 0
0.98 0.004 0
0.99 0.004 0
0 0.005 0
0.01 0.005 0
0.02 0.005 0
0.03 0.005 0
0.04 0.005 0
0.05 0.005 0
0.06 0.005 0
0.07 0.005 0
0.08 0.005 0
0.09 0.005 0
0.1 0.005 0
0.11 0.005 0
0.12 0.005 0
0.13 0.005 0
0.14 0.005 0
0.15 0.005 0
0.16 0.005 0
0.17 0.005 0
0.18 0.005 0
0.19 0.005 0
0.2 0.005 0
0.21 0.005 0
0.22 0.005 0
0.23 0.005 0
0.24 0.005 0
0.25 0.005 0
0.26 0.005 0
0.27 0.005 0
0.28 0.005 0
0.29 0.005 0
0.3 0.005 0
0.31 0.005 0
0.32 0.005 0
0.33 0.005 0
0.34 0.005 0
0.35 0.005 0
0.36 0.005 0
0.37 0.005 0
0.38 0.005 0
0.39 0.005 0
0.4 0.005 0
0.41 0.005 0
0.42 0.005 0
0.43 0.005 0
0.44 0.005 0
0.45 0.005 0
0.46 0.005 0
0.47 0.005 0
0.48 0.005 0
0.49 0.005 0
0.5 0.005 0
0.51 0.005 0
0.52 0.005 0
0.53 0.005 0
0.54 0.005 0
0.55 0.005 0
0.56 0.005 0
0.57 0.005 0
0.58 0.005 0
0.59 0.005 0
0.6 0.005 0
0.61 0.005 0
0.62 0.005 0
0.63 0.005 0
0.64 0.005 0
0.65 0.005 0
0.66 0.005 0
0.67 0.005 0
0.68 0.005 0
0.69 0.005 0
0.7 0.005 0
0.71 0.005 0
0.72 0.005 0
0.73 0.005 0
0.74 0.005 0
0.75 0.005 0
0.76 0.005 0
0.77 0.005 0
0.78 0.005 0
0.79 0.005 0
0.8 0.005 0
0.81 0.005 0
0.82 0.005 0
0.83 0.005 0
0.84 0.005 0
0.85 0.005 0
0.86 0.005 0
0.87 0.005 0
0.88 0.005 0
0.89 0.005 0
0.9 0.005 0
0.91 0.005 0
0.92 0.005 0
0.93 0.005 0
0.94 0.005 0
0.95 0.005 0
0.96 0.005 0
0.97 0.005 0
0.98 0.005 0
0.99 0.005 0
0 0.006 0
0.01 0.006 0
0.02 0.006 0
0.03 0.006 0
0.04 0.006 0
0.05 0.006 0
0.06 0.006 0
0.07 0.006 0
0.08 0.006 0
0.09 0.006 0
0.1 0.006 0
0.11 0.006 0
0.12 0.006 0
0.13 0.006 0
0.14 0.006 0
0.15 0.006 0
0.16 0.006 0
0.17 0.006 0
0.18 0.006 0
0.19 0.006 0
0.2 0.006 0
0.21 0.006 0
0.22 0.006 0
0.23 0.006 0
0.24 0.006 0
0.25 0.006 0
0.26 0.006 0
0.27 0.006 0
0.28 0.006 0
0.29 0.006 0
0.3 0.006 0
0.31 0.006 0
0.32 0.006 0
0.33 0.006 0
0.34 0.006 0
0.35 0.006 0
0.36 0.006 0
0.37 0.006 0
0.38 0.006 0
0.39 0.006 0
0.4 0.006 0
0.41 0.006 0
0.42 0.006 0
0.43 0.006 0
0.44 0.006 0
0.45 0.006 0
0.46 0.006 0
0.47 0.006 0
0.48 0.006 0
0.49 0.006 0
0.5 0.006 0
0.51 0.006 0
0.52 0.006 0
0.53 0.006 0
0.54 0.006 0
0.55 0.006 0
0.56 0.006 0
0.57 0.006 0
0.58 0.006 0
0.59 0.006 0
0.6 0.006 0
0.61 0.006 0
0.62 0.006 0
0.63 0.006 0
0.64 0.006 0
0.65 0.006 0
0.66 0.006 0
0.67 0.006 0
0.68 0.006 0
0.69 0.006 0
0.7 0.006 0
0.71 0.006 0
0.72 0.006 0
0.73 0.006 0
0.74 0.006 0
0.75 0.006 0
0.76 0.006 0
0.77 0.006 0
0.78 0.006 0
0.79 0.006 0
0.8 0.006 0
0.81 0.006 0
0.82 0.006 0
0.83 0.006 0
0.84 0.006 0
0.85 0.006 0
0.86 0.006 0
0.87 0.006 0
0.88 0.006 0
0.89 0.006 0
0.9 0.006 0
0.91 0.006 0
0.92 0.006 0
0.93 0.006 0
0.94 0.006 0
0.95 0.006 0
0.96 0.006 0
0.97 0.006 0
0.98 0.006 0
0.99 0.006 0
0 0.007 0
0.01 0.007 0
0.02 0.007 0
0.03 0.007 0
0.04 0.007 0
0.05 0.007 0
0.06 0.007 0
0.07 0.007 0
0.08 0.007 0
0.09 0.007 0
0.1 0.007 0
0.11 0.007 0
0.12 0.007 0
0.13 0.007 0
0.14 0.007 0
0.15 0.007 0
0.16 0.007 0
0.17 0.007 0
0.18 0.007 0
0.19 0.007 0
0.2 0.007 0
0.21 0.007 0
0.22 0.007 0
0.23 0.007 0
0.24 0.007 0
0.25 0.007 0
0.26 0.007 0
0.27 0.007 0
0.28 0.007 0
0.29 0.007 0
0.3 0.007 0
0.31 0.007 0
0.32 0.007 0
0.33 0.007 0
0.34 0.007 0
0.35 0.007 0
0.36 0.007 0
0.37 0.007 0
0.38 0.007 0
0.39 0.007 0
0.4 0.007 0
0.41 0.007 0
0.42 0.007 0
0.43 0.007 0
0.44 0.007 0
0.45 0.007 0
0.46 0.007 0
0.47 0.007 0
0.48 0.007 0
0.49 0.007 0
0.5 0.007 0
0.51 0.007 0
0.52 0.007 0
0.53 0.007 0
0.54 0.007 0
0.55 0.007 0
0.56 0.007 0
0.57 0.007 0
0.58 0.007 0
0.59 0.007 0
0.6 0.007 0
0.61 0.007 0
0.62 0.007 0
0.63 0.007 0
0.64 0.007 0
0.65 0.007 0
0.66 0.007 0
0.67 0.007 0
0.68 0.007 0
0.69 0.007 0
0.7 0.007 0
0.71 0.007 0
0.72 0.007 0
0.73 0.007 0
0.74 0.007 0
0.75 0.007 0
0.76 0.007 0
0.77 0.007 0
0.78 0.007 0
0.79 0.007 0
0.8 0.007 0
0.81 0.007 0
0.82 0.007 0
0.83 0.007 0
0.84 0.007 0
0.85 0.007 0
0.86 0.007 0
0.87 0.007 0
0.88 0.007 0
0.89 0.007 0
0.9 0.007 0
0.91 0.007 0
0.92 0.007 0
0.93 0.007 0
0.94 0.007 0
0.95 0.007 0
0.96 0.007 0
0.97 0.007 0
0.98 0.007 0
[...]
POINT_DATA 10000

SCALARS vel_X float 1
LOOKUP_TABLE default
0
0
0
0
0
0
0
0
0
0
0
0
0
0
0
0
0
0
0
0
0
0
0
0
0
0
0
0
0
0
0
0
0
0
0
0
0
0
0
0
0
0
0
0
0
0
0
0
0
0
0
0
0
0
0
0
0
0
0
0
0
0
0
0
0
0
0
0
0
0
0
0
0
0
0
0
0
0
0
0
0
0
0
0
0
0
0
0
0
0
0
0
0
0
0
0
0
0
0
0
1
0.32271
0.21157
0.150418
0.169769
0.113382
0.163172
0.120283
0.137386
0.157601
0.127368
0.149113
0.178506
0.128381
0.176016
0.192103
0.174134
0.17533
0.241684
0.238222
0.24243
0.270581
0.342418
0.328825
0.267958
0.157893
0.0927236
0.032949
0.0221794
-0.000620856
0.00823177
-0.00578333
0.00650604
-0.00630911
0.00635889
-0.00634716
0.00634975
-0.00634921
0.00634931
-0.0063493
0.0063493
-0.0063493
0.0063493
-0.0063493
0.0063493
-0.0063493
0.0063493
-0.0063493
0.0063493
-0.0063493
0.0063493
-0.0063493
0.0063493
-0.0063493
0.0063493
-0.0063493
0.0063493
-0.0063493
0.0063493
-0.0063493
0.0063493
-0.0063493
0.0063493
-0.0063493
0.0063493
-0.0063493
0.00634929
-0.00634934
0.00634911
-0.00635006
0.00634665
-0.00635693
0.00633199
-0.00637738
0.00632498
-0.00633916
0.00638857
-0.00639368
0.00613516
-0.00643118
0.00678513
-0.00614174
0.00541163
-0.00650338
0.00790025
-0.00736681
0.00492259
-0.00361449
0.00458077
-0.00740358
0.0096413
-0.0107168
0.00991421
-0.00852515
0.00622442
-0.00466869
0.00234602
-0.00445035
-0.182818
-0.182818
1
0.565222
0.396317
0.302881
0.317256
0.241792
0.306019
0.245949
0.275225
0.297511
0.261479
0.296029
0.331889
0.270579
0.342263
0.361836
0.342074
0.355184
0.449151
0.444668
0.457054
0.500986
0.587401
0.53995
0.422952
0.246239
0.140751
0.0509836
0.0324099
-3.56529e-06
0.0113904
-0.00774066
0.00881498
-0.00852288
0.0085966
-0.00857925
0.00858308
-0.00858229
0.00858244
-0.00858241
0.00858242
-0.00858242
0.00858242
-0.00858242
0.00858242
-0.00858242
0.00858242
-0.00858242
0.00858242
-0.00858242
0.00858242
-0.00858242
0.00858242
-0.00858242
0.00858242
-0.00858242
0.00858242
-0.00858242
0.00858242
-0.00858242
0.00858242
-0.00858242
0.00858242
-0.00858242
0.00858242
-0.00858242
0.00858241
-0.00858247
0.00858214
-0.00858354
0.00857846
-0.0085939
0.00855601
-0.0086265
0.00854048
-0.00857651
0.00863529
-0.00863995
0.00827254
-0.00874389
0.00916086
-0.00821969
0.00732512
-0.0089688
0.0106846
-0.00973124
0.00642027
-0.00503324
0.00657045
-0.0104058
0.0130575
-0.0142221
0.0127928
-0.0109326
0.00773655
-0.00592038
0.00272422
-0.00260685
0.258189
0.258189
1
0.739621
0.558011
0.445735
0.451238
0.371851
0.431428
0.375187
0.400618
0.427953
0.39396
0.430106
0.470695
0.414013
0.487626
0.51446
0.49892
0.518394
0.617901
0.619207
0.631985
0.673623
0.744189
0.667658
0.510444
0.298718
0.166762
0.0634271
0.0367025
0.00225554
0.0114625
-0.00705398
0.00835571
-0.0080006
0.00809055
-0.0080693
0.008074
-0.00807302
0.00807322
-0.00807318
0.00807319
-0.00807319
0.00807319
-0.00807319
0.00807319
-0.00807319
0.00807319
-0.00807319
0.00807319
-0.00807319
0.00807319
-0.00807319
0.00807319
-0.00807319
0.00807319
-0.00807319
0.00807319
-0.00807319
0.00807319
-0.00807319
0.00807319
-0.00807319
0.00807319
-0.00807319
0.00807318
-0.00807319
0.00807317
-0.00807326
0.00807285
-0.00807455
0.00806842
-0.00808693
0.00804171
-0.00812585
0.00802156
-0.00807256
0.00812445
-0.00814581
0.0077242
-0.0082569
0.00868446
-0.0077075
0.00673426
-0.00845894
0.0102172
-0.00934397
0.00593776
-0.00450086
0.00584136
-0.00970832
0.0123451
-0.0137869
0.0124335
-0.0109094
0.00764117
-0.00610133
0.00262403
-0.00428927
-0.22437
-0.22437
1
0.861386
0.696593
0.574324
0.574327
0.49481
0.544118
0.500204
0.512488
0.549357
0.517747
0.54938
0.597137
0.547361
0.611691
0.649413
0.637605
0.65517
0.750472
0.759134
0.763327
0.790072
0.835928
0.741831
0.560919
0.332882
0.183008
0.0734021
0.0387794
0.00513339
0.010427
-0.00539443
0.00689004
-0.00647942
0.00658409
-0.00655921
0.00656475
-0.00656359
0.00656382
-0.00656378
0.00656378
-0.00656378
0.00656378
-0.00656378
0.00656378
-0.00656378
0.00656378
-0.00656378
0.00656378
-0.00656378
0.00656378
-0.00656378
0.00656378
-0.00656378
0.00656378
-0.00656378
0.00656378
-0.00656378
0.00656378
-0.00656378
0.00656378
-0.00656378
0.00656378
-0.00656378
0.00656378
-0.00656379
0.00656377
-0.00656387
0.00656339
-0.00656535
0.00655838
-0.00657915
0.0065291
-0.00662092
0.00650842
-0.00656534
0.00660735
-0.00665863
0.00619754
-0.00672348
0.0071842
-0.00629993
0.00519708
-0.00676234
0.00858192
-0.00811454
0.00484858
-0.00314753
0.00386605
-0.00744248
0.010117
-0.0121072
0.0112395
-0.0103763
0.00733364
-0.0061571
0.00261232
-0.00194939
0.240727
0.240727
1
0.944583
0.811784
0.687715
0.685393
0.607352
0.645447
0.615616
0.612079
0.659177
0.629135
0.654078
0.709144
0.665136
0.715852
0.764365
0.753716
0.763888
0.850339
0.864507
0.854684
0.862074
0.884947
0.784155
0.591939
0.357907
0.195186
0.082279
0.0402213
0.00815244
0.00913529
-0.00349758
0.00518662
-0.00471924
0.00483929
-0.00481055
0.00481699
-0.00481563
0.0048159
-0.00481585
0.00481586
-0.00481586
0.00481586
-0.00481586
0.00481586
-0.00481586
0.00481586
-0.00481586
0.00481586
-0.00481586
0.00481586
-0.00481586
0.00481586
-0.00481586
0.00481586
-0.00481586
0.00481586
-0.00481586
0.00481586
-0.00481586
0.00481586
-0.00481586
0.00481586
-0.00481586
0.00481586
-0.00481586
0.00481584
-0.00481596
0.00481541
-0.00481763
0.00480986
-0.00483262
0.00477883
-0.00487526
0.00476052
-0.00481641
0.00485017
-0.0049372
0.00444082
-0.00492599
0.00544532
-0.0047012
0.0034272
-0.00474423
0.00666838
-0.00672347
0.0036492
-0.00158069
0.00156058
-0.00476842
0.00752941
-0.0101352
0.00986109
-0.009709
0.00698898
-0.00615833
0.00263268
-0.00379945
-0.231628
-0.231628
1
1.00029
0.904522
0.786084
0.782797
0.708621
0.734855
0.718999
0.699999
0.755162
0.726678
0.744362
0.804472
0.765852
0.801186
0.857997
0.846338
0.846888
0.921436
0.939015
0.913971
0.903429
0.908059
0.808558
0.612768
0.378494
0.205659
0.0908085
0.0415059
0.0112736
0.00777008
-0.0015027
0.00339695
-0.00286834
0.00300524
-0.0029722
0.00297966
-0.00297808
0.00297839
-0.00297833
0.00297835
-0.00297834
0.00297834
-0.00297834
0.00297834
-0.00297834
0.00297834
-0.00297834
0.00297834
-0.00297834
0.00297834
-0.00297834
0.00297834
-0.00297834
0.00297834
-0.00297834
0.00297834
-0.00297834
0.00297834
-0.00297834
0.00297834
-0.00297834
0.00297834
-0.00297834
0.00297834
-0.00297835
0.00297832
-0.00297846
0.00297784
-0.00298033
0.00297175
-0.00299641
0.00293938
-0.0030388
0.00292524
-0.00297581
0.00300324
-0.0031272
0.00259994
-0.00302748
0.00361533
-0.00302656
0.00157919
-0.002621
0.00464227
-0.00522395
0.00238025
2.57842e-05
-0.000762619
-0.00202522
0.00481519
-0.00795437
0.00824195
-0.00876795
0.00643788
-0.00596352
0.00259025
-0.00156677
0.237668
0.237668
1
1.03665
0.976839
0.869846
0.865729
0.798362
0.811684
0.809521
0.776357
0.836306
0.810032
0.82031
0.882298
0.849831
0.868833
0.930794
0.917134
0.908009
0.968492
0.988561
0.950144
0.925727
0.916449
0.823174
0.628087
0.39689
0.21538
0.0993514
0.0427613
0.0145376
0.00634529
0.000592989
0.00152315
-0.000927473
0.00108302
-0.00104518
0.00105379
-0.00105196
0.00105233
-0.00105226
0.00105227
-0.00105227
0.00105227
-0.00105227
0.00105227
-0.00105227
0.00105227
-0.00105227
0.00105227
-0.00105227
0.00105227
-0.00105227
0.00105227
-0.00105227
0.00105227
-0.00105227
0.00105227
-0.00105227
0.00105227
-0.00105227
0.00105227
-0.00105227
0.00105227
-0.00105227
0.00105227
-0.00105227
0.00105224
-0.00105239
0.00105169
-0.00105448
0.00104505
-0.00107162
0.00101162
-0.00111303
0.00100266
-0.00104571
0.00106755
-0.0012277
0.000676254
-0.00103626
0.0016888
-0.00126267
-0.000331714
-0.000423624
0.00249253
-0.00356512
0.00101449
0.00162995
-0.00302366
0.00072663
0.00197034
-0.00550655
0.00628499
-0.00744218
0.00556963
-0.00549292
0.00237663
-0.00340338
-0.233032
-0.233032
1
1.05949
1.03132
0.939617
0.934284
0.876437
0.875907
0.886977
0.84136
0.902704
0.879433
0.882336
0.943203
0.918117
0.920483
0.984723
0.969142
0.951472
0.996772
1.0195
0.97108
0.937161
0.91701
0.832404
0.640237
0.414046
0.224768
0.108
0.0440751
0.0179182
0.00490772
0.00274967
-0.00039266
0.00106199
-0.00088573
0.000928954
-0.000919041
0.000921175
-0.000920742
0.000920825
-0.00092081
0.000920813
-0.000920812
0.000920812
-0.000920812
0.000920812
-0.000920812
0.000920812
-0.000920812
0.000920812
-0.000920812
0.000920812
-0.000920812
0.000920812
-0.000920812
0.000920812
-0.000920812
0.000920812
-0.000920812
0.000920812
-0.000920812
0.000920812
-0.000920812
0.000920812
-0.000920813
0.000920807
-0.000920841
0.000920665
-0.000921458
0.000918361
-0.000928669
0.000900185
-0.000962968
0.000860263
-0.000966198
0.000931523
-0.00091572
0.000720633
-0.00128804
0.00100264
-0.000297403
0.00055423
-0.00225584
0.00179529
0.000253527
-0.00177074
-0.00041495
0.00317903
-0.00516103
0.00342657
-0.000958733
-0.00283286
0.00402432
-0.00575606
0.00438982
-0.00475343
0.00201725
-0.00107795
0.236877
0.236877
1
1.07293
1.07068
0.996286
0.989183
0.942885
0.928131
0.951487
0.89559
0.955192
0.935555
0.93135
0.988673
0.972115
0.958412
1.02258
1.00587
0.981374
1.01145
1.03746
0.982725
0.942893
0.913766
0.8385
0.65041
0.430276
0.23405
0.116701
0.0455562
0.0213261
0.00355475
0.0048734
-0.00225511
0.00300522
-0.00280601
0.00285526
-0.00284388
0.00284635
-0.00284584
0.00284594
-0.00284592
0.00284593
-0.00284592
0.00284592
-0.00284592
0.00284592
-0.00284592
0.00284592
-0.00284592
0.00284592
-0.00284592
0.00284592
-0.00284592
0.00284592
-0.00284592
0.00284592
-0.00284592
0.00284592
-0.00284592
0.00284592
-0.00284592
0.00284592
-0.00284592
0.00284592
-0.00284593
0.00284592
-0.00284596
0.00284576
-0.00284665
0.00284322
-0.00285445
0.00282404
-0.00288942
0.00278603
-0.00288666
0.00286038
-0.00285195
0.00262322
-0.0031978
0.00299222
-0.00225033
0.00233185
-0.00409686
0.00393561
-0.00197662
6.66045e-05
-0.00182436
0.00459143
-0.00708362
0.00596233
-0.00384864
-6.40925e-05
0.00158719
-0.00382006
0.00297322
-0.00379991
0.001501
-0.00280509
-0.233618
-0.233618
1
1.07987
1.09748
1.041
1.03153
0.998028
0.969404
1.00346
0.939962
0.995068
0.979456
0.96868
1.02066
1.01346
0.985202
1.04742
1.03076
1.00137
1.01704
1.04677
0.9891
0.945895
0.908979
0.842567
0.659236
0.445621
0.243369
0.125343
0.0473194
0.0246489
0.00240167
0.00685101
-0.0039499
0.00478841
-0.00456384
0.00461981
-0.00460677
0.00460962
-0.00460904
0.00460915
-0.00460913
0.00460913
-0.00460913
0.00460913
-0.00460913
0.00460913
-0.00460913
0.00460913
-0.00460913
0.00460913
-0.00460913
0.00460913
-0.00460913
0.00460913
-0.00460913
0.00460913
-0.00460913
0.00460913
-0.00460913
0.00460913
-0.00460913
0.00460913
-0.00460913
0.00460913
-0.00460913
0.00460912
-0.00460917
0.00460894
-0.00460994
0.00460615
-0.00461834
0.004586
-0.00465379
0.00455029
-0.00464496
0.00462662
-0.00462734
0.00436638
-0.00493934
0.00481694
-0.00405624
0.00395877
-0.00574354
0.00587906
-0.00407423
0.00183033
-0.00311567
0.00577768
-0.00868837
0.0081993
-0.00654595
0.00263942
-0.000869495
-0.00177527
0.00142208
-0.00270562
0.000901874
-0.000383029
0.236349
0.236349
1
1.08234
1.1141
1.07509
1.06265
1.04246
1.00104
1.04361
0.975576
1.02391
1.0125
0.995896
1.04128
1.04388
1.00341
1.06217
1.04685
1.01447
1.01709
1.0505
0.992693
0.947741
0.903888
0.845157
0.667076
0.46002
0.252816
0.133808
0.049465
0.0277821
0.00155376
0.00857876
-0.00537229
0.0063073
-0.00605475
0.00611821
-0.00610331
0.00610659
-0.00610592
0.00610605
-0.00610602
0.00610603
-0.00610603
0.00610603
-0.00610603
0.00610603
-0.00610603
0.00610603
-0.00610603
0.00610603
-0.00610603
0.00610603
-0.00610603
0.00610603
-0.00610603
0.00610603
-0.00610603
0.00610603
-0.00610603
0.00610603
-0.00610603
0.00610603
-0.00610603
0.00610603
-0.00610603
0.00610602
-0.00610607
0.00610581
-0.00610693
0.00610276
-0.00611594
0.00608168
-0.00615166
0.00604861
-0.00613684
0.00612564
-0.00613745
0.00584594
-0.00640883
0.00637087
-0.00560984
0.00533336
-0.00709613
0.00751693
-0.00592257
0.00341157
-0.00420105
0.00666063
-0.00988504
0.0100142
-0.00890668
0.00512847
-0.00319762
0.000237704
-0.000154689
-0.00155045
0.000230115
-0.00204417
-0.23413
-0.23413
1
1.08177
1.12263
1.09995
1.08403
1.07699
1.02447
1.07289
1.00357
1.04342
1.03623
1.01464
1.05263
1.06507
1.01533
1.06937
1.05662
1.02298
1.01417
1.05067
0.994929
0.94919
0.89916
0.846562
0.674149
0.4734
0.26244
0.141998
0.052065
0.0306461
0.00109036
0.00997848
-0.00644321
0.00748327
-0.00719995
0.00727173
-0.00725475
0.00725851
-0.00725773
0.00725788
-0.00725785
0.00725786
-0.00725786
0.00725786
-0.00725786
0.00725786
-0.00725786
0.00725786
-0.00725786
0.00725786
-0.00725786
0.00725786
-0.00725786
0.00725786
-0.00725786
0.00725786
-0.00725786
0.00725786
-0.00725786
0.00725786
-0.00725786
0.00725786
-0.00725786
0.00725786
-0.00725786
0.00725785
-0.00725791
0.00725761
-0.00725886
0.00725428
-0.00726849
0.00723234
-0.00730427
0.00720221
-0.00728363
0.00727858
-0.00730341
0.00698339
-0.00752822
0.00757383
-0.00683092
0.00637963
-0.0080813
0.00876688
-0.00743022
0.00472545
-0.0050158
0.00718822
-0.0106131
0.0113157
-0.0108169
0.00728408
-0.00527675
0.00209578
-0.00165356
-0.000413342
-0.000431092
0.000403419
0.235849
0.235849
1
1.07921
1.12489
1.117
1.09719
1.10255
1.04118
1.09251
1.02501
1.05533
1.05222
1.02653
1.05665
1.07859
1.02281
1.07115
1.062
1.02855
1.01002
1.04855
0.996553
0.950565
0.895139
0.846978
0.680596
0.48571
0.272253
0.149849
0.0551558
0.0331951
0.00105627
0.0110063
-0.00711795
0.00827206
-0.007955
0.00803599
-0.00801667
0.00802099
-0.00802008
0.00802026
-0.00802023
0.00802023
-0.00802023
0.00802023
-0.00802023
0.00802023
-0.00802023
0.00802023
-0.00802023
0.00802023
-0.00802023
0.00802023
-0.00802023
0.00802023
-0.00802023
0.00802023
-0.00802023
0.00802023
-0.00802023
0.00802023
-0.00802023
0.00802023
-0.00802023
0.00802023
-0.00802023
0.00802022
-0.00802029
0.00801996
-0.00802135
0.00801634
-0.00803159
0.00799359
-0.00806722
0.00796668
-0.00804104
0.00804098
-0.0080806
0.00773459
-0.00825394
0.00838014
-0.00767328
0.00705559
-0.00866043
0.0095823
-0.00854072
0.00571941
-0.00552555
0.00734104
-0.0108508
0.0120549
-0.0122023
0.00902574
-0.00702449
0.00370629
-0.00298805
0.000635065
-0.00107182
-0.00127551
-0.23461
-0.23461
1
1.07537
1.12241
1.12757
1.10367
1.12012
1.05256
1.10378
1.04085
1.06123
1.06201
1.03305
1.05507
1.08577
1.02723
1.06917
1.06438
1.03226
1.00568
1.04494
0.997909
0.951981
0.891982
0.84657
0.686502
0.496936
0.282229
0.157331
0.0587346
0.0354206
0.00145797
0.0116565
-0.00738992
0.00866754
-0.00831356
0.00840472
-0.00838281
0.00838774
-0.0083867
0.00838691
-0.00838687
0.00838687
-0.00838687
0.00838687
-0.00838687
0.00838687
-0.00838687
0.00838687
-0.00838687
0.00838687
-0.00838687
0.00838687
-0.00838687
0.00838687
-0.00838687
0.00838687
-0.00838687
0.00838687
-0.00838687
0.00838687
-0.00838687
0.00838687
-0.00838687
0.00838687
-0.00838688
0.00838686
-0.00838694
0.00838657
-0.0083881
0.00838265
-0.00839896
0.00835917
-0.00843422
0.00833571
-0.00840288
0.00840655
-0.00846249
0.00809348
-0.00858055
0.0087825
-0.00812851
0.00735684
-0.00883319
0.00995627
-0.00923669
0.00637702
-0.00572973
0.00713542
-0.0106188
0.0122295
-0.0130318
0.0103139
-0.00840161
0.0050168
-0.00410005
0.00154203
-0.00162063
0.0011125
0.235402
0.235402
1
1.07082
1.1165
1.1329
1.10493
1.1307
1.05987
1.10815
1.05189
1.06256
1.06695
1.03554
1.04933
1.08772
1.02954
1.06466
1.06468
1.03479
1.00177
1.04036
0.999112
0.953463
0.889728
0.845506
0.691912
0.507104
0.292304
0.164453
0.0627617
0.0373504
0.00226551
0.0119595
-0.00728878
0.00869982
-0.00830554
0.00840791
-0.00838311
0.00838874
-0.00838754
0.00838778
-0.00838774
0.00838774
-0.00838774
0.00838774
-0.00838774
0.00838774
-0.00838774
0.00838774
-0.00838774
0.00838774
-0.00838774
0.00838774
-0.00838774
0.00838774
-0.00838774
0.00838774
-0.00838774
0.00838774
-0.00838774
0.00838774
-0.00838774
0.00838774
-0.00838774
0.00838774
-0.00838775
0.00838773
-0.00838782
0.0083874
-0.00838909
0.00838318
-0.00840057
0.00835904
-0.00843523
0.00833923
-0.00839919
0.00840525
-0.00847876
0.00809018
-0.00853893
0.00881007
-0.0082243
0.00731454
-0.00863547
0.00991978
-0.00953822
0.00671643
-0.00565991
0.00662074
-0.00997668
0.011882
-0.013316
0.0111469
-0.00941019
0.00601845
-0.00496712
0.00227927
-0.00209087
-0.000656541
-0.235013
-0.235013
1
1.06595
1.10822
1.13407
1.10235
1.13526
1.06415
1.10704
1.05879
1.06049
1.0682
1.03519
1.04064
1.08533
1.03027
1.05852
1.06348
1.03654
0.998547
1.03516
1.00016
0.955006
0.888347
0.843957
0.696845
0.516276
0.302394
0.171249
0.0671692
0.0390392
0.00342086
0.0119733
-0.0068721
0.00842686
-0.00798873
0.00810342
-0.00807541
0.00808182
-0.00808044
0.00808072
-0.00808067
0.00808068
-0.00808068
0.00808068
-0.00808068
0.00808068
-0.00808068
0.00808068
-0.00808068
0.00808068
-0.00808068
0.00808068
-0.00808068
0.00808068
-0.00808068
0.00808068
-0.00808068
0.00808068
-0.00808068
0.00808068
-0.00808068
0.00808068
-0.00808068
0.00808068
-0.00808068
0.00808066
-0.00808076
0.0080803
-0.00808216
0.00807575
-0.00809423
0.00805106
-0.00812808
0.00803505
-0.00808788
0.00809494
-0.00818695
0.00778261
-0.00818783
0.00852016
-0.00801606
0.00698707
-0.00813088
0.00953322
-0.00949467
0.00678267
-0.00537177
0.00587033
-0.00901283
0.0110903
-0.0130995
0.0115515
-0.0100836
0.00674029
-0.00560252
0.00284593
-0.00244224
0.00162381
0.235048
0.235048
1
1.06105
1.09847
1.13198
1.09715
1.13473
1.06619
1.10186
1.06215
1.05594
1.06671
1.03297
1.03
1.07933
1.02967
1.05133
1.0611
1.0377
0.996113
1.02963
1.001
0.956594
0.887766
0.842092
0.701305
0.52453
0.312401
0.177769
0.0718746
0.0405556
0.00485206
0.0117701
-0.00621119
0.00792041
-0.00743466
0.00756286
-0.00753131
0.00753858
-0.00753701
0.00753733
-0.00753727
0.00753728
-0.00753728
0.00753728
-0.00753728
0.00753728
-0.00753728
0.00753728
-0.00753728
0.00753728
-0.00753728
0.00753728
-0.00753728
0.00753728
-0.00753728
0.00753728
-0.00753728
0.00753728
-0.00753728
0.00753728
-0.00753728
0.00753728
-0.00753728
0.00753728
-0.00753728
0.00753726
-0.00753737
0.00753686
-0.00753889
0.00753199
-0.00755155
0.00750683
-0.00758437
0.00749472
-0.00754062
0.00754727
-0.00765838
0.00724239
-0.00759981
0.00798415
-0.00757294
0.00644589
-0.00739653
0.00887209
-0.00917079
0.00663404
-0.00493158
0.00496672
-0.00782873
0.00995391
-0.0124485
0.0115683
-0.0104689
0.00723435
-0.00604639
0.00326405
-0.00272043
-0.000252663
-0.235317
-0.235317
1
1.05629
1.08798
1.12734
1.09039
1.13003
1.06655
1.09388
1.06249
1.04956
1.06318
1.02966
1.01822
1.07031
1.02781
1.04344
1.05773
1.03835
0.994447
1.02397
1.00158
0.958203
0.887897
0.840064
0.705301
0.53195
0.322237
0.184061
0.0767984
0.0419641
0.00649018
0.0114182
-0.00537415
0.00724895
-0.00671162
0.00685459
-0.00681913
0.00682736
-0.00682557
0.00682593
-0.00682586
0.00682588
-0.00682587
0.00682587
-0.00682587
0.00682587
-0.00682587
0.00682587
-0.00682587
0.00682587
-0.00682587
0.00682587
-0.00682587
0.00682587
-0.00682587
0.00682587
-0.00682587
0.00682587
-0.00682587
0.00682587
-0.00682587
0.00682587
-0.00682587
0.00682587
-0.00682588
0.00682585
-0.00682598
0.00682541
-0.00682764
0.00682021
-0.00684086
0.0067947
-0.00687244
0.00678654
-0.00682581
0.00683065
-0.00696111
0.00653777
-0.00684411
0.00727038
-0.00696084
0.00575856
-0.00650575
0.0080097
-0.00862978
0.0063257
-0.00439974
0.0039843
-0.00651986
0.00857503
-0.0114353
0.0112358
-0.0106069
0.00755441
-0.00634977
0.00356909
-0.0029106
0.00193312
0.234791
0.234791
1
1.05176
1.07738
1.12069
1.08297
1.12202
1.06556
1.08419
1.06037
1.04179
1.0581
1.02584
1.006
1.05875
1.02463
1.03501
1.05345
1.03848
0.99348
1.01833
1.00188
0.959792
0.888659
0.837991
0.70886
0.538603
0.331833
0.190153
0.0818803
0.0433099
0.0082852
0.0109672
-0.00441001
0.00646186
-0.00586881
0.0060279
-0.00598812
0.00599743
-0.00599538
0.00599581
-0.00599572
0.00599574
-0.00599574
0.00599574
-0.00599574
0.00599574
-0.00599574
0.00599574
-0.00599574
0.00599574
-0.00599574
0.00599574
-0.00599574
0.00599574
-0.00599574
0.00599574
-0.00599574
0.00599574
-0.00599574
0.00599574
-0.00599574
0.00599574
-0.00599574
0.00599574
-0.00599574
0.00599571
-0.00599586
0.00599522
-0.00599765
0.00598969
-0.00601141
0.00596393
-0.00604156
0.00595973
-0.00599277
0.00599444
-0.00614413
0.00571787
-0.0059709
0.00642838
-0.00622672
0.00497297
-0.00551222