# vtk DataFile Version 2.0
FlowField
ASCII
DATASET STRUCTURED_GRID
DIMENSIONS 100 1 100
POINTS 10000 float
0 0 0
0.01 0 0
0.02 0 0
0.03 0 0
0.04 0 0
0.05 0 0
0.06 0 0
0.07 0 0
0.08 0 0
0.09 0 0
0.1 0 0
0.11 0 0
0.12 0 0
0.13 0 0
0.14 0 0
0.15 0 0
0.16 0 0
0.17 0 0
0.18 0 0
0.19 0 0
0.2 0 0
0.21 0 0
0.22 0 0
0.23 0 0
0.24 0 0
0.25 0 0
0.26 0 0
0.27 0 0
0.28 0 0
0.29 0 0
0.3 0 0
0.31 0 0
0.32 0 0
0.33 0 0
0.34 0 0
0.35 0 0
0.36 0 0
0.37 0 0
0.38 0 0
0.39 0 0
0.4 0 0
0.41 0 0
0.42 0 0
0.43 0 0
0.44 0 0
0.45 0 0
0.46 0 0
0.47 0 0
0.48 0 0
0.49 0 0
0.5 0 0
0.51 0 0
0.52 0 0
0.53 0 0
0.54 0 0
0.55 0 0
0.56 0 0
0.57 0 0
0.58 0 0
0.59 0 0
0.6 0 0
0.61 0 0
0.62 0 0
0.63 0 0
0.64 0 0
0.65 0 0
0.66 0 0
0.67 0 0
0.68 0 0
0.69 0 0
0.7 0 0
0.71 0 0
0.72 0 0
0.73 0 0
0.74 0 0
0.75 0 0
0.76 0 0
0.77 0 0
0.78 0 0
0.79 0 0
0.8 0 0
0.81 0 0
0.82 0 0
0.83 0 0
0.84 0 0
0.85 0 0
0.86 0 0
0.87 0 0
0.88 0 0
0.89 0 0
0.9 0 0
0.91 0 0
0.92 0 0
0.93 0 0
0.94 0 0
0.95 0 0
0.96 0 0
0.97 0 0
0.98 0 0
0.99 0 0
0 0.001 0
0.01 0.001 0
0.02 0.001 0
0.03 0.001 0
0.04 0.001 0
0.05 0.001 0
0.06 0.001 0
0.07 0.001 0
0.08 0.001 0
0.09 0.001 0
0.1 0.001 0
0.11 0.001 0
0.12 0.001 0
0.13 0.001 0
0.14 0.001 0
0.15 0.001 0
0.16 0.001 0
0.17 0.001 0
0.18 0.001 0
0.19 0.001 0
0.2 0.001 0
0.21 0.001 0
0.22 0.001 0
0.23 0.001 0
0.24 0.001 0
0.25 0.001 0
0.26 0.001 0
0.27 0.001 0
0.28 0.001 0
0.29 0.001 0
0.3 0.001 0
0.31 0.001 0
0.32 0.001 0
0.33 0.001 0
0.34 0.001 0
0.35 0.001 0
0.36 0.001 0
0.37 0.001 0
0.38 0.001 0
0.39 0.001 0
0.4 0.001 0
0.41 0.001 0
0.42 0.001 0
0.43 0.001 0
0.44 0.001 0
0.45 0.001 0
0.46 0.001 0
0.47 0.001 0
0.48 0.001 0
0.49 0.001 0
0.5 0.001 0
0.51 0.001 0
0.52 0.001 0
0.53 0.001 0
0.54 0.001 0
0.55 0.001 0
0.56 0.001 0
0.57 0.001 0
0.58 0.001 0
0.59 0.001 0
0.6 0.001 0
0.61 0.001 0
0.62 0.001 0
0.63 0.001 0
0.64 0.001 0
0.65 0.001 0
0.66 0.001 0
0.67 0.001 0
0.68 0.001 0
0.69 0.001 0
0.7 0.001 0
0.71 0.001 0
0.72 0.001 0
0.73 0.001 0
0.74 0.001 0
0.75 0.001 0
0.76 0.001 0
0.77 0.001 0
0.78 0.001 0
0.79 0.001 0
0.8 0.001 0
0.81 0.001 0
0.82 0.001 0
0.83 0.001 0
0.84 0.001 0
0.85 0.001 0
0.86 0.001 0
0.87 0.001 0
0.88 0.001 0
0.89 0.001 0
0.9 0.001 0
0.91 0.001 0
0.92 0.001 0
0.93 0.001 0
0.94 0.001 0
0.95 0.001 0
0.96 0.001 0
0.97 0.001 0
0.98 0.001 0
0.99 0.001 0
0 0.002 0
0.01 0.002 0
0.02 0.002 0
0.03 0.002 0
0.04 0.002 0
0.05 0.002 0
0.06 0.002 0
0.07 0.002 0
0.08 0.002 0
0.09 0.002 0
0.1 0.002 0
0.11 0.002 0
0.12 0.002 0
0.13 0.002 0
0.14 0.002 0
0.15 0.002 0
0.16 0.002 0
0.17 0.002 0
0.18 0.002 0
0.19 0.002 0
0.2 0.002 0
0.21 0.002 0
0.22 0.002 0
0.23 0.002 0
0.24 0.002 0
0.25 0.002 0
0.26 0.002 0
0.27 0.002 0
0.28 0.002 0
0.29 0.002 0
0.3 0.002 0
0.31 0.002 0
0.32 0.002 0
0.33 0.002 0
0.34 0.002 0
0.35 0.002 0
0.36 0.002 0
0.37 0.002 0
0.38 0.002 0
0.39 0.002 0
0.4 0.002 0
0.41 0.002 0
0.42 0.002 0
0.43 0.002 0
0.44 0.002 0
0.45 0.002 0
0.46 0.002 0
0.47 0.002 0
0.48 0.002 0
0.49 0.002 0
0.5 0.002 0
0.51 0.002 0
0.52 0.002 0
0.53 0.002 0
0.54 0.002 0
0.55 0.002 0
0.56 0.002 0
0.57 0.002 0
0.58 0.002 0
0.59 0.002 0
0.6 0.002 0
0.61 0.002 0
0.62 0.002 0
0.63 0.002 0
0.64 0.002 0
0.65 0.002 0
0.66 0.002 0
0.67 0.002 0
0.68 0.002 0
0.69 0.002 0
0.7 0.002 0
0.71 0.002 0
0.72 0.002 0
0.73 0.002 0
0.74 0.002 0
0.75 0.002 0
0.76 0.002 0
0.77 0.002 0
0.78 0.002 0
0.79 0.002 0
0.8 0.002 0
0.81 0.002 0
0.82 0.002 0
0.83 0.002 0
0.84 0.002 0
0.85 0.002 0
0.86 0.002 0
0.87 0.002 0
0.88 0.002 0
0.89 0.002 0
0.9 0.002 0
0.91 0.002 0
0.92 0.002 0
0.93 0.002 0
0.94 0.002 0
0.95 0.002 0
0.96 0.002 0
0.97 0.002 0
0.98 0.002 0
0.99 0.002 0
0 0.003 0
0.01 0.003 0
0.02 0.003 0
0.03 0.003 0
0.04 0.003 0
0.05 0.003 0
0.06 0.003 0
0.07 0.003 0
0.08 0.003 0
0.09 0.003 0
0.1 0.003 0
0.11 0.003 0
0.12 0.003 0
0.13 0.003 0
0.14 0.003 0
0.15 0.003 0
0.16 0.003 0
0.17 0.003 0
0.18 0.003 0
0.19 0.003 0
0.2 0.003 0
0.21 0.003 0
0.22 0.003 0
0.23 0.003 0
0.24 0.003 0
0.25 0.003 0
0.26 0.003 0
0.27 0.003 0
0.28 0.003 0
0.29 0.003 0
0.3 0.003 0
0.31 0.003 0
0.32 0.003 0
0.33 0.003 0
0.34 0.003 0
0.35 0.003 0
0.36 0.003 0
0.37 0.003 0
0.38 0.003 0
0.39 0.003 0
0.4 0.003 0
0.41 0.003 0
0.42 0.003 0
0.43 0.003 0
0.44 0.003 0
0.45 0.003 0
0.46 0.003 0
0.47 0.003 0
0.48 0.003 0
0.49 0.003 0
0.5 0.003 0
0.51 0.003 0
0.52 0.003 0
0.53 0.003 0
0.54 0.003 0
0.55 0.003 0
0.56 0.003 0
0.57 0.003 0
0.58 0.003 0
0.59 0.003 0
0.6 0.003 0
0.61 0.003 0
0.62 0.003 0
0.63 0.003 0
0.64 0.003 0
0.65 0.003 0
0.66 0.003 0
0.67 0.003 0
0.68 0.003 0
0.69 0.003 0
0.7 0.003 0
0.71 0.003 0
0.72 0.003 0
0.73 0.003 0
0.74 0.003 0
0.75 0.003 0
0.76 0.003 0
0.77 0.003 0
0.78 0.003 0
0.79 0.003 0
0.8 0.003 0
0.81 0.003 0
0.82 0.003 0
0.83 0.003 0
0.84 0.003 0
0.85 0.003 0
0.86 0.003 0
0.87 0.003 0
0.88 0.003 0
0.89 0.003 0
0.9 0.003 0
0.91 0.003 0
0.92 0.003 0
0.93 0.003 0
0.94 0.003 0
0.95 0.003 0
0.96 0.003 0
0.97 0.003 0
0.98 0.003 0
0.99 0.003 0
0 0.004 0
0.01 0.004 0
0.02 0.004 0
0.03 0.004 0
0.04 0.004 0
0.05 0.004 0
0.06 0.004 0
0.07 0.004 0
0.08 0.004 0
0.09 0.004 0
0.1 0.004 0
0.11 0.004 0
0.12 0.004 0
0.13 0.004 0
0.14 0.004 0
0.15 0.004 0
0.16 0.004 0
0.17 0.004 0
0.18 0.004 0
0.19 0.004 0
0.2 0.004 0
0.21 0.004 0
0.22 0.004 0
0.23 0.004 0
0.24 0.004 0
0.25 0.004 0
0.26 0.004 0
0.27 0.004 0
0.28 0.004 0
0.29 0.004 0
0.3 0.004 0
0.31 0.004 0
0.32 0.004 0
0.33 0.004 0
0.34 0.004 0
0.35 0.004 0
0.36 0.004 0
0.37 0.004 0
0.38 0.004 0
0.39 0.004 0
0.4 0.004 0
0.41 0.004 0
0.42 0.004 0
0.43 0.004 0
0.44 0.004 0
0.45 0.004 0
0.46 0.004 0
0.47 0.004 0
0.48 0.004 0
0.49 0.004 0
0.5 0.004 0
0.51 0.004 0
0.52 0.004 0
0.53 0.004 0
0.54 0.004 0
0.55 0.004 0
0.56 0.004 0
0.57 0.004 0
0.58 0.004 0
0.59 0.004 0
0.6 0.004 0
0.61 0.004 0
0.62 0.004 0
0.63 0.004 0
0.64 0.004 0
0.65 0.004 0
0.66 0.004 0
0.67 0.004 0
0.68 0.004 0
0.69 0.004 0
0.7 0.004 0
0.71 0.004 0
0.72 0.004 0
0.73 0.004 0
0.74 0.004 0
0.75 0.004 0
0.76 0.004 0
0.77 0.004 0
0.78 0.004 0
0.79 0.004 0
0.8 0.004 0
0.81 0.004 0
0.82 0.004 0
0.83 0.004 0
0.84 0.004 0
0.85 0.004 0
0.86 0.004 0
0.87 0.004 0
0.88 0.004 0
0.89 0.004 0
0.9 0.004 0
0.91 0.004 0
0.92 0.004 0
0.93 0.004 0
0.94 0.004 0
0.95 0.004 0
0.96 0.004 0
0.97 0.004 0
0.98 0.004 0
0.99 0.004 0
0 0.005 0
0.01 0.005 0
0.02 0.005 0
0.03 0.005 0
0.04 0.005 0
0.05 0.005 0
0.06 0.005 0
0.07 0.005 0
0.08 0.005 0
0.09 0.005 0
0.1 0.005 0
0.11 0.005 0
0.12 0.005 0
0.13 0.005 0
0.14 0.005 0
0.15 0.005 0
0.16 0.005 0
0.17 0.005 0
0.18 0.005 0
0.19 0.005 0
0.2 0.005 0
0.21 0.005 0
0.22 0.005 0
0.23 0.005 0
0.24 0.005 0
0.25 0.005 0
0.26 0.005 0
0.27 0.005 0
0.28 0.005 0
0.29 0.005 0
0.3 0.005 0
0.31 0.005 0
0.32 0.005 0
0.33 0.005 0
0.34 0.005 0
0.35 0.005 0
0.36 0.005 0
0.37 0.005 0
0.38 0.005 0
0.39 0.005 0
0.4 0.005 0
0.41 0.005 0
0.42 0.005 0
0.43 0.005 0
0.44 0.005 0
0.45 0.005 0
0.46 0.005 0
0.47 0.005 0
0.48 0.005 0
0.49 0.005 0
0.5 0.005 0
0.51 0.005 0
0.52 0.005 0
0.53 0.005 0
0.54 0.005 0
0.55 0.005 0
0.56 0.005 0
0.57 0.005 0
0.58 0.005 0
0.59 0.005 0
0.6 0.005 0
0.61 0.005 0
0.62 0.005 0
0.63 0.005 0
0.64 0.005 0
0.65 0.005 0
0.66 0.005 0
0.67 0.005 0
0.68 0.005 0
0.69 0.005 0
0.7 0.005 0
0.71 0.005 0
0.72 0.005 0
0.73 0.005 0
0.74 0.005 0
0.75 0.005 0
0.76 0.005 0
0.77 0.005 0
0.78 0.005 0
0.79 0.005 0
0.8 0.005 0
0.81 0.005 0
0.82 0.005 0
0.83 0.005 0
0.84 0.005 0
0.85 0.005 0
0.86 0.005 0
0.87 0.005 0
0.88 0.005 0
0.89 0.005 0
0.9 0.005 0
0.91 0.005 0
0.92 0.005 0
0.93 0.005 0
0.94 0.005 0
0.95 0.005 0
0.96 0.005 0
0.97 0.005 0
0.98 0.005 0
0.99 0.005 0
0 0.006 0
0.01 0.006 0
0.02 0.006 0
0.03 0.006 0
0.04 0.006 0
0.05 0.006 0
0.06 0.006 0
0.07 0.006 0
0.08 0.006 0
0.09 0.006 0
0.1 0.006 0
0.11 0.006 0
0.12 0.006 0
0.13 0.006 0
0.14 0.006 0
0.15 0.006 0
0.16 0.006 0
0.17 0.006 0
0.18 0.006 0
0.19 0.006 0
0.2 0.006 0
0.21 0.006 0
0.22 0.006 0
0.23 0.006 0
0.24 0.006 0
0.25 0.006 0
0.26 0.006 0
0.27 0.006 0
0.28 0.006 0
0.29 0.006 0
0.3 0.006 0
0.31 0.006 0
0.32 0.006 0
0.33 0.006 0
0.34 0.006 0
0.35 0.006 0
0.36 0.006 0
0.37 0.006 0
0.38 0.006 0
0.39 0.006 0
0.4 0.006 0
0.41 0.006 0
0.42 0.006 0
0.43 0.006 0
0.44 0.006 0
0.45 0.006 0
0.46 0.006 0
0.47 0.006 0
0.48 0.006 0
0.49 0.006 0
0.5 0.006 0
0.51 0.006 0
0.52 0.006 0
0.53 0.006 0
0.54 0.006 0
0.55 0.006 0
0.56 0.006 0
0.57 0.006 0
0.58 0.006 0
0.59 0.006 0
0.6 0.006 0
0.61 0.006 0
0.62 0.006 0
0.63 0.006 0
0.64 0.006 0
0.65 0.006 0
0.66 0.006 0
0.67 0.006 0
0.68 0.006 0
0.69 0.006 0
0.7 0.006 0
0.71 0.006 0
0.72 0.006 0
0.73 0.006 0
0.74 0.006 0
0.75 0.006 0
0.76 0.006 0
0.77 0.006 0
0.78 0.006 0
0.79 0.006 0
0.8 0.006 0
0.81 0.006 0
0.82 0.006 0
0.83 0.006 0
0.84 0.006 0
0.85 0.006 0
0.86 0.006 0
0.87 0.006 0
0.88 0.006 0
0.89 0.006 0
0.9 0.006 0
0.91 0.006 0
0.92 0.006 0
0.93 0.006 0
0.94 0.006 0
0.95 0.006 0
0.96 0.006 0
0.97 0.006 0
0.98 0.006 0
0.99 0.006 0
0 0.007 0
0.01 0.007 0
0.02 0.007 0
0.03 0.007 0
0.04 0.007 0
0.05 0.007 0
0.06 0.007 0
0.07 0.007 0
0.08 0.007 0
0.09 0.007 0
0.1 0.007 0
0.11 0.007 0
0.12 0.007 0
0.13 0.007 0
0.14 0.007 0
0.15 0.007 0
0.16 0.007 0
0.17 0.007 0
0.18 0.007 0
0.19 0.007 0
0.2 0.007 0
0.21 0.007 0
0.22 0.007 0
0.23 0.007 0
0.24 0.007 0
0.25 0.007 0
0.26 0.007 0
0.27 0.007 0
0.28 0.007 0
0.29 0.007 0
0.3 0.007 0
0.31 0.007 0
0.32 0.007 0
0.33 0.007 0
0.34 0.007 0
0.35 0.007 0
0.36 0.007 0
0.37 0.007 0
0.38 0.007 0
0.39 0.007 0
0.4 0.007 0
0.41 0.007 0
0.42 0.007 0
0.43 0.007 0
0.44 0.007 0
0.45 0.007 0
0.46 0.007 0
0.47 0.007 0
0.48 0.007 0
0.49 0.007 0
0.5 0.007 0
0.51 0.007 0
0.52 0.007 0
0.53 0.007 0
0.54 0.007 0
0.55 0.007 0
0.56 0.007 0
0.57 0.007 0
0.58 0.007 0
0.59 0.007 0
0.6 0.007 0
0.61 0.007 0
0.62 0.007 0
0.63 0.007 0
0.64 0.007 0
0.65 0.007 0
0.66 0.007 0
0.67 0.007 0
0.68 0.007 0
0.69 0.007 0
0.7 0.007 0
0.71 0.007 0
0.72 0.007 0
0.73 0.007 0
0.74 0.007 0
0.75 0.007 0
0.76 0.007 0
0.77 0.007 0
0.78 0.007 0
0.79 0.007 0
0.8 0.007 0
0.81 0.007 0
0.82 0.007 0
0.83 0.007 0
0.84 0.007 0
0.85 0.007 0
0.86 0.007 0
0.87 0.007 0
0.88 0.007 0
0.89 0.007 0
0.9 0.007 0
0.91 0.007 0
0.92 0.007 0
0.93 0.007 0
0.94 0.007 0
0.95 0.007 0
0.96 0.007 0
0.97 0.007 0
0.98 0.007 0
[...]
POINT_DATA 10000

SCALARS vel_X float 1
LOOKUP_TABLE default
0
0
0
0
0
0
0
0
0
0
0
0
0
0
0
0
0
0
0
0
0
0
0
0
0
0
0
0
0
0
0
0
0
0
0
0
0
0
0
0
0
0
0
0
0
0
0
0
0
0
0
0
0
0
0
0
0
0
0
0
0
0
0
0
0
0
0
0
0
0
0
0
0
0
0
0
0
0
0
0
0
0
0
0
0
0
0
0
0
0
0
0
0
0
0
0
0
0
0
0
1
0.392157
0.315897
0.319582
0.461823
0.415859
0.226912
0.0788305
0.0233178
0.00247364
0.00271315
-0.00185124
0.00197283
-0.00195795
0.00195956
-0.0019594
0.00195942
-0.00195942
0.00195942
-0.00195942
0.00195942
-0.00195942
0.00195942
-0.00195942
0.00195942
-0.00195942
0.00195942
-0.00195942
0.00195942
-0.00195942
0.00195942
-0.00195942
0.00195942
-0.00195942
0.00195942
-0.00195942
0.00195942
-0.00195942
0.00195942
-0.00195942
0.00195942
-0.00195942
0.00195942
-0.00195942
0.00195942
-0.00195942
0.00195942
-0.00195942
0.00195942
-0.00195942
0.00195942
-0.00195942
0.00195942
-0.00195942
0.00195942
-0.00195942
0.00195942
-0.00195942
0.00195942
-0.00195942
0.00195942
-0.00195942
0.00195942
-0.00195942
0.00195942
-0.00195942
0.00195942
-0.00195942
0.00195942
-0.00195942
0.00195942
-0.00195942
0.00195942
-0.00195942
0.00195942
-0.00195942
0.00195942
-0.00195942
0.00195942
-0.00195942
0.00195942
-0.00195942
0.00195942
-0.00195942
0.00195942
-0.00195942
0.00195941
-0.00195944
0.00195916
-0.00196188
0.00194321
-0.00202508
0.0018395
-0.00189294
0.00221974
-0.00283506
0.00147113
-0.00181901
-0.0580407
-0.0580407
1
0.682852
0.582801
0.603225
0.771075
0.646556
0.340231
0.116939
0.0337956
0.00403936
0.00355705
-0.00229368
0.00247232
-0.00245039
0.00245277
-0.00245254
0.00245256
-0.00245256
0.00245256
-0.00245256
0.00245256
-0.00245256
0.00245256
-0.00245256
0.00245256
-0.00245256
0.00245256
-0.00245256
0.00245256
-0.00245256
0.00245256
-0.00245256
0.00245256
-0.00245256
0.00245256
-0.00245256
0.00245256
-0.00245256
0.00245256
-0.00245256
0.00245256
-0.00245256
0.00245256
-0.00245256
0.00245256
-0.00245256
0.00245256
-0.00245256
0.00245256
-0.00245256
0.00245256
-0.00245256
0.00245256
-0.00245256
0.00245256
-0.00245256
0.00245256
-0.00245256
0.00245256
-0.00245256
0.00245256
-0.00245256
0.00245256
-0.00245256
0.00245256
-0.00245256
0.00245256
-0.00245256
0.00245256
-0.00245256
0.00245256
-0.00245256
0.00245256
-0.00245256
0.00245256
-0.00245256
0.00245256
-0.00245256
0.00245256
-0.00245256
0.00245256
-0.00245256
0.00245256
-0.00245256
0.00245256
-0.00245256
0.00245256
-0.00245259
0.00245218
-0.00245617
0.00242889
-0.00254896
0.00226855
-0.00239507
0.0028127
-0.0036131
0.00155191
-0.00124645
0.0718533
0.0718533
1
0.88146
0.795489
0.811375
0.948343
0.76819
0.401756
0.13984
0.0401597
0.00555025
0.00374964
-0.0021815
0.00240631
-0.00237834
0.00238141
-0.00238111
0.00238114
-0.00238114
0.00238114
-0.00238114
0.00238114
-0.00238114
0.00238114
-0.00238114
0.00238114
-0.00238114
0.00238114
-0.00238114
0.00238114
-0.00238114
0.00238114
-0.00238114
0.00238114
-0.00238114
0.00238114
-0.00238114
0.00238114
-0.00238114
0.00238114
-0.00238114
0.00238114
-0.00238114
0.00238114
-0.00238114
0.00238114
-0.00238114
0.00238114
-0.00238114
0.00238114
-0.00238114
0.00238114
-0.00238114
0.00238114
-0.00238114
0.00238114
-0.00238114
0.00238114
-0.00238114
0.00238114
-0.00238114
0.00238114
-0.00238114
0.00238114
-0.00238114
0.00238114
-0.00238114
0.00238114
-0.00238114
0.00238114
-0.00238114
0.00238114
-0.00238114
0.00238114
-0.00238114
0.00238114
-0.00238114
0.00238114
-0.00238114
0.00238114
-0.00238114
0.00238114
-0.00238114
0.00238114
-0.00238114
0.00238114
-0.00238114
0.00238113
-0.00238117
0.00238065
-0.00238562
0.00235263
-0.00249383
0.00217155
-0.00232773
0.00272374
-0.00364634
0.00145479
-0.00164556
-0.062838
-0.062838
1
1.00647
0.948753
0.941901
1.03667
0.832324
0.441104
0.157343
0.0455217
0.00705891
0.00385507
-0.00197909
0.00225298
-0.00221832
0.00222218
-0.0022218
0.00222183
-0.00222183
0.00222183
-0.00222183
0.00222183
-0.00222183
0.00222183
-0.00222183
0.00222183
-0.00222183
0.00222183
-0.00222183
0.00222183
-0.00222183
0.00222183
-0.00222183
0.00222183
-0.00222183
0.00222183
-0.00222183
0.00222183
-0.00222183
0.00222183
-0.00222183
0.00222183
-0.00222183
0.00222183
-0.00222183
0.00222183
-0.00222183
0.00222183
-0.00222183
0.00222183
-0.00222183
0.00222183
-0.00222183
0.00222183
-0.00222183
0.00222183
-0.00222183
0.00222183
-0.00222183
0.00222183
-0.00222183
0.00222183
-0.00222183
0.00222183
-0.00222183
0.00222183
-0.00222183
0.00222183
-0.00222183
0.00222183
-0.00222183
0.00222183
-0.00222183
0.00222183
-0.00222183
0.00222183
-0.00222183
0.00222183
-0.00222183
0.00222183
-0.00222183
0.00222183
-0.00222183
0.00222183
-0.00222183
0.00222183
-0.00222183
0.00222183
-0.00222188
0.00222123
-0.00222718
0.00218917
-0.00234499
0.00200796
-0.00215295
0.0024978
-0.00355602
0.0015436
-0.00099912
0.0691054
0.0691054
1
1.07658
1.04604
1.01243
1.07344
0.867935
0.470896
0.173026
0.0507834
0.00863076
0.00398126
-0.00176746
0.00209706
-0.00205458
0.0020594
-0.00205891
0.00205896
-0.00205896
0.00205896
-0.00205896
0.00205896
-0.00205896
0.00205896
-0.00205896
0.00205896
-0.00205896
0.00205896
-0.00205896
0.00205896
-0.00205896
0.00205896
-0.00205896
0.00205896
-0.00205896
0.00205896
-0.00205896
0.00205896
-0.00205896
0.00205896
-0.00205896
0.00205896
-0.00205896
0.00205896
-0.00205896
0.00205896
-0.00205896
0.00205896
-0.00205896
0.00205896
-0.00205896
0.00205896
-0.00205896
0.00205896
-0.00205896
0.00205896
-0.00205896
0.00205896
-0.00205896
0.00205896
-0.00205896
0.00205896
-0.00205896
0.00205896
-0.00205896
0.00205896
-0.00205896
0.00205896
-0.00205896
0.00205896
-0.00205896
0.00205896
-0.00205896
0.00205896
-0.00205896
0.00205896
-0.00205896
0.00205896
-0.00205896
0.00205896
-0.00205896
0.00205896
-0.00205896
0.00205896
-0.00205896
0.00205896
-0.00205896
0.00205895
-0.00205902
0.00205822
-0.00206522
0.0020223
-0.00218983
0.00185202
-0.00196152
0.00225571
-0.00344456
0.00172761
-0.0015473
-0.0644746
-0.0644746
1
1.10814
1.09838
1.04426
1.08342
0.889461
0.496021
0.188079
0.0561343
0.0103325
0.00410559
-0.00151638
0.00190966
-0.00185802
0.00186399
-0.00186337
0.00186343
-0.00186342
0.00186342
-0.00186342
0.00186342
-0.00186342
0.00186342
-0.00186342
0.00186342
-0.00186342
0.00186342
-0.00186342
0.00186342
-0.00186342
0.00186342
-0.00186342
0.00186342
-0.00186342
0.00186342
-0.00186342
0.00186342
-0.00186342
0.00186342
-0.00186342
0.00186342
-0.00186342
0.00186342
-0.00186342
0.00186342
-0.00186342
0.00186342
-0.00186342
0.00186342
-0.00186342
0.00186342
-0.00186342
0.00186342
-0.00186342
0.00186342
-0.00186342
0.00186342
-0.00186342
0.00186342
-0.00186342
0.00186342
-0.00186342
0.00186342
-0.00186342
0.00186342
-0.00186342
0.00186342
-0.00186342
0.00186342
-0.00186342
0.00186342
-0.00186342
0.00186342
-0.00186342
0.00186342
-0.00186342
0.00186342
-0.00186342
0.00186342
-0.00186342
0.00186342
-0.00186342
0.00186342
-0.00186342
0.00186342
-0.00186342
0.00186342
-0.0018635
0.00186254
-0.00187068
0.00182284
-0.00200018
0.00166976
-0.00173298
0.00198041
-0.00327057
0.00188914
-0.000953235
0.0680831
0.0680831
1
1.11469
1.11949
1.05449
1.08072
0.903554
0.518223
0.20282
0.0615759
0.0122003
0.00419898
-0.00119433
0.00165995
-0.00159766
0.00160498
-0.00160421
0.00160428
-0.00160428
0.00160428
-0.00160428
0.00160428
-0.00160428
0.00160428
-0.00160428
0.00160428
-0.00160428
0.00160428
-0.00160428
0.00160428
-0.00160428
0.00160428
-0.00160428
0.00160428
-0.00160428
0.00160428
-0.00160428
0.00160428
-0.00160428
0.00160428
-0.00160428
0.00160428
-0.00160428
0.00160428
-0.00160428
0.00160428
-0.00160428
0.00160428
-0.00160428
0.00160428
-0.00160428
0.00160428
-0.00160428
0.00160428
-0.00160428
0.00160428
-0.00160428
0.00160428
-0.00160428
0.00160428
-0.00160428
0.00160428
-0.00160428
0.00160428
-0.00160428
0.00160428
-0.00160428
0.00160428
-0.00160428
0.00160428
-0.00160428
0.00160428
-0.00160428
0.00160428
-0.00160428
0.00160428
-0.00160428
0.00160428
-0.00160428
0.00160428
-0.00160428
0.00160428
-0.00160428
0.00160428
-0.00160428
0.00160428
-0.00160428
0.00160427
-0.00160437
0.00160323
-0.00161257
0.00155987
-0.00174527
0.00142792
-0.00144217
0.00164298
-0.00299537
0.00194553
-0.00147361
-0.0651505
-0.0651505
1
1.1069
1.12163
1.05421
1.07265
0.913166
0.538108
0.217242
0.0670961
0.0142183
0.00427353
-0.000812524
0.0013597
-0.0012851
0.00129402
-0.00129307
0.00129317
-0.00129316
0.00129316
-0.00129316
0.00129316
-0.00129316
0.00129316
-0.00129316
0.00129316
-0.00129316
0.00129316
-0.00129316
0.00129316
-0.00129316
0.00129316
-0.00129316
0.00129316
-0.00129316
0.00129316
-0.00129316
0.00129316
-0.00129316
0.00129316
-0.00129316
0.00129316
-0.00129316
0.00129316
-0.00129316
0.00129316
-0.00129316
0.00129316
-0.00129316
0.00129316
-0.00129316
0.00129316
-0.00129316
0.00129316
-0.00129316
0.00129316
-0.00129316
0.00129316
-0.00129316
0.00129316
-0.00129316
0.00129316
-0.00129316
0.00129316
-0.00129316
0.00129316
-0.00129316
0.00129316
-0.00129316
0.00129316
-0.00129316
0.00129316
-0.00129316
0.00129316
-0.00129316
0.00129316
-0.00129316
0.00129316
-0.00129316
0.00129316
-0.00129316
0.00129316
-0.00129316
0.00129316
-0.00129316
0.00129316
-0.00129316
0.00129315
-0.00129328
0.00129193
-0.00130254
0.00124511
-0.00143676
0.00113694
-0.00110393
0.00125523
-0.00263147
0.00190348
-0.000829495
0.0676065
0.0676065
1
1.09244
1.11379
1.04968
1.06272
0.919677
0.555897
0.23126
0.0726726
0.0163618
0.00434591
-0.000387515
0.00102589
-0.000937217
0.000948009
-0.000946842
0.000946955
-0.000946945
0.000946946
-0.000946946
0.000946946
-0.000946946
0.000946946
-0.000946946
0.000946946
-0.000946946
0.000946946
-0.000946946
0.000946946
-0.000946946
0.000946946
-0.000946946
0.000946946
-0.000946946
0.000946946
-0.000946946
0.000946946
-0.000946946
0.000946946
-0.000946946
0.000946946
-0.000946946
0.000946946
-0.000946946
0.000946946
-0.000946946
0.000946946
-0.000946946
0.000946946
-0.000946946
0.000946946
-0.000946946
0.000946946
-0.000946946
0.000946946
-0.000946946
0.000946946
-0.000946946
0.000946946
-0.000946946
0.000946946
-0.000946946
0.000946946
-0.000946946
0.000946946
-0.000946946
0.000946946
-0.000946946
0.000946946
-0.000946946
0.000946946
-0.000946946
0.000946946
-0.000946946
0.000946946
-0.000946946
0.000946946
-0.000946946
0.000946946
-0.000946946
0.000946946
-0.000946946
0.000946946
-0.000946946
0.000946946
-0.000946947
0.000946936
-0.000947087
0.000945513
-0.000957452
0.000895493
-0.00109152
0.00081283
-0.000736675
0.000834761
-0.00220149
0.00176554
-0.00130587
-0.06551
-0.06551
1
1.07628
1.10168
1.04401
1.05257
0.92383
0.57172
0.244761
0.0782922
0.0185917
0.00444522
5.11683e-05
0.000688417
-0.000583745
0.000596711
-0.000595285
0.000595426
-0.000595414
0.000595415
-0.000595415
0.000595415
-0.000595415
0.000595415
-0.000595415
0.000595415
-0.000595415
0.000595415
-0.000595415
0.000595415
-0.000595415
0.000595415
-0.000595415
0.000595415
-0.000595415
0.000595415
-0.000595415
0.000595415
-0.000595415
0.000595415
-0.000595415
0.000595415
-0.000595415
0.000595415
-0.000595415
0.000595415
-0.000595415
0.000595415
-0.000595415
0.000595415
-0.000595415
0.000595415
-0.000595415
0.000595415
-0.000595415
0.000595415
-0.000595415
0.000595415
-0.000595415
0.000595415
-0.000595415
0.000595415
-0.000595415
0.000595415
-0.000595415
0.000595415
-0.000595415
0.000595415
-0.000595415
0.000595415
-0.000595415
0.000595415
-0.000595415
0.000595415
-0.000595415
0.000595415
-0.000595415
0.000595415
-0.000595415
0.000595415
-0.000595415
0.000595415
-0.000595415
0.000595415
-0.000595415
0.000595415
-0.000595415
0.000595402
-0.000595582
0.000593766
-0.00060706
0.000540861
-0.000739321
0.000484613
-0.000370809
0.000412802
-0.00174229
0.00157053
-0.000626347
0.0673175
0.0673175
1
1.06114
1.08845
1.03854
1.04297
0.926129
0.585679
0.257659
0.0839268
0.0208823
0.00458521
0.000488824
0.000362233
-0.000239528
0.000254999
-0.000253268
0.000253442
-0.000253426
0.000253428
-0.000253428
0.000253428
-0.000253428
0.000253428
-0.000253428
0.000253428
-0.000253428
0.000253428
-0.000253428
0.000253428
-0.000253428
0.000253428
-0.000253428
0.000253428
-0.000253428
0.000253428
-0.000253428
0.000253428
-0.000253428
0.000253428
-0.000253428
0.000253428
-0.000253428
0.000253428
-0.000253428
0.000253428
-0.000253428
0.000253428
-0.000253428
0.000253428
-0.000253428
0.000253428
-0.000253428
0.000253428
-0.000253428
0.000253428
-0.000253428
0.000253428
-0.000253428
0.000253428
-0.000253428
0.000253428
-0.000253428
0.000253428
-0.000253428
0.000253428
-0.000253428
0.000253428
-0.000253428
0.000253428
-0.000253428
0.000253428
-0.000253428
0.000253428
-0.000253428
0.000253428
-0.000253428
0.000253428
-0.000253428
0.000253428
-0.000253428
0.000253428
-0.000253428
0.000253428
-0.000253428
0.000253428
-0.000253429
0.000253412
-0.000253624
0.00025155
-0.000266215
0.000196134
-0.0003951
0.000166463
-2.12876e-05
5.94195e-06
-0.00127573
0.00132547
-0.00107439
-0.0657548
-0.0657548
1
1.04821
1.07566
1.03375
1.03427
0.926968
0.597897
0.269876
0.0895562
0.0232013
0.00478535
0.000904557
6.83969e-05
7.44902e-05
-5.61554e-05
5.82408e-05
-5.80279e-05
5.80476e-05
-5.8046e-05
5.80461e-05
-5.80461e-05
5.80461e-05
-5.80461e-05
5.80461e-05
-5.80461e-05
5.80461e-05
-5.80461e-05
5.80461e-05
-5.80461e-05
5.80461e-05
-5.80461e-05
5.80461e-05
-5.80461e-05
5.80461e-05
-5.80461e-05
5.80461e-05
-5.80461e-05
5.80461e-05
-5.80461e-05
5.80461e-05
-5.80461e-05
5.80461e-05
-5.80461e-05
5.80461e-05
-5.80461e-05
5.80461e-05
-5.80461e-05
5.80461e-05
-5.80461e-05
5.80461e-05
-5.80461e-05
5.80461e-05
-5.80461e-05
5.80461e-05
-5.80461e-05
5.80461e-05
-5.80461e-05
5.80461e-05
-5.80461e-05
5.80461e-05
-5.80461e-05
5.80461e-05
-5.80461e-05
5.80461e-05
-5.80461e-05
5.80461e-05
-5.80461e-05
5.80461e-05
-5.80461e-05
5.80461e-05
-5.80461e-05
5.80461e-05
-5.80461e-05
5.80461e-05
-5.80461e-05
5.80461e-05
-5.80461e-05
5.80461e-05
-5.80461e-05
5.80461e-05
-5.80461e-05
5.80461e-05
-5.80461e-05
5.80461e-05
-5.80462e-05
5.80449e-05
-5.80646e-05
5.78167e-05
-6.01654e-05
4.41328e-05
-0.000117672
-7.99208e-05
-0.000121295
0.000291177
-0.000363241
-0.000829083
0.00106513
-0.00037347
0.0671022
0.0671022
1
1.03776
1.06396
1.02972
1.02662
0.926688
0.608499
0.281364
0.0951473
0.0255312
0.00504927
0.00129285
-0.000187522
0.000352837
-0.000331251
0.000333748
-0.000333489
0.000333513
-0.000333511
0.000333511
-0.000333511
0.000333511
-0.000333511
0.000333511
-0.000333511
0.000333511
-0.000333511
0.000333511
-0.000333511
0.000333511
-0.000333511
0.000333511
-0.000333511
0.000333511
-0.000333511
0.000333511
-0.000333511
0.000333511
-0.000333511
0.000333511
-0.000333511
0.000333511
-0.000333511
0.000333511
-0.000333511
0.000333511
-0.000333511
0.000333511
-0.000333511
0.000333511
-0.000333511
0.000333511
-0.000333511
0.000333511
-0.000333511
0.000333511
-0.000333511
0.000333511
-0.000333511
0.000333511
-0.000333511
0.000333511
-0.000333511
0.000333511
-0.000333511
0.000333511
-0.000333511
0.000333511
-0.000333511
0.000333511
-0.000333511
0.000333511
-0.000333511
0.000333511
-0.000333511
0.000333511
-0.000333511
0.000333511
-0.000333511
0.000333511
-0.000333511
0.000333511
-0.000333511
0.000333511
-0.000333511
0.00033351
-0.000333533
0.000333246
-0.000335882
0.000318503
-0.000395026
0.000200589
-0.000373747
0.000561594
-0.000687969
-0.000413508
0.000791086
-0.000808947
-0.0659487
-0.0659487
1
1.02957
1.05355
1.02636
1.02006
0.925575
0.61763
0.292082
0.100677
0.0278473
0.0053872
0.00164114
-0.000393013
0.000583081
-0.00055783
0.000560799
-0.000560486
0.000560516
-0.000560513
0.000560514
-0.000560514
0.000560514
-0.000560514
0.000560514
-0.000560514
0.000560514
-0.000560514
0.000560514
-0.000560514
0.000560514
-0.000560514
0.000560514
-0.000560514
0.000560514
-0.000560514
0.000560514
-0.000560514
0.000560514
-0.000560514
0.000560514
-0.000560514
0.000560514
-0.000560514
0.000560514
-0.000560514
0.000560514
-0.000560514
0.000560514
-0.000560514
0.000560514
-0.000560514
0.000560514
-0.000560514
0.000560514
-0.000560514
0.000560514
-0.000560514
0.000560514
-0.000560514
0.000560514
-0.000560514
0.000560514
-0.000560514
0.000560514
-0.000560514
0.000560514
-0.000560514
0.000560514
-0.000560514
0.000560514
-0.000560514
0.000560514
-0.000560514
0.000560514
-0.000560514
0.000560514
-0.000560514
0.000560514
-0.000560514
0.000560514
-0.000560514
0.000560514
-0.000560514
0.000560514
-0.000560514
0.000560512
-0.00056054
0.00056021
-0.000563143
0.000544458
-0.000623449
0.000433815
-0.000578944
0.000778194
-0.000954921
-4.63047e-05
0.000532462
-0.000105559
0.0669257
0.0669257
1
1.02329
1.04442
1.02355
1.01458
0.923882
0.625426
0.302021
0.106112
0.0301393
0.00579451
0.00195137
-0.000550176
0.000767384
-0.000738029
0.000741538
-0.000741162
0.000741199
-0.000741195
0.000741196
-0.000741196
0.000741196
-0.000741196
0.000741196
-0.000741196
0.000741196
-0.000741196
0.000741196
-0.000741196
0.000741196
-0.000741196
0.000741196
-0.000741196
0.000741196
-0.000741196
0.000741196
-0.000741196
0.000741196
-0.000741196
0.000741196
-0.000741196
0.000741196
-0.000741196
0.000741196
-0.000741196
0.000741196
-0.000741196
0.000741196
-0.000741196
0.000741196
-0.000741196
0.000741196
-0.000741196
0.000741196
-0.000741196
0.000741196
-0.000741196
0.000741196
-0.000741196
0.000741196
-0.000741196
0.000741196
-0.000741196
0.000741196
-0.000741196
0.000741196
-0.000741196
0.000741196
-0.000741196
0.000741196
-0.000741196
0.000741196
-0.000741196
0.000741196
-0.000741196
0.000741196
-0.000741196
0.000741196
-0.000741196
0.000741196
-0.000741196
0.000741196
-0.000741196
0.000741196
-0.000741196
0.000741194
-0.000741226
0.000740851
-0.000744088
0.000724155
-0.000805069
0.000621722
-0.000739444
0.000943931
-0.0011658
0.000270483
0.000284833
-0.000548554
-0.0661098
-0.0661098
1
1.0185
1.03649
1.02117
1.01012
0.921814
0.632036
0.311173
0.11143
0.0323893
0.00627421
0.00221749
-0.000653246
0.000900024
-0.000866103
0.000870225
-0.000869777
0.000869821
-0.000869817
0.000869817
-0.000869817
0.000869817
-0.000869817
0.000869817
-0.000869817
0.000869817
-0.000869817
0.000869817
-0.000869817
0.000869817
-0.000869817
0.000869817
-0.000869817
0.000869817
-0.000869817
0.000869817
-0.000869817
0.000869817
-0.000869817
0.000869817
-0.000869817
0.000869817
-0.000869817
0.000869817
-0.000869817
0.000869817
-0.000869817
0.000869817
-0.000869817
0.000869817
-0.000869817
0.000869817
-0.000869817
0.000869817
-0.000869817
0.000869817
-0.000869817
0.000869817
-0.000869817
0.000869817
-0.000869817
0.000869817
-0.000869817
0.000869817
-0.000869817
0.000869817
-0.000869817
0.000869817
-0.000869817
0.000869817
-0.000869817
0.000869817
-0.000869817
0.000869817
-0.000869817
0.000869817
-0.000869817
0.000869817
-0.000869817
0.000869817
-0.000869817
0.000869817
-0.000869817
0.000869817
-0.000869817
0.000869815
-0.000869852
0.000869429
-0.000872975
0.000851867
-0.000934143
0.000758378
-0.000849833
0.00105395
-0.00131482
0.000527771
7.11076e-05
0.000138505
0.0667793
0.0667793
1
1.01488
1.02963
1.01911
1.00658
0.919546
0.637592
0.319555
0.1166
0.0345932
0.00681562
0.00244688
-0.000709963
0.000988763
-0.000949794
0.000954606
-0.000954074
0.000954128
-0.000954123
0.000954123
-0.000954123
0.000954123
-0.000954123
0.000954123
-0.000954123
0.000954123
-0.000954123
0.000954123
-0.000954123
0.000954123
-0.000954123
0.000954123
-0.000954123
0.000954123
-0.000954123
0.000954123
-0.000954123
0.000954123
-0.000954123
0.000954123
-0.000954123
0.000954123
-0.000954123
0.000954123
-0.000954123
0.000954123
-0.000954123
0.000954123
-0.000954123
0.000954123
-0.000954123
0.000954123
-0.000954123
0.000954123
-0.000954123
0.000954123
-0.000954123
0.000954123
-0.000954123
0.000954123
-0.000954123
0.000954123
-0.000954123
0.000954123
-0.000954123
0.000954123
-0.000954123
0.000954123
-0.000954123
0.000954123
-0.000954123
0.000954123
-0.000954123
0.000954123
-0.000954123
0.000954123
-0.000954123
0.000954123
-0.000954123
0.000954123
-0.000954123
0.000954123
-0.000954123
0.000954123
-0.000954123
0.00095412
-0.000954164
0.00095369
-0.000957544
0.000935352
-0.00101842
0.000851335
-0.000918087
0.00111689
-0.00141005
0.000730636
-0.000119135
-0.000327568
-0.0662416
-0.0662416
1
1.01213
1.02375
1.01728
1.00387
0.917208
0.642232
0.327184
0.121604