# vtk DataFile Version 2.0
FlowField
ASCII
DATASET STRUCTURED_GRID
DIMENSIONS 100 1 100
POINTS 10000 float
0 0 0
0.01 0 0
0.02 0 0
0.03 0 0
0.04 0 0
0.05 0 0
0.06 0 0
0.07 0 0
0.08 0 0
0.09 0 0
0.1 0 0
0.11 0 0
0.12 0 0
0.13 0 0
0.14 0 0
0.15 0 0
0.16 0 0
0.17 0 0
0.18 0 0
0.19 0 0
0.2 0 0
0.21 0 0
0.22 0 0
0.23 0 0
0.24 0 0
0.25 0 0
0.26 0 0
0.27 0 0
0.28 0 0
0.29 0 0
0.3 0 0
0.31 0 0
0.32 0 0
0.33 0 0
0.34 0 0
0.35 0 0
0.36 0 0
0.37 0 0
0.38 0 0
0.39 0 0
0.4 0 0
0.41 0 0
0.42 0 0
0.43 0 0
0.44 0 0
0.45 0 0
0.46 0 0
0.47 0 0
0.48 0 0
0.49 0 0
0.5 0 0
0.51 0 0
0.52 0 0
0.53 0 0
0.54 0 0
0.55 0 0
0.56 0 0
0.57 0 0
0.58 0 0
0.59 0 0
0.6 0 0
0.61 0 0
0.62 0 0
0.63 0 0
0.64 0 0
0.65 0 0
0.66 0 0
0.67 0 0
0.68 0 0
0.69 0 0
0.7 0 0
0.71 0 0
0.72 0 0
0.73 0 0
0.74 0 0
0.75 0 0
0.76 0 0
0.77 0 0
0.78 0 0
0.79 0 0
0.8 0 0
0.81 0 0
0.82 0 0
0.83 0 0
0.84 0 0
0.85 0 0
0.86 0 0
0.87 0 0
0.88 0 0
0.89 0 0
0.9 0 0
0.91 0 0
0.92 0 0
0.93 0 0
0.94 0 0
0.95 0 0
0.96 0 0
0.97 0 0
0.98 0 0
0.99 0 0
0 0.001 0
0.01 0.001 0
0.02 0.001 0
0.03 0.001 0
0.04 0.001 0
0.05 0.001 0
0.06 0.001 0
0.07 0.001 0
0.08 0.001 0
0.09 0.001 0
0.1 0.001 0
0.11 0.001 0
0.12 0.001 0
0.13 0.001 0
0.14 0.001 0
0.15 0.001 0
0.16 0.001 0
0.17 0.001 0
0.18 0.001 0
0.19 0.001 0
0.2 0.001 0
0.21 0.001 0
0.22 0.001 0
0.23 0.001 0
0.24 0.001 0
0.25 0.001 0
0.26 0.001 0
0.27 0.001 0
0.28 0.001 0
0.29 0.001 0
0.3 0.001 0
0.31 0.001 0
0.32 0.001 0
0.33 0.001 0
0.34 0.001 0
0.35 0.001 0
0.36 0.001 0
0.37 0.001 0
0.38 0.001 0
0.39 0.001 0
0.4 0.001 0
0.41 0.001 0
0.42 0.001 0
0.43 0.001 0
0.44 0.001 0
0.45 0.001 0
0.46 0.001 0
0.47 0.001 0
0.48 0.001 0
0.49 0.001 0
0.5 0.001 0
0.51 0.001 0
0.52 0.001 0
0.53 0.001 0
0.54 0.001 0
0.55 0.001 0
0.56 0.001 0
0.57 0.001 0
0.58 0.001 0
0.59 0.001 0
0.6 0.001 0
0.61 0.001 0
0.62 0.001 0
0.63 0.001 0
0.64 0.001 0
0.65 0.001 0
0.66 0.001 0
0.67 0.001 0
0.68 0.001 0
0.69 0.001 0
0.7 0.001 0
0.71 0.001 0
0.72 0.001 0
0.73 0.001 0
0.74 0.001 0
0.75 0.001 0
0.76 0.001 0
0.77 0.001 0
0.78 0.001 0
0.79 0.001 0
0.8 0.001 0
0.81 0.001 0
0.82 0.001 0
0.83 0.001 0
0.84 0.001 0
0.85 0.001 0
0.86 0.001 0
0.87 0.001 0
0.88 0.001 0
0.89 0.001 0
0.9 0.001 0
0.91 0.001 0
0.92 0.001 0
0.93 0.001 0
0.94 0.001 0
0.95 0.001 0
0.96 0.001 0
0.97 0.001 0
0.98 0.001 0
0.99 0.001 0
0 0.002 0
0.01 0.002 0
0.02 0.002 0
0.03 0.002 0
0.04 0.002 0
0.05 0.002 0
0.06 0.002 0
0.07 0.002 0
0.08 0.002 0
0.09 0.002 0
0.1 0.002 0
0.11 0.002 0
0.12 0.002 0
0.13 0.002 0
0.14 0.002 0
0.15 0.002 0
0.16 0.002 0
0.17 0.002 0
0.18 0.002 0
0.19 0.002 0
0.2 0.002 0
0.21 0.002 0
0.22 0.002 0
0.23 0.002 0
0.24 0.002 0
0.25 0.002 0
0.26 0.002 0
0.27 0.002 0
0.28 0.002 0
0.29 0.002 0
0.3 0.002 0
0.31 0.002 0
0.32 0.002 0
0.33 0.002 0
0.34 0.002 0
0.35 0.002 0
0.36 0.002 0
0.37 0.002 0
0.38 0.002 0
0.39 0.002 0
0.4 0.002 0
0.41 0.002 0
0.42 0.002 0
0.43 0.002 0
0.44 0.002 0
0.45 0.002 0
0.46 0.002 0
0.47 0.002 0
0.48 0.002 0
0.49 0.002 0
0.5 0.002 0
0.51 0.002 0
0.52 0.002 0
0.53 0.002 0
0.54 0.002 0
0.55 0.002 0
0.56 0.002 0
0.57 0.002 0
0.58 0.002 0
0.59 0.002 0
0.6 0.002 0
0.61 0.002 0
0.62 0.002 0
0.63 0.002 0
0.64 0.002 0
0.65 0.002 0
0.66 0.002 0
0.67 0.002 0
0.68 0.002 0
0.69 0.002 0
0.7 0.002 0
0.71 0.002 0
0.72 0.002 0
0.73 0.002 0
0.74 0.002 0
0.75 0.002 0
0.76 0.002 0
0.77 0.002 0
0.78 0.002 0
0.79 0.002 0
0.8 0.002 0
0.81 0.002 0
0.82 0.002 0
0.83 0.002 0
0.84 0.002 0
0.85 0.002 0
0.86 0.002 0
0.87 0.002 0
0.88 0.002 0
0.89 0.002 0
0.9 0.002 0
0.91 0.002 0
0.92 0.002 0
0.93 0.002 0
0.94 0.002 0
0.95 0.002 0
0.96 0.002 0
0.97 0.002 0
0.98 0.002 0
0.99 0.002 0
0 0.003 0
0.01 0.003 0
0.02 0.003 0
0.03 0.003 0
0.04 0.003 0
0.05 0.003 0
0.06 0.003 0
0.07 0.003 0
0.08 0.003 0
0.09 0.003 0
0.1 0.003 0
0.11 0.003 0
0.12 0.003 0
0.13 0.003 0
0.14 0.003 0
0.15 0.003 0
0.16 0.003 0
0.17 0.003 0
0.18 0.003 0
0.19 0.003 0
0.2 0.003 0
0.21 0.003 0
0.22 0.003 0
0.23 0.003 0
0.24 0.003 0
0.25 0.003 0
0.26 0.003 0
0.27 0.003 0
0.28 0.003 0
0.29 0.003 0
0.3 0.003 0
0.31 0.003 0
0.32 0.003 0
0.33 0.003 0
0.34 0.003 0
0.35 0.003 0
0.36 0.003 0
0.37 0.003 0
0.38 0.003 0
0.39 0.003 0
0.4 0.003 0
0.41 0.003 0
0.42 0.003 0
0.43 0.003 0
0.44 0.003 0
0.45 0.003 0
0.46 0.003 0
0.47 0.003 0
0.48 0.003 0
0.49 0.003 0
0.5 0.003 0
0.51 0.003 0
0.52 0.003 0
0.53 0.003 0
0.54 0.003 0
0.55 0.003 0
0.56 0.003 0
0.57 0.003 0
0.58 0.003 0
0.59 0.003 0
0.6 0.003 0
0.61 0.003 0
0.62 0.003 0
0.63 0.003 0
0.64 0.003 0
0.65 0.003 0
0.66 0.003 0
0.67 0.003 0
0.68 0.003 0
0.69 0.003 0
0.7 0.003 0
0.71 0.003 0
0.72 0.003 0
0.73 0.003 0
0.74 0.003 0
0.75 0.003 0
0.76 0.003 0
0.77 0.003 0
0.78 0.003 0
0.79 0.003 0
0.8 0.003 0
0.81 0.003 0
0.82 0.003 0
0.83 0.003 0
0.84 0.003 0
0.85 0.003 0
0.86 0.003 0
0.87 0.003 0
0.88 0.003 0
0.89 0.003 0
0.9 0.003 0
0.91 0.003 0
0.92 0.003 0
0.93 0.003 0
0.94 0.003 0
0.95 0.003 0
0.96 0.003 0
0.97 0.003 0
0.98 0.003 0
0.99 0.003 0
0 0.004 0
0.01 0.004 0
0.02 0.004 0
0.03 0.004 0
0.04 0.004 0
0.05 0.004 0
0.06 0.004 0
0.07 0.004 0
0.08 0.004 0
0.09 0.004 0
0.1 0.004 0
0.11 0.004 0
0.12 0.004 0
0.13 0.004 0
0.14 0.004 0
0.15 0.004 0
0.16 0.004 0
0.17 0.004 0
0.18 0.004 0
0.19 0.004 0
0.2 0.004 0
0.21 0.004 0
0.22 0.004 0
0.23 0.004 0
0.24 0.004 0
0.25 0.004 0
0.26 0.004 0
0.27 0.004 0
0.28 0.004 0
0.29 0.004 0
0.3 0.004 0
0.31 0.004 0
0.32 0.004 0
0.33 0.004 0
0.34 0.004 0
0.35 0.004 0
0.36 0.004 0
0.37 0.004 0
0.38 0.004 0
0.39 0.004 0
0.4 0.004 0
0.41 0.004 0
0.42 0.004 0
0.43 0.004 0
0.44 0.004 0
0.45 0.004 0
0.46 0.004 0
0.47 0.004 0
0.48 0.004 0
0.49 0.004 0
0.5 0.004 0
0.51 0.004 0
0.52 0.004 0
0.53 0.004 0
0.54 0.004 0
0.55 0.004 0
0.56 0.004 0
0.57 0.004 0
0.58 0.004 0
0.59 0.004 0
0.6 0.004 0
0.61 0.004 0
0.62 0.004 0
0.63 0.004 0
0.64 0.004 0
0.65 0.004 0
0.66 0.004 0
0.67 0.004 0
0.68 0.004 0
0.69 0.004 0
0.7 0.004 0
0.71 0.004 0
0.72 0.004 0
0.73 0.004 0
0.74 0.004 0
0.75 0.004 0
0.76 0.004 0
0.77 0.004 0
0.78 0.004 0
0.79 0.004 0
0.8 0.004 0
0.81 0.004 0
0.82 0.004 0
0.83 0.004 0
0.84 0.004 0
0.85 0.004 0
0.86 0.004 0
0.87 0.004 0
0.88 0.004 0
0.89 0.004 0
0.9 0.004 0
0.91 0.004 0
0.92 0.004 0
0.93 0.004 0
0.94 0.004 0
0.95 0.004 0
0.96 0.004 0
0.97 0.004 0
0.98 0.004 0
0.99 0.004 0
0 0.005 0
0.01 0.005 0
0.02 0.005 0
0.03 0.005 0
0.04 0.005 0
0.05 0.005 0
0.06 0.005 0
0.07 0.005 0
0.08 0.005 0
0.09 0.005 0
0.1 0.005 0
0.11 0.005 0
0.12 0.005 0
0.13 0.005 0
0.14 0.005 0
0.15 0.005 0
0.16 0.005 0
0.17 0.005 0
0.18 0.005 0
0.19 0.005 0
0.2 0.005 0
0.21 0.005 0
0.22 0.005 0
0.23 0.005 0
0.24 0.005 0
0.25 0.005 0
0.26 0.005 0
0.27 0.005 0
0.28 0.005 0
0.29 0.005 0
0.3 0.005 0
0.31 0.005 0
0.32 0.005 0
0.33 0.005 0
0.34 0.005 0
0.35 0.005 0
0.36 0.005 0
0.37 0.005 0
0.38 0.005 0
0.39 0.005 0
0.4 0.005 0
0.41 0.005 0
0.42 0.005 0
0.43 0.005 0
0.44 0.005 0
0.45 0.005 0
0.46 0.005 0
0.47 0.005 0
0.48 0.005 0
0.49 0.005 0
0.5 0.005 0
0.51 0.005 0
0.52 0.005 0
0.53 0.005 0
0.54 0.005 0
0.55 0.005 0
0.56 0.005 0
0.57 0.005 0
0.58 0.005 0
0.59 0.005 0
0.6 0.005 0
0.61 0.005 0
0.62 0.005 0
0.63 0.005 0
0.64 0.005 0
0.65 0.005 0
0.66 0.005 0
0.67 0.005 0
0.68 0.005 0
0.69 0.005 0
0.7 0.005 0
0.71 0.005 0
0.72 0.005 0
0.73 0.005 0
0.74 0.005 0
0.75 0.005 0
0.76 0.005 0
0.77 0.005 0
0.78 0.005 0
0.79 0.005 0
0.8 0.005 0
0.81 0.005 0
0.82 0.005 0
0.83 0.005 0
0.84 0.005 0
0.85 0.005 0
0.86 0.005 0
0.87 0.005 0
0.88 0.005 0
0.89 0.005 0
0.9 0.005 0
0.91 0.005 0
0.92 0.005 0
0.93 0.005 0
0.94 0.005 0
0.95 0.005 0
0.96 0.005 0
0.97 0.005 0
0.98 0.005 0
0.99 0.005 0
0 0.006 0
0.01 0.006 0
0.02 0.006 0
0.03 0.006 0
0.04 0.006 0
0.05 0.006 0
0.06 0.006 0
0.07 0.006 0
0.08 0.006 0
0.09 0.006 0
0.1 0.006 0
0.11 0.006 0
0.12 0.006 0
0.13 0.006 0
0.14 0.006 0
0.15 0.006 0
0.16 0.006 0
0.17 0.006 0
0.18 0.006 0
0.19 0.006 0
0.2 0.006 0
0.21 0.006 0
0.22 0.006 0
0.23 0.006 0
0.24 0.006 0
0.25 0.006 0
0.26 0.006 0
0.27 0.006 0
0.28 0.006 0
0.29 0.006 0
0.3 0.006 0
0.31 0.006 0
0.32 0.006 0
0.33 0.006 0
0.34 0.006 0
0.35 0.006 0
0.36 0.006 0
0.37 0.006 0
0.38 0.006 0
0.39 0.006 0
0.4 0.006 0
0.41 0.006 0
0.42 0.006 0
0.43 0.006 0
0.44 0.006 0
0.45 0.006 0
0.46 0.006 0
0.47 0.006 0
0.48 0.006 0
0.49 0.006 0
0.5 0.006 0
0.51 0.006 0
0.52 0.006 0
0.53 0.006 0
0.54 0.006 0
0.55 0.006 0
0.56 0.006 0
0.57 0.006 0
0.58 0.006 0
0.59 0.006 0
0.6 0.006 0
0.61 0.006 0
0.62 0.006 0
0.63 0.006 0
0.64 0.006 0
0.65 0.006 0
0.66 0.006 0
0.67 0.006 0
0.68 0.006 0
0.69 0.006 0
0.7 0.006 0
0.71 0.006 0
0.72 0.006 0
0.73 0.006 0
0.74 0.006 0
0.75 0.006 0
0.76 0.006 0
0.77 0.006 0
0.78 0.006 0
0.79 0.006 0
0.8 0.006 0
0.81 0.006 0
0.82 0.006 0
0.83 0.006 0
0.84 0.006 0
0.85 0.006 0
0.86 0.006 0
0.87 0.006 0
0.88 0.006 0
0.89 0.006 0
0.9 0.006 0
0.91 0.006 0
0.92 0.006 0
0.93 0.006 0
0.94 0.006 0
0.95 0.006 0
0.96 0.006 0
0.97 0.006 0
0.98 0.006 0
0.99 0.006 0
0 0.007 0
0.01 0.007 0
0.02 0.007 0
0.03 0.007 0
0.04 0.007 0
0.05 0.007 0
0.06 0.007 0
0.07 0.007 0
0.08 0.007 0
0.09 0.007 0
0.1 0.007 0
0.11 0.007 0
0.12 0.007 0
0.13 0.007 0
0.14 0.007 0
0.15 0.007 0
0.16 0.007 0
0.17 0.007 0
0.18 0.007 0
0.19 0.007 0
0.2 0.007 0
0.21 0.007 0
0.22 0.007 0
0.23 0.007 0
0.24 0.007 0
0.25 0.007 0
0.26 0.007 0
0.27 0.007 0
0.28 0.007 0
0.29 0.007 0
0.3 0.007 0
0.31 0.007 0
0.32 0.007 0
0.33 0.007 0
0.34 0.007 0
0.35 0.007 0
0.36 0.007 0
0.37 0.007 0
0.38 0.007 0
0.39 0.007 0
0.4 0.007 0
0.41 0.007 0
0.42 0.007 0
0.43 0.007 0
0.44 0.007 0
0.45 0.007 0
0.46 0.007 0
0.47 0.007 0
0.48 0.007 0
0.49 0.007 0
0.5 0.007 0
0.51 0.007 0
0.52 0.007 0
0.53 0.007 0
0.54 0.007 0
0.55 0.007 0
0.56 0.007 0
0.57 0.007 0
0.58 0.007 0
0.59 0.007 0
0.6 0.007 0
0.61 0.007 0
0.62 0.007 0
0.63 0.007 0
0.64 0.007 0
0.65 0.007 0
0.66 0.007 0
0.67 0.007 0
0.68 0.007 0
0.69 0.007 0
0.7 0.007 0
0.71 0.007 0
0.72 0.007 0
0.73 0.007 0
0.74 0.007 0
0.75 0.007 0
0.76 0.007 0
0.77 0.007 0
0.78 0.007 0
0.79 0.007 0
0.8 0.007 0
0.81 0.007 0
0.82 0.007 0
0.83 0.007 0
0.84 0.007 0
0.85 0.007 0
0.86 0.007 0
0.87 0.007 0
0.88 0.007 0
0.89 0.007 0
0.9 0.007 0
0.91 0.007 0
0.92 0.007 0
0.93 0.007 0
0.94 0.007 0
0.95 0.007 0
0.96 0.007 0
0.97 0.007 0
0.98 0.007 0
[...]
POINT_DATA 10000

SCALARS vel_X float 1
LOOKUP_TABLE default
0
0
0
0
0
0
0
0
0
0
0
0
0
0
0
0
0
0
0
0
0
0
0
0
0
0
0
0
0
0
0
0
0
0
0
0
0
0
0
0
0
0
0
0
0
0
0
0
0
0
0
0
0
0
0
0
0
0
0
0
0
0
0
0
0
0
0
0
0
0
0
0
0
0
0
0
0
0
0
0
0
0
0
0
0
0
0
0
0
0
0
0
0
0
0
0
0
0
0
0
1
0.347062
0.239431
0.24479
0.20789
0.244744
0.268643
0.24952
0.324945
0.417722
0.363301
0.221945
0.0984571
0.0369209
0.0093992
0.00388476
-0.000614473
0.00131773
-0.00118379
0.00120664
-0.00120312
0.00120361
-0.00120355
0.00120356
-0.00120356
0.00120356
-0.00120356
0.00120356
-0.00120356
0.00120356
-0.00120356
0.00120356
-0.00120356
0.00120356
-0.00120356
0.00120356
-0.00120356
0.00120356
-0.00120356
0.00120356
-0.00120356
0.00120356
-0.00120356
0.00120356
-0.00120356
0.00120356
-0.00120356
0.00120356
-0.00120356
0.00120356
-0.00120356
0.00120356
-0.00120356
0.00120356
-0.00120356
0.00120356
-0.00120356
0.00120356
-0.00120356
0.00120356
-0.00120356
0.00120356
-0.00120356
0.00120356
-0.00120356
0.00120356
-0.00120356
0.00120356
-0.00120356
0.00120356
-0.00120356
0.00120356
-0.00120356
0.00120356
-0.00120356
0.00120356
-0.00120356
0.00120356
-0.00120356
0.00120356
-0.00120356
0.00120354
-0.00120367
0.00120279
-0.00120767
0.00118716
-0.00124761
0.00114204
-0.00118832
0.00132859
-0.00138082
0.000648625
-0.000715343
0.00168303
-0.00272425
0.00236309
-0.00206208
-0.00117369
-0.0979811
-0.0979811
1
0.606339
0.459461
0.457722
0.410025
0.466098
0.496113
0.482872
0.593802
0.694296
0.571947
0.339085
0.147973
0.0549221
0.0139052
0.00573289
-0.000912352
0.00194754
-0.00175046
0.0017841
-0.0017789
0.00177963
-0.00177954
0.00177955
-0.00177955
0.00177955
-0.00177955
0.00177955
-0.00177955
0.00177955
-0.00177955
0.00177955
-0.00177955
0.00177955
-0.00177955
0.00177955
-0.00177955
0.00177955
-0.00177955
0.00177955
-0.00177955
0.00177955
-0.00177955
0.00177955
-0.00177955
0.00177955
-0.00177955
0.00177955
-0.00177955
0.00177955
-0.00177955
0.00177955
-0.00177955
0.00177955
-0.00177955
0.00177955
-0.00177955
0.00177955
-0.00177955
0.00177955
-0.00177955
0.00177955
-0.00177955
0.00177955
-0.00177955
0.00177955
-0.00177955
0.00177955
-0.00177955
0.00177955
-0.00177955
0.00177955
-0.00177955
0.00177955
-0.00177955
0.00177955
-0.00177955
0.00177955
-0.00177955
0.00177955
-0.00177955
0.00177953
-0.00177971
0.00177841
-0.00178561
0.00175529
-0.00184572
0.00168201
-0.00177606
0.00194875
-0.0020069
0.000967363
-0.00123569
0.00251681
-0.00382517
0.00307141
-0.00275209
3.98819e-05
0.126585
0.126585
1
0.793888
0.648239
0.640171
0.594172
0.649483
0.685396
0.676794
0.782287
0.856263
0.68745
0.403588
0.17708
0.0652299
0.0173573
0.00635746
-0.000493697
0.00176279
-0.00151923
0.00156114
-0.00155461
0.00155554
-0.00155542
0.00155543
-0.00155543
0.00155543
-0.00155543
0.00155543
-0.00155543
0.00155543
-0.00155543
0.00155543
-0.00155543
0.00155543
-0.00155543
0.00155543
-0.00155543
0.00155543
-0.00155543
0.00155543
-0.00155543
0.00155543
-0.00155543
0.00155543
-0.00155543
0.00155543
-0.00155543
0.00155543
-0.00155543
0.00155543
-0.00155543
0.00155543
-0.00155543
0.00155543
-0.00155543
0.00155543
-0.00155543
0.00155543
-0.00155543
0.00155543
-0.00155543
0.00155543
-0.00155543
0.00155543
-0.00155543
0.00155543
-0.00155543
0.00155543
-0.00155543
0.00155543
-0.00155543
0.00155543
-0.00155543
0.00155543
-0.00155543
0.00155543
-0.00155543
0.00155543
-0.00155543
0.00155543
-0.00155544
0.00155541
-0.00155564
0.00155404
-0.00156278
0.0015265
-0.00163322
0.00144126
-0.00155939
0.00172387
-0.00182705
0.000678624
-0.00100679
0.00222472
-0.00364688
0.00282613
-0.00275443
-0.000678567
-0.11031
-0.11031
1
0.924905
0.801173
0.792033
0.750059
0.793404
0.834792
0.820597
0.898087
0.941926
0.751745
0.44338
0.197973
0.072796
0.0206529
0.00652227
0.000281824
0.00120897
-0.000919433
0.000969828
-0.000961893
0.000963033
-0.000962882
0.000962901
-0.000962899
0.000962899
-0.000962899
0.000962899
-0.000962899
0.000962899
-0.000962899
0.000962899
-0.000962899
0.000962899
-0.000962899
0.000962899
-0.000962899
0.000962899
-0.000962899
0.000962899
-0.000962899
0.000962899
-0.000962899
0.000962899
-0.000962899
0.000962899
-0.000962899
0.000962899
-0.000962899
0.000962899
-0.000962899
0.000962899
-0.000962899
0.000962899
-0.000962899
0.000962899
-0.000962899
0.000962899
-0.000962899
0.000962899
-0.000962899
0.000962899
-0.000962899
0.000962899
-0.000962899
0.000962899
-0.000962899
0.000962899
-0.000962899
0.000962899
-0.000962899
0.000962899
-0.000962899
0.000962899
-0.000962899
0.000962899
-0.000962899
0.000962899
-0.000962899
0.000962899
-0.000962902
0.000962868
-0.00096315
0.00096125
-0.000971379
0.000930411
-0.00104755
0.000843729
-0.000964162
0.00111362
-0.00129513
0.000110264
-0.000360493
0.00138997
-0.00295625
0.00230443
-0.00252315
0.000608541
0.120112
0.120112
1
1.01237
0.918883
0.912569
0.873854
0.900805
0.944191
0.917189
0.961146
0.982606
0.789337
0.471931
0.215608
0.0796164
0.023953
0.0066362
0.00113654
0.000590578
-0.000250627
0.000310554
-0.000301004
0.000302392
-0.000302207
0.000302229
-0.000302227
0.000302227
-0.000302227
0.000302227
-0.000302227
0.000302227
-0.000302227
0.000302227
-0.000302227
0.000302227
-0.000302227
0.000302227
-0.000302227
0.000302227
-0.000302227
0.000302227
-0.000302227
0.000302227
-0.000302227
0.000302227
-0.000302227
0.000302227
-0.000302227
0.000302227
-0.000302227
0.000302227
-0.000302227
0.000302227
-0.000302227
0.000302227
-0.000302227
0.000302227
-0.000302227
0.000302227
-0.000302227
0.000302227
-0.000302227
0.000302227
-0.000302227
0.000302227
-0.000302227
0.000302227
-0.000302227
0.000302227
-0.000302227
0.000302227
-0.000302227
0.000302227
-0.000302227
0.000302227
-0.000302227
0.000302227
-0.000302227
0.000302227
-0.000302227
0.000302227
-0.000302231
0.000302189
-0.000302526
0.000300307
-0.000311836
0.000266561
-0.000391502
0.000184494
-0.000293271
0.000430648
-0.000703082
-0.000489944
0.000388457
0.000438976
-0.0021608
0.00176806
-0.00223215
-0.000175572
-0.113813
-0.113813
1
1.06711
1.00471
1.00252
0.96672
0.976247
1.01764
0.976844
0.991192
0.998919
0.813197
0.495201
0.23192
0.0863922
0.0273017
0.00684105
0.00197076
1.6181e-05
0.000380374
-0.000309545
0.000320973
-0.000319294
0.00031952
-0.000319492
0.000319495
-0.000319495
0.000319495
-0.000319495
0.000319495
-0.000319495
0.000319495
-0.000319495
0.000319495
-0.000319495
0.000319495
-0.000319495
0.000319495
-0.000319495
0.000319495
-0.000319495
0.000319495
-0.000319495
0.000319495
-0.000319495
0.000319495
-0.000319495
0.000319495
-0.000319495
0.000319495
-0.000319495
0.000319495
-0.000319495
0.000319495
-0.000319495
0.000319495
-0.000319495
0.000319495
-0.000319495
0.000319495
-0.000319495
0.000319495
-0.000319495
0.000319495
-0.000319495
0.000319495
-0.000319495
0.000319495
-0.000319495
0.000319495
-0.000319495
0.000319495
-0.000319495
0.000319495
-0.000319495
0.000319495
-0.000319495
0.000319495
-0.000319495
0.000319495
-0.000319495
0.00031949
-0.00031954
0.000319141
-0.00032171
0.000308715
-0.000358187
0.000226863
-0.000432173
0.000342437
-0.000214861
-0.000147534
-0.00103297
0.00109988
-0.000464374
-0.00137205
0.00124556
-0.00188166
0.000961284
0.118138
0.118138
1
1.09793
1.06326
1.06472
1.03248
1.02531
1.06226
1.01118
1.00292
1.00285
0.829721
0.515644
0.247605
0.0933277
0.0307214
0.00716932
0.00276567
-0.000491937
0.000952143
-0.000868846
0.000882457
-0.000880432
0.000880708
-0.000880673
0.000880678
-0.000880677
0.000880677
-0.000880677
0.000880677
-0.000880677
0.000880677
-0.000880677
0.000880677
-0.000880677
0.000880677
-0.000880677
0.000880677
-0.000880677
0.000880677
-0.000880677
0.000880677
-0.000880677
0.000880677
-0.000880677
0.000880677
-0.000880677
0.000880677
-0.000880677
0.000880677
-0.000880677
0.000880677
-0.000880677
0.000880677
-0.000880677
0.000880677
-0.000880677
0.000880677
-0.000880677
0.000880677
-0.000880677
0.000880677
-0.000880677
0.000880677
-0.000880677
0.000880677
-0.000880677
0.000880677
-0.000880677
0.000880677
-0.000880677
0.000880677
-0.000880677
0.000880677
-0.000880677
0.000880677
-0.000880677
0.000880677
-0.000880677
0.000880677
-0.000880678
0.000880671
-0.000880732
0.000880261
-0.000883214
0.000868679
-0.000922286
0.000785628
-0.000986075
0.000918588
-0.000801548
0.000356023
-0.00150185
0.00173061
-0.00128239
-0.000600006
0.000716563
-0.00148941
-1.39408e-05
-0.114981
-0.114981
1
1.11187
1.09965
1.10357
1.07601
1.05408
1.08597
1.02984
1.00562
1.00084
0.841911
0.534212
0.262861
0.100466
0.0342123
0.00763203
0.00351484
-0.000925492
0.00145701
-0.00135951
0.00137565
-0.00137322
0.00137355
-0.00137351
0.00137352
-0.00137352
0.00137352
-0.00137352
0.00137352
-0.00137352
0.00137352
-0.00137352
0.00137352
-0.00137352
0.00137352
-0.00137352
0.00137352
-0.00137352
0.00137352
-0.00137352
0.00137352
-0.00137352
0.00137352
-0.00137352
0.00137352
-0.00137352
0.00137352
-0.00137352
0.00137352
-0.00137352
0.00137352
-0.00137352
0.00137352
-0.00137352
0.00137352
-0.00137352
0.00137352
-0.00137352
0.00137352
-0.00137352
0.00137352
-0.00137352
0.00137352
-0.00137352
0.00137352
-0.00137352
0.00137352
-0.00137352
0.00137352
-0.00137352
0.00137352
-0.00137352
0.00137352
-0.00137352
0.00137352
-0.00137352
0.00137352
-0.00137352
0.00137352
-0.00137352
0.00137351
-0.00137358
0.00137303
-0.0013764
0.00136026
-0.00141792
0.0012769
-0.0014701
0.00142567
-0.00132227
0.000802367
-0.00189087
0.00226381
-0.00200438
0.000147093
0.000180483
-0.00105483
0.000947608
0.11741
0.11741
1
1.11437
1.11901
1.1241
1.10232
1.06847
1.09577
1.03952
1.00453
0.996159
0.851166
0.55126
0.277691
0.107803
0.0377567
0.00824236
0.00420645
-0.00127136
0.00188239
-0.0017688
0.00178784
-0.00178494
0.00178534
-0.00178529
0.00178529
-0.00178529
0.00178529
-0.00178529
0.00178529
-0.00178529
0.00178529
-0.00178529
0.00178529
-0.00178529
0.00178529
-0.00178529
0.00178529
-0.00178529
0.00178529
-0.00178529
0.00178529
-0.00178529
0.00178529
-0.00178529
0.00178529
-0.00178529
0.00178529
-0.00178529
0.00178529
-0.00178529
0.00178529
-0.00178529
0.00178529
-0.00178529
0.00178529
-0.00178529
0.00178529
-0.00178529
0.00178529
-0.00178529
0.00178529
-0.00178529
0.00178529
-0.00178529
0.00178529
-0.00178529
0.00178529
-0.00178529
0.00178529
-0.00178529
0.00178529
-0.00178529
0.00178529
-0.00178529
0.00178529
-0.00178529
0.00178529
-0.00178529
0.00178529
-0.00178529
0.00178528
-0.00178537
0.00178473
-0.00178855
0.00177075
-0.00183233
0.00168795
-0.00187194
0.00185
-0.00176451
0.00117963
-0.00219019
0.00268489
-0.00261585
0.000844862
-0.000343122
-0.000621363
-0.000161743
-0.115457
-0.115457
1
1.10957
1.12605
1.13121
1.116
1.07349
1.09697
1.04434
1.00231
0.990457
0.858177
0.566923
0.292038
0.115319
0.0413314
0.00901344
0.0048273
-0.00151533
0.00221458
-0.00208284
0.0021052
-0.00210175
0.00210224
-0.00210218
0.00210218
-0.00210218
0.00210218
-0.00210218
0.00210218
-0.00210218
0.00210218
-0.00210218
0.00210218
-0.00210218
0.00210218
-0.00210218
0.00210218
-0.00210218
0.00210218
-0.00210218
0.00210218
-0.00210218
0.00210218
-0.00210218
0.00210218
-0.00210218
0.00210218
-0.00210218
0.00210218
-0.00210218
0.00210218
-0.00210218
0.00210218
-0.00210218
0.00210218
-0.00210218
0.00210218
-0.00210218
0.00210218
-0.00210218
0.00210218
-0.00210218
0.00210218
-0.00210218
0.00210218
-0.00210218
0.00210218
-0.00210218
0.00210218
-0.00210218
0.00210218
-0.00210218
0.00210218
-0.00210218
0.00210218
-0.00210218
0.00210218
-0.00210218
0.00210218
-0.00210218
0.00210217
-0.00210227
0.00210154
-0.00210584
0.00208632
-0.00215166
0.00200496
-0.00217807
0.00217717
-0.0021141
0.00147414
-0.0023898
0.00298132
-0.00309999
0.00146348
-0.000828936
-0.000196918
0.000714111
0.117086
0.117086
1
1.10054
1.1248
1.1292
1.1209
1.07301
1.0932
1.04656
1.00017
0.984556
0.863347
0.58126
0.305833
0.122984
0.044915
0.00995292
0.00536865
-0.00164788
0.00244452
-0.00229242
0.00231857
-0.00231449
0.00231507
-0.00231499
0.002315
-0.002315
0.002315
-0.002315
0.002315
-0.002315
0.002315
-0.002315
0.002315
-0.002315
0.002315
-0.002315
0.002315
-0.002315
0.002315
-0.002315
0.002315
-0.002315
0.002315
-0.002315
0.002315
-0.002315
0.002315
-0.002315
0.002315
-0.002315
0.002315
-0.002315
0.002315
-0.002315
0.002315
-0.002315
0.002315
-0.002315
0.002315
-0.002315
0.002315
-0.002315
0.002315
-0.002315
0.002315
-0.002315
0.002315
-0.002315
0.002315
-0.002315
0.002315
-0.002315
0.002315
-0.002315
0.002315
-0.002315
0.002315
-0.002315
0.002315
-0.002315
0.00231499
-0.00231511
0.00231426
-0.00231908
0.00229783
-0.00236669
0.00221873
-0.00237955
0.0023977
-0.00236115
0.00167659
-0.00248461
0.00314661
-0.00344448
0.00197813
-0.00125546
0.000181809
-0.00044062
-0.115685
-0.115685
1
1.08947
1.11847
1.12156
1.12002
1.06967
1.08676
1.04736
0.998567
0.978887
0.866965
0.594311
0.319016
0.130759
0.048492
0.011061
0.00582841
-0.00166636
0.00257001
-0.00239516
0.00242561
-0.0024208
0.00242149
-0.0024214
0.00242141
-0.00242141
0.00242141
-0.00242141
0.00242141
-0.00242141
0.00242141
-0.00242141
0.00242141
-0.00242141
0.00242141
-0.00242141
0.00242141
-0.00242141
0.00242141
-0.00242141
0.00242141
-0.00242141
0.00242141
-0.00242141
0.00242141
-0.00242141
0.00242141
-0.00242141
0.00242141
-0.00242141
0.00242141
-0.00242141
0.00242141
-0.00242141
0.00242141
-0.00242141
0.00242141
-0.00242141
0.00242141
-0.00242141
0.00242141
-0.00242141
0.00242141
-0.00242141
0.00242141
-0.00242141
0.00242141
-0.00242141
0.00242141
-0.00242141
0.00242141
-0.00242141
0.00242141
-0.00242141
0.00242141
-0.00242141
0.00242141
-0.00242141
0.00242141
-0.00242141
0.00242139
-0.00242153
0.00242057
-0.00242593
0.00240293
-0.00247504
0.0023269
-0.00247431
0.00250909
-0.00250246
0.00178429
-0.00247618
0.00318189
-0.00364482
0.00237311
-0.00160744
0.000518601
0.000423018
0.116922
0.116922
1
1.07786
1.10943
1.1109
1.11556
1.06514
1.07903
1.04728
0.997606
0.973684
0.869276
0.606119
0.331539
0.138601
0.0520518
0.0123307
0.00621075
-0.00157459
0.00259524
-0.00239512
0.00243041
-0.00242476
0.00242559
-0.00242548
0.00242549
-0.00242549
0.00242549
-0.00242549
0.00242549
-0.00242549
0.00242549
-0.00242549
0.00242549
-0.00242549
0.00242549
-0.00242549
0.00242549
-0.00242549
0.00242549
-0.00242549
0.00242549
-0.00242549
0.00242549
-0.00242549
0.00242549
-0.00242549
0.00242549
-0.00242549
0.00242549
-0.00242549
0.00242549
-0.00242549
0.00242549
-0.00242549
0.00242549
-0.00242549
0.00242549
-0.00242549
0.00242549
-0.00242549
0.00242549
-0.00242549
0.00242549
-0.00242549
0.00242549
-0.00242549
0.00242549
-0.00242549
0.00242549
-0.00242549
0.00242549
-0.00242549
0.00242549
-0.00242549
0.00242549
-0.00242549
0.00242549
-0.00242549
0.00242549
-0.00242549
0.00242547
-0.00242563
0.00242454
-0.00243046
0.00240572
-0.00248077
0.00233352
-0.00246668
0.00251536
-0.00254119
0.00180072
-0.00237201
0.0030953
-0.00370449
0.0026418
-0.00187591
0.00078777
-0.000720392
-0.115806
-0.115806
1
1.06666
1.09932
1.09907
1.109
1.06039
1.07081
1.04655
0.997237
0.969077
0.870504
0.616729
0.34337
0.146462
0.0555885
0.0137497
0.00652473
-0.00138152
0.00252953
-0.00230144
0.00234218
-0.00233558
0.00233656
-0.00233642
0.00233644
-0.00233644
0.00233644
-0.00233644
0.00233644
-0.00233644
0.00233644
-0.00233644
0.00233644
-0.00233644
0.00233644
-0.00233644
0.00233644
-0.00233644
0.00233644
-0.00233644
0.00233644
-0.00233644
0.00233644
-0.00233644
0.00233644
-0.00233644
0.00233644
-0.00233644
0.00233644
-0.00233644
0.00233644
-0.00233644
0.00233644
-0.00233644
0.00233644
-0.00233644
0.00233644
-0.00233644
0.00233644
-0.00233644
0.00233644
-0.00233644
0.00233644
-0.00233644
0.00233644
-0.00233644
0.00233644
-0.00233644
0.00233644
-0.00233644
0.00233644
-0.00233644
0.00233644
-0.00233644
0.00233644
-0.00233644
0.00233644
-0.00233644
0.00233644
-0.00233644
0.00233642
-0.0023366
0.00233537
-0.00234188
0.00231542
-0.00239305
0.00224774
-0.00236608
0.00242575
-0.00248563
0.00173422
-0.00218413
0.00290047
-0.00363364
0.0027853
-0.00205706
0.00100222
0.000172874
0.116828
0.116828
1
1.05642
1.08916
1.08726
1.10132
1.05587
1.06259
1.0453
0.997349
0.965132
0.870856
0.626197
0.354491
0.154292
0.0590993
0.0153011
0.0067829
-0.00109986
0.00238587
-0.00212698
0.00217381
-0.00216613
0.00216728
-0.00216712
0.00216714
-0.00216714
0.00216714
-0.00216714
0.00216714
-0.00216714
0.00216714
-0.00216714
0.00216714
-0.00216714
0.00216714
-0.00216714
0.00216714
-0.00216714
0.00216714
-0.00216714
0.00216714
-0.00216714
0.00216714
-0.00216714
0.00216714
-0.00216714
0.00216714
-0.00216714
0.00216714
-0.00216714
0.00216714
-0.00216714
0.00216714
-0.00216714
0.00216714
-0.00216714
0.00216714
-0.00216714
0.00216714
-0.00216714
0.00216714
-0.00216714
0.00216714
-0.00216714
0.00216714
-0.00216714
0.00216714
-0.00216714
0.00216714
-0.00216714
0.00216714
-0.00216714
0.00216714
-0.00216714
0.00216714
-0.00216714
0.00216714
-0.00216714
0.00216714
-0.00216714
0.00216711
-0.00216733
0.00216595
-0.00217306
0.00214493
-0.00222474
0.00208238
-0.00218562
0.00225327
-0.00234784
0.0015966
-0.00192765
0.00261497
-0.00344755
0.00281087
-0.00215181
0.00114387
-0.000929602
-0.115884
-0.115884
1
1.04738
1.07953
1.07618
1.09313
1.0518
1.05465
1.0436
0.99782
0.961874
0.870524
0.634586
0.364894
0.162043
0.0625834
0.0169653
0.00700008
-0.000744807
0.00217969
-0.00188703
0.00194063
-0.00193174
0.00193309
-0.0019329
0.00193292
-0.00193292
0.00193292
-0.00193292
0.00193292
-0.00193292
0.00193292
-0.00193292
0.00193292
-0.00193292
0.00193292
-0.00193292
0.00193292
-0.00193292
0.00193292
-0.00193292
0.00193292
-0.00193292
0.00193292
-0.00193292
0.00193292
-0.00193292
0.00193292
-0.00193292
0.00193292
-0.00193292
0.00193292
-0.00193292
0.00193292
-0.00193292
0.00193292
-0.00193292
0.00193292
-0.00193292
0.00193292
-0.00193292
0.00193292
-0.00193292
0.00193292
-0.00193292
0.00193292
-0.00193292
0.00193292
-0.00193292
0.00193292
-0.00193292
0.00193292
-0.00193292
0.00193292
-0.00193292
0.00193292
-0.00193292
0.00193292
-0.00193292
0.00193292
-0.00193292
0.00193289
-0.00193313
0.0019316
-0.00193934
0.00190958
-0.00199117
0.00185268
-0.00194083
0.00201345
-0.00214241
0.0014019
-0.0016195
0.00225876
-0.00316506
0.00273051
-0.0021649
0.00123211
1.21872e-05
0.11676
0.11676
1
1.03961
1.07071
1.06618
1.08481
1.04821
1.04717
1.0415
0.998531
0.959293
0.869682
0.641964
0.374583
0.169666
0.0660414
0.0187209
0.00719215
-0.000332895
0.00192768
-0.00159816
0.00165928
-0.00164901
0.00165059
-0.00165037
0.00165039
-0.00165039
0.00165039
-0.00165039
0.00165039
-0.00165039
0.00165039
-0.00165039
0.00165039
-0.00165039
0.00165039
-0.00165039
0.00165039
-0.00165039
0.00165039
-0.00165039
0.00165039
-0.00165039
0.00165039
-0.00165039
0.00165039
-0.00165039
0.00165039
-0.00165039
0.00165039
-0.00165039
0.00165039
-0.00165039
0.00165039
-0.00165039
0.00165039
-0.00165039
0.00165039
-0.00165039
0.00165039
-0.00165039
0.00165039
-0.00165039
0.00165039
-0.00165039
0.00165039
-0.00165039
0.00165039
-0.00165039
0.00165039
-0.00165039
0.00165039
-0.00165039
0.00165039
-0.00165039
0.00165039
-0.00165039
0.00165039
-0.00165039
0.00165039
-0.00165039
0.00165036
-0.00165063
0.00164893
-0.0016573
0.001626
-0.00170893
0.00157518
-0.00164849
0.00172314
-0.00188534
0.0011653
-0.00127728
0.00185287
-0.00280715
0.00255963
-0.00210442
0.00125431
-0.00103937
-0.115948
-0.115948
1
1.03305
1.06277
1.0574
1.07659
1.04505
1.04025
1.03906
0.99938
0.957358
0.868486
0.648402
0.38357
0.177118
0.0694741
0.0205461
0.00737504
0.000119038
0.00164679
-0.00127719
0.0013466
-0.00133481
0.00133663
-0.00133637
0.00133641
-0.0013364
0.0013364
-0.0013364
0.0013364
-0.0013364
0.0013364
-0.0013364
0.0013364
-0.0013364
0.0013364
-0.0013364
0.0013364
-0.0013364
0.0013364
-0.0013364
0.0013364
-0.0013364
0.0013364
-0.0013364
0.0013364
-0.0013364
0.0013364
-0.0013364
0.0013364
-0.0013364
0.0013364
-0.0013364
0.0013364
-0.0013364
0.0013364
-0.0013364
0.0013364
-0.0013364
0.0013364
-0.0013364
0.0013364
-0.0013364
0.0013364
-0.0013364
0.0013364
-0.0013364
0.0013364
-0.0013364
0.0013364
-0.0013364
0.0013364
-0.0013364
0.0013364
-0.0013364
0.0013364
-0.0013364
0.0013364
-0.0013364
0.0013364
-0.00133641
0.00133637
-0.00133667
0.00133481
-0.0013438
0.00131105
-0.00139488
0.00126664
-0.0013256
0.0013995
-0.001593
0.000902155
-0.000918271