# vtk DataFile Version 2.0
FlowField
ASCII
DATASET STRUCTURED_GRID
DIMENSIONS 100 1 100
POINTS 10000 float
0 0 0
0.01 0 0
0.02 0 0
0.03 0 0
0.04 0 0
0.05 0 0
0.06 0 0
0.07 0 0
0.08 0 0
0.09 0 0
0.1 0 0
0.11 0 0
0.12 0 0
0.13 0 0
0.14 0 0
0.15 0 0
0.16 0 0
0.17 0 0
0.18 0 0
0.19 0 0
0.2 0 0
0.21 0 0
0.22 0 0
0.23 0 0
0.24 0 0
0.25 0 0
0.26 0 0
0.27 0 0
0.28 0 0
0.29 0 0
0.3 0 0
0.31 0 0
0.32 0 0
0.33 0 0
0.34 0 0
0.35 0 0
0.36 0 0
0.37 0 0
0.38 0 0
0.39 0 0
0.4 0 0
0.41 0 0
0.42 0 0
0.43 0 0
0.44 0 0
0.45 0 0
0.46 0 0
0.47 0 0
0.48 0 0
0.49 0 0
0.5 0 0
0.51 0 0
0.52 0 0
0.53 0 0
0.54 0 0
0.55 0 0
0.56 0 0
0.57 0 0
0.58 0 0
0.59 0 0
0.6 0 0
0.61 0 0
0.62 0 0
0.63 0 0
0.64 0 0
0.65 0 0
0.66 0 0
0.67 0 0
0.68 0 0
0.69 0 0
0.7 0 0
0.71 0 0
0.72 0 0
0.73 0 0
0.74 0 0
0.75 0 0
0.76 0 0
0.77 0 0
0.78 0 0
0.79 0 0
0.8 0 0
0.81 0 0
0.82 0 0
0.83 0 0
0.84 0 0
0.85 0 0
0.86 0 0
0.87 0 0
0.88 0 0
0.89 0 0
0.9 0 0
0.91 0 0
0.92 0 0
0.93 0 0
0.94 0 0
0.95 0 0
0.96 0 0
0.97 0 0
0.98 0 0
0.99 0 0
0 0.001 0
0.01 0.001 0
0.02 0.001 0
0.03 0.001 0
0.04 0.001 0
0.05 0.001 0
0.06 0.001 0
0.07 0.001 0
0.08 0.001 0
0.09 0.001 0
0.1 0.001 0
0.11 0.001 0
0.12 0.001 0
0.13 0.001 0
0.14 0.001 0
0.15 0.001 0
0.16 0.001 0
0.17 0.001 0
0.18 0.001 0
0.19 0.001 0
0.2 0.001 0
0.21 0.001 0
0.22 0.001 0
0.23 0.001 0
0.24 0.001 0
0.25 0.001 0
0.26 0.001 0
0.27 0.001 0
0.28 0.001 0
0.29 0.001 0
0.3 0.001 0
0.31 0.001 0
0.32 0.001 0
0.33 0.001 0
0.34 0.001 0
0.35 0.001 0
0.36 0.001 0
0.37 0.001 0
0.38 0.001 0
0.39 0.001 0
0.4 0.001 0
0.41 0.001 0
0.42 0.001 0
0.43 0.001 0
0.44 0.001 0
0.45 0.001 0
0.46 0.001 0
0.47 0.001 0
0.48 0.001 0
0.49 0.001 0
0.5 0.001 0
0.51 0.001 0
0.52 0.001 0
0.53 0.001 0
0.54 0.001 0
0.55 0.001 0
0.56 0.001 0
0.57 0.001 0
0.58 0.001 0
0.59 0.001 0
0.6 0.001 0
0.61 0.001 0
0.62 0.001 0
0.63 0.001 0
0.64 0.001 0
0.65 0.001 0
0.66 0.001 0
0.67 0.001 0
0.68 0.001 0
0.69 0.001 0
0.7 0.001 0
0.71 0.001 0
0.72 0.001 0
0.73 0.001 0
0.74 0.001 0
0.75 0.001 0
0.76 0.001 0
0.77 0.001 0
0.78 0.001 0
0.79 0.001 0
0.8 0.001 0
0.81 0.001 0
0.82 0.001 0
0.83 0.001 0
0.84 0.001 0
0.85 0.001 0
0.86 0.001 0
0.87 0.001 0
0.88 0.001 0
0.89 0.001 0
0.9 0.001 0
0.91 0.001 0
0.92 0.001 0
0.93 0.001 0
0.94 0.001 0
0.95 0.001 0
0.96 0.001 0
0.97 0.001 0
0.98 0.001 0
0.99 0.001 0
0 0.002 0
0.01 0.002 0
0.02 0.002 0
0.03 0.002 0
0.04 0.002 0
0.05 0.002 0
0.06 0.002 0
0.07 0.002 0
0.08 0.002 0
0.09 0.002 0
0.1 0.002 0
0.11 0.002 0
0.12 0.002 0
0.13 0.002 0
0.14 0.002 0
0.15 0.002 0
0.16 0.002 0
0.17 0.002 0
0.18 0.002 0
0.19 0.002 0
0.2 0.002 0
0.21 0.002 0
0.22 0.002 0
0.23 0.002 0
0.24 0.002 0
0.25 0.002 0
0.26 0.002 0
0.27 0.002 0
0.28 0.002 0
0.29 0.002 0
0.3 0.002 0
0.31 0.002 0
0.32 0.002 0
0.33 0.002 0
0.34 0.002 0
0.35 0.002 0
0.36 0.002 0
0.37 0.002 0
0.38 0.002 0
0.39 0.002 0
0.4 0.002 0
0.41 0.002 0
0.42 0.002 0
0.43 0.002 0
0.44 0.002 0
0.45 0.002 0
0.46 0.002 0
0.47 0.002 0
0.48 0.002 0
0.49 0.002 0
0.5 0.002 0
0.51 0.002 0
0.52 0.002 0
0.53 0.002 0
0.54 0.002 0
0.55 0.002 0
0.56 0.002 0
0.57 0.002 0
0.58 0.002 0
0.59 0.002 0
0.6 0.002 0
0.61 0.002 0
0.62 0.002 0
0.63 0.002 0
0.64 0.002 0
0.65 0.002 0
0.66 0.002 0
0.67 0.002 0
0.68 0.002 0
0.69 0.002 0
0.7 0.002 0
0.71 0.002 0
0.72 0.002 0
0.73 0.002 0
0.74 0.002 0
0.75 0.002 0
0.76 0.002 0
0.77 0.002 0
0.78 0.002 0
0.79 0.002 0
0.8 0.002 0
0.81 0.002 0
0.82 0.002 0
0.83 0.002 0
0.84 0.002 0
0.85 0.002 0
0.86 0.002 0
0.87 0.002 0
0.88 0.002 0
0.89 0.002 0
0.9 0.002 0
0.91 0.002 0
0.92 0.002 0
0.93 0.002 0
0.94 0.002 0
0.95 0.002 0
0.96 0.002 0
0.97 0.002 0
0.98 0.002 0
0.99 0.002 0
0 0.003 0
0.01 0.003 0
0.02 0.003 0
0.03 0.003 0
0.04 0.003 0
0.05 0.003 0
0.06 0.003 0
0.07 0.003 0
0.08 0.003 0
0.09 0.003 0
0.1 0.003 0
0.11 0.003 0
0.12 0.003 0
0.13 0.003 0
0.14 0.003 0
0.15 0.003 0
0.16 0.003 0
0.17 0.003 0
0.18 0.003 0
0.19 0.003 0
0.2 0.003 0
0.21 0.003 0
0.22 0.003 0
0.23 0.003 0
0.24 0.003 0
0.25 0.003 0
0.26 0.003 0
0.27 0.003 0
0.28 0.003 0
0.29 0.003 0
0.3 0.003 0
0.31 0.003 0
0.32 0.003 0
0.33 0.003 0
0.34 0.003 0
0.35 0.003 0
0.36 0.003 0
0.37 0.003 0
0.38 0.003 0
0.39 0.003 0
0.4 0.003 0
0.41 0.003 0
0.42 0.003 0
0.43 0.003 0
0.44 0.003 0
0.45 0.003 0
0.46 0.003 0
0.47 0.003 0
0.48 0.003 0
0.49 0.003 0
0.5 0.003 0
0.51 0.003 0
0.52 0.003 0
0.53 0.003 0
0.54 0.003 0
0.55 0.003 0
0.56 0.003 0
0.57 0.003 0
0.58 0.003 0
0.59 0.003 0
0.6 0.003 0
0.61 0.003 0
0.62 0.003 0
0.63 0.003 0
0.64 0.003 0
0.65 0.003 0
0.66 0.003 0
0.67 0.003 0
0.68 0.003 0
0.69 0.003 0
0.7 0.003 0
0.71 0.003 0
0.72 0.003 0
0.73 0.003 0
0.74 0.003 0
0.75 0.003 0
0.76 0.003 0
0.77 0.003 0
0.78 0.003 0
0.79 0.003 0
0.8 0.003 0
0.81 0.003 0
0.82 0.003 0
0.83 0.003 0
0.84 0.003 0
0.85 0.003 0
0.86 0.003 0
0.87 0.003 0
0.88 0.003 0
0.89 0.003 0
0.9 0.003 0
0.91 0.003 0
0.92 0.003 0
0.93 0.003 0
0.94 0.003 0
0.95 0.003 0
0.96 0.003 0
0.97 0.003 0
0.98 0.003 0
0.99 0.003 0
0 0.004 0
0.01 0.004 0
0.02 0.004 0
0.03 0.004 0
0.04 0.004 0
0.05 0.004 0
0.06 0.004 0
0.07 0.004 0
0.08 0.004 0
0.09 0.004 0
0.1 0.004 0
0.11 0.004 0
0.12 0.004 0
0.13 0.004 0
0.14 0.004 0
0.15 0.004 0
0.16 0.004 0
0.17 0.004 0
0.18 0.004 0
0.19 0.004 0
0.2 0.004 0
0.21 0.004 0
0.22 0.004 0
0.23 0.004 0
0.24 0.004 0
0.25 0.004 0
0.26 0.004 0
0.27 0.004 0
0.28 0.004 0
0.29 0.004 0
0.3 0.004 0
0.31 0.004 0
0.32 0.004 0
0.33 0.004 0
0.34 0.004 0
0.35 0.004 0
0.36 0.004 0
0.37 0.004 0
0.38 0.004 0
0.39 0.004 0
0.4 0.004 0
0.41 0.004 0
0.42 0.004 0
0.43 0.004 0
0.44 0.004 0
0.45 0.004 0
0.46 0.004 0
0.47 0.004 0
0.48 0.004 0
0.49 0.004 0
0.5 0.004 0
0.51 0.004 0
0.52 0.004 0
0.53 0.004 0
0.54 0.004 0
0.55 0.004 0
0.56 0.004 0
0.57 0.004 0
0.58 0.004 0
0.59 0.004 0
0.6 0.004 0
0.61 0.004 0
0.62 0.004 0
0.63 0.004 0
0.64 0.004 0
0.65 0.004 0
0.66 0.004 0
0.67 0.004 0
0.68 0.004 0
0.69 0.004 0
0.7 0.004 0
0.71 0.004 0
0.72 0.004 0
0.73 0.004 0
0.74 0.004 0
0.75 0.004 0
0.76 0.004 0
0.77 0.004 0
0.78 0.004 0
0.79 0.004 0
0.8 0.004 0
0.81 0.004 0
0.82 0.004 0
0.83 0.004 0
0.84 0.004 0
0.85 0.004 0
0.86 0.004 0
0.87 0.004 0
0.88 0.004 0
0.89 0.004 0
0.9 0.004 0
0.91 0.004 0
0.92 0.004 0
0.93 0.004 0
0.94 0.004 0
0.95 0.004 0
0.96 0.004 0
0.97 0.004 0
0.98 0.004 0
0.99 0.004 0
0 0.005 0
0.01 0.005 0
0.02 0.005 0
0.03 0.005 0
0.04 0.005 0
0.05 0.005 0
0.06 0.005 0
0.07 0.005 0
0.08 0.005 0
0.09 0.005 0
0.1 0.005 0
0.11 0.005 0
0.12 0.005 0
0.13 0.005 0
0.14 0.005 0
0.15 0.005 0
0.16 0.005 0
0.17 0.005 0
0.18 0.005 0
0.19 0.005 0
0.2 0.005 0
0.21 0.005 0
0.22 0.005 0
0.23 0.005 0
0.24 0.005 0
0.25 0.005 0
0.26 0.005 0
0.27 0.005 0
0.28 0.005 0
0.29 0.005 0
0.3 0.005 0
0.31 0.005 0
0.32 0.005 0
0.33 0.005 0
0.34 0.005 0
0.35 0.005 0
0.36 0.005 0
0.37 0.005 0
0.38 0.005 0
0.39 0.005 0
0.4 0.005 0
0.41 0.005 0
0.42 0.005 0
0.43 0.005 0
0.44 0.005 0
0.45 0.005 0
0.46 0.005 0
0.47 0.005 0
0.48 0.005 0
0.49 0.005 0
0.5 0.005 0
0.51 0.005 0
0.52 0.005 0
0.53 0.005 0
0.54 0.005 0
0.55 0.005 0
0.56 0.005 0
0.57 0.005 0
0.58 0.005 0
0.59 0.005 0
0.6 0.005 0
0.61 0.005 0
0.62 0.005 0
0.63 0.005 0
0.64 0.005 0
0.65 0.005 0
0.66 0.005 0
0.67 0.005 0
0.68 0.005 0
0.69 0.005 0
0.7 0.005 0
0.71 0.005 0
0.72 0.005 0
0.73 0.005 0
0.74 0.005 0
0.75 0.005 0
0.76 0.005 0
0.77 0.005 0
0.78 0.005 0
0.79 0.005 0
0.8 0.005 0
0.81 0.005 0
0.82 0.005 0
0.83 0.005 0
0.84 0.005 0
0.85 0.005 0
0.86 0.005 0
0.87 0.005 0
0.88 0.005 0
0.89 0.005 0
0.9 0.005 0
0.91 0.005 0
0.92 0.005 0
0.93 0.005 0
0.94 0.005 0
0.95 0.005 0
0.96 0.005 0
0.97 0.005 0
0.98 0.005 0
0.99 0.005 0
0 0.006 0
0.01 0.006 0
0.02 0.006 0
0.03 0.006 0
0.04 0.006 0
0.05 0.006 0
0.06 0.006 0
0.07 0.006 0
0.08 0.006 0
0.09 0.006 0
0.1 0.006 0
0.11 0.006 0
0.12 0.006 0
0.13 0.006 0
0.14 0.006 0
0.15 0.006 0
0.16 0.006 0
0.17 0.006 0
0.18 0.006 0
0.19 0.006 0
0.2 0.006 0
0.21 0.006 0
0.22 0.006 0
0.23 0.006 0
0.24 0.006 0
0.25 0.006 0
0.26 0.006 0
0.27 0.006 0
0.28 0.006 0
0.29 0.006 0
0.3 0.006 0
0.31 0.006 0
0.32 0.006 0
0.33 0.006 0
0.34 0.006 0
0.35 0.006 0
0.36 0.006 0
0.37 0.006 0
0.38 0.006 0
0.39 0.006 0
0.4 0.006 0
0.41 0.006 0
0.42 0.006 0
0.43 0.006 0
0.44 0.006 0
0.45 0.006 0
0.46 0.006 0
0.47 0.006 0
0.48 0.006 0
0.49 0.006 0
0.5 0.006 0
0.51 0.006 0
0.52 0.006 0
0.53 0.006 0
0.54 0.006 0
0.55 0.006 0
0.56 0.006 0
0.57 0.006 0
0.58 0.006 0
0.59 0.006 0
0.6 0.006 0
0.61 0.006 0
0.62 0.006 0
0.63 0.006 0
0.64 0.006 0
0.65 0.006 0
0.66 0.006 0
0.67 0.006 0
0.68 0.006 0
0.69 0.006 0
0.7 0.006 0
0.71 0.006 0
0.72 0.006 0
0.73 0.006 0
0.74 0.006 0
0.75 0.006 0
0.76 0.006 0
0.77 0.006 0
0.78 0.006 0
0.79 0.006 0
0.8 0.006 0
0.81 0.006 0
0.82 0.006 0
0.83 0.006 0
0.84 0.006 0
0.85 0.006 0
0.86 0.006 0
0.87 0.006 0
0.88 0.006 0
0.89 0.006 0
0.9 0.006 0
0.91 0.006 0
0.92 0.006 0
0.93 0.006 0
0.94 0.006 0
0.95 0.006 0
0.96 0.006 0
0.97 0.006 0
0.98 0.006 0
0.99 0.006 0
0 0.007 0
0.01 0.007 0
0.02 0.007 0
0.03 0.007 0
0.04 0.007 0
0.05 0.007 0
0.06 0.007 0
0.07 0.007 0
0.08 0.007 0
0.09 0.007 0
0.1 0.007 0
0.11 0.007 0
0.12 0.007 0
0.13 0.007 0
0.14 0.007 0
0.15 0.007 0
0.16 0.007 0
0.17 0.007 0
0.18 0.007 0
0.19 0.007 0
0.2 0.007 0
0.21 0.007 0
0.22 0.007 0
0.23 0.007 0
0.24 0.007 0
0.25 0.007 0
0.26 0.007 0
0.27 0.007 0
0.28 0.007 0
0.29 0.007 0
0.3 0.007 0
0.31 0.007 0
0.32 0.007 0
0.33 0.007 0
0.34 0.007 0
0.35 0.007 0
0.36 0.007 0
0.37 0.007 0
0.38 0.007 0
0.39 0.007 0
0.4 0.007 0
0.41 0.007 0
0.42 0.007 0
0.43 0.007 0
0.44 0.007 0
0.45 0.007 0
0.46 0.007 0
0.47 0.007 0
0.48 0.007 0
0.49 0.007 0
0.5 0.007 0
0.51 0.007 0
0.52 0.007 0
0.53 0.007 0
0.54 0.007 0
0.55 0.007 0
0.56 0.007 0
0.57 0.007 0
0.58 0.007 0
0.59 0.007 0
0.6 0.007 0
0.61 0.007 0
0.62 0.007 0
0.63 0.007 0
0.64 0.007 0
0.65 0.007 0
0.66 0.007 0
0.67 0.007 0
0.68 0.007 0
0.69 0.007 0
0.7 0.007 0
0.71 0.007 0
0.72 0.007 0
0.73 0.007 0
0.74 0.007 0
0.75 0.007 0
0.76 0.007 0
0.77 0.007 0
0.78 0.007 0
0.79 0.007 0
0.8 0.007 0
0.81 0.007 0
0.82 0.007 0
0.83 0.007 0
0.84 0.007 0
0.85 0.007 0
0.86 0.007 0
0.87 0.007 0
0.88 0.007 0
0.89 0.007 0
0.9 0.007 0
0.91 0.007 0
0.92 0.007 0
0.93 0.007 0
0.94 0.007 0
0.95 0.007 0
0.96 0.007 0
0.97 0.007 0
0.98 0.007 0
[...]
POINT_DATA 10000

SCALARS vel_X float 1
LOOKUP_TABLE default
0
0
0
0
0
0
0
0
0
0
0
0
0
0
0
0
0
0
0
0
0
0
0
0
0
0
0
0
0
0
0
0
0
0
0
0
0
0
0
0
0
0
0
0
0
0
0
0
0
0
0
0
0
0
0
0
0
0
0
0
0
0
0
0
0
0
0
0
0
0
0
0
0
0
0
0
0
0
0
0
0
0
0
0
0
0
0
0
0
0
0
0
0
0
0
0
0
0
0
0
1
0.32035
0.214747
0.146431
0.16955
0.116065
0.152345
0.131892
0.122853
0.161564
0.12959
0.138994
0.180677
0.134677
0.160663
0.195305
0.177708
0.168169
0.228639
0.243197
0.238626
0.259035
0.32833
0.338298
0.286394
0.182641
0.1059
0.0443442
0.0237646
0.00366756
0.0062864
-0.0030004
0.00399462
-0.00371722
0.00378897
-0.00377169
0.00377558
-0.00377476
0.00377492
-0.00377489
0.00377489
-0.00377489
0.00377489
-0.00377489
0.00377489
-0.00377489
0.00377489
-0.00377489
0.00377489
-0.00377489
0.00377489
-0.00377489
0.00377489
-0.00377489
0.00377489
-0.00377489
0.00377489
-0.00377489
0.00377489
-0.00377489
0.00377489
-0.00377489
0.00377489
-0.00377489
0.00377489
-0.0037749
0.00377488
-0.00377495
0.00377463
-0.00377593
0.00377143
-0.00378433
0.00375495
-0.00380398
0.00375588
-0.00375474
0.00380839
-0.00385741
0.00354902
-0.00375509
0.00427183
-0.00380044
0.0027497
-0.00344804
0.00517812
-0.00545897
0.00322259
-0.00110963
0.000945604
-0.00325255
0.00590763
-0.00801661
0.0083735
-0.00793875
0.00620677
-0.00490159
0.00262547
-0.00469367
-0.18388
-0.18388
1
0.561917
0.400623
0.296528
0.317712
0.243174
0.292709
0.259576
0.255353
0.302944
0.262649
0.281802
0.335504
0.276179
0.321291
0.366077
0.345177
0.342605
0.431761
0.4504
0.450183
0.484313
0.572989
0.560042
0.456212
0.284931
0.162321
0.0675324
0.035708
0.00559296
0.00931782
-0.0044147
0.00589381
-0.00548209
0.00558839
-0.00556282
0.00556857
-0.00556736
0.0055676
-0.00556755
0.00556756
-0.00556756
0.00556756
-0.00556756
0.00556756
-0.00556756
0.00556756
-0.00556756
0.00556756
-0.00556756
0.00556756
-0.00556756
0.00556756
-0.00556756
0.00556756
-0.00556756
0.00556756
-0.00556756
0.00556756
-0.00556756
0.00556756
-0.00556756
0.00556756
-0.00556756
0.00556756
-0.00556756
0.00556754
-0.00556765
0.00556717
-0.00556911
0.00556239
-0.00558179
0.00553698
-0.00561377
0.0055326
-0.00554678
0.0056144
-0.00567914
0.00523373
-0.005591
0.00624995
-0.00551441
0.00414688
-0.00530705
0.00755012
-0.00766418
0.00450305
-0.00196304
0.00205585
-0.00535974
0.00869606
-0.0112721
0.0113247
-0.010624
0.0080609
-0.00646858
0.00323858
-0.00297565
0.260448
0.260448
1
0.73644
0.561521
0.439735
0.450088
0.373511
0.416621
0.388184
0.380158
0.431697
0.394382
0.415141
0.472525
0.419139
0.465277
0.517348
0.500592
0.504527
0.598725
0.624234
0.624649
0.658442
0.734145
0.696079
0.552783
0.345363
0.193137
0.0829065
0.041041
0.00859106
0.00936158
-0.00344364
0.00523421
-0.00473417
0.00486374
-0.00483246
0.00483952
-0.00483802
0.00483832
-0.00483827
0.00483828
-0.00483828
0.00483828
-0.00483828
0.00483828
-0.00483828
0.00483828
-0.00483828
0.00483828
-0.00483828
0.00483828
-0.00483828
0.00483828
-0.00483828
0.00483828
-0.00483828
0.00483828
-0.00483828
0.00483828
-0.00483828
0.00483828
-0.00483828
0.00483828
-0.00483828
0.00483828
-0.00483828
0.00483826
-0.00483838
0.0048378
-0.00484015
0.00483206
-0.00485529
0.00480183
-0.00489365
0.0047942
-0.00482135
0.00488247
-0.00497054
0.00446388
-0.004872
0.0055585
-0.0048032
0.00333596
-0.00454919
0.0068346
-0.0070622
0.00384581
-0.00127926
0.00115121
-0.00442034
0.0076609
-0.0104601
0.0105702
-0.0102416
0.00767464
-0.00643875
0.00299831
-0.00460318
-0.226099
-0.226099
1
0.858753
0.698526
0.570091
0.570175
0.498417
0.527163
0.512642
0.493011
0.549958
0.518324
0.534845
0.595425
0.553624
0.589277
0.649978
0.638489
0.642986
0.730171
0.763832
0.758006
0.780022
0.830392
0.775432
0.607677
0.384223
0.21201
0.0950729
0.0435849
0.0122688
0.0080599
-0.00131636
0.00336981
-0.0027927
0.00294318
-0.00290662
0.00291493
-0.00291316
0.00291352
-0.00291345
0.00291346
-0.00291346
0.00291346
-0.00291346
0.00291346
-0.00291346
0.00291346
-0.00291346
0.00291346
-0.00291346
0.00291346
-0.00291346
0.00291346
-0.00291346
0.00291346
-0.00291346
0.00291346
-0.00291346
0.00291346
-0.00291346
0.00291346
-0.00291346
0.00291346
-0.00291346
0.00291346
-0.00291346
0.00291343
-0.00291358
0.00291291
-0.0029156
0.00290643
-0.00293241
0.00287344
-0.00297333
0.0028661
-0.00289901
0.0029471
-0.00306983
0.00252902
-0.00291701
0.0036223
-0.0029908
0.00143724
-0.00244798
0.00468275
-0.00530328
0.00238426
0.000258315
-0.000987912
-0.00180379
0.00480691
-0.00794302
0.00844838
-0.0088312
0.00663954
-0.00595601
0.00263022
-0.00206046
0.242699
0.242699
1
0.94261
0.812036
0.685621
0.678069
0.613404
0.626287
0.627703
0.594117
0.656434
0.63032
0.640319
0.703663
0.673384
0.693972
0.762664
0.754736
0.754833
0.829533
0.869611
0.852795
0.858012
0.882625
0.820103
0.640192
0.412036
0.225776
0.105758
0.0453052
0.0160816
0.00645175
0.00108531
0.00122837
-0.000573003
0.000745196
-0.000703055
0.000712702
-0.00071063
0.000711049
-0.000710969
0.000710983
-0.000710981
0.000710981
-0.000710981
0.000710981
-0.000710981
0.000710981
-0.000710981
0.000710981
-0.000710981
0.000710981
-0.000710981
0.000710981
-0.000710981
0.000710981
-0.000710981
0.000710981
-0.000710981
0.000710981
-0.000710981
0.000710981
-0.000710981
0.000710981
-0.000710981
0.00071098
-0.000710986
0.000710953
-0.000711124
0.000710351
-0.000713387
0.000703213
-0.000731552
0.000668496
-0.000772776
0.000664262
-0.000696572
0.000731295
-0.000894504
0.000329667
-0.000659565
0.00139621
-0.000948039
-0.000709471
5.7576e-06
0.00218027
-0.00330661
0.000784199
0.00199195
-0.0034388
0.00124535
0.00151683
-0.00502437
0.00602138
-0.00716736
0.00546523
-0.00534273
0.00224473
-0.00371609
-0.233514
-0.233514
1
0.99901
0.903194
0.786081
0.772735
0.716843
0.714136
0.730461
0.684046
0.749367
0.728479
0.731634
0.79569
0.776063
0.780537
0.854456
0.848115
0.841457
0.900938
0.944847
0.915816
0.90467
0.907661
0.844758
0.660952
0.434188
0.237477
0.115763
0.0469608
0.0198422
0.00491643
0.00344137
-0.00085304
0.00159245
-0.00139658
0.0014449
-0.00143375
0.00143616
-0.00143567
0.00143577
-0.00143575
0.00143575
-0.00143575
0.00143575
-0.00143575
0.00143575
-0.00143575
0.00143575
-0.00143575
0.00143575
-0.00143575
0.00143575
-0.00143575
0.00143575
-0.00143575
0.00143575
-0.00143575
0.00143575
-0.00143575
0.00143575
-0.00143575
0.00143575
-0.00143575
0.00143575
-0.00143575
0.00143575
-0.00143579
0.00143559
-0.00143647
0.00143307
-0.00144426
0.00141369
-0.00148015
0.00137348
-0.00147951
0.00145184
-0.00142948
0.0012248
-0.00180649
0.00155258
-0.000780127
0.00102756
-0.00278294
0.00241164
-0.000289631
-0.00133481
-0.000758259
0.00363075
-0.00574905
0.00417983
-0.00170565
-0.00208433
0.00351614
-0.00534956
0.00416232
-0.00458143
0.00182403
-0.00126651
0.239521
0.239521
1
1.03609
0.974073
0.871778
0.853526
0.808212
0.790359
0.819771
0.762995
0.827874
0.812262
0.808915
0.87082
0.861517
0.850215
0.925827
0.919902
0.906202
0.949076
0.994913
0.955292
0.931072
0.917133
0.85827
0.675465
0.453315
0.24838
0.125466
0.0488024
0.0235215
0.00355583
0.00567265
-0.00278851
0.00361965
-0.00339764
0.00345285
-0.00344001
0.00344281
-0.00344224
0.00344235
-0.00344233
0.00344233
-0.00344233
0.00344233
-0.00344233
0.00344233
-0.00344233
0.00344233
-0.00344233
0.00344233
-0.00344233
0.00344233
-0.00344233
0.00344233
-0.00344233
0.00344233
-0.00344233
0.00344233
-0.00344233
0.00344233
-0.00344233
0.00344233
-0.00344233
0.00344233
-0.00344233
0.00344232
-0.00344237
0.00344214
-0.00344314
0.00343936
-0.00345159
0.00341884
-0.00348831
0.00338046
-0.00348184
0.00346079
-0.00345038
0.00320574
-0.00379606
0.00362645
-0.00282547
0.00286989
-0.00469215
0.00464972
-0.00263832
0.000576681
-0.00220855
0.00507642
-0.0077611
0.00683115
-0.00474005
0.00081353
0.000944216
-0.00335523
0.0026835
-0.00363317
0.00128329
-0.00294133
-0.235026
-0.235026
1
1.05967
1.02729
0.943281
0.920547
0.887326
0.854958
0.895375
0.831115
0.892087
0.881877
0.872535
0.929589
0.930611
0.904616
0.978607
0.972857
0.953018
0.979007
1.02583
0.978799
0.945446
0.918391
0.865607
0.686524
0.470594
0.259025
0.134988
0.0509446
0.0270861
0.00243096
0.00772736
-0.00452318
0.00545474
-0.00520379
0.0052667
-0.00525196
0.0052552
-0.00525453
0.00525466
-0.00525464
0.00525464
-0.00525464
0.00525464
-0.00525464
0.00525464
-0.00525464
0.00525464
-0.00525464
0.00525464
-0.00525464
0.00525464
-0.00525464
0.00525464
-0.00525464
0.00525464
-0.00525464
0.00525464
-0.00525464
0.00525464
-0.00525464
0.00525464
-0.00525464
0.00525464
-0.00525464
0.00525463
-0.00525469
0.00525443
-0.00525555
0.00525136
-0.00526468
0.00522975
-0.00530196
0.00519378
-0.00528923
0.00527538
-0.00527745
0.00499533
-0.00558493
0.00550353
-0.00468904
0.00453246
-0.00637775
0.00665181
-0.00481283
0.00239109
-0.00352793
0.00627179
-0.00940406
0.00912193
-0.00751942
0.00360756
-0.00163715
-0.00123509
0.0010579
-0.00252162
0.000658891
-0.000448657
0.238629
0.238629
1
1.07381
1.06558
1.00143
0.974509
0.95423
0.908466
0.957476
0.888795
0.942875
0.938032
0.923291
0.973424
0.984688
0.945801
1.01548
1.01034
0.985816
0.995684
1.0431
0.992274
0.953177
0.915792
0.869399
0.69555
0.486478
0.269663
0.144307
0.0534826
0.0304656
0.00162202
0.00952962
-0.00597934
0.00702072
-0.0067378
0.0068093
-0.00679242
0.00679616
-0.00679538
0.00679553
-0.0067955
0.00679551
-0.00679551
0.00679551
-0.00679551
0.00679551
-0.00679551
0.00679551
-0.00679551
0.00679551
-0.00679551
0.00679551
-0.00679551
0.00679551
-0.00679551
0.00679551
-0.00679551
0.00679551
-0.00679551
0.00679551
-0.00679551
0.00679551
-0.00679551
0.00679551
-0.00679551
0.0067955
-0.00679556
0.00679527
-0.00679652
0.0067919
-0.00680634
0.00676925
-0.00684393
0.00673614
-0.00682486
0.00681788
-0.00683369
0.00651688
-0.00709609
0.0071042
-0.00629491
0.00594148
-0.0077628
0.00833585
-0.00673074
0.00403006
-0.00464839
0.00715624
-0.0106139
0.0109675
-0.00994338
0.00618335
-0.00410557
0.000891019
-0.000623129
-0.0013171
-4.922e-05
-0.00207515
-0.235702
-0.235702
1
1.08138
1.09157
1.04733
1.0165
1.00925
0.951825
1.00662
0.936701
0.981573
0.981829
0.962389
1.00424
1.02537
0.976097
1.03942
1.0357
1.00813
1.00346
1.05115
0.999861
0.957472
0.911791
0.870994
0.703279
0.501099
0.280425
0.153345
0.0564997
0.0335794
0.00121268
0.0109981
-0.00707434
0.00823556
-0.00791739
0.00799846
-0.00797917
0.00798347
-0.00798257
0.00798275
-0.00798271
0.00798272
-0.00798272
0.00798272
-0.00798272
0.00798272
-0.00798272
0.00798272
-0.00798272
0.00798272
-0.00798272
0.00798272
-0.00798272
0.00798272
-0.00798272
0.00798272
-0.00798272
0.00798272
-0.00798272
0.00798272
-0.00798272
0.00798272
-0.00798272
0.00798272
-0.00798272
0.00798271
-0.00798278
0.00798244
-0.00798384
0.00797876
-0.00799436
0.00795514
-0.00803202
0.00792525
-0.00800674
0.00800577
-0.00803695
0.00768845
-0.00824788
0.0083446
-0.00756029
0.00701694
-0.00876932
0.00961756
-0.00829911
0.00540278
-0.0054978
0.0076745
-0.0113325
0.0122805
-0.0118987
0.00841158
-0.00632279
0.00288388
-0.00224713
-0.000105726
-0.000756389
0.000438639
0.238028
0.238028
1
1.08439
1.10763
1.08226
1.04784
1.05297
0.986218
1.04369
0.975679
1.00976
1.01466
0.991305
1.02413
1.05441
0.99782
1.05333
1.05195
1.02294
1.00581
1.05322
1.00419
0.960097
0.907702
0.871094
0.710106
0.514475
0.291362
0.162028
0.0600512
0.0363659
0.00126487
0.0120725
-0.00774668
0.00903832
-0.00868139
0.00877308
-0.00875109
0.00875603
-0.00875499
0.0087552
-0.00875516
0.00875516
-0.00875516
0.00875516
-0.00875516
0.00875516
-0.00875516
0.00875516
-0.00875516
0.00875516
-0.00875516
0.00875516
-0.00875516
0.00875516
-0.00875516
0.00875516
-0.00875516
0.00875516
-0.00875516
0.00875516
-0.00875516
0.00875516
-0.00875516
0.00875516
-0.00875517
0.00875515
-0.00875523
0.00875485
-0.00875641
0.00875084
-0.00876763
0.00872632
-0.00880511
0.00869998
-0.00877391
0.00877778
-0.00882602
0.00844909
-0.00898008
0.00916228
-0.00842239
0.00769969
-0.00934245
0.0104347
-0.00944393
0.00643697
-0.00602454
0.00779435
-0.0115264
0.0129976
-0.0132938
0.0101869
-0.00817527
0.00462217
-0.00370936
0.00102936
-0.00144806
-0.0012074
-0.236267
-0.236267
1
1.08425
1.11584
1.10762
1.06996
1.08624
1.01293
1.06985
1.00664
1.02912
1.0381
1.01164
1.03515
1.07357
1.01304
1.0598
1.06158
1.03257
1.00524
1.05151
1.0068
0.961957
0.904186
0.870106
0.716247
0.526609
0.302473
0.170309
0.0641529
0.0387983
0.00180396
0.0127284
-0.00797105
0.00940426
-0.00900482
0.00910829
-0.00908328
0.00908894
-0.00908773
0.00908798
-0.00908793
0.00908794
-0.00908794
0.00908794
-0.00908794
0.00908794
-0.00908794
0.00908794
-0.00908794
0.00908794
-0.00908794
0.00908794
-0.00908794
0.00908794
-0.00908794
0.00908794
-0.00908794
0.00908794
-0.00908794
0.00908794
-0.00908794
0.00908794
-0.00908794
0.00908794
-0.00908794
0.00908792
-0.00908801
0.00908759
-0.00908932
0.00908323
-0.00910124
0.00905789
-0.00913829
0.00903536
-0.00910158
0.00910892
-0.00917578
0.00877405
-0.00926877
0.00953119
-0.00885401
0.00796651
-0.00946418
0.0107623
-0.0101276
0.00709526
-0.00621015
0.00751738
-0.0112005
0.0130981
-0.0140791
0.011447
-0.00959365
0.00602216
-0.00492919
0.00201985
-0.00204499
0.00124257
0.2375
0.2375
1
1.082
1.11801
1.12482
1.08434
1.11003
1.03323
1.08649
1.03049
1.04131
1.05374
1.025
1.03921
1.08451
1.02343
1.06096
1.06654
1.03873
1.00343
1.04749
1.0085
0.963482
0.901536
0.868308
0.721815
0.537526
0.313711
0.178178
0.0687789
0.0408894
0.00281482
0.0129819
-0.00776237
0.00934887
-0.00890293
0.00901939
-0.00899101
0.00899749
-0.0089961
0.00899638
-0.00899633
0.00899634
-0.00899633
0.00899633
-0.00899633
0.00899633
-0.00899633
0.00899633
-0.00899633
0.00899633
-0.00899633
0.00899633
-0.00899633
0.00899633
-0.00899633
0.00899633
-0.00899633
0.00899633
-0.00899633
0.00899633
-0.00899633
0.00899633
-0.00899633
0.00899633
-0.00899634
0.00899632
-0.00899642
0.00899595
-0.00899786
0.00899124
-0.00901047
0.00896516
-0.00904685
0.00894666
-0.00900516
0.00901446
-0.00910127
0.00867873
-0.00913033
0.00946571
-0.00886788
0.00783385
-0.00915672
0.0106169
-0.0103541
0.00737938
-0.00607205
0.00688139
-0.0104021
0.0126094
-0.014252
0.0121756
-0.0105572
0.00704593
-0.00585974
0.00281933
-0.00255087
-0.000504337
-0.236749
-0.236749
1
1.07838
1.11565
1.1352
1.09247
1.12542
1.04831
1.09516
1.04806
1.04783
1.06311
1.03289
1.03801
1.0887
1.03025
1.05851
1.06823
1.04259
1.00141
1.0421
1.00969
0.964868
0.899835
0.865929
0.726865
0.547285
0.324992
0.185661
0.0738664
0.0426875
0.00424615
0.0128846
-0.00717153
0.00892355
-0.00842687
0.00855765
-0.00852553
0.00853292
-0.00853132
0.00853164
-0.00853158
0.00853159
-0.00853159
0.00853159
-0.00853159
0.00853159
-0.00853159
0.00853159
-0.00853159
0.00853159
-0.00853159
0.00853159
-0.00853159
0.00853159
-0.00853159
0.00853159
-0.00853159
0.00853159
-0.00853159
0.00853159
-0.00853159
0.00853159
-0.00853159
0.00853159
-0.0085316
0.00853157
-0.00853169
0.00853116
-0.00853327
0.00852608
-0.00854657
0.00849939
-0.00858202
0.00848508
-0.00853595
0.00854567
-0.0086534
0.00821443
-0.00861711
0.00901649
-0.00851251
0.00735346
-0.00847799
0.0100525
-0.0101653
0.00732609
-0.00565915
0.00595545
-0.00921527
0.0116029
-0.0138526
0.0123964
-0.0110887
0.00770123
-0.00649206
0.00340869
-0.0029141
0.00181761
0.237073
0.237073
1
1.07394
1.11005
1.14
1.09575
1.13352
1.05919
1.09744
1.06014
1.05
1.06756
1.03669
1.03299
1.08743
1.03435
1.0537
1.06763
1.04492
0.999707
1.03596
1.0105
0.966194
0.899052
0.863179
0.731414
0.555976
0.336211
0.192809
0.0793265
0.0442654
0.00602119
0.0125134
-0.00627463
0.00820493
-0.00765302
0.00779954
-0.00776327
0.00777168
-0.00776985
0.00777023
-0.00777015
0.00777017
-0.00777016
0.00777016
-0.00777016
0.00777016
-0.00777016
0.00777016
-0.00777016
0.00777016
-0.00777016
0.00777016
-0.00777016
0.00777016
-0.00777016
0.00777016
-0.00777016
0.00777016
-0.00777016
0.00777016
-0.00777016
0.00777016
-0.00777016
0.00777016
-0.00777017
0.00777014
-0.00777027
0.00776968
-0.007772
0.00776423
-0.00778596
0.00773702
-0.00782025
0.00772702
-0.00777051
0.00777906
-0.00790831
0.00745759
-0.00780664
0.00825969
-0.0078616
0.00660156
-0.00751068
0.00914995
-0.00962999
0.0069969
-0.00504161
0.00482874
-0.00774925
0.0101827
-0.0129537
0.012161
-0.011241
0.00803272
-0.00685238
0.00379587
-0.00317129
-6.73714e-05
-0.237116
-0.237116
1
1.06907
1.10229
1.1403
1.09548
1.13545
1.06669
1.09489
1.06744
1.04888
1.06824
1.03757
1.02537
1.08175
1.03622
1.04741
1.06534
1.04617
0.998575
1.02951
1.01096
0.96749
0.8991
0.860248
0.73547
0.5637
0.347255
0.199684
0.0850602
0.0457053
0.00805309
0.011955
-0.00515765
0.00727947
-0.00666762
0.00683139
-0.00679053
0.00680007
-0.00679798
0.00679841
-0.00679833
0.00679834
-0.00679834
0.00679834
-0.00679834
0.00679834
-0.00679834
0.00679834
-0.00679834
0.00679834
-0.00679834
0.00679834
-0.00679834
0.00679834
-0.00679834
0.00679834
-0.00679834
0.00679834
-0.00679834
0.00679834
-0.00679834
0.00679834
-0.00679834
0.00679834
-0.00679834
0.00679832
-0.00679846
0.00679781
-0.00680035
0.00679198
-0.00681495
0.00676436
-0.00684784
0.00675872
-0.00679519
0.00680099
-0.00695197
0.0064944
-0.0067863
0.0072816
-0.0069987
0.00566351
-0.00634677
0.00800112
-0.0088291
0.00646327
-0.00429625
0.00359487
-0.00612076
0.00846914
-0.0116459
0.0115324
-0.0110787
0.0081055
-0.00699172
0.00401111
-0.00330277
0.00212142
0.236767
0.236767
1
1.06404
1.09325
1.13699
1.09279
1.13232
1.07142
1.08894
1.07069
1.04528
1.06607
1.0365
1.01616
1.07253
1.03613
1.04018
1.06176
1.04659
0.998064
1.02302
1.01107
0.968753
0.89987
0.8573
0.739043
0.57056
0.358025
0.206339
0.0909753
0.0470816
0.010262
0.0112885
-0.00389931
0.00622638
-0.00554962
0.00573226
-0.00568633
0.00569713
-0.00569475
0.00569524
-0.00569515
0.00569516
-0.00569516
0.00569516
-0.00569516
0.00569516
-0.00569516
0.00569516
-0.00569516
0.00569516
-0.00569516
0.00569516
-0.00569516
0.00569516
-0.00569516
0.00569516
-0.00569516
0.00569516
-0.00569516
0.00569516
-0.00569516
0.00569516
-0.00569516
0.00569516
-0.00569517
0.00569513
-0.0056953
0.00569457
-0.00569734
0.00568836
-0.00571257
0.00566047
-0.00574383
0.00565919
-0.00568909
0.00569062
-0.00586314
0.00540374
-0.00563615
0.00616159
-0.00600026
0.00461673
-0.00507023
0.00669166
-0.00783828
0.00579008
-0.00349025
0.00233476
-0.00443522
0.0065803
-0.0100219
0.0105689
-0.0106576
0.00798374
-0.00696928
0.00409558
-0.00336877
0.000122203
-0.237364
-0.237364
1
1.05902
1.0837
1.13083
1.08865
1.1252
1.07381
1.08082
1.07061
1.03978
1.06172
1.03422
1.00621
1.06051
1.03419
1.03231
1.05711
1.04627
0.998137
1.01671
1.01081
0.969955
0.901259
0.854457
0.742163
0.57664
0.368446
0.212809
0.0970013
0.0484464
0.01259
0.0105712
-0.00255632
0.0051028
-0.00435592
0.00455914
-0.00450763
0.00451984
-0.00451712
0.00451769
-0.00451758
0.0045176
-0.0045176
0.0045176
-0.0045176
0.0045176
-0.0045176
0.0045176
-0.0045176
0.0045176
-0.0045176
0.0045176
-0.0045176
0.0045176
-0.0045176
0.0045176
-0.0045176
0.0045176
-0.0045176
0.0045176
-0.0045176
0.0045176
-0.0045176
0.0045176
-0.0045176
0.00451757
-0.00451775
0.00451695
-0.00451996
0.00451034
-0.00453577
0.00448232
-0.0045652
0.00448533
-0.00450923
0.00450503
-0.00469849
0.00424231
-0.00441412
0.0049572
-0.00492083
0.003516
-0.00374219
0.00528586
-0.00671319
0.00502128
-0.00266724
0.00110206
-0.00277018
0.00461506
-0.00816314
0.00931102
-0.0100069
0.00770956
-0.00683335
0.00408818
-0.00335883
0.00222177
0.236569
0.236569
1
1.05408
1.07427
1.12242
1.08378
1.11513
1.07412
1.07149
1.06794
1.03276
1.05567
1.03121
0.996221
1.04631
1.03044
1.02389
1.05151
1.04519
0.998713
1.01067
1.01023
0.971043
0.903187
0.851797
0.744888
0.581999
0.37848
0.219099
0.103098
0.0498205
0.0150094
0.00982944
-0.00115481
0.00393525
-0.00311281
0.00333843
-0.00328078
0.00329456
-0.00329147
0.00329212
-0.00329199
0.00329202
-0.00329201
0.00329201
-0.00329201
0.00329201
-0.00329201
0.00329201
-0.00329201
0.00329201
-0.00329201
0.00329201
-0.00329201
0.00329201
-0.00329201
0.00329201
-0.00329201
0.00329201
-0.00329201
0.00329201
-0.00329201
0.00329201
-0.00329201
0.00329201
-0.00329202
0.00329198
-0.00329218
0.0032913
-0.00329457
0.0032843
-0.00331092
0.00325627
-0.00333833
0.00326346
-0.00328201
0.00327073
-0.00348417
0.00303613
-0.00314745
0.00369563
-0.00378462
0.00238499
-0.0023922
0.0038178
-0.00548085
0.00417174