# vtk DataFile Version 2.0
FlowField
ASCII
DATASET STRUCTURED_GRID
DIMENSIONS 100 1 100
POINTS 10000 float
0 0 0
0.01 0 0
0.02 0 0
0.03 0 0
0.04 0 0
0.05 0 0
0.06 0 0
0.07 0 0
0.08 0 0
0.09 0 0
0.1 0 0
0.11 0 0
0.12 0 0
0.13 0 0
0.14 0 0
0.15 0 0
0.16 0 0
0.17 0 0
0.18 0 0
0.19 0 0
0.2 0 0
0.21 0 0
0.22 0 0
0.23 0 0
0.24 0 0
0.25 0 0
0.26 0 0
0.27 0 0
0.28 0 0
0.29 0 0
0.3 0 0
0.31 0 0
0.32 0 0
0.33 0 0
0.34 0 0
0.35 0 0
0.36 0 0
0.37 0 0
0.38 0 0
0.39 0 0
0.4 0 0
0.41 0 0
0.42 0 0
0.43 0 0
0.44 0 0
0.45 0 0
0.46 0 0
0.47 0 0
0.48 0 0
0.49 0 0
0.5 0 0
0.51 0 0
0.52 0 0
0.53 0 0
0.54 0 0
0.55 0 0
0.56 0 0
0.57 0 0
0.58 0 0
0.59 0 0
0.6 0 0
0.61 0 0
0.62 0 0
0.63 0 0
0.64 0 0
0.65 0 0
0.66 0 0
0.67 0 0
0.68 0 0
0.69 0 0
0.7 0 0
0.71 0 0
0.72 0 0
0.73 0 0
0.74 0 0
0.75 0 0
0.76 0 0
0.77 0 0
0.78 0 0
0.79 0 0
0.8 0 0
0.81 0 0
0.82 0 0
0.83 0 0
0.84 0 0
0.85 0 0
0.86 0 0
0.87 0 0
0.88 0 0
0.89 0 0
0.9 0 0
0.91 0 0
0.92 0 0
0.93 0 0
0.94 0 0
0.95 0 0
0.96 0 0
0.97 0 0
0.98 0 0
0.99 0 0
0 0.001 0
0.01 0.001 0
0.02 0.001 0
0.03 0.001 0
0.04 0.001 0
0.05 0.001 0
0.06 0.001 0
0.07 0.001 0
0.08 0.001 0
0.09 0.001 0
0.1 0.001 0
0.11 0.001 0
0.12 0.001 0
0.13 0.001 0
0.14 0.001 0
0.15 0.001 0
0.16 0.001 0
0.17 0.001 0
0.18 0.001 0
0.19 0.001 0
0.2 0.001 0
0.21 0.001 0
0.22 0.001 0
0.23 0.001 0
0.24 0.001 0
0.25 0.001 0
0.26 0.001 0
0.27 0.001 0
0.28 0.001 0
0.29 0.001 0
0.3 0.001 0
0.31 0.001 0
0.32 0.001 0
0.33 0.001 0
0.34 0.001 0
0.35 0.001 0
0.36 0.001 0
0.37 0.001 0
0.38 0.001 0
0.39 0.001 0
0.4 0.001 0
0.41 0.001 0
0.42 0.001 0
0.43 0.001 0
0.44 0.001 0
0.45 0.001 0
0.46 0.001 0
0.47 0.001 0
0.48 0.001 0
0.49 0.001 0
0.5 0.001 0
0.51 0.001 0
0.52 0.001 0
0.53 0.001 0
0.54 0.001 0
0.55 0.001 0
0.56 0.001 0
0.57 0.001 0
0.58 0.001 0
0.59 0.001 0
0.6 0.001 0
0.61 0.001 0
0.62 0.001 0
0.63 0.001 0
0.64 0.001 0
0.65 0.001 0
0.66 0.001 0
0.67 0.001 0
0.68 0.001 0
0.69 0.001 0
0.7 0.001 0
0.71 0.001 0
0.72 0.001 0
0.73 0.001 0
0.74 0.001 0
0.75 0.001 0
0.76 0.001 0
0.77 0.001 0
0.78 0.001 0
0.79 0.001 0
0.8 0.001 0
0.81 0.001 0
0.82 0.001 0
0.83 0.001 0
0.84 0.001 0
0.85 0.001 0
0.86 0.001 0
0.87 0.001 0
0.88 0.001 0
0.89 0.001 0
0.9 0.001 0
0.91 0.001 0
0.92 0.001 0
0.93 0.001 0
0.94 0.001 0
0.95 0.001 0
0.96 0.001 0
0.97 0.001 0
0.98 0.001 0
0.99 0.001 0
0 0.002 0
0.01 0.002 0
0.02 0.002 0
0.03 0.002 0
0.04 0.002 0
0.05 0.002 0
0.06 0.002 0
0.07 0.002 0
0.08 0.002 0
0.09 0.002 0
0.1 0.002 0
0.11 0.002 0
0.12 0.002 0
0.13 0.002 0
0.14 0.002 0
0.15 0.002 0
0.16 0.002 0
0.17 0.002 0
0.18 0.002 0
0.19 0.002 0
0.2 0.002 0
0.21 0.002 0
0.22 0.002 0
0.23 0.002 0
0.24 0.002 0
0.25 0.002 0
0.26 0.002 0
0.27 0.002 0
0.28 0.002 0
0.29 0.002 0
0.3 0.002 0
0.31 0.002 0
0.32 0.002 0
0.33 0.002 0
0.34 0.002 0
0.35 0.002 0
0.36 0.002 0
0.37 0.002 0
0.38 0.002 0
0.39 0.002 0
0.4 0.002 0
0.41 0.002 0
0.42 0.002 0
0.43 0.002 0
0.44 0.002 0
0.45 0.002 0
0.46 0.002 0
0.47 0.002 0
0.48 0.002 0
0.49 0.002 0
0.5 0.002 0
0.51 0.002 0
0.52 0.002 0
0.53 0.002 0
0.54 0.002 0
0.55 0.002 0
0.56 0.002 0
0.57 0.002 0
0.58 0.002 0
0.59 0.002 0
0.6 0.002 0
0.61 0.002 0
0.62 0.002 0
0.63 0.002 0
0.64 0.002 0
0.65 0.002 0
0.66 0.002 0
0.67 0.002 0
0.68 0.002 0
0.69 0.002 0
0.7 0.002 0
0.71 0.002 0
0.72 0.002 0
0.73 0.002 0
0.74 0.002 0
0.75 0.002 0
0.76 0.002 0
0.77 0.002 0
0.78 0.002 0
0.79 0.002 0
0.8 0.002 0
0.81 0.002 0
0.82 0.002 0
0.83 0.002 0
0.84 0.002 0
0.85 0.002 0
0.86 0.002 0
0.87 0.002 0
0.88 0.002 0
0.89 0.002 0
0.9 0.002 0
0.91 0.002 0
0.92 0.002 0
0.93 0.002 0
0.94 0.002 0
0.95 0.002 0
0.96 0.002 0
0.97 0.002 0
0.98 0.002 0
0.99 0.002 0
0 0.003 0
0.01 0.003 0
0.02 0.003 0
0.03 0.003 0
0.04 0.003 0
0.05 0.003 0
0.06 0.003 0
0.07 0.003 0
0.08 0.003 0
0.09 0.003 0
0.1 0.003 0
0.11 0.003 0
0.12 0.003 0
0.13 0.003 0
0.14 0.003 0
0.15 0.003 0
0.16 0.003 0
0.17 0.003 0
0.18 0.003 0
0.19 0.003 0
0.2 0.003 0
0.21 0.003 0
0.22 0.003 0
0.23 0.003 0
0.24 0.003 0
0.25 0.003 0
0.26 0.003 0
0.27 0.003 0
0.28 0.003 0
0.29 0.003 0
0.3 0.003 0
0.31 0.003 0
0.32 0.003 0
0.33 0.003 0
0.34 0.003 0
0.35 0.003 0
0.36 0.003 0
0.37 0.003 0
0.38 0.003 0
0.39 0.003 0
0.4 0.003 0
0.41 0.003 0
0.42 0.003 0
0.43 0.003 0
0.44 0.003 0
0.45 0.003 0
0.46 0.003 0
0.47 0.003 0
0.48 0.003 0
0.49 0.003 0
0.5 0.003 0
0.51 0.003 0
0.52 0.003 0
0.53 0.003 0
0.54 0.003 0
0.55 0.003 0
0.56 0.003 0
0.57 0.003 0
0.58 0.003 0
0.59 0.003 0
0.6 0.003 0
0.61 0.003 0
0.62 0.003 0
0.63 0.003 0
0.64 0.003 0
0.65 0.003 0
0.66 0.003 0
0.67 0.003 0
0.68 0.003 0
0.69 0.003 0
0.7 0.003 0
0.71 0.003 0
0.72 0.003 0
0.73 0.003 0
0.74 0.003 0
0.75 0.003 0
0.76 0.003 0
0.77 0.003 0
0.78 0.003 0
0.79 0.003 0
0.8 0.003 0
0.81 0.003 0
0.82 0.003 0
0.83 0.003 0
0.84 0.003 0
0.85 0.003 0
0.86 0.003 0
0.87 0.003 0
0.88 0.003 0
0.89 0.003 0
0.9 0.003 0
0.91 0.003 0
0.92 0.003 0
0.93 0.003 0
0.94 0.003 0
0.95 0.003 0
0.96 0.003 0
0.97 0.003 0
0.98 0.003 0
0.99 0.003 0
0 0.004 0
0.01 0.004 0
0.02 0.004 0
0.03 0.004 0
0.04 0.004 0
0.05 0.004 0
0.06 0.004 0
0.07 0.004 0
0.08 0.004 0
0.09 0.004 0
0.1 0.004 0
0.11 0.004 0
0.12 0.004 0
0.13 0.004 0
0.14 0.004 0
0.15 0.004 0
0.16 0.004 0
0.17 0.004 0
0.18 0.004 0
0.19 0.004 0
0.2 0.004 0
0.21 0.004 0
0.22 0.004 0
0.23 0.004 0
0.24 0.004 0
0.25 0.004 0
0.26 0.004 0
0.27 0.004 0
0.28 0.004 0
0.29 0.004 0
0.3 0.004 0
0.31 0.004 0
0.32 0.004 0
0.33 0.004 0
0.34 0.004 0
0.35 0.004 0
0.36 0.004 0
0.37 0.004 0
0.38 0.004 0
0.39 0.004 0
0.4 0.004 0
0.41 0.004 0
0.42 0.004 0
0.43 0.004 0
0.44 0.004 0
0.45 0.004 0
0.46 0.004 0
0.47 0.004 0
0.48 0.004 0
0.49 0.004 0
0.5 0.004 0
0.51 0.004 0
0.52 0.004 0
0.53 0.004 0
0.54 0.004 0
0.55 0.004 0
0.56 0.004 0
0.57 0.004 0
0.58 0.004 0
0.59 0.004 0
0.6 0.004 0
0.61 0.004 0
0.62 0.004 0
0.63 0.004 0
0.64 0.004 0
0.65 0.004 0
0.66 0.004 0
0.67 0.004 0
0.68 0.004 0
0.69 0.004 0
0.7 0.004 0
0.71 0.004 0
0.72 0.004 0
0.73 0.004 0
0.74 0.004 0
0.75 0.004 0
0.76 0.004 0
0.77 0.004 0
0.78 0.004 0
0.79 0.004 0
0.8 0.004 0
0.81 0.004 0
0.82 0.004 0
0.83 0.004 0
0.84 0.004 0
0.85 0.004 0
0.86 0.004 0
0.87 0.004 0
0.88 0.004 0
0.89 0.004 0
0.9 0.004 0
0.91 0.004 0
0.92 0.004 0
0.93 0.004 0
0.94 0.004 0
0.95 0.004 0
0.96 0.004 0
0.97 0.004 0
0.98 0.004 0
0.99 0.004 0
0 0.005 0
0.01 0.005 0
0.02 0.005 0
0.03 0.005 0
0.04 0.005 0
0.05 0.005 0
0.06 0.005 0
0.07 0.005 0
0.08 0.005 0
0.09 0.005 0
0.1 0.005 0
0.11 0.005 0
0.12 0.005 0
0.13 0.005 0
0.14 0.005 0
0.15 0.005 0
0.16 0.005 0
0.17 0.005 0
0.18 0.005 0
0.19 0.005 0
0.2 0.005 0
0.21 0.005 0
0.22 0.005 0
0.23 0.005 0
0.24 0.005 0
0.25 0.005 0
0.26 0.005 0
0.27 0.005 0
0.28 0.005 0
0.29 0.005 0
0.3 0.005 0
0.31 0.005 0
0.32 0.005 0
0.33 0.005 0
0.34 0.005 0
0.35 0.005 0
0.36 0.005 0
0.37 0.005 0
0.38 0.005 0
0.39 0.005 0
0.4 0.005 0
0.41 0.005 0
0.42 0.005 0
0.43 0.005 0
0.44 0.005 0
0.45 0.005 0
0.46 0.005 0
0.47 0.005 0
0.48 0.005 0
0.49 0.005 0
0.5 0.005 0
0.51 0.005 0
0.52 0.005 0
0.53 0.005 0
0.54 0.005 0
0.55 0.005 0
0.56 0.005 0
0.57 0.005 0
0.58 0.005 0
0.59 0.005 0
0.6 0.005 0
0.61 0.005 0
0.62 0.005 0
0.63 0.005 0
0.64 0.005 0
0.65 0.005 0
0.66 0.005 0
0.67 0.005 0
0.68 0.005 0
0.69 0.005 0
0.7 0.005 0
0.71 0.005 0
0.72 0.005 0
0.73 0.005 0
0.74 0.005 0
0.75 0.005 0
0.76 0.005 0
0.77 0.005 0
0.78 0.005 0
0.79 0.005 0
0.8 0.005 0
0.81 0.005 0
0.82 0.005 0
0.83 0.005 0
0.84 0.005 0
0.85 0.005 0
0.86 0.005 0
0.87 0.005 0
0.88 0.005 0
0.89 0.005 0
0.9 0.005 0
0.91 0.005 0
0.92 0.005 0
0.93 0.005 0
0.94 0.005 0
0.95 0.005 0
0.96 0.005 0
0.97 0.005 0
0.98 0.005 0
0.99 0.005 0
0 0.006 0
0.01 0.006 0
0.02 0.006 0
0.03 0.006 0
0.04 0.006 0
0.05 0.006 0
0.06 0.006 0
0.07 0.006 0
0.08 0.006 0
0.09 0.006 0
0.1 0.006 0
0.11 0.006 0
0.12 0.006 0
0.13 0.006 0
0.14 0.006 0
0.15 0.006 0
0.16 0.006 0
0.17 0.006 0
0.18 0.006 0
0.19 0.006 0
0.2 0.006 0
0.21 0.006 0
0.22 0.006 0
0.23 0.006 0
0.24 0.006 0
0.25 0.006 0
0.26 0.006 0
0.27 0.006 0
0.28 0.006 0
0.29 0.006 0
0.3 0.006 0
0.31 0.006 0
0.32 0.006 0
0.33 0.006 0
0.34 0.006 0
0.35 0.006 0
0.36 0.006 0
0.37 0.006 0
0.38 0.006 0
0.39 0.006 0
0.4 0.006 0
0.41 0.006 0
0.42 0.006 0
0.43 0.006 0
0.44 0.006 0
0.45 0.006 0
0.46 0.006 0
0.47 0.006 0
0.48 0.006 0
0.49 0.006 0
0.5 0.006 0
0.51 0.006 0
0.52 0.006 0
0.53 0.006 0
0.54 0.006 0
0.55 0.006 0
0.56 0.006 0
0.57 0.006 0
0.58 0.006 0
0.59 0.006 0
0.6 0.006 0
0.61 0.006 0
0.62 0.006 0
0.63 0.006 0
0.64 0.006 0
0.65 0.006 0
0.66 0.006 0
0.67 0.006 0
0.68 0.006 0
0.69 0.006 0
0.7 0.006 0
0.71 0.006 0
0.72 0.006 0
0.73 0.006 0
0.74 0.006 0
0.75 0.006 0
0.76 0.006 0
0.77 0.006 0
0.78 0.006 0
0.79 0.006 0
0.8 0.006 0
0.81 0.006 0
0.82 0.006 0
0.83 0.006 0
0.84 0.006 0
0.85 0.006 0
0.86 0.006 0
0.87 0.006 0
0.88 0.006 0
0.89 0.006 0
0.9 0.006 0
0.91 0.006 0
0.92 0.006 0
0.93 0.006 0
0.94 0.006 0
0.95 0.006 0
0.96 0.006 0
0.97 0.006 0
0.98 0.006 0
0.99 0.006 0
0 0.007 0
0.01 0.007 0
0.02 0.007 0
0.03 0.007 0
0.04 0.007 0
0.05 0.007 0
0.06 0.007 0
0.07 0.007 0
0.08 0.007 0
0.09 0.007 0
0.1 0.007 0
0.11 0.007 0
0.12 0.007 0
0.13 0.007 0
0.14 0.007 0
0.15 0.007 0
0.16 0.007 0
0.17 0.007 0
0.18 0.007 0
0.19 0.007 0
0.2 0.007 0
0.21 0.007 0
0.22 0.007 0
0.23 0.007 0
0.24 0.007 0
0.25 0.007 0
0.26 0.007 0
0.27 0.007 0
0.28 0.007 0
0.29 0.007 0
0.3 0.007 0
0.31 0.007 0
0.32 0.007 0
0.33 0.007 0
0.34 0.007 0
0.35 0.007 0
0.36 0.007 0
0.37 0.007 0
0.38 0.007 0
0.39 0.007 0
0.4 0.007 0
0.41 0.007 0
0.42 0.007 0
0.43 0.007 0
0.44 0.007 0
0.45 0.007 0
0.46 0.007 0
0.47 0.007 0
0.48 0.007 0
0.49 0.007 0
0.5 0.007 0
0.51 0.007 0
0.52 0.007 0
0.53 0.007 0
0.54 0.007 0
0.55 0.007 0
0.56 0.007 0
0.57 0.007 0
0.58 0.007 0
0.59 0.007 0
0.6 0.007 0
0.61 0.007 0
0.62 0.007 0
0.63 0.007 0
0.64 0.007 0
0.65 0.007 0
0.66 0.007 0
0.67 0.007 0
0.68 0.007 0
0.69 0.007 0
0.7 0.007 0
0.71 0.007 0
0.72 0.007 0
0.73 0.007 0
0.74 0.007 0
0.75 0.007 0
0.76 0.007 0
0.77 0.007 0
0.78 0.007 0
0.79 0.007 0
0.8 0.007 0
0.81 0.007 0
0.82 0.007 0
0.83 0.007 0
0.84 0.007 0
0.85 0.007 0
0.86 0.007 0
0.87 0.007 0
0.88 0.007 0
0.89 0.007 0
0.9 0.007 0
0.91 0.007 0
0.92 0.007 0
0.93 0.007 0
0.94 0.007 0
0.95 0.007 0
0.96 0.007 0
0.97 0.007 0
0.98 0.007 0
[...]
POINT_DATA 10000

SCALARS vel_X float 1
LOOKUP_TABLE default
0
0
0
0
0
0
0
0
0
0
0
0
0
0
0
0
0
0
0
0
0
0
0
0
0
0
0
0
0
0
0
0
0
0
0
0
0
0
0
0
0
0
0
0
0
0
0
0
0
0
0
0
0
0
0
0
0
0
0
0
0
0
0
0
0
0
0
0
0
0
0
0
0
0
0
0
0
0
0
0
0
0
0
0
0
0
0
0
0
0
0
0
0
0
0
0
0
0
0
0
1
0.200412
0.015348
0.00192641
-0.00105402
0.0010879
-0.00108679
0.00108682
-0.00108682
0.00108682
-0.00108682
0.00108682
-0.00108682
0.00108682
-0.00108682
0.00108682
-0.00108682
0.00108682
-0.00108682
0.00108682
-0.00108682
0.00108682
-0.00108682
0.00108682
-0.00108682
0.00108682
-0.00108682
0.00108682
-0.00108682
0.00108682
-0.00108682
0.00108682
-0.00108682
0.00108682
-0.00108682
0.00108682
-0.00108682
0.00108682
-0.00108682
0.00108682
-0.00108682
0.00108682
-0.00108682
0.00108682
-0.00108682
0.00108682
-0.00108682
0.00108682
-0.00108682
0.00108682
-0.00108682
0.00108682
-0.00108682
0.00108682
-0.00108682
0.00108682
-0.00108682
0.00108682
-0.00108682
0.00108682
-0.00108682
0.00108682
-0.00108682
0.00108682
-0.00108682
0.00108682
-0.00108682
0.00108682
-0.00108682
0.00108682
-0.00108682
0.00108682
-0.00108682
0.00108682
-0.00108682
0.00108682
-0.00108682
0.00108682
-0.00108682
0.00108682
-0.00108682
0.00108682
-0.00108682
0.00108682
-0.00108682
0.00108682
-0.00108682
0.00108682
-0.00108682
0.00108682
-0.00108682
0.00108682
-0.00108682
0.00108682
-0.00108682
0.00108645
-0.00111703
0.000420247
-0.0053597
-0.0053597
1
0.262507
0.0290669
-0.00462107
0.00590447
-0.00585304
0.00585477
-0.00585472
0.00585472
-0.00585472
0.00585472
-0.00585472
0.00585472
-0.00585472
0.00585472
-0.00585472
0.00585472
-0.00585472
0.00585472
-0.00585472
0.00585472
-0.00585472
0.00585472
-0.00585472
0.00585472
-0.00585472
0.00585472
-0.00585472
0.00585472
-0.00585472
0.00585472
-0.00585472
0.00585472
-0.00585472
0.00585472
-0.00585472
0.00585472
-0.00585472
0.00585472
-0.00585472
0.00585472
-0.00585472
0.00585472
-0.00585472
0.00585472
-0.00585472
0.00585472
-0.00585472
0.00585472
-0.00585472
0.00585472
-0.00585472
0.00585472
-0.00585472
0.00585472
-0.00585472
0.00585472
-0.00585472
0.00585472
-0.00585472
0.00585472
-0.00585472
0.00585472
-0.00585472
0.00585472
-0.00585472
0.00585472
-0.00585472
0.00585472
-0.00585472
0.00585472
-0.00585472
0.00585472
-0.00585472
0.00585472
-0.00585472
0.00585472
-0.00585472
0.00585472
-0.00585472
0.00585472
-0.00585472
0.00585472
-0.00585472
0.00585472
-0.00585472
0.00585472
-0.00585472
0.00585472
-0.00585472
0.00585472
-0.00585472
0.00585472
-0.00585472
0.00585471
-0.0058553
0.0058125
-0.00662951
0.0121712
0.0121712
1
0.299499
0.0278985
0.00206391
-0.000376736
0.00044814
-0.000445637
0.000445713
-0.000445711
0.000445711
-0.000445711
0.000445711
-0.000445711
0.000445711
-0.000445711
0.000445711
-0.000445711
0.000445711
-0.000445711
0.000445711
-0.000445711
0.000445711
-0.000445711
0.000445711
-0.000445711
0.000445711
-0.000445711
0.000445711
-0.000445711
0.000445711
-0.000445711
0.000445711
-0.000445711
0.000445711
-0.000445711
0.000445711
-0.000445711
0.000445711
-0.000445711
0.000445711
-0.000445711
0.000445711
-0.000445711
0.000445711
-0.000445711
0.000445711
-0.000445711
0.000445711
-0.000445711
0.000445711
-0.000445711
0.000445711
-0.000445711
0.000445711
-0.000445711
0.000445711
-0.000445711
0.000445711
-0.000445711
0.000445711
-0.000445711
0.000445711
-0.000445711
0.000445711
-0.000445711
0.000445711
-0.000445711
0.000445711
-0.000445711
0.000445711
-0.000445711
0.000445711
-0.000445711
0.000445711
-0.000445711
0.000445711
-0.000445711
0.000445711
-0.000445711
0.000445711
-0.000445711
0.000445711
-0.000445711
0.000445711
-0.000445711
0.000445711
-0.000445711
0.000445711
-0.000445711
0.000445711
-0.000445711
0.000445711
-0.000445711
0.000445711
-0.000445716
0.00044487
-0.000498755
-0.000445463
-0.00683734
-0.00683734
1
0.31454
0.0380407
-0.00288534
0.00501207
-0.00491666
0.00492017
-0.00492005
0.00492006
-0.00492006
0.00492006
-0.00492006
0.00492006
-0.00492006
0.00492006
-0.00492006
0.00492006
-0.00492006
0.00492006
-0.00492006
0.00492006
-0.00492006
0.00492006
-0.00492006
0.00492006
-0.00492006
0.00492006
-0.00492006
0.00492006
-0.00492006
0.00492006
-0.00492006
0.00492006
-0.00492006
0.00492006
-0.00492006
0.00492006
-0.00492006
0.00492006
-0.00492006
0.00492006
-0.00492006
0.00492006
-0.00492006
0.00492006
-0.00492006
0.00492006
-0.00492006
0.00492006
-0.00492006
0.00492006
-0.00492006
0.00492006
-0.00492006
0.00492006
-0.00492006
0.00492006
-0.00492006
0.00492006
-0.00492006
0.00492006
-0.00492006
0.00492006
-0.00492006
0.00492006
-0.00492006
0.00492006
-0.00492006
0.00492006
-0.00492006
0.00492006
-0.00492006
0.00492006
-0.00492006
0.00492006
-0.00492006
0.00492006
-0.00492006
0.00492006
-0.00492006
0.00492006
-0.00492006
0.00492006
-0.00492006
0.00492006
-0.00492006
0.00492006
-0.00492006
0.00492006
-0.00492006
0.00492006
-0.00492006
0.00492006
-0.00492006
0.00492005
-0.00492119
0.00485876
-0.00572029
0.0109536
0.0109536
1
0.337912
0.0355826
0.00452638
-0.00193107
0.00205442
-0.00204966
0.00204982
-0.00204982
0.00204982
-0.00204982
0.00204982
-0.00204982
0.00204982
-0.00204982
0.00204982
-0.00204982
0.00204982
-0.00204982
0.00204982
-0.00204982
0.00204982
-0.00204982
0.00204982
-0.00204982
0.00204982
-0.00204982
0.00204982
-0.00204982
0.00204982
-0.00204982
0.00204982
-0.00204982
0.00204982
-0.00204982
0.00204982
-0.00204982
0.00204982
-0.00204982
0.00204982
-0.00204982
0.00204982
-0.00204982
0.00204982
-0.00204982
0.00204982
-0.00204982
0.00204982
-0.00204982
0.00204982
-0.00204982
0.00204982
-0.00204982
0.00204982
-0.00204982
0.00204982
-0.00204982
0.00204982
-0.00204982
0.00204982
-0.00204982
0.00204982
-0.00204982
0.00204982
-0.00204982
0.00204982
-0.00204982
0.00204982
-0.00204982
0.00204982
-0.00204982
0.00204982
-0.00204982
0.00204982
-0.00204982
0.00204982
-0.00204982
0.00204982
-0.00204982
0.00204982
-0.00204982
0.00204982
-0.00204982
0.00204982
-0.00204982
0.00204982
-0.00204982
0.00204982
-0.00204982
0.00204982
-0.00204982
0.00204982
-0.00204982
0.00204982
-0.00204982
0.00204839
-0.00211874
0.00121319
-0.00778477
-0.00778477
1
0.345845
0.0454267
-0.000649854
0.0037326
-0.00357766
0.00358394
-0.00358372
0.00358373
-0.00358373
0.00358373
-0.00358373
0.00358373
-0.00358373
0.00358373
-0.00358373
0.00358373
-0.00358373
0.00358373
-0.00358373
0.00358373
-0.00358373
0.00358373
-0.00358373
0.00358373
-0.00358373
0.00358373
-0.00358373
0.00358373
-0.00358373
0.00358373
-0.00358373
0.00358373
-0.00358373
0.00358373
-0.00358373
0.00358373
-0.00358373
0.00358373
-0.00358373
0.00358373
-0.00358373
0.00358373
-0.00358373
0.00358373
-0.00358373
0.00358373
-0.00358373
0.00358373
-0.00358373
0.00358373
-0.00358373
0.00358373
-0.00358373
0.00358373
-0.00358373
0.00358373
-0.00358373
0.00358373
-0.00358373
0.00358373
-0.00358373
0.00358373
-0.00358373
0.00358373
-0.00358373
0.00358373
-0.00358373
0.00358373
-0.00358373
0.00358373
-0.00358373
0.00358373
-0.00358373
0.00358373
-0.00358373
0.00358373
-0.00358373
0.00358373
-0.00358373
0.00358373
-0.00358373
0.00358373
-0.00358373
0.00358373
-0.00358373
0.00358373
-0.00358373
0.00358373
-0.00358373
0.00358373
-0.00358373
0.00358373
-0.00358373
0.00358371
-0.00358545
0.00351016
-0.00428685
0.0102066
0.0102066
1
0.36368
0.0427335
0.00639352
-0.00281387
0.00300359
-0.00299553
0.00299582
-0.00299581
0.00299581
-0.00299581
0.00299581
-0.00299581
0.00299581
-0.00299581
0.00299581
-0.00299581
0.00299581
-0.00299581
0.00299581
-0.00299581
0.00299581
-0.00299581
0.00299581
-0.00299581
0.00299581
-0.00299581
0.00299581
-0.00299581
0.00299581
-0.00299581
0.00299581
-0.00299581
0.00299581
-0.00299581
0.00299581
-0.00299581
0.00299581
-0.00299581
0.00299581
-0.00299581
0.00299581
-0.00299581
0.00299581
-0.00299581
0.00299581
-0.00299581
0.00299581
-0.00299581
0.00299581
-0.00299581
0.00299581
-0.00299581
0.00299581
-0.00299581
0.00299581
-0.00299581
0.00299581
-0.00299581
0.00299581
-0.00299581
0.00299581
-0.00299581
0.00299581
-0.00299581
0.00299581
-0.00299581
0.00299581
-0.00299581
0.00299581
-0.00299581
0.00299581
-0.00299581
0.00299581
-0.00299581
0.00299581
-0.00299581
0.00299581
-0.00299581
0.00299581
-0.00299581
0.00299581
-0.00299581
0.00299581
-0.00299581
0.00299581
-0.00299581
0.00299581
-0.00299581
0.00299581
-0.00299581
0.00299581
-0.00299581
0.00299581
-0.00299583
0.0029938
-0.00307334
0.00228101
-0.00836578
-0.00836578
1
0.36706
0.0522144
0.000929509
0.00314831
-0.00292109
0.0029312
-0.00293082
0.00293083
-0.00293083
0.00293083
-0.00293083
0.00293083
-0.00293083
0.00293083
-0.00293083
0.00293083
-0.00293083
0.00293083
-0.00293083
0.00293083
-0.00293083
0.00293083
-0.00293083
0.00293083
-0.00293083
0.00293083
-0.00293083
0.00293083
-0.00293083
0.00293083
-0.00293083
0.00293083
-0.00293083
0.00293083
-0.00293083
0.00293083
-0.00293083
0.00293083
-0.00293083
0.00293083
-0.00293083
0.00293083
-0.00293083
0.00293083
-0.00293083
0.00293083
-0.00293083
0.00293083
-0.00293083
0.00293083
-0.00293083
0.00293083
-0.00293083
0.00293083
-0.00293083
0.00293083
-0.00293083
0.00293083
-0.00293083
0.00293083
-0.00293083
0.00293083
-0.00293083
0.00293083
-0.00293083
0.00293083
-0.00293083
0.00293083
-0.00293083
0.00293083
-0.00293083
0.00293083
-0.00293083
0.00293083
-0.00293083
0.00293083
-0.00293083
0.00293083
-0.00293083
0.00293083
-0.00293083
0.00293083
-0.00293083
0.00293083
-0.00293083
0.00293083
-0.00293083
0.00293083
-0.00293083
0.00293083
-0.00293083
0.00293083
-0.00293083
0.00293082
-0.00293311
0.00285214
-0.00350046
0.00975617
0.00975617
1
0.381149
0.0490794
0.00774591
-0.00317558
0.00344249
-0.00343006
0.00343055
-0.00343053
0.00343053
-0.00343053
0.00343053
-0.00343053
0.00343053
-0.00343053
0.00343053
-0.00343053
0.00343053
-0.00343053
0.00343053
-0.00343053
0.00343053
-0.00343053
0.00343053
-0.00343053
0.00343053
-0.00343053
0.00343053
-0.00343053
0.00343053
-0.00343053
0.00343053
-0.00343053
0.00343053
-0.00343053
0.00343053
-0.00343053
0.00343053
-0.00343053
0.00343053
-0.00343053
0.00343053
-0.00343053
0.00343053
-0.00343053
0.00343053
-0.00343053
0.00343053
-0.00343053
0.00343053
-0.00343053
0.00343053
-0.00343053
0.00343053
-0.00343053
0.00343053
-0.00343053
0.00343053
-0.00343053
0.00343053
-0.00343053
0.00343053
-0.00343053
0.00343053
-0.00343053
0.00343053
-0.00343053
0.00343053
-0.00343053
0.00343053
-0.00343053
0.00343053
-0.00343053
0.00343053
-0.00343053
0.00343053
-0.00343053
0.00343053
-0.00343053
0.00343053
-0.00343053
0.00343053
-0.00343053
0.00343053
-0.00343053
0.00343053
-0.00343053
0.00343053
-0.00343053
0.00343053
-0.00343053
0.00343053
-0.00343053
0.00343053
-0.00343056
0.00342803
-0.00351007
0.00285212
-0.00871371
-0.00871371
1
0.381447
0.0580764
0.00210081
0.00295065
-0.00264241
0.00265738
-0.00265677
0.00265679
-0.00265679
0.00265679
-0.00265679
0.00265679
-0.00265679
0.00265679
-0.00265679
0.00265679
-0.00265679
0.00265679
-0.00265679
0.00265679
-0.00265679
0.00265679
-0.00265679
0.00265679
-0.00265679
0.00265679
-0.00265679
0.00265679
-0.00265679
0.00265679
-0.00265679
0.00265679
-0.00265679
0.00265679
-0.00265679
0.00265679
-0.00265679
0.00265679
-0.00265679
0.00265679
-0.00265679
0.00265679
-0.00265679
0.00265679
-0.00265679
0.00265679
-0.00265679
0.00265679
-0.00265679
0.00265679
-0.00265679
0.00265679
-0.00265679
0.00265679
-0.00265679
0.00265679
-0.00265679
0.00265679
-0.00265679
0.00265679
-0.00265679
0.00265679
-0.00265679
0.00265679
-0.00265679
0.00265679
-0.00265679
0.00265679
-0.00265679
0.00265679
-0.00265679
0.00265679
-0.00265679
0.00265679
-0.00265679
0.00265679
-0.00265679
0.00265679
-0.00265679
0.00265679
-0.00265679
0.00265679
-0.00265679
0.00265679
-0.00265679
0.00265679
-0.00265679
0.00265679
-0.00265679
0.00265679
-0.00265679
0.00265679
-0.00265679
0.00265677
-0.00265949
0.00257877
-0.00309325
0.0094885
0.0094885
1
0.393
0.0544422
0.00877078
-0.00325411
0.0036048
-0.00358707
0.00358782
-0.00358779
0.00358779
-0.00358779
0.00358779
-0.00358779
0.00358779
-0.00358779
0.00358779
-0.00358779
0.00358779
-0.00358779
0.00358779
-0.00358779
0.00358779
-0.00358779
0.00358779
-0.00358779
0.00358779
-0.00358779
0.00358779
-0.00358779
0.00358779
-0.00358779
0.00358779
-0.00358779
0.00358779
-0.00358779
0.00358779
-0.00358779
0.00358779
-0.00358779
0.00358779
-0.00358779
0.00358779
-0.00358779
0.00358779
-0.00358779
0.00358779
-0.00358779
0.00358779
-0.00358779
0.00358779
-0.00358779
0.00358779
-0.00358779
0.00358779
-0.00358779
0.00358779
-0.00358779
0.00358779
-0.00358779
0.00358779
-0.00358779
0.00358779
-0.00358779
0.00358779
-0.00358779
0.00358779
-0.00358779
0.00358779
-0.00358779
0.00358779
-0.00358779
0.00358779
-0.00358779
0.00358779
-0.00358779
0.00358779
-0.00358779
0.00358779
-0.00358779
0.00358779
-0.00358779
0.00358779
-0.00358779
0.00358779
-0.00358779
0.00358779
-0.00358779
0.00358779
-0.00358779
0.00358779
-0.00358779
0.00358779
-0.00358779
0.00358779
-0.00358782
0.00358494
-0.00366441
0.00313556
-0.0089187
-0.0089187
1
0.391212
0.0629432
0.00300553
0.00295696
-0.0025632
0.00258389
-0.00258298
0.00258301
-0.00258301
0.00258301
-0.00258301
0.00258301
-0.00258301
0.00258301
-0.00258301
0.00258301
-0.00258301
0.00258301
-0.00258301
0.00258301
-0.00258301
0.00258301
-0.00258301
0.00258301
-0.00258301
0.00258301
-0.00258301
0.00258301
-0.00258301
0.00258301
-0.00258301
0.00258301
-0.00258301
0.00258301
-0.00258301
0.00258301
-0.00258301
0.00258301
-0.00258301
0.00258301
-0.00258301
0.00258301
-0.00258301
0.00258301
-0.00258301
0.00258301
-0.00258301
0.00258301
-0.00258301
0.00258301
-0.00258301
0.00258301
-0.00258301
0.00258301
-0.00258301
0.00258301
-0.00258301
0.00258301
-0.00258301
0.00258301
-0.00258301
0.00258301
-0.00258301
0.00258301
-0.00258301
0.00258301
-0.00258301
0.00258301
-0.00258301
0.00258301
-0.00258301
0.00258301
-0.00258301
0.00258301
-0.00258301
0.00258301
-0.00258301
0.00258301
-0.00258301
0.00258301
-0.00258301
0.00258301
-0.00258301
0.00258301
-0.00258301
0.00258301
-0.00258301
0.00258301
-0.00258301
0.00258301
-0.00258301
0.00258301
-0.00258301
0.00258298
-0.00258597
0.00250971
-0.00290264
0.00933233
0.00933233
1
0.401048
0.0588292
0.00957535
-0.00318898
0.00362596
-0.00360216
0.00360324
-0.0036032
0.0036032
-0.0036032
0.0036032
-0.0036032
0.0036032
-0.0036032
0.0036032
-0.0036032
0.0036032
-0.0036032
0.0036032
-0.0036032
0.0036032
-0.0036032
0.0036032
-0.0036032
0.0036032
-0.0036032
0.0036032
-0.0036032
0.0036032
-0.0036032
0.0036032
-0.0036032
0.0036032
-0.0036032
0.0036032
-0.0036032
0.0036032
-0.0036032
0.0036032
-0.0036032
0.0036032
-0.0036032
0.0036032
-0.0036032
0.0036032
-0.0036032
0.0036032
-0.0036032
0.0036032
-0.0036032
0.0036032
-0.0036032
0.0036032
-0.0036032
0.0036032
-0.0036032
0.0036032
-0.0036032
0.0036032
-0.0036032
0.0036032
-0.0036032
0.0036032
-0.0036032
0.0036032
-0.0036032
0.0036032
-0.0036032
0.0036032
-0.0036032
0.0036032
-0.0036032
0.0036032
-0.0036032
0.0036032
-0.0036032
0.0036032
-0.0036032
0.0036032
-0.0036032
0.0036032
-0.0036032
0.0036032
-0.0036032
0.0036032
-0.0036032
0.0036032
-0.0036032
0.0036032
-0.0036032
0.0036032
-0.0036032
0.0036032
-0.00360323
0.00360016
-0.00367371
0.00325733
-0.00903698
-0.00903698
1
0.397846
0.0668752
0.00372528
0.00306132
-0.00258137
0.00260842
-0.00260715
0.0026072
-0.0026072
0.0026072
-0.0026072
0.0026072
-0.0026072
0.0026072
-0.0026072
0.0026072
-0.0026072
0.0026072
-0.0026072
0.0026072
-0.0026072
0.0026072
-0.0026072
0.0026072
-0.0026072
0.0026072
-0.0026072
0.0026072
-0.0026072
0.0026072
-0.0026072
0.0026072
-0.0026072
0.0026072
-0.0026072
0.0026072
-0.0026072
0.0026072
-0.0026072
0.0026072
-0.0026072
0.0026072
-0.0026072
0.0026072
-0.0026072
0.0026072
-0.0026072
0.0026072
-0.0026072
0.0026072
-0.0026072
0.0026072
-0.0026072
0.0026072
-0.0026072
0.0026072
-0.0026072
0.0026072
-0.0026072
0.0026072
-0.0026072
0.0026072
-0.0026072
0.0026072
-0.0026072
0.0026072
-0.0026072
0.0026072
-0.0026072
0.0026072
-0.0026072
0.0026072
-0.0026072
0.0026072
-0.0026072
0.0026072
-0.0026072
0.0026072
-0.0026072
0.0026072
-0.0026072
0.0026072
-0.0026072
0.0026072
-0.0026072
0.0026072
-0.0026072
0.0026072
-0.0026072
0.0026072
-0.0026072
0.0026072
-0.0026072
0.00260716
-0.00261028
0.00254102
-0.00283137
0.00924338
0.00924338
1
0.406517
0.062336
0.0102222
-0.00306002
0.00358231
-0.0035519
0.00355338
-0.00355332
0.00355332
-0.00355332
0.00355332
-0.00355332
0.00355332
-0.00355332
0.00355332
-0.00355332
0.00355332
-0.00355332
0.00355332
-0.00355332
0.00355332
-0.00355332
0.00355332
-0.00355332
0.00355332
-0.00355332
0.00355332
-0.00355332
0.00355332
-0.00355332
0.00355332
-0.00355332
0.00355332
-0.00355332
0.00355332
-0.00355332
0.00355332
-0.00355332
0.00355332
-0.00355332
0.00355332
-0.00355332
0.00355332
-0.00355332
0.00355332
-0.00355332
0.00355332
-0.00355332
0.00355332
-0.00355332
0.00355332
-0.00355332
0.00355332
-0.00355332
0.00355332
-0.00355332
0.00355332
-0.00355332
0.00355332
-0.00355332
0.00355332
-0.00355332
0.00355332
-0.00355332
0.00355332
-0.00355332
0.00355332
-0.00355332
0.00355332
-0.00355332
0.00355332
-0.00355332
0.00355332
-0.00355332
0.00355332
-0.00355332
0.00355332
-0.00355332
0.00355332
-0.00355332
0.00355332
-0.00355332
0.00355332
-0.00355332
0.00355332
-0.00355332
0.00355332
-0.00355332
0.00355332
-0.00355332
0.00355332
-0.00355332
0.00355332
-0.00355336
0.00355024
-0.00361601
0.00329218
-0.00910333
-0.00910333
1
0.402358
0.0699893
0.00430857
0.00320408
-0.00264039
0.00267423
-0.00267253
0.0026726
-0.0026726
0.0026726
-0.0026726
0.0026726
-0.0026726
0.0026726
-0.0026726
0.0026726
-0.0026726
0.0026726
-0.0026726
0.0026726
-0.0026726
0.0026726
-0.0026726
0.0026726
-0.0026726
0.0026726
-0.0026726
0.0026726
-0.0026726
0.0026726
-0.0026726
0.0026726
-0.0026726
0.0026726
-0.0026726
0.0026726
-0.0026726
0.0026726
-0.0026726
0.0026726
-0.0026726
0.0026726
-0.0026726
0.0026726
-0.0026726
0.0026726
-0.0026726
0.0026726
-0.0026726
0.0026726
-0.0026726
0.0026726
-0.0026726
0.0026726
-0.0026726
0.0026726
-0.0026726
0.0026726
-0.0026726
0.0026726
-0.0026726
0.0026726
-0.0026726
0.0026726
-0.0026726
0.0026726
-0.0026726
0.0026726
-0.0026726
0.0026726
-0.0026726
0.0026726
-0.0026726
0.0026726
-0.0026726
0.0026726
-0.0026726
0.0026726
-0.0026726
0.0026726
-0.0026726
0.0026726
-0.0026726
0.0026726
-0.0026726
0.0026726
-0.0026726
0.0026726
-0.0026726
0.0026726
-0.0026726
0.0026726
-0.0026726
0.00267256
-0.00267566
0.00261467
-0.0028223
0.00919437
0.00919437
1
0.410239
0.0650909
0.0107494
-0.00291131
0.00351519
-0.00347788
0.00347982
-0.00347973
0.00347973
-0.00347973
0.00347973
-0.00347973
0.00347973
-0.00347973
0.00347973
-0.00347973
0.00347973
-0.00347973
0.00347973
-0.00347973
0.00347973
-0.00347973
0.00347973
-0.00347973
0.00347973
-0.00347973
0.00347973
-0.00347973
0.00347973
-0.00347973
0.00347973
-0.00347973
0.00347973
-0.00347973
0.00347973
-0.00347973
0.00347973
-0.00347973
0.00347973
-0.00347973
0.00347973
-0.00347973
0.00347973
-0.00347973
0.00347973
-0.00347973
0.00347973
-0.00347973
0.00347973
-0.00347973
0.00347973
-0.00347973
0.00347973
-0.00347973
0.00347973
-0.00347973
0.00347973
-0.00347973
0.00347973
-0.00347973
0.00347973
-0.00347973
0.00347973
-0.00347973
0.00347973
-0.00347973
0.00347973
-0.00347973
0.00347973
-0.00347973
0.00347973
-0.00347973
0.00347973
-0.00347973
0.00347973
-0.00347973
0.00347973
-0.00347973
0.00347973
-0.00347973
0.00347973
-0.00347973
0.00347973
-0.00347973
0.00347973
-0.00347973
0.00347973
-0.00347973
0.00347973
-0.00347973
0.00347973
-0.00347973
0.00347973
-0.00347977
0.00347672
-0.00353398
0.00328351
-0.00913909
-0.00913909
1
0.40543
0.0724185
0.00478573
0.00335312
-0.00271047
0.00275127
-0.00274909
0.00274919
-0.00274919
0.00274919
-0.00274919
0.00274919
-0.00274919
0.00274919
-0.00274919
0.00274919
-0.00274919
0.00274919
-0.00274919
0.00274919
-0.00274919
0.00274919
-0.00274919
0.00274919
-0.00274919
0.00274919
-0.00274919
0.00274919
-0.00274919
0.00274919
-0.00274919
0.00274919
-0.00274919
0.00274919
-0.00274919
0.00274919
-0.00274919
0.00274919
-0.00274919
0.00274919
-0.00274919
0.00274919
-0.00274919
0.00274919
-0.00274919
0.00274919
-0.00274919
0.00274919
-0.00274919
0.00274919
-0.00274919
0.00274919
-0.00274919
0.00274919