# vtk DataFile Version 2.0
FlowField
ASCII
DATASET STRUCTURED_GRID
DIMENSIONS 100 1 100
POINTS 10000 float
0 0 0
0.01 0 0
0.02 0 0
0.03 0 0
0.04 0 0
0.05 0 0
0.06 0 0
0.07 0 0
0.08 0 0
0.09 0 0
0.1 0 0
0.11 0 0
0.12 0 0
0.13 0 0
0.14 0 0
0.15 0 0
0.16 0 0
0.17 0 0
0.18 0 0
0.19 0 0
0.2 0 0
0.21 0 0
0.22 0 0
0.23 0 0
0.24 0 0
0.25 0 0
0.26 0 0
0.27 0 0
0.28 0 0
0.29 0 0
0.3 0 0
0.31 0 0
0.32 0 0
0.33 0 0
0.34 0 0
0.35 0 0
0.36 0 0
0.37 0 0
0.38 0 0
0.39 0 0
0.4 0 0
0.41 0 0
0.42 0 0
0.43 0 0
0.44 0 0
0.45 0 0
0.46 0 0
0.47 0 0
0.48 0 0
0.49 0 0
0.5 0 0
0.51 0 0
0.52 0 0
0.53 0 0
0.54 0 0
0.55 0 0
0.56 0 0
0.57 0 0
0.58 0 0
0.59 0 0
0.6 0 0
0.61 0 0
0.62 0 0
0.63 0 0
0.64 0 0
0.65 0 0
0.66 0 0
0.67 0 0
0.68 0 0
0.69 0 0
0.7 0 0
0.71 0 0
0.72 0 0
0.73 0 0
0.74 0 0
0.75 0 0
0.76 0 0
0.77 0 0
0.78 0 0
0.79 0 0
0.8 0 0
0.81 0 0
0.82 0 0
0.83 0 0
0.84 0 0
0.85 0 0
0.86 0 0
0.87 0 0
0.88 0 0
0.89 0 0
0.9 0 0
0.91 0 0
0.92 0 0
0.93 0 0
0.94 0 0
0.95 0 0
0.96 0 0
0.97 0 0
0.98 0 0
0.99 0 0
0 0.001 0
0.01 0.001 0
0.02 0.001 0
0.03 0.001 0
0.04 0.001 0
0.05 0.001 0
0.06 0.001 0
0.07 0.001 0
0.08 0.001 0
0.09 0.001 0
0.1 0.001 0
0.11 0.001 0
0.12 0.001 0
0.13 0.001 0
0.14 0.001 0
0.15 0.001 0
0.16 0.001 0
0.17 0.001 0
0.18 0.001 0
0.19 0.001 0
0.2 0.001 0
0.21 0.001 0
0.22 0.001 0
0.23 0.001 0
0.24 0.001 0
0.25 0.001 0
0.26 0.001 0
0.27 0.001 0
0.28 0.001 0
0.29 0.001 0
0.3 0.001 0
0.31 0.001 0
0.32 0.001 0
0.33 0.001 0
0.34 0.001 0
0.35 0.001 0
0.36 0.001 0
0.37 0.001 0
0.38 0.001 0
0.39 0.001 0
0.4 0.001 0
0.41 0.001 0
0.42 0.001 0
0.43 0.001 0
0.44 0.001 0
0.45 0.001 0
0.46 0.001 0
0.47 0.001 0
0.48 0.001 0
0.49 0.001 0
0.5 0.001 0
0.51 0.001 0
0.52 0.001 0
0.53 0.001 0
0.54 0.001 0
0.55 0.001 0
0.56 0.001 0
0.57 0.001 0
0.58 0.001 0
0.59 0.001 0
0.6 0.001 0
0.61 0.001 0
0.62 0.001 0
0.63 0.001 0
0.64 0.001 0
0.65 0.001 0
0.66 0.001 0
0.67 0.001 0
0.68 0.001 0
0.69 0.001 0
0.7 0.001 0
0.71 0.001 0
0.72 0.001 0
0.73 0.001 0
0.74 0.001 0
0.75 0.001 0
0.76 0.001 0
0.77 0.001 0
0.78 0.001 0
0.79 0.001 0
0.8 0.001 0
0.81 0.001 0
0.82 0.001 0
0.83 0.001 0
0.84 0.001 0
0.85 0.001 0
0.86 0.001 0
0.87 0.001 0
0.88 0.001 0
0.89 0.001 0
0.9 0.001 0
0.91 0.001 0
0.92 0.001 0
0.93 0.001 0
0.94 0.001 0
0.95 0.001 0
0.96 0.001 0
0.97 0.001 0
0.98 0.001 0
0.99 0.001 0
0 0.002 0
0.01 0.002 0
0.02 0.002 0
0.03 0.002 0
0.04 0.002 0
0.05 0.002 0
0.06 0.002 0
0.07 0.002 0
0.08 0.002 0
0.09 0.002 0
0.1 0.002 0
0.11 0.002 0
0.12 0.002 0
0.13 0.002 0
0.14 0.002 0
0.15 0.002 0
0.16 0.002 0
0.17 0.002 0
0.18 0.002 0
0.19 0.002 0
0.2 0.002 0
0.21 0.002 0
0.22 0.002 0
0.23 0.002 0
0.24 0.002 0
0.25 0.002 0
0.26 0.002 0
0.27 0.002 0
0.28 0.002 0
0.29 0.002 0
0.3 0.002 0
0.31 0.002 0
0.32 0.002 0
0.33 0.002 0
0.34 0.002 0
0.35 0.002 0
0.36 0.002 0
0.37 0.002 0
0.38 0.002 0
0.39 0.002 0
0.4 0.002 0
0.41 0.002 0
0.42 0.002 0
0.43 0.002 0
0.44 0.002 0
0.45 0.002 0
0.46 0.002 0
0.47 0.002 0
0.48 0.002 0
0.49 0.002 0
0.5 0.002 0
0.51 0.002 0
0.52 0.002 0
0.53 0.002 0
0.54 0.002 0
0.55 0.002 0
0.56 0.002 0
0.57 0.002 0
0.58 0.002 0
0.59 0.002 0
0.6 0.002 0
0.61 0.002 0
0.62 0.002 0
0.63 0.002 0
0.64 0.002 0
0.65 0.002 0
0.66 0.002 0
0.67 0.002 0
0.68 0.002 0
0.69 0.002 0
0.7 0.002 0
0.71 0.002 0
0.72 0.002 0
0.73 0.002 0
0.74 0.002 0
0.75 0.002 0
0.76 0.002 0
0.77 0.002 0
0.78 0.002 0
0.79 0.002 0
0.8 0.002 0
0.81 0.002 0
0.82 0.002 0
0.83 0.002 0
0.84 0.002 0
0.85 0.002 0
0.86 0.002 0
0.87 0.002 0
0.88 0.002 0
0.89 0.002 0
0.9 0.002 0
0.91 0.002 0
0.92 0.002 0
0.93 0.002 0
0.94 0.002 0
0.95 0.002 0
0.96 0.002 0
0.97 0.002 0
0.98 0.002 0
0.99 0.002 0
0 0.003 0
0.01 0.003 0
0.02 0.003 0
0.03 0.003 0
0.04 0.003 0
0.05 0.003 0
0.06 0.003 0
0.07 0.003 0
0.08 0.003 0
0.09 0.003 0
0.1 0.003 0
0.11 0.003 0
0.12 0.003 0
0.13 0.003 0
0.14 0.003 0
0.15 0.003 0
0.16 0.003 0
0.17 0.003 0
0.18 0.003 0
0.19 0.003 0
0.2 0.003 0
0.21 0.003 0
0.22 0.003 0
0.23 0.003 0
0.24 0.003 0
0.25 0.003 0
0.26 0.003 0
0.27 0.003 0
0.28 0.003 0
0.29 0.003 0
0.3 0.003 0
0.31 0.003 0
0.32 0.003 0
0.33 0.003 0
0.34 0.003 0
0.35 0.003 0
0.36 0.003 0
0.37 0.003 0
0.38 0.003 0
0.39 0.003 0
0.4 0.003 0
0.41 0.003 0
0.42 0.003 0
0.43 0.003 0
0.44 0.003 0
0.45 0.003 0
0.46 0.003 0
0.47 0.003 0
0.48 0.003 0
0.49 0.003 0
0.5 0.003 0
0.51 0.003 0
0.52 0.003 0
0.53 0.003 0
0.54 0.003 0
0.55 0.003 0
0.56 0.003 0
0.57 0.003 0
0.58 0.003 0
0.59 0.003 0
0.6 0.003 0
0.61 0.003 0
0.62 0.003 0
0.63 0.003 0
0.64 0.003 0
0.65 0.003 0
0.66 0.003 0
0.67 0.003 0
0.68 0.003 0
0.69 0.003 0
0.7 0.003 0
0.71 0.003 0
0.72 0.003 0
0.73 0.003 0
0.74 0.003 0
0.75 0.003 0
0.76 0.003 0
0.77 0.003 0
0.78 0.003 0
0.79 0.003 0
0.8 0.003 0
0.81 0.003 0
0.82 0.003 0
0.83 0.003 0
0.84 0.003 0
0.85 0.003 0
0.86 0.003 0
0.87 0.003 0
0.88 0.003 0
0.89 0.003 0
0.9 0.003 0
0.91 0.003 0
0.92 0.003 0
0.93 0.003 0
0.94 0.003 0
0.95 0.003 0
0.96 0.003 0
0.97 0.003 0
0.98 0.003 0
0.99 0.003 0
0 0.004 0
0.01 0.004 0
0.02 0.004 0
0.03 0.004 0
0.04 0.004 0
0.05 0.004 0
0.06 0.004 0
0.07 0.004 0
0.08 0.004 0
0.09 0.004 0
0.1 0.004 0
0.11 0.004 0
0.12 0.004 0
0.13 0.004 0
0.14 0.004 0
0.15 0.004 0
0.16 0.004 0
0.17 0.004 0
0.18 0.004 0
0.19 0.004 0
0.2 0.004 0
0.21 0.004 0
0.22 0.004 0
0.23 0.004 0
0.24 0.004 0
0.25 0.004 0
0.26 0.004 0
0.27 0.004 0
0.28 0.004 0
0.29 0.004 0
0.3 0.004 0
0.31 0.004 0
0.32 0.004 0
0.33 0.004 0
0.34 0.004 0
0.35 0.004 0
0.36 0.004 0
0.37 0.004 0
0.38 0.004 0
0.39 0.004 0
0.4 0.004 0
0.41 0.004 0
0.42 0.004 0
0.43 0.004 0
0.44 0.004 0
0.45 0.004 0
0.46 0.004 0
0.47 0.004 0
0.48 0.004 0
0.49 0.004 0
0.5 0.004 0
0.51 0.004 0
0.52 0.004 0
0.53 0.004 0
0.54 0.004 0
0.55 0.004 0
0.56 0.004 0
0.57 0.004 0
0.58 0.004 0
0.59 0.004 0
0.6 0.004 0
0.61 0.004 0
0.62 0.004 0
0.63 0.004 0
0.64 0.004 0
0.65 0.004 0
0.66 0.004 0
0.67 0.004 0
0.68 0.004 0
0.69 0.004 0
0.7 0.004 0
0.71 0.004 0
0.72 0.004 0
0.73 0.004 0
0.74 0.004 0
0.75 0.004 0
0.76 0.004 0
0.77 0.004 0
0.78 0.004 0
0.79 0.004 0
0.8 0.004 0
0.81 0.004 0
0.82 0.004 0
0.83 0.004 0
0.84 0.004 0
0.85 0.004 0
0.86 0.004 0
0.87 0.004 0
0.88 0.004 0
0.89 0.004 0
0.9 0.004 0
0.91 0.004 0
0.92 0.004 0
0.93 0.004 0
0.94 0.004 0
0.95 0.004 0
0.96 0.004 0
0.97 0.004 0
0.98 0.004 0
0.99 0.004 0
0 0.005 0
0.01 0.005 0
0.02 0.005 0
0.03 0.005 0
0.04 0.005 0
0.05 0.005 0
0.06 0.005 0
0.07 0.005 0
0.08 0.005 0
0.09 0.005 0
0.1 0.005 0
0.11 0.005 0
0.12 0.005 0
0.13 0.005 0
0.14 0.005 0
0.15 0.005 0
0.16 0.005 0
0.17 0.005 0
0.18 0.005 0
0.19 0.005 0
0.2 0.005 0
0.21 0.005 0
0.22 0.005 0
0.23 0.005 0
0.24 0.005 0
0.25 0.005 0
0.26 0.005 0
0.27 0.005 0
0.28 0.005 0
0.29 0.005 0
0.3 0.005 0
0.31 0.005 0
0.32 0.005 0
0.33 0.005 0
0.34 0.005 0
0.35 0.005 0
0.36 0.005 0
0.37 0.005 0
0.38 0.005 0
0.39 0.005 0
0.4 0.005 0
0.41 0.005 0
0.42 0.005 0
0.43 0.005 0
0.44 0.005 0
0.45 0.005 0
0.46 0.005 0
0.47 0.005 0
0.48 0.005 0
0.49 0.005 0
0.5 0.005 0
0.51 0.005 0
0.52 0.005 0
0.53 0.005 0
0.54 0.005 0
0.55 0.005 0
0.56 0.005 0
0.57 0.005 0
0.58 0.005 0
0.59 0.005 0
0.6 0.005 0
0.61 0.005 0
0.62 0.005 0
0.63 0.005 0
0.64 0.005 0
0.65 0.005 0
0.66 0.005 0
0.67 0.005 0
0.68 0.005 0
0.69 0.005 0
0.7 0.005 0
0.71 0.005 0
0.72 0.005 0
0.73 0.005 0
0.74 0.005 0
0.75 0.005 0
0.76 0.005 0
0.77 0.005 0
0.78 0.005 0
0.79 0.005 0
0.8 0.005 0
0.81 0.005 0
0.82 0.005 0
0.83 0.005 0
0.84 0.005 0
0.85 0.005 0
0.86 0.005 0
0.87 0.005 0
0.88 0.005 0
0.89 0.005 0
0.9 0.005 0
0.91 0.005 0
0.92 0.005 0
0.93 0.005 0
0.94 0.005 0
0.95 0.005 0
0.96 0.005 0
0.97 0.005 0
0.98 0.005 0
0.99 0.005 0
0 0.006 0
0.01 0.006 0
0.02 0.006 0
0.03 0.006 0
0.04 0.006 0
0.05 0.006 0
0.06 0.006 0
0.07 0.006 0
0.08 0.006 0
0.09 0.006 0
0.1 0.006 0
0.11 0.006 0
0.12 0.006 0
0.13 0.006 0
0.14 0.006 0
0.15 0.006 0
0.16 0.006 0
0.17 0.006 0
0.18 0.006 0
0.19 0.006 0
0.2 0.006 0
0.21 0.006 0
0.22 0.006 0
0.23 0.006 0
0.24 0.006 0
0.25 0.006 0
0.26 0.006 0
0.27 0.006 0
0.28 0.006 0
0.29 0.006 0
0.3 0.006 0
0.31 0.006 0
0.32 0.006 0
0.33 0.006 0
0.34 0.006 0
0.35 0.006 0
0.36 0.006 0
0.37 0.006 0
0.38 0.006 0
0.39 0.006 0
0.4 0.006 0
0.41 0.006 0
0.42 0.006 0
0.43 0.006 0
0.44 0.006 0
0.45 0.006 0
0.46 0.006 0
0.47 0.006 0
0.48 0.006 0
0.49 0.006 0
0.5 0.006 0
0.51 0.006 0
0.52 0.006 0
0.53 0.006 0
0.54 0.006 0
0.55 0.006 0
0.56 0.006 0
0.57 0.006 0
0.58 0.006 0
0.59 0.006 0
0.6 0.006 0
0.61 0.006 0
0.62 0.006 0
0.63 0.006 0
0.64 0.006 0
0.65 0.006 0
0.66 0.006 0
0.67 0.006 0
0.68 0.006 0
0.69 0.006 0
0.7 0.006 0
0.71 0.006 0
0.72 0.006 0
0.73 0.006 0
0.74 0.006 0
0.75 0.006 0
0.76 0.006 0
0.77 0.006 0
0.78 0.006 0
0.79 0.006 0
0.8 0.006 0
0.81 0.006 0
0.82 0.006 0
0.83 0.006 0
0.84 0.006 0
0.85 0.006 0
0.86 0.006 0
0.87 0.006 0
0.88 0.006 0
0.89 0.006 0
0.9 0.006 0
0.91 0.006 0
0.92 0.006 0
0.93 0.006 0
0.94 0.006 0
0.95 0.006 0
0.96 0.006 0
0.97 0.006 0
0.98 0.006 0
0.99 0.006 0
0 0.007 0
0.01 0.007 0
0.02 0.007 0
0.03 0.007 0
0.04 0.007 0
0.05 0.007 0
0.06 0.007 0
0.07 0.007 0
0.08 0.007 0
0.09 0.007 0
0.1 0.007 0
0.11 0.007 0
0.12 0.007 0
0.13 0.007 0
0.14 0.007 0
0.15 0.007 0
0.16 0.007 0
0.17 0.007 0
0.18 0.007 0
0.19 0.007 0
0.2 0.007 0
0.21 0.007 0
0.22 0.007 0
0.23 0.007 0
0.24 0.007 0
0.25 0.007 0
0.26 0.007 0
0.27 0.007 0
0.28 0.007 0
0.29 0.007 0
0.3 0.007 0
0.31 0.007 0
0.32 0.007 0
0.33 0.007 0
0.34 0.007 0
0.35 0.007 0
0.36 0.007 0
0.37 0.007 0
0.38 0.007 0
0.39 0.007 0
0.4 0.007 0
0.41 0.007 0
0.42 0.007 0
0.43 0.007 0
0.44 0.007 0
0.45 0.007 0
0.46 0.007 0
0.47 0.007 0
0.48 0.007 0
0.49 0.007 0
0.5 0.007 0
0.51 0.007 0
0.52 0.007 0
0.53 0.007 0
0.54 0.007 0
0.55 0.007 0
0.56 0.007 0
0.57 0.007 0
0.58 0.007 0
0.59 0.007 0
0.6 0.007 0
0.61 0.007 0
0.62 0.007 0
0.63 0.007 0
0.64 0.007 0
0.65 0.007 0
0.66 0.007 0
0.67 0.007 0
0.68 0.007 0
0.69 0.007 0
0.7 0.007 0
0.71 0.007 0
0.72 0.007 0
0.73 0.007 0
0.74 0.007 0
0.75 0.007 0
0.76 0.007 0
0.77 0.007 0
0.78 0.007 0
0.79 0.007 0
0.8 0.007 0
0.81 0.007 0
0.82 0.007 0
0.83 0.007 0
0.84 0.007 0
0.85 0.007 0
0.86 0.007 0
0.87 0.007 0
0.88 0.007 0
0.89 0.007 0
0.9 0.007 0
0.91 0.007 0
0.92 0.007 0
0.93 0.007 0
0.94 0.007 0
0.95 0.007 0
0.96 0.007 0
0.97 0.007 0
0.98 0.007 0
[...]
POINT_DATA 10000

SCALARS PHI float 1
LOOKUP_TABLE default
0
0
0
0
0
0
0
0
0
0
0
0
0
0
0
0
0
0
0
0
0
0
0
0
0
0
0
0
0
0
0
0
0
0
0
0
0
0
0
0
0
0
0
0
0
0
0
0
0
0
0
0
0
0
0
0
0
0
0
0
0
0
0
0
0
0
0
0
0
0
0
0
0
0
0
0
0
0
0
0
0
0
0
0
0
0
0
0
0
0
0
0
0
0
0
0
0
0
0
0
1
0.324482
0.208185
0.174044
0.143537
0.170324
0.119436
0.172126
0.136988
0.143735
0.173631
0.15297
0.14878
0.206747
0.171264
0.180254
0.221557
0.25435
0.228983
0.276259
0.329662
0.353559
0.270711
0.181791
0.0855715
0.0476769
0.00998032
0.0121181
-0.0045087
0.00688543
-0.00620665
0.00638498
-0.00634163
0.00635143
-0.00634936
0.00634977
-0.00634969
0.0063497
-0.0063497
0.0063497
-0.0063497
0.0063497
-0.0063497
0.0063497
-0.0063497
0.0063497
-0.0063497
0.0063497
-0.0063497
0.0063497
-0.0063497
0.0063497
-0.0063497
0.0063497
-0.0063497
0.0063497
-0.0063497
0.0063497
-0.0063497
0.0063497
-0.0063497
0.0063497
-0.0063497
0.0063497
-0.0063497
0.0063497
-0.0063497
0.0063497
-0.00634971
0.00634966
-0.0063499
0.00634885
-0.00635274
0.00634085
-0.00636962
0.00631874
-0.00637208
0.00637015
-0.00631007
0.00626241
-0.00659841
0.00638551
-0.00580943
0.00622092
-0.00740292
0.00701354
-0.0052724
0.00427389
-0.00568995
0.00793785
-0.00954801
0.00915404
-0.00778677
0.00554648
-0.00392181
0.00210827
-0.0016672
-0.00249944
-0.172554
-0.172554
1
0.566867
0.396263
0.333037
0.29034
0.317654
0.253336
0.322333
0.273987
0.289753
0.32858
0.301601
0.306209
0.382937
0.3376
0.360055
0.423112
0.466341
0.439239
0.509973
0.575353
0.578204
0.431202
0.2801
0.13246
0.0705981
0.0164945
0.0166746
-0.00530743
0.00884542
-0.00783774
0.00810195
-0.00803782
0.0080523
-0.00804925
0.00804985
-0.00804974
0.00804976
-0.00804975
0.00804976
-0.00804975
0.00804975
-0.00804975
0.00804975
-0.00804975
0.00804975
-0.00804975
0.00804975
-0.00804975
0.00804975
-0.00804975
0.00804975
-0.00804975
0.00804975
-0.00804975
0.00804975
-0.00804975
0.00804975
-0.00804975
0.00804975
-0.00804975
0.00804975
-0.00804975
0.00804975
-0.00804975
0.00804975
-0.00804976
0.00804975
-0.00804977
0.00804969
-0.00805005
0.00804849
-0.00805429
0.00803645
-0.00808014
0.00800096
-0.00808981
0.00807012
-0.00799461
0.00793248
-0.00841634
0.00804352
-0.00730553
0.00796769
-0.00952849
0.00877034
-0.00645664
0.00534853
-0.00750324
0.0103787
-0.0122928
0.0114134
-0.00954441
0.00649465
-0.00459381
0.00219771
-0.00200167
-0.000523622
0.241014
0.241014
1
0.743051
0.55852
0.481424
0.427554
0.452872
0.386917
0.454392
0.410554
0.42554
0.468061
0.445959
0.452702
0.534681
0.495497
0.522661
0.592171
0.640907
0.616437
0.684995
0.73756
0.711208
0.524426
0.335283
0.160591
0.0830476
0.0214801
0.018393
-0.00469539
0.00897174
-0.00774959
0.00807124
-0.00799286
0.00801063
-0.00800687
0.00800762
-0.00800748
0.0080075
-0.0080075
0.0080075
-0.0080075
0.0080075
-0.0080075
0.0080075
-0.0080075
0.0080075
-0.0080075
0.0080075
-0.0080075
0.0080075
-0.0080075
0.0080075
-0.0080075
0.0080075
-0.0080075
0.0080075
-0.0080075
0.0080075
-0.0080075
0.0080075
-0.0080075
0.0080075
-0.0080075
0.0080075
-0.0080075
0.0080075
-0.0080075
0.00800749
-0.00800751
0.00800742
-0.00800786
0.00800596
-0.00801295
0.00799159
-0.00804366
0.00794924
-0.00805733
0.0080237
-0.00795483
0.00786816
-0.00841722
0.00799244
-0.00722653
0.0078951
-0.00955762
0.00877269
-0.00644811
0.0052076
-0.00735583
0.0101707
-0.0122719
0.0114587
-0.0098469
0.00674118
-0.00500853
0.00234905
-0.00234909
-0.00191205
-0.209822
-0.209822
1
0.867947
0.69468
0.61711
0.551597
0.578113
0.51172
0.572608
0.54027
0.547445
0.593455
0.579979
0.581182
0.665543
0.636944
0.659829
0.726835
0.779462
0.752951
0.803524
0.834543
0.786292
0.579377
0.36945
0.179769
0.0915766
0.0255667
0.0194146
-0.00385736
0.0087478
-0.00734049
0.00771343
-0.00762194
0.00764282
-0.00763837
0.00763926
-0.00763909
0.00763912
-0.00763911
0.00763911
-0.00763911
0.00763911
-0.00763911
0.00763911
-0.00763911
0.00763911
-0.00763911
0.00763911
-0.00763911
0.00763911
-0.00763911
0.00763911
-0.00763911
0.00763911
-0.00763911
0.00763911
-0.00763911
0.00763911
-0.00763911
0.00763911
-0.00763911
0.00763911
-0.00763911
0.00763911
-0.00763911
0.00763911
-0.00763912
0.00763911
-0.00763913
0.00763903
-0.00763954
0.00763735
-0.0076453
0.00762135
-0.00767888
0.00757616
-0.00769232
0.00765312
-0.0075975
0.00747331
-0.00805834
0.00765868
-0.0068799
0.00740391
-0.00912459
0.0085591
-0.00638772
0.00483468
-0.00659698
0.00919961
-0.0116337
0.0112581
-0.0102143
0.00729397
-0.00576158
0.00286518
-0.00284041
0.000632194
0.224755
0.224755
1
0.954405
0.806386
0.737217
0.662296
0.691454
0.624861
0.67792
0.658199
0.655008
0.703941
0.698655
0.690653
0.775625
0.756662
0.769647
0.829386
0.883286
0.850225
0.876918
0.887501
0.827193
0.613759
0.39349
0.194993
0.0986542
0.0293494
0.0202639
-0.00294898
0.00844003
-0.00684636
0.0072722
-0.00716689
0.00719111
-0.00718591
0.00718695
-0.00718675
0.00718679
-0.00718678
0.00718679
-0.00718679
0.00718679
-0.00718679
0.00718679
-0.00718679
0.00718679
-0.00718679
0.00718679
-0.00718679
0.00718679
-0.00718679
0.00718679
-0.00718679
0.00718679
-0.00718679
0.00718679
-0.00718679
0.00718679
-0.00718679
0.00718679
-0.00718679
0.00718679
-0.00718679
0.00718679
-0.00718679
0.00718679
-0.00718679
0.00718678
-0.0071868
0.00718668
-0.00718727
0.00718479
-0.00719366
0.00716743
-0.00722912
0.0071217
-0.00723919
0.00720142
-0.00715915
0.00699099
-0.00760109
0.00726746
-0.00646501
0.00678184
-0.00856606
0.00832319
-0.00633172
0.00438569
-0.00564533
0.0080259
-0.0108435
0.0110161
-0.0105946
0.00792782
-0.00657376
0.00347985
-0.00334082
-0.000705581
-0.216952
-0.216952
1
1.01281
0.895861
0.840183
0.759865
0.790796
0.725711
0.769606
0.761941
0.748332
0.798321
0.799694
0.781933
0.864396
0.853222
0.853797
0.903731
0.955872
0.915291
0.918571
0.913668
0.848726
0.637472
0.412466
0.208718
0.105092
0.0332769
0.0209308
-0.00182063
0.00793978
-0.00614736
0.00663058
-0.00651006
0.006538
-0.00653195
0.00653318
-0.00653294
0.00653299
-0.00653298
0.00653298
-0.00653298
0.00653298
-0.00653298
0.00653298
-0.00653298
0.00653298
-0.00653298
0.00653298
-0.00653298
0.00653298
-0.00653298
0.00653298
-0.00653298
0.00653298
-0.00653298
0.00653298
-0.00653298
0.00653298
-0.00653298
0.00653298
-0.00653298
0.00653298
-0.00653298
0.00653298
-0.00653298
0.00653298
-0.00653298
0.00653298
-0.006533
0.00653286
-0.00653354
0.00653075
-0.00654054
0.00651213
-0.00657739
0.00646721
-0.00658214
0.00655014
-0.00652008
0.0063069
-0.00693417
0.00668531
-0.00585601
0.0059499
-0.00778603
0.00788361
-0.00608937
0.00377623
-0.00452174
0.00665055
-0.00978308
0.0104768
-0.0106556
0.00829881
-0.0071524
0.00396266
-0.00368957
0.0016492
0.221526
0.221526
1
1.0511
0.965616
0.925802
0.844365
0.875151
0.814134
0.847058
0.850739
0.82761
0.876197
0.882893
0.856275
0.932465
0.927941
0.915695
0.954615
1.00278
0.95681
0.940057
0.924822
0.859512
0.655624
0.428688
0.222016
0.111174
0.0375578
0.0213726
-0.000377251
0.0071676
-0.00515957
0.00570587
-0.00556842
0.00560056
-0.00559355
0.00559498
-0.00559471
0.00559476
-0.00559475
0.00559475
-0.00559475
0.00559475
-0.00559475
0.00559475
-0.00559475
0.00559475
-0.00559475
0.00559475
-0.00559475
0.00559475
-0.00559475
0.00559475
-0.00559475
0.00559475
-0.00559475
0.00559475
-0.00559475
0.00559475
-0.00559475
0.00559475
-0.00559475
0.00559475
-0.00559475
0.00559475
-0.00559475
0.00559475
-0.00559475
0.00559474
-0.00559477
0.00559461
-0.00559538
0.00559226
-0.00560302
0.00557244
-0.00564092
0.00552917
-0.0056393
0.00561516
-0.00559695
0.00534046
-0.00597572
0.00581973
-0.00497259
0.00484553
-0.00669909
0.00712033
-0.0055601
0.00295973
-0.00320481
0.00501658
-0.00833876
0.00948167
-0.0102311
0.00825247
-0.00738004
0.00422311
-0.00388103
3.51905e-05
-0.21854
-0.21854
1
1.07508
1.01835
0.994755
0.915964
0.944572
0.890126
0.910428
0.924692
0.893324
0.938206
0.949249
0.915263
0.981832
0.983582
0.959423
0.987146
1.0303
0.98256
0.949842
0.928178
0.864345
0.670672
0.443221
0.235261
0.117047
0.0422225
0.0216177
0.00137227
0.00613888
-0.00389623
0.004512
-0.00435571
0.00439256
-0.00438445
0.00438612
-0.0043858
0.00438586
-0.00438585
0.00438585
-0.00438585
0.00438585
-0.00438585
0.00438585
-0.00438585
0.00438585
-0.00438585
0.00438585
-0.00438585
0.00438585
-0.00438585
0.00438585
-0.00438585
0.00438585
-0.00438585
0.00438585
-0.00438585
0.00438585
-0.00438585
0.00438585
-0.00438585
0.00438585
-0.00438585
0.00438585
-0.00438585
0.00438585
-0.00438585
0.00438584
-0.00438588
0.00438569
-0.00438656
0.00438308
-0.00439486
0.00436211
-0.00443355
0.0043211
-0.00442508
0.00440937
-0.00440372
0.00410662
-0.00473952
0.00467961
-0.00383161
0.003491
-0.00531579
0.0060327
-0.00475336
0.00196146
-0.00172594
0.00314633
-0.00652304
0.0080332
-0.00931982
0.00777885
-0.00725094
0.004251
-0.00388862
0.00212681
0.220629
0.220629
1
1.08888
1.05678
1.04825
0.975149
0.999792
0.953933
0.960579
0.984402
0.946365
0.98577
1.0004
0.960861
1.01541
1.02344
0.989105
1.00625
1.04426
0.998443
0.953454
0.927831
0.865818
0.683732
0.456563
0.248518
0.122818
0.0472163
0.021738
0.00336336
0.00492147
-0.00242382
0.00311596
-0.00293872
0.00298087
-0.00297152
0.00297346
-0.00297308
0.00297315
-0.00297314
0.00297314
-0.00297314
0.00297314
-0.00297314
0.00297314
-0.00297314
0.00297314
-0.00297314
0.00297314
-0.00297314
0.00297314
-0.00297314
0.00297314
-0.00297314
0.00297314
-0.00297314
0.00297314
-0.00297314
0.00297314
-0.00297314
0.00297314
-0.00297314
0.00297314
-0.00297314
0.00297314
-0.00297314
0.00297314
-0.00297314
0.00297314
-0.00297318
0.00297296
-0.00297394
0.00297008
-0.00298291
0.002948
-0.00302215
0.00290973
-0.00300668
0.00299906
-0.00300745
0.00267282
-0.00329268
0.00332916
-0.0025008
0.00195659
-0.00370477
0.00468428
-0.00372926
0.000841172
-0.000154487
0.0011219
-0.00442715
0.00621749
-0.00799488
0.00692489
-0.00679663
0.00406001
-0.00376158
0.000282038
-0.219129
-0.219129
1
1.09546
1.08351
1.08784
1.02275
1.04197
1.00613
0.998857
1.03085
0.987983
1.02076
1.0383
0.995281
1.03642
1.05079
1.0085
1.01623
1.0493
1.00844
0.954195
0.925973
0.865331
0.695285
0.468957
0.261729
0.128565
0.0524574
0.0218161
0.00551576
0.00359764
-0.000823486
0.00159939
-0.00139894
0.00144701
-0.00143626
0.00143851
-0.00143807
0.00143815
-0.00143814
0.00143814
-0.00143814
0.00143814
-0.00143814
0.00143814
-0.00143814
0.00143814
-0.00143814
0.00143814
-0.00143814
0.00143814
-0.00143814
0.00143814
-0.00143814
0.00143814
-0.00143814
0.00143814
-0.00143814
0.00143814
-0.00143814
0.00143814
-0.00143814
0.00143814
-0.00143814
0.00143814
-0.00143814
0.00143814
-0.00143814
0.00143813
-0.00143818
0.00143794
-0.00143904
0.00143477
-0.00144869
0.00141163
-0.00148822
0.00137652
-0.00146584
0.00146539
-0.0014897
0.00112083
-0.00171744
0.00184814
-0.00106056
0.000325656
-0.00195328
0.00315729
-0.0025587
-0.000335069
0.00142911
-0.00095433
-0.00216723
0.00414466
-0.00634983
0.00575264
-0.00605586
0.00366785
-0.00348246
0.00217331
0.220199
0.220199
1
1.09693
1.10087
1.11526
1.05985
1.07252
1.0476
1.02688
1.0653
1.01963
1.04519
1.06504
1.02075
1.048
1.06859
1.02077
1.02045
1.04884
1.015
0.953894
0.923712
0.863668
0.705536
0.480536
0.274796
0.134356
0.0578583
0.0219335
0.00774863
0.00224971
0.000823422
4.40875e-05
0.000182022
-0.000127334
0.00013966
-0.000137061
0.000137575
-0.000137479
0.000137496
-0.000137494
0.000137494
-0.000137494
0.000137494
-0.000137494
0.000137494
-0.000137494
0.000137494
-0.000137494
0.000137494
-0.000137494
0.000137494
-0.000137494
0.000137494
-0.000137494
0.000137494
-0.000137494
0.000137494
-0.000137494
0.000137494
-0.000137494
0.000137494
-0.000137494
0.000137494
-0.000137494
0.000137494
-0.000137494
0.000137493
-0.000137502
0.000137448
-0.000137724
0.000136494
-0.000141191
0.000126145
-0.000165334
8.65666e-05
-0.000196904
0.000115613
-0.000110129
6.79918e-05
-0.000467477
-9.64856e-05
0.000316838
0.000409717
-0.0013188
-0.000150583
0.00153559
-0.00131156
-0.00150347
0.00294622
-0.00298024
0.000139826
0.00192704
-0.00448339
0.00433216
-0.0050727
0.00309536
-0.00309981
0.000151134
-0.219455
-0.219455
1
1.09481
1.11091
1.13237
1.08767
1.09302
1.07941
1.04636
1.08923
1.04282
1.06104
1.08266
1.03932
1.05287
1.0793
1.02835
1.02136
1.04518
1.0195
0.953492
0.921571
0.86131
0.714569
0.491387
0.287606
0.140247
0.0633314
0.0221686
0.00998263
0.000958169
0.00243734
-0.00146992
0.00172432
-0.00166226
0.00167636
-0.00167337
0.00167396
-0.00167385
0.00167387
-0.00167387
0.00167387
-0.00167387
0.00167387
-0.00167387
0.00167387
-0.00167387
0.00167387
-0.00167387
0.00167387
-0.00167387
0.00167387
-0.00167387
0.00167387
-0.00167387
0.00167387
-0.00167387
0.00167387
-0.00167387
0.00167387
-0.00167387
0.00167387
-0.00167387
0.00167387
-0.00167387
0.00167387
-0.00167387
0.00167387
-0.00167388
0.00167382
-0.00167413
0.00167276
-0.00167791
0.00166171
-0.00170298
0.00162234
-0.00173069
0.00165766
-0.00164771
0.00158599
-0.00201207
0.00148909
-0.00118596
0.001833
-0.00289598
0.00161547
-9.76185e-05
-5.71203e-05
-0.00260224
0.00432302
-0.00485986
0.00238186
-0.000324287
-0.00249892
0.00274465
-0.00390215
0.00237166
-0.00260001
0.00188857
0.219956
0.219956
1
1.09026
1.11534
1.14102
1.10749
1.1051
1.10269
1.05903
1.10421
1.05898
1.07011
1.09304
1.05268
1.05332
1.08487
1.03304
1.02058
1.03979
1.02263
0.953434
0.919766
0.858585
0.722421
0.501587
0.300046
0.146292
0.0687894
0.0225976
0.0121403
-0.000198601
0.00394072
-0.00286465
0.00315014
-0.00307991
0.003096
-0.00309255
0.00309324
-0.00309311
0.00309314
-0.00309313
0.00309313
-0.00309313
0.00309313
-0.00309313
0.00309313
-0.00309313
0.00309313
-0.00309313
0.00309313
-0.00309313
0.00309313
-0.00309313
0.00309313
-0.00309313
0.00309313
-0.00309313
0.00309313
-0.00309313
0.00309313
-0.00309313
0.00309313
-0.00309313
0.00309313
-0.00309313
0.00309313
-0.00309313
0.00309313
-0.00309314
0.00309307
-0.00309343
0.0030919
-0.00309753
0.00308016
-0.00312344
0.00304127
-0.00314703
0.00308234
-0.00306951
0.00298675
-0.00343497
0.00296019
-0.00258319
0.00313452
-0.00432776
0.00325941
-0.00165984
0.0011351
-0.00357121
0.00549149
-0.00650501
0.00445249
-0.00250026
-0.000503389
0.001083
-0.00261305
0.00153678
-0.00204121
-0.000262595
-0.219626
-0.219626
1
1.08414
1.11559
1.14296
1.12059
1.11038
1.11858
1.0665
1.1118
1.06944
1.07393
1.09778
1.06214
1.0511
1.08676
1.03603
1.01909
1.03364
1.02473
0.9539
0.918359
0.855745
0.72912
0.511205
0.312008
0.15254
0.0741493
0.0232908
0.0141489
-0.00114741
0.00526116
-0.00406727
0.00438684
-0.00430755
0.00432586
-0.00432191
0.00432271
-0.00432256
0.00432258
-0.00432258
0.00432258
-0.00432258
0.00432258
-0.00432258
0.00432258
-0.00432258
0.00432258
-0.00432258
0.00432258
-0.00432258
0.00432258
-0.00432258
0.00432258
-0.00432258
0.00432258
-0.00432258
0.00432258
-0.00432258
0.00432258
-0.00432258
0.00432258
-0.00432258
0.00432258
-0.00432258
0.00432258
-0.00432258
0.00432258
-0.00432259
0.00432251
-0.00432291
0.00432122
-0.00432735
0.00430879
-0.004354
0.00427064
-0.00437325
0.00431685
-0.00430281
0.00419792
-0.00466344
0.00424284
-0.00380262
0.00424475
-0.00554194
0.00470156
-0.00307237
0.00219807
-0.00435455
0.00639232
-0.00783851
0.00625449
-0.00449787
0.00139838
-0.000553673
-0.00128593
0.0006421
-0.00142215
0.00137905
0.219849
0.219849
1
1.07712
1.11282
1.13978
1.12817
1.1104
1.12812
1.07019
1.1135
1.07532
1.07376
1.09819
1.06865
1.0475
1.08601
1.03807
1.01744
1.0273
1.02593
0.954933
0.91734
0.85299
0.734696
0.520307
0.3234
0.159025
0.0793389
0.0243064
0.0159473
-0.00182659
0.0063377
-0.00501636
0.0053732
-0.0052839
0.0053047
-0.00530017
0.0053011
-0.00530092
0.00530095
-0.00530095
0.00530095
-0.00530095
0.00530095
-0.00530095
0.00530095
-0.00530095
0.00530095
-0.00530095
0.00530095
-0.00530095
0.00530095
-0.00530095
0.00530095
-0.00530095
0.00530095
-0.00530095
0.00530095
-0.00530095
0.00530095
-0.00530095
0.00530095
-0.00530095
0.00530095
-0.00530095
0.00530095
-0.00530095
0.00530094
-0.00530096
0.00530087
-0.00530131
0.00529945
-0.00530611
0.00528634
-0.00533339
0.00524919
-0.00534814
0.00529984
-0.00528629
0.00515859
-0.00563625
0.00527453
-0.00478305
0.00510551
-0.00647855
0.00587454
-0.00426678
0.00307357
-0.00490665
0.00698042
-0.00880018
0.00770622
-0.00622745
0.00311309
-0.00207032
-5.65792e-06
-0.000253895
-0.000812153
-0.000832047
-0.219682
-0.219682
1
1.06969
1.10798
1.13287
1.13133
1.10657
1.13228
1.07125
1.11071
1.07762
1.07058
1.09528
1.07283
1.0434
1.08335
1.03958
1.01591
1.02115
1.02629
0.956499
0.916671
0.850474
0.7392
0.528943
0.33415
0.165767
0.0843047
0.0256831
0.0174931
-0.00219381
0.00712864
-0.00566984
0.0060673
-0.00596698
0.00599054
-0.00598537
0.00598644
-0.00598623
0.00598627
-0.00598626
0.00598626
-0.00598626
0.00598626
-0.00598626
0.00598626
-0.00598626
0.00598626
-0.00598626
0.00598626
-0.00598626
0.00598626
-0.00598626
0.00598626
-0.00598626
0.00598626
-0.00598626
0.00598626
-0.00598626
0.00598626
-0.00598626
0.00598626
-0.00598626
0.00598626
-0.00598626
0.00598626
-0.00598626
0.00598626
-0.00598628
0.00598618
-0.00598667
0.00598462
-0.00599182
0.00597085
-0.00601962
0.00593496
-0.00602977
0.00598925
-0.00597788
0.00582715
-0.00631157
0.0060121
-0.00548226
0.00567781
-0.00709768
0.00673121
-0.00519307
0.00372015
-0.00519935
0.00723183
-0.00935436
0.0087498
-0.00762105
0.00456938
-0.00338871
0.00114969
-0.00109204
-0.000215865
0.000792256
0.219832
0.219832
1
1.06221
1.10183
1.12338
1.131
1.10012
1.13191
1.07055
1.10467
1.07715
1.06517
1.08978
1.07503
1.03933
1.07931
1.04077
1.01462
1.0154
1.02585
0.95852
0.916313
0.848305
0.742705
0.537146
0.34422
0.172755
0.089019
0.027433
0.01877
-0.00223303
0.00761847
-0.00601178
0.00645343
-0.00634101
0.00636763
-0.00636174
0.00636296
-0.00636272
0.00636277
-0.00636276
0.00636276
-0.00636276
0.00636276
-0.00636276
0.00636276
-0.00636276
0.00636276
-0.00636276
0.00636276
-0.00636276
0.00636276
-0.00636276
0.00636276
-0.00636276
0.00636276
-0.00636276
0.00636276
-0.00636276
0.00636276
-0.00636276
0.00636276
-0.00636276
0.00636276
-0.00636276
0.00636276
-0.00636276
0.00636276
-0.00636278
0.00636266
-0.00636321
0.00636097
-0.00636872
0.00634656
-0.00639691
0.00631216
-0.00640243
0.00636924
-0.00636171
0.00618815
-0.00667386
0.00643864
-0.00588389
0.00594858
-0.00738624
0.0072517
-0.00582696
0.00412027
-0.00522847
0.00714961
-0.00949632
0.00935826
-0.0086393
0.00572614
-0.00445924
0.00212118
-0.00182221
0.000300396
-0.00139784
-0.219674
-0.219674
1
1.05493
1.09497
1.11229
1.12797
1.09212
1.12779
1.06868
1.09644
1.0746
1.05814
1.08221
1.07544
1.03556
1.07425
1.0417
1.0136
1.01019
1.02468
0.960886
0.916239
0.846546
0.745315
0.544924
0.353602
0.179954
0.0934833
0.0295379
0.0197911
-0.00195778
0.00782114
-0.00605578
0.00654534
-0.00641966
0.00644967
-0.00644298
0.00644437
-0.0064441
0.00644415
-0.00644414
0.00644414
-0.00644414
0.00644414
-0.00644414
0.00644414
-0.00644414
0.00644414
-0.00644414
0.00644414
-0.00644414
0.00644414
-0.00644414
0.00644414
-0.00644414
0.00644414
-0.00644414
0.00644414
-0.00644414
0.00644414
-0.00644414
0.00644414
-0.00644414
0.00644414
-0.00644414
0.00644414
-0.00644414
0.00644414
-0.00644416
0.00644403
-0.00644465
0.00644219
-0.00645052
0.00642717
-0.00647898
0.00639451
-0.00647989
0.00645348
-0.00645134
0.0062556
-0.00673715
0.00656683
-0.00600075
0.00593394
-0.00736117
0.00744672
-0.00617352
0.00428383
-0.00501664
0.00676612
-0.00925509
0.00953918
-0.00927438
0.00657564
-0.00526802
0.00287918
-0.00241168
0.000745906
0.000283099
0.219851
0.219851
1
1.04801
1.08784
1.10035
1.12287
1.08342
1.12065
1.06595
1.08688
1.07052
1.04996
1.07292
1.07411
1.03211
1.06845
1.04233
1.01287
1.00557
1.02287
0.96347
0.916437
0.845217
0.747157
0.552264
0.362322
0.1873
0.0977257
0.0319527
0.0205962
-0.0014087
0.00777762
-0.00584247
0.00638386
-0.00624369
0.00627743
-0.00626985
0.00627144
-0.00627113
0.00627119
-0.00627118
0.00627118
-0.00627118
0.00627118
-0.00627118
0.00627118
-0.00627118
0.00627118
-0.00627118
0.00627118
-0.00627118
0.00627118
-0.00627118
0.00627118
-0.00627118
0.00627118
-0.00627118
0.00627118
-0.00627118
0.00627118
-0.00627118
0.00627118
-0.00627118
0.00627118
-0.00627118
0.00627118
-0.00627118
0.00627117
-0.0062712
0.00627105
-0.00627173
0.00626906
-0.00627798
0.00625347
-0.00630656
0.00622275