# vtk DataFile Version 2.0
FlowField
ASCII
DATASET STRUCTURED_GRID
DIMENSIONS 100 1 100
POINTS 10000 float
0 0 0
0.01 0 0
0.02 0 0
0.03 0 0
0.04 0 0
0.05 0 0
0.06 0 0
0.07 0 0
0.08 0 0
0.09 0 0
0.1 0 0
0.11 0 0
0.12 0 0
0.13 0 0
0.14 0 0
0.15 0 0
0.16 0 0
0.17 0 0
0.18 0 0
0.19 0 0
0.2 0 0
0.21 0 0
0.22 0 0
0.23 0 0
0.24 0 0
0.25 0 0
0.26 0 0
0.27 0 0
0.28 0 0
0.29 0 0
0.3 0 0
0.31 0 0
0.32 0 0
0.33 0 0
0.34 0 0
0.35 0 0
0.36 0 0
0.37 0 0
0.38 0 0
0.39 0 0
0.4 0 0
0.41 0 0
0.42 0 0
0.43 0 0
0.44 0 0
0.45 0 0
0.46 0 0
0.47 0 0
0.48 0 0
0.49 0 0
0.5 0 0
0.51 0 0
0.52 0 0
0.53 0 0
0.54 0 0
0.55 0 0
0.56 0 0
0.57 0 0
0.58 0 0
0.59 0 0
0.6 0 0
0.61 0 0
0.62 0 0
0.63 0 0
0.64 0 0
0.65 0 0
0.66 0 0
0.67 0 0
0.68 0 0
0.69 0 0
0.7 0 0
0.71 0 0
0.72 0 0
0.73 0 0
0.74 0 0
0.75 0 0
0.76 0 0
0.77 0 0
0.78 0 0
0.79 0 0
0.8 0 0
0.81 0 0
0.82 0 0
0.83 0 0
0.84 0 0
0.85 0 0
0.86 0 0
0.87 0 0
0.88 0 0
0.89 0 0
0.9 0 0
0.91 0 0
0.92 0 0
0.93 0 0
0.94 0 0
0.95 0 0
0.96 0 0
0.97 0 0
0.98 0 0
0.99 0 0
0 0.001 0
0.01 0.001 0
0.02 0.001 0
0.03 0.001 0
0.04 0.001 0
0.05 0.001 0
0.06 0.001 0
0.07 0.001 0
0.08 0.001 0
0.09 0.001 0
0.1 0.001 0
0.11 0.001 0
0.12 0.001 0
0.13 0.001 0
0.14 0.001 0
0.15 0.001 0
0.16 0.001 0
0.17 0.001 0
0.18 0.001 0
0.19 0.001 0
0.2 0.001 0
0.21 0.001 0
0.22 0.001 0
0.23 0.001 0
0.24 0.001 0
0.25 0.001 0
0.26 0.001 0
0.27 0.001 0
0.28 0.001 0
0.29 0.001 0
0.3 0.001 0
0.31 0.001 0
0.32 0.001 0
0.33 0.001 0
0.34 0.001 0
0.35 0.001 0
0.36 0.001 0
0.37 0.001 0
0.38 0.001 0
0.39 0.001 0
0.4 0.001 0
0.41 0.001 0
0.42 0.001 0
0.43 0.001 0
0.44 0.001 0
0.45 0.001 0
0.46 0.001 0
0.47 0.001 0
0.48 0.001 0
0.49 0.001 0
0.5 0.001 0
0.51 0.001 0
0.52 0.001 0
0.53 0.001 0
0.54 0.001 0
0.55 0.001 0
0.56 0.001 0
0.57 0.001 0
0.58 0.001 0
0.59 0.001 0
0.6 0.001 0
0.61 0.001 0
0.62 0.001 0
0.63 0.001 0
0.64 0.001 0
0.65 0.001 0
0.66 0.001 0
0.67 0.001 0
0.68 0.001 0
0.69 0.001 0
0.7 0.001 0
0.71 0.001 0
0.72 0.001 0
0.73 0.001 0
0.74 0.001 0
0.75 0.001 0
0.76 0.001 0
0.77 0.001 0
0.78 0.001 0
0.79 0.001 0
0.8 0.001 0
0.81 0.001 0
0.82 0.001 0
0.83 0.001 0
0.84 0.001 0
0.85 0.001 0
0.86 0.001 0
0.87 0.001 0
0.88 0.001 0
0.89 0.001 0
0.9 0.001 0
0.91 0.001 0
0.92 0.001 0
0.93 0.001 0
0.94 0.001 0
0.95 0.001 0
0.96 0.001 0
0.97 0.001 0
0.98 0.001 0
0.99 0.001 0
0 0.002 0
0.01 0.002 0
0.02 0.002 0
0.03 0.002 0
0.04 0.002 0
0.05 0.002 0
0.06 0.002 0
0.07 0.002 0
0.08 0.002 0
0.09 0.002 0
0.1 0.002 0
0.11 0.002 0
0.12 0.002 0
0.13 0.002 0
0.14 0.002 0
0.15 0.002 0
0.16 0.002 0
0.17 0.002 0
0.18 0.002 0
0.19 0.002 0
0.2 0.002 0
0.21 0.002 0
0.22 0.002 0
0.23 0.002 0
0.24 0.002 0
0.25 0.002 0
0.26 0.002 0
0.27 0.002 0
0.28 0.002 0
0.29 0.002 0
0.3 0.002 0
0.31 0.002 0
0.32 0.002 0
0.33 0.002 0
0.34 0.002 0
0.35 0.002 0
0.36 0.002 0
0.37 0.002 0
0.38 0.002 0
0.39 0.002 0
0.4 0.002 0
0.41 0.002 0
0.42 0.002 0
0.43 0.002 0
0.44 0.002 0
0.45 0.002 0
0.46 0.002 0
0.47 0.002 0
0.48 0.002 0
0.49 0.002 0
0.5 0.002 0
0.51 0.002 0
0.52 0.002 0
0.53 0.002 0
0.54 0.002 0
0.55 0.002 0
0.56 0.002 0
0.57 0.002 0
0.58 0.002 0
0.59 0.002 0
0.6 0.002 0
0.61 0.002 0
0.62 0.002 0
0.63 0.002 0
0.64 0.002 0
0.65 0.002 0
0.66 0.002 0
0.67 0.002 0
0.68 0.002 0
0.69 0.002 0
0.7 0.002 0
0.71 0.002 0
0.72 0.002 0
0.73 0.002 0
0.74 0.002 0
0.75 0.002 0
0.76 0.002 0
0.77 0.002 0
0.78 0.002 0
0.79 0.002 0
0.8 0.002 0
0.81 0.002 0
0.82 0.002 0
0.83 0.002 0
0.84 0.002 0
0.85 0.002 0
0.86 0.002 0
0.87 0.002 0
0.88 0.002 0
0.89 0.002 0
0.9 0.002 0
0.91 0.002 0
0.92 0.002 0
0.93 0.002 0
0.94 0.002 0
0.95 0.002 0
0.96 0.002 0
0.97 0.002 0
0.98 0.002 0
0.99 0.002 0
0 0.003 0
0.01 0.003 0
0.02 0.003 0
0.03 0.003 0
0.04 0.003 0
0.05 0.003 0
0.06 0.003 0
0.07 0.003 0
0.08 0.003 0
0.09 0.003 0
0.1 0.003 0
0.11 0.003 0
0.12 0.003 0
0.13 0.003 0
0.14 0.003 0
0.15 0.003 0
0.16 0.003 0
0.17 0.003 0
0.18 0.003 0
0.19 0.003 0
0.2 0.003 0
0.21 0.003 0
0.22 0.003 0
0.23 0.003 0
0.24 0.003 0
0.25 0.003 0
0.26 0.003 0
0.27 0.003 0
0.28 0.003 0
0.29 0.003 0
0.3 0.003 0
0.31 0.003 0
0.32 0.003 0
0.33 0.003 0
0.34 0.003 0
0.35 0.003 0
0.36 0.003 0
0.37 0.003 0
0.38 0.003 0
0.39 0.003 0
0.4 0.003 0
0.41 0.003 0
0.42 0.003 0
0.43 0.003 0
0.44 0.003 0
0.45 0.003 0
0.46 0.003 0
0.47 0.003 0
0.48 0.003 0
0.49 0.003 0
0.5 0.003 0
0.51 0.003 0
0.52 0.003 0
0.53 0.003 0
0.54 0.003 0
0.55 0.003 0
0.56 0.003 0
0.57 0.003 0
0.58 0.003 0
0.59 0.003 0
0.6 0.003 0
0.61 0.003 0
0.62 0.003 0
0.63 0.003 0
0.64 0.003 0
0.65 0.003 0
0.66 0.003 0
0.67 0.003 0
0.68 0.003 0
0.69 0.003 0
0.7 0.003 0
0.71 0.003 0
0.72 0.003 0
0.73 0.003 0
0.74 0.003 0
0.75 0.003 0
0.76 0.003 0
0.77 0.003 0
0.78 0.003 0
0.79 0.003 0
0.8 0.003 0
0.81 0.003 0
0.82 0.003 0
0.83 0.003 0
0.84 0.003 0
0.85 0.003 0
0.86 0.003 0
0.87 0.003 0
0.88 0.003 0
0.89 0.003 0
0.9 0.003 0
0.91 0.003 0
0.92 0.003 0
0.93 0.003 0
0.94 0.003 0
0.95 0.003 0
0.96 0.003 0
0.97 0.003 0
0.98 0.003 0
0.99 0.003 0
0 0.004 0
0.01 0.004 0
0.02 0.004 0
0.03 0.004 0
0.04 0.004 0
0.05 0.004 0
0.06 0.004 0
0.07 0.004 0
0.08 0.004 0
0.09 0.004 0
0.1 0.004 0
0.11 0.004 0
0.12 0.004 0
0.13 0.004 0
0.14 0.004 0
0.15 0.004 0
0.16 0.004 0
0.17 0.004 0
0.18 0.004 0
0.19 0.004 0
0.2 0.004 0
0.21 0.004 0
0.22 0.004 0
0.23 0.004 0
0.24 0.004 0
0.25 0.004 0
0.26 0.004 0
0.27 0.004 0
0.28 0.004 0
0.29 0.004 0
0.3 0.004 0
0.31 0.004 0
0.32 0.004 0
0.33 0.004 0
0.34 0.004 0
0.35 0.004 0
0.36 0.004 0
0.37 0.004 0
0.38 0.004 0
0.39 0.004 0
0.4 0.004 0
0.41 0.004 0
0.42 0.004 0
0.43 0.004 0
0.44 0.004 0
0.45 0.004 0
0.46 0.004 0
0.47 0.004 0
0.48 0.004 0
0.49 0.004 0
0.5 0.004 0
0.51 0.004 0
0.52 0.004 0
0.53 0.004 0
0.54 0.004 0
0.55 0.004 0
0.56 0.004 0
0.57 0.004 0
0.58 0.004 0
0.59 0.004 0
0.6 0.004 0
0.61 0.004 0
0.62 0.004 0
0.63 0.004 0
0.64 0.004 0
0.65 0.004 0
0.66 0.004 0
0.67 0.004 0
0.68 0.004 0
0.69 0.004 0
0.7 0.004 0
0.71 0.004 0
0.72 0.004 0
0.73 0.004 0
0.74 0.004 0
0.75 0.004 0
0.76 0.004 0
0.77 0.004 0
0.78 0.004 0
0.79 0.004 0
0.8 0.004 0
0.81 0.004 0
0.82 0.004 0
0.83 0.004 0
0.84 0.004 0
0.85 0.004 0
0.86 0.004 0
0.87 0.004 0
0.88 0.004 0
0.89 0.004 0
0.9 0.004 0
0.91 0.004 0
0.92 0.004 0
0.93 0.004 0
0.94 0.004 0
0.95 0.004 0
0.96 0.004 0
0.97 0.004 0
0.98 0.004 0
0.99 0.004 0
0 0.005 0
0.01 0.005 0
0.02 0.005 0
0.03 0.005 0
0.04 0.005 0
0.05 0.005 0
0.06 0.005 0
0.07 0.005 0
0.08 0.005 0
0.09 0.005 0
0.1 0.005 0
0.11 0.005 0
0.12 0.005 0
0.13 0.005 0
0.14 0.005 0
0.15 0.005 0
0.16 0.005 0
0.17 0.005 0
0.18 0.005 0
0.19 0.005 0
0.2 0.005 0
0.21 0.005 0
0.22 0.005 0
0.23 0.005 0
0.24 0.005 0
0.25 0.005 0
0.26 0.005 0
0.27 0.005 0
0.28 0.005 0
0.29 0.005 0
0.3 0.005 0
0.31 0.005 0
0.32 0.005 0
0.33 0.005 0
0.34 0.005 0
0.35 0.005 0
0.36 0.005 0
0.37 0.005 0
0.38 0.005 0
0.39 0.005 0
0.4 0.005 0
0.41 0.005 0
0.42 0.005 0
0.43 0.005 0
0.44 0.005 0
0.45 0.005 0
0.46 0.005 0
0.47 0.005 0
0.48 0.005 0
0.49 0.005 0
0.5 0.005 0
0.51 0.005 0
0.52 0.005 0
0.53 0.005 0
0.54 0.005 0
0.55 0.005 0
0.56 0.005 0
0.57 0.005 0
0.58 0.005 0
0.59 0.005 0
0.6 0.005 0
0.61 0.005 0
0.62 0.005 0
0.63 0.005 0
0.64 0.005 0
0.65 0.005 0
0.66 0.005 0
0.67 0.005 0
0.68 0.005 0
0.69 0.005 0
0.7 0.005 0
0.71 0.005 0
0.72 0.005 0
0.73 0.005 0
0.74 0.005 0
0.75 0.005 0
0.76 0.005 0
0.77 0.005 0
0.78 0.005 0
0.79 0.005 0
0.8 0.005 0
0.81 0.005 0
0.82 0.005 0
0.83 0.005 0
0.84 0.005 0
0.85 0.005 0
0.86 0.005 0
0.87 0.005 0
0.88 0.005 0
0.89 0.005 0
0.9 0.005 0
0.91 0.005 0
0.92 0.005 0
0.93 0.005 0
0.94 0.005 0
0.95 0.005 0
0.96 0.005 0
0.97 0.005 0
0.98 0.005 0
0.99 0.005 0
0 0.006 0
0.01 0.006 0
0.02 0.006 0
0.03 0.006 0
0.04 0.006 0
0.05 0.006 0
0.06 0.006 0
0.07 0.006 0
0.08 0.006 0
0.09 0.006 0
0.1 0.006 0
0.11 0.006 0
0.12 0.006 0
0.13 0.006 0
0.14 0.006 0
0.15 0.006 0
0.16 0.006 0
0.17 0.006 0
0.18 0.006 0
0.19 0.006 0
0.2 0.006 0
0.21 0.006 0
0.22 0.006 0
0.23 0.006 0
0.24 0.006 0
0.25 0.006 0
0.26 0.006 0
0.27 0.006 0
0.28 0.006 0
0.29 0.006 0
0.3 0.006 0
0.31 0.006 0
0.32 0.006 0
0.33 0.006 0
0.34 0.006 0
0.35 0.006 0
0.36 0.006 0
0.37 0.006 0
0.38 0.006 0
0.39 0.006 0
0.4 0.006 0
0.41 0.006 0
0.42 0.006 0
0.43 0.006 0
0.44 0.006 0
0.45 0.006 0
0.46 0.006 0
0.47 0.006 0
0.48 0.006 0
0.49 0.006 0
0.5 0.006 0
0.51 0.006 0
0.52 0.006 0
0.53 0.006 0
0.54 0.006 0
0.55 0.006 0
0.56 0.006 0
0.57 0.006 0
0.58 0.006 0
0.59 0.006 0
0.6 0.006 0
0.61 0.006 0
0.62 0.006 0
0.63 0.006 0
0.64 0.006 0
0.65 0.006 0
0.66 0.006 0
0.67 0.006 0
0.68 0.006 0
0.69 0.006 0
0.7 0.006 0
0.71 0.006 0
0.72 0.006 0
0.73 0.006 0
0.74 0.006 0
0.75 0.006 0
0.76 0.006 0
0.77 0.006 0
0.78 0.006 0
0.79 0.006 0
0.8 0.006 0
0.81 0.006 0
0.82 0.006 0
0.83 0.006 0
0.84 0.006 0
0.85 0.006 0
0.86 0.006 0
0.87 0.006 0
0.88 0.006 0
0.89 0.006 0
0.9 0.006 0
0.91 0.006 0
0.92 0.006 0
0.93 0.006 0
0.94 0.006 0
0.95 0.006 0
0.96 0.006 0
0.97 0.006 0
0.98 0.006 0
0.99 0.006 0
0 0.007 0
0.01 0.007 0
0.02 0.007 0
0.03 0.007 0
0.04 0.007 0
0.05 0.007 0
0.06 0.007 0
0.07 0.007 0
0.08 0.007 0
0.09 0.007 0
0.1 0.007 0
0.11 0.007 0
0.12 0.007 0
0.13 0.007 0
0.14 0.007 0
0.15 0.007 0
0.16 0.007 0
0.17 0.007 0
0.18 0.007 0
0.19 0.007 0
0.2 0.007 0
0.21 0.007 0
0.22 0.007 0
0.23 0.007 0
0.24 0.007 0
0.25 0.007 0
0.26 0.007 0
0.27 0.007 0
0.28 0.007 0
0.29 0.007 0
0.3 0.007 0
0.31 0.007 0
0.32 0.007 0
0.33 0.007 0
0.34 0.007 0
0.35 0.007 0
0.36 0.007 0
0.37 0.007 0
0.38 0.007 0
0.39 0.007 0
0.4 0.007 0
0.41 0.007 0
0.42 0.007 0
0.43 0.007 0
0.44 0.007 0
0.45 0.007 0
0.46 0.007 0
0.47 0.007 0
0.48 0.007 0
0.49 0.007 0
0.5 0.007 0
0.51 0.007 0
0.52 0.007 0
0.53 0.007 0
0.54 0.007 0
0.55 0.007 0
0.56 0.007 0
0.57 0.007 0
0.58 0.007 0
0.59 0.007 0
0.6 0.007 0
0.61 0.007 0
0.62 0.007 0
0.63 0.007 0
0.64 0.007 0
0.65 0.007 0
0.66 0.007 0
0.67 0.007 0
0.68 0.007 0
0.69 0.007 0
0.7 0.007 0
0.71 0.007 0
0.72 0.007 0
0.73 0.007 0
0.74 0.007 0
0.75 0.007 0
0.76 0.007 0
0.77 0.007 0
0.78 0.007 0
0.79 0.007 0
0.8 0.007 0
0.81 0.007 0
0.82 0.007 0
0.83 0.007 0
0.84 0.007 0
0.85 0.007 0
0.86 0.007 0
0.87 0.007 0
0.88 0.007 0
0.89 0.007 0
0.9 0.007 0
0.91 0.007 0
0.92 0.007 0
0.93 0.007 0
0.94 0.007 0
0.95 0.007 0
0.96 0.007 0
0.97 0.007 0
0.98 0.007 0
[...]
POINT_DATA 10000

SCALARS vel_X float 1
LOOKUP_TABLE default
0
0
0
0
0
0
0
0
0
0
0
0
0
0
0
0
0
0
0
0
0
0
0
0
0
0
0
0
0
0
0
0
0
0
0
0
0
0
0
0
0
0
0
0
0
0
0
0
0
0
0
0
0
0
0
0
0
0
0
0
0
0
0
0
0
0
0
0
0
0
0
0
0
0
0
0
0
0
0
0
0
0
0
0
0
0
0
0
0
0
0
0
0
0
0
0
0
0
0
0
1
0.326385
0.213607
0.182574
0.153473
0.181405
0.13545
0.179793
0.164713
0.154696
0.19317
0.194908
0.168665
0.230375
0.246431
0.24128
0.26809
0.352483
0.354109
0.284661
0.165391
0.0895584
0.0310473
0.0180586
-0.000473507
0.00609268
-0.00447294
0.00489756
-0.00479559
0.00481815
-0.00481352
0.00481441
-0.00481425
0.00481428
-0.00481427
0.00481427
-0.00481427
0.00481427
-0.00481427
0.00481427
-0.00481427
0.00481427
-0.00481427
0.00481427
-0.00481427
0.00481427
-0.00481427
0.00481427
-0.00481427
0.00481427
-0.00481427
0.00481427
-0.00481427
0.00481427
-0.00481427
0.00481427
-0.00481427
0.00481427
-0.00481427
0.00481427
-0.00481427
0.00481427
-0.00481427
0.00481427
-0.00481427
0.00481427
-0.00481427
0.00481427
-0.00481427
0.00481427
-0.00481427
0.00481427
-0.0048143
0.00481412
-0.00481499
0.00481145
-0.0048232
0.0047928
-0.00484924
0.00478942
-0.00478616
0.00485956
-0.0049415
0.00452638
-0.00465382
0.00540452
-0.00534877
0.00397522
-0.0034201
0.00452007
-0.00645744
0.0071821
-0.00671605
0.00505657
-0.00366077
0.00199149
-0.00158714
-0.00233152
-0.154928
-0.154928
1
0.570672
0.406516
0.349143
0.309088
0.339532
0.281339
0.342006
0.319829
0.314105
0.368699
0.36982
0.345688
0.435553
0.457909
0.456951
0.503364
0.608392
0.580434
0.447356
0.256421
0.135012
0.0479024
0.0259497
0.00033895
0.00802552
-0.00562202
0.00625071
-0.00609997
0.0061333
-0.00612647
0.00612777
-0.00612754
0.00612758
-0.00612757
0.00612757
-0.00612757
0.00612757
-0.00612757
0.00612757
-0.00612757
0.00612757
-0.00612757
0.00612757
-0.00612757
0.00612757
-0.00612757
0.00612757
-0.00612757
0.00612757
-0.00612757
0.00612757
-0.00612757
0.00612757
-0.00612757
0.00612757
-0.00612757
0.00612757
-0.00612757
0.00612757
-0.00612757
0.00612757
-0.00612757
0.00612757
-0.00612757
0.00612757
-0.00612757
0.00612757
-0.00612757
0.00612757
-0.00612757
0.00612757
-0.00612761
0.00612734
-0.00612864
0.00612337
-0.00614093
0.00609498
-0.00618235
0.00608305
-0.00609743
0.00619159
-0.00629957
0.0056983
-0.0059706
0.00696268
-0.00676113
0.00486799
-0.00435941
0.00595277
-0.00848742
0.00914556
-0.00838786
0.00604366
-0.00436566
0.0021346
-0.00193746
-0.000580453
0.212714
0.212714
1
0.748414
0.572952
0.503428
0.454235
0.483094
0.425163
0.484789
0.467967
0.463996
0.522226
0.529829
0.510525
0.605782
0.634593
0.637037
0.682035
0.773412
0.714591
0.539086
0.309052
0.16049
0.0587315
0.0298874
0.00173498
0.00835999
-0.00544804
0.00621299
-0.00602876
0.00606968
-0.00606125
0.00606287
-0.00606258
0.00606263
-0.00606262
0.00606262
-0.00606262
0.00606262
-0.00606262
0.00606262
-0.00606262
0.00606262
-0.00606262
0.00606262
-0.00606262
0.00606262
-0.00606262
0.00606262
-0.00606262
0.00606262
-0.00606262
0.00606262
-0.00606262
0.00606262
-0.00606262
0.00606262
-0.00606262
0.00606262
-0.00606262
0.00606262
-0.00606262
0.00606262
-0.00606262
0.00606262
-0.00606262
0.00606262
-0.00606262
0.00606262
-0.00606262
0.00606262
-0.00606262
0.00606261
-0.00606267
0.00606234
-0.00606392
0.00605756
-0.00607859
0.00602389
-0.00612774
0.00600757
-0.00603622
0.00612331
-0.00626342
0.0055867
-0.005903
0.00692512
-0.00675728
0.00477454
-0.00425605
0.00576772
-0.0083858
0.00906021
-0.00851492
0.00615686
-0.00465929
0.0022246
-0.00222166
-0.00177523
-0.184905
-0.184905
1
0.87442
0.71235
0.643212
0.584685
0.613952
0.558206
0.610359
0.604623
0.597272
0.654022
0.671632
0.65161
0.740904
0.775455
0.775479
0.803075
0.869887
0.79006
0.592461
0.342614
0.177557
0.0669278
0.0326336
0.00316493
0.00835229
-0.00500412
0.00589052
-0.00567539
0.00572354
-0.00571355
0.00571548
-0.00571513
0.00571519
-0.00571518
0.00571518
-0.00571518
0.00571518
-0.00571518
0.00571518
-0.00571518
0.00571518
-0.00571518
0.00571518
-0.00571518
0.00571518
-0.00571518
0.00571518
-0.00571518
0.00571518
-0.00571518
0.00571518
-0.00571518
0.00571518
-0.00571518
0.00571518
-0.00571518
0.00571518
-0.00571518
0.00571518
-0.00571518
0.00571518
-0.00571518
0.00571518
-0.00571518
0.00571518
-0.00571518
0.00571518
-0.00571518
0.00571518
-0.00571518
0.00571517
-0.00571524
0.00571485
-0.00571669
0.00570941
-0.00573307
0.00567258
-0.00578537
0.00565695
-0.00569071
0.00576148
-0.00594757
0.00523853
-0.00551349
0.00651232
-0.00652765
0.00459769
-0.00390944
0.00506784
-0.00766951
0.00856115
-0.00850438
0.00639448
-0.00515767
0.00258722
-0.00259253
0.000504686
0.199058
0.199058
1
0.961509
0.826159
0.765638
0.699746
0.730393
0.676834
0.71956
0.725294
0.711653
0.764438
0.791063
0.765716
0.843529
0.881194
0.873687
0.877759
0.920918
0.831257
0.6258
0.367104
0.191162
0.0741585
0.0350587
0.0046198
0.00827394
-0.00448923
0.00550062
-0.00525293
0.00530885
-0.00529715
0.00529943
-0.00529902
0.00529909
-0.00529908
0.00529908
-0.00529908
0.00529908
-0.00529908
0.00529908
-0.00529908
0.00529908
-0.00529908
0.00529908
-0.00529908
0.00529908
-0.00529908
0.00529908
-0.00529908
0.00529908
-0.00529908
0.00529908
-0.00529908
0.00529908
-0.00529908
0.00529908
-0.00529908
0.00529908
-0.00529908
0.00529908
-0.00529908
0.00529908
-0.00529908
0.00529908
-0.00529908
0.00529908
-0.00529908
0.00529908
-0.00529908
0.00529908
-0.00529908
0.00529906
-0.00529915
0.0052987
-0.00530079
0.00529263
-0.00531865
0.00525363
-0.00537152
0.00524239
-0.00527356
0.00532694
-0.00556613
0.00484199
-0.00502881
0.00600048
-0.00626447
0.00442213
-0.0034845
0.00421669
-0.00679112
0.00797891
-0.00846849
0.00667606
-0.00568818
0.00302948
-0.00295878
-0.000650337
-0.191207
-0.191207
1
1.02007
0.916563
0.869234
0.799475
0.830557
0.780093
0.812192
0.827694
0.80709
0.853803
0.886484
0.854239
0.917404
0.955403
0.93849
0.920313
0.944453
0.853588
0.648641
0.387407
0.203266
0.0812524
0.0373387
0.00624895
0.0080716
-0.00382392
0.00497045
-0.00468696
0.00475155
-0.00473792
0.00474059
-0.0047401
0.00474019
-0.00474017
0.00474018
-0.00474018
0.00474018
-0.00474018
0.00474018
-0.00474018
0.00474018
-0.00474018
0.00474018
-0.00474018
0.00474018
-0.00474018
0.00474018
-0.00474018
0.00474018
-0.00474018
0.00474018
-0.00474018
0.00474018
-0.00474018
0.00474018
-0.00474018
0.00474018
-0.00474018
0.00474018
-0.00474018
0.00474018
-0.00474018
0.00474018
-0.00474018
0.00474018
-0.00474018
0.00474018
-0.00474018
0.00474018
-0.00474018
0.00474016
-0.00474026
0.00473974
-0.00474211
0.00473304
-0.00476135
0.0046924
-0.00481329
0.00468777
-0.00471168
0.00474843
-0.00504133
0.00431347
-0.00439278
0.00533486
-0.00585585
0.00412176
-0.00293759
0.0032439
-0.00575231
0.00720539
-0.00820231
0.0067524
-0.00602121
0.00336187
-0.00319045
0.00144189
0.196035
0.196035
1
1.05807
0.986153
0.953977
0.884053
0.913735
0.868019
0.888277
0.911537
0.884535
0.923177
0.958961
0.920533
0.967186
1.00383
0.978636
0.942957
0.952567
0.86586
0.665739
0.405728
0.214638
0.0885528
0.039507
0.00813716
0.00769547
-0.00294847
0.00424298
-0.00391976
0.0039941
-0.00397827
0.0039814
-0.00398082
0.00398092
-0.00398091
0.00398091
-0.00398091
0.00398091
-0.00398091
0.00398091
-0.00398091
0.00398091
-0.00398091
0.00398091
-0.00398091
0.00398091
-0.00398091
0.00398091
-0.00398091
0.00398091
-0.00398091
0.00398091
-0.00398091
0.00398091
-0.00398091
0.00398091
-0.00398091
0.00398091
-0.00398091
0.00398091
-0.00398091
0.00398091
-0.00398091
0.00398091
-0.00398091
0.00398091
-0.00398091
0.00398091
-0.00398091
0.00398091
-0.00398091
0.00398089
-0.00398101
0.00398041
-0.00398308
0.00397306
-0.00400365
0.00393112
-0.00405372
0.00393428
-0.00394884
0.00396905
-0.00431272
0.0035929
-0.00355966
0.00446006
-0.00522037
0.00362553
-0.00224063
0.0021352
-0.00450721
0.00614607
-0.00758719
0.00650396
-0.00606108
0.00350638
-0.00328703
2.07604e-05
-0.192774
-0.192774
1
1.08139
1.03778
1.02082
0.953946
0.980361
0.94109
0.948621
0.977817
0.945549
0.974617
1.01127
0.968589
0.99807
1.03289
1.00219
0.954412
0.952652
0.872768
0.679409
0.422955
0.225599
0.0961423
0.0416074
0.0102805
0.00716251
-0.0018755
0.00333226
-0.00296493
0.00305021
-0.00303188
0.00303554
-0.00303486
0.00303498
-0.00303496
0.00303496
-0.00303496
0.00303496
-0.00303496
0.00303496
-0.00303496
0.00303496
-0.00303496
0.00303496
-0.00303496
0.00303496
-0.00303496
0.00303496
-0.00303496
0.00303496
-0.00303496
0.00303496
-0.00303496
0.00303496
-0.00303496
0.00303496
-0.00303496
0.00303496
-0.00303496
0.00303496
-0.00303496
0.00303496
-0.00303496
0.00303496
-0.00303496
0.00303496
-0.00303496
0.00303496
-0.00303496
0.00303496
-0.00303497
0.00303494
-0.00303508
0.0030344
-0.00303739
0.00302637
-0.00305927
0.00298341
-0.00310674
0.00299489
-0.00299974
0.00300239
-0.00339247
0.00269326
-0.00254931
0.00338882
-0.00436175
0.00294361
-0.00141794
0.000916343
-0.00307432
0.00480923
-0.00662796
0.00593014
-0.0058093
0.00345565
-0.00322819
0.00186265
0.195124
0.195124
1
1.09427
1.07436
1.07133
1.01004
1.03165
1.00017
0.99477
1.02825
0.992153
1.01091
1.04693
1.0024
1.01518
1.04846
1.01536
0.960188
0.948936
0.876702
0.69078
0.439386
0.236294
0.103988
0.0437017
0.0126276
0.00652902
-0.000658901
0.00229319
-0.001877
0.00197454
-0.00195339
0.00195765
-0.00195685
0.00195699
-0.00195697
0.00195697
-0.00195697
0.00195697
-0.00195697
0.00195697
-0.00195697
0.00195697
-0.00195697
0.00195697
-0.00195697
0.00195697
-0.00195697
0.00195697
-0.00195697
0.00195697
-0.00195697
0.00195697
-0.00195697
0.00195697
-0.00195697
0.00195697
-0.00195697
0.00195697
-0.00195697
0.00195697
-0.00195697
0.00195697
-0.00195697
0.00195697
-0.00195697
0.00195697
-0.00195697
0.00195697
-0.00195697
0.00195697
-0.00195697
0.00195695
-0.0019571
0.00195633
-0.00195967
0.0019476
-0.00198281
0.00190392
-0.00202711
0.00192382
-0.00191964
0.00190297
-0.00233453
0.00166839
-0.00141933
0.00217645
-0.00333225
0.0021259
-0.000521126
-0.000355529
-0.00152116
0.00326607
-0.00539184
0.005082
-0.00530445
0.00322704
-0.00306125
0.000227093
-0.193374
-0.193374
1
1.09977
1.09872
1.1074
1.05363
1.0693
1.04647
1.02872
1.06493
1.02664
1.03512
1.0695
1.02559
1.02301
1.05521
1.02238
0.963443
0.94372
0.87886
0.700421
0.45507
0.246791
0.112016
0.0458533
0.0151139
0.00586164
0.000636401
0.00119158
-0.000721426
0.000832661
-0.000808324
0.000813272
-0.000812334
0.0008125
-0.000812473
0.000812477
-0.000812476
0.000812476
-0.000812476
0.000812476
-0.000812476
0.000812476
-0.000812476
0.000812476
-0.000812476
0.000812476
-0.000812476
0.000812476
-0.000812476
0.000812476
-0.000812476
0.000812476
-0.000812476
0.000812476
-0.000812476
0.000812476
-0.000812476
0.000812476
-0.000812476
0.000812476
-0.000812476
0.000812476
-0.000812476
0.000812476
-0.000812476
0.000812476
-0.000812476
0.000812476
-0.000812476
0.000812476
-0.00081248
0.00081245
-0.000812625
0.000811751
-0.000815469
0.000802311
-0.000839813
0.000758181
-0.000880445
0.000786352
-0.000774443
0.000736388
-0.0012042
0.000582548
-0.000236852
0.000891079
-0.00219813
0.0012307
0.000393437
-0.00161409
6.85262e-05
0.00160693
-0.00396288
0.00402334
-0.00459347
0.00284447
-0.00277558
0.00189052
0.194691
0.194691
1
1.10011
1.11342
1.13112
1.08623
1.09524
1.08148
1.05264
1.0901
1.05133
1.0502
1.08224
1.04121
1.02514
1.05651
1.02588
0.965824
0.938216
0.879854
0.708649
0.469971
0.257126
0.120145
0.0481197
0.0176759
0.00522426
0.00194784
9.07993e-05
0.000438757
-0.000312272
0.000340199
-0.000334471
0.000335567
-0.00033537
0.000335403
-0.000335398
0.000335399
-0.000335399
0.000335399
-0.000335399
0.000335399
-0.000335399
0.000335399
-0.000335399
0.000335399
-0.000335399
0.000335399
-0.000335399
0.000335399
-0.000335399
0.000335399
-0.000335399
0.000335399
-0.000335399
0.000335399
-0.000335399
0.000335399
-0.000335399
0.000335399
-0.000335399
0.000335399
-0.000335399
0.000335399
-0.000335399
0.000335399
-0.000335399
0.000335399
-0.000335399
0.000335399
-0.0003354
0.000335394
-0.000335429
0.000335229
-0.000336214
0.000332098
-0.000346379
0.000306613
-0.000390659
0.000270097
-0.000354571
0.000372554
-0.000433981
-6.44869e-05
-0.000502757
0.000934139
-0.000400477
-0.00102441
0.000312896
0.00127376
-0.00279648
0.00161345
-7.93223e-05
-0.00242479
0.00281922
-0.0037252
0.0023351
-0.00241882
0.000105104
-0.193699
-0.193699
1
1.09691
1.12071
1.14463
1.10946
1.11149
1.10681
1.06865
1.10599
1.06842
1.05875
1.08789
1.05162
1.02414
1.05459
1.02736
0.968088
0.93305
0.880017
0.715672
0.484029
0.267318
0.128295
0.0505502
0.0202557
0.00467442
0.00321895
-0.000951924
0.00154667
-0.00140326
0.00143521
-0.0014286
0.00142988
-0.00142965
0.00142969
-0.00142968
0.00142968
-0.00142968
0.00142968
-0.00142968
0.00142968
-0.00142968
0.00142968
-0.00142968
0.00142968
-0.00142968
0.00142968
-0.00142968
0.00142968
-0.00142968
0.00142968
-0.00142968
0.00142968
-0.00142968
0.00142968
-0.00142968
0.00142968
-0.00142968
0.00142968
-0.00142968
0.00142968
-0.00142968
0.00142968
-0.00142968
0.00142968
-0.00142968
0.00142968
-0.00142968
0.00142968
-0.00142968
0.00142968
-0.00142972
0.00142949
-0.00143059
0.00142605
-0.00144149
0.00139951
-0.00148562
0.0013675
-0.00144213
0.00146432
-0.0015508
0.00102766
-0.00153229
0.00203626
-0.00163716
0.000129292
-0.000578166
0.00207441
-0.00384811
0.0030416
-0.00171153
-0.000857105
0.00153457
-0.00275036
0.00173039
-0.00198255
0.00164616
0.194447
0.194447
1
1.09138
1.12252
1.14999
1.12492
1.12005
1.12406
1.07868
1.11463
1.07977
1.06286
1.08867
1.05851
1.02174
1.05086
1.02767
0.970509
0.928541
0.879554
0.721654
0.497183
0.277376
0.136391
0.0531856
0.0228023
0.00426202
0.00440071
-0.00188685
0.00255292
-0.00239078
0.00242724
-0.00241963
0.00242111
-0.00242084
0.00242089
-0.00242088
0.00242088
-0.00242088
0.00242088
-0.00242088
0.00242088
-0.00242088
0.00242088
-0.00242088
0.00242088
-0.00242088
0.00242088
-0.00242088
0.00242088
-0.00242088
0.00242088
-0.00242088
0.00242088
-0.00242088
0.00242088
-0.00242088
0.00242088
-0.00242088
0.00242088
-0.00242088
0.00242088
-0.00242088
0.00242088
-0.00242088
0.00242088
-0.00242088
0.00242088
-0.00242088
0.00242088
-0.00242088
0.00242087
-0.00242092
0.00242066
-0.0024219
0.00241691
-0.00243353
0.0023894
-0.00247719
0.00236221
-0.00242698
0.00245137
-0.00256414
0.00202267
-0.00245829
0.00302007
-0.00276547
0.00121017
-0.00139921
0.0027574
-0.00472459
0.00429265
-0.00321817
0.000666185
0.000233221
-0.00172062
0.00106481
-0.00151863
-0.000236305
-0.193878
-0.193878
1
1.08443
1.12043
1.1491
1.13407
1.12273
1.13471
1.08439
1.11782
1.08692
1.06417
1.08626
1.06302
1.01902
1.04615
1.02724
0.973123
0.924844
0.878613
0.726736
0.509388
0.287301
0.144368
0.0560565
0.0252732
0.00402763
0.0054532
-0.00267339
0.00341725
-0.00323444
0.00327592
-0.00326719
0.0032689
-0.00326859
0.00326864
-0.00326863
0.00326863
-0.00326863
0.00326863
-0.00326863
0.00326863
-0.00326863
0.00326863
-0.00326863
0.00326863
-0.00326863
0.00326863
-0.00326863
0.00326863
-0.00326863
0.00326863
-0.00326863
0.00326863
-0.00326863
0.00326863
-0.00326863
0.00326863
-0.00326863
0.00326863
-0.00326863
0.00326863
-0.00326863
0.00326863
-0.00326863
0.00326863
-0.00326863
0.00326863
-0.00326863
0.00326863
-0.00326864
0.00326863
-0.00326868
0.00326839
-0.00326976
0.00326431
-0.00328212
0.00323594
-0.00332501
0.00321383
-0.00326886
0.00329341
-0.0034332
0.00288003
-0.00324208
0.00384572
-0.00374135
0.00217383
-0.00211438
0.00329363
-0.00539335
0.00531964
-0.00453946
0.00207919
-0.00102478
-0.000686026
0.000373558
-0.0010219
0.00123607
0.194323
0.194323
1
1.07674
1.11572
1.14365
1.13822
1.12111
1.14007
1.08712
1.11707
1.09105
1.06383
1.08187
1.06584
1.01657
1.04097
1.0263
0.975858
0.922024
0.877311
0.731045
0.520614
0.297087
0.15217
0.0591819
0.0276368
0.00400072
0.00634733
-0.00328186
0.0041103
-0.00390477
0.00395184
-0.00394184
0.00394382
-0.00394345
0.00394351
-0.0039435
0.0039435
-0.0039435
0.0039435
-0.0039435
0.0039435
-0.0039435
0.0039435
-0.0039435
0.0039435
-0.0039435
0.0039435
-0.0039435
0.0039435
-0.0039435
0.0039435
-0.0039435
0.0039435
-0.0039435
0.0039435
-0.0039435
0.0039435
-0.0039435
0.0039435
-0.0039435
0.0039435
-0.0039435
0.0039435
-0.0039435
0.0039435
-0.0039435
0.0039435
-0.0039435
0.0039435
-0.00394351
0.00394349
-0.00394356
0.00394323
-0.00394475
0.00393881
-0.00395783
0.00390969
-0.00399964
0.00389285
-0.00393846
0.00396112
-0.00412807
0.00357001
-0.00385573
0.00448471
-0.0045321
0.0029862
-0.00269696
0.00366437
-0.00583487
0.00609059
-0.00562964
0.00332721
-0.00218646
0.000308118
-0.000311129
-0.000543955
-0.000688778
-0.193956
-0.193956
1
1.06879
1.10937
1.13511
1.13848
1.11652
1.14124
1.08789
1.11358
1.09301
1.06264
1.07637
1.06739
1.01469
1.03564
1.02497
0.978607
0.92009
0.875755
0.734697
0.530852
0.306722
0.159755
0.0625687
0.0298721
0.00419898
0.00706561
-0.00369421
0.00461434
-0.00438389
0.00443715
-0.00442574
0.00442802
-0.00442759
0.00442766
-0.00442765
0.00442765
-0.00442765
0.00442765
-0.00442765
0.00442765
-0.00442765
0.00442765
-0.00442765
0.00442765
-0.00442765
0.00442765
-0.00442765
0.00442765
-0.00442765
0.00442765
-0.00442765
0.00442765
-0.00442765
0.00442765
-0.00442765
0.00442765
-0.00442765
0.00442765
-0.00442765
0.00442765
-0.00442765
0.00442765
-0.00442765
0.00442765
-0.00442765
0.00442765
-0.00442765
0.00442765
-0.00442766
0.00442764
-0.00442771
0.00442734
-0.00442903
0.00442258
-0.00444281
0.00439285
-0.00448324
0.00438138
-0.00441802
0.0044368
-0.00463053
0.00407436
-0.00428282
0.00492055
-0.00511716
0.00362438
-0.00313016
0.00386158
-0.00604274
0.00658881
-0.00645812
0.00436876
-0.00320822
0.001223
-0.000961676
-7.48379e-05
0.000768931
0.194281
0.194281
1
1.06094
1.10213
1.12466
1.13578
1.10999
1.13912
1.08743
1.10828
1.09342
1.06109
1.07036
1.06792
1.01348
1.03034
1.02334
0.981261
0.919013
0.874037
0.737795
0.54011
0.316185
0.167091
0.0662127
0.0319684
0.00462945
0.00760087
-0.00390282
0.00492206
-0.00466437
0.00472447
-0.00471147
0.00471409
-0.0047136
0.00471368
-0.00471367
0.00471367
-0.00471367
0.00471367
-0.00471367
0.00471367
-0.00471367
0.00471367
-0.00471367
0.00471367
-0.00471367
0.00471367
-0.00471367
0.00471367
-0.00471367
0.00471367
-0.00471367
0.00471367
-0.00471367
0.00471367
-0.00471367
0.00471367
-0.00471367
0.00471367
-0.00471367
0.00471367
-0.00471367
0.00471367
-0.00471367
0.00471367
-0.00471367
0.00471367
-0.00471367
0.00471367
-0.00471367
0.00471366
-0.00471374
0.00471332
-0.00471518
0.00470821
-0.00472964
0.004678
-0.00476841
0.00467193
-0.0047002
0.00471322
-0.00493279
0.00438517
-0.00451714
0.00514746
-0.005487
0.00407565
-0.00340603
0.00388642
-0.00602185
0.00681135
-0.00700861
0.00517551
-0.00405616
0.00202602
-0.00155548
0.000341652
-0.00114836
-0.193972
-0.193972
1
1.05345
1.09449
1.11326
1.13091
1.10234
1.1344
1.08618
1.10185
1.09267
1.05948
1.06423
1.06755
1.01292
1.02521
1.02147
0.983722
0.91874
0.872242
0.740435
0.548412
0.325454
0.174154
0.0701016
0.0339225
0.00529115
0.00795377
-0.00390795
0.00503401
-0.00474662
0.00481426
-0.0047995
0.0048025
-0.00480193
0.00480203
-0.00480201
0.00480202
-0.00480202
0.00480202
-0.00480202
0.00480202
-0.00480202
0.00480202
-0.00480202
0.00480202
-0.00480202
0.00480202
-0.00480202
0.00480202
-0.00480202
0.00480202
-0.00480202
0.00480202
-0.00480202
0.00480202
-0.00480202
0.00480202
-0.00480202
0.00480202
-0.00480202
0.00480202
-0.00480202
0.00480202
-0.00480202
0.00480202
-0.00480202
0.00480202
-0.00480202
0.00480202
-0.00480202
0.004802
-0.00480209
0.00480163
-0.00480367
0.00479615
-0.00481877
0.00476561
-0.00485561
0.0047649
-0.00478553
0.00479103
-0.00503498
0.00450228
-0.00456017
0.00516781
-0.00564058
0.00433512
-0.0035231
0.00374641
-0.00578524
0.00676596
-0.00727656
0.00573059
-0.00470519
0.00268925
-0.00207223
0.000722974
0.000338033
0.194282
0.194282
1
1.04648
1.0868
1.10163
1.12446
1.09415
1.1276
1.08439
1.09477
1.09104
1.05794
1.05826
1.06638
1.01296
1.02034
1.01941
0.985907
0.919202
0.870443
0.742704
0.555793
0.334505
0.180929
0.0742172
0.0357364
0.00617712
0.00813062
-0.00371561
0.00495647
-0.00463678
0.00471271
-0.004696
0.00469942
-0.00469877
0.00469889
-0.00469887
0.00469887
-0.00469887
0.00469887
-0.00469887
0.00469887
-0.00469887
0.00469887
-0.00469887
0.00469887
-0.00469887
0.00469887
-0.00469887