# vtk DataFile Version 2.0
FlowField
ASCII
DATASET STRUCTURED_GRID
DIMENSIONS 100 1 100
POINTS 10000 float
0 0 0
0.01 0 0
0.02 0 0
0.03 0 0
0.04 0 0
0.05 0 0
0.06 0 0
0.07 0 0
0.08 0 0
0.09 0 0
0.1 0 0
0.11 0 0
0.12 0 0
0.13 0 0
0.14 0 0
0.15 0 0
0.16 0 0
0.17 0 0
0.18 0 0
0.19 0 0
0.2 0 0
0.21 0 0
0.22 0 0
0.23 0 0
0.24 0 0
0.25 0 0
0.26 0 0
0.27 0 0
0.28 0 0
0.29 0 0
0.3 0 0
0.31 0 0
0.32 0 0
0.33 0 0
0.34 0 0
0.35 0 0
0.36 0 0
0.37 0 0
0.38 0 0
0.39 0 0
0.4 0 0
0.41 0 0
0.42 0 0
0.43 0 0
0.44 0 0
0.45 0 0
0.46 0 0
0.47 0 0
0.48 0 0
0.49 0 0
0.5 0 0
0.51 0 0
0.52 0 0
0.53 0 0
0.54 0 0
0.55 0 0
0.56 0 0
0.57 0 0
0.58 0 0
0.59 0 0
0.6 0 0
0.61 0 0
0.62 0 0
0.63 0 0
0.64 0 0
0.65 0 0
0.66 0 0
0.67 0 0
0.68 0 0
0.69 0 0
0.7 0 0
0.71 0 0
0.72 0 0
0.73 0 0
0.74 0 0
0.75 0 0
0.76 0 0
0.77 0 0
0.78 0 0
0.79 0 0
0.8 0 0
0.81 0 0
0.82 0 0
0.83 0 0
0.84 0 0
0.85 0 0
0.86 0 0
0.87 0 0
0.88 0 0
0.89 0 0
0.9 0 0
0.91 0 0
0.92 0 0
0.93 0 0
0.94 0 0
0.95 0 0
0.96 0 0
0.97 0 0
0.98 0 0
0.99 0 0
0 0.001 0
0.01 0.001 0
0.02 0.001 0
0.03 0.001 0
0.04 0.001 0
0.05 0.001 0
0.06 0.001 0
0.07 0.001 0
0.08 0.001 0
0.09 0.001 0
0.1 0.001 0
0.11 0.001 0
0.12 0.001 0
0.13 0.001 0
0.14 0.001 0
0.15 0.001 0
0.16 0.001 0
0.17 0.001 0
0.18 0.001 0
0.19 0.001 0
0.2 0.001 0
0.21 0.001 0
0.22 0.001 0
0.23 0.001 0
0.24 0.001 0
0.25 0.001 0
0.26 0.001 0
0.27 0.001 0
0.28 0.001 0
0.29 0.001 0
0.3 0.001 0
0.31 0.001 0
0.32 0.001 0
0.33 0.001 0
0.34 0.001 0
0.35 0.001 0
0.36 0.001 0
0.37 0.001 0
0.38 0.001 0
0.39 0.001 0
0.4 0.001 0
0.41 0.001 0
0.42 0.001 0
0.43 0.001 0
0.44 0.001 0
0.45 0.001 0
0.46 0.001 0
0.47 0.001 0
0.48 0.001 0
0.49 0.001 0
0.5 0.001 0
0.51 0.001 0
0.52 0.001 0
0.53 0.001 0
0.54 0.001 0
0.55 0.001 0
0.56 0.001 0
0.57 0.001 0
0.58 0.001 0
0.59 0.001 0
0.6 0.001 0
0.61 0.001 0
0.62 0.001 0
0.63 0.001 0
0.64 0.001 0
0.65 0.001 0
0.66 0.001 0
0.67 0.001 0
0.68 0.001 0
0.69 0.001 0
0.7 0.001 0
0.71 0.001 0
0.72 0.001 0
0.73 0.001 0
0.74 0.001 0
0.75 0.001 0
0.76 0.001 0
0.77 0.001 0
0.78 0.001 0
0.79 0.001 0
0.8 0.001 0
0.81 0.001 0
0.82 0.001 0
0.83 0.001 0
0.84 0.001 0
0.85 0.001 0
0.86 0.001 0
0.87 0.001 0
0.88 0.001 0
0.89 0.001 0
0.9 0.001 0
0.91 0.001 0
0.92 0.001 0
0.93 0.001 0
0.94 0.001 0
0.95 0.001 0
0.96 0.001 0
0.97 0.001 0
0.98 0.001 0
0.99 0.001 0
0 0.002 0
0.01 0.002 0
0.02 0.002 0
0.03 0.002 0
0.04 0.002 0
0.05 0.002 0
0.06 0.002 0
0.07 0.002 0
0.08 0.002 0
0.09 0.002 0
0.1 0.002 0
0.11 0.002 0
0.12 0.002 0
0.13 0.002 0
0.14 0.002 0
0.15 0.002 0
0.16 0.002 0
0.17 0.002 0
0.18 0.002 0
0.19 0.002 0
0.2 0.002 0
0.21 0.002 0
0.22 0.002 0
0.23 0.002 0
0.24 0.002 0
0.25 0.002 0
0.26 0.002 0
0.27 0.002 0
0.28 0.002 0
0.29 0.002 0
0.3 0.002 0
0.31 0.002 0
0.32 0.002 0
0.33 0.002 0
0.34 0.002 0
0.35 0.002 0
0.36 0.002 0
0.37 0.002 0
0.38 0.002 0
0.39 0.002 0
0.4 0.002 0
0.41 0.002 0
0.42 0.002 0
0.43 0.002 0
0.44 0.002 0
0.45 0.002 0
0.46 0.002 0
0.47 0.002 0
0.48 0.002 0
0.49 0.002 0
0.5 0.002 0
0.51 0.002 0
0.52 0.002 0
0.53 0.002 0
0.54 0.002 0
0.55 0.002 0
0.56 0.002 0
0.57 0.002 0
0.58 0.002 0
0.59 0.002 0
0.6 0.002 0
0.61 0.002 0
0.62 0.002 0
0.63 0.002 0
0.64 0.002 0
0.65 0.002 0
0.66 0.002 0
0.67 0.002 0
0.68 0.002 0
0.69 0.002 0
0.7 0.002 0
0.71 0.002 0
0.72 0.002 0
0.73 0.002 0
0.74 0.002 0
0.75 0.002 0
0.76 0.002 0
0.77 0.002 0
0.78 0.002 0
0.79 0.002 0
0.8 0.002 0
0.81 0.002 0
0.82 0.002 0
0.83 0.002 0
0.84 0.002 0
0.85 0.002 0
0.86 0.002 0
0.87 0.002 0
0.88 0.002 0
0.89 0.002 0
0.9 0.002 0
0.91 0.002 0
0.92 0.002 0
0.93 0.002 0
0.94 0.002 0
0.95 0.002 0
0.96 0.002 0
0.97 0.002 0
0.98 0.002 0
0.99 0.002 0
0 0.003 0
0.01 0.003 0
0.02 0.003 0
0.03 0.003 0
0.04 0.003 0
0.05 0.003 0
0.06 0.003 0
0.07 0.003 0
0.08 0.003 0
0.09 0.003 0
0.1 0.003 0
0.11 0.003 0
0.12 0.003 0
0.13 0.003 0
0.14 0.003 0
0.15 0.003 0
0.16 0.003 0
0.17 0.003 0
0.18 0.003 0
0.19 0.003 0
0.2 0.003 0
0.21 0.003 0
0.22 0.003 0
0.23 0.003 0
0.24 0.003 0
0.25 0.003 0
0.26 0.003 0
0.27 0.003 0
0.28 0.003 0
0.29 0.003 0
0.3 0.003 0
0.31 0.003 0
0.32 0.003 0
0.33 0.003 0
0.34 0.003 0
0.35 0.003 0
0.36 0.003 0
0.37 0.003 0
0.38 0.003 0
0.39 0.003 0
0.4 0.003 0
0.41 0.003 0
0.42 0.003 0
0.43 0.003 0
0.44 0.003 0
0.45 0.003 0
0.46 0.003 0
0.47 0.003 0
0.48 0.003 0
0.49 0.003 0
0.5 0.003 0
0.51 0.003 0
0.52 0.003 0
0.53 0.003 0
0.54 0.003 0
0.55 0.003 0
0.56 0.003 0
0.57 0.003 0
0.58 0.003 0
0.59 0.003 0
0.6 0.003 0
0.61 0.003 0
0.62 0.003 0
0.63 0.003 0
0.64 0.003 0
0.65 0.003 0
0.66 0.003 0
0.67 0.003 0
0.68 0.003 0
0.69 0.003 0
0.7 0.003 0
0.71 0.003 0
0.72 0.003 0
0.73 0.003 0
0.74 0.003 0
0.75 0.003 0
0.76 0.003 0
0.77 0.003 0
0.78 0.003 0
0.79 0.003 0
0.8 0.003 0
0.81 0.003 0
0.82 0.003 0
0.83 0.003 0
0.84 0.003 0
0.85 0.003 0
0.86 0.003 0
0.87 0.003 0
0.88 0.003 0
0.89 0.003 0
0.9 0.003 0
0.91 0.003 0
0.92 0.003 0
0.93 0.003 0
0.94 0.003 0
0.95 0.003 0
0.96 0.003 0
0.97 0.003 0
0.98 0.003 0
0.99 0.003 0
0 0.004 0
0.01 0.004 0
0.02 0.004 0
0.03 0.004 0
0.04 0.004 0
0.05 0.004 0
0.06 0.004 0
0.07 0.004 0
0.08 0.004 0
0.09 0.004 0
0.1 0.004 0
0.11 0.004 0
0.12 0.004 0
0.13 0.004 0
0.14 0.004 0
0.15 0.004 0
0.16 0.004 0
0.17 0.004 0
0.18 0.004 0
0.19 0.004 0
0.2 0.004 0
0.21 0.004 0
0.22 0.004 0
0.23 0.004 0
0.24 0.004 0
0.25 0.004 0
0.26 0.004 0
0.27 0.004 0
0.28 0.004 0
0.29 0.004 0
0.3 0.004 0
0.31 0.004 0
0.32 0.004 0
0.33 0.004 0
0.34 0.004 0
0.35 0.004 0
0.36 0.004 0
0.37 0.004 0
0.38 0.004 0
0.39 0.004 0
0.4 0.004 0
0.41 0.004 0
0.42 0.004 0
0.43 0.004 0
0.44 0.004 0
0.45 0.004 0
0.46 0.004 0
0.47 0.004 0
0.48 0.004 0
0.49 0.004 0
0.5 0.004 0
0.51 0.004 0
0.52 0.004 0
0.53 0.004 0
0.54 0.004 0
0.55 0.004 0
0.56 0.004 0
0.57 0.004 0
0.58 0.004 0
0.59 0.004 0
0.6 0.004 0
0.61 0.004 0
0.62 0.004 0
0.63 0.004 0
0.64 0.004 0
0.65 0.004 0
0.66 0.004 0
0.67 0.004 0
0.68 0.004 0
0.69 0.004 0
0.7 0.004 0
0.71 0.004 0
0.72 0.004 0
0.73 0.004 0
0.74 0.004 0
0.75 0.004 0
0.76 0.004 0
0.77 0.004 0
0.78 0.004 0
0.79 0.004 0
0.8 0.004 0
0.81 0.004 0
0.82 0.004 0
0.83 0.004 0
0.84 0.004 0
0.85 0.004 0
0.86 0.004 0
0.87 0.004 0
0.88 0.004 0
0.89 0.004 0
0.9 0.004 0
0.91 0.004 0
0.92 0.004 0
0.93 0.004 0
0.94 0.004 0
0.95 0.004 0
0.96 0.004 0
0.97 0.004 0
0.98 0.004 0
0.99 0.004 0
0 0.005 0
0.01 0.005 0
0.02 0.005 0
0.03 0.005 0
0.04 0.005 0
0.05 0.005 0
0.06 0.005 0
0.07 0.005 0
0.08 0.005 0
0.09 0.005 0
0.1 0.005 0
0.11 0.005 0
0.12 0.005 0
0.13 0.005 0
0.14 0.005 0
0.15 0.005 0
0.16 0.005 0
0.17 0.005 0
0.18 0.005 0
0.19 0.005 0
0.2 0.005 0
0.21 0.005 0
0.22 0.005 0
0.23 0.005 0
0.24 0.005 0
0.25 0.005 0
0.26 0.005 0
0.27 0.005 0
0.28 0.005 0
0.29 0.005 0
0.3 0.005 0
0.31 0.005 0
0.32 0.005 0
0.33 0.005 0
0.34 0.005 0
0.35 0.005 0
0.36 0.005 0
0.37 0.005 0
0.38 0.005 0
0.39 0.005 0
0.4 0.005 0
0.41 0.005 0
0.42 0.005 0
0.43 0.005 0
0.44 0.005 0
0.45 0.005 0
0.46 0.005 0
0.47 0.005 0
0.48 0.005 0
0.49 0.005 0
0.5 0.005 0
0.51 0.005 0
0.52 0.005 0
0.53 0.005 0
0.54 0.005 0
0.55 0.005 0
0.56 0.005 0
0.57 0.005 0
0.58 0.005 0
0.59 0.005 0
0.6 0.005 0
0.61 0.005 0
0.62 0.005 0
0.63 0.005 0
0.64 0.005 0
0.65 0.005 0
0.66 0.005 0
0.67 0.005 0
0.68 0.005 0
0.69 0.005 0
0.7 0.005 0
0.71 0.005 0
0.72 0.005 0
0.73 0.005 0
0.74 0.005 0
0.75 0.005 0
0.76 0.005 0
0.77 0.005 0
0.78 0.005 0
0.79 0.005 0
0.8 0.005 0
0.81 0.005 0
0.82 0.005 0
0.83 0.005 0
0.84 0.005 0
0.85 0.005 0
0.86 0.005 0
0.87 0.005 0
0.88 0.005 0
0.89 0.005 0
0.9 0.005 0
0.91 0.005 0
0.92 0.005 0
0.93 0.005 0
0.94 0.005 0
0.95 0.005 0
0.96 0.005 0
0.97 0.005 0
0.98 0.005 0
0.99 0.005 0
0 0.006 0
0.01 0.006 0
0.02 0.006 0
0.03 0.006 0
0.04 0.006 0
0.05 0.006 0
0.06 0.006 0
0.07 0.006 0
0.08 0.006 0
0.09 0.006 0
0.1 0.006 0
0.11 0.006 0
0.12 0.006 0
0.13 0.006 0
0.14 0.006 0
0.15 0.006 0
0.16 0.006 0
0.17 0.006 0
0.18 0.006 0
0.19 0.006 0
0.2 0.006 0
0.21 0.006 0
0.22 0.006 0
0.23 0.006 0
0.24 0.006 0
0.25 0.006 0
0.26 0.006 0
0.27 0.006 0
0.28 0.006 0
0.29 0.006 0
0.3 0.006 0
0.31 0.006 0
0.32 0.006 0
0.33 0.006 0
0.34 0.006 0
0.35 0.006 0
0.36 0.006 0
0.37 0.006 0
0.38 0.006 0
0.39 0.006 0
0.4 0.006 0
0.41 0.006 0
0.42 0.006 0
0.43 0.006 0
0.44 0.006 0
0.45 0.006 0
0.46 0.006 0
0.47 0.006 0
0.48 0.006 0
0.49 0.006 0
0.5 0.006 0
0.51 0.006 0
0.52 0.006 0
0.53 0.006 0
0.54 0.006 0
0.55 0.006 0
0.56 0.006 0
0.57 0.006 0
0.58 0.006 0
0.59 0.006 0
0.6 0.006 0
0.61 0.006 0
0.62 0.006 0
0.63 0.006 0
0.64 0.006 0
0.65 0.006 0
0.66 0.006 0
0.67 0.006 0
0.68 0.006 0
0.69 0.006 0
0.7 0.006 0
0.71 0.006 0
0.72 0.006 0
0.73 0.006 0
0.74 0.006 0
0.75 0.006 0
0.76 0.006 0
0.77 0.006 0
0.78 0.006 0
0.79 0.006 0
0.8 0.006 0
0.81 0.006 0
0.82 0.006 0
0.83 0.006 0
0.84 0.006 0
0.85 0.006 0
0.86 0.006 0
0.87 0.006 0
0.88 0.006 0
0.89 0.006 0
0.9 0.006 0
0.91 0.006 0
0.92 0.006 0
0.93 0.006 0
0.94 0.006 0
0.95 0.006 0
0.96 0.006 0
0.97 0.006 0
0.98 0.006 0
0.99 0.006 0
0 0.007 0
0.01 0.007 0
0.02 0.007 0
0.03 0.007 0
0.04 0.007 0
0.05 0.007 0
0.06 0.007 0
0.07 0.007 0
0.08 0.007 0
0.09 0.007 0
0.1 0.007 0
0.11 0.007 0
0.12 0.007 0
0.13 0.007 0
0.14 0.007 0
0.15 0.007 0
0.16 0.007 0
0.17 0.007 0
0.18 0.007 0
0.19 0.007 0
0.2 0.007 0
0.21 0.007 0
0.22 0.007 0
0.23 0.007 0
0.24 0.007 0
0.25 0.007 0
0.26 0.007 0
0.27 0.007 0
0.28 0.007 0
0.29 0.007 0
0.3 0.007 0
0.31 0.007 0
0.32 0.007 0
0.33 0.007 0
0.34 0.007 0
0.35 0.007 0
0.36 0.007 0
0.37 0.007 0
0.38 0.007 0
0.39 0.007 0
0.4 0.007 0
0.41 0.007 0
0.42 0.007 0
0.43 0.007 0
0.44 0.007 0
0.45 0.007 0
0.46 0.007 0
0.47 0.007 0
0.48 0.007 0
0.49 0.007 0
0.5 0.007 0
0.51 0.007 0
0.52 0.007 0
0.53 0.007 0
0.54 0.007 0
0.55 0.007 0
0.56 0.007 0
0.57 0.007 0
0.58 0.007 0
0.59 0.007 0
0.6 0.007 0
0.61 0.007 0
0.62 0.007 0
0.63 0.007 0
0.64 0.007 0
0.65 0.007 0
0.66 0.007 0
0.67 0.007 0
0.68 0.007 0
0.69 0.007 0
0.7 0.007 0
0.71 0.007 0
0.72 0.007 0
0.73 0.007 0
0.74 0.007 0
0.75 0.007 0
0.76 0.007 0
0.77 0.007 0
0.78 0.007 0
0.79 0.007 0
0.8 0.007 0
0.81 0.007 0
0.82 0.007 0
0.83 0.007 0
0.84 0.007 0
0.85 0.007 0
0.86 0.007 0
0.87 0.007 0
0.88 0.007 0
0.89 0.007 0
0.9 0.007 0
0.91 0.007 0
0.92 0.007 0
0.93 0.007 0
0.94 0.007 0
0.95 0.007 0
0.96 0.007 0
0.97 0.007 0
0.98 0.007 0
[...]
POINT_DATA 10000

SCALARS vel_X float 1
LOOKUP_TABLE default
0
0
0
0
0
0
0
0
0
0
0
0
0
0
0
0
0
0
0
0
0
0
0
0
0
0
0
0
0
0
0
0
0
0
0
0
0
0
0
0
0
0
0
0
0
0
0
0
0
0
0
0
0
0
0
0
0
0
0
0
0
0
0
0
0
0
0
0
0
0
0
0
0
0
0
0
0
0
0
0
0
0
0
0
0
0
0
0
0
0
0
0
0
0
0
0
0
0
0
0
1
0.32002
0.205961
0.14732
0.133806
0.131339
0.0903477
0.145832
0.068569
0.130621
0.104117
0.0913009
0.125542
0.113982
0.0915662
0.170905
0.133966
0.139715
0.173053
0.198526
0.151464
0.197333
0.227927
0.250831
0.226995
0.28344
0.315393
0.330785
0.245799
0.174213
0.0816876
0.0525344
0.00961417
0.0162229
-0.00645677
0.00983953
-0.00875823
0.0090787
-0.00899018
0.00901305
-0.0090075
0.00900877
-0.00900849
0.00900855
-0.00900854
0.00900854
-0.00900854
0.00900854
-0.00900854
0.00900854
-0.00900854
0.00900854
-0.00900854
0.00900854
-0.00900854
0.00900854
-0.00900854
0.00900854
-0.00900854
0.00900854
-0.00900854
0.00900854
-0.00900855
0.00900849
-0.00900876
0.00900772
-0.00901119
0.00900138
-0.00902402
0.00898396
-0.00903109
0.00901231
-0.00897657
0.00899058
-0.00916903
0.00887
-0.00873964
0.00940241
-0.00954358
0.00819353
-0.00793366
0.00981105
-0.0113142
0.00949161
-0.0064069
0.00542436
-0.00801461
0.0117958
-0.0145427
0.0138294
-0.0113148
0.00777495
-0.00493761
0.00219291
-0.000929734
-0.00028721
-7.69986e-05
-0.00367873
-0.203162
-0.203162
1
0.559243
0.387703
0.28878
0.266452
0.250661
0.201751
0.265674
0.167617
0.249829
0.211464
0.200207
0.248219
0.229371
0.21289
0.317524
0.27025
0.285454
0.337569
0.367063
0.313281
0.383327
0.430717
0.458987
0.43544
0.512947
0.54832
0.53915
0.394802
0.268281
0.128746
0.0770025
0.0174317
0.0215729
-0.00690439
0.0119654
-0.0103528
0.0108295
-0.0106981
0.010732
-0.0107238
0.0107257
-0.0107253
0.0107253
-0.0107253
0.0107253
-0.0107253
0.0107253
-0.0107253
0.0107253
-0.0107253
0.0107253
-0.0107253
0.0107253
-0.0107253
0.0107253
-0.0107253
0.0107253
-0.0107253
0.0107253
-0.0107253
0.0107253
-0.0107253
0.0107252
-0.0107256
0.0107241
-0.0107293
0.0107145
-0.010749
0.0106866
-0.0107639
0.0107231
-0.0106835
0.0107035
-0.0109551
0.0104967
-0.0103872
0.0113149
-0.011392
0.00950081
-0.00939845
0.0120087
-0.0137793
0.0109934
-0.00704722
0.00616049
-0.00997061
0.0148017
-0.0180711
0.0165683
-0.0130958
0.00830987
-0.00489152
0.00145278
-0.000306644
-0.00118618
0.000190397
-0.00159396
0.29306
0.29306
1
0.733102
0.542833
0.426261
0.387424
0.370045
0.311809
0.376962
0.277945
0.357234
0.323366
0.312885
0.362343
0.350037
0.33426
0.445705
0.404819
0.425018
0.481736
0.518396
0.468475
0.545567
0.598512
0.631225
0.607028
0.681357
0.701044
0.664212
0.481991
0.32206
0.15653
0.0908573
0.0226103
0.024281
-0.00662326
0.0127274
-0.0107779
0.0113558
-0.011196
0.0112374
-0.0112273
0.0112296
-0.0112291
0.0112292
-0.0112292
0.0112292
-0.0112292
0.0112292
-0.0112292
0.0112292
-0.0112292
0.0112292
-0.0112292
0.0112292
-0.0112292
0.0112292
-0.0112292
0.0112292
-0.0112292
0.0112292
-0.0112292
0.0112292
-0.0112292
0.0112291
-0.0112296
0.0112277
-0.011234
0.0112163
-0.0112575
0.0111828
-0.0112767
0.0112213
-0.011189
0.0111976
-0.0114906
0.0109709
-0.0108714
0.0118499
-0.0119552
0.00993835
-0.00983731
0.0124931
-0.014415
0.0115967
-0.0076053
0.00649484
-0.0102447
0.014994
-0.0185995
0.0172883
-0.014139
0.00926089
-0.0059984
0.00229536
-0.00121969
-0.00073588
-0.000384013
-0.00330787
-0.255489
-0.255489
1
0.856163
0.672985
0.555156
0.496668
0.487491
0.414383
0.483903
0.387295
0.456103
0.434244
0.42111
0.467712
0.469037
0.444724
0.559386
0.530603
0.550746
0.604695
0.653344
0.605462
0.679261
0.730977
0.768247
0.735774
0.794585
0.792233
0.737086
0.53312
0.356181
0.174345
0.101003
0.0258921
0.0268193
-0.00686326
0.0138003
-0.0115723
0.0122365
-0.0120519
0.0120999
-0.0120882
0.0120909
-0.0120903
0.0120904
-0.0120904
0.0120904
-0.0120904
0.0120904
-0.0120904
0.0120904
-0.0120904
0.0120904
-0.0120904
0.0120904
-0.0120904
0.0120904
-0.0120904
0.0120904
-0.0120904
0.0120904
-0.0120904
0.0120904
-0.0120904
0.0120903
-0.0120908
0.0120887
-0.0120958
0.0120759
-0.0121216
0.0120399
-0.0121417
0.0120799
-0.0120557
0.0120418
-0.0123711
0.0118419
-0.0117089
0.0126555
-0.012903
0.0109098
-0.0106047
0.0130387
-0.0152686
0.0129094
-0.00900514
0.00726258
-0.0103544
0.0147711
-0.0189588
0.0184981
-0.016207
0.0115719
-0.00851054
0.00448655
-0.00321944
0.00058967
-0.00141387
-0.000149077
0.271899
0.271899
1
0.941322
0.780272
0.671632
0.595539
0.598131
0.509483
0.584038
0.490828
0.547198
0.538628
0.521086
0.563758
0.579358
0.542406
0.658502
0.642485
0.659292
0.70776
0.768652
0.719675
0.78419
0.831174
0.870913
0.82552
0.864625
0.8425
0.778657
0.564837
0.380378
0.187783
0.109524
0.0285948
0.0292298
-0.00717129
0.0148966
-0.0123973
0.0131478
-0.0129377
0.0129927
-0.0129792
0.0129823
-0.0129817
0.0129818
-0.0129818
0.0129818
-0.0129818
0.0129818
-0.0129818
0.0129818
-0.0129818
0.0129818
-0.0129818
0.0129818
-0.0129818
0.0129818
-0.0129818
0.0129818
-0.0129818
0.0129818
-0.0129818
0.0129818
-0.0129818
0.0129816
-0.0129823
0.0129799
-0.0129877
0.0129661
-0.0130151
0.0129291
-0.0130336
0.0129719
-0.0129533
0.0129126
-0.0132778
0.0127637
-0.0125656
0.0134557
-0.0139081
0.0119804
-0.0113632
0.0135025
-0.0161331
0.0144027
-0.0105735
0.00804625
-0.0103148
0.0143629
-0.0192054
0.0198088
-0.0185099
0.0141933
-0.0112802
0.00692117
-0.00537508
0.00208007
-0.0024969
-0.00168261
-0.26399
-0.26399
1
0.999126
0.866761
0.773952
0.684403
0.698554
0.597692
0.674186
0.586952
0.629624
0.63315
0.611154
0.649214
0.677101
0.627812
0.74176
0.73796
0.749923
0.791938
0.862116
0.811063
0.862784
0.903367
0.942835
0.884631
0.904379
0.868077
0.80195
0.586682
0.399213
0.19977
0.116988
0.0316167
0.0311741
-0.00701211
0.0155453
-0.0127624
0.0136045
-0.013367
0.0134297
-0.0134142
0.0134178
-0.013417
0.0134172
-0.0134171
0.0134171
-0.0134171
0.0134171
-0.0134171
0.0134171
-0.0134171
0.0134171
-0.0134171
0.0134171
-0.0134171
0.0134171
-0.0134171
0.0134171
-0.0134171
0.0134171
-0.0134171
0.0134171
-0.0134172
0.013417
-0.0134177
0.013415
-0.0134237
0.0134003
-0.0134522
0.0133634
-0.0134676
0.0134098
-0.0133946
0.0133261
-0.0137255
0.0132396
-0.0129622
0.0137866
-0.0144602
0.0126196
-0.0116689
0.0134883
-0.0165028
0.0154361
-0.0117209
0.00845423
-0.00988893
0.0134922
-0.0188495
0.0204904
-0.0202145
0.0162982
-0.0135606
0.00896577
-0.00719993
0.00338226
-0.00339305
0.00130139
0.268384
0.268384
1
1.0376
0.934696
0.861785
0.763063
0.787085
0.678922
0.75255
0.674789
0.702443
0.716246
0.690513
0.723019
0.760923
0.701545
0.808588
0.816424
0.823204
0.858193
0.9339
0.881808
0.918872
0.95245
0.989788
0.92205
0.924756
0.879812
0.81473
0.603583
0.414923
0.211566
0.123655
0.0353033
0.03253
-0.00618634
0.0155719
-0.0124855
0.013427
-0.0131594
0.0132305
-0.0132128
0.013217
-0.013216
0.0132162
-0.0132162
0.0132162
-0.0132162
0.0132162
-0.0132162
0.0132162
-0.0132162
0.0132162
-0.0132162
0.0132162
-0.0132162
0.0132162
-0.0132162
0.0132162
-0.0132162
0.0132162
-0.0132162
0.0132162
-0.0132162
0.013216
-0.0132169
0.0132139
-0.0132233
0.0131982
-0.0132527
0.013162
-0.0132641
0.0132124
-0.0131994
0.0131037
-0.0135331
0.0130847
-0.0127259
0.0134745
-0.0143604
0.0126351
-0.0113756
0.012846
-0.0161615
0.0157577
-0.0122568
0.00838071
-0.00900187
0.0120306
-0.017657
0.0202178
-0.0209958
0.0176118
-0.0151419
0.0104571
-0.008578
0.00440834
-0.00410511
-0.000506543
-0.265611
-0.265611
1
1.06256
0.986547
0.935481
0.831454
0.86309
0.75276
0.818704
0.753508
0.765349
0.787467
0.758842
0.784804
0.830845
0.764148
0.8596
0.878423
0.880373
0.907995
0.985996
0.934986
0.956837
0.983546
1.01811
0.945317
0.933712
0.884273
0.821458
0.617885
0.428655
0.223581
0.129745
0.0396732
0.0333637
-0.00473055
0.0150233
-0.0116098
0.0126596
-0.0123589
0.0124394
-0.0124192
0.012424
-0.0124229
0.0124231
-0.0124231
0.0124231
-0.0124231
0.0124231
-0.0124231
0.0124231
-0.0124231
0.0124231
-0.0124231
0.0124231
-0.0124231
0.0124231
-0.0124231
0.0124231
-0.0124231
0.0124231
-0.0124231
0.0124231
-0.0124231
0.0124229
-0.0124238
0.0124205
-0.0124308
0.0124039
-0.0124609
0.0123689
-0.0124678
0.0124232
-0.0124125
0.0122899
-0.0127438
0.012341
-0.0119055
0.0125649
-0.0136431
0.0120688
-0.0105438
0.0116287
-0.0151373
0.0153873
-0.0122248
0.00788892
-0.00772656
0.0100482
-0.0156735
0.0189955
-0.0208537
0.0181546
-0.0160684
0.0114344
-0.00954096
0.00517022
-0.00461014
0.00222505
0.267464
0.267464
1
1.07806
1.02487
0.995719
0.889907
0.926493
0.818863
0.873098
0.822428
0.818629
0.847036
0.816253
0.834882
0.887508
0.816361
0.896352
0.925202
0.923091
0.943405
1.02131
0.973873
0.981016
1.00151
1.03345
0.959961
0.936471
0.885186
0.82462
0.630632
0.441008
0.235863
0.135437
0.0446256
0.0338052
-0.00276311
0.0140227
-0.0102565
0.0114243
-0.0110872
0.0111781
-0.0111551
0.0111606
-0.0111594
0.0111596
-0.0111596
0.0111596
-0.0111596
0.0111596
-0.0111596
0.0111596
-0.0111596
0.0111596
-0.0111596
0.0111596
-0.0111596
0.0111596
-0.0111596
0.0111596
-0.0111596
0.0111596
-0.0111596
0.0111596
-0.0111596
0.0111594
-0.0111604
0.0111568
-0.0111679
0.0111393
-0.0111986
0.0111057
-0.0112007
0.0111634
-0.0111559
0.0110068
-0.0114789
0.0111292
-0.0106253
0.0111804
-0.0124263
0.0110396
-0.00929921
0.00996506
-0.0135548
0.0144386
-0.0117327
0.0070847
-0.00618785
0.00770556
-0.0130722
0.0169597
-0.0198901
0.0180192
-0.0164367
0.0119774
-0.0101495
0.00569929
-0.00497285
0.000202577
-0.266266
-0.266266
1
1.0869
1.05213
1.04338
0.939105
0.977605
0.877089
0.916667
0.8812
0.862903
0.895619
0.863266
0.874046
0.931847
0.859219
0.920931
0.958435
0.953268
0.966832
1.04298
1.00156
0.99529
1.01052
1.04022
0.969653
0.936189
0.884572
0.825581
0.642267
0.452295
0.248345
0.140862
0.050045
0.0339762
-0.0004017
0.0126901
-0.00854454
0.00984056
-0.00946347
0.00956601
-0.00953986
0.00954613
-0.00954471
0.00954502
-0.00954495
0.00954497
-0.00954496
0.00954496
-0.00954496
0.00954496
-0.00954496
0.00954496
-0.00954496
0.00954496
-0.00954496
0.00954496
-0.00954496
0.00954496
-0.00954496
0.00954496
-0.00954497
0.00954495
-0.00954502
0.00954473
-0.00954588
0.00954186
-0.00955394
0.00952355
-0.00958505
0.00949175
-0.00958221
0.00955204
-0.0095492
0.00937379
-0.00985781
0.00956735
-0.00900577
0.009442
-0.0108285
0.00966157
-0.00775951
0.00798352
-0.0115461
0.013026
-0.0108758
0.00605797
-0.00450098
0.00516885
-0.0100484
0.0142675
-0.0182055
0.0172784
-0.0163212
0.0121522
-0.0104585
0.00602683
-0.00517617
0.00274988
0.266929
0.266929
1
1.091
1.07059
1.07947
0.979944
1.01709
0.927467
0.950621
0.929882
0.898919
0.934199
0.900741
0.903391
0.964966
0.893961
0.935631
0.980053
0.972894
0.980717
1.05391
1.02075
1.00284
1.01383
1.04154
0.976636
0.934638
0.883491
0.825097
0.65298
0.462671
0.260933
0.146103
0.0558385
0.0339666
0.00226481
0.0111163
-0.00656327
0.00799839
-0.00757753
0.00769284
-0.00766322
0.00767038
-0.00766875
0.0076691
-0.00766903
0.00766904
-0.00766904
0.00766904
-0.00766904
0.00766904
-0.00766904
0.00766904
-0.00766904
0.00766904
-0.00766904
0.00766904
-0.00766904
0.00766904
-0.00766904
0.00766904
-0.00766904
0.00766903
-0.0076691
0.00766878
-0.00767006
0.00766565
-0.00767867
0.00764654
-0.00771003
0.00761681
-0.00770227
0.00767878
-0.00768218
0.00748087
-0.00797046
0.00774413
-0.00713702
0.007442
-0.00894004
0.00801818
-0.00601046
0.00578437
-0.00921738
0.0112359
-0.00971791
0.00486619
-0.00274583
0.00257041
-0.00677501
0.0110613
-0.0158762
0.0159675
-0.015758
0.0119984
-0.010508
0.00617839
-0.00528008
0.000568119
-0.266725
-0.266725
1
1.09168
1.08227
1.10514
1.0134
1.04594
0.970144
0.976294
0.968929
0.927429
0.963954
0.929766
0.924189
0.988044
0.921885
0.942718
0.992094
0.983877
0.987298
1.05661
1.03364
1.00607
1.01381
1.03947
0.982187
0.932739
0.882496
0.823597
0.662865
0.472207
0.273553
0.151197
0.0619444
0.0338307
0.00518174
0.00935712
-0.00436756
0.00595324
-0.00548455
0.00561395
-0.00558046
0.00558861
-0.00558674
0.00558715
-0.00558707
0.00558708
-0.00558708
0.00558708
-0.00558708
0.00558708
-0.00558708
0.00558708
-0.00558708
0.00558708
-0.00558708
0.00558708
-0.00558708
0.00558708
-0.00558708
0.00558708
-0.00558708
0.00558706
-0.00558715
0.00558678
-0.0055882
0.00558339
-0.00559738
0.00556353
-0.00562882
0.00553612
-0.00561622
0.00559876
-0.00561008
0.00538353
-0.00587241
0.00571354
-0.00507429
0.00523846
-0.00681724
0.00615779
-0.00410201
0.00343275
-0.00664155
0.00912228
-0.00829056
0.00353277
-0.000959845
-5.04414e-06
-0.00338846
0.00746443
-0.0129586
0.0140887
-0.0147428
0.0115213
-0.0103151
0.00616743
-0.00525732
0.00297485
0.266535
0.266535
1
1.08982
1.0889
1.12156
1.04041
1.06539
1.00536
0.995028
0.999142
0.949145
0.986133
0.951553
0.937811
1.00226
0.94421
0.944285
0.996576
0.987925
0.988475
1.0531
1.04189
1.00664
1.01209
1.03527
0.986983
0.930915
0.881881
0.821337
0.671996
0.480928
0.286152
0.15615
0.0683299
0.0335915
0.00832465
0.0074379
-0.00198184
0.00373006
-0.00320924
0.00335412
-0.00331636
0.00332562
-0.00332348
0.00332394
-0.00332385
0.00332387
-0.00332386
0.00332386
-0.00332386
0.00332386
-0.00332386
0.00332386
-0.00332386
0.00332386
-0.00332386
0.00332386
-0.00332386
0.00332386
-0.00332386
0.00332386
-0.00332387
0.00332385
-0.00332394
0.00332353
-0.0033251
0.00331986
-0.00333484
0.0032993
-0.00336619
0.00327444
-0.0033489
0.0033367
-0.00335757
0.00310679
-0.00358883
0.00349914
-0.00284196
0.00285907
-0.00448667
0.00409874
-0.00205256
0.000961484
-0.00386133
0.00671234
-0.00659908
0.00205235
0.000858119
-0.00252013
1.19986e-05
0.00358562
-0.00950167
0.0116231
-0.0132354
0.0106893
-0.00986603
0.00598678
-0.00514805
0.000662038
-0.267055
-0.267055
1
1.08605
1.09195
1.12998
1.06185
1.07688
1.03345
1.00806
1.02159
0.964741
1.00194
0.967344
0.945663
1.00875
0.961974
0.942152
0.995392
0.986498
0.985766
1.04493
1.04669
1.0056
1.00969
1.02971
0.991357
0.92932
0.881806
0.818484
0.680443
0.488835
0.298695
0.160946
0.0749803
0.0332527
0.0116877
0.00536512
0.000588326
0.00133498
-0.000757472
0.000919348
-0.000876844
0.000887336
-0.000884894
0.000885432
-0.00088532
0.000885342
-0.000885338
0.000885338
-0.000885338
0.000885338
-0.000885338
0.000885338
-0.000885338
0.000885338
-0.000885338
0.000885338
-0.000885338
0.000885338
-0.000885338
0.000885338
-0.000885342
0.00088532
-0.000885425
0.000884971
-0.000886695
0.000881009
-0.000896993
0.000859805
-0.000928071
0.000837716
-0.000906343
0.000898501
-0.000930446
0.00065687
-0.0011261
0.00110575
-0.000445285
0.000312513
-0.00195656
0.00184135
0.000139306
-0.00161789
-0.000900609
0.00401808
-0.00463438
0.000403235
0.00273428
-0.00497387
0.00335804
-0.000472851
-0.00556231
0.00854995
-0.0111742
0.00943842
-0.0091158
0.00560605
-0.00489655
0.00293376
0.26627
0.26627
1
1.08081
1.09258
1.1317
1.07842
1.08193
1.05486
1.01646
1.03749
0.974889
1.01242
0.978332
0.94913
1.00857
0.975969
0.937828
0.990229
0.980819
0.980316
1.03322
1.04882
1.00356
1.00723
1.02323
0.995447
0.92798
0.882349
0.815172
0.68827
0.495931
0.311148
0.165571
0.0818798
0.0328177
0.0152648
0.00314526
0.00333725
-0.00122578
0.0018648
-0.00168432
0.00173206
-0.00172019
0.00172297
-0.00172235
0.00172248
-0.00172246
0.00172246
-0.00172246
0.00172246
-0.00172246
0.00172246
-0.00172246
0.00172246
-0.00172246
0.00172246
-0.00172246
0.00172246
-0.00172246
0.00172246
-0.00172246
0.00172246
-0.00172248
0.00172236
-0.00172287
0.00172098
-0.00172713
0.00171012
-0.0017489
0.0016795
-0.00176806
0.00170537
-0.00170983
0.00166545
-0.00195998
0.00150927
-0.00146161
0.00211066
-0.00239266
0.000764178
-0.000612976
0.00247578
-0.00429632
0.00221702
0.001055
-0.00239163
-0.00143269
0.00469787
-0.00738183
0.00659852
-0.00460253
-0.00122592
0.00487377
-0.00850135
0.00769103
-0.00799846
0.00497586
-0.00451352
0.000466079
-0.267251
-0.267251
1
1.07449
1.09168
1.12804
1.09069
1.08204
1.07013
1.02107
1.04814
0.980299
1.01843
0.985603
0.949514
1.00274
0.986712
0.932495
0.98252
0.971913
0.972928
1.01882
1.04873
1.00081
1.00501
1.01615
0.999268
0.926879
0.883518
0.811533
0.695516
0.502249
0.323456
0.170032
0.0889888
0.0323127
0.0190263
0.000808069
0.0062359
-0.00392269
0.0046283
-0.00442749
0.004481
-0.0044676
0.00447076
-0.00447006
0.00447021
-0.00447018
0.00447018
-0.00447018
0.00447018
-0.00447018
0.00447018
-0.00447018
0.00447018
-0.00447018
0.00447018
-0.00447018
0.00447018
-0.00447018
0.00447018
-0.00447018
0.00447018
-0.0044702
0.00447007
-0.00447063
0.00446856
-0.0044752
0.00445716
-0.00449747
0.00442717
-0.00451354
0.00445681
-0.00445895
0.00440096
-0.00471423
0.00428737
-0.00417447
0.00479776
-0.00522494
0.00364286
-0.00323842
0.0049363
-0.007044
0.00544543
-0.00213522
0.000106935
-0.00344589
0.00675439
-0.00975044
0.00968099
-0.00867431
0.0033729
0.000655441
-0.00519791
0.0053854
-0.00644829
0.00404183
-0.00392339
0.0025528
0.266149
0.266149
1
1.06739
1.08983
1.12032
1.09906
1.07862
1.07994
1.02253
1.05474
0.981766
1.02057
0.990089
0.947986
0.99224
0.994445
0.927031
0.973412
0.960676
0.964124
1.00237
1.04658
0.997501
1.00312
1.0087
1.00275
0.926019
0.885249
0.807733
0.702172
0.507871
0.335522
0.174384
0.096222
0.0318088
0.022897
-0.00157155
0.00920998
-0.00668097
0.0074585
-0.00723554
0.00729538
-0.00728029
0.00728388
-0.00728307
0.00728324
-0.00728321
0.00728322
-0.00728321
0.00728321
-0.00728321
0.00728321
-0.00728321
0.00728321
-0.00728321
0.00728321
-0.00728321
0.00728321
-0.00728321
0.00728321
-0.00728322
0.00728321
-0.00728324
0.00728309
-0.00728371
0.00728145
-0.00728859
0.00726952
-0.00731128
0.00724034
-0.00732416
0.00727333
-0.00727423
0.0072017
-0.00753111
0.00713301
-0.00695892
0.00754283
-0.00810792
0.00660115
-0.00596277
0.00745535
-0.00978836
0.00869453
-0.00546335
0.00279062
-0.00557702
0.00886043
-0.0120513
0.0125327
-0.0125265
0.00803466
-0.00396055
-0.00131876
0.00250988
-0.00442748
0.00276325
-0.0031364
-0.000134286
-0.26729
-0.26729
1
1.05984
1.08737
1.10987
1.10384
1.0729
1.08506
1.02131
1.05831
0.980198
1.01922
0.992534
0.945537
0.978074
0.999168
0.922036
0.963765
0.947925
0.954193
0.984383
1.04238
0.993683
1.00146
1.00113
1.00574
0.925453
0.887396
0.803984
0.708173
0.512946
0.347192
0.178741
0.103434
0.0314363
0.0267422
-0.00385931
0.0121257
-0.00936637
0.0102214
-0.00997436
0.0100412
-0.0100242
0.0100283
-0.0100273
0.0100275
-0.0100275
0.0100275
-0.0100275
0.0100275
-0.0100275
0.0100275
-0.0100275
0.0100275
-0.0100275
0.0100275
-0.0100275
0.0100275
-0.0100275
0.0100275
-0.0100275
0.0100275
-0.0100275
0.0100274
-0.010028
0.0100256
-0.0100332
0.0100131
-0.0100563
0.00998494
-0.0100659
0.0100208
-0.0100216
0.00993382
-0.0102765
0.00991148
-0.00968145
0.0102134
-0.0109062
0.00950104
-0.0086532
0.00990783
-0.0123997
0.0118165
-0.00877888
0.00552653
-0.00770293
0.0109068
-0.014202
0.0150472
-0.0159604
0.0124909
-0.0087311
0.00298048
-0.000866028
-0.00195393
0.00113469
-0.00210196
0.00171093
0.266198
0.266198
1
1.05217
1.08439
1.09793
1.10527
1.06588
1.08632
1.01779
1.05961
0.976612
1.01461
0.993476
0.942949
0.961295
1.0007
0.917868
0.954154
0.93444
0.943263
0.965341
1.03597
0.98941
0.999788
0.9937
1.00805
0.925291
0.889743
0.800546
0.713391
0.517685
0.358255
0.183279
0.110419
0.0313857
0.0303662
-0.00586041
0.0147887
-0.0117841
0.0127225
-0.0124493
0.0125237
-0.0125047
0.0125092
-0.0125082
0.0125084
-0.0125084
0.0125084
-0.0125084
0.0125084
-0.0125084
0.0125084
-0.0125084
0.0125084
-0.0125084
0.0125084
-0.0125084
0.0125084
-0.0125084
0.0125084
-0.0125084
0.0125084
-0.0125084
0.0125082
-0.012509
0.0125063
-0.0125145
0.0124934
-0.0125377
0.0124663
-0.0125441
0.0125045
-0.0125063
0.0124029
-0.0127557
0.0124275
-0.0121478
0.0126165
-0.0134242
0.0121438
-0.0111151
0.0121076
-0.0146898
0.014605
-0.0118693
0.00811895
-0.00963642
0.0127155
-0.0160592
0.0170805
-0.0187477
0.0164162
-0.0133185
0.00743353
-0.00457238
0.000877477
-0.000796878
-0.000881152
-0.00122006
-0.267151
-0.267151
1
1.04471
1.08085
1.08559
1.1036
1.05828
1.08458
1.01231
1.05904
0.972097
1.00686
0.993235
0.940767
0.943011
0.998761
0.914676
0.944906
0.920971
0.931361
0.9457
1.02714
0.984734
0.997779
0.986704
1.00941
0.92569
0.892016
0.797716
0.71765
0.522351
0.368456
0.188219
0.116925
0.0318928
0.0335276
-0.00733435
0.0169588
-0.0136935
0.0147213
-0.0144198
0.0145025
-0.0144812
0.0144864
-0.0144852
0.0144855
-0.0144854
0.0144854
-0.0144854
0.0144854
-0.0144854
0.0144854