# vtk DataFile Version 2.0
FlowField
ASCII
DATASET STRUCTURED_GRID
DIMENSIONS 100 1 100
POINTS 10000 float
0 0 0
0.01 0 0
0.02 0 0
0.03 0 0
0.04 0 0
0.05 0 0
0.06 0 0
0.07 0 0
0.08 0 0
0.09 0 0
0.1 0 0
0.11 0 0
0.12 0 0
0.13 0 0
0.14 0 0
0.15 0 0
0.16 0 0
0.17 0 0
0.18 0 0
0.19 0 0
0.2 0 0
0.21 0 0
0.22 0 0
0.23 0 0
0.24 0 0
0.25 0 0
0.26 0 0
0.27 0 0
0.28 0 0
0.29 0 0
0.3 0 0
0.31 0 0
0.32 0 0
0.33 0 0
0.34 0 0
0.35 0 0
0.36 0 0
0.37 0 0
0.38 0 0
0.39 0 0
0.4 0 0
0.41 0 0
0.42 0 0
0.43 0 0
0.44 0 0
0.45 0 0
0.46 0 0
0.47 0 0
0.48 0 0
0.49 0 0
0.5 0 0
0.51 0 0
0.52 0 0
0.53 0 0
0.54 0 0
0.55 0 0
0.56 0 0
0.57 0 0
0.58 0 0
0.59 0 0
0.6 0 0
0.61 0 0
0.62 0 0
0.63 0 0
0.64 0 0
0.65 0 0
0.66 0 0
0.67 0 0
0.68 0 0
0.69 0 0
0.7 0 0
0.71 0 0
0.72 0 0
0.73 0 0
0.74 0 0
0.75 0 0
0.76 0 0
0.77 0 0
0.78 0 0
0.79 0 0
0.8 0 0
0.81 0 0
0.82 0 0
0.83 0 0
0.84 0 0
0.85 0 0
0.86 0 0
0.87 0 0
0.88 0 0
0.89 0 0
0.9 0 0
0.91 0 0
0.92 0 0
0.93 0 0
0.94 0 0
0.95 0 0
0.96 0 0
0.97 0 0
0.98 0 0
0.99 0 0
0 0.001 0
0.01 0.001 0
0.02 0.001 0
0.03 0.001 0
0.04 0.001 0
0.05 0.001 0
0.06 0.001 0
0.07 0.001 0
0.08 0.001 0
0.09 0.001 0
0.1 0.001 0
0.11 0.001 0
0.12 0.001 0
0.13 0.001 0
0.14 0.001 0
0.15 0.001 0
0.16 0.001 0
0.17 0.001 0
0.18 0.001 0
0.19 0.001 0
0.2 0.001 0
0.21 0.001 0
0.22 0.001 0
0.23 0.001 0
0.24 0.001 0
0.25 0.001 0
0.26 0.001 0
0.27 0.001 0
0.28 0.001 0
0.29 0.001 0
0.3 0.001 0
0.31 0.001 0
0.32 0.001 0
0.33 0.001 0
0.34 0.001 0
0.35 0.001 0
0.36 0.001 0
0.37 0.001 0
0.38 0.001 0
0.39 0.001 0
0.4 0.001 0
0.41 0.001 0
0.42 0.001 0
0.43 0.001 0
0.44 0.001 0
0.45 0.001 0
0.46 0.001 0
0.47 0.001 0
0.48 0.001 0
0.49 0.001 0
0.5 0.001 0
0.51 0.001 0
0.52 0.001 0
0.53 0.001 0
0.54 0.001 0
0.55 0.001 0
0.56 0.001 0
0.57 0.001 0
0.58 0.001 0
0.59 0.001 0
0.6 0.001 0
0.61 0.001 0
0.62 0.001 0
0.63 0.001 0
0.64 0.001 0
0.65 0.001 0
0.66 0.001 0
0.67 0.001 0
0.68 0.001 0
0.69 0.001 0
0.7 0.001 0
0.71 0.001 0
0.72 0.001 0
0.73 0.001 0
0.74 0.001 0
0.75 0.001 0
0.76 0.001 0
0.77 0.001 0
0.78 0.001 0
0.79 0.001 0
0.8 0.001 0
0.81 0.001 0
0.82 0.001 0
0.83 0.001 0
0.84 0.001 0
0.85 0.001 0
0.86 0.001 0
0.87 0.001 0
0.88 0.001 0
0.89 0.001 0
0.9 0.001 0
0.91 0.001 0
0.92 0.001 0
0.93 0.001 0
0.94 0.001 0
0.95 0.001 0
0.96 0.001 0
0.97 0.001 0
0.98 0.001 0
0.99 0.001 0
0 0.002 0
0.01 0.002 0
0.02 0.002 0
0.03 0.002 0
0.04 0.002 0
0.05 0.002 0
0.06 0.002 0
0.07 0.002 0
0.08 0.002 0
0.09 0.002 0
0.1 0.002 0
0.11 0.002 0
0.12 0.002 0
0.13 0.002 0
0.14 0.002 0
0.15 0.002 0
0.16 0.002 0
0.17 0.002 0
0.18 0.002 0
0.19 0.002 0
0.2 0.002 0
0.21 0.002 0
0.22 0.002 0
0.23 0.002 0
0.24 0.002 0
0.25 0.002 0
0.26 0.002 0
0.27 0.002 0
0.28 0.002 0
0.29 0.002 0
0.3 0.002 0
0.31 0.002 0
0.32 0.002 0
0.33 0.002 0
0.34 0.002 0
0.35 0.002 0
0.36 0.002 0
0.37 0.002 0
0.38 0.002 0
0.39 0.002 0
0.4 0.002 0
0.41 0.002 0
0.42 0.002 0
0.43 0.002 0
0.44 0.002 0
0.45 0.002 0
0.46 0.002 0
0.47 0.002 0
0.48 0.002 0
0.49 0.002 0
0.5 0.002 0
0.51 0.002 0
0.52 0.002 0
0.53 0.002 0
0.54 0.002 0
0.55 0.002 0
0.56 0.002 0
0.57 0.002 0
0.58 0.002 0
0.59 0.002 0
0.6 0.002 0
0.61 0.002 0
0.62 0.002 0
0.63 0.002 0
0.64 0.002 0
0.65 0.002 0
0.66 0.002 0
0.67 0.002 0
0.68 0.002 0
0.69 0.002 0
0.7 0.002 0
0.71 0.002 0
0.72 0.002 0
0.73 0.002 0
0.74 0.002 0
0.75 0.002 0
0.76 0.002 0
0.77 0.002 0
0.78 0.002 0
0.79 0.002 0
0.8 0.002 0
0.81 0.002 0
0.82 0.002 0
0.83 0.002 0
0.84 0.002 0
0.85 0.002 0
0.86 0.002 0
0.87 0.002 0
0.88 0.002 0
0.89 0.002 0
0.9 0.002 0
0.91 0.002 0
0.92 0.002 0
0.93 0.002 0
0.94 0.002 0
0.95 0.002 0
0.96 0.002 0
0.97 0.002 0
0.98 0.002 0
0.99 0.002 0
0 0.003 0
0.01 0.003 0
0.02 0.003 0
0.03 0.003 0
0.04 0.003 0
0.05 0.003 0
0.06 0.003 0
0.07 0.003 0
0.08 0.003 0
0.09 0.003 0
0.1 0.003 0
0.11 0.003 0
0.12 0.003 0
0.13 0.003 0
0.14 0.003 0
0.15 0.003 0
0.16 0.003 0
0.17 0.003 0
0.18 0.003 0
0.19 0.003 0
0.2 0.003 0
0.21 0.003 0
0.22 0.003 0
0.23 0.003 0
0.24 0.003 0
0.25 0.003 0
0.26 0.003 0
0.27 0.003 0
0.28 0.003 0
0.29 0.003 0
0.3 0.003 0
0.31 0.003 0
0.32 0.003 0
0.33 0.003 0
0.34 0.003 0
0.35 0.003 0
0.36 0.003 0
0.37 0.003 0
0.38 0.003 0
0.39 0.003 0
0.4 0.003 0
0.41 0.003 0
0.42 0.003 0
0.43 0.003 0
0.44 0.003 0
0.45 0.003 0
0.46 0.003 0
0.47 0.003 0
0.48 0.003 0
0.49 0.003 0
0.5 0.003 0
0.51 0.003 0
0.52 0.003 0
0.53 0.003 0
0.54 0.003 0
0.55 0.003 0
0.56 0.003 0
0.57 0.003 0
0.58 0.003 0
0.59 0.003 0
0.6 0.003 0
0.61 0.003 0
0.62 0.003 0
0.63 0.003 0
0.64 0.003 0
0.65 0.003 0
0.66 0.003 0
0.67 0.003 0
0.68 0.003 0
0.69 0.003 0
0.7 0.003 0
0.71 0.003 0
0.72 0.003 0
0.73 0.003 0
0.74 0.003 0
0.75 0.003 0
0.76 0.003 0
0.77 0.003 0
0.78 0.003 0
0.79 0.003 0
0.8 0.003 0
0.81 0.003 0
0.82 0.003 0
0.83 0.003 0
0.84 0.003 0
0.85 0.003 0
0.86 0.003 0
0.87 0.003 0
0.88 0.003 0
0.89 0.003 0
0.9 0.003 0
0.91 0.003 0
0.92 0.003 0
0.93 0.003 0
0.94 0.003 0
0.95 0.003 0
0.96 0.003 0
0.97 0.003 0
0.98 0.003 0
0.99 0.003 0
0 0.004 0
0.01 0.004 0
0.02 0.004 0
0.03 0.004 0
0.04 0.004 0
0.05 0.004 0
0.06 0.004 0
0.07 0.004 0
0.08 0.004 0
0.09 0.004 0
0.1 0.004 0
0.11 0.004 0
0.12 0.004 0
0.13 0.004 0
0.14 0.004 0
0.15 0.004 0
0.16 0.004 0
0.17 0.004 0
0.18 0.004 0
0.19 0.004 0
0.2 0.004 0
0.21 0.004 0
0.22 0.004 0
0.23 0.004 0
0.24 0.004 0
0.25 0.004 0
0.26 0.004 0
0.27 0.004 0
0.28 0.004 0
0.29 0.004 0
0.3 0.004 0
0.31 0.004 0
0.32 0.004 0
0.33 0.004 0
0.34 0.004 0
0.35 0.004 0
0.36 0.004 0
0.37 0.004 0
0.38 0.004 0
0.39 0.004 0
0.4 0.004 0
0.41 0.004 0
0.42 0.004 0
0.43 0.004 0
0.44 0.004 0
0.45 0.004 0
0.46 0.004 0
0.47 0.004 0
0.48 0.004 0
0.49 0.004 0
0.5 0.004 0
0.51 0.004 0
0.52 0.004 0
0.53 0.004 0
0.54 0.004 0
0.55 0.004 0
0.56 0.004 0
0.57 0.004 0
0.58 0.004 0
0.59 0.004 0
0.6 0.004 0
0.61 0.004 0
0.62 0.004 0
0.63 0.004 0
0.64 0.004 0
0.65 0.004 0
0.66 0.004 0
0.67 0.004 0
0.68 0.004 0
0.69 0.004 0
0.7 0.004 0
0.71 0.004 0
0.72 0.004 0
0.73 0.004 0
0.74 0.004 0
0.75 0.004 0
0.76 0.004 0
0.77 0.004 0
0.78 0.004 0
0.79 0.004 0
0.8 0.004 0
0.81 0.004 0
0.82 0.004 0
0.83 0.004 0
0.84 0.004 0
0.85 0.004 0
0.86 0.004 0
0.87 0.004 0
0.88 0.004 0
0.89 0.004 0
0.9 0.004 0
0.91 0.004 0
0.92 0.004 0
0.93 0.004 0
0.94 0.004 0
0.95 0.004 0
0.96 0.004 0
0.97 0.004 0
0.98 0.004 0
0.99 0.004 0
0 0.005 0
0.01 0.005 0
0.02 0.005 0
0.03 0.005 0
0.04 0.005 0
0.05 0.005 0
0.06 0.005 0
0.07 0.005 0
0.08 0.005 0
0.09 0.005 0
0.1 0.005 0
0.11 0.005 0
0.12 0.005 0
0.13 0.005 0
0.14 0.005 0
0.15 0.005 0
0.16 0.005 0
0.17 0.005 0
0.18 0.005 0
0.19 0.005 0
0.2 0.005 0
0.21 0.005 0
0.22 0.005 0
0.23 0.005 0
0.24 0.005 0
0.25 0.005 0
0.26 0.005 0
0.27 0.005 0
0.28 0.005 0
0.29 0.005 0
0.3 0.005 0
0.31 0.005 0
0.32 0.005 0
0.33 0.005 0
0.34 0.005 0
0.35 0.005 0
0.36 0.005 0
0.37 0.005 0
0.38 0.005 0
0.39 0.005 0
0.4 0.005 0
0.41 0.005 0
0.42 0.005 0
0.43 0.005 0
0.44 0.005 0
0.45 0.005 0
0.46 0.005 0
0.47 0.005 0
0.48 0.005 0
0.49 0.005 0
0.5 0.005 0
0.51 0.005 0
0.52 0.005 0
0.53 0.005 0
0.54 0.005 0
0.55 0.005 0
0.56 0.005 0
0.57 0.005 0
0.58 0.005 0
0.59 0.005 0
0.6 0.005 0
0.61 0.005 0
0.62 0.005 0
0.63 0.005 0
0.64 0.005 0
0.65 0.005 0
0.66 0.005 0
0.67 0.005 0
0.68 0.005 0
0.69 0.005 0
0.7 0.005 0
0.71 0.005 0
0.72 0.005 0
0.73 0.005 0
0.74 0.005 0
0.75 0.005 0
0.76 0.005 0
0.77 0.005 0
0.78 0.005 0
0.79 0.005 0
0.8 0.005 0
0.81 0.005 0
0.82 0.005 0
0.83 0.005 0
0.84 0.005 0
0.85 0.005 0
0.86 0.005 0
0.87 0.005 0
0.88 0.005 0
0.89 0.005 0
0.9 0.005 0
0.91 0.005 0
0.92 0.005 0
0.93 0.005 0
0.94 0.005 0
0.95 0.005 0
0.96 0.005 0
0.97 0.005 0
0.98 0.005 0
0.99 0.005 0
0 0.006 0
0.01 0.006 0
0.02 0.006 0
0.03 0.006 0
0.04 0.006 0
0.05 0.006 0
0.06 0.006 0
0.07 0.006 0
0.08 0.006 0
0.09 0.006 0
0.1 0.006 0
0.11 0.006 0
0.12 0.006 0
0.13 0.006 0
0.14 0.006 0
0.15 0.006 0
0.16 0.006 0
0.17 0.006 0
0.18 0.006 0
0.19 0.006 0
0.2 0.006 0
0.21 0.006 0
0.22 0.006 0
0.23 0.006 0
0.24 0.006 0
0.25 0.006 0
0.26 0.006 0
0.27 0.006 0
0.28 0.006 0
0.29 0.006 0
0.3 0.006 0
0.31 0.006 0
0.32 0.006 0
0.33 0.006 0
0.34 0.006 0
0.35 0.006 0
0.36 0.006 0
0.37 0.006 0
0.38 0.006 0
0.39 0.006 0
0.4 0.006 0
0.41 0.006 0
0.42 0.006 0
0.43 0.006 0
0.44 0.006 0
0.45 0.006 0
0.46 0.006 0
0.47 0.006 0
0.48 0.006 0
0.49 0.006 0
0.5 0.006 0
0.51 0.006 0
0.52 0.006 0
0.53 0.006 0
0.54 0.006 0
0.55 0.006 0
0.56 0.006 0
0.57 0.006 0
0.58 0.006 0
0.59 0.006 0
0.6 0.006 0
0.61 0.006 0
0.62 0.006 0
0.63 0.006 0
0.64 0.006 0
0.65 0.006 0
0.66 0.006 0
0.67 0.006 0
0.68 0.006 0
0.69 0.006 0
0.7 0.006 0
0.71 0.006 0
0.72 0.006 0
0.73 0.006 0
0.74 0.006 0
0.75 0.006 0
0.76 0.006 0
0.77 0.006 0
0.78 0.006 0
0.79 0.006 0
0.8 0.006 0
0.81 0.006 0
0.82 0.006 0
0.83 0.006 0
0.84 0.006 0
0.85 0.006 0
0.86 0.006 0
0.87 0.006 0
0.88 0.006 0
0.89 0.006 0
0.9 0.006 0
0.91 0.006 0
0.92 0.006 0
0.93 0.006 0
0.94 0.006 0
0.95 0.006 0
0.96 0.006 0
0.97 0.006 0
0.98 0.006 0
0.99 0.006 0
0 0.007 0
0.01 0.007 0
0.02 0.007 0
0.03 0.007 0
0.04 0.007 0
0.05 0.007 0
0.06 0.007 0
0.07 0.007 0
0.08 0.007 0
0.09 0.007 0
0.1 0.007 0
0.11 0.007 0
0.12 0.007 0
0.13 0.007 0
0.14 0.007 0
0.15 0.007 0
0.16 0.007 0
0.17 0.007 0
0.18 0.007 0
0.19 0.007 0
0.2 0.007 0
0.21 0.007 0
0.22 0.007 0
0.23 0.007 0
0.24 0.007 0
0.25 0.007 0
0.26 0.007 0
0.27 0.007 0
0.28 0.007 0
0.29 0.007 0
0.3 0.007 0
0.31 0.007 0
0.32 0.007 0
0.33 0.007 0
0.34 0.007 0
0.35 0.007 0
0.36 0.007 0
0.37 0.007 0
0.38 0.007 0
0.39 0.007 0
0.4 0.007 0
0.41 0.007 0
0.42 0.007 0
0.43 0.007 0
0.44 0.007 0
0.45 0.007 0
0.46 0.007 0
0.47 0.007 0
0.48 0.007 0
0.49 0.007 0
0.5 0.007 0
0.51 0.007 0
0.52 0.007 0
0.53 0.007 0
0.54 0.007 0
0.55 0.007 0
0.56 0.007 0
0.57 0.007 0
0.58 0.007 0
0.59 0.007 0
0.6 0.007 0
0.61 0.007 0
0.62 0.007 0
0.63 0.007 0
0.64 0.007 0
0.65 0.007 0
0.66 0.007 0
0.67 0.007 0
0.68 0.007 0
0.69 0.007 0
0.7 0.007 0
0.71 0.007 0
0.72 0.007 0
0.73 0.007 0
0.74 0.007 0
0.75 0.007 0
0.76 0.007 0
0.77 0.007 0
0.78 0.007 0
0.79 0.007 0
0.8 0.007 0
0.81 0.007 0
0.82 0.007 0
0.83 0.007 0
0.84 0.007 0
0.85 0.007 0
0.86 0.007 0
0.87 0.007 0
0.88 0.007 0
0.89 0.007 0
0.9 0.007 0
0.91 0.007 0
0.92 0.007 0
0.93 0.007 0
0.94 0.007 0
0.95 0.007 0
0.96 0.007 0
0.97 0.007 0
0.98 0.007 0
[...]
POINT_DATA 10000

SCALARS vel_X float 1
LOOKUP_TABLE default
0
0
0
0
0
0
0
0
0
0
0
0
0
0
0
0
0
0
0
0
0
0
0
0
0
0
0
0
0
0
0
0
0
0
0
0
0
0
0
0
0
0
0
0
0
0
0
0
0
0
0
0
0
0
0
0
0
0
0
0
0
0
0
0
0
0
0
0
0
0
0
0
0
0
0
0
0
0
0
0
0
0
0
0
0
0
0
0
0
0
0
0
0
0
0
0
0
0
0
0
1
0.321035
0.219369
0.15748
0.172681
0.141868
0.147791
0.165728
0.128453
0.171327
0.164787
0.142471
0.190321
0.192025
0.166765
0.210252
0.248744
0.237885
0.252623
0.32013
0.355827
0.306446
0.205408
0.112721
0.0520065
0.0213128
0.00739691
0.00264859
0.000527598
0.000387376
-0.000145547
0.000204527
-0.000191183
0.000193996
-0.000193441
0.000193544
-0.000193526
0.000193529
-0.000193528
0.000193528
-0.000193528
0.000193528
-0.000193528
0.000193528
-0.000193528
0.000193528
-0.000193528
0.000193528
-0.000193528
0.000193528
-0.000193528
0.000193528
-0.000193528
0.000193528
-0.000193528
0.000193528
-0.000193528
0.000193528
-0.000193528
0.000193528
-0.000193528
0.000193528
-0.000193528
0.000193528
-0.000193528
0.000193528
-0.000193528
0.000193528
-0.00019353
0.000193517
-0.000193591
0.000193225
-0.000194777
0.000189247
-0.000205321
0.00016912
-0.000226051
0.000181171
-0.000156892
0.000212646
-0.000356094
-3.65723e-05
6.27672e-05
0.000690572
-0.000834187
-0.00052548
0.00121829
-2.5214e-05
-0.00206765
0.00254533
-0.00131647
-0.00104728
0.00270158
-0.00376445
0.00346003
-0.0031654
0.0016657
-0.00412129
-0.168284
-0.168284
1
0.56351
0.410044
0.314162
0.328477
0.281762
0.294288
0.311881
0.268564
0.327016
0.316994
0.294299
0.363546
0.362991
0.33938
0.406132
0.460081
0.44768
0.478414
0.566847
0.593094
0.488948
0.32069
0.172068
0.0795317
0.0313742
0.0117535
0.00326019
0.00146892
-0.000110454
0.000468747
-0.000381497
0.000401216
-0.000397062
0.000397881
-0.000397729
0.000397756
-0.000397751
0.000397752
-0.000397752
0.000397752
-0.000397752
0.000397752
-0.000397752
0.000397752
-0.000397752
0.000397752
-0.000397752
0.000397752
-0.000397752
0.000397752
-0.000397752
0.000397752
-0.000397752
0.000397752
-0.000397752
0.000397752
-0.000397752
0.000397752
-0.000397752
0.000397752
-0.000397752
0.000397752
-0.000397752
0.000397752
-0.000397752
0.000397752
-0.000397752
0.000397749
-0.000397769
0.000397659
-0.000398201
0.000395897
-0.000404145
0.000379981
-0.000435203
0.000345556
-0.000424538
0.000442347
-0.000368012
0.00017188
-0.000753901
0.000699014
0.000328531
-0.000397951
-0.00150935
0.00221005
-0.000466076
-0.00225569
0.0025466
-0.000769753
-0.00240012
0.00430669
-0.00555858
0.00481898
-0.00444168
0.00215742
-0.00257974
0.234977
0.234977
1
0.739573
0.573847
0.463467
0.467037
0.420467
0.427454
0.449084
0.405682
0.465841
0.460422
0.441302
0.513074
0.520211
0.500351
0.573936
0.633053
0.625589
0.655063
0.735905
0.736492
0.595201
0.385524
0.207138
0.094723
0.0383331
0.013483
0.00459819
0.00111459
0.000532183
-9.61774e-05
0.00020278
-0.000178585
0.000183705
-0.000182691
0.000182879
-0.000182846
0.000182852
-0.000182851
0.000182851
-0.000182851
0.000182851
-0.000182851
0.000182851
-0.000182851
0.000182851
-0.000182851
0.000182851
-0.000182851
0.000182851
-0.000182851
0.000182851
-0.000182851
0.000182851
-0.000182851
0.000182851
-0.000182851
0.000182851
-0.000182851
0.000182851
-0.000182851
0.000182851
-0.000182851
0.000182851
-0.000182851
0.000182851
-0.000182851
0.00018285
-0.000182854
0.00018283
-0.000182965
0.000182303
-0.000185095
0.000175174
-0.000204058
0.000138305
-0.000245396
0.000147398
-0.000140452
0.000206222
-0.000441379
-0.000213242
0.00013183
0.0009346
-0.00104404
-0.00095919
0.00167828
7.22053e-06
-0.00283386
0.0031665
-0.00157513
-0.00164298
0.00349845
-0.00500923
0.00426604
-0.00424441
0.00182211
-0.00394142
-0.203641
-0.203641
1
0.863616
0.712156
0.599558
0.590838
0.552138
0.546281
0.577359
0.532
0.589199
0.592408
0.57432
0.64022
0.660791
0.639303
0.709824
0.769385
0.766176
0.779421
0.840839
0.816873
0.657461
0.424243
0.231228
0.104419
0.0444685
0.0139047
0.00660632
-7.99866e-05
0.00197463
-0.00146945
0.00159383
-0.00156541
0.00157146
-0.00157025
0.00157048
-0.00157044
0.00157045
-0.00157045
0.00157045
-0.00157045
0.00157045
-0.00157045
0.00157045
-0.00157045
0.00157045
-0.00157045
0.00157045
-0.00157045
0.00157045
-0.00157045
0.00157045
-0.00157045
0.00157045
-0.00157045
0.00157045
-0.00157045
0.00157045
-0.00157045
0.00157045
-0.00157045
0.00157045
-0.00157045
0.00157045
-0.00157045
0.00157045
-0.00157045
0.00157044
-0.00157045
0.00157042
-0.00157058
0.00156981
-0.00157302
0.00156177
-0.00159403
0.00152173
-0.00163764
0.00153244
-0.00153151
0.00157657
-0.0018564
0.00118228
-0.00122212
0.00224836
-0.00252681
0.000596627
0.000286652
0.00104525
-0.0038913
0.00454347
-0.00348145
0.000434183
0.00142836
-0.00336802
0.00292138
-0.00345129
0.00124658
-0.00144933
0.219464
0.219464
1
0.948983
0.825968
0.719678
0.700655
0.672127
0.6519
0.693427
0.644872
0.697342
0.70928
0.689731
0.746493
0.780347
0.752824
0.814792
0.871574
0.869258
0.859697
0.90017
0.859076
0.695291
0.450199
0.250213
0.112104
0.050234
0.0140301
0.00876268
-0.00144438
0.00358771
-0.00301133
0.00315442
-0.00312146
0.00312853
-0.00312711
0.00312738
-0.00312733
0.00312734
-0.00312734
0.00312734
-0.00312734
0.00312734
-0.00312734
0.00312734
-0.00312734
0.00312734
-0.00312734
0.00312734
-0.00312734
0.00312734
-0.00312734
0.00312734
-0.00312734
0.00312734
-0.00312734
0.00312734
-0.00312734
0.00312734
-0.00312734
0.00312734
-0.00312734
0.00312734
-0.00312734
0.00312734
-0.00312734
0.00312734
-0.00312734
0.00312734
-0.00312734
0.00312731
-0.00312749
0.00312661
-0.00313024
0.00311775
-0.00315289
0.00307587
-0.00319595
0.00309114
-0.00309053
0.00311149
-0.00344038
0.00276985
-0.00272642
0.00369458
-0.00420559
0.00239654
-0.00126873
0.0021604
-0.00502409
0.00610204
-0.00564902
0.00282264
-0.000911855
-0.00148385
0.0014271
-0.00251164
0.000639846
-0.00273645
-0.210493
-0.210493
1
1.00648
0.91676
0.823099
0.796109
0.778156
0.744799
0.794692
0.743773
0.78982
0.80885
0.786986
0.832724
0.876859
0.841731
0.892084
0.943489
0.939822
0.907834
0.930402
0.879681
0.719779
0.47007
0.266707
0.119314
0.0557266
0.0143398
0.0107724
-0.0026288
0.00503667
-0.00438321
0.00454686
-0.00450885
0.00451707
-0.00451541
0.00451573
-0.00451567
0.00451568
-0.00451568
0.00451568
-0.00451568
0.00451568
-0.00451568
0.00451568
-0.00451568
0.00451568
-0.00451568
0.00451568
-0.00451568
0.00451568
-0.00451568
0.00451568
-0.00451568
0.00451568
-0.00451568
0.00451568
-0.00451568
0.00451568
-0.00451568
0.00451568
-0.00451568
0.00451568
-0.00451568
0.00451568
-0.00451568
0.00451568
-0.00451568
0.00451568
-0.00451568
0.00451564
-0.00451586
0.00451485
-0.00451891
0.00450517
-0.00454301
0.00446221
-0.00458386
0.00448388
-0.00447982
0.00447645
-0.00485386
0.00420013
-0.00405628
0.00495969
-0.00571291
0.00404723
-0.00267453
0.00311866
-0.00596075
0.00743947
-0.00757948
0.00502259
-0.00310986
0.00034307
-2.67589e-05
-0.00154481
6.96708e-05
-0.000366676
0.216314
0.216314
1
1.04422
0.986741
0.910043
0.876886
0.869445
0.824987
0.8801
0.828797
0.866508
0.890699
0.866853
0.900004
0.951002
0.908895
0.946056
0.990422
0.98529
0.934962
0.943619
0.888642
0.736877
0.48696
0.281876
0.126636
0.0610043
0.0149939
0.0125442
-0.00352141
0.00621558
-0.00547755
0.00566405
-0.00562035
0.00562989
-0.00562794
0.00562832
-0.00562825
0.00562826
-0.00562826
0.00562826
-0.00562826
0.00562826
-0.00562826
0.00562826
-0.00562826
0.00562826
-0.00562826
0.00562826
-0.00562826
0.00562826
-0.00562826
0.00562826
-0.00562826
0.00562826
-0.00562826
0.00562826
-0.00562826
0.00562826
-0.00562826
0.00562826
-0.00562826
0.00562826
-0.00562826
0.00562826
-0.00562826
0.00562826
-0.00562826
0.00562826
-0.00562826
0.00562822
-0.00562847
0.00562732
-0.00563185
0.00561683
-0.00565729
0.00557325
-0.00569491
0.00560219
-0.00559308
0.00556547
-0.00598744
0.00536175
-0.00511496
0.00594243
-0.00691974
0.00542448
-0.00385162
0.00385728
-0.00660003
0.00839826
-0.00909797
0.00688107
-0.00506061
0.00204949
-0.00141411
-0.000568079
-0.000509584
-0.00177487
-0.212101
-0.212101
1
1.06802
1.03861
0.981216
0.943273
0.945973
0.892619
0.949781
0.900324
0.928045
0.95569
0.930725
0.950244
1.00521
0.957997
0.981517
1.01829
1.01304
0.949599
0.947645
0.891554
0.749625
0.502245
0.296204
0.134266
0.0661008
0.0160349
0.0140607
-0.00409635
0.00710137
-0.00627037
0.00648227
-0.00643219
0.00644321
-0.00644094
0.00644138
-0.0064413
0.00644131
-0.00644131
0.00644131
-0.00644131
0.00644131
-0.00644131
0.00644131
-0.00644131
0.00644131
-0.00644131
0.00644131
-0.00644131
0.00644131
-0.00644131
0.00644131
-0.00644131
0.00644131
-0.00644131
0.00644131
-0.00644131
0.00644131
-0.00644131
0.00644131
-0.00644131
0.00644131
-0.00644131
0.00644131
-0.00644131
0.00644131
-0.00644131
0.00644131
-0.00644132
0.00644126
-0.00644155
0.00644026
-0.00644528
0.00642893
-0.00647198
0.00638511
-0.00650569
0.00642154
-0.00640739
0.00635508
-0.00681596
0.00622935
-0.0058846
0.00661984
-0.00779227
0.00649961
-0.0047878
0.00436618
-0.00692043
0.00894278
-0.0101656
0.0083592
-0.00673126
0.00360574
-0.00271707
0.000397556
-0.00106497
0.000514489
0.215335
0.215335
1
1.08202
1.07523
1.03767
0.996161
1.00818
0.948272
1.00459
0.959054
0.975771
1.00544
0.980395
0.986059
1.0427
0.992843
1.00318
1.03271
1.02907
0.957489
0.947107
0.891437
0.759526
0.516516
0.309862
0.142266
0.0710217
0.0174782
0.015315
-0.00434296
0.00768504
-0.00675202
0.00699211
-0.00693487
0.00694757
-0.00694494
0.00694545
-0.00694536
0.00694537
-0.00694537
0.00694537
-0.00694537
0.00694537
-0.00694537
0.00694537
-0.00694537
0.00694537
-0.00694537
0.00694537
-0.00694537
0.00694537
-0.00694537
0.00694537
-0.00694537
0.00694537
-0.00694537
0.00694537
-0.00694537
0.00694537
-0.00694537
0.00694537
-0.00694537
0.00694537
-0.00694537
0.00694537
-0.00694537
0.00694537
-0.00694537
0.00694537
-0.00694538
0.00694532
-0.00694564
0.00694419
-0.00694974
0.00693202
-0.00697761
0.00688831
-0.00700689
0.006932
-0.00691381
0.00683589
-0.0073294
0.00679232
-0.00635853
0.00698359
-0.00831844
0.00725863
-0.00547202
0.00463998
-0.00692479
0.00907559
-0.0107752
0.00943114
-0.00808201
0.00496292
-0.00389565
0.00131308
-0.00160965
-0.000960798
-0.212819
-0.212819
1
1.08916
1.09936
1.08075
1.03685
1.05692
0.99292
1.04582
1.006
1.01146
1.04198
1.01791
1.01038
1.06686
1.01696
1.01521
1.03831
1.03769
0.962136
0.944563
0.889885
0.767321
0.530016
0.322886
0.15064
0.0757585
0.0193311
0.0163019
-0.0042537
0.0079604
-0.00691571
0.00718699
-0.00712175
0.00713635
-0.0071333
0.00713389
-0.00713378
0.0071338
-0.0071338
0.0071338
-0.0071338
0.0071338
-0.0071338
0.0071338
-0.0071338
0.0071338
-0.0071338
0.0071338
-0.0071338
0.0071338
-0.0071338
0.0071338
-0.0071338
0.0071338
-0.0071338
0.0071338
-0.0071338
0.0071338
-0.0071338
0.0071338
-0.0071338
0.0071338
-0.0071338
0.0071338
-0.0071338
0.0071338
-0.0071338
0.0071338
-0.00713381
0.00713374
-0.00713411
0.00713248
-0.00713859
0.00711947
-0.00716753
0.00707619
-0.007192
0.00712663
-0.00710601
0.00700141
-0.00752097
0.00704267
-0.00653133
0.0070295
-0.00849244
0.0076885
-0.00588964
0.00467449
-0.00662536
0.00881122
-0.0109265
0.0100711
-0.00906753
0.00606345
-0.00490123
0.00213547
-0.00208687
0.00125431
0.214736
0.214736
1
1.09148
1.11354
1.11197
1.06688
1.09334
1.0278
1.07503
1.04241
1.03706
1.06744
1.04541
1.02606
1.08079
1.03336
1.02099
1.03856
1.0417
0.96549
0.941355
0.88774
0.773401
0.542838
0.335265
0.159366
0.0803043
0.0215907
0.0170236
-0.00382939
0.00792938
-0.0067628
0.00706851
-0.00699434
0.00701108
-0.00700755
0.00700825
-0.00700812
0.00700814
-0.00700814
0.00700814
-0.00700814
0.00700814
-0.00700814
0.00700814
-0.00700814
0.00700814
-0.00700814
0.00700814
-0.00700814
0.00700814
-0.00700814
0.00700814
-0.00700814
0.00700814
-0.00700814
0.00700814
-0.00700814
0.00700814
-0.00700814
0.00700814
-0.00700814
0.00700814
-0.00700814
0.00700814
-0.00700814
0.00700814
-0.00700814
0.00700814
-0.00700815
0.00700807
-0.00700848
0.00700667
-0.00701337
0.00699282
-0.00704327
0.0069503
-0.00706261
0.00700679
-0.00698564
0.00685342
-0.00739231
0.00698035
-0.00640492
0.00676248
-0.00831804
0.0077834
-0.00603189
0.00447285
-0.00604357
0.00817456
-0.0106299
0.0102645
-0.00965329
0.00685782
-0.00568992
0.00282692
-0.00250602
-0.00031052
-0.213346
-0.213346
1
1.09049
1.12003
1.13298
1.08786
1.11885
1.05427
1.09396
1.06963
1.05449
1.08396
1.06489
1.03562
1.08721
1.04442
1.02301
1.03585
1.04284
0.96853
0.938149
0.885451
0.778014
0.555007
0.346983
0.168405
0.0846613
0.0242409
0.017494
-0.00308306
0.00760604
-0.00630681
0.00665041
-0.00656632
0.00658545
-0.00658138
0.00658219
-0.00658204
0.00658207
-0.00658206
0.00658207
-0.00658207
0.00658207
-0.00658207
0.00658207
-0.00658207
0.00658207
-0.00658207
0.00658207
-0.00658207
0.00658207
-0.00658207
0.00658207
-0.00658207
0.00658207
-0.00658207
0.00658207
-0.00658207
0.00658207
-0.00658207
0.00658207
-0.00658207
0.00658207
-0.00658207
0.00658207
-0.00658207
0.00658207
-0.00658207
0.00658206
-0.00658208
0.00658198
-0.00658246
0.00658044
-0.00658776
0.00656575
-0.00661848
0.00652434
-0.00663249
0.00658601
-0.00656638
0.00640595
-0.0069573
0.0066174
-0.00599291
0.00619992
-0.00781193
0.00755007
-0.0059015
0.00404837
-0.00521074
0.00720278
-0.0099114
0.0100158
-0.00982453
0.00731271
-0.00622742
0.00335753
-0.00281664
0.00179791
0.214269
0.214269
1
1.08722
1.1208
1.14542
1.10138
1.13497
1.07371
1.10438
1.08899
1.06547
1.09345
1.07812
1.04112
1.08829
1.05187
1.02299
1.03172
1.0421
0.971667
0.935265
0.883266
0.781348
0.566519
0.358032
0.177699
0.088843
0.0272516
0.0177399
-0.00204078
0.00701736
-0.00557418
0.00595935
-0.00586425
0.00588607
-0.0058814
0.00588234
-0.00588216
0.00588219
-0.00588219
0.00588219
-0.00588219
0.00588219
-0.00588219
0.00588219
-0.00588219
0.00588219
-0.00588219
0.00588219
-0.00588219
0.00588219
-0.00588219
0.00588219
-0.00588219
0.00588219
-0.00588219
0.00588219
-0.00588219
0.00588219
-0.00588219
0.00588219
-0.00588219
0.00588219
-0.00588219
0.00588219
-0.00588219
0.00588219
-0.00588219
0.00588219
-0.00588221
0.0058821
-0.00588263
0.0058804
-0.00588836
0.00586489
-0.00591978
0.00582489
-0.0059283
0.00589078
-0.00587475
0.00568601
-0.00624286
0.0059788
-0.00532135
0.00537201
-0.00700431
0.00700939
-0.005514
0.00342463
-0.00416758
0.00594559
-0.00881428
0.0093499
-0.0095884
0.00741376
-0.00649059
0.00370425
-0.00303632
0.000111836
-0.213754
-0.213754
1
1.08247
1.11748
1.15087
1.10895
1.14324
1.08743
1.10802
1.10174
1.07149
1.09758
1.08656
1.04412
1.08576
1.05693
1.02203
1.02708
1.04008
0.975012
0.932846
0.881325
0.783577
0.577356
0.368421
0.187178
0.0928749
0.0305794
0.0178005
-0.000741587
0.00620322
-0.00460428
0.00503492
-0.00492766
0.00495248
-0.00494713
0.00494821
-0.004948
0.00494804
-0.00494803
0.00494803
-0.00494803
0.00494803
-0.00494803
0.00494803
-0.00494803
0.00494803
-0.00494803
0.00494803
-0.00494803
0.00494803
-0.00494803
0.00494803
-0.00494803
0.00494803
-0.00494803
0.00494803
-0.00494803
0.00494803
-0.00494803
0.00494803
-0.00494803
0.00494803
-0.00494803
0.00494803
-0.00494803
0.00494803
-0.00494804
0.00494803
-0.00494805
0.00494793
-0.00494852
0.00494606
-0.00495469
0.00492976
-0.00498666
0.00489149
-0.00498964
0.00496053
-0.00495013
0.00473352
-0.00528888
0.00510258
-0.00442887
0.00432153
-0.0059389
0.00619672
-0.00489795
0.00263535
-0.00296389
0.00446479
-0.00739828
0.00831141
-0.00897393
0.00716772
-0.00646997
0.00385212
-0.00312275
0.00208679
0.213924
0.213924
1
1.0768
1.11142
1.1508
1.11192
1.14512
1.09658
1.10654
1.10899
1.07377
1.0977
1.09133
1.04572
1.08089
1.06033
1.02078
1.02248
1.03713
0.978521
0.930953
0.879701
0.784874
0.587493
0.378173
0.196761
0.096795
0.0341671
0.0177279
0.000762246
0.00521659
-0.00344957
0.00392983
-0.00380916
0.00383732
-0.00383119
0.00383244
-0.0038322
0.00383225
-0.00383224
0.00383224
-0.00383224
0.00383224
-0.00383224
0.00383224
-0.00383224
0.00383224
-0.00383224
0.00383224
-0.00383224
0.00383224
-0.00383224
0.00383224
-0.00383224
0.00383224
-0.00383224
0.00383224
-0.00383224
0.00383224
-0.00383224
0.00383224
-0.00383224
0.00383224
-0.00383224
0.00383224
-0.00383224
0.00383224
-0.00383224
0.00383224
-0.00383226
0.00383212
-0.00383279
0.00383008
-0.0038394
0.00381302
-0.00387175
0.00377677
-0.00386922
0.00384782
-0.00384501
0.00360149
-0.00414848
0.00404004
-0.0033668
0.00310392
-0.00467303
0.00516215
-0.00409542
0.00172499
-0.00165877
0.00283378
-0.00573871
0.00696335
-0.00803143
0.00660458
-0.00617398
0.00379669
-0.00310337
0.000259989
-0.214034
-0.214034
1
1.07064
1.10369
1.14654
1.11149
1.14195
1.10213
1.10141
1.11173
1.07325
1.09484
1.09327
1.04663
1.07464
1.06253
1.0196
1.0182
1.03352
0.982077
0.929608
0.878419
0.785416
0.596896
0.387329
0.206354
0.100653
0.0379444
0.0175864
0.00240589
0.00412288
-0.00217499
0.00270925
-0.00257384
0.00260571
-0.00259871
0.00260015
-0.00259987
0.00259993
-0.00259992
0.00259992
-0.00259992
0.00259992
-0.00259992
0.00259992
-0.00259992
0.00259992
-0.00259992
0.00259992
-0.00259992
0.00259992
-0.00259992
0.00259992
-0.00259992
0.00259992
-0.00259992
0.00259992
-0.00259992
0.00259992
-0.00259992
0.00259992
-0.00259992
0.00259992
-0.00259992
0.00259992
-0.00259992
0.00259992
-0.00259992
0.00259991
-0.00259994
0.00259978
-0.00260052
0.00259756
-0.00260759
0.00257977
-0.00264016
0.00254581
-0.0026322
0.0026177
-0.00262428
0.00235535
-0.00288736
0.00285512
-0.00219865
0.00178654
-0.00327685
0.00396987
-0.00316166
0.000748629
-0.000319983
0.00113612
-0.00392474
0.00538511
-0.00683043
0.00577811
-0.00563275
0.00354841
-0.0029496
0.00209363
0.213709
0.213709
1
1.06431
1.09507
1.13923
1.10865
1.13494
1.10482
1.09393
1.11084
1.07064
1.08972
1.09296
1.04722
1.06768
1.06375
1.01868
1.01436
1.02943
0.985535
0.928821
0.877474
0.785384
0.605531
0.395947
0.215855
0.104508
0.0418314
0.0174494
0.00411515
0.00299678
-0.00085479
0.00144764
-0.00129606
0.00133203
-0.00132407
0.00132572
-0.0013254
0.00132546
-0.00132545
0.00132545
-0.00132545
0.00132545
-0.00132545
0.00132545
-0.00132545
0.00132545
-0.00132545
0.00132545
-0.00132545
0.00132545
-0.00132545
0.00132545
-0.00132545
0.00132545
-0.00132545
0.00132545
-0.00132545
0.00132545
-0.00132545
0.00132545
-0.00132545
0.00132545
-0.00132545
0.00132545
-0.00132545
0.00132545
-0.00132545
0.00132545
-0.00132548
0.0013253
-0.00132612
0.00132288
-0.00133364
0.00130442
-0.00136626
0.001273
-0.00135307
0.00134453
-0.0013621
0.00106977
-0.00158054
0.00162124
-0.000996949
0.000445419
-0.00182995
0.0026948
-0.00216224
-0.000230585
0.000979005
-0.00053837
-0.00205527
0.00366802
-0.00545453
0.00476227
-0.00489875
0.00313473
-0.00270699
0.000133756
-0.214188
-0.214188
1
1.05805
1.08616
1.12981
1.10424
1.12513
1.10519
1.08515
1.10706
1.06648
1.08286
1.09077
1.04764
1.06048
1.06411
1.01808
1.01099
1.02506
0.988753
0.928589
0.876838
0.784956
0.613364
0.40409
0.225163
0.108421
0.0457451
0.0173924
0.00581314
0.00191546
0.000434265
0.000221991
-5.27258e-05
9.32418e-05
-8.42034e-05
8.60901e-05
-8.57203e-05
8.57886e-05
-8.57767e-05
8.57786e-05
-8.57783e-05
8.57784e-05
-8.57784e-05
8.57784e-05
-8.57784e-05
8.57784e-05
-8.57784e-05
8.57784e-05
-8.57784e-05
8.57784e-05
-8.57784e-05
8.57784e-05
-8.57784e-05
8.57784e-05
-8.57784e-05
8.57784e-05
-8.57784e-05
8.57784e-05
-8.57784e-05
8.57784e-05
-8.57784e-05
8.57784e-05
-8.57784e-05
8.57784e-05
-8.57784e-05
8.57782e-05
-8.57792e-05
8.57727e-05
-8.58111e-05
8.56112e-05
-8.65174e-05
8.29952e-05
-9.44946e-05
6.39049e-05
-0.000126986
3.5254e-05
-0.000108808
0.000105217
-0.000135193
-0.000178104
-0.000305683
0.000414604
0.000163384
-0.000841439
-0.000414478
0.00141577
-0.0011666
-0.00114763
0.00216552
-0.00210085
-0.000231408
0.00190785
-0.00399236
0.00364231
-0.00404191
0.00259958
-0.00236724
0.00185356
0.213611
0.213611
1
1.05202
1.07739
1.11904
1.09889
1.11344
1.10359
1.07589
1.10107
1.06117
1.07459
1.08692
1.04785
1.05335
1.06364
1.01782
1.0081
1.02056
0.991606
0.928897
0.876472
0.784293
0.620374
0.411821
0.234184
0.112447
0.0496094
0.0174836
0.00743009
0.000948903
0.00162257
-0.000897871
0.00108642
-0.00104091
0.00105115
-0.00104899
0.00104942
-0.00104934
0.00104935
-0.00104935
0.00104935
-0.00104935
0.00104935
-0.00104935
0.00104935
-0.00104935
0.00104935
-0.00104935
0.00104935
-0.00104935
0.00104935