# vtk DataFile Version 2.0
FlowField
ASCII
DATASET STRUCTURED_GRID
DIMENSIONS 100 1 100
POINTS 10000 float
0 0 0
0.01 0 0
0.02 0 0
0.03 0 0
0.04 0 0
0.05 0 0
0.06 0 0
0.07 0 0
0.08 0 0
0.09 0 0
0.1 0 0
0.11 0 0
0.12 0 0
0.13 0 0
0.14 0 0
0.15 0 0
0.16 0 0
0.17 0 0
0.18 0 0
0.19 0 0
0.2 0 0
0.21 0 0
0.22 0 0
0.23 0 0
0.24 0 0
0.25 0 0
0.26 0 0
0.27 0 0
0.28 0 0
0.29 0 0
0.3 0 0
0.31 0 0
0.32 0 0
0.33 0 0
0.34 0 0
0.35 0 0
0.36 0 0
0.37 0 0
0.38 0 0
0.39 0 0
0.4 0 0
0.41 0 0
0.42 0 0
0.43 0 0
0.44 0 0
0.45 0 0
0.46 0 0
0.47 0 0
0.48 0 0
0.49 0 0
0.5 0 0
0.51 0 0
0.52 0 0
0.53 0 0
0.54 0 0
0.55 0 0
0.56 0 0
0.57 0 0
0.58 0 0
0.59 0 0
0.6 0 0
0.61 0 0
0.62 0 0
0.63 0 0
0.64 0 0
0.65 0 0
0.66 0 0
0.67 0 0
0.68 0 0
0.69 0 0
0.7 0 0
0.71 0 0
0.72 0 0
0.73 0 0
0.74 0 0
0.75 0 0
0.76 0 0
0.77 0 0
0.78 0 0
0.79 0 0
0.8 0 0
0.81 0 0
0.82 0 0
0.83 0 0
0.84 0 0
0.85 0 0
0.86 0 0
0.87 0 0
0.88 0 0
0.89 0 0
0.9 0 0
0.91 0 0
0.92 0 0
0.93 0 0
0.94 0 0
0.95 0 0
0.96 0 0
0.97 0 0
0.98 0 0
0.99 0 0
0 0.001 0
0.01 0.001 0
0.02 0.001 0
0.03 0.001 0
0.04 0.001 0
0.05 0.001 0
0.06 0.001 0
0.07 0.001 0
0.08 0.001 0
0.09 0.001 0
0.1 0.001 0
0.11 0.001 0
0.12 0.001 0
0.13 0.001 0
0.14 0.001 0
0.15 0.001 0
0.16 0.001 0
0.17 0.001 0
0.18 0.001 0
0.19 0.001 0
0.2 0.001 0
0.21 0.001 0
0.22 0.001 0
0.23 0.001 0
0.24 0.001 0
0.25 0.001 0
0.26 0.001 0
0.27 0.001 0
0.28 0.001 0
0.29 0.001 0
0.3 0.001 0
0.31 0.001 0
0.32 0.001 0
0.33 0.001 0
0.34 0.001 0
0.35 0.001 0
0.36 0.001 0
0.37 0.001 0
0.38 0.001 0
0.39 0.001 0
0.4 0.001 0
0.41 0.001 0
0.42 0.001 0
0.43 0.001 0
0.44 0.001 0
0.45 0.001 0
0.46 0.001 0
0.47 0.001 0
0.48 0.001 0
0.49 0.001 0
0.5 0.001 0
0.51 0.001 0
0.52 0.001 0
0.53 0.001 0
0.54 0.001 0
0.55 0.001 0
0.56 0.001 0
0.57 0.001 0
0.58 0.001 0
0.59 0.001 0
0.6 0.001 0
0.61 0.001 0
0.62 0.001 0
0.63 0.001 0
0.64 0.001 0
0.65 0.001 0
0.66 0.001 0
0.67 0.001 0
0.68 0.001 0
0.69 0.001 0
0.7 0.001 0
0.71 0.001 0
0.72 0.001 0
0.73 0.001 0
0.74 0.001 0
0.75 0.001 0
0.76 0.001 0
0.77 0.001 0
0.78 0.001 0
0.79 0.001 0
0.8 0.001 0
0.81 0.001 0
0.82 0.001 0
0.83 0.001 0
0.84 0.001 0
0.85 0.001 0
0.86 0.001 0
0.87 0.001 0
0.88 0.001 0
0.89 0.001 0
0.9 0.001 0
0.91 0.001 0
0.92 0.001 0
0.93 0.001 0
0.94 0.001 0
0.95 0.001 0
0.96 0.001 0
0.97 0.001 0
0.98 0.001 0
0.99 0.001 0
0 0.002 0
0.01 0.002 0
0.02 0.002 0
0.03 0.002 0
0.04 0.002 0
0.05 0.002 0
0.06 0.002 0
0.07 0.002 0
0.08 0.002 0
0.09 0.002 0
0.1 0.002 0
0.11 0.002 0
0.12 0.002 0
0.13 0.002 0
0.14 0.002 0
0.15 0.002 0
0.16 0.002 0
0.17 0.002 0
0.18 0.002 0
0.19 0.002 0
0.2 0.002 0
0.21 0.002 0
0.22 0.002 0
0.23 0.002 0
0.24 0.002 0
0.25 0.002 0
0.26 0.002 0
0.27 0.002 0
0.28 0.002 0
0.29 0.002 0
0.3 0.002 0
0.31 0.002 0
0.32 0.002 0
0.33 0.002 0
0.34 0.002 0
0.35 0.002 0
0.36 0.002 0
0.37 0.002 0
0.38 0.002 0
0.39 0.002 0
0.4 0.002 0
0.41 0.002 0
0.42 0.002 0
0.43 0.002 0
0.44 0.002 0
0.45 0.002 0
0.46 0.002 0
0.47 0.002 0
0.48 0.002 0
0.49 0.002 0
0.5 0.002 0
0.51 0.002 0
0.52 0.002 0
0.53 0.002 0
0.54 0.002 0
0.55 0.002 0
0.56 0.002 0
0.57 0.002 0
0.58 0.002 0
0.59 0.002 0
0.6 0.002 0
0.61 0.002 0
0.62 0.002 0
0.63 0.002 0
0.64 0.002 0
0.65 0.002 0
0.66 0.002 0
0.67 0.002 0
0.68 0.002 0
0.69 0.002 0
0.7 0.002 0
0.71 0.002 0
0.72 0.002 0
0.73 0.002 0
0.74 0.002 0
0.75 0.002 0
0.76 0.002 0
0.77 0.002 0
0.78 0.002 0
0.79 0.002 0
0.8 0.002 0
0.81 0.002 0
0.82 0.002 0
0.83 0.002 0
0.84 0.002 0
0.85 0.002 0
0.86 0.002 0
0.87 0.002 0
0.88 0.002 0
0.89 0.002 0
0.9 0.002 0
0.91 0.002 0
0.92 0.002 0
0.93 0.002 0
0.94 0.002 0
0.95 0.002 0
0.96 0.002 0
0.97 0.002 0
0.98 0.002 0
0.99 0.002 0
0 0.003 0
0.01 0.003 0
0.02 0.003 0
0.03 0.003 0
0.04 0.003 0
0.05 0.003 0
0.06 0.003 0
0.07 0.003 0
0.08 0.003 0
0.09 0.003 0
0.1 0.003 0
0.11 0.003 0
0.12 0.003 0
0.13 0.003 0
0.14 0.003 0
0.15 0.003 0
0.16 0.003 0
0.17 0.003 0
0.18 0.003 0
0.19 0.003 0
0.2 0.003 0
0.21 0.003 0
0.22 0.003 0
0.23 0.003 0
0.24 0.003 0
0.25 0.003 0
0.26 0.003 0
0.27 0.003 0
0.28 0.003 0
0.29 0.003 0
0.3 0.003 0
0.31 0.003 0
0.32 0.003 0
0.33 0.003 0
0.34 0.003 0
0.35 0.003 0
0.36 0.003 0
0.37 0.003 0
0.38 0.003 0
0.39 0.003 0
0.4 0.003 0
0.41 0.003 0
0.42 0.003 0
0.43 0.003 0
0.44 0.003 0
0.45 0.003 0
0.46 0.003 0
0.47 0.003 0
0.48 0.003 0
0.49 0.003 0
0.5 0.003 0
0.51 0.003 0
0.52 0.003 0
0.53 0.003 0
0.54 0.003 0
0.55 0.003 0
0.56 0.003 0
0.57 0.003 0
0.58 0.003 0
0.59 0.003 0
0.6 0.003 0
0.61 0.003 0
0.62 0.003 0
0.63 0.003 0
0.64 0.003 0
0.65 0.003 0
0.66 0.003 0
0.67 0.003 0
0.68 0.003 0
0.69 0.003 0
0.7 0.003 0
0.71 0.003 0
0.72 0.003 0
0.73 0.003 0
0.74 0.003 0
0.75 0.003 0
0.76 0.003 0
0.77 0.003 0
0.78 0.003 0
0.79 0.003 0
0.8 0.003 0
0.81 0.003 0
0.82 0.003 0
0.83 0.003 0
0.84 0.003 0
0.85 0.003 0
0.86 0.003 0
0.87 0.003 0
0.88 0.003 0
0.89 0.003 0
0.9 0.003 0
0.91 0.003 0
0.92 0.003 0
0.93 0.003 0
0.94 0.003 0
0.95 0.003 0
0.96 0.003 0
0.97 0.003 0
0.98 0.003 0
0.99 0.003 0
0 0.004 0
0.01 0.004 0
0.02 0.004 0
0.03 0.004 0
0.04 0.004 0
0.05 0.004 0
0.06 0.004 0
0.07 0.004 0
0.08 0.004 0
0.09 0.004 0
0.1 0.004 0
0.11 0.004 0
0.12 0.004 0
0.13 0.004 0
0.14 0.004 0
0.15 0.004 0
0.16 0.004 0
0.17 0.004 0
0.18 0.004 0
0.19 0.004 0
0.2 0.004 0
0.21 0.004 0
0.22 0.004 0
0.23 0.004 0
0.24 0.004 0
0.25 0.004 0
0.26 0.004 0
0.27 0.004 0
0.28 0.004 0
0.29 0.004 0
0.3 0.004 0
0.31 0.004 0
0.32 0.004 0
0.33 0.004 0
0.34 0.004 0
0.35 0.004 0
0.36 0.004 0
0.37 0.004 0
0.38 0.004 0
0.39 0.004 0
0.4 0.004 0
0.41 0.004 0
0.42 0.004 0
0.43 0.004 0
0.44 0.004 0
0.45 0.004 0
0.46 0.004 0
0.47 0.004 0
0.48 0.004 0
0.49 0.004 0
0.5 0.004 0
0.51 0.004 0
0.52 0.004 0
0.53 0.004 0
0.54 0.004 0
0.55 0.004 0
0.56 0.004 0
0.57 0.004 0
0.58 0.004 0
0.59 0.004 0
0.6 0.004 0
0.61 0.004 0
0.62 0.004 0
0.63 0.004 0
0.64 0.004 0
0.65 0.004 0
0.66 0.004 0
0.67 0.004 0
0.68 0.004 0
0.69 0.004 0
0.7 0.004 0
0.71 0.004 0
0.72 0.004 0
0.73 0.004 0
0.74 0.004 0
0.75 0.004 0
0.76 0.004 0
0.77 0.004 0
0.78 0.004 0
0.79 0.004 0
0.8 0.004 0
0.81 0.004 0
0.82 0.004 0
0.83 0.004 0
0.84 0.004 0
0.85 0.004 0
0.86 0.004 0
0.87 0.004 0
0.88 0.004 0
0.89 0.004 0
0.9 0.004 0
0.91 0.004 0
0.92 0.004 0
0.93 0.004 0
0.94 0.004 0
0.95 0.004 0
0.96 0.004 0
0.97 0.004 0
0.98 0.004 0
0.99 0.004 0
0 0.005 0
0.01 0.005 0
0.02 0.005 0
0.03 0.005 0
0.04 0.005 0
0.05 0.005 0
0.06 0.005 0
0.07 0.005 0
0.08 0.005 0
0.09 0.005 0
0.1 0.005 0
0.11 0.005 0
0.12 0.005 0
0.13 0.005 0
0.14 0.005 0
0.15 0.005 0
0.16 0.005 0
0.17 0.005 0
0.18 0.005 0
0.19 0.005 0
0.2 0.005 0
0.21 0.005 0
0.22 0.005 0
0.23 0.005 0
0.24 0.005 0
0.25 0.005 0
0.26 0.005 0
0.27 0.005 0
0.28 0.005 0
0.29 0.005 0
0.3 0.005 0
0.31 0.005 0
0.32 0.005 0
0.33 0.005 0
0.34 0.005 0
0.35 0.005 0
0.36 0.005 0
0.37 0.005 0
0.38 0.005 0
0.39 0.005 0
0.4 0.005 0
0.41 0.005 0
0.42 0.005 0
0.43 0.005 0
0.44 0.005 0
0.45 0.005 0
0.46 0.005 0
0.47 0.005 0
0.48 0.005 0
0.49 0.005 0
0.5 0.005 0
0.51 0.005 0
0.52 0.005 0
0.53 0.005 0
0.54 0.005 0
0.55 0.005 0
0.56 0.005 0
0.57 0.005 0
0.58 0.005 0
0.59 0.005 0
0.6 0.005 0
0.61 0.005 0
0.62 0.005 0
0.63 0.005 0
0.64 0.005 0
0.65 0.005 0
0.66 0.005 0
0.67 0.005 0
0.68 0.005 0
0.69 0.005 0
0.7 0.005 0
0.71 0.005 0
0.72 0.005 0
0.73 0.005 0
0.74 0.005 0
0.75 0.005 0
0.76 0.005 0
0.77 0.005 0
0.78 0.005 0
0.79 0.005 0
0.8 0.005 0
0.81 0.005 0
0.82 0.005 0
0.83 0.005 0
0.84 0.005 0
0.85 0.005 0
0.86 0.005 0
0.87 0.005 0
0.88 0.005 0
0.89 0.005 0
0.9 0.005 0
0.91 0.005 0
0.92 0.005 0
0.93 0.005 0
0.94 0.005 0
0.95 0.005 0
0.96 0.005 0
0.97 0.005 0
0.98 0.005 0
0.99 0.005 0
0 0.006 0
0.01 0.006 0
0.02 0.006 0
0.03 0.006 0
0.04 0.006 0
0.05 0.006 0
0.06 0.006 0
0.07 0.006 0
0.08 0.006 0
0.09 0.006 0
0.1 0.006 0
0.11 0.006 0
0.12 0.006 0
0.13 0.006 0
0.14 0.006 0
0.15 0.006 0
0.16 0.006 0
0.17 0.006 0
0.18 0.006 0
0.19 0.006 0
0.2 0.006 0
0.21 0.006 0
0.22 0.006 0
0.23 0.006 0
0.24 0.006 0
0.25 0.006 0
0.26 0.006 0
0.27 0.006 0
0.28 0.006 0
0.29 0.006 0
0.3 0.006 0
0.31 0.006 0
0.32 0.006 0
0.33 0.006 0
0.34 0.006 0
0.35 0.006 0
0.36 0.006 0
0.37 0.006 0
0.38 0.006 0
0.39 0.006 0
0.4 0.006 0
0.41 0.006 0
0.42 0.006 0
0.43 0.006 0
0.44 0.006 0
0.45 0.006 0
0.46 0.006 0
0.47 0.006 0
0.48 0.006 0
0.49 0.006 0
0.5 0.006 0
0.51 0.006 0
0.52 0.006 0
0.53 0.006 0
0.54 0.006 0
0.55 0.006 0
0.56 0.006 0
0.57 0.006 0
0.58 0.006 0
0.59 0.006 0
0.6 0.006 0
0.61 0.006 0
0.62 0.006 0
0.63 0.006 0
0.64 0.006 0
0.65 0.006 0
0.66 0.006 0
0.67 0.006 0
0.68 0.006 0
0.69 0.006 0
0.7 0.006 0
0.71 0.006 0
0.72 0.006 0
0.73 0.006 0
0.74 0.006 0
0.75 0.006 0
0.76 0.006 0
0.77 0.006 0
0.78 0.006 0
0.79 0.006 0
0.8 0.006 0
0.81 0.006 0
0.82 0.006 0
0.83 0.006 0
0.84 0.006 0
0.85 0.006 0
0.86 0.006 0
0.87 0.006 0
0.88 0.006 0
0.89 0.006 0
0.9 0.006 0
0.91 0.006 0
0.92 0.006 0
0.93 0.006 0
0.94 0.006 0
0.95 0.006 0
0.96 0.006 0
0.97 0.006 0
0.98 0.006 0
0.99 0.006 0
0 0.007 0
0.01 0.007 0
0.02 0.007 0
0.03 0.007 0
0.04 0.007 0
0.05 0.007 0
0.06 0.007 0
0.07 0.007 0
0.08 0.007 0
0.09 0.007 0
0.1 0.007 0
0.11 0.007 0
0.12 0.007 0
0.13 0.007 0
0.14 0.007 0
0.15 0.007 0
0.16 0.007 0
0.17 0.007 0
0.18 0.007 0
0.19 0.007 0
0.2 0.007 0
0.21 0.007 0
0.22 0.007 0
0.23 0.007 0
0.24 0.007 0
0.25 0.007 0
0.26 0.007 0
0.27 0.007 0
0.28 0.007 0
0.29 0.007 0
0.3 0.007 0
0.31 0.007 0
0.32 0.007 0
0.33 0.007 0
0.34 0.007 0
0.35 0.007 0
0.36 0.007 0
0.37 0.007 0
0.38 0.007 0
0.39 0.007 0
0.4 0.007 0
0.41 0.007 0
0.42 0.007 0
0.43 0.007 0
0.44 0.007 0
0.45 0.007 0
0.46 0.007 0
0.47 0.007 0
0.48 0.007 0
0.49 0.007 0
0.5 0.007 0
0.51 0.007 0
0.52 0.007 0
0.53 0.007 0
0.54 0.007 0
0.55 0.007 0
0.56 0.007 0
0.57 0.007 0
0.58 0.007 0
0.59 0.007 0
0.6 0.007 0
0.61 0.007 0
0.62 0.007 0
0.63 0.007 0
0.64 0.007 0
0.65 0.007 0
0.66 0.007 0
0.67 0.007 0
0.68 0.007 0
0.69 0.007 0
0.7 0.007 0
0.71 0.007 0
0.72 0.007 0
0.73 0.007 0
0.74 0.007 0
0.75 0.007 0
0.76 0.007 0
0.77 0.007 0
0.78 0.007 0
0.79 0.007 0
0.8 0.007 0
0.81 0.007 0
0.82 0.007 0
0.83 0.007 0
0.84 0.007 0
0.85 0.007 0
0.86 0.007 0
0.87 0.007 0
0.88 0.007 0
0.89 0.007 0
0.9 0.007 0
0.91 0.007 0
0.92 0.007 0
0.93 0.007 0
0.94 0.007 0
0.95 0.007 0
0.96 0.007 0
0.97 0.007 0
0.98 0.007 0
[...]
POINT_DATA 10000

SCALARS vel_X float 1
LOOKUP_TABLE default
0
0
0
0
0
0
0
0
0
0
0
0
0
0
0
0
0
0
0
0
0
0
0
0
0
0
0
0
0
0
0
0
0
0
0
0
0
0
0
0
0
0
0
0
0
0
0
0
0
0
0
0
0
0
0
0
0
0
0
0
0
0
0
0
0
0
0
0
0
0
0
0
0
0
0
0
0
0
0
0
0
0
0
0
0
0
0
0
0
0
0
0
0
0
0
0
0
0
0
0
1
0.334348
0.177918
0.175818
0.08688
0.147912
0.0692118
0.104645
0.0965771
0.0573581
0.103747
0.0640372
0.0674306
0.100595
0.0326542
0.0971258
0.100437
0.0506967
0.0709719
0.122396
0.086057
0.124587
0.172752
0.182128
0.150689
0.198838
0.231219
0.245961
0.229812
0.276819
0.307464
0.316861
0.243273
0.173014
0.088469
0.0541633
0.014966
0.0153064
-0.00319171
0.00765774
-0.00613203
0.00661738
-0.00647301
0.00651331
-0.00650272
0.00650535
-0.00650473
0.00650487
-0.00650484
0.00650484
-0.00650484
0.00650484
-0.00650484
0.00650484
-0.00650484
0.00650484
-0.00650484
0.00650484
-0.00650486
0.00650478
-0.00650509
0.00650397
-0.00650749
0.00649806
-0.00651892
0.00648285
-0.00652581
0.00650466
-0.00647893
0.00650118
-0.0066243
0.00635164
-0.00636516
0.00692186
-0.00667523
0.00555953
-0.00626829
0.00806895
-0.0075546
0.00446723
-0.00358999
0.00702587
-0.0110642
0.0103054
-0.00620676
0.00116713
0.00113932
0.00108547
-0.00760368
0.0134839
-0.0168574
0.0167621
-0.0154037
0.0125778
-0.0101212
0.00694669
-0.00509312
-0.000927093
-0.223398
-0.223398
1
0.577371
0.348332
0.322606
0.195419
0.269365
0.156722
0.208605
0.184203
0.141789
0.19526
0.142933
0.151295
0.191389
0.102933
0.197777
0.192812
0.135161
0.169864
0.241821
0.197065
0.265105
0.330785
0.345948
0.309584
0.387713
0.431304
0.453962
0.434266
0.503236
0.531586
0.521643
0.389205
0.270839
0.136644
0.0829386
0.0225397
0.0233406
-0.00507716
0.0117818
-0.00949926
0.0102234
-0.0100085
0.0100684
-0.0100527
0.0100566
-0.0100556
0.0100559
-0.0100558
0.0100558
-0.0100558
0.0100558
-0.0100558
0.0100558
-0.0100558
0.0100558
-0.0100558
0.0100558
-0.0100558
0.0100557
-0.0100562
0.0100545
-0.0100598
0.0100455
-0.0100775
0.0100211
-0.0100915
0.0100486
-0.0100229
0.0100529
-0.0102255
0.00981548
-0.00989851
0.0106537
-0.0102143
0.00871849
-0.00990883
0.0122424
-0.0112386
0.00705889
-0.00638277
0.0112477
-0.0163163
0.01458
-0.00898257
0.00257135
-0.000304797
0.00376001
-0.0125763
0.0198349
-0.023836
0.0230418
-0.0209664
0.0167629
-0.0135179
0.009012
-0.00679578
0.00248422
0.325076
0.325076
1
0.750569
0.500539
0.452069
0.311485
0.371866
0.260745
0.299163
0.279522
0.230945
0.283757
0.231548
0.239654
0.281235
0.195035
0.288257
0.292892
0.23634
0.276299
0.354713
0.320879
0.395035
0.47247
0.492811
0.464492
0.547467
0.599572
0.622445
0.604421
0.666367
0.68255
0.643116
0.478075
0.324426
0.167805
0.0966229
0.0302307
0.0249459
-0.00296699
0.0110469
-0.00829138
0.00916745
-0.00890685
0.00897966
-0.0089605
0.00896527
-0.00896414
0.0089644
-0.00896434
0.00896435
-0.00896435
0.00896435
-0.00896435
0.00896435
-0.00896435
0.00896435
-0.00896435
0.00896435
-0.00896438
0.00896424
-0.0089648
0.00896277
-0.00896914
0.00895204
-0.00899025
0.0089226
-0.00900836
0.00895127
-0.00893326
0.00895486
-0.00915908
0.0086922
-0.00880103
0.0096025
-0.00914699
0.00753178
-0.00880431
0.0112296
-0.0102648
0.00590683
-0.00513275
0.00998097
-0.0153272
0.0136772
-0.00827024
0.00168957
0.000809715
0.00199169
-0.0106525
0.0179753
-0.0226797
0.0222298
-0.0206987
0.0164652
-0.0135691
0.00881823
-0.00698189
0.000290853
-0.286455
-0.286455
1
0.871926
0.630535
0.569043
0.424877
0.464282
0.369704
0.380496
0.379552
0.317739
0.37204
0.323002
0.327366
0.372066
0.29369
0.370317
0.398046
0.340917
0.379587
0.459618
0.442209
0.506978
0.596385
0.621663
0.602793
0.67504
0.735329
0.75302
0.734765
0.773336
0.777143
0.711287
0.53373
0.354946
0.190883
0.103285
0.0383948
0.0235028
0.00126733
0.00788296
-0.00474705
0.00574911
-0.00544953
0.00553366
-0.00551141
0.00551697
-0.00551566
0.00551595
-0.00551589
0.0055159
-0.0055159
0.0055159
-0.0055159
0.0055159
-0.0055159
0.0055159
-0.0055159
0.00551589
-0.00551593
0.00551577
-0.00551642
0.0055141
-0.00552129
0.00550217
-0.00554446
0.00547034
-0.00556367
0.00550014
-0.00548924
0.00549337
-0.00572926
0.00524387
-0.00532871
0.00613332
-0.00578918
0.00410232
-0.00519616
0.00764818
-0.00710266
0.00283379
-0.00153512
0.00574107
-0.0114197
0.0106289
-0.00602074
-0.000581418
0.00386329
-0.00271956
-0.00489034
0.0121676
-0.018057
0.018755
-0.0184745
0.0148563
-0.0127185
0.00811086
-0.00675714
0.00303417
0.300956
0.300956
1
0.955199
0.738991
0.673405
0.531716
0.549599
0.47587
0.456911
0.477617
0.401177
0.458495
0.412306
0.412052
0.461009
0.390687
0.445858
0.500559
0.441084
0.4749
0.553698
0.551589
0.600283
0.701041
0.730187
0.718314
0.772808
0.839674
0.848965
0.827568
0.837827
0.832768
0.748058
0.570393
0.374308
0.209741
0.107319
0.0464901
0.0211813
0.00608588
0.00405508
-0.000556567
0.00168178
-0.00134325
0.00143891
-0.00141345
0.00141985
-0.00141833
0.00141868
-0.0014186
0.00141862
-0.00141861
0.00141861
-0.00141861
0.00141861
-0.00141861
0.00141861
-0.00141862
0.00141861
-0.00141865
0.00141846
-0.0014192
0.00141661
-0.00142456
0.00140372
-0.00144908
0.001371
-0.00146723
0.00140304
-0.00139633
0.00137983
-0.00164919
0.00116266
-0.00119175
0.00199352
-0.00182274
6.02227e-05
-0.000858116
0.00335549
-0.00338748
-0.000735729
0.00275936
0.000614918
-0.00671939
0.00707172
-0.00336717
-0.00325297
0.00746521
-0.00821531
0.00194436
0.00522213
-0.0124035
0.0145422
-0.0157527
0.0129942
-0.0117067
0.00737167
-0.00647672
0.00051611
-0.295385
-0.295385
1
1.01078
0.828322
0.763881
0.631015
0.62744
0.575765
0.529556
0.569222
0.480854
0.540521
0.496452
0.491921
0.544244
0.482596
0.514363
0.594159
0.532749
0.560149
0.634226
0.645243
0.675728
0.785705
0.816978
0.810357
0.844495
0.915839
0.915178
0.890103
0.873229
0.863819
0.767054
0.596512
0.388326
0.226457
0.110513
0.0544366
0.0187524
0.0109755
0.000165954
0.00370637
-0.00245195
0.00283199
-0.00272388
0.00275284
-0.00274551
0.00274726
-0.00274686
0.00274695
-0.00274693
0.00274694
-0.00274693
0.00274693
-0.00274693
0.00274693
-0.00274694
0.00274693
-0.00274694
0.00274689
-0.00274711
0.00274627
-0.00274916
0.00274046
-0.00276291
0.00271493
-0.00279565
0.00269918
-0.00276043
0.00276541
-0.00280298
0.0025006
-0.00297859
0.0030206
-0.00222365
0.00219975
-0.00403221
0.00356806
-0.00103182
0.000396977
-0.00432605
0.00707808
-0.00459564
-0.00187357
0.00337432
-0.000570005
-0.00595246
0.010914
-0.0134412
0.00869362
-0.00193518
-0.0062846
0.0098427
-0.012591
0.0108301
-0.0104503
0.00650953
-0.00604394
0.00305936
0.297741
0.297741
1
1.04646
0.901212
0.839885
0.722302
0.696923
0.6678
0.597845
0.652291
0.555671
0.616154
0.573701
0.565348
0.61891
0.567934
0.574464
0.675325
0.613861
0.634527
0.699892
0.722626
0.734359
0.850806
0.882436
0.881105
0.894229
0.968474
0.957661
0.930859
0.8902
0.880502
0.776115
0.616877
0.399619
0.242194
0.11344
0.0623903
0.0163449
0.015911
-0.00372349
0.00799245
-0.00659918
0.00702433
-0.00690254
0.00693538
-0.00692702
0.00692904
-0.00692857
0.00692867
-0.00692865
0.00692866
-0.00692866
0.00692866
-0.00692866
0.00692866
-0.00692866
0.00692866
-0.00692867
0.00692861
-0.00692885
0.00692792
-0.00693111
0.00692163
-0.00694567
0.00689531
-0.00697791
0.00688278
-0.00693906
0.0069436
-0.00700193
0.0066691
-0.00713071
0.00724932
-0.00646463
0.00624311
-0.00812046
0.00799624
-0.00546504
0.0042561
-0.00790761
0.0112919
-0.00975258
0.0030946
-0.000536625
0.00242547
-0.00865987
0.0140568
-0.0181213
0.0150715
-0.00916268
0.000349063
0.00445377
-0.00872316
0.00809365
-0.0087243
0.00534846
-0.00540249
0.000270138
-0.296538
-0.296538
1
1.06796
0.96014
0.901807
0.80495
0.757779
0.750894
0.660928
0.726103
0.624275
0.684269
0.643112
0.631078
0.683406
0.645821
0.625374
0.742644
0.6835
0.697987
0.750963
0.784603
0.777597
0.897839
0.928513
0.933767
0.926335
1.00269
0.982559
0.957185
0.896353
0.889265
0.779634
0.633982
0.409389
0.257488
0.116306
0.0704411
0.013981
0.0209113
-0.00761758
0.012311
-0.0107676
0.011242
-0.0111051
0.0111423
-0.0111328
0.0111351
-0.0111346
0.0111347
-0.0111346
0.0111346
-0.0111346
0.0111346
-0.0111346
0.0111346
-0.0111346
0.0111346
-0.0111347
0.0111346
-0.0111349
0.0111338
-0.0111373
0.0111271
-0.0111527
0.0111001
-0.011184
0.0110912
-0.0111416
0.0111459
-0.0112248
0.0108653
-0.0113029
0.0114983
-0.0107387
0.0103236
-0.0122083
0.0124196
-0.00995838
0.00822166
-0.0114936
0.0153764
-0.0148358
0.00820916
-0.00470476
0.00564627
-0.0114084
0.0169147
-0.0222186
0.0209742
-0.0163675
0.00748304
-0.00171001
-0.00400826
0.00462862
-0.00639658
0.003783
-0.00445035
0.0024925
0.297313
0.297313
1
1.07942
1.00728
0.950753
0.878273
0.810373
0.824187
0.718225
0.790558
0.685601
0.744296
0.704341
0.688411
0.737103
0.715642
0.667303
0.795977
0.741484
0.75102
0.788848
0.83259
0.807365
0.929
0.958051
0.971635
0.945082
1.02324
0.995323
0.974471
0.896748
0.893808
0.780101
0.648971
0.418275
0.272457
0.119286
0.0785239
0.0117665
0.0258863
-0.01142
0.0165685
-0.0148624
0.0153907
-0.0152372
0.0152791
-0.0152683
0.015271
-0.0152703
0.0152705
-0.0152704
0.0152705
-0.0152705
0.0152705
-0.0152705
0.0152705
-0.0152705
0.0152704
-0.0152705
0.0152704
-0.0152707
0.0152695
-0.0152734
0.0152623
-0.0152895
0.0152348
-0.0153197
0.0152299
-0.0152739
0.0152774
-0.015377
0.014995
-0.0154012
0.0156709
-0.014952
0.0143504
-0.0162003
0.0167375
-0.0144162
0.0122061
-0.0150005
0.0192347
-0.0197343
0.0133616
-0.00902732
0.00899828
-0.014154
0.0194811
-0.0256775
0.0262208
-0.0232914
0.0148816
-0.00850769
0.00149956
0.000429605
-0.00344331
0.00178055
-0.00321663
-0.000641222
-0.296693
-0.296693
1
1.08382
1.04447
0.988256
0.941719
0.855436
0.887142
0.769447
0.845884
0.73913
0.795943
0.757545
0.7372
0.780036
0.777018
0.70129
0.83593
0.788179
0.794439
0.815591
0.868232
0.825987
0.946784
0.974182
0.997659
0.954375
1.03409
1.0003
0.986205
0.894582
0.896063
0.778998
0.662248
0.426713
0.286966
0.122604
0.0864419
0.00990911
0.0306341
-0.0149256
0.0205612
-0.0186794
0.0192664
-0.0190946
0.0191419
-0.0191296
0.0191326
-0.0191319
0.0191321
-0.0191321
0.0191321
-0.0191321
0.0191321
-0.0191321
0.0191321
-0.0191321
0.0191321
-0.0191321
0.019132
-0.0191323
0.0191311
-0.0191353
0.0191233
-0.0191521
0.0190955
-0.0191809
0.0190946
-0.0191323
0.0191339
-0.0192545
0.0188546
-0.0192225
0.0195617
-0.0188999
0.0181216
-0.019895
0.0207424
-0.0186271
0.0160062
-0.0182429
0.0226742
-0.0242254
0.0183163
-0.0132794
0.0122772
-0.0167511
0.0216675
-0.0283727
0.0305399
-0.029536
0.0221299
-0.0156124
0.00758494
-0.00438508
7.32821e-05
-0.000634824
-0.00167198
0.00124522
0.2973
0.2973
1
1.08336
1.07318
1.01608
0.994977
0.893838
0.939652
0.81449
0.892507
0.784917
0.839048
0.80327
0.777757
0.812718
0.82977
0.728871
0.863568
0.824369
0.829173
0.833493
0.89325
0.83597
0.953639
0.97994
1.01426
0.957521
1.03818
1.00067
0.9944
0.891827
0.896913
0.777293
0.673834
0.435073
0.300746
0.126539
0.0939106
0.00869149
0.0348736
-0.0178514
0.0240076
-0.0219361
0.0225871
-0.0223953
0.0224484
-0.0224345
0.022438
-0.0224372
0.0224374
-0.0224373
0.0224373
-0.0224373
0.0224373
-0.0224373
0.0224373
-0.0224373
0.0224373
-0.0224373
0.0224372
-0.0224376
0.0224362
-0.0224408
0.0224279
-0.0224584
0.0223999
-0.0224854
0.0224032
-0.0224347
0.0224331
-0.022575
0.0221617
-0.0224852
0.0228877
-0.0222989
0.0213567
-0.0230146
0.0241495
-0.022298
0.0193383
-0.0209607
0.0254296
-0.0280068
0.0227537
-0.0171568
0.0151981
-0.0189643
0.0233069
-0.0301291
0.0336208
-0.0346357
0.0287024
-0.0225605
0.0138992
-0.00958617
0.00400921
-0.00338372
9.16955e-05
-0.00219866
-0.296596
-0.296596
1
1.07968
1.09457
1.03606
1.03802
0.926443
0.98204
0.853397
0.93096
0.823523
0.873538
0.842304
0.810729
0.836032
0.873839
0.751782
0.880261
0.851124
0.856112
0.844864
0.909332
0.839781
0.95176
0.978047
1.02329
0.957135
1.03753
0.998702
1.00005
0.889698
0.896653
0.775695
0.683563
0.443712
0.313454
0.131405
0.100597
0.00843927
0.0382785
-0.0198699
0.0265815
-0.0243057
0.0250262
-0.0248124
0.0248721
-0.0248564
0.0248603
-0.0248594
0.0248596
-0.0248595
0.0248595
-0.0248595
0.0248595
-0.0248595
0.0248595
-0.0248595
0.0248595
-0.0248595
0.0248594
-0.0248599
0.0248583
-0.0248633
0.0248495
-0.0248815
0.0248214
-0.0249067
0.0248288
-0.0248546
0.0248484
-0.0250116
0.0245895
-0.0248638
0.0253215
-0.0248204
0.0237302
-0.0252376
0.0266302
-0.0250908
0.0218722
-0.022849
0.0271947
-0.0307341
0.0263098
-0.020312
0.0174257
-0.0204933
0.0241747
-0.0307514
0.0351629
-0.0381202
0.0340219
-0.0287915
0.019979
-0.0148365
0.0081336
-0.00632324
0.00203307
-0.000555475
0.297497
0.297497
1
1.07409
1.10951
1.04999
1.07109
0.954034
1.01498
0.886351
0.961777
0.855908
0.899445
0.875512
0.836989
0.851149
0.909214
0.771731
0.887574
0.869689
0.876008
0.851839
0.91804
0.839673
0.942994
0.970808
1.02605
0.955139
1.03338
0.995896
1.00352
0.888952
0.895281
0.774767
0.691203
0.45297
0.324735
0.137517
0.106161
0.00948401
0.0405156
-0.0206472
0.0279496
-0.0254546
0.0262504
-0.0260125
0.0260793
-0.0260616
0.0260661
-0.026065
0.0260653
-0.0260652
0.0260652
-0.0260652
0.0260652
-0.0260652
0.0260652
-0.0260652
0.0260652
-0.0260652
0.0260651
-0.0260656
0.0260639
-0.0260693
0.0260546
-0.0260881
0.0260265
-0.0261112
0.0260379
-0.0260586
0.0260464
-0.0262307
0.0258046
-0.0260256
0.0265294
-0.0261287
0.0249096
-0.0262362
0.0278499
-0.0266605
0.0232688
-0.0235938
0.0276591
-0.0320611
0.0286157
-0.0223911
0.0186126
-0.0210092
0.0240183
-0.0300533
0.0349179
-0.0395724
0.0375198
-0.0336976
0.0252778
-0.0197055
0.0121324
-0.00924655
0.00397999
-0.0041465
-0.296317
-0.296317
1
1.06757
1.11871
1.05949
1.09475
0.977254
1.03941
0.913705
0.985416
0.883297
0.91696
0.903684
0.857547
0.859445
0.935906
0.790223
0.88719
0.881371
0.889464
0.856249
0.920768
0.837564
0.928854
0.960078
1.02338
0.952838
1.02642
0.993248
1.00487
0.890049
0.892679
0.774957
0.696538
0.463139
0.33427
0.145149
0.110298
0.0121167
0.0412916
-0.0198893
0.0278192
-0.0250889
0.0259662
-0.0257021
0.0257768
-0.0257569
0.0257619
-0.0257607
0.025761
-0.025761
0.025761
-0.025761
0.025761
-0.025761
0.025761
-0.025761
0.025761
-0.025761
0.0257609
-0.0257614
0.0257595
-0.0257654
0.0257497
-0.0257848
0.0257218
-0.0258055
0.0257371
-0.0257533
0.0257336
-0.0259387
0.0255133
-0.0256783
0.0262177
-0.025928
0.0246019
-0.0257224
0.0275156
-0.0267029
0.0232263
-0.022918
0.0265555
-0.0316874
0.029344
-0.0230801
0.0184486
-0.0202041
0.0225979
-0.0278912
0.0327302
-0.0386872
0.038708
-0.0366922
0.0292195
-0.0237058
0.0156308
-0.0118944
0.00581386
-0.00250069
0.297828
0.297828
1
1.06094
1.12277
1.06592
1.10982
0.99659
1.05638
0.935991
1.00223
0.907018
0.926501
0.927422
0.873472
0.862414
0.953969
0.808421
0.880843
0.887449
0.896958
0.859518
0.918738
0.834972
0.910588
0.947261
1.01586
0.951001
1.01705
0.991353
1.00404
0.893218
0.888742
0.776578
0.699436
0.474418
0.341836
0.15448
0.1128
0.0165342
0.040406
-0.0173956
0.0259904
-0.0230084
0.0239738
-0.0236811
0.0237645
-0.0237421
0.0237478
-0.0237464
0.0237467
-0.0237467
0.0237467
-0.0237467
0.0237467
-0.0237467
0.0237467
-0.0237467
0.0237467
-0.0237467
0.0237466
-0.0237472
0.0237451
-0.0237514
0.0237348
-0.0237713
0.0237072
-0.0237897
0.0237262
-0.0237386
0.0237102
-0.0239351
0.0235153
-0.0236226
0.0241865
-0.024016
0.022607
-0.0235016
0.0254288
-0.0250083
0.0215341
-0.0206339
0.0237123
-0.0294125
0.0282621
-0.0221582
0.0167183
-0.0178493
0.0197356
-0.0242017
0.0285773
-0.0353296
0.0372553
-0.0372928
0.0312727
-0.026351
0.0182335
-0.0139821
0.00730635
-0.00592048
-0.295977
-0.295977
1
1.05475
1.12232
1.0703
1.11741
1.01238
1.06703
0.953906
1.01247
0.928334
0.928782
0.947059
0.885827
0.861576
0.963558
0.827043
0.870277
0.889107
0.898916
0.862596
0.913026
0.83298
0.889271
0.933333
1.00393
0.949942
1.00554
0.990481
1.00101
0.898473
0.883464
0.779775
0.699908
0.486862
0.347355
0.165544
0.113602
0.0227886
0.0378032
-0.0131104
0.0224082
-0.0191576
0.0202178
-0.0198941
0.019987
-0.0199619
0.0199683
-0.0199667
0.0199671
-0.019967
0.019967
-0.019967
0.019967
-0.019967
0.019967
-0.019967
0.019967
-0.0199671
0.0199669
-0.0199675
0.0199653
-0.0199721
0.0199545
-0.0199925
0.0199274
-0.0200082
0.0199498
-0.0199592
0.019921
-0.0201645
0.019755
-0.019804
0.0203807
-0.020335
0.0188687
-0.0195234
0.0215371
-0.021513
0.018124
-0.0166943
0.0191039
-0.0251869
0.0252839
-0.0195491
0.0133548
-0.0138536
0.0153657
-0.0190379
0.0226027
-0.0295842
0.0330598
-0.0352064
0.0310346
-0.0272266
0.0195787
-0.0152362
0.0083205
-0.00390596
0.298124
0.298124
1
1.04938
1.11803
1.0733
1.11879
1.02484
1.07239
0.968277
1.01637
0.94827
0.924863
0.962641
0.895602
0.858395
0.965004
0.846305
0.857201
0.887376
0.89578
0.865944
0.904607
0.83224
0.865908
0.918878
0.988026
0.949591
0.992163
0.990613
0.995899
0.905608
0.876993
0.784494
0.698151
0.500349
0.35094
0.178193
0.112821
0.0307477
0.0336107
-0.00716159
0.0172011
-0.0136644
0.0148264
-0.0144691
0.0145723
-0.0145443
0.0145515
-0.0145497
0.0145501
-0.01455
0.01455
-0.01455
0.01455
-0.01455
0.01455
-0.01455
0.01455
-0.0145501
0.0145499
-0.0145506
0.0145482
-0.0145555
0.0145368
-0.0145762
0.0145105
-0.0145893
0.0145359
-0.0145432
0.014494
-0.0147547
0.01436
-0.0143514
0.0149289
-0.015011
0.0135141
-0.0139207
0.0159724
-0.0163384
0.0131101
-0.0112313
0.0128887
-0.0191508
0.0205083
-0.0153585
0.00848078
-0.00830827
0.00957668
-0.012596
0.0151332
-0.0217813
0.0262982
-0.0304
0.0283083
-0.0260616
0.0193963
-0.0154368
0.00865877
-0.00678218
-0.295782
-0.295782
1
1.04499
1.11069
1.07523
1.11539
1.03414
1.07341
0.979998
1.01422
0.967471
0.916151
0.973957
0.903657
0.854195
0.958881
0.865914
0.843242
0.883115
0.888087
0.869552
0.894391
0.832997
0.841496
0.90414
0.968669
0.949561
0.977299
0.991474
0.989019
0.914202
0.86966
0.790469
0.694558
0.514558
0.352901
0.192079
0.110776
0.0400788
0.0281559
0.000122716
0.0106978
-0.00685664
0.00812804
-0.00773437
0.00784886
-0.00781751
0.00782562
-0.00782363
0.0078241
-0.007824
0.00782402
-0.00782401
0.00782401
-0.00782401
0.00782401
-0.00782401
0.007824
-0.00782405
0.00782385
-0.00782464
0.00782197
-0.0078298
0.00781019
-0.00785082
0.00778463
-0.00786117
0.00781282
-0.00781888
0.00775786
-0.00803392
0.00765833
-0.0075938
0.0081601
-0.00837007
0.0068697
-0.00702574
0.00906794
-0.00980761
0.00680561
-0.00457248
0.00542466
-0.011651
0.014237
-0.00988958
0.00242549
-0.00151143
0.00263396
-0.00522429
0.00667296
-0.0124941
0.0174442
-0.0231438
0.0231608
-0.0227888
0.0175603
-0.0144571
0.00826806
-0.00407414
0.298168
0.298168
1
1.04156
1.10116
1.07614
1.10862
1.0404
1.07087
0.989943
1.00647
0.986112
0.904369
0.980621
0.910671
0.850102
0.946057
0.885116
0.829895
0.877001
0.87651
0.873
0.883236
0.835141
0.817066
0.889087
0.946528
0.949218
0.961429
0.992566
0.980847
0.923643
0.861969
0.797237
0.689713
0.528985
0.353746
0.206664
0.107972
0.0502603
0.0219547
0.00822578
0.00341515
0.000748921
0.000639591
-0.000206597
0.000333392
-0.000298438
0.000307541
-0.000305297
0.000305822
-0.000305705
0.00030573
-0.000305725
0.000305726
-0.000305726
0.000305726
-0.000305728
0.000305716
-0.000305771
0.00030554
-0.000306409
0.000303521
-0.000311872
0.000291289
-0.00033312
0.000266685
-0.00034068
0.000297208
-0.00030296
0.000229416
-0.000518721
0.000166268
-4.85261e-05
0.000592104
-0.000927363
-0.000549779
0.00064103
0.00134598
-0.00243437
-0.000287695
0.00277056
-0.00274354
-0.0032291
0.00696357
-0.00363057
-0.00428813
0.00603786
-0.00502154
0.00259035
-0.00212921
-0.00250046
0.00724527
-0.0140137
0.0159493
-0.0175827
0.0141266
-0.0122959
0.00708282
-0.00617751
-0.295925
-0.295925
1
1.03892
1.09038
1.07584
1.09983
1.04385
1.06537
0.998887
0.993801
1.00386
0.891447
0.982186
0.917099
0.84699
0.927708
0.902793
0.818462
0.869544
0.861879
0.875559
0.871942
0.838281
0.793674
0.873495
0.922403
0.947762
0.945142
0.993227
0.97201
0.933171
0.854555
0.804177
0.684341
0.542986
0.354126
0.221268
0.105063
0.0606238
0.0156695
0.016484
-0.00398288
0.00848898
-0.00697534
0.00745072
-0.00731055
0.00734945
-0.00733926
0.00734179
-0.00734119
0.00734132
-0.00734129
0.0073413
-0.0073413
0.0073413
-0.0073413
0.0073413
-0.00734131
0.00734125
-0.00734151
0.00734056
-0.00734367
0.00733478
-0.00735633
0.0073134
-0.00737985
0.00730864
-0.00734742
0.00734106
-0.00742762
0.0071274
-0.0074531
0.0076204
-0.00711052
0.0066552
-0.00808326
0.00841326