# vtk DataFile Version 2.0
FlowField
ASCII
DATASET STRUCTURED_GRID
DIMENSIONS 100 1 100
POINTS 10000 float
0 0 0
0.01 0 0
0.02 0 0
0.03 0 0
0.04 0 0
0.05 0 0
0.06 0 0
0.07 0 0
0.08 0 0
0.09 0 0
0.1 0 0
0.11 0 0
0.12 0 0
0.13 0 0
0.14 0 0
0.15 0 0
0.16 0 0
0.17 0 0
0.18 0 0
0.19 0 0
0.2 0 0
0.21 0 0
0.22 0 0
0.23 0 0
0.24 0 0
0.25 0 0
0.26 0 0
0.27 0 0
0.28 0 0
0.29 0 0
0.3 0 0
0.31 0 0
0.32 0 0
0.33 0 0
0.34 0 0
0.35 0 0
0.36 0 0
0.37 0 0
0.38 0 0
0.39 0 0
0.4 0 0
0.41 0 0
0.42 0 0
0.43 0 0
0.44 0 0
0.45 0 0
0.46 0 0
0.47 0 0
0.48 0 0
0.49 0 0
0.5 0 0
0.51 0 0
0.52 0 0
0.53 0 0
0.54 0 0
0.55 0 0
0.56 0 0
0.57 0 0
0.58 0 0
0.59 0 0
0.6 0 0
0.61 0 0
0.62 0 0
0.63 0 0
0.64 0 0
0.65 0 0
0.66 0 0
0.67 0 0
0.68 0 0
0.69 0 0
0.7 0 0
0.71 0 0
0.72 0 0
0.73 0 0
0.74 0 0
0.75 0 0
0.76 0 0
0.77 0 0
0.78 0 0
0.79 0 0
0.8 0 0
0.81 0 0
0.82 0 0
0.83 0 0
0.84 0 0
0.85 0 0
0.86 0 0
0.87 0 0
0.88 0 0
0.89 0 0
0.9 0 0
0.91 0 0
0.92 0 0
0.93 0 0
0.94 0 0
0.95 0 0
0.96 0 0
0.97 0 0
0.98 0 0
0.99 0 0
0 0.001 0
0.01 0.001 0
0.02 0.001 0
0.03 0.001 0
0.04 0.001 0
0.05 0.001 0
0.06 0.001 0
0.07 0.001 0
0.08 0.001 0
0.09 0.001 0
0.1 0.001 0
0.11 0.001 0
0.12 0.001 0
0.13 0.001 0
0.14 0.001 0
0.15 0.001 0
0.16 0.001 0
0.17 0.001 0
0.18 0.001 0
0.19 0.001 0
0.2 0.001 0
0.21 0.001 0
0.22 0.001 0
0.23 0.001 0
0.24 0.001 0
0.25 0.001 0
0.26 0.001 0
0.27 0.001 0
0.28 0.001 0
0.29 0.001 0
0.3 0.001 0
0.31 0.001 0
0.32 0.001 0
0.33 0.001 0
0.34 0.001 0
0.35 0.001 0
0.36 0.001 0
0.37 0.001 0
0.38 0.001 0
0.39 0.001 0
0.4 0.001 0
0.41 0.001 0
0.42 0.001 0
0.43 0.001 0
0.44 0.001 0
0.45 0.001 0
0.46 0.001 0
0.47 0.001 0
0.48 0.001 0
0.49 0.001 0
0.5 0.001 0
0.51 0.001 0
0.52 0.001 0
0.53 0.001 0
0.54 0.001 0
0.55 0.001 0
0.56 0.001 0
0.57 0.001 0
0.58 0.001 0
0.59 0.001 0
0.6 0.001 0
0.61 0.001 0
0.62 0.001 0
0.63 0.001 0
0.64 0.001 0
0.65 0.001 0
0.66 0.001 0
0.67 0.001 0
0.68 0.001 0
0.69 0.001 0
0.7 0.001 0
0.71 0.001 0
0.72 0.001 0
0.73 0.001 0
0.74 0.001 0
0.75 0.001 0
0.76 0.001 0
0.77 0.001 0
0.78 0.001 0
0.79 0.001 0
0.8 0.001 0
0.81 0.001 0
0.82 0.001 0
0.83 0.001 0
0.84 0.001 0
0.85 0.001 0
0.86 0.001 0
0.87 0.001 0
0.88 0.001 0
0.89 0.001 0
0.9 0.001 0
0.91 0.001 0
0.92 0.001 0
0.93 0.001 0
0.94 0.001 0
0.95 0.001 0
0.96 0.001 0
0.97 0.001 0
0.98 0.001 0
0.99 0.001 0
0 0.002 0
0.01 0.002 0
0.02 0.002 0
0.03 0.002 0
0.04 0.002 0
0.05 0.002 0
0.06 0.002 0
0.07 0.002 0
0.08 0.002 0
0.09 0.002 0
0.1 0.002 0
0.11 0.002 0
0.12 0.002 0
0.13 0.002 0
0.14 0.002 0
0.15 0.002 0
0.16 0.002 0
0.17 0.002 0
0.18 0.002 0
0.19 0.002 0
0.2 0.002 0
0.21 0.002 0
0.22 0.002 0
0.23 0.002 0
0.24 0.002 0
0.25 0.002 0
0.26 0.002 0
0.27 0.002 0
0.28 0.002 0
0.29 0.002 0
0.3 0.002 0
0.31 0.002 0
0.32 0.002 0
0.33 0.002 0
0.34 0.002 0
0.35 0.002 0
0.36 0.002 0
0.37 0.002 0
0.38 0.002 0
0.39 0.002 0
0.4 0.002 0
0.41 0.002 0
0.42 0.002 0
0.43 0.002 0
0.44 0.002 0
0.45 0.002 0
0.46 0.002 0
0.47 0.002 0
0.48 0.002 0
0.49 0.002 0
0.5 0.002 0
0.51 0.002 0
0.52 0.002 0
0.53 0.002 0
0.54 0.002 0
0.55 0.002 0
0.56 0.002 0
0.57 0.002 0
0.58 0.002 0
0.59 0.002 0
0.6 0.002 0
0.61 0.002 0
0.62 0.002 0
0.63 0.002 0
0.64 0.002 0
0.65 0.002 0
0.66 0.002 0
0.67 0.002 0
0.68 0.002 0
0.69 0.002 0
0.7 0.002 0
0.71 0.002 0
0.72 0.002 0
0.73 0.002 0
0.74 0.002 0
0.75 0.002 0
0.76 0.002 0
0.77 0.002 0
0.78 0.002 0
0.79 0.002 0
0.8 0.002 0
0.81 0.002 0
0.82 0.002 0
0.83 0.002 0
0.84 0.002 0
0.85 0.002 0
0.86 0.002 0
0.87 0.002 0
0.88 0.002 0
0.89 0.002 0
0.9 0.002 0
0.91 0.002 0
0.92 0.002 0
0.93 0.002 0
0.94 0.002 0
0.95 0.002 0
0.96 0.002 0
0.97 0.002 0
0.98 0.002 0
0.99 0.002 0
0 0.003 0
0.01 0.003 0
0.02 0.003 0
0.03 0.003 0
0.04 0.003 0
0.05 0.003 0
0.06 0.003 0
0.07 0.003 0
0.08 0.003 0
0.09 0.003 0
0.1 0.003 0
0.11 0.003 0
0.12 0.003 0
0.13 0.003 0
0.14 0.003 0
0.15 0.003 0
0.16 0.003 0
0.17 0.003 0
0.18 0.003 0
0.19 0.003 0
0.2 0.003 0
0.21 0.003 0
0.22 0.003 0
0.23 0.003 0
0.24 0.003 0
0.25 0.003 0
0.26 0.003 0
0.27 0.003 0
0.28 0.003 0
0.29 0.003 0
0.3 0.003 0
0.31 0.003 0
0.32 0.003 0
0.33 0.003 0
0.34 0.003 0
0.35 0.003 0
0.36 0.003 0
0.37 0.003 0
0.38 0.003 0
0.39 0.003 0
0.4 0.003 0
0.41 0.003 0
0.42 0.003 0
0.43 0.003 0
0.44 0.003 0
0.45 0.003 0
0.46 0.003 0
0.47 0.003 0
0.48 0.003 0
0.49 0.003 0
0.5 0.003 0
0.51 0.003 0
0.52 0.003 0
0.53 0.003 0
0.54 0.003 0
0.55 0.003 0
0.56 0.003 0
0.57 0.003 0
0.58 0.003 0
0.59 0.003 0
0.6 0.003 0
0.61 0.003 0
0.62 0.003 0
0.63 0.003 0
0.64 0.003 0
0.65 0.003 0
0.66 0.003 0
0.67 0.003 0
0.68 0.003 0
0.69 0.003 0
0.7 0.003 0
0.71 0.003 0
0.72 0.003 0
0.73 0.003 0
0.74 0.003 0
0.75 0.003 0
0.76 0.003 0
0.77 0.003 0
0.78 0.003 0
0.79 0.003 0
0.8 0.003 0
0.81 0.003 0
0.82 0.003 0
0.83 0.003 0
0.84 0.003 0
0.85 0.003 0
0.86 0.003 0
0.87 0.003 0
0.88 0.003 0
0.89 0.003 0
0.9 0.003 0
0.91 0.003 0
0.92 0.003 0
0.93 0.003 0
0.94 0.003 0
0.95 0.003 0
0.96 0.003 0
0.97 0.003 0
0.98 0.003 0
0.99 0.003 0
0 0.004 0
0.01 0.004 0
0.02 0.004 0
0.03 0.004 0
0.04 0.004 0
0.05 0.004 0
0.06 0.004 0
0.07 0.004 0
0.08 0.004 0
0.09 0.004 0
0.1 0.004 0
0.11 0.004 0
0.12 0.004 0
0.13 0.004 0
0.14 0.004 0
0.15 0.004 0
0.16 0.004 0
0.17 0.004 0
0.18 0.004 0
0.19 0.004 0
0.2 0.004 0
0.21 0.004 0
0.22 0.004 0
0.23 0.004 0
0.24 0.004 0
0.25 0.004 0
0.26 0.004 0
0.27 0.004 0
0.28 0.004 0
0.29 0.004 0
0.3 0.004 0
0.31 0.004 0
0.32 0.004 0
0.33 0.004 0
0.34 0.004 0
0.35 0.004 0
0.36 0.004 0
0.37 0.004 0
0.38 0.004 0
0.39 0.004 0
0.4 0.004 0
0.41 0.004 0
0.42 0.004 0
0.43 0.004 0
0.44 0.004 0
0.45 0.004 0
0.46 0.004 0
0.47 0.004 0
0.48 0.004 0
0.49 0.004 0
0.5 0.004 0
0.51 0.004 0
0.52 0.004 0
0.53 0.004 0
0.54 0.004 0
0.55 0.004 0
0.56 0.004 0
0.57 0.004 0
0.58 0.004 0
0.59 0.004 0
0.6 0.004 0
0.61 0.004 0
0.62 0.004 0
0.63 0.004 0
0.64 0.004 0
0.65 0.004 0
0.66 0.004 0
0.67 0.004 0
0.68 0.004 0
0.69 0.004 0
0.7 0.004 0
0.71 0.004 0
0.72 0.004 0
0.73 0.004 0
0.74 0.004 0
0.75 0.004 0
0.76 0.004 0
0.77 0.004 0
0.78 0.004 0
0.79 0.004 0
0.8 0.004 0
0.81 0.004 0
0.82 0.004 0
0.83 0.004 0
0.84 0.004 0
0.85 0.004 0
0.86 0.004 0
0.87 0.004 0
0.88 0.004 0
0.89 0.004 0
0.9 0.004 0
0.91 0.004 0
0.92 0.004 0
0.93 0.004 0
0.94 0.004 0
0.95 0.004 0
0.96 0.004 0
0.97 0.004 0
0.98 0.004 0
0.99 0.004 0
0 0.005 0
0.01 0.005 0
0.02 0.005 0
0.03 0.005 0
0.04 0.005 0
0.05 0.005 0
0.06 0.005 0
0.07 0.005 0
0.08 0.005 0
0.09 0.005 0
0.1 0.005 0
0.11 0.005 0
0.12 0.005 0
0.13 0.005 0
0.14 0.005 0
0.15 0.005 0
0.16 0.005 0
0.17 0.005 0
0.18 0.005 0
0.19 0.005 0
0.2 0.005 0
0.21 0.005 0
0.22 0.005 0
0.23 0.005 0
0.24 0.005 0
0.25 0.005 0
0.26 0.005 0
0.27 0.005 0
0.28 0.005 0
0.29 0.005 0
0.3 0.005 0
0.31 0.005 0
0.32 0.005 0
0.33 0.005 0
0.34 0.005 0
0.35 0.005 0
0.36 0.005 0
0.37 0.005 0
0.38 0.005 0
0.39 0.005 0
0.4 0.005 0
0.41 0.005 0
0.42 0.005 0
0.43 0.005 0
0.44 0.005 0
0.45 0.005 0
0.46 0.005 0
0.47 0.005 0
0.48 0.005 0
0.49 0.005 0
0.5 0.005 0
0.51 0.005 0
0.52 0.005 0
0.53 0.005 0
0.54 0.005 0
0.55 0.005 0
0.56 0.005 0
0.57 0.005 0
0.58 0.005 0
0.59 0.005 0
0.6 0.005 0
0.61 0.005 0
0.62 0.005 0
0.63 0.005 0
0.64 0.005 0
0.65 0.005 0
0.66 0.005 0
0.67 0.005 0
0.68 0.005 0
0.69 0.005 0
0.7 0.005 0
0.71 0.005 0
0.72 0.005 0
0.73 0.005 0
0.74 0.005 0
0.75 0.005 0
0.76 0.005 0
0.77 0.005 0
0.78 0.005 0
0.79 0.005 0
0.8 0.005 0
0.81 0.005 0
0.82 0.005 0
0.83 0.005 0
0.84 0.005 0
0.85 0.005 0
0.86 0.005 0
0.87 0.005 0
0.88 0.005 0
0.89 0.005 0
0.9 0.005 0
0.91 0.005 0
0.92 0.005 0
0.93 0.005 0
0.94 0.005 0
0.95 0.005 0
0.96 0.005 0
0.97 0.005 0
0.98 0.005 0
0.99 0.005 0
0 0.006 0
0.01 0.006 0
0.02 0.006 0
0.03 0.006 0
0.04 0.006 0
0.05 0.006 0
0.06 0.006 0
0.07 0.006 0
0.08 0.006 0
0.09 0.006 0
0.1 0.006 0
0.11 0.006 0
0.12 0.006 0
0.13 0.006 0
0.14 0.006 0
0.15 0.006 0
0.16 0.006 0
0.17 0.006 0
0.18 0.006 0
0.19 0.006 0
0.2 0.006 0
0.21 0.006 0
0.22 0.006 0
0.23 0.006 0
0.24 0.006 0
0.25 0.006 0
0.26 0.006 0
0.27 0.006 0
0.28 0.006 0
0.29 0.006 0
0.3 0.006 0
0.31 0.006 0
0.32 0.006 0
0.33 0.006 0
0.34 0.006 0
0.35 0.006 0
0.36 0.006 0
0.37 0.006 0
0.38 0.006 0
0.39 0.006 0
0.4 0.006 0
0.41 0.006 0
0.42 0.006 0
0.43 0.006 0
0.44 0.006 0
0.45 0.006 0
0.46 0.006 0
0.47 0.006 0
0.48 0.006 0
0.49 0.006 0
0.5 0.006 0
0.51 0.006 0
0.52 0.006 0
0.53 0.006 0
0.54 0.006 0
0.55 0.006 0
0.56 0.006 0
0.57 0.006 0
0.58 0.006 0
0.59 0.006 0
0.6 0.006 0
0.61 0.006 0
0.62 0.006 0
0.63 0.006 0
0.64 0.006 0
0.65 0.006 0
0.66 0.006 0
0.67 0.006 0
0.68 0.006 0
0.69 0.006 0
0.7 0.006 0
0.71 0.006 0
0.72 0.006 0
0.73 0.006 0
0.74 0.006 0
0.75 0.006 0
0.76 0.006 0
0.77 0.006 0
0.78 0.006 0
0.79 0.006 0
0.8 0.006 0
0.81 0.006 0
0.82 0.006 0
0.83 0.006 0
0.84 0.006 0
0.85 0.006 0
0.86 0.006 0
0.87 0.006 0
0.88 0.006 0
0.89 0.006 0
0.9 0.006 0
0.91 0.006 0
0.92 0.006 0
0.93 0.006 0
0.94 0.006 0
0.95 0.006 0
0.96 0.006 0
0.97 0.006 0
0.98 0.006 0
0.99 0.006 0
0 0.007 0
0.01 0.007 0
0.02 0.007 0
0.03 0.007 0
0.04 0.007 0
0.05 0.007 0
0.06 0.007 0
0.07 0.007 0
0.08 0.007 0
0.09 0.007 0
0.1 0.007 0
0.11 0.007 0
0.12 0.007 0
0.13 0.007 0
0.14 0.007 0
0.15 0.007 0
0.16 0.007 0
0.17 0.007 0
0.18 0.007 0
0.19 0.007 0
0.2 0.007 0
0.21 0.007 0
0.22 0.007 0
0.23 0.007 0
0.24 0.007 0
0.25 0.007 0
0.26 0.007 0
0.27 0.007 0
0.28 0.007 0
0.29 0.007 0
0.3 0.007 0
0.31 0.007 0
0.32 0.007 0
0.33 0.007 0
0.34 0.007 0
0.35 0.007 0
0.36 0.007 0
0.37 0.007 0
0.38 0.007 0
0.39 0.007 0
0.4 0.007 0
0.41 0.007 0
0.42 0.007 0
0.43 0.007 0
0.44 0.007 0
0.45 0.007 0
0.46 0.007 0
0.47 0.007 0
0.48 0.007 0
0.49 0.007 0
0.5 0.007 0
0.51 0.007 0
0.52 0.007 0
0.53 0.007 0
0.54 0.007 0
0.55 0.007 0
0.56 0.007 0
0.57 0.007 0
0.58 0.007 0
0.59 0.007 0
0.6 0.007 0
0.61 0.007 0
0.62 0.007 0
0.63 0.007 0
0.64 0.007 0
0.65 0.007 0
0.66 0.007 0
0.67 0.007 0
0.68 0.007 0
0.69 0.007 0
0.7 0.007 0
0.71 0.007 0
0.72 0.007 0
0.73 0.007 0
0.74 0.007 0
0.75 0.007 0
0.76 0.007 0
0.77 0.007 0
0.78 0.007 0
0.79 0.007 0
0.8 0.007 0
0.81 0.007 0
0.82 0.007 0
0.83 0.007 0
0.84 0.007 0
0.85 0.007 0
0.86 0.007 0
0.87 0.007 0
0.88 0.007 0
0.89 0.007 0
0.9 0.007 0
0.91 0.007 0
0.92 0.007 0
0.93 0.007 0
0.94 0.007 0
0.95 0.007 0
0.96 0.007 0
0.97 0.007 0
0.98 0.007 0
[...]
POINT_DATA 10000

SCALARS vel_X float 1
LOOKUP_TABLE default
0
0
0
0
0
0
0
0
0
0
0
0
0
0
0
0
0
0
0
0
0
0
0
0
0
0
0
0
0
0
0
0
0
0
0
0
0
0
0
0
0
0
0
0
0
0
0
0
0
0
0
0
0
0
0
0
0
0
0
0
0
0
0
0
0
0
0
0
0
0
0
0
0
0
0
0
0
0
0
0
0
0
0
0
0
0
0
0
0
0
0
0
0
0
0
0
0
0
0
0
1
0.321809
0.212374
0.112297
0.167185
0.0419536
0.156202
0.0265687
0.117736
0.0453164
0.0779419
0.057191
0.0524439
0.05448
0.0786574
-0.0248312
0.125373
0.0231546
0.0173232
0.0368817
0.1052
0.0022819
0.0866556
0.03048
0.0542646
0.0304878
0.165771
0.122394
0.173552
0.149068
0.259025
0.209881
0.263704
0.226174
0.326875
0.276201
0.291634
0.156732
0.143555
0.0314239
0.059219
-0.0166879
0.0349574
-0.027703
0.0303779
-0.0294563
0.0297537
-0.0296634
0.0296892
-0.0296822
0.029684
-0.0296836
0.0296837
-0.0296837
0.0296836
-0.0296838
0.0296833
-0.0296849
0.0296804
-0.0296914
0.029669
-0.0297045
0.0296665
-0.0296804
0.0297065
-0.0296946
0.0295707
-0.0298153
0.0298143
-0.0293005
0.0295739
-0.0305826
0.0296547
-0.0280778
0.0294439
-0.0323003
0.0313301
-0.0267568
0.024628
-0.0303421
0.0365194
-0.035455
0.0291336
-0.0236862
0.0198508
-0.0204817
0.0274051
-0.0388964
0.0473893
-0.0493664
0.0442048
-0.0360251
0.0267198
-0.0191691
0.0126686
-0.00850066
0.00445382
-0.00565892
-0.241584
-0.241584
1
0.56371
0.388237
0.241921
0.291741
0.127553
0.266075
0.0922018
0.212995
0.106824
0.156024
0.120649
0.114572
0.120023
0.141754
0.0148339
0.211725
0.0674403
0.0692057
0.101313
0.184961
0.0543452
0.170576
0.0959169
0.13598
0.124278
0.312646
0.259611
0.336002
0.317471
0.467624
0.403639
0.476621
0.431907
0.558527
0.472108
0.46181
0.255796
0.215889
0.055309
0.0838353
-0.0190343
0.0467131
-0.0357751
0.0397935
-0.0384137
0.0388578
-0.0387232
0.0387617
-0.0387513
0.038754
-0.0387533
0.0387535
-0.0387534
0.0387534
-0.0387536
0.0387529
-0.0387552
0.0387484
-0.0387653
0.0387307
-0.0387868
0.0387232
-0.038755
0.0387831
-0.0387667
0.0385915
-0.0389625
0.0389028
-0.0382032
0.0386732
-0.0400156
0.0385414
-0.0365567
0.0387001
-0.042404
0.0405699
-0.0344531
0.0322353
-0.0404988
0.0481238
-0.0457525
0.0369562
-0.030277
0.0259507
-0.0278173
0.0373219
-0.0521466
0.0620865
-0.0636412
0.0559603
-0.0451005
0.0328197
-0.0233909
0.0150483
-0.0102089
0.00500219
-0.0029664
0.359458
0.359458
1
0.734687
0.542432
0.364555
0.402378
0.225796
0.354519
0.179397
0.29123
0.183649
0.22941
0.192326
0.182743
0.186627
0.212559
0.0785006
0.2771
0.139184
0.138047
0.170853
0.2621
0.134468
0.254127
0.18589
0.234845
0.23542
0.438643
0.397458
0.48333
0.474016
0.631891
0.570752
0.643293
0.594489
0.709779
0.600039
0.557978
0.318879
0.252919
0.0743932
0.0931985
-0.0152238
0.048535
-0.0353638
0.0402089
-0.0385428
0.0390802
-0.038917
0.0389638
-0.0389511
0.0389544
-0.0389536
0.0389538
-0.0389537
0.0389537
-0.0389539
0.038953
-0.0389559
0.0389477
-0.0389679
0.0389264
-0.038994
0.0389158
-0.0389603
0.0389817
-0.038974
0.0387679
-0.0391918
0.0391092
-0.0383629
0.0388581
-0.0403155
0.0387275
-0.036646
0.0388463
-0.042751
0.0409174
-0.0346723
0.0320771
-0.0404911
0.0483973
-0.0463615
0.0374661
-0.0308354
0.0261899
-0.0276198
0.0362091
-0.0508913
0.0613213
-0.0643623
0.0578068
-0.0479702
0.0356949
-0.0262687
0.017169
-0.0120533
0.00590826
-0.00604375
-0.315467
-0.315467
1
0.851319
0.676484
0.474411
0.507224
0.322657
0.435899
0.272149
0.362537
0.267345
0.29941
0.269729
0.253302
0.253181
0.292501
0.148108
0.336523
0.227471
0.213355
0.240187
0.342443
0.225499
0.338593
0.286526
0.337565
0.341451
0.545964
0.524046
0.610595
0.605168
0.759042
0.705396
0.767726
0.709985
0.802028
0.678445
0.612519
0.360034
0.274126
0.0896276
0.0972232
-0.00997876
0.0474002
-0.0325432
0.0380326
-0.0361368
0.036751
-0.0365637
0.0366176
-0.036603
0.0366068
-0.0366058
0.036606
-0.036606
0.0366059
-0.0366062
0.0366052
-0.0366085
0.0365993
-0.0366217
0.0365759
-0.03665
0.0365645
-0.0366153
0.0366292
-0.0366386
0.0364036
-0.0368442
0.0367823
-0.0360294
0.0364294
-0.0379739
0.0365305
-0.0343396
0.0361789
-0.0402165
0.038988
-0.0330331
0.0294751
-0.0369357
0.0452429
-0.0447321
0.0365797
-0.0300037
0.0246253
-0.0245501
0.0307943
-0.0444065
0.055756
-0.0617514
0.0581763
-0.050843
0.0395423
-0.0304703
0.0206478
-0.0149712
0.00768917
-0.00399493
0.333141
0.333141
1
0.929381
0.788949
0.572922
0.60451
0.415654
0.513064
0.363584
0.431162
0.352033
0.366673
0.349864
0.323444
0.319782
0.375555
0.219712
0.393642
0.321599
0.28972
0.30892
0.421923
0.318307
0.420699
0.387307
0.433407
0.43506
0.634068
0.633143
0.713891
0.709234
0.853275
0.808291
0.8545
0.786673
0.853445
0.725526
0.643431
0.389553
0.287577
0.103267
0.0988234
-0.00386699
0.0448548
-0.0284827
0.0345691
-0.0324547
0.0331438
-0.0329325
0.0329937
-0.0329769
0.0329813
-0.0329802
0.0329804
-0.0329804
0.0329803
-0.0329806
0.0329795
-0.0329831
0.032973
-0.0329974
0.0329484
-0.0330262
0.0329382
-0.03299
0.0329986
-0.0330281
0.0327635
-0.0332039
0.0331916
-0.0324376
0.0326833
-0.0343272
0.0331433
-0.030789
0.032102
-0.0363077
0.0359296
-0.0303572
0.0255666
-0.0316915
0.0405826
-0.0420504
0.0348078
-0.0281232
0.0219015
-0.0201406
0.0237631
-0.0359773
0.0481997
-0.0573763
0.05729
-0.0529614
0.0431032
-0.0346377
0.024271
-0.0180185
0.00962822
-0.00785355
-0.324109
-0.324109
1
0.981064
0.879715
0.662086
0.691172
0.505369
0.584541
0.451889
0.496878
0.435157
0.430254
0.430269
0.391259
0.385448
0.455934
0.293454
0.446254
0.414729
0.364114
0.376469
0.49462
0.408182
0.495675
0.481825
0.516242
0.515168
0.70159
0.722787
0.792082
0.789324
0.918006
0.884014
0.909897
0.836274
0.877665
0.755052
0.66015
0.414124
0.296154
0.117447
0.0982415
0.00390195
0.040523
-0.0226516
0.0293421
-0.0270023
0.02777
-0.027533
0.0276021
-0.027583
0.027588
-0.0275868
0.0275871
-0.027587
0.0275869
-0.0275873
0.027586
-0.02759
0.027579
-0.0276051
0.0275536
-0.0276337
0.0275457
-0.0275952
0.0276005
-0.0276508
0.0273572
-0.0277881
0.0278399
-0.0270863
0.0271556
-0.0288982
0.0280163
-0.0254899
0.0262335
-0.0305854
0.0310938
-0.025984
0.01999
-0.0246308
0.0340315
-0.0375164
0.0312389
-0.0244353
0.0175482
-0.014388
0.015503
-0.0259198
0.0383679
-0.0501751
0.0534917
-0.0524235
0.0445321
-0.0371786
0.026779
-0.0202872
0.0111703
-0.00581378
0.330684
0.330684
1
1.01505
0.950304
0.742891
0.765675
0.591788
0.64883
0.536477
0.558044
0.515806
0.488566
0.508954
0.455504
0.448502
0.529835
0.369188
0.491468
0.502794
0.434416
0.441521
0.556346
0.492146
0.559855
0.566793
0.583836
0.582458
0.748364
0.793482
0.846649
0.849641
0.957406
0.938442
0.941196
0.869052
0.884444
0.775728
0.667817
0.437337
0.301047
0.133332
0.0953711
0.0138763
0.0340287
-0.0146104
0.021934
-0.0193548
0.0202068
-0.0199422
0.0200198
-0.0199983
0.0200039
-0.0200025
0.0200028
-0.0200028
0.0200027
-0.0200031
0.0200017
-0.0200061
0.0199942
-0.0200219
0.0199682
-0.0200497
0.0199634
-0.0200087
0.0200118
-0.0200825
0.0197624
-0.0201767
0.0202981
-0.0195511
0.0194386
-0.0212591
0.0206958
-0.0180334
0.0182048
-0.0226173
0.0239647
-0.0194501
0.01244
-0.015482
0.0251144
-0.0305113
0.0253197
-0.0185049
0.0112124
-0.0070756
0.00591845
-0.014094
0.0258625
-0.0394189
0.0457905
-0.0481362
0.0427771
-0.0371879
0.0274543
-0.0212635
0.0119227
-0.00916051
-0.324653
-0.324653
1
1.03736
1.00309
0.81564
0.827962
0.673945
0.705436
0.616626
0.613192
0.593468
0.5403
0.584131
0.515456
0.507338
0.594988
0.445843
0.52778
0.583089
0.499007
0.502725
0.605216
0.568025
0.611514
0.6409
0.636425
0.638
0.775924
0.846944
0.88071
0.894174
0.976433
0.977176
0.955391
0.892296
0.880537
0.792315
0.669514
0.460651
0.30309
0.151144
0.0904384
0.0260116
0.0254858
-0.004447
0.012442
-0.00960621
0.0105496
-0.0102546
0.0103416
-0.0103173
0.0103238
-0.0103222
0.0103225
-0.0103225
0.0103224
-0.0103228
0.0103213
-0.010326
0.0103132
-0.0103426
0.0102869
-0.0103691
0.0102855
-0.0103257
0.0103269
-0.0104177
0.0100745
-0.0104655
0.0106571
-0.00992802
0.00963433
-0.0114992
0.0112632
-0.00852615
0.00813193
-0.0124889
0.0145994
-0.0108377
0.00306177
-0.00439713
0.0138913
-0.0210596
0.0171326
-0.0104457
0.00295909
0.00173697
-0.00483344
-0.000787059
0.0109898
-0.0252952
0.0341676
-0.0398956
0.0375193
-0.03432
0.0259813
-0.0207053
0.0117621
-0.00629482
0.330536
0.330536
1
1.05207
1.04072
0.880407
0.878835
0.750498
0.754567
0.691479
0.66141
0.66756
0.584875
0.654051
0.57086
0.560809
0.65005
0.521883
0.555279
0.653581
0.55679
0.559147
0.641196
0.634296
0.650649
0.703925
0.675603
0.682996
0.787118
0.885328
0.898102
0.926332
0.980245
1.00475
0.95836
0.910464
0.87054
0.807005
0.667328
0.48427
0.303136
0.170476
0.0840259
0.0397945
0.0154341
0.00730941
0.00139944
0.0017119
-0.000669623
0.00099772
-0.000900259
0.000927622
-0.000920334
0.000922176
-0.000921738
0.00092181
-0.000921916
0.000921427
-0.000923126
0.000917951
-0.000931686
0.000900661
-0.000958298
0.000875634
-0.000955924
0.000921153
-0.000922364
0.000811734
-0.0011739
0.00081285
-0.000552966
0.00125017
-0.00172154
-0.000148447
0.000244599
0.00249705
-0.00344457
-0.00073677
0.00351936
-0.000656965
-0.00760986
0.00805481
0.000908728
-0.00968353
0.0072137
-0.000786069
-0.00677325
0.0116644
-0.0162574
0.0132678
-0.00535064
-0.00867729
0.0192865
-0.0280987
0.0289191
-0.028585
0.0222922
-0.0185333
0.0105651
-0.00866649
-0.324913
-0.324913
1
1.06189
1.0658
0.937207
0.919534
0.82019
0.796717
0.760316
0.702284
0.737337
0.622528
0.716978
0.621864
0.608287
0.694349
0.595678
0.575236
0.71274
0.607249
0.610292
0.665538
0.69005
0.678437
0.756154
0.70367
0.71871
0.785516
0.910765
0.902773
0.948808
0.973643
1.02437
0.954659
0.925851
0.857624
0.820469
0.662874
0.507708
0.30213
0.190549
0.0769673
0.0544125
0.00469536
0.019842
-0.0103743
0.0137814
-0.012632
0.0129963
-0.0128874
0.0129182
-0.0129099
0.012912
-0.0129115
0.0129116
-0.0129117
0.0129112
-0.012913
0.0129074
-0.0129221
0.0128895
-0.0129488
0.0128662
-0.0129427
0.0129133
-0.0129178
0.0127873
-0.0131643
0.0128393
-0.012515
0.0131652
-0.0138084
0.0119735
-0.0115459
0.0142217
-0.0157012
0.0118053
-0.00845748
0.0103077
-0.0187774
0.0210161
-0.0129676
0.00279223
-0.00362692
0.00966944
-0.0172648
0.0220669
-0.0276275
0.0270818
-0.0219297
0.00915786
0.0022491
-0.0135611
0.0174963
-0.0202756
0.0165262
-0.0148076
0.00839414
-0.0047622
0.330011
0.330011
1
1.0685
1.08088
0.98602
0.951534
0.882051
0.832451
0.822678
0.735833
0.8019
0.654233
0.771262
0.668912
0.649593
0.727827
0.665618
0.589657
0.759568
0.650398
0.65594
0.680342
0.734889
0.696726
0.798036
0.723246
0.74635
0.774903
0.925099
0.898443
0.963518
0.960754
1.03794
0.947675
0.93928
0.844081
0.832527
0.657555
0.530124
0.301101
0.210376
0.0702537
0.0688753
-0.00573864
0.0321612
-0.0218882
0.0256122
-0.0243471
0.0247508
-0.0246293
0.0246639
-0.0246545
0.0246569
-0.0246564
0.0246564
-0.0246566
0.024656
-0.024658
0.0246519
-0.0246676
0.0246334
-0.0246943
0.024612
-0.0246844
0.02466
-0.0246691
0.0245186
-0.0249062
0.0246226
-0.0242394
0.0248278
-0.025634
0.0238732
-0.0231222
0.0256646
-0.0276433
0.0241267
-0.0203371
0.0211052
-0.0294823
0.0334557
-0.0266846
0.0153698
-0.0144193
0.0199377
-0.0275962
0.0321299
-0.0381008
0.0395774
-0.0373891
0.0267184
-0.0155471
0.00256806
0.00409253
-0.00996154
0.00903915
-0.00974293
0.00531153
-0.00613022
-0.325732
-0.325732
1
1.07287
1.08835
1.0268
0.9764
0.935463
0.862332
0.878346
0.762484
0.860197
0.681537
0.815471
0.712575
0.684906
0.751018
0.730104
0.600938
0.793632
0.686653
0.69596
0.688191
0.768806
0.707656
0.830015
0.736998
0.766962
0.758924
0.929797
0.888409
0.971645
0.94493
1.04638
0.939898
0.95067
0.831669
0.842563
0.652657
0.550516
0.301115
0.228879
0.0649424
0.0821171
-0.0148037
0.043204
-0.0320778
0.0361409
-0.034751
0.0351975
-0.0350622
0.0351009
-0.0350904
0.0350931
-0.0350925
0.0350926
-0.0350927
0.0350921
-0.0350943
0.0350877
-0.0351044
0.0350686
-0.0351309
0.0350494
-0.0351174
0.0350975
-0.0351123
0.0349421
-0.035336
0.0350983
-0.034663
0.0351756
-0.0361329
0.034483
-0.0334243
0.035771
-0.0382037
0.0351427
-0.0310479
0.0307096
-0.0387
0.0442737
-0.0391099
0.0269763
-0.0241266
0.0289512
-0.0367358
0.0409462
-0.0468123
0.0497135
-0.0503899
0.042445
-0.0325293
0.0188889
-0.0101732
0.00152764
0.000402163
-0.00371327
0.00158349
-0.00136653
0.328926
0.328926
1
1.07546
1.09043
1.05954
0.995658
0.980178
0.886903
0.927258
0.78308
0.911048
0.70634
0.848531
0.753374
0.71469
0.764985
0.787551
0.611551
0.815074
0.716669
0.730217
0.691834
0.792106
0.713379
0.852486
0.74741
0.781393
0.740833
0.925986
0.875424
0.973785
0.928748
1.04989
0.933137
0.959487
0.821765
0.849812
0.649341
0.567886
0.303186
0.245012
0.0620532
0.0931056
-0.021471
0.0519418
-0.0399136
0.0443386
-0.0428143
0.0433073
-0.043157
0.0432003
-0.0431885
0.0431916
-0.0431908
0.043191
-0.0431911
0.0431904
-0.0431928
0.0431857
-0.0432035
0.0431661
-0.0432296
0.0431491
-0.0432126
0.0431967
-0.0432185
0.0430289
-0.0434246
0.0432364
-0.0427571
0.0431814
-0.0442748
0.0427692
-0.0414264
0.0435208
-0.046352
0.043804
-0.0395487
0.0381254
-0.0454472
0.0524151
-0.0491422
0.0365679
-0.0317513
0.0356709
-0.0436489
0.0476097
-0.0529655
0.0565939
-0.05975
0.0548653
-0.0470977
0.0338738
-0.023995
0.0131626
-0.00863442
0.00276771
-0.0025278
-0.0021161
-0.327024
-0.327024
1
1.07644
1.08906
1.08435
1.01066
1.01632
0.906692
0.969417
0.798844
0.95321
0.730646
0.869881
0.791624
0.739629
0.771197
0.836447
0.62377
0.824602
0.741179
0.758541
0.69389
0.805372
0.715859
0.865825
0.756578
0.790323
0.723336
0.914562
0.861638
0.970164
0.914063
1.04839
0.928647
0.965071
0.815405
0.853574
0.648572
0.581382
0.308168
0.25788
0.0624497
0.100962
-0.0248658
0.0575
-0.04452
0.0493305
-0.047662
0.0482053
-0.0480386
0.0480869
-0.0480737
0.0480771
-0.0480763
0.0480764
-0.0480766
0.0480758
-0.0480785
0.0480708
-0.0480896
0.0480508
-0.0481152
0.0480362
-0.048095
0.0480824
-0.0481123
0.0479039
-0.0482973
0.048161
-0.0476469
0.0479719
-0.0491834
0.0478523
-0.0462558
0.0480484
-0.0512141
0.0492168
-0.044947
0.0425045
-0.0489004
0.0569911
-0.0558323
0.0432451
-0.0364539
0.0392143
-0.0474225
0.0513225
-0.0559244
0.0595703
-0.0645796
0.0627588
-0.057802
0.0460307
-0.0360147
0.0238158
-0.0172122
0.00909377
-0.00659422
0.00291796
0.327511
0.327511
1
1.07585
1.08583
1.10153
1.02248
1.04436
0.922215
1.00483
0.811295
0.985489
0.756293
0.879593
0.827316
0.760555
0.771398
0.875466
0.639425
0.823456
0.760874
0.780768
0.696601
0.809476
0.716715
0.870455
0.766066
0.794356
0.708481
0.896351
0.84856
0.96088
0.902048
1.04173
0.927184
0.966884
0.81325
0.853369
0.651021
0.590418
0.316643
0.26686
0.0667246
0.105077
-0.0243841
0.0592739
-0.0452916
0.0505121
-0.0486887
0.0492866
-0.049102
0.0491558
-0.0491409
0.0491448
-0.0491439
0.049144
-0.0491442
0.0491433
-0.0491462
0.0491381
-0.0491579
0.0491177
-0.0491829
0.0491055
-0.0491597
0.0491495
-0.0491888
0.0489626
-0.0493491
0.0492664
-0.0487274
0.0489444
-0.0502532
0.0491224
-0.0473087
0.0487579
-0.0521884
0.0507601
-0.0466161
0.0432612
-0.0485111
0.0573969
-0.0585004
0.0463663
-0.0376682
0.0389796
-0.0473905
0.0515011
-0.0553001
0.0583307
-0.0643986
0.0653133
-0.0635206
0.0540827
-0.04498
0.0323891
-0.0244597
0.0146304
-0.0102591
0.00205342
-0.328458
-0.328458
1
1.0737
1.08197
1.11165
1.03186
1.06506
0.933988
1.03346
0.822119
1.00691
0.784694
0.87846
0.860064
0.778388
0.767451
0.903591
0.659697
0.813367
0.77631
0.796802
0.701645
0.805597
0.71713
0.866938
0.776804
0.794118
0.697611
0.872247
0.837067
0.946117
0.893241
1.02993
0.929009
0.964679
0.815536
0.849056
0.656984
0.594781
0.328831
0.271692
0.0751046
0.105205
-0.0197869
0.0570234
-0.0419875
0.047643
-0.045654
0.0463106
-0.0461066
0.0461665
-0.0461498
0.0461542
-0.0461531
0.0461533
-0.0461535
0.0461525
-0.0461557
0.0461469
-0.0461678
0.0461263
-0.046192
0.0461167
-0.0461661
0.0461577
-0.0462073
0.0459645
-0.0463399
0.0463113
-0.0457579
0.0458603
-0.0472437
0.0463343
-0.0443447
0.0454174
-0.0490398
0.0481799
-0.0442905
0.0401662
-0.0440979
0.0534068
-0.0568334
0.0456407
-0.0351933
0.0347475
-0.0432407
0.047869
-0.0510172
0.0529586
-0.0592189
0.0622451
-0.0636163
0.0571354
-0.049904
0.0379495
-0.0295972
0.0187907
-0.0130872
0.00654665
0.326173
0.326173
1
1.07003
1.07829
1.11556
1.03919
1.0794
0.942552
1.05523
0.833007
1.01686
0.81662
0.868018
0.889115
0.79405
0.761193
0.920255
0.684993
0.796481
0.787863
0.80669
0.710012
0.795225
0.717804
0.856042
0.789066
0.790349
0.691366
0.843333
0.827434
0.926294
0.887587
1.01334
0.933904
0.958586
0.822046
0.840899
0.666333
0.594678
0.344531
0.272542
0.0873955
0.101524
-0.0112558
0.0509288
-0.0347876
0.0409038
-0.0387378
0.0394578
-0.0392326
0.0392991
-0.0392805
0.0392855
-0.0392842
0.0392845
-0.0392847
0.0392836
-0.039287
0.0392777
-0.0392996
0.0392568
-0.0393229
0.0392498
-0.0392947
0.0392872
-0.0393479
0.03909
-0.0394503
0.0394752
-0.0389183
0.0389019
-0.0403356
0.0396636
-0.0375429
0.0382151
-0.0419559
0.0416463
-0.0381227
0.0334017
-0.0358999
0.0452309
-0.0509437
0.041183
-0.0292455
0.026741
-0.0350848
0.0405175
-0.043349
0.04395
-0.0495716
0.0538637
-0.0580412
0.0548085
-0.0502017
0.0398534
-0.0320384
0.0211086
-0.0148105
0.00477378
-0.329585
-0.329585
1
1.06504
1.07514
1.11436
1.04459
1.08847
0.948482
1.07005
0.845482
1.01531
0.852063
0.850487
0.913425
0.808399
0.754314
0.925439
0.71489
0.77525
0.795725
0.810676
0.721961
0.780128
0.718964
0.838793
0.802492
0.783949
0.689731
0.810935
0.819407
0.902148
0.88451
0.992661
0.941196
0.949146
0.832118
0.82957
0.678507
0.59075
0.363117
0.27
0.102975
0.0946347
0.000599148
0.0415983
-0.0242995
0.0309028
-0.028548
0.0293361
-0.029088
0.0291618
-0.029141
0.0291466
-0.0291452
0.0291454
-0.0291457
0.0291445
-0.0291482
0.0291383
-0.0291612
0.0291172
-0.0291835
0.0291129
-0.0291532
0.0291458
-0.0292184
0.0289472
-0.0292883
0.0293655
-0.0288159
0.0286789
-0.0301376
0.0297138
-0.0275092
0.0277662
-0.0315536
0.0317604
-0.0286922
0.0235686
-0.0245816
0.0335212
-0.0413801
0.0335208
-0.0204593
0.0156337
-0.0234805
0.0299248
-0.0329113
0.0321816
-0.0364737
0.0410665
-0.0473744
0.0473098
-0.0457843
0.0378417
-0.0314735
0.0213044
-0.0151733
0.0080488
0.325355
0.325355
1
1.05901
1.07255
1.10938
1.04792
1.09337
0.952404
1.07786
0.860726
1.00286
0.890177
0.828643
0.931797
0.822148
0.748251
0.919739
0.74818
0.752299
0.799939
0.809237
0.737046
0.762287
0.720426
0.816478
0.816188
0.775976
0.692129
0.776619
0.812304
0.874736
0.883
0.968937
0.949825
0.937267
0.844697
0.81611
0.692564
0.58402
0.383586
0.265043
0.120839
0.0855221
0.0147868
0.0300209
-0.0115121
0.0186291
-0.0160734
0.0169346
-0.0166617
0.0167434
-0.0167203
0.0167265
-0.0167249
0.0167252
-0.0167255
0.0167242
-0.0167282
0.0167176
-0.0167416
0.0166965
-0.0167627
0.0166949
-0.0167309
0.0167226
-0.0168076
0.0165251
-0.0168436
0.0169705
-0.016439
0.0161821
-0.0176401
0.0174696
-0.0152298
0.0150657
-0.0188314
0.0195085
-0.0169601
0.0116399
-0.011183
0.0193249
-0.0290854
0.0235489
-0.00983463
0.00250069
-0.00939811
0.0169282
-0.020614
0.0188298
-0.0213323
0.0252601
-0.0327825
0.0354385
-0.0370954
0.0320912
-0.027922
0.0193277
-0.0141616
0.00488861
-0.330022
-0.330022
1
1.05236
1.07022
1.10202
1.04895
1.09511
0.954983
1.07868
0.879441
0.980859
0.929328
0.805602
0.943051
0.835797
0.744115
0.904369
0.782992
0.730248
0.800463
0.803087
0.754213
0.743783
0.7217
0.790602
0.828863
0.767593
0.69756
0.742124
0.805147
0.84537
0.881749
0.943466
0.958456
0.924131
0.858439
0.801826
0.707279
0.575795
0.404656
0.258928
0.139702
0.0754534
0.0300318
0.0174691
0.00230199
0.005356
-0.00258672
0.00352623
-0.00322657
0.0033168
-0.00329111
0.00329805
-0.00329629
0.00329662
-0.00329693
0.00329554
-0.00329979
0.00328862
-0.0033136
0.00326755
-0.00333343
0.00326853
-0.00330053
0.00329045
-0.00338821
0.00309671
-0.00338917
0.00356275
-0.00305951
0.0026861
-0.00411775
0.00420023
-0.00197381
0.00139173
-0.00507241
0.00616392
-0.00417281
-0.00113591
0.00297963
0.00398529
-0.0153028
0.0124346
0.00136695
-0.0112849
0.00586662
0.00264906
-0.00757237
0.00524823
-0.00579623
0.00821554
-0.0159055
0.0205162
-0.0250823
0.0232144
-0.0217469
0.0153757
-0.0118204
0.00674541
0.325335
0.325335
1
1.0456
1.06764
1.09366
1.04747
1.09449
0.956909
1.07271
0.901753
0.951352
0.967249
0.784566
0.946224
0.849581
0.742656
0.881105
0.816984
0.711523
0.797255
0.793134
0.77196
0.726655
0.722124
0.762804
0.839003
0.759977
0.704757
0.709246
0.79682