# vtk DataFile Version 2.0
FlowField
ASCII
DATASET STRUCTURED_GRID
DIMENSIONS 100 1 100
POINTS 10000 float
0 0 0
0.01 0 0
0.02 0 0
0.03 0 0
0.04 0 0
0.05 0 0
0.06 0 0
0.07 0 0
0.08 0 0
0.09 0 0
0.1 0 0
0.11 0 0
0.12 0 0
0.13 0 0
0.14 0 0
0.15 0 0
0.16 0 0
0.17 0 0
0.18 0 0
0.19 0 0
0.2 0 0
0.21 0 0
0.22 0 0
0.23 0 0
0.24 0 0
0.25 0 0
0.26 0 0
0.27 0 0
0.28 0 0
0.29 0 0
0.3 0 0
0.31 0 0
0.32 0 0
0.33 0 0
0.34 0 0
0.35 0 0
0.36 0 0
0.37 0 0
0.38 0 0
0.39 0 0
0.4 0 0
0.41 0 0
0.42 0 0
0.43 0 0
0.44 0 0
0.45 0 0
0.46 0 0
0.47 0 0
0.48 0 0
0.49 0 0
0.5 0 0
0.51 0 0
0.52 0 0
0.53 0 0
0.54 0 0
0.55 0 0
0.56 0 0
0.57 0 0
0.58 0 0
0.59 0 0
0.6 0 0
0.61 0 0
0.62 0 0
0.63 0 0
0.64 0 0
0.65 0 0
0.66 0 0
0.67 0 0
0.68 0 0
0.69 0 0
0.7 0 0
0.71 0 0
0.72 0 0
0.73 0 0
0.74 0 0
0.75 0 0
0.76 0 0
0.77 0 0
0.78 0 0
0.79 0 0
0.8 0 0
0.81 0 0
0.82 0 0
0.83 0 0
0.84 0 0
0.85 0 0
0.86 0 0
0.87 0 0
0.88 0 0
0.89 0 0
0.9 0 0
0.91 0 0
0.92 0 0
0.93 0 0
0.94 0 0
0.95 0 0
0.96 0 0
0.97 0 0
0.98 0 0
0.99 0 0
0 0.001 0
0.01 0.001 0
0.02 0.001 0
0.03 0.001 0
0.04 0.001 0
0.05 0.001 0
0.06 0.001 0
0.07 0.001 0
0.08 0.001 0
0.09 0.001 0
0.1 0.001 0
0.11 0.001 0
0.12 0.001 0
0.13 0.001 0
0.14 0.001 0
0.15 0.001 0
0.16 0.001 0
0.17 0.001 0
0.18 0.001 0
0.19 0.001 0
0.2 0.001 0
0.21 0.001 0
0.22 0.001 0
0.23 0.001 0
0.24 0.001 0
0.25 0.001 0
0.26 0.001 0
0.27 0.001 0
0.28 0.001 0
0.29 0.001 0
0.3 0.001 0
0.31 0.001 0
0.32 0.001 0
0.33 0.001 0
0.34 0.001 0
0.35 0.001 0
0.36 0.001 0
0.37 0.001 0
0.38 0.001 0
0.39 0.001 0
0.4 0.001 0
0.41 0.001 0
0.42 0.001 0
0.43 0.001 0
0.44 0.001 0
0.45 0.001 0
0.46 0.001 0
0.47 0.001 0
0.48 0.001 0
0.49 0.001 0
0.5 0.001 0
0.51 0.001 0
0.52 0.001 0
0.53 0.001 0
0.54 0.001 0
0.55 0.001 0
0.56 0.001 0
0.57 0.001 0
0.58 0.001 0
0.59 0.001 0
0.6 0.001 0
0.61 0.001 0
0.62 0.001 0
0.63 0.001 0
0.64 0.001 0
0.65 0.001 0
0.66 0.001 0
0.67 0.001 0
0.68 0.001 0
0.69 0.001 0
0.7 0.001 0
0.71 0.001 0
0.72 0.001 0
0.73 0.001 0
0.74 0.001 0
0.75 0.001 0
0.76 0.001 0
0.77 0.001 0
0.78 0.001 0
0.79 0.001 0
0.8 0.001 0
0.81 0.001 0
0.82 0.001 0
0.83 0.001 0
0.84 0.001 0
0.85 0.001 0
0.86 0.001 0
0.87 0.001 0
0.88 0.001 0
0.89 0.001 0
0.9 0.001 0
0.91 0.001 0
0.92 0.001 0
0.93 0.001 0
0.94 0.001 0
0.95 0.001 0
0.96 0.001 0
0.97 0.001 0
0.98 0.001 0
0.99 0.001 0
0 0.002 0
0.01 0.002 0
0.02 0.002 0
0.03 0.002 0
0.04 0.002 0
0.05 0.002 0
0.06 0.002 0
0.07 0.002 0
0.08 0.002 0
0.09 0.002 0
0.1 0.002 0
0.11 0.002 0
0.12 0.002 0
0.13 0.002 0
0.14 0.002 0
0.15 0.002 0
0.16 0.002 0
0.17 0.002 0
0.18 0.002 0
0.19 0.002 0
0.2 0.002 0
0.21 0.002 0
0.22 0.002 0
0.23 0.002 0
0.24 0.002 0
0.25 0.002 0
0.26 0.002 0
0.27 0.002 0
0.28 0.002 0
0.29 0.002 0
0.3 0.002 0
0.31 0.002 0
0.32 0.002 0
0.33 0.002 0
0.34 0.002 0
0.35 0.002 0
0.36 0.002 0
0.37 0.002 0
0.38 0.002 0
0.39 0.002 0
0.4 0.002 0
0.41 0.002 0
0.42 0.002 0
0.43 0.002 0
0.44 0.002 0
0.45 0.002 0
0.46 0.002 0
0.47 0.002 0
0.48 0.002 0
0.49 0.002 0
0.5 0.002 0
0.51 0.002 0
0.52 0.002 0
0.53 0.002 0
0.54 0.002 0
0.55 0.002 0
0.56 0.002 0
0.57 0.002 0
0.58 0.002 0
0.59 0.002 0
0.6 0.002 0
0.61 0.002 0
0.62 0.002 0
0.63 0.002 0
0.64 0.002 0
0.65 0.002 0
0.66 0.002 0
0.67 0.002 0
0.68 0.002 0
0.69 0.002 0
0.7 0.002 0
0.71 0.002 0
0.72 0.002 0
0.73 0.002 0
0.74 0.002 0
0.75 0.002 0
0.76 0.002 0
0.77 0.002 0
0.78 0.002 0
0.79 0.002 0
0.8 0.002 0
0.81 0.002 0
0.82 0.002 0
0.83 0.002 0
0.84 0.002 0
0.85 0.002 0
0.86 0.002 0
0.87 0.002 0
0.88 0.002 0
0.89 0.002 0
0.9 0.002 0
0.91 0.002 0
0.92 0.002 0
0.93 0.002 0
0.94 0.002 0
0.95 0.002 0
0.96 0.002 0
0.97 0.002 0
0.98 0.002 0
0.99 0.002 0
0 0.003 0
0.01 0.003 0
0.02 0.003 0
0.03 0.003 0
0.04 0.003 0
0.05 0.003 0
0.06 0.003 0
0.07 0.003 0
0.08 0.003 0
0.09 0.003 0
0.1 0.003 0
0.11 0.003 0
0.12 0.003 0
0.13 0.003 0
0.14 0.003 0
0.15 0.003 0
0.16 0.003 0
0.17 0.003 0
0.18 0.003 0
0.19 0.003 0
0.2 0.003 0
0.21 0.003 0
0.22 0.003 0
0.23 0.003 0
0.24 0.003 0
0.25 0.003 0
0.26 0.003 0
0.27 0.003 0
0.28 0.003 0
0.29 0.003 0
0.3 0.003 0
0.31 0.003 0
0.32 0.003 0
0.33 0.003 0
0.34 0.003 0
0.35 0.003 0
0.36 0.003 0
0.37 0.003 0
0.38 0.003 0
0.39 0.003 0
0.4 0.003 0
0.41 0.003 0
0.42 0.003 0
0.43 0.003 0
0.44 0.003 0
0.45 0.003 0
0.46 0.003 0
0.47 0.003 0
0.48 0.003 0
0.49 0.003 0
0.5 0.003 0
0.51 0.003 0
0.52 0.003 0
0.53 0.003 0
0.54 0.003 0
0.55 0.003 0
0.56 0.003 0
0.57 0.003 0
0.58 0.003 0
0.59 0.003 0
0.6 0.003 0
0.61 0.003 0
0.62 0.003 0
0.63 0.003 0
0.64 0.003 0
0.65 0.003 0
0.66 0.003 0
0.67 0.003 0
0.68 0.003 0
0.69 0.003 0
0.7 0.003 0
0.71 0.003 0
0.72 0.003 0
0.73 0.003 0
0.74 0.003 0
0.75 0.003 0
0.76 0.003 0
0.77 0.003 0
0.78 0.003 0
0.79 0.003 0
0.8 0.003 0
0.81 0.003 0
0.82 0.003 0
0.83 0.003 0
0.84 0.003 0
0.85 0.003 0
0.86 0.003 0
0.87 0.003 0
0.88 0.003 0
0.89 0.003 0
0.9 0.003 0
0.91 0.003 0
0.92 0.003 0
0.93 0.003 0
0.94 0.003 0
0.95 0.003 0
0.96 0.003 0
0.97 0.003 0
0.98 0.003 0
0.99 0.003 0
0 0.004 0
0.01 0.004 0
0.02 0.004 0
0.03 0.004 0
0.04 0.004 0
0.05 0.004 0
0.06 0.004 0
0.07 0.004 0
0.08 0.004 0
0.09 0.004 0
0.1 0.004 0
0.11 0.004 0
0.12 0.004 0
0.13 0.004 0
0.14 0.004 0
0.15 0.004 0
0.16 0.004 0
0.17 0.004 0
0.18 0.004 0
0.19 0.004 0
0.2 0.004 0
0.21 0.004 0
0.22 0.004 0
0.23 0.004 0
0.24 0.004 0
0.25 0.004 0
0.26 0.004 0
0.27 0.004 0
0.28 0.004 0
0.29 0.004 0
0.3 0.004 0
0.31 0.004 0
0.32 0.004 0
0.33 0.004 0
0.34 0.004 0
0.35 0.004 0
0.36 0.004 0
0.37 0.004 0
0.38 0.004 0
0.39 0.004 0
0.4 0.004 0
0.41 0.004 0
0.42 0.004 0
0.43 0.004 0
0.44 0.004 0
0.45 0.004 0
0.46 0.004 0
0.47 0.004 0
0.48 0.004 0
0.49 0.004 0
0.5 0.004 0
0.51 0.004 0
0.52 0.004 0
0.53 0.004 0
0.54 0.004 0
0.55 0.004 0
0.56 0.004 0
0.57 0.004 0
0.58 0.004 0
0.59 0.004 0
0.6 0.004 0
0.61 0.004 0
0.62 0.004 0
0.63 0.004 0
0.64 0.004 0
0.65 0.004 0
0.66 0.004 0
0.67 0.004 0
0.68 0.004 0
0.69 0.004 0
0.7 0.004 0
0.71 0.004 0
0.72 0.004 0
0.73 0.004 0
0.74 0.004 0
0.75 0.004 0
0.76 0.004 0
0.77 0.004 0
0.78 0.004 0
0.79 0.004 0
0.8 0.004 0
0.81 0.004 0
0.82 0.004 0
0.83 0.004 0
0.84 0.004 0
0.85 0.004 0
0.86 0.004 0
0.87 0.004 0
0.88 0.004 0
0.89 0.004 0
0.9 0.004 0
0.91 0.004 0
0.92 0.004 0
0.93 0.004 0
0.94 0.004 0
0.95 0.004 0
0.96 0.004 0
0.97 0.004 0
0.98 0.004 0
0.99 0.004 0
0 0.005 0
0.01 0.005 0
0.02 0.005 0
0.03 0.005 0
0.04 0.005 0
0.05 0.005 0
0.06 0.005 0
0.07 0.005 0
0.08 0.005 0
0.09 0.005 0
0.1 0.005 0
0.11 0.005 0
0.12 0.005 0
0.13 0.005 0
0.14 0.005 0
0.15 0.005 0
0.16 0.005 0
0.17 0.005 0
0.18 0.005 0
0.19 0.005 0
0.2 0.005 0
0.21 0.005 0
0.22 0.005 0
0.23 0.005 0
0.24 0.005 0
0.25 0.005 0
0.26 0.005 0
0.27 0.005 0
0.28 0.005 0
0.29 0.005 0
0.3 0.005 0
0.31 0.005 0
0.32 0.005 0
0.33 0.005 0
0.34 0.005 0
0.35 0.005 0
0.36 0.005 0
0.37 0.005 0
0.38 0.005 0
0.39 0.005 0
0.4 0.005 0
0.41 0.005 0
0.42 0.005 0
0.43 0.005 0
0.44 0.005 0
0.45 0.005 0
0.46 0.005 0
0.47 0.005 0
0.48 0.005 0
0.49 0.005 0
0.5 0.005 0
0.51 0.005 0
0.52 0.005 0
0.53 0.005 0
0.54 0.005 0
0.55 0.005 0
0.56 0.005 0
0.57 0.005 0
0.58 0.005 0
0.59 0.005 0
0.6 0.005 0
0.61 0.005 0
0.62 0.005 0
0.63 0.005 0
0.64 0.005 0
0.65 0.005 0
0.66 0.005 0
0.67 0.005 0
0.68 0.005 0
0.69 0.005 0
0.7 0.005 0
0.71 0.005 0
0.72 0.005 0
0.73 0.005 0
0.74 0.005 0
0.75 0.005 0
0.76 0.005 0
0.77 0.005 0
0.78 0.005 0
0.79 0.005 0
0.8 0.005 0
0.81 0.005 0
0.82 0.005 0
0.83 0.005 0
0.84 0.005 0
0.85 0.005 0
0.86 0.005 0
0.87 0.005 0
0.88 0.005 0
0.89 0.005 0
0.9 0.005 0
0.91 0.005 0
0.92 0.005 0
0.93 0.005 0
0.94 0.005 0
0.95 0.005 0
0.96 0.005 0
0.97 0.005 0
0.98 0.005 0
0.99 0.005 0
0 0.006 0
0.01 0.006 0
0.02 0.006 0
0.03 0.006 0
0.04 0.006 0
0.05 0.006 0
0.06 0.006 0
0.07 0.006 0
0.08 0.006 0
0.09 0.006 0
0.1 0.006 0
0.11 0.006 0
0.12 0.006 0
0.13 0.006 0
0.14 0.006 0
0.15 0.006 0
0.16 0.006 0
0.17 0.006 0
0.18 0.006 0
0.19 0.006 0
0.2 0.006 0
0.21 0.006 0
0.22 0.006 0
0.23 0.006 0
0.24 0.006 0
0.25 0.006 0
0.26 0.006 0
0.27 0.006 0
0.28 0.006 0
0.29 0.006 0
0.3 0.006 0
0.31 0.006 0
0.32 0.006 0
0.33 0.006 0
0.34 0.006 0
0.35 0.006 0
0.36 0.006 0
0.37 0.006 0
0.38 0.006 0
0.39 0.006 0
0.4 0.006 0
0.41 0.006 0
0.42 0.006 0
0.43 0.006 0
0.44 0.006 0
0.45 0.006 0
0.46 0.006 0
0.47 0.006 0
0.48 0.006 0
0.49 0.006 0
0.5 0.006 0
0.51 0.006 0
0.52 0.006 0
0.53 0.006 0
0.54 0.006 0
0.55 0.006 0
0.56 0.006 0
0.57 0.006 0
0.58 0.006 0
0.59 0.006 0
0.6 0.006 0
0.61 0.006 0
0.62 0.006 0
0.63 0.006 0
0.64 0.006 0
0.65 0.006 0
0.66 0.006 0
0.67 0.006 0
0.68 0.006 0
0.69 0.006 0
0.7 0.006 0
0.71 0.006 0
0.72 0.006 0
0.73 0.006 0
0.74 0.006 0
0.75 0.006 0
0.76 0.006 0
0.77 0.006 0
0.78 0.006 0
0.79 0.006 0
0.8 0.006 0
0.81 0.006 0
0.82 0.006 0
0.83 0.006 0
0.84 0.006 0
0.85 0.006 0
0.86 0.006 0
0.87 0.006 0
0.88 0.006 0
0.89 0.006 0
0.9 0.006 0
0.91 0.006 0
0.92 0.006 0
0.93 0.006 0
0.94 0.006 0
0.95 0.006 0
0.96 0.006 0
0.97 0.006 0
0.98 0.006 0
0.99 0.006 0
0 0.007 0
0.01 0.007 0
0.02 0.007 0
0.03 0.007 0
0.04 0.007 0
0.05 0.007 0
0.06 0.007 0
0.07 0.007 0
0.08 0.007 0
0.09 0.007 0
0.1 0.007 0
0.11 0.007 0
0.12 0.007 0
0.13 0.007 0
0.14 0.007 0
0.15 0.007 0
0.16 0.007 0
0.17 0.007 0
0.18 0.007 0
0.19 0.007 0
0.2 0.007 0
0.21 0.007 0
0.22 0.007 0
0.23 0.007 0
0.24 0.007 0
0.25 0.007 0
0.26 0.007 0
0.27 0.007 0
0.28 0.007 0
0.29 0.007 0
0.3 0.007 0
0.31 0.007 0
0.32 0.007 0
0.33 0.007 0
0.34 0.007 0
0.35 0.007 0
0.36 0.007 0
0.37 0.007 0
0.38 0.007 0
0.39 0.007 0
0.4 0.007 0
0.41 0.007 0
0.42 0.007 0
0.43 0.007 0
0.44 0.007 0
0.45 0.007 0
0.46 0.007 0
0.47 0.007 0
0.48 0.007 0
0.49 0.007 0
0.5 0.007 0
0.51 0.007 0
0.52 0.007 0
0.53 0.007 0
0.54 0.007 0
0.55 0.007 0
0.56 0.007 0
0.57 0.007 0
0.58 0.007 0
0.59 0.007 0
0.6 0.007 0
0.61 0.007 0
0.62 0.007 0
0.63 0.007 0
0.64 0.007 0
0.65 0.007 0
0.66 0.007 0
0.67 0.007 0
0.68 0.007 0
0.69 0.007 0
0.7 0.007 0
0.71 0.007 0
0.72 0.007 0
0.73 0.007 0
0.74 0.007 0
0.75 0.007 0
0.76 0.007 0
0.77 0.007 0
0.78 0.007 0
0.79 0.007 0
0.8 0.007 0
0.81 0.007 0
0.82 0.007 0
0.83 0.007 0
0.84 0.007 0
0.85 0.007 0
0.86 0.007 0
0.87 0.007 0
0.88 0.007 0
0.89 0.007 0
0.9 0.007 0
0.91 0.007 0
0.92 0.007 0
0.93 0.007 0
0.94 0.007 0
0.95 0.007 0
0.96 0.007 0
0.97 0.007 0
0.98 0.007 0
[...]
POINT_DATA 10000

SCALARS vel_X float 1
LOOKUP_TABLE default
0
0
0
0
0
0
0
0
0
0
0
0
0
0
0
0
0
0
0
0
0
0
0
0
0
0
0
0
0
0
0
0
0
0
0
0
0
0
0
0
0
0
0
0
0
0
0
0
0
0
0
0
0
0
0
0
0
0
0
0
0
0
0
0
0
0
0
0
0
0
0
0
0
0
0
0
0
0
0
0
0
0
0
0
0
0
0
0
0
0
0
0
0
0
0
0
0
0
0
0
1
0.362651
0.136256
0.221496
0.0272608
0.190395
-0.0100593
0.183021
-0.0487763
0.186887
-0.0479554
0.106371
0.0586831
-0.00475225
0.045521
0.134501
-0.160595
0.194449
-0.0104566
-0.0447095
0.0299413
0.133422
-0.125359
0.056817
-0.00352742
0.0723394
-0.0457912
0.0363256
-0.0897839
0.091289
0.0319217
0.0729639
-0.0995557
0.029884
-0.0236092
0.103276
0.0250046
0.196432
0.153224
0.281358
0.174714
0.302404
0.225907
0.34397
0.197712
0.243565
0.065654
0.125004
-0.0196296
0.0727693
-0.0480663
0.0587408
-0.054442
0.0560506
-0.055498
0.0556795
-0.0555999
0.0556385
-0.0557006
0.0555073
-0.0556248
0.0559193
-0.0554285
0.0551001
-0.0563859
0.056398
-0.0539793
0.0544232
-0.0584838
0.0578178
-0.0527511
0.0500385
-0.055953
0.0661847
-0.063526
0.0442099
-0.0363431
0.05467
-0.0751039
0.0725115
-0.057463
0.0496232
-0.0495871
0.0445272
-0.033612
0.0278774
-0.0383022
0.0630427
-0.0929678
0.115934
-0.126957
0.124195
-0.111913
0.0932034
-0.0728216
0.0521499
-0.0340629
0.0140573
-0.277453
-0.277453
1
0.614748
0.293943
0.377755
0.109711
0.315946
0.0409403
0.297091
-0.0220939
0.297437
-0.0330413
0.190736
0.100292
0.0320931
0.0942516
0.197425
-0.184039
0.29544
-0.0117755
-0.0250806
0.0657843
0.192331
-0.15504
0.108893
0.0104053
0.121507
-0.0489909
0.0710366
-0.0969599
0.16687
0.0668518
0.123548
-0.111282
0.0907544
0.019804
0.214999
0.117427
0.376677
0.315303
0.500234
0.348511
0.533117
0.413758
0.564878
0.332538
0.379171
0.110245
0.187474
-0.0245889
0.106118
-0.0684575
0.084655
-0.0781619
0.0805819
-0.0797581
0.0800207
-0.0799117
0.0799658
-0.0800522
0.0797648
-0.0799747
0.0803498
-0.0796202
0.0792589
-0.0810984
0.0808639
-0.0775456
0.078585
-0.0840974
0.0824574
-0.0756389
0.0726976
-0.0813595
0.0944536
-0.089131
0.062938
-0.055089
0.0814002
-0.107196
0.101011
-0.0802481
0.0704078
-0.0710408
0.0647856
-0.0519091
0.0463721
-0.0618156
0.0941128
-0.13153
0.158543
-0.169883
0.163572
-0.145904
0.120397
-0.0936984
0.0666375
-0.0435998
0.0222143
0.412776
0.412776
1
0.786781
0.449185
0.494385
0.221733
0.399526
0.130372
0.365649
0.0557895
0.348259
0.0470897
0.221847
0.175765
0.0672186
0.145019
0.239339
-0.131748
0.311939
0.0520765
-0.00635133
0.109995
0.217189
-0.104089
0.122992
0.0622078
0.142804
0.00301782
0.0917168
-0.0384973
0.199198
0.136735
0.158844
-0.04009
0.140677
0.122029
0.302259
0.258559
0.501273
0.487689
0.643122
0.526596
0.672371
0.577357
0.672612
0.44635
0.42783
0.167854
0.192743
0.00388753
0.094411
-0.0490564
0.0685702
-0.0607481
0.063667
-0.0626743
0.0629869
-0.062865
0.0629194
-0.063024
0.0626935
-0.0629407
0.0633379
-0.0625504
0.0621503
-0.064149
0.0638847
-0.0603555
0.0614285
-0.0672747
0.0655255
-0.0585989
0.0552832
-0.063981
0.0777672
-0.0730833
0.0460055
-0.0370036
0.0631319
-0.0902558
0.0850422
-0.0641353
0.0533107
-0.0541357
0.0487153
-0.0363472
0.0291514
-0.0418992
0.0715293
-0.108291
0.1367
-0.151366
0.148843
-0.135259
0.112797
-0.0888926
0.0633857
-0.0420426
0.0185227
-0.375724
-0.375724
1
0.903297
0.586961
0.591151
0.338752
0.46626
0.231338
0.416373
0.15318
0.372989
0.158918
0.223404
0.275259
0.0971014
0.196049
0.282621
-0.0528665
0.292642
0.157911
0.00511364
0.159118
0.237419
-0.0145797
0.118015
0.136439
0.155509
0.0873445
0.110163
0.0488886
0.209411
0.23102
0.196361
0.0734222
0.181998
0.24774
0.369203
0.408334
0.581029
0.647077
0.731746
0.685715
0.744989
0.707872
0.711273
0.541012
0.431347
0.230151
0.170736
0.0482691
0.0615264
-0.0107275
0.0326596
-0.0238391
0.0271448
-0.0260146
0.0263714
-0.0262393
0.0262869
-0.0264124
0.0260605
-0.026303
0.0267229
-0.0259693
0.0254607
-0.0274616
0.0273982
-0.0238679
0.024504
-0.0303896
0.0292532
-0.0227142
0.0184683
-0.025893
0.0401718
-0.038473
0.0124628
7.28069e-05
0.0220501
-0.0506326
0.0498828
-0.0308853
0.018446
-0.0186725
0.0146919
-0.00319516
-0.00730613
0.000863056
0.0225113
-0.0569032
0.08755
-0.10859
0.114084
-0.109035
0.093709
-0.0759706
0.0547627
-0.037163
0.0197661
0.380183
0.380183
1
0.980279
0.70419
0.674494
0.450835
0.526383
0.331938
0.46069
0.255858
0.387894
0.281166
0.21621
0.381027
0.128377
0.246334
0.32876
0.0350792
0.265205
0.27769
0.0180616
0.210647
0.260773
0.0885018
0.111461
0.218336
0.170606
0.184667
0.132914
0.143518
0.214984
0.334631
0.240893
0.199119
0.219105
0.371502
0.420376
0.54258
0.629643
0.779609
0.78395
0.813711
0.775561
0.804762
0.714249
0.616937
0.416868
0.288983
0.14097
0.0951638
0.0238589
0.0314979
-0.00747189
0.0171856
-0.0135234
0.0147863
-0.0143829
0.0145274
-0.0144884
0.0143397
-0.014704
0.0144905
-0.0140361
0.0147179
-0.0153851
0.0134338
-0.0131648
0.0166551
-0.0166932
0.0107997
-0.0109847
0.0170641
-0.0224921
0.016791
-0.00199673
-0.000235315
-0.0241063
0.0413071
-0.0245398
-0.00587399
0.0110812
0.00537122
-0.0199822
0.0210807
-0.0236079
0.0338265
-0.0474295
0.0477439
-0.0315119
0.000355403
0.0320142
-0.0594437
0.0734797
-0.0777563
0.0705645
-0.0599356
0.0439697
-0.0308866
0.0136488
-0.385237
-0.385237
1
1.02861
0.802816
0.745109
0.555843
0.58147
0.429517
0.500085
0.360558
0.396838
0.405384
0.20993
0.481589
0.166429
0.294772
0.373332
0.129726
0.238098
0.3953
0.0395698
0.262563
0.285209
0.195126
0.110862
0.299477
0.190082
0.283986
0.160534
0.236588
0.22227
0.436368
0.289008
0.321249
0.252228
0.480761
0.457086
0.652649
0.655664
0.882201
0.810477
0.910525
0.780921
0.874455
0.70046
0.677508
0.397279
0.341722
0.11184
0.139112
-0.0117485
0.0713787
-0.045336
0.0559319
-0.0519099
0.0533111
-0.0528563
0.0530162
-0.0529855
0.0528133
-0.0531847
0.0530131
-0.052517
0.0531119
-0.0539566
0.0520791
-0.0514287
0.0548567
-0.0556448
0.0497676
-0.0489247
0.0545169
-0.0610659
0.057223
-0.0421639
0.0358785
-0.0580303
0.0798105
-0.0689431
0.0371614
-0.0257146
0.0391021
-0.0559097
0.0589627
-0.0602886
0.068515
-0.0838444
0.0899932
-0.0811376
0.0546499
-0.022597
-0.0092307
0.0304115
-0.043271
0.0441698
-0.0409965
0.0309403
-0.0230111
0.013233
0.3786
0.3786
1
1.05651
0.885286
0.803429
0.653178
0.631174
0.523756
0.533651
0.466621
0.40042
0.527582
0.208795
0.570503
0.213924
0.339935
0.4131
0.230658
0.213173
0.502677
0.0728459
0.312513
0.307949
0.300559
0.118461
0.374811
0.212797
0.378649
0.192184
0.32401
0.23204
0.528177
0.336496
0.431984
0.280932
0.570234
0.480941
0.737158
0.665379
0.956479
0.819413
0.980628
0.772906
0.923725
0.68063
0.72569
0.378734
0.387541
0.0869884
0.177836
-0.0423984
0.106279
-0.0781924
0.0896987
-0.0852998
0.086849
-0.0863374
0.0865155
-0.0864922
0.0862978
-0.0866714
0.0865486
-0.0860108
0.0865099
-0.0875291
0.0857516
-0.0847162
0.0880357
-0.0895731
0.0837884
-0.08196
0.0869829
-0.0944292
0.0925018
-0.077663
0.0675554
-0.0868067
0.11241
-0.107865
0.0758592
-0.0584057
0.0679607
-0.0865212
0.0920973
-0.0927235
0.0982831
-0.113605
0.124153
-0.122607
0.102371
-0.0732023
0.0396975
-0.0135218
-0.00656086
0.015055
-0.0194018
0.0157651
-0.0136135
0.00528198
-0.384056
-0.384056
1
1.07045
0.9533
0.851044
0.741765
0.675716
0.613949
0.561175
0.572534
0.400128
0.64366
0.216027
0.643459
0.271759
0.380507
0.44697
0.335268
0.192348
0.594669
0.11873
0.358046
0.32819
0.400417
0.1352
0.440474
0.237844
0.463551
0.227739
0.402356
0.244124
0.604082
0.381443
0.526846
0.306325
0.637845
0.495329
0.796872
0.664901
1.00501
0.818333
1.02835
0.76057
0.956795
0.661727
0.762487
0.365139
0.425204
0.0689796
0.209385
-0.0658735
0.134093
-0.103891
0.116352
-0.111554
0.113262
-0.112688
0.112887
-0.11287
0.112656
-0.113026
0.112956
-0.112382
0.112777
-0.113956
0.112311
-0.110908
0.114051
-0.116308
0.11073
-0.107997
0.112334
-0.120401
0.120412
-0.106371
0.0928304
-0.10839
0.136761
-0.138913
0.108147
-0.0851651
0.0899559
-0.109493
0.118076
-0.118776
0.121338
-0.135012
0.14825
-0.153447
0.140588
-0.116644
0.0842448
-0.0555415
0.0300398
-0.0149446
0.00348316
-0.000611444
-0.00322947
0.00334471
0.380833
0.380833
1
1.07548
1.00797
0.890245
0.820255
0.715904
0.698851
0.583439
0.675614
0.398859
0.748653
0.234983
0.697166
0.339706
0.415734
0.475045
0.439202
0.178806
0.667064
0.17685
0.397201
0.346661
0.48994
0.161952
0.493422
0.265191
0.534482
0.267739
0.468399
0.259
0.660047
0.424045
0.603104
0.330919
0.683172
0.504702
0.833075
0.660167
1.0302
0.814079
1.0567
0.750716
0.975577
0.648595
0.787511
0.359447
0.453043
0.0600794
0.231752
-0.0800565
0.152748
-0.12034
0.13381
-0.128585
0.130465
-0.129824
0.130045
-0.130034
0.129802
-0.130164
0.130149
-0.129548
0.129829
-0.131148
0.129671
-0.127928
0.130818
-0.133751
0.128505
-0.124963
0.128497
-0.136906
0.138822
-0.126147
0.109679
-0.120828
0.150766
-0.159827
0.131844
-0.104039
0.103147
-0.122634
0.134538
-0.136309
0.136026
-0.146729
0.160761
-0.171499
0.166368
-0.149385
0.120638
-0.0920145
0.0633068
-0.0431757
0.0256114
-0.0167339
0.00715
-0.00538656
-0.381398
-0.381398
1
1.07531
1.05019
0.923331
0.88761
0.752594
0.777168
0.601773
0.772604
0.400249
0.837442
0.26872
0.729474
0.416552
0.445621
0.497834
0.537652
0.176131
0.716641
0.245978
0.42887
0.36466
0.564758
0.199347
0.531761
0.295241
0.588362
0.312729
0.519794
0.277699
0.694077
0.465427
0.659524
0.357589
0.707054
0.513339
0.847466
0.656173
1.03443
0.811953
1.06774
0.747881
0.980898
0.64432
0.800102
0.363637
0.469669
0.0619293
0.243388
-0.0833602
0.160672
-0.125962
0.140495
-0.134817
0.136881
-0.136168
0.136412
-0.136407
0.136159
-0.136508
0.136551
-0.135931
0.136091
-0.137526
0.136252
-0.134202
0.136764
-0.14032
0.135527
-0.131277
0.133919
-0.142402
0.146115
-0.135313
0.11654
-0.122731
0.152945
-0.168848
0.145149
-0.1135
0.106169
-0.12437
0.139637
-0.143591
0.141113
-0.147972
0.160864
-0.175372
0.17747
-0.168414
0.145428
-0.119442
0.0900184
-0.0669095
0.0448321
-0.031048
0.0165736
-0.00706463
0.383584
0.383584
1
1.07266
1.08089
0.952187
0.943431
0.786365
0.847871
0.617691
0.860186
0.407986
0.905591
0.319293
0.739808
0.500064
0.470924
0.515944
0.626221
0.187342
0.741729
0.324033
0.452898
0.38342
0.621657
0.247336
0.555014
0.3283
0.623545
0.362757
0.555621
0.301245
0.706171
0.506635
0.696332
0.38864
0.711459
0.524459
0.842335
0.656363
1.02022
0.815246
1.06329
0.754394
0.973535
0.650314
0.800147
0.378501
0.474547
0.0751586
0.243685
-0.0751652
0.15725
-0.120136
0.13579
-0.129631
0.131892
-0.131102
0.13137
-0.131371
0.13111
-0.13144
0.13154
-0.130914
0.130946
-0.132472
0.131431
-0.129116
0.131278
-0.135394
0.131161
-0.126315
0.12801
-0.136316
0.141638
-0.133127
0.112779
-0.113685
0.142832
-0.165184
0.147149
-0.112931
0.0986661
-0.114189
0.1325
-0.13972
0.13614
-0.138837
0.148825
-0.16495
0.173
-0.171991
0.15625
-0.135172
0.107568
-0.0838352
0.0592657
-0.0421656
0.0240671
-0.014567
-0.378825
-0.378825
1
1.06933
1.10113
0.978108
0.988027
0.817438
0.910288
0.632731
0.935319
0.425319
0.949934
0.387263
0.729422
0.587013
0.493017
0.53002
0.701337
0.214303
0.742578
0.408053
0.47002
0.403836
0.658978
0.30491
0.564151
0.36426
0.639935
0.417132
0.576502
0.330164
0.698071
0.548058
0.715083
0.425265
0.699333
0.53983
0.820634
0.662396
0.990505
0.825208
1.04539
0.770629
0.954817
0.666447
0.788475
0.403566
0.468247
0.0992197
0.233176
-0.0560095
0.143016
-0.103397
0.120231
-0.11356
0.116032
-0.11516
0.115454
-0.115459
0.115189
-0.115495
0.115652
-0.11503
0.114929
-0.11652
0.115737
-0.113204
0.114905
-0.119506
0.115924
-0.110601
0.11133
-0.119233
0.125902
-0.119995
0.0988885
-0.0944268
0.121156
-0.149223
0.138046
-0.102805
0.0814579
-0.0928304
0.113457
-0.124833
0.121581
-0.120411
0.126124
-0.141589
0.153685
-0.159993
0.152204
-0.137768
0.114304
-0.0923435
0.0675256
-0.0490228
0.028965
-0.0140881
0.385725
0.385725
1
1.06644
1.1122
1.00176
1.02234
0.845734
0.964062
0.648369
0.995452
0.454707
0.968949
0.471462
0.701407
0.673345
0.513712
0.540733
0.760449
0.257467
0.72141
0.494282
0.481705
0.426335
0.676713
0.370013
0.561421
0.402462
0.638924
0.47435
0.584426
0.364212
0.672934
0.589198
0.718419
0.467356
0.674401
0.55972
0.785933
0.674224
0.948639
0.8413
1.01661
0.795344
0.926846
0.691257
0.76694
0.43718
0.45245
0.132423
0.213526
-0.0275649
0.119638
-0.07741
0.0954846
-0.0882709
0.0909681
-0.090007
0.0903282
-0.0903388
0.090061
-0.0903387
0.0905504
-0.089946
0.0897096
-0.0913359
0.0908317
-0.0881334
0.0893214
-0.0943224
0.0914648
-0.0857903
0.0855673
-0.0928707
0.100568
-0.0974594
0.0764575
-0.0667971
0.0898174
-0.122547
0.119157
-0.0846517
0.0564799
-0.0622548
0.0840495
-0.100137
0.0988269
-0.0946973
0.0953392
-0.108012
0.121831
-0.133956
0.133963
-0.127179
0.109703
-0.0916945
0.0688606
-0.0509887
0.0307543
-0.0187969
-0.377337
-0.377337
1
1.06452
1.11565
1.02321
1.04782
0.870966
1.00909
0.665947
1.03872
0.497549
0.962951
0.568973
0.660464
0.75446
0.535036
0.548754
0.802135
0.315805
0.68222
0.578383
0.489968
0.450841
0.676407
0.439633
0.550061
0.441696
0.623185
0.532142
0.582416
0.402297
0.634954
0.628674
0.709777
0.51357
0.640935
0.583069
0.742282
0.690362
0.898409
0.861576
0.980059
0.826065
0.892481
0.722221
0.738301
0.476715
0.42979
0.172114
0.187357
0.00753309
0.089745
-0.0448046
0.0641795
-0.0563911
0.0593286
-0.0582731
0.0586231
-0.0586375
0.0583557
-0.0586013
0.0588648
-0.0582886
0.0579175
-0.0595506
0.0593376
-0.0565318
0.0571667
-0.0624732
0.0603968
-0.0544976
0.0533636
-0.0599095
0.0682802
-0.0680327
0.048006
-0.0335644
0.0517107
-0.0877674
0.0927605
-0.0608793
0.0265855
-0.0254657
0.0469039
-0.0678011
0.0700436
-0.0643998
0.0598775
-0.068017
0.0810821
-0.0969156
0.103705
-0.104741
0.0944295
-0.0821004
0.0632368
-0.0479345
0.029353
-0.0151097
0.386399
0.386399
1
1.06364
1.11324
1.04203
1.06624
0.892762
1.04546
0.686589
1.06411
0.554001
0.934131
0.675285
0.612505
0.825604
0.558976
0.554726
0.826139
0.386879
0.630397
0.655748
0.497123
0.476784
0.660931
0.510007
0.533936
0.480302
0.596367
0.587633
0.574144
0.442579
0.588968
0.664398
0.693067
0.561565
0.603484
0.607811
0.694008
0.708285
0.843879
0.88314
0.939307
0.859492
0.855143
0.756086
0.705967
0.518852
0.403584
0.214948
0.157979
0.0459597
0.0566534
-0.00889835
0.0296342
-0.0212384
0.0244314
-0.0232753
0.0236557
-0.0236729
0.0233903
-0.0236004
0.0239116
-0.023375
0.0228723
-0.0244829
0.0245671
-0.021715
0.0217685
-0.0272798
0.0260232
-0.0200248
0.0180437
-0.0237185
0.0323876
-0.0349321
0.0167124
0.00185882
0.0104439
-0.0482656
0.0618402
-0.0344966
-0.00475674
0.0137885
0.00547776
-0.0307402
0.0379468
-0.0326312
0.0235965
-0.0260678
0.036032
-0.0530832
0.0648908
-0.0730528
0.0702785
-0.0647163
0.0513525
-0.0402565
0.0249012
-0.0165681
-0.377558
-0.377558
1
1.06348
1.10691
1.05748
1.07951
0.910777
1.07339
0.71112
1.07155
0.622889
0.886431
0.784618
0.564126
0.882308
0.587218
0.559254
0.833332
0.467039
0.572228
0.721885
0.505505
0.503186
0.634154
0.576936
0.51713
0.516344
0.562724
0.637592
0.563517
0.482696
0.54005
0.693865
0.672337
0.608352
0.566566
0.631269
0.645456
0.724891
0.789166
0.902607
0.898096
0.89193
0.818509
0.789242
0.673665
0.559941
0.377483
0.257246
0.12904
0.0840506
0.0240203
0.0266509
-0.00449327
0.0135301
-0.0100658
0.0113289
-0.0109163
0.0108976
-0.0111776
0.0110059
-0.0106519
0.0111385
-0.0117668
0.0102077
-0.00982708
0.0126622
-0.0132062
0.00759462
-0.00801045
0.0139876
-0.0167346
0.0119975
-0.00340319
-0.00173402
-0.0139289
0.0357696
-0.0300246
-0.00784197
0.0297565
-0.00877575
-0.0338369
0.0513955
-0.0362788
0.00766904
0.00551765
-0.0025768
-0.00961487
0.0131921
-0.00826907
-0.00740436
0.0219075
-0.0357125
0.0399991
-0.0415318
0.0345743
-0.0288421
0.0179749
-0.00990949
0.385299
0.385299
1
1.06349
1.09861
1.06865
1.08947
0.924811
1.0932
0.739991
1.062
0.70175
0.825256
0.890384
0.522001
0.920839
0.620904
0.56291
0.825581
0.551727
0.514331
0.772819
0.51719
0.528803
0.60055
0.636164
0.503533
0.547847
0.526699
0.678762
0.554273
0.520074
0.493098
0.714518
0.651425
0.650709
0.534348
0.650599
0.600683
0.736976
0.738145
0.916581
0.860032
0.919715
0.786151
0.81813
0.645047
0.596391
0.355085
0.295379
0.104137
0.118191
-0.00454784
0.0582348
-0.0345945
0.0443066
-0.0405549
0.0419317
-0.0414848
0.0414663
-0.0417401
0.0416092
-0.0412183
0.0416451
-0.0423905
0.040911
-0.0402416
0.0429957
-0.0441402
0.0385352
-0.0381061
0.0439491
-0.0473694
0.0435892
-0.035421
0.0280111
-0.0404894
0.0645683
-0.0657908
0.0296749
-0.000120753
0.0131209
-0.0571137
0.0833081
-0.0743202
0.0439309
-0.0243088
0.0228526
-0.0362657
0.0454463
-0.0468599
0.034974
-0.0203978
0.00306183
0.00700938
-0.015168
0.0147996
-0.014983
0.00930533
-0.00898873
-0.379429
-0.379429
1
1.06298
1.0902
1.07472
1.09771
0.9349
1.10524
0.77324
1.03739
0.786987
0.757043
0.985751
0.49226
0.938607
0.660427
0.56626
0.805552
0.635865
0.46307
0.805489
0.533722
0.552309
0.564758
0.683792
0.49644
0.573049
0.492521
0.70822
0.549603
0.552268
0.452449
0.724129
0.633627
0.685609
0.510321
0.663219
0.563146
0.741681
0.694127
0.922082
0.828227
0.939634
0.76116
0.839633
0.62331
0.625063
0.339544
0.326167
0.0864256
0.145207
-0.0258839
0.0826839
-0.0574999
0.0679223
-0.0638664
0.0653641
-0.0648804
0.064864
-0.0651281
0.0650397
-0.0646183
0.0649767
-0.0658282
0.0644548
-0.0635111
0.0661213
-0.0678564
0.0623644
-0.0611026
0.0667075
-0.0707034
0.0678537
-0.0604229
0.051165
-0.0599864
0.0851489
-0.0934112
0.0608255
-0.0247814
0.0285071
-0.071617
0.105977
-0.104919
0.0747856
-0.048951
0.0413383
-0.053653
0.0671833
-0.0754136
0.0692629
-0.0572376
0.0388824
-0.0249656
0.0113993
-0.00574221
-0.000239563
-7.26864e-05
-0.000827995
0.38285
0.38285
1
1.06126
1.08329
1.07509
1.1054
0.941376
1.10992
0.81047
1.00052
0.87415
0.688723
1.06426
0.479905
0.934488
0.705303
0.569894
0.776445
0.714295
0.424003
0.818068
0.555901
0.572499
0.53116
0.716667
0.498224
0.590651
0.463828
0.72373
0.551834
0.577287
0.421545
0.721147
0.621418
0.710601
0.497015
0.667185
0.53542
0.736878
0.659563
0.916912
0.804979
0.949269
0.745809
0.851422
0.610847
0.643616
0.333227
0.347214
0.0782748
0.162708
-0.0376068
0.0976142
-0.0708255
0.0819935
-0.0776163
0.079242
-0.0787192
0.078707
-0.0789577
0.0789131
-0.0784682
0.0787507
-0.0796953
0.0784522
-0.077255
0.0796603
-0.0819636
0.0766891
-0.0746216
0.0798949
-0.0843686
0.0823831
-0.0759446
0.0653458
-0.0702201
0.0952441
-0.110266
0.0828775
-0.0419035
0.0354905
-0.0752967
0.116739
-0.125054
0.0975418
-0.0664494
0.0514093
-0.0601678
0.076092
-0.0907223
0.0915597
-0.084408
0.06767
-0.0522952
0.0351594
-0.0247284
0.0137242
-0.00915512
0.00059765
-0.382197
-0.382197
1
1.05777
1.07907
1.06962
1.11317
0.944886
1.10767
0.850873
0.954896
0.958288
0.627133
1.12044
0.488318
0.90903
0.754127
0.574447
0.741705
0.782228
0.40141
0.810196
0.583642
0.58847
0.503491
0.732721
0.510087
0.600019
0.443368
0.724031
0.562202
0.593865
0.402676
0.704974
0.616234
0.724118
0.495792
0.661475
0.518983
0.721447
0.635815
0.899927
0.791531
0.947269
0.741303
0.852217
0.60899
0.650763
0.337446
0.357183
0.0810017
0.169356
-0.0383855
0.101691
-0.0732366
0.0851857
-0.0804698
0.0822309
-0.0816661
0.0816606
-0.0818946
0.0818941
-0.081433
0.0816338
-0.0826565
0.0815653
-0.0801411
0.0822846
-0.0851215
0.0801645
-0.0773325
0.0821911
-0.0870499
0.0858289
-0.080569
0.0691924
-0.0700276
0.0936852
-0.114838
0.0941059
-0.0501051
0.0332048
-0.0672776
0.114119
-0.132725
0.110349
-0.0756662
0.0526041
-0.0554836
0.0713311
-0.0910641
0.0992847
-0.0987553
0.0861022
-0.0718397
0.053395
-0.0399938
0.0253219
-0.0168525
0.00814618
0.380061
0.380061
1
1.05214
1.0782
1.05864
1.1211
0.946366
1.09897
0.893272
0.90446
1.03437
0.57843
1.15033
0.518919
0.864494
0.804631
0.580606
0.704735
0.835663
0.397938
0.783084
0.61593
0.599765
0.484539
0.731208
0.531933
0.601311
0.432794
0.709035
0.580724
0.601634
0.396835
0.676126
0.618365
0.72567
0.506733
0.646155
0.514095
0.695436
0.623038
0.871183
0.787929
0.933492
0.747634
0.841937
0.617859
0.646425
0.352311
0.355938
0.0947212
0.165014
-0.0280907
0.0947802
-0.0645998
0.0773659
-0.0722932
0.0741977
-0.0735878
0.0735917
-0.0738053
0.073849
-0.0733793
0.0734939
-0.0745783
0.0736573
-0.0720378
0.0738673
-0.0771922
0.0726469
-0.0691037
0.0734749
-0.0786352
0.0780551
-0.0740824
0.0625169
-0.0594253
0.0805471
-0.10688
0.0939649
-0.0490901
0.0219287
-0.0479909
0.0980099
-0.127171
0.112381