# vtk DataFile Version 2.0
FlowField
ASCII
DATASET STRUCTURED_GRID
DIMENSIONS 100 1 100
POINTS 10000 float
0 0 0
0.01 0 0
0.02 0 0
0.03 0 0
0.04 0 0
0.05 0 0
0.06 0 0
0.07 0 0
0.08 0 0
0.09 0 0
0.1 0 0
0.11 0 0
0.12 0 0
0.13 0 0
0.14 0 0
0.15 0 0
0.16 0 0
0.17 0 0
0.18 0 0
0.19 0 0
0.2 0 0
0.21 0 0
0.22 0 0
0.23 0 0
0.24 0 0
0.25 0 0
0.26 0 0
0.27 0 0
0.28 0 0
0.29 0 0
0.3 0 0
0.31 0 0
0.32 0 0
0.33 0 0
0.34 0 0
0.35 0 0
0.36 0 0
0.37 0 0
0.38 0 0
0.39 0 0
0.4 0 0
0.41 0 0
0.42 0 0
0.43 0 0
0.44 0 0
0.45 0 0
0.46 0 0
0.47 0 0
0.48 0 0
0.49 0 0
0.5 0 0
0.51 0 0
0.52 0 0
0.53 0 0
0.54 0 0
0.55 0 0
0.56 0 0
0.57 0 0
0.58 0 0
0.59 0 0
0.6 0 0
0.61 0 0
0.62 0 0
0.63 0 0
0.64 0 0
0.65 0 0
0.66 0 0
0.67 0 0
0.68 0 0
0.69 0 0
0.7 0 0
0.71 0 0
0.72 0 0
0.73 0 0
0.74 0 0
0.75 0 0
0.76 0 0
0.77 0 0
0.78 0 0
0.79 0 0
0.8 0 0
0.81 0 0
0.82 0 0
0.83 0 0
0.84 0 0
0.85 0 0
0.86 0 0
0.87 0 0
0.88 0 0
0.89 0 0
0.9 0 0
0.91 0 0
0.92 0 0
0.93 0 0
0.94 0 0
0.95 0 0
0.96 0 0
0.97 0 0
0.98 0 0
0.99 0 0
0 0.001 0
0.01 0.001 0
0.02 0.001 0
0.03 0.001 0
0.04 0.001 0
0.05 0.001 0
0.06 0.001 0
0.07 0.001 0
0.08 0.001 0
0.09 0.001 0
0.1 0.001 0
0.11 0.001 0
0.12 0.001 0
0.13 0.001 0
0.14 0.001 0
0.15 0.001 0
0.16 0.001 0
0.17 0.001 0
0.18 0.001 0
0.19 0.001 0
0.2 0.001 0
0.21 0.001 0
0.22 0.001 0
0.23 0.001 0
0.24 0.001 0
0.25 0.001 0
0.26 0.001 0
0.27 0.001 0
0.28 0.001 0
0.29 0.001 0
0.3 0.001 0
0.31 0.001 0
0.32 0.001 0
0.33 0.001 0
0.34 0.001 0
0.35 0.001 0
0.36 0.001 0
0.37 0.001 0
0.38 0.001 0
0.39 0.001 0
0.4 0.001 0
0.41 0.001 0
0.42 0.001 0
0.43 0.001 0
0.44 0.001 0
0.45 0.001 0
0.46 0.001 0
0.47 0.001 0
0.48 0.001 0
0.49 0.001 0
0.5 0.001 0
0.51 0.001 0
0.52 0.001 0
0.53 0.001 0
0.54 0.001 0
0.55 0.001 0
0.56 0.001 0
0.57 0.001 0
0.58 0.001 0
0.59 0.001 0
0.6 0.001 0
0.61 0.001 0
0.62 0.001 0
0.63 0.001 0
0.64 0.001 0
0.65 0.001 0
0.66 0.001 0
0.67 0.001 0
0.68 0.001 0
0.69 0.001 0
0.7 0.001 0
0.71 0.001 0
0.72 0.001 0
0.73 0.001 0
0.74 0.001 0
0.75 0.001 0
0.76 0.001 0
0.77 0.001 0
0.78 0.001 0
0.79 0.001 0
0.8 0.001 0
0.81 0.001 0
0.82 0.001 0
0.83 0.001 0
0.84 0.001 0
0.85 0.001 0
0.86 0.001 0
0.87 0.001 0
0.88 0.001 0
0.89 0.001 0
0.9 0.001 0
0.91 0.001 0
0.92 0.001 0
0.93 0.001 0
0.94 0.001 0
0.95 0.001 0
0.96 0.001 0
0.97 0.001 0
0.98 0.001 0
0.99 0.001 0
0 0.002 0
0.01 0.002 0
0.02 0.002 0
0.03 0.002 0
0.04 0.002 0
0.05 0.002 0
0.06 0.002 0
0.07 0.002 0
0.08 0.002 0
0.09 0.002 0
0.1 0.002 0
0.11 0.002 0
0.12 0.002 0
0.13 0.002 0
0.14 0.002 0
0.15 0.002 0
0.16 0.002 0
0.17 0.002 0
0.18 0.002 0
0.19 0.002 0
0.2 0.002 0
0.21 0.002 0
0.22 0.002 0
0.23 0.002 0
0.24 0.002 0
0.25 0.002 0
0.26 0.002 0
0.27 0.002 0
0.28 0.002 0
0.29 0.002 0
0.3 0.002 0
0.31 0.002 0
0.32 0.002 0
0.33 0.002 0
0.34 0.002 0
0.35 0.002 0
0.36 0.002 0
0.37 0.002 0
0.38 0.002 0
0.39 0.002 0
0.4 0.002 0
0.41 0.002 0
0.42 0.002 0
0.43 0.002 0
0.44 0.002 0
0.45 0.002 0
0.46 0.002 0
0.47 0.002 0
0.48 0.002 0
0.49 0.002 0
0.5 0.002 0
0.51 0.002 0
0.52 0.002 0
0.53 0.002 0
0.54 0.002 0
0.55 0.002 0
0.56 0.002 0
0.57 0.002 0
0.58 0.002 0
0.59 0.002 0
0.6 0.002 0
0.61 0.002 0
0.62 0.002 0
0.63 0.002 0
0.64 0.002 0
0.65 0.002 0
0.66 0.002 0
0.67 0.002 0
0.68 0.002 0
0.69 0.002 0
0.7 0.002 0
0.71 0.002 0
0.72 0.002 0
0.73 0.002 0
0.74 0.002 0
0.75 0.002 0
0.76 0.002 0
0.77 0.002 0
0.78 0.002 0
0.79 0.002 0
0.8 0.002 0
0.81 0.002 0
0.82 0.002 0
0.83 0.002 0
0.84 0.002 0
0.85 0.002 0
0.86 0.002 0
0.87 0.002 0
0.88 0.002 0
0.89 0.002 0
0.9 0.002 0
0.91 0.002 0
0.92 0.002 0
0.93 0.002 0
0.94 0.002 0
0.95 0.002 0
0.96 0.002 0
0.97 0.002 0
0.98 0.002 0
0.99 0.002 0
0 0.003 0
0.01 0.003 0
0.02 0.003 0
0.03 0.003 0
0.04 0.003 0
0.05 0.003 0
0.06 0.003 0
0.07 0.003 0
0.08 0.003 0
0.09 0.003 0
0.1 0.003 0
0.11 0.003 0
0.12 0.003 0
0.13 0.003 0
0.14 0.003 0
0.15 0.003 0
0.16 0.003 0
0.17 0.003 0
0.18 0.003 0
0.19 0.003 0
0.2 0.003 0
0.21 0.003 0
0.22 0.003 0
0.23 0.003 0
0.24 0.003 0
0.25 0.003 0
0.26 0.003 0
0.27 0.003 0
0.28 0.003 0
0.29 0.003 0
0.3 0.003 0
0.31 0.003 0
0.32 0.003 0
0.33 0.003 0
0.34 0.003 0
0.35 0.003 0
0.36 0.003 0
0.37 0.003 0
0.38 0.003 0
0.39 0.003 0
0.4 0.003 0
0.41 0.003 0
0.42 0.003 0
0.43 0.003 0
0.44 0.003 0
0.45 0.003 0
0.46 0.003 0
0.47 0.003 0
0.48 0.003 0
0.49 0.003 0
0.5 0.003 0
0.51 0.003 0
0.52 0.003 0
0.53 0.003 0
0.54 0.003 0
0.55 0.003 0
0.56 0.003 0
0.57 0.003 0
0.58 0.003 0
0.59 0.003 0
0.6 0.003 0
0.61 0.003 0
0.62 0.003 0
0.63 0.003 0
0.64 0.003 0
0.65 0.003 0
0.66 0.003 0
0.67 0.003 0
0.68 0.003 0
0.69 0.003 0
0.7 0.003 0
0.71 0.003 0
0.72 0.003 0
0.73 0.003 0
0.74 0.003 0
0.75 0.003 0
0.76 0.003 0
0.77 0.003 0
0.78 0.003 0
0.79 0.003 0
0.8 0.003 0
0.81 0.003 0
0.82 0.003 0
0.83 0.003 0
0.84 0.003 0
0.85 0.003 0
0.86 0.003 0
0.87 0.003 0
0.88 0.003 0
0.89 0.003 0
0.9 0.003 0
0.91 0.003 0
0.92 0.003 0
0.93 0.003 0
0.94 0.003 0
0.95 0.003 0
0.96 0.003 0
0.97 0.003 0
0.98 0.003 0
0.99 0.003 0
0 0.004 0
0.01 0.004 0
0.02 0.004 0
0.03 0.004 0
0.04 0.004 0
0.05 0.004 0
0.06 0.004 0
0.07 0.004 0
0.08 0.004 0
0.09 0.004 0
0.1 0.004 0
0.11 0.004 0
0.12 0.004 0
0.13 0.004 0
0.14 0.004 0
0.15 0.004 0
0.16 0.004 0
0.17 0.004 0
0.18 0.004 0
0.19 0.004 0
0.2 0.004 0
0.21 0.004 0
0.22 0.004 0
0.23 0.004 0
0.24 0.004 0
0.25 0.004 0
0.26 0.004 0
0.27 0.004 0
0.28 0.004 0
0.29 0.004 0
0.3 0.004 0
0.31 0.004 0
0.32 0.004 0
0.33 0.004 0
0.34 0.004 0
0.35 0.004 0
0.36 0.004 0
0.37 0.004 0
0.38 0.004 0
0.39 0.004 0
0.4 0.004 0
0.41 0.004 0
0.42 0.004 0
0.43 0.004 0
0.44 0.004 0
0.45 0.004 0
0.46 0.004 0
0.47 0.004 0
0.48 0.004 0
0.49 0.004 0
0.5 0.004 0
0.51 0.004 0
0.52 0.004 0
0.53 0.004 0
0.54 0.004 0
0.55 0.004 0
0.56 0.004 0
0.57 0.004 0
0.58 0.004 0
0.59 0.004 0
0.6 0.004 0
0.61 0.004 0
0.62 0.004 0
0.63 0.004 0
0.64 0.004 0
0.65 0.004 0
0.66 0.004 0
0.67 0.004 0
0.68 0.004 0
0.69 0.004 0
0.7 0.004 0
0.71 0.004 0
0.72 0.004 0
0.73 0.004 0
0.74 0.004 0
0.75 0.004 0
0.76 0.004 0
0.77 0.004 0
0.78 0.004 0
0.79 0.004 0
0.8 0.004 0
0.81 0.004 0
0.82 0.004 0
0.83 0.004 0
0.84 0.004 0
0.85 0.004 0
0.86 0.004 0
0.87 0.004 0
0.88 0.004 0
0.89 0.004 0
0.9 0.004 0
0.91 0.004 0
0.92 0.004 0
0.93 0.004 0
0.94 0.004 0
0.95 0.004 0
0.96 0.004 0
0.97 0.004 0
0.98 0.004 0
0.99 0.004 0
0 0.005 0
0.01 0.005 0
0.02 0.005 0
0.03 0.005 0
0.04 0.005 0
0.05 0.005 0
0.06 0.005 0
0.07 0.005 0
0.08 0.005 0
0.09 0.005 0
0.1 0.005 0
0.11 0.005 0
0.12 0.005 0
0.13 0.005 0
0.14 0.005 0
0.15 0.005 0
0.16 0.005 0
0.17 0.005 0
0.18 0.005 0
0.19 0.005 0
0.2 0.005 0
0.21 0.005 0
0.22 0.005 0
0.23 0.005 0
0.24 0.005 0
0.25 0.005 0
0.26 0.005 0
0.27 0.005 0
0.28 0.005 0
0.29 0.005 0
0.3 0.005 0
0.31 0.005 0
0.32 0.005 0
0.33 0.005 0
0.34 0.005 0
0.35 0.005 0
0.36 0.005 0
0.37 0.005 0
0.38 0.005 0
0.39 0.005 0
0.4 0.005 0
0.41 0.005 0
0.42 0.005 0
0.43 0.005 0
0.44 0.005 0
0.45 0.005 0
0.46 0.005 0
0.47 0.005 0
0.48 0.005 0
0.49 0.005 0
0.5 0.005 0
0.51 0.005 0
0.52 0.005 0
0.53 0.005 0
0.54 0.005 0
0.55 0.005 0
0.56 0.005 0
0.57 0.005 0
0.58 0.005 0
0.59 0.005 0
0.6 0.005 0
0.61 0.005 0
0.62 0.005 0
0.63 0.005 0
0.64 0.005 0
0.65 0.005 0
0.66 0.005 0
0.67 0.005 0
0.68 0.005 0
0.69 0.005 0
0.7 0.005 0
0.71 0.005 0
0.72 0.005 0
0.73 0.005 0
0.74 0.005 0
0.75 0.005 0
0.76 0.005 0
0.77 0.005 0
0.78 0.005 0
0.79 0.005 0
0.8 0.005 0
0.81 0.005 0
0.82 0.005 0
0.83 0.005 0
0.84 0.005 0
0.85 0.005 0
0.86 0.005 0
0.87 0.005 0
0.88 0.005 0
0.89 0.005 0
0.9 0.005 0
0.91 0.005 0
0.92 0.005 0
0.93 0.005 0
0.94 0.005 0
0.95 0.005 0
0.96 0.005 0
0.97 0.005 0
0.98 0.005 0
0.99 0.005 0
0 0.006 0
0.01 0.006 0
0.02 0.006 0
0.03 0.006 0
0.04 0.006 0
0.05 0.006 0
0.06 0.006 0
0.07 0.006 0
0.08 0.006 0
0.09 0.006 0
0.1 0.006 0
0.11 0.006 0
0.12 0.006 0
0.13 0.006 0
0.14 0.006 0
0.15 0.006 0
0.16 0.006 0
0.17 0.006 0
0.18 0.006 0
0.19 0.006 0
0.2 0.006 0
0.21 0.006 0
0.22 0.006 0
0.23 0.006 0
0.24 0.006 0
0.25 0.006 0
0.26 0.006 0
0.27 0.006 0
0.28 0.006 0
0.29 0.006 0
0.3 0.006 0
0.31 0.006 0
0.32 0.006 0
0.33 0.006 0
0.34 0.006 0
0.35 0.006 0
0.36 0.006 0
0.37 0.006 0
0.38 0.006 0
0.39 0.006 0
0.4 0.006 0
0.41 0.006 0
0.42 0.006 0
0.43 0.006 0
0.44 0.006 0
0.45 0.006 0
0.46 0.006 0
0.47 0.006 0
0.48 0.006 0
0.49 0.006 0
0.5 0.006 0
0.51 0.006 0
0.52 0.006 0
0.53 0.006 0
0.54 0.006 0
0.55 0.006 0
0.56 0.006 0
0.57 0.006 0
0.58 0.006 0
0.59 0.006 0
0.6 0.006 0
0.61 0.006 0
0.62 0.006 0
0.63 0.006 0
0.64 0.006 0
0.65 0.006 0
0.66 0.006 0
0.67 0.006 0
0.68 0.006 0
0.69 0.006 0
0.7 0.006 0
0.71 0.006 0
0.72 0.006 0
0.73 0.006 0
0.74 0.006 0
0.75 0.006 0
0.76 0.006 0
0.77 0.006 0
0.78 0.006 0
0.79 0.006 0
0.8 0.006 0
0.81 0.006 0
0.82 0.006 0
0.83 0.006 0
0.84 0.006 0
0.85 0.006 0
0.86 0.006 0
0.87 0.006 0
0.88 0.006 0
0.89 0.006 0
0.9 0.006 0
0.91 0.006 0
0.92 0.006 0
0.93 0.006 0
0.94 0.006 0
0.95 0.006 0
0.96 0.006 0
0.97 0.006 0
0.98 0.006 0
0.99 0.006 0
0 0.007 0
0.01 0.007 0
0.02 0.007 0
0.03 0.007 0
0.04 0.007 0
0.05 0.007 0
0.06 0.007 0
0.07 0.007 0
0.08 0.007 0
0.09 0.007 0
0.1 0.007 0
0.11 0.007 0
0.12 0.007 0
0.13 0.007 0
0.14 0.007 0
0.15 0.007 0
0.16 0.007 0
0.17 0.007 0
0.18 0.007 0
0.19 0.007 0
0.2 0.007 0
0.21 0.007 0
0.22 0.007 0
0.23 0.007 0
0.24 0.007 0
0.25 0.007 0
0.26 0.007 0
0.27 0.007 0
0.28 0.007 0
0.29 0.007 0
0.3 0.007 0
0.31 0.007 0
0.32 0.007 0
0.33 0.007 0
0.34 0.007 0
0.35 0.007 0
0.36 0.007 0
0.37 0.007 0
0.38 0.007 0
0.39 0.007 0
0.4 0.007 0
0.41 0.007 0
0.42 0.007 0
0.43 0.007 0
0.44 0.007 0
0.45 0.007 0
0.46 0.007 0
0.47 0.007 0
0.48 0.007 0
0.49 0.007 0
0.5 0.007 0
0.51 0.007 0
0.52 0.007 0
0.53 0.007 0
0.54 0.007 0
0.55 0.007 0
0.56 0.007 0
0.57 0.007 0
0.58 0.007 0
0.59 0.007 0
0.6 0.007 0
0.61 0.007 0
0.62 0.007 0
0.63 0.007 0
0.64 0.007 0
0.65 0.007 0
0.66 0.007 0
0.67 0.007 0
0.68 0.007 0
0.69 0.007 0
0.7 0.007 0
0.71 0.007 0
0.72 0.007 0
0.73 0.007 0
0.74 0.007 0
0.75 0.007 0
0.76 0.007 0
0.77 0.007 0
0.78 0.007 0
0.79 0.007 0
0.8 0.007 0
0.81 0.007 0
0.82 0.007 0
0.83 0.007 0
0.84 0.007 0
0.85 0.007 0
0.86 0.007 0
0.87 0.007 0
0.88 0.007 0
0.89 0.007 0
0.9 0.007 0
0.91 0.007 0
0.92 0.007 0
0.93 0.007 0
0.94 0.007 0
0.95 0.007 0
0.96 0.007 0
0.97 0.007 0
0.98 0.007 0
[...]
POINT_DATA 10000

SCALARS vel_X float 1
LOOKUP_TABLE default
0
0
0
0
0
0
0
0
0
0
0
0
0
0
0
0
0
0
0
0
0
0
0
0
0
0
0
0
0
0
0
0
0
0
0
0
0
0
0
0
0
0
0
0
0
0
0
0
0
0
0
0
0
0
0
0
0
0
0
0
0
0
0
0
0
0
0
0
0
0
0
0
0
0
0
0
0
0
0
0
0
0
0
0
0
0
0
0
0
0
0
0
0
0
0
0
0
0
0
0
1
0.336124
0.224135
0.196043
0.200004
0.168386
0.215251
0.192182
0.197813
0.248466
0.252479
0.24647
0.335423
0.388054
0.336207
0.205537
0.105354
0.0378941
0.0172077
0.000993013
0.00426898
-0.00291857
0.00322952
-0.00316468
0.00317702
-0.00317486
0.00317521
-0.00317516
0.00317517
-0.00317517
0.00317517
-0.00317517
0.00317517
-0.00317517
0.00317517
-0.00317517
0.00317517
-0.00317517
0.00317517
-0.00317517
0.00317517
-0.00317517
0.00317517
-0.00317517
0.00317517
-0.00317517
0.00317517
-0.00317517
0.00317517
-0.00317517
0.00317517
-0.00317517
0.00317517
-0.00317517
0.00317517
-0.00317517
0.00317517
-0.00317517
0.00317517
-0.00317517
0.00317517
-0.00317517
0.00317517
-0.00317517
0.00317517
-0.00317517
0.00317517
-0.00317517
0.00317517
-0.00317517
0.00317517
-0.00317517
0.00317517
-0.00317517
0.00317517
-0.00317517
0.00317516
-0.00317519
0.00317499
-0.00317612
0.00317102
-0.00318906
0.00314198
-0.00322122
0.00317012
-0.0030985
0.00314518
-0.0035425
0.00310564
-0.00243273
0.00278693
-0.00416562
0.00468392
-0.00414055
0.00265514
-0.00173527
0.000388828
-0.0027023
-0.125599
-0.125599
1
0.587764
0.425728
0.381362
0.378912
0.341663
0.404155
0.374401
0.392491
0.464196
0.470878
0.47633
0.598728
0.644323
0.530676
0.317355
0.15874
0.0575959
0.0248705
0.00220547
0.00559141
-0.0035957
0.00405451
-0.00395893
0.00397711
-0.00397393
0.00397444
-0.00397437
0.00397438
-0.00397438
0.00397438
-0.00397438
0.00397438
-0.00397438
0.00397438
-0.00397438
0.00397438
-0.00397438
0.00397438
-0.00397438
0.00397438
-0.00397438
0.00397438
-0.00397438
0.00397438
-0.00397438
0.00397438
-0.00397438
0.00397438
-0.00397438
0.00397438
-0.00397438
0.00397438
-0.00397438
0.00397438
-0.00397438
0.00397438
-0.00397438
0.00397438
-0.00397438
0.00397438
-0.00397438
0.00397438
-0.00397438
0.00397438
-0.00397438
0.00397438
-0.00397438
0.00397438
-0.00397438
0.00397438
-0.00397438
0.00397438
-0.00397438
0.00397438
-0.00397438
0.00397437
-0.00397442
0.00397412
-0.00397579
0.00396824
-0.0039951
0.00392408
-0.00404766
0.0039541
-0.00387425
0.0039424
-0.00449487
0.00379602
-0.00297761
0.00356691
-0.0054271
0.00587706
-0.00506158
0.00300356
-0.00200555
0.00018034
-0.00131938
0.167213
0.167213
1
0.768604
0.603109
0.546484
0.541877
0.503746
0.567196
0.543573
0.564973
0.641683
0.654935
0.662941
0.777595
0.796885
0.639507
0.380635
0.188977
0.0697858
0.0290925
0.00349928
0.00593189
-0.00350465
0.00406594
-0.0039483
0.00397081
-0.00396685
0.0039675
-0.0039674
0.00396741
-0.00396741
0.00396741
-0.00396741
0.00396741
-0.00396741
0.00396741
-0.00396741
0.00396741
-0.00396741
0.00396741
-0.00396741
0.00396741
-0.00396741
0.00396741
-0.00396741
0.00396741
-0.00396741
0.00396741
-0.00396741
0.00396741
-0.00396741
0.00396741
-0.00396741
0.00396741
-0.00396741
0.00396741
-0.00396741
0.00396741
-0.00396741
0.00396741
-0.00396741
0.00396741
-0.00396741
0.00396741
-0.00396741
0.00396741
-0.00396741
0.00396741
-0.00396741
0.00396741
-0.00396741
0.00396741
-0.00396741
0.00396741
-0.00396741
0.00396741
-0.00396741
0.00396741
-0.00396746
0.00396709
-0.00396913
0.00396001
-0.00399211
0.00390797
-0.00405414
0.00393822
-0.00386756
0.0039159
-0.00454447
0.00376943
-0.00294954
0.00349326
-0.00543027
0.00586333
-0.00520289
0.00309226
-0.00225348
0.000193627
-0.00234784
-0.14512
-0.14512
1
0.894758
0.753062
0.688853
0.68718
0.646374
0.706076
0.692125
0.707482
0.781585
0.800602
0.797743
0.885649
0.880484
0.70094
0.420047
0.209532
0.0789483
0.0323371
0.00470339
0.00612078
-0.00330776
0.00396454
-0.00382559
0.00385242
-0.00384766
0.00384844
-0.00384832
0.00384834
-0.00384834
0.00384834
-0.00384834
0.00384834
-0.00384834
0.00384834
-0.00384834
0.00384834
-0.00384834
0.00384834
-0.00384834
0.00384834
-0.00384834
0.00384834
-0.00384834
0.00384834
-0.00384834
0.00384834
-0.00384834
0.00384834
-0.00384834
0.00384834
-0.00384834
0.00384834
-0.00384834
0.00384834
-0.00384834
0.00384834
-0.00384834
0.00384834
-0.00384834
0.00384834
-0.00384834
0.00384834
-0.00384834
0.00384834
-0.00384834
0.00384834
-0.00384834
0.00384834
-0.00384834
0.00384834
-0.00384834
0.00384834
-0.00384834
0.00384834
-0.00384834
0.00384833
-0.0038484
0.00384796
-0.00385034
0.00383989
-0.00387595
0.00378348
-0.00394025
0.0038186
-0.0037555
0.00375995
-0.00444786
0.00370746
-0.00288229
0.00320697
-0.00510957
0.00567565
-0.00538563
0.00340228
-0.00269881
0.000486668
-0.000814877
0.157769
0.157769
1
0.980202
0.874493
0.808264
0.811661
0.767075
0.820948
0.81523
0.819298
0.886387
0.907338
0.88634
0.94391
0.922967
0.737335
0.448151
0.226125
0.0870831
0.0353555
0.00591626
0.00629163
-0.00308185
0.00383969
-0.00367763
0.00370926
-0.00370359
0.00370453
-0.00370438
0.0037044
-0.0037044
0.0037044
-0.0037044
0.0037044
-0.0037044
0.0037044
-0.0037044
0.0037044
-0.0037044
0.0037044
-0.0037044
0.0037044
-0.0037044
0.0037044
-0.0037044
0.0037044
-0.0037044
0.0037044
-0.0037044
0.0037044
-0.0037044
0.0037044
-0.0037044
0.0037044
-0.0037044
0.0037044
-0.0037044
0.0037044
-0.0037044
0.0037044
-0.0037044
0.0037044
-0.0037044
0.0037044
-0.0037044
0.0037044
-0.0037044
0.0037044
-0.0037044
0.0037044
-0.0037044
0.0037044
-0.0037044
0.0037044
-0.0037044
0.0037044
-0.0037044
0.00370439
-0.00370447
0.00370395
-0.0037067
0.00369493
-0.00373454
0.00363589
-0.00379687
0.00368012
-0.00361919
0.00357093
-0.00431362
0.0036599
-0.00280544
0.00285143
-0.00469827
0.00546603
-0.005588
0.00378086
-0.00316469
0.000859381
-0.00202799
-0.14976
-0.14976
1
1.03586
0.968689
0.905257
0.913637
0.866044
0.911926
0.912051
0.903103
0.960041
0.979565
0.940373
0.971191
0.942748
0.760627
0.470917
0.241026
0.095065
0.0383094
0.00727942
0.00638307
-0.00274608
0.00361496
-0.00342706
0.00346412
-0.00345741
0.00345853
-0.00345836
0.00345838
-0.00345838
0.00345838
-0.00345838
0.00345838
-0.00345838
0.00345838
-0.00345838
0.00345838
-0.00345838
0.00345838
-0.00345838
0.00345838
-0.00345838
0.00345838
-0.00345838
0.00345838
-0.00345838
0.00345838
-0.00345838
0.00345838
-0.00345838
0.00345838
-0.00345838
0.00345838
-0.00345838
0.00345838
-0.00345838
0.00345838
-0.00345838
0.00345838
-0.00345838
0.00345838
-0.00345838
0.00345838
-0.00345838
0.00345838
-0.00345838
0.00345838
-0.00345838
0.00345838
-0.00345838
0.00345838
-0.00345838
0.00345838
-0.00345838
0.00345838
-0.00345838
0.00345837
-0.00345847
0.00345786
-0.00346099
0.00344788
-0.00349089
0.00338716
-0.0035488
0.00344289
-0.00338065
0.00327835
-0.00406777
0.00352319
-0.00263444
0.00240226
-0.00417109
0.00512977
-0.00563349
0.00403425
-0.00349936
0.00120459
-0.000630829
0.155407
0.155407
1
1.07001
1.03845
0.981024
0.993381
0.944597
0.980317
0.984591
0.963061
1.00789
1.02465
0.971593
0.981068
0.950646
0.776822
0.490976
0.255097
0.103221
0.0412327
0.00886061
0.00635491
-0.00225295
0.00324475
-0.00302781
0.00307106
-0.00306315
0.00306448
-0.00306428
0.00306431
-0.0030643
0.0030643
-0.0030643
0.0030643
-0.0030643
0.0030643
-0.0030643
0.0030643
-0.0030643
0.0030643
-0.0030643
0.0030643
-0.0030643
0.0030643
-0.0030643
0.0030643
-0.0030643
0.0030643
-0.0030643
0.0030643
-0.0030643
0.0030643
-0.0030643
0.0030643
-0.0030643
0.0030643
-0.0030643
0.0030643
-0.0030643
0.0030643
-0.0030643
0.0030643
-0.0030643
0.0030643
-0.0030643
0.0030643
-0.0030643
0.0030643
-0.0030643
0.0030643
-0.0030643
0.0030643
-0.0030643
0.0030643
-0.0030643
0.0030643
-0.0030643
0.00306429
-0.0030644
0.0030637
-0.00306725
0.00305272
-0.0030991
0.00299103
-0.00315107
0.00305903
-0.00299483
0.00283951
-0.00366295
0.00323794
-0.00232903
0.00184029
-0.00349261
0.00459371
-0.00543376
0.00408076
-0.00365125
0.00144644
-0.00191088
-0.151046
-0.151046
1
1.08883
1.08725
1.0375
1.05261
1.0047
1.02874
1.03631
1.00388
1.03601
1.05037
0.989178
0.982133
0.952538
0.788844
0.509387
0.268659
0.111623
0.0441557
0.0106587
0.00621785
-0.00160983
0.0027375
-0.002488
0.00253829
-0.002529
0.00253058
-0.00253033
0.00253037
-0.00253036
0.00253036
-0.00253036
0.00253036
-0.00253036
0.00253036
-0.00253036
0.00253036
-0.00253036
0.00253036
-0.00253036
0.00253036
-0.00253036
0.00253036
-0.00253036
0.00253036
-0.00253036
0.00253036
-0.00253036
0.00253036
-0.00253036
0.00253036
-0.00253036
0.00253036
-0.00253036
0.00253036
-0.00253036
0.00253036
-0.00253036
0.00253036
-0.00253036
0.00253036
-0.00253036
0.00253036
-0.00253036
0.00253036
-0.00253036
0.00253036
-0.00253036
0.00253036
-0.00253036
0.00253036
-0.00253036
0.00253036
-0.00253036
0.00253036
-0.00253037
0.00253035
-0.00253048
0.00252968
-0.00253367
0.00251768
-0.00256736
0.00245558
-0.00261236
0.00253553
-0.00247086
0.00226398
-0.00310636
0.0028062
-0.0019014
0.00118259
-0.00267405
0.00385977
-0.0049905
0.00391889
-0.00362609
0.00159588
-0.000529098
0.154631
0.154631
1
1.09697
1.11875
1.07726
1.09387
1.04881
1.06061
1.07113
1.03023
1.0502
1.06332
0.999274
0.97933
0.951456
0.798109
0.526527
0.281823
0.120242
0.0471151
0.0126396
0.00600894
-0.000851799
0.00212918
-0.00184329
0.00190155
-0.00189067
0.00189254
-0.00189224
0.00189229
-0.00189228
0.00189228
-0.00189228
0.00189228
-0.00189228
0.00189228
-0.00189228
0.00189228
-0.00189228
0.00189228
-0.00189228
0.00189228
-0.00189228
0.00189228
-0.00189228
0.00189228
-0.00189228
0.00189228
-0.00189228
0.00189228
-0.00189228
0.00189228
-0.00189228
0.00189228
-0.00189228
0.00189228
-0.00189228
0.00189228
-0.00189228
0.00189228
-0.00189228
0.00189228
-0.00189228
0.00189228
-0.00189228
0.00189228
-0.00189228
0.00189228
-0.00189228
0.00189228
-0.00189228
0.00189228
-0.00189228
0.00189228
-0.00189228
0.00189228
-0.00189229
0.00189226
-0.00189242
0.0018915
-0.00189598
0.00187846
-0.00193139
0.00181653
-0.00196865
0.00190742
-0.00184501
0.00158812
-0.00243396
0.00226037
-0.00138691
0.000465982
-0.00175741
0.00297179
-0.00434607
0.00357696
-0.00344718
0.00163249
-0.00179646
-0.151579
-0.151579
1
1.09789
1.13648
1.10317
1.12013
1.07964
1.07958
1.0929
1.04628
1.05538
1.06831
1.00554
0.975292
0.948929
0.805335
0.542501
0.294615
0.129014
0.0501462
0.0147611
0.00577117
-2.04062e-05
0.00146212
-0.00113572
0.00120297
-0.00119028
0.00119249
-0.00119213
0.00119218
-0.00119217
0.00119218
-0.00119218
0.00119218
-0.00119218
0.00119218
-0.00119218
0.00119218
-0.00119218
0.00119218
-0.00119218
0.00119218
-0.00119218
0.00119218
-0.00119218
0.00119218
-0.00119218
0.00119218
-0.00119218
0.00119218
-0.00119218
0.00119218
-0.00119218
0.00119218
-0.00119218
0.00119218
-0.00119218
0.00119218
-0.00119218
0.00119218
-0.00119218
0.00119218
-0.00119218
0.00119218
-0.00119218
0.00119218
-0.00119218
0.00119218
-0.00119218
0.00119218
-0.00119218
0.00119218
-0.00119218
0.00119218
-0.00119218
0.00119218
-0.00119218
0.00119215
-0.00119234
0.00119128
-0.00119628
0.0011772
-0.00123326
0.00111598
-0.00126222
0.00121638
-0.00115953
0.000854545
-0.00168902
0.00164015
-0.000824339
-0.000268816
-0.000794181
0.00198562
-0.00355231
0.00308906
-0.00313966
0.00158611
-0.000381663
0.154216
0.154216
1
1.09415
1.14368
1.11815
1.13438
1.09988
1.08903
1.10497
1.05544
1.05521
1.06856
1.00995
0.971314
0.945734
0.810932
0.557322
0.307035
0.137868
0.0532786
0.0169816
0.00554538
0.000844612
0.000776771
-0.000405453
0.000482806
-0.000468048
0.000470642
-0.00047022
0.000470284
-0.000470275
0.000470276
-0.000470276
0.000470276
-0.000470276
0.000470276
-0.000470276
0.000470276
-0.000470276
0.000470276
-0.000470276
0.000470276
-0.000470276
0.000470276
-0.000470276
0.000470276
-0.000470276
0.000470276
-0.000470276
0.000470276
-0.000470276
0.000470276
-0.000470276
0.000470276
-0.000470276
0.000470276
-0.000470276
0.000470276
-0.000470276
0.000470276
-0.000470276
0.000470276
-0.000470276
0.000470276
-0.000470276
0.000470276
-0.000470276
0.000470276
-0.000470276
0.000470276
-0.000470276
0.000470276
-0.000470276
0.000470276
-0.000470276
0.000470276
-0.00047028
0.000470248
-0.00047046
0.000469267
-0.000474814
0.000454132
-0.000513193
0.000394187
-0.000533456
0.000502343
-0.00045452
0.000104009
-0.000913426
0.000983826
-0.00024924
-0.000983795
0.000165621
0.000956061
-0.00266027
0.00248982
-0.0027291
0.00144448
-0.00160639
-0.151933
-0.151933
1
1.08765
1.1432
1.1249
1.1395
1.11203
1.09191
1.11015
1.06024
1.05221
1.06605
1.01345
0.967981
0.942285
0.815178
0.570977
0.319069
0.146733
0.0565366
0.0192624
0.00536837
0.00170728
0.000109789
0.000311148
-0.00022249
0.000239583
-0.000236548
0.000237047
-0.000236971
0.000236982
-0.00023698
0.00023698
-0.00023698
0.00023698
-0.00023698
0.00023698
-0.00023698
0.00023698
-0.00023698
0.00023698
-0.00023698
0.00023698
-0.00023698
0.00023698
-0.00023698
0.00023698
-0.00023698
0.00023698
-0.00023698
0.00023698
-0.00023698
0.00023698
-0.00023698
0.00023698
-0.00023698
0.00023698
-0.00023698
0.00023698
-0.00023698
0.00023698
-0.00023698
0.00023698
-0.00023698
0.00023698
-0.00023698
0.00023698
-0.00023698
0.00023698
-0.00023698
0.00023698
-0.00023698
0.00023698
-0.00023698
0.00023698
-0.000236981
0.000236976
-0.000237013
0.00023677
-0.000238115
0.00023199
-0.00025429
0.000192401
-0.000312421
0.000181073
-0.000198446
0.000233916
-0.000626561
-0.000145466
0.000326341
0.000307032
-0.00164549
0.00107725
-6.66164e-05
-0.00171867
0.00181467
-0.0022421
0.00124438
-0.000146139
0.153899
0.153899
1
1.07974
1.13744
1.12579
1.13802
1.11821
1.09054
1.11059
1.06243
1.04797
1.06197
1.0164
0.965511
0.938819
0.818298
0.583455
0.330703
0.155541
0.0599389
0.0215688
0.00527235
0.00253595
-0.000506566
0.000982102
-0.00088084
0.00090057
-0.000897031
0.000897619
-0.000897528
0.000897541
-0.000897539
0.000897539
-0.000897539
0.000897539
-0.000897539
0.000897539
-0.000897539
0.000897539
-0.000897539
0.000897539
-0.000897539
0.000897539
-0.000897539
0.000897539
-0.000897539
0.000897539
-0.000897539
0.000897539
-0.000897539
0.000897539
-0.000897539
0.000897539
-0.000897539
0.000897539
-0.000897539
0.000897539
-0.000897539
0.000897539
-0.000897539
0.000897539
-0.000897539
0.000897539
-0.000897539
0.000897539
-0.000897539
0.000897539
-0.000897539
0.000897539
-0.000897539
0.000897539
-0.000897539
0.000897539
-0.000897539
0.000897539
-0.00089754
0.000897534
-0.000897577
0.000897299
-0.000898808
0.000892078
-0.000916003
0.000851491
-0.000971799
0.000849176
-0.000854073
0.000874145
-0.00130469
0.000580888
-0.000301158
0.000817394
-0.0022257
0.00190256
-0.00103764
-0.000773402
0.00109965
-0.00170651
0.000979741
-0.00133067
-0.152226
-0.152226
1
1.07138
1.12833
1.12274
1.1321
1.1201
1.08668
1.10787
1.06311
1.04343
1.05702
1.01893
0.963944
0.935485
0.820485
0.594761
0.341923
0.164231
0.063498
0.0238705
0.00528414
0.00330405
-0.00104518
0.00158058
-0.00146531
0.00148801
-0.0014839
0.00148459
-0.00148448
0.00148449
-0.00148449
0.00148449
-0.00148449
0.00148449
-0.00148449
0.00148449
-0.00148449
0.00148449
-0.00148449
0.00148449
-0.00148449
0.00148449
-0.00148449
0.00148449
-0.00148449
0.00148449
-0.00148449
0.00148449
-0.00148449
0.00148449
-0.00148449
0.00148449
-0.00148449
0.00148449
-0.00148449
0.00148449
-0.00148449
0.00148449
-0.00148449
0.00148449
-0.00148449
0.00148449
-0.00148449
0.00148449
-0.00148449
0.00148449
-0.00148449
0.00148449
-0.00148449
0.00148449
-0.00148449
0.00148449
-0.00148449
0.00148449
-0.00148449
0.00148449
-0.00148454
0.00148422
-0.0014859
0.00147854
-0.00150409
0.00143719
-0.00155706
0.00144381
-0.00143772
0.00143974
-0.00190317
0.0012368
-0.000872041
0.00125956
-0.00270227
0.00261095
-0.0019187
0.000133712
0.000379886
-0.00114983
0.000691381
0.000160204
0.153624
0.153624
1
1.06319
1.11736
1.11726
1.12343
1.119
1.0816
1.10313
1.06292
1.03906
1.0516
1.02102
0.963231
0.932382
0.821917
0.604911
0.352714
0.172749
0.0672199
0.0261426
0.00542438
0.00399096
-0.00148494
0.00208572
-0.00195495
0.00198097
-0.00197621
0.00197702
-0.00197689
0.00197691
-0.00197691
0.00197691
-0.00197691
0.00197691
-0.00197691
0.00197691
-0.00197691
0.00197691
-0.00197691
0.00197691
-0.00197691
0.00197691
-0.00197691
0.00197691
-0.00197691
0.00197691
-0.00197691
0.00197691
-0.00197691
0.00197691
-0.00197691
0.00197691
-0.00197691
0.00197691
-0.00197691
0.00197691
-0.00197691
0.00197691
-0.00197691
0.00197691
-0.00197691
0.00197691
-0.00197691
0.00197691
-0.00197691
0.00197691
-0.00197691
0.00197691
-0.00197691
0.00197691
-0.00197691
0.00197691
-0.00197691
0.00197691
-0.00197691
0.0019769
-0.00197696
0.0019766
-0.00197847
0.00197046
-0.0019976
0.00192857
-0.00204728
0.00194389
-0.0019285
0.00191027
-0.00240094
0.00179946
-0.00136505
0.00161674
-0.00305973
0.00317998
-0.00267901
0.000966539
-0.000312261
-0.00059813
0.000374502
-0.00100649
-0.152483
-0.152483
1
1.05559
1.10565
1.11046
1.11334
1.11586
1.07613
1.09712
1.06221
1.03512
1.04601
1.02263
0.963282
0.929576
0.822754
0.613939
0.363066
0.181047
0.0711035
0.0283663
0.00570695
0.00458247
-0.00181125
0.00248318
-0.00233533
0.00236506
-0.00235956
0.0023605
-0.00236035
0.00236037
-0.00236037
0.00236037
-0.00236037
0.00236037
-0.00236037
0.00236037
-0.00236037
0.00236037
-0.00236037
0.00236037
-0.00236037
0.00236037
-0.00236037
0.00236037
-0.00236037
0.00236037
-0.00236037
0.00236037
-0.00236037
0.00236037
-0.00236037
0.00236037
-0.00236037
0.00236037
-0.00236037
0.00236037
-0.00236037
0.00236037
-0.00236037
0.00236037
-0.00236037
0.00236037
-0.00236037
0.00236037
-0.00236037
0.00236037
-0.00236037
0.00236037
-0.00236037
0.00236037
-0.00236037
0.00236037
-0.00236037
0.00236037
-0.00236037
0.00236036
-0.00236043
0.00236003
-0.0023621
0.00235342
-0.00238212
0.00231126
-0.00242811
0.0023349
-0.00231199
0.00227184
-0.0027836
0.00225265
-0.0017649
0.00187803
-0.00328959
0.00359575
-0.00329613
0.00169598
-0.000948791
-7.43816e-05
6.87348e-05
0.000488455
0.153385
0.153385
1
1.04876
1.09396
1.10309
1.10276
1.11135
1.07077
1.09039
1.06114
1.03169
1.04041
1.02372
0.963987
0.927115
0.82314
0.621894
0.372965
0.189088
0.0751409
0.0305288
0.00613884
0.00507095
-0.00201617
0.00276526
-0.00259863
0.00263249
-0.00262616
0.00262725
-0.00262708
0.00262711
-0.0026271
0.0026271
-0.0026271
0.0026271
-0.0026271
0.0026271
-0.0026271
0.0026271
-0.0026271
0.0026271
-0.0026271
0.0026271
-0.0026271
0.0026271
-0.0026271
0.0026271
-0.0026271
0.0026271
-0.0026271
0.0026271
-0.0026271
0.0026271
-0.0026271
0.0026271
-0.0026271
0.0026271
-0.0026271
0.0026271
-0.0026271
0.0026271
-0.0026271
0.0026271
-0.0026271
0.0026271
-0.0026271
0.0026271
-0.0026271
0.0026271
-0.0026271
0.0026271
-0.0026271
0.0026271
-0.0026271
0.0026271
-0.0026271
0.00262709
-0.00262717
0.00262671
-0.002629
0.00261964
-0.00264986
0.00257745
-0.00269179
0.0026089
-0.00258037
0.00251716
-0.00304356
0.00258692
-0.00206247
0.00203851
-0.00339019
0.00385269
-0.00375633
0.00230072
-0.00150714
0.000401983
-0.000233837
-0.000687561
-0.152705
-0.152705
1
1.04278
1.08279
1.09566
1.09234
1.10594
1.0658
1.08329
1.05977
1.02878
1.03496
1.02427
0.965227
0.925024
0.823201
0.628835
0.382401
0.196844
0.0793177
0.0326235
0.00672055
0.005455
-0.00209807
0.00293055
-0.00274335
0.00278179
-0.00277454
0.0027758
-0.0027756
0.00277563
-0.00277563
0.00277563
-0.00277563
0.00277563
-0.00277563
0.00277563
-0.00277563
0.00277563
-0.00277563
0.00277563
-0.00277563
0.00277563
-0.00277563
0.00277563
-0.00277563
0.00277563
-0.00277563
0.00277563
-0.00277563
0.00277563
-0.00277563
0.00277563
-0.00277563
0.00277563
-0.00277563
0.00277563
-0.00277563
0.00277563
-0.00277563
0.00277563
-0.00277563
0.00277563
-0.00277563
0.00277563
-0.00277563
0.00277563
-0.00277563
0.00277563
-0.00277563
0.00277563
-0.00277563
0.00277563
-0.00277563
0.00277563
-0.00277563
0.00277562
-0.0027757
0.00277519
-0.0027777
0.00276765
-0.00279932
0.00272571
-0.0028369
0.00276432
-0.00273209
0.00264522
-0.00317967
0.0027993
-0.00225458
0.00209881
-0.0033661
0.00395299
-0.00405428
0.00276742
-0.00197076
0.000815992
-0.000498046
0.000785672
0.153182
0.153182
1
1.03765
1.07246
1.08844
1.0825
1.09992
1.06136
1.07609
1.05813
1.02636
1.02977
1.02429
0.966886
0.923317
0.823045
0.634833
0.391363
0.204292
0.083614
0.0346487
0.00744664
0.00573881
-0.00206103
0.00298332
-0.00277369
0.00281718
-0.00280889
0.00281035