# vtk DataFile Version 2.0
FlowField
ASCII
DATASET STRUCTURED_GRID
DIMENSIONS 100 1 100
POINTS 10000 float
0 0 0
0.01 0 0
0.02 0 0
0.03 0 0
0.04 0 0
0.05 0 0
0.06 0 0
0.07 0 0
0.08 0 0
0.09 0 0
0.1 0 0
0.11 0 0
0.12 0 0
0.13 0 0
0.14 0 0
0.15 0 0
0.16 0 0
0.17 0 0
0.18 0 0
0.19 0 0
0.2 0 0
0.21 0 0
0.22 0 0
0.23 0 0
0.24 0 0
0.25 0 0
0.26 0 0
0.27 0 0
0.28 0 0
0.29 0 0
0.3 0 0
0.31 0 0
0.32 0 0
0.33 0 0
0.34 0 0
0.35 0 0
0.36 0 0
0.37 0 0
0.38 0 0
0.39 0 0
0.4 0 0
0.41 0 0
0.42 0 0
0.43 0 0
0.44 0 0
0.45 0 0
0.46 0 0
0.47 0 0
0.48 0 0
0.49 0 0
0.5 0 0
0.51 0 0
0.52 0 0
0.53 0 0
0.54 0 0
0.55 0 0
0.56 0 0
0.57 0 0
0.58 0 0
0.59 0 0
0.6 0 0
0.61 0 0
0.62 0 0
0.63 0 0
0.64 0 0
0.65 0 0
0.66 0 0
0.67 0 0
0.68 0 0
0.69 0 0
0.7 0 0
0.71 0 0
0.72 0 0
0.73 0 0
0.74 0 0
0.75 0 0
0.76 0 0
0.77 0 0
0.78 0 0
0.79 0 0
0.8 0 0
0.81 0 0
0.82 0 0
0.83 0 0
0.84 0 0
0.85 0 0
0.86 0 0
0.87 0 0
0.88 0 0
0.89 0 0
0.9 0 0
0.91 0 0
0.92 0 0
0.93 0 0
0.94 0 0
0.95 0 0
0.96 0 0
0.97 0 0
0.98 0 0
0.99 0 0
0 0.001 0
0.01 0.001 0
0.02 0.001 0
0.03 0.001 0
0.04 0.001 0
0.05 0.001 0
0.06 0.001 0
0.07 0.001 0
0.08 0.001 0
0.09 0.001 0
0.1 0.001 0
0.11 0.001 0
0.12 0.001 0
0.13 0.001 0
0.14 0.001 0
0.15 0.001 0
0.16 0.001 0
0.17 0.001 0
0.18 0.001 0
0.19 0.001 0
0.2 0.001 0
0.21 0.001 0
0.22 0.001 0
0.23 0.001 0
0.24 0.001 0
0.25 0.001 0
0.26 0.001 0
0.27 0.001 0
0.28 0.001 0
0.29 0.001 0
0.3 0.001 0
0.31 0.001 0
0.32 0.001 0
0.33 0.001 0
0.34 0.001 0
0.35 0.001 0
0.36 0.001 0
0.37 0.001 0
0.38 0.001 0
0.39 0.001 0
0.4 0.001 0
0.41 0.001 0
0.42 0.001 0
0.43 0.001 0
0.44 0.001 0
0.45 0.001 0
0.46 0.001 0
0.47 0.001 0
0.48 0.001 0
0.49 0.001 0
0.5 0.001 0
0.51 0.001 0
0.52 0.001 0
0.53 0.001 0
0.54 0.001 0
0.55 0.001 0
0.56 0.001 0
0.57 0.001 0
0.58 0.001 0
0.59 0.001 0
0.6 0.001 0
0.61 0.001 0
0.62 0.001 0
0.63 0.001 0
0.64 0.001 0
0.65 0.001 0
0.66 0.001 0
0.67 0.001 0
0.68 0.001 0
0.69 0.001 0
0.7 0.001 0
0.71 0.001 0
0.72 0.001 0
0.73 0.001 0
0.74 0.001 0
0.75 0.001 0
0.76 0.001 0
0.77 0.001 0
0.78 0.001 0
0.79 0.001 0
0.8 0.001 0
0.81 0.001 0
0.82 0.001 0
0.83 0.001 0
0.84 0.001 0
0.85 0.001 0
0.86 0.001 0
0.87 0.001 0
0.88 0.001 0
0.89 0.001 0
0.9 0.001 0
0.91 0.001 0
0.92 0.001 0
0.93 0.001 0
0.94 0.001 0
0.95 0.001 0
0.96 0.001 0
0.97 0.001 0
0.98 0.001 0
0.99 0.001 0
0 0.002 0
0.01 0.002 0
0.02 0.002 0
0.03 0.002 0
0.04 0.002 0
0.05 0.002 0
0.06 0.002 0
0.07 0.002 0
0.08 0.002 0
0.09 0.002 0
0.1 0.002 0
0.11 0.002 0
0.12 0.002 0
0.13 0.002 0
0.14 0.002 0
0.15 0.002 0
0.16 0.002 0
0.17 0.002 0
0.18 0.002 0
0.19 0.002 0
0.2 0.002 0
0.21 0.002 0
0.22 0.002 0
0.23 0.002 0
0.24 0.002 0
0.25 0.002 0
0.26 0.002 0
0.27 0.002 0
0.28 0.002 0
0.29 0.002 0
0.3 0.002 0
0.31 0.002 0
0.32 0.002 0
0.33 0.002 0
0.34 0.002 0
0.35 0.002 0
0.36 0.002 0
0.37 0.002 0
0.38 0.002 0
0.39 0.002 0
0.4 0.002 0
0.41 0.002 0
0.42 0.002 0
0.43 0.002 0
0.44 0.002 0
0.45 0.002 0
0.46 0.002 0
0.47 0.002 0
0.48 0.002 0
0.49 0.002 0
0.5 0.002 0
0.51 0.002 0
0.52 0.002 0
0.53 0.002 0
0.54 0.002 0
0.55 0.002 0
0.56 0.002 0
0.57 0.002 0
0.58 0.002 0
0.59 0.002 0
0.6 0.002 0
0.61 0.002 0
0.62 0.002 0
0.63 0.002 0
0.64 0.002 0
0.65 0.002 0
0.66 0.002 0
0.67 0.002 0
0.68 0.002 0
0.69 0.002 0
0.7 0.002 0
0.71 0.002 0
0.72 0.002 0
0.73 0.002 0
0.74 0.002 0
0.75 0.002 0
0.76 0.002 0
0.77 0.002 0
0.78 0.002 0
0.79 0.002 0
0.8 0.002 0
0.81 0.002 0
0.82 0.002 0
0.83 0.002 0
0.84 0.002 0
0.85 0.002 0
0.86 0.002 0
0.87 0.002 0
0.88 0.002 0
0.89 0.002 0
0.9 0.002 0
0.91 0.002 0
0.92 0.002 0
0.93 0.002 0
0.94 0.002 0
0.95 0.002 0
0.96 0.002 0
0.97 0.002 0
0.98 0.002 0
0.99 0.002 0
0 0.003 0
0.01 0.003 0
0.02 0.003 0
0.03 0.003 0
0.04 0.003 0
0.05 0.003 0
0.06 0.003 0
0.07 0.003 0
0.08 0.003 0
0.09 0.003 0
0.1 0.003 0
0.11 0.003 0
0.12 0.003 0
0.13 0.003 0
0.14 0.003 0
0.15 0.003 0
0.16 0.003 0
0.17 0.003 0
0.18 0.003 0
0.19 0.003 0
0.2 0.003 0
0.21 0.003 0
0.22 0.003 0
0.23 0.003 0
0.24 0.003 0
0.25 0.003 0
0.26 0.003 0
0.27 0.003 0
0.28 0.003 0
0.29 0.003 0
0.3 0.003 0
0.31 0.003 0
0.32 0.003 0
0.33 0.003 0
0.34 0.003 0
0.35 0.003 0
0.36 0.003 0
0.37 0.003 0
0.38 0.003 0
0.39 0.003 0
0.4 0.003 0
0.41 0.003 0
0.42 0.003 0
0.43 0.003 0
0.44 0.003 0
0.45 0.003 0
0.46 0.003 0
0.47 0.003 0
0.48 0.003 0
0.49 0.003 0
0.5 0.003 0
0.51 0.003 0
0.52 0.003 0
0.53 0.003 0
0.54 0.003 0
0.55 0.003 0
0.56 0.003 0
0.57 0.003 0
0.58 0.003 0
0.59 0.003 0
0.6 0.003 0
0.61 0.003 0
0.62 0.003 0
0.63 0.003 0
0.64 0.003 0
0.65 0.003 0
0.66 0.003 0
0.67 0.003 0
0.68 0.003 0
0.69 0.003 0
0.7 0.003 0
0.71 0.003 0
0.72 0.003 0
0.73 0.003 0
0.74 0.003 0
0.75 0.003 0
0.76 0.003 0
0.77 0.003 0
0.78 0.003 0
0.79 0.003 0
0.8 0.003 0
0.81 0.003 0
0.82 0.003 0
0.83 0.003 0
0.84 0.003 0
0.85 0.003 0
0.86 0.003 0
0.87 0.003 0
0.88 0.003 0
0.89 0.003 0
0.9 0.003 0
0.91 0.003 0
0.92 0.003 0
0.93 0.003 0
0.94 0.003 0
0.95 0.003 0
0.96 0.003 0
0.97 0.003 0
0.98 0.003 0
0.99 0.003 0
0 0.004 0
0.01 0.004 0
0.02 0.004 0
0.03 0.004 0
0.04 0.004 0
0.05 0.004 0
0.06 0.004 0
0.07 0.004 0
0.08 0.004 0
0.09 0.004 0
0.1 0.004 0
0.11 0.004 0
0.12 0.004 0
0.13 0.004 0
0.14 0.004 0
0.15 0.004 0
0.16 0.004 0
0.17 0.004 0
0.18 0.004 0
0.19 0.004 0
0.2 0.004 0
0.21 0.004 0
0.22 0.004 0
0.23 0.004 0
0.24 0.004 0
0.25 0.004 0
0.26 0.004 0
0.27 0.004 0
0.28 0.004 0
0.29 0.004 0
0.3 0.004 0
0.31 0.004 0
0.32 0.004 0
0.33 0.004 0
0.34 0.004 0
0.35 0.004 0
0.36 0.004 0
0.37 0.004 0
0.38 0.004 0
0.39 0.004 0
0.4 0.004 0
0.41 0.004 0
0.42 0.004 0
0.43 0.004 0
0.44 0.004 0
0.45 0.004 0
0.46 0.004 0
0.47 0.004 0
0.48 0.004 0
0.49 0.004 0
0.5 0.004 0
0.51 0.004 0
0.52 0.004 0
0.53 0.004 0
0.54 0.004 0
0.55 0.004 0
0.56 0.004 0
0.57 0.004 0
0.58 0.004 0
0.59 0.004 0
0.6 0.004 0
0.61 0.004 0
0.62 0.004 0
0.63 0.004 0
0.64 0.004 0
0.65 0.004 0
0.66 0.004 0
0.67 0.004 0
0.68 0.004 0
0.69 0.004 0
0.7 0.004 0
0.71 0.004 0
0.72 0.004 0
0.73 0.004 0
0.74 0.004 0
0.75 0.004 0
0.76 0.004 0
0.77 0.004 0
0.78 0.004 0
0.79 0.004 0
0.8 0.004 0
0.81 0.004 0
0.82 0.004 0
0.83 0.004 0
0.84 0.004 0
0.85 0.004 0
0.86 0.004 0
0.87 0.004 0
0.88 0.004 0
0.89 0.004 0
0.9 0.004 0
0.91 0.004 0
0.92 0.004 0
0.93 0.004 0
0.94 0.004 0
0.95 0.004 0
0.96 0.004 0
0.97 0.004 0
0.98 0.004 0
0.99 0.004 0
0 0.005 0
0.01 0.005 0
0.02 0.005 0
0.03 0.005 0
0.04 0.005 0
0.05 0.005 0
0.06 0.005 0
0.07 0.005 0
0.08 0.005 0
0.09 0.005 0
0.1 0.005 0
0.11 0.005 0
0.12 0.005 0
0.13 0.005 0
0.14 0.005 0
0.15 0.005 0
0.16 0.005 0
0.17 0.005 0
0.18 0.005 0
0.19 0.005 0
0.2 0.005 0
0.21 0.005 0
0.22 0.005 0
0.23 0.005 0
0.24 0.005 0
0.25 0.005 0
0.26 0.005 0
0.27 0.005 0
0.28 0.005 0
0.29 0.005 0
0.3 0.005 0
0.31 0.005 0
0.32 0.005 0
0.33 0.005 0
0.34 0.005 0
0.35 0.005 0
0.36 0.005 0
0.37 0.005 0
0.38 0.005 0
0.39 0.005 0
0.4 0.005 0
0.41 0.005 0
0.42 0.005 0
0.43 0.005 0
0.44 0.005 0
0.45 0.005 0
0.46 0.005 0
0.47 0.005 0
0.48 0.005 0
0.49 0.005 0
0.5 0.005 0
0.51 0.005 0
0.52 0.005 0
0.53 0.005 0
0.54 0.005 0
0.55 0.005 0
0.56 0.005 0
0.57 0.005 0
0.58 0.005 0
0.59 0.005 0
0.6 0.005 0
0.61 0.005 0
0.62 0.005 0
0.63 0.005 0
0.64 0.005 0
0.65 0.005 0
0.66 0.005 0
0.67 0.005 0
0.68 0.005 0
0.69 0.005 0
0.7 0.005 0
0.71 0.005 0
0.72 0.005 0
0.73 0.005 0
0.74 0.005 0
0.75 0.005 0
0.76 0.005 0
0.77 0.005 0
0.78 0.005 0
0.79 0.005 0
0.8 0.005 0
0.81 0.005 0
0.82 0.005 0
0.83 0.005 0
0.84 0.005 0
0.85 0.005 0
0.86 0.005 0
0.87 0.005 0
0.88 0.005 0
0.89 0.005 0
0.9 0.005 0
0.91 0.005 0
0.92 0.005 0
0.93 0.005 0
0.94 0.005 0
0.95 0.005 0
0.96 0.005 0
0.97 0.005 0
0.98 0.005 0
0.99 0.005 0
0 0.006 0
0.01 0.006 0
0.02 0.006 0
0.03 0.006 0
0.04 0.006 0
0.05 0.006 0
0.06 0.006 0
0.07 0.006 0
0.08 0.006 0
0.09 0.006 0
0.1 0.006 0
0.11 0.006 0
0.12 0.006 0
0.13 0.006 0
0.14 0.006 0
0.15 0.006 0
0.16 0.006 0
0.17 0.006 0
0.18 0.006 0
0.19 0.006 0
0.2 0.006 0
0.21 0.006 0
0.22 0.006 0
0.23 0.006 0
0.24 0.006 0
0.25 0.006 0
0.26 0.006 0
0.27 0.006 0
0.28 0.006 0
0.29 0.006 0
0.3 0.006 0
0.31 0.006 0
0.32 0.006 0
0.33 0.006 0
0.34 0.006 0
0.35 0.006 0
0.36 0.006 0
0.37 0.006 0
0.38 0.006 0
0.39 0.006 0
0.4 0.006 0
0.41 0.006 0
0.42 0.006 0
0.43 0.006 0
0.44 0.006 0
0.45 0.006 0
0.46 0.006 0
0.47 0.006 0
0.48 0.006 0
0.49 0.006 0
0.5 0.006 0
0.51 0.006 0
0.52 0.006 0
0.53 0.006 0
0.54 0.006 0
0.55 0.006 0
0.56 0.006 0
0.57 0.006 0
0.58 0.006 0
0.59 0.006 0
0.6 0.006 0
0.61 0.006 0
0.62 0.006 0
0.63 0.006 0
0.64 0.006 0
0.65 0.006 0
0.66 0.006 0
0.67 0.006 0
0.68 0.006 0
0.69 0.006 0
0.7 0.006 0
0.71 0.006 0
0.72 0.006 0
0.73 0.006 0
0.74 0.006 0
0.75 0.006 0
0.76 0.006 0
0.77 0.006 0
0.78 0.006 0
0.79 0.006 0
0.8 0.006 0
0.81 0.006 0
0.82 0.006 0
0.83 0.006 0
0.84 0.006 0
0.85 0.006 0
0.86 0.006 0
0.87 0.006 0
0.88 0.006 0
0.89 0.006 0
0.9 0.006 0
0.91 0.006 0
0.92 0.006 0
0.93 0.006 0
0.94 0.006 0
0.95 0.006 0
0.96 0.006 0
0.97 0.006 0
0.98 0.006 0
0.99 0.006 0
0 0.007 0
0.01 0.007 0
0.02 0.007 0
0.03 0.007 0
0.04 0.007 0
0.05 0.007 0
0.06 0.007 0
0.07 0.007 0
0.08 0.007 0
0.09 0.007 0
0.1 0.007 0
0.11 0.007 0
0.12 0.007 0
0.13 0.007 0
0.14 0.007 0
0.15 0.007 0
0.16 0.007 0
0.17 0.007 0
0.18 0.007 0
0.19 0.007 0
0.2 0.007 0
0.21 0.007 0
0.22 0.007 0
0.23 0.007 0
0.24 0.007 0
0.25 0.007 0
0.26 0.007 0
0.27 0.007 0
0.28 0.007 0
0.29 0.007 0
0.3 0.007 0
0.31 0.007 0
0.32 0.007 0
0.33 0.007 0
0.34 0.007 0
0.35 0.007 0
0.36 0.007 0
0.37 0.007 0
0.38 0.007 0
0.39 0.007 0
0.4 0.007 0
0.41 0.007 0
0.42 0.007 0
0.43 0.007 0
0.44 0.007 0
0.45 0.007 0
0.46 0.007 0
0.47 0.007 0
0.48 0.007 0
0.49 0.007 0
0.5 0.007 0
0.51 0.007 0
0.52 0.007 0
0.53 0.007 0
0.54 0.007 0
0.55 0.007 0
0.56 0.007 0
0.57 0.007 0
0.58 0.007 0
0.59 0.007 0
0.6 0.007 0
0.61 0.007 0
0.62 0.007 0
0.63 0.007 0
0.64 0.007 0
0.65 0.007 0
0.66 0.007 0
0.67 0.007 0
0.68 0.007 0
0.69 0.007 0
0.7 0.007 0
0.71 0.007 0
0.72 0.007 0
0.73 0.007 0
0.74 0.007 0
0.75 0.007 0
0.76 0.007 0
0.77 0.007 0
0.78 0.007 0
0.79 0.007 0
0.8 0.007 0
0.81 0.007 0
0.82 0.007 0
0.83 0.007 0
0.84 0.007 0
0.85 0.007 0
0.86 0.007 0
0.87 0.007 0
0.88 0.007 0
0.89 0.007 0
0.9 0.007 0
0.91 0.007 0
0.92 0.007 0
0.93 0.007 0
0.94 0.007 0
0.95 0.007 0
0.96 0.007 0
0.97 0.007 0
0.98 0.007 0
[...]
POINT_DATA 10000

SCALARS vel_X float 1
LOOKUP_TABLE default
0
0
0
0
0
0
0
0
0
0
0
0
0
0
0
0
0
0
0
0
0
0
0
0
0
0
0
0
0
0
0
0
0
0
0
0
0
0
0
0
0
0
0
0
0
0
0
0
0
0
0
0
0
0
0
0
0
0
0
0
0
0
0
0
0
0
0
0
0
0
0
0
0
0
0
0
0
0
0
0
0
0
0
0
0
0
0
0
0
0
0
0
0
0
0
0
0
0
0
0
1
0.329587
0.186867
0.171624
0.102647
0.15359
0.0762568
0.130277
0.0977597
0.0849791
0.121636
0.0902146
0.0904458
0.136538
0.0720355
0.125851
0.150753
0.134282
0.135348
0.201259
0.168901
0.170216
0.196939
0.251926
0.22871
0.251124
0.281396
0.337632
0.296775
0.236768
0.13246
0.0834831
0.0263118
0.0233022
-0.00306141
0.0105946
-0.00801668
0.00883247
-0.00859249
0.00865838
-0.00864143
0.00864553
-0.00864459
0.0086448
-0.00864476
0.00864476
-0.00864476
0.00864476
-0.00864476
0.00864476
-0.00864476
0.00864476
-0.00864476
0.00864476
-0.00864476
0.00864476
-0.00864476
0.00864476
-0.00864476
0.00864476
-0.00864476
0.00864476
-0.0086448
0.00864461
-0.00864534
0.00864284
-0.00865018
0.00863229
-0.00866665
0.0086199
-0.00865157
0.00867088
-0.00863385
0.00853396
-0.00882829
0.00874894
-0.00819261
0.00851491
-0.00961989
0.00893674
-0.0071415
0.00728432
-0.010134
0.0117216
-0.00979914
0.00590261
-0.00392053
0.00504443
-0.0093329
0.0132132
-0.0154268
0.0151648
-0.0140518
0.011512
-0.00920433
0.00619014
-0.00451023
-0.00122919
-0.207542
-0.207542
1
0.571269
0.362362
0.320112
0.22248
0.281673
0.176029
0.249107
0.197954
0.189226
0.232613
0.191959
0.199131
0.257343
0.175562
0.258134
0.288754
0.271725
0.283024
0.373309
0.328863
0.341081
0.385695
0.461585
0.431125
0.46845
0.509466
0.570007
0.484665
0.372749
0.207227
0.126746
0.0412028
0.034085
-0.00355814
0.0148665
-0.0110114
0.0122278
-0.0118708
0.0119686
-0.0119435
0.0119496
-0.0119482
0.0119485
-0.0119484
0.0119484
-0.0119484
0.0119484
-0.0119484
0.0119484
-0.0119484
0.0119484
-0.0119484
0.0119484
-0.0119484
0.0119484
-0.0119484
0.0119484
-0.0119484
0.0119484
-0.0119484
0.0119484
-0.0119485
0.0119482
-0.0119493
0.0119456
-0.0119566
0.0119294
-0.0119826
0.0119075
-0.0119657
0.0119802
-0.0119313
0.0117935
-0.0122291
0.0120504
-0.0113101
0.0118513
-0.0133188
0.0121681
-0.00983612
0.0103221
-0.0142454
0.0159472
-0.0130479
0.00790912
-0.00582265
0.0077014
-0.0135831
0.0183464
-0.0209228
0.0200207
-0.0183418
0.014658
-0.0117519
0.00763367
-0.00578371
0.00171429
0.298105
0.298105
1
0.744824
0.517232
0.45508
0.344151
0.394979
0.288571
0.352577
0.307705
0.292928
0.339046
0.300399
0.309042
0.370637
0.294654
0.377679
0.418329
0.405664
0.423759
0.518541
0.481923
0.497039
0.550448
0.629973
0.603877
0.638316
0.674827
0.714513
0.59955
0.44866
0.253358
0.148968
0.0529391
0.0375416
-0.000831601
0.0144504
-0.0097988
0.01127
-0.0108372
0.0109562
-0.0109255
0.0109329
-0.0109312
0.0109316
-0.0109315
0.0109315
-0.0109315
0.0109315
-0.0109315
0.0109315
-0.0109315
0.0109315
-0.0109315
0.0109315
-0.0109315
0.0109315
-0.0109315
0.0109315
-0.0109315
0.0109315
-0.0109315
0.0109315
-0.0109316
0.0109313
-0.0109326
0.0109281
-0.0109413
0.0109088
-0.0109724
0.0108817
-0.0109559
0.010961
-0.0109195
0.0107526
-0.0112476
0.0110342
-0.0102533
0.0108122
-0.0123914
0.011172
-0.00876674
0.00917283
-0.0132302
0.0150224
-0.0122561
0.00699714
-0.00480506
0.00630503
-0.0121528
0.0169231
-0.0199214
0.0191252
-0.0178309
0.0141485
-0.011638
0.00736437
-0.00591969
-0.000259236
-0.261732
-0.261732
1
0.867135
0.64867
0.578689
0.459527
0.499757
0.402073
0.445832
0.420086
0.390723
0.441698
0.408099
0.41311
0.47841
0.41353
0.482179
0.537803
0.529259
0.548585
0.641855
0.62114
0.630333
0.68513
0.761476
0.741782
0.760356
0.783731
0.797715
0.668377
0.492189
0.284665
0.161809
0.0631837
0.0381255
0.00318607
0.0122214
-0.00693037
0.00861315
-0.00811533
0.00825292
-0.00821727
0.00822597
-0.00822397
0.0082244
-0.00822431
0.00822433
-0.00822433
0.00822433
-0.00822433
0.00822433
-0.00822433
0.00822433
-0.00822433
0.00822433
-0.00822433
0.00822433
-0.00822433
0.00822433
-0.00822433
0.00822433
-0.00822433
0.00822431
-0.0082244
0.00822401
-0.00822551
0.00822041
-0.00823529
0.00819918
-0.00826894
0.00817045
-0.00825144
0.00825007
-0.00822473
0.00802437
-0.0085433
0.00835352
-0.00756495
0.00800657
-0.00965968
0.0086304
-0.00623388
0.00621829
-0.0100863
0.012241
-0.010181
0.00506558
-0.00243125
0.00290207
-0.00811266
0.0128498
-0.0166207
0.016488
-0.016048
0.0128343
-0.0109983
0.00685297
-0.00581889
0.00238537
0.276494
0.276494
1
0.951574
0.757611
0.689531
0.566127
0.596497
0.510477
0.531714
0.527787
0.482108
0.53817
0.509577
0.508863
0.578104
0.523807
0.572822
0.643714
0.637986
0.65509
0.745004
0.740643
0.738694
0.789903
0.859946
0.844628
0.841704
0.849809
0.842154
0.709778
0.519128
0.30825
0.170944
0.072474
0.0379936
0.00739568
0.00965879
-0.0037595
0.00564911
-0.00508622
0.00524285
-0.005202
0.00521202
-0.0052097
0.00521021
-0.0052101
0.00521013
-0.00521012
0.00521012
-0.00521012
0.00521012
-0.00521012
0.00521012
-0.00521012
0.00521012
-0.00521012
0.00521012
-0.00521012
0.00521012
-0.00521012
0.00521012
-0.00521013
0.00521011
-0.00521021
0.00520977
-0.00521146
0.00520577
-0.0052221
0.00518313
-0.005257
0.00515504
-0.00523666
0.00523309
-0.00522636
0.00498895
-0.00551653
0.00538517
-0.00458866
0.00485095
-0.00658627
0.00585996
-0.00346311
0.00288374
-0.00647865
0.00914051
-0.00795994
0.00302345
0.000186012
-0.000911922
-0.00348316
0.00820089
-0.012858
0.0135867
-0.0140965
0.0114548
-0.0102903
0.00635029
-0.00567308
0.000202436
-0.270166
-0.270166
1
1.0085
0.846318
0.785999
0.663498
0.683614
0.611444
0.610354
0.626515
0.566904
0.625838
0.601788
0.595118
0.666588
0.62244
0.650386
0.733538
0.729821
0.743458
0.828126
0.838138
0.823142
0.867895
0.929479
0.916866
0.892267
0.887125
0.863574
0.735598
0.53761
0.327908
0.178711
0.0812657
0.0378404
0.0115356
0.00717468
-0.000649823
0.00275625
-0.002124
0.00230123
-0.00225468
0.00226618
-0.0022635
0.00226409
-0.00226396
0.00226399
-0.00226398
0.00226398
-0.00226398
0.00226398
-0.00226398
0.00226398
-0.00226398
0.00226398
-0.00226398
0.00226398
-0.00226398
0.00226398
-0.00226398
0.00226398
-0.00226399
0.00226396
-0.00226408
0.00226358
-0.00226548
0.0022592
-0.00227692
0.00223541
-0.00231232
0.00220937
-0.00228784
0.00228515
-0.00229704
0.00202241
-0.00254971
0.00249327
-0.00168858
0.00175146
-0.00356307
0.00317253
-0.000787043
-0.000368459
-0.0029054
0.00605829
-0.00576744
0.00107175
0.00263313
-0.00449294
0.00101334
0.00354827
-0.0089788
0.0105711
-0.0119964
0.00993936
-0.00940966
0.00574387
-0.00537522
0.0026327
0.273237
0.273237
1
1.04575
0.917349
0.867453
0.751455
0.759822
0.703875
0.681103
0.714283
0.644451
0.703109
0.683339
0.671037
0.742006
0.708737
0.715279
0.806394
0.804526
0.814657
0.891732
0.914212
0.886462
0.923385
0.975034
0.965114
0.921665
0.90683
0.871978
0.752757
0.551646
0.345559
0.186005
0.0898683
0.0378299
0.0156146
0.00481933
0.00236752
-2.841e-05
0.000736007
-0.000536167
0.000589038
-0.000575886
0.000578971
-0.000578286
0.00057843
-0.000578401
0.000578407
-0.000578406
0.000578406
-0.000578406
0.000578406
-0.000578406
0.000578406
-0.000578406
0.000578406
-0.000578406
0.000578406
-0.000578406
0.000578406
-0.000578407
0.000578402
-0.000578429
0.000578297
-0.000578859
0.000576749
-0.000583633
0.000564512
-0.000608421
0.000529097
-0.000631572
0.000558369
-0.000558633
0.000528418
-0.00083804
0.000319112
-0.000294214
0.0010996
-0.00123853
-0.000622155
0.000568929
0.00175879
-0.00344732
0.000562153
0.00297657
-0.00354812
-0.000791752
0.00481347
-0.00767027
0.00520983
-0.0010473
-0.00493136
0.00732263
-0.00962273
0.00817239
-0.00826724
0.00495914
-0.004933
0.000185278
-0.271459
-0.271459
1
1.06904
0.973257
0.934168
0.829773
0.824742
0.786899
0.743643
0.790312
0.713987
0.769478
0.753779
0.736182
0.803887
0.782783
0.768164
0.862799
0.86293
0.870026
0.937396
0.971077
0.932207
0.960955
1.00206
0.996021
0.937705
0.916545
0.873369
0.765002
0.563203
0.362063
0.193195
0.0984008
0.0380266
0.0196341
0.00261451
0.00527875
-0.00268841
0.00347824
-0.00325347
0.00331338
-0.00329837
0.00330191
-0.00330112
0.00330129
-0.00330126
0.00330126
-0.00330126
0.00330126
-0.00330126
0.00330126
-0.00330126
0.00330126
-0.00330126
0.00330126
-0.00330126
0.00330126
-0.00330126
0.00330126
-0.00330126
0.00330126
-0.00330129
0.00330114
-0.00330177
0.00329943
-0.00330695
0.00328641
-0.00333262
0.00325132
-0.00335236
0.00328553
-0.00328309
0.00323442
-0.00357562
0.00307344
-0.00296586
0.00375818
-0.00409512
0.00222525
-0.00194987
0.00415477
-0.00631491
0.00389783
-0.000109874
-0.00129159
-0.00256367
0.00670527
-0.0103968
0.00903674
-0.00554272
-0.000714356
0.00381281
-0.00696088
0.00615595
-0.00688198
0.00400946
-0.00432861
0.00237839
0.272665
0.272665
1
1.08245
1.0165
0.987012
0.898323
0.87874
0.859774
0.798156
0.854485
0.774984
0.825186
0.813242
0.790647
0.852664
0.844979
0.810181
0.904205
0.906466
0.911263
0.967538
1.01162
0.964044
0.985008
1.01574
1.01513
0.945968
0.920994
0.871194
0.77426
0.573252
0.377743
0.200459
0.106865
0.0384918
0.0235562
0.000607459
0.00804046
-0.00517876
0.00605833
-0.0058061
0.00587382
-0.00585673
0.0058608
-0.00585988
0.00586008
-0.00586004
0.00586005
-0.00586004
0.00586004
-0.00586004
0.00586004
-0.00586004
0.00586004
-0.00586004
0.00586004
-0.00586004
0.00586004
-0.00586004
0.00586004
-0.00586005
0.00586004
-0.00586007
0.0058599
-0.00586061
0.00585802
-0.00586622
0.00584423
-0.00589266
0.00580976
-0.00590863
0.00584872
-0.00584413
0.00577643
-0.00614531
0.00566826
-0.0054795
0.00624182
-0.00677017
0.00493503
-0.00434519
0.00635941
-0.00892225
0.00704574
-0.00315037
0.000960778
-0.00422125
0.00830108
-0.0126441
0.0124074
-0.00982608
0.00358174
9.80739e-05
-0.00406346
0.00394503
-0.00531341
0.00293838
-0.00364272
-0.000254104
-0.271767
-0.271767
1
1.08882
1.04932
1.0272
0.957164
0.922643
0.922034
0.84513
0.907182
0.827247
0.870888
0.862277
0.835034
0.889268
0.895962
0.842839
0.932606
0.936906
0.940348
0.984932
1.03883
0.985343
0.99944
1.02046
1.02656
0.950071
0.922913
0.867365
0.78151
0.582265
0.392692
0.207876
0.115224
0.0392734
0.0273392
-0.00115621
0.0106093
-0.00745498
0.00843227
-0.00814987
0.00822625
-0.00820684
0.00821149
-0.00821044
0.00821066
-0.00821062
0.00821063
-0.00821063
0.00821063
-0.00821063
0.00821063
-0.00821063
0.00821063
-0.00821063
0.00821063
-0.00821063
0.00821063
-0.00821063
0.00821063
-0.00821063
0.00821062
-0.00821066
0.00821047
-0.00821126
0.0082084
-0.00821731
0.00819384
-0.00824441
0.00816026
-0.00825638
0.00820356
-0.00819787
0.00811034
-0.00850281
0.00805879
-0.00779246
0.00850698
-0.00921745
0.00745988
-0.00657587
0.00833768
-0.0112276
0.00994534
-0.00608167
0.003163
-0.00574978
0.00961156
-0.0144036
0.0152376
-0.0137606
0.00783275
-0.00374549
-0.000980949
0.00158008
-0.00360355
0.0017762
-0.00286274
0.00180574
0.272467
0.272467
1
1.09016
1.07372
1.05618
1.00654
0.957552
0.973579
0.885149
0.949205
0.870893
0.907436
0.901742
0.870333
0.914896
0.936559
0.867804
0.950249
0.956198
0.959364
0.992303
1.05546
0.99895
1.00742
1.01953
1.03311
0.952162
0.923798
0.862912
0.787265
0.590471
0.406922
0.215468
0.123446
0.0403977
0.0309553
-0.00264738
0.0129578
-0.00948856
0.0105721
-0.0102566
0.0103425
-0.0103205
0.0103258
-0.0103246
0.0103249
-0.0103248
0.0103248
-0.0103248
0.0103248
-0.0103248
0.0103248
-0.0103248
0.0103248
-0.0103248
0.0103248
-0.0103248
0.0103248
-0.0103248
0.0103248
-0.0103248
0.0103248
-0.0103249
0.0103247
-0.0103255
0.0103224
-0.010332
0.0103071
-0.0103597
0.0102746
-0.0103675
0.0103217
-0.0103163
0.0102081
-0.0106199
0.010216
-0.00987758
0.010527
-0.0114071
0.00976648
-0.00861576
0.0100734
-0.0132077
0.0125501
-0.00885232
0.00528329
-0.00714906
0.0106654
-0.015694
0.0174715
-0.0172204
0.0119123
-0.00764534
0.00225678
-0.000929609
-0.00176223
0.000527643
-0.00203906
-0.000933589
-0.271902
-0.271902
1
1.0879
1.09136
1.07555
1.0468
0.984713
1.01468
0.918777
0.981676
0.906318
0.935733
0.9327
0.897763
0.930911
0.967704
0.88671
0.95941
0.966337
0.970293
0.992092
1.06385
1.00711
1.01133
1.01531
1.03655
0.953425
0.924409
0.858399
0.79181
0.597994
0.420412
0.223237
0.131494
0.0418824
0.0343824
-0.00384346
0.0150646
-0.0112573
0.0124559
-0.0121042
0.0122007
-0.0121759
0.0121819
-0.0121805
0.0121808
-0.0121807
0.0121808
-0.0121808
0.0121808
-0.0121808
0.0121808
-0.0121808
0.0121808
-0.0121808
0.0121808
-0.0121808
0.0121808
-0.0121808
0.0121808
-0.0121808
0.0121807
-0.0121808
0.0121806
-0.0121815
0.0121781
-0.0121885
0.0121621
-0.0122166
0.012131
-0.0122201
0.0121812
-0.0121775
0.012048
-0.0124747
0.012117
-0.0117138
0.0122822
-0.013316
0.011827
-0.0104442
0.0115573
-0.0148474
0.0148209
-0.0114164
0.00729324
-0.00841789
0.0114927
-0.0165513
0.0190815
-0.0200951
0.0156881
-0.0115171
0.00561983
-0.00358736
0.000219427
-0.000818822
-0.00112712
0.00103131
0.272385
0.272385
1
1.08312
1.10355
1.08699
1.07842
1.00541
1.04596
0.946521
1.00589
0.934171
0.956653
0.956304
0.918642
0.93879
0.990326
0.901041
0.962228
0.969262
0.974869
0.986363
1.06586
1.01147
1.01279
1.0094
1.03791
0.954477
0.925082
0.854162
0.795303
0.604931
0.433111
0.231192
0.139317
0.0437579
0.0375836
-0.00470778
0.0168941
-0.0127246
0.0140478
-0.0136566
0.0137648
-0.0137367
0.0137435
-0.013742
0.0137423
-0.0137422
0.0137422
-0.0137422
0.0137422
-0.0137422
0.0137422
-0.0137422
0.0137422
-0.0137422
0.0137422
-0.0137422
0.0137422
-0.0137422
0.0137422
-0.0137422
0.0137422
-0.0137423
0.013742
-0.0137431
0.0137393
-0.0137505
0.0137226
-0.0137789
0.0136932
-0.0137782
0.0137457
-0.0137452
0.0135941
-0.014031
0.0137245
-0.0132654
0.0137386
-0.0149069
0.0135991
-0.0120249
0.0127653
-0.0161195
0.0167075
-0.0137138
0.00914653
-0.00953179
0.0121013
-0.0170063
0.0200525
-0.0222782
0.0190051
-0.0152376
0.0090453
-0.00637808
0.0023445
-0.00227481
-0.000161332
-0.00180723
-0.271929
-0.271929
1
1.07667
1.11131
1.0922
1.1019
1.02089
1.06831
0.968838
1.02315
0.955334
0.970993
0.973699
0.934269
0.940083
1.00528
0.912049
0.960582
0.966792
0.974506
0.976789
1.06285
1.0132
1.01276
1.00285
1.03775
0.955641
0.925895
0.850443
0.797817
0.611398
0.444934
0.239374
0.14683
0.0460861
0.0404895
-0.00517207
0.0183788
-0.0138224
0.0152801
-0.0148457
0.0149667
-0.0149351
0.0149428
-0.014941
0.0149414
-0.0149414
0.0149414
-0.0149414
0.0149414
-0.0149414
0.0149414
-0.0149414
0.0149414
-0.0149414
0.0149414
-0.0149414
0.0149414
-0.0149414
0.0149414
-0.0149414
0.0149414
-0.0149414
0.0149411
-0.0149423
0.0149382
-0.0149502
0.0149208
-0.0149788
0.0148932
-0.0149738
0.0149473
-0.0149516
0.0147787
-0.0152211
0.0149697
-0.0144648
0.0148308
-0.0161116
0.0150089
-0.0132887
0.0136401
-0.0169671
0.0181316
-0.0156533
0.0107617
-0.0104261
0.012457
-0.0170623
0.0203644
-0.0236574
0.0216754
-0.0186257
0.0124094
-0.00923888
0.00458521
-0.00383301
0.000896573
6.07835e-05
0.272414
0.272414
1
1.06927
1.11536
1.09282
1.11785
1.03225
1.08283
0.986166
1.03466
0.97089
0.979464
0.985933
0.945837
0.936374
1.01328
0.920724
0.956016
0.960582
0.970295
0.964698
1.05577
1.01307
1.01176
0.996337
1.03632
0.957102
0.926773
0.847455
0.799362
0.617547
0.455761
0.247862
0.153908
0.0489659
0.0429924
-0.00512993
0.019413
-0.014444
0.0160465
-0.0155653
0.0157004
-0.0156648
0.0156736
-0.0156715
0.015672
-0.0156719
0.0156719
-0.0156719
0.0156719
-0.0156719
0.0156719
-0.0156719
0.0156719
-0.0156719
0.0156719
-0.0156719
0.0156719
-0.0156719
0.0156719
-0.0156719
0.0156719
-0.015672
0.0156716
-0.015673
0.0156685
-0.0156813
0.0156505
-0.0157099
0.015625
-0.0157007
0.0156797
-0.0156903
0.015496
-0.015939
0.0157454
-0.0152058
0.0154552
-0.0168241
0.0159445
-0.0141263
0.0140853
-0.0172968
0.01898
-0.0171058
0.0120167
-0.0109909
0.0124753
-0.0166826
0.0199824
-0.0241144
0.0234823
-0.0214391
0.0155143
-0.0120396
0.00686331
-0.00545222
0.00198342
-0.00286631
-0.271845
-0.271845
1
1.06152
1.11623
1.09037
1.12693
1.0404
1.09073
0.99897
1.04139
0.982057
0.982712
0.993901
0.954362
0.92924
1.01495
0.927773
0.949713
0.952093
0.963043
0.951128
1.04522
1.01159
1.0099
0.99035
1.03367
0.958992
0.927551
0.845402
0.799902
0.623561
0.465445
0.256767
0.160399
0.0525268
0.0449534
-0.0044445
0.0198604
-0.0144525
0.0162105
-0.0156785
0.015829
-0.0157891
0.015799
-0.0157967
0.0157972
-0.0157971
0.0157971
-0.0157971
0.0157971
-0.0157971
0.0157971
-0.0157971
0.0157971
-0.0157971
0.0157971
-0.0157971
0.0157971
-0.0157971
0.0157971
-0.0157971
0.0157971
-0.0157972
0.0157968
-0.0157982
0.0157934
-0.0158071
0.0157748
-0.0158355
0.0157515
-0.0158223
0.015806
-0.0158243
0.0156094
-0.0160479
0.0159137
-0.0153513
0.0154773
-0.0169084
0.0162636
-0.0143967
0.0139716
-0.0169864
0.0191131
-0.0179129
0.0127575
-0.0110809
0.0120287
-0.015792
0.0188591
-0.0235372
0.0242004
-0.0233923
0.0180937
-0.0145786
0.00904095
-0.00704731
0.00309088
-0.00104976
0.272545
0.272545
1
1.05393
1.11429
1.08614
1.12995
1.04605
1.09329
1.00778
1.04404
0.990094
0.98137
0.998302
0.960641
0.920196
1.01083
0.93363
0.942508
0.942581
0.953348
0.936875
1.03156
1.00906
1.00713
0.985207
1.02978
0.961418
0.928027
0.844471
0.799383
0.629635
0.473834
0.266211
0.166137
0.0569063
0.0462244
-0.00297011
0.0195753
-0.0137016
0.0156264
-0.0150395
0.0152067
-0.015162
0.0151733
-0.0151706
0.0151712
-0.0151711
0.0151711
-0.0151711
0.0151711
-0.0151711
0.0151711
-0.0151711
0.0151711
-0.0151711
0.0151711
-0.0151711
0.0151711
-0.0151711
0.0151711
-0.0151711
0.0151711
-0.0151712
0.0151708
-0.0151723
0.0151671
-0.0151817
0.015148
-0.0152098
0.0151271
-0.0151928
0.0151805
-0.0152077
0.0149732
-0.0154026
0.015328
-0.0147551
0.0147538
-0.0162201
0.0158159
-0.0139488
0.0131593
-0.0159055
0.0183856
-0.0179085
0.0128208
-0.0105391
0.0109682
-0.0142918
0.0169473
-0.0218422
0.0236304
-0.0241921
0.0198401
-0.0165968
0.0109254
-0.00849001
0.00410048
-0.0039708
-0.271682
-0.271682
1
1.04693
1.10987
1.08115
1.1278
1.04967
1.09169
1.01321
1.04305
0.996193
0.976116
0.999631
0.965233
0.910644
1.00147
0.938466
0.934927
0.933075
0.941685
0.922534
1.01503
1.00562
1.00324
0.981101
1.02462
0.964449
0.928009
0.844807
0.797766
0.635943
0.480806
0.276295
0.170983
0.0622185
0.0466804
-0.000584671
0.0184358
-0.0120688
0.014172
-0.0135258
0.0137113
-0.0136614
0.013674
-0.013671
0.0136717
-0.0136715
0.0136715
-0.0136715
0.0136715
-0.0136715
0.0136715
-0.0136715
0.0136715
-0.0136715
0.0136715
-0.0136715
0.0136715
-0.0136715
0.0136715
-0.0136715
0.0136715
-0.0136716
0.0136712
-0.0136729
0.0136673
-0.0136827
0.0136477
-0.0137104
0.0136293
-0.0136898
0.0136807
-0.013718
0.0134654
-0.0138808
0.0138652
-0.0132941
0.0131642
-0.0146389
0.0144748
-0.0126541
0.0115298
-0.0139475
0.0166793
-0.0169519
0.0120668
-0.0092312
0.00915814
-0.012088
0.0142232
-0.0190035
0.0216412
-0.023588
0.0204489
-0.0178099
0.012289
-0.00961934
0.00495244
-0.00205582
0.272718
0.272718
1
1.04081
1.10328
1.0761
1.1215
1.05154
1.08701
1.01597
1.03869
1.00135
0.96773
0.998189
0.968465
0.901807
0.987458
0.942221
0.927256
0.924357
0.928484
0.908525
0.995852
1.0013
0.998053
0.978095
1.01817
0.968095
0.92736
0.846477
0.795066
0.642598
0.486305
0.287061
0.174858
0.0685161
0.0462567
0.0027731
0.0163803
-0.0094921
0.0117857
-0.0110755
0.0112809
-0.0112252
0.0112394
-0.011236
0.0112368
-0.0112366
0.0112366
-0.0112366
0.0112366
-0.0112366
0.0112366
-0.0112366
0.0112366
-0.0112366
0.0112366
-0.0112366
0.0112366
-0.0112366
0.0112366
-0.0112366
0.0112366
-0.0112367
0.0112362
-0.0112381
0.0112321
-0.0112484
0.0112122
-0.0112755
0.0111964
-0.0112517
0.0112449
-0.0112932
0.0110242
-0.0114212
0.0114626
-0.0109055
0.0106488
-0.0121052
0.0121752
-0.0104438
0.00902336
-0.0110664
0.01394
-0.0149648
0.0104164
-0.00708513
0.00651627
-0.00912625
0.0107128
-0.0150821
0.0182142
-0.0214274
0.0196745
-0.0179546
0.0129026
-0.0102639
0.00549462
-0.00477386
-0.27153
-0.27153
1
1.03576
1.0949
1.07138
1.11212
1.0518
1.08013
1.01685
1.03106
1.00628
0.957122
0.994124
0.970455
0.894665
0.969542
0.94464
0.919601
0.916949
0.9142
0.895107
0.974291
0.995994
0.991407
0.97611
1.01052
0.972275
0.926036
0.849443
0.791387
0.64962
0.490373
0.298458
0.177779
0.0757567
0.0449831
0.0070694
0.0134421
-0.00600432
0.00850074
-0.00772181
0.00794873
-0.0078868
0.00790269
-0.00789885
0.00789973
-0.00789954
0.00789957
-0.00789957
0.00789957
-0.00789957
0.00789957
-0.00789957
0.00789957
-0.00789957
0.00789957
-0.00789957
0.00789957