# vtk DataFile Version 2.0
FlowField
ASCII
DATASET STRUCTURED_GRID
DIMENSIONS 100 1 100
POINTS 10000 float
0 0 0
0.01 0 0
0.02 0 0
0.03 0 0
0.04 0 0
0.05 0 0
0.06 0 0
0.07 0 0
0.08 0 0
0.09 0 0
0.1 0 0
0.11 0 0
0.12 0 0
0.13 0 0
0.14 0 0
0.15 0 0
0.16 0 0
0.17 0 0
0.18 0 0
0.19 0 0
0.2 0 0
0.21 0 0
0.22 0 0
0.23 0 0
0.24 0 0
0.25 0 0
0.26 0 0
0.27 0 0
0.28 0 0
0.29 0 0
0.3 0 0
0.31 0 0
0.32 0 0
0.33 0 0
0.34 0 0
0.35 0 0
0.36 0 0
0.37 0 0
0.38 0 0
0.39 0 0
0.4 0 0
0.41 0 0
0.42 0 0
0.43 0 0
0.44 0 0
0.45 0 0
0.46 0 0
0.47 0 0
0.48 0 0
0.49 0 0
0.5 0 0
0.51 0 0
0.52 0 0
0.53 0 0
0.54 0 0
0.55 0 0
0.56 0 0
0.57 0 0
0.58 0 0
0.59 0 0
0.6 0 0
0.61 0 0
0.62 0 0
0.63 0 0
0.64 0 0
0.65 0 0
0.66 0 0
0.67 0 0
0.68 0 0
0.69 0 0
0.7 0 0
0.71 0 0
0.72 0 0
0.73 0 0
0.74 0 0
0.75 0 0
0.76 0 0
0.77 0 0
0.78 0 0
0.79 0 0
0.8 0 0
0.81 0 0
0.82 0 0
0.83 0 0
0.84 0 0
0.85 0 0
0.86 0 0
0.87 0 0
0.88 0 0
0.89 0 0
0.9 0 0
0.91 0 0
0.92 0 0
0.93 0 0
0.94 0 0
0.95 0 0
0.96 0 0
0.97 0 0
0.98 0 0
0.99 0 0
0 0.001 0
0.01 0.001 0
0.02 0.001 0
0.03 0.001 0
0.04 0.001 0
0.05 0.001 0
0.06 0.001 0
0.07 0.001 0
0.08 0.001 0
0.09 0.001 0
0.1 0.001 0
0.11 0.001 0
0.12 0.001 0
0.13 0.001 0
0.14 0.001 0
0.15 0.001 0
0.16 0.001 0
0.17 0.001 0
0.18 0.001 0
0.19 0.001 0
0.2 0.001 0
0.21 0.001 0
0.22 0.001 0
0.23 0.001 0
0.24 0.001 0
0.25 0.001 0
0.26 0.001 0
0.27 0.001 0
0.28 0.001 0
0.29 0.001 0
0.3 0.001 0
0.31 0.001 0
0.32 0.001 0
0.33 0.001 0
0.34 0.001 0
0.35 0.001 0
0.36 0.001 0
0.37 0.001 0
0.38 0.001 0
0.39 0.001 0
0.4 0.001 0
0.41 0.001 0
0.42 0.001 0
0.43 0.001 0
0.44 0.001 0
0.45 0.001 0
0.46 0.001 0
0.47 0.001 0
0.48 0.001 0
0.49 0.001 0
0.5 0.001 0
0.51 0.001 0
0.52 0.001 0
0.53 0.001 0
0.54 0.001 0
0.55 0.001 0
0.56 0.001 0
0.57 0.001 0
0.58 0.001 0
0.59 0.001 0
0.6 0.001 0
0.61 0.001 0
0.62 0.001 0
0.63 0.001 0
0.64 0.001 0
0.65 0.001 0
0.66 0.001 0
0.67 0.001 0
0.68 0.001 0
0.69 0.001 0
0.7 0.001 0
0.71 0.001 0
0.72 0.001 0
0.73 0.001 0
0.74 0.001 0
0.75 0.001 0
0.76 0.001 0
0.77 0.001 0
0.78 0.001 0
0.79 0.001 0
0.8 0.001 0
0.81 0.001 0
0.82 0.001 0
0.83 0.001 0
0.84 0.001 0
0.85 0.001 0
0.86 0.001 0
0.87 0.001 0
0.88 0.001 0
0.89 0.001 0
0.9 0.001 0
0.91 0.001 0
0.92 0.001 0
0.93 0.001 0
0.94 0.001 0
0.95 0.001 0
0.96 0.001 0
0.97 0.001 0
0.98 0.001 0
0.99 0.001 0
0 0.002 0
0.01 0.002 0
0.02 0.002 0
0.03 0.002 0
0.04 0.002 0
0.05 0.002 0
0.06 0.002 0
0.07 0.002 0
0.08 0.002 0
0.09 0.002 0
0.1 0.002 0
0.11 0.002 0
0.12 0.002 0
0.13 0.002 0
0.14 0.002 0
0.15 0.002 0
0.16 0.002 0
0.17 0.002 0
0.18 0.002 0
0.19 0.002 0
0.2 0.002 0
0.21 0.002 0
0.22 0.002 0
0.23 0.002 0
0.24 0.002 0
0.25 0.002 0
0.26 0.002 0
0.27 0.002 0
0.28 0.002 0
0.29 0.002 0
0.3 0.002 0
0.31 0.002 0
0.32 0.002 0
0.33 0.002 0
0.34 0.002 0
0.35 0.002 0
0.36 0.002 0
0.37 0.002 0
0.38 0.002 0
0.39 0.002 0
0.4 0.002 0
0.41 0.002 0
0.42 0.002 0
0.43 0.002 0
0.44 0.002 0
0.45 0.002 0
0.46 0.002 0
0.47 0.002 0
0.48 0.002 0
0.49 0.002 0
0.5 0.002 0
0.51 0.002 0
0.52 0.002 0
0.53 0.002 0
0.54 0.002 0
0.55 0.002 0
0.56 0.002 0
0.57 0.002 0
0.58 0.002 0
0.59 0.002 0
0.6 0.002 0
0.61 0.002 0
0.62 0.002 0
0.63 0.002 0
0.64 0.002 0
0.65 0.002 0
0.66 0.002 0
0.67 0.002 0
0.68 0.002 0
0.69 0.002 0
0.7 0.002 0
0.71 0.002 0
0.72 0.002 0
0.73 0.002 0
0.74 0.002 0
0.75 0.002 0
0.76 0.002 0
0.77 0.002 0
0.78 0.002 0
0.79 0.002 0
0.8 0.002 0
0.81 0.002 0
0.82 0.002 0
0.83 0.002 0
0.84 0.002 0
0.85 0.002 0
0.86 0.002 0
0.87 0.002 0
0.88 0.002 0
0.89 0.002 0
0.9 0.002 0
0.91 0.002 0
0.92 0.002 0
0.93 0.002 0
0.94 0.002 0
0.95 0.002 0
0.96 0.002 0
0.97 0.002 0
0.98 0.002 0
0.99 0.002 0
0 0.003 0
0.01 0.003 0
0.02 0.003 0
0.03 0.003 0
0.04 0.003 0
0.05 0.003 0
0.06 0.003 0
0.07 0.003 0
0.08 0.003 0
0.09 0.003 0
0.1 0.003 0
0.11 0.003 0
0.12 0.003 0
0.13 0.003 0
0.14 0.003 0
0.15 0.003 0
0.16 0.003 0
0.17 0.003 0
0.18 0.003 0
0.19 0.003 0
0.2 0.003 0
0.21 0.003 0
0.22 0.003 0
0.23 0.003 0
0.24 0.003 0
0.25 0.003 0
0.26 0.003 0
0.27 0.003 0
0.28 0.003 0
0.29 0.003 0
0.3 0.003 0
0.31 0.003 0
0.32 0.003 0
0.33 0.003 0
0.34 0.003 0
0.35 0.003 0
0.36 0.003 0
0.37 0.003 0
0.38 0.003 0
0.39 0.003 0
0.4 0.003 0
0.41 0.003 0
0.42 0.003 0
0.43 0.003 0
0.44 0.003 0
0.45 0.003 0
0.46 0.003 0
0.47 0.003 0
0.48 0.003 0
0.49 0.003 0
0.5 0.003 0
0.51 0.003 0
0.52 0.003 0
0.53 0.003 0
0.54 0.003 0
0.55 0.003 0
0.56 0.003 0
0.57 0.003 0
0.58 0.003 0
0.59 0.003 0
0.6 0.003 0
0.61 0.003 0
0.62 0.003 0
0.63 0.003 0
0.64 0.003 0
0.65 0.003 0
0.66 0.003 0
0.67 0.003 0
0.68 0.003 0
0.69 0.003 0
0.7 0.003 0
0.71 0.003 0
0.72 0.003 0
0.73 0.003 0
0.74 0.003 0
0.75 0.003 0
0.76 0.003 0
0.77 0.003 0
0.78 0.003 0
0.79 0.003 0
0.8 0.003 0
0.81 0.003 0
0.82 0.003 0
0.83 0.003 0
0.84 0.003 0
0.85 0.003 0
0.86 0.003 0
0.87 0.003 0
0.88 0.003 0
0.89 0.003 0
0.9 0.003 0
0.91 0.003 0
0.92 0.003 0
0.93 0.003 0
0.94 0.003 0
0.95 0.003 0
0.96 0.003 0
0.97 0.003 0
0.98 0.003 0
0.99 0.003 0
0 0.004 0
0.01 0.004 0
0.02 0.004 0
0.03 0.004 0
0.04 0.004 0
0.05 0.004 0
0.06 0.004 0
0.07 0.004 0
0.08 0.004 0
0.09 0.004 0
0.1 0.004 0
0.11 0.004 0
0.12 0.004 0
0.13 0.004 0
0.14 0.004 0
0.15 0.004 0
0.16 0.004 0
0.17 0.004 0
0.18 0.004 0
0.19 0.004 0
0.2 0.004 0
0.21 0.004 0
0.22 0.004 0
0.23 0.004 0
0.24 0.004 0
0.25 0.004 0
0.26 0.004 0
0.27 0.004 0
0.28 0.004 0
0.29 0.004 0
0.3 0.004 0
0.31 0.004 0
0.32 0.004 0
0.33 0.004 0
0.34 0.004 0
0.35 0.004 0
0.36 0.004 0
0.37 0.004 0
0.38 0.004 0
0.39 0.004 0
0.4 0.004 0
0.41 0.004 0
0.42 0.004 0
0.43 0.004 0
0.44 0.004 0
0.45 0.004 0
0.46 0.004 0
0.47 0.004 0
0.48 0.004 0
0.49 0.004 0
0.5 0.004 0
0.51 0.004 0
0.52 0.004 0
0.53 0.004 0
0.54 0.004 0
0.55 0.004 0
0.56 0.004 0
0.57 0.004 0
0.58 0.004 0
0.59 0.004 0
0.6 0.004 0
0.61 0.004 0
0.62 0.004 0
0.63 0.004 0
0.64 0.004 0
0.65 0.004 0
0.66 0.004 0
0.67 0.004 0
0.68 0.004 0
0.69 0.004 0
0.7 0.004 0
0.71 0.004 0
0.72 0.004 0
0.73 0.004 0
0.74 0.004 0
0.75 0.004 0
0.76 0.004 0
0.77 0.004 0
0.78 0.004 0
0.79 0.004 0
0.8 0.004 0
0.81 0.004 0
0.82 0.004 0
0.83 0.004 0
0.84 0.004 0
0.85 0.004 0
0.86 0.004 0
0.87 0.004 0
0.88 0.004 0
0.89 0.004 0
0.9 0.004 0
0.91 0.004 0
0.92 0.004 0
0.93 0.004 0
0.94 0.004 0
0.95 0.004 0
0.96 0.004 0
0.97 0.004 0
0.98 0.004 0
0.99 0.004 0
0 0.005 0
0.01 0.005 0
0.02 0.005 0
0.03 0.005 0
0.04 0.005 0
0.05 0.005 0
0.06 0.005 0
0.07 0.005 0
0.08 0.005 0
0.09 0.005 0
0.1 0.005 0
0.11 0.005 0
0.12 0.005 0
0.13 0.005 0
0.14 0.005 0
0.15 0.005 0
0.16 0.005 0
0.17 0.005 0
0.18 0.005 0
0.19 0.005 0
0.2 0.005 0
0.21 0.005 0
0.22 0.005 0
0.23 0.005 0
0.24 0.005 0
0.25 0.005 0
0.26 0.005 0
0.27 0.005 0
0.28 0.005 0
0.29 0.005 0
0.3 0.005 0
0.31 0.005 0
0.32 0.005 0
0.33 0.005 0
0.34 0.005 0
0.35 0.005 0
0.36 0.005 0
0.37 0.005 0
0.38 0.005 0
0.39 0.005 0
0.4 0.005 0
0.41 0.005 0
0.42 0.005 0
0.43 0.005 0
0.44 0.005 0
0.45 0.005 0
0.46 0.005 0
0.47 0.005 0
0.48 0.005 0
0.49 0.005 0
0.5 0.005 0
0.51 0.005 0
0.52 0.005 0
0.53 0.005 0
0.54 0.005 0
0.55 0.005 0
0.56 0.005 0
0.57 0.005 0
0.58 0.005 0
0.59 0.005 0
0.6 0.005 0
0.61 0.005 0
0.62 0.005 0
0.63 0.005 0
0.64 0.005 0
0.65 0.005 0
0.66 0.005 0
0.67 0.005 0
0.68 0.005 0
0.69 0.005 0
0.7 0.005 0
0.71 0.005 0
0.72 0.005 0
0.73 0.005 0
0.74 0.005 0
0.75 0.005 0
0.76 0.005 0
0.77 0.005 0
0.78 0.005 0
0.79 0.005 0
0.8 0.005 0
0.81 0.005 0
0.82 0.005 0
0.83 0.005 0
0.84 0.005 0
0.85 0.005 0
0.86 0.005 0
0.87 0.005 0
0.88 0.005 0
0.89 0.005 0
0.9 0.005 0
0.91 0.005 0
0.92 0.005 0
0.93 0.005 0
0.94 0.005 0
0.95 0.005 0
0.96 0.005 0
0.97 0.005 0
0.98 0.005 0
0.99 0.005 0
0 0.006 0
0.01 0.006 0
0.02 0.006 0
0.03 0.006 0
0.04 0.006 0
0.05 0.006 0
0.06 0.006 0
0.07 0.006 0
0.08 0.006 0
0.09 0.006 0
0.1 0.006 0
0.11 0.006 0
0.12 0.006 0
0.13 0.006 0
0.14 0.006 0
0.15 0.006 0
0.16 0.006 0
0.17 0.006 0
0.18 0.006 0
0.19 0.006 0
0.2 0.006 0
0.21 0.006 0
0.22 0.006 0
0.23 0.006 0
0.24 0.006 0
0.25 0.006 0
0.26 0.006 0
0.27 0.006 0
0.28 0.006 0
0.29 0.006 0
0.3 0.006 0
0.31 0.006 0
0.32 0.006 0
0.33 0.006 0
0.34 0.006 0
0.35 0.006 0
0.36 0.006 0
0.37 0.006 0
0.38 0.006 0
0.39 0.006 0
0.4 0.006 0
0.41 0.006 0
0.42 0.006 0
0.43 0.006 0
0.44 0.006 0
0.45 0.006 0
0.46 0.006 0
0.47 0.006 0
0.48 0.006 0
0.49 0.006 0
0.5 0.006 0
0.51 0.006 0
0.52 0.006 0
0.53 0.006 0
0.54 0.006 0
0.55 0.006 0
0.56 0.006 0
0.57 0.006 0
0.58 0.006 0
0.59 0.006 0
0.6 0.006 0
0.61 0.006 0
0.62 0.006 0
0.63 0.006 0
0.64 0.006 0
0.65 0.006 0
0.66 0.006 0
0.67 0.006 0
0.68 0.006 0
0.69 0.006 0
0.7 0.006 0
0.71 0.006 0
0.72 0.006 0
0.73 0.006 0
0.74 0.006 0
0.75 0.006 0
0.76 0.006 0
0.77 0.006 0
0.78 0.006 0
0.79 0.006 0
0.8 0.006 0
0.81 0.006 0
0.82 0.006 0
0.83 0.006 0
0.84 0.006 0
0.85 0.006 0
0.86 0.006 0
0.87 0.006 0
0.88 0.006 0
0.89 0.006 0
0.9 0.006 0
0.91 0.006 0
0.92 0.006 0
0.93 0.006 0
0.94 0.006 0
0.95 0.006 0
0.96 0.006 0
0.97 0.006 0
0.98 0.006 0
0.99 0.006 0
0 0.007 0
0.01 0.007 0
0.02 0.007 0
0.03 0.007 0
0.04 0.007 0
0.05 0.007 0
0.06 0.007 0
0.07 0.007 0
0.08 0.007 0
0.09 0.007 0
0.1 0.007 0
0.11 0.007 0
0.12 0.007 0
0.13 0.007 0
0.14 0.007 0
0.15 0.007 0
0.16 0.007 0
0.17 0.007 0
0.18 0.007 0
0.19 0.007 0
0.2 0.007 0
0.21 0.007 0
0.22 0.007 0
0.23 0.007 0
0.24 0.007 0
0.25 0.007 0
0.26 0.007 0
0.27 0.007 0
0.28 0.007 0
0.29 0.007 0
0.3 0.007 0
0.31 0.007 0
0.32 0.007 0
0.33 0.007 0
0.34 0.007 0
0.35 0.007 0
0.36 0.007 0
0.37 0.007 0
0.38 0.007 0
0.39 0.007 0
0.4 0.007 0
0.41 0.007 0
0.42 0.007 0
0.43 0.007 0
0.44 0.007 0
0.45 0.007 0
0.46 0.007 0
0.47 0.007 0
0.48 0.007 0
0.49 0.007 0
0.5 0.007 0
0.51 0.007 0
0.52 0.007 0
0.53 0.007 0
0.54 0.007 0
0.55 0.007 0
0.56 0.007 0
0.57 0.007 0
0.58 0.007 0
0.59 0.007 0
0.6 0.007 0
0.61 0.007 0
0.62 0.007 0
0.63 0.007 0
0.64 0.007 0
0.65 0.007 0
0.66 0.007 0
0.67 0.007 0
0.68 0.007 0
0.69 0.007 0
0.7 0.007 0
0.71 0.007 0
0.72 0.007 0
0.73 0.007 0
0.74 0.007 0
0.75 0.007 0
0.76 0.007 0
0.77 0.007 0
0.78 0.007 0
0.79 0.007 0
0.8 0.007 0
0.81 0.007 0
0.82 0.007 0
0.83 0.007 0
0.84 0.007 0
0.85 0.007 0
0.86 0.007 0
0.87 0.007 0
0.88 0.007 0
0.89 0.007 0
0.9 0.007 0
0.91 0.007 0
0.92 0.007 0
0.93 0.007 0
0.94 0.007 0
0.95 0.007 0
0.96 0.007 0
0.97 0.007 0
0.98 0.007 0
[...]
POINT_DATA 10000

SCALARS vel_X float 1
LOOKUP_TABLE default
0
0
0
0
0
0
0
0
0
0
0
0
0
0
0
0
0
0
0
0
0
0
0
0
0
0
0
0
0
0
0
0
0
0
0
0
0
0
0
0
0
0
0
0
0
0
0
0
0
0
0
0
0
0
0
0
0
0
0
0
0
0
0
0
0
0
0
0
0
0
0
0
0
0
0
0
0
0
0
0
0
0
0
0
0
0
0
0
0
0
0
0
0
0
0
0
0
0
0
0
1
0.336409
0.190909
0.138181
0.135637
0.0650029
0.131988
0.0274032
0.12886
-0.0078267
0.150622
-0.0513239
0.135303
0.0114272
0.0136604
0.0642385
0.0849249
-0.118808
0.174271
-0.0195376
-0.00522135
-0.0119908
0.12724
-0.0699498
0.0676728
-0.0587129
0.0676988
-0.00608517
0.134152
-0.0724696
0.0302486
-0.0460805
0.140771
0.019596
0.185829
0.115274
0.294714
0.165001
0.301504
0.196839
0.359296
0.219432
0.298718
0.0970495
0.163485
-0.0116011
0.0911803
-0.0529631
0.0698749
-0.0628967
0.0655821
-0.0646106
0.0649384
-0.0648396
0.0648556
-0.0648743
0.0648413
-0.0648662
0.064873
-0.0648458
0.0648117
-0.064987
0.0648059
-0.0646234
0.0651559
-0.0652214
0.0640006
-0.0644672
0.0665655
-0.0654769
0.0620237
-0.0632368
0.0680302
-0.0701204
0.063343
-0.0546355
0.05949
-0.075406
0.079174
-0.0663432
0.0543806
-0.0536166
0.0558918
-0.0572856
0.0629687
-0.0774501
0.0933036
-0.100681
0.0933446
-0.0748504
0.0510581
-0.0293886
0.0124602
-0.00228077
-0.00324803
0.00444943
-0.0046
-0.000272755
-0.267144
-0.267144
1
0.584271
0.358288
0.277761
0.242745
0.161367
0.220724
0.0996729
0.209056
0.0435671
0.233325
-0.0233579
0.21394
0.0490781
0.0482953
0.127226
0.122716
-0.113396
0.255302
-0.00361867
0.0138872
0.0258444
0.182894
-0.0611479
0.108978
-0.04212
0.118647
0.0415892
0.201685
-0.0591709
0.0758806
0.00912127
0.251693
0.120109
0.341887
0.278693
0.504363
0.349849
0.517494
0.396143
0.584908
0.393516
0.454155
0.177983
0.231384
0.00434316
0.118094
-0.0597193
0.0854148
-0.0748636
0.0789098
-0.0774511
0.077942
-0.0777947
0.0778177
-0.0778479
0.0777938
-0.0778395
0.077839
-0.0778047
0.077758
-0.0780136
0.07772
-0.077513
0.0782768
-0.0782674
0.0765681
-0.0774504
0.0802387
-0.0783715
0.0738067
-0.0760898
0.0824521
-0.0845675
0.0748332
-0.0639896
0.0720158
-0.0932384
0.0961099
-0.0778548
0.0627068
-0.0631832
0.066979
-0.0696024
0.0774821
-0.0961892
0.115147
-0.122571
0.110989
-0.0862735
0.055629
-0.0289045
0.00846185
0.00284672
-0.00862694
0.00861517
-0.00793796
0.00493603
0.398912
0.398912
1
0.754294
0.515489
0.393528
0.355495
0.247129
0.311208
0.169366
0.290065
0.0983534
0.307604
0.0276313
0.27134
0.103256
0.100973
0.164086
0.185136
-0.080426
0.301511
0.0393155
0.0619441
0.0576076
0.235417
-0.022414
0.159622
-0.000798011
0.178531
0.0933114
0.269139
-0.00340305
0.152489
0.088951
0.363106
0.235583
0.486739
0.424532
0.671948
0.506433
0.685863
0.545086
0.732804
0.502833
0.545997
0.226371
0.270352
0.0144807
0.133157
-0.0628521
0.0937945
-0.0810864
0.085964
-0.0842038
0.0847971
-0.0846187
0.0846469
-0.0846831
0.084617
-0.0846759
0.0846664
-0.0846374
0.0845758
-0.0848709
0.0845316
-0.0843205
0.0851426
-0.0851412
0.0832946
-0.0842559
0.087213
-0.0852661
0.0804361
-0.0828162
0.0892916
-0.0918015
0.0819081
-0.0704267
0.0780306
-0.100035
0.103674
-0.0855392
0.0696028
-0.0697976
0.0736165
-0.0762556
0.0830392
-0.100853
0.119833
-0.129283
0.120345
-0.098322
0.0688287
-0.0421753
0.0202664
-0.00721784
-0.00103413
0.0029128
-0.00457468
0.000269549
-0.356208
-0.356208
1
0.867131
0.656958
0.489295
0.471512
0.319926
0.407797
0.229189
0.379171
0.145774
0.386809
0.0827088
0.323211
0.166721
0.161864
0.18705
0.272361
-0.0468446
0.341324
0.098581
0.126215
0.0810783
0.299262
0.0281194
0.223434
0.0485915
0.246795
0.142491
0.350822
0.0722191
0.246845
0.167635
0.473381
0.34086
0.615525
0.537573
0.807865
0.624641
0.815105
0.640599
0.829851
0.562488
0.606798
0.250814
0.300784
0.0160169
0.148638
-0.0700032
0.104732
-0.0904202
0.0959345
-0.0939371
0.0946132
-0.0944088
0.0944424
-0.0944813
0.0944092
-0.0944744
0.094459
-0.0944399
0.0943577
-0.094678
0.0943351
-0.0941001
0.0949065
-0.0950106
0.0931207
-0.0939031
0.0969277
-0.0953744
0.0904228
-0.0922046
0.0984025
-0.101936
0.0931552
-0.0808773
0.0858124
-0.107406
0.113945
-0.0983899
0.0815325
-0.0798822
0.0829378
-0.085108
0.0895405
-0.10491
0.123816
-0.137334
0.134571
-0.118738
0.0928002
-0.0670499
0.0431585
-0.0268892
0.0142528
-0.00839111
0.0025386
-0.000140041
0.369966
0.369966
1
0.940722
0.777307
0.572675
0.581594
0.386964
0.503223
0.284306
0.469884
0.190761
0.465585
0.14198
0.370848
0.236138
0.224896
0.208351
0.367304
-0.00928018
0.379049
0.1674
0.195762
0.106133
0.366914
0.0872821
0.292262
0.103931
0.315103
0.193993
0.437882
0.157638
0.341194
0.240778
0.570484
0.43099
0.718939
0.622598
0.91044
0.710952
0.906039
0.698602
0.888828
0.594832
0.646873
0.265641
0.324177
0.0163919
0.161659
-0.0761688
0.114142
-0.0984109
0.104506
-0.102287
0.103042
-0.102812
0.102852
-0.102892
0.102817
-0.102884
0.102866
-0.102858
0.102752
-0.103092
0.102768
-0.102489
0.103254
-0.103521
0.101612
-0.102084
0.105186
-0.10424
0.0991404
-0.100027
0.105899
-0.110725
0.103501
-0.090251
0.0916347
-0.112533
0.122961
-0.1108
0.0926948
-0.0884138
0.0904943
-0.0923703
0.0944859
-0.107051
0.125567
-0.143171
0.147139
-0.138331
0.116839
-0.0926747
0.0672125
-0.0478152
0.0307194
-0.0206035
0.0103105
-0.00738587
-0.363927
-0.363927
1
0.987921
0.87532
0.64787
0.680098
0.45288
0.591711
0.339193
0.555734
0.238871
0.536514
0.20918
0.411392
0.309575
0.287779
0.232792
0.457096
0.0395072
0.410853
0.241586
0.264822
0.138848
0.428728
0.154516
0.358025
0.165491
0.376551
0.250165
0.518377
0.247289
0.423784
0.308632
0.645362
0.507051
0.792463
0.687314
0.978872
0.774746
0.962012
0.735536
0.918543
0.616356
0.670187
0.280817
0.338811
0.0217148
0.168235
-0.0764106
0.117482
-0.100362
0.107039
-0.104594
0.105431
-0.105174
0.105221
-0.10526
0.105185
-0.105251
0.105234
-0.105235
0.105104
-0.105462
0.105168
-0.104834
0.105548
-0.106001
0.104085
-0.104196
0.107372
-0.107101
0.101863
-0.101796
0.107297
-0.113363
0.107875
-0.0938381
0.0914921
-0.111306
0.125653
-0.117242
0.0980592
-0.090904
0.091931
-0.0939065
0.0942331
-0.103835
0.120985
-0.141342
0.151212
-0.149448
0.133295
-0.112073
0.0865458
-0.0653376
0.044896
-0.0313108
0.017274
-0.00788766
0.369236
0.369236
1
1.01761
0.952397
0.71643
0.765102
0.518772
0.670844
0.395443
0.632951
0.29301
0.594767
0.286176
0.442758
0.385031
0.349693
0.260913
0.53514
0.10266
0.433206
0.317957
0.330555
0.180477
0.478706
0.228031
0.415763
0.232456
0.427173
0.309591
0.584235
0.337229
0.48942
0.371418
0.694746
0.571085
0.836736
0.737681
1.01597
0.823892
0.989291
0.762961
0.926417
0.636211
0.679604
0.301001
0.344161
0.0345991
0.166711
-0.0686564
0.112848
-0.0943041
0.101587
-0.0989031
0.0998286
-0.099542
0.099597
-0.0996349
0.099561
-0.0996232
0.099608
-0.0996184
0.0994634
-0.0998348
0.0995789
-0.0991877
0.099842
-0.100481
0.0985828
-0.0983226
0.101531
-0.101941
0.09664
-0.0956587
0.100679
-0.107775
0.104151
-0.0897802
0.0837942
-0.101882
0.119681
-0.115384
0.0957222
-0.0856736
0.0854519
-0.0878601
0.0870771
-0.0936782
0.108294
-0.129604
0.144025
-0.148984
0.139038
-0.122344
0.0986769
-0.0774665
0.0552814
-0.0394629
0.0227042
-0.014124
-0.362713
-0.362713
1
1.03601
1.01083
0.778968
0.836514
0.584033
0.740061
0.453082
0.699478
0.354239
0.63792
0.372542
0.464682
0.460059
0.409998
0.292275
0.598264
0.179594
0.44502
0.393593
0.391093
0.229996
0.514301
0.304925
0.463093
0.303037
0.465192
0.369386
0.631744
0.424585
0.53717
0.429178
0.719631
0.625051
0.855334
0.777895
1.02685
0.864159
0.994862
0.787726
0.918507
0.658503
0.677755
0.32747
0.340946
0.0552809
0.157269
-0.052909
0.100313
-0.0802822
0.0882043
-0.0852666
0.0862866
-0.0859679
0.0860322
-0.0860681
0.085996
-0.086054
0.0860415
-0.0860609
0.085883
-0.0862632
0.0860505
-0.0856052
0.0861895
-0.0870067
0.0851603
-0.0845322
0.0877073
-0.0887875
0.0835362
-0.081707
0.0861065
-0.0939625
0.0923068
-0.0781704
0.0687509
-0.0843527
0.104916
-0.105127
0.0858165
-0.0729474
0.0711166
-0.0741182
0.0729608
-0.0767934
0.0879465
-0.108422
0.125779
-0.136733
0.133463
-0.122614
0.102627
-0.0832667
0.0610789
-0.044456
0.0262454
-0.0130003
0.370658
0.370658
1
1.04744
1.05305
0.835892
0.894979
0.647623
0.79942
0.511755
0.753981
0.422739
0.665153
0.466268
0.478452
0.531865
0.468012
0.326674
0.644794
0.267748
0.447315
0.465636
0.444957
0.285764
0.535264
0.38193
0.499299
0.375076
0.490449
0.42685
0.660394
0.507304
0.568481
0.482084
0.723395
0.670607
0.853051
0.810884
1.01738
0.899335
0.985019
0.813227
0.899574
0.684407
0.667117
0.359716
0.330596
0.0827416
0.141094
-0.0302847
0.0810198
-0.0594287
0.0680288
-0.064819
0.0659411
-0.0655875
0.0656621
-0.0656954
0.0656257
-0.065679
0.0656691
-0.065698
0.0654985
-0.0658825
0.0657174
-0.065224
0.0657267
-0.0667088
0.0649532
-0.0639683
0.067034
-0.0687635
0.0636863
-0.0610868
0.0647304
-0.0730657
0.0734263
-0.0601087
0.0475665
-0.059946
0.0824613
-0.0875023
0.0694721
-0.0539539
0.0500362
-0.0535797
0.0527838
-0.0544192
0.0616321
-0.0797212
0.0982239
-0.113952
0.117205
-0.112968
0.0981086
-0.0822672
0.061788
-0.0458651
0.0275303
-0.0172189
-0.361685
-0.361685
1
1.05483
1.0815
0.887451
0.941563
0.7085
0.849149
0.571153
0.79555
0.498127
0.676902
0.564267
0.486469
0.597533
0.52315
0.364137
0.674067
0.363603
0.442508
0.531347
0.491178
0.346003
0.542923
0.455837
0.524823
0.446351
0.504168
0.479915
0.671789
0.583781
0.586158
0.53034
0.710591
0.7089
0.835048
0.838453
0.993308
0.931369
0.965045
0.840451
0.8735
0.71338
0.650163
0.39623
0.315024
0.115232
0.119995
-0.00256512
0.0567608
-0.03353
0.0428491
-0.0393481
0.0405802
-0.0401886
0.0402748
-0.0403047
0.0402381
-0.0402864
0.0402787
-0.0403177
0.040098
-0.0404806
0.0403668
-0.0398332
0.0402424
-0.0413735
0.0397475
-0.0384233
0.0413025
-0.0436524
0.0388673
-0.0355853
0.0383683
-0.0469005
0.0492436
-0.0372984
0.0220668
-0.030598
0.0541451
-0.0641754
0.0483917
-0.0305462
0.0240195
-0.0278238
0.028042
-0.0283479
0.0316551
-0.0461659
0.0639744
-0.0828208
0.0917906
-0.0942786
0.0854753
-0.0744904
0.0572663
-0.0435073
0.0264511
-0.0137537
0.371074
0.371074
1
1.05995
1.09864
0.933637
0.977697
0.765679
0.889601
0.631021
0.823787
0.579393
0.67482
0.662653
0.491883
0.65429
0.575011
0.404626
0.686534
0.463052
0.433857
0.588262
0.529453
0.408753
0.539801
0.523655
0.541011
0.514651
0.508747
0.527009
0.668885
0.652532
0.593782
0.573918
0.68626
0.740407
0.806473
0.861297
0.959979
0.960606
0.939394
0.868726
0.843723
0.743825
0.629514
0.434862
0.296537
0.150492
0.0962404
0.0279852
0.0298032
-0.00485072
0.0149312
-0.0111189
0.0124696
-0.0120366
0.0121356
-0.0121616
0.0120984
-0.0121416
0.0121356
-0.0121854
0.0119469
-0.0123233
0.0122633
-0.0116985
0.0120033
-0.013265
0.011805
-0.0101659
0.0127851
-0.0157153
0.0113284
-0.00746322
0.00931972
-0.0177715
0.021973
-0.0118965
-0.00546404
0.00125054
0.0223145
-0.0372747
0.0247015
-0.00504592
-0.00457976
0.00102619
0.000672656
-0.000698311
0.000627301
-0.0108359
0.0262422
-0.0462818
0.0595878
-0.0682548
0.0658344
-0.0605847
0.0478542
-0.0375437
0.023009
-0.0155234
-0.361959
-0.361959
1
1.06375
1.10697
0.974172
1.00509
0.818264
0.921269
0.691047
0.838958
0.664796
0.661733
0.756971
0.498226
0.699777
0.623349
0.447853
0.683851
0.561575
0.42504
0.63437
0.560148
0.471806
0.529298
0.582707
0.549872
0.577806
0.50741
0.566845
0.655413
0.712035
0.595271
0.612412
0.655486
0.764946
0.772206
0.87913
0.922161
0.986179
0.911909
0.896343
0.813453
0.773533
0.607933
0.473077
0.27772
0.185934
0.0724049
0.0587885
0.00272412
0.0240336
-0.0131481
0.0172926
-0.0158144
0.0162925
-0.0161792
0.0161578
-0.0162171
0.016179
-0.0161843
0.0161227
-0.0163783
0.0160131
-0.0160177
0.0166035
-0.0164125
0.0150411
-0.0163025
0.0182249
-0.0159328
0.0124744
-0.0163721
0.0207104
-0.0198067
0.0116991
-0.00584954
0.0136391
-0.0324545
0.0328443
-0.01034
-0.00924703
0.000801639
0.0199321
-0.0330376
0.0304524
-0.0270861
0.0262556
-0.0287543
0.0230291
-0.011407
-0.0078428
0.0236884
-0.0373891
0.0410398
-0.0418484
0.03441
-0.0285133
0.0175612
-0.00972467
0.370113
0.370113
1
1.06657
1.10893
1.0086
1.02557
0.865519
0.944777
0.750785
0.842077
0.75185
0.641468
0.842508
0.509032
0.732291
0.667975
0.493234
0.668768
0.654468
0.41976
0.668268
0.584154
0.532753
0.515307
0.63076
0.553795
0.63375
0.50376
0.598346
0.635389
0.760754
0.594471
0.645083
0.62304
0.781867
0.736639
0.890981
0.883981
1.0065
0.885906
0.921089
0.785671
0.800069
0.588176
0.508237
0.261215
0.218891
0.0511361
0.0871887
-0.0218227
0.0504698
-0.0387348
0.0432332
-0.0416183
0.0421451
-0.042016
0.0420001
-0.042055
0.0420219
-0.0420273
0.0419531
-0.0422242
0.0418747
-0.0418236
0.0424198
-0.0423496
0.0408917
-0.0419267
0.0440935
-0.0421882
0.0382651
-0.0415981
0.0462924
-0.0463302
0.0388071
-0.0315945
0.0367761
-0.0562861
0.0613619
-0.0410158
0.0173573
-0.0208605
0.0417316
-0.0585127
0.0577647
-0.0528885
0.0502849
-0.0539525
0.0523251
-0.0453785
0.0287373
-0.0123662
-0.00474223
0.0135391
-0.0201275
0.0182456
-0.0172959
0.0105801
-0.00952517
-0.363538
-0.363538
1
1.06837
1.1068
1.03644
1.04088
0.906955
0.960835
0.809616
0.834897
0.837424
0.61854
0.91469
0.527424
0.750996
0.708653
0.539912
0.644864
0.737149
0.421364
0.689287
0.602668
0.589132
0.501792
0.666177
0.555224
0.680633
0.501311
0.620695
0.612693
0.797295
0.594784
0.671045
0.593076
0.790336
0.703462
0.895587
0.848819
1.01977
0.864127
0.940722
0.762981
0.821133
0.572755
0.537899
0.249457
0.246894
0.0348788
0.11073
-0.0413846
0.0720057
-0.0593756
0.0642504
-0.0624889
0.0630686
-0.0629221
0.0629124
-0.0629625
0.0629343
-0.0629407
0.0628533
-0.0631378
0.0628083
-0.0627022
0.0632977
-0.0633532
0.0618339
-0.0626201
0.0649858
-0.0635187
0.0592039
-0.0619126
0.0668434
-0.067778
0.0610448
-0.0528138
0.0551812
-0.0745741
0.084203
-0.0670756
0.040148
-0.0380616
0.0579502
-0.0783489
0.0803751
-0.0745144
0.0694279
-0.0728499
0.0744073
-0.0724282
0.0598471
-0.0449579
0.0263787
-0.0138809
0.00237351
0.000993388
-0.00502335
0.00282183
-0.00235741
0.368047
0.368047
1
1.0689
1.1026
1.05735
1.05252
0.942399
0.970205
0.866736
0.819819
0.917954
0.597738
0.969508
0.555729
0.756053
0.745027
0.586836
0.616191
0.805527
0.432471
0.69757
0.61698
0.638628
0.492361
0.688071
0.556349
0.716967
0.503085
0.633462
0.590711
0.820597
0.598871
0.689512
0.568884
0.789655
0.675492
0.891791
0.819201
1.02441
0.848619
0.953353
0.747413
0.834868
0.563684
0.560097
0.244399
0.267952
0.0256005
0.127433
-0.0539847
0.0866643
-0.0730928
0.0783672
-0.0764489
0.0770856
-0.0769201
0.0769173
-0.0769622
0.0769388
-0.0769471
0.076846
-0.0771418
0.0768363
-0.0766769
0.0772605
-0.0774439
0.0758897
-0.0764103
0.0789246
-0.0779372
0.0733116
-0.0753525
0.0804022
-0.0821601
0.0763786
-0.0675155
0.0669892
-0.0854414
0.0992712
-0.0863267
0.05716
-0.0490669
0.0667257
-0.0903769
0.0960781
-0.0901037
0.0822005
-0.083983
0.0873875
-0.0900301
0.0824289
-0.0707963
0.0527867
-0.0383993
0.0233318
-0.0155693
0.00703981
-0.00496904
-0.00151441
-0.365906
-0.365906
1
1.06789
1.09796
1.07129
1.06159
0.972018
0.973672
0.921165
0.799731
0.989718
0.583663
1.00394
0.595159
0.748679
0.776577
0.632844
0.586884
0.856355
0.454678
0.694098
0.628266
0.679285
0.4899
0.696414
0.558854
0.741773
0.511288
0.63674
0.572064
0.83015
0.60844
0.700037
0.552719
0.779543
0.65455
0.878882
0.796703
1.01941
0.840601
0.957735
0.740231
0.840109
0.562256
0.573577
0.247287
0.280778
0.0245619
0.136022
-0.0583522
0.0931739
-0.0786139
0.0843117
-0.0822261
0.0829243
-0.0827379
0.0827429
-0.0827823
0.0827632
-0.0827744
0.0826594
-0.0829639
0.0826861
-0.0824763
0.0830367
-0.0833478
0.0817862
-0.0820305
0.0846386
-0.0841623
0.0793124
-0.0806581
0.0857153
-0.0881998
0.0834808
-0.0743935
0.0710283
-0.087745
0.10521
-0.0972586
0.0670758
-0.0528457
0.0669716
-0.0931739
0.1033
-0.0983608
0.0877613
-0.0867117
0.0903566
-0.0966729
0.0943322
-0.087295
0.0717756
-0.0574765
0.0405638
-0.0297157
0.0176357
-0.0119255
0.00544631
0.365596
0.365596
1
1.06511
1.09403
1.07856
1.06876
0.996304
0.972045
0.971781
0.777806
1.04916
0.580267
1.01633
0.645602
0.731098
0.802626
0.676755
0.560792
0.887527
0.488353
0.680658
0.637444
0.709688
0.496292
0.692102
0.563739
0.754708
0.52711
0.631252
0.558447
0.826148
0.62413
0.702704
0.545713
0.760353
0.641408
0.856832
0.781897
1.00452
0.840375
0.95345
0.741803
0.83654
0.568898
0.57795
0.258507
0.284952
0.0321622
0.136084
-0.0540765
0.0911232
-0.0755271
0.0816727
-0.0794086
0.080173
-0.0799637
0.0799775
-0.080011
0.079996
-0.080011
0.0798819
-0.0801926
0.0799458
-0.0796892
0.0802157
-0.0806514
0.0791101
-0.0790737
0.0817182
-0.0817736
0.0767894
-0.0774274
0.0823901
-0.0854883
0.0818874
-0.0729849
0.0669697
-0.0812257
0.101566
-0.0992093
0.0693762
-0.0492079
0.058529
-0.0862458
0.101282
-0.0986983
0.0860069
-0.0812983
0.0835004
-0.092047
0.0945699
-0.0928753
0.0814318
-0.0691438
0.0522717
-0.0399631
0.0256522
-0.0173689
0.00529471
-0.368205
-0.368205
1
1.0605
1.09148
1.07992
1.07425
1.01602
0.966152
1.01737
0.757251
1.09323
0.590456
1.00657
0.705539
0.706403
0.82239
0.717461
0.541152
0.898288
0.532557
0.659748
0.645072
0.729104
0.512259
0.67693
0.57125
0.756144
0.550629
0.61839
0.550557
0.809581
0.645507
0.698233
0.547873
0.733173
0.635803
0.826418
0.774357
0.98041
0.847302
0.940978
0.751556
0.824758
0.583115
0.573754
0.277521
0.280972
0.0478792
0.128123
-0.0416683
0.0810214
-0.0643406
0.0709591
-0.0685049
0.0693405
-0.0691064
0.0691298
-0.069157
0.0691458
-0.0691655
0.0690223
-0.0693365
0.0691234
-0.0688246
0.069307
-0.0698618
0.0683683
-0.0680531
0.0706752
-0.0712717
0.0662447
-0.0661769
0.0709549
-0.0745444
0.0720611
-0.0637322
0.0553825
-0.0665611
0.0888512
-0.0924388
0.0643988
-0.0388444
0.0422179
-0.0701119
0.0901792
-0.0913062
0.0775858
-0.0688858
0.0680932
-0.0770965
0.083446
-0.0871595
0.0808611
-0.0722333
0.0572514
-0.0452427
0.0302504
-0.0206712
0.0105201
0.363671
0.363671
1
1.05422
1.09043
1.07652
1.07785
1.03208
0.956862
1.05671
0.741061
1.11968
0.61577
0.976286
0.772121
0.678325
0.835062
0.753997
0.530338
0.889332
0.585092
0.634413
0.651317
0.737556
0.537315
0.653495
0.580899
0.747174
0.580843
0.600175
0.548138
0.782236
0.671152
0.687985
0.558174
0.699827
0.636545
0.789213
0.772749
0.948562
0.859867
0.92166
0.768032
0.806221
0.603534
0.562404
0.302921
0.270216
0.0703131
0.113524
-0.0225158
0.0642547
-0.0464407
0.0535574
-0.0509012
0.0518131
-0.0515519
0.0515859
-0.0516067
0.0515987
-0.0516238
0.0514671
-0.0517819
0.0516047
-0.0512689
0.0516979
-0.052364
0.0509447
-0.0503586
0.0528995
-0.0540353
0.049057
-0.0482981
0.0528141
-0.0567706
0.0553505
-0.047944
0.0376879
-0.0453141
0.0685046
-0.0781008
0.0532988
-0.0232643
0.0197776
-0.0462773
0.0710605
-0.0771345
0.0638261
-0.0513735
0.0463668
-0.0539296
0.0625408
-0.0710326
0.0703043
-0.0665225
0.0550367
-0.045026
0.0309621
-0.021543
0.00812421
-0.369572
-0.369572
1
1.04663
1.09054
1.06986
1.07906
1.04548
0.945084
1.08864
0.731764
1.12733
0.656205
0.928716
0.841376
0.650926
0.839934
0.785597
0.529708
0.862761
0.64268
0.608022
0.655992
0.735821
0.569855
0.625013
0.59158
0.729549
0.615801
0.579135
0.550121
0.746594
0.698852
0.673876
0.574741
0.662758
0.641698
0.747472
0.775004
0.91119
0.87584
0.897558
0.789035
0.783106
0.62805
0.546049
0.332564
0.254796
0.0973293
0.0944048
0.00125802
0.0429444
-0.0239479
0.0315887
-0.0287181
0.0297117
-0.0294212
0.0294667
-0.0294807
0.0294756
-0.029507
0.0293371
-0.0296496
0.0295101
-0.0291433
0.0295104
-0.0302777
0.0289575
-0.0281146
0.0305166
-0.0321791
0.0273389
-0.0259147
0.0301054
-0.0343096
0.0338492
-0.0276557
0.0160133
-0.0197816
0.0427497
-0.0581145
0.0379129
-0.0046358
-0.00629992
-0.0170969
0.0458066
-0.0577928
0.0465852
-0.031206
0.0212686
-0.0255952
0.0345502
-0.0465605
0.0511257
-0.052773
0.0459619
-0.0393928
0.0277484
-0.019854
0.0108015
0.362991
0.362991
1
1.03829
1.09108
1.06161
1.07725
1.05715
0.931777
1.11218
0.731221
1.11624
0.710178
0.868519
0.90856
0.628249
0.836523
0.811725
0.53955
0.821926
0.701258
0.584004
0.65864
0.725357
0.607339
0.595066
0.601754
0.705531
0.652833
0.558108
0.554836
0.70565
0.725859
0.658198
0.595093
0.624832
0.648823
0.703916
0.778562
0.870993
0.892512
0.871222
0.811869
0.758078
0.654058
0.527344
0.363806
0.237329
0.126287
0.0733886
0.0270228
0.0197184
0.0005099
0.00768117
-0.0045834
0.00566418
-0.005342
0.00540017
-0.0054071
0.00540434
-0.00544263
0.00526039