# vtk DataFile Version 2.0
FlowField
ASCII
DATASET STRUCTURED_GRID
DIMENSIONS 100 1 100
POINTS 10000 float
0 0 0
0.01 0 0
0.02 0 0
0.03 0 0
0.04 0 0
0.05 0 0
0.06 0 0
0.07 0 0
0.08 0 0
0.09 0 0
0.1 0 0
0.11 0 0
0.12 0 0
0.13 0 0
0.14 0 0
0.15 0 0
0.16 0 0
0.17 0 0
0.18 0 0
0.19 0 0
0.2 0 0
0.21 0 0
0.22 0 0
0.23 0 0
0.24 0 0
0.25 0 0
0.26 0 0
0.27 0 0
0.28 0 0
0.29 0 0
0.3 0 0
0.31 0 0
0.32 0 0
0.33 0 0
0.34 0 0
0.35 0 0
0.36 0 0
0.37 0 0
0.38 0 0
0.39 0 0
0.4 0 0
0.41 0 0
0.42 0 0
0.43 0 0
0.44 0 0
0.45 0 0
0.46 0 0
0.47 0 0
0.48 0 0
0.49 0 0
0.5 0 0
0.51 0 0
0.52 0 0
0.53 0 0
0.54 0 0
0.55 0 0
0.56 0 0
0.57 0 0
0.58 0 0
0.59 0 0
0.6 0 0
0.61 0 0
0.62 0 0
0.63 0 0
0.64 0 0
0.65 0 0
0.66 0 0
0.67 0 0
0.68 0 0
0.69 0 0
0.7 0 0
0.71 0 0
0.72 0 0
0.73 0 0
0.74 0 0
0.75 0 0
0.76 0 0
0.77 0 0
0.78 0 0
0.79 0 0
0.8 0 0
0.81 0 0
0.82 0 0
0.83 0 0
0.84 0 0
0.85 0 0
0.86 0 0
0.87 0 0
0.88 0 0
0.89 0 0
0.9 0 0
0.91 0 0
0.92 0 0
0.93 0 0
0.94 0 0
0.95 0 0
0.96 0 0
0.97 0 0
0.98 0 0
0.99 0 0
0 0.001 0
0.01 0.001 0
0.02 0.001 0
0.03 0.001 0
0.04 0.001 0
0.05 0.001 0
0.06 0.001 0
0.07 0.001 0
0.08 0.001 0
0.09 0.001 0
0.1 0.001 0
0.11 0.001 0
0.12 0.001 0
0.13 0.001 0
0.14 0.001 0
0.15 0.001 0
0.16 0.001 0
0.17 0.001 0
0.18 0.001 0
0.19 0.001 0
0.2 0.001 0
0.21 0.001 0
0.22 0.001 0
0.23 0.001 0
0.24 0.001 0
0.25 0.001 0
0.26 0.001 0
0.27 0.001 0
0.28 0.001 0
0.29 0.001 0
0.3 0.001 0
0.31 0.001 0
0.32 0.001 0
0.33 0.001 0
0.34 0.001 0
0.35 0.001 0
0.36 0.001 0
0.37 0.001 0
0.38 0.001 0
0.39 0.001 0
0.4 0.001 0
0.41 0.001 0
0.42 0.001 0
0.43 0.001 0
0.44 0.001 0
0.45 0.001 0
0.46 0.001 0
0.47 0.001 0
0.48 0.001 0
0.49 0.001 0
0.5 0.001 0
0.51 0.001 0
0.52 0.001 0
0.53 0.001 0
0.54 0.001 0
0.55 0.001 0
0.56 0.001 0
0.57 0.001 0
0.58 0.001 0
0.59 0.001 0
0.6 0.001 0
0.61 0.001 0
0.62 0.001 0
0.63 0.001 0
0.64 0.001 0
0.65 0.001 0
0.66 0.001 0
0.67 0.001 0
0.68 0.001 0
0.69 0.001 0
0.7 0.001 0
0.71 0.001 0
0.72 0.001 0
0.73 0.001 0
0.74 0.001 0
0.75 0.001 0
0.76 0.001 0
0.77 0.001 0
0.78 0.001 0
0.79 0.001 0
0.8 0.001 0
0.81 0.001 0
0.82 0.001 0
0.83 0.001 0
0.84 0.001 0
0.85 0.001 0
0.86 0.001 0
0.87 0.001 0
0.88 0.001 0
0.89 0.001 0
0.9 0.001 0
0.91 0.001 0
0.92 0.001 0
0.93 0.001 0
0.94 0.001 0
0.95 0.001 0
0.96 0.001 0
0.97 0.001 0
0.98 0.001 0
0.99 0.001 0
0 0.002 0
0.01 0.002 0
0.02 0.002 0
0.03 0.002 0
0.04 0.002 0
0.05 0.002 0
0.06 0.002 0
0.07 0.002 0
0.08 0.002 0
0.09 0.002 0
0.1 0.002 0
0.11 0.002 0
0.12 0.002 0
0.13 0.002 0
0.14 0.002 0
0.15 0.002 0
0.16 0.002 0
0.17 0.002 0
0.18 0.002 0
0.19 0.002 0
0.2 0.002 0
0.21 0.002 0
0.22 0.002 0
0.23 0.002 0
0.24 0.002 0
0.25 0.002 0
0.26 0.002 0
0.27 0.002 0
0.28 0.002 0
0.29 0.002 0
0.3 0.002 0
0.31 0.002 0
0.32 0.002 0
0.33 0.002 0
0.34 0.002 0
0.35 0.002 0
0.36 0.002 0
0.37 0.002 0
0.38 0.002 0
0.39 0.002 0
0.4 0.002 0
0.41 0.002 0
0.42 0.002 0
0.43 0.002 0
0.44 0.002 0
0.45 0.002 0
0.46 0.002 0
0.47 0.002 0
0.48 0.002 0
0.49 0.002 0
0.5 0.002 0
0.51 0.002 0
0.52 0.002 0
0.53 0.002 0
0.54 0.002 0
0.55 0.002 0
0.56 0.002 0
0.57 0.002 0
0.58 0.002 0
0.59 0.002 0
0.6 0.002 0
0.61 0.002 0
0.62 0.002 0
0.63 0.002 0
0.64 0.002 0
0.65 0.002 0
0.66 0.002 0
0.67 0.002 0
0.68 0.002 0
0.69 0.002 0
0.7 0.002 0
0.71 0.002 0
0.72 0.002 0
0.73 0.002 0
0.74 0.002 0
0.75 0.002 0
0.76 0.002 0
0.77 0.002 0
0.78 0.002 0
0.79 0.002 0
0.8 0.002 0
0.81 0.002 0
0.82 0.002 0
0.83 0.002 0
0.84 0.002 0
0.85 0.002 0
0.86 0.002 0
0.87 0.002 0
0.88 0.002 0
0.89 0.002 0
0.9 0.002 0
0.91 0.002 0
0.92 0.002 0
0.93 0.002 0
0.94 0.002 0
0.95 0.002 0
0.96 0.002 0
0.97 0.002 0
0.98 0.002 0
0.99 0.002 0
0 0.003 0
0.01 0.003 0
0.02 0.003 0
0.03 0.003 0
0.04 0.003 0
0.05 0.003 0
0.06 0.003 0
0.07 0.003 0
0.08 0.003 0
0.09 0.003 0
0.1 0.003 0
0.11 0.003 0
0.12 0.003 0
0.13 0.003 0
0.14 0.003 0
0.15 0.003 0
0.16 0.003 0
0.17 0.003 0
0.18 0.003 0
0.19 0.003 0
0.2 0.003 0
0.21 0.003 0
0.22 0.003 0
0.23 0.003 0
0.24 0.003 0
0.25 0.003 0
0.26 0.003 0
0.27 0.003 0
0.28 0.003 0
0.29 0.003 0
0.3 0.003 0
0.31 0.003 0
0.32 0.003 0
0.33 0.003 0
0.34 0.003 0
0.35 0.003 0
0.36 0.003 0
0.37 0.003 0
0.38 0.003 0
0.39 0.003 0
0.4 0.003 0
0.41 0.003 0
0.42 0.003 0
0.43 0.003 0
0.44 0.003 0
0.45 0.003 0
0.46 0.003 0
0.47 0.003 0
0.48 0.003 0
0.49 0.003 0
0.5 0.003 0
0.51 0.003 0
0.52 0.003 0
0.53 0.003 0
0.54 0.003 0
0.55 0.003 0
0.56 0.003 0
0.57 0.003 0
0.58 0.003 0
0.59 0.003 0
0.6 0.003 0
0.61 0.003 0
0.62 0.003 0
0.63 0.003 0
0.64 0.003 0
0.65 0.003 0
0.66 0.003 0
0.67 0.003 0
0.68 0.003 0
0.69 0.003 0
0.7 0.003 0
0.71 0.003 0
0.72 0.003 0
0.73 0.003 0
0.74 0.003 0
0.75 0.003 0
0.76 0.003 0
0.77 0.003 0
0.78 0.003 0
0.79 0.003 0
0.8 0.003 0
0.81 0.003 0
0.82 0.003 0
0.83 0.003 0
0.84 0.003 0
0.85 0.003 0
0.86 0.003 0
0.87 0.003 0
0.88 0.003 0
0.89 0.003 0
0.9 0.003 0
0.91 0.003 0
0.92 0.003 0
0.93 0.003 0
0.94 0.003 0
0.95 0.003 0
0.96 0.003 0
0.97 0.003 0
0.98 0.003 0
0.99 0.003 0
0 0.004 0
0.01 0.004 0
0.02 0.004 0
0.03 0.004 0
0.04 0.004 0
0.05 0.004 0
0.06 0.004 0
0.07 0.004 0
0.08 0.004 0
0.09 0.004 0
0.1 0.004 0
0.11 0.004 0
0.12 0.004 0
0.13 0.004 0
0.14 0.004 0
0.15 0.004 0
0.16 0.004 0
0.17 0.004 0
0.18 0.004 0
0.19 0.004 0
0.2 0.004 0
0.21 0.004 0
0.22 0.004 0
0.23 0.004 0
0.24 0.004 0
0.25 0.004 0
0.26 0.004 0
0.27 0.004 0
0.28 0.004 0
0.29 0.004 0
0.3 0.004 0
0.31 0.004 0
0.32 0.004 0
0.33 0.004 0
0.34 0.004 0
0.35 0.004 0
0.36 0.004 0
0.37 0.004 0
0.38 0.004 0
0.39 0.004 0
0.4 0.004 0
0.41 0.004 0
0.42 0.004 0
0.43 0.004 0
0.44 0.004 0
0.45 0.004 0
0.46 0.004 0
0.47 0.004 0
0.48 0.004 0
0.49 0.004 0
0.5 0.004 0
0.51 0.004 0
0.52 0.004 0
0.53 0.004 0
0.54 0.004 0
0.55 0.004 0
0.56 0.004 0
0.57 0.004 0
0.58 0.004 0
0.59 0.004 0
0.6 0.004 0
0.61 0.004 0
0.62 0.004 0
0.63 0.004 0
0.64 0.004 0
0.65 0.004 0
0.66 0.004 0
0.67 0.004 0
0.68 0.004 0
0.69 0.004 0
0.7 0.004 0
0.71 0.004 0
0.72 0.004 0
0.73 0.004 0
0.74 0.004 0
0.75 0.004 0
0.76 0.004 0
0.77 0.004 0
0.78 0.004 0
0.79 0.004 0
0.8 0.004 0
0.81 0.004 0
0.82 0.004 0
0.83 0.004 0
0.84 0.004 0
0.85 0.004 0
0.86 0.004 0
0.87 0.004 0
0.88 0.004 0
0.89 0.004 0
0.9 0.004 0
0.91 0.004 0
0.92 0.004 0
0.93 0.004 0
0.94 0.004 0
0.95 0.004 0
0.96 0.004 0
0.97 0.004 0
0.98 0.004 0
0.99 0.004 0
0 0.005 0
0.01 0.005 0
0.02 0.005 0
0.03 0.005 0
0.04 0.005 0
0.05 0.005 0
0.06 0.005 0
0.07 0.005 0
0.08 0.005 0
0.09 0.005 0
0.1 0.005 0
0.11 0.005 0
0.12 0.005 0
0.13 0.005 0
0.14 0.005 0
0.15 0.005 0
0.16 0.005 0
0.17 0.005 0
0.18 0.005 0
0.19 0.005 0
0.2 0.005 0
0.21 0.005 0
0.22 0.005 0
0.23 0.005 0
0.24 0.005 0
0.25 0.005 0
0.26 0.005 0
0.27 0.005 0
0.28 0.005 0
0.29 0.005 0
0.3 0.005 0
0.31 0.005 0
0.32 0.005 0
0.33 0.005 0
0.34 0.005 0
0.35 0.005 0
0.36 0.005 0
0.37 0.005 0
0.38 0.005 0
0.39 0.005 0
0.4 0.005 0
0.41 0.005 0
0.42 0.005 0
0.43 0.005 0
0.44 0.005 0
0.45 0.005 0
0.46 0.005 0
0.47 0.005 0
0.48 0.005 0
0.49 0.005 0
0.5 0.005 0
0.51 0.005 0
0.52 0.005 0
0.53 0.005 0
0.54 0.005 0
0.55 0.005 0
0.56 0.005 0
0.57 0.005 0
0.58 0.005 0
0.59 0.005 0
0.6 0.005 0
0.61 0.005 0
0.62 0.005 0
0.63 0.005 0
0.64 0.005 0
0.65 0.005 0
0.66 0.005 0
0.67 0.005 0
0.68 0.005 0
0.69 0.005 0
0.7 0.005 0
0.71 0.005 0
0.72 0.005 0
0.73 0.005 0
0.74 0.005 0
0.75 0.005 0
0.76 0.005 0
0.77 0.005 0
0.78 0.005 0
0.79 0.005 0
0.8 0.005 0
0.81 0.005 0
0.82 0.005 0
0.83 0.005 0
0.84 0.005 0
0.85 0.005 0
0.86 0.005 0
0.87 0.005 0
0.88 0.005 0
0.89 0.005 0
0.9 0.005 0
0.91 0.005 0
0.92 0.005 0
0.93 0.005 0
0.94 0.005 0
0.95 0.005 0
0.96 0.005 0
0.97 0.005 0
0.98 0.005 0
0.99 0.005 0
0 0.006 0
0.01 0.006 0
0.02 0.006 0
0.03 0.006 0
0.04 0.006 0
0.05 0.006 0
0.06 0.006 0
0.07 0.006 0
0.08 0.006 0
0.09 0.006 0
0.1 0.006 0
0.11 0.006 0
0.12 0.006 0
0.13 0.006 0
0.14 0.006 0
0.15 0.006 0
0.16 0.006 0
0.17 0.006 0
0.18 0.006 0
0.19 0.006 0
0.2 0.006 0
0.21 0.006 0
0.22 0.006 0
0.23 0.006 0
0.24 0.006 0
0.25 0.006 0
0.26 0.006 0
0.27 0.006 0
0.28 0.006 0
0.29 0.006 0
0.3 0.006 0
0.31 0.006 0
0.32 0.006 0
0.33 0.006 0
0.34 0.006 0
0.35 0.006 0
0.36 0.006 0
0.37 0.006 0
0.38 0.006 0
0.39 0.006 0
0.4 0.006 0
0.41 0.006 0
0.42 0.006 0
0.43 0.006 0
0.44 0.006 0
0.45 0.006 0
0.46 0.006 0
0.47 0.006 0
0.48 0.006 0
0.49 0.006 0
0.5 0.006 0
0.51 0.006 0
0.52 0.006 0
0.53 0.006 0
0.54 0.006 0
0.55 0.006 0
0.56 0.006 0
0.57 0.006 0
0.58 0.006 0
0.59 0.006 0
0.6 0.006 0
0.61 0.006 0
0.62 0.006 0
0.63 0.006 0
0.64 0.006 0
0.65 0.006 0
0.66 0.006 0
0.67 0.006 0
0.68 0.006 0
0.69 0.006 0
0.7 0.006 0
0.71 0.006 0
0.72 0.006 0
0.73 0.006 0
0.74 0.006 0
0.75 0.006 0
0.76 0.006 0
0.77 0.006 0
0.78 0.006 0
0.79 0.006 0
0.8 0.006 0
0.81 0.006 0
0.82 0.006 0
0.83 0.006 0
0.84 0.006 0
0.85 0.006 0
0.86 0.006 0
0.87 0.006 0
0.88 0.006 0
0.89 0.006 0
0.9 0.006 0
0.91 0.006 0
0.92 0.006 0
0.93 0.006 0
0.94 0.006 0
0.95 0.006 0
0.96 0.006 0
0.97 0.006 0
0.98 0.006 0
0.99 0.006 0
0 0.007 0
0.01 0.007 0
0.02 0.007 0
0.03 0.007 0
0.04 0.007 0
0.05 0.007 0
0.06 0.007 0
0.07 0.007 0
0.08 0.007 0
0.09 0.007 0
0.1 0.007 0
0.11 0.007 0
0.12 0.007 0
0.13 0.007 0
0.14 0.007 0
0.15 0.007 0
0.16 0.007 0
0.17 0.007 0
0.18 0.007 0
0.19 0.007 0
0.2 0.007 0
0.21 0.007 0
0.22 0.007 0
0.23 0.007 0
0.24 0.007 0
0.25 0.007 0
0.26 0.007 0
0.27 0.007 0
0.28 0.007 0
0.29 0.007 0
0.3 0.007 0
0.31 0.007 0
0.32 0.007 0
0.33 0.007 0
0.34 0.007 0
0.35 0.007 0
0.36 0.007 0
0.37 0.007 0
0.38 0.007 0
0.39 0.007 0
0.4 0.007 0
0.41 0.007 0
0.42 0.007 0
0.43 0.007 0
0.44 0.007 0
0.45 0.007 0
0.46 0.007 0
0.47 0.007 0
0.48 0.007 0
0.49 0.007 0
0.5 0.007 0
0.51 0.007 0
0.52 0.007 0
0.53 0.007 0
0.54 0.007 0
0.55 0.007 0
0.56 0.007 0
0.57 0.007 0
0.58 0.007 0
0.59 0.007 0
0.6 0.007 0
0.61 0.007 0
0.62 0.007 0
0.63 0.007 0
0.64 0.007 0
0.65 0.007 0
0.66 0.007 0
0.67 0.007 0
0.68 0.007 0
0.69 0.007 0
0.7 0.007 0
0.71 0.007 0
0.72 0.007 0
0.73 0.007 0
0.74 0.007 0
0.75 0.007 0
0.76 0.007 0
0.77 0.007 0
0.78 0.007 0
0.79 0.007 0
0.8 0.007 0
0.81 0.007 0
0.82 0.007 0
0.83 0.007 0
0.84 0.007 0
0.85 0.007 0
0.86 0.007 0
0.87 0.007 0
0.88 0.007 0
0.89 0.007 0
0.9 0.007 0
0.91 0.007 0
0.92 0.007 0
0.93 0.007 0
0.94 0.007 0
0.95 0.007 0
0.96 0.007 0
0.97 0.007 0
0.98 0.007 0
[...]
POINT_DATA 10000

SCALARS vel_X float 1
LOOKUP_TABLE default
0
0
0
0
0
0
0
0
0
0
0
0
0
0
0
0
0
0
0
0
0
0
0
0
0
0
0
0
0
0
0
0
0
0
0
0
0
0
0
0
0
0
0
0
0
0
0
0
0
0
0
0
0
0
0
0
0
0
0
0
0
0
0
0
0
0
0
0
0
0
0
0
0
0
0
0
0
0
0
0
0
0
0
0
0
0
0
0
0
0
0
0
0
0
0
0
0
0
0
0
1
0.345334
0.272934
0.225969
0.266819
0.269121
0.263841
0.372447
0.428793
0.320879
0.167657
0.0647224
0.0208737
0.00471154
0.00170037
-0.000321759
0.00058054
-0.00053753
0.000543935
-0.000543072
0.000543178
-0.000543166
0.000543167
-0.000543167
0.000543167
-0.000543167
0.000543167
-0.000543167
0.000543167
-0.000543167
0.000543167
-0.000543167
0.000543167
-0.000543167
0.000543167
-0.000543167
0.000543167
-0.000543167
0.000543167
-0.000543167
0.000543167
-0.000543167
0.000543167
-0.000543167
0.000543167
-0.000543167
0.000543167
-0.000543167
0.000543167
-0.000543167
0.000543167
-0.000543167
0.000543167
-0.000543167
0.000543167
-0.000543167
0.000543167
-0.000543167
0.000543167
-0.000543167
0.000543167
-0.000543167
0.000543167
-0.000543167
0.000543167
-0.000543167
0.000543167
-0.000543167
0.000543167
-0.000543167
0.000543167
-0.000543167
0.000543167
-0.000543167
0.000543167
-0.000543167
0.000543167
-0.000543167
0.000543167
-0.000543167
0.000543167
-0.000543167
0.000543163
-0.000543203
0.000542863
-0.000545184
0.000533145
-0.00057771
0.000473914
-0.000574327
0.000673614
-0.000567926
-0.000101711
-0.000384495
0.00139281
-0.00216582
0.00130253
-0.00276293
-0.0871262
-0.0871262
1
0.608917
0.506295
0.442578
0.499595
0.501172
0.510488
0.656969
0.694565
0.496565
0.253432
0.0963475
0.0310216
0.00679974
0.00264514
-0.000617674
0.00099814
-0.000934868
0.000944301
-0.000943028
0.000943185
-0.000943167
0.000943169
-0.000943169
0.000943169
-0.000943169
0.000943169
-0.000943169
0.000943169
-0.000943169
0.000943169
-0.000943169
0.000943169
-0.000943169
0.000943169
-0.000943169
0.000943169
-0.000943169
0.000943169
-0.000943169
0.000943169
-0.000943169
0.000943169
-0.000943169
0.000943169
-0.000943169
0.000943169
-0.000943169
0.000943169
-0.000943169
0.000943169
-0.000943169
0.000943169
-0.000943169
0.000943169
-0.000943169
0.000943169
-0.000943169
0.000943169
-0.000943169
0.000943169
-0.000943169
0.000943169
-0.000943169
0.000943169
-0.000943169
0.000943169
-0.000943169
0.000943169
-0.000943169
0.000943169
-0.000943169
0.000943169
-0.000943169
0.000943169
-0.000943169
0.000943169
-0.000943169
0.000943169
-0.000943169
0.000943169
-0.000943169
0.000943164
-0.000943222
0.000942721
-0.000946134
0.000928418
-0.000994434
0.000837272
-0.00100531
0.00111009
-0.000959169
3.7756e-05
-0.000876657
0.00212353
-0.00306752
0.00164387
-0.00215419
0.112418
0.112418
1
0.799211
0.700423
0.634643
0.688743
0.696133
0.707762
0.842093
0.843384
0.592747
0.301148
0.115468
0.0368954
0.00865324
0.0028133
-0.000330268
0.00080047
-0.000721557
0.00073343
-0.000731813
0.000732014
-0.000731991
0.000731993
-0.000731993
0.000731993
-0.000731993
0.000731993
-0.000731993
0.000731993
-0.000731993
0.000731993
-0.000731993
0.000731993
-0.000731993
0.000731993
-0.000731993
0.000731993
-0.000731993
0.000731993
-0.000731993
0.000731993
-0.000731993
0.000731993
-0.000731993
0.000731993
-0.000731993
0.000731993
-0.000731993
0.000731993
-0.000731993
0.000731993
-0.000731993
0.000731993
-0.000731993
0.000731993
-0.000731993
0.000731993
-0.000731993
0.000731993
-0.000731993
0.000731993
-0.000731993
0.000731993
-0.000731993
0.000731993
-0.000731993
0.000731993
-0.000731993
0.000731993
-0.000731993
0.000731993
-0.000731993
0.000731993
-0.000731993
0.000731993
-0.000731993
0.000731993
-0.000731993
0.000731993
-0.000731993
0.000731993
-0.000731994
0.000731987
-0.000732061
0.000731434
-0.000735626
0.000714258
-0.000792523
0.000608684
-0.000807476
0.000900374
-0.000779187
-0.000251072
-0.000676753
0.00184042
-0.002932
0.0014203
-0.00269216
-0.0970834
-0.0970834
1
0.929872
0.855058
0.792408
0.834955
0.848917
0.846364
0.947517
0.920654
0.648439
0.332281
0.130091
0.0413353
0.0106396
0.00262932
0.000283712
0.000275304
-0.000180278
0.000194751
-0.000192757
0.000193007
-0.000192978
0.000192981
-0.000192981
0.000192981
-0.000192981
0.000192981
-0.000192981
0.000192981
-0.000192981
0.000192981
-0.000192981
0.000192981
-0.000192981
0.000192981
-0.000192981
0.000192981
-0.000192981
0.000192981
-0.000192981
0.000192981
-0.000192981
0.000192981
-0.000192981
0.000192981
-0.000192981
0.000192981
-0.000192981
0.000192981
-0.000192981
0.000192981
-0.000192981
0.000192981
-0.000192981
0.000192981
-0.000192981
0.000192981
-0.000192981
0.000192981
-0.000192981
0.000192981
-0.000192981
0.000192981
-0.000192981
0.000192981
-0.000192981
0.000192981
-0.000192981
0.000192981
-0.000192981
0.000192981
-0.000192981
0.000192981
-0.000192981
0.000192981
-0.000192981
0.000192981
-0.000192981
0.000192981
-0.000192981
0.000192981
-0.000192982
0.000192973
-0.000193064
0.000192308
-0.000197241
0.000172764
-0.000259788
6.23172e-05
-0.000266483
0.000355909
-0.000303644
-0.000801295
-4.06227e-05
0.00106323
-0.00237525
0.00107709
-0.00132405
0.107025
0.107025
1
1.01485
0.971038
0.913584
0.941781
0.958613
0.933808
0.999878
0.958303
0.684157
0.356432
0.143144
0.0455074
0.0126983
0.00240905
0.00096002
-0.000303799
0.000416933
-0.000399471
0.000401908
-0.000401598
0.000401634
-0.00040163
0.00040163
-0.00040163
0.00040163
-0.00040163
0.00040163
-0.00040163
0.00040163
-0.00040163
0.00040163
-0.00040163
0.00040163
-0.00040163
0.00040163
-0.00040163
0.00040163
-0.00040163
0.00040163
-0.00040163
0.00040163
-0.00040163
0.00040163
-0.00040163
0.00040163
-0.00040163
0.00040163
-0.00040163
0.00040163
-0.00040163
0.00040163
-0.00040163
0.00040163
-0.00040163
0.00040163
-0.00040163
0.00040163
-0.00040163
0.00040163
-0.00040163
0.00040163
-0.00040163
0.00040163
-0.00040163
0.00040163
-0.00040163
0.00040163
-0.00040163
0.00040163
-0.00040163
0.00040163
-0.00040163
0.00040163
-0.00040163
0.00040163
-0.00040163
0.00040163
-0.00040163
0.00040163
-0.00040163
0.00040163
-0.000401641
0.000401529
-0.000402429
0.000396717
-0.000424221
0.000329824
-0.000534422
0.000339543
-0.000243414
0.00021474
-0.00138169
0.000705031
0.000197266
-0.00173554
0.000756701
-0.00177747
-0.100137
-0.100137
1
1.06615
1.05159
1.00085
1.01423
1.03028
0.984134
1.02128
0.975334
0.709833
0.377525
0.155652
0.0498172
0.0147789
0.00228197
0.00158544
-0.000820473
0.000954286
-0.000933347
0.000936307
-0.000935925
0.00093597
-0.000935966
0.000935966
-0.000935966
0.000935966
-0.000935966
0.000935966
-0.000935966
0.000935966
-0.000935966
0.000935966
-0.000935966
0.000935966
-0.000935966
0.000935966
-0.000935966
0.000935966
-0.000935966
0.000935966
-0.000935966
0.000935966
-0.000935966
0.000935966
-0.000935966
0.000935966
-0.000935966
0.000935966
-0.000935966
0.000935966
-0.000935966
0.000935966
-0.000935966
0.000935966
-0.000935966
0.000935966
-0.000935966
0.000935966
-0.000935966
0.000935966
-0.000935966
0.000935966
-0.000935966
0.000935966
-0.000935966
0.000935966
-0.000935966
0.000935966
-0.000935966
0.000935966
-0.000935966
0.000935966
-0.000935966
0.000935966
-0.000935966
0.000935966
-0.000935966
0.000935966
-0.000935966
0.000935966
-0.000935966
0.000935965
-0.000935979
0.000935844
-0.000936904
0.000930354
-0.000960926
0.000859873
-0.00106786
0.000890134
-0.000782248
0.000672596
-0.00188345
0.00139746
-0.000599288
-0.00110769
0.000476146
-0.000509006
0.105187
0.105187
1
1.09344
1.10204
1.05931
1.0586
1.07243
1.01087
1.02654
0.981951
0.729981
0.397017
0.167945
0.0543703
0.0168729
0.00227907
0.00213469
-0.00124798
0.00140538
-0.00138041
0.00138398
-0.00138352
0.00138357
-0.00138357
0.00138357
-0.00138357
0.00138357
-0.00138357
0.00138357
-0.00138357
0.00138357
-0.00138357
0.00138357
-0.00138357
0.00138357
-0.00138357
0.00138357
-0.00138357
0.00138357
-0.00138357
0.00138357
-0.00138357
0.00138357
-0.00138357
0.00138357
-0.00138357
0.00138357
-0.00138357
0.00138357
-0.00138357
0.00138357
-0.00138357
0.00138357
-0.00138357
0.00138357
-0.00138357
0.00138357
-0.00138357
0.00138357
-0.00138357
0.00138357
-0.00138357
0.00138357
-0.00138357
0.00138357
-0.00138357
0.00138357
-0.00138357
0.00138357
-0.00138357
0.00138357
-0.00138357
0.00138357
-0.00138357
0.00138357
-0.00138357
0.00138357
-0.00138357
0.00138357
-0.00138357
0.00138357
-0.00138357
0.00138357
-0.00138358
0.00138342
-0.00138466
0.00137721
-0.0014109
0.00130376
-0.00151248
0.00135603
-0.00123633
0.00104903
-0.002279
0.00198582
-0.00129525
-0.000500271
0.00019279
-0.00107246
-0.10133
-0.10133
1
1.10424
1.12881
1.09493
1.08184
1.09396
1.02412
1.02436
0.9833
0.746571
0.415383
0.180088
0.0591772
0.0189802
0.002405
0.00260555
-0.00158317
0.00176734
-0.00173771
0.00174201
-0.00174144
0.00174151
-0.0017415
0.0017415
-0.0017415
0.0017415
-0.0017415
0.0017415
-0.0017415
0.0017415
-0.0017415
0.0017415
-0.0017415
0.0017415
-0.0017415
0.0017415
-0.0017415
0.0017415
-0.0017415
0.0017415
-0.0017415
0.0017415
-0.0017415
0.0017415
-0.0017415
0.0017415
-0.0017415
0.0017415
-0.0017415
0.0017415
-0.0017415
0.0017415
-0.0017415
0.0017415
-0.0017415
0.0017415
-0.0017415
0.0017415
-0.0017415
0.0017415
-0.0017415
0.0017415
-0.0017415
0.0017415
-0.0017415
0.0017415
-0.0017415
0.0017415
-0.0017415
0.0017415
-0.0017415
0.0017415
-0.0017415
0.0017415
-0.0017415
0.0017415
-0.0017415
0.0017415
-0.0017415
0.0017415
-0.0017415
0.0017415
-0.00174152
0.00174133
-0.00174277
0.00173436
-0.0017712
0.00165855
-0.00186575
0.00173271
-0.00160431
0.00134321
-0.0025654
0.00245746
-0.00188898
8.0841e-05
-8.72611e-05
0.000109507
0.104349
0.104349
1
1.10436
1.13826
1.11355
1.09057
1.10222
1.03034
1.01935
0.98191
0.760464
0.432747
0.192054
0.0642245
0.0210953
0.00266354
0.00299555
-0.00182275
0.00203715
-0.00200217
0.00200732
-0.00200663
0.00200671
-0.0020067
0.00200671
-0.00200671
0.00200671
-0.00200671
0.00200671
-0.00200671
0.00200671
-0.00200671
0.00200671
-0.00200671
0.00200671
-0.00200671
0.00200671
-0.00200671
0.00200671
-0.00200671
0.00200671
-0.00200671
0.00200671
-0.00200671
0.00200671
-0.00200671
0.00200671
-0.00200671
0.00200671
-0.00200671
0.00200671
-0.00200671
0.00200671
-0.00200671
0.00200671
-0.00200671
0.00200671
-0.00200671
0.00200671
-0.00200671
0.00200671
-0.00200671
0.00200671
-0.00200671
0.00200671
-0.00200671
0.00200671
-0.00200671
0.00200671
-0.00200671
0.00200671
-0.00200671
0.00200671
-0.00200671
0.00200671
-0.00200671
0.00200671
-0.00200671
0.00200671
-0.00200671
0.00200671
-0.00200671
0.0020067
-0.00200673
0.0020065
-0.00200816
0.00199874
-0.00203871
0.00192122
-0.00212484
0.00201615
-0.00188381
0.00155303
-0.00274197
0.0028061
-0.0023753
0.000616765
-0.000370691
-0.000527892
-0.101961
-0.101961
1
1.09812
1.13605
1.12035
1.09027
1.10253
1.03318
1.01375
0.979047
0.772081
0.449118
0.20378
0.0694913
0.0232093
0.00305868
0.00330131
-0.0019627
0.00221104
-0.00216995
0.00217608
-0.00217525
0.00217535
-0.00217534
0.00217534
-0.00217534
0.00217534
-0.00217534
0.00217534
-0.00217534
0.00217534
-0.00217534
0.00217534
-0.00217534
0.00217534
-0.00217534
0.00217534
-0.00217534
0.00217534
-0.00217534
0.00217534
-0.00217534
0.00217534
-0.00217534
0.00217534
-0.00217534
0.00217534
-0.00217534
0.00217534
-0.00217534
0.00217534
-0.00217534
0.00217534
-0.00217534
0.00217534
-0.00217534
0.00217534
-0.00217534
0.00217534
-0.00217534
0.00217534
-0.00217534
0.00217534
-0.00217534
0.00217534
-0.00217534
0.00217534
-0.00217534
0.00217534
-0.00217534
0.00217534
-0.00217534
0.00217534
-0.00217534
0.00217534
-0.00217534
0.00217534
-0.00217534
0.00217534
-0.00217534
0.00217534
-0.00217534
0.00217534
-0.00217537
0.0021751
-0.002177
0.00216652
-0.00220959
0.00208798
-0.00228608
0.0022019
-0.00207095
0.00167538
-0.00280875
0.00302719
-0.00274528
0.00108471
-0.000627478
0.000583657
0.103849
0.103849
1
1.08865
1.12677
1.11952
1.08501
1.09832
1.03448
1.00855
0.975389
0.781681
0.464472
0.215204
0.0749504
0.0253156
0.0035907
0.00352274
-0.00200232
0.00228855
-0.00224053
0.00224778
-0.00224678
0.00224691
-0.00224689
0.0022469
-0.0022469
0.0022469
-0.0022469
0.0022469
-0.0022469
0.0022469
-0.0022469
0.0022469
-0.0022469
0.0022469
-0.0022469
0.0022469
-0.0022469
0.0022469
-0.0022469
0.0022469
-0.0022469
0.0022469
-0.0022469
0.0022469
-0.0022469
0.0022469
-0.0022469
0.0022469
-0.0022469
0.0022469
-0.0022469
0.0022469
-0.0022469
0.0022469
-0.0022469
0.0022469
-0.0022469
0.0022469
-0.0022469
0.0022469
-0.0022469
0.0022469
-0.0022469
0.0022469
-0.0022469
0.0022469
-0.0022469
0.0022469
-0.0022469
0.0022469
-0.0022469
0.0022469
-0.0022469
0.0022469
-0.0022469
0.0022469
-0.0022469
0.0022469
-0.0022469
0.0022469
-0.0022469
0.00224689
-0.00224693
0.00224662
-0.00224877
0.00223719
-0.00228327
0.00215834
-0.00234916
0.00228897
-0.00216478
0.0017104
-0.00276958
0.00312071
-0.00299271
0.00146655
-0.000859324
-0.000124503
-0.102369
-0.102369
1
1.07804
1.11384
1.11417
1.0775
1.09166
1.03508
1.00412
0.971345
0.789476
0.478788
0.22627
0.0805682
0.0274115
0.00425438
0.00366471
-0.00194598
0.0022743
-0.00221845
0.002227
-0.00222581
0.00222596
-0.00222594
0.00222594
-0.00222594
0.00222594
-0.00222594
0.00222594
-0.00222594
0.00222594
-0.00222594
0.00222594
-0.00222594
0.00222594
-0.00222594
0.00222594
-0.00222594
0.00222594
-0.00222594
0.00222594
-0.00222594
0.00222594
-0.00222594
0.00222594
-0.00222594
0.00222594
-0.00222594
0.00222594
-0.00222594
0.00222594
-0.00222594
0.00222594
-0.00222594
0.00222594
-0.00222594
0.00222594
-0.00222594
0.00222594
-0.00222594
0.00222594
-0.00222594
0.00222594
-0.00222594
0.00222594
-0.00222594
0.00222594
-0.00222594
0.00222594
-0.00222594
0.00222594
-0.00222594
0.00222594
-0.00222594
0.00222594
-0.00222594
0.00222594
-0.00222594
0.00222594
-0.00222594
0.00222594
-0.00222594
0.00222594
-0.00222598
0.00222562
-0.00222805
0.00221535
-0.00226431
0.0021369
-0.00231883
0.00228161
-0.00216917
0.00166311
-0.00263333
0.00309278
-0.00311746
0.00175217
-0.00104114
0.000915723
0.10351
0.10351
1
1.0676
1.09965
1.10644
1.06939
1.08379
1.03529
1.00057
0.967188
0.795668
0.492049
0.236933
0.0863058
0.0294981
0.00503938
0.00373678
-0.00180288
0.00217771
-0.00211305
0.00212308
-0.00212166
0.00212185
-0.00212182
0.00212183
-0.00212183
0.00212183
-0.00212183
0.00212183
-0.00212183
0.00212183
-0.00212183
0.00212183
-0.00212183
0.00212183
-0.00212183
0.00212183
-0.00212183
0.00212183
-0.00212183
0.00212183
-0.00212183
0.00212183
-0.00212183
0.00212183
-0.00212183
0.00212183
-0.00212183
0.00212183
-0.00212183
0.00212183
-0.00212183
0.00212183
-0.00212183
0.00212183
-0.00212183
0.00212183
-0.00212183
0.00212183
-0.00212183
0.00212183
-0.00212183
0.00212183
-0.00212183
0.00212183
-0.00212183
0.00212183
-0.00212183
0.00212183
-0.00212183
0.00212183
-0.00212183
0.00212183
-0.00212183
0.00212183
-0.00212183
0.00212183
-0.00212183
0.00212183
-0.00212183
0.00212183
-0.00212183
0.00212182
-0.00212187
0.00212146
-0.00212418
0.00211033
-0.00216202
0.002033
-0.00220465
0.0021889
-0.00209266
0.00154309
-0.00241331
0.00295527
-0.00312584
0.00193886
-0.00118217
0.000136366
-0.102652
-0.102652
1
1.05805
1.08569
1.09769
1.06158
1.07541
1.03521
0.997874
0.963111
0.800452
0.504253
0.247158
0.0921215
0.0315793
0.00593156
0.00375182
-0.00158561
0.00201156
-0.00193706
0.00194877
-0.0019471
0.00194732
-0.00194729
0.00194729
-0.00194729
0.00194729
-0.00194729
0.00194729
-0.00194729
0.00194729
-0.00194729
0.00194729
-0.00194729
0.00194729
-0.00194729
0.00194729
-0.00194729
0.00194729
-0.00194729
0.00194729
-0.00194729
0.00194729
-0.00194729
0.00194729
-0.00194729
0.00194729
-0.00194729
0.00194729
-0.00194729
0.00194729
-0.00194729
0.00194729
-0.00194729
0.00194729
-0.00194729
0.00194729
-0.00194729
0.00194729
-0.00194729
0.00194729
-0.00194729
0.00194729
-0.00194729
0.00194729
-0.00194729
0.00194729
-0.00194729
0.00194729
-0.00194729
0.00194729
-0.00194729
0.00194729
-0.00194729
0.00194729
-0.00194729
0.00194729
-0.00194729
0.00194729
-0.00194729
0.00194729
-0.00194729
0.00194729
-0.00194734
0.00194687
-0.0019499
0.0019349
-0.00198912
0.00185938
-0.00201958
0.00202341
-0.00194714
0.001363
-0.00212583
0.00272434
-0.00302924
0.00203002
-0.00126465
0.00110661
0.103276
0.103276
1
1.04968
1.07281
1.08871
1.0545
1.06694
1.03485
0.99594
0.959257
0.804024
0.515412
0.256919
0.097972
0.0336604
0.00691433
0.0037247
-0.00130891
0.00179079
-0.00170534
0.00171895
-0.00171698
0.00171724
-0.00171721
0.00171722
-0.00171721
0.00171721
-0.00171721
0.00171721
-0.00171721
0.00171721
-0.00171721
0.00171721
-0.00171721
0.00171721
-0.00171721
0.00171721
-0.00171721
0.00171721
-0.00171721
0.00171721
-0.00171721
0.00171721
-0.00171721
0.00171721
-0.00171721
0.00171721
-0.00171721
0.00171721
-0.00171721
0.00171721
-0.00171721
0.00171721
-0.00171721
0.00171721
-0.00171721
0.00171721
-0.00171721
0.00171721
-0.00171721
0.00171721
-0.00171721
0.00171721
-0.00171721
0.00171721
-0.00171721
0.00171721
-0.00171721
0.00171721
-0.00171721
0.00171721
-0.00171721
0.00171721
-0.00171721
0.00171721
-0.00171721
0.00171721
-0.00171721
0.00171721
-0.00171721
0.00171721
-0.00171722
0.00171721
-0.00171728
0.00171674
-0.00172009
0.00170394
-0.00176046
0.00163089
-0.00177871
0.00179992
-0.00174664
0.0011373
-0.00178882
0.00241886
-0.00284278
0.00203343
-0.00130434
0.000259954
-0.102843
-0.102843
1
1.04256
1.06142
1.07993
1.04829
1.05866
1.03418
0.994667
0.955724
0.806569
0.525545
0.266198
0.103814
0.0357472
0.00796988
0.00367109
-0.000988433
0.0015312
-0.00143363
0.00144938
-0.00144707
0.00144738
-0.00144734
0.00144735
-0.00144735
0.00144735
-0.00144735
0.00144735
-0.00144735
0.00144735
-0.00144735
0.00144735
-0.00144735
0.00144735
-0.00144735
0.00144735
-0.00144735
0.00144735
-0.00144735
0.00144735
-0.00144735
0.00144735
-0.00144735
0.00144735
-0.00144735
0.00144735
-0.00144735
0.00144735
-0.00144735
0.00144735
-0.00144735
0.00144735
-0.00144735
0.00144735
-0.00144735
0.00144735
-0.00144735
0.00144735
-0.00144735
0.00144735
-0.00144735
0.00144735
-0.00144735
0.00144735
-0.00144735
0.00144735
-0.00144735
0.00144735
-0.00144735
0.00144735
-0.00144735
0.00144735
-0.00144735
0.00144735
-0.00144735
0.00144735
-0.00144735
0.00144735
-0.00144735
0.00144735
-0.00144735
0.00144734
-0.00144742
0.00144682
-0.0014505
0.00143322
-0.00149178
0.00136325
-0.001498
0.00153418
-0.00150609
0.000881089
-0.00142054
0.00205892
-0.00258382
0.00196016
-0.00128918
0.00116727
0.103123
0.103123
1
1.03657
1.0516
1.07157
1.04297
1.05075
1.0332
0.993947
0.952579
0.808266
0.534686
0.274985
0.109607
0.0378453
0.00908013
0.00360649
-0.000639811
0.00124856
-0.00113762
0.00115576
-0.00115308
0.00115344
-0.0011534
0.0011534
-0.0011534
0.0011534
-0.0011534
0.0011534
-0.0011534
0.0011534
-0.0011534
0.0011534
-0.0011534
0.0011534
-0.0011534
0.0011534
-0.0011534
0.0011534
-0.0011534
0.0011534
-0.0011534
0.0011534
-0.0011534
0.0011534
-0.0011534
0.0011534
-0.0011534
0.0011534
-0.0011534
0.0011534
-0.0011534
0.0011534
-0.0011534
0.0011534
-0.0011534
0.0011534
-0.0011534
0.0011534
-0.0011534
0.0011534
-0.0011534
0.0011534
-0.0011534
0.0011534
-0.0011534
0.0011534
-0.0011534
0.0011534
-0.0011534
0.0011534
-0.0011534
0.0011534
-0.0011534
0.0011534
-0.0011534
0.0011534
-0.0011534
0.0011534
-0.0011534
0.0011534
-0.0011534
0.00115339
-0.00115348
0.00115281
-0.00115684
0.00113845
-0.00119877
0.00107211
-0.00119337
0.00124195
-0.00124045
0.000609159
-0.00103868
0.00166471
-0.00227078
0.00182327
-0.00123967
0.000263609
-0.102963
-0.102963
1
1.03156
1.0433
1.06372
1.03846
1.04334
1.03193
0.993674
0.94986
0.80928
0.542875
0.283275
0.115312
0.0399589
0.0102277
0.00354537
-0.000277778
0.000957686
-0.000832107
0.00085291
-0.000849791
0.000850218
-0.000850164
0.00085017
-0.00085017
0.00085017
-0.00085017
0.00085017
-0.00085017
0.00085017
-0.00085017
0.00085017
-0.00085017
0.00085017
-0.00085017
0.00085017
-0.00085017
0.00085017
-0.00085017
0.00085017
-0.00085017
0.00085017
-0.00085017
0.00085017
-0.00085017
0.00085017
-0.00085017
0.00085017
-0.00085017
0.00085017
-0.00085017
0.00085017
-0.00085017
0.00085017
-0.00085017
0.00085017
-0.00085017
0.00085017
-0.00085017
0.00085017
-0.00085017
0.00085017
-0.00085017
0.00085017
-0.00085017
0.00085017
-0.00085017
0.00085017
-0.00085017
0.00085017
-0.00085017
0.00085017
-0.00085017
0.00085017
-0.00085017
0.00085017