# vtk DataFile Version 2.0
FlowField
ASCII
DATASET STRUCTURED_GRID
DIMENSIONS 100 1 100
POINTS 10000 float
0 0 0
0.01 0 0
0.02 0 0
0.03 0 0
0.04 0 0
0.05 0 0
0.06 0 0
0.07 0 0
0.08 0 0
0.09 0 0
0.1 0 0
0.11 0 0
0.12 0 0
0.13 0 0
0.14 0 0
0.15 0 0
0.16 0 0
0.17 0 0
0.18 0 0
0.19 0 0
0.2 0 0
0.21 0 0
0.22 0 0
0.23 0 0
0.24 0 0
0.25 0 0
0.26 0 0
0.27 0 0
0.28 0 0
0.29 0 0
0.3 0 0
0.31 0 0
0.32 0 0
0.33 0 0
0.34 0 0
0.35 0 0
0.36 0 0
0.37 0 0
0.38 0 0
0.39 0 0
0.4 0 0
0.41 0 0
0.42 0 0
0.43 0 0
0.44 0 0
0.45 0 0
0.46 0 0
0.47 0 0
0.48 0 0
0.49 0 0
0.5 0 0
0.51 0 0
0.52 0 0
0.53 0 0
0.54 0 0
0.55 0 0
0.56 0 0
0.57 0 0
0.58 0 0
0.59 0 0
0.6 0 0
0.61 0 0
0.62 0 0
0.63 0 0
0.64 0 0
0.65 0 0
0.66 0 0
0.67 0 0
0.68 0 0
0.69 0 0
0.7 0 0
0.71 0 0
0.72 0 0
0.73 0 0
0.74 0 0
0.75 0 0
0.76 0 0
0.77 0 0
0.78 0 0
0.79 0 0
0.8 0 0
0.81 0 0
0.82 0 0
0.83 0 0
0.84 0 0
0.85 0 0
0.86 0 0
0.87 0 0
0.88 0 0
0.89 0 0
0.9 0 0
0.91 0 0
0.92 0 0
0.93 0 0
0.94 0 0
0.95 0 0
0.96 0 0
0.97 0 0
0.98 0 0
0.99 0 0
0 0.001 0
0.01 0.001 0
0.02 0.001 0
0.03 0.001 0
0.04 0.001 0
0.05 0.001 0
0.06 0.001 0
0.07 0.001 0
0.08 0.001 0
0.09 0.001 0
0.1 0.001 0
0.11 0.001 0
0.12 0.001 0
0.13 0.001 0
0.14 0.001 0
0.15 0.001 0
0.16 0.001 0
0.17 0.001 0
0.18 0.001 0
0.19 0.001 0
0.2 0.001 0
0.21 0.001 0
0.22 0.001 0
0.23 0.001 0
0.24 0.001 0
0.25 0.001 0
0.26 0.001 0
0.27 0.001 0
0.28 0.001 0
0.29 0.001 0
0.3 0.001 0
0.31 0.001 0
0.32 0.001 0
0.33 0.001 0
0.34 0.001 0
0.35 0.001 0
0.36 0.001 0
0.37 0.001 0
0.38 0.001 0
0.39 0.001 0
0.4 0.001 0
0.41 0.001 0
0.42 0.001 0
0.43 0.001 0
0.44 0.001 0
0.45 0.001 0
0.46 0.001 0
0.47 0.001 0
0.48 0.001 0
0.49 0.001 0
0.5 0.001 0
0.51 0.001 0
0.52 0.001 0
0.53 0.001 0
0.54 0.001 0
0.55 0.001 0
0.56 0.001 0
0.57 0.001 0
0.58 0.001 0
0.59 0.001 0
0.6 0.001 0
0.61 0.001 0
0.62 0.001 0
0.63 0.001 0
0.64 0.001 0
0.65 0.001 0
0.66 0.001 0
0.67 0.001 0
0.68 0.001 0
0.69 0.001 0
0.7 0.001 0
0.71 0.001 0
0.72 0.001 0
0.73 0.001 0
0.74 0.001 0
0.75 0.001 0
0.76 0.001 0
0.77 0.001 0
0.78 0.001 0
0.79 0.001 0
0.8 0.001 0
0.81 0.001 0
0.82 0.001 0
0.83 0.001 0
0.84 0.001 0
0.85 0.001 0
0.86 0.001 0
0.87 0.001 0
0.88 0.001 0
0.89 0.001 0
0.9 0.001 0
0.91 0.001 0
0.92 0.001 0
0.93 0.001 0
0.94 0.001 0
0.95 0.001 0
0.96 0.001 0
0.97 0.001 0
0.98 0.001 0
0.99 0.001 0
0 0.002 0
0.01 0.002 0
0.02 0.002 0
0.03 0.002 0
0.04 0.002 0
0.05 0.002 0
0.06 0.002 0
0.07 0.002 0
0.08 0.002 0
0.09 0.002 0
0.1 0.002 0
0.11 0.002 0
0.12 0.002 0
0.13 0.002 0
0.14 0.002 0
0.15 0.002 0
0.16 0.002 0
0.17 0.002 0
0.18 0.002 0
0.19 0.002 0
0.2 0.002 0
0.21 0.002 0
0.22 0.002 0
0.23 0.002 0
0.24 0.002 0
0.25 0.002 0
0.26 0.002 0
0.27 0.002 0
0.28 0.002 0
0.29 0.002 0
0.3 0.002 0
0.31 0.002 0
0.32 0.002 0
0.33 0.002 0
0.34 0.002 0
0.35 0.002 0
0.36 0.002 0
0.37 0.002 0
0.38 0.002 0
0.39 0.002 0
0.4 0.002 0
0.41 0.002 0
0.42 0.002 0
0.43 0.002 0
0.44 0.002 0
0.45 0.002 0
0.46 0.002 0
0.47 0.002 0
0.48 0.002 0
0.49 0.002 0
0.5 0.002 0
0.51 0.002 0
0.52 0.002 0
0.53 0.002 0
0.54 0.002 0
0.55 0.002 0
0.56 0.002 0
0.57 0.002 0
0.58 0.002 0
0.59 0.002 0
0.6 0.002 0
0.61 0.002 0
0.62 0.002 0
0.63 0.002 0
0.64 0.002 0
0.65 0.002 0
0.66 0.002 0
0.67 0.002 0
0.68 0.002 0
0.69 0.002 0
0.7 0.002 0
0.71 0.002 0
0.72 0.002 0
0.73 0.002 0
0.74 0.002 0
0.75 0.002 0
0.76 0.002 0
0.77 0.002 0
0.78 0.002 0
0.79 0.002 0
0.8 0.002 0
0.81 0.002 0
0.82 0.002 0
0.83 0.002 0
0.84 0.002 0
0.85 0.002 0
0.86 0.002 0
0.87 0.002 0
0.88 0.002 0
0.89 0.002 0
0.9 0.002 0
0.91 0.002 0
0.92 0.002 0
0.93 0.002 0
0.94 0.002 0
0.95 0.002 0
0.96 0.002 0
0.97 0.002 0
0.98 0.002 0
0.99 0.002 0
0 0.003 0
0.01 0.003 0
0.02 0.003 0
0.03 0.003 0
0.04 0.003 0
0.05 0.003 0
0.06 0.003 0
0.07 0.003 0
0.08 0.003 0
0.09 0.003 0
0.1 0.003 0
0.11 0.003 0
0.12 0.003 0
0.13 0.003 0
0.14 0.003 0
0.15 0.003 0
0.16 0.003 0
0.17 0.003 0
0.18 0.003 0
0.19 0.003 0
0.2 0.003 0
0.21 0.003 0
0.22 0.003 0
0.23 0.003 0
0.24 0.003 0
0.25 0.003 0
0.26 0.003 0
0.27 0.003 0
0.28 0.003 0
0.29 0.003 0
0.3 0.003 0
0.31 0.003 0
0.32 0.003 0
0.33 0.003 0
0.34 0.003 0
0.35 0.003 0
0.36 0.003 0
0.37 0.003 0
0.38 0.003 0
0.39 0.003 0
0.4 0.003 0
0.41 0.003 0
0.42 0.003 0
0.43 0.003 0
0.44 0.003 0
0.45 0.003 0
0.46 0.003 0
0.47 0.003 0
0.48 0.003 0
0.49 0.003 0
0.5 0.003 0
0.51 0.003 0
0.52 0.003 0
0.53 0.003 0
0.54 0.003 0
0.55 0.003 0
0.56 0.003 0
0.57 0.003 0
0.58 0.003 0
0.59 0.003 0
0.6 0.003 0
0.61 0.003 0
0.62 0.003 0
0.63 0.003 0
0.64 0.003 0
0.65 0.003 0
0.66 0.003 0
0.67 0.003 0
0.68 0.003 0
0.69 0.003 0
0.7 0.003 0
0.71 0.003 0
0.72 0.003 0
0.73 0.003 0
0.74 0.003 0
0.75 0.003 0
0.76 0.003 0
0.77 0.003 0
0.78 0.003 0
0.79 0.003 0
0.8 0.003 0
0.81 0.003 0
0.82 0.003 0
0.83 0.003 0
0.84 0.003 0
0.85 0.003 0
0.86 0.003 0
0.87 0.003 0
0.88 0.003 0
0.89 0.003 0
0.9 0.003 0
0.91 0.003 0
0.92 0.003 0
0.93 0.003 0
0.94 0.003 0
0.95 0.003 0
0.96 0.003 0
0.97 0.003 0
0.98 0.003 0
0.99 0.003 0
0 0.004 0
0.01 0.004 0
0.02 0.004 0
0.03 0.004 0
0.04 0.004 0
0.05 0.004 0
0.06 0.004 0
0.07 0.004 0
0.08 0.004 0
0.09 0.004 0
0.1 0.004 0
0.11 0.004 0
0.12 0.004 0
0.13 0.004 0
0.14 0.004 0
0.15 0.004 0
0.16 0.004 0
0.17 0.004 0
0.18 0.004 0
0.19 0.004 0
0.2 0.004 0
0.21 0.004 0
0.22 0.004 0
0.23 0.004 0
0.24 0.004 0
0.25 0.004 0
0.26 0.004 0
0.27 0.004 0
0.28 0.004 0
0.29 0.004 0
0.3 0.004 0
0.31 0.004 0
0.32 0.004 0
0.33 0.004 0
0.34 0.004 0
0.35 0.004 0
0.36 0.004 0
0.37 0.004 0
0.38 0.004 0
0.39 0.004 0
0.4 0.004 0
0.41 0.004 0
0.42 0.004 0
0.43 0.004 0
0.44 0.004 0
0.45 0.004 0
0.46 0.004 0
0.47 0.004 0
0.48 0.004 0
0.49 0.004 0
0.5 0.004 0
0.51 0.004 0
0.52 0.004 0
0.53 0.004 0
0.54 0.004 0
0.55 0.004 0
0.56 0.004 0
0.57 0.004 0
0.58 0.004 0
0.59 0.004 0
0.6 0.004 0
0.61 0.004 0
0.62 0.004 0
0.63 0.004 0
0.64 0.004 0
0.65 0.004 0
0.66 0.004 0
0.67 0.004 0
0.68 0.004 0
0.69 0.004 0
0.7 0.004 0
0.71 0.004 0
0.72 0.004 0
0.73 0.004 0
0.74 0.004 0
0.75 0.004 0
0.76 0.004 0
0.77 0.004 0
0.78 0.004 0
0.79 0.004 0
0.8 0.004 0
0.81 0.004 0
0.82 0.004 0
0.83 0.004 0
0.84 0.004 0
0.85 0.004 0
0.86 0.004 0
0.87 0.004 0
0.88 0.004 0
0.89 0.004 0
0.9 0.004 0
0.91 0.004 0
0.92 0.004 0
0.93 0.004 0
0.94 0.004 0
0.95 0.004 0
0.96 0.004 0
0.97 0.004 0
0.98 0.004 0
0.99 0.004 0
0 0.005 0
0.01 0.005 0
0.02 0.005 0
0.03 0.005 0
0.04 0.005 0
0.05 0.005 0
0.06 0.005 0
0.07 0.005 0
0.08 0.005 0
0.09 0.005 0
0.1 0.005 0
0.11 0.005 0
0.12 0.005 0
0.13 0.005 0
0.14 0.005 0
0.15 0.005 0
0.16 0.005 0
0.17 0.005 0
0.18 0.005 0
0.19 0.005 0
0.2 0.005 0
0.21 0.005 0
0.22 0.005 0
0.23 0.005 0
0.24 0.005 0
0.25 0.005 0
0.26 0.005 0
0.27 0.005 0
0.28 0.005 0
0.29 0.005 0
0.3 0.005 0
0.31 0.005 0
0.32 0.005 0
0.33 0.005 0
0.34 0.005 0
0.35 0.005 0
0.36 0.005 0
0.37 0.005 0
0.38 0.005 0
0.39 0.005 0
0.4 0.005 0
0.41 0.005 0
0.42 0.005 0
0.43 0.005 0
0.44 0.005 0
0.45 0.005 0
0.46 0.005 0
0.47 0.005 0
0.48 0.005 0
0.49 0.005 0
0.5 0.005 0
0.51 0.005 0
0.52 0.005 0
0.53 0.005 0
0.54 0.005 0
0.55 0.005 0
0.56 0.005 0
0.57 0.005 0
0.58 0.005 0
0.59 0.005 0
0.6 0.005 0
0.61 0.005 0
0.62 0.005 0
0.63 0.005 0
0.64 0.005 0
0.65 0.005 0
0.66 0.005 0
0.67 0.005 0
0.68 0.005 0
0.69 0.005 0
0.7 0.005 0
0.71 0.005 0
0.72 0.005 0
0.73 0.005 0
0.74 0.005 0
0.75 0.005 0
0.76 0.005 0
0.77 0.005 0
0.78 0.005 0
0.79 0.005 0
0.8 0.005 0
0.81 0.005 0
0.82 0.005 0
0.83 0.005 0
0.84 0.005 0
0.85 0.005 0
0.86 0.005 0
0.87 0.005 0
0.88 0.005 0
0.89 0.005 0
0.9 0.005 0
0.91 0.005 0
0.92 0.005 0
0.93 0.005 0
0.94 0.005 0
0.95 0.005 0
0.96 0.005 0
0.97 0.005 0
0.98 0.005 0
0.99 0.005 0
0 0.006 0
0.01 0.006 0
0.02 0.006 0
0.03 0.006 0
0.04 0.006 0
0.05 0.006 0
0.06 0.006 0
0.07 0.006 0
0.08 0.006 0
0.09 0.006 0
0.1 0.006 0
0.11 0.006 0
0.12 0.006 0
0.13 0.006 0
0.14 0.006 0
0.15 0.006 0
0.16 0.006 0
0.17 0.006 0
0.18 0.006 0
0.19 0.006 0
0.2 0.006 0
0.21 0.006 0
0.22 0.006 0
0.23 0.006 0
0.24 0.006 0
0.25 0.006 0
0.26 0.006 0
0.27 0.006 0
0.28 0.006 0
0.29 0.006 0
0.3 0.006 0
0.31 0.006 0
0.32 0.006 0
0.33 0.006 0
0.34 0.006 0
0.35 0.006 0
0.36 0.006 0
0.37 0.006 0
0.38 0.006 0
0.39 0.006 0
0.4 0.006 0
0.41 0.006 0
0.42 0.006 0
0.43 0.006 0
0.44 0.006 0
0.45 0.006 0
0.46 0.006 0
0.47 0.006 0
0.48 0.006 0
0.49 0.006 0
0.5 0.006 0
0.51 0.006 0
0.52 0.006 0
0.53 0.006 0
0.54 0.006 0
0.55 0.006 0
0.56 0.006 0
0.57 0.006 0
0.58 0.006 0
0.59 0.006 0
0.6 0.006 0
0.61 0.006 0
0.62 0.006 0
0.63 0.006 0
0.64 0.006 0
0.65 0.006 0
0.66 0.006 0
0.67 0.006 0
0.68 0.006 0
0.69 0.006 0
0.7 0.006 0
0.71 0.006 0
0.72 0.006 0
0.73 0.006 0
0.74 0.006 0
0.75 0.006 0
0.76 0.006 0
0.77 0.006 0
0.78 0.006 0
0.79 0.006 0
0.8 0.006 0
0.81 0.006 0
0.82 0.006 0
0.83 0.006 0
0.84 0.006 0
0.85 0.006 0
0.86 0.006 0
0.87 0.006 0
0.88 0.006 0
0.89 0.006 0
0.9 0.006 0
0.91 0.006 0
0.92 0.006 0
0.93 0.006 0
0.94 0.006 0
0.95 0.006 0
0.96 0.006 0
0.97 0.006 0
0.98 0.006 0
0.99 0.006 0
0 0.007 0
0.01 0.007 0
0.02 0.007 0
0.03 0.007 0
0.04 0.007 0
0.05 0.007 0
0.06 0.007 0
0.07 0.007 0
0.08 0.007 0
0.09 0.007 0
0.1 0.007 0
0.11 0.007 0
0.12 0.007 0
0.13 0.007 0
0.14 0.007 0
0.15 0.007 0
0.16 0.007 0
0.17 0.007 0
0.18 0.007 0
0.19 0.007 0
0.2 0.007 0
0.21 0.007 0
0.22 0.007 0
0.23 0.007 0
0.24 0.007 0
0.25 0.007 0
0.26 0.007 0
0.27 0.007 0
0.28 0.007 0
0.29 0.007 0
0.3 0.007 0
0.31 0.007 0
0.32 0.007 0
0.33 0.007 0
0.34 0.007 0
0.35 0.007 0
0.36 0.007 0
0.37 0.007 0
0.38 0.007 0
0.39 0.007 0
0.4 0.007 0
0.41 0.007 0
0.42 0.007 0
0.43 0.007 0
0.44 0.007 0
0.45 0.007 0
0.46 0.007 0
0.47 0.007 0
0.48 0.007 0
0.49 0.007 0
0.5 0.007 0
0.51 0.007 0
0.52 0.007 0
0.53 0.007 0
0.54 0.007 0
0.55 0.007 0
0.56 0.007 0
0.57 0.007 0
0.58 0.007 0
0.59 0.007 0
0.6 0.007 0
0.61 0.007 0
0.62 0.007 0
0.63 0.007 0
0.64 0.007 0
0.65 0.007 0
0.66 0.007 0
0.67 0.007 0
0.68 0.007 0
0.69 0.007 0
0.7 0.007 0
0.71 0.007 0
0.72 0.007 0
0.73 0.007 0
0.74 0.007 0
0.75 0.007 0
0.76 0.007 0
0.77 0.007 0
0.78 0.007 0
0.79 0.007 0
0.8 0.007 0
0.81 0.007 0
0.82 0.007 0
0.83 0.007 0
0.84 0.007 0
0.85 0.007 0
0.86 0.007 0
0.87 0.007 0
0.88 0.007 0
0.89 0.007 0
0.9 0.007 0
0.91 0.007 0
0.92 0.007 0
0.93 0.007 0
0.94 0.007 0
0.95 0.007 0
0.96 0.007 0
0.97 0.007 0
0.98 0.007 0
[...]
POINT_DATA 10000

SCALARS vel_X float 1
LOOKUP_TABLE default
0
0
0
0
0
0
0
0
0
0
0
0
0
0
0
0
0
0
0
0
0
0
0
0
0
0
0
0
0
0
0
0
0
0
0
0
0
0
0
0
0
0
0
0
0
0
0
0
0
0
0
0
0
0
0
0
0
0
0
0
0
0
0
0
0
0
0
0
0
0
0
0
0
0
0
0
0
0
0
0
0
0
0
0
0
0
0
0
0
0
0
0
0
0
0
0
0
0
0
0
1
0.316911
0.223847
0.0966106
0.181127
0.0248536
0.167475
0.00584636
0.140002
0.00423274
0.116611
0.0139737
0.0670217
0.0499791
0.0585443
-0.0382001
0.165625
-0.0651785
0.0426827
0.0477839
0.0805729
-0.072592
0.0927856
-0.0182814
0.0862746
0.011837
0.0922698
-0.0706667
0.0738967
0.0381641
0.17376
0.0676246
0.223558
0.166449
0.293142
0.176873
0.307131
0.233097
0.355538
0.206302
0.24679
0.0652022
0.121989
-0.0217173
0.070389
-0.0486683
0.0576319
-0.0541824
0.0554228
-0.0550034
0.0551368
-0.0550967
0.055108
-0.0551054
0.0551045
-0.055109
0.0550978
-0.0551199
0.0550859
-0.0551217
0.0551084
-0.055085
0.0550975
-0.0552053
0.0549775
-0.0550138
0.055465
-0.0551022
0.0542891
-0.0554403
0.0565714
-0.0545097
0.0525146
-0.0552439
0.0590544
-0.057992
0.0503798
-0.0471253
0.0555626
-0.0653095
0.0633351
-0.0550672
0.048728
-0.0448706
0.0418914
-0.0453092
0.0572071
-0.0733656
0.0841977
-0.0856578
0.0773297
-0.0641144
0.049028
-0.035861
0.0245309
-0.016398
0.00924767
-0.0079049
-0.254127
-0.254127
1
0.558453
0.401913
0.221861
0.306995
0.104061
0.276901
0.0633492
0.236587
0.050684
0.201174
0.0580267
0.129843
0.106132
0.106752
-0.00570266
0.249144
-0.0581983
0.0967223
0.0996678
0.131058
-0.0584954
0.159955
0.015486
0.157325
0.0617257
0.159299
-0.0435528
0.164709
0.133788
0.31729
0.193151
0.410873
0.345729
0.510327
0.3623
0.534445
0.435383
0.575002
0.35331
0.375086
0.116855
0.174359
-0.0199492
0.094348
-0.0613527
0.0749067
-0.0697129
0.0715748
-0.0709472
0.0711465
-0.0710867
0.0711035
-0.0710997
0.0710983
-0.0711052
0.0710881
-0.0711222
0.0710683
-0.0711283
0.0710981
-0.0710734
0.0710903
-0.0712426
0.0708986
-0.0710035
0.0716105
-0.0710279
0.0699723
-0.0717189
0.0730499
-0.0700231
0.0676321
-0.0717439
0.0765078
-0.0744368
0.0640799
-0.0608644
0.0729589
-0.085227
0.0810624
-0.069709
0.0617317
-0.0575741
0.0546225
-0.0602901
0.0760664
-0.0964266
0.108773
-0.109108
0.0969831
-0.0795088
0.0598709
-0.0434452
0.0291907
-0.0195567
0.0106559
-0.00536692
0.382912
0.382912
1
0.729661
0.555728
0.343523
0.414457
0.199296
0.361807
0.144167
0.311372
0.120109
0.267035
0.124562
0.18582
0.165904
0.166721
0.0433637
0.303518
0.000428248
0.143842
0.152903
0.187849
-0.00307159
0.215081
0.0790112
0.222385
0.132746
0.231552
0.0379429
0.257135
0.246365
0.44251
0.33434
0.561613
0.508606
0.674065
0.52832
0.693883
0.586792
0.702139
0.452621
0.439882
0.157575
0.19447
-0.00832868
0.0979258
-0.0582119
0.074535
-0.0682763
0.0705233
-0.0697649
0.0700062
-0.0699336
0.0699541
-0.0699495
0.0699478
-0.0699561
0.0699356
-0.0699766
0.0699115
-0.0699855
0.069943
-0.069925
0.069934
-0.070114
0.0697199
-0.0698519
0.0705002
-0.0698787
0.0687266
-0.0706151
0.0720174
-0.068848
0.0662948
-0.0705583
0.0754786
-0.0736542
0.0628967
-0.0592549
0.0713309
-0.0842786
0.0803958
-0.0690632
0.0608039
-0.0567843
0.0534062
-0.0582427
0.0727289
-0.0929736
0.106263
-0.108817
0.0986284
-0.0829015
0.0637482
-0.0475253
0.0324688
-0.0223481
0.0122317
-0.00902832
-0.336042
-0.336042
1
0.846198
0.688985
0.452859
0.515349
0.29352
0.439698
0.229762
0.379336
0.19758
0.325434
0.202576
0.237998
0.228652
0.237514
0.093135
0.354299
0.0836193
0.186047
0.20904
0.256394
0.0682203
0.26861
0.155216
0.287067
0.214479
0.31441
0.139822
0.344181
0.354944
0.552248
0.465281
0.679754
0.642803
0.79744
0.660779
0.799937
0.688665
0.772525
0.517372
0.473849
0.189003
0.202241
0.00514105
0.0950153
-0.0504714
0.0688516
-0.0617775
0.064328
-0.0634637
0.0637399
-0.0636565
0.0636801
-0.0636747
0.0636729
-0.0636822
0.0636593
-0.0637046
0.0636332
-0.0637143
0.0636656
-0.0636547
0.0636483
-0.0638549
0.0634426
-0.0635586
0.064221
-0.0636748
0.0624194
-0.0642097
0.065786
-0.0628705
0.0599955
-0.0637799
0.0688522
-0.0681384
0.0577406
-0.052704
0.0630685
-0.0768182
0.0750282
-0.0647817
0.0561493
-0.0518924
0.0474627
-0.0498923
0.061213
-0.0804399
0.0955874
-0.10263
0.0971418
-0.0854919
0.0684278
-0.0531533
0.0374852
-0.0266045
0.0149808
-0.00740563
0.355062
0.355062
1
0.924176
0.800183
0.551255
0.608562
0.384078
0.513688
0.314264
0.444397
0.27756
0.379434
0.286246
0.287917
0.29349
0.312372
0.144726
0.404326
0.176999
0.227058
0.26844
0.329444
0.146772
0.321615
0.235906
0.350113
0.301178
0.399752
0.244812
0.419967
0.451951
0.642481
0.576968
0.767137
0.748228
0.885398
0.760229
0.864196
0.754233
0.807548
0.561654
0.491431
0.215835
0.204102
0.0198015
0.0889954
-0.040332
0.060531
-0.0527135
0.0555483
-0.0545824
0.0548928
-0.0547986
0.0548254
-0.0548192
0.0548172
-0.0548274
0.0548027
-0.054851
0.054776
-0.0548597
0.0548098
-0.0548039
0.0547793
-0.0550137
0.0545976
-0.0546701
0.0553465
-0.0549299
0.053544
-0.0551352
0.0569766
-0.0544581
0.0511298
-0.0542119
0.0595171
-0.0602405
0.0504283
-0.0435292
0.0516033
-0.0663791
0.0674272
-0.0584741
0.0491998
-0.0444725
0.038986
-0.0388296
0.0466103
-0.0644029
0.0813286
-0.0931357
0.0929814
-0.0861063
0.0718265
-0.057993
0.0420994
-0.0306294
0.0176627
-0.0119736
-0.344504
-0.344504
1
0.976174
0.888893
0.641182
0.690942
0.47205
0.581975
0.397222
0.505238
0.359204
0.427973
0.372981
0.335705
0.358625
0.386045
0.201397
0.448893
0.274877
0.268201
0.329409
0.399074
0.230119
0.371247
0.317183
0.407619
0.388254
0.478167
0.345697
0.480609
0.535339
0.709515
0.668777
0.825705
0.829181
0.941572
0.833644
0.896799
0.797581
0.819751
0.596108
0.498564
0.242308
0.201333
0.0370828
0.0796575
-0.027075
0.0490531
-0.0404919
0.0436167
-0.0425455
0.0428919
-0.0427862
0.0428164
-0.0428094
0.0428073
-0.0428183
0.0427919
-0.0428426
0.0427655
-0.0428492
0.0428011
-0.0427984
0.0427551
-0.0430169
0.0426051
-0.0426201
0.0433116
-0.0430458
0.0415229
-0.0428739
0.0450061
-0.0429324
0.0391347
-0.0414592
0.0469575
-0.049139
0.0401005
-0.03136
0.0369246
-0.0525584
0.0565802
-0.0490276
0.0390502
-0.0338284
0.027669
-0.025393
0.0296733
-0.0453258
0.0629972
-0.0786889
0.0836009
-0.081766
0.0709867
-0.0594264
0.0442012
-0.0328735
0.0193036
-0.00992281
0.353009
0.353009
1
1.011
0.956674
0.723724
0.761073
0.557687
0.64292
0.478844
0.559712
0.442547
0.469453
0.460865
0.381263
0.421788
0.455568
0.264146
0.483931
0.374213
0.309266
0.389383
0.460278
0.316265
0.414894
0.396267
0.456209
0.471422
0.543927
0.43947
0.524986
0.604804
0.752905
0.742671
0.858937
0.890394
0.971083
0.888625
0.906993
0.82888
0.817206
0.626744
0.498375
0.270487
0.194504
0.057648
0.0668703
-0.0103528
0.0341525
-0.0248174
0.0282482
-0.0270645
0.0274497
-0.0273314
0.0273655
-0.0273575
0.0273553
-0.0273671
0.0273391
-0.0273919
0.0273135
-0.0273957
0.0273514
-0.0273505
0.0272889
-0.0275762
0.027175
-0.0271263
0.0278286
-0.0277213
0.0260765
-0.0271636
0.0295622
-0.0279622
0.0237612
-0.0253156
0.0308621
-0.0344029
0.0263936
-0.0161006
0.0189855
-0.0349965
0.0419011
-0.0359858
0.0254252
-0.0197289
0.0133413
-0.00960623
0.010572
-0.0232785
0.0402978
-0.0585382
0.0678688
-0.0711437
0.0645761
-0.0562603
0.0428181
-0.0326196
0.0193701
-0.0132352
-0.344828
-0.344828
1
1.03457
1.00623
0.798927
0.819257
0.639993
0.696083
0.558698
0.60641
0.527074
0.503201
0.547557
0.42489
0.480786
0.519245
0.332067
0.507941
0.471842
0.349803
0.446009
0.510708
0.402415
0.451498
0.470608
0.494184
0.547093
0.595197
0.524591
0.554343
0.660684
0.775115
0.800874
0.871639
0.935863
0.980238
0.93108
0.902737
0.853986
0.805611
0.655979
0.493287
0.300502
0.184692
0.0809582
0.0513952
0.00916281
0.0165345
-0.00638285
0.0101399
-0.00883511
0.00926244
-0.00913044
0.00916866
-0.00915963
0.00915732
-0.00916996
0.00914043
-0.00919512
0.00911601
-0.00919568
0.009156
-0.00915681
0.0090772
-0.00938687
0.00900269
-0.00888841
0.00959194
-0.00964642
0.00790802
-0.00871056
0.0113246
-0.0102284
0.00572815
-0.00650653
0.0119129
-0.0166707
0.00997324
0.00146728
-0.00142236
-0.0143405
0.0239593
-0.0200252
0.00909346
-0.00288049
-0.00340703
0.00791114
-0.00988272
0.000718752
0.014299
-0.0336048
0.046415
-0.0545616
0.0526672
-0.0484153
0.0378039
-0.0297235
0.0177942
-0.00955221
0.352821
0.352821
1
1.0508
1.04061
0.866449
0.866703
0.717459
0.741776
0.635908
0.644775
0.611568
0.529704
0.630195
0.467367
0.533805
0.575928
0.403455
0.521518
0.564084
0.389744
0.497567
0.549751
0.485342
0.481428
0.537981
0.521563
0.612687
0.632745
0.600083
0.57147
0.703702
0.780252
0.845248
0.869175
0.968654
0.975424
0.964786
0.890403
0.875557
0.789211
0.68406
0.485531
0.331325
0.17345
0.105682
0.0346504
0.030089
-0.00240423
0.0134209
-0.0093151
0.0107505
-0.0102773
0.0104244
-0.0103816
0.0103918
-0.0103942
0.0103807
-0.0104118
0.0103554
-0.0104348
0.0103582
-0.0103929
0.0103901
-0.0104876
0.0101589
-0.0105199
0.0106994
-0.0100072
0.00978948
-0.0115868
0.0110879
-0.0083205
0.00888357
-0.0135685
0.0135634
-0.00848598
0.00268134
-0.00781315
0.0199442
-0.0228429
0.00799034
0.00410693
-0.00253095
-0.00850547
0.0153534
-0.0213893
0.0260058
-0.0303015
0.0248989
-0.0129782
-0.00589301
0.0209615
-0.0333365
0.0361633
-0.0364612
0.0294883
-0.0243675
0.0146062
-0.0111733
-0.345374
-0.345374
1
1.06216
1.06286
0.925885
0.904972
0.788654
0.780567
0.709531
0.674909
0.694281
0.550429
0.705654
0.509795
0.579538
0.62482
0.476378
0.526575
0.647178
0.429454
0.542969
0.577939
0.561905
0.506004
0.596694
0.539722
0.666575
0.658728
0.665281
0.579947
0.734792
0.773008
0.877207
0.856792
0.990915
0.962322
0.991688
0.874846
0.894256
0.771298
0.710126
0.47722
0.36139
0.16255
0.130123
0.0183604
0.0507138
-0.0209461
0.0328791
-0.0284007
0.029977
-0.029454
0.0296176
-0.0295697
0.0295812
-0.0295836
0.0295693
-0.0296019
0.0295439
-0.0296232
0.0295501
-0.0295799
0.0295743
-0.0296899
0.0293457
-0.0296777
0.0299202
-0.0292534
0.0288728
-0.0306924
0.0305118
-0.0276571
0.0276652
-0.0324212
0.0331694
-0.0285895
0.0219384
-0.0253136
0.0376482
-0.0434923
0.0301994
-0.0159547
0.0148191
-0.0256339
0.0332733
-0.0390925
0.0432559
-0.0490631
0.0472237
-0.0391377
0.0221079
-0.00621502
-0.00934693
0.0164789
-0.0213963
0.0185325
-0.0169699
0.0100923
-0.0059161
0.351809
0.351809
1
1.07012
1.07586
0.976872
0.935712
0.852469
0.813062
0.778723
0.697449
0.773104
0.567566
0.770866
0.553338
0.617241
0.66548
0.548834
0.525817
0.717753
0.469533
0.581627
0.596642
0.629342
0.527055
0.645663
0.550912
0.707855
0.675891
0.719742
0.583555
0.754935
0.757994
0.897752
0.839182
1.00395
0.945583
1.0124
0.859681
0.909647
0.754499
0.732851
0.47031
0.388973
0.153776
0.152507
0.00430065
0.0692645
-0.0373158
0.0502186
-0.0453424
0.0470705
-0.0464935
0.0466751
-0.0466215
0.0466346
-0.046637
0.0466218
-0.0466559
0.0465965
-0.0466754
0.0466061
-0.0466313
0.0466219
-0.0467556
0.0463995
-0.0466971
0.0469993
-0.0463719
0.0458315
-0.0476363
0.0477821
-0.0449074
0.0443506
-0.0490689
0.0505288
-0.0465867
0.039319
-0.0408252
0.0528597
-0.0615261
0.0504036
-0.0344583
0.0303167
-0.0405081
0.0490806
-0.0548909
0.0581953
-0.0645975
0.0657432
-0.0618091
0.0478075
-0.0326023
0.015203
-0.00461554
-0.00455421
0.00587794
-0.00815978
0.00457378
-0.00622904
-0.346815
-0.346815
1
1.07546
1.08225
1.01914
0.960506
0.908196
0.83985
0.842748
0.713522
0.84569
0.583748
0.823134
0.598961
0.646761
0.697853
0.618769
0.522381
0.773151
0.510554
0.613358
0.607828
0.685416
0.546534
0.684374
0.557794
0.736174
0.687047
0.763213
0.585839
0.765073
0.739337
0.907571
0.820226
1.00843
0.928775
1.02675
0.847534
0.920828
0.740907
0.750851
0.466513
0.412451
0.148756
0.171196
-0.00589681
0.0841074
-0.0498788
0.0638062
-0.0585063
0.0603974
-0.0597619
0.0599632
-0.0599035
0.0599182
-0.0599206
0.0599045
-0.0599401
0.0598794
-0.0599576
0.0598923
-0.0599133
0.0598989
-0.0600508
0.0596865
-0.0599451
0.0603022
-0.059728
0.0590337
-0.0607875
0.0612599
-0.0584324
0.0573142
-0.0618927
0.0640018
-0.0608057
0.0531742
-0.0527829
0.0640135
-0.0752488
0.0668467
-0.049767
0.0424122
-0.0514964
0.0610743
-0.0672263
0.069486
-0.075583
0.0788353
-0.0789226
0.0687918
-0.0556997
0.0379827
-0.0251392
0.0124954
-0.00731691
0.00126102
-0.00140368
-8.83536e-05
0.350039
0.350039
1
1.07852
1.08433
1.05259
0.980748
0.955544
0.861507
0.900924
0.724695
0.909597
0.601739
0.860417
0.647191
0.668553
0.72223
0.684114
0.519513
0.811643
0.552832
0.638323
0.613804
0.728516
0.566199
0.712827
0.563019
0.751653
0.694727
0.795652
0.589773
0.766136
0.72044
0.907205
0.802858
1.00464
0.914428
1.03427
0.840197
0.926873
0.73209
0.762969
0.467178
0.430501
0.148787
0.184862
-0.0109188
0.0939252
-0.0573178
0.0723253
-0.0665748
0.068641
-0.0679422
0.068165
-0.0680985
0.068115
-0.0681174
0.0681004
-0.0681374
0.0680757
-0.0681528
0.0680918
-0.068109
0.0680886
-0.0682583
0.0678897
-0.0681055
0.0685114
-0.0680033
0.0671642
-0.0688321
0.0696234
-0.0669092
0.0652462
-0.0695912
0.072269
-0.0698933
0.0621626
-0.05993
0.069874
-0.0832993
0.0780814
-0.0605415
0.049882
-0.0573036
0.0678418
-0.0747783
0.0760645
-0.0810922
0.0853828
-0.0889289
0.0830721
-0.0732709
0.0567647
-0.0430907
0.028093
-0.0197813
0.0103882
-0.00732296
-2.97342e-05
-0.348775
-0.348775
1
1.07941
1.08399
1.07738
0.997536
0.994622
0.878605
0.952595
0.732872
0.962472
0.624105
0.881579
0.697932
0.683646
0.739174
0.742887
0.520238
0.832554
0.596253
0.657004
0.616927
0.757743
0.587343
0.731491
0.568899
0.754888
0.700931
0.817277
0.597532
0.759137
0.703826
0.897242
0.789011
0.992826
0.904099
1.03457
0.838689
0.927145
0.729025
0.768478
0.473163
0.442273
0.15469
0.192652
-0.00992616
0.0978733
-0.0587882
0.0749325
-0.0687037
0.0709572
-0.0701902
0.0704363
-0.0703624
0.070381
-0.0703832
0.0703654
-0.0704038
0.0703411
-0.0704169
0.0703602
-0.0703743
0.0703467
-0.070534
0.0701648
-0.0703348
0.0707823
-0.0703521
0.0693804
-0.0709295
0.0720241
-0.0694865
0.0673078
-0.0713357
0.0744886
-0.0729722
0.065406
-0.0614703
0.06969
-0.0848133
0.0831293
-0.0658898
0.0519778
-0.0571368
0.0684337
-0.0766225
0.0772669
-0.0807005
0.0849027
-0.0909778
0.0893119
-0.0835963
0.0696728
-0.0566681
0.0406695
-0.0302685
0.0183111
-0.012545
0.00587251
0.348051
0.348051
1
1.07821
1.08268
1.09402
1.0116
1.02591
0.891724
0.997114
0.740145
1.00227
0.652883
0.88657
0.750365
0.693559
0.749445
0.793322
0.527049
0.836334
0.640182
0.67017
0.619341
0.772987
0.610608
0.741267
0.577163
0.746979
0.706968
0.828635
0.610366
0.745277
0.691072
0.878498
0.779629
0.973445
0.898437
1.02762
0.843271
0.921494
0.732043
0.767222
0.484728
0.447502
0.166698
0.194301
-0.00266912
0.0956951
-0.0540343
0.0713726
-0.0646368
0.0670906
-0.0662501
0.0665215
-0.0664395
0.0664603
-0.0664624
0.0664438
-0.0664834
0.0664201
-0.0664943
0.0664419
-0.0664536
0.0664177
-0.0666219
0.0662561
-0.0663781
0.066859
-0.0665169
0.0654278
-0.066828
0.068203
-0.0659014
0.063247
-0.0668858
0.070412
-0.0697583
0.0626064
-0.0571819
0.0633071
-0.0795408
0.0816003
-0.0654783
0.0485349
-0.0508272
0.0625005
-0.0723558
0.0729192
-0.074548
0.0776176
-0.0850344
0.0869975
-0.0856874
0.0754106
-0.0644842
0.0489313
-0.037701
0.024217
-0.0165862
0.0051212
-0.350621
-0.350621
1
1.07502
1.08133
1.10334
1.02331
1.05018
0.901459
1.03386
0.748606
1.02748
0.689301
0.876524
0.802937
0.700175
0.753926
0.833998
0.541646
0.824547
0.683447
0.678833
0.622756
0.77496
0.635898
0.743449
0.588823
0.729548
0.713387
0.830652
0.628563
0.726034
0.68282
0.852156
0.774739
0.947326
0.897253
1.01393
0.853479
0.910356
0.740798
0.759681
0.501487
0.446573
0.184397
0.190185
0.0104583
0.0877773
-0.0434436
0.0620333
-0.0547613
0.0574287
-0.0565092
0.056808
-0.0567172
0.0567405
-0.0567424
0.0567229
-0.0567638
0.0567
-0.0567722
0.0567242
-0.0567342
0.0566891
-0.0569092
0.0565507
-0.0566233
0.0571289
-0.0568834
0.0556945
-0.056919
0.0585449
-0.0565335
0.0534527
-0.0566433
0.0604377
-0.0606158
0.0541022
-0.0474698
0.0512184
-0.0679034
0.0737535
-0.0595849
0.0400176
-0.038886
0.0503675
-0.0621703
0.0633776
-0.0633433
0.0644533
-0.0719092
0.0765257
-0.0794272
0.0734323
-0.0657438
0.0520208
-0.0413025
0.0274894
-0.0189722
0.00967096
0.34651
0.34651
1
1.07008
1.08036
1.10654
1.03268
1.06841
0.908438
1.0623
0.760138
1.03734
0.73357
0.853742
0.853451
0.705565
0.75356
0.863957
0.564768
0.799783
0.72441
0.684183
0.628319
0.765168
0.662379
0.739656
0.604134
0.704704
0.720007
0.824643
0.651514
0.703183
0.678867
0.819815
0.773568
0.915754
0.899633
0.99455
0.868184
0.894752
0.754301
0.746947
0.522436
0.440495
0.206751
0.181307
0.0284371
0.0751305
-0.0280281
0.0479269
-0.0400886
0.0429835
-0.0419791
0.0423076
-0.0422071
0.0422332
-0.0422348
0.0422146
-0.0422566
0.0421924
-0.0422625
0.0422188
-0.0422279
0.0421727
-0.0424075
0.0420601
-0.042083
0.0426037
-0.0424615
0.0411927
-0.0422186
0.04406
-0.0423863
0.0389363
-0.0416329
0.0455917
-0.0465401
0.040852
-0.0333462
0.0345414
-0.0509752
0.0604853
-0.0490816
0.0274898
-0.0224811
0.0330342
-0.0468601
0.0495101
-0.0483024
0.0469553
-0.0531912
0.0591863
-0.0656131
0.0640308
-0.0603569
0.0496312
-0.0406984
0.0277861
-0.0195013
0.00719106
-0.35172
-0.35172
1
1.06376
1.07977
1.10507
1.03949
1.08164
0.913325
1.082
0.776223
1.03201
0.78479
0.821559
0.899258
0.711796
0.749323
0.882784
0.596126
0.765474
0.761103
0.687501
0.636554
0.745829
0.688597
0.731739
0.622646
0.674954
0.726035
0.812263
0.67785
0.678758
0.678312
0.78346
0.774725
0.880437
0.904083
0.971031
0.885717
0.876207
0.771023
0.73064
0.546041
0.43081
0.232194
0.169199
0.0497172
0.059296
-0.00933067
0.0305963
-0.022161
0.0252977
-0.0242023
0.0245629
-0.0244519
0.024481
-0.0244822
0.0244613
-0.0245043
0.0244401
-0.0245078
0.0244683
-0.0244772
0.0244113
-0.0246592
0.0243267
-0.0243002
0.0248265
-0.024792
0.023465
-0.0242736
0.0262901
-0.0249947
0.0212388
-0.0234088
0.0274336
-0.0290646
0.0243435
-0.0163363
0.0149188
-0.0303881
0.0432433
-0.035344
0.012511
-0.00333372
0.0120936
-0.0277591
0.0326167
-0.0310262
0.0271302
-0.0310873
0.0370391
-0.0458905
0.0483287
-0.0489706
0.0420597
-0.0359736
0.0250887
-0.0180692
0.00978902
0.345947
0.345947
1
1.05659
1.07918
1.10054
1.04338
1.0909
0.916821
1.09274
0.797778
1.01263
0.840972
0.784094
0.937517
0.720715
0.74219
0.890644
0.63444
0.725639
0.791439
0.690051
0.647387
0.719709
0.712659
0.721643
0.643328
0.643063
0.730243
0.795409
0.705649
0.654939
0.679765
0.745349
0.776409
0.843377
0.908726
0.945267
0.90404
0.856593
0.789062
0.712735
0.570406
0.419434
0.258791
0.155764
0.0723771
0.0421859
0.0107341
0.0119559
-0.0028921
0.00628534
-0.00509271
0.00548778
-0.0053654
0.00539784
-0.0053986
0.00537691
-0.00542088
0.00535681
-0.00542195
0.00538639
-0.00539597
0.00531876
-0.0055782
0.00526404
-0.00518934
0.00571135
-0.00578698
0.0044246
-0.00500221
0.00714962
-0.00626466
0.00227057
-0.00389428
0.0078958
-0.0101013
0.0064368
0.00168037
-0.00564596
-0.00817004
0.0238744
-0.0200987
-0.00303292
0.0164556
-0.01042
-0.00661358
0.0142977
-0.0133293
0.00722705
-0.00818389
0.0126969
-0.0225854
0.0281704
-0.0329158
0.0301894
-0.0276751
0.0197126
-0.0148919
0.00536248
-0.35171
-0.35171
1
1.04919
1.07801
1.09455
1.04401
1.09705
0.919652
1.09453
0.825044
0.98131
0.899188
0.745912
0.965512
0.733753
0.733136
0.888273
0.677581
0.684569
0.813444
0.692962
0.660239
0.689916
0.73248
0.711255
0.664752
0.611862
0.731201
0.776073
0.73268
0.633891
0.681585
0.707839
0.776657
0.806698
0.911526
0.919302
0.920966
0.83792
0.806348
0.695363
0.593478
0.408442
0.284449
0.143068
0.0943324
0.0258752
0.0300889
-0.00591736
0.0156414
-0.0119765
0.013273
-0.0128408
0.0129756
-0.0129395
0.0129393
-0.0129616
0.0129168
-0.0129805
0.0129182
-0.01295
0.0129389
-0.0130278
0.0127588
-0.0130514
0.0131722
-0.0126641
0.0124783
-0.0138524
0.0135146
-0.0112835
0.0117341
-0.0158959
0.0148265
-0.0109259
0.00826713
-0.0108413
0.0186773
-0.0250024
0.0134681
0.00442278
-0.00522332
-0.0171447
0.0346335
-0.0322402
0.0145969
-0.00371778
0.00296179
-0.0105159
0.0128431
-0.0109634
0.0015492
0.00592654
-0.0140691
0.0154022
-0.016762
0.0122807
-0.0102819
0.00623139
0.34651
0.34651
1
1.04219
1.07556
1.08857
1.04117
1.10075
0.922538
1.08771
0.857536
0.941044
0.955829
0.711624
0.980976
0.751756
0.723127
0.876918
0.722788
0.646475
0.825507
0.697111
0.674168
0.659643
0.746054
0.70223
0.685304
0.584035
0.727524
0.756164
0.756669
0.617575
0.682122
0.673177
0.773589
0.772423
0.910534
0.895099