# vtk DataFile Version 2.0
FlowField
ASCII
DATASET STRUCTURED_GRID
DIMENSIONS 100 1 100
POINTS 10000 float
0 0 0
0.01 0 0
0.02 0 0
0.03 0 0
0.04 0 0
0.05 0 0
0.06 0 0
0.07 0 0
0.08 0 0
0.09 0 0
0.1 0 0
0.11 0 0
0.12 0 0
0.13 0 0
0.14 0 0
0.15 0 0
0.16 0 0
0.17 0 0
0.18 0 0
0.19 0 0
0.2 0 0
0.21 0 0
0.22 0 0
0.23 0 0
0.24 0 0
0.25 0 0
0.26 0 0
0.27 0 0
0.28 0 0
0.29 0 0
0.3 0 0
0.31 0 0
0.32 0 0
0.33 0 0
0.34 0 0
0.35 0 0
0.36 0 0
0.37 0 0
0.38 0 0
0.39 0 0
0.4 0 0
0.41 0 0
0.42 0 0
0.43 0 0
0.44 0 0
0.45 0 0
0.46 0 0
0.47 0 0
0.48 0 0
0.49 0 0
0.5 0 0
0.51 0 0
0.52 0 0
0.53 0 0
0.54 0 0
0.55 0 0
0.56 0 0
0.57 0 0
0.58 0 0
0.59 0 0
0.6 0 0
0.61 0 0
0.62 0 0
0.63 0 0
0.64 0 0
0.65 0 0
0.66 0 0
0.67 0 0
0.68 0 0
0.69 0 0
0.7 0 0
0.71 0 0
0.72 0 0
0.73 0 0
0.74 0 0
0.75 0 0
0.76 0 0
0.77 0 0
0.78 0 0
0.79 0 0
0.8 0 0
0.81 0 0
0.82 0 0
0.83 0 0
0.84 0 0
0.85 0 0
0.86 0 0
0.87 0 0
0.88 0 0
0.89 0 0
0.9 0 0
0.91 0 0
0.92 0 0
0.93 0 0
0.94 0 0
0.95 0 0
0.96 0 0
0.97 0 0
0.98 0 0
0.99 0 0
0 0.001 0
0.01 0.001 0
0.02 0.001 0
0.03 0.001 0
0.04 0.001 0
0.05 0.001 0
0.06 0.001 0
0.07 0.001 0
0.08 0.001 0
0.09 0.001 0
0.1 0.001 0
0.11 0.001 0
0.12 0.001 0
0.13 0.001 0
0.14 0.001 0
0.15 0.001 0
0.16 0.001 0
0.17 0.001 0
0.18 0.001 0
0.19 0.001 0
0.2 0.001 0
0.21 0.001 0
0.22 0.001 0
0.23 0.001 0
0.24 0.001 0
0.25 0.001 0
0.26 0.001 0
0.27 0.001 0
0.28 0.001 0
0.29 0.001 0
0.3 0.001 0
0.31 0.001 0
0.32 0.001 0
0.33 0.001 0
0.34 0.001 0
0.35 0.001 0
0.36 0.001 0
0.37 0.001 0
0.38 0.001 0
0.39 0.001 0
0.4 0.001 0
0.41 0.001 0
0.42 0.001 0
0.43 0.001 0
0.44 0.001 0
0.45 0.001 0
0.46 0.001 0
0.47 0.001 0
0.48 0.001 0
0.49 0.001 0
0.5 0.001 0
0.51 0.001 0
0.52 0.001 0
0.53 0.001 0
0.54 0.001 0
0.55 0.001 0
0.56 0.001 0
0.57 0.001 0
0.58 0.001 0
0.59 0.001 0
0.6 0.001 0
0.61 0.001 0
0.62 0.001 0
0.63 0.001 0
0.64 0.001 0
0.65 0.001 0
0.66 0.001 0
0.67 0.001 0
0.68 0.001 0
0.69 0.001 0
0.7 0.001 0
0.71 0.001 0
0.72 0.001 0
0.73 0.001 0
0.74 0.001 0
0.75 0.001 0
0.76 0.001 0
0.77 0.001 0
0.78 0.001 0
0.79 0.001 0
0.8 0.001 0
0.81 0.001 0
0.82 0.001 0
0.83 0.001 0
0.84 0.001 0
0.85 0.001 0
0.86 0.001 0
0.87 0.001 0
0.88 0.001 0
0.89 0.001 0
0.9 0.001 0
0.91 0.001 0
0.92 0.001 0
0.93 0.001 0
0.94 0.001 0
0.95 0.001 0
0.96 0.001 0
0.97 0.001 0
0.98 0.001 0
0.99 0.001 0
0 0.002 0
0.01 0.002 0
0.02 0.002 0
0.03 0.002 0
0.04 0.002 0
0.05 0.002 0
0.06 0.002 0
0.07 0.002 0
0.08 0.002 0
0.09 0.002 0
0.1 0.002 0
0.11 0.002 0
0.12 0.002 0
0.13 0.002 0
0.14 0.002 0
0.15 0.002 0
0.16 0.002 0
0.17 0.002 0
0.18 0.002 0
0.19 0.002 0
0.2 0.002 0
0.21 0.002 0
0.22 0.002 0
0.23 0.002 0
0.24 0.002 0
0.25 0.002 0
0.26 0.002 0
0.27 0.002 0
0.28 0.002 0
0.29 0.002 0
0.3 0.002 0
0.31 0.002 0
0.32 0.002 0
0.33 0.002 0
0.34 0.002 0
0.35 0.002 0
0.36 0.002 0
0.37 0.002 0
0.38 0.002 0
0.39 0.002 0
0.4 0.002 0
0.41 0.002 0
0.42 0.002 0
0.43 0.002 0
0.44 0.002 0
0.45 0.002 0
0.46 0.002 0
0.47 0.002 0
0.48 0.002 0
0.49 0.002 0
0.5 0.002 0
0.51 0.002 0
0.52 0.002 0
0.53 0.002 0
0.54 0.002 0
0.55 0.002 0
0.56 0.002 0
0.57 0.002 0
0.58 0.002 0
0.59 0.002 0
0.6 0.002 0
0.61 0.002 0
0.62 0.002 0
0.63 0.002 0
0.64 0.002 0
0.65 0.002 0
0.66 0.002 0
0.67 0.002 0
0.68 0.002 0
0.69 0.002 0
0.7 0.002 0
0.71 0.002 0
0.72 0.002 0
0.73 0.002 0
0.74 0.002 0
0.75 0.002 0
0.76 0.002 0
0.77 0.002 0
0.78 0.002 0
0.79 0.002 0
0.8 0.002 0
0.81 0.002 0
0.82 0.002 0
0.83 0.002 0
0.84 0.002 0
0.85 0.002 0
0.86 0.002 0
0.87 0.002 0
0.88 0.002 0
0.89 0.002 0
0.9 0.002 0
0.91 0.002 0
0.92 0.002 0
0.93 0.002 0
0.94 0.002 0
0.95 0.002 0
0.96 0.002 0
0.97 0.002 0
0.98 0.002 0
0.99 0.002 0
0 0.003 0
0.01 0.003 0
0.02 0.003 0
0.03 0.003 0
0.04 0.003 0
0.05 0.003 0
0.06 0.003 0
0.07 0.003 0
0.08 0.003 0
0.09 0.003 0
0.1 0.003 0
0.11 0.003 0
0.12 0.003 0
0.13 0.003 0
0.14 0.003 0
0.15 0.003 0
0.16 0.003 0
0.17 0.003 0
0.18 0.003 0
0.19 0.003 0
0.2 0.003 0
0.21 0.003 0
0.22 0.003 0
0.23 0.003 0
0.24 0.003 0
0.25 0.003 0
0.26 0.003 0
0.27 0.003 0
0.28 0.003 0
0.29 0.003 0
0.3 0.003 0
0.31 0.003 0
0.32 0.003 0
0.33 0.003 0
0.34 0.003 0
0.35 0.003 0
0.36 0.003 0
0.37 0.003 0
0.38 0.003 0
0.39 0.003 0
0.4 0.003 0
0.41 0.003 0
0.42 0.003 0
0.43 0.003 0
0.44 0.003 0
0.45 0.003 0
0.46 0.003 0
0.47 0.003 0
0.48 0.003 0
0.49 0.003 0
0.5 0.003 0
0.51 0.003 0
0.52 0.003 0
0.53 0.003 0
0.54 0.003 0
0.55 0.003 0
0.56 0.003 0
0.57 0.003 0
0.58 0.003 0
0.59 0.003 0
0.6 0.003 0
0.61 0.003 0
0.62 0.003 0
0.63 0.003 0
0.64 0.003 0
0.65 0.003 0
0.66 0.003 0
0.67 0.003 0
0.68 0.003 0
0.69 0.003 0
0.7 0.003 0
0.71 0.003 0
0.72 0.003 0
0.73 0.003 0
0.74 0.003 0
0.75 0.003 0
0.76 0.003 0
0.77 0.003 0
0.78 0.003 0
0.79 0.003 0
0.8 0.003 0
0.81 0.003 0
0.82 0.003 0
0.83 0.003 0
0.84 0.003 0
0.85 0.003 0
0.86 0.003 0
0.87 0.003 0
0.88 0.003 0
0.89 0.003 0
0.9 0.003 0
0.91 0.003 0
0.92 0.003 0
0.93 0.003 0
0.94 0.003 0
0.95 0.003 0
0.96 0.003 0
0.97 0.003 0
0.98 0.003 0
0.99 0.003 0
0 0.004 0
0.01 0.004 0
0.02 0.004 0
0.03 0.004 0
0.04 0.004 0
0.05 0.004 0
0.06 0.004 0
0.07 0.004 0
0.08 0.004 0
0.09 0.004 0
0.1 0.004 0
0.11 0.004 0
0.12 0.004 0
0.13 0.004 0
0.14 0.004 0
0.15 0.004 0
0.16 0.004 0
0.17 0.004 0
0.18 0.004 0
0.19 0.004 0
0.2 0.004 0
0.21 0.004 0
0.22 0.004 0
0.23 0.004 0
0.24 0.004 0
0.25 0.004 0
0.26 0.004 0
0.27 0.004 0
0.28 0.004 0
0.29 0.004 0
0.3 0.004 0
0.31 0.004 0
0.32 0.004 0
0.33 0.004 0
0.34 0.004 0
0.35 0.004 0
0.36 0.004 0
0.37 0.004 0
0.38 0.004 0
0.39 0.004 0
0.4 0.004 0
0.41 0.004 0
0.42 0.004 0
0.43 0.004 0
0.44 0.004 0
0.45 0.004 0
0.46 0.004 0
0.47 0.004 0
0.48 0.004 0
0.49 0.004 0
0.5 0.004 0
0.51 0.004 0
0.52 0.004 0
0.53 0.004 0
0.54 0.004 0
0.55 0.004 0
0.56 0.004 0
0.57 0.004 0
0.58 0.004 0
0.59 0.004 0
0.6 0.004 0
0.61 0.004 0
0.62 0.004 0
0.63 0.004 0
0.64 0.004 0
0.65 0.004 0
0.66 0.004 0
0.67 0.004 0
0.68 0.004 0
0.69 0.004 0
0.7 0.004 0
0.71 0.004 0
0.72 0.004 0
0.73 0.004 0
0.74 0.004 0
0.75 0.004 0
0.76 0.004 0
0.77 0.004 0
0.78 0.004 0
0.79 0.004 0
0.8 0.004 0
0.81 0.004 0
0.82 0.004 0
0.83 0.004 0
0.84 0.004 0
0.85 0.004 0
0.86 0.004 0
0.87 0.004 0
0.88 0.004 0
0.89 0.004 0
0.9 0.004 0
0.91 0.004 0
0.92 0.004 0
0.93 0.004 0
0.94 0.004 0
0.95 0.004 0
0.96 0.004 0
0.97 0.004 0
0.98 0.004 0
0.99 0.004 0
0 0.005 0
0.01 0.005 0
0.02 0.005 0
0.03 0.005 0
0.04 0.005 0
0.05 0.005 0
0.06 0.005 0
0.07 0.005 0
0.08 0.005 0
0.09 0.005 0
0.1 0.005 0
0.11 0.005 0
0.12 0.005 0
0.13 0.005 0
0.14 0.005 0
0.15 0.005 0
0.16 0.005 0
0.17 0.005 0
0.18 0.005 0
0.19 0.005 0
0.2 0.005 0
0.21 0.005 0
0.22 0.005 0
0.23 0.005 0
0.24 0.005 0
0.25 0.005 0
0.26 0.005 0
0.27 0.005 0
0.28 0.005 0
0.29 0.005 0
0.3 0.005 0
0.31 0.005 0
0.32 0.005 0
0.33 0.005 0
0.34 0.005 0
0.35 0.005 0
0.36 0.005 0
0.37 0.005 0
0.38 0.005 0
0.39 0.005 0
0.4 0.005 0
0.41 0.005 0
0.42 0.005 0
0.43 0.005 0
0.44 0.005 0
0.45 0.005 0
0.46 0.005 0
0.47 0.005 0
0.48 0.005 0
0.49 0.005 0
0.5 0.005 0
0.51 0.005 0
0.52 0.005 0
0.53 0.005 0
0.54 0.005 0
0.55 0.005 0
0.56 0.005 0
0.57 0.005 0
0.58 0.005 0
0.59 0.005 0
0.6 0.005 0
0.61 0.005 0
0.62 0.005 0
0.63 0.005 0
0.64 0.005 0
0.65 0.005 0
0.66 0.005 0
0.67 0.005 0
0.68 0.005 0
0.69 0.005 0
0.7 0.005 0
0.71 0.005 0
0.72 0.005 0
0.73 0.005 0
0.74 0.005 0
0.75 0.005 0
0.76 0.005 0
0.77 0.005 0
0.78 0.005 0
0.79 0.005 0
0.8 0.005 0
0.81 0.005 0
0.82 0.005 0
0.83 0.005 0
0.84 0.005 0
0.85 0.005 0
0.86 0.005 0
0.87 0.005 0
0.88 0.005 0
0.89 0.005 0
0.9 0.005 0
0.91 0.005 0
0.92 0.005 0
0.93 0.005 0
0.94 0.005 0
0.95 0.005 0
0.96 0.005 0
0.97 0.005 0
0.98 0.005 0
0.99 0.005 0
0 0.006 0
0.01 0.006 0
0.02 0.006 0
0.03 0.006 0
0.04 0.006 0
0.05 0.006 0
0.06 0.006 0
0.07 0.006 0
0.08 0.006 0
0.09 0.006 0
0.1 0.006 0
0.11 0.006 0
0.12 0.006 0
0.13 0.006 0
0.14 0.006 0
0.15 0.006 0
0.16 0.006 0
0.17 0.006 0
0.18 0.006 0
0.19 0.006 0
0.2 0.006 0
0.21 0.006 0
0.22 0.006 0
0.23 0.006 0
0.24 0.006 0
0.25 0.006 0
0.26 0.006 0
0.27 0.006 0
0.28 0.006 0
0.29 0.006 0
0.3 0.006 0
0.31 0.006 0
0.32 0.006 0
0.33 0.006 0
0.34 0.006 0
0.35 0.006 0
0.36 0.006 0
0.37 0.006 0
0.38 0.006 0
0.39 0.006 0
0.4 0.006 0
0.41 0.006 0
0.42 0.006 0
0.43 0.006 0
0.44 0.006 0
0.45 0.006 0
0.46 0.006 0
0.47 0.006 0
0.48 0.006 0
0.49 0.006 0
0.5 0.006 0
0.51 0.006 0
0.52 0.006 0
0.53 0.006 0
0.54 0.006 0
0.55 0.006 0
0.56 0.006 0
0.57 0.006 0
0.58 0.006 0
0.59 0.006 0
0.6 0.006 0
0.61 0.006 0
0.62 0.006 0
0.63 0.006 0
0.64 0.006 0
0.65 0.006 0
0.66 0.006 0
0.67 0.006 0
0.68 0.006 0
0.69 0.006 0
0.7 0.006 0
0.71 0.006 0
0.72 0.006 0
0.73 0.006 0
0.74 0.006 0
0.75 0.006 0
0.76 0.006 0
0.77 0.006 0
0.78 0.006 0
0.79 0.006 0
0.8 0.006 0
0.81 0.006 0
0.82 0.006 0
0.83 0.006 0
0.84 0.006 0
0.85 0.006 0
0.86 0.006 0
0.87 0.006 0
0.88 0.006 0
0.89 0.006 0
0.9 0.006 0
0.91 0.006 0
0.92 0.006 0
0.93 0.006 0
0.94 0.006 0
0.95 0.006 0
0.96 0.006 0
0.97 0.006 0
0.98 0.006 0
0.99 0.006 0
0 0.007 0
0.01 0.007 0
0.02 0.007 0
0.03 0.007 0
0.04 0.007 0
0.05 0.007 0
0.06 0.007 0
0.07 0.007 0
0.08 0.007 0
0.09 0.007 0
0.1 0.007 0
0.11 0.007 0
0.12 0.007 0
0.13 0.007 0
0.14 0.007 0
0.15 0.007 0
0.16 0.007 0
0.17 0.007 0
0.18 0.007 0
0.19 0.007 0
0.2 0.007 0
0.21 0.007 0
0.22 0.007 0
0.23 0.007 0
0.24 0.007 0
0.25 0.007 0
0.26 0.007 0
0.27 0.007 0
0.28 0.007 0
0.29 0.007 0
0.3 0.007 0
0.31 0.007 0
0.32 0.007 0
0.33 0.007 0
0.34 0.007 0
0.35 0.007 0
0.36 0.007 0
0.37 0.007 0
0.38 0.007 0
0.39 0.007 0
0.4 0.007 0
0.41 0.007 0
0.42 0.007 0
0.43 0.007 0
0.44 0.007 0
0.45 0.007 0
0.46 0.007 0
0.47 0.007 0
0.48 0.007 0
0.49 0.007 0
0.5 0.007 0
0.51 0.007 0
0.52 0.007 0
0.53 0.007 0
0.54 0.007 0
0.55 0.007 0
0.56 0.007 0
0.57 0.007 0
0.58 0.007 0
0.59 0.007 0
0.6 0.007 0
0.61 0.007 0
0.62 0.007 0
0.63 0.007 0
0.64 0.007 0
0.65 0.007 0
0.66 0.007 0
0.67 0.007 0
0.68 0.007 0
0.69 0.007 0
0.7 0.007 0
0.71 0.007 0
0.72 0.007 0
0.73 0.007 0
0.74 0.007 0
0.75 0.007 0
0.76 0.007 0
0.77 0.007 0
0.78 0.007 0
0.79 0.007 0
0.8 0.007 0
0.81 0.007 0
0.82 0.007 0
0.83 0.007 0
0.84 0.007 0
0.85 0.007 0
0.86 0.007 0
0.87 0.007 0
0.88 0.007 0
0.89 0.007 0
0.9 0.007 0
0.91 0.007 0
0.92 0.007 0
0.93 0.007 0
0.94 0.007 0
0.95 0.007 0
0.96 0.007 0
0.97 0.007 0
0.98 0.007 0
[...]
POINT_DATA 10000

SCALARS vel_X float 1
LOOKUP_TABLE default
0
0
0
0
0
0
0
0
0
0
0
0
0
0
0
0
0
0
0
0
0
0
0
0
0
0
0
0
0
0
0
0
0
0
0
0
0
0
0
0
0
0
0
0
0
0
0
0
0
0
0
0
0
0
0
0
0
0
0
0
0
0
0
0
0
0
0
0
0
0
0
0
0
0
0
0
0
0
0
0
0
0
0
0
0
0
0
0
0
0
0
0
0
0
0
0
0
0
0
0
1
0.323456
0.20599
0.124316
0.157901
0.058555
0.15
0.0435143
0.109973
0.0728716
0.0639578
0.0835778
0.0607877
0.0560253
0.103852
0.00638396
0.094708
0.0888604
0.0573169
0.0445064
0.115462
0.0592445
0.114758
0.149089
0.191254
0.137783
0.200378
0.215702
0.257689
0.217712
0.277756
0.288974
0.329184
0.245076
0.197858
0.0905206
0.0720755
0.0092624
0.0274528
-0.0123065
0.0180607
-0.0160337
0.0166986
-0.0164945
0.0165533
-0.0165373
0.0165414
-0.0165404
0.0165406
-0.0165406
0.0165406
-0.0165406
0.0165406
-0.0165406
0.0165406
-0.0165406
0.0165406
-0.0165406
0.0165405
-0.0165409
0.0165395
-0.0165438
0.0165329
-0.0165558
0.0165184
-0.0165592
0.0165447
-0.016515
0.0165256
-0.0166705
0.0164083
-0.0163592
0.0169368
-0.0168021
0.0156091
-0.0161592
0.0180807
-0.0177578
0.0145803
-0.0134502
0.0169979
-0.0214344
0.0203165
-0.0155278
0.0107031
-0.00902857
0.0118039
-0.0192641
0.0260737
-0.0290045
0.0268223
-0.0226474
0.0173594
-0.0131161
0.0089789
-0.00637843
0.00331062
-0.00519036
-0.22802
-0.22802
1
0.565029
0.381458
0.25811
0.283601
0.151756
0.263017
0.118772
0.209152
0.148992
0.144792
0.164683
0.133291
0.132814
0.188998
0.0643088
0.189381
0.174377
0.136463
0.129558
0.225445
0.156787
0.246284
0.298722
0.355296
0.29139
0.38672
0.411617
0.467618
0.417836
0.502242
0.510301
0.54147
0.398559
0.30727
0.143853
0.107243
0.0171792
0.0385886
-0.015712
0.0243652
-0.0213282
0.0223215
-0.0220174
0.0221048
-0.0220811
0.0220872
-0.0220857
0.0220861
-0.022086
0.022086
-0.022086
0.022086
-0.022086
0.022086
-0.022086
0.022086
-0.022086
0.0220859
-0.0220865
0.0220844
-0.0220908
0.0220743
-0.0221095
0.0220507
-0.0221185
0.0220852
-0.0220525
0.0220674
-0.0222724
0.0218724
-0.0218669
0.0226636
-0.0223737
0.0207505
-0.0217377
0.0242655
-0.0235021
0.0191682
-0.0181602
0.0232173
-0.0288115
0.026525
-0.0200332
0.0140072
-0.0126198
0.0168013
-0.0267826
0.0350648
-0.038251
0.0346356
-0.0289433
0.021714
-0.0163412
0.0108472
-0.00784958
0.00375931
-0.00270284
0.335553
0.335553
1
0.736371
0.535946
0.383681
0.39812
0.254883
0.357352
0.214078
0.293891
0.236436
0.228208
0.247118
0.215698
0.213711
0.274209
0.149417
0.273793
0.266831
0.232196
0.228441
0.331938
0.272899
0.371463
0.435349
0.500274
0.443351
0.545601
0.577751
0.636241
0.586585
0.666668
0.662909
0.668888
0.492785
0.367487
0.178263
0.12438
0.0253217
0.0417541
-0.0142282
0.0246522
-0.0209882
0.022189
-0.0218206
0.0219268
-0.0218979
0.0219053
-0.0219035
0.021904
-0.0219039
0.0219039
-0.0219039
0.0219039
-0.0219039
0.0219039
-0.0219039
0.0219039
-0.0219039
0.0219037
-0.0219045
0.0219019
-0.0219096
0.0218898
-0.021932
0.0218613
-0.0219444
0.0218979
-0.0218721
0.0218771
-0.022117
0.0216611
-0.021673
0.0225208
-0.0222247
0.0204725
-0.0215322
0.0241633
-0.0234436
0.0189289
-0.0178095
0.0228518
-0.0287688
0.026563
-0.02019
0.0139559
-0.0123664
0.0159217
-0.0257255
0.0341339
-0.0382261
0.0351955
-0.0301224
0.0227765
-0.0175096
0.0115502
-0.00862754
0.00397047
-0.00520738
-0.293733
-0.293733
1
0.854076
0.670066
0.496592
0.506897
0.356136
0.444464
0.314919
0.371162
0.329562
0.310015
0.331194
0.302305
0.293506
0.363258
0.243112
0.350948
0.363783
0.334297
0.327478
0.434179
0.389222
0.481909
0.554107
0.62761
0.579407
0.674387
0.711094
0.767856
0.716801
0.777866
0.759178
0.741905
0.5504
0.402729
0.202283
0.134163
0.0328644
0.042287
-0.0113121
0.0230969
-0.0189351
0.0203057
-0.0198831
0.0200055
-0.0199721
0.0199807
-0.0199786
0.0199791
-0.019979
0.019979
-0.019979
0.019979
-0.019979
0.019979
-0.019979
0.019979
-0.0199791
0.0199788
-0.0199797
0.0199768
-0.0199854
0.0199634
-0.02001
0.0199326
-0.0200232
0.0199704
-0.0199524
0.0199383
-0.0202095
0.0197396
-0.0197255
0.0205682
-0.0203881
0.0185806
-0.0194535
0.0220862
-0.0217886
0.0174001
-0.0157554
0.0201028
-0.0263872
0.0251474
-0.0195052
0.0130606
-0.0106455
0.0125604
-0.0212619
0.0297812
-0.0355812
0.034318
-0.0308069
0.0240057
-0.0191083
0.0128017
-0.00983539
0.00462414
-0.00270745
0.311069
0.311069
1
0.933273
0.782886
0.597558
0.608007
0.452887
0.526603
0.413825
0.445018
0.421888
0.389214
0.414856
0.388162
0.370784
0.452119
0.336824
0.422814
0.458863
0.434116
0.420948
0.528086
0.49547
0.5751
0.653689
0.734944
0.693322
0.774245
0.813212
0.865553
0.810403
0.847423
0.815764
0.781965
0.586915
0.425449
0.221004
0.141012
0.0399691
0.0420234
-0.00800267
0.0210321
-0.016401
0.0179359
-0.0174598
0.0175985
-0.0175604
0.0175703
-0.0175679
0.0175685
-0.0175683
0.0175684
-0.0175684
0.0175684
-0.0175684
0.0175684
-0.0175684
0.0175683
-0.0175684
0.0175682
-0.0175691
0.0175659
-0.0175754
0.0175515
-0.0176012
0.01752
-0.0176132
0.0175597
-0.0175473
0.0175106
-0.0178134
0.0173492
-0.0172792
0.0181039
-0.0181024
0.0162474
-0.0168114
0.0194499
-0.0197385
0.0155477
-0.0131776
0.0166145
-0.0233607
0.0234261
-0.0186137
0.0118885
-0.0084769
0.00854298
-0.0158687
0.0244402
-0.0320992
0.0329784
-0.0313562
0.0253857
-0.0209462
0.0143534
-0.0112472
0.00547283
-0.00573095
-0.30239
-0.30239
1
0.98568
0.874702
0.687867
0.698613
0.545163
0.602357
0.50806
0.515732
0.509612
0.464741
0.49558
0.470025
0.444383
0.535607
0.427459
0.488643
0.546552
0.526044
0.506441
0.609627
0.587689
0.650607
0.734134
0.820227
0.784544
0.847874
0.88803
0.933355
0.874476
0.887153
0.847436
0.802466
0.612158
0.441441
0.237588
0.146293
0.0473334
0.0411263
-0.00413209
0.0184085
-0.0132971
0.0150032
-0.0144704
0.0146267
-0.0145835
0.0145948
-0.014592
0.0145926
-0.0145925
0.0145925
-0.0145925
0.0145925
-0.0145925
0.0145925
-0.0145925
0.0145925
-0.0145926
0.0145923
-0.0145934
0.0145898
-0.0146002
0.0145745
-0.0146269
0.0145433
-0.0146362
0.0145855
-0.0145768
0.0145167
-0.01485
0.0144022
-0.0142619
0.0150638
-0.0152625
0.0133694
-0.0135854
0.0162203
-0.0171212
0.0131778
-0.0100826
0.0125399
-0.0196775
0.0210809
-0.017115
0.0101953
-0.00594102
0.00429586
-0.0100719
0.0183301
-0.0275053
0.0304991
-0.0309177
0.0260636
-0.0222833
0.015614
-0.0124368
0.0062634
-0.00341566
0.308207
0.308207
1
1.01979
0.947074
0.768305
0.777123
0.632715
0.67029
0.596415
0.582059
0.591053
0.535064
0.571322
0.545947
0.512925
0.609983
0.513646
0.546856
0.623468
0.606935
0.582806
0.676646
0.665258
0.70898
0.796302
0.883373
0.855255
0.898848
0.940448
0.976573
0.917302
0.907028
0.864878
0.811371
0.631775
0.453351
0.253773
0.150342
0.0555179
0.0393943
0.000635485
0.0149374
-0.00931903
0.0112084
-0.0106141
0.0107896
-0.0107408
0.0107536
-0.0107505
0.0107512
-0.010751
0.0107511
-0.0107511
0.0107511
-0.0107511
0.0107511
-0.0107511
0.0107511
-0.0107511
0.0107508
-0.010752
0.0107481
-0.0107593
0.0107319
-0.0107868
0.0107016
-0.0107926
0.0107467
-0.0107405
0.0106574
-0.011018
0.0105947
-0.0103796
0.0111505
-0.0115507
0.00964529
-0.00950991
0.012098
-0.0135783
0.00996178
-0.00624686
0.00767189
-0.0150043
0.0176697
-0.0146109
0.00767844
-0.00284875
-0.000264228
-0.0037983
0.0112168
-0.0213343
0.0262336
-0.0287918
0.0253857
-0.0225796
0.0161673
-0.0131177
0.00675458
-0.00633972
-0.303294
-0.303294
1
1.04162
1.00219
0.839364
0.843182
0.714667
0.729904
0.67788
0.642742
0.665559
0.598701
0.640667
0.614802
0.575261
0.673157
0.594299
0.596479
0.688113
0.675271
0.649603
0.728941
0.72897
0.751499
0.841801
0.92609
0.908563
0.93122
0.97552
1.00099
0.946101
0.914527
0.874889
0.813332
0.648696
0.462473
0.270321
0.1533
0.0647524
0.0367414
0.00643967
0.0104987
-0.00433971
0.00642648
-0.00576539
0.00596201
-0.00590697
0.00592152
-0.00591788
0.00591875
-0.00591855
0.00591859
-0.00591858
0.00591859
-0.00591859
0.00591858
-0.00591859
0.00591857
-0.00591866
0.00591829
-0.00591963
0.00591529
-0.00592749
0.00589837
-0.00595537
0.00586931
-0.00595731
0.00591711
-0.00591334
0.00580774
-0.00619148
0.0057999
-0.00551117
0.00623849
-0.00683324
0.00495279
-0.00447536
0.00695314
-0.00895963
0.00576704
-0.0015782
0.0019179
-0.00919642
0.0130206
-0.0109617
0.00420605
0.000934549
-0.00523162
0.0029706
0.00309032
-0.0134945
0.0199603
-0.0246693
0.0230175
-0.0215375
0.015773
-0.013124
0.00687699
-0.00372854
0.307858
0.307858
1
1.05534
1.04237
0.901496
0.897236
0.789921
0.78142
0.75155
0.696934
0.732905
0.654664
0.702668
0.676032
0.6308
0.724231
0.668413
0.637554
0.740292
0.730601
0.706936
0.76765
0.780169
0.780063
0.872807
0.951145
0.947645
0.949104
0.997877
1.01192
0.966235
0.914807
0.881403
0.811075
0.66427
0.469544
0.287418
0.155349
0.0749952
0.0332619
0.0132068
0.00517394
0.0015624
0.000737372
-3.51607e-06
0.00022331
-0.000161363
0.000177852
-0.000173698
0.000174691
-0.000174465
0.000174514
-0.000174504
0.000174506
-0.000174506
0.000174505
-0.00017451
0.000174487
-0.000174588
0.000174178
-0.000175663
0.000170919
-0.000184056
0.000153236
-0.000212249
0.000125734
-0.00021012
0.000175874
-0.000175155
4.72167e-05
-0.00044932
9.63519e-05
0.000261759
0.000406856
-0.0011855
-0.000628316
0.00143229
0.000866774
-0.0033379
0.00066152
0.00384177
-0.00462291
-0.00234697
0.00721132
-0.00624402
-0.000179055
0.00540939
-0.0105761
0.0100712
-0.00577586
-0.00424651
0.0118082
-0.018535
0.0188422
-0.0190071
0.0142847
-0.0123465
0.00650376
-0.00624361
-0.303576
-0.303576
1
1.06385
1.06994
0.955167
0.940224
0.857497
0.825398
0.816834
0.744164
0.793062
0.702627
0.756669
0.729534
0.679524
0.763129
0.735144
0.670967
0.780621
0.773231
0.755275
0.794643
0.820403
0.79701
0.891748
0.961709
0.975342
0.956328
1.01134
1.01375
0.981227
0.911228
0.88647
0.806269
0.678976
0.475093
0.30492
0.156757
0.0860186
0.0291973
0.0207021
-0.000798239
0.00815084
-0.00562153
0.00643452
-0.00618931
0.00625889
-0.00624025
0.00624498
-0.00624384
0.0062441
-0.00624404
0.00624405
-0.00624405
0.00624405
-0.00624405
0.00624405
-0.00624407
0.00624396
-0.00624442
0.00624278
-0.00624795
0.00623384
-0.00626635
0.00620548
-0.00629203
0.00621176
-0.00624018
0.00623678
-0.00638692
0.0059714
-0.00627957
0.00670078
-0.00610648
0.00515734
-0.00686358
0.00797278
-0.00591654
0.00304968
-0.00513627
0.00978867
-0.011692
0.00527311
0.000490293
-0.000686796
-0.00528669
0.0104391
-0.0161441
0.0172036
-0.0149229
0.00591584
0.00215305
-0.0105907
0.0129085
-0.0149505
0.0116262
-0.0107156
0.00562288
-0.00313564
0.307485
0.307485
1
1.06902
1.08711
1.0008
0.973426
0.916671
0.862517
0.873549
0.784254
0.846095
0.742915
0.802211
0.775566
0.721842
0.790419
0.793831
0.698121
0.810197
0.80405
0.795234
0.81211
0.851242
0.804905
0.900981
0.960946
0.993968
0.956211
1.01873
1.00983
0.993098
0.90595
0.890978
0.800054
0.692813
0.479609
0.322486
0.157887
0.0974559
0.0249129
0.0285618
-0.00705218
0.0150614
-0.0122852
0.0131841
-0.012911
0.012989
-0.012968
0.0129734
-0.0129721
0.0129724
-0.0129723
0.0129723
-0.0129723
0.0129723
-0.0129723
0.0129723
-0.0129723
0.0129722
-0.0129727
0.0129709
-0.0129765
0.0129614
-0.0129956
0.0129331
-0.0130193
0.0129435
-0.0129664
0.0129576
-0.0131298
0.0127058
-0.012964
0.0134404
-0.0129352
0.0118318
-0.0133928
0.0147793
-0.0130214
0.00983552
-0.0112835
0.0159169
-0.0189021
0.0132573
-0.00676475
0.00535587
-0.0107906
0.0157539
-0.021677
0.0239838
-0.0237856
0.0163401
-0.00842933
-0.00124251
0.00544144
-0.00946391
0.00781444
-0.00822167
0.00416653
-0.00510045
-0.304087
-0.304087
1
1.07204
1.09599
1.03874
0.998335
0.967014
0.893469
0.921889
0.817304
0.892066
0.776414
0.838996
0.814633
0.758409
0.80722
0.843932
0.720648
0.830375
0.824387
0.827393
0.822314
0.874142
0.806344
0.902565
0.9518
1.00523
0.951479
1.0219
1.00263
1.00278
0.900404
0.895121
0.793333
0.705506
0.483617
0.33963
0.159199
0.108826
0.0208811
0.0363124
-0.0131132
0.0218206
-0.0187794
0.0197713
-0.0194679
0.0195552
-0.0195315
0.0195376
-0.0195361
0.0195365
-0.0195364
0.0195364
-0.0195364
0.0195364
-0.0195364
0.0195364
-0.0195364
0.0195363
-0.0195368
0.0195349
-0.019541
0.0195248
-0.0195606
0.0194966
-0.019582
0.019511
-0.0195291
0.0195135
-0.0197073
0.0192799
-0.0194839
0.0200063
-0.0196033
0.0183649
-0.0197474
0.0213767
-0.0199624
0.016541
-0.0173276
0.0217753
-0.0257598
0.0210882
-0.0140661
0.0114187
-0.0162395
0.0209578
-0.026824
0.0299761
-0.0317417
0.0262632
-0.0191893
0.00889833
-0.00313547
-0.00280973
0.00299284
-0.00494098
0.00221298
-0.00143204
0.306825
0.306825
1
1.07357
1.0986
1.06925
1.01653
1.00841
0.918911
0.962313
0.843709
0.93095
0.804423
0.866914
0.847359
0.789973
0.81511
0.884975
0.740178
0.842612
0.835878
0.852198
0.82742
0.890355
0.803777
0.89816
0.936894
1.01024
0.94427
1.02189
0.993953
1.01049
0.895606
0.898688
0.786915
0.716624
0.48769
0.355778
0.161229
0.119564
0.0176527
0.0434003
-0.0184274
0.0278757
-0.0245506
0.0256431
-0.0253065
0.025404
-0.0253774
0.0253842
-0.0253826
0.025383
-0.0253829
0.0253829
-0.0253829
0.0253829
-0.0253829
0.0253829
-0.0253829
0.0253828
-0.0253834
0.0253812
-0.0253878
0.0253706
-0.025408
0.0253427
-0.025427
0.0253609
-0.0253748
0.025351
-0.0255659
0.0251401
-0.025287
0.0258448
-0.0255552
0.0242037
-0.0253798
0.0272114
-0.0261748
0.0226057
-0.022734
0.0268365
-0.0316976
0.028169
-0.0208444
0.0169542
-0.0210872
0.0255538
-0.031163
0.0347231
-0.0381597
0.0348669
-0.0292497
0.0190404
-0.0122036
0.00457213
-0.00255247
-0.00105278
-0.000185369
-0.00288477
-0.304888
-0.304888
1
1.07395
1.09679
1.09257
1.02955
1.04105
0.939447
0.995422
0.864184
0.962584
0.828492
0.886084
0.87437
0.817261
0.816008
0.916544
0.758171
0.848364
0.840332
0.869947
0.829364
0.900884
0.799386
0.889025
0.918475
1.00965
0.936187
1.0191
0.985142
1.01605
0.892324
0.90127
0.781544
0.725675
0.492423
0.370327
0.164538
0.12908
0.0158061
0.0492436
-0.0224124
0.0326452
-0.0290167
0.0302177
-0.0298451
0.0299538
-0.0299239
0.0299316
-0.0299297
0.0299302
-0.0299301
0.0299301
-0.0299301
0.0299301
-0.0299301
0.0299301
-0.0299301
0.02993
-0.0299307
0.0299283
-0.0299354
0.0299172
-0.0299561
0.0298897
-0.0299725
0.0299115
-0.029922
0.0298887
-0.0301236
0.0297044
-0.0297925
0.0303745
-0.0302069
0.0287666
-0.0297138
0.0317025
-0.0310667
0.0274386
-0.0269364
0.0305475
-0.0361273
0.0338755
-0.026498
0.0213851
-0.0247473
0.0289913
-0.0342383
0.0377863
-0.0424587
0.0413559
-0.0376853
0.0282758
-0.0209906
0.0120859
-0.0084007
0.00316284
-0.00281705
0.00117274
0.30591
0.30591
1
1.07326
1.09223
1.109
1.03875
1.06544
0.955618
1.02185
0.879743
0.986685
0.850219
0.896909
0.896207
0.840904
0.81204
0.938334
0.775777
0.849024
0.839597
0.880837
0.829748
0.906502
0.794991
0.876105
0.898394
1.00378
0.928361
1.0136
0.977166
1.01908
0.891133
0.902409
0.777874
0.732198
0.498364
0.382714
0.169645
0.136821
0.015878
0.0533011
-0.0245274
0.0355893
-0.031637
0.0329548
-0.0325432
0.032664
-0.0326306
0.0326393
-0.0326371
0.0326377
-0.0326375
0.0326376
-0.0326376
0.0326376
-0.0326376
0.0326376
-0.0326376
0.0326374
-0.0326382
0.0326356
-0.0326432
0.032624
-0.0326644
0.0325971
-0.0326781
0.0326222
-0.0326301
0.0325861
-0.0328399
0.032432
-0.0324607
0.033055
-0.0330154
0.0315126
-0.0322142
0.0343119
-0.0340884
0.0304878
-0.0294052
0.0323989
-0.0385093
0.0376257
-0.0304628
0.0241761
-0.0266689
0.0307345
-0.0356161
0.0387999
-0.0441793
0.0450523
-0.0436282
0.0356777
-0.0286464
0.0190329
-0.01403
0.00734371
-0.00550595
-7.07079e-05
-0.305874
-0.305874
1
1.07149
1.08629
1.11893
1.04523
1.08235
0.967921
1.04215
0.891645
1.00292
0.871049
0.900129
0.913261
0.861394
0.805377
0.950229
0.793733
0.845891
0.835449
0.885053
0.829756
0.907803
0.791991
0.860144
0.878088
0.992808
0.921497
1.00529
0.970678
1.01923
0.89241
0.901717
0.776411
0.735848
0.505946
0.392499
0.176949
0.142354
0.0182854
0.0551507
-0.0243507
0.0362868
-0.0319899
0.0334331
-0.0329791
0.0331133
-0.0330759
0.0330858
-0.0330833
0.0330839
-0.0330838
0.0330838
-0.0330838
0.0330838
-0.0330838
0.0330838
-0.0330838
0.0330836
-0.0330845
0.0330816
-0.0330898
0.0330695
-0.0331113
0.0330434
-0.0331223
0.0330715
-0.0330777
0.0330221
-0.033293
0.0329012
-0.0328711
0.0334654
-0.0335572
0.0320192
-0.0324647
0.0346214
-0.0348107
0.0313186
-0.0297256
0.0320011
-0.0384307
0.0389583
-0.0322882
0.0249126
-0.0264193
0.0303423
-0.0349493
0.0375276
-0.0430541
0.0454915
-0.0463833
0.0404165
-0.0343445
0.0246897
-0.0188728
0.0110824
-0.00794855
0.0039511
0.304911
0.304911
1
1.06863
1.08005
1.12296
1.04976
1.09275
0.976826
1.0568
0.901294
1.01102
0.892083
0.896853
0.925757
0.879061
0.798081
0.9524
0.812303
0.84016
0.829477
0.882867
0.830111
0.905284
0.791322
0.841806
0.858584
0.976915
0.915912
0.994075
0.96602
1.01629
0.896301
0.898972
0.777447
0.736471
0.515408
0.399438
0.186657
0.145438
0.0232525
0.0545621
-0.0216528
0.0345087
-0.0298456
0.0314234
-0.0309236
0.0310724
-0.0310307
0.0310417
-0.0310389
0.0310396
-0.0310395
0.0310395
-0.0310395
0.0310395
-0.0310395
0.0310395
-0.0310395
0.0310393
-0.0310402
0.0310372
-0.0310459
0.0310245
-0.0310677
0.0309993
-0.0310758
0.0310301
-0.0310354
0.0309673
-0.0312534
0.0308821
-0.0307951
0.0313772
-0.0316007
0.0300556
-0.0302404
0.032406
-0.0329983
0.0296872
-0.02767
0.0291568
-0.0356788
0.0376076
-0.0317108
0.023374
-0.023763
0.0275464
-0.0320425
0.0339146
-0.0390643
0.0425041
-0.0455362
0.041878
-0.0373929
0.0284009
-0.0223852
0.0139733
-0.00992741
0.00241308
-0.306816
-0.306816
1
1.06467
1.07425
1.12188
1.05279
1.09776
0.98281
1.06609
0.91011
1.01092
0.913924
0.888546
0.933767
0.894082
0.79196
0.9454
0.831262
0.832921
0.823004
0.874732
0.831067
0.899421
0.793449
0.821786
0.840504
0.956442
0.911562
0.980024
0.963217
1.01026
0.902684
0.89418
0.781012
0.734157
0.526748
0.403539
0.198731
0.14608
0.0307556
0.0515525
-0.0164521
0.0302738
-0.0252225
0.0269443
-0.0263951
0.0265597
-0.0265132
0.0265256
-0.0265225
0.0265232
-0.026523
0.0265231
-0.0265231
0.0265231
-0.0265231
0.0265231
-0.0265231
0.0265229
-0.0265239
0.0265206
-0.0265299
0.0265075
-0.0265519
0.0264833
-0.0265571
0.0265162
-0.0265218
0.0264404
-0.0267396
0.0263928
-0.0262517
0.0268096
-0.0271626
0.0256381
-0.0255637
0.0276895
-0.0286652
0.0255973
-0.0232541
0.023915
-0.0302961
0.0335596
-0.0287089
0.0195878
-0.0187221
0.0223147
-0.0269042
0.0281217
-0.0324723
0.0362678
-0.0410345
0.0397652
-0.0373394
0.0296724
-0.0241222
0.0156678
-0.0111614
0.00586863
0.3041
0.3041
1
1.05972
1.06926
1.11668
1.05448
1.09854
0.986386
1.07024
0.919381
1.0029
0.936579
0.876981
0.93726
0.906498
0.788438
0.930213
0.849927
0.825156
0.817026
0.861354
0.832438
0.890729
0.798379
0.800874
0.824092
0.931947
0.908076
0.9634
0.961982
1.00142
0.911158
0.88761
0.78685
0.729274
0.539691
0.405088
0.212856
0.144562
0.0404949
0.0464142
-0.00904229
0.0238761
-0.0184139
0.0202895
-0.019687
0.0198688
-0.0198171
0.019831
-0.0198275
0.0198283
-0.0198281
0.0198282
-0.0198282
0.0198282
-0.0198282
0.0198281
-0.0198282
0.0198279
-0.019829
0.0198254
-0.0198354
0.0198119
-0.0198574
0.019789
-0.0198597
0.0198236
-0.0198303
0.0197352
-0.020045
0.0197264
-0.019535
0.0200575
-0.0205348
0.019058
-0.0187314
0.020771
-0.0221026
0.0193275
-0.016764
0.016597
-0.0226071
0.0270818
-0.0235297
0.013855
-0.0116066
0.0148888
-0.0197759
0.0205351
-0.0238201
0.027319
-0.0332283
0.0341662
-0.0340541
0.0282534
-0.0238067
0.0159246
-0.0115238
0.00354509
-0.307427
-0.307427
1
1.05399
1.0651
1.10849
1.05477
1.09619
0.988108
1.06937
0.930117
0.987709
0.959439
0.864136
0.936173
0.916245
0.788469
0.908273
0.867247
0.817733
0.812185
0.843721
0.833671
0.879796
0.805703
0.779987
0.80926
0.904238
0.904805
0.944696
0.961736
0.990302
0.921056
0.879784
0.794427
0.72245
0.553698
0.404643
0.228452
0.141433
0.0519039
0.0397061
1.59339e-05
0.0158763
-0.00998007
0.0120195
-0.0113598
0.0115602
-0.0115029
0.0115184
-0.0115144
0.0115154
-0.0115151
0.0115152
-0.0115152
0.0115152
-0.0115152
0.0115152
-0.0115152
0.0115149
-0.0115161
0.0115123
-0.0115228
0.0114983
-0.0115449
0.0114767
-0.0115443
0.0115125
-0.0115214
0.0114124
-0.0117301
0.0114429
-0.0112059
0.0116824
-0.0122763
0.010873
-0.0103067
0.0122171
-0.0138704
0.0114244
-0.00874844
0.0077873
-0.0132097
0.0187158
-0.0166814
0.00673814
-0.00300783
0.00578609
-0.0111322
0.0117461
-0.0138909
0.016518
-0.0228602
0.0255762
-0.0277747
0.0241902
-0.0213817
0.0146532
-0.0108871
0.00605481
0.303746
0.303746
1
1.04779
1.06156
1.09854
1.05348
1.09167
0.988581
1.06359
0.942926
0.966567