# vtk DataFile Version 2.0
FlowField
ASCII
DATASET STRUCTURED_GRID
DIMENSIONS 100 1 100
POINTS 10000 float
0 0 0
0.01 0 0
0.02 0 0
0.03 0 0
0.04 0 0
0.05 0 0
0.06 0 0
0.07 0 0
0.08 0 0
0.09 0 0
0.1 0 0
0.11 0 0
0.12 0 0
0.13 0 0
0.14 0 0
0.15 0 0
0.16 0 0
0.17 0 0
0.18 0 0
0.19 0 0
0.2 0 0
0.21 0 0
0.22 0 0
0.23 0 0
0.24 0 0
0.25 0 0
0.26 0 0
0.27 0 0
0.28 0 0
0.29 0 0
0.3 0 0
0.31 0 0
0.32 0 0
0.33 0 0
0.34 0 0
0.35 0 0
0.36 0 0
0.37 0 0
0.38 0 0
0.39 0 0
0.4 0 0
0.41 0 0
0.42 0 0
0.43 0 0
0.44 0 0
0.45 0 0
0.46 0 0
0.47 0 0
0.48 0 0
0.49 0 0
0.5 0 0
0.51 0 0
0.52 0 0
0.53 0 0
0.54 0 0
0.55 0 0
0.56 0 0
0.57 0 0
0.58 0 0
0.59 0 0
0.6 0 0
0.61 0 0
0.62 0 0
0.63 0 0
0.64 0 0
0.65 0 0
0.66 0 0
0.67 0 0
0.68 0 0
0.69 0 0
0.7 0 0
0.71 0 0
0.72 0 0
0.73 0 0
0.74 0 0
0.75 0 0
0.76 0 0
0.77 0 0
0.78 0 0
0.79 0 0
0.8 0 0
0.81 0 0
0.82 0 0
0.83 0 0
0.84 0 0
0.85 0 0
0.86 0 0
0.87 0 0
0.88 0 0
0.89 0 0
0.9 0 0
0.91 0 0
0.92 0 0
0.93 0 0
0.94 0 0
0.95 0 0
0.96 0 0
0.97 0 0
0.98 0 0
0.99 0 0
0 0.001 0
0.01 0.001 0
0.02 0.001 0
0.03 0.001 0
0.04 0.001 0
0.05 0.001 0
0.06 0.001 0
0.07 0.001 0
0.08 0.001 0
0.09 0.001 0
0.1 0.001 0
0.11 0.001 0
0.12 0.001 0
0.13 0.001 0
0.14 0.001 0
0.15 0.001 0
0.16 0.001 0
0.17 0.001 0
0.18 0.001 0
0.19 0.001 0
0.2 0.001 0
0.21 0.001 0
0.22 0.001 0
0.23 0.001 0
0.24 0.001 0
0.25 0.001 0
0.26 0.001 0
0.27 0.001 0
0.28 0.001 0
0.29 0.001 0
0.3 0.001 0
0.31 0.001 0
0.32 0.001 0
0.33 0.001 0
0.34 0.001 0
0.35 0.001 0
0.36 0.001 0
0.37 0.001 0
0.38 0.001 0
0.39 0.001 0
0.4 0.001 0
0.41 0.001 0
0.42 0.001 0
0.43 0.001 0
0.44 0.001 0
0.45 0.001 0
0.46 0.001 0
0.47 0.001 0
0.48 0.001 0
0.49 0.001 0
0.5 0.001 0
0.51 0.001 0
0.52 0.001 0
0.53 0.001 0
0.54 0.001 0
0.55 0.001 0
0.56 0.001 0
0.57 0.001 0
0.58 0.001 0
0.59 0.001 0
0.6 0.001 0
0.61 0.001 0
0.62 0.001 0
0.63 0.001 0
0.64 0.001 0
0.65 0.001 0
0.66 0.001 0
0.67 0.001 0
0.68 0.001 0
0.69 0.001 0
0.7 0.001 0
0.71 0.001 0
0.72 0.001 0
0.73 0.001 0
0.74 0.001 0
0.75 0.001 0
0.76 0.001 0
0.77 0.001 0
0.78 0.001 0
0.79 0.001 0
0.8 0.001 0
0.81 0.001 0
0.82 0.001 0
0.83 0.001 0
0.84 0.001 0
0.85 0.001 0
0.86 0.001 0
0.87 0.001 0
0.88 0.001 0
0.89 0.001 0
0.9 0.001 0
0.91 0.001 0
0.92 0.001 0
0.93 0.001 0
0.94 0.001 0
0.95 0.001 0
0.96 0.001 0
0.97 0.001 0
0.98 0.001 0
0.99 0.001 0
0 0.002 0
0.01 0.002 0
0.02 0.002 0
0.03 0.002 0
0.04 0.002 0
0.05 0.002 0
0.06 0.002 0
0.07 0.002 0
0.08 0.002 0
0.09 0.002 0
0.1 0.002 0
0.11 0.002 0
0.12 0.002 0
0.13 0.002 0
0.14 0.002 0
0.15 0.002 0
0.16 0.002 0
0.17 0.002 0
0.18 0.002 0
0.19 0.002 0
0.2 0.002 0
0.21 0.002 0
0.22 0.002 0
0.23 0.002 0
0.24 0.002 0
0.25 0.002 0
0.26 0.002 0
0.27 0.002 0
0.28 0.002 0
0.29 0.002 0
0.3 0.002 0
0.31 0.002 0
0.32 0.002 0
0.33 0.002 0
0.34 0.002 0
0.35 0.002 0
0.36 0.002 0
0.37 0.002 0
0.38 0.002 0
0.39 0.002 0
0.4 0.002 0
0.41 0.002 0
0.42 0.002 0
0.43 0.002 0
0.44 0.002 0
0.45 0.002 0
0.46 0.002 0
0.47 0.002 0
0.48 0.002 0
0.49 0.002 0
0.5 0.002 0
0.51 0.002 0
0.52 0.002 0
0.53 0.002 0
0.54 0.002 0
0.55 0.002 0
0.56 0.002 0
0.57 0.002 0
0.58 0.002 0
0.59 0.002 0
0.6 0.002 0
0.61 0.002 0
0.62 0.002 0
0.63 0.002 0
0.64 0.002 0
0.65 0.002 0
0.66 0.002 0
0.67 0.002 0
0.68 0.002 0
0.69 0.002 0
0.7 0.002 0
0.71 0.002 0
0.72 0.002 0
0.73 0.002 0
0.74 0.002 0
0.75 0.002 0
0.76 0.002 0
0.77 0.002 0
0.78 0.002 0
0.79 0.002 0
0.8 0.002 0
0.81 0.002 0
0.82 0.002 0
0.83 0.002 0
0.84 0.002 0
0.85 0.002 0
0.86 0.002 0
0.87 0.002 0
0.88 0.002 0
0.89 0.002 0
0.9 0.002 0
0.91 0.002 0
0.92 0.002 0
0.93 0.002 0
0.94 0.002 0
0.95 0.002 0
0.96 0.002 0
0.97 0.002 0
0.98 0.002 0
0.99 0.002 0
0 0.003 0
0.01 0.003 0
0.02 0.003 0
0.03 0.003 0
0.04 0.003 0
0.05 0.003 0
0.06 0.003 0
0.07 0.003 0
0.08 0.003 0
0.09 0.003 0
0.1 0.003 0
0.11 0.003 0
0.12 0.003 0
0.13 0.003 0
0.14 0.003 0
0.15 0.003 0
0.16 0.003 0
0.17 0.003 0
0.18 0.003 0
0.19 0.003 0
0.2 0.003 0
0.21 0.003 0
0.22 0.003 0
0.23 0.003 0
0.24 0.003 0
0.25 0.003 0
0.26 0.003 0
0.27 0.003 0
0.28 0.003 0
0.29 0.003 0
0.3 0.003 0
0.31 0.003 0
0.32 0.003 0
0.33 0.003 0
0.34 0.003 0
0.35 0.003 0
0.36 0.003 0
0.37 0.003 0
0.38 0.003 0
0.39 0.003 0
0.4 0.003 0
0.41 0.003 0
0.42 0.003 0
0.43 0.003 0
0.44 0.003 0
0.45 0.003 0
0.46 0.003 0
0.47 0.003 0
0.48 0.003 0
0.49 0.003 0
0.5 0.003 0
0.51 0.003 0
0.52 0.003 0
0.53 0.003 0
0.54 0.003 0
0.55 0.003 0
0.56 0.003 0
0.57 0.003 0
0.58 0.003 0
0.59 0.003 0
0.6 0.003 0
0.61 0.003 0
0.62 0.003 0
0.63 0.003 0
0.64 0.003 0
0.65 0.003 0
0.66 0.003 0
0.67 0.003 0
0.68 0.003 0
0.69 0.003 0
0.7 0.003 0
0.71 0.003 0
0.72 0.003 0
0.73 0.003 0
0.74 0.003 0
0.75 0.003 0
0.76 0.003 0
0.77 0.003 0
0.78 0.003 0
0.79 0.003 0
0.8 0.003 0
0.81 0.003 0
0.82 0.003 0
0.83 0.003 0
0.84 0.003 0
0.85 0.003 0
0.86 0.003 0
0.87 0.003 0
0.88 0.003 0
0.89 0.003 0
0.9 0.003 0
0.91 0.003 0
0.92 0.003 0
0.93 0.003 0
0.94 0.003 0
0.95 0.003 0
0.96 0.003 0
0.97 0.003 0
0.98 0.003 0
0.99 0.003 0
0 0.004 0
0.01 0.004 0
0.02 0.004 0
0.03 0.004 0
0.04 0.004 0
0.05 0.004 0
0.06 0.004 0
0.07 0.004 0
0.08 0.004 0
0.09 0.004 0
0.1 0.004 0
0.11 0.004 0
0.12 0.004 0
0.13 0.004 0
0.14 0.004 0
0.15 0.004 0
0.16 0.004 0
0.17 0.004 0
0.18 0.004 0
0.19 0.004 0
0.2 0.004 0
0.21 0.004 0
0.22 0.004 0
0.23 0.004 0
0.24 0.004 0
0.25 0.004 0
0.26 0.004 0
0.27 0.004 0
0.28 0.004 0
0.29 0.004 0
0.3 0.004 0
0.31 0.004 0
0.32 0.004 0
0.33 0.004 0
0.34 0.004 0
0.35 0.004 0
0.36 0.004 0
0.37 0.004 0
0.38 0.004 0
0.39 0.004 0
0.4 0.004 0
0.41 0.004 0
0.42 0.004 0
0.43 0.004 0
0.44 0.004 0
0.45 0.004 0
0.46 0.004 0
0.47 0.004 0
0.48 0.004 0
0.49 0.004 0
0.5 0.004 0
0.51 0.004 0
0.52 0.004 0
0.53 0.004 0
0.54 0.004 0
0.55 0.004 0
0.56 0.004 0
0.57 0.004 0
0.58 0.004 0
0.59 0.004 0
0.6 0.004 0
0.61 0.004 0
0.62 0.004 0
0.63 0.004 0
0.64 0.004 0
0.65 0.004 0
0.66 0.004 0
0.67 0.004 0
0.68 0.004 0
0.69 0.004 0
0.7 0.004 0
0.71 0.004 0
0.72 0.004 0
0.73 0.004 0
0.74 0.004 0
0.75 0.004 0
0.76 0.004 0
0.77 0.004 0
0.78 0.004 0
0.79 0.004 0
0.8 0.004 0
0.81 0.004 0
0.82 0.004 0
0.83 0.004 0
0.84 0.004 0
0.85 0.004 0
0.86 0.004 0
0.87 0.004 0
0.88 0.004 0
0.89 0.004 0
0.9 0.004 0
0.91 0.004 0
0.92 0.004 0
0.93 0.004 0
0.94 0.004 0
0.95 0.004 0
0.96 0.004 0
0.97 0.004 0
0.98 0.004 0
0.99 0.004 0
0 0.005 0
0.01 0.005 0
0.02 0.005 0
0.03 0.005 0
0.04 0.005 0
0.05 0.005 0
0.06 0.005 0
0.07 0.005 0
0.08 0.005 0
0.09 0.005 0
0.1 0.005 0
0.11 0.005 0
0.12 0.005 0
0.13 0.005 0
0.14 0.005 0
0.15 0.005 0
0.16 0.005 0
0.17 0.005 0
0.18 0.005 0
0.19 0.005 0
0.2 0.005 0
0.21 0.005 0
0.22 0.005 0
0.23 0.005 0
0.24 0.005 0
0.25 0.005 0
0.26 0.005 0
0.27 0.005 0
0.28 0.005 0
0.29 0.005 0
0.3 0.005 0
0.31 0.005 0
0.32 0.005 0
0.33 0.005 0
0.34 0.005 0
0.35 0.005 0
0.36 0.005 0
0.37 0.005 0
0.38 0.005 0
0.39 0.005 0
0.4 0.005 0
0.41 0.005 0
0.42 0.005 0
0.43 0.005 0
0.44 0.005 0
0.45 0.005 0
0.46 0.005 0
0.47 0.005 0
0.48 0.005 0
0.49 0.005 0
0.5 0.005 0
0.51 0.005 0
0.52 0.005 0
0.53 0.005 0
0.54 0.005 0
0.55 0.005 0
0.56 0.005 0
0.57 0.005 0
0.58 0.005 0
0.59 0.005 0
0.6 0.005 0
0.61 0.005 0
0.62 0.005 0
0.63 0.005 0
0.64 0.005 0
0.65 0.005 0
0.66 0.005 0
0.67 0.005 0
0.68 0.005 0
0.69 0.005 0
0.7 0.005 0
0.71 0.005 0
0.72 0.005 0
0.73 0.005 0
0.74 0.005 0
0.75 0.005 0
0.76 0.005 0
0.77 0.005 0
0.78 0.005 0
0.79 0.005 0
0.8 0.005 0
0.81 0.005 0
0.82 0.005 0
0.83 0.005 0
0.84 0.005 0
0.85 0.005 0
0.86 0.005 0
0.87 0.005 0
0.88 0.005 0
0.89 0.005 0
0.9 0.005 0
0.91 0.005 0
0.92 0.005 0
0.93 0.005 0
0.94 0.005 0
0.95 0.005 0
0.96 0.005 0
0.97 0.005 0
0.98 0.005 0
0.99 0.005 0
0 0.006 0
0.01 0.006 0
0.02 0.006 0
0.03 0.006 0
0.04 0.006 0
0.05 0.006 0
0.06 0.006 0
0.07 0.006 0
0.08 0.006 0
0.09 0.006 0
0.1 0.006 0
0.11 0.006 0
0.12 0.006 0
0.13 0.006 0
0.14 0.006 0
0.15 0.006 0
0.16 0.006 0
0.17 0.006 0
0.18 0.006 0
0.19 0.006 0
0.2 0.006 0
0.21 0.006 0
0.22 0.006 0
0.23 0.006 0
0.24 0.006 0
0.25 0.006 0
0.26 0.006 0
0.27 0.006 0
0.28 0.006 0
0.29 0.006 0
0.3 0.006 0
0.31 0.006 0
0.32 0.006 0
0.33 0.006 0
0.34 0.006 0
0.35 0.006 0
0.36 0.006 0
0.37 0.006 0
0.38 0.006 0
0.39 0.006 0
0.4 0.006 0
0.41 0.006 0
0.42 0.006 0
0.43 0.006 0
0.44 0.006 0
0.45 0.006 0
0.46 0.006 0
0.47 0.006 0
0.48 0.006 0
0.49 0.006 0
0.5 0.006 0
0.51 0.006 0
0.52 0.006 0
0.53 0.006 0
0.54 0.006 0
0.55 0.006 0
0.56 0.006 0
0.57 0.006 0
0.58 0.006 0
0.59 0.006 0
0.6 0.006 0
0.61 0.006 0
0.62 0.006 0
0.63 0.006 0
0.64 0.006 0
0.65 0.006 0
0.66 0.006 0
0.67 0.006 0
0.68 0.006 0
0.69 0.006 0
0.7 0.006 0
0.71 0.006 0
0.72 0.006 0
0.73 0.006 0
0.74 0.006 0
0.75 0.006 0
0.76 0.006 0
0.77 0.006 0
0.78 0.006 0
0.79 0.006 0
0.8 0.006 0
0.81 0.006 0
0.82 0.006 0
0.83 0.006 0
0.84 0.006 0
0.85 0.006 0
0.86 0.006 0
0.87 0.006 0
0.88 0.006 0
0.89 0.006 0
0.9 0.006 0
0.91 0.006 0
0.92 0.006 0
0.93 0.006 0
0.94 0.006 0
0.95 0.006 0
0.96 0.006 0
0.97 0.006 0
0.98 0.006 0
0.99 0.006 0
0 0.007 0
0.01 0.007 0
0.02 0.007 0
0.03 0.007 0
0.04 0.007 0
0.05 0.007 0
0.06 0.007 0
0.07 0.007 0
0.08 0.007 0
0.09 0.007 0
0.1 0.007 0
0.11 0.007 0
0.12 0.007 0
0.13 0.007 0
0.14 0.007 0
0.15 0.007 0
0.16 0.007 0
0.17 0.007 0
0.18 0.007 0
0.19 0.007 0
0.2 0.007 0
0.21 0.007 0
0.22 0.007 0
0.23 0.007 0
0.24 0.007 0
0.25 0.007 0
0.26 0.007 0
0.27 0.007 0
0.28 0.007 0
0.29 0.007 0
0.3 0.007 0
0.31 0.007 0
0.32 0.007 0
0.33 0.007 0
0.34 0.007 0
0.35 0.007 0
0.36 0.007 0
0.37 0.007 0
0.38 0.007 0
0.39 0.007 0
0.4 0.007 0
0.41 0.007 0
0.42 0.007 0
0.43 0.007 0
0.44 0.007 0
0.45 0.007 0
0.46 0.007 0
0.47 0.007 0
0.48 0.007 0
0.49 0.007 0
0.5 0.007 0
0.51 0.007 0
0.52 0.007 0
0.53 0.007 0
0.54 0.007 0
0.55 0.007 0
0.56 0.007 0
0.57 0.007 0
0.58 0.007 0
0.59 0.007 0
0.6 0.007 0
0.61 0.007 0
0.62 0.007 0
0.63 0.007 0
0.64 0.007 0
0.65 0.007 0
0.66 0.007 0
0.67 0.007 0
0.68 0.007 0
0.69 0.007 0
0.7 0.007 0
0.71 0.007 0
0.72 0.007 0
0.73 0.007 0
0.74 0.007 0
0.75 0.007 0
0.76 0.007 0
0.77 0.007 0
0.78 0.007 0
0.79 0.007 0
0.8 0.007 0
0.81 0.007 0
0.82 0.007 0
0.83 0.007 0
0.84 0.007 0
0.85 0.007 0
0.86 0.007 0
0.87 0.007 0
0.88 0.007 0
0.89 0.007 0
0.9 0.007 0
0.91 0.007 0
0.92 0.007 0
0.93 0.007 0
0.94 0.007 0
0.95 0.007 0
0.96 0.007 0
0.97 0.007 0
0.98 0.007 0
[...]
POINT_DATA 10000

SCALARS vel_X float 1
LOOKUP_TABLE default
0
0
0
0
0
0
0
0
0
0
0
0
0
0
0
0
0
0
0
0
0
0
0
0
0
0
0
0
0
0
0
0
0
0
0
0
0
0
0
0
0
0
0
0
0
0
0
0
0
0
0
0
0
0
0
0
0
0
0
0
0
0
0
0
0
0
0
0
0
0
0
0
0
0
0
0
0
0
0
0
0
0
0
0
0
0
0
0
0
0
0
0
0
0
0
0
0
0
0
0
1
0.306798
0.232686
0.100975
0.155339
0.0721711
0.102941
0.0761256
0.0684998
0.0753681
0.0390395
0.0896355
0.0138706
0.0517244
0.0910723
-0.0411662
0.0713734
0.0850919
-0.0512482
0.0333399
0.0912066
-0.00402542
-0.00383829
0.037271
0.0195501
0.046648
0.0669664
0.0144114
-0.0252654
0.0356836
0.0949806
0.111729
0.124993
0.185408
0.22791
0.236724
0.232807
0.262699
0.294063
0.29312
0.241778
0.170264
0.102815
0.0560923
0.026987
0.0125635
0.004801
0.00226878
0.000419756
0.000537579
-0.000216725
0.000318008
-0.000288066
0.0002954
-0.00029668
0.000288431
-0.000306623
0.000276163
-0.000312946
0.000290264
-0.000277342
0.000303095
-0.0003613
0.000157152
-0.000302718
0.00059656
-7.66895e-05
-0.000281312
-0.00103673
0.00119582
0.00114208
-0.00137976
-0.00227909
0.00361913
0.000431575
-0.00619049
0.00324782
0.00752289
-0.0107624
0.000219796
0.00947214
-0.00976207
0.00530669
-0.000786824
-0.00748244
0.0180439
-0.0238893
0.0177668
-0.00195411
-0.0175283
0.0328079
-0.0415507
0.0426025
-0.0389759
0.0316966
-0.0239478
0.0153107
-0.012027
-0.253756
-0.253756
1
0.542687
0.418902
0.219047
0.283813
0.153525
0.203509
0.145308
0.149071
0.13885
0.101202
0.155493
0.0585778
0.107002
0.154249
-0.0253369
0.140202
0.130848
-0.0332235
0.079922
0.153604
0.0160279
0.0353297
0.0792464
0.0694321
0.10145
0.133368
0.0500938
0.0223879
0.112057
0.2117
0.232804
0.276138
0.359339
0.430446
0.432245
0.440487
0.471738
0.514762
0.481427
0.394876
0.263761
0.165203
0.0813469
0.0463677
0.014002
0.0123542
-0.00167312
0.00571969
-0.00428346
0.00476355
-0.00461236
0.00465697
-0.00464608
0.00464409
-0.00465666
0.00462865
-0.00467651
0.00461622
-0.00465939
0.00466777
-0.00463451
0.00455384
-0.00485454
0.00460396
-0.00423621
0.00500426
-0.00540131
0.00351181
-0.00355072
0.00678206
-0.00670121
0.00161746
-0.000418015
0.00619236
-0.0134919
0.00845506
0.00587606
-0.00875518
-0.00634253
0.0183524
-0.017467
0.0107234
-0.00459613
-0.0061677
0.0188412
-0.0248897
0.0152904
0.0056434
-0.0304411
0.0487634
-0.0586461
0.058409
-0.0527541
0.0423214
-0.0319709
0.0201485
-0.0114573
0.390774
0.390774
1
0.71801
0.565319
0.349731
0.381597
0.255922
0.28166
0.230812
0.215866
0.216581
0.155801
0.227698
0.110917
0.165702
0.20649
0.0354138
0.176943
0.194894
0.00995082
0.132879
0.197519
0.0782679
0.0779766
0.142865
0.121461
0.174576
0.192645
0.129954
0.0930228
0.215725
0.315445
0.369637
0.408982
0.522668
0.583899
0.606033
0.594912
0.638867
0.650171
0.610448
0.474373
0.330431
0.189893
0.107916
0.0460271
0.0266594
0.00507274
0.00779058
-0.00291218
0.00464553
-0.00406513
0.0042482
-0.00419407
0.00420733
-0.00420966
0.0041946
-0.00422821
0.00417055
-0.00424429
0.00418782
-0.00418767
0.00421517
-0.00431516
0.00396965
-0.00426164
0.00464825
-0.00382358
0.00338347
-0.00543095
0.00537363
-0.00196475
0.0020097
-0.00733971
0.00860836
-0.0028487
-0.00494757
6.06414e-05
0.0146731
-0.0182667
0.00302651
0.00943098
-0.00900676
0.00215581
0.00362902
-0.0140106
0.0264612
-0.0337654
0.0259448
-0.00686846
-0.0175656
0.0365622
-0.0484433
0.0501847
-0.0468802
0.0379777
-0.0293627
0.0182976
-0.013445
-0.338969
-0.338969
1
0.843608
0.682466
0.478735
0.461974
0.36668
0.34546
0.326592
0.271124
0.305957
0.201705
0.308154
0.165075
0.225932
0.258863
0.116876
0.195688
0.279212
0.0612923
0.18896
0.237763
0.166445
0.119851
0.221312
0.172171
0.259147
0.252024
0.237742
0.167766
0.325937
0.402144
0.505478
0.514502
0.664905
0.694038
0.753152
0.699373
0.764295
0.722142
0.699723
0.509546
0.38382
0.19373
0.137435
0.0342297
0.0470808
-0.0114569
0.0259512
-0.0204324
0.0224011
-0.0217392
0.0219488
-0.0218866
0.0219019
-0.0219044
0.0218876
-0.0219248
0.0218615
-0.0219422
0.0218792
-0.0218853
0.0219011
-0.0220246
0.0216549
-0.0219428
0.0223533
-0.0215675
0.0210114
-0.0230485
0.0231942
-0.0198515
0.0194716
-0.0246329
0.0264267
-0.0214568
0.0131231
-0.0164174
0.0306889
-0.0364644
0.0230394
-0.00993537
0.00844173
-0.0144304
0.0193386
-0.0285503
0.0405886
-0.0504659
0.0471035
-0.0324931
0.00984794
0.0100365
-0.0253862
0.0313139
-0.0326882
0.0275452
-0.0225235
0.0139197
-0.00808555
0.360733
0.360733
1
0.931462
0.776322
0.597983
0.533577
0.475006
0.403706
0.423565
0.32104
0.399321
0.244089
0.39069
0.221677
0.285803
0.313169
0.205554
0.21067
0.370847
0.117723
0.246644
0.279588
0.263816
0.164198
0.304284
0.222906
0.346328
0.313976
0.353167
0.239936
0.428195
0.473124
0.625451
0.594726
0.779352
0.770771
0.868552
0.765564
0.851831
0.754998
0.760561
0.522888
0.427237
0.189999
0.165993
0.0196294
0.0688101
-0.0298419
0.0457877
-0.0396825
0.0418726
-0.0411322
0.041368
-0.0412976
0.0413151
-0.0413176
0.0412995
-0.0413393
0.0412725
-0.0413562
0.0412917
-0.0413008
0.0413033
-0.0414534
0.0410676
-0.0413258
0.041775
-0.0410665
0.0403429
-0.0423125
0.0427892
-0.0395714
0.0385652
-0.0434553
0.0460111
-0.0420703
0.0331168
-0.0342412
0.0478503
-0.0564801
0.0455199
-0.0314549
0.0274138
-0.0323262
0.036501
-0.0444924
0.0559805
-0.0684431
0.069983
-0.0604927
0.040278
-0.0198494
0.00105896
0.00937734
-0.0158852
0.0151038
-0.0141969
0.00861654
-0.0085403
-0.349523
-0.349523
1
0.992295
0.850144
0.704817
0.599255
0.576029
0.460013
0.516675
0.368772
0.49123
0.28666
0.469405
0.282042
0.343602
0.367199
0.29642
0.227966
0.458744
0.179669
0.304421
0.321999
0.360167
0.212575
0.3844
0.273788
0.429155
0.37598
0.462592
0.306854
0.515237
0.529253
0.722294
0.653676
0.864977
0.822028
0.952691
0.805141
0.909125
0.766433
0.801281
0.527409
0.462269
0.185775
0.191095
0.00693021
0.0881208
-0.045952
0.0633249
-0.0566309
0.0590476
-0.0582257
0.058489
-0.05841
0.0584298
-0.0584323
0.058413
-0.058455
0.0583858
-0.0584703
0.0584074
-0.0584169
0.0584065
-0.0585837
0.0581867
-0.0584019
0.0588977
-0.058282
0.0573728
-0.0592482
0.0600998
-0.0570337
0.0553526
-0.0599279
0.0632593
-0.0604125
0.0509682
-0.0498073
0.0625142
-0.0739893
0.0657736
-0.0508542
0.0441563
-0.047966
0.0516842
-0.0585415
0.0690218
-0.0831758
0.0890313
-0.0847906
0.0679022
-0.0481307
0.0270617
-0.0128965
0.00170569
0.00180884
-0.00507999
0.00280894
-0.00249455
0.356502
0.356502
1
1.03423
0.906818
0.798604
0.659563
0.668045
0.514807
0.603894
0.415062
0.578374
0.331305
0.54009
0.346686
0.397788
0.418524
0.387135
0.249044
0.536272
0.247087
0.360356
0.362729
0.449661
0.264561
0.457136
0.323861
0.502483
0.434532
0.558733
0.367688
0.584287
0.57163
0.794263
0.695625
0.923933
0.854334
1.00951
0.827985
0.944101
0.767871
0.827632
0.529964
0.489936
0.184387
0.211574
-0.00170501
0.103274
-0.0578778
0.0767175
-0.0694093
0.0720656
-0.0711566
0.0714497
-0.0713611
0.0713836
-0.071386
0.0713655
-0.0714094
0.0713385
-0.0714226
0.0713631
-0.0713715
0.0713487
-0.071552
0.0711487
-0.0713135
0.0718557
-0.0713421
0.0702524
-0.0720065
0.0732295
-0.0703579
0.0680315
-0.0722279
0.076228
-0.0745144
0.0648651
-0.0614863
0.072895
-0.0868534
0.0816549
-0.0663339
0.0570561
-0.0596592
0.0631411
-0.0690037
0.0779442
-0.0925957
0.101803
-0.102733
0.0901539
-0.0725771
0.0508543
-0.0342164
0.0191945
-0.0117624
0.00446815
-0.00336589
-0.00242132
-0.352013
-0.352013
1
1.06281
0.949561
0.879071
0.714845
0.750267
0.56763
0.684255
0.459976
0.65825
0.37919
0.599785
0.41534
0.447168
0.465615
0.475267
0.274372
0.599675
0.318902
0.412477
0.400476
0.528381
0.319111
0.519713
0.372196
0.562674
0.487469
0.638191
0.4229
0.634891
0.602387
0.842353
0.724945
0.959462
0.873658
1.04383
0.842008
0.962853
0.766516
0.842987
0.534284
0.510595
0.187576
0.226668
-0.00508418
0.113255
-0.0645343
0.084907
-0.0769496
0.079862
-0.078859
0.0791844
-0.0790855
0.0791109
-0.0791131
0.0790914
-0.0791372
0.079065
-0.0791477
0.0790926
-0.0790994
0.0790643
-0.0792919
0.0788878
-0.0789976
0.0795804
-0.079178
0.0779248
-0.0795248
0.0810943
-0.0784772
0.0755653
-0.0792984
0.0838159
-0.0832709
0.0737631
-0.0683124
0.0779537
-0.0938814
0.0919921
-0.0768954
0.0651636
-0.0663359
0.0697162
-0.0748278
0.0818718
-0.0958762
0.107294
-0.113009
0.105452
-0.0914951
0.0708082
-0.0531609
0.0354267
-0.0247414
0.0138357
-0.00947803
0.00391029
0.354342
0.354342
1
1.08163
0.981667
0.946056
0.765657
0.822134
0.618087
0.756911
0.503805
0.728513
0.431324
0.646444
0.487133
0.491116
0.507722
0.557931
0.304709
0.646806
0.393374
0.459264
0.435115
0.593408
0.375259
0.570515
0.418405
0.607602
0.534233
0.699747
0.473742
0.66792
0.624458
0.868733
0.745802
0.97499
0.885315
1.06
0.853071
0.969416
0.766802
0.849098
0.542477
0.524187
0.196375
0.235763
-0.00241893
0.117344
-0.0651746
0.0871578
-0.0785113
0.0816982
-0.0805936
0.0809543
-0.080844
0.0808726
-0.0808745
0.0808518
-0.0808992
0.0808261
-0.0809069
0.0808567
-0.0808621
0.0808143
-0.0810642
0.080665
-0.0807169
0.0813309
-0.0810491
0.0796552
-0.0810658
0.0829471
-0.0806503
0.0772239
-0.0804087
0.085282
-0.0859187
0.0768991
-0.0695875
0.0770106
-0.0943153
0.095974
-0.0817921
0.0677778
-0.0672122
0.0705337
-0.0752541
0.0803334
-0.092751
0.105126
-0.114847
0.112545
-0.103281
0.0851869
-0.0680781
0.0489742
-0.036001
0.0222005
-0.0150562
0.00384288
-0.354141
-0.354141
1
1.09306
1.0061
0.999716
0.812554
0.883369
0.665957
0.820992
0.547215
0.786969
0.488554
0.678968
0.560661
0.529663
0.544544
0.632266
0.341026
0.676729
0.468436
0.499884
0.467215
0.642826
0.432145
0.608963
0.462584
0.636662
0.575229
0.743561
0.521667
0.685179
0.64088
0.876133
0.761715
0.973875
0.893511
1.0616
0.864995
0.966408
0.771185
0.846989
0.555579
0.53068
0.211245
0.238553
0.00665536
0.1152
-0.0594459
0.0831219
-0.0737443
0.077225
-0.0760108
0.0764099
-0.0762872
0.0763193
-0.0763208
0.076297
-0.0763461
0.0762723
-0.0763508
0.0763056
-0.0763101
0.0762491
-0.0765192
0.0761307
-0.0761227
0.076757
-0.0766045
0.0750956
-0.0762834
0.0784356
-0.0765214
0.0726578
-0.0752236
0.080292
-0.0820841
0.0738711
-0.0649814
0.0698103
-0.087839
0.0931664
-0.0806074
0.0645673
-0.0619209
0.0651128
-0.0698703
0.073217
-0.0833942
0.0954488
-0.108035
0.110687
-0.106716
0.0925064
-0.0774502
0.0584605
-0.0444171
0.0287243
-0.019501
0.00945469
0.35231
0.35231
1
1.09866
1.02522
1.04068
0.855853
0.93412
0.711092
0.875715
0.591078
0.831829
0.551311
0.697346
0.634003
0.563461
0.576048
0.69587
0.384059
0.689749
0.541839
0.534215
0.497565
0.675903
0.48883
0.63547
0.505034
0.65064
0.61112
0.770809
0.567853
0.689171
0.654192
0.867638
0.775205
0.959381
0.901028
1.05164
0.879746
0.955767
0.780621
0.837619
0.573727
0.53042
0.232017
0.235251
0.0219394
0.107024
-0.0475464
0.073
-0.0628472
0.0666422
-0.0653098
0.0657507
-0.0656142
0.0656503
-0.0656514
0.0656265
-0.0656771
0.0656029
-0.0656787
0.0656385
-0.065643
0.0655681
-0.0658561
0.0654838
-0.0654153
0.066058
-0.0660416
0.0644454
-0.0653817
0.0677585
-0.0662804
0.0620625
-0.06396
0.0690669
-0.0719425
0.0648134
-0.0546998
0.0566631
-0.074712
0.0836743
-0.0734387
0.055751
-0.0506871
0.0535395
-0.058751
0.0608553
-0.06848
0.0790427
-0.0931044
0.0999096
-0.101308
0.0918911
-0.080224
0.0628411
-0.0490888
0.0327098
-0.0223999
0.00814226
-0.35592
-0.35592
1
1.09962
1.04074
1.07008
0.895558
0.974978
0.753367
0.920487
0.636265
0.861978
0.619359
0.702751
0.704768
0.593643
0.602405
0.74704
0.433965
0.687446
0.611216
0.562729
0.52687
0.693157
0.544128
0.651333
0.545975
0.651452
0.642365
0.783455
0.612893
0.682891
0.666096
0.84658
0.787657
0.934698
0.90919
1.0328
0.897747
0.939275
0.794893
0.822242
0.59627
0.524296
0.257863
0.22667
0.0426063
0.0936367
-0.0302964
0.0576129
-0.0466397
0.0507702
-0.0493106
0.0497967
-0.0496453
0.0496857
-0.0496862
0.0496604
-0.0497123
0.0496381
-0.0497108
0.0496755
-0.049681
0.0495914
-0.049895
0.0495441
-0.0494157
0.0500542
-0.0501784
0.0485244
-0.0491863
0.0517362
-0.0507371
0.0462531
-0.0474553
0.0524519
-0.0562959
0.0504769
-0.0395547
0.0385015
-0.0558355
0.0682284
-0.0609833
0.0421666
-0.0343968
0.0365479
-0.0425334
0.0440707
-0.0492015
0.057342
-0.071404
0.0811576
-0.0874713
0.0832706
-0.076006
0.0615761
-0.0494769
0.0337039
-0.0233808
0.0120482
0.350942
0.350942
1
1.09693
1.05371
1.08946
0.931392
1.00688
0.792687
0.954969
0.68345
0.877169
0.69164
0.697498
0.770222
0.621647
0.623964
0.784861
0.490139
0.672569
0.674155
0.586343
0.555575
0.69626
0.596549
0.658527
0.585346
0.641846
0.669021
0.78404
0.656684
0.669611
0.677381
0.816436
0.799368
0.902939
0.918048
1.00766
0.918251
0.918823
0.812907
0.802518
0.621898
0.513743
0.287361
0.214204
0.0672451
0.0764371
-0.00909734
0.0383628
-0.0265226
0.0310107
-0.0294143
0.0299494
-0.0297817
0.0298269
-0.0298267
0.0298
-0.0298531
0.0297791
-0.0298486
0.0298179
-0.0298253
0.0297206
-0.0300372
0.0297124
-0.029526
0.0301475
-0.0304143
0.0287328
-0.0291044
0.0317712
-0.0312822
0.0266243
-0.0271256
0.0318755
-0.0365359
0.0321937
-0.0209215
0.0168316
-0.0327131
0.0481579
-0.044503
0.0252183
-0.0145485
0.0154949
-0.0224022
0.0241383
-0.0271961
0.032341
-0.0450113
0.0562395
-0.0665265
0.067431
-0.06514
0.0547148
-0.0454811
0.0315583
-0.0223672
0.00876246
-0.356758
-0.356758
1
1.09148
1.06461
1.10067
0.962904
1.03097
0.829023
0.979104
0.732969
0.878134
0.766226
0.684868
0.827486
0.648991
0.641225
0.809213
0.551182
0.648795
0.728316
0.606239
0.583786
0.687823
0.644337
0.65945
0.622722
0.625087
0.690718
0.775446
0.698451
0.652675
0.68801
0.78071
0.809748
0.867121
0.92669
0.978764
0.939709
0.896484
0.83296
0.780469
0.648817
0.500636
0.318631
0.199692
0.0939904
0.0572777
0.0141955
0.0171047
-0.00435005
0.00921826
-0.00747521
0.00806322
-0.00787777
0.00792831
-0.00792725
0.00789971
-0.00795383
0.00788038
-0.00794635
0.00791988
-0.00793038
0.00781012
-0.00813697
0.00784265
-0.00760123
0.00819331
-0.00860136
0.00692359
-0.00699568
0.00972025
-0.00976061
0.00502219
-0.00483659
0.00922019
-0.0145173
0.0117515
-0.000609321
-0.00640116
-0.0073219
0.0252706
-0.0256985
0.0067362
0.00688554
-0.00775407
5.17198e-06
0.0026769
-0.0043942
0.0064
-0.0165308
0.027657
-0.040588
0.045954
-0.0486935
0.0429088
-0.0374668
0.0264571
-0.0193867
0.0106062
0.3507
0.3507
1
1.0842
1.07348
1.1057
0.989584
1.04846
0.862436
0.99314
0.784704
0.866592
0.840403
0.668815
0.873804
0.677058
0.654815
0.820737
0.614975
0.62038
0.771592
0.623692
0.611257
0.671119
0.685608
0.656649
0.657342
0.604666
0.706767
0.760672
0.736899
0.635295
0.697326
0.742786
0.817598
0.830103
0.933595
0.948612
0.960118
0.87443
0.853008
0.758322
0.674962
0.487102
0.349534
0.185237
0.120714
0.0382731
0.0374641
-0.00404375
0.0177611
-0.0124894
0.0143895
-0.0137444
0.0139492
-0.0138928
0.0138949
-0.0139232
0.0138681
-0.0139408
0.0138785
-0.0139011
0.0138865
-0.0140225
0.0136883
-0.0139485
0.0142406
-0.0136902
0.013145
-0.0147879
0.0150174
-0.0122962
0.0117188
-0.0164454
0.0172868
-0.0133681
0.00763202
-0.00879368
0.0193275
-0.0290065
0.0180798
0.00166907
-0.00652393
-0.0112229
0.0276624
-0.0310061
0.022753
-0.0185093
0.0171799
-0.018005
0.0111842
-0.00165755
-0.0123448
0.0210616
-0.0283599
0.02736
-0.0262412
0.0189072
-0.0147832
0.0053934
-0.356398
-0.356398
1
1.07596
1.08005
1.10654
1.011
1.0605
0.893076
0.997653
0.838017
0.845168
0.910855
0.653592
0.906825
0.706886
0.665457
0.820747
0.678832
0.591772
0.802306
0.639892
0.63744
0.649754
0.718526
0.652555
0.688211
0.584006
0.716343
0.742601
0.770431
0.620352
0.704315
0.705769
0.821433
0.794473
0.93699
0.919553
0.977348
0.85478
0.870932
0.738305
0.698234
0.475304
0.377897
0.172974
0.145251
0.0215726
0.0585545
-0.0229293
0.0376585
-0.0319591
0.0340272
-0.0333206
0.0335464
-0.0334836
0.0334869
-0.0335158
0.0334601
-0.0335317
0.0334732
-0.0334925
0.0334727
-0.0336243
0.0332859
-0.0335087
0.0338464
-0.0333491
0.0326736
-0.0342512
0.0347775
-0.0321209
0.0310105
-0.0356362
0.0370882
-0.0337087
0.0277393
-0.0273426
0.0368147
-0.048781
0.0411854
-0.0204724
0.0110327
-0.0266097
0.0455123
-0.0519681
0.0438038
-0.0376173
0.0356253
-0.0385548
0.0353445
-0.0286605
0.0152269
-0.0046149
-0.00628757
0.00970171
-0.0129771
0.00969377
-0.00897883
0.00566033
0.351603
0.351603
1
1.06762
1.08393
1.10499
1.02693
1.06805
0.921168
0.993558
0.891744
0.817219
0.973942
0.643325
0.924895
0.738992
0.673951
0.811103
0.739724
0.567202
0.819398
0.655783
0.661584
0.627342
0.74153
0.649252
0.714267
0.5662
0.718691
0.723785
0.797412
0.610219
0.707887
0.67232
0.819804
0.762417
0.93518
0.89362
0.989435
0.839392
0.884799
0.722414
0.716743
0.467194
0.401758
0.164833
0.165644
0.00912071
0.0755168
-0.0376028
0.0533936
-0.0472419
0.0494892
-0.0487166
0.048965
-0.0488953
0.0489
-0.0489294
0.0488731
-0.0489435
0.0488888
-0.0489052
0.0488794
-0.0490463
0.0487069
-0.0488898
0.049267
-0.0488331
0.0480371
-0.0495203
0.0503317
-0.0478
0.0461715
-0.0506126
0.0526185
-0.0498271
0.0438276
-0.0419891
0.049994
-0.0637514
0.0598858
-0.0391436
0.025179
-0.0376241
0.0583962
-0.0684953
0.0612341
-0.0530389
0.0493747
-0.0533486
0.0535398
-0.0505374
0.0391934
-0.0283221
0.0151511
-0.00817233
0.000907572
-0.000200983
-0.0026399
-0.000620685
-0.355069
-0.355069
1
1.05993
1.08475
1.10255
1.03742
1.07185
0.946982
0.982097
0.944247
0.786576
1.02605
0.641597
0.9273
0.773258
0.68115
0.79405
0.794551
0.550308
0.822588
0.671936
0.682869
0.607188
0.75355
0.64828
0.73456
0.553773
0.713351
0.70627
0.816426
0.606588
0.707144
0.644499
0.811584
0.735568
0.926828
0.872353
0.994833
0.829662
0.893097
0.712197
0.729031
0.464297
0.419586
0.162318
0.18036
0.00243381
0.0868286
-0.046543
0.0634452
-0.056816
0.0592541
-0.0584106
0.0586836
-0.0586063
0.0586126
-0.0586425
0.0585858
-0.0586546
0.0586039
-0.058618
0.0585851
-0.0587669
0.0584297
-0.0585708
0.0589806
-0.0586194
0.0577151
-0.0590769
0.0601555
-0.0578061
0.0556849
-0.0598646
0.0623595
-0.0601794
0.0543405
-0.0512414
0.0574423
-0.0724006
0.0725007
-0.0527211
0.0345298
-0.0429361
0.0647474
-0.0788321
0.073444
-0.0635362
0.0573724
-0.061125
0.064017
-0.0650268
0.0569972
-0.0474936
0.0336236
-0.0243167
0.0139046
-0.00970272
0.00360184
-0.000757129
0.353197
0.353197
1
1.05349
1.08228
1.10026
1.0429
1.07241
0.970788
0.964807
0.99353
0.757228
1.06395
0.651062
0.914433
0.808878
0.687937
0.77203
0.840433
0.54382
0.812478
0.688465
0.700541
0.592017
0.754189
0.650503
0.748422
0.548498
0.700337
0.691452
0.826504
0.610357
0.701592
0.623641
0.796186
0.714884
0.911167
0.856652
0.992613
0.826363
0.894911
0.708577
0.734254
0.467526
0.430465
0.16632
0.188478
0.0024194
0.0915753
-0.0488366
0.0669003
-0.0597677
0.0624089
-0.0614894
0.0617889
-0.0617033
0.0617114
-0.0617416
0.0616848
-0.0617517
0.061705
-0.0617174
0.0616767
-0.0618725
0.0615408
-0.0616389
0.062074
-0.0617931
0.060795
-0.0620111
0.0633328
-0.0612194
0.0586403
-0.06249
0.0654041
-0.0638344
0.0583247
-0.0542009
0.0583483
-0.07385
0.0779674
-0.0601491
0.0382761
-0.0418597
0.0636676
-0.0818178
0.0793367
-0.0683809
0.0591977
-0.0614142
0.0658917
-0.0706894
0.0667561
-0.0600472
0.0471047
-0.0369547
0.0245852
-0.0177661
0.00901214
-0.00676165
-0.353402
-0.353402
1
1.04867
1.07658
1.09868
1.04413
1.06996
0.992812
0.943465
1.0374
0.732975
1.0852
0.673151
0.887864
0.8444
0.695184
0.747498
0.874982
0.549318
0.790591
0.705002
0.714045
0.583763
0.743847
0.656049
0.755599
0.551281
0.680256
0.680011
0.827284
0.621564
0.691288
0.61028
0.773707
0.700577
0.888133
0.846684
0.982572
0.829534
0.890045
0.711741
0.73229
0.477072
0.434207
0.177009
0.1898
0.00926111
0.0895656
-0.0442938
0.0635692
-0.0559068
0.0587634
-0.0577627
0.0580908
-0.0579961
0.0580064
-0.0580367
0.0579799
-0.0580448
0.0580019
-0.0580134
0.0579642
-0.0581729
0.05785
-0.0579045
0.058357
-0.0581625
0.0570872
-0.0581363
0.0596716
-0.057843
0.0548495
-0.0583093
0.0615707
-0.0605889
0.0555474
-0.0506768
0.052622
-0.0679739
0.0759646
-0.0610596
0.0362881
-0.0344562
0.0550539
-0.0770309
0.0784448
-0.0674359
0.0551184
-0.0546025
0.0592625
-0.0670878
0.0674907
-0.0646329
0.0541147
-0.0446853
0.0317651
-0.0234938
0.013045
-0.00592026
0.354738
0.354738
1
1.04562
1.06801
1.09785
1.0422
1.06458
1.01319
0.919999
1.07369
0.71709
1.0884
0.707891
0.850291
0.877838
0.703713
0.722746
0.896544
0.567108
0.759311
0.720733
0.723111
0.583449
0.723765
0.664322
0.756322
0.562116
0.654358
0.671898
0.819095
0.639395
0.676899
0.604146
0.744971
0.692105
0.858405