# vtk DataFile Version 2.0
FlowField
ASCII
DATASET STRUCTURED_GRID
DIMENSIONS 100 1 100
POINTS 10000 float
0 0 0
0.01 0 0
0.02 0 0
0.03 0 0
0.04 0 0
0.05 0 0
0.06 0 0
0.07 0 0
0.08 0 0
0.09 0 0
0.1 0 0
0.11 0 0
0.12 0 0
0.13 0 0
0.14 0 0
0.15 0 0
0.16 0 0
0.17 0 0
0.18 0 0
0.19 0 0
0.2 0 0
0.21 0 0
0.22 0 0
0.23 0 0
0.24 0 0
0.25 0 0
0.26 0 0
0.27 0 0
0.28 0 0
0.29 0 0
0.3 0 0
0.31 0 0
0.32 0 0
0.33 0 0
0.34 0 0
0.35 0 0
0.36 0 0
0.37 0 0
0.38 0 0
0.39 0 0
0.4 0 0
0.41 0 0
0.42 0 0
0.43 0 0
0.44 0 0
0.45 0 0
0.46 0 0
0.47 0 0
0.48 0 0
0.49 0 0
0.5 0 0
0.51 0 0
0.52 0 0
0.53 0 0
0.54 0 0
0.55 0 0
0.56 0 0
0.57 0 0
0.58 0 0
0.59 0 0
0.6 0 0
0.61 0 0
0.62 0 0
0.63 0 0
0.64 0 0
0.65 0 0
0.66 0 0
0.67 0 0
0.68 0 0
0.69 0 0
0.7 0 0
0.71 0 0
0.72 0 0
0.73 0 0
0.74 0 0
0.75 0 0
0.76 0 0
0.77 0 0
0.78 0 0
0.79 0 0
0.8 0 0
0.81 0 0
0.82 0 0
0.83 0 0
0.84 0 0
0.85 0 0
0.86 0 0
0.87 0 0
0.88 0 0
0.89 0 0
0.9 0 0
0.91 0 0
0.92 0 0
0.93 0 0
0.94 0 0
0.95 0 0
0.96 0 0
0.97 0 0
0.98 0 0
0.99 0 0
0 0.001 0
0.01 0.001 0
0.02 0.001 0
0.03 0.001 0
0.04 0.001 0
0.05 0.001 0
0.06 0.001 0
0.07 0.001 0
0.08 0.001 0
0.09 0.001 0
0.1 0.001 0
0.11 0.001 0
0.12 0.001 0
0.13 0.001 0
0.14 0.001 0
0.15 0.001 0
0.16 0.001 0
0.17 0.001 0
0.18 0.001 0
0.19 0.001 0
0.2 0.001 0
0.21 0.001 0
0.22 0.001 0
0.23 0.001 0
0.24 0.001 0
0.25 0.001 0
0.26 0.001 0
0.27 0.001 0
0.28 0.001 0
0.29 0.001 0
0.3 0.001 0
0.31 0.001 0
0.32 0.001 0
0.33 0.001 0
0.34 0.001 0
0.35 0.001 0
0.36 0.001 0
0.37 0.001 0
0.38 0.001 0
0.39 0.001 0
0.4 0.001 0
0.41 0.001 0
0.42 0.001 0
0.43 0.001 0
0.44 0.001 0
0.45 0.001 0
0.46 0.001 0
0.47 0.001 0
0.48 0.001 0
0.49 0.001 0
0.5 0.001 0
0.51 0.001 0
0.52 0.001 0
0.53 0.001 0
0.54 0.001 0
0.55 0.001 0
0.56 0.001 0
0.57 0.001 0
0.58 0.001 0
0.59 0.001 0
0.6 0.001 0
0.61 0.001 0
0.62 0.001 0
0.63 0.001 0
0.64 0.001 0
0.65 0.001 0
0.66 0.001 0
0.67 0.001 0
0.68 0.001 0
0.69 0.001 0
0.7 0.001 0
0.71 0.001 0
0.72 0.001 0
0.73 0.001 0
0.74 0.001 0
0.75 0.001 0
0.76 0.001 0
0.77 0.001 0
0.78 0.001 0
0.79 0.001 0
0.8 0.001 0
0.81 0.001 0
0.82 0.001 0
0.83 0.001 0
0.84 0.001 0
0.85 0.001 0
0.86 0.001 0
0.87 0.001 0
0.88 0.001 0
0.89 0.001 0
0.9 0.001 0
0.91 0.001 0
0.92 0.001 0
0.93 0.001 0
0.94 0.001 0
0.95 0.001 0
0.96 0.001 0
0.97 0.001 0
0.98 0.001 0
0.99 0.001 0
0 0.002 0
0.01 0.002 0
0.02 0.002 0
0.03 0.002 0
0.04 0.002 0
0.05 0.002 0
0.06 0.002 0
0.07 0.002 0
0.08 0.002 0
0.09 0.002 0
0.1 0.002 0
0.11 0.002 0
0.12 0.002 0
0.13 0.002 0
0.14 0.002 0
0.15 0.002 0
0.16 0.002 0
0.17 0.002 0
0.18 0.002 0
0.19 0.002 0
0.2 0.002 0
0.21 0.002 0
0.22 0.002 0
0.23 0.002 0
0.24 0.002 0
0.25 0.002 0
0.26 0.002 0
0.27 0.002 0
0.28 0.002 0
0.29 0.002 0
0.3 0.002 0
0.31 0.002 0
0.32 0.002 0
0.33 0.002 0
0.34 0.002 0
0.35 0.002 0
0.36 0.002 0
0.37 0.002 0
0.38 0.002 0
0.39 0.002 0
0.4 0.002 0
0.41 0.002 0
0.42 0.002 0
0.43 0.002 0
0.44 0.002 0
0.45 0.002 0
0.46 0.002 0
0.47 0.002 0
0.48 0.002 0
0.49 0.002 0
0.5 0.002 0
0.51 0.002 0
0.52 0.002 0
0.53 0.002 0
0.54 0.002 0
0.55 0.002 0
0.56 0.002 0
0.57 0.002 0
0.58 0.002 0
0.59 0.002 0
0.6 0.002 0
0.61 0.002 0
0.62 0.002 0
0.63 0.002 0
0.64 0.002 0
0.65 0.002 0
0.66 0.002 0
0.67 0.002 0
0.68 0.002 0
0.69 0.002 0
0.7 0.002 0
0.71 0.002 0
0.72 0.002 0
0.73 0.002 0
0.74 0.002 0
0.75 0.002 0
0.76 0.002 0
0.77 0.002 0
0.78 0.002 0
0.79 0.002 0
0.8 0.002 0
0.81 0.002 0
0.82 0.002 0
0.83 0.002 0
0.84 0.002 0
0.85 0.002 0
0.86 0.002 0
0.87 0.002 0
0.88 0.002 0
0.89 0.002 0
0.9 0.002 0
0.91 0.002 0
0.92 0.002 0
0.93 0.002 0
0.94 0.002 0
0.95 0.002 0
0.96 0.002 0
0.97 0.002 0
0.98 0.002 0
0.99 0.002 0
0 0.003 0
0.01 0.003 0
0.02 0.003 0
0.03 0.003 0
0.04 0.003 0
0.05 0.003 0
0.06 0.003 0
0.07 0.003 0
0.08 0.003 0
0.09 0.003 0
0.1 0.003 0
0.11 0.003 0
0.12 0.003 0
0.13 0.003 0
0.14 0.003 0
0.15 0.003 0
0.16 0.003 0
0.17 0.003 0
0.18 0.003 0
0.19 0.003 0
0.2 0.003 0
0.21 0.003 0
0.22 0.003 0
0.23 0.003 0
0.24 0.003 0
0.25 0.003 0
0.26 0.003 0
0.27 0.003 0
0.28 0.003 0
0.29 0.003 0
0.3 0.003 0
0.31 0.003 0
0.32 0.003 0
0.33 0.003 0
0.34 0.003 0
0.35 0.003 0
0.36 0.003 0
0.37 0.003 0
0.38 0.003 0
0.39 0.003 0
0.4 0.003 0
0.41 0.003 0
0.42 0.003 0
0.43 0.003 0
0.44 0.003 0
0.45 0.003 0
0.46 0.003 0
0.47 0.003 0
0.48 0.003 0
0.49 0.003 0
0.5 0.003 0
0.51 0.003 0
0.52 0.003 0
0.53 0.003 0
0.54 0.003 0
0.55 0.003 0
0.56 0.003 0
0.57 0.003 0
0.58 0.003 0
0.59 0.003 0
0.6 0.003 0
0.61 0.003 0
0.62 0.003 0
0.63 0.003 0
0.64 0.003 0
0.65 0.003 0
0.66 0.003 0
0.67 0.003 0
0.68 0.003 0
0.69 0.003 0
0.7 0.003 0
0.71 0.003 0
0.72 0.003 0
0.73 0.003 0
0.74 0.003 0
0.75 0.003 0
0.76 0.003 0
0.77 0.003 0
0.78 0.003 0
0.79 0.003 0
0.8 0.003 0
0.81 0.003 0
0.82 0.003 0
0.83 0.003 0
0.84 0.003 0
0.85 0.003 0
0.86 0.003 0
0.87 0.003 0
0.88 0.003 0
0.89 0.003 0
0.9 0.003 0
0.91 0.003 0
0.92 0.003 0
0.93 0.003 0
0.94 0.003 0
0.95 0.003 0
0.96 0.003 0
0.97 0.003 0
0.98 0.003 0
0.99 0.003 0
0 0.004 0
0.01 0.004 0
0.02 0.004 0
0.03 0.004 0
0.04 0.004 0
0.05 0.004 0
0.06 0.004 0
0.07 0.004 0
0.08 0.004 0
0.09 0.004 0
0.1 0.004 0
0.11 0.004 0
0.12 0.004 0
0.13 0.004 0
0.14 0.004 0
0.15 0.004 0
0.16 0.004 0
0.17 0.004 0
0.18 0.004 0
0.19 0.004 0
0.2 0.004 0
0.21 0.004 0
0.22 0.004 0
0.23 0.004 0
0.24 0.004 0
0.25 0.004 0
0.26 0.004 0
0.27 0.004 0
0.28 0.004 0
0.29 0.004 0
0.3 0.004 0
0.31 0.004 0
0.32 0.004 0
0.33 0.004 0
0.34 0.004 0
0.35 0.004 0
0.36 0.004 0
0.37 0.004 0
0.38 0.004 0
0.39 0.004 0
0.4 0.004 0
0.41 0.004 0
0.42 0.004 0
0.43 0.004 0
0.44 0.004 0
0.45 0.004 0
0.46 0.004 0
0.47 0.004 0
0.48 0.004 0
0.49 0.004 0
0.5 0.004 0
0.51 0.004 0
0.52 0.004 0
0.53 0.004 0
0.54 0.004 0
0.55 0.004 0
0.56 0.004 0
0.57 0.004 0
0.58 0.004 0
0.59 0.004 0
0.6 0.004 0
0.61 0.004 0
0.62 0.004 0
0.63 0.004 0
0.64 0.004 0
0.65 0.004 0
0.66 0.004 0
0.67 0.004 0
0.68 0.004 0
0.69 0.004 0
0.7 0.004 0
0.71 0.004 0
0.72 0.004 0
0.73 0.004 0
0.74 0.004 0
0.75 0.004 0
0.76 0.004 0
0.77 0.004 0
0.78 0.004 0
0.79 0.004 0
0.8 0.004 0
0.81 0.004 0
0.82 0.004 0
0.83 0.004 0
0.84 0.004 0
0.85 0.004 0
0.86 0.004 0
0.87 0.004 0
0.88 0.004 0
0.89 0.004 0
0.9 0.004 0
0.91 0.004 0
0.92 0.004 0
0.93 0.004 0
0.94 0.004 0
0.95 0.004 0
0.96 0.004 0
0.97 0.004 0
0.98 0.004 0
0.99 0.004 0
0 0.005 0
0.01 0.005 0
0.02 0.005 0
0.03 0.005 0
0.04 0.005 0
0.05 0.005 0
0.06 0.005 0
0.07 0.005 0
0.08 0.005 0
0.09 0.005 0
0.1 0.005 0
0.11 0.005 0
0.12 0.005 0
0.13 0.005 0
0.14 0.005 0
0.15 0.005 0
0.16 0.005 0
0.17 0.005 0
0.18 0.005 0
0.19 0.005 0
0.2 0.005 0
0.21 0.005 0
0.22 0.005 0
0.23 0.005 0
0.24 0.005 0
0.25 0.005 0
0.26 0.005 0
0.27 0.005 0
0.28 0.005 0
0.29 0.005 0
0.3 0.005 0
0.31 0.005 0
0.32 0.005 0
0.33 0.005 0
0.34 0.005 0
0.35 0.005 0
0.36 0.005 0
0.37 0.005 0
0.38 0.005 0
0.39 0.005 0
0.4 0.005 0
0.41 0.005 0
0.42 0.005 0
0.43 0.005 0
0.44 0.005 0
0.45 0.005 0
0.46 0.005 0
0.47 0.005 0
0.48 0.005 0
0.49 0.005 0
0.5 0.005 0
0.51 0.005 0
0.52 0.005 0
0.53 0.005 0
0.54 0.005 0
0.55 0.005 0
0.56 0.005 0
0.57 0.005 0
0.58 0.005 0
0.59 0.005 0
0.6 0.005 0
0.61 0.005 0
0.62 0.005 0
0.63 0.005 0
0.64 0.005 0
0.65 0.005 0
0.66 0.005 0
0.67 0.005 0
0.68 0.005 0
0.69 0.005 0
0.7 0.005 0
0.71 0.005 0
0.72 0.005 0
0.73 0.005 0
0.74 0.005 0
0.75 0.005 0
0.76 0.005 0
0.77 0.005 0
0.78 0.005 0
0.79 0.005 0
0.8 0.005 0
0.81 0.005 0
0.82 0.005 0
0.83 0.005 0
0.84 0.005 0
0.85 0.005 0
0.86 0.005 0
0.87 0.005 0
0.88 0.005 0
0.89 0.005 0
0.9 0.005 0
0.91 0.005 0
0.92 0.005 0
0.93 0.005 0
0.94 0.005 0
0.95 0.005 0
0.96 0.005 0
0.97 0.005 0
0.98 0.005 0
0.99 0.005 0
0 0.006 0
0.01 0.006 0
0.02 0.006 0
0.03 0.006 0
0.04 0.006 0
0.05 0.006 0
0.06 0.006 0
0.07 0.006 0
0.08 0.006 0
0.09 0.006 0
0.1 0.006 0
0.11 0.006 0
0.12 0.006 0
0.13 0.006 0
0.14 0.006 0
0.15 0.006 0
0.16 0.006 0
0.17 0.006 0
0.18 0.006 0
0.19 0.006 0
0.2 0.006 0
0.21 0.006 0
0.22 0.006 0
0.23 0.006 0
0.24 0.006 0
0.25 0.006 0
0.26 0.006 0
0.27 0.006 0
0.28 0.006 0
0.29 0.006 0
0.3 0.006 0
0.31 0.006 0
0.32 0.006 0
0.33 0.006 0
0.34 0.006 0
0.35 0.006 0
0.36 0.006 0
0.37 0.006 0
0.38 0.006 0
0.39 0.006 0
0.4 0.006 0
0.41 0.006 0
0.42 0.006 0
0.43 0.006 0
0.44 0.006 0
0.45 0.006 0
0.46 0.006 0
0.47 0.006 0
0.48 0.006 0
0.49 0.006 0
0.5 0.006 0
0.51 0.006 0
0.52 0.006 0
0.53 0.006 0
0.54 0.006 0
0.55 0.006 0
0.56 0.006 0
0.57 0.006 0
0.58 0.006 0
0.59 0.006 0
0.6 0.006 0
0.61 0.006 0
0.62 0.006 0
0.63 0.006 0
0.64 0.006 0
0.65 0.006 0
0.66 0.006 0
0.67 0.006 0
0.68 0.006 0
0.69 0.006 0
0.7 0.006 0
0.71 0.006 0
0.72 0.006 0
0.73 0.006 0
0.74 0.006 0
0.75 0.006 0
0.76 0.006 0
0.77 0.006 0
0.78 0.006 0
0.79 0.006 0
0.8 0.006 0
0.81 0.006 0
0.82 0.006 0
0.83 0.006 0
0.84 0.006 0
0.85 0.006 0
0.86 0.006 0
0.87 0.006 0
0.88 0.006 0
0.89 0.006 0
0.9 0.006 0
0.91 0.006 0
0.92 0.006 0
0.93 0.006 0
0.94 0.006 0
0.95 0.006 0
0.96 0.006 0
0.97 0.006 0
0.98 0.006 0
0.99 0.006 0
0 0.007 0
0.01 0.007 0
0.02 0.007 0
0.03 0.007 0
0.04 0.007 0
0.05 0.007 0
0.06 0.007 0
0.07 0.007 0
0.08 0.007 0
0.09 0.007 0
0.1 0.007 0
0.11 0.007 0
0.12 0.007 0
0.13 0.007 0
0.14 0.007 0
0.15 0.007 0
0.16 0.007 0
0.17 0.007 0
0.18 0.007 0
0.19 0.007 0
0.2 0.007 0
0.21 0.007 0
0.22 0.007 0
0.23 0.007 0
0.24 0.007 0
0.25 0.007 0
0.26 0.007 0
0.27 0.007 0
0.28 0.007 0
0.29 0.007 0
0.3 0.007 0
0.31 0.007 0
0.32 0.007 0
0.33 0.007 0
0.34 0.007 0
0.35 0.007 0
0.36 0.007 0
0.37 0.007 0
0.38 0.007 0
0.39 0.007 0
0.4 0.007 0
0.41 0.007 0
0.42 0.007 0
0.43 0.007 0
0.44 0.007 0
0.45 0.007 0
0.46 0.007 0
0.47 0.007 0
0.48 0.007 0
0.49 0.007 0
0.5 0.007 0
0.51 0.007 0
0.52 0.007 0
0.53 0.007 0
0.54 0.007 0
0.55 0.007 0
0.56 0.007 0
0.57 0.007 0
0.58 0.007 0
0.59 0.007 0
0.6 0.007 0
0.61 0.007 0
0.62 0.007 0
0.63 0.007 0
0.64 0.007 0
0.65 0.007 0
0.66 0.007 0
0.67 0.007 0
0.68 0.007 0
0.69 0.007 0
0.7 0.007 0
0.71 0.007 0
0.72 0.007 0
0.73 0.007 0
0.74 0.007 0
0.75 0.007 0
0.76 0.007 0
0.77 0.007 0
0.78 0.007 0
0.79 0.007 0
0.8 0.007 0
0.81 0.007 0
0.82 0.007 0
0.83 0.007 0
0.84 0.007 0
0.85 0.007 0
0.86 0.007 0
0.87 0.007 0
0.88 0.007 0
0.89 0.007 0
0.9 0.007 0
0.91 0.007 0
0.92 0.007 0
0.93 0.007 0
0.94 0.007 0
0.95 0.007 0
0.96 0.007 0
0.97 0.007 0
0.98 0.007 0
[...]
POINT_DATA 10000

SCALARS vel_X float 1
LOOKUP_TABLE default
0
0
0
0
0
0
0
0
0
0
0
0
0
0
0
0
0
0
0
0
0
0
0
0
0
0
0
0
0
0
0
0
0
0
0
0
0
0
0
0
0
0
0
0
0
0
0
0
0
0
0
0
0
0
0
0
0
0
0
0
0
0
0
0
0
0
0
0
0
0
0
0
0
0
0
0
0
0
0
0
0
0
0
0
0
0
0
0
0
0
0
0
0
0
0
0
0
0
0
0
1
0.329392
0.218351
0.175726
0.186575
0.145589
0.189111
0.161392
0.16655
0.202351
0.186771
0.182792
0.24767
0.243169
0.245756
0.301072
0.374476
0.337571
0.241404
0.125749
0.0629783
0.0186418
0.0118867
-0.00181954
0.00478511
-0.00399668
0.00418738
-0.00414511
0.00415375
-0.00415211
0.0041524
-0.00415235
0.00415236
-0.00415236
0.00415236
-0.00415236
0.00415236
-0.00415236
0.00415236
-0.00415236
0.00415236
-0.00415236
0.00415236
-0.00415236
0.00415236
-0.00415236
0.00415236
-0.00415236
0.00415236
-0.00415236
0.00415236
-0.00415236
0.00415236
-0.00415236
0.00415236
-0.00415236
0.00415236
-0.00415236
0.00415236
-0.00415236
0.00415236
-0.00415236
0.00415236
-0.00415236
0.00415236
-0.00415236
0.00415236
-0.00415236
0.00415236
-0.00415236
0.00415236
-0.00415236
0.00415236
-0.00415237
0.00415229
-0.00415272
0.00415075
-0.00415819
0.00413602
-0.00418493
0.00411633
-0.00414587
0.00421284
-0.00420235
0.00385061
-0.00420202
0.0047781
-0.00429718
0.00304181
-0.00311804
0.00452091
-0.00610507
0.00624848
-0.00551435
0.00390271
-0.00283947
0.00115339
-0.00340284
-0.146471
-0.146471
1
0.576545
0.412212
0.346466
0.35178
0.299294
0.356566
0.318639
0.33356
0.381558
0.36255
0.369123
0.460033
0.455377
0.468812
0.549452
0.62982
0.54287
0.374902
0.193241
0.0942965
0.0287677
0.0169346
-0.00193982
0.00634134
-0.00517412
0.00545596
-0.00539356
0.0054063
-0.00540389
0.00540432
-0.00540425
0.00540426
-0.00540425
0.00540425
-0.00540425
0.00540425
-0.00540425
0.00540425
-0.00540425
0.00540425
-0.00540425
0.00540425
-0.00540425
0.00540425
-0.00540425
0.00540425
-0.00540425
0.00540425
-0.00540425
0.00540425
-0.00540425
0.00540425
-0.00540425
0.00540425
-0.00540425
0.00540425
-0.00540425
0.00540425
-0.00540425
0.00540425
-0.00540425
0.00540425
-0.00540425
0.00540425
-0.00540425
0.00540425
-0.00540425
0.00540425
-0.00540425
0.00540425
-0.00540426
0.00540425
-0.00540427
0.00540415
-0.00540479
0.00540186
-0.00541293
0.00537968
-0.00545432
0.005345
-0.00540624
0.00548493
-0.00546638
0.00497113
-0.00554017
0.00624727
-0.00549522
0.00383962
-0.00418232
0.00608798
-0.00808528
0.00798197
-0.00694082
0.00469197
-0.00349528
0.00118149
-0.00186909
0.1994
0.1994
1
0.754334
0.582631
0.502115
0.50242
0.447836
0.50368
0.470662
0.486159
0.538839
0.525845
0.53702
0.633465
0.635165
0.650742
0.726738
0.786177
0.661667
0.449483
0.232716
0.111713
0.0357793
0.0191186
-0.00104753
0.00637351
-0.00495481
0.00529902
-0.00522244
0.00523816
-0.00523517
0.0052357
-0.00523561
0.00523562
-0.00523562
0.00523562
-0.00523562
0.00523562
-0.00523562
0.00523562
-0.00523562
0.00523562
-0.00523562
0.00523562
-0.00523562
0.00523562
-0.00523562
0.00523562
-0.00523562
0.00523562
-0.00523562
0.00523562
-0.00523562
0.00523562
-0.00523562
0.00523562
-0.00523562
0.00523562
-0.00523562
0.00523562
-0.00523562
0.00523562
-0.00523562
0.00523562
-0.00523562
0.00523562
-0.00523562
0.00523562
-0.00523562
0.00523562
-0.00523562
0.00523562
-0.00523562
0.00523562
-0.00523564
0.00523549
-0.00523628
0.00523272
-0.00524603
0.00520637
-0.00529495
0.0051645
-0.0052444
0.00531534
-0.00531688
0.00475307
-0.00538964
0.00611009
-0.00536892
0.00362135
-0.00397019
0.00580838
-0.00791122
0.00782377
-0.00699437
0.00469177
-0.00369828
0.00114249
-0.00310998
-0.172939
-0.172939
1
0.878579
0.727936
0.63926
0.638906
0.583317
0.633135
0.610707
0.619232
0.674783
0.670024
0.676934
0.770058
0.778551
0.785051
0.839487
0.873893
0.729034
0.494013
0.259064
0.1236
0.0415185
0.0204377
0.00012532
0.00598565
-0.00434434
0.00474584
-0.00465579
0.00467442
-0.00467085
0.00467148
-0.00467138
0.00467139
-0.00467139
0.00467139
-0.00467139
0.00467139
-0.00467139
0.00467139
-0.00467139
0.00467139
-0.00467139
0.00467139
-0.00467139
0.00467139
-0.00467139
0.00467139
-0.00467139
0.00467139
-0.00467139
0.00467139
-0.00467139
0.00467139
-0.00467139
0.00467139
-0.00467139
0.00467139
-0.00467139
0.00467139
-0.00467139
0.00467139
-0.00467139
0.00467139
-0.00467139
0.00467139
-0.00467139
0.00467139
-0.00467139
0.00467139
-0.00467139
0.00467139
-0.00467139
0.00467139
-0.00467142
0.00467124
-0.00467216
0.00466806
-0.00468316
0.00463895
-0.00473583
0.00459595
-0.0046814
0.00474266
-0.00478353
0.00417073
-0.00478219
0.00552105
-0.00495437
0.0031691
-0.0033027
0.00486298
-0.00707639
0.00724848
-0.00686743
0.00472175
-0.00395421
0.00129955
-0.00126541
0.187239
0.187239
1
0.963282
0.847389
0.757323
0.759067
0.702819
0.745329
0.733714
0.731957
0.788679
0.79035
0.787576
0.872746
0.885101
0.875935
0.904302
0.918916
0.767788
0.523658
0.279485
0.133427
0.0468281
0.0215681
0.00137719
0.00551277
-0.00364364
0.0041053
-0.0040008
0.00402261
-0.00401839
0.00401915
-0.00401902
0.00401904
-0.00401904
0.00401904
-0.00401904
0.00401904
-0.00401904
0.00401904
-0.00401904
0.00401904
-0.00401904
0.00401904
-0.00401904
0.00401904
-0.00401904
0.00401904
-0.00401904
0.00401904
-0.00401904
0.00401904
-0.00401904
0.00401904
-0.00401904
0.00401904
-0.00401904
0.00401904
-0.00401904
0.00401904
-0.00401904
0.00401904
-0.00401904
0.00401904
-0.00401904
0.00401904
-0.00401904
0.00401904
-0.00401904
0.00401904
-0.00401904
0.00401904
-0.00401904
0.00401904
-0.00401907
0.00401887
-0.00401992
0.00401528
-0.00403205
0.00398402
-0.00408648
0.00394371
-0.00402564
0.00408027
-0.00416832
0.00351244
-0.00405349
0.00483236
-0.00450094
0.00267757
-0.00250605
0.0037455
-0.00608608
0.00659997
-0.00670563
0.00477822
-0.00420035
0.00151886
-0.0026792
-0.178567
-0.178567
1
1.01939
0.942031
0.856562
0.861133
0.805738
0.839716
0.837575
0.824913
0.880167
0.885714
0.8715
0.945321
0.958842
0.933025
0.93799
0.939314
0.791244
0.545819
0.29733
0.142489
0.0521511
0.0226445
0.0027468
0.00496379
-0.00284953
0.00337711
-0.00325651
0.00328192
-0.00327696
0.00327786
-0.00327771
0.00327773
-0.00327773
0.00327773
-0.00327773
0.00327773
-0.00327773
0.00327773
-0.00327773
0.00327773
-0.00327773
0.00327773
-0.00327773
0.00327773
-0.00327773
0.00327773
-0.00327773
0.00327773
-0.00327773
0.00327773
-0.00327773
0.00327773
-0.00327773
0.00327773
-0.00327773
0.00327773
-0.00327773
0.00327773
-0.00327773
0.00327773
-0.00327773
0.00327773
-0.00327773
0.00327773
-0.00327773
0.00327773
-0.00327773
0.00327773
-0.00327773
0.00327773
-0.00327773
0.00327772
-0.00327776
0.00327753
-0.00327874
0.00327352
-0.00329198
0.00324041
-0.00334705
0.00320504
-0.00327821
0.00332873
-0.00346532
0.0027733
-0.00322345
0.00404794
-0.0039616
0.00211728
-0.00163784
0.00255166
-0.00497666
0.00580844
-0.00636804
0.00469666
-0.00430124
0.00170302
-0.000967776
0.184554
0.184554
1
1.05506
1.01419
0.937657
0.944655
0.892293
0.91627
0.922284
0.899304
0.950225
0.957811
0.932719
0.992745
1.00644
0.966747
0.9535
0.946314
0.806559
0.563952
0.314037
0.151255
0.0576783
0.0236846
0.00427809
0.00431223
-0.00193077
0.00253127
-0.00239263
0.00242211
-0.0024163
0.00241737
-0.00241719
0.00241722
-0.00241721
0.00241721
-0.00241721
0.00241721
-0.00241721
0.00241721
-0.00241721
0.00241721
-0.00241721
0.00241721
-0.00241721
0.00241721
-0.00241721
0.00241721
-0.00241721
0.00241721
-0.00241721
0.00241721
-0.00241721
0.00241721
-0.00241721
0.00241721
-0.00241721
0.00241721
-0.00241721
0.00241721
-0.00241721
0.00241721
-0.00241721
0.00241721
-0.00241721
0.00241721
-0.00241721
0.00241721
-0.00241721
0.00241721
-0.00241721
0.00241721
-0.00241721
0.00241721
-0.00241725
0.00241698
-0.00241836
0.00241252
-0.00243271
0.00237775
-0.00248768
0.00234864
-0.00241044
0.00245745
-0.00264148
0.00192356
-0.00227277
0.00313199
-0.00328317
0.00145804
-0.000704239
0.00128359
-0.00371215
0.00479812
-0.00576723
0.00439331
-0.00420006
0.00176638
-0.00242945
-0.179949
-0.179949
1
1.07625
1.0668
1.00178
1.01035
0.963146
0.97595
0.989027
0.956908
1.00116
1.00984
0.975681
1.02069
1.03503
0.985772
0.959402
0.94639
0.817346
0.579637
0.330139
0.159911
0.0634442
0.0247205
0.00596019
0.00357593
-0.000902871
0.00158403
-0.00142518
0.00145929
-0.00145251
0.00145376
-0.00145354
0.00145358
-0.00145357
0.00145357
-0.00145357
0.00145357
-0.00145357
0.00145357
-0.00145357
0.00145357
-0.00145357
0.00145357
-0.00145357
0.00145357
-0.00145357
0.00145357
-0.00145357
0.00145357
-0.00145357
0.00145357
-0.00145357
0.00145357
-0.00145357
0.00145357
-0.00145357
0.00145357
-0.00145357
0.00145357
-0.00145357
0.00145357
-0.00145357
0.00145357
-0.00145357
0.00145357
-0.00145357
0.00145357
-0.00145357
0.00145357
-0.00145357
0.00145357
-0.00145358
0.00145357
-0.00145362
0.00145331
-0.00145487
0.00144838
-0.00147034
0.00141211
-0.00152461
0.00139006
-0.00143948
0.00148188
-0.00171164
0.000980037
-0.00122275
0.00209642
-0.00247311
0.000717262
0.000266742
-3.40517e-05
-0.0023098
0.00357844
-0.00491149
0.00387017
-0.00390454
0.00172593
-0.000704188
0.183739
0.183739
1
1.08729
1.10295
1.05057
1.05971
1.01938
1.02053
1.03963
0.999999
1.03607
1.04554
1.00474
1.03472
1.05075
0.996264
0.960799
0.943095
0.82536
0.593597
0.34577
0.168546
0.0694088
0.0258049
0.00774635
0.00280495
0.000185651
0.00058451
-0.000403084
0.000442418
-0.000434528
0.000435999
-0.000435743
0.000435785
-0.000435778
0.000435779
-0.000435779
0.000435779
-0.000435779
0.000435779
-0.000435779
0.000435779
-0.000435779
0.000435779
-0.000435779
0.000435779
-0.000435779
0.000435779
-0.000435779
0.000435779
-0.000435779
0.000435779
-0.000435779
0.000435779
-0.000435779
0.000435779
-0.000435779
0.000435779
-0.000435779
0.000435779
-0.000435779
0.000435779
-0.000435779
0.000435779
-0.000435779
0.000435779
-0.000435779
0.000435779
-0.000435779
0.000435779
-0.000435779
0.000435779
-0.00043578
0.000435771
-0.000435835
0.000435471
-0.000437237
0.000430055
-0.000453828
0.00039246
-0.000506859
0.000377967
-0.000414929
0.000450563
-0.000724185
-8.40487e-06
-0.000125258
0.000989481
-0.00157751
-6.02314e-05
0.00122735
-0.00134726
-0.000832971
0.0022132
-0.00385902
0.00316815
-0.00344844
0.00156469
-0.00212772
-0.180521
-0.180521
1
1.09135
1.12565
1.08602
1.0947
1.06247
1.05223
1.07628
1.03112
1.05829
1.06856
1.02378
1.03959
1.05824
1.00213
0.960475
0.93832
0.831449
0.606177
0.360909
0.177204
0.0755079
0.0269946
0.00958008
0.00205762
0.0012777
-0.000409644
0.000616204
-0.000570987
0.000580141
-0.000578419
0.000578721
-0.000578671
0.000578679
-0.000578678
0.000578678
-0.000578678
0.000578678
-0.000578678
0.000578678
-0.000578678
0.000578678
-0.000578678
0.000578678
-0.000578678
0.000578678
-0.000578678
0.000578678
-0.000578678
0.000578678
-0.000578678
0.000578678
-0.000578678
0.000578678
-0.000578678
0.000578678
-0.000578678
0.000578678
-0.000578678
0.000578678
-0.000578678
0.000578678
-0.000578678
0.000578678
-0.000578678
0.000578678
-0.000578678
0.000578678
-0.000578678
0.000578678
-0.000578678
0.000578677
-0.000578688
0.000578614
-0.00057903
0.000577045
-0.000584958
0.000559346
-0.000623693
0.000508055
-0.000630339
0.000605334
-0.000579115
0.000263762
-0.000985053
0.000960098
-0.000129519
-0.000652653
-0.000825131
0.0021262
-0.00259263
0.000640121
0.000781804
-0.00268063
0.00233741
-0.00287028
0.00132647
-0.000354623
0.183272
0.183272
1
1.09073
1.13767
1.11026
1.11752
1.09412
1.07343
1.10127
1.05282
1.07101
1.08213
1.036
1.03897
1.06065
1.00563
0.959821
0.933068
0.836049
0.617557
0.375485
0.18591
0.0816748
0.02834
0.0114088
0.0013877
0.00232059
-0.00134523
0.00157968
-0.00152786
0.00153845
-0.00153644
0.00153679
-0.00153673
0.00153674
-0.00153674
0.00153674
-0.00153674
0.00153674
-0.00153674
0.00153674
-0.00153674
0.00153674
-0.00153674
0.00153674
-0.00153674
0.00153674
-0.00153674
0.00153674
-0.00153674
0.00153674
-0.00153674
0.00153674
-0.00153674
0.00153674
-0.00153674
0.00153674
-0.00153674
0.00153674
-0.00153674
0.00153674
-0.00153674
0.00153674
-0.00153674
0.00153674
-0.00153674
0.00153674
-0.00153674
0.00153674
-0.00153674
0.00153674
-0.00153674
0.00153674
-0.00153675
0.00153667
-0.00153714
0.00153492
-0.0015436
0.00151613
-0.00158327
0.00146706
-0.00158194
0.00156801
-0.00155399
0.00119951
-0.00189804
0.00197846
-0.00120438
0.000249085
-0.00153397
0.00291791
-0.0037117
0.00203554
-0.000639823
-0.00144487
0.00142766
-0.00220829
0.00100339
-0.00173251
-0.180937
-0.180937
1
1.08711
1.1415
1.12542
1.13043
1.11614
1.08644
1.11688
1.06739
1.07695
1.08895
1.04379
1.03545
1.05999
1.00797
0.959455
0.927884
0.839411
0.627851
0.389422
0.194671
0.0878488
0.0298815
0.013188
0.000840295
0.00327018
-0.00217757
0.00244287
-0.00238366
0.00239587
-0.00239353
0.00239395
-0.00239388
0.00239389
-0.00239389
0.00239389
-0.00239389
0.00239389
-0.00239389
0.00239389
-0.00239389
0.00239389
-0.00239389
0.00239389
-0.00239389
0.00239389
-0.00239389
0.00239389
-0.00239389
0.00239389
-0.00239389
0.00239389
-0.00239389
0.00239389
-0.00239389
0.00239389
-0.00239389
0.00239389
-0.00239389
0.00239389
-0.00239389
0.00239389
-0.00239389
0.00239389
-0.00239389
0.00239389
-0.00239389
0.00239389
-0.00239389
0.00239389
-0.00239389
0.00239389
-0.0023939
0.0023938
-0.00239434
0.00239187
-0.00240135
0.00237202
-0.00244173
0.00232564
-0.00243246
0.00242845
-0.00242928
0.0020389
-0.00270422
0.00288381
-0.00218688
0.00108325
-0.00215153
0.00356652
-0.00465697
0.00329066
-0.0019848
-0.000214675
0.000486712
-0.00149949
0.000643792
7.79289e-05
0.182885
0.182885
1
1.08169
1.13933
1.13345
1.13562
1.1303
1.09334
1.12516
1.07678
1.07833
1.0911
1.0488
1.03072
1.05745
1.00971
0.959594
0.923074
0.841715
0.637149
0.402649
0.203484
0.0939773
0.0316496
0.0148822
0.000451024
0.00409171
-0.00287141
0.00317072
-0.00310327
0.00311731
-0.0031146
0.00311509
-0.003115
0.00311502
-0.00311501
0.00311501
-0.00311501
0.00311501
-0.00311501
0.00311501
-0.00311501
0.00311501
-0.00311501
0.00311501
-0.00311501
0.00311501
-0.00311501
0.00311501
-0.00311501
0.00311501
-0.00311501
0.00311501
-0.00311501
0.00311501
-0.00311501
0.00311501
-0.00311501
0.00311501
-0.00311501
0.00311501
-0.00311501
0.00311501
-0.00311501
0.00311501
-0.00311501
0.00311501
-0.00311501
0.00311501
-0.00311501
0.00311501
-0.00311501
0.00311501
-0.00311503
0.00311492
-0.00311552
0.00311278
-0.00312309
0.00309192
-0.00316395
0.00304865
-0.00314689
0.00315143
-0.00316952
0.00274713
-0.00336996
0.00363995
-0.00303801
0.00181396
-0.00265088
0.00404622
-0.00539354
0.00435585
-0.00319655
0.000953515
-0.000440143
-0.000779849
0.000242724
-0.00127671
-0.181301
-0.181301
1
1.07536
1.13298
1.1361
1.13509
1.1382
1.09593
1.12792
1.08252
1.07686
1.09015
1.0521
1.02581
1.05375
1.01111
0.960256
0.918819
0.843109
0.645531
0.415112
0.212338
0.100016
0.0336639
0.0164656
0.000245672
0.0047601
-0.00340122
0.0037379
-0.00366129
0.00367739
-0.00367425
0.00367482
-0.00367472
0.00367473
-0.00367473
0.00367473
-0.00367473
0.00367473
-0.00367473
0.00367473
-0.00367473
0.00367473
-0.00367473
0.00367473
-0.00367473
0.00367473
-0.00367473
0.00367473
-0.00367473
0.00367473
-0.00367473
0.00367473
-0.00367473
0.00367473
-0.00367473
0.00367473
-0.00367473
0.00367473
-0.00367473
0.00367473
-0.00367473
0.00367473
-0.00367473
0.00367473
-0.00367473
0.00367473
-0.00367473
0.00367473
-0.00367473
0.00367473
-0.00367473
0.00367473
-0.00367475
0.00367462
-0.0036753
0.00367227
-0.00368343
0.00365045
-0.00372453
0.00361068
-0.00369998
0.00371154
-0.00374893
0.00329903
-0.00387136
0.00422088
-0.00372854
0.00241409
-0.00301346
0.00434163
-0.00589934
0.00519498
-0.00422962
0.002011
-0.00131161
-8.263e-05
-0.000150589
0.000540001
0.182544
0.182544
1
1.06872
1.12396
1.13484
1.13057
1.14126
1.09566
1.12667
1.08575
1.07376
1.08718
1.05429
1.02128
1.04932
1.01224
0.961372
0.915224
0.84373
0.653069
0.426772
0.221214
0.105931
0.0359338
0.0179216
0.000239978
0.00526023
-0.00375139
0.00412901
-0.00404225
0.00406065
-0.00405703
0.00405769
-0.00405758
0.0040576
-0.00405759
0.00405759
-0.00405759
0.00405759
-0.00405759
0.00405759
-0.00405759
0.00405759
-0.00405759
0.00405759
-0.00405759
0.00405759
-0.00405759
0.00405759
-0.00405759
0.00405759
-0.00405759
0.00405759
-0.00405759
0.00405759
-0.00405759
0.00405759
-0.00405759
0.00405759
-0.00405759
0.00405759
-0.00405759
0.00405759
-0.00405759
0.00405759
-0.00405759
0.00405759
-0.00405759
0.00405759
-0.00405759
0.00405759
-0.00405759
0.00405759
-0.00405762
0.00405747
-0.00405823
0.0040549
-0.00406693
0.00403218
-0.004108
0.00399625
-0.0040764
0.00409332
-0.00415165
0.00367928
-0.00419445
0.00461099
-0.00423931
0.00286554
-0.00322916
0.00444757
-0.00616494
0.00578554
-0.00505059
0.00291837
-0.00209216
0.000562577
-0.000542719
-0.000826106
-0.181618
-0.181618
1
1.06217
1.11344
1.13087
1.12351
1.14065
1.09366
1.12259
1.08727
1.06987
1.08297
1.0557
1.01744
1.04442
1.01312
0.962842
0.912347
0.843709
0.659835
0.437609
0.230084
0.111697
0.038458
0.0192435
0.000439723
0.00558676
-0.00391619
0.0043385
-0.00424053
0.00426151
-0.00425734
0.00425811
-0.00425798
0.004258
-0.004258
0.004258
-0.004258
0.004258
-0.004258
0.004258
-0.004258
0.004258
-0.004258
0.004258
-0.004258
0.004258
-0.004258
0.004258
-0.004258
0.004258
-0.004258
0.004258
-0.004258
0.004258
-0.004258
0.004258
-0.004258
0.004258
-0.004258
0.004258
-0.004258
0.004258
-0.004258
0.004258
-0.004258
0.004258
-0.004258
0.004258
-0.004258
0.004258
-0.004258
0.00425799
-0.00425802
0.00425785
-0.0042587
0.00425505
-0.00426798
0.00423152
-0.00430877
0.00419972
-0.00427064
0.0042912
-0.00437163
0.00388225
-0.00433509
0.00480496
-0.00456127
0.00315928
-0.00329618
0.00436859
-0.00619286
0.00611852
-0.00563867
0.00364674
-0.00275351
0.00113159
-0.00088832
0.000961669
0.182253
0.182253
1
1.05597
1.10232
1.12511
1.11504
1.13734
1.09073
1.11662
1.08761
1.06573
1.07801
1.05647
1.01439
1.03926
1.01375
0.964556
0.910204
0.843173
0.665894
0.447616
0.238915
0.117299
0.0412255
0.0204333
0.000841182
0.00574371
-0.00389925
0.00437022
-0.0042599
0.00428374
-0.00427896
0.00427985
-0.0042797
0.00427972
-0.00427972
0.00427972
-0.00427972
0.00427972
-0.00427972
0.00427972
-0.00427972
0.00427972
-0.00427972
0.00427972
-0.00427972
0.00427972
-0.00427972
0.00427972
-0.00427972
0.00427972
-0.00427972
0.00427972
-0.00427972
0.00427972
-0.00427972
0.00427972
-0.00427972
0.00427972
-0.00427972
0.00427972
-0.00427972
0.00427972
-0.00427972
0.00427972
-0.00427972
0.00427972
-0.00427972
0.00427972
-0.00427972
0.00427972
-0.00427972
0.00427971
-0.00427975
0.00427956
-0.0042805
0.00427652
-0.00429034
0.00425225
-0.00433059
0.00422482
-0.00428659
0.00430903
-0.00441227
0.00391159
-0.00429844
0.00480726
-0.00469517
0.00329506
-0.00322063
0.00411803
-0.00599659
0.00619771
-0.0059858
0.00417839
-0.00327556
0.00160613
-0.0011998
-0.000448607
-0.181881
-0.181881
1
1.05026
1.09123
1.11823
1.10601
1.1321
1.08745
1.10948
1.08711
1.06169
1.07267
1.05667
1.01215
1.03398
1.0141
0.966415
0.908786
0.842245
0.671305
0.456806
0.247666
0.122729
0.044216
0.0215016
0.00143193
0.00574366
-0.0037128
0.00423656
-0.00411269
0.00413971
-0.00413424
0.00413527
-0.00413509
0.00413512
-0.00413512
0.00413512
-0.00413512
0.00413512
-0.00413512
0.00413512
-0.00413512
0.00413512
-0.00413512
0.00413512
-0.00413512
0.00413512
-0.00413512
0.00413512
-0.00413512
0.00413512
-0.00413512
0.00413512
-0.00413512
0.00413512
-0.00413512
0.00413512
-0.00413512
0.00413512
-0.00413512
0.00413512
-0.00413512
0.00413512
-0.00413512
0.00413512
-0.00413512
0.00413512
-0.00413512
0.00413512
-0.00413512
0.00413512
-0.00413512
0.00413511
-0.00413515
0.00413494
-0.00413598
0.00413165
-0.00414638
0.00410674
-0.00418584
0.00408386
-0.0041367
0.00415925
-0.00428551
0.0037794
-0.00409812
0.00463128
-0.00465074
0.00328078
-0.00301573
0.0037169
-0.00559915
0.00603857
-0.00609606
0.00450678
-0.00364687
0.00197499
-0.0014395
0.00128156
0.18202
0.18202
1
1.0451
1.08062
1.1107
1.09699
1.12549
1.08414
1.1017
1.08598
1.05792
1.06717
1.05633
1.01067
1.02872
1.01416
0.968329
0.908057
0.841041
0.676126
0.465204
0.256295
0.127988
0.0474018
0.0224656
0.0021922
0.00560635
-0.00337628
0.00395716
-0.00381846
0.00384899
-0.00384277
0.00384395
-0.00384374
0.00384377
-0.00384377
0.00384377
-0.00384377
0.00384377
-0.00384377
0.00384377
-0.00384377
0.00384377
-0.00384377
0.00384377
-0.00384377