# vtk DataFile Version 2.0
FlowField
ASCII
DATASET STRUCTURED_GRID
DIMENSIONS 100 1 100
POINTS 10000 float
0 0 0
0.01 0 0
0.02 0 0
0.03 0 0
0.04 0 0
0.05 0 0
0.06 0 0
0.07 0 0
0.08 0 0
0.09 0 0
0.1 0 0
0.11 0 0
0.12 0 0
0.13 0 0
0.14 0 0
0.15 0 0
0.16 0 0
0.17 0 0
0.18 0 0
0.19 0 0
0.2 0 0
0.21 0 0
0.22 0 0
0.23 0 0
0.24 0 0
0.25 0 0
0.26 0 0
0.27 0 0
0.28 0 0
0.29 0 0
0.3 0 0
0.31 0 0
0.32 0 0
0.33 0 0
0.34 0 0
0.35 0 0
0.36 0 0
0.37 0 0
0.38 0 0
0.39 0 0
0.4 0 0
0.41 0 0
0.42 0 0
0.43 0 0
0.44 0 0
0.45 0 0
0.46 0 0
0.47 0 0
0.48 0 0
0.49 0 0
0.5 0 0
0.51 0 0
0.52 0 0
0.53 0 0
0.54 0 0
0.55 0 0
0.56 0 0
0.57 0 0
0.58 0 0
0.59 0 0
0.6 0 0
0.61 0 0
0.62 0 0
0.63 0 0
0.64 0 0
0.65 0 0
0.66 0 0
0.67 0 0
0.68 0 0
0.69 0 0
0.7 0 0
0.71 0 0
0.72 0 0
0.73 0 0
0.74 0 0
0.75 0 0
0.76 0 0
0.77 0 0
0.78 0 0
0.79 0 0
0.8 0 0
0.81 0 0
0.82 0 0
0.83 0 0
0.84 0 0
0.85 0 0
0.86 0 0
0.87 0 0
0.88 0 0
0.89 0 0
0.9 0 0
0.91 0 0
0.92 0 0
0.93 0 0
0.94 0 0
0.95 0 0
0.96 0 0
0.97 0 0
0.98 0 0
0.99 0 0
0 0.001 0
0.01 0.001 0
0.02 0.001 0
0.03 0.001 0
0.04 0.001 0
0.05 0.001 0
0.06 0.001 0
0.07 0.001 0
0.08 0.001 0
0.09 0.001 0
0.1 0.001 0
0.11 0.001 0
0.12 0.001 0
0.13 0.001 0
0.14 0.001 0
0.15 0.001 0
0.16 0.001 0
0.17 0.001 0
0.18 0.001 0
0.19 0.001 0
0.2 0.001 0
0.21 0.001 0
0.22 0.001 0
0.23 0.001 0
0.24 0.001 0
0.25 0.001 0
0.26 0.001 0
0.27 0.001 0
0.28 0.001 0
0.29 0.001 0
0.3 0.001 0
0.31 0.001 0
0.32 0.001 0
0.33 0.001 0
0.34 0.001 0
0.35 0.001 0
0.36 0.001 0
0.37 0.001 0
0.38 0.001 0
0.39 0.001 0
0.4 0.001 0
0.41 0.001 0
0.42 0.001 0
0.43 0.001 0
0.44 0.001 0
0.45 0.001 0
0.46 0.001 0
0.47 0.001 0
0.48 0.001 0
0.49 0.001 0
0.5 0.001 0
0.51 0.001 0
0.52 0.001 0
0.53 0.001 0
0.54 0.001 0
0.55 0.001 0
0.56 0.001 0
0.57 0.001 0
0.58 0.001 0
0.59 0.001 0
0.6 0.001 0
0.61 0.001 0
0.62 0.001 0
0.63 0.001 0
0.64 0.001 0
0.65 0.001 0
0.66 0.001 0
0.67 0.001 0
0.68 0.001 0
0.69 0.001 0
0.7 0.001 0
0.71 0.001 0
0.72 0.001 0
0.73 0.001 0
0.74 0.001 0
0.75 0.001 0
0.76 0.001 0
0.77 0.001 0
0.78 0.001 0
0.79 0.001 0
0.8 0.001 0
0.81 0.001 0
0.82 0.001 0
0.83 0.001 0
0.84 0.001 0
0.85 0.001 0
0.86 0.001 0
0.87 0.001 0
0.88 0.001 0
0.89 0.001 0
0.9 0.001 0
0.91 0.001 0
0.92 0.001 0
0.93 0.001 0
0.94 0.001 0
0.95 0.001 0
0.96 0.001 0
0.97 0.001 0
0.98 0.001 0
0.99 0.001 0
0 0.002 0
0.01 0.002 0
0.02 0.002 0
0.03 0.002 0
0.04 0.002 0
0.05 0.002 0
0.06 0.002 0
0.07 0.002 0
0.08 0.002 0
0.09 0.002 0
0.1 0.002 0
0.11 0.002 0
0.12 0.002 0
0.13 0.002 0
0.14 0.002 0
0.15 0.002 0
0.16 0.002 0
0.17 0.002 0
0.18 0.002 0
0.19 0.002 0
0.2 0.002 0
0.21 0.002 0
0.22 0.002 0
0.23 0.002 0
0.24 0.002 0
0.25 0.002 0
0.26 0.002 0
0.27 0.002 0
0.28 0.002 0
0.29 0.002 0
0.3 0.002 0
0.31 0.002 0
0.32 0.002 0
0.33 0.002 0
0.34 0.002 0
0.35 0.002 0
0.36 0.002 0
0.37 0.002 0
0.38 0.002 0
0.39 0.002 0
0.4 0.002 0
0.41 0.002 0
0.42 0.002 0
0.43 0.002 0
0.44 0.002 0
0.45 0.002 0
0.46 0.002 0
0.47 0.002 0
0.48 0.002 0
0.49 0.002 0
0.5 0.002 0
0.51 0.002 0
0.52 0.002 0
0.53 0.002 0
0.54 0.002 0
0.55 0.002 0
0.56 0.002 0
0.57 0.002 0
0.58 0.002 0
0.59 0.002 0
0.6 0.002 0
0.61 0.002 0
0.62 0.002 0
0.63 0.002 0
0.64 0.002 0
0.65 0.002 0
0.66 0.002 0
0.67 0.002 0
0.68 0.002 0
0.69 0.002 0
0.7 0.002 0
0.71 0.002 0
0.72 0.002 0
0.73 0.002 0
0.74 0.002 0
0.75 0.002 0
0.76 0.002 0
0.77 0.002 0
0.78 0.002 0
0.79 0.002 0
0.8 0.002 0
0.81 0.002 0
0.82 0.002 0
0.83 0.002 0
0.84 0.002 0
0.85 0.002 0
0.86 0.002 0
0.87 0.002 0
0.88 0.002 0
0.89 0.002 0
0.9 0.002 0
0.91 0.002 0
0.92 0.002 0
0.93 0.002 0
0.94 0.002 0
0.95 0.002 0
0.96 0.002 0
0.97 0.002 0
0.98 0.002 0
0.99 0.002 0
0 0.003 0
0.01 0.003 0
0.02 0.003 0
0.03 0.003 0
0.04 0.003 0
0.05 0.003 0
0.06 0.003 0
0.07 0.003 0
0.08 0.003 0
0.09 0.003 0
0.1 0.003 0
0.11 0.003 0
0.12 0.003 0
0.13 0.003 0
0.14 0.003 0
0.15 0.003 0
0.16 0.003 0
0.17 0.003 0
0.18 0.003 0
0.19 0.003 0
0.2 0.003 0
0.21 0.003 0
0.22 0.003 0
0.23 0.003 0
0.24 0.003 0
0.25 0.003 0
0.26 0.003 0
0.27 0.003 0
0.28 0.003 0
0.29 0.003 0
0.3 0.003 0
0.31 0.003 0
0.32 0.003 0
0.33 0.003 0
0.34 0.003 0
0.35 0.003 0
0.36 0.003 0
0.37 0.003 0
0.38 0.003 0
0.39 0.003 0
0.4 0.003 0
0.41 0.003 0
0.42 0.003 0
0.43 0.003 0
0.44 0.003 0
0.45 0.003 0
0.46 0.003 0
0.47 0.003 0
0.48 0.003 0
0.49 0.003 0
0.5 0.003 0
0.51 0.003 0
0.52 0.003 0
0.53 0.003 0
0.54 0.003 0
0.55 0.003 0
0.56 0.003 0
0.57 0.003 0
0.58 0.003 0
0.59 0.003 0
0.6 0.003 0
0.61 0.003 0
0.62 0.003 0
0.63 0.003 0
0.64 0.003 0
0.65 0.003 0
0.66 0.003 0
0.67 0.003 0
0.68 0.003 0
0.69 0.003 0
0.7 0.003 0
0.71 0.003 0
0.72 0.003 0
0.73 0.003 0
0.74 0.003 0
0.75 0.003 0
0.76 0.003 0
0.77 0.003 0
0.78 0.003 0
0.79 0.003 0
0.8 0.003 0
0.81 0.003 0
0.82 0.003 0
0.83 0.003 0
0.84 0.003 0
0.85 0.003 0
0.86 0.003 0
0.87 0.003 0
0.88 0.003 0
0.89 0.003 0
0.9 0.003 0
0.91 0.003 0
0.92 0.003 0
0.93 0.003 0
0.94 0.003 0
0.95 0.003 0
0.96 0.003 0
0.97 0.003 0
0.98 0.003 0
0.99 0.003 0
0 0.004 0
0.01 0.004 0
0.02 0.004 0
0.03 0.004 0
0.04 0.004 0
0.05 0.004 0
0.06 0.004 0
0.07 0.004 0
0.08 0.004 0
0.09 0.004 0
0.1 0.004 0
0.11 0.004 0
0.12 0.004 0
0.13 0.004 0
0.14 0.004 0
0.15 0.004 0
0.16 0.004 0
0.17 0.004 0
0.18 0.004 0
0.19 0.004 0
0.2 0.004 0
0.21 0.004 0
0.22 0.004 0
0.23 0.004 0
0.24 0.004 0
0.25 0.004 0
0.26 0.004 0
0.27 0.004 0
0.28 0.004 0
0.29 0.004 0
0.3 0.004 0
0.31 0.004 0
0.32 0.004 0
0.33 0.004 0
0.34 0.004 0
0.35 0.004 0
0.36 0.004 0
0.37 0.004 0
0.38 0.004 0
0.39 0.004 0
0.4 0.004 0
0.41 0.004 0
0.42 0.004 0
0.43 0.004 0
0.44 0.004 0
0.45 0.004 0
0.46 0.004 0
0.47 0.004 0
0.48 0.004 0
0.49 0.004 0
0.5 0.004 0
0.51 0.004 0
0.52 0.004 0
0.53 0.004 0
0.54 0.004 0
0.55 0.004 0
0.56 0.004 0
0.57 0.004 0
0.58 0.004 0
0.59 0.004 0
0.6 0.004 0
0.61 0.004 0
0.62 0.004 0
0.63 0.004 0
0.64 0.004 0
0.65 0.004 0
0.66 0.004 0
0.67 0.004 0
0.68 0.004 0
0.69 0.004 0
0.7 0.004 0
0.71 0.004 0
0.72 0.004 0
0.73 0.004 0
0.74 0.004 0
0.75 0.004 0
0.76 0.004 0
0.77 0.004 0
0.78 0.004 0
0.79 0.004 0
0.8 0.004 0
0.81 0.004 0
0.82 0.004 0
0.83 0.004 0
0.84 0.004 0
0.85 0.004 0
0.86 0.004 0
0.87 0.004 0
0.88 0.004 0
0.89 0.004 0
0.9 0.004 0
0.91 0.004 0
0.92 0.004 0
0.93 0.004 0
0.94 0.004 0
0.95 0.004 0
0.96 0.004 0
0.97 0.004 0
0.98 0.004 0
0.99 0.004 0
0 0.005 0
0.01 0.005 0
0.02 0.005 0
0.03 0.005 0
0.04 0.005 0
0.05 0.005 0
0.06 0.005 0
0.07 0.005 0
0.08 0.005 0
0.09 0.005 0
0.1 0.005 0
0.11 0.005 0
0.12 0.005 0
0.13 0.005 0
0.14 0.005 0
0.15 0.005 0
0.16 0.005 0
0.17 0.005 0
0.18 0.005 0
0.19 0.005 0
0.2 0.005 0
0.21 0.005 0
0.22 0.005 0
0.23 0.005 0
0.24 0.005 0
0.25 0.005 0
0.26 0.005 0
0.27 0.005 0
0.28 0.005 0
0.29 0.005 0
0.3 0.005 0
0.31 0.005 0
0.32 0.005 0
0.33 0.005 0
0.34 0.005 0
0.35 0.005 0
0.36 0.005 0
0.37 0.005 0
0.38 0.005 0
0.39 0.005 0
0.4 0.005 0
0.41 0.005 0
0.42 0.005 0
0.43 0.005 0
0.44 0.005 0
0.45 0.005 0
0.46 0.005 0
0.47 0.005 0
0.48 0.005 0
0.49 0.005 0
0.5 0.005 0
0.51 0.005 0
0.52 0.005 0
0.53 0.005 0
0.54 0.005 0
0.55 0.005 0
0.56 0.005 0
0.57 0.005 0
0.58 0.005 0
0.59 0.005 0
0.6 0.005 0
0.61 0.005 0
0.62 0.005 0
0.63 0.005 0
0.64 0.005 0
0.65 0.005 0
0.66 0.005 0
0.67 0.005 0
0.68 0.005 0
0.69 0.005 0
0.7 0.005 0
0.71 0.005 0
0.72 0.005 0
0.73 0.005 0
0.74 0.005 0
0.75 0.005 0
0.76 0.005 0
0.77 0.005 0
0.78 0.005 0
0.79 0.005 0
0.8 0.005 0
0.81 0.005 0
0.82 0.005 0
0.83 0.005 0
0.84 0.005 0
0.85 0.005 0
0.86 0.005 0
0.87 0.005 0
0.88 0.005 0
0.89 0.005 0
0.9 0.005 0
0.91 0.005 0
0.92 0.005 0
0.93 0.005 0
0.94 0.005 0
0.95 0.005 0
0.96 0.005 0
0.97 0.005 0
0.98 0.005 0
0.99 0.005 0
0 0.006 0
0.01 0.006 0
0.02 0.006 0
0.03 0.006 0
0.04 0.006 0
0.05 0.006 0
0.06 0.006 0
0.07 0.006 0
0.08 0.006 0
0.09 0.006 0
0.1 0.006 0
0.11 0.006 0
0.12 0.006 0
0.13 0.006 0
0.14 0.006 0
0.15 0.006 0
0.16 0.006 0
0.17 0.006 0
0.18 0.006 0
0.19 0.006 0
0.2 0.006 0
0.21 0.006 0
0.22 0.006 0
0.23 0.006 0
0.24 0.006 0
0.25 0.006 0
0.26 0.006 0
0.27 0.006 0
0.28 0.006 0
0.29 0.006 0
0.3 0.006 0
0.31 0.006 0
0.32 0.006 0
0.33 0.006 0
0.34 0.006 0
0.35 0.006 0
0.36 0.006 0
0.37 0.006 0
0.38 0.006 0
0.39 0.006 0
0.4 0.006 0
0.41 0.006 0
0.42 0.006 0
0.43 0.006 0
0.44 0.006 0
0.45 0.006 0
0.46 0.006 0
0.47 0.006 0
0.48 0.006 0
0.49 0.006 0
0.5 0.006 0
0.51 0.006 0
0.52 0.006 0
0.53 0.006 0
0.54 0.006 0
0.55 0.006 0
0.56 0.006 0
0.57 0.006 0
0.58 0.006 0
0.59 0.006 0
0.6 0.006 0
0.61 0.006 0
0.62 0.006 0
0.63 0.006 0
0.64 0.006 0
0.65 0.006 0
0.66 0.006 0
0.67 0.006 0
0.68 0.006 0
0.69 0.006 0
0.7 0.006 0
0.71 0.006 0
0.72 0.006 0
0.73 0.006 0
0.74 0.006 0
0.75 0.006 0
0.76 0.006 0
0.77 0.006 0
0.78 0.006 0
0.79 0.006 0
0.8 0.006 0
0.81 0.006 0
0.82 0.006 0
0.83 0.006 0
0.84 0.006 0
0.85 0.006 0
0.86 0.006 0
0.87 0.006 0
0.88 0.006 0
0.89 0.006 0
0.9 0.006 0
0.91 0.006 0
0.92 0.006 0
0.93 0.006 0
0.94 0.006 0
0.95 0.006 0
0.96 0.006 0
0.97 0.006 0
0.98 0.006 0
0.99 0.006 0
0 0.007 0
0.01 0.007 0
0.02 0.007 0
0.03 0.007 0
0.04 0.007 0
0.05 0.007 0
0.06 0.007 0
0.07 0.007 0
0.08 0.007 0
0.09 0.007 0
0.1 0.007 0
0.11 0.007 0
0.12 0.007 0
0.13 0.007 0
0.14 0.007 0
0.15 0.007 0
0.16 0.007 0
0.17 0.007 0
0.18 0.007 0
0.19 0.007 0
0.2 0.007 0
0.21 0.007 0
0.22 0.007 0
0.23 0.007 0
0.24 0.007 0
0.25 0.007 0
0.26 0.007 0
0.27 0.007 0
0.28 0.007 0
0.29 0.007 0
0.3 0.007 0
0.31 0.007 0
0.32 0.007 0
0.33 0.007 0
0.34 0.007 0
0.35 0.007 0
0.36 0.007 0
0.37 0.007 0
0.38 0.007 0
0.39 0.007 0
0.4 0.007 0
0.41 0.007 0
0.42 0.007 0
0.43 0.007 0
0.44 0.007 0
0.45 0.007 0
0.46 0.007 0
0.47 0.007 0
0.48 0.007 0
0.49 0.007 0
0.5 0.007 0
0.51 0.007 0
0.52 0.007 0
0.53 0.007 0
0.54 0.007 0
0.55 0.007 0
0.56 0.007 0
0.57 0.007 0
0.58 0.007 0
0.59 0.007 0
0.6 0.007 0
0.61 0.007 0
0.62 0.007 0
0.63 0.007 0
0.64 0.007 0
0.65 0.007 0
0.66 0.007 0
0.67 0.007 0
0.68 0.007 0
0.69 0.007 0
0.7 0.007 0
0.71 0.007 0
0.72 0.007 0
0.73 0.007 0
0.74 0.007 0
0.75 0.007 0
0.76 0.007 0
0.77 0.007 0
0.78 0.007 0
0.79 0.007 0
0.8 0.007 0
0.81 0.007 0
0.82 0.007 0
0.83 0.007 0
0.84 0.007 0
0.85 0.007 0
0.86 0.007 0
0.87 0.007 0
0.88 0.007 0
0.89 0.007 0
0.9 0.007 0
0.91 0.007 0
0.92 0.007 0
0.93 0.007 0
0.94 0.007 0
0.95 0.007 0
0.96 0.007 0
0.97 0.007 0
0.98 0.007 0
[...]
POINT_DATA 10000

SCALARS vel_X float 1
LOOKUP_TABLE default
0
0
0
0
0
0
0
0
0
0
0
0
0
0
0
0
0
0
0
0
0
0
0
0
0
0
0
0
0
0
0
0
0
0
0
0
0
0
0
0
0
0
0
0
0
0
0
0
0
0
0
0
0
0
0
0
0
0
0
0
0
0
0
0
0
0
0
0
0
0
0
0
0
0
0
0
0
0
0
0
0
0
0
0
0
0
0
0
0
0
0
0
0
0
0
0
0
0
0
0
1
0.417532
0.51219
0.422734
0.182146
0.0477788
0.00923563
0.000970037
0.000444998
-0.000285508
0.000300644
-0.000299401
0.000299491
-0.000299485
0.000299486
-0.000299486
0.000299486
-0.000299486
0.000299486
-0.000299486
0.000299486
-0.000299486
0.000299486
-0.000299486
0.000299486
-0.000299486
0.000299486
-0.000299486
0.000299486
-0.000299486
0.000299486
-0.000299486
0.000299486
-0.000299486
0.000299486
-0.000299486
0.000299486
-0.000299486
0.000299486
-0.000299486
0.000299486
-0.000299486
0.000299486
-0.000299486
0.000299486
-0.000299486
0.000299486
-0.000299486
0.000299486
-0.000299486
0.000299486
-0.000299486
0.000299486
-0.000299486
0.000299486
-0.000299486
0.000299486
-0.000299486
0.000299486
-0.000299486
0.000299486
-0.000299486
0.000299486
-0.000299486
0.000299486
-0.000299486
0.000299486
-0.000299486
0.000299486
-0.000299486
0.000299486
-0.000299486
0.000299486
-0.000299486
0.000299486
-0.000299486
0.000299486
-0.000299486
0.000299486
-0.000299486
0.000299486
-0.000299486
0.000299486
-0.000299486
0.000299486
-0.000299486
0.000299486
-0.000299486
0.000299486
-0.000299487
0.000299449
-0.000300157
0.000291422
-0.000356803
0.000112252
-0.000317575
0.000803963
-0.00259223
-0.0372517
-0.0372517
1
0.734802
0.843404
0.643194
0.268871
0.0694382
0.0137063
0.00116545
0.00090369
-0.000669189
0.000691587
-0.000689736
0.000689871
-0.000689862
0.000689863
-0.000689863
0.000689863
-0.000689863
0.000689863
-0.000689863
0.000689863
-0.000689863
0.000689863
-0.000689863
0.000689863
-0.000689863
0.000689863
-0.000689863
0.000689863
-0.000689863
0.000689863
-0.000689863
0.000689863
-0.000689863
0.000689863
-0.000689863
0.000689863
-0.000689863
0.000689863
-0.000689863
0.000689863
-0.000689863
0.000689863
-0.000689863
0.000689863
-0.000689863
0.000689863
-0.000689863
0.000689863
-0.000689863
0.000689863
-0.000689863
0.000689863
-0.000689863
0.000689863
-0.000689863
0.000689863
-0.000689863
0.000689863
-0.000689863
0.000689863
-0.000689863
0.000689863
-0.000689863
0.000689863
-0.000689863
0.000689863
-0.000689863
0.000689863
-0.000689863
0.000689863
-0.000689863
0.000689863
-0.000689863
0.000689863
-0.000689863
0.000689863
-0.000689863
0.000689863
-0.000689863
0.000689863
-0.000689863
0.000689863
-0.000689863
0.000689863
-0.000689863
0.000689863
-0.000689863
0.000689863
-0.000689865
0.000689807
-0.000690856
0.000678114
-0.000772651
0.000415134
-0.000768359
0.00137009
-0.00296005
0.0468665
0.0468665
1
0.937474
1.02138
0.754492
0.316345
0.0835037
0.0164052
0.00182398
0.000765015
-0.000465652
0.000494793
-0.000492342
0.000492524
-0.000492512
0.000492513
-0.000492513
0.000492513
-0.000492513
0.000492513
-0.000492513
0.000492513
-0.000492513
0.000492513
-0.000492513
0.000492513
-0.000492513
0.000492513
-0.000492513
0.000492513
-0.000492513
0.000492513
-0.000492513
0.000492513
-0.000492513
0.000492513
-0.000492513
0.000492513
-0.000492513
0.000492513
-0.000492513
0.000492513
-0.000492513
0.000492513
-0.000492513
0.000492513
-0.000492513
0.000492513
-0.000492513
0.000492513
-0.000492513
0.000492513
-0.000492513
0.000492513
-0.000492513
0.000492513
-0.000492513
0.000492513
-0.000492513
0.000492513
-0.000492513
0.000492513
-0.000492513
0.000492513
-0.000492513
0.000492513
-0.000492513
0.000492513
-0.000492513
0.000492513
-0.000492513
0.000492513
-0.000492513
0.000492513
-0.000492513
0.000492513
-0.000492513
0.000492513
-0.000492513
0.000492513
-0.000492513
0.000492513
-0.000492513
0.000492513
-0.000492513
0.000492513
-0.000492513
0.000492513
-0.000492513
0.000492513
-0.000492516
0.000492438
-0.000493796
0.000477981
-0.000590349
0.000182829
-0.0005794
0.00115569
-0.00300244
-0.0398931
-0.0398931
1
1.04279
1.09991
0.812334
0.348714
0.0954453
0.0187734
0.00266815
0.000460081
-8.92179e-05
0.000126158
-0.000122986
0.000123225
-0.000123209
0.00012321
-0.00012321
0.00012321
-0.00012321
0.00012321
-0.00012321
0.00012321
-0.00012321
0.00012321
-0.00012321
0.00012321
-0.00012321
0.00012321
-0.00012321
0.00012321
-0.00012321
0.00012321
-0.00012321
0.00012321
-0.00012321
0.00012321
-0.00012321
0.00012321
-0.00012321
0.00012321
-0.00012321
0.00012321
-0.00012321
0.00012321
-0.00012321
0.00012321
-0.00012321
0.00012321
-0.00012321
0.00012321
-0.00012321
0.00012321
-0.00012321
0.00012321
-0.00012321
0.00012321
-0.00012321
0.00012321
-0.00012321
0.00012321
-0.00012321
0.00012321
-0.00012321
0.00012321
-0.00012321
0.00012321
-0.00012321
0.00012321
-0.00012321
0.00012321
-0.00012321
0.00012321
-0.00012321
0.00012321
-0.00012321
0.00012321
-0.00012321
0.00012321
-0.00012321
0.00012321
-0.00012321
0.00012321
-0.00012321
0.00012321
-0.00012321
0.00012321
-0.00012321
0.00012321
-0.00012321
0.00012321
-0.000123214
0.000123112
-0.000124812
0.000105969
-0.000232578
-0.000196375
-0.000170947
0.000713751
-0.00211886
0.0451977
0.0451977
1
1.08241
1.12385
0.845147
0.374829
0.106924
0.0211143
0.00367746
4.43613e-05
0.000408616
-0.000362397
0.000366455
-0.000366142
0.000366164
-0.000366162
0.000366162
-0.000366162
0.000366162
-0.000366162
0.000366162
-0.000366162
0.000366162
-0.000366162
0.000366162
-0.000366162
0.000366162
-0.000366162
0.000366162
-0.000366162
0.000366162
-0.000366162
0.000366162
-0.000366162
0.000366162
-0.000366162
0.000366162
-0.000366162
0.000366162
-0.000366162
0.000366162
-0.000366162
0.000366162
-0.000366162
0.000366162
-0.000366162
0.000366162
-0.000366162
0.000366162
-0.000366162
0.000366162
-0.000366162
0.000366162
-0.000366162
0.000366162
-0.000366162
0.000366162
-0.000366162
0.000366162
-0.000366162
0.000366162
-0.000366162
0.000366162
-0.000366162
0.000366162
-0.000366162
0.000366162
-0.000366162
0.000366162
-0.000366162
0.000366162
-0.000366162
0.000366162
-0.000366162
0.000366162
-0.000366162
0.000366162
-0.000366162
0.000366162
-0.000366162
0.000366162
-0.000366162
0.000366162
-0.000366162
0.000366162
-0.000366162
0.000366162
-0.000366162
0.000366162
-0.000366162
0.000366157
-0.000366288
0.000364201
-0.000386181
0.000246997
-0.00068271
0.000381928
0.000140878
-0.00186988
-0.0410266
-0.0410266
1
1.08569
1.12206
0.865541
0.397895
0.118041
0.0237594
0.00456663
-0.000190335
0.000737262
-0.00068008
0.000685214
-0.00068481
0.000684838
-0.000684837
0.000684837
-0.000684837
0.000684837
-0.000684837
0.000684837
-0.000684837
0.000684837
-0.000684837
0.000684837
-0.000684837
0.000684837
-0.000684837
0.000684837
-0.000684837
0.000684837
-0.000684837
0.000684837
-0.000684837
0.000684837
-0.000684837
0.000684837
-0.000684837
0.000684837
-0.000684837
0.000684837
-0.000684837
0.000684837
-0.000684837
0.000684837
-0.000684837
0.000684837
-0.000684837
0.000684837
-0.000684837
0.000684837
-0.000684837
0.000684837
-0.000684837
0.000684837
-0.000684837
0.000684837
-0.000684837
0.000684837
-0.000684837
0.000684837
-0.000684837
0.000684837
-0.000684837
0.000684837
-0.000684837
0.000684837
-0.000684837
0.000684837
-0.000684837
0.000684837
-0.000684837
0.000684837
-0.000684837
0.000684837
-0.000684837
0.000684837
-0.000684837
0.000684837
-0.000684837
0.000684837
-0.000684837
0.000684837
-0.000684837
0.000684837
-0.000684837
0.000684837
-0.000684837
0.000684837
-0.000684837
0.000684829
-0.000684994
0.000682479
-0.000707677
0.000557347
-0.000990185
0.000771044
-0.000257774
-0.00108218
0.0443659
0.0443659
1
1.07362
1.1098
0.879216
0.418592
0.128995
0.0265116
0.00551845
-0.000427306
0.00108057
-0.00101058
0.00101701
-0.00101649
0.00101653
-0.00101653
0.00101653
-0.00101653
0.00101653
-0.00101653
0.00101653
-0.00101653
0.00101653
-0.00101653
0.00101653
-0.00101653
0.00101653
-0.00101653
0.00101653
-0.00101653
0.00101653
-0.00101653
0.00101653
-0.00101653
0.00101653
-0.00101653
0.00101653
-0.00101653
0.00101653
-0.00101653
0.00101653
-0.00101653
0.00101653
-0.00101653
0.00101653
-0.00101653
0.00101653
-0.00101653
0.00101653
-0.00101653
0.00101653
-0.00101653
0.00101653
-0.00101653
0.00101653
-0.00101653
0.00101653
-0.00101653
0.00101653
-0.00101653
0.00101653
-0.00101653
0.00101653
-0.00101653
0.00101653
-0.00101653
0.00101653
-0.00101653
0.00101653
-0.00101653
0.00101653
-0.00101653
0.00101653
-0.00101653
0.00101653
-0.00101653
0.00101653
-0.00101653
0.00101653
-0.00101653
0.00101653
-0.00101653
0.00101653
-0.00101653
0.00101653
-0.00101653
0.00101653
-0.00101653
0.00101653
-0.00101653
0.00101652
-0.00101672
0.00101374
-0.00104218
0.000882282
-0.00130461
0.0011703
-0.0006761
-0.000984599
-0.0416793
-0.0416793
1
1.05757
1.09465
0.888406
0.437349
0.139527
0.0295274
0.00634704
-0.000483459
0.00125574
-0.00117095
0.00117892
-0.00117827
0.00117831
-0.00117831
0.00117831
-0.00117831
0.00117831
-0.00117831
0.00117831
-0.00117831
0.00117831
-0.00117831
0.00117831
-0.00117831
0.00117831
-0.00117831
0.00117831
-0.00117831
0.00117831
-0.00117831
0.00117831
-0.00117831
0.00117831
-0.00117831
0.00117831
-0.00117831
0.00117831
-0.00117831
0.00117831
-0.00117831
0.00117831
-0.00117831
0.00117831
-0.00117831
0.00117831
-0.00117831
0.00117831
-0.00117831
0.00117831
-0.00117831
0.00117831
-0.00117831
0.00117831
-0.00117831
0.00117831
-0.00117831
0.00117831
-0.00117831
0.00117831
-0.00117831
0.00117831
-0.00117831
0.00117831
-0.00117831
0.00117831
-0.00117831
0.00117831
-0.00117831
0.00117831
-0.00117831
0.00117831
-0.00117831
0.00117831
-0.00117831
0.00117831
-0.00117831
0.00117831
-0.00117831
0.00117831
-0.00117831
0.00117831
-0.00117831
0.00117831
-0.00117831
0.00117831
-0.00117831
0.00117831
-0.00117831
0.0011783
-0.00117855
0.00117506
-0.0012067
0.001039
-0.00144438
0.00139184
-0.00092634
-0.000314637
0.0438293
0.0438293
1
1.04297
1.07961
0.894533
0.454067
0.149752
0.0325779
0.00724755
-0.000557964
0.00146201
-0.00136033
0.0013701
-0.00136928
0.00136934
-0.00136934
0.00136934
-0.00136934
0.00136934
-0.00136934
0.00136934
-0.00136934
0.00136934
-0.00136934
0.00136934
-0.00136934
0.00136934
-0.00136934
0.00136934
-0.00136934
0.00136934
-0.00136934
0.00136934
-0.00136934
0.00136934
-0.00136934
0.00136934
-0.00136934
0.00136934
-0.00136934
0.00136934
-0.00136934
0.00136934
-0.00136934
0.00136934
-0.00136934
0.00136934
-0.00136934
0.00136934
-0.00136934
0.00136934
-0.00136934
0.00136934
-0.00136934
0.00136934
-0.00136934
0.00136934
-0.00136934
0.00136934
-0.00136934
0.00136934
-0.00136934
0.00136934
-0.00136934
0.00136934
-0.00136934
0.00136934
-0.00136934
0.00136934
-0.00136934
0.00136934
-0.00136934
0.00136934
-0.00136934
0.00136934
-0.00136934
0.00136934
-0.00136934
0.00136934
-0.00136934
0.00136934
-0.00136934
0.00136934
-0.00136934
0.00136934
-0.00136934
0.00136934
-0.00136934
0.00136934
-0.00136934
0.00136932
-0.00136962
0.00136561
-0.00140033
0.00122671
-0.00160981
0.00163236
-0.00121272
-0.00031393
-0.0421313
-0.0421313
1
1.03117
1.06611
0.898173
0.469029
0.159406
0.0358248
0.00802423
-0.000459953
0.00150839
-0.00138761
0.00139948
-0.00139847
0.00139854
-0.00139854
0.00139854
-0.00139854
0.00139854
-0.00139854
0.00139854
-0.00139854
0.00139854
-0.00139854
0.00139854
-0.00139854
0.00139854
-0.00139854
0.00139854
-0.00139854
0.00139854
-0.00139854
0.00139854
-0.00139854
0.00139854
-0.00139854
0.00139854
-0.00139854
0.00139854
-0.00139854
0.00139854
-0.00139854
0.00139854
-0.00139854
0.00139854
-0.00139854
0.00139854
-0.00139854
0.00139854
-0.00139854
0.00139854
-0.00139854
0.00139854
-0.00139854
0.00139854
-0.00139854
0.00139854
-0.00139854
0.00139854
-0.00139854
0.00139854
-0.00139854
0.00139854
-0.00139854
0.00139854
-0.00139854
0.00139854
-0.00139854
0.00139854
-0.00139854
0.00139854
-0.00139854
0.00139854
-0.00139854
0.00139854
-0.00139854
0.00139854
-0.00139854
0.00139854
-0.00139854
0.00139854
-0.00139854
0.00139854
-0.00139854
0.00139854
-0.00139854
0.00139854
-0.00139854
0.00139854
-0.00139854
0.00139852
-0.00139888
0.00139431
-0.00143194
0.00125436
-0.00161096
0.00169977
-0.001334
0.00025703
0.0434461
0.0434461
1
1.02241
1.05436
0.900095
0.482148
0.168628
0.0390426
0.00886886
-0.000386828
0.00159198
-0.00144983
0.00146412
-0.00146287
0.00146297
-0.00146296
0.00146296
-0.00146296
0.00146296
-0.00146296
0.00146296
-0.00146296
0.00146296
-0.00146296
0.00146296
-0.00146296
0.00146296
-0.00146296
0.00146296
-0.00146296
0.00146296
-0.00146296
0.00146296
-0.00146296
0.00146296
-0.00146296
0.00146296
-0.00146296
0.00146296
-0.00146296
0.00146296
-0.00146296
0.00146296
-0.00146296
0.00146296
-0.00146296
0.00146296
-0.00146296
0.00146296
-0.00146296
0.00146296
-0.00146296
0.00146296
-0.00146296
0.00146296
-0.00146296
0.00146296
-0.00146296
0.00146296
-0.00146296
0.00146296
-0.00146296
0.00146296
-0.00146296
0.00146296
-0.00146296
0.00146296
-0.00146296
0.00146296
-0.00146296
0.00146296
-0.00146296
0.00146296
-0.00146296
0.00146296
-0.00146296
0.00146296
-0.00146296
0.00146296
-0.00146296
0.00146296
-0.00146296
0.00146296
-0.00146296
0.00146296
-0.00146296
0.00146296
-0.00146296
0.00146296
-0.00146296
0.00146294
-0.00146336
0.00145823
-0.00149854
0.00131895
-0.00164593
0.00179093
-0.00149001
0.000150715
-0.0424546
-0.0424546
1
1.01591
1.04458
0.900569
0.493739
0.17719
0.04239
0.00959023
-0.000153521
0.00152721
-0.00136138
0.00137843
-0.0013769
0.00137702
-0.00137702
0.00137702
-0.00137702
0.00137702
-0.00137702
0.00137702
-0.00137702
0.00137702
-0.00137702
0.00137702
-0.00137702
0.00137702
-0.00137702
0.00137702
-0.00137702
0.00137702
-0.00137702
0.00137702
-0.00137702
0.00137702
-0.00137702
0.00137702
-0.00137702
0.00137702
-0.00137702
0.00137702
-0.00137702
0.00137702
-0.00137702
0.00137702
-0.00137702
0.00137702
-0.00137702
0.00137702
-0.00137702
0.00137702
-0.00137702
0.00137702
-0.00137702
0.00137702
-0.00137702
0.00137702
-0.00137702
0.00137702
-0.00137702
0.00137702
-0.00137702
0.00137702
-0.00137702
0.00137702
-0.00137702
0.00137702
-0.00137702
0.00137702
-0.00137702
0.00137702
-0.00137702
0.00137702
-0.00137702
0.00137702
-0.00137702
0.00137702
-0.00137702
0.00137702
-0.00137702
0.00137702
-0.00137702
0.00137702
-0.00137702
0.00137702
-0.00137702
0.00137702
-0.00137702
0.00137702
-0.00137702
0.00137699
-0.00137747
0.00137179
-0.0014145
0.00123477
-0.00153012
0.00172073
-0.00148511
0.000612287
0.0431767
0.0431767
1
1.01131
1.03646
0.900169
0.503741
0.185267
0.0456392
0.0103861
3.56684e-05
0.00151774
-0.00132589
0.00134604
-0.0013442
0.00134435
-0.00134434
0.00134434
-0.00134434
0.00134434
-0.00134434
0.00134434
-0.00134434
0.00134434
-0.00134434
0.00134434
-0.00134434
0.00134434
-0.00134434
0.00134434
-0.00134434
0.00134434
-0.00134434
0.00134434
-0.00134434
0.00134434
-0.00134434
0.00134434
-0.00134434
0.00134434
-0.00134434
0.00134434
-0.00134434
0.00134434
-0.00134434
0.00134434
-0.00134434
0.00134434
-0.00134434
0.00134434
-0.00134434
0.00134434
-0.00134434
0.00134434
-0.00134434
0.00134434
-0.00134434
0.00134434
-0.00134434
0.00134434
-0.00134434
0.00134434
-0.00134434
0.00134434
-0.00134434
0.00134434
-0.00134434
0.00134434
-0.00134434
0.00134434
-0.00134434
0.00134434
-0.00134434
0.00134434
-0.00134434
0.00134434
-0.00134434
0.00134434
-0.00134434
0.00134434
-0.00134434
0.00134434
-0.00134434
0.00134434
-0.00134434
0.00134434
-0.00134434
0.00134434
-0.00134434
0.00134434
-0.00134434
0.00134431
-0.00134486
0.00133862
-0.00138342
0.00120533
-0.00146801
0.00169369
-0.00152702
0.000402724
-0.0426751
-0.0426751
1
1.00789
1.03001
0.899012
0.512484
0.192662
0.0489501
0.0110689
0.000361708
0.00138177
-0.00116158
0.00118522
-0.00118302
0.0011832
-0.00118319
0.00118319
-0.00118319
0.00118319
-0.00118319
0.00118319
-0.00118319
0.00118319
-0.00118319
0.00118319
-0.00118319
0.00118319
-0.00118319
0.00118319
-0.00118319
0.00118319
-0.00118319
0.00118319
-0.00118319
0.00118319
-0.00118319
0.00118319
-0.00118319
0.00118319
-0.00118319
0.00118319
-0.00118319
0.00118319
-0.00118319
0.00118319
-0.00118319
0.00118319
-0.00118319
0.00118319
-0.00118319
0.00118319
-0.00118319
0.00118319
-0.00118319
0.00118319
-0.00118319
0.00118319
-0.00118319
0.00118319
-0.00118319
0.00118319
-0.00118319
0.00118319
-0.00118319
0.00118319
-0.00118319
0.00118319
-0.00118319
0.00118319
-0.00118319
0.00118319
-0.00118319
0.00118319
-0.00118319
0.00118319
-0.00118319
0.00118319
-0.00118319
0.00118319
-0.00118319
0.00118319
-0.00118319
0.00118319
-0.00118319
0.00118319
-0.00118319
0.00118319
-0.00118319
0.00118319
-0.00118319
0.00118315
-0.00118377
0.001177
-0.00122354
0.00104869
-0.0012786
0.00152929
-0.00142565
0.00077285
0.0430002
0.0430002
1
1.0055
1.02484
0.897536
0.519911
0.199577
0.0520997
0.0118367
0.000619544
0.00132343
-0.00107263
0.00110013
-0.00109751
0.00109773
-0.00109772
0.00109772
-0.00109772
0.00109772
-0.00109772
0.00109772
-0.00109772
0.00109772
-0.00109772
0.00109772
-0.00109772
0.00109772
-0.00109772
0.00109772
-0.00109772
0.00109772
-0.00109772
0.00109772
-0.00109772
0.00109772
-0.00109772
0.00109772
-0.00109772
0.00109772
-0.00109772
0.00109772
-0.00109772
0.00109772
-0.00109772
0.00109772
-0.00109772
0.00109772
-0.00109772
0.00109772
-0.00109772
0.00109772
-0.00109772
0.00109772
-0.00109772
0.00109772
-0.00109772
0.00109772
-0.00109772
0.00109772
-0.00109772
0.00109772
-0.00109772
0.00109772
-0.00109772
0.00109772
-0.00109772
0.00109772
-0.00109772
0.00109772
-0.00109772
0.00109772
-0.00109772
0.00109772
-0.00109772
0.00109772
-0.00109772
0.00109772
-0.00109772
0.00109772
-0.00109772
0.00109772
-0.00109772
0.00109772
-0.00109772
0.00109772
-0.00109772
0.00109772
-0.00109772
0.00109772
-0.00109772
0.00109767
-0.00109837
0.00109108
-0.00113901
0.000968848
-0.00116661
0.00143303
-0.00139103
0.000486306
-0.0428127
-0.0428127
1
1.00362
1.02093
0.895738
0.526349
0.205831
0.0552554
0.0125005
0.000991703
0.00115915
-0.000875525
0.000907272
-0.000904192
0.000904455
-0.000904435
0.000904437
-0.000904437
0.000904437
-0.000904437
0.000904437
-0.000904437
0.000904437
-0.000904437
0.000904437
-0.000904437
0.000904437
-0.000904437
0.000904437
-0.000904437
0.000904437
-0.000904437
0.000904437
-0.000904437
0.000904437
-0.000904437
0.000904437
-0.000904437
0.000904437
-0.000904437
0.000904437
-0.000904437
0.000904437
-0.000904437
0.000904437
-0.000904437
0.000904437
-0.000904437
0.000904437
-0.000904437
0.000904437
-0.000904437
0.000904437
-0.000904437
0.000904437
-0.000904437
0.000904437
-0.000904437
0.000904437
-0.000904437
0.000904437
-0.000904437
0.000904437
-0.000904437
0.000904437
-0.000904437
0.000904437
-0.000904437
0.000904437
-0.000904437
0.000904437
-0.000904437
0.000904437
-0.000904437
0.000904437
-0.000904437
0.000904437
-0.000904437
0.000904437
-0.000904437
0.000904437
-0.000904437
0.000904437
-0.000904437
0.000904437
-0.000904437
0.000904437
-0.000904437
0.000904436
-0.000904439
0.000904388
-0.000905156
0.000897392
-0.000946321
0.000782091
-0.000948981
0.00122291
-0.0012329
0.000794202
0.0428961
0.0428961
1
1.00231
1.0179
0.893952
0.531733
0.211642
0.0582028
0.013256
0.00127588
0.00109009
-0.000771543
0.000807933
-0.000804332
0.000804646
-0.000804621
0.000804623
-0.000804623
0.000804623
-0.000804623
0.000804623
-0.000804623
0.000804623
-0.000804623
0.000804623
-0.000804623
0.000804623
-0.000804623
0.000804623
-0.000804623
0.000804623
-0.000804623
0.000804623
-0.000804623
0.000804623
-0.000804623
0.000804623
-0.000804623
0.000804623
-0.000804623
0.000804623
-0.000804623
0.000804623
-0.000804623
0.000804623
-0.000804623
0.000804623
-0.000804623
0.000804623
-0.000804623
0.000804623
-0.000804623
0.000804623
-0.000804623
0.000804623
-0.000804623
0.000804623
-0.000804623
0.000804623
-0.000804623
0.000804623
-0.000804623
0.000804623
-0.000804623
0.000804623
-0.000804623
0.000804623
-0.000804623
0.000804623
-0.000804623
0.000804623
-0.000804623
0.000804623
-0.000804623
0.000804623
-0.000804623
0.000804623
-0.000804623
0.000804623
-0.000804623
0.000804623
-0.000804623
0.000804623
-0.000804623
0.000804623
-0.000804623
0.000804623
-0.000804623
0.000804623
-0.000804626
0.000804568
-0.00080541
0.000797205
-0.000846771
0.000689502
-0.000827287
0.00110161
-0.00115969
0.000459304
-0.0428885
-0.0428885
1
1.00119
1.01576
0.892091
0.536374