# vtk DataFile Version 2.0
FlowField
ASCII
DATASET STRUCTURED_GRID
DIMENSIONS 100 1 100
POINTS 10000 float
0 0 0
0.01 0 0
0.02 0 0
0.03 0 0
0.04 0 0
0.05 0 0
0.06 0 0
0.07 0 0
0.08 0 0
0.09 0 0
0.1 0 0
0.11 0 0
0.12 0 0
0.13 0 0
0.14 0 0
0.15 0 0
0.16 0 0
0.17 0 0
0.18 0 0
0.19 0 0
0.2 0 0
0.21 0 0
0.22 0 0
0.23 0 0
0.24 0 0
0.25 0 0
0.26 0 0
0.27 0 0
0.28 0 0
0.29 0 0
0.3 0 0
0.31 0 0
0.32 0 0
0.33 0 0
0.34 0 0
0.35 0 0
0.36 0 0
0.37 0 0
0.38 0 0
0.39 0 0
0.4 0 0
0.41 0 0
0.42 0 0
0.43 0 0
0.44 0 0
0.45 0 0
0.46 0 0
0.47 0 0
0.48 0 0
0.49 0 0
0.5 0 0
0.51 0 0
0.52 0 0
0.53 0 0
0.54 0 0
0.55 0 0
0.56 0 0
0.57 0 0
0.58 0 0
0.59 0 0
0.6 0 0
0.61 0 0
0.62 0 0
0.63 0 0
0.64 0 0
0.65 0 0
0.66 0 0
0.67 0 0
0.68 0 0
0.69 0 0
0.7 0 0
0.71 0 0
0.72 0 0
0.73 0 0
0.74 0 0
0.75 0 0
0.76 0 0
0.77 0 0
0.78 0 0
0.79 0 0
0.8 0 0
0.81 0 0
0.82 0 0
0.83 0 0
0.84 0 0
0.85 0 0
0.86 0 0
0.87 0 0
0.88 0 0
0.89 0 0
0.9 0 0
0.91 0 0
0.92 0 0
0.93 0 0
0.94 0 0
0.95 0 0
0.96 0 0
0.97 0 0
0.98 0 0
0.99 0 0
0 0.001 0
0.01 0.001 0
0.02 0.001 0
0.03 0.001 0
0.04 0.001 0
0.05 0.001 0
0.06 0.001 0
0.07 0.001 0
0.08 0.001 0
0.09 0.001 0
0.1 0.001 0
0.11 0.001 0
0.12 0.001 0
0.13 0.001 0
0.14 0.001 0
0.15 0.001 0
0.16 0.001 0
0.17 0.001 0
0.18 0.001 0
0.19 0.001 0
0.2 0.001 0
0.21 0.001 0
0.22 0.001 0
0.23 0.001 0
0.24 0.001 0
0.25 0.001 0
0.26 0.001 0
0.27 0.001 0
0.28 0.001 0
0.29 0.001 0
0.3 0.001 0
0.31 0.001 0
0.32 0.001 0
0.33 0.001 0
0.34 0.001 0
0.35 0.001 0
0.36 0.001 0
0.37 0.001 0
0.38 0.001 0
0.39 0.001 0
0.4 0.001 0
0.41 0.001 0
0.42 0.001 0
0.43 0.001 0
0.44 0.001 0
0.45 0.001 0
0.46 0.001 0
0.47 0.001 0
0.48 0.001 0
0.49 0.001 0
0.5 0.001 0
0.51 0.001 0
0.52 0.001 0
0.53 0.001 0
0.54 0.001 0
0.55 0.001 0
0.56 0.001 0
0.57 0.001 0
0.58 0.001 0
0.59 0.001 0
0.6 0.001 0
0.61 0.001 0
0.62 0.001 0
0.63 0.001 0
0.64 0.001 0
0.65 0.001 0
0.66 0.001 0
0.67 0.001 0
0.68 0.001 0
0.69 0.001 0
0.7 0.001 0
0.71 0.001 0
0.72 0.001 0
0.73 0.001 0
0.74 0.001 0
0.75 0.001 0
0.76 0.001 0
0.77 0.001 0
0.78 0.001 0
0.79 0.001 0
0.8 0.001 0
0.81 0.001 0
0.82 0.001 0
0.83 0.001 0
0.84 0.001 0
0.85 0.001 0
0.86 0.001 0
0.87 0.001 0
0.88 0.001 0
0.89 0.001 0
0.9 0.001 0
0.91 0.001 0
0.92 0.001 0
0.93 0.001 0
0.94 0.001 0
0.95 0.001 0
0.96 0.001 0
0.97 0.001 0
0.98 0.001 0
0.99 0.001 0
0 0.002 0
0.01 0.002 0
0.02 0.002 0
0.03 0.002 0
0.04 0.002 0
0.05 0.002 0
0.06 0.002 0
0.07 0.002 0
0.08 0.002 0
0.09 0.002 0
0.1 0.002 0
0.11 0.002 0
0.12 0.002 0
0.13 0.002 0
0.14 0.002 0
0.15 0.002 0
0.16 0.002 0
0.17 0.002 0
0.18 0.002 0
0.19 0.002 0
0.2 0.002 0
0.21 0.002 0
0.22 0.002 0
0.23 0.002 0
0.24 0.002 0
0.25 0.002 0
0.26 0.002 0
0.27 0.002 0
0.28 0.002 0
0.29 0.002 0
0.3 0.002 0
0.31 0.002 0
0.32 0.002 0
0.33 0.002 0
0.34 0.002 0
0.35 0.002 0
0.36 0.002 0
0.37 0.002 0
0.38 0.002 0
0.39 0.002 0
0.4 0.002 0
0.41 0.002 0
0.42 0.002 0
0.43 0.002 0
0.44 0.002 0
0.45 0.002 0
0.46 0.002 0
0.47 0.002 0
0.48 0.002 0
0.49 0.002 0
0.5 0.002 0
0.51 0.002 0
0.52 0.002 0
0.53 0.002 0
0.54 0.002 0
0.55 0.002 0
0.56 0.002 0
0.57 0.002 0
0.58 0.002 0
0.59 0.002 0
0.6 0.002 0
0.61 0.002 0
0.62 0.002 0
0.63 0.002 0
0.64 0.002 0
0.65 0.002 0
0.66 0.002 0
0.67 0.002 0
0.68 0.002 0
0.69 0.002 0
0.7 0.002 0
0.71 0.002 0
0.72 0.002 0
0.73 0.002 0
0.74 0.002 0
0.75 0.002 0
0.76 0.002 0
0.77 0.002 0
0.78 0.002 0
0.79 0.002 0
0.8 0.002 0
0.81 0.002 0
0.82 0.002 0
0.83 0.002 0
0.84 0.002 0
0.85 0.002 0
0.86 0.002 0
0.87 0.002 0
0.88 0.002 0
0.89 0.002 0
0.9 0.002 0
0.91 0.002 0
0.92 0.002 0
0.93 0.002 0
0.94 0.002 0
0.95 0.002 0
0.96 0.002 0
0.97 0.002 0
0.98 0.002 0
0.99 0.002 0
0 0.003 0
0.01 0.003 0
0.02 0.003 0
0.03 0.003 0
0.04 0.003 0
0.05 0.003 0
0.06 0.003 0
0.07 0.003 0
0.08 0.003 0
0.09 0.003 0
0.1 0.003 0
0.11 0.003 0
0.12 0.003 0
0.13 0.003 0
0.14 0.003 0
0.15 0.003 0
0.16 0.003 0
0.17 0.003 0
0.18 0.003 0
0.19 0.003 0
0.2 0.003 0
0.21 0.003 0
0.22 0.003 0
0.23 0.003 0
0.24 0.003 0
0.25 0.003 0
0.26 0.003 0
0.27 0.003 0
0.28 0.003 0
0.29 0.003 0
0.3 0.003 0
0.31 0.003 0
0.32 0.003 0
0.33 0.003 0
0.34 0.003 0
0.35 0.003 0
0.36 0.003 0
0.37 0.003 0
0.38 0.003 0
0.39 0.003 0
0.4 0.003 0
0.41 0.003 0
0.42 0.003 0
0.43 0.003 0
0.44 0.003 0
0.45 0.003 0
0.46 0.003 0
0.47 0.003 0
0.48 0.003 0
0.49 0.003 0
0.5 0.003 0
0.51 0.003 0
0.52 0.003 0
0.53 0.003 0
0.54 0.003 0
0.55 0.003 0
0.56 0.003 0
0.57 0.003 0
0.58 0.003 0
0.59 0.003 0
0.6 0.003 0
0.61 0.003 0
0.62 0.003 0
0.63 0.003 0
0.64 0.003 0
0.65 0.003 0
0.66 0.003 0
0.67 0.003 0
0.68 0.003 0
0.69 0.003 0
0.7 0.003 0
0.71 0.003 0
0.72 0.003 0
0.73 0.003 0
0.74 0.003 0
0.75 0.003 0
0.76 0.003 0
0.77 0.003 0
0.78 0.003 0
0.79 0.003 0
0.8 0.003 0
0.81 0.003 0
0.82 0.003 0
0.83 0.003 0
0.84 0.003 0
0.85 0.003 0
0.86 0.003 0
0.87 0.003 0
0.88 0.003 0
0.89 0.003 0
0.9 0.003 0
0.91 0.003 0
0.92 0.003 0
0.93 0.003 0
0.94 0.003 0
0.95 0.003 0
0.96 0.003 0
0.97 0.003 0
0.98 0.003 0
0.99 0.003 0
0 0.004 0
0.01 0.004 0
0.02 0.004 0
0.03 0.004 0
0.04 0.004 0
0.05 0.004 0
0.06 0.004 0
0.07 0.004 0
0.08 0.004 0
0.09 0.004 0
0.1 0.004 0
0.11 0.004 0
0.12 0.004 0
0.13 0.004 0
0.14 0.004 0
0.15 0.004 0
0.16 0.004 0
0.17 0.004 0
0.18 0.004 0
0.19 0.004 0
0.2 0.004 0
0.21 0.004 0
0.22 0.004 0
0.23 0.004 0
0.24 0.004 0
0.25 0.004 0
0.26 0.004 0
0.27 0.004 0
0.28 0.004 0
0.29 0.004 0
0.3 0.004 0
0.31 0.004 0
0.32 0.004 0
0.33 0.004 0
0.34 0.004 0
0.35 0.004 0
0.36 0.004 0
0.37 0.004 0
0.38 0.004 0
0.39 0.004 0
0.4 0.004 0
0.41 0.004 0
0.42 0.004 0
0.43 0.004 0
0.44 0.004 0
0.45 0.004 0
0.46 0.004 0
0.47 0.004 0
0.48 0.004 0
0.49 0.004 0
0.5 0.004 0
0.51 0.004 0
0.52 0.004 0
0.53 0.004 0
0.54 0.004 0
0.55 0.004 0
0.56 0.004 0
0.57 0.004 0
0.58 0.004 0
0.59 0.004 0
0.6 0.004 0
0.61 0.004 0
0.62 0.004 0
0.63 0.004 0
0.64 0.004 0
0.65 0.004 0
0.66 0.004 0
0.67 0.004 0
0.68 0.004 0
0.69 0.004 0
0.7 0.004 0
0.71 0.004 0
0.72 0.004 0
0.73 0.004 0
0.74 0.004 0
0.75 0.004 0
0.76 0.004 0
0.77 0.004 0
0.78 0.004 0
0.79 0.004 0
0.8 0.004 0
0.81 0.004 0
0.82 0.004 0
0.83 0.004 0
0.84 0.004 0
0.85 0.004 0
0.86 0.004 0
0.87 0.004 0
0.88 0.004 0
0.89 0.004 0
0.9 0.004 0
0.91 0.004 0
0.92 0.004 0
0.93 0.004 0
0.94 0.004 0
0.95 0.004 0
0.96 0.004 0
0.97 0.004 0
0.98 0.004 0
0.99 0.004 0
0 0.005 0
0.01 0.005 0
0.02 0.005 0
0.03 0.005 0
0.04 0.005 0
0.05 0.005 0
0.06 0.005 0
0.07 0.005 0
0.08 0.005 0
0.09 0.005 0
0.1 0.005 0
0.11 0.005 0
0.12 0.005 0
0.13 0.005 0
0.14 0.005 0
0.15 0.005 0
0.16 0.005 0
0.17 0.005 0
0.18 0.005 0
0.19 0.005 0
0.2 0.005 0
0.21 0.005 0
0.22 0.005 0
0.23 0.005 0
0.24 0.005 0
0.25 0.005 0
0.26 0.005 0
0.27 0.005 0
0.28 0.005 0
0.29 0.005 0
0.3 0.005 0
0.31 0.005 0
0.32 0.005 0
0.33 0.005 0
0.34 0.005 0
0.35 0.005 0
0.36 0.005 0
0.37 0.005 0
0.38 0.005 0
0.39 0.005 0
0.4 0.005 0
0.41 0.005 0
0.42 0.005 0
0.43 0.005 0
0.44 0.005 0
0.45 0.005 0
0.46 0.005 0
0.47 0.005 0
0.48 0.005 0
0.49 0.005 0
0.5 0.005 0
0.51 0.005 0
0.52 0.005 0
0.53 0.005 0
0.54 0.005 0
0.55 0.005 0
0.56 0.005 0
0.57 0.005 0
0.58 0.005 0
0.59 0.005 0
0.6 0.005 0
0.61 0.005 0
0.62 0.005 0
0.63 0.005 0
0.64 0.005 0
0.65 0.005 0
0.66 0.005 0
0.67 0.005 0
0.68 0.005 0
0.69 0.005 0
0.7 0.005 0
0.71 0.005 0
0.72 0.005 0
0.73 0.005 0
0.74 0.005 0
0.75 0.005 0
0.76 0.005 0
0.77 0.005 0
0.78 0.005 0
0.79 0.005 0
0.8 0.005 0
0.81 0.005 0
0.82 0.005 0
0.83 0.005 0
0.84 0.005 0
0.85 0.005 0
0.86 0.005 0
0.87 0.005 0
0.88 0.005 0
0.89 0.005 0
0.9 0.005 0
0.91 0.005 0
0.92 0.005 0
0.93 0.005 0
0.94 0.005 0
0.95 0.005 0
0.96 0.005 0
0.97 0.005 0
0.98 0.005 0
0.99 0.005 0
0 0.006 0
0.01 0.006 0
0.02 0.006 0
0.03 0.006 0
0.04 0.006 0
0.05 0.006 0
0.06 0.006 0
0.07 0.006 0
0.08 0.006 0
0.09 0.006 0
0.1 0.006 0
0.11 0.006 0
0.12 0.006 0
0.13 0.006 0
0.14 0.006 0
0.15 0.006 0
0.16 0.006 0
0.17 0.006 0
0.18 0.006 0
0.19 0.006 0
0.2 0.006 0
0.21 0.006 0
0.22 0.006 0
0.23 0.006 0
0.24 0.006 0
0.25 0.006 0
0.26 0.006 0
0.27 0.006 0
0.28 0.006 0
0.29 0.006 0
0.3 0.006 0
0.31 0.006 0
0.32 0.006 0
0.33 0.006 0
0.34 0.006 0
0.35 0.006 0
0.36 0.006 0
0.37 0.006 0
0.38 0.006 0
0.39 0.006 0
0.4 0.006 0
0.41 0.006 0
0.42 0.006 0
0.43 0.006 0
0.44 0.006 0
0.45 0.006 0
0.46 0.006 0
0.47 0.006 0
0.48 0.006 0
0.49 0.006 0
0.5 0.006 0
0.51 0.006 0
0.52 0.006 0
0.53 0.006 0
0.54 0.006 0
0.55 0.006 0
0.56 0.006 0
0.57 0.006 0
0.58 0.006 0
0.59 0.006 0
0.6 0.006 0
0.61 0.006 0
0.62 0.006 0
0.63 0.006 0
0.64 0.006 0
0.65 0.006 0
0.66 0.006 0
0.67 0.006 0
0.68 0.006 0
0.69 0.006 0
0.7 0.006 0
0.71 0.006 0
0.72 0.006 0
0.73 0.006 0
0.74 0.006 0
0.75 0.006 0
0.76 0.006 0
0.77 0.006 0
0.78 0.006 0
0.79 0.006 0
0.8 0.006 0
0.81 0.006 0
0.82 0.006 0
0.83 0.006 0
0.84 0.006 0
0.85 0.006 0
0.86 0.006 0
0.87 0.006 0
0.88 0.006 0
0.89 0.006 0
0.9 0.006 0
0.91 0.006 0
0.92 0.006 0
0.93 0.006 0
0.94 0.006 0
0.95 0.006 0
0.96 0.006 0
0.97 0.006 0
0.98 0.006 0
0.99 0.006 0
0 0.007 0
0.01 0.007 0
0.02 0.007 0
0.03 0.007 0
0.04 0.007 0
0.05 0.007 0
0.06 0.007 0
0.07 0.007 0
0.08 0.007 0
0.09 0.007 0
0.1 0.007 0
0.11 0.007 0
0.12 0.007 0
0.13 0.007 0
0.14 0.007 0
0.15 0.007 0
0.16 0.007 0
0.17 0.007 0
0.18 0.007 0
0.19 0.007 0
0.2 0.007 0
0.21 0.007 0
0.22 0.007 0
0.23 0.007 0
0.24 0.007 0
0.25 0.007 0
0.26 0.007 0
0.27 0.007 0
0.28 0.007 0
0.29 0.007 0
0.3 0.007 0
0.31 0.007 0
0.32 0.007 0
0.33 0.007 0
0.34 0.007 0
0.35 0.007 0
0.36 0.007 0
0.37 0.007 0
0.38 0.007 0
0.39 0.007 0
0.4 0.007 0
0.41 0.007 0
0.42 0.007 0
0.43 0.007 0
0.44 0.007 0
0.45 0.007 0
0.46 0.007 0
0.47 0.007 0
0.48 0.007 0
0.49 0.007 0
0.5 0.007 0
0.51 0.007 0
0.52 0.007 0
0.53 0.007 0
0.54 0.007 0
0.55 0.007 0
0.56 0.007 0
0.57 0.007 0
0.58 0.007 0
0.59 0.007 0
0.6 0.007 0
0.61 0.007 0
0.62 0.007 0
0.63 0.007 0
0.64 0.007 0
0.65 0.007 0
0.66 0.007 0
0.67 0.007 0
0.68 0.007 0
0.69 0.007 0
0.7 0.007 0
0.71 0.007 0
0.72 0.007 0
0.73 0.007 0
0.74 0.007 0
0.75 0.007 0
0.76 0.007 0
0.77 0.007 0
0.78 0.007 0
0.79 0.007 0
0.8 0.007 0
0.81 0.007 0
0.82 0.007 0
0.83 0.007 0
0.84 0.007 0
0.85 0.007 0
0.86 0.007 0
0.87 0.007 0
0.88 0.007 0
0.89 0.007 0
0.9 0.007 0
0.91 0.007 0
0.92 0.007 0
0.93 0.007 0
0.94 0.007 0
0.95 0.007 0
0.96 0.007 0
0.97 0.007 0
0.98 0.007 0
[...]
POINT_DATA 10000

SCALARS vel_X float 1
LOOKUP_TABLE default
0
0
0
0
0
0
0
0
0
0
0
0
0
0
0
0
0
0
0
0
0
0
0
0
0
0
0
0
0
0
0
0
0
0
0
0
0
0
0
0
0
0
0
0
0
0
0
0
0
0
0
0
0
0
0
0
0
0
0
0
0
0
0
0
0
0
0
0
0
0
0
0
0
0
0
0
0
0
0
0
0
0
0
0
0
0
0
0
0
0
0
0
0
0
0
0
0
0
0
0
1
0.355038
0.150979
0.198384
0.0602551
0.14884
0.0469027
0.112778
0.0409069
0.087571
0.053746
0.0302643
0.0915448
0.0197862
0.00135988
0.139361
-0.061617
0.0317711
0.106661
-0.0194459
-0.0373567
0.100223
0.0137377
0.000131544
0.00316664
0.017244
0.0144675
0.0865137
0.0266661
-0.01942
-0.022502
0.068658
0.0778564
0.112051
0.139113
0.222149
0.222715
0.242643
0.234007
0.292988
0.28409
0.278388
0.187483
0.142819
0.0612295
0.0513011
0.00495539
0.0209105
-0.00989933
0.0142731
-0.0126475
0.0132153
-0.01303
0.0130831
-0.0130779
0.0130599
-0.0130923
0.0130591
-0.0130692
0.0130929
-0.013085
0.0129746
-0.013193
0.0131681
-0.0127261
0.013081
-0.0138641
0.0126924
-0.0116537
0.0139093
-0.0155785
0.01221
-0.00909931
0.0114837
-0.0189084
0.0202798
-0.00914218
-0.000412127
-0.00778989
0.0224386
-0.026141
0.0198424
-0.014562
0.00947183
-0.000393262
-0.00995255
0.0112385
0.00049873
-0.0219361
0.0434538
-0.0590905
0.0649561
-0.0630737
0.0548819
-0.0443126
0.0322192
-0.0215774
0.00781514
-0.265839
-0.265839
1
0.605729
0.310818
0.350787
0.149911
0.266759
0.112377
0.210617
0.0941255
0.169765
0.104923
0.087064
0.153915
0.0607146
0.0386524
0.216222
-0.0621213
0.088279
0.158831
-0.000698519
-0.0189929
0.167884
0.034115
0.0338295
0.0274384
0.0609774
0.0548397
0.159686
0.0592625
0.0165775
0.0197223
0.167328
0.177444
0.24983
0.290596
0.421582
0.411831
0.451958
0.432004
0.518429
0.478555
0.456096
0.296438
0.226459
0.0920162
0.0817972
0.00440728
0.0349844
-0.0183012
0.024901
-0.0224569
0.0233083
-0.0230311
0.0231103
-0.023103
0.0230749
-0.0231266
0.0230702
-0.0230955
0.0231215
-0.0231106
0.0229538
-0.0232852
0.0231985
-0.0226016
0.0231721
-0.0241864
0.0224172
-0.021219
0.0244986
-0.0263987
0.0214642
-0.0177844
0.021554
-0.0314307
0.0320607
-0.0165408
0.0050433
-0.017801
0.0369267
-0.0402212
0.0306777
-0.0235639
0.0168507
-0.00565134
-0.00651053
0.00615924
0.0102632
-0.0382071
0.0647549
-0.0832176
0.0886922
-0.084724
0.0727252
-0.0584407
0.0420837
-0.0282901
0.014463
0.394142
0.394142
1
0.777069
0.466392
0.467336
0.263593
0.351157
0.204655
0.280669
0.174413
0.225814
0.182346
0.131659
0.221284
0.109738
0.0914604
0.258936
0.000359748
0.115516
0.216718
0.0381185
0.03123
0.200806
0.0935071
0.0688715
0.0855945
0.102398
0.123446
0.210067
0.133687
0.0726544
0.110695
0.253718
0.304314
0.369768
0.448711
0.56796
0.586595
0.603603
0.603634
0.65719
0.620945
0.546273
0.378261
0.258111
0.127343
0.0824242
0.0214294
0.0260077
-0.00592032
0.0138734
-0.010926
0.0119543
-0.0116191
0.0117151
-0.011706
0.0116723
-0.0117349
0.0116649
-0.0117017
0.0117215
-0.0117188
0.0115341
-0.0119141
0.0118024
-0.0111639
0.0117749
-0.0128821
0.0109647
-0.00970017
0.0131585
-0.0151965
0.0100286
-0.00623544
0.00984792
-0.0201711
0.021229
-0.00551036
-0.00694822
-0.00561153
0.0252425
-0.0293176
0.019712
-0.0125636
0.0060531
0.00442828
-0.0170411
0.0181871
-0.00420288
-0.0223103
0.0486789
-0.0688024
0.076561
-0.0755484
0.0658443
-0.0539157
0.0388808
-0.0266924
0.0108468
-0.355313
-0.355313
1
0.892478
0.605314
0.56344
0.382944
0.418493
0.308278
0.335126
0.269571
0.265465
0.277533
0.165059
0.29641
0.163139
0.1484
0.292693
0.0947825
0.122537
0.288861
0.0878744
0.0941798
0.220294
0.179371
0.104421
0.164628
0.141166
0.206172
0.252495
0.23813
0.137138
0.220705
0.324737
0.437368
0.465063
0.593868
0.669091
0.738653
0.705288
0.740996
0.730475
0.723605
0.583302
0.44458
0.261791
0.166471
0.0671418
0.0488396
0.00431382
0.0182707
-0.00929504
0.0126339
-0.0114643
0.0118471
-0.0117367
0.0117481
-0.0117849
0.0117163
-0.0117932
0.0117503
-0.0117377
0.011725
-0.0119355
0.0115384
-0.0116347
0.0122869
-0.0117465
0.0105369
-0.0123678
0.0138192
-0.0105728
0.00815951
-0.0129398
0.0170398
-0.0144674
0.00419465
-0.00148644
0.0157054
-0.0298823
0.0202138
-0.000858005
-0.00571154
-0.00235518
0.00919379
-0.0151341
0.024272
-0.0376176
0.0424115
-0.0339873
0.0114927
0.0138286
-0.0365904
0.0489587
-0.0538027
0.0493603
-0.0423966
0.0309461
-0.0220846
0.0119532
0.363856
0.363856
1
0.968446
0.72378
0.64617
0.497453
0.479087
0.411634
0.383661
0.368711
0.298408
0.378579
0.195671
0.372807
0.220495
0.206419
0.325665
0.20012
0.125925
0.366405
0.144441
0.161912
0.238852
0.274754
0.14413
0.251105
0.180564
0.291754
0.295712
0.353134
0.204368
0.329276
0.383058
0.558471
0.537852
0.714194
0.736948
0.860537
0.769787
0.842249
0.762811
0.79505
0.593761
0.498177
0.255037
0.204077
0.0477962
0.0779678
-0.0200092
0.0447727
-0.0348774
0.0385785
-0.0372751
0.037704
-0.0375794
0.0375935
-0.037632
0.0375603
-0.0376396
0.0375953
-0.0375882
0.0375573
-0.0377941
0.0373946
-0.0374491
0.0381142
-0.0376976
0.0363575
-0.0380032
0.0397405
-0.0368456
0.0338892
-0.0380739
0.0426479
-0.0414209
0.0313162
-0.0264241
0.0385818
-0.0549323
0.0491804
-0.030152
0.0202584
-0.0262294
0.0329365
-0.0385231
0.0462482
-0.0601149
0.0687201
-0.0664023
0.0486891
-0.0250316
-9.04768e-05
0.0172206
-0.0283409
0.0298216
-0.0284817
0.0213335
-0.0163745
0.00613255
-0.364353
-0.364353
1
1.01637
0.822798
0.717349
0.603472
0.536116
0.509978
0.429626
0.466682
0.328934
0.478062
0.22915
0.444253
0.281783
0.265207
0.357143
0.30736
0.134723
0.439858
0.205659
0.231874
0.259522
0.368531
0.188941
0.336633
0.221606
0.373448
0.340188
0.464378
0.270267
0.42628
0.42981
0.658442
0.591254
0.806558
0.780176
0.951305
0.808079
0.9124
0.772155
0.843478
0.592954
0.541147
0.246772
0.237398
0.0302737
0.104374
-0.041897
0.0687715
-0.0579649
0.0620325
-0.0605915
0.0610686
-0.0609288
0.0609463
-0.0609856
0.0609124
-0.0609914
0.0609488
-0.0609455
0.0608959
-0.0611586
0.0607646
-0.0607635
0.0614427
-0.0611711
0.0596927
-0.0611119
0.0631658
-0.0606736
0.0571389
-0.0606678
0.0657101
-0.06586
0.0560977
-0.0490134
0.0588202
-0.0771667
0.0756151
-0.0572087
0.0439242
-0.0475585
0.0542742
-0.0598392
0.0661093
-0.0797077
0.0911503
-0.0944747
0.0820509
-0.0612863
0.0353131
-0.0146809
-0.00185094
0.00891771
-0.0131691
0.0105955
-0.00979236
0.00610182
0.362193
0.362193
1
1.04462
0.904499
0.777746
0.699813
0.589878
0.601859
0.473243
0.561292
0.358514
0.571576
0.26832
0.506533
0.346613
0.324278
0.38504
0.412391
0.152113
0.503034
0.269973
0.302255
0.281856
0.454187
0.237869
0.416275
0.263928
0.446698
0.383345
0.563303
0.332502
0.507486
0.46585
0.734318
0.628793
0.87222
0.805369
1.01393
0.829332
0.958385
0.770464
0.875239
0.589105
0.575045
0.24117
0.265257
0.0171954
0.12608
-0.0591014
0.0881238
-0.0763752
0.0808273
-0.0792403
0.0797691
-0.0796128
0.0796341
-0.0796738
0.0796
-0.0796772
0.079638
-0.0796375
0.0795694
-0.0798559
0.0794737
-0.0794112
0.0801003
-0.0799818
0.0783785
-0.079546
0.0818964
-0.0798441
0.0757842
-0.0786223
0.0840055
-0.0854756
0.0763348
-0.0673106
0.0744676
-0.0942169
0.0969259
-0.0797778
0.0634184
-0.0644456
0.0711114
-0.0769842
0.081826
-0.09423
0.107153
-0.115275
0.108533
-0.0921002
0.0672475
-0.0449396
0.0243914
-0.0125133
0.00301796
-0.000963845
-0.00256158
-0.000693904
-0.363519
-0.363519
1
1.05958
0.97072
0.82867
0.785589
0.640339
0.686548
0.514213
0.650892
0.388224
0.655644
0.314754
0.556995
0.414122
0.382578
0.408587
0.511664
0.179141
0.552507
0.335907
0.370669
0.30548
0.52748
0.289589
0.486732
0.307116
0.507976
0.423146
0.645184
0.3906
0.571376
0.493077
0.786213
0.654565
0.913791
0.818489
1.05246
0.841298
0.985959
0.765706
0.894165
0.586934
0.600422
0.240545
0.286741
0.0101139
0.141805
-0.0702319
0.101483
-0.0887447
0.0936053
-0.0918617
0.0924466
-0.0922721
0.092298
-0.0923376
0.0922639
-0.0923383
0.0923034
-0.0923053
0.0922191
-0.0925266
0.0921622
-0.0920363
0.0927264
-0.0927645
0.0910631
-0.0919559
0.0945557
-0.0929853
0.0884934
-0.0906024
0.0961495
-0.0988569
0.0906542
-0.0800553
0.0842574
-0.104631
0.111574
-0.0964992
0.0775489
-0.0756235
0.0819917
-0.0884869
0.0921192
-0.1026
0.115618
-0.127423
0.126386
-0.115445
0.093606
-0.0715812
0.0486781
-0.0331031
0.0190476
-0.0126272
0.00491686
-0.00136606
0.363856
0.363856
1
1.06605
1.0229
0.871901
0.859951
0.687703
0.763287
0.552622
0.733557
0.419569
0.727007
0.369512
0.594164
0.482984
0.438949
0.428328
0.601266
0.216438
0.586667
0.401886
0.434529
0.330881
0.585474
0.34301
0.545664
0.351147
0.554849
0.459003
0.707726
0.445328
0.617868
0.514322
0.815661
0.672788
0.934129
0.82495
1.07072
0.850116
0.999043
0.763091
0.902201
0.589309
0.617157
0.246406
0.300967
0.0101814
0.150508
-0.0742009
0.107778
-0.0939968
0.0992927
-0.0973809
0.0980265
-0.0978321
0.0978632
-0.0979023
0.0978292
-0.0979002
0.0978699
-0.0978746
0.0977706
-0.0980956
0.0977548
-0.097566
0.0982452
-0.0984418
0.0966752
-0.0972718
0.100062
-0.0990161
0.0941989
-0.0955442
0.101073
-0.104912
0.0979396
-0.0861912
0.0871976
-0.107356
0.118396
-0.106235
0.0852921
-0.0800626
0.0857311
-0.0931184
0.0959898
-0.104169
0.11602
-0.130139
0.134302
-0.129468
0.112188
-0.0923324
0.0688978
-0.0510624
0.0335131
-0.0233844
0.0119331
-0.00825684
-0.361629
-0.361629
1
1.06757
1.0623
0.909209
0.9224
0.732215
0.831381
0.588944
0.807161
0.454375
0.782803
0.43311
0.6177
0.551434
0.492507
0.445486
0.677428
0.264392
0.605287
0.466225
0.491634
0.359019
0.626479
0.397202
0.591678
0.396246
0.586284
0.491329
0.750361
0.497859
0.647948
0.532587
0.825006
0.687136
0.936157
0.829124
1.07207
0.860025
1.00024
0.765679
0.900426
0.597796
0.625086
0.259566
0.307373
0.0180583
0.151563
-0.070368
0.106377
-0.0914943
0.0972542
-0.0951616
0.0958731
-0.095657
0.0956938
-0.0957322
0.09566
-0.0957273
0.0957015
-0.0957096
0.0955878
-0.0959268
0.0956152
-0.0953657
0.0960207
-0.0963758
0.0945792
-0.0948622
0.0977792
-0.0972934
0.0922606
-0.0928225
0.0981621
-0.102996
0.0974909
-0.0850619
0.0827501
-0.101849
0.116687
-0.108219
0.0860047
-0.0771957
0.0816306
-0.090074
0.0928157
-0.098705
0.108363
-0.123263
0.131594
-0.132852
0.121184
-0.105156
0.0830512
-0.0646285
0.0449885
-0.0321902
0.0178545
-0.00829371
0.365693
0.365693
1
1.06659
1.09021
0.942014
0.973013
0.773949
0.890379
0.623856
0.869657
0.494417
0.820982
0.505263
0.628458
0.617345
0.542752
0.461484
0.737166
0.322799
0.609405
0.527173
0.540496
0.390778
0.650193
0.451157
0.624418
0.442598
0.602731
0.52084
0.773893
0.549117
0.66351
0.550345
0.817181
0.700261
0.922921
0.833944
1.05951
0.873342
0.991556
0.774772
0.889842
0.61283
0.624484
0.280047
0.306022
0.0337077
0.145013
-0.0587701
0.0973196
-0.0812745
0.0875281
-0.0852416
0.0860243
-0.0857844
0.0858279
-0.085865
0.0857941
-0.0858574
0.0858359
-0.0858484
0.0857089
-0.0860582
0.0857809
-0.085474
0.0860912
-0.0866024
0.0848117
-0.0847699
0.0877469
-0.0878459
0.0827069
-0.0824869
0.0874871
-0.0931471
0.0892728
-0.076664
0.0710558
-0.088279
0.106428
-0.102316
0.0796871
-0.0671632
0.0697223
-0.0792112
0.0825445
-0.0865335
0.0933063
-0.107452
0.118507
-0.125223
0.119639
-0.108716
0.089669
-0.0724118
0.0522984
-0.0381568
0.0220294
-0.0138922
-0.360045
-0.360045
1
1.06472
1.10801
0.971238
1.01248
0.812748
0.940133
0.658096
0.919339
0.541068
0.840654
0.58467
0.628477
0.678342
0.58953
0.4777
0.778669
0.390579
0.601243
0.582973
0.580418
0.426602
0.65772
0.50363
0.644549
0.490088
0.605947
0.548039
0.78023
0.59941
0.667165
0.569149
0.79558
0.713591
0.897613
0.840794
1.03592
0.890675
0.974923
0.790256
0.871812
0.63384
0.616293
0.307041
0.297729
0.0563065
0.13167
-0.0402216
0.0814194
-0.0641506
0.0709288
-0.0684344
0.069294
-0.0690283
0.0690791
-0.0691146
0.0690455
-0.0691044
0.0690867
-0.0691048
0.0689476
-0.0693036
0.0690649
-0.0687053
0.0692715
-0.0699335
0.0681842
-0.0678143
0.070783
-0.0714779
0.0663405
-0.0653618
0.069894
-0.0761824
0.074027
-0.0617532
0.0530219
-0.0676097
0.0883975
-0.0891506
0.0670875
-0.0509019
0.0508722
-0.0611683
0.0657921
-0.0685956
0.0722155
-0.084244
0.0963391
-0.107342
0.107685
-0.102622
0.0880474
-0.0736015
0.0546813
-0.0406728
0.0240834
-0.0120418
0.366857
0.366857
1
1.06291
1.11724
0.997295
1.04201
0.848286
0.980765
0.692377
0.955019
0.595035
0.842286
0.668954
0.620828
0.731978
0.632929
0.495313
0.801448
0.465668
0.584026
0.63193
0.611432
0.466319
0.651427
0.553104
0.65361
0.53814
0.598698
0.572969
0.772121
0.648291
0.662013
0.589514
0.76392
0.72737
0.863555
0.849661
1.00424
0.911273
0.95248
0.810916
0.848201
0.659411
0.602133
0.338984
0.284035
0.0842914
0.11308
-0.016273
0.0602268
-0.0416712
0.0490057
-0.046289
0.0472315
-0.0469375
0.0469966
-0.04703
0.046963
-0.0470175
0.0470031
-0.0470278
0.0468532
-0.0472122
0.0470158
-0.0466094
0.047112
-0.0479165
0.0462432
-0.0455495
0.0484416
-0.0497297
0.0446984
-0.0430038
0.0469636
-0.0536653
0.0532378
-0.0418044
0.0302709
-0.0415557
0.0641419
-0.0700795
0.0496529
-0.0300845
0.0267402
-0.0373509
0.0438273
-0.0463966
0.0470617
-0.0559514
0.067359
-0.0810665
0.0865638
-0.087509
0.0783489
-0.0680707
0.0518834
-0.0394769
0.0237504
-0.0153899
-0.359434
-0.359434
1
1.06156
1.11961
1.02015
1.06318
0.880163
1.01259
0.727322
0.976164
0.656184
0.827739
0.754757
0.609339
0.775936
0.673166
0.515209
0.806331
0.545088
0.561689
0.672493
0.634183
0.509093
0.634663
0.597846
0.653796
0.585669
0.584403
0.595168
0.752885
0.694593
0.651407
0.611012
0.726076
0.740845
0.824128
0.859438
0.967441
0.933411
0.926632
0.834758
0.821337
0.687489
0.584194
0.373716
0.267064
0.11551
0.0913786
0.0109363
0.0358796
-0.0159732
0.0238965
-0.0209423
0.021974
-0.0216494
0.0217177
-0.0217485
0.0216841
-0.0217341
0.0217222
-0.0217546
0.0215631
-0.0219214
0.02177
-0.0213237
0.0217514
-0.0226871
0.0211226
-0.0201176
0.0228658
-0.024731
0.019905
-0.0175538
0.0208635
-0.0277564
0.0289879
-0.0188661
0.00498682
-0.0124285
0.035838
-0.0470542
0.029376
-0.00695339
-0.000369873
-0.00981439
0.0184643
-0.0218675
0.0202303
-0.025425
0.0345772
-0.0491749
0.0585174
-0.0649856
0.0616013
-0.0564046
0.0441969
-0.0346942
0.0211191
-0.0111192
0.366831
0.366831
1
1.06069
1.1169
1.03945
1.07773
0.908016
1.03607
0.763398
0.982982
0.723454
0.800174
0.837961
0.598218
0.808255
0.710478
0.5379
0.795347
0.625143
0.538508
0.703368
0.649779
0.553486
0.611418
0.636038
0.647679
0.631134
0.566785
0.613766
0.726127
0.736601
0.638706
0.632486
0.685897
0.75257
0.782662
0.86829
0.928557
0.954781
0.899964
0.859322
0.793838
0.71564
0.565014
0.408716
0.249307
0.147441
0.069065
0.0388996
0.0108828
0.010439
-0.0018937
0.00510098
-0.00397348
0.0043314
-0.00425289
0.0042252
-0.0042867
0.00424128
-0.00425113
0.00421017
-0.00441773
0.00406402
-0.00416825
0.00464669
-0.00430406
0.00325121
-0.00467652
0.00597293
-0.00343332
0.00101951
-0.0055481
0.00848411
-0.00587456
-0.00099207
0.00374003
0.00465756
-0.0203084
0.0170901
0.00607413
-0.0224117
0.00857193
0.0159183
-0.0277398
0.0189328
-0.00811282
0.00283126
-0.00573291
0.00425124
0.00142399
-0.0150668
0.0265534
-0.0374764
0.0396024
-0.0398541
0.0324418
-0.0268338
0.0164174
-0.0121502
-0.360118
-0.360118
1
1.06004
1.11095
1.05466
1.08743
0.931614
1.05172
0.800846
0.976471
0.794861
0.763817
0.914031
0.591629
0.827567
0.74501
0.563498
0.771527
0.701707
0.518692
0.723642
0.659618
0.597596
0.585925
0.665964
0.637935
0.672701
0.549536
0.627679
0.695458
0.772297
0.627035
0.652347
0.646992
0.760745
0.742276
0.874056
0.890481
0.972868
0.875052
0.882003
0.768372
0.741322
0.547226
0.441363
0.233351
0.177465
0.0487389
0.0650096
-0.0121584
0.0349607
-0.0257594
0.0292361
-0.0280059
0.0283999
-0.0283101
0.028286
-0.0283443
0.0283034
-0.028312
0.0282616
-0.0284842
0.0281388
-0.0281947
0.0286968
-0.0284476
0.0272943
-0.0285529
0.0301139
-0.0278435
0.0249209
-0.0290691
0.032509
-0.0306222
0.0239839
-0.0199283
0.0262687
-0.0430247
0.0442237
-0.0224164
0.00138188
-0.0103845
0.0359098
-0.0525212
0.0461824
-0.0335705
0.0255356
-0.028398
0.030098
-0.0286246
0.0176021
-0.00587168
-0.00796999
0.014739
-0.0202133
0.0178885
-0.0167425
0.0102066
-0.00591056
0.365541
0.365541
1
1.05915
1.10348
1.06523
1.09384
0.950936
1.06012
0.83963
0.958398
0.867608
0.723613
0.978422
0.593255
0.833282
0.776732
0.591729
0.738624
0.770573
0.505987
0.732909
0.66521
0.639254
0.562274
0.686218
0.627074
0.708448
0.535991
0.63584
0.664219
0.799665
0.619055
0.668892
0.61252
0.763576
0.705693
0.874618
0.855786
0.985296
0.854224
0.900362
0.747383
0.762184
0.533271
0.469231
0.221598
0.203148
0.0328146
0.0868433
-0.0308234
0.0551715
-0.0452797
0.0490426
-0.0477025
0.0481354
-0.0480332
0.0480134
-0.048068
0.0480316
-0.0480397
0.047979
-0.0482154
0.047882
-0.0478893
0.048406
-0.0482568
0.0470219
-0.0480901
0.0498826
-0.0479363
0.0445549
-0.0482502
0.0521078
-0.0509401
0.0447076
-0.0396078
0.0436556
-0.060789
0.0663945
-0.0470429
0.0220038
-0.0253348
0.050651
-0.0720439
0.0693094
-0.0556676
0.0443094
-0.04572
0.0495726
-0.0524345
0.0453236
-0.0352295
0.0203035
-0.010266
0.000367235
0.00212707
-0.00552011
0.00311186
-0.0055247
-0.361897
-0.361897
1
1.05754
1.09602
1.07078
1.09824
0.966218
1.06186
0.8794
0.931219
0.938295
0.684801
1.02703
0.605901
0.825742
0.805371
0.621988
0.700782
0.827831
0.503316
0.731387
0.667987
0.676263
0.544042
0.695916
0.617204
0.736613
0.528851
0.637445
0.635238
0.816988
0.616752
0.680614
0.584979
0.759599
0.67505
0.868238
0.82651
0.990139
0.839315
0.912407
0.732835
0.776333
0.525129
0.490357
0.215993
0.222511
0.02325
0.102433
-0.043147
0.0691061
-0.0584886
0.0625551
-0.0610975
0.0615725
-0.0614565
0.0614416
-0.0614922
0.0614602
-0.0614687
0.0613971
-0.0616457
0.0613278
-0.0612869
0.061809
-0.0617645
0.0604685
-0.0613266
0.0633121
-0.0617382
0.057957
-0.0611378
0.0653246
-0.0648496
0.0591676
-0.0533276
0.054958
-0.0717146
0.0815029
-0.0656333
0.0375348
-0.0345941
0.0583025
-0.0841154
0.0860532
-0.0724924
0.057654
-0.0562684
0.0608585
-0.0675699
0.065132
-0.0583129
0.0442296
-0.032652
0.0196146
-0.0131036
0.00559893
-0.00403116
0.00139079
0.363446
0.363446
1
1.05476
1.08977
1.07123
1.10145
0.977959
1.05757
0.919493
0.897927
1.0032
0.65244
1.05664
0.631167
0.806275
0.830396
0.653427
0.66218
0.870236
0.512505
0.719976
0.669157
0.706638
0.533987
0.694869
0.609846
0.755824
0.529962
0.632165
0.610633
0.823115
0.621277
0.686467
0.566045
0.747942
0.651727
0.853816
0.803962
0.986154
0.831462
0.916827
0.725987
0.782557
0.524094
0.503463
0.217798
0.23426
0.0213218
0.110491
-0.0478447
0.0754794
-0.0641005
0.0684883
-0.0669055
0.0674258
-0.0672948
0.0672853
-0.0673317
0.0673039
-0.0673134
0.0672306
-0.0674897
0.0671907
-0.0671028
0.0676208
-0.0676835
0.0663484
-0.0669814
0.0691167
-0.0679557
0.0638411
-0.0664579
0.070886
-0.0710581
0.0660325
-0.0597803
0.0589868
-0.0746242
0.0881611
-0.0766681
0.0466752
-0.0371584
0.0577837
-0.0872757
0.0947656
-0.0826661
0.0646717
-0.0593913
0.063078
-0.0725781
0.0749453
-0.0726023
0.0611616
-0.0499289
0.0353862
-0.0261081
0.0153802
-0.0104806
0.00166967
-0.364095
-0.364095
1
1.05051
1.08551
1.06688
1.10385
0.986896
1.04792
0.958953
0.861853
1.05859
0.630945
1.06529
0.669242
0.777171
0.851038
0.685054
0.626692
0.895533
0.534095
0.700281
0.669581
0.728831
0.533823
0.683688
0.605818
0.765291
0.540164
0.620293
0.591684
0.817656
0.632849
0.686046
0.556458
0.7285
0.636247
0.831057
0.788601
0.972941
0.830964
0.913138
0.727249
0.78048
0.530626
0.508112
0.227443
0.237933
0.0274733
0.110563
-0.0444646
0.073839
-0.0616623
0.0663898
-0.0646735
0.0652426
-0.0650952
0.0650918
-0.0651336
0.0651098
-0.0651212
0.0650267
-0.0652944
0.0650174
-0.0648847
0.0653893
-0.0655595
0.064208
-0.0646058
0.0668442
-0.0661282
0.0617525
-0.0637672
0.068352
-0.0691117
0.0648059
-0.0584756
0.0553712
-0.0691973
0.0858524
-0.0794436
0.0488922
-0.0328376
0.0489218
-0.0809785
0.0945952
-0.0854903
0.0651634
-0.0552932
0.0564022
-0.0671674
0.0738122
-0.0765604
0.0692256
-0.0601625
0.0459133
-0.0354258
0.0227291
-0.0154583
0.00765315
0.361373
0.361373
1
1.04469
1.08353
1.05845
1.10534
0.993941
1.03363
0.996591
0.826418
1.10113
0.623673
1.05254
0.718823
0.741555
0.866354
0.71584
0.597581
0.902688
0.56728
0.674544
0.66971
0.741899
0.544098
0.663818
0.605197
0.764924
0.559235
0.602816
0.578787
0.801084
0.650746
0.679677
0.555996
0.702005
0.628237
0.800541
0.779992
0.951
0.837231
0.901745
0.736126
0.770609
0.544291
0.504761
0.244466
0.233962
0.0412537
0.103087
-0.0334486
0.0646255
-0.0516145