# vtk DataFile Version 2.0
FlowField
ASCII
DATASET STRUCTURED_GRID
DIMENSIONS 100 1 100
POINTS 10000 float
0 0 0
0.01 0 0
0.02 0 0
0.03 0 0
0.04 0 0
0.05 0 0
0.06 0 0
0.07 0 0
0.08 0 0
0.09 0 0
0.1 0 0
0.11 0 0
0.12 0 0
0.13 0 0
0.14 0 0
0.15 0 0
0.16 0 0
0.17 0 0
0.18 0 0
0.19 0 0
0.2 0 0
0.21 0 0
0.22 0 0
0.23 0 0
0.24 0 0
0.25 0 0
0.26 0 0
0.27 0 0
0.28 0 0
0.29 0 0
0.3 0 0
0.31 0 0
0.32 0 0
0.33 0 0
0.34 0 0
0.35 0 0
0.36 0 0
0.37 0 0
0.38 0 0
0.39 0 0
0.4 0 0
0.41 0 0
0.42 0 0
0.43 0 0
0.44 0 0
0.45 0 0
0.46 0 0
0.47 0 0
0.48 0 0
0.49 0 0
0.5 0 0
0.51 0 0
0.52 0 0
0.53 0 0
0.54 0 0
0.55 0 0
0.56 0 0
0.57 0 0
0.58 0 0
0.59 0 0
0.6 0 0
0.61 0 0
0.62 0 0
0.63 0 0
0.64 0 0
0.65 0 0
0.66 0 0
0.67 0 0
0.68 0 0
0.69 0 0
0.7 0 0
0.71 0 0
0.72 0 0
0.73 0 0
0.74 0 0
0.75 0 0
0.76 0 0
0.77 0 0
0.78 0 0
0.79 0 0
0.8 0 0
0.81 0 0
0.82 0 0
0.83 0 0
0.84 0 0
0.85 0 0
0.86 0 0
0.87 0 0
0.88 0 0
0.89 0 0
0.9 0 0
0.91 0 0
0.92 0 0
0.93 0 0
0.94 0 0
0.95 0 0
0.96 0 0
0.97 0 0
0.98 0 0
0.99 0 0
0 0.001 0
0.01 0.001 0
0.02 0.001 0
0.03 0.001 0
0.04 0.001 0
0.05 0.001 0
0.06 0.001 0
0.07 0.001 0
0.08 0.001 0
0.09 0.001 0
0.1 0.001 0
0.11 0.001 0
0.12 0.001 0
0.13 0.001 0
0.14 0.001 0
0.15 0.001 0
0.16 0.001 0
0.17 0.001 0
0.18 0.001 0
0.19 0.001 0
0.2 0.001 0
0.21 0.001 0
0.22 0.001 0
0.23 0.001 0
0.24 0.001 0
0.25 0.001 0
0.26 0.001 0
0.27 0.001 0
0.28 0.001 0
0.29 0.001 0
0.3 0.001 0
0.31 0.001 0
0.32 0.001 0
0.33 0.001 0
0.34 0.001 0
0.35 0.001 0
0.36 0.001 0
0.37 0.001 0
0.38 0.001 0
0.39 0.001 0
0.4 0.001 0
0.41 0.001 0
0.42 0.001 0
0.43 0.001 0
0.44 0.001 0
0.45 0.001 0
0.46 0.001 0
0.47 0.001 0
0.48 0.001 0
0.49 0.001 0
0.5 0.001 0
0.51 0.001 0
0.52 0.001 0
0.53 0.001 0
0.54 0.001 0
0.55 0.001 0
0.56 0.001 0
0.57 0.001 0
0.58 0.001 0
0.59 0.001 0
0.6 0.001 0
0.61 0.001 0
0.62 0.001 0
0.63 0.001 0
0.64 0.001 0
0.65 0.001 0
0.66 0.001 0
0.67 0.001 0
0.68 0.001 0
0.69 0.001 0
0.7 0.001 0
0.71 0.001 0
0.72 0.001 0
0.73 0.001 0
0.74 0.001 0
0.75 0.001 0
0.76 0.001 0
0.77 0.001 0
0.78 0.001 0
0.79 0.001 0
0.8 0.001 0
0.81 0.001 0
0.82 0.001 0
0.83 0.001 0
0.84 0.001 0
0.85 0.001 0
0.86 0.001 0
0.87 0.001 0
0.88 0.001 0
0.89 0.001 0
0.9 0.001 0
0.91 0.001 0
0.92 0.001 0
0.93 0.001 0
0.94 0.001 0
0.95 0.001 0
0.96 0.001 0
0.97 0.001 0
0.98 0.001 0
0.99 0.001 0
0 0.002 0
0.01 0.002 0
0.02 0.002 0
0.03 0.002 0
0.04 0.002 0
0.05 0.002 0
0.06 0.002 0
0.07 0.002 0
0.08 0.002 0
0.09 0.002 0
0.1 0.002 0
0.11 0.002 0
0.12 0.002 0
0.13 0.002 0
0.14 0.002 0
0.15 0.002 0
0.16 0.002 0
0.17 0.002 0
0.18 0.002 0
0.19 0.002 0
0.2 0.002 0
0.21 0.002 0
0.22 0.002 0
0.23 0.002 0
0.24 0.002 0
0.25 0.002 0
0.26 0.002 0
0.27 0.002 0
0.28 0.002 0
0.29 0.002 0
0.3 0.002 0
0.31 0.002 0
0.32 0.002 0
0.33 0.002 0
0.34 0.002 0
0.35 0.002 0
0.36 0.002 0
0.37 0.002 0
0.38 0.002 0
0.39 0.002 0
0.4 0.002 0
0.41 0.002 0
0.42 0.002 0
0.43 0.002 0
0.44 0.002 0
0.45 0.002 0
0.46 0.002 0
0.47 0.002 0
0.48 0.002 0
0.49 0.002 0
0.5 0.002 0
0.51 0.002 0
0.52 0.002 0
0.53 0.002 0
0.54 0.002 0
0.55 0.002 0
0.56 0.002 0
0.57 0.002 0
0.58 0.002 0
0.59 0.002 0
0.6 0.002 0
0.61 0.002 0
0.62 0.002 0
0.63 0.002 0
0.64 0.002 0
0.65 0.002 0
0.66 0.002 0
0.67 0.002 0
0.68 0.002 0
0.69 0.002 0
0.7 0.002 0
0.71 0.002 0
0.72 0.002 0
0.73 0.002 0
0.74 0.002 0
0.75 0.002 0
0.76 0.002 0
0.77 0.002 0
0.78 0.002 0
0.79 0.002 0
0.8 0.002 0
0.81 0.002 0
0.82 0.002 0
0.83 0.002 0
0.84 0.002 0
0.85 0.002 0
0.86 0.002 0
0.87 0.002 0
0.88 0.002 0
0.89 0.002 0
0.9 0.002 0
0.91 0.002 0
0.92 0.002 0
0.93 0.002 0
0.94 0.002 0
0.95 0.002 0
0.96 0.002 0
0.97 0.002 0
0.98 0.002 0
0.99 0.002 0
0 0.003 0
0.01 0.003 0
0.02 0.003 0
0.03 0.003 0
0.04 0.003 0
0.05 0.003 0
0.06 0.003 0
0.07 0.003 0
0.08 0.003 0
0.09 0.003 0
0.1 0.003 0
0.11 0.003 0
0.12 0.003 0
0.13 0.003 0
0.14 0.003 0
0.15 0.003 0
0.16 0.003 0
0.17 0.003 0
0.18 0.003 0
0.19 0.003 0
0.2 0.003 0
0.21 0.003 0
0.22 0.003 0
0.23 0.003 0
0.24 0.003 0
0.25 0.003 0
0.26 0.003 0
0.27 0.003 0
0.28 0.003 0
0.29 0.003 0
0.3 0.003 0
0.31 0.003 0
0.32 0.003 0
0.33 0.003 0
0.34 0.003 0
0.35 0.003 0
0.36 0.003 0
0.37 0.003 0
0.38 0.003 0
0.39 0.003 0
0.4 0.003 0
0.41 0.003 0
0.42 0.003 0
0.43 0.003 0
0.44 0.003 0
0.45 0.003 0
0.46 0.003 0
0.47 0.003 0
0.48 0.003 0
0.49 0.003 0
0.5 0.003 0
0.51 0.003 0
0.52 0.003 0
0.53 0.003 0
0.54 0.003 0
0.55 0.003 0
0.56 0.003 0
0.57 0.003 0
0.58 0.003 0
0.59 0.003 0
0.6 0.003 0
0.61 0.003 0
0.62 0.003 0
0.63 0.003 0
0.64 0.003 0
0.65 0.003 0
0.66 0.003 0
0.67 0.003 0
0.68 0.003 0
0.69 0.003 0
0.7 0.003 0
0.71 0.003 0
0.72 0.003 0
0.73 0.003 0
0.74 0.003 0
0.75 0.003 0
0.76 0.003 0
0.77 0.003 0
0.78 0.003 0
0.79 0.003 0
0.8 0.003 0
0.81 0.003 0
0.82 0.003 0
0.83 0.003 0
0.84 0.003 0
0.85 0.003 0
0.86 0.003 0
0.87 0.003 0
0.88 0.003 0
0.89 0.003 0
0.9 0.003 0
0.91 0.003 0
0.92 0.003 0
0.93 0.003 0
0.94 0.003 0
0.95 0.003 0
0.96 0.003 0
0.97 0.003 0
0.98 0.003 0
0.99 0.003 0
0 0.004 0
0.01 0.004 0
0.02 0.004 0
0.03 0.004 0
0.04 0.004 0
0.05 0.004 0
0.06 0.004 0
0.07 0.004 0
0.08 0.004 0
0.09 0.004 0
0.1 0.004 0
0.11 0.004 0
0.12 0.004 0
0.13 0.004 0
0.14 0.004 0
0.15 0.004 0
0.16 0.004 0
0.17 0.004 0
0.18 0.004 0
0.19 0.004 0
0.2 0.004 0
0.21 0.004 0
0.22 0.004 0
0.23 0.004 0
0.24 0.004 0
0.25 0.004 0
0.26 0.004 0
0.27 0.004 0
0.28 0.004 0
0.29 0.004 0
0.3 0.004 0
0.31 0.004 0
0.32 0.004 0
0.33 0.004 0
0.34 0.004 0
0.35 0.004 0
0.36 0.004 0
0.37 0.004 0
0.38 0.004 0
0.39 0.004 0
0.4 0.004 0
0.41 0.004 0
0.42 0.004 0
0.43 0.004 0
0.44 0.004 0
0.45 0.004 0
0.46 0.004 0
0.47 0.004 0
0.48 0.004 0
0.49 0.004 0
0.5 0.004 0
0.51 0.004 0
0.52 0.004 0
0.53 0.004 0
0.54 0.004 0
0.55 0.004 0
0.56 0.004 0
0.57 0.004 0
0.58 0.004 0
0.59 0.004 0
0.6 0.004 0
0.61 0.004 0
0.62 0.004 0
0.63 0.004 0
0.64 0.004 0
0.65 0.004 0
0.66 0.004 0
0.67 0.004 0
0.68 0.004 0
0.69 0.004 0
0.7 0.004 0
0.71 0.004 0
0.72 0.004 0
0.73 0.004 0
0.74 0.004 0
0.75 0.004 0
0.76 0.004 0
0.77 0.004 0
0.78 0.004 0
0.79 0.004 0
0.8 0.004 0
0.81 0.004 0
0.82 0.004 0
0.83 0.004 0
0.84 0.004 0
0.85 0.004 0
0.86 0.004 0
0.87 0.004 0
0.88 0.004 0
0.89 0.004 0
0.9 0.004 0
0.91 0.004 0
0.92 0.004 0
0.93 0.004 0
0.94 0.004 0
0.95 0.004 0
0.96 0.004 0
0.97 0.004 0
0.98 0.004 0
0.99 0.004 0
0 0.005 0
0.01 0.005 0
0.02 0.005 0
0.03 0.005 0
0.04 0.005 0
0.05 0.005 0
0.06 0.005 0
0.07 0.005 0
0.08 0.005 0
0.09 0.005 0
0.1 0.005 0
0.11 0.005 0
0.12 0.005 0
0.13 0.005 0
0.14 0.005 0
0.15 0.005 0
0.16 0.005 0
0.17 0.005 0
0.18 0.005 0
0.19 0.005 0
0.2 0.005 0
0.21 0.005 0
0.22 0.005 0
0.23 0.005 0
0.24 0.005 0
0.25 0.005 0
0.26 0.005 0
0.27 0.005 0
0.28 0.005 0
0.29 0.005 0
0.3 0.005 0
0.31 0.005 0
0.32 0.005 0
0.33 0.005 0
0.34 0.005 0
0.35 0.005 0
0.36 0.005 0
0.37 0.005 0
0.38 0.005 0
0.39 0.005 0
0.4 0.005 0
0.41 0.005 0
0.42 0.005 0
0.43 0.005 0
0.44 0.005 0
0.45 0.005 0
0.46 0.005 0
0.47 0.005 0
0.48 0.005 0
0.49 0.005 0
0.5 0.005 0
0.51 0.005 0
0.52 0.005 0
0.53 0.005 0
0.54 0.005 0
0.55 0.005 0
0.56 0.005 0
0.57 0.005 0
0.58 0.005 0
0.59 0.005 0
0.6 0.005 0
0.61 0.005 0
0.62 0.005 0
0.63 0.005 0
0.64 0.005 0
0.65 0.005 0
0.66 0.005 0
0.67 0.005 0
0.68 0.005 0
0.69 0.005 0
0.7 0.005 0
0.71 0.005 0
0.72 0.005 0
0.73 0.005 0
0.74 0.005 0
0.75 0.005 0
0.76 0.005 0
0.77 0.005 0
0.78 0.005 0
0.79 0.005 0
0.8 0.005 0
0.81 0.005 0
0.82 0.005 0
0.83 0.005 0
0.84 0.005 0
0.85 0.005 0
0.86 0.005 0
0.87 0.005 0
0.88 0.005 0
0.89 0.005 0
0.9 0.005 0
0.91 0.005 0
0.92 0.005 0
0.93 0.005 0
0.94 0.005 0
0.95 0.005 0
0.96 0.005 0
0.97 0.005 0
0.98 0.005 0
0.99 0.005 0
0 0.006 0
0.01 0.006 0
0.02 0.006 0
0.03 0.006 0
0.04 0.006 0
0.05 0.006 0
0.06 0.006 0
0.07 0.006 0
0.08 0.006 0
0.09 0.006 0
0.1 0.006 0
0.11 0.006 0
0.12 0.006 0
0.13 0.006 0
0.14 0.006 0
0.15 0.006 0
0.16 0.006 0
0.17 0.006 0
0.18 0.006 0
0.19 0.006 0
0.2 0.006 0
0.21 0.006 0
0.22 0.006 0
0.23 0.006 0
0.24 0.006 0
0.25 0.006 0
0.26 0.006 0
0.27 0.006 0
0.28 0.006 0
0.29 0.006 0
0.3 0.006 0
0.31 0.006 0
0.32 0.006 0
0.33 0.006 0
0.34 0.006 0
0.35 0.006 0
0.36 0.006 0
0.37 0.006 0
0.38 0.006 0
0.39 0.006 0
0.4 0.006 0
0.41 0.006 0
0.42 0.006 0
0.43 0.006 0
0.44 0.006 0
0.45 0.006 0
0.46 0.006 0
0.47 0.006 0
0.48 0.006 0
0.49 0.006 0
0.5 0.006 0
0.51 0.006 0
0.52 0.006 0
0.53 0.006 0
0.54 0.006 0
0.55 0.006 0
0.56 0.006 0
0.57 0.006 0
0.58 0.006 0
0.59 0.006 0
0.6 0.006 0
0.61 0.006 0
0.62 0.006 0
0.63 0.006 0
0.64 0.006 0
0.65 0.006 0
0.66 0.006 0
0.67 0.006 0
0.68 0.006 0
0.69 0.006 0
0.7 0.006 0
0.71 0.006 0
0.72 0.006 0
0.73 0.006 0
0.74 0.006 0
0.75 0.006 0
0.76 0.006 0
0.77 0.006 0
0.78 0.006 0
0.79 0.006 0
0.8 0.006 0
0.81 0.006 0
0.82 0.006 0
0.83 0.006 0
0.84 0.006 0
0.85 0.006 0
0.86 0.006 0
0.87 0.006 0
0.88 0.006 0
0.89 0.006 0
0.9 0.006 0
0.91 0.006 0
0.92 0.006 0
0.93 0.006 0
0.94 0.006 0
0.95 0.006 0
0.96 0.006 0
0.97 0.006 0
0.98 0.006 0
0.99 0.006 0
0 0.007 0
0.01 0.007 0
0.02 0.007 0
0.03 0.007 0
0.04 0.007 0
0.05 0.007 0
0.06 0.007 0
0.07 0.007 0
0.08 0.007 0
0.09 0.007 0
0.1 0.007 0
0.11 0.007 0
0.12 0.007 0
0.13 0.007 0
0.14 0.007 0
0.15 0.007 0
0.16 0.007 0
0.17 0.007 0
0.18 0.007 0
0.19 0.007 0
0.2 0.007 0
0.21 0.007 0
0.22 0.007 0
0.23 0.007 0
0.24 0.007 0
0.25 0.007 0
0.26 0.007 0
0.27 0.007 0
0.28 0.007 0
0.29 0.007 0
0.3 0.007 0
0.31 0.007 0
0.32 0.007 0
0.33 0.007 0
0.34 0.007 0
0.35 0.007 0
0.36 0.007 0
0.37 0.007 0
0.38 0.007 0
0.39 0.007 0
0.4 0.007 0
0.41 0.007 0
0.42 0.007 0
0.43 0.007 0
0.44 0.007 0
0.45 0.007 0
0.46 0.007 0
0.47 0.007 0
0.48 0.007 0
0.49 0.007 0
0.5 0.007 0
0.51 0.007 0
0.52 0.007 0
0.53 0.007 0
0.54 0.007 0
0.55 0.007 0
0.56 0.007 0
0.57 0.007 0
0.58 0.007 0
0.59 0.007 0
0.6 0.007 0
0.61 0.007 0
0.62 0.007 0
0.63 0.007 0
0.64 0.007 0
0.65 0.007 0
0.66 0.007 0
0.67 0.007 0
0.68 0.007 0
0.69 0.007 0
0.7 0.007 0
0.71 0.007 0
0.72 0.007 0
0.73 0.007 0
0.74 0.007 0
0.75 0.007 0
0.76 0.007 0
0.77 0.007 0
0.78 0.007 0
0.79 0.007 0
0.8 0.007 0
0.81 0.007 0
0.82 0.007 0
0.83 0.007 0
0.84 0.007 0
0.85 0.007 0
0.86 0.007 0
0.87 0.007 0
0.88 0.007 0
0.89 0.007 0
0.9 0.007 0
0.91 0.007 0
0.92 0.007 0
0.93 0.007 0
0.94 0.007 0
0.95 0.007 0
0.96 0.007 0
0.97 0.007 0
0.98 0.007 0
[...]
POINT_DATA 10000

SCALARS vel_X float 1
LOOKUP_TABLE default
0
0
0
0
0
0
0
0
0
0
0
0
0
0
0
0
0
0
0
0
0
0
0
0
0
0
0
0
0
0
0
0
0
0
0
0
0
0
0
0
0
0
0
0
0
0
0
0
0
0
0
0
0
0
0
0
0
0
0
0
0
0
0
0
0
0
0
0
0
0
0
0
0
0
0
0
0
0
0
0
0
0
0
0
0
0
0
0
0
0
0
0
0
0
0
0
0
0
0
0
1
0.319221
0.211691
0.135604
0.161532
0.0953865
0.142568
0.102321
0.104256
0.133863
0.0912806
0.116099
0.138433
0.0912881
0.154684
0.157081
0.132924
0.159516
0.201669
0.16211
0.178259
0.220037
0.250486
0.229032
0.264491
0.30896
0.33796
0.275021
0.196872
0.103617
0.0594855
0.0180263
0.014868
-0.00223229
0.00666706
-0.00523486
0.00566284
-0.00554392
0.00557478
-0.00556727
0.00556899
-0.00556862
0.00556869
-0.00556868
0.00556868
-0.00556868
0.00556868
-0.00556868
0.00556868
-0.00556868
0.00556868
-0.00556868
0.00556868
-0.00556868
0.00556868
-0.00556868
0.00556868
-0.00556868
0.00556868
-0.00556868
0.00556868
-0.00556868
0.00556868
-0.0055687
0.0055686
-0.005569
0.00556751
-0.00557232
0.00555934
-0.00558747
0.00554222
-0.00558615
0.00558453
-0.00553881
0.00550722
-0.00576476
0.00553161
-0.00515442
0.00574123
-0.00644965
0.00529457
-0.00402811
0.00507518
-0.00768685
0.00798725
-0.0053807
0.00212033
-0.00146173
0.00358625
-0.00753909
0.0102784
-0.0118183
0.0114292
-0.01038
0.00802079
-0.00619458
0.00342472
-0.00523806
-0.199668
-0.199668
1
0.559575
0.393526
0.27767
0.300585
0.20848
0.270581
0.210324
0.220447
0.252702
0.200686
0.237972
0.264866
0.208382
0.300265
0.299076
0.275029
0.317614
0.373898
0.322487
0.356867
0.418118
0.460272
0.434331
0.489803
0.543419
0.560382
0.441653
0.307619
0.16029
0.0903114
0.0276478
0.0220604
-0.00306908
0.0097068
-0.00757033
0.00820713
-0.00803055
0.0080763
-0.00806518
0.00806772
-0.00806717
0.00806729
-0.00806727
0.00806727
-0.00806727
0.00806727
-0.00806727
0.00806727
-0.00806727
0.00806727
-0.00806727
0.00806727
-0.00806727
0.00806727
-0.00806727
0.00806727
-0.00806727
0.00806727
-0.00806727
0.00806727
-0.00806727
0.00806726
-0.00806729
0.00806716
-0.00806774
0.00806552
-0.00807273
0.00805313
-0.00809619
0.00802501
-0.00809942
0.00808262
-0.008026
0.00798452
-0.00835529
0.0079716
-0.00750898
0.00837922
-0.00925201
0.00752488
-0.00600269
0.00764299
-0.0110873
0.0110489
-0.00740964
0.00326774
-0.00292258
0.00598448
-0.0112677
0.0144824
-0.0162129
0.0152007
-0.0136955
0.0103024
-0.00807897
0.00421832
-0.00338764
0.287205
0.287205
1
0.732943
0.550789
0.414715
0.425127
0.329016
0.382784
0.327258
0.330125
0.367246
0.315937
0.35442
0.384972
0.333301
0.426272
0.43472
0.412918
0.461832
0.522269
0.478112
0.515723
0.585906
0.630624
0.608214
0.659305
0.704208
0.694067
0.541625
0.368965
0.195564
0.105818
0.0358955
0.0238457
-0.000993835
0.00899635
-0.00641462
0.00718626
-0.00697167
0.00702744
-0.00701385
0.00701697
-0.00701629
0.00701643
-0.0070164
0.00701641
-0.00701641
0.00701641
-0.00701641
0.00701641
-0.00701641
0.00701641
-0.00701641
0.00701641
-0.00701641
0.00701641
-0.00701641
0.00701641
-0.00701641
0.00701641
-0.00701641
0.00701641
-0.00701641
0.0070164
-0.00701644
0.00701627
-0.00701699
0.0070143
-0.00702296
0.0069995
-0.00705095
0.00696558
-0.00705714
0.00702773
-0.00697741
0.00691691
-0.00734122
0.00690384
-0.00642333
0.00733439
-0.00828523
0.00645676
-0.00488356
0.00649212
-0.0100884
0.0101083
-0.00655988
0.00225466
-0.00177822
0.00453229
-0.00989167
0.0131234
-0.0151966
0.0142466
-0.0131705
0.00978716
-0.00799285
0.00392601
-0.00522044
-0.249744
-0.249744
1
0.854217
0.685115
0.540374
0.539447
0.447051
0.483962
0.445137
0.43044
0.477791
0.427841
0.462092
0.498426
0.452777
0.534716
0.561535
0.538419
0.587754
0.650403
0.619298
0.647714
0.721136
0.764117
0.744295
0.775164
0.80517
0.769374
0.602192
0.404647
0.220501
0.114536
0.0437541
0.0233246
0.00247398
0.00661165
-0.0036637
0.00454991
-0.00430203
0.00436683
-0.00435094
0.00435461
-0.00435381
0.00435397
-0.00435394
0.00435395
-0.00435395
0.00435395
-0.00435395
0.00435395
-0.00435395
0.00435395
-0.00435395
0.00435395
-0.00435395
0.00435395
-0.00435395
0.00435395
-0.00435395
0.00435395
-0.00435395
0.00435395
-0.00435395
0.00435394
-0.00435398
0.00435379
-0.00435461
0.00435154
-0.00436133
0.00433513
-0.00439186
0.00429885
-0.00439802
0.00436269
-0.0043237
0.00423374
-0.00469195
0.00426361
-0.00375451
0.00458191
-0.00565783
0.00396411
-0.00228169
0.00350212
-0.00711233
0.00759309
-0.00459505
0.00017682
0.000895009
0.000962846
-0.00603339
0.0094
-0.0121295
0.0117071
-0.0114622
0.00851466
-0.0073799
0.00346178
-0.00245912
0.266979
0.266979
1
0.937227
0.796967
0.652606
0.643532
0.557731
0.576232
0.557039
0.522385
0.580749
0.531725
0.559922
0.602171
0.560974
0.627971
0.674735
0.647946
0.694593
0.758489
0.739563
0.752389
0.825091
0.863643
0.843193
0.848077
0.863716
0.809548
0.640274
0.427782
0.240226
0.120768
0.0512021
0.022262
0.0062139
0.00389138
-0.000588057
0.00158835
-0.00130657
0.00138074
-0.00136244
0.00136669
-0.00136576
0.00136595
-0.00136591
0.00136592
-0.00136592
0.00136592
-0.00136592
0.00136592
-0.00136592
0.00136592
-0.00136592
0.00136592
-0.00136592
0.00136592
-0.00136592
0.00136592
-0.00136592
0.00136592
-0.00136592
0.00136592
-0.00136592
0.00136591
-0.00136596
0.00136573
-0.00136668
0.00136323
-0.00137405
0.00134556
-0.00140613
0.00130897
-0.00140978
0.00137439
-0.00134658
0.00122193
-0.0017073
0.00132081
-0.00076342
0.00145832
-0.00270065
0.00123077
0.000621919
8.2579e-05
-0.0036963
0.00480683
-0.00247412
-0.00207763
0.00390104
-0.00309176
-0.00159027
0.0051696
-0.00864847
0.00888486
-0.00951558
0.00710543
-0.00662772
0.00296963
-0.00431912
-0.257794
-0.257794
1
0.99302
0.887386
0.751178
0.735986
0.659319
0.659383
0.659258
0.606507
0.672954
0.625585
0.647136
0.693574
0.656283
0.70679
0.771119
0.740543
0.782743
0.84594
0.837001
0.832183
0.9011
0.933394
0.910792
0.890476
0.895097
0.829706
0.665849
0.444892
0.257297
0.126309
0.058308
0.0213121
0.00982851
0.00131756
0.00235617
-0.00123484
0.00155315
-0.00146875
0.00148972
-0.00148482
0.0014859
-0.00148567
0.00148572
-0.00148571
0.00148571
-0.00148571
0.00148571
-0.00148571
0.00148571
-0.00148571
0.00148571
-0.00148571
0.00148571
-0.00148571
0.00148571
-0.00148571
0.00148571
-0.00148571
0.00148571
-0.00148571
0.00148571
-0.00148572
0.00148567
-0.00148592
0.00148486
-0.00148869
0.00147685
-0.00150747
0.00144376
-0.00154316
0.00144421
-0.00147584
0.0014937
-0.00165407
0.00114672
-0.00147508
0.00208906
-0.00154347
0.000129259
-0.0013447
0.00336879
-0.0032004
-0.000376543
0.00211522
-0.000467375
-0.00414397
0.00665659
-0.00688896
0.00270546
0.00100848
-0.00515717
0.00601836
-0.00744203
0.00557931
-0.00572247
0.00243699
-0.00163438
0.26372
0.26372
1
1.02976
0.9583
0.836371
0.81581
0.751109
0.732752
0.750134
0.682633
0.752807
0.708567
0.723102
0.771435
0.738632
0.77141
0.849589
0.816547
0.853112
0.91322
0.912783
0.890733
0.953617
0.978882
0.954855
0.913177
0.910399
0.83888
0.684439
0.45905
0.272964
0.131832
0.0651723
0.0206637
0.0132295
-0.000988627
0.00505802
-0.00380568
0.00416399
-0.00406826
0.00409223
-0.00408658
0.00408784
-0.00408757
0.00408763
-0.00408762
0.00408762
-0.00408762
0.00408762
-0.00408762
0.00408762
-0.00408762
0.00408762
-0.00408762
0.00408762
-0.00408762
0.00408762
-0.00408762
0.00408762
-0.00408762
0.00408762
-0.00408762
0.00408762
-0.00408763
0.00408756
-0.00408786
0.00408666
-0.0040909
0.00407802
-0.00411072
0.00404425
-0.00414474
0.00404966
-0.00407558
0.00408408
-0.00427919
0.00375634
-0.00401766
0.00468473
-0.00429629
0.00273195
-0.00367662
0.00582726
-0.00618181
0.00272673
-0.000437205
0.00138364
-0.00591126
0.00896043
-0.0101903
0.00665985
-0.00298584
-0.00168675
0.00309957
-0.00522062
0.00390232
-0.00463883
0.00178555
-0.00349232
-0.259264
-0.259264
1
1.05326
1.01215
0.908692
0.882827
0.832609
0.796166
0.828924
0.750475
0.820017
0.780333
0.787584
0.835755
0.808412
0.822492
0.910559
0.876972
0.907121
0.962144
0.96957
0.932105
0.987531
1.00608
0.982617
0.924262
0.916759
0.842221
0.698899
0.471693
0.287751
0.137615
0.0718232
0.0203983
0.0163739
-0.00297096
0.00746573
-0.00607091
0.0064732
-0.00636489
0.00639221
-0.00638573
0.00638718
-0.00638687
0.00638693
-0.00638692
0.00638692
-0.00638692
0.00638692
-0.00638692
0.00638692
-0.00638692
0.00638692
-0.00638692
0.00638692
-0.00638692
0.00638692
-0.00638692
0.00638692
-0.00638692
0.00638692
-0.00638692
0.00638692
-0.00638694
0.00638686
-0.00638719
0.00638586
-0.00639053
0.00637656
-0.00641132
0.00634237
-0.00644317
0.00635316
-0.00637269
0.0063715
-0.00659963
0.006069
-0.00625756
0.00696671
-0.00674193
0.00506281
-0.00572242
0.00793377
-0.00878988
0.00556081
-0.00282139
0.00304622
-0.00733232
0.0107426
-0.0129061
0.0101861
-0.00675935
0.00172328
0.000171168
-0.00290721
0.00212312
-0.00342214
0.00107205
-0.000755929
0.26287
0.26287
1
1.0676
1.05147
0.968882
0.937512
0.903459
0.850041
0.895356
0.809955
0.875098
0.840925
0.84083
0.887247
0.86628
0.861344
0.955365
0.92325
0.946683
0.995405
1.01051
0.960315
1.00757
1.02047
0.999735
0.929159
0.918407
0.842575
0.710629
0.483496
0.301828
0.143791
0.0782301
0.0205827
0.0192087
-0.00457069
0.00952296
-0.00797326
0.00842383
-0.00830158
0.00833264
-0.00832522
0.00832689
-0.00832654
0.00832661
-0.0083266
0.0083266
-0.0083266
0.0083266
-0.0083266
0.0083266
-0.0083266
0.0083266
-0.0083266
0.0083266
-0.0083266
0.0083266
-0.0083266
0.0083266
-0.0083266
0.0083266
-0.0083266
0.0083266
-0.00832661
0.00832653
-0.0083269
0.00832542
-0.00833055
0.00831546
-0.00835226
0.00828107
-0.00838154
0.00829733
-0.00831063
0.0082987
-0.00855795
0.00802771
-0.00813969
0.00887605
-0.00882075
0.00706702
-0.00743027
0.00963158
-0.0109614
0.00805899
-0.00497744
0.00447188
-0.00837732
0.0119725
-0.0149733
0.0131856
-0.0102146
0.00498236
-0.00267387
-0.000605185
0.000333381
-0.00215177
0.00030221
-0.00257431
-0.25992
-0.25992
1
1.07567
1.07867
1.0179
0.980771
0.963517
0.895176
0.949572
0.861224
0.919029
0.890757
0.883509
0.926981
0.913171
0.889737
0.985865
0.957064
0.974029
1.01598
1.03874
0.978975
1.0179
1.02648
1.01017
0.931191
0.917719
0.841474
0.720312
0.494763
0.315225
0.150416
0.0843554
0.0212614
0.0216938
-0.00574492
0.0111884
-0.00947066
0.00997414
-0.00983648
0.00987172
-0.00986324
0.00986516
-0.00986475
0.00986483
-0.00986482
0.00986482
-0.00986482
0.00986482
-0.00986482
0.00986482
-0.00986482
0.00986482
-0.00986482
0.00986482
-0.00986482
0.00986482
-0.00986482
0.00986482
-0.00986482
0.00986482
-0.00986482
0.00986482
-0.00986484
0.00986474
-0.00986516
0.00986351
-0.00986913
0.00985289
-0.0098917
0.00981852
-0.0099181
0.00984017
-0.00984786
0.00982377
-0.0101121
0.00959036
-0.00962371
0.0103707
-0.0104886
0.00870116
-0.00876315
0.0108861
-0.0126515
0.0101618
-0.00685001
0.00562698
-0.00904308
0.012653
-0.0163541
0.0155648
-0.0132462
0.00799872
-0.00535305
0.00159775
-0.001388
-0.000897447
-0.00044237
0.0001668
0.262274
0.262274
1
1.07947
1.09593
1.05682
1.01379
1.0129
0.932543
0.992136
0.904577
0.953046
0.930581
0.916585
0.95619
0.950248
0.90964
1.0042
0.980209
0.99145
1.02671
1.05705
0.991068
1.02186
1.0273
1.01647
0.932222
0.915988
0.839725
0.728313
0.505608
0.327939
0.157489
0.0901855
0.0224421
0.0238216
-0.00648423
0.012454
-0.0105543
0.0111156
-0.010961
0.0110009
-0.0109912
0.0109934
-0.0109929
0.010993
-0.010993
0.010993
-0.010993
0.010993
-0.010993
0.010993
-0.010993
0.010993
-0.010993
0.010993
-0.010993
0.010993
-0.010993
0.010993
-0.010993
0.010993
-0.010993
0.010993
-0.010993
0.0109929
-0.0109934
0.0109916
-0.0109977
0.0109803
-0.011021
0.0109461
-0.0110443
0.0109729
-0.010976
0.0109381
-0.0112534
0.0107478
-0.0107023
0.0114427
-0.0117343
0.00995317
-0.0097175
0.0116988
-0.0138497
0.0118402
-0.00841365
0.00650965
-0.00935964
0.012826
-0.0170535
0.017265
-0.0157735
0.0107096
-0.00782374
0.00365815
-0.00300009
0.000299671
-0.0011749
-0.00167749
-0.260487
-0.260487
1
1.08042
1.10519
1.08678
1.03793
1.052
0.963139
1.024
0.940395
0.978494
0.961424
0.941201
0.976171
0.978779
0.923011
1.01261
0.994459
1.00107
1.03005
1.0678
0.998867
1.02192
1.02512
1.0202
0.933196
0.913908
0.837747
0.734864
0.516052
0.339973
0.164969
0.0957325
0.0241018
0.0256135
-0.00680906
0.0133414
-0.0112451
0.0118695
-0.0116961
0.0117412
-0.0117302
0.0117327
-0.0117322
0.0117323
-0.0117323
0.0117323
-0.0117323
0.0117323
-0.0117323
0.0117323
-0.0117323
0.0117323
-0.0117323
0.0117323
-0.0117323
0.0117323
-0.0117323
0.0117323
-0.0117323
0.0117323
-0.0117323
0.0117323
-0.0117323
0.0117322
-0.0117327
0.0117307
-0.0117373
0.0117187
-0.0117614
0.011685
-0.0117813
0.0117167
-0.0117161
0.0116631
-0.0120027
0.0115205
-0.011398
0.0121145
-0.0125765
0.0108398
-0.0103191
0.0121021
-0.0145768
0.0130957
-0.00967125
0.00714338
-0.00938057
0.0125651
-0.0171198
0.0182685
-0.0177438
0.0130769
-0.0100763
0.00557231
-0.0044987
0.00142817
-0.00184817
0.00101932
0.261735
0.261735
1
1.07949
1.10818
1.10883
1.05466
1.08138
0.987906
1.04642
0.969125
0.996695
0.984487
0.958588
0.988217
0.999997
0.931657
1.01329
1.00147
1.0047
1.028
1.07284
1.00397
1.01981
1.0213
1.02223
0.934531
0.911844
0.835773
0.740136
0.526079
0.351335
0.172799
0.101018
0.0262043
0.0271028
-0.0067519
0.013884
-0.0115759
0.012269
-0.012075
0.0121258
-0.0121133
0.0121162
-0.0121156
0.0121157
-0.0121157
0.0121157
-0.0121157
0.0121157
-0.0121157
0.0121157
-0.0121157
0.0121157
-0.0121157
0.0121157
-0.0121157
0.0121157
-0.0121157
0.0121157
-0.0121157
0.0121157
-0.0121157
0.0121157
-0.0121157
0.0121156
-0.0121162
0.012114
-0.0121212
0.0121014
-0.0121459
0.0120684
-0.0121622
0.0121044
-0.0121015
0.0120319
-0.0123929
0.0119407
-0.0117447
0.0124207
-0.013046
0.0113895
-0.0106046
0.0121405
-0.014868
0.0139436
-0.0106366
0.00755798
-0.00916274
0.0119554
-0.016628
0.018587
-0.0191182
0.0150661
-0.0121089
0.00735432
-0.00590088
0.00249601
-0.00250649
-0.000871245
-0.260994
-0.260994
1
1.07733
1.10647
1.12395
1.06546
1.10185
1.00767
1.06084
0.991302
1.00884
1.00105
0.969993
0.993584
1.01499
0.937151
1.00825
1.00272
1.00378
1.02213
1.07351
1.00743
1.01662
1.01671
1.02304
0.936372
0.90997
0.833952
0.744259
0.535679
0.362021
0.180929
0.106056
0.0287219
0.0283131
-0.00633636
0.0141063
-0.0115706
0.0123383
-0.0121218
0.0121789
-0.0121647
0.012168
-0.0121673
0.0121675
-0.0121674
0.0121674
-0.0121674
0.0121674
-0.0121674
0.0121674
-0.0121674
0.0121674
-0.0121674
0.0121674
-0.0121674
0.0121674
-0.0121674
0.0121674
-0.0121674
0.0121674
-0.0121674
0.0121674
-0.0121675
0.0121673
-0.012168
0.0121655
-0.0121733
0.0121523
-0.0121986
0.0121202
-0.0122111
0.01216
-0.0121562
0.012069
-0.0124481
0.0120318
-0.0117675
0.0123873
-0.0131648
0.0116211
-0.0106003
0.011849
-0.0147518
0.0143935
-0.0113138
0.00776905
-0.0087448
0.0110695
-0.0156581
0.0182439
-0.0198547
0.0166223
-0.013899
0.00900881
-0.00722364
0.00351655
-0.0031203
0.00178478
0.261263
0.261263
1
1.07437
1.10146
1.133
1.07177
1.11432
1.0231
1.06875
1.00757
1.01593
1.0124
0.976629
0.993465
1.02462
0.940789
0.99925
0.999547
0.999366
1.01358
1.07074
1.00986
1.01296
1.01187
1.02286
0.938744
0.908341
0.832411
0.747327
0.544868
0.372003
0.189336
0.11083
0.0316515
0.029243
-0.00556104
0.0140079
-0.0112281
0.0120764
-0.0118353
0.0118994
-0.0118834
0.0118871
-0.0118863
0.0118865
-0.0118864
0.0118864
-0.0118864
0.0118864
-0.0118864
0.0118864
-0.0118864
0.0118864
-0.0118864
0.0118864
-0.0118864
0.0118864
-0.0118864
0.0118864
-0.0118864
0.0118864
-0.0118864
0.0118864
-0.0118865
0.0118863
-0.011887
0.0118843
-0.0118928
0.0118705
-0.0119184
0.0118395
-0.0119272
0.0118826
-0.0118792
0.0117735
-0.0121671
0.0117919
-0.0114662
0.0120154
-0.0129308
0.0115285
-0.0103059
0.0112375
-0.0142346
0.0144322
-0.0116815
0.00776312
-0.0081313
0.00994832
-0.0142749
0.017261
-0.0198987
0.0176568
-0.0153817
0.0105063
-0.0084624
0.00449183
-0.00373315
-0.000137813
-0.261432
-0.261432
1
1.07083
1.09436
1.13673
1.07483
1.11988
1.03477
1.07157
1.01871
1.01874
1.0197
0.979632
0.988994
1.02952
0.943569
0.98778
0.993094
0.992204
1.00322
1.06509
1.0116
1.00913
1.00715
1.02177
0.941637
0.906928
0.83128
0.749395
0.553697
0.381229
0.198028
0.115296
0.0350208
0.0298595
-0.00439335
0.0135566
-0.0105157
0.0114512
-0.0111832
0.011255
-0.011237
0.0112412
-0.0112403
0.0112405
-0.0112404
0.0112405
-0.0112405
0.0112405
-0.0112405
0.0112405
-0.0112405
0.0112405
-0.0112405
0.0112405
-0.0112405
0.0112405
-0.0112405
0.0112405
-0.0112405
0.0112405
-0.0112405
0.0112404
-0.0112405
0.0112403
-0.0112411
0.0112382
-0.0112472
0.0112237
-0.0112732
0.011194
-0.0112781
0.0112398
-0.0112382
0.0111135
-0.0115178
0.0111879
-0.0108088
0.0112749
-0.0123107
0.0110742
-0.00968828
0.0102834
-0.0132932
0.0140186
-0.0116877
0.00749284
-0.00728718
0.00859152
-0.0125169
0.0156521
-0.0191836
0.0180457
-0.0164402
0.0117678
-0.00957439
0.0053995
-0.00429558
0.00248459
0.260856
0.260856
1
1.06684
1.08625
1.13585
1.07571
1.11967
1.04307
1.07054
1.02562
1.01782
1.02395
0.980023
0.981244
1.03011
0.946179
0.975017
0.984381
0.982786
0.991649
1.05688
1.01281
1.00518
1.00279
1.01978
0.945038
0.905648
0.830693
0.750489
0.56225
0.38962
0.20704
0.119382
0.0388825
0.0301036
-0.0027753
0.0126952
-0.00937549
0.0104051
-0.0101079
0.010188
-0.0101678
0.0101726
-0.0101715
0.0101717
-0.0101717
0.0101717
-0.0101717
0.0101717
-0.0101717
0.0101717
-0.0101717
0.0101717
-0.0101717
0.0101717
-0.0101717
0.0101717
-0.0101717
0.0101717
-0.0101717
0.0101717
-0.0101717
0.0101717
-0.0101717
0.0101715
-0.0101724
0.0101692
-0.0101789
0.0101542
-0.0102051
0.010126
-0.0102062
0.0101738
-0.0101753
0.0100314
-0.0104422
0.0101611
-0.00973774
0.0101101
-0.0112467
0.0101952
-0.00868762
0.00893779
-0.0118811
0.013089
-0.0112557
0.0068843
-0.00614499
0.00696057
-0.0103958
0.013428
-0.017644
0.0176448
-0.0169138
0.0126621
-0.0104715
0.00618412
-0.00481591
0.000512736
-0.261806
-0.261806
1
1.06244
1.07799
1.13104
1.07519
1.11492
1.04838
1.06668
1.02929
1.01359
1.02591
0.978694
0.971238
1.02665
0.949005
0.961867
0.974302
0.971451
0.979298
1.04625
1.0135
1.00105
0.998983
1.01685
0.948932
0.904395
0.830776
0.750626
0.570621
0.397098
0.216414
0.12301
0.0432966
0.0299086
-0.000641162
0.0113583
-0.00774168
0.00887241
-0.00854346
0.00863287
-0.00861009
0.00861555
-0.00861431
0.00861458
-0.00861453
0.00861454
-0.00861453
0.00861453
-0.00861453
0.00861453
-0.00861453
0.00861453
-0.00861453
0.00861453
-0.00861453
0.00861453
-0.00861453
0.00861453
-0.00861453
0.00861453
-0.00861454
0.00861452
-0.00861458
0.00861433
-0.00861532
0.00861187
-0.00862221
0.00859629
-0.00864849
0.00856979
-0.00864574
0.00861881
-0.00862468
0.00846192
-0.00887502
0.0086451
-0.00818734
0.00845765
-0.00967338
0.00882115
-0.00723486
0.00714255
-0.00994498
0.0115746
-0.0103025
0.00585579
-0.00462451
0.00499528
-0.00790779
0.010609
-0.015239
0.0163192
-0.0166215
0.0130209
-0.0110257
0.00675862
-0.00520244
0.0030467
0.260522
0.260522
1
1.05763
1.07024
1.123
1.07378
1.10682
1.05101
1.06069
1.03074
1.00643
1.02609
0.976391
0.959939
1.0193
0.952143
0.948996
0.963623
0.958467
0.966454
1.03329
1.01361
0.996608
0.995841
1.01298
0.95329
0.903068
0.831623
0.749835
0.57889
0.403605
0.226177
0.126117
0.0483046
0.0292256
0.00205622
0.00949887
-0.00556686
0.00680613
-0.0064428
0.00654231
-0.00651676
0.00652293
-0.00652153
0.00652183
-0.00652177
0.00652178
-0.00652178
0.00652178
-0.00652178
0.00652178
-0.00652178
0.00652178
-0.00652178
0.00652178
-0.00652178
0.00652178
-0.00652178
0.00652178
-0.00652178
0.00652178
-0.00652178
0.00652177
-0.00652183
0.00652155
-0.00652264
0.0065189
-0.00652992
0.00650282
-0.00655616
0.00647817
-0.0065497
0.00652767
-0.0065392
0.00635802
-0.00676912
0.00659186
-0.00611014
0.00627249
-0.0075446
0.00690039
-0.00527841
0.0048564
-0.00745113
0.00942829
-0.00876481
0.00434505
-0.00266141
0.0026402
-0.00505351
0.00724445
-0.0119805
0.0139812
-0.0154013
0.0126677
-0.0110884
0.00701432
-0.00542577
0.000929691
-0.262089
-0.262089
1
1.05244
1.06339
1.11247
1.07176
1.09651
1.05129
1.05302
1.03091
0.996721
1.02469
0.973701
0.94824
1.00827
0.95542
0.936874
0.952978
0.944111
0.953287
1.01808
1.01298
0.991713
0.99339
1.0082
0.958038
0.901612
0.833266
0.748193
0.587092
0.409136
0.23631
0.12869
0.0538994
0.0280535
0.00531607
0.00711789
-0.00285149
0.00420698
-0.0038065
0.003917
-0.00388843
0.00389537
-0.00389378
0.00389413
-0.00389406
0.00389407
-0.00389407