# vtk DataFile Version 2.0
FlowField
ASCII
DATASET STRUCTURED_GRID
DIMENSIONS 100 1 100
POINTS 10000 float
0 0 0
0.01 0 0
0.02 0 0
0.03 0 0
0.04 0 0
0.05 0 0
0.06 0 0
0.07 0 0
0.08 0 0
0.09 0 0
0.1 0 0
0.11 0 0
0.12 0 0
0.13 0 0
0.14 0 0
0.15 0 0
0.16 0 0
0.17 0 0
0.18 0 0
0.19 0 0
0.2 0 0
0.21 0 0
0.22 0 0
0.23 0 0
0.24 0 0
0.25 0 0
0.26 0 0
0.27 0 0
0.28 0 0
0.29 0 0
0.3 0 0
0.31 0 0
0.32 0 0
0.33 0 0
0.34 0 0
0.35 0 0
0.36 0 0
0.37 0 0
0.38 0 0
0.39 0 0
0.4 0 0
0.41 0 0
0.42 0 0
0.43 0 0
0.44 0 0
0.45 0 0
0.46 0 0
0.47 0 0
0.48 0 0
0.49 0 0
0.5 0 0
0.51 0 0
0.52 0 0
0.53 0 0
0.54 0 0
0.55 0 0
0.56 0 0
0.57 0 0
0.58 0 0
0.59 0 0
0.6 0 0
0.61 0 0
0.62 0 0
0.63 0 0
0.64 0 0
0.65 0 0
0.66 0 0
0.67 0 0
0.68 0 0
0.69 0 0
0.7 0 0
0.71 0 0
0.72 0 0
0.73 0 0
0.74 0 0
0.75 0 0
0.76 0 0
0.77 0 0
0.78 0 0
0.79 0 0
0.8 0 0
0.81 0 0
0.82 0 0
0.83 0 0
0.84 0 0
0.85 0 0
0.86 0 0
0.87 0 0
0.88 0 0
0.89 0 0
0.9 0 0
0.91 0 0
0.92 0 0
0.93 0 0
0.94 0 0
0.95 0 0
0.96 0 0
0.97 0 0
0.98 0 0
0.99 0 0
0 0.001 0
0.01 0.001 0
0.02 0.001 0
0.03 0.001 0
0.04 0.001 0
0.05 0.001 0
0.06 0.001 0
0.07 0.001 0
0.08 0.001 0
0.09 0.001 0
0.1 0.001 0
0.11 0.001 0
0.12 0.001 0
0.13 0.001 0
0.14 0.001 0
0.15 0.001 0
0.16 0.001 0
0.17 0.001 0
0.18 0.001 0
0.19 0.001 0
0.2 0.001 0
0.21 0.001 0
0.22 0.001 0
0.23 0.001 0
0.24 0.001 0
0.25 0.001 0
0.26 0.001 0
0.27 0.001 0
0.28 0.001 0
0.29 0.001 0
0.3 0.001 0
0.31 0.001 0
0.32 0.001 0
0.33 0.001 0
0.34 0.001 0
0.35 0.001 0
0.36 0.001 0
0.37 0.001 0
0.38 0.001 0
0.39 0.001 0
0.4 0.001 0
0.41 0.001 0
0.42 0.001 0
0.43 0.001 0
0.44 0.001 0
0.45 0.001 0
0.46 0.001 0
0.47 0.001 0
0.48 0.001 0
0.49 0.001 0
0.5 0.001 0
0.51 0.001 0
0.52 0.001 0
0.53 0.001 0
0.54 0.001 0
0.55 0.001 0
0.56 0.001 0
0.57 0.001 0
0.58 0.001 0
0.59 0.001 0
0.6 0.001 0
0.61 0.001 0
0.62 0.001 0
0.63 0.001 0
0.64 0.001 0
0.65 0.001 0
0.66 0.001 0
0.67 0.001 0
0.68 0.001 0
0.69 0.001 0
0.7 0.001 0
0.71 0.001 0
0.72 0.001 0
0.73 0.001 0
0.74 0.001 0
0.75 0.001 0
0.76 0.001 0
0.77 0.001 0
0.78 0.001 0
0.79 0.001 0
0.8 0.001 0
0.81 0.001 0
0.82 0.001 0
0.83 0.001 0
0.84 0.001 0
0.85 0.001 0
0.86 0.001 0
0.87 0.001 0
0.88 0.001 0
0.89 0.001 0
0.9 0.001 0
0.91 0.001 0
0.92 0.001 0
0.93 0.001 0
0.94 0.001 0
0.95 0.001 0
0.96 0.001 0
0.97 0.001 0
0.98 0.001 0
0.99 0.001 0
0 0.002 0
0.01 0.002 0
0.02 0.002 0
0.03 0.002 0
0.04 0.002 0
0.05 0.002 0
0.06 0.002 0
0.07 0.002 0
0.08 0.002 0
0.09 0.002 0
0.1 0.002 0
0.11 0.002 0
0.12 0.002 0
0.13 0.002 0
0.14 0.002 0
0.15 0.002 0
0.16 0.002 0
0.17 0.002 0
0.18 0.002 0
0.19 0.002 0
0.2 0.002 0
0.21 0.002 0
0.22 0.002 0
0.23 0.002 0
0.24 0.002 0
0.25 0.002 0
0.26 0.002 0
0.27 0.002 0
0.28 0.002 0
0.29 0.002 0
0.3 0.002 0
0.31 0.002 0
0.32 0.002 0
0.33 0.002 0
0.34 0.002 0
0.35 0.002 0
0.36 0.002 0
0.37 0.002 0
0.38 0.002 0
0.39 0.002 0
0.4 0.002 0
0.41 0.002 0
0.42 0.002 0
0.43 0.002 0
0.44 0.002 0
0.45 0.002 0
0.46 0.002 0
0.47 0.002 0
0.48 0.002 0
0.49 0.002 0
0.5 0.002 0
0.51 0.002 0
0.52 0.002 0
0.53 0.002 0
0.54 0.002 0
0.55 0.002 0
0.56 0.002 0
0.57 0.002 0
0.58 0.002 0
0.59 0.002 0
0.6 0.002 0
0.61 0.002 0
0.62 0.002 0
0.63 0.002 0
0.64 0.002 0
0.65 0.002 0
0.66 0.002 0
0.67 0.002 0
0.68 0.002 0
0.69 0.002 0
0.7 0.002 0
0.71 0.002 0
0.72 0.002 0
0.73 0.002 0
0.74 0.002 0
0.75 0.002 0
0.76 0.002 0
0.77 0.002 0
0.78 0.002 0
0.79 0.002 0
0.8 0.002 0
0.81 0.002 0
0.82 0.002 0
0.83 0.002 0
0.84 0.002 0
0.85 0.002 0
0.86 0.002 0
0.87 0.002 0
0.88 0.002 0
0.89 0.002 0
0.9 0.002 0
0.91 0.002 0
0.92 0.002 0
0.93 0.002 0
0.94 0.002 0
0.95 0.002 0
0.96 0.002 0
0.97 0.002 0
0.98 0.002 0
0.99 0.002 0
0 0.003 0
0.01 0.003 0
0.02 0.003 0
0.03 0.003 0
0.04 0.003 0
0.05 0.003 0
0.06 0.003 0
0.07 0.003 0
0.08 0.003 0
0.09 0.003 0
0.1 0.003 0
0.11 0.003 0
0.12 0.003 0
0.13 0.003 0
0.14 0.003 0
0.15 0.003 0
0.16 0.003 0
0.17 0.003 0
0.18 0.003 0
0.19 0.003 0
0.2 0.003 0
0.21 0.003 0
0.22 0.003 0
0.23 0.003 0
0.24 0.003 0
0.25 0.003 0
0.26 0.003 0
0.27 0.003 0
0.28 0.003 0
0.29 0.003 0
0.3 0.003 0
0.31 0.003 0
0.32 0.003 0
0.33 0.003 0
0.34 0.003 0
0.35 0.003 0
0.36 0.003 0
0.37 0.003 0
0.38 0.003 0
0.39 0.003 0
0.4 0.003 0
0.41 0.003 0
0.42 0.003 0
0.43 0.003 0
0.44 0.003 0
0.45 0.003 0
0.46 0.003 0
0.47 0.003 0
0.48 0.003 0
0.49 0.003 0
0.5 0.003 0
0.51 0.003 0
0.52 0.003 0
0.53 0.003 0
0.54 0.003 0
0.55 0.003 0
0.56 0.003 0
0.57 0.003 0
0.58 0.003 0
0.59 0.003 0
0.6 0.003 0
0.61 0.003 0
0.62 0.003 0
0.63 0.003 0
0.64 0.003 0
0.65 0.003 0
0.66 0.003 0
0.67 0.003 0
0.68 0.003 0
0.69 0.003 0
0.7 0.003 0
0.71 0.003 0
0.72 0.003 0
0.73 0.003 0
0.74 0.003 0
0.75 0.003 0
0.76 0.003 0
0.77 0.003 0
0.78 0.003 0
0.79 0.003 0
0.8 0.003 0
0.81 0.003 0
0.82 0.003 0
0.83 0.003 0
0.84 0.003 0
0.85 0.003 0
0.86 0.003 0
0.87 0.003 0
0.88 0.003 0
0.89 0.003 0
0.9 0.003 0
0.91 0.003 0
0.92 0.003 0
0.93 0.003 0
0.94 0.003 0
0.95 0.003 0
0.96 0.003 0
0.97 0.003 0
0.98 0.003 0
0.99 0.003 0
0 0.004 0
0.01 0.004 0
0.02 0.004 0
0.03 0.004 0
0.04 0.004 0
0.05 0.004 0
0.06 0.004 0
0.07 0.004 0
0.08 0.004 0
0.09 0.004 0
0.1 0.004 0
0.11 0.004 0
0.12 0.004 0
0.13 0.004 0
0.14 0.004 0
0.15 0.004 0
0.16 0.004 0
0.17 0.004 0
0.18 0.004 0
0.19 0.004 0
0.2 0.004 0
0.21 0.004 0
0.22 0.004 0
0.23 0.004 0
0.24 0.004 0
0.25 0.004 0
0.26 0.004 0
0.27 0.004 0
0.28 0.004 0
0.29 0.004 0
0.3 0.004 0
0.31 0.004 0
0.32 0.004 0
0.33 0.004 0
0.34 0.004 0
0.35 0.004 0
0.36 0.004 0
0.37 0.004 0
0.38 0.004 0
0.39 0.004 0
0.4 0.004 0
0.41 0.004 0
0.42 0.004 0
0.43 0.004 0
0.44 0.004 0
0.45 0.004 0
0.46 0.004 0
0.47 0.004 0
0.48 0.004 0
0.49 0.004 0
0.5 0.004 0
0.51 0.004 0
0.52 0.004 0
0.53 0.004 0
0.54 0.004 0
0.55 0.004 0
0.56 0.004 0
0.57 0.004 0
0.58 0.004 0
0.59 0.004 0
0.6 0.004 0
0.61 0.004 0
0.62 0.004 0
0.63 0.004 0
0.64 0.004 0
0.65 0.004 0
0.66 0.004 0
0.67 0.004 0
0.68 0.004 0
0.69 0.004 0
0.7 0.004 0
0.71 0.004 0
0.72 0.004 0
0.73 0.004 0
0.74 0.004 0
0.75 0.004 0
0.76 0.004 0
0.77 0.004 0
0.78 0.004 0
0.79 0.004 0
0.8 0.004 0
0.81 0.004 0
0.82 0.004 0
0.83 0.004 0
0.84 0.004 0
0.85 0.004 0
0.86 0.004 0
0.87 0.004 0
0.88 0.004 0
0.89 0.004 0
0.9 0.004 0
0.91 0.004 0
0.92 0.004 0
0.93 0.004 0
0.94 0.004 0
0.95 0.004 0
0.96 0.004 0
0.97 0.004 0
0.98 0.004 0
0.99 0.004 0
0 0.005 0
0.01 0.005 0
0.02 0.005 0
0.03 0.005 0
0.04 0.005 0
0.05 0.005 0
0.06 0.005 0
0.07 0.005 0
0.08 0.005 0
0.09 0.005 0
0.1 0.005 0
0.11 0.005 0
0.12 0.005 0
0.13 0.005 0
0.14 0.005 0
0.15 0.005 0
0.16 0.005 0
0.17 0.005 0
0.18 0.005 0
0.19 0.005 0
0.2 0.005 0
0.21 0.005 0
0.22 0.005 0
0.23 0.005 0
0.24 0.005 0
0.25 0.005 0
0.26 0.005 0
0.27 0.005 0
0.28 0.005 0
0.29 0.005 0
0.3 0.005 0
0.31 0.005 0
0.32 0.005 0
0.33 0.005 0
0.34 0.005 0
0.35 0.005 0
0.36 0.005 0
0.37 0.005 0
0.38 0.005 0
0.39 0.005 0
0.4 0.005 0
0.41 0.005 0
0.42 0.005 0
0.43 0.005 0
0.44 0.005 0
0.45 0.005 0
0.46 0.005 0
0.47 0.005 0
0.48 0.005 0
0.49 0.005 0
0.5 0.005 0
0.51 0.005 0
0.52 0.005 0
0.53 0.005 0
0.54 0.005 0
0.55 0.005 0
0.56 0.005 0
0.57 0.005 0
0.58 0.005 0
0.59 0.005 0
0.6 0.005 0
0.61 0.005 0
0.62 0.005 0
0.63 0.005 0
0.64 0.005 0
0.65 0.005 0
0.66 0.005 0
0.67 0.005 0
0.68 0.005 0
0.69 0.005 0
0.7 0.005 0
0.71 0.005 0
0.72 0.005 0
0.73 0.005 0
0.74 0.005 0
0.75 0.005 0
0.76 0.005 0
0.77 0.005 0
0.78 0.005 0
0.79 0.005 0
0.8 0.005 0
0.81 0.005 0
0.82 0.005 0
0.83 0.005 0
0.84 0.005 0
0.85 0.005 0
0.86 0.005 0
0.87 0.005 0
0.88 0.005 0
0.89 0.005 0
0.9 0.005 0
0.91 0.005 0
0.92 0.005 0
0.93 0.005 0
0.94 0.005 0
0.95 0.005 0
0.96 0.005 0
0.97 0.005 0
0.98 0.005 0
0.99 0.005 0
0 0.006 0
0.01 0.006 0
0.02 0.006 0
0.03 0.006 0
0.04 0.006 0
0.05 0.006 0
0.06 0.006 0
0.07 0.006 0
0.08 0.006 0
0.09 0.006 0
0.1 0.006 0
0.11 0.006 0
0.12 0.006 0
0.13 0.006 0
0.14 0.006 0
0.15 0.006 0
0.16 0.006 0
0.17 0.006 0
0.18 0.006 0
0.19 0.006 0
0.2 0.006 0
0.21 0.006 0
0.22 0.006 0
0.23 0.006 0
0.24 0.006 0
0.25 0.006 0
0.26 0.006 0
0.27 0.006 0
0.28 0.006 0
0.29 0.006 0
0.3 0.006 0
0.31 0.006 0
0.32 0.006 0
0.33 0.006 0
0.34 0.006 0
0.35 0.006 0
0.36 0.006 0
0.37 0.006 0
0.38 0.006 0
0.39 0.006 0
0.4 0.006 0
0.41 0.006 0
0.42 0.006 0
0.43 0.006 0
0.44 0.006 0
0.45 0.006 0
0.46 0.006 0
0.47 0.006 0
0.48 0.006 0
0.49 0.006 0
0.5 0.006 0
0.51 0.006 0
0.52 0.006 0
0.53 0.006 0
0.54 0.006 0
0.55 0.006 0
0.56 0.006 0
0.57 0.006 0
0.58 0.006 0
0.59 0.006 0
0.6 0.006 0
0.61 0.006 0
0.62 0.006 0
0.63 0.006 0
0.64 0.006 0
0.65 0.006 0
0.66 0.006 0
0.67 0.006 0
0.68 0.006 0
0.69 0.006 0
0.7 0.006 0
0.71 0.006 0
0.72 0.006 0
0.73 0.006 0
0.74 0.006 0
0.75 0.006 0
0.76 0.006 0
0.77 0.006 0
0.78 0.006 0
0.79 0.006 0
0.8 0.006 0
0.81 0.006 0
0.82 0.006 0
0.83 0.006 0
0.84 0.006 0
0.85 0.006 0
0.86 0.006 0
0.87 0.006 0
0.88 0.006 0
0.89 0.006 0
0.9 0.006 0
0.91 0.006 0
0.92 0.006 0
0.93 0.006 0
0.94 0.006 0
0.95 0.006 0
0.96 0.006 0
0.97 0.006 0
0.98 0.006 0
0.99 0.006 0
0 0.007 0
0.01 0.007 0
0.02 0.007 0
0.03 0.007 0
0.04 0.007 0
0.05 0.007 0
0.06 0.007 0
0.07 0.007 0
0.08 0.007 0
0.09 0.007 0
0.1 0.007 0
0.11 0.007 0
0.12 0.007 0
0.13 0.007 0
0.14 0.007 0
0.15 0.007 0
0.16 0.007 0
0.17 0.007 0
0.18 0.007 0
0.19 0.007 0
0.2 0.007 0
0.21 0.007 0
0.22 0.007 0
0.23 0.007 0
0.24 0.007 0
0.25 0.007 0
0.26 0.007 0
0.27 0.007 0
0.28 0.007 0
0.29 0.007 0
0.3 0.007 0
0.31 0.007 0
0.32 0.007 0
0.33 0.007 0
0.34 0.007 0
0.35 0.007 0
0.36 0.007 0
0.37 0.007 0
0.38 0.007 0
0.39 0.007 0
0.4 0.007 0
0.41 0.007 0
0.42 0.007 0
0.43 0.007 0
0.44 0.007 0
0.45 0.007 0
0.46 0.007 0
0.47 0.007 0
0.48 0.007 0
0.49 0.007 0
0.5 0.007 0
0.51 0.007 0
0.52 0.007 0
0.53 0.007 0
0.54 0.007 0
0.55 0.007 0
0.56 0.007 0
0.57 0.007 0
0.58 0.007 0
0.59 0.007 0
0.6 0.007 0
0.61 0.007 0
0.62 0.007 0
0.63 0.007 0
0.64 0.007 0
0.65 0.007 0
0.66 0.007 0
0.67 0.007 0
0.68 0.007 0
0.69 0.007 0
0.7 0.007 0
0.71 0.007 0
0.72 0.007 0
0.73 0.007 0
0.74 0.007 0
0.75 0.007 0
0.76 0.007 0
0.77 0.007 0
0.78 0.007 0
0.79 0.007 0
0.8 0.007 0
0.81 0.007 0
0.82 0.007 0
0.83 0.007 0
0.84 0.007 0
0.85 0.007 0
0.86 0.007 0
0.87 0.007 0
0.88 0.007 0
0.89 0.007 0
0.9 0.007 0
0.91 0.007 0
0.92 0.007 0
0.93 0.007 0
0.94 0.007 0
0.95 0.007 0
0.96 0.007 0
0.97 0.007 0
0.98 0.007 0
[...]
POINT_DATA 10000

SCALARS vel_X float 1
LOOKUP_TABLE default
0
0
0
0
0
0
0
0
0
0
0
0
0
0
0
0
0
0
0
0
0
0
0
0
0
0
0
0
0
0
0
0
0
0
0
0
0
0
0
0
0
0
0
0
0
0
0
0
0
0
0
0
0
0
0
0
0
0
0
0
0
0
0
0
0
0
0
0
0
0
0
0
0
0
0
0
0
0
0
0
0
0
0
0
0
0
0
0
0
0
0
0
0
0
0
0
0
0
0
0
1
0.395244
0.409053
0.502618
0.327042
0.127132
0.0299634
0.00795593
-0.00104418
0.00204843
-0.00192756
0.00193996
-0.00193885
0.00193894
-0.00193894
0.00193894
-0.00193894
0.00193894
-0.00193894
0.00193894
-0.00193894
0.00193894
-0.00193894
0.00193894
-0.00193894
0.00193894
-0.00193894
0.00193894
-0.00193894
0.00193894
-0.00193894
0.00193894
-0.00193894
0.00193894
-0.00193894
0.00193894
-0.00193894
0.00193894
-0.00193894
0.00193894
-0.00193894
0.00193894
-0.00193894
0.00193894
-0.00193894
0.00193894
-0.00193894
0.00193894
-0.00193894
0.00193894
-0.00193894
0.00193894
-0.00193894
0.00193894
-0.00193894
0.00193894
-0.00193894
0.00193894
-0.00193894
0.00193894
-0.00193894
0.00193894
-0.00193894
0.00193894
-0.00193894
0.00193894
-0.00193894
0.00193894
-0.00193894
0.00193894
-0.00193894
0.00193894
-0.00193894
0.00193894
-0.00193894
0.00193894
-0.00193894
0.00193894
-0.00193894
0.00193894
-0.00193894
0.00193894
-0.00193894
0.00193894
-0.00193894
0.00193894
-0.00193894
0.00193894
-0.00193894
0.00193891
-0.00193933
0.00193447
-0.00197132
0.00181377
-0.00206681
0.00229945
-0.00231121
-0.00057849
-0.0435247
-0.0435247
1
0.693704
0.72958
0.799106
0.493478
0.186866
0.0442399
0.0111646
-0.00107288
0.00254301
-0.0023653
0.00238363
-0.00238198
0.00238211
-0.0023821
0.0023821
-0.0023821
0.0023821
-0.0023821
0.0023821
-0.0023821
0.0023821
-0.0023821
0.0023821
-0.0023821
0.0023821
-0.0023821
0.0023821
-0.0023821
0.0023821
-0.0023821
0.0023821
-0.0023821
0.0023821
-0.0023821
0.0023821
-0.0023821
0.0023821
-0.0023821
0.0023821
-0.0023821
0.0023821
-0.0023821
0.0023821
-0.0023821
0.0023821
-0.0023821
0.0023821
-0.0023821
0.0023821
-0.0023821
0.0023821
-0.0023821
0.0023821
-0.0023821
0.0023821
-0.0023821
0.0023821
-0.0023821
0.0023821
-0.0023821
0.0023821
-0.0023821
0.0023821
-0.0023821
0.0023821
-0.0023821
0.0023821
-0.0023821
0.0023821
-0.0023821
0.0023821
-0.0023821
0.0023821
-0.0023821
0.0023821
-0.0023821
0.0023821
-0.0023821
0.0023821
-0.0023821
0.0023821
-0.0023821
0.0023821
-0.0023821
0.0023821
-0.0023821
0.0023821
-0.0023821
0.00238207
-0.00238268
0.00237558
-0.00242908
0.00219906
-0.00259269
0.00283287
-0.00280432
-0.000350514
0.0543312
0.0543312
1
0.898538
0.934181
0.953446
0.580537
0.22083
0.0537764
0.0130594
-0.000671968
0.00250917
-0.00228315
0.00230686
-0.00230469
0.00230487
-0.00230485
0.00230485
-0.00230485
0.00230485
-0.00230485
0.00230485
-0.00230485
0.00230485
-0.00230485
0.00230485
-0.00230485
0.00230485
-0.00230485
0.00230485
-0.00230485
0.00230485
-0.00230485
0.00230485
-0.00230485
0.00230485
-0.00230485
0.00230485
-0.00230485
0.00230485
-0.00230485
0.00230485
-0.00230485
0.00230485
-0.00230485
0.00230485
-0.00230485
0.00230485
-0.00230485
0.00230485
-0.00230485
0.00230485
-0.00230485
0.00230485
-0.00230485
0.00230485
-0.00230485
0.00230485
-0.00230485
0.00230485
-0.00230485
0.00230485
-0.00230485
0.00230485
-0.00230485
0.00230485
-0.00230485
0.00230485
-0.00230485
0.00230485
-0.00230485
0.00230485
-0.00230485
0.00230485
-0.00230485
0.00230485
-0.00230485
0.00230485
-0.00230485
0.00230485
-0.00230485
0.00230485
-0.00230485
0.00230485
-0.00230485
0.00230485
-0.00230485
0.00230485
-0.00230485
0.00230485
-0.00230486
0.00230481
-0.0023056
0.00229674
-0.00236101
0.00209466
-0.0025387
0.00276
-0.00281414
-0.000646352
-0.0470593
-0.0470593
1
1.02112
1.04182
1.02569
0.631085
0.245616
0.061959
0.0148466
-0.000249774
0.00246682
-0.00218792
0.00221779
-0.00221501
0.00221524
-0.00221522
0.00221522
-0.00221522
0.00221522
-0.00221522
0.00221522
-0.00221522
0.00221522
-0.00221522
0.00221522
-0.00221522
0.00221522
-0.00221522
0.00221522
-0.00221522
0.00221522
-0.00221522
0.00221522
-0.00221522
0.00221522
-0.00221522
0.00221522
-0.00221522
0.00221522
-0.00221522
0.00221522
-0.00221522
0.00221522
-0.00221522
0.00221522
-0.00221522
0.00221522
-0.00221522
0.00221522
-0.00221522
0.00221522
-0.00221522
0.00221522
-0.00221522
0.00221522
-0.00221522
0.00221522
-0.00221522
0.00221522
-0.00221522
0.00221522
-0.00221522
0.00221522
-0.00221522
0.00221522
-0.00221522
0.00221522
-0.00221522
0.00221522
-0.00221522
0.00221522
-0.00221522
0.00221522
-0.00221522
0.00221522
-0.00221522
0.00221522
-0.00221522
0.00221522
-0.00221522
0.00221522
-0.00221522
0.00221522
-0.00221522
0.00221522
-0.00221522
0.00221522
-0.00221522
0.00221522
-0.00221522
0.00221516
-0.00221615
0.00220553
-0.00227896
0.0019914
-0.00243359
0.00266621
-0.00286207
0.000210134
0.0520872
0.0520872
1
1.08096
1.08557
1.05538
0.665063
0.266922
0.0699419
0.0166913
0.000232472
0.00240438
-0.00206476
0.00210193
-0.0020984
0.00209869
-0.00209867
0.00209867
-0.00209867
0.00209867
-0.00209867
0.00209867
-0.00209867
0.00209867
-0.00209867
0.00209867
-0.00209867
0.00209867
-0.00209867
0.00209867
-0.00209867
0.00209867
-0.00209867
0.00209867
-0.00209867
0.00209867
-0.00209867
0.00209867
-0.00209867
0.00209867
-0.00209867
0.00209867
-0.00209867
0.00209867
-0.00209867
0.00209867
-0.00209867
0.00209867
-0.00209867
0.00209867
-0.00209867
0.00209867
-0.00209867
0.00209867
-0.00209867
0.00209867
-0.00209867
0.00209867
-0.00209867
0.00209867
-0.00209867
0.00209867
-0.00209867
0.00209867
-0.00209867
0.00209867
-0.00209867
0.00209867
-0.00209867
0.00209867
-0.00209867
0.00209867
-0.00209867
0.00209867
-0.00209867
0.00209867
-0.00209867
0.00209867
-0.00209867
0.00209867
-0.00209867
0.00209867
-0.00209867
0.00209867
-0.00209867
0.00209867
-0.00209867
0.00209867
-0.00209867
0.00209867
-0.00209868
0.00209859
-0.00209981
0.00208732
-0.00216936
0.00186816
-0.00228147
0.00255094
-0.00289282
0.000215478
-0.0485576
-0.0485576
1
1.10007
1.09402
1.0645
0.690742
0.286552
0.0779719
0.018648
0.000760633
0.00234237
-0.00193307
0.00197886
-0.00197442
0.0019748
-0.00197477
0.00197477
-0.00197477
0.00197477
-0.00197477
0.00197477
-0.00197477
0.00197477
-0.00197477
0.00197477
-0.00197477
0.00197477
-0.00197477
0.00197477
-0.00197477
0.00197477
-0.00197477
0.00197477
-0.00197477
0.00197477
-0.00197477
0.00197477
-0.00197477
0.00197477
-0.00197477
0.00197477
-0.00197477
0.00197477
-0.00197477
0.00197477
-0.00197477
0.00197477
-0.00197477
0.00197477
-0.00197477
0.00197477
-0.00197477
0.00197477
-0.00197477
0.00197477
-0.00197477
0.00197477
-0.00197477
0.00197477
-0.00197477
0.00197477
-0.00197477
0.00197477
-0.00197477
0.00197477
-0.00197477
0.00197477
-0.00197477
0.00197477
-0.00197477
0.00197477
-0.00197477
0.00197477
-0.00197477
0.00197477
-0.00197477
0.00197477
-0.00197477
0.00197477
-0.00197477
0.00197477
-0.00197477
0.00197477
-0.00197477
0.00197477
-0.00197477
0.00197477
-0.00197477
0.00197477
-0.00197478
0.00197467
-0.00197615
0.00196169
-0.00205189
0.00174231
-0.00211287
0.00242754
-0.0028882
0.00101848
0.0510424
0.0510424
1
1.09697
1.08627
1.06392
0.711469
0.30487
0.086149
0.0206247
0.00142408
0.00219256
-0.00170399
0.00175988
-0.00175434
0.00175483
-0.00175479
0.00175479
-0.00175479
0.00175479
-0.00175479
0.00175479
-0.00175479
0.00175479
-0.00175479
0.00175479
-0.00175479
0.00175479
-0.00175479
0.00175479
-0.00175479
0.00175479
-0.00175479
0.00175479
-0.00175479
0.00175479
-0.00175479
0.00175479
-0.00175479
0.00175479
-0.00175479
0.00175479
-0.00175479
0.00175479
-0.00175479
0.00175479
-0.00175479
0.00175479
-0.00175479
0.00175479
-0.00175479
0.00175479
-0.00175479
0.00175479
-0.00175479
0.00175479
-0.00175479
0.00175479
-0.00175479
0.00175479
-0.00175479
0.00175479
-0.00175479
0.00175479
-0.00175479
0.00175479
-0.00175479
0.00175479
-0.00175479
0.00175479
-0.00175479
0.00175479
-0.00175479
0.00175479
-0.00175479
0.00175479
-0.00175479
0.00175479
-0.00175479
0.00175479
-0.00175479
0.00175479
-0.00175479
0.00175479
-0.00175479
0.00175479
-0.00175479
0.00175479
-0.00175479
0.00175479
-0.0017548
0.00175467
-0.00175643
0.00173992
-0.00183773
0.00152434
-0.00184484
0.00220015
-0.00275762
0.00080501
-0.04931
-0.04931
1
1.08451
1.07287
1.05888
0.728485
0.322002
0.094341
0.0226844
0.00214489
0.00203223
-0.00145441
0.00152199
-0.00151516
0.00151577
-0.00151572
0.00151572
-0.00151572
0.00151572
-0.00151572
0.00151572
-0.00151572
0.00151572
-0.00151572
0.00151572
-0.00151572
0.00151572
-0.00151572
0.00151572
-0.00151572
0.00151572
-0.00151572
0.00151572
-0.00151572
0.00151572
-0.00151572
0.00151572
-0.00151572
0.00151572
-0.00151572
0.00151572
-0.00151572
0.00151572
-0.00151572
0.00151572
-0.00151572
0.00151572
-0.00151572
0.00151572
-0.00151572
0.00151572
-0.00151572
0.00151572
-0.00151572
0.00151572
-0.00151572
0.00151572
-0.00151572
0.00151572
-0.00151572
0.00151572
-0.00151572
0.00151572
-0.00151572
0.00151572
-0.00151572
0.00151572
-0.00151572
0.00151572
-0.00151572
0.00151572
-0.00151572
0.00151572
-0.00151572
0.00151572
-0.00151572
0.00151572
-0.00151572
0.00151572
-0.00151572
0.00151572
-0.00151572
0.00151572
-0.00151572
0.00151572
-0.00151572
0.00151572
-0.00151572
0.00151572
-0.00151573
0.00151557
-0.00151765
0.00149905
-0.00160375
0.00129087
-0.00155763
0.00194237
-0.00257228
0.00137369
0.0504909
0.0504909
1
1.06982
1.05899
1.05175
0.742481
0.337865
0.102524
0.0247655
0.0029656
0.00181733
-0.00114001
0.001221
-0.00121264
0.0012134
-0.00121334
0.00121334
-0.00121334
0.00121334
-0.00121334
0.00121334
-0.00121334
0.00121334
-0.00121334
0.00121334
-0.00121334
0.00121334
-0.00121334
0.00121334
-0.00121334
0.00121334
-0.00121334
0.00121334
-0.00121334
0.00121334
-0.00121334
0.00121334
-0.00121334
0.00121334
-0.00121334
0.00121334
-0.00121334
0.00121334
-0.00121334
0.00121334
-0.00121334
0.00121334
-0.00121334
0.00121334
-0.00121334
0.00121334
-0.00121334
0.00121334
-0.00121334
0.00121334
-0.00121334
0.00121334
-0.00121334
0.00121334
-0.00121334
0.00121334
-0.00121334
0.00121334
-0.00121334
0.00121334
-0.00121334
0.00121334
-0.00121334
0.00121334
-0.00121334
0.00121334
-0.00121334
0.00121334
-0.00121334
0.00121334
-0.00121334
0.00121334
-0.00121334
0.00121334
-0.00121334
0.00121334
-0.00121334
0.00121334
-0.00121334
0.00121334
-0.00121334
0.00121334
-0.00121334
0.00121334
-0.00121335
0.00121316
-0.00121558
0.00119487
-0.00130561
0.000997297
-0.00120909
0.00160971
-0.00229847
0.000968586
-0.0497155
-0.0497155
1
1.05629
1.04664
1.04382
0.753806
0.35251
0.110547
0.0269359
0.00379712
0.00163467
-0.000847453
0.000943669
-0.000933527
0.000934466
-0.000934389
0.000934395
-0.000934394
0.000934394
-0.000934394
0.000934394
-0.000934394
0.000934394
-0.000934394
0.000934394
-0.000934394
0.000934394
-0.000934394
0.000934394
-0.000934394
0.000934394
-0.000934394
0.000934394
-0.000934394
0.000934394
-0.000934394
0.000934394
-0.000934394
0.000934394
-0.000934394
0.000934394
-0.000934394
0.000934394
-0.000934394
0.000934394
-0.000934394
0.000934394
-0.000934394
0.000934394
-0.000934394
0.000934394
-0.000934394
0.000934394
-0.000934394
0.000934394
-0.000934394
0.000934394
-0.000934394
0.000934394
-0.000934394
0.000934394
-0.000934394
0.000934394
-0.000934394
0.000934394
-0.000934394
0.000934394
-0.000934394
0.000934394
-0.000934394
0.000934394
-0.000934394
0.000934394
-0.000934394
0.000934394
-0.000934394
0.000934394
-0.000934394
0.000934394
-0.000934394
0.000934394
-0.000934394
0.000934394
-0.000934394
0.000934394
-0.000934394
0.000934394
-0.000934394
0.000934394
-0.000934407
0.000934178
-0.000936952
0.000914178
-0.00102998
0.000729936
-0.000887492
0.00129043
-0.00201922
0.00139279
0.050196
0.050196
1
1.04492
1.03648
1.0357
0.762879
0.36587
0.118401
0.0291255
0.00468765
0.00143316
-0.000525634
0.000638984
-0.000626788
0.000627939
-0.000627842
0.000627849
-0.000627849
0.000627849
-0.000627849
0.000627849
-0.000627849
0.000627849
-0.000627849
0.000627849
-0.000627849
0.000627849
-0.000627849
0.000627849
-0.000627849
0.000627849
-0.000627849
0.000627849
-0.000627849
0.000627849
-0.000627849
0.000627849
-0.000627849
0.000627849
-0.000627849
0.000627849
-0.000627849
0.000627849
-0.000627849
0.000627849
-0.000627849
0.000627849
-0.000627849
0.000627849
-0.000627849
0.000627849
-0.000627849
0.000627849
-0.000627849
0.000627849
-0.000627849
0.000627849
-0.000627849
0.000627849
-0.000627849
0.000627849
-0.000627849
0.000627849
-0.000627849
0.000627849
-0.000627849
0.000627849
-0.000627849
0.000627849
-0.000627849
0.000627849
-0.000627849
0.000627849
-0.000627849
0.000627849
-0.000627849
0.000627849
-0.000627849
0.000627849
-0.000627849
0.000627849
-0.000627849
0.000627849
-0.000627849
0.000627849
-0.000627849
0.000627849
-0.000627849
0.000627848
-0.000627865
0.000627595
-0.000630742
0.000605967
-0.00072578
0.000437275
-0.000542898
0.000935799
-0.0016934
0.000879703
-0.0499245
-0.0499245
1
1.03578
1.02842
1.02789
0.769958
0.378037
0.125959
0.0313931
0.00555603
0.00129048
-0.000252368
0.000384832
-0.000370286
0.000371686
-0.000371566
0.000371575
-0.000371575
0.000371575
-0.000371575
0.000371575
-0.000371575
0.000371575
-0.000371575
0.000371575
-0.000371575
0.000371575
-0.000371575
0.000371575
-0.000371575
0.000371575
-0.000371575
0.000371575
-0.000371575
0.000371575
-0.000371575
0.000371575
-0.000371575
0.000371575
-0.000371575
0.000371575
-0.000371575
0.000371575
-0.000371575
0.000371575
-0.000371575
0.000371575
-0.000371575
0.000371575
-0.000371575
0.000371575
-0.000371575
0.000371575
-0.000371575
0.000371575
-0.000371575
0.000371575
-0.000371575
0.000371575
-0.000371575
0.000371575
-0.000371575
0.000371575
-0.000371575
0.000371575
-0.000371575
0.000371575
-0.000371575
0.000371575
-0.000371575
0.000371575
-0.000371575
0.000371575
-0.000371575
0.000371575
-0.000371575
0.000371575
-0.000371575
0.000371575
-0.000371575
0.000371575
-0.000371575
0.000371575
-0.000371575
0.000371575
-0.000371575
0.000371575
-0.000371575
0.000371574
-0.000371594
0.00037128
-0.000374811
0.000348137
-0.00047087
0.00019667
-0.000253925
0.000626294
-0.00139485
0.00122446
0.0500541
0.0500541
1
1.02845
1.02225
1.02056
0.775416
0.388986
0.133237
0.0336623
0.00645635
0.00114861
3.00945e-05
0.000123515
-0.000106302
0.000107991
-0.000107844
0.000107855
-0.000107855
0.000107855
-0.000107855
0.000107855
-0.000107855
0.000107855
-0.000107855
0.000107855
-0.000107855
0.000107855
-0.000107855
0.000107855
-0.000107855
0.000107855
-0.000107855
0.000107855
-0.000107855
0.000107855
-0.000107855
0.000107855
-0.000107855
0.000107855
-0.000107855
0.000107855
-0.000107855
0.000107855
-0.000107855
0.000107855
-0.000107855
0.000107855
-0.000107855
0.000107855
-0.000107855
0.000107855
-0.000107855
0.000107855
-0.000107855
0.000107855
-0.000107855
0.000107855
-0.000107855
0.000107855
-0.000107855
0.000107855
-0.000107855
0.000107855
-0.000107855
0.000107855
-0.000107855
0.000107855
-0.000107855
0.000107855
-0.000107855
0.000107855
-0.000107855
0.000107855
-0.000107855
0.000107855
-0.000107855
0.000107855
-0.000107855
0.000107855
-0.000107855
0.000107855
-0.000107855
0.000107855
-0.000107855
0.000107855
-0.000107855
0.000107855
-0.000107855
0.000107854
-0.000107877
0.000107515
-0.000111437
8.29975e-05
-0.000207541
-5.01146e-05
3.67166e-05
0.000306696
-0.00107602
0.000656182
-0.0500145
-0.0500145
1
1.02262
1.0176
1.01396
0.779462
0.398841
0.14013
0.0359882
0.00731208
0.0010798
0.000249133
-7.2318e-05
9.25298e-05
-9.05082e-05
9.06878e-05
-9.06735e-05
9.06745e-05
-9.06745e-05
9.06745e-05
-9.06745e-05
9.06745e-05
-9.06745e-05
9.06745e-05
-9.06745e-05
9.06745e-05
-9.06745e-05
9.06745e-05
-9.06745e-05
9.06745e-05
-9.06745e-05
9.06745e-05
-9.06745e-05
9.06745e-05
-9.06745e-05
9.06745e-05
-9.06745e-05
9.06745e-05
-9.06745e-05
9.06745e-05
-9.06745e-05
9.06745e-05
-9.06745e-05
9.06745e-05
-9.06745e-05
9.06745e-05
-9.06745e-05
9.06745e-05
-9.06745e-05
9.06745e-05
-9.06745e-05
9.06745e-05
-9.06745e-05
9.06745e-05
-9.06745e-05
9.06745e-05
-9.06745e-05
9.06745e-05
-9.06745e-05
9.06745e-05
-9.06745e-05
9.06745e-05
-9.06745e-05
9.06745e-05
-9.06745e-05
9.06745e-05
-9.06745e-05
9.06745e-05
-9.06745e-05
9.06745e-05
-9.06745e-05
9.06745e-05
-9.06745e-05
9.06745e-05
-9.06745e-05
9.06745e-05
-9.06745e-05
9.06745e-05
-9.06745e-05
9.06745e-05
-9.06745e-05
9.06745e-05
-9.06745e-05
9.06745e-05
-9.06745e-05
9.06745e-05
-9.06745e-05
9.06744e-05
-9.06758e-05
9.06479e-05
-9.10606e-05
8.67467e-05
-0.000116793
-8.46603e-06
-0.000230944
0.000256249
5.1981e-05
-0.000805927
0.00096795
0.0500033
0.0500033
1
1.01786
1.01421
1.00808
0.782415
0.407604
0.146675
0.0382917
0.00818178
0.0010209
0.000467367
-0.000265278
0.000288837
-0.000286436
0.000286653
-0.000286636
0.000286637
-0.000286637
0.000286637
-0.000286637
0.000286637
-0.000286637
0.000286637
-0.000286637
0.000286637
-0.000286637
0.000286637
-0.000286637
0.000286637
-0.000286637
0.000286637
-0.000286637
0.000286637
-0.000286637
0.000286637
-0.000286637
0.000286637
-0.000286637
0.000286637
-0.000286637
0.000286637
-0.000286637
0.000286637
-0.000286637
0.000286637
-0.000286637
0.000286637
-0.000286637
0.000286637
-0.000286637
0.000286637
-0.000286637
0.000286637
-0.000286637
0.000286637
-0.000286637
0.000286637
-0.000286637
0.000286637
-0.000286637
0.000286637
-0.000286637
0.000286637
-0.000286637
0.000286637
-0.000286637
0.000286637
-0.000286637
0.000286637
-0.000286637
0.000286637
-0.000286637
0.000286637
-0.000286637
0.000286637
-0.000286637
0.000286637
-0.000286637
0.000286637
-0.000286637
0.000286637
-0.000286637
0.000286637
-0.000286637
0.000286637
-0.000286637
0.000286637
-0.000286638
0.000286606
-0.000287072
0.000282371
-0.00031384
0.00018892
-0.000408909
0.000467401
-0.000198505
-0.000532391
0.000385798
-0.0500366
-0.0500366
1
1.014
1.01175
1.00303
0.784428
0.415416
0.152787
0.0406253
0.00899352
0.00103912
0.000616981
-0.000387565
0.000414833
-0.000412001
0.000412262
-0.000412241
0.000412242
-0.000412242
0.000412242
-0.000412242
0.000412242
-0.000412242
0.000412242
-0.000412242
0.000412242
-0.000412242
0.000412242
-0.000412242
0.000412242
-0.000412242
0.000412242
-0.000412242
0.000412242
-0.000412242
0.000412242
-0.000412242
0.000412242
-0.000412242
0.000412242
-0.000412242
0.000412242
-0.000412242
0.000412242
-0.000412242
0.000412242
-0.000412242
0.000412242
-0.000412242
0.000412242
-0.000412242
0.000412242
-0.000412242
0.000412242
-0.000412242
0.000412242
-0.000412242
0.000412242
-0.000412242
0.000412242
-0.000412242
0.000412242
-0.000412242
0.000412242
-0.000412242
0.000412242
-0.000412242
0.000412242
-0.000412242
0.000412242
-0.000412242
0.000412242
-0.000412242
0.000412242
-0.000412242
0.000412242
-0.000412242
0.000412242
-0.000412242
0.000412242
-0.000412242
0.000412242
-0.000412242
0.000412242
-0.000412242
0.000412242
-0.000412242
0.000412242
-0.000412244
0.000412206
-0.000412727
0.000407649
-0.000440339
0.000316751
-0.00051664
0.000602685
-0.000375318
-0.000319581
0.000699664
0.0500013
0.0500013
1
1.01076
1.01006
0.998719
0.785759
0.422289
0.158524
0.0429085
0.00981023
0.00106669
0.000765025
-0.000506269
0.000537614
-0.000534299
0.000534609
-0.000534583
0.000534585
-0.000534585
0.000534585
-0.000534585
0.000534585
-0.000534585
0.000534585
-0.000534585
0.000534585
-0.000534585
0.000534585
-0.000534585
0.000534585
-0.000534585
0.000534585
-0.000534585
0.000534585
-0.000534585
0.000534585
-0.000534585
0.000534585
-0.000534585
0.000534585
-0.000534585
0.000534585
-0.000534585
0.000534585
-0.000534585
0.000534585
-0.000534585
0.000534585
-0.000534585
0.000534585
-0.000534585
0.000534585
-0.000534585
0.000534585
-0.000534585
0.000534585
-0.000534585
0.000534585
-0.000534585
0.000534585
-0.000534585
0.000534585
-0.000534585
0.000534585
-0.000534585
0.000534585
-0.000534585
0.000534585
-0.000534585
0.000534585
-0.000534585
0.000534585
-0.000534585
0.000534585
-0.000534585
0.000534585
-0.000534585
0.000534585
-0.000534585
0.000534585
-0.000534585
0.000534585
-0.000534585
0.000534585
-0.000534585
0.000534585
-0.000534585
0.000534585
-0.000534587
0.000534544
-0.000535122
0.000529681
-0.000563378
0.000442033
-0.000621596
0.000729649
-0.00054434
-0.000110528
0.000131381
-0.0500255
-0.0500255
1
1.0081
1.00887
0.995175
0.786508
0.428368
0.163818
0.0451936
0.0105638
0.00116695
0.00084737
-0.000557318
0.000593118