# vtk DataFile Version 2.0
FlowField
ASCII
DATASET STRUCTURED_GRID
DIMENSIONS 100 1 100
POINTS 10000 float
0 0 0
0.01 0 0
0.02 0 0
0.03 0 0
0.04 0 0
0.05 0 0
0.06 0 0
0.07 0 0
0.08 0 0
0.09 0 0
0.1 0 0
0.11 0 0
0.12 0 0
0.13 0 0
0.14 0 0
0.15 0 0
0.16 0 0
0.17 0 0
0.18 0 0
0.19 0 0
0.2 0 0
0.21 0 0
0.22 0 0
0.23 0 0
0.24 0 0
0.25 0 0
0.26 0 0
0.27 0 0
0.28 0 0
0.29 0 0
0.3 0 0
0.31 0 0
0.32 0 0
0.33 0 0
0.34 0 0
0.35 0 0
0.36 0 0
0.37 0 0
0.38 0 0
0.39 0 0
0.4 0 0
0.41 0 0
0.42 0 0
0.43 0 0
0.44 0 0
0.45 0 0
0.46 0 0
0.47 0 0
0.48 0 0
0.49 0 0
0.5 0 0
0.51 0 0
0.52 0 0
0.53 0 0
0.54 0 0
0.55 0 0
0.56 0 0
0.57 0 0
0.58 0 0
0.59 0 0
0.6 0 0
0.61 0 0
0.62 0 0
0.63 0 0
0.64 0 0
0.65 0 0
0.66 0 0
0.67 0 0
0.68 0 0
0.69 0 0
0.7 0 0
0.71 0 0
0.72 0 0
0.73 0 0
0.74 0 0
0.75 0 0
0.76 0 0
0.77 0 0
0.78 0 0
0.79 0 0
0.8 0 0
0.81 0 0
0.82 0 0
0.83 0 0
0.84 0 0
0.85 0 0
0.86 0 0
0.87 0 0
0.88 0 0
0.89 0 0
0.9 0 0
0.91 0 0
0.92 0 0
0.93 0 0
0.94 0 0
0.95 0 0
0.96 0 0
0.97 0 0
0.98 0 0
0.99 0 0
0 0.001 0
0.01 0.001 0
0.02 0.001 0
0.03 0.001 0
0.04 0.001 0
0.05 0.001 0
0.06 0.001 0
0.07 0.001 0
0.08 0.001 0
0.09 0.001 0
0.1 0.001 0
0.11 0.001 0
0.12 0.001 0
0.13 0.001 0
0.14 0.001 0
0.15 0.001 0
0.16 0.001 0
0.17 0.001 0
0.18 0.001 0
0.19 0.001 0
0.2 0.001 0
0.21 0.001 0
0.22 0.001 0
0.23 0.001 0
0.24 0.001 0
0.25 0.001 0
0.26 0.001 0
0.27 0.001 0
0.28 0.001 0
0.29 0.001 0
0.3 0.001 0
0.31 0.001 0
0.32 0.001 0
0.33 0.001 0
0.34 0.001 0
0.35 0.001 0
0.36 0.001 0
0.37 0.001 0
0.38 0.001 0
0.39 0.001 0
0.4 0.001 0
0.41 0.001 0
0.42 0.001 0
0.43 0.001 0
0.44 0.001 0
0.45 0.001 0
0.46 0.001 0
0.47 0.001 0
0.48 0.001 0
0.49 0.001 0
0.5 0.001 0
0.51 0.001 0
0.52 0.001 0
0.53 0.001 0
0.54 0.001 0
0.55 0.001 0
0.56 0.001 0
0.57 0.001 0
0.58 0.001 0
0.59 0.001 0
0.6 0.001 0
0.61 0.001 0
0.62 0.001 0
0.63 0.001 0
0.64 0.001 0
0.65 0.001 0
0.66 0.001 0
0.67 0.001 0
0.68 0.001 0
0.69 0.001 0
0.7 0.001 0
0.71 0.001 0
0.72 0.001 0
0.73 0.001 0
0.74 0.001 0
0.75 0.001 0
0.76 0.001 0
0.77 0.001 0
0.78 0.001 0
0.79 0.001 0
0.8 0.001 0
0.81 0.001 0
0.82 0.001 0
0.83 0.001 0
0.84 0.001 0
0.85 0.001 0
0.86 0.001 0
0.87 0.001 0
0.88 0.001 0
0.89 0.001 0
0.9 0.001 0
0.91 0.001 0
0.92 0.001 0
0.93 0.001 0
0.94 0.001 0
0.95 0.001 0
0.96 0.001 0
0.97 0.001 0
0.98 0.001 0
0.99 0.001 0
0 0.002 0
0.01 0.002 0
0.02 0.002 0
0.03 0.002 0
0.04 0.002 0
0.05 0.002 0
0.06 0.002 0
0.07 0.002 0
0.08 0.002 0
0.09 0.002 0
0.1 0.002 0
0.11 0.002 0
0.12 0.002 0
0.13 0.002 0
0.14 0.002 0
0.15 0.002 0
0.16 0.002 0
0.17 0.002 0
0.18 0.002 0
0.19 0.002 0
0.2 0.002 0
0.21 0.002 0
0.22 0.002 0
0.23 0.002 0
0.24 0.002 0
0.25 0.002 0
0.26 0.002 0
0.27 0.002 0
0.28 0.002 0
0.29 0.002 0
0.3 0.002 0
0.31 0.002 0
0.32 0.002 0
0.33 0.002 0
0.34 0.002 0
0.35 0.002 0
0.36 0.002 0
0.37 0.002 0
0.38 0.002 0
0.39 0.002 0
0.4 0.002 0
0.41 0.002 0
0.42 0.002 0
0.43 0.002 0
0.44 0.002 0
0.45 0.002 0
0.46 0.002 0
0.47 0.002 0
0.48 0.002 0
0.49 0.002 0
0.5 0.002 0
0.51 0.002 0
0.52 0.002 0
0.53 0.002 0
0.54 0.002 0
0.55 0.002 0
0.56 0.002 0
0.57 0.002 0
0.58 0.002 0
0.59 0.002 0
0.6 0.002 0
0.61 0.002 0
0.62 0.002 0
0.63 0.002 0
0.64 0.002 0
0.65 0.002 0
0.66 0.002 0
0.67 0.002 0
0.68 0.002 0
0.69 0.002 0
0.7 0.002 0
0.71 0.002 0
0.72 0.002 0
0.73 0.002 0
0.74 0.002 0
0.75 0.002 0
0.76 0.002 0
0.77 0.002 0
0.78 0.002 0
0.79 0.002 0
0.8 0.002 0
0.81 0.002 0
0.82 0.002 0
0.83 0.002 0
0.84 0.002 0
0.85 0.002 0
0.86 0.002 0
0.87 0.002 0
0.88 0.002 0
0.89 0.002 0
0.9 0.002 0
0.91 0.002 0
0.92 0.002 0
0.93 0.002 0
0.94 0.002 0
0.95 0.002 0
0.96 0.002 0
0.97 0.002 0
0.98 0.002 0
0.99 0.002 0
0 0.003 0
0.01 0.003 0
0.02 0.003 0
0.03 0.003 0
0.04 0.003 0
0.05 0.003 0
0.06 0.003 0
0.07 0.003 0
0.08 0.003 0
0.09 0.003 0
0.1 0.003 0
0.11 0.003 0
0.12 0.003 0
0.13 0.003 0
0.14 0.003 0
0.15 0.003 0
0.16 0.003 0
0.17 0.003 0
0.18 0.003 0
0.19 0.003 0
0.2 0.003 0
0.21 0.003 0
0.22 0.003 0
0.23 0.003 0
0.24 0.003 0
0.25 0.003 0
0.26 0.003 0
0.27 0.003 0
0.28 0.003 0
0.29 0.003 0
0.3 0.003 0
0.31 0.003 0
0.32 0.003 0
0.33 0.003 0
0.34 0.003 0
0.35 0.003 0
0.36 0.003 0
0.37 0.003 0
0.38 0.003 0
0.39 0.003 0
0.4 0.003 0
0.41 0.003 0
0.42 0.003 0
0.43 0.003 0
0.44 0.003 0
0.45 0.003 0
0.46 0.003 0
0.47 0.003 0
0.48 0.003 0
0.49 0.003 0
0.5 0.003 0
0.51 0.003 0
0.52 0.003 0
0.53 0.003 0
0.54 0.003 0
0.55 0.003 0
0.56 0.003 0
0.57 0.003 0
0.58 0.003 0
0.59 0.003 0
0.6 0.003 0
0.61 0.003 0
0.62 0.003 0
0.63 0.003 0
0.64 0.003 0
0.65 0.003 0
0.66 0.003 0
0.67 0.003 0
0.68 0.003 0
0.69 0.003 0
0.7 0.003 0
0.71 0.003 0
0.72 0.003 0
0.73 0.003 0
0.74 0.003 0
0.75 0.003 0
0.76 0.003 0
0.77 0.003 0
0.78 0.003 0
0.79 0.003 0
0.8 0.003 0
0.81 0.003 0
0.82 0.003 0
0.83 0.003 0
0.84 0.003 0
0.85 0.003 0
0.86 0.003 0
0.87 0.003 0
0.88 0.003 0
0.89 0.003 0
0.9 0.003 0
0.91 0.003 0
0.92 0.003 0
0.93 0.003 0
0.94 0.003 0
0.95 0.003 0
0.96 0.003 0
0.97 0.003 0
0.98 0.003 0
0.99 0.003 0
0 0.004 0
0.01 0.004 0
0.02 0.004 0
0.03 0.004 0
0.04 0.004 0
0.05 0.004 0
0.06 0.004 0
0.07 0.004 0
0.08 0.004 0
0.09 0.004 0
0.1 0.004 0
0.11 0.004 0
0.12 0.004 0
0.13 0.004 0
0.14 0.004 0
0.15 0.004 0
0.16 0.004 0
0.17 0.004 0
0.18 0.004 0
0.19 0.004 0
0.2 0.004 0
0.21 0.004 0
0.22 0.004 0
0.23 0.004 0
0.24 0.004 0
0.25 0.004 0
0.26 0.004 0
0.27 0.004 0
0.28 0.004 0
0.29 0.004 0
0.3 0.004 0
0.31 0.004 0
0.32 0.004 0
0.33 0.004 0
0.34 0.004 0
0.35 0.004 0
0.36 0.004 0
0.37 0.004 0
0.38 0.004 0
0.39 0.004 0
0.4 0.004 0
0.41 0.004 0
0.42 0.004 0
0.43 0.004 0
0.44 0.004 0
0.45 0.004 0
0.46 0.004 0
0.47 0.004 0
0.48 0.004 0
0.49 0.004 0
0.5 0.004 0
0.51 0.004 0
0.52 0.004 0
0.53 0.004 0
0.54 0.004 0
0.55 0.004 0
0.56 0.004 0
0.57 0.004 0
0.58 0.004 0
0.59 0.004 0
0.6 0.004 0
0.61 0.004 0
0.62 0.004 0
0.63 0.004 0
0.64 0.004 0
0.65 0.004 0
0.66 0.004 0
0.67 0.004 0
0.68 0.004 0
0.69 0.004 0
0.7 0.004 0
0.71 0.004 0
0.72 0.004 0
0.73 0.004 0
0.74 0.004 0
0.75 0.004 0
0.76 0.004 0
0.77 0.004 0
0.78 0.004 0
0.79 0.004 0
0.8 0.004 0
0.81 0.004 0
0.82 0.004 0
0.83 0.004 0
0.84 0.004 0
0.85 0.004 0
0.86 0.004 0
0.87 0.004 0
0.88 0.004 0
0.89 0.004 0
0.9 0.004 0
0.91 0.004 0
0.92 0.004 0
0.93 0.004 0
0.94 0.004 0
0.95 0.004 0
0.96 0.004 0
0.97 0.004 0
0.98 0.004 0
0.99 0.004 0
0 0.005 0
0.01 0.005 0
0.02 0.005 0
0.03 0.005 0
0.04 0.005 0
0.05 0.005 0
0.06 0.005 0
0.07 0.005 0
0.08 0.005 0
0.09 0.005 0
0.1 0.005 0
0.11 0.005 0
0.12 0.005 0
0.13 0.005 0
0.14 0.005 0
0.15 0.005 0
0.16 0.005 0
0.17 0.005 0
0.18 0.005 0
0.19 0.005 0
0.2 0.005 0
0.21 0.005 0
0.22 0.005 0
0.23 0.005 0
0.24 0.005 0
0.25 0.005 0
0.26 0.005 0
0.27 0.005 0
0.28 0.005 0
0.29 0.005 0
0.3 0.005 0
0.31 0.005 0
0.32 0.005 0
0.33 0.005 0
0.34 0.005 0
0.35 0.005 0
0.36 0.005 0
0.37 0.005 0
0.38 0.005 0
0.39 0.005 0
0.4 0.005 0
0.41 0.005 0
0.42 0.005 0
0.43 0.005 0
0.44 0.005 0
0.45 0.005 0
0.46 0.005 0
0.47 0.005 0
0.48 0.005 0
0.49 0.005 0
0.5 0.005 0
0.51 0.005 0
0.52 0.005 0
0.53 0.005 0
0.54 0.005 0
0.55 0.005 0
0.56 0.005 0
0.57 0.005 0
0.58 0.005 0
0.59 0.005 0
0.6 0.005 0
0.61 0.005 0
0.62 0.005 0
0.63 0.005 0
0.64 0.005 0
0.65 0.005 0
0.66 0.005 0
0.67 0.005 0
0.68 0.005 0
0.69 0.005 0
0.7 0.005 0
0.71 0.005 0
0.72 0.005 0
0.73 0.005 0
0.74 0.005 0
0.75 0.005 0
0.76 0.005 0
0.77 0.005 0
0.78 0.005 0
0.79 0.005 0
0.8 0.005 0
0.81 0.005 0
0.82 0.005 0
0.83 0.005 0
0.84 0.005 0
0.85 0.005 0
0.86 0.005 0
0.87 0.005 0
0.88 0.005 0
0.89 0.005 0
0.9 0.005 0
0.91 0.005 0
0.92 0.005 0
0.93 0.005 0
0.94 0.005 0
0.95 0.005 0
0.96 0.005 0
0.97 0.005 0
0.98 0.005 0
0.99 0.005 0
0 0.006 0
0.01 0.006 0
0.02 0.006 0
0.03 0.006 0
0.04 0.006 0
0.05 0.006 0
0.06 0.006 0
0.07 0.006 0
0.08 0.006 0
0.09 0.006 0
0.1 0.006 0
0.11 0.006 0
0.12 0.006 0
0.13 0.006 0
0.14 0.006 0
0.15 0.006 0
0.16 0.006 0
0.17 0.006 0
0.18 0.006 0
0.19 0.006 0
0.2 0.006 0
0.21 0.006 0
0.22 0.006 0
0.23 0.006 0
0.24 0.006 0
0.25 0.006 0
0.26 0.006 0
0.27 0.006 0
0.28 0.006 0
0.29 0.006 0
0.3 0.006 0
0.31 0.006 0
0.32 0.006 0
0.33 0.006 0
0.34 0.006 0
0.35 0.006 0
0.36 0.006 0
0.37 0.006 0
0.38 0.006 0
0.39 0.006 0
0.4 0.006 0
0.41 0.006 0
0.42 0.006 0
0.43 0.006 0
0.44 0.006 0
0.45 0.006 0
0.46 0.006 0
0.47 0.006 0
0.48 0.006 0
0.49 0.006 0
0.5 0.006 0
0.51 0.006 0
0.52 0.006 0
0.53 0.006 0
0.54 0.006 0
0.55 0.006 0
0.56 0.006 0
0.57 0.006 0
0.58 0.006 0
0.59 0.006 0
0.6 0.006 0
0.61 0.006 0
0.62 0.006 0
0.63 0.006 0
0.64 0.006 0
0.65 0.006 0
0.66 0.006 0
0.67 0.006 0
0.68 0.006 0
0.69 0.006 0
0.7 0.006 0
0.71 0.006 0
0.72 0.006 0
0.73 0.006 0
0.74 0.006 0
0.75 0.006 0
0.76 0.006 0
0.77 0.006 0
0.78 0.006 0
0.79 0.006 0
0.8 0.006 0
0.81 0.006 0
0.82 0.006 0
0.83 0.006 0
0.84 0.006 0
0.85 0.006 0
0.86 0.006 0
0.87 0.006 0
0.88 0.006 0
0.89 0.006 0
0.9 0.006 0
0.91 0.006 0
0.92 0.006 0
0.93 0.006 0
0.94 0.006 0
0.95 0.006 0
0.96 0.006 0
0.97 0.006 0
0.98 0.006 0
0.99 0.006 0
0 0.007 0
0.01 0.007 0
0.02 0.007 0
0.03 0.007 0
0.04 0.007 0
0.05 0.007 0
0.06 0.007 0
0.07 0.007 0
0.08 0.007 0
0.09 0.007 0
0.1 0.007 0
0.11 0.007 0
0.12 0.007 0
0.13 0.007 0
0.14 0.007 0
0.15 0.007 0
0.16 0.007 0
0.17 0.007 0
0.18 0.007 0
0.19 0.007 0
0.2 0.007 0
0.21 0.007 0
0.22 0.007 0
0.23 0.007 0
0.24 0.007 0
0.25 0.007 0
0.26 0.007 0
0.27 0.007 0
0.28 0.007 0
0.29 0.007 0
0.3 0.007 0
0.31 0.007 0
0.32 0.007 0
0.33 0.007 0
0.34 0.007 0
0.35 0.007 0
0.36 0.007 0
0.37 0.007 0
0.38 0.007 0
0.39 0.007 0
0.4 0.007 0
0.41 0.007 0
0.42 0.007 0
0.43 0.007 0
0.44 0.007 0
0.45 0.007 0
0.46 0.007 0
0.47 0.007 0
0.48 0.007 0
0.49 0.007 0
0.5 0.007 0
0.51 0.007 0
0.52 0.007 0
0.53 0.007 0
0.54 0.007 0
0.55 0.007 0
0.56 0.007 0
0.57 0.007 0
0.58 0.007 0
0.59 0.007 0
0.6 0.007 0
0.61 0.007 0
0.62 0.007 0
0.63 0.007 0
0.64 0.007 0
0.65 0.007 0
0.66 0.007 0
0.67 0.007 0
0.68 0.007 0
0.69 0.007 0
0.7 0.007 0
0.71 0.007 0
0.72 0.007 0
0.73 0.007 0
0.74 0.007 0
0.75 0.007 0
0.76 0.007 0
0.77 0.007 0
0.78 0.007 0
0.79 0.007 0
0.8 0.007 0
0.81 0.007 0
0.82 0.007 0
0.83 0.007 0
0.84 0.007 0
0.85 0.007 0
0.86 0.007 0
0.87 0.007 0
0.88 0.007 0
0.89 0.007 0
0.9 0.007 0
0.91 0.007 0
0.92 0.007 0
0.93 0.007 0
0.94 0.007 0
0.95 0.007 0
0.96 0.007 0
0.97 0.007 0
0.98 0.007 0
[...]
POINT_DATA 10000

SCALARS vel_X float 1
LOOKUP_TABLE default
0
0
0
0
0
0
0
0
0
0
0
0
0
0
0
0
0
0
0
0
0
0
0
0
0
0
0
0
0
0
0
0
0
0
0
0
0
0
0
0
0
0
0
0
0
0
0
0
0
0
0
0
0
0
0
0
0
0
0
0
0
0
0
0
0
0
0
0
0
0
0
0
0
0
0
0
0
0
0
0
0
0
0
0
0
0
0
0
0
0
0
0
0
0
0
0
0
0
0
0
1
0.383127
0.321938
0.297031
0.435779
0.4427
0.269698
0.103959
0.0321589
0.00495961
0.0030494
-0.00162824
0.00184152
-0.00181385
0.00181701
-0.00181668
0.00181671
-0.00181671
0.00181671
-0.00181671
0.00181671
-0.00181671
0.00181671
-0.00181671
0.00181671
-0.00181671
0.00181671
-0.00181671
0.00181671
-0.00181671
0.00181671
-0.00181671
0.00181671
-0.00181671
0.00181671
-0.00181671
0.00181671
-0.00181671
0.00181671
-0.00181671
0.00181671
-0.00181671
0.00181671
-0.00181671
0.00181671
-0.00181671
0.00181671
-0.00181671
0.00181671
-0.00181671
0.00181671
-0.00181671
0.00181671
-0.00181671
0.00181671
-0.00181671
0.00181671
-0.00181671
0.00181671
-0.00181671
0.00181671
-0.00181671
0.00181671
-0.00181671
0.00181671
-0.00181671
0.00181671
-0.00181671
0.00181671
-0.00181671
0.00181671
-0.00181671
0.00181671
-0.00181671
0.00181671
-0.00181671
0.00181671
-0.00181671
0.00181671
-0.00181671
0.00181671
-0.00181671
0.00181671
-0.00181671
0.00181671
-0.00181671
0.00181671
-0.00181675
0.00181624
-0.00182075
0.00179339
-0.00189681
0.0017113
-0.00167409
0.00195837
-0.0028839
0.00191503
-0.00230364
-0.0597947
-0.0597947
1
0.670854
0.588321
0.569468
0.745155
0.696729
0.407281
0.154493
0.0469944
0.00754366
0.00419267
-0.00210994
0.00242305
-0.00238232
0.00238698
-0.00238651
0.00238655
-0.00238655
0.00238655
-0.00238655
0.00238655
-0.00238655
0.00238655
-0.00238655
0.00238655
-0.00238655
0.00238655
-0.00238655
0.00238655
-0.00238655
0.00238655
-0.00238655
0.00238655
-0.00238655
0.00238655
-0.00238655
0.00238655
-0.00238655
0.00238655
-0.00238655
0.00238655
-0.00238655
0.00238655
-0.00238655
0.00238655
-0.00238655
0.00238655
-0.00238655
0.00238655
-0.00238655
0.00238655
-0.00238655
0.00238655
-0.00238655
0.00238655
-0.00238655
0.00238655
-0.00238655
0.00238655
-0.00238655
0.00238655
-0.00238655
0.00238655
-0.00238655
0.00238655
-0.00238655
0.00238655
-0.00238655
0.00238655
-0.00238655
0.00238655
-0.00238655
0.00238655
-0.00238655
0.00238655
-0.00238655
0.00238655
-0.00238655
0.00238655
-0.00238655
0.00238655
-0.00238655
0.00238655
-0.00238655
0.00238655
-0.00238655
0.00238654
-0.00238661
0.00238585
-0.00239246
0.00235248
-0.00250481
0.00221897
-0.00222181
0.00260022
-0.00384029
0.00225164
-0.00187433
0.0745826
0.0745826
1
0.86937
0.799015
0.779343
0.930546
0.831854
0.481003
0.184236
0.0558402
0.00983257
0.00447763
-0.00190426
0.00229635
-0.00224467
0.00225067
-0.00225005
0.0022501
-0.0022501
0.0022501
-0.0022501
0.0022501
-0.0022501
0.0022501
-0.0022501
0.0022501
-0.0022501
0.0022501
-0.0022501
0.0022501
-0.0022501
0.0022501
-0.0022501
0.0022501
-0.0022501
0.0022501
-0.0022501
0.0022501
-0.0022501
0.0022501
-0.0022501
0.0022501
-0.0022501
0.0022501
-0.0022501
0.0022501
-0.0022501
0.0022501
-0.0022501
0.0022501
-0.0022501
0.0022501
-0.0022501
0.0022501
-0.0022501
0.0022501
-0.0022501
0.0022501
-0.0022501
0.0022501
-0.0022501
0.0022501
-0.0022501
0.0022501
-0.0022501
0.0022501
-0.0022501
0.0022501
-0.0022501
0.0022501
-0.0022501
0.0022501
-0.0022501
0.0022501
-0.0022501
0.0022501
-0.0022501
0.0022501
-0.0022501
0.0022501
-0.0022501
0.0022501
-0.0022501
0.0022501
-0.0022501
0.0022501
-0.0022501
0.00225009
-0.00225018
0.00224921
-0.00225737
0.00220937
-0.00238752
0.00205928
-0.0020842
0.00242908
-0.00380587
0.00209051
-0.00223745
-0.0648622
-0.0648622
1
0.995478
0.951991
0.918504
1.02615
0.901144
0.525948
0.206241
0.062974
0.0121478
0.00454582
-0.00148648
0.0019611
-0.00189747
0.00190497
-0.00190418
0.00190426
-0.00190425
0.00190425
-0.00190425
0.00190425
-0.00190425
0.00190425
-0.00190425
0.00190425
-0.00190425
0.00190425
-0.00190425
0.00190425
-0.00190425
0.00190425
-0.00190425
0.00190425
-0.00190425
0.00190425
-0.00190425
0.00190425
-0.00190425
0.00190425
-0.00190425
0.00190425
-0.00190425
0.00190425
-0.00190425
0.00190425
-0.00190425
0.00190425
-0.00190425
0.00190425
-0.00190425
0.00190425
-0.00190425
0.00190425
-0.00190425
0.00190425
-0.00190425
0.00190425
-0.00190425
0.00190425
-0.00190425
0.00190425
-0.00190425
0.00190425
-0.00190425
0.00190425
-0.00190425
0.00190425
-0.00190425
0.00190425
-0.00190425
0.00190425
-0.00190425
0.00190425
-0.00190425
0.00190425
-0.00190425
0.00190425
-0.00190425
0.00190425
-0.00190425
0.00190425
-0.00190425
0.00190425
-0.00190425
0.00190425
-0.00190425
0.00190425
-0.00190435
0.00190317
-0.00191283
0.00185809
-0.00205254
0.00171405
-0.00172845
0.00199246
-0.00347171
0.0019489
-0.00142929
0.0716712
0.0716712
1
1.06733
1.05078
0.99895
1.06708
0.93669
0.558049
0.225374
0.0698079
0.0145367
0.00462852
-0.00104218
0.00160953
-0.00153207
0.00154136
-0.00154036
0.00154046
-0.00154045
0.00154045
-0.00154045
0.00154045
-0.00154045
0.00154045
-0.00154045
0.00154045
-0.00154045
0.00154045
-0.00154045
0.00154045
-0.00154045
0.00154045
-0.00154045
0.00154045
-0.00154045
0.00154045
-0.00154045
0.00154045
-0.00154045
0.00154045
-0.00154045
0.00154045
-0.00154045
0.00154045
-0.00154045
0.00154045
-0.00154045
0.00154045
-0.00154045
0.00154045
-0.00154045
0.00154045
-0.00154045
0.00154045
-0.00154045
0.00154045
-0.00154045
0.00154045
-0.00154045
0.00154045
-0.00154045
0.00154045
-0.00154045
0.00154045
-0.00154045
0.00154045
-0.00154045
0.00154045
-0.00154045
0.00154045
-0.00154045
0.00154045
-0.00154045
0.00154045
-0.00154045
0.00154045
-0.00154045
0.00154045
-0.00154045
0.00154045
-0.00154045
0.00154045
-0.00154045
0.00154045
-0.00154045
0.00154045
-0.00154045
0.00154044
-0.00154058
0.00153914
-0.0015504
0.00148927
-0.00169556
0.0013637
-0.00134584
0.00152207
-0.00308365
0.00188127
-0.00186093
-0.0666134
-0.0666134
1
1.10102
1.10514
1.03909
1.07869
0.955462
0.583864
0.243323
0.0767021
0.0170447
0.00475239
-0.000585481
0.00125795
-0.0011644
0.00117581
-0.00117458
0.0011747
-0.00117469
0.00117469
-0.00117469
0.00117469
-0.00117469
0.00117469
-0.00117469
0.00117469
-0.00117469
0.00117469
-0.00117469
0.00117469
-0.00117469
0.00117469
-0.00117469
0.00117469
-0.00117469
0.00117469
-0.00117469
0.00117469
-0.00117469
0.00117469
-0.00117469
0.00117469
-0.00117469
0.00117469
-0.00117469
0.00117469
-0.00117469
0.00117469
-0.00117469
0.00117469
-0.00117469
0.00117469
-0.00117469
0.00117469
-0.00117469
0.00117469
-0.00117469
0.00117469
-0.00117469
0.00117469
-0.00117469
0.00117469
-0.00117469
0.00117469
-0.00117469
0.00117469
-0.00117469
0.00117469
-0.00117469
0.00117469
-0.00117469
0.00117469
-0.00117469
0.00117469
-0.00117469
0.00117469
-0.00117469
0.00117469
-0.00117469
0.00117469
-0.00117469
0.00117469
-0.00117469
0.00117469
-0.00117469
0.00117469
-0.00117469
0.00117468
-0.00117484
0.00117313
-0.00118607
0.00111873
-0.001334
0.00101819
-0.000958921
0.0010519
-0.0026612
0.00181508
-0.00111969
0.0705561
0.0705561
1
1.10978
1.12766
1.05527
1.07625
0.965662
0.605916
0.260569
0.0837103
0.0196886
0.00491234
-0.000107769
0.000898795
-0.000786682
0.000800599
-0.000799064
0.000799216
-0.000799202
0.000799203
-0.000799203
0.000799203
-0.000799203
0.000799203
-0.000799203
0.000799203
-0.000799203
0.000799203
-0.000799203
0.000799203
-0.000799203
0.000799203
-0.000799203
0.000799203
-0.000799203
0.000799203
-0.000799203
0.000799203
-0.000799203
0.000799203
-0.000799203
0.000799203
-0.000799203
0.000799203
-0.000799203
0.000799203
-0.000799203
0.000799203
-0.000799203
0.000799203
-0.000799203
0.000799203
-0.000799203
0.000799203
-0.000799203
0.000799203
-0.000799203
0.000799203
-0.000799203
0.000799203
-0.000799203
0.000799203
-0.000799203
0.000799203
-0.000799203
0.000799203
-0.000799203
0.000799203
-0.000799203
0.000799203
-0.000799203
0.000799203
-0.000799203
0.000799203
-0.000799203
0.000799203
-0.000799203
0.000799203
-0.000799203
0.000799203
-0.000799203
0.000799203
-0.000799203
0.000799203
-0.000799203
0.000799203
-0.000799204
0.000799189
-0.00079939
0.000797377
-0.000812079
0.00073874
-0.000960529
0.000666699
-0.000565347
0.00057967
-0.00219417
0.00168531
-0.00155286
-0.0673717
-0.0673717
1
1.10396
1.13016
1.05887
1.06796
0.971086
0.625145
0.277178
0.0908073
0.0224617
0.00510847
0.0003916
0.000532157
-0.000398756
0.000415609
-0.000413719
0.00041391
-0.000413892
0.000413894
-0.000413894
0.000413894
-0.000413894
0.000413894
-0.000413894
0.000413894
-0.000413894
0.000413894
-0.000413894
0.000413894
-0.000413894
0.000413894
-0.000413894
0.000413894
-0.000413894
0.000413894
-0.000413894
0.000413894
-0.000413894
0.000413894
-0.000413894
0.000413894
-0.000413894
0.000413894
-0.000413894
0.000413894
-0.000413894
0.000413894
-0.000413894
0.000413894
-0.000413894
0.000413894
-0.000413894
0.000413894
-0.000413894
0.000413894
-0.000413894
0.000413894
-0.000413894
0.000413894
-0.000413894
0.000413894
-0.000413894
0.000413894
-0.000413894
0.000413894
-0.000413894
0.000413894
-0.000413894
0.000413894
-0.000413894
0.000413894
-0.000413894
0.000413894
-0.000413894
0.000413894
-0.000413894
0.000413894
-0.000413894
0.000413894
-0.000413894
0.000413894
-0.000413894
0.000413894
-0.000413894
0.000413894
-0.000413895
0.000413876
-0.000414118
0.000411769
-0.000428307
0.000349264
-0.000575169
0.000307448
-0.000167977
0.000106601
-0.00168534
0.00148659
-0.000785393
0.0700037
0.0700037
1
1.09104
1.12176
1.05671
1.05786
0.973513
0.64195
0.293079
0.0979651
0.0253309
0.00536101
0.000891936
0.000179272
-2.16593e-05
4.1926e-05
-3.96153e-05
3.98518e-05
-3.98298e-05
3.98317e-05
-3.98316e-05
3.98316e-05
-3.98316e-05
3.98316e-05
-3.98316e-05
3.98316e-05
-3.98316e-05
3.98316e-05
-3.98316e-05
3.98316e-05
-3.98316e-05
3.98316e-05
-3.98316e-05
3.98316e-05
-3.98316e-05
3.98316e-05
-3.98316e-05
3.98316e-05
-3.98316e-05
3.98316e-05
-3.98316e-05
3.98316e-05
-3.98316e-05
3.98316e-05
-3.98316e-05
3.98316e-05
-3.98316e-05
3.98316e-05
-3.98316e-05
3.98316e-05
-3.98316e-05
3.98316e-05
-3.98316e-05
3.98316e-05
-3.98316e-05
3.98316e-05
-3.98316e-05
3.98316e-05
-3.98316e-05
3.98316e-05
-3.98316e-05
3.98316e-05
-3.98316e-05
3.98316e-05
-3.98316e-05
3.98316e-05
-3.98316e-05
3.98316e-05
-3.98316e-05
3.98316e-05
-3.98316e-05
3.98316e-05
-3.98316e-05
3.98316e-05
-3.98316e-05
3.98316e-05
-3.98316e-05
3.98316e-05
-3.98316e-05
3.98316e-05
-3.98316e-05
3.98316e-05
-3.98316e-05
3.98316e-05
-3.98316e-05
3.98315e-05
-3.98329e-05
3.98097e-05
-4.00986e-05
3.73861e-05
-5.58027e-05
-2.85418e-05
-0.000199071
-3.96067e-05
0.000210918
-0.000345484
-0.00116313
0.00122872
-0.00119681
-0.0678008
-0.0678008
1
1.07598
1.10847
1.05237
1.04779
0.973878
0.656547
0.308182
0.105145
0.0282662
0.00568412
0.0013778
-0.000144019
0.000328959
-0.000304756
0.000307562
-0.00030727
0.000307298
-0.000307295
0.000307295
-0.000307295
0.000307295
-0.000307295
0.000307295
-0.000307295
0.000307295
-0.000307295
0.000307295
-0.000307295
0.000307295
-0.000307295
0.000307295
-0.000307295
0.000307295
-0.000307295
0.000307295
-0.000307295
0.000307295
-0.000307295
0.000307295
-0.000307295
0.000307295
-0.000307295
0.000307295
-0.000307295
0.000307295
-0.000307295
0.000307295
-0.000307295
0.000307295
-0.000307295
0.000307295
-0.000307295
0.000307295
-0.000307295
0.000307295
-0.000307295
0.000307295
-0.000307295
0.000307295
-0.000307295
0.000307295
-0.000307295
0.000307295
-0.000307295
0.000307295
-0.000307295
0.000307295
-0.000307295
0.000307295
-0.000307295
0.000307295
-0.000307295
0.000307295
-0.000307295
0.000307295
-0.000307295
0.000307295
-0.000307295
0.000307295
-0.000307295
0.000307295
-0.000307295
0.000307295
-0.000307296
0.000307294
-0.000307322
0.000306981
-0.000310083
0.000289768
-0.00037892
0.000151972
-0.000359665
0.000555501
-0.000759933
-0.000651884
0.000941549
-0.000420212
0.0696522
0.0696522
1
1.06157
1.09383
1.04755
1.03857
0.972757
0.66912
0.322404
0.112314
0.0312326
0.00609498
0.00182999
-0.000418266
0.000633824
-0.000605114
0.000608499
-0.000608141
0.000608175
-0.000608172
0.000608172
-0.000608172
0.000608172
-0.000608172
0.000608172
-0.000608172
0.000608172
-0.000608172
0.000608172
-0.000608172
0.000608172
-0.000608172
0.000608172
-0.000608172
0.000608172
-0.000608172
0.000608172
-0.000608172
0.000608172
-0.000608172
0.000608172
-0.000608172
0.000608172
-0.000608172
0.000608172
-0.000608172
0.000608172
-0.000608172
0.000608172
-0.000608172
0.000608172
-0.000608172
0.000608172
-0.000608172
0.000608172
-0.000608172
0.000608172
-0.000608172
0.000608172
-0.000608172
0.000608172
-0.000608172
0.000608172
-0.000608172
0.000608172
-0.000608172
0.000608172
-0.000608172
0.000608172
-0.000608172
0.000608172
-0.000608172
0.000608172
-0.000608172
0.000608172
-0.000608172
0.000608172
-0.000608172
0.000608172
-0.000608172
0.000608172
-0.000608172
0.000608172
-0.000608172
0.000608172
-0.000608173
0.00060817
-0.000608204
0.000607805
-0.000611319
0.000589115
-0.000682496
0.000458498
-0.000634174
0.000846892
-0.00111643
-0.00017921
0.000640919
-0.000834107
-0.0680998
-0.0680998
1
1.04913
1.07963
1.0429
1.0305
0.970579
0.67984
0.335694
0.119427
0.0342078
0.00659696
0.00224246
-0.000637328
0.000886946
-0.000853114
0.000857169
-0.000856734
0.000856776
-0.000856773
0.000856773
-0.000856773
0.000856773
-0.000856773
0.000856773
-0.000856773
0.000856773
-0.000856773
0.000856773
-0.000856773
0.000856773
-0.000856773
0.000856773
-0.000856773
0.000856773
-0.000856773
0.000856773
-0.000856773
0.000856773
-0.000856773
0.000856773
-0.000856773
0.000856773
-0.000856773
0.000856773
-0.000856773
0.000856773
-0.000856773
0.000856773
-0.000856773
0.000856773
-0.000856773
0.000856773
-0.000856773
0.000856773
-0.000856773
0.000856773
-0.000856773
0.000856773
-0.000856773
0.000856773
-0.000856773
0.000856773
-0.000856773
0.000856773
-0.000856773
0.000856773
-0.000856773
0.000856773
-0.000856773
0.000856773
-0.000856773
0.000856773
-0.000856773
0.000856773
-0.000856773
0.000856773
-0.000856773
0.000856773
-0.000856773
0.000856773
-0.000856773
0.000856773
-0.000856773
0.000856773
-0.000856773
0.00085677
-0.000856811
0.000856348
-0.000860293
0.000836234
-0.0009332
0.000714295
-0.000857766
0.00107983
-0.00140819
0.000241763
0.000350932
-6.94279e-05
0.0693917
0.0693917
1
1.039
1.06669
1.03866
1.02367
0.967679
0.68889
0.348015
0.126448
0.0371663
0.00719557
0.0026064
-0.000792461
0.00107971
-0.0010401
0.00104492
-0.0010444
0.00104445
-0.00104444
0.00104445
-0.00104445
0.00104445
-0.00104445
0.00104445
-0.00104445
0.00104445
-0.00104445
0.00104445
-0.00104445
0.00104445
-0.00104445
0.00104445
-0.00104445
0.00104445
-0.00104445
0.00104445
-0.00104445
0.00104445
-0.00104445
0.00104445
-0.00104445
0.00104445
-0.00104445
0.00104445
-0.00104445
0.00104445
-0.00104445
0.00104445
-0.00104445
0.00104445
-0.00104445
0.00104445
-0.00104445
0.00104445
-0.00104445
0.00104445
-0.00104445
0.00104445
-0.00104445
0.00104445
-0.00104445
0.00104445
-0.00104445
0.00104445
-0.00104445
0.00104445
-0.00104445
0.00104445
-0.00104445
0.00104445
-0.00104445
0.00104445
-0.00104445
0.00104445
-0.00104445
0.00104445
-0.00104445
0.00104445
-0.00104445
0.00104445
-0.00104445
0.00104445
-0.00104445
0.00104445
-0.00104445
0.00104444
-0.00104449
0.00104396
-0.00104835
0.0010225
-0.00112235
0.000910492
-0.00102234
0.00124665
-0.00162621
0.000596447
7.9143e-05
-0.000503732
-0.0683295
-0.0683295
1
1.03104
1.05524
1.03482
1.01804
0.96434
0.696446
0.359359
0.133333
0.0400944
0.00788404
0.00292471
-0.000886806
0.00121535
-0.00116926
0.00117497
-0.00117434
0.0011744
-0.0011744
0.0011744
-0.0011744
0.0011744
-0.0011744
0.0011744
-0.0011744
0.0011744
-0.0011744
0.0011744
-0.0011744
0.0011744
-0.0011744
0.0011744
-0.0011744
0.0011744
-0.0011744
0.0011744
-0.0011744
0.0011744
-0.0011744
0.0011744
-0.0011744
0.0011744
-0.0011744
0.0011744
-0.0011744
0.0011744
-0.0011744
0.0011744
-0.0011744
0.0011744
-0.0011744
0.0011744
-0.0011744
0.0011744
-0.0011744
0.0011744
-0.0011744
0.0011744
-0.0011744
0.0011744
-0.0011744
0.0011744
-0.0011744
0.0011744
-0.0011744
0.0011744
-0.0011744
0.0011744
-0.0011744
0.0011744
-0.0011744
0.0011744
-0.0011744
0.0011744
-0.0011744
0.0011744
-0.0011744
0.0011744
-0.0011744
0.0011744
-0.0011744
0.0011744
-0.0011744
0.0011744
-0.0011744
0.00117439
-0.00117445
0.00117384
-0.00117869
0.00115113
-0.00125315
0.00105006
-0.00113154
0.00135162
-0.00177383
0.00088341
-0.000158376
0.000232615
0.0691888
0.0691888
1
1.0249
1.04532
1.03135
1.01353
0.960783
0.702688
0.369731
0.140047
0.0429744
0.00865966
0.00319578
-0.000919146
0.00129273
-0.00123942
0.00124613
-0.00124538
0.00124545
-0.00124545
0.00124545
-0.00124545
0.00124545
-0.00124545
0.00124545
-0.00124545
0.00124545
-0.00124545
0.00124545
-0.00124545
0.00124545
-0.00124545
0.00124545
-0.00124545
0.00124545
-0.00124545
0.00124545
-0.00124545
0.00124545
-0.00124545
0.00124545
-0.00124545
0.00124545
-0.00124545
0.00124545
-0.00124545
0.00124545
-0.00124545
0.00124545
-0.00124545
0.00124545
-0.00124545
0.00124545
-0.00124545
0.00124545
-0.00124545
0.00124545
-0.00124545
0.00124545
-0.00124545
0.00124545
-0.00124545
0.00124545
-0.00124545
0.00124545
-0.00124545
0.00124545
-0.00124545
0.00124545
-0.00124545
0.00124545
-0.00124545
0.00124545
-0.00124545
0.00124545
-0.00124545
0.00124545
-0.00124545
0.00124545
-0.00124545
0.00124545
-0.00124545
0.00124545
-0.00124545
0.00124545
-0.00124545
0.00124544
-0.00124551
0.00124483
-0.00125014
0.00122098
-0.0013244
0.00113157
-0.0011845
0.0013947
-0.0018504
0.00109789
-0.000361512
-0.000236505
-0.0685081
-0.0685081
1
1.02021
1.03681
1.02816
1.01002
0.957195
0.707782
0.379158
0.146553
0.0457992
0.00950926
0.00342808
-0.000898488
0.00132088
-0.00125958
0.00126743
-0.00126653
0.00126662
-0.00126661
0.00126662
-0.00126662
0.00126662
-0.00126662
0.00126662
-0.00126662
0.00126662
-0.00126662
0.00126662
-0.00126662
0.00126662
-0.00126662
0.00126662
-0.00126662
0.00126662
-0.00126662
0.00126662
-0.00126662
0.00126662
-0.00126662
0.00126662
-0.00126662
0.00126662
-0.00126662
0.00126662
-0.00126662
0.00126662
-0.00126662
0.00126662
-0.00126662
0.00126662
-0.00126662
0.00126662
-0.00126662
0.00126662
-0.00126662
0.00126662
-0.00126662
0.00126662
-0.00126662
0.00126662
-0.00126662
0.00126662
-0.00126662
0.00126662
-0.00126662
0.00126662
-0.00126662
0.00126662
-0.00126662
0.00126662
-0.00126662
0.00126662
-0.00126662
0.00126662
-0.00126662
0.00126662
-0.00126662
0.00126662
-0.00126662
0.00126662
-0.00126662
0.00126662
-0.00126662
0.00126662
-0.00126662
0.00126661
-0.00126669
0.00126592
-0.00127169
0.00124107
-0.00134516
0.00116378
-0.00119044
0.001386
-0.00186584
0.00124645
-0.000520975
0.000460327
0.069033
0.069033
1
1.01663
1.02958
1.02522
1.0074
0.953708
0.711892
0.387671
0.152824
0.0485565
0.0104254
0.00362395
-0.00082789
0.00130287
-0.00123278
0.0012419
-0.00124084
0.00124095
-0.00124094
0.00124094
-0.00124094
0.00124094
-0.00124094
0.00124094
-0.00124094
0.00124094
-0.00124094
0.00124094
-0.00124094
0.00124094
-0.00124094
0.00124094
-0.00124094
0.00124094
-0.00124094
0.00124094
-0.00124094
0.00124094
-0.00124094
0.00124094
-0.00124094
0.00124094
-0.00124094
0.00124094
-0.00124094
0.00124094
-0.00124094
0.00124094
-0.00124094
0.00124094
-0.00124094
0.00124094
-0.00124094
0.00124094
-0.00124094
0.00124094
-0.00124094
0.00124094
-0.00124094
0.00124094
-0.00124094
0.00124094
-0.00124094
0.00124094
-0.00124094
0.00124094
-0.00124094
0.00124094
-0.00124094
0.00124094
-0.00124094
0.00124094
-0.00124094
0.00124094
-0.00124094
0.00124094
-0.00124094
0.00124094
-0.00124094
0.00124094
-0.00124094
0.00124094
-0.00124094
0.00124094
-0.00124094
0.00124093
-0.00124102
0.00124017
-0.0012464
0.00121446
-0.00131848
0.0011495
-0.00115249
0.00132963
-0.00182441
0.00133058
-0.000642582
-5.06048e-05
-0.0686422
-0.0686422
1
1.01387
1.02348
1.02246
1.00552
0.950429
0.715162
0.395321
0.158829
0.0512438
0.0113919
0.00379434
-0.000719126
0.00125043
-0.00117073
0.00118126
-0.00118002
0.00118015
-0.00118014
0.00118014
-0.00118014
0.00118014
-0.00118014
0.00118014
-0.00118014
0.00118014
-0.00118014
0.00118014
-0.00118014
0.00118014
-0.00118014
0.00118014
-0.00118014
0.00118014
-0.00118014
0.00118014
-0.00118014
0.00118014
-0.00118014
0.00118014
-0.00118014
0.00118014
-0.00118014