# vtk DataFile Version 2.0
FlowField
ASCII
DATASET STRUCTURED_GRID
DIMENSIONS 400 1 200
POINTS 80000 float
0 0 0
0.08 0 0
0.16 0 0
0.24 0 0
0.32 0 0
0.4 0 0
0.48 0 0
0.56 0 0
0.64 0 0
0.72 0 0
0.8 0 0
0.88 0 0
0.96 0 0
1.04 0 0
1.12 0 0
1.2 0 0
1.28 0 0
1.36 0 0
1.44 0 0
1.52 0 0
1.6 0 0
1.68 0 0
1.76 0 0
1.84 0 0
1.92 0 0
2 0 0
2.08 0 0
2.16 0 0
2.24 0 0
2.32 0 0
2.4 0 0
2.48 0 0
2.56 0 0
2.64 0 0
2.72 0 0
2.8 0 0
2.88 0 0
2.96 0 0
3.04 0 0
3.12 0 0
3.2 0 0
3.28 0 0
3.36 0 0
3.44 0 0
3.52 0 0
3.6 0 0
3.68 0 0
3.76 0 0
3.84 0 0
3.92 0 0
4 0 0
4.08 0 0
4.16 0 0
4.24 0 0
4.32 0 0
4.4 0 0
4.48 0 0
4.56 0 0
4.64 0 0
4.72 0 0
4.8 0 0
4.88 0 0
4.96 0 0
5.04 0 0
5.12 0 0
5.2 0 0
5.28 0 0
5.36 0 0
5.44 0 0
5.52 0 0
5.6 0 0
5.68 0 0
5.76 0 0
5.84 0 0
5.92 0 0
6 0 0
6.08 0 0
6.16 0 0
6.24 0 0
6.32 0 0
6.4 0 0
6.48 0 0
6.56 0 0
6.64 0 0
6.72 0 0
6.8 0 0
6.88 0 0
6.96 0 0
7.04 0 0
7.12 0 0
7.2 0 0
7.28 0 0
7.36 0 0
7.44 0 0
7.52 0 0
7.6 0 0
7.68 0 0
7.76 0 0
7.84 0 0
7.92 0 0
8 0 0
8.08 0 0
8.16 0 0
8.24 0 0
8.32 0 0
8.4 0 0
8.48 0 0
8.56 0 0
8.64 0 0
8.72 0 0
8.8 0 0
8.88 0 0
8.96 0 0
9.04 0 0
9.12 0 0
9.2 0 0
9.28 0 0
9.36 0 0
9.44 0 0
9.52 0 0
9.6 0 0
9.68 0 0
9.76 0 0
9.84 0 0
9.92 0 0
10 0 0
10.08 0 0
10.16 0 0
10.24 0 0
10.32 0 0
10.4 0 0
10.48 0 0
10.56 0 0
10.64 0 0
10.72 0 0
10.8 0 0
10.88 0 0
10.96 0 0
11.04 0 0
11.12 0 0
11.2 0 0
11.28 0 0
11.36 0 0
11.44 0 0
11.52 0 0
11.6 0 0
11.68 0 0
11.76 0 0
11.84 0 0
11.92 0 0
12 0 0
12.08 0 0
12.16 0 0
12.24 0 0
12.32 0 0
12.4 0 0
12.48 0 0
12.56 0 0
12.64 0 0
12.72 0 0
12.8 0 0
12.88 0 0
12.96 0 0
13.04 0 0
13.12 0 0
13.2 0 0
13.28 0 0
13.36 0 0
13.44 0 0
13.52 0 0
13.6 0 0
13.68 0 0
13.76 0 0
13.84 0 0
13.92 0 0
14 0 0
14.08 0 0
14.16 0 0
14.24 0 0
14.32 0 0
14.4 0 0
14.48 0 0
14.56 0 0
14.64 0 0
14.72 0 0
14.8 0 0
14.88 0 0
14.96 0 0
15.04 0 0
15.12 0 0
15.2 0 0
15.28 0 0
15.36 0 0
15.44 0 0
15.52 0 0
15.6 0 0
15.68 0 0
15.76 0 0
15.84 0 0
15.92 0 0
16 0 0
16.08 0 0
16.16 0 0
16.24 0 0
16.32 0 0
16.4 0 0
16.48 0 0
16.56 0 0
16.64 0 0
16.72 0 0
16.8 0 0
16.88 0 0
16.96 0 0
17.04 0 0
17.12 0 0
17.2 0 0
17.28 0 0
17.36 0 0
17.44 0 0
17.52 0 0
17.6 0 0
17.68 0 0
17.76 0 0
17.84 0 0
17.92 0 0
18 0 0
18.08 0 0
18.16 0 0
18.24 0 0
18.32 0 0
18.4 0 0
18.48 0 0
18.56 0 0
18.64 0 0
18.72 0 0
18.8 0 0
18.88 0 0
18.96 0 0
19.04 0 0
19.12 0 0
19.2 0 0
19.28 0 0
19.36 0 0
19.44 0 0
19.52 0 0
19.6 0 0
19.68 0 0
19.76 0 0
19.84 0 0
19.92 0 0
20 0 0
20.08 0 0
20.16 0 0
20.24 0 0
20.32 0 0
20.4 0 0
20.48 0 0
20.56 0 0
20.64 0 0
20.72 0 0
20.8 0 0
20.88 0 0
20.96 0 0
21.04 0 0
21.12 0 0
21.2 0 0
21.28 0 0
21.36 0 0
21.44 0 0
21.52 0 0
21.6 0 0
21.68 0 0
21.76 0 0
21.84 0 0
21.92 0 0
22 0 0
22.08 0 0
22.16 0 0
22.24 0 0
22.32 0 0
22.4 0 0
22.48 0 0
22.56 0 0
22.64 0 0
22.72 0 0
22.8 0 0
22.88 0 0
22.96 0 0
23.04 0 0
23.12 0 0
23.2 0 0
23.28 0 0
23.36 0 0
23.44 0 0
23.52 0 0
23.6 0 0
23.68 0 0
23.76 0 0
23.84 0 0
23.92 0 0
24 0 0
24.08 0 0
24.16 0 0
24.24 0 0
24.32 0 0
24.4 0 0
24.48 0 0
24.56 0 0
24.64 0 0
24.72 0 0
24.8 0 0
24.88 0 0
24.96 0 0
25.04 0 0
25.12 0 0
25.2 0 0
25.28 0 0
25.36 0 0
25.44 0 0
25.52 0 0
25.6 0 0
25.68 0 0
25.76 0 0
25.84 0 0
25.92 0 0
26 0 0
26.08 0 0
26.16 0 0
26.24 0 0
26.32 0 0
26.4 0 0
26.48 0 0
26.56 0 0
26.64 0 0
26.72 0 0
26.8 0 0
26.88 0 0
26.96 0 0
27.04 0 0
27.12 0 0
27.2 0 0
27.28 0 0
27.36 0 0
27.44 0 0
27.52 0 0
27.6 0 0
27.68 0 0
27.76 0 0
27.84 0 0
27.92 0 0
28 0 0
28.08 0 0
28.16 0 0
28.24 0 0
28.32 0 0
28.4 0 0
28.48 0 0
28.56 0 0
28.64 0 0
28.72 0 0
28.8 0 0
28.88 0 0
28.96 0 0
29.04 0 0
29.12 0 0
29.2 0 0
29.28 0 0
29.36 0 0
29.44 0 0
29.52 0 0
29.6 0 0
29.68 0 0
29.76 0 0
29.84 0 0
29.92 0 0
30 0 0
30.08 0 0
30.16 0 0
30.24 0 0
30.32 0 0
30.4 0 0
30.48 0 0
30.56 0 0
30.64 0 0
30.72 0 0
30.8 0 0
30.88 0 0
30.96 0 0
31.04 0 0
31.12 0 0
31.2 0 0
31.28 0 0
31.36 0 0
31.44 0 0
31.52 0 0
31.6 0 0
31.68 0 0
31.76 0 0
31.84 0 0
31.92 0 0
0 0.005 0
0.08 0.005 0
0.16 0.005 0
0.24 0.005 0
0.32 0.005 0
0.4 0.005 0
0.48 0.005 0
0.56 0.005 0
0.64 0.005 0
0.72 0.005 0
0.8 0.005 0
0.88 0.005 0
0.96 0.005 0
1.04 0.005 0
1.12 0.005 0
1.2 0.005 0
1.28 0.005 0
1.36 0.005 0
1.44 0.005 0
1.52 0.005 0
1.6 0.005 0
1.68 0.005 0
1.76 0.005 0
1.84 0.005 0
1.92 0.005 0
2 0.005 0
2.08 0.005 0
2.16 0.005 0
2.24 0.005 0
2.32 0.005 0
2.4 0.005 0
2.48 0.005 0
2.56 0.005 0
2.64 0.005 0
2.72 0.005 0
2.8 0.005 0
2.88 0.005 0
2.96 0.005 0
3.04 0.005 0
3.12 0.005 0
3.2 0.005 0
3.28 0.005 0
3.36 0.005 0
3.44 0.005 0
3.52 0.005 0
3.6 0.005 0
3.68 0.005 0
3.76 0.005 0
3.84 0.005 0
3.92 0.005 0
4 0.005 0
4.08 0.005 0
4.16 0.005 0
4.24 0.005 0
4.32 0.005 0
4.4 0.005 0
4.48 0.005 0
4.56 0.005 0
4.64 0.005 0
4.72 0.005 0
4.8 0.005 0
4.88 0.005 0
4.96 0.005 0
5.04 0.005 0
5.12 0.005 0
5.2 0.005 0
5.28 0.005 0
5.36 0.005 0
5.44 0.005 0
5.52 0.005 0
5.6 0.005 0
5.68 0.005 0
5.76 0.005 0
5.84 0.005 0
5.92 0.005 0
6 0.005 0
6.08 0.005 0
6.16 0.005 0
6.24 0.005 0
6.32 0.005 0
6.4 0.005 0
6.48 0.005 0
6.56 0.005 0
6.64 0.005 0
6.72 0.005 0
6.8 0.005 0
6.88 0.005 0
6.96 0.005 0
7.04 0.005 0
7.12 0.005 0
7.2 0.005 0
7.28 0.005 0
7.36 0.005 0
7.44 0.005 0
7.52 0.005 0
7.6 0.005 0
7.68 0.005 0
7.76 0.005 0
7.84 0.005 0
7.92 0.005 0
8 0.005 0
8.08 0.005 0
8.16 0.005 0
8.24 0.005 0
8.32 0.005 0
8.4 0.005 0
8.48 0.005 0
8.56 0.005 0
8.64 0.005 0
8.72 0.005 0
8.8 0.005 0
8.88 0.005 0
8.96 0.005 0
9.04 0.005 0
9.12 0.005 0
9.2 0.005 0
9.28 0.005 0
9.36 0.005 0
9.44 0.005 0
9.52 0.005 0
9.6 0.005 0
9.68 0.005 0
9.76 0.005 0
9.84 0.005 0
9.92 0.005 0
10 0.005 0
10.08 0.005 0
10.16 0.005 0
10.24 0.005 0
10.32 0.005 0
10.4 0.005 0
10.48 0.005 0
10.56 0.005 0
10.64 0.005 0
10.72 0.005 0
10.8 0.005 0
10.88 0.005 0
10.96 0.005 0
11.04 0.005 0
11.12 0.005 0
11.2 0.005 0
11.28 0.005 0
11.36 0.005 0
11.44 0.005 0
11.52 0.005 0
11.6 0.005 0
11.68 0.005 0
11.76 0.005 0
11.84 0.005 0
11.92 0.005 0
12 0.005 0
12.08 0.005 0
12.16 0.005 0
12.24 0.005 0
12.32 0.005 0
12.4 0.005 0
12.48 0.005 0
12.56 0.005 0
12.64 0.005 0
12.72 0.005 0
12.8 0.005 0
12.88 0.005 0
12.96 0.005 0
13.04 0.005 0
13.12 0.005 0
13.2 0.005 0
13.28 0.005 0
13.36 0.005 0
13.44 0.005 0
13.52 0.005 0
13.6 0.005 0
13.68 0.005 0
13.76 0.005 0
13.84 0.005 0
13.92 0.005 0
14 0.005 0
14.08 0.005 0
14.16 0.005 0
14.24 0.005 0
14.32 0.005 0
14.4 0.005 0
14.48 0.005 0
14.56 0.005 0
14.64 0.005 0
14.72 0.005 0
14.8 0.005 0
14.88 0.005 0
14.96 0.005 0
15.04 0.005 0
15.12 0.005 0
15.2 0.005 0
15.28 0.005 0
15.36 0.005 0
15.44 0.005 0
15.52 0.005 0
15.6 0.005 0
15.68 0.005 0
15.76 0.005 0
15.84 0.005 0
15.92 0.005 0
16 0.005 0
16.08 0.005 0
16.16 0.005 0
16.24 0.005 0
16.32 0.005 0
16.4 0.005 0
16.48 0.005 0
16.56 0.005 0
16.64 0.005 0
16.72 0.005 0
16.8 0.005 0
16.88 0.005 0
16.96 0.005 0
17.04 0.005 0
17.12 0.005 0
17.2 0.005 0
17.28 0.005 0
17.36 0.005 0
17.44 0.005 0
17.52 0.005 0
17.6 0.005 0
17.68 0.005 0
17.76 0.005 0
17.84 0.005 0
17.92 0.005 0
18 0.005 0
18.08 0.005 0
18.16 0.005 0
18.24 0.005 0
18.32 0.005 0
18.4 0.005 0
18.48 0.005 0
18.56 0.005 0
18.64 0.005 0
18.72 0.005 0
18.8 0.005 0
18.88 0.005 0
18.96 0.005 0
19.04 0.005 0
19.12 0.005 0
19.2 0.005 0
19.28 0.005 0
19.36 0.005 0
19.44 0.005 0
19.52 0.005 0
19.6 0.005 0
19.68 0.005 0
19.76 0.005 0
19.84 0.005 0
19.92 0.005 0
20 0.005 0
20.08 0.005 0
20.16 0.005 0
20.24 0.005 0
20.32 0.005 0
20.4 0.005 0
20.48 0.005 0
20.56 0.005 0
20.64 0.005 0
20.72 0.005 0
20.8 0.005 0
20.88 0.005 0
20.96 0.005 0
21.04 0.005 0
21.12 0.005 0
21.2 0.005 0
21.28 0.005 0
21.36 0.005 0
21.44 0.005 0
21.52 0.005 0
21.6 0.005 0
21.68 0.005 0
21.76 0.005 0
21.84 0.005 0
21.92 0.005 0
22 0.005 0
22.08 0.005 0
22.16 0.005 0
22.24 0.005 0
22.32 0.005 0
22.4 0.005 0
22.48 0.005 0
22.56 0.005 0
22.64 0.005 0
22.72 0.005 0
22.8 0.005 0
22.88 0.005 0
22.96 0.005 0
23.04 0.005 0
23.12 0.005 0
23.2 0.005 0
23.28 0.005 0
23.36 0.005 0
23.44 0.005 0
23.52 0.005 0
23.6 0.005 0
23.68 0.005 0
23.76 0.005 0
23.84 0.005 0
23.92 0.005 0
24 0.005 0
24.08 0.005 0
24.16 0.005 0
24.24 0.005 0
24.32 0.005 0
24.4 0.005 0
24.48 0.005 0
24.56 0.005 0
24.64 0.005 0
24.72 0.005 0
24.8 0.005 0
24.88 0.005 0
24.96 0.005 0
25.04 0.005 0
25.12 0.005 0
25.2 0.005 0
25.28 0.005 0
25.36 0.005 0
25.44 0.005 0
25.52 0.005 0
25.6 0.005 0
25.68 0.005 0
25.76 0.005 0
25.84 0.005 0
25.92 0.005 0
26 0.005 0
26.08 0.005 0
26.16 0.005 0
26.24 0.005 0
26.32 0.005 0
26.4 0.005 0
26.48 0.005 0
26.56 0.005 0
26.64 0.005 0
26.72 0.005 0
26.8 0.005 0
26.88 0.005 0
26.96 0.005 0
27.04 0.005 0
27.12 0.005 0
27.2 0.005 0
27.28 0.005 0
27.36 0.005 0
27.44 0.005 0
27.52 0.005 0
27.6 0.005 0
27.68 0.005 0
27.76 0.005 0
27.84 0.005 0
27.92 0.005 0
28 0.005 0
28.08 0.005 0
28.16 0.005 0
28.24 0.005 0
28.32 0.005 0
28.4 0.005 0
28.48 0.005 0
28.56 0.005 0
28.64 0.005 0
28.72 0.005 0
28.8 0.005 0
28.88 0.005 0
28.96 0.005 0
29.04 0.005 0
29.12 0.005 0
29.2 0.005 0
29.28 0.005 0
29.36 0.005 0
29.44 0.005 0
29.52 0.005 0
29.6 0.005 0
29.68 0.005 0
29.76 0.005 0
29.84 0.005 0
29.92 0.005 0
30 0.005 0
30.08 0.005 0
30.16 0.005 0
30.24 0.005 0
30.32 0.005 0
30.4 0.005 0
30.48 0.005 0
30.56 0.005 0
30.64 0.005 0
30.72 0.005 0
30.8 0.005 0
30.88 0.005 0
30.96 0.005 0
31.04 0.005 0
31.12 0.005 0
31.2 0.005 0
31.28 0.005 0
31.36 0.005 0
31.44 0.005 0
31.52 0.005 0
31.6 0.005 0
31.68 0.005 0
31.76 0.005 0
31.84 0.005 0
31.92 0.005 0
0 0.01 0
0.08 0.01 0
0.16 0.01 0
0.24 0.01 0
0.32 0.01 0
0.4 0.01 0
0.48 0.01 0
0.56 0.01 0
0.64 0.01 0
0.72 0.01 0
0.8 0.01 0
0.88 0.01 0
0.96 0.01 0
1.04 0.01 0
1.12 0.01 0
1.2 0.01 0
1.28 0.01 0
1.36 0.01 0
1.44 0.01 0
1.52 0.01 0
1.6 0.01 0
1.68 0.01 0
1.76 0.01 0
1.84 0.01 0
1.92 0.01 0
2 0.01 0
2.08 0.01 0
2.16 0.01 0
2.24 0.01 0
2.32 0.01 0
2.4 0.01 0
2.48 0.01 0
2.56 0.01 0
2.64 0.01 0
2.72 0.01 0
2.8 0.01 0
2.88 0.01 0
2.96 0.01 0
3.04 0.01 0
3.12 0.01 0
3.2 0.01 0
3.28 0.01 0
3.36 0.01 0
3.44 0.01 0
3.52 0.01 0
3.6 0.01 0
3.68 0.01 0
3.76 0.01 0
3.84 0.01 0
3.92 0.01 0
4 0.01 0
4.08 0.01 0
4.16 0.01 0
4.24 0.01 0
4.32 0.01 0
4.4 0.01 0
4.48 0.01 0
4.56 0.01 0
4.64 0.01 0
4.72 0.01 0
4.8 0.01 0
4.88 0.01 0
4.96 0.01 0
5.04 0.01 0
5.12 0.01 0
[...]
POINT_DATA 80000

SCALARS u float 1
LOOKUP_TABLE default
0
-0.1316625743
-0.06826906164
-0.05229579122
-0.04441963148
-0.03957649478
-0.03625937636
-0.03383231254
-0.03197231136
-0.03049561231
-0.02928952364
-0.02828120481
-0.02742169313
-0.02667703666
-0.02602306572
-0.02544216803
-0.02492123108
-0.02445029392
-0.02402164497
-0.02362920702
-0.02326811114
-0.02293439701
-0.02262479884
-0.02233659027
-0.02206747023
-0.02181547775
-0.02157892741
-0.02135635965
-0.02114650217
-0.02094823926
-0.02076058744
-0.02058267564
-0.02041372906
-0.0202530558
-0.0201000358
-0.01995411151
-0.01981478006
-0.01968158655
-0.01955411838
-0.01943200038
-0.01931489055
-0.01920247644
-0.01909447197
-0.01899061468
-0.01889066329
-0.01879439559
-0.01870160656
-0.01861210671
-0.01852572064
-0.01844228574
-0.01836165099
-0.01828367601
-0.01820823004
-0.0181351912
-0.01806444568
-0.01799588713
-0.01792941601
-0.01786493908
-0.01780236887
-0.01774162328
-0.01768262513
-0.0176253018
-0.01756958493
-0.01751541007
-0.01746271639
-0.01741144648
-0.01736154606
-0.01731296378
-0.01726565104
-0.01721956176
-0.01717465228
-0.01713088112
-0.01708820892
-0.01704659824
-0.01700601349
-0.01696642077
-0.01692778779
-0.01689008376
-0.01685327934
-0.01681734647
-0.01678225838
-0.01674798947
-0.01671451525
-0.01668181227
-0.01664985808
-0.01661863115
-0.01658811084
-0.01655827734
-0.01652911162
-0.01650059542
-0.01647271116
-0.01644544192
-0.01641877143
-0.01639268401
-0.01636716457
-0.01634219855
-0.01631777191
-0.01629387108
-0.01627048295
-0.01624759485
-0.01622519455
-0.01620327023
-0.01618181044
-0.0161608041
-0.01614024043
-0.01612010902
-0.01610039973
-0.01608110276
-0.01606220859
-0.01604370798
-0.01602559194
-0.01600785168
-0.01599047867
-0.01597346462
-0.01595680147
-0.01594048145
-0.01592449708
-0.01590884111
-0.01589350658
-0.01587848683
-0.01586377555
-0.01584936683
-0.0158352552
-0.01582143565
-0.01580790362
-0.01579465497
-0.01578168596
-0.01576899333
-0.01575657426
-0.0157444264
-0.01573254787
-0.01572093713
-0.01570959295
-0.01569851429
-0.0156877003
-0.0156771503
-0.0156668638
-0.01565684045
-0.01564708001
-0.01563758219
-0.0156283466
-0.01561937265
-0.01561065961
-0.01560220663
-0.01559401283
-0.01558607726
-0.01557839885
-0.01557097626
-0.0155638078
-0.01555689136
-0.01555022451
-0.01554380463
-0.01553762902
-0.01553169494
-0.01552599959
-0.01552053991
-0.01551531245
-0.01551031326
-0.01550553796
-0.01550098191
-0.01549664043
-0.01549250894
-0.015488583
-0.01548485819
-0.01548132991
-0.01547799319
-0.01547484263
-0.01547187241
-0.01546907655
-0.01546644916
-0.01546398455
-0.01546167738
-0.0154595225
-0.01545751473
-0.01545564874
-0.01545391882
-0.01545231895
-0.01545084291
-0.01544948452
-0.01544823783
-0.01544709727
-0.01544605762
-0.0154451139
-0.01544426123
-0.01544349461
-0.01544280887
-0.01544219866
-0.01544165856
-0.01544118328
-0.01544076778
-0.01544040741
-0.01544009795
-0.01543983553
-0.01543961655
-0.01543943753
-0.01543929501
-0.01543918549
-0.01543910544
-0.01543905133
-0.01543901977
-0.01543900753
-0.01543901171
-0.01543902971
-0.01543905927
-0.01543909847
-0.01543914565
-0.0154391994
-0.0154392585
-0.0154393219
-0.01543938867
-0.01543945805
-0.01543952936
-0.01543960209
-0.01543967582
-0.01543975025
-0.01543982516
-0.01543990041
-0.01543997591
-0.0154400516
-0.01544012746
-0.01544020346
-0.01544027958
-0.01544035581
-0.01544043213
-0.01544050851
-0.01544058495
-0.01544066144
-0.01544073796
-0.01544081451
-0.0154408911
-0.01544096772
-0.01544104438
-0.01544112107
-0.01544119781
-0.01544127459
-0.01544135141
-0.01544142828
-0.01544150519
-0.01544158214
-0.01544165913
-0.01544173616
-0.01544181323
-0.01544189034
-0.01544196749
-0.01544204468
-0.01544212191
-0.01544219918
-0.01544227649
-0.01544235384
-0.01544243122
-0.01544250865
-0.01544258612
-0.01544266363
-0.01544274118
-0.01544281876
-0.01544289639
-0.01544297406
-0.01544305177
-0.01544312951
-0.0154432073
-0.01544328513
-0.01544336299
-0.0154434409
-0.01544351884
-0.01544359683
-0.01544367485
-0.01544375292
-0.01544383102
-0.01544390917
-0.01544398735
-0.01544406557
-0.01544414383
-0.01544422214
-0.01544430048
-0.01544437886
-0.01544445728
-0.01544453574
-0.01544461424
-0.01544469278
-0.01544477136
-0.01544484998
-0.01544492863
-0.01544500733
-0.01544508607
-0.01544516485
-0.01544524366
-0.01544532252
-0.01544540142
-0.01544548035
-0.01544555933
-0.01544563834
-0.0154457174
-0.01544579649
-0.01544587562
-0.0154459548
-0.01544603401
-0.01544611326
-0.01544619256
-0.01544627189
-0.01544635126
-0.01544643067
-0.01544651013
-0.01544658962
-0.01544666915
-0.01544674872
-0.01544682833
-0.01544690798
-0.01544698767
-0.0154470674
-0.01544714717
-0.01544722698
-0.01544730683
-0.01544738672
-0.01544746665
-0.01544754662
-0.01544762663
-0.01544770668
-0.01544778677
-0.0154478669
-0.01544794707
-0.01544802728
-0.01544810753
-0.01544818782
-0.01544826815
-0.01544834852
-0.01544842893
-0.01544850938
-0.01544858987
-0.0154486704
-0.01544875097
-0.01544883158
-0.01544891224
-0.01544899293
-0.01544907366
-0.01544915443
-0.01544923525
-0.0154493161
-0.01544939699
-0.01544947792
-0.0154495589
-0.01544963991
-0.01544972097
-0.01544980206
-0.01544988321
-0.01544996437
-0.0154500456
-0.01545012684
-0.01545020816
-0.01545028948
-0.01545037088
-0.01545045227
-0.01545053377
-0.01545061523
-0.01545069681
-0.01545077835
-0.01545086003
-0.01545094163
-0.0154510234
-0.01545110507
-0.01545118694
-0.01545126867
-0.01545135064
-0.01545143242
-0.01545151451
-0.01545159633
-0.01545167854
-0.0154517604
-0.01545184273
-0.01545192462
-0.01545200709
-0.01545208898
-0.0154521716
-0.01545225349
-0.01545233628
-0.01545241814
-0.0154525011
-0.01545258293
-0.01545266607
-0.01545274784
-0.01545283118
-0.0154529129
-0.01545299639
-0.0154530781
-0.01545316169
-0.01545324352
-0.01545332702
-0.01545340929
-0.01545349234
-0.01545357577
-0.01545365756
-0.01545374382
-0.01545382253
-0.0154539155
-0.01545398614
-0.01545409495
-0.01545413852
-0.01545428315
-0.01545414266
-0.01545414266
-0.01545414266
1
0.1316625743
0.06826906164
0.05229579122
0.04441963148
0.03957649478
0.03625937636
0.03383231254
0.03197231136
0.03049561231
0.02928952364
0.02828120481
0.02742169313
0.02667703666
0.02602306572
0.02544216803
0.02492123108
0.02445029392
0.02402164497
0.02362920702
0.02326811114
0.02293439701
0.02262479884
0.02233659027
0.02206747023
0.02181547775
0.02157892741
0.02135635965
0.02114650217
0.02094823926
0.02076058744
0.02058267564
0.02041372906
0.0202530558
0.0201000358
0.01995411151
0.01981478006
0.01968158655
0.01955411838
0.01943200038
0.01931489055
0.01920247644
0.01909447197
0.01899061468
0.01889066329
0.01879439559
0.01870160656
0.01861210671
0.01852572064
0.01844228574
0.01836165099
0.01828367601
0.01820823004
0.0181351912
0.01806444568
0.01799588713
0.01792941601
0.01786493908
0.01780236887
0.01774162328
0.01768262513
0.0176253018
0.01756958493
0.01751541007
0.01746271639
0.01741144648
0.01736154606
0.01731296378
0.01726565104
0.01721956176
0.01717465228
0.01713088112
0.01708820892
0.01704659824
0.01700601349
0.01696642077
0.01692778779
0.01689008376
0.01685327934
0.01681734647
0.01678225838
0.01674798947
0.01671451525
0.01668181227
0.01664985808
0.01661863115
0.01658811084
0.01655827734
0.01652911162
0.01650059542
0.01647271116
0.01644544192
0.01641877143
0.01639268401
0.01636716457
0.01634219855
0.01631777191
0.01629387108
0.01627048295
0.01624759485
0.01622519455
0.01620327023
0.01618181044
0.0161608041
0.01614024043
0.01612010902
0.01610039973
0.01608110276
0.01606220859
0.01604370798
0.01602559194
0.01600785168
0.01599047867
0.01597346462
0.01595680147
0.01594048145
0.01592449708
0.01590884111
0.01589350658
0.01587848683
0.01586377555
0.01584936683
0.0158352552
0.01582143565
0.01580790362
0.01579465497
0.01578168596
0.01576899333
0.01575657426
0.0157444264
0.01573254787
0.01572093713
0.01570959295
0.01569851429
0.0156877003
0.0156771503
0.0156668638
0.01565684045
0.01564708001
0.01563758219
0.0156283466
0.01561937265
0.01561065961
0.01560220663
0.01559401283
0.01558607726
0.01557839885
0.01557097626
0.0155638078
0.01555689136
0.01555022451
0.01554380463
0.01553762902
0.01553169494
0.01552599959
0.01552053991
0.01551531245
0.01551031326
0.01550553796
0.01550098191
0.01549664043
0.01549250894
0.015488583
0.01548485819
0.01548132991
0.01547799319
0.01547484263
0.01547187241
0.01546907655
0.01546644916
0.01546398455
0.01546167738
0.0154595225
0.01545751473
0.01545564874
0.01545391882
0.01545231895
0.01545084291
0.01544948452
0.01544823783
0.01544709727
0.01544605762
0.0154451139
0.01544426123
0.01544349461
0.01544280887
0.01544219866
0.01544165856
0.01544118328
0.01544076778
0.01544040741
0.01544009795
0.01543983553
0.01543961655
0.01543943753
0.01543929501
0.01543918549
0.01543910544
0.01543905133
0.01543901977
0.01543900753
0.01543901171
0.01543902971
0.01543905927
0.01543909847
0.01543914565
0.0154391994
0.0154392585
0.0154393219
0.01543938867
0.01543945805
0.01543952936
0.01543960209
0.01543967582
0.01543975025
0.01543982516
0.01543990041
0.01543997591
0.0154400516
0.01544012746
0.01544020346
0.01544027958
0.01544035581
0.01544043213
0.01544050851
0.01544058495
0.01544066144
0.01544073796
0.01544081451
0.0154408911
0.01544096772
0.01544104438
0.01544112107
0.01544119781
0.01544127459
0.01544135141
0.01544142828
0.01544150519
0.01544158214
0.01544165913
0.01544173616
0.01544181323
0.01544189034
0.01544196749
0.01544204468
0.01544212191
0.01544219918
0.01544227649
0.01544235384
0.01544243122
0.01544250865
0.01544258612
0.01544266363
0.01544274118
0.01544281876
0.01544289639
0.01544297406
0.01544305177
0.01544312951
0.0154432073
0.01544328513
0.01544336299
0.0154434409
0.01544351884
0.01544359683
0.01544367485
0.01544375292
0.01544383102
0.01544390917
0.01544398735
0.01544406557
0.01544414383
0.01544422214
0.01544430048
0.01544437886
0.01544445728
0.01544453574
0.01544461424
0.01544469278
0.01544477136
0.01544484998
0.01544492863
0.01544500733
0.01544508607
0.01544516485
0.01544524366
0.01544532252
0.01544540142
0.01544548035
0.01544555933
0.01544563834
0.0154457174
0.01544579649
0.01544587562
0.0154459548
0.01544603401
0.01544611326
0.01544619256
0.01544627189
0.01544635126
0.01544643067
0.01544651013
0.01544658962
0.01544666915
0.01544674872
0.01544682833
0.01544690798
0.01544698767
0.0154470674
0.01544714717
0.01544722698
0.01544730683
0.01544738672
0.01544746665
0.01544754662
0.01544762663
0.01544770668
0.01544778677
0.0154478669
0.01544794707
0.01544802728
0.01544810753
0.01544818782
0.01544826815
0.01544834852
0.01544842893
0.01544850938
0.01544858987
0.0154486704
0.01544875097
0.01544883158
0.01544891224
0.01544899293
0.01544907366
0.01544915443
0.01544923525
0.0154493161
0.01544939699
0.01544947792
0.0154495589
0.01544963991
0.01544972097
0.01544980206
0.01544988321
0.01544996437
0.0154500456
0.01545012684
0.01545020816
0.01545028948
0.01545037088
0.01545045227
0.01545053377
0.01545061523
0.01545069681
0.01545077835
0.01545086003
0.01545094163
0.0154510234
0.01545110507
0.01545118694
0.01545126867
0.01545135064
0.01545143242
0.01545151451
0.01545159633
0.01545167854
0.0154517604
0.01545184273
0.01545192462
0.01545200709
0.01545208898
0.0154521716
0.01545225349
0.01545233628
0.01545241814
0.0154525011
0.01545258293
0.01545266607
0.01545274784
0.01545283118
0.0154529129
0.01545299639
0.0154530781
0.01545316169
0.01545324352
0.01545332702
0.01545340929
0.01545349234
0.01545357577
0.01545365756
0.01545374382
0.01545382253
0.0154539155
0.01545398614
0.01545409495
0.01545413852
0.01545428315
0.01545414266
0.01545414266
0.01545414266
1
0.3448836824
0.200667301
0.154966701
0.1318939518
0.1175979161
0.1077671919
0.1005572373
0.09502417848
0.09062823372
0.08703704289
0.08403505197
0.08147694618
0.07926170956
0.07731728149
0.0755910654
0.07404385499
0.07264584382
0.07137394721
0.07020997214
0.06913934641
0.06815022254
0.06723283675
0.0663790437
0.06558197372
0.06483577685
0.06413542868
0.06347658117
0.0628554463
0.06226870431
0.06171343027
0.06118703477
0.06068721546
0.06021191715
0.05975929856
0.05932770454
0.05891564258
0.05852176292
0.05814484154
0.0577837656
0.05743752089
0.05710518094
0.0567858976
0.05647889283
0.05618345144
0.05589891486
0.05562467551
0.05536017193
0.0551048844
0.05485833111
0.05462006473
0.05438966933
0.05416675764
0.05395096861
0.0537419652
0.05353943241
0.05334307546
0.05315261822
0.05296780168
0.05278838271
0.05261413279
0.05244483692
0.05228029267
0.05212030919
0.05196470645
0.05181331445
0.05166597248
0.05152252856
0.05138283877
0.05124676676
0.05111418321
0.0509849654
0.05085899679
0.05073616657
0.05061636936
0.05049950485
0.05038547746
0.05027419609
0.05016557381
0.05005952767
0.04995597839
0.04985485021
0.04975607066
0.04965957034
0.0495652828
0.04947314432
0.04938309384
0.04929507272
0.0492090247
0.04912489567
0.04904263365
0.04896218858
0.04888351232
0.04880655848
0.04873128242
0.04865764106
0.04858559283
0.04851509762
0.04844611665
0.04837861247
0.04831254889
0.04824789094
0.04818460477
0.04812265759
0.0480620176
0.04800265395
0.04794453673
0.04788763698
0.04783192657
0.04777737822
0.04772396536
0.04767166214
0.04762044339
0.0475702847
0.04752116247
0.04747305389
0.04742593699
0.04737979065
0.04733459455
0.04729032935
0.04724697679
0.04720451982
0.04716294274
0.04712223117
0.04708237206
0.04704335361
0.04700516526
0.04696779778
0.04693124329
0.04689549525
0.04686054838
0.0468263984
0.04679304181
0.04676047568
0.04672869759
0.0466977056
0.04666749825
0.04663807445
0.04660943328
0.04658157365
0.04655449407
0.04652819255
0.04650266663
0.04647791354
0.04645393034
0.04643071382
0.0464082603
0.04638656531
0.04636562326
0.04634542749
0.04632597042
0.04630724394
0.04628923972
0.04627194929
0.0462553638
0.0462394736
0.04622426788
0.04620973448
0.0461958601
0.04618263082
0.04617003261
0.04615805176
0.04614667485
0.04613588838
0.04612567825
0.04611602932
0.04610692518
0.04609834854
0.04609028169
0.04608270725
0.04607560851
0.04606896957
0.04606277498
0.0460570092
0.04605165605
0.04604669842
0.04604211843
0.04603789777
0.04603401837
0.0460304629
0.04602721504
0.04602425946
0.04602158141
0.04601916629
0.0460169992
0.04601506478
0.04601334728
0.04601183092
0.04601050031
0.04600934093
0.04600833939
0.04600748344
0.04600676184
0.04600616401
0.04600567968
0.04600529868
0.04600501071
0.0460048055
0.04600467289
0.04600460314
0.04600458717
0.04600461674
0.04600468458
0.0460047844
0.0460049108
0.04600505917
0.04600522557
0.0460054066
0.04600559931
0.04600580117
0.04600601002
0.04600622409
0.04600644194
0.04600666246
0.04600688483
0.04600710849
0.04600733308
0.04600755834
0.04600778416
0.04600801043
0.04600823709
0.0460084641
0.0460086914
0.04600891893
0.04600914666
0.04600937455
0.04600960257
0.04600983069
0.04601005891
0.04601028723
0.04601051565
0.04601074419
0.04601097283
0.04601120161
0.0460114305
0.04601165953
0.04601188868
0.04601211796
0.04601234736
0.04601257689
0.04601280653
0.04601303629
0.04601326617
0.04601349616
0.04601372627
0.0460139565
0.04601418685
0.04601441731
0.04601464789
0.04601487859
0.04601510941
0.04601534034
0.0460155714
0.04601580257
0.04601603386
0.04601626527
0.0460164968
0.04601672844
0.04601696021
0.04601719209
0.04601742409
0.0460176562
0.04601788844
0.04601812079
0.04601835325
0.04601858584
0.04601881854
0.04601905136
0.0460192843
0.04601951735
0.04601975053
0.04601998382
0.04602021722
0.04602045075
0.04602068439
0.04602091815
0.04602115202
0.04602138602
0.04602162013
0.04602185435
0.0460220887
0.04602232316
0.04602255774
0.04602279244
0.04602302725
0.04602326218
0.04602349723
0.0460237324
0.04602396768
0.04602420308
0.0460244386
0.04602467424
0.04602490999
0.04602514586
0.04602538185
0.04602561796
0.04602585418
0.04602609052
0.04602632698
0.04602656356
0.04602680026
0.04602703707
0.046027274
0.04602751105
0.04602774821
0.0460279855
0.0460282229
0.04602846042
0.04602869806
0.04602893581
0.04602917369
0.04602941168
0.04602964979
0.04602988802
0.04603012637
0.04603036483
0.04603060341
0.04603084212
0.04603108094
0.04603131988
0.04603155894
0.04603179811
0.04603203741
0.04603227683
0.04603251636
0.04603275601
0.04603299578
0.04603323567
0.04603347568
0.04603371581
0.04603395605
0.04603419643
0.04603443691
0.04603467752
0.04603491823
0.04603515909
0.04603540004
0.04603564114
0.04603588233
0.04603612367
0.04603636509
0.04603660668
0.04603684833
0.04603709017
0.04603733205
0.04603757414
0.04603781625
0.04603805859
0.04603830093
0.04603854352
0.04603878609
0.04603902894
0.04603927172
0.04603951484
0.04603975784
0.04604000122
0.04604024443
0.04604048809
0.04604073149
0.04604097545
0.04604121903
0.04604146329
0.04604170703
0.04604195162
0.0460421955
0.04604244043
0.04604268443
0.04604292972
0.04604317381
0.04604341949
0.04604366362
0.04604390974
0.04604415387
0.04604440045
0.04604464453
0.04604489162
0.0460451356
0.04604538321
0.04604562706
0.0460458752
0.04604611893
0.04604636752
0.04604661124
0.04604686011
0.04604710415
0.04604735284
0.04604759806
0.04604784557
0.04604809393
0.04604833814
0.04604859418
0.0460488302
0.04604910444
0.04604931906
0.04604963598
0.04604977837
0.04605018881
0.04604984496
0.04604984496
0.04604984496
1
0.5187652335
0.3274012764
0.2553468892
0.2178478981
0.194402803
0.1782109092
0.1663063182
0.1571572558
0.1498826659
0.1439377813
0.1389681171
0.1347340423
0.1310685944
0.1278524442
0.1249983635
0.1224412589
0.1201316059
0.1180310326
0.1161092945
0.1143421691
0.1127099688
0.1111964759
0.1097881675
0.108473645
0.1072432072
0.1060885263
0.1050023995
0.1039785545
0.1030114968
0.1020963873
0.1012289435
0.1004053587
0.09962223603
0.09887653273
0.09816551428
0.09748671534
0.09683790674
0.09621706731
0.0956223597
0.0950521096
0.09450478775
0.0939789943
0.09347344521
0.09298696034
0.09251845296
0.09206692064
0.09163143705
0.09121114481
0.09080524913
0.09041301211
0.09003374768
0.08966681711
0.08931162492
0.08896761525
0.08863426859
0.08831109885
0.08799765062
0.08769349686
0.08739823661
0.08711149306
0.08683291174
0.08656215882
0.08629891969
0.08604289749
0.08579381193
0.08555139807
0.08531540533
0.08508559644
0.08486174662
0.08464364267
0.0844310823
0.08422387334
0.08402183317
0.08382478805
0.08363257262
0.08344502933
0.083262008
0.08308336536
0.08290896464
0.08273867519
0.08257237212
0.08240993596
0.08225125235
0.08209621175
0.08194470914
0.08179664387
0.08165191932
0.08151044272
0.08137212495
0.08123688027
0.08110462625
0.08097528351
0.08084877566
0.08072502907
0.08060397278
0.08048553832
0.08036965954
0.08025627258
0.08014531575
0.08003672943
0.07993045601
0.07982643972
0.07972462655
0.07962496411
0.07952740163
0.07943188988
0.07933838116
0.07924682922
0.07915718913
0.07906941721
0.07898347096
0.07889930909
0.07881689154
0.07873617963
0.07865713606
0.0785797249
0.07850391165
0.07842966326
0.07835694829
0.07828573715
0.07821600232
0.07814771846
0.07808086246
0.07801541336
0.07795135225
0.07788866233
0.07782732895
0.07776733963
0.07770868407
0.07765135392
0.07759534239
0.07754064392
0.07748725383
0.07743516825
0.07738438404
0.07733489876
0.0772867105
0.07723981746
0.07719421754
0.07714990793
0.07710688498
0.07706514429
0.07702468095
0.07698548966
0.07694756463
0.07691089919
0.07687548527
0.07684131306
0.07680837099
0.07677664612
0.07674612469
0.0767167925
0.07668863506
0.07666163713
0.07663578209
0.07661105143
0.07658742454
0.07656487912
0.07654339198
0.07652293984
0.07650349982
0.07648504943
0.07646756592
0.07645102548
0.07643540258
0.07642066987
0.07640679867
0.07639375986
0.07638152484
0.07637006617
0.07635935753
0.07634937321
0.07634008724
0.07633147258
0.07632350085
0.07631614248
0.07630936749
0.07630314638
0.07629745087
0.07629225432
0.07628753151
0.0762832581
0.07627940989
0.07627596221
0.07627288974
0.07627016667
0.07626776726
0.0762656666
0.07626384119
0.07626226937
0.07626093127
0.07625980855
0.07625888388
0.0762581404
0.07625756138
0.07625713004
0.07625682965
0.07625664386
0.07625655705
0.07625655474
0.07625662386
0.07625675293
0.076256932
0.07625715259
0.07625740741
0.07625769026
0.07625799577
0.07625831934
0.07625865699
0.07625900536
0.07625936171