# vtk DataFile Version 2.0
FlowField
ASCII
DATASET STRUCTURED_GRID
DIMENSIONS 400 1 200
POINTS 80000 float
0 0 0
0.08 0 0
0.16 0 0
0.24 0 0
0.32 0 0
0.4 0 0
0.48 0 0
0.56 0 0
0.64 0 0
0.72 0 0
0.8 0 0
0.88 0 0
0.96 0 0
1.04 0 0
1.12 0 0
1.2 0 0
1.28 0 0
1.36 0 0
1.44 0 0
1.52 0 0
1.6 0 0
1.68 0 0
1.76 0 0
1.84 0 0
1.92 0 0
2 0 0
2.08 0 0
2.16 0 0
2.24 0 0
2.32 0 0
2.4 0 0
2.48 0 0
2.56 0 0
2.64 0 0
2.72 0 0
2.8 0 0
2.88 0 0
2.96 0 0
3.04 0 0
3.12 0 0
3.2 0 0
3.28 0 0
3.36 0 0
3.44 0 0
3.52 0 0
3.6 0 0
3.68 0 0
3.76 0 0
3.84 0 0
3.92 0 0
4 0 0
4.08 0 0
4.16 0 0
4.24 0 0
4.32 0 0
4.4 0 0
4.48 0 0
4.56 0 0
4.64 0 0
4.72 0 0
4.8 0 0
4.88 0 0
4.96 0 0
5.04 0 0
5.12 0 0
5.2 0 0
5.28 0 0
5.36 0 0
5.44 0 0
5.52 0 0
5.6 0 0
5.68 0 0
5.76 0 0
5.84 0 0
5.92 0 0
6 0 0
6.08 0 0
6.16 0 0
6.24 0 0
6.32 0 0
6.4 0 0
6.48 0 0
6.56 0 0
6.64 0 0
6.72 0 0
6.8 0 0
6.88 0 0
6.96 0 0
7.04 0 0
7.12 0 0
7.2 0 0
7.28 0 0
7.36 0 0
7.44 0 0
7.52 0 0
7.6 0 0
7.68 0 0
7.76 0 0
7.84 0 0
7.92 0 0
8 0 0
8.08 0 0
8.16 0 0
8.24 0 0
8.32 0 0
8.4 0 0
8.48 0 0
8.56 0 0
8.64 0 0
8.72 0 0
8.8 0 0
8.88 0 0
8.96 0 0
9.04 0 0
9.12 0 0
9.2 0 0
9.28 0 0
9.36 0 0
9.44 0 0
9.52 0 0
9.6 0 0
9.68 0 0
9.76 0 0
9.84 0 0
9.92 0 0
10 0 0
10.08 0 0
10.16 0 0
10.24 0 0
10.32 0 0
10.4 0 0
10.48 0 0
10.56 0 0
10.64 0 0
10.72 0 0
10.8 0 0
10.88 0 0
10.96 0 0
11.04 0 0
11.12 0 0
11.2 0 0
11.28 0 0
11.36 0 0
11.44 0 0
11.52 0 0
11.6 0 0
11.68 0 0
11.76 0 0
11.84 0 0
11.92 0 0
12 0 0
12.08 0 0
12.16 0 0
12.24 0 0
12.32 0 0
12.4 0 0
12.48 0 0
12.56 0 0
12.64 0 0
12.72 0 0
12.8 0 0
12.88 0 0
12.96 0 0
13.04 0 0
13.12 0 0
13.2 0 0
13.28 0 0
13.36 0 0
13.44 0 0
13.52 0 0
13.6 0 0
13.68 0 0
13.76 0 0
13.84 0 0
13.92 0 0
14 0 0
14.08 0 0
14.16 0 0
14.24 0 0
14.32 0 0
14.4 0 0
14.48 0 0
14.56 0 0
14.64 0 0
14.72 0 0
14.8 0 0
14.88 0 0
14.96 0 0
15.04 0 0
15.12 0 0
15.2 0 0
15.28 0 0
15.36 0 0
15.44 0 0
15.52 0 0
15.6 0 0
15.68 0 0
15.76 0 0
15.84 0 0
15.92 0 0
16 0 0
16.08 0 0
16.16 0 0
16.24 0 0
16.32 0 0
16.4 0 0
16.48 0 0
16.56 0 0
16.64 0 0
16.72 0 0
16.8 0 0
16.88 0 0
16.96 0 0
17.04 0 0
17.12 0 0
17.2 0 0
17.28 0 0
17.36 0 0
17.44 0 0
17.52 0 0
17.6 0 0
17.68 0 0
17.76 0 0
17.84 0 0
17.92 0 0
18 0 0
18.08 0 0
18.16 0 0
18.24 0 0
18.32 0 0
18.4 0 0
18.48 0 0
18.56 0 0
18.64 0 0
18.72 0 0
18.8 0 0
18.88 0 0
18.96 0 0
19.04 0 0
19.12 0 0
19.2 0 0
19.28 0 0
19.36 0 0
19.44 0 0
19.52 0 0
19.6 0 0
19.68 0 0
19.76 0 0
19.84 0 0
19.92 0 0
20 0 0
20.08 0 0
20.16 0 0
20.24 0 0
20.32 0 0
20.4 0 0
20.48 0 0
20.56 0 0
20.64 0 0
20.72 0 0
20.8 0 0
20.88 0 0
20.96 0 0
21.04 0 0
21.12 0 0
21.2 0 0
21.28 0 0
21.36 0 0
21.44 0 0
21.52 0 0
21.6 0 0
21.68 0 0
21.76 0 0
21.84 0 0
21.92 0 0
22 0 0
22.08 0 0
22.16 0 0
22.24 0 0
22.32 0 0
22.4 0 0
22.48 0 0
22.56 0 0
22.64 0 0
22.72 0 0
22.8 0 0
22.88 0 0
22.96 0 0
23.04 0 0
23.12 0 0
23.2 0 0
23.28 0 0
23.36 0 0
23.44 0 0
23.52 0 0
23.6 0 0
23.68 0 0
23.76 0 0
23.84 0 0
23.92 0 0
24 0 0
24.08 0 0
24.16 0 0
24.24 0 0
24.32 0 0
24.4 0 0
24.48 0 0
24.56 0 0
24.64 0 0
24.72 0 0
24.8 0 0
24.88 0 0
24.96 0 0
25.04 0 0
25.12 0 0
25.2 0 0
25.28 0 0
25.36 0 0
25.44 0 0
25.52 0 0
25.6 0 0
25.68 0 0
25.76 0 0
25.84 0 0
25.92 0 0
26 0 0
26.08 0 0
26.16 0 0
26.24 0 0
26.32 0 0
26.4 0 0
26.48 0 0
26.56 0 0
26.64 0 0
26.72 0 0
26.8 0 0
26.88 0 0
26.96 0 0
27.04 0 0
27.12 0 0
27.2 0 0
27.28 0 0
27.36 0 0
27.44 0 0
27.52 0 0
27.6 0 0
27.68 0 0
27.76 0 0
27.84 0 0
27.92 0 0
28 0 0
28.08 0 0
28.16 0 0
28.24 0 0
28.32 0 0
28.4 0 0
28.48 0 0
28.56 0 0
28.64 0 0
28.72 0 0
28.8 0 0
28.88 0 0
28.96 0 0
29.04 0 0
29.12 0 0
29.2 0 0
29.28 0 0
29.36 0 0
29.44 0 0
29.52 0 0
29.6 0 0
29.68 0 0
29.76 0 0
29.84 0 0
29.92 0 0
30 0 0
30.08 0 0
30.16 0 0
30.24 0 0
30.32 0 0
30.4 0 0
30.48 0 0
30.56 0 0
30.64 0 0
30.72 0 0
30.8 0 0
30.88 0 0
30.96 0 0
31.04 0 0
31.12 0 0
31.2 0 0
31.28 0 0
31.36 0 0
31.44 0 0
31.52 0 0
31.6 0 0
31.68 0 0
31.76 0 0
31.84 0 0
31.92 0 0
0 0.005 0
0.08 0.005 0
0.16 0.005 0
0.24 0.005 0
0.32 0.005 0
0.4 0.005 0
0.48 0.005 0
0.56 0.005 0
0.64 0.005 0
0.72 0.005 0
0.8 0.005 0
0.88 0.005 0
0.96 0.005 0
1.04 0.005 0
1.12 0.005 0
1.2 0.005 0
1.28 0.005 0
1.36 0.005 0
1.44 0.005 0
1.52 0.005 0
1.6 0.005 0
1.68 0.005 0
1.76 0.005 0
1.84 0.005 0
1.92 0.005 0
2 0.005 0
2.08 0.005 0
2.16 0.005 0
2.24 0.005 0
2.32 0.005 0
2.4 0.005 0
2.48 0.005 0
2.56 0.005 0
2.64 0.005 0
2.72 0.005 0
2.8 0.005 0
2.88 0.005 0
2.96 0.005 0
3.04 0.005 0
3.12 0.005 0
3.2 0.005 0
3.28 0.005 0
3.36 0.005 0
3.44 0.005 0
3.52 0.005 0
3.6 0.005 0
3.68 0.005 0
3.76 0.005 0
3.84 0.005 0
3.92 0.005 0
4 0.005 0
4.08 0.005 0
4.16 0.005 0
4.24 0.005 0
4.32 0.005 0
4.4 0.005 0
4.48 0.005 0
4.56 0.005 0
4.64 0.005 0
4.72 0.005 0
4.8 0.005 0
4.88 0.005 0
4.96 0.005 0
5.04 0.005 0
5.12 0.005 0
5.2 0.005 0
5.28 0.005 0
5.36 0.005 0
5.44 0.005 0
5.52 0.005 0
5.6 0.005 0
5.68 0.005 0
5.76 0.005 0
5.84 0.005 0
5.92 0.005 0
6 0.005 0
6.08 0.005 0
6.16 0.005 0
6.24 0.005 0
6.32 0.005 0
6.4 0.005 0
6.48 0.005 0
6.56 0.005 0
6.64 0.005 0
6.72 0.005 0
6.8 0.005 0
6.88 0.005 0
6.96 0.005 0
7.04 0.005 0
7.12 0.005 0
7.2 0.005 0
7.28 0.005 0
7.36 0.005 0
7.44 0.005 0
7.52 0.005 0
7.6 0.005 0
7.68 0.005 0
7.76 0.005 0
7.84 0.005 0
7.92 0.005 0
8 0.005 0
8.08 0.005 0
8.16 0.005 0
8.24 0.005 0
8.32 0.005 0
8.4 0.005 0
8.48 0.005 0
8.56 0.005 0
8.64 0.005 0
8.72 0.005 0
8.8 0.005 0
8.88 0.005 0
8.96 0.005 0
9.04 0.005 0
9.12 0.005 0
9.2 0.005 0
9.28 0.005 0
9.36 0.005 0
9.44 0.005 0
9.52 0.005 0
9.6 0.005 0
9.68 0.005 0
9.76 0.005 0
9.84 0.005 0
9.92 0.005 0
10 0.005 0
10.08 0.005 0
10.16 0.005 0
10.24 0.005 0
10.32 0.005 0
10.4 0.005 0
10.48 0.005 0
10.56 0.005 0
10.64 0.005 0
10.72 0.005 0
10.8 0.005 0
10.88 0.005 0
10.96 0.005 0
11.04 0.005 0
11.12 0.005 0
11.2 0.005 0
11.28 0.005 0
11.36 0.005 0
11.44 0.005 0
11.52 0.005 0
11.6 0.005 0
11.68 0.005 0
11.76 0.005 0
11.84 0.005 0
11.92 0.005 0
12 0.005 0
12.08 0.005 0
12.16 0.005 0
12.24 0.005 0
12.32 0.005 0
12.4 0.005 0
12.48 0.005 0
12.56 0.005 0
12.64 0.005 0
12.72 0.005 0
12.8 0.005 0
12.88 0.005 0
12.96 0.005 0
13.04 0.005 0
13.12 0.005 0
13.2 0.005 0
13.28 0.005 0
13.36 0.005 0
13.44 0.005 0
13.52 0.005 0
13.6 0.005 0
13.68 0.005 0
13.76 0.005 0
13.84 0.005 0
13.92 0.005 0
14 0.005 0
14.08 0.005 0
14.16 0.005 0
14.24 0.005 0
14.32 0.005 0
14.4 0.005 0
14.48 0.005 0
14.56 0.005 0
14.64 0.005 0
14.72 0.005 0
14.8 0.005 0
14.88 0.005 0
14.96 0.005 0
15.04 0.005 0
15.12 0.005 0
15.2 0.005 0
15.28 0.005 0
15.36 0.005 0
15.44 0.005 0
15.52 0.005 0
15.6 0.005 0
15.68 0.005 0
15.76 0.005 0
15.84 0.005 0
15.92 0.005 0
16 0.005 0
16.08 0.005 0
16.16 0.005 0
16.24 0.005 0
16.32 0.005 0
16.4 0.005 0
16.48 0.005 0
16.56 0.005 0
16.64 0.005 0
16.72 0.005 0
16.8 0.005 0
16.88 0.005 0
16.96 0.005 0
17.04 0.005 0
17.12 0.005 0
17.2 0.005 0
17.28 0.005 0
17.36 0.005 0
17.44 0.005 0
17.52 0.005 0
17.6 0.005 0
17.68 0.005 0
17.76 0.005 0
17.84 0.005 0
17.92 0.005 0
18 0.005 0
18.08 0.005 0
18.16 0.005 0
18.24 0.005 0
18.32 0.005 0
18.4 0.005 0
18.48 0.005 0
18.56 0.005 0
18.64 0.005 0
18.72 0.005 0
18.8 0.005 0
18.88 0.005 0
18.96 0.005 0
19.04 0.005 0
19.12 0.005 0
19.2 0.005 0
19.28 0.005 0
19.36 0.005 0
19.44 0.005 0
19.52 0.005 0
19.6 0.005 0
19.68 0.005 0
19.76 0.005 0
19.84 0.005 0
19.92 0.005 0
20 0.005 0
20.08 0.005 0
20.16 0.005 0
20.24 0.005 0
20.32 0.005 0
20.4 0.005 0
20.48 0.005 0
20.56 0.005 0
20.64 0.005 0
20.72 0.005 0
20.8 0.005 0
20.88 0.005 0
20.96 0.005 0
21.04 0.005 0
21.12 0.005 0
21.2 0.005 0
21.28 0.005 0
21.36 0.005 0
21.44 0.005 0
21.52 0.005 0
21.6 0.005 0
21.68 0.005 0
21.76 0.005 0
21.84 0.005 0
21.92 0.005 0
22 0.005 0
22.08 0.005 0
22.16 0.005 0
22.24 0.005 0
22.32 0.005 0
22.4 0.005 0
22.48 0.005 0
22.56 0.005 0
22.64 0.005 0
22.72 0.005 0
22.8 0.005 0
22.88 0.005 0
22.96 0.005 0
23.04 0.005 0
23.12 0.005 0
23.2 0.005 0
23.28 0.005 0
23.36 0.005 0
23.44 0.005 0
23.52 0.005 0
23.6 0.005 0
23.68 0.005 0
23.76 0.005 0
23.84 0.005 0
23.92 0.005 0
24 0.005 0
24.08 0.005 0
24.16 0.005 0
24.24 0.005 0
24.32 0.005 0
24.4 0.005 0
24.48 0.005 0
24.56 0.005 0
24.64 0.005 0
24.72 0.005 0
24.8 0.005 0
24.88 0.005 0
24.96 0.005 0
25.04 0.005 0
25.12 0.005 0
25.2 0.005 0
25.28 0.005 0
25.36 0.005 0
25.44 0.005 0
25.52 0.005 0
25.6 0.005 0
25.68 0.005 0
25.76 0.005 0
25.84 0.005 0
25.92 0.005 0
26 0.005 0
26.08 0.005 0
26.16 0.005 0
26.24 0.005 0
26.32 0.005 0
26.4 0.005 0
26.48 0.005 0
26.56 0.005 0
26.64 0.005 0
26.72 0.005 0
26.8 0.005 0
26.88 0.005 0
26.96 0.005 0
27.04 0.005 0
27.12 0.005 0
27.2 0.005 0
27.28 0.005 0
27.36 0.005 0
27.44 0.005 0
27.52 0.005 0
27.6 0.005 0
27.68 0.005 0
27.76 0.005 0
27.84 0.005 0
27.92 0.005 0
28 0.005 0
28.08 0.005 0
28.16 0.005 0
28.24 0.005 0
28.32 0.005 0
28.4 0.005 0
28.48 0.005 0
28.56 0.005 0
28.64 0.005 0
28.72 0.005 0
28.8 0.005 0
28.88 0.005 0
28.96 0.005 0
29.04 0.005 0
29.12 0.005 0
29.2 0.005 0
29.28 0.005 0
29.36 0.005 0
29.44 0.005 0
29.52 0.005 0
29.6 0.005 0
29.68 0.005 0
29.76 0.005 0
29.84 0.005 0
29.92 0.005 0
30 0.005 0
30.08 0.005 0
30.16 0.005 0
30.24 0.005 0
30.32 0.005 0
30.4 0.005 0
30.48 0.005 0
30.56 0.005 0
30.64 0.005 0
30.72 0.005 0
30.8 0.005 0
30.88 0.005 0
30.96 0.005 0
31.04 0.005 0
31.12 0.005 0
31.2 0.005 0
31.28 0.005 0
31.36 0.005 0
31.44 0.005 0
31.52 0.005 0
31.6 0.005 0
31.68 0.005 0
31.76 0.005 0
31.84 0.005 0
31.92 0.005 0
0 0.01 0
0.08 0.01 0
0.16 0.01 0
0.24 0.01 0
0.32 0.01 0
0.4 0.01 0
0.48 0.01 0
0.56 0.01 0
0.64 0.01 0
0.72 0.01 0
0.8 0.01 0
0.88 0.01 0
0.96 0.01 0
1.04 0.01 0
1.12 0.01 0
1.2 0.01 0
1.28 0.01 0
1.36 0.01 0
1.44 0.01 0
1.52 0.01 0
1.6 0.01 0
1.68 0.01 0
1.76 0.01 0
1.84 0.01 0
1.92 0.01 0
2 0.01 0
2.08 0.01 0
2.16 0.01 0
2.24 0.01 0
2.32 0.01 0
2.4 0.01 0
2.48 0.01 0
2.56 0.01 0
2.64 0.01 0
2.72 0.01 0
2.8 0.01 0
2.88 0.01 0
2.96 0.01 0
3.04 0.01 0
3.12 0.01 0
3.2 0.01 0
3.28 0.01 0
3.36 0.01 0
3.44 0.01 0
3.52 0.01 0
3.6 0.01 0
3.68 0.01 0
3.76 0.01 0
3.84 0.01 0
3.92 0.01 0
4 0.01 0
4.08 0.01 0
4.16 0.01 0
4.24 0.01 0
4.32 0.01 0
4.4 0.01 0
4.48 0.01 0
4.56 0.01 0
4.64 0.01 0
4.72 0.01 0
4.8 0.01 0
4.88 0.01 0
4.96 0.01 0
5.04 0.01 0
5.12 0.01 0
[...]
POINT_DATA 80000

SCALARS u float 1
LOOKUP_TABLE default
0
-0.1316625605
-0.06826904023
-0.05229576434
-0.04441960012
-0.03957645952
-0.0362593376
-0.03383227057
-0.03197226643
-0.03049556461
-0.02928947334
-0.02828115206
-0.02742163805
-0.02667697937
-0.02602300632
-0.02544210662
-0.02492116773
-0.02445022873
-0.02402157801
-0.02362913834
-0.02326804082
-0.02293432511
-0.02262472542
-0.02233651538
-0.02206739393
-0.02181540009
-0.02157884843
-0.02135627941
-0.02114642071
-0.02094815663
-0.02076050368
-0.02058259081
-0.02041364319
-0.02025296894
-0.020099948
-0.01995402282
-0.01981469051
-0.0196814962
-0.01955402728
-0.01943190857
-0.01931479807
-0.01920238335
-0.01909437833
-0.01899052054
-0.0188905687
-0.01879430061
-0.01870151125
-0.01861201114
-0.01852562487
-0.01844218983
-0.01836155503
-0.01828358006
-0.01820813418
-0.0181350955
-0.01806435024
-0.01799579203
-0.01792932135
-0.01786484494
-0.01780227536
-0.0177415305
-0.01768253318
-0.0176252108
-0.01756949499
-0.0175153213
-0.01746262893
-0.01741136044
-0.01736146158
-0.01731288099
-0.01726557007
-0.01721948275
-0.01717457537
-0.01713080645
-0.01708813663
-0.01704652848
-0.0170059464
-0.01696635649
-0.01692772646
-0.01689002553
-0.01685322433
-0.01681729482
-0.01678221022
-0.01674794492
-0.01671447442
-0.01668177526
-0.016649825
-0.01661860208
-0.01658808586
-0.01655825651
-0.016529095
-0.01650058304
-0.01647270303
-0.01644543806
-0.01641877182
-0.01639268864
-0.0163671734
-0.0163422115
-0.01631778889
-0.01629389198
-0.01627050765
-0.01624762325
-0.0162252265
-0.01620330557
-0.01618184898
-0.01616084563
-0.01614028476
-0.01612015596
-0.01610044912
-0.01608115443
-0.0160622624
-0.0160437638
-0.01602564965
-0.01600791127
-0.01599054018
-0.01597352818
-0.01595686725
-0.01594054962
-0.01592456774
-0.01590891421
-0.01589358189
-0.01587856378
-0.01586385307
-0.01584944314
-0.01583532752
-0.01582149991
-0.01580795416
-0.01579468429
-0.01578168444
-0.0157689489
-0.01575647212
-0.01574424864
-0.01573227316
-0.01572054049
-0.01570904558
-0.01569778347
-0.01568674933
-0.01567593844
-0.01566534617
-0.01565496802
-0.01564479957
-0.01563483651
-0.01562507463
-0.01561550979
-0.01560613796
-0.01559695519
-0.01558795762
-0.01557914148
-0.01557050306
-0.01556203875
-0.01555374501
-0.01554561837
-0.01553765544
-0.0155298529
-0.01552220751
-0.01551471608
-0.01550737549
-0.01550018269
-0.01549313471
-0.01548622861
-0.01547946153
-0.01547283067
-0.01546633327
-0.01545996666
-0.01545372819
-0.01544761528
-0.01544162542
-0.01543575611
-0.01543000494
-0.01542436952
-0.01541884754
-0.01541343671
-0.0154081348
-0.01540293961
-0.01539784901
-0.01539286089
-0.0153879732
-0.01538318391
-0.01537849105
-0.01537389269
-0.01536938693
-0.0153649719
-0.01536064579
-0.01535640681
-0.01535225321
-0.01534818328
-0.01534419534
-0.01534028773
-0.01533645885
-0.01533270712
-0.01532903099
-0.01532542893
-0.01532189946
-0.01531844113
-0.0153150525
-0.01531173217
-0.01530847877
-0.01530529095
-0.01530216741
-0.01529910684
-0.01529610797
-0.01529316958
-0.01529029044
-0.01528746937
-0.01528470519
-0.01528199675
-0.01527934295
-0.01527674268
-0.01527419487
-0.01527169845
-0.0152692524
-0.0152668557
-0.01526450736
-0.01526220641
-0.01525995189
-0.01525774287
-0.01525557843
-0.01525345768
-0.01525137973
-0.01524934372
-0.01524734881
-0.01524539417
-0.01524347898
-0.01524160245
-0.0152397638
-0.01523796226
-0.01523619708
-0.01523446752
-0.01523277287
-0.01523111242
-0.01522948547
-0.01522789135
-0.01522632939
-0.01522479894
-0.01522329936
-0.01522183004
-0.01522039037
-0.01521897975
-0.0152175976
-0.01521624336
-0.01521491648
-0.01521361641
-0.01521234265
-0.01521109468
-0.01520987202
-0.01520867419
-0.01520750073
-0.0152063512
-0.01520522517
-0.01520412222
-0.01520304197
-0.01520198403
-0.01520094803
-0.01519993364
-0.01519894051
-0.01519796833
-0.01519701679
-0.01519608561
-0.01519517452
-0.01519428325
-0.01519341155
-0.0151925592
-0.01519172596
-0.01519091163
-0.01519011601
-0.01518933891
-0.01518858014
-0.01518783953
-0.01518711691
-0.01518641212
-0.015185725
-0.0151850554
-0.01518440318
-0.01518376817
-0.01518315025
-0.01518254927
-0.01518196507
-0.01518139751
-0.01518084645
-0.01518031173
-0.01517979319
-0.01517929069
-0.01517880405
-0.0151783331
-0.01517787768
-0.01517743761
-0.01517701268
-0.01517660272
-0.01517620752
-0.01517582687
-0.01517546055
-0.01517510835
-0.01517477004
-0.01517444536
-0.01517413408
-0.01517383594
-0.01517355068
-0.01517327803
-0.01517301771
-0.01517276945
-0.01517253295
-0.01517230792
-0.01517209406
-0.01517189106
-0.01517169861
-0.01517151641
-0.01517134414
-0.01517118148
-0.0151710281
-0.0151708837
-0.01517074794
-0.01517062051
-0.01517050108
-0.01517038935
-0.01517028498
-0.01517018768
-0.01517009712
-0.01517001299
-0.01516993501
-0.01516986286
-0.01516979626
-0.01516973492
-0.01516967857
-0.01516962691
-0.0151695797
-0.01516953668
-0.01516949758
-0.01516946216
-0.0151694302
-0.01516940146
-0.01516937573
-0.0151693528
-0.01516933246
-0.01516931454
-0.01516929883
-0.01516928518
-0.01516927342
-0.01516926338
-0.01516925494
-0.01516924794
-0.01516924226
-0.01516923778
-0.01516923439
-0.01516923197
-0.01516923044
-0.01516922971
-0.01516922969
-0.0151692303
-0.01516923147
-0.01516923314
-0.01516923526
-0.01516923776
-0.01516924061
-0.01516924376
-0.01516924716
-0.0151692508
-0.01516925462
-0.01516925862
-0.01516926275
-0.01516926701
-0.01516927137
-0.01516927582
-0.01516928034
-0.01516928494
-0.01516928957
-0.01516929426
-0.01516929897
-0.01516930372
-0.01516930848
-0.01516931329
-0.01516931808
-0.01516932292
-0.01516932773
-0.0151693326
-0.01516933742
-0.0151693423
-0.01516934714
-0.01516935203
-0.01516935687
-0.01516936178
-0.01516936661
-0.01516937153
-0.01516937636
-0.01516938128
-0.01516938611
-0.01516939104
-0.01516939587
-0.01516940078
-0.01516940564
-0.01516941051
-0.01516941543
-0.01516942023
-0.01516942531
-0.01516942991
-0.01516943541
-0.01516943952
-0.015169446
-0.01516944851
-0.01516945726
-0.01516944866
-0.01516944866
-0.01516944866
1
0.1316625605
0.06826904023
0.05229576434
0.04441960012
0.03957645952
0.0362593376
0.03383227057
0.03197226643
0.03049556461
0.02928947334
0.02828115206
0.02742163805
0.02667697937
0.02602300632
0.02544210662
0.02492116773
0.02445022873
0.02402157801
0.02362913834
0.02326804082
0.02293432511
0.02262472542
0.02233651538
0.02206739393
0.02181540009
0.02157884843
0.02135627941
0.02114642071
0.02094815663
0.02076050368
0.02058259081
0.02041364319
0.02025296894
0.020099948
0.01995402282
0.01981469051
0.0196814962
0.01955402728
0.01943190857
0.01931479807
0.01920238335
0.01909437833
0.01899052054
0.0188905687
0.01879430061
0.01870151125
0.01861201114
0.01852562487
0.01844218983
0.01836155503
0.01828358006
0.01820813418
0.0181350955
0.01806435024
0.01799579203
0.01792932135
0.01786484494
0.01780227536
0.0177415305
0.01768253318
0.0176252108
0.01756949499
0.0175153213
0.01746262893
0.01741136044
0.01736146158
0.01731288099
0.01726557007
0.01721948275
0.01717457537
0.01713080645
0.01708813663
0.01704652848
0.0170059464
0.01696635649
0.01692772646
0.01689002553
0.01685322433
0.01681729482
0.01678221022
0.01674794492
0.01671447442
0.01668177526
0.016649825
0.01661860208
0.01658808586
0.01655825651
0.016529095
0.01650058304
0.01647270303
0.01644543806
0.01641877182
0.01639268864
0.0163671734
0.0163422115
0.01631778889
0.01629389198
0.01627050765
0.01624762325
0.0162252265
0.01620330557
0.01618184898
0.01616084563
0.01614028476
0.01612015596
0.01610044912
0.01608115443
0.0160622624
0.0160437638
0.01602564965
0.01600791127
0.01599054018
0.01597352818
0.01595686725
0.01594054962
0.01592456774
0.01590891421
0.01589358189
0.01587856378
0.01586385307
0.01584944314
0.01583532752
0.01582149991
0.01580795416
0.01579468429
0.01578168444
0.0157689489
0.01575647212
0.01574424864
0.01573227316
0.01572054049
0.01570904558
0.01569778347
0.01568674933
0.01567593844
0.01566534617
0.01565496802
0.01564479957
0.01563483651
0.01562507463
0.01561550979
0.01560613796
0.01559695519
0.01558795762
0.01557914148
0.01557050306
0.01556203875
0.01555374501
0.01554561837
0.01553765544
0.0155298529
0.01552220751
0.01551471608
0.01550737549
0.01550018269
0.01549313471
0.01548622861
0.01547946153
0.01547283067
0.01546633327
0.01545996666
0.01545372819
0.01544761528
0.01544162542
0.01543575611
0.01543000494
0.01542436952
0.01541884754
0.01541343671
0.0154081348
0.01540293961
0.01539784901
0.01539286089
0.0153879732
0.01538318391
0.01537849105
0.01537389269
0.01536938693
0.0153649719
0.01536064579
0.01535640681
0.01535225321
0.01534818328
0.01534419534
0.01534028773
0.01533645885
0.01533270712
0.01532903099
0.01532542893
0.01532189946
0.01531844113
0.0153150525
0.01531173217
0.01530847877
0.01530529095
0.01530216741
0.01529910684
0.01529610797
0.01529316958
0.01529029044
0.01528746937
0.01528470519
0.01528199675
0.01527934295
0.01527674268
0.01527419487
0.01527169845
0.0152692524
0.0152668557
0.01526450736
0.01526220641
0.01525995189
0.01525774287
0.01525557843
0.01525345768
0.01525137973
0.01524934372
0.01524734881
0.01524539417
0.01524347898
0.01524160245
0.0152397638
0.01523796226
0.01523619708
0.01523446752
0.01523277287
0.01523111242
0.01522948547
0.01522789135
0.01522632939
0.01522479894
0.01522329936
0.01522183004
0.01522039037
0.01521897975
0.0152175976
0.01521624336
0.01521491648
0.01521361641
0.01521234265
0.01521109468
0.01520987202
0.01520867419
0.01520750073
0.0152063512
0.01520522517
0.01520412222
0.01520304197
0.01520198403
0.01520094803
0.01519993364
0.01519894051
0.01519796833
0.01519701679
0.01519608561
0.01519517452
0.01519428325
0.01519341155
0.0151925592
0.01519172596
0.01519091163
0.01519011601
0.01518933891
0.01518858014
0.01518783953
0.01518711691
0.01518641212
0.015185725
0.0151850554
0.01518440318
0.01518376817
0.01518315025
0.01518254927
0.01518196507
0.01518139751
0.01518084645
0.01518031173
0.01517979319
0.01517929069
0.01517880405
0.0151783331
0.01517787768
0.01517743761
0.01517701268
0.01517660272
0.01517620752
0.01517582687
0.01517546055
0.01517510835
0.01517477004
0.01517444536
0.01517413408
0.01517383594
0.01517355068
0.01517327803
0.01517301771
0.01517276945
0.01517253295
0.01517230792
0.01517209406
0.01517189106
0.01517169861
0.01517151641
0.01517134414
0.01517118148
0.0151710281
0.0151708837
0.01517074794
0.01517062051
0.01517050108
0.01517038935
0.01517028498
0.01517018768
0.01517009712
0.01517001299
0.01516993501
0.01516986286
0.01516979626
0.01516973492
0.01516967857
0.01516962691
0.0151695797
0.01516953668
0.01516949758
0.01516946216
0.0151694302
0.01516940146
0.01516937573
0.0151693528
0.01516933246
0.01516931454
0.01516929883
0.01516928518
0.01516927342
0.01516926338
0.01516925494
0.01516924794
0.01516924226
0.01516923778
0.01516923439
0.01516923197
0.01516923044
0.01516922971
0.01516922969
0.0151692303
0.01516923147
0.01516923314
0.01516923526
0.01516923776
0.01516924061
0.01516924376
0.01516924716
0.0151692508
0.01516925462
0.01516925862
0.01516926275
0.01516926701
0.01516927137
0.01516927582
0.01516928034
0.01516928494
0.01516928957
0.01516929426
0.01516929897
0.01516930372
0.01516930848
0.01516931329
0.01516931808
0.01516932292
0.01516932773
0.0151693326
0.01516933742
0.0151693423
0.01516934714
0.01516935203
0.01516935687
0.01516936178
0.01516936661
0.01516937153
0.01516937636
0.01516938128
0.01516938611
0.01516939104
0.01516939587
0.01516940078
0.01516940564
0.01516941051
0.01516941543
0.01516942023
0.01516942531
0.01516942991
0.01516943541
0.01516943952
0.015169446
0.01516944851
0.01516945726
0.01516944866
0.01516944866
0.01516944866
1
0.3448836493
0.2006672457
0.1549666296
0.131893867
0.1175978196
0.1077670848
0.1005571206
0.09502405288
0.09062809979
0.08703690111
0.08403490278
0.08147678996
0.07926154665
0.07731711219
0.07559088999
0.07404367373
0.07264565694
0.07137375492
0.07020977466
0.06913914392
0.06815001522
0.06723262478
0.06637882724
0.06558175293
0.06483555188
0.06413519968
0.06347634828
0.06285520967
0.06226846407
0.06171318656
0.06118678772
0.06068696521
0.06021166384
0.05975904232
0.0593274455
0.05891538088
0.0585214987
0.05814457494
0.05778349677
0.05743724998
0.05710490809
0.05678562298
0.05647861658
0.05618317375
0.0558986359
0.05562439545
0.05535989096
0.05510460271
0.05485804891
0.05461978224
0.05438938675
0.05416647521
0.05395068658
0.05374168381
0.05353915193
0.05334279616
0.05315234038
0.05296752561
0.05278810871
0.05261386117
0.05244456803
0.05228002683
0.05212004678
0.05196444783
0.05181305999
0.05166572258
0.05152228361
0.05138259917
0.05124653292
0.05111395556
0.05098474437
0.0508587828
0.05073596006
0.05061617076
0.05049931457
0.05038529594
0.05027402374
0.05016541105
0.05005937489
0.04995583597
0.04985471852
0.04975595003
0.04965946108
0.0495651852
0.04947305867
0.04938302035
0.0492950116
0.04920897607
0.04912485963
0.04904261024
0.04896217783
0.04888351419
0.04880657289
0.04873130921
0.04865768
0.04858564363
0.04851515993
0.0484461901
0.04837869665
0.04831264334
0.0482479951
0.04818471802
0.04812277925
0.04806214697
0.04800279037
0.04794467956
0.04788778556
0.04783208026
0.04777753636
0.04772412736
0.04767182753
0.04762061185
0.04757045601
0.04752133637
0.04747322994
0.04742611434
0.0473799678
0.04733476911
0.04729049763
0.04724713325
0.04720465635
0.04716304785
0.04712228912
0.04708236199
0.04704324877
0.04700493215
0.0469673953
0.04693062174
0.04689459541
0.04685930063
0.04682472209
0.04679084481
0.0467576542
0.04672513596
0.04669327615
0.04666206113
0.04663147758
0.04660151246
0.04657215303
0.04654338683
0.0465152017
0.0464875857
0.04646052719
0.04643401476
0.04640803726
0.04638258378
0.04635764364
0.04633320639
0.0463092618
0.04628579986
0.04626281077
0.04624028494
0.04621821298
0.04619658569
0.04617539409
0.04615462935
0.04613428284
0.04611434612
0.04609481091
0.04607566911
0.04605691278
0.04603853415
0.04602052561
0.04600287969
0.0459855891
0.04596864668
0.04595204542
0.04593577846
0.04591983907
0.04590422065
0.04588891677
0.04587392108
0.04585922741
0.04584482966
0.0458307219
0.0458168983
0.04580335315
0.04579008086
0.04577707593
0.045764333
0.04575184681
0.04573961219
0.04572762409
0.04571587757
0.04570436775
0.0456930899
0.04568203934
0.04567121152
0.04566060194
0.04565020624
0.0456400201
0.04563003932
0.04562025977
0.04561067741
0.04560128826
0.04559208844
0.04558307415
0.04557424166
0.0455655873
0.0455571075
0.04554879875
0.0455406576
0.04553268069
0.0455248647
0.0455172064
0.04550970263
0.04550235026
0.04549514626
0.04548808763
0.04548117146
0.04547439487
0.04546775505
0.04546124925
0.04545487478
0.04544862898
0.04544250926
0.04543651309
0.04543063796
0.04542488144
0.04541924113
0.04541371469
0.04540829982
0.04540299425
0.04539779578
0.04539270225
0.04538771152
0.04538282153
0.04537803022
0.04537333561
0.04536873574
0.0453642287
0.04535981261
0.04535548566
0.04535124605
0.04534709204
0.04534302193
0.04533903407
0.04533512683
0.04533129866
0.04532754801
0.04532387343
0.04532027347
0.04531674673
0.0453132919
0.04530990765
0.04530659276
0.04530334601
0.04530016625
0.04529705239
0.04529400334
0.04529101811
0.04528809572
0.04528523525
0.04528243581
0.04527969658
0.04527701675
0.04527439557
0.04527183232
0.04526932632
0.04526687692
0.0452644835
0.04526214548
0.04525986231
0.04525763343
0.04525545835
0.04525333657
0.04525126761
0.04524925101
0.04524728632
0.04524537309
0.04524351089
0.04524169928
0.04523993782
0.04523822608
0.04523656361
0.04523494996
0.04523338468
0.04523186729
0.04523039732
0.04522897426
0.0452275976
0.04522626682
0.04522498136
0.04522374066
0.04522254413
0.04522139115
0.04522028109
0.0452192133
0.0452181871
0.04521720179
0.04521625665
0.04521535093
0.04521448386
0.04521365465
0.0452128625
0.04521210657
0.04521138601
0.04521069996
0.04521004753
0.04520942783
0.04520883994
0.04520828294
0.04520775591
0.04520725789
0.04520678794
0.04520634511
0.04520592846
0.04520553701
0.04520516983
0.04520482596
0.04520450447
0.04520420441
0.04520392486
0.04520366491
0.04520342364
0.04520320016
0.04520299361
0.04520280312
0.04520262785
0.04520246698
0.04520231971
0.04520218527
0.04520206288
0.04520195182
0.04520185137
0.04520176085
0.04520167961
0.045201607
0.04520154242
0.0452014853
0.04520143507
0.04520139121
0.04520135321
0.04520132061
0.04520129295
0.04520126981
0.0452012508
0.04520123554
0.0452012237
0.04520121493
0.04520120896
0.04520120548
0.04520120426
0.04520120504
0.04520120761
0.04520121178
0.04520121735
0.04520122417
0.04520123208
0.04520124095
0.04520125067
0.0452012611
0.04520127218
0.04520128379
0.04520129588
0.04520130835
0.04520132118
0.04520133428
0.04520134764
0.04520136118
0.04520137493
0.04520138878
0.0452014028
0.04520141687
0.04520143107
0.04520144528
0.04520145962
0.04520147392
0.04520148835
0.04520150271
0.0452015172
0.0452015316
0.04520154614
0.04520156056
0.04520157515
0.04520158956
0.04520160419
0.0452016186
0.04520163326
0.04520164766
0.04520166234
0.04520167674
0.04520169141
0.04520170582
0.04520172047
0.04520173494
0.04520174949
0.04520176413
0.04520177845
0.04520179355
0.04520180735
0.04520182356
0.04520183608
0.04520185495
0.0452018632
0.045201888
0.04520186691
0.04520186691
0.04520186691
1
0.518765187
0.3274011951
0.2553467815
0.2178477683
0.1944026538
0.1782107426
0.1663061356
0.1571570584
0.1498824546
0.1439375568
0.1389678802
0.1347337937
0.1310683346
0.1278521737
0.1249980828
0.1224409683
0.1201313058
0.1180307235
0.1161089766
0.1143418428
0.1127096344
0.1111961336
0.1097878176
0.1084732878
0.1072428429
0.1060881552
0.1050020218
0.1039781704
0.1030111066
0.1020959912
0.1012285417
0.1004049515
0.09962182356
0.09887611525
0.09816509201
0.09748628851
0.09683747558
0.09621663205
0.09562192058
0.09505166686
0.09450434165
0.0939785451
0.09347299317
0.09298650573
0.09251799609
0.09206646179
0.09163097653
0.09121068295
0.09080478627
0.09041254859
0.09003328388
0.08966635341
0.08931116172
0.08896715296
0.08863380766
0.08831063971
0.08799719377
0.08769304278
0.08739778581
0.08711104609
0.08683246913
0.08656172116
0.08629848757
0.08604247152
0.08579339273
0.0855509863
0.08531500165
0.08508520153
0.08486136115
0.08464326736
0.08443071785
0.08422352048
0.0840214926
0.0838244605
0.0836322588
0.08344472995
0.08326172375
0.08308309693
0.08290871269
0.08273844036
0.08257215501
0.08240973714
0.08225107233
0.08209605101
0.08194456815
0.081796523
0.08165181887
0.08151036293
0.08137206595
0.08123684215
0.08110460902
0.08097528711
0.08084879992
0.08072507371
0.08060403738
0.08048562237
0.08036976245
0.08025639369
0.08014545431
0.0800368846
0.07993062678
0.07982662497
0.07972482504
0.07962517459
0.07952762284
0.07943212055
0.07933861999
0.07924707483
0.07915744011
0.07906967219
0.07898372867
0.07889956835
0.07881715119
0.07873643825
0.07865739166
0.07857997458
0.07850415114
0.07842988643
0.07835714644
0.07828589807
0.07821610903
0.07814774787
0.07808078394
0.07801518733
0.07795092888
0.07788798015
0.07782631338
0.07776590148
0.07770671801
0.07764873715
0.07759193369
0.07753628301
0.07748176105
0.07742834432
0.07737600986
0.07732473523
0.07727449849
0.07722527821
0.07717705342
0.07712980363
0.0770835088
0.07703814933
0.07699370603
0.07695016016
0.07690749336
0.07686568769
0.07682472558
0.07678458984
0.07674526364
0.07670673052
0.07666897437
0.07663197942
0.07659573021
0.07656021163
0.07652540889
0.07649130748
0.07645789323
0.07642515223
0.07639307089
0.07636163587
0.07633083413
0.07630065289
0.07627107964
0.0762421021
0.07621370829
0.07618588643
0.076158625
0.07613191272
0.07610573854
0.07608009161
0.07605496134
0.07603033732
0.07600620937
0.07598256752
0.07595940198
0.07593670318
0.07591446174
0.07589266845
0.07587131432
0.07585039051
0.07582988836
0.07580979941
0.07579011535
0.07577082804
0.0757519295
0.07573341192
0.07571526763
0.07569748914
0.07568006909
0.07566300028
0.07564627563
0.07562988823
0.0756138313
0.07559809818
0.07558268238
0.07556757749
0.07555277728
0.07553827561
0.07552406647
0.07551014398
0.07549650237
0.07548313599
0.07547003929
0.07545720686
0.07544463337
0.07543231362
0.07542024249
0.07540841498
0.07539682618
0.0753854713
0.07537434562
0.07536344452