# vtk DataFile Version 2.0
FlowField
ASCII
DATASET STRUCTURED_GRID
DIMENSIONS 400 1 200
POINTS 80000 float
0 0 0
0.08 0 0
0.16 0 0
0.24 0 0
0.32 0 0
0.4 0 0
0.48 0 0
0.56 0 0
0.64 0 0
0.72 0 0
0.8 0 0
0.88 0 0
0.96 0 0
1.04 0 0
1.12 0 0
1.2 0 0
1.28 0 0
1.36 0 0
1.44 0 0
1.52 0 0
1.6 0 0
1.68 0 0
1.76 0 0
1.84 0 0
1.92 0 0
2 0 0
2.08 0 0
2.16 0 0
2.24 0 0
2.32 0 0
2.4 0 0
2.48 0 0
2.56 0 0
2.64 0 0
2.72 0 0
2.8 0 0
2.88 0 0
2.96 0 0
3.04 0 0
3.12 0 0
3.2 0 0
3.28 0 0
3.36 0 0
3.44 0 0
3.52 0 0
3.6 0 0
3.68 0 0
3.76 0 0
3.84 0 0
3.92 0 0
4 0 0
4.08 0 0
4.16 0 0
4.24 0 0
4.32 0 0
4.4 0 0
4.48 0 0
4.56 0 0
4.64 0 0
4.72 0 0
4.8 0 0
4.88 0 0
4.96 0 0
5.04 0 0
5.12 0 0
5.2 0 0
5.28 0 0
5.36 0 0
5.44 0 0
5.52 0 0
5.6 0 0
5.68 0 0
5.76 0 0
5.84 0 0
5.92 0 0
6 0 0
6.08 0 0
6.16 0 0
6.24 0 0
6.32 0 0
6.4 0 0
6.48 0 0
6.56 0 0
6.64 0 0
6.72 0 0
6.8 0 0
6.88 0 0
6.96 0 0
7.04 0 0
7.12 0 0
7.2 0 0
7.28 0 0
7.36 0 0
7.44 0 0
7.52 0 0
7.6 0 0
7.68 0 0
7.76 0 0
7.84 0 0
7.92 0 0
8 0 0
8.08 0 0
8.16 0 0
8.24 0 0
8.32 0 0
8.4 0 0
8.48 0 0
8.56 0 0
8.64 0 0
8.72 0 0
8.8 0 0
8.88 0 0
8.96 0 0
9.04 0 0
9.12 0 0
9.2 0 0
9.28 0 0
9.36 0 0
9.44 0 0
9.52 0 0
9.6 0 0
9.68 0 0
9.76 0 0
9.84 0 0
9.92 0 0
10 0 0
10.08 0 0
10.16 0 0
10.24 0 0
10.32 0 0
10.4 0 0
10.48 0 0
10.56 0 0
10.64 0 0
10.72 0 0
10.8 0 0
10.88 0 0
10.96 0 0
11.04 0 0
11.12 0 0
11.2 0 0
11.28 0 0
11.36 0 0
11.44 0 0
11.52 0 0
11.6 0 0
11.68 0 0
11.76 0 0
11.84 0 0
11.92 0 0
12 0 0
12.08 0 0
12.16 0 0
12.24 0 0
12.32 0 0
12.4 0 0
12.48 0 0
12.56 0 0
12.64 0 0
12.72 0 0
12.8 0 0
12.88 0 0
12.96 0 0
13.04 0 0
13.12 0 0
13.2 0 0
13.28 0 0
13.36 0 0
13.44 0 0
13.52 0 0
13.6 0 0
13.68 0 0
13.76 0 0
13.84 0 0
13.92 0 0
14 0 0
14.08 0 0
14.16 0 0
14.24 0 0
14.32 0 0
14.4 0 0
14.48 0 0
14.56 0 0
14.64 0 0
14.72 0 0
14.8 0 0
14.88 0 0
14.96 0 0
15.04 0 0
15.12 0 0
15.2 0 0
15.28 0 0
15.36 0 0
15.44 0 0
15.52 0 0
15.6 0 0
15.68 0 0
15.76 0 0
15.84 0 0
15.92 0 0
16 0 0
16.08 0 0
16.16 0 0
16.24 0 0
16.32 0 0
16.4 0 0
16.48 0 0
16.56 0 0
16.64 0 0
16.72 0 0
16.8 0 0
16.88 0 0
16.96 0 0
17.04 0 0
17.12 0 0
17.2 0 0
17.28 0 0
17.36 0 0
17.44 0 0
17.52 0 0
17.6 0 0
17.68 0 0
17.76 0 0
17.84 0 0
17.92 0 0
18 0 0
18.08 0 0
18.16 0 0
18.24 0 0
18.32 0 0
18.4 0 0
18.48 0 0
18.56 0 0
18.64 0 0
18.72 0 0
18.8 0 0
18.88 0 0
18.96 0 0
19.04 0 0
19.12 0 0
19.2 0 0
19.28 0 0
19.36 0 0
19.44 0 0
19.52 0 0
19.6 0 0
19.68 0 0
19.76 0 0
19.84 0 0
19.92 0 0
20 0 0
20.08 0 0
20.16 0 0
20.24 0 0
20.32 0 0
20.4 0 0
20.48 0 0
20.56 0 0
20.64 0 0
20.72 0 0
20.8 0 0
20.88 0 0
20.96 0 0
21.04 0 0
21.12 0 0
21.2 0 0
21.28 0 0
21.36 0 0
21.44 0 0
21.52 0 0
21.6 0 0
21.68 0 0
21.76 0 0
21.84 0 0
21.92 0 0
22 0 0
22.08 0 0
22.16 0 0
22.24 0 0
22.32 0 0
22.4 0 0
22.48 0 0
22.56 0 0
22.64 0 0
22.72 0 0
22.8 0 0
22.88 0 0
22.96 0 0
23.04 0 0
23.12 0 0
23.2 0 0
23.28 0 0
23.36 0 0
23.44 0 0
23.52 0 0
23.6 0 0
23.68 0 0
23.76 0 0
23.84 0 0
23.92 0 0
24 0 0
24.08 0 0
24.16 0 0
24.24 0 0
24.32 0 0
24.4 0 0
24.48 0 0
24.56 0 0
24.64 0 0
24.72 0 0
24.8 0 0
24.88 0 0
24.96 0 0
25.04 0 0
25.12 0 0
25.2 0 0
25.28 0 0
25.36 0 0
25.44 0 0
25.52 0 0
25.6 0 0
25.68 0 0
25.76 0 0
25.84 0 0
25.92 0 0
26 0 0
26.08 0 0
26.16 0 0
26.24 0 0
26.32 0 0
26.4 0 0
26.48 0 0
26.56 0 0
26.64 0 0
26.72 0 0
26.8 0 0
26.88 0 0
26.96 0 0
27.04 0 0
27.12 0 0
27.2 0 0
27.28 0 0
27.36 0 0
27.44 0 0
27.52 0 0
27.6 0 0
27.68 0 0
27.76 0 0
27.84 0 0
27.92 0 0
28 0 0
28.08 0 0
28.16 0 0
28.24 0 0
28.32 0 0
28.4 0 0
28.48 0 0
28.56 0 0
28.64 0 0
28.72 0 0
28.8 0 0
28.88 0 0
28.96 0 0
29.04 0 0
29.12 0 0
29.2 0 0
29.28 0 0
29.36 0 0
29.44 0 0
29.52 0 0
29.6 0 0
29.68 0 0
29.76 0 0
29.84 0 0
29.92 0 0
30 0 0
30.08 0 0
30.16 0 0
30.24 0 0
30.32 0 0
30.4 0 0
30.48 0 0
30.56 0 0
30.64 0 0
30.72 0 0
30.8 0 0
30.88 0 0
30.96 0 0
31.04 0 0
31.12 0 0
31.2 0 0
31.28 0 0
31.36 0 0
31.44 0 0
31.52 0 0
31.6 0 0
31.68 0 0
31.76 0 0
31.84 0 0
31.92 0 0
0 0.005 0
0.08 0.005 0
0.16 0.005 0
0.24 0.005 0
0.32 0.005 0
0.4 0.005 0
0.48 0.005 0
0.56 0.005 0
0.64 0.005 0
0.72 0.005 0
0.8 0.005 0
0.88 0.005 0
0.96 0.005 0
1.04 0.005 0
1.12 0.005 0
1.2 0.005 0
1.28 0.005 0
1.36 0.005 0
1.44 0.005 0
1.52 0.005 0
1.6 0.005 0
1.68 0.005 0
1.76 0.005 0
1.84 0.005 0
1.92 0.005 0
2 0.005 0
2.08 0.005 0
2.16 0.005 0
2.24 0.005 0
2.32 0.005 0
2.4 0.005 0
2.48 0.005 0
2.56 0.005 0
2.64 0.005 0
2.72 0.005 0
2.8 0.005 0
2.88 0.005 0
2.96 0.005 0
3.04 0.005 0
3.12 0.005 0
3.2 0.005 0
3.28 0.005 0
3.36 0.005 0
3.44 0.005 0
3.52 0.005 0
3.6 0.005 0
3.68 0.005 0
3.76 0.005 0
3.84 0.005 0
3.92 0.005 0
4 0.005 0
4.08 0.005 0
4.16 0.005 0
4.24 0.005 0
4.32 0.005 0
4.4 0.005 0
4.48 0.005 0
4.56 0.005 0
4.64 0.005 0
4.72 0.005 0
4.8 0.005 0
4.88 0.005 0
4.96 0.005 0
5.04 0.005 0
5.12 0.005 0
5.2 0.005 0
5.28 0.005 0
5.36 0.005 0
5.44 0.005 0
5.52 0.005 0
5.6 0.005 0
5.68 0.005 0
5.76 0.005 0
5.84 0.005 0
5.92 0.005 0
6 0.005 0
6.08 0.005 0
6.16 0.005 0
6.24 0.005 0
6.32 0.005 0
6.4 0.005 0
6.48 0.005 0
6.56 0.005 0
6.64 0.005 0
6.72 0.005 0
6.8 0.005 0
6.88 0.005 0
6.96 0.005 0
7.04 0.005 0
7.12 0.005 0
7.2 0.005 0
7.28 0.005 0
7.36 0.005 0
7.44 0.005 0
7.52 0.005 0
7.6 0.005 0
7.68 0.005 0
7.76 0.005 0
7.84 0.005 0
7.92 0.005 0
8 0.005 0
8.08 0.005 0
8.16 0.005 0
8.24 0.005 0
8.32 0.005 0
8.4 0.005 0
8.48 0.005 0
8.56 0.005 0
8.64 0.005 0
8.72 0.005 0
8.8 0.005 0
8.88 0.005 0
8.96 0.005 0
9.04 0.005 0
9.12 0.005 0
9.2 0.005 0
9.28 0.005 0
9.36 0.005 0
9.44 0.005 0
9.52 0.005 0
9.6 0.005 0
9.68 0.005 0
9.76 0.005 0
9.84 0.005 0
9.92 0.005 0
10 0.005 0
10.08 0.005 0
10.16 0.005 0
10.24 0.005 0
10.32 0.005 0
10.4 0.005 0
10.48 0.005 0
10.56 0.005 0
10.64 0.005 0
10.72 0.005 0
10.8 0.005 0
10.88 0.005 0
10.96 0.005 0
11.04 0.005 0
11.12 0.005 0
11.2 0.005 0
11.28 0.005 0
11.36 0.005 0
11.44 0.005 0
11.52 0.005 0
11.6 0.005 0
11.68 0.005 0
11.76 0.005 0
11.84 0.005 0
11.92 0.005 0
12 0.005 0
12.08 0.005 0
12.16 0.005 0
12.24 0.005 0
12.32 0.005 0
12.4 0.005 0
12.48 0.005 0
12.56 0.005 0
12.64 0.005 0
12.72 0.005 0
12.8 0.005 0
12.88 0.005 0
12.96 0.005 0
13.04 0.005 0
13.12 0.005 0
13.2 0.005 0
13.28 0.005 0
13.36 0.005 0
13.44 0.005 0
13.52 0.005 0
13.6 0.005 0
13.68 0.005 0
13.76 0.005 0
13.84 0.005 0
13.92 0.005 0
14 0.005 0
14.08 0.005 0
14.16 0.005 0
14.24 0.005 0
14.32 0.005 0
14.4 0.005 0
14.48 0.005 0
14.56 0.005 0
14.64 0.005 0
14.72 0.005 0
14.8 0.005 0
14.88 0.005 0
14.96 0.005 0
15.04 0.005 0
15.12 0.005 0
15.2 0.005 0
15.28 0.005 0
15.36 0.005 0
15.44 0.005 0
15.52 0.005 0
15.6 0.005 0
15.68 0.005 0
15.76 0.005 0
15.84 0.005 0
15.92 0.005 0
16 0.005 0
16.08 0.005 0
16.16 0.005 0
16.24 0.005 0
16.32 0.005 0
16.4 0.005 0
16.48 0.005 0
16.56 0.005 0
16.64 0.005 0
16.72 0.005 0
16.8 0.005 0
16.88 0.005 0
16.96 0.005 0
17.04 0.005 0
17.12 0.005 0
17.2 0.005 0
17.28 0.005 0
17.36 0.005 0
17.44 0.005 0
17.52 0.005 0
17.6 0.005 0
17.68 0.005 0
17.76 0.005 0
17.84 0.005 0
17.92 0.005 0
18 0.005 0
18.08 0.005 0
18.16 0.005 0
18.24 0.005 0
18.32 0.005 0
18.4 0.005 0
18.48 0.005 0
18.56 0.005 0
18.64 0.005 0
18.72 0.005 0
18.8 0.005 0
18.88 0.005 0
18.96 0.005 0
19.04 0.005 0
19.12 0.005 0
19.2 0.005 0
19.28 0.005 0
19.36 0.005 0
19.44 0.005 0
19.52 0.005 0
19.6 0.005 0
19.68 0.005 0
19.76 0.005 0
19.84 0.005 0
19.92 0.005 0
20 0.005 0
20.08 0.005 0
20.16 0.005 0
20.24 0.005 0
20.32 0.005 0
20.4 0.005 0
20.48 0.005 0
20.56 0.005 0
20.64 0.005 0
20.72 0.005 0
20.8 0.005 0
20.88 0.005 0
20.96 0.005 0
21.04 0.005 0
21.12 0.005 0
21.2 0.005 0
21.28 0.005 0
21.36 0.005 0
21.44 0.005 0
21.52 0.005 0
21.6 0.005 0
21.68 0.005 0
21.76 0.005 0
21.84 0.005 0
21.92 0.005 0
22 0.005 0
22.08 0.005 0
22.16 0.005 0
22.24 0.005 0
22.32 0.005 0
22.4 0.005 0
22.48 0.005 0
22.56 0.005 0
22.64 0.005 0
22.72 0.005 0
22.8 0.005 0
22.88 0.005 0
22.96 0.005 0
23.04 0.005 0
23.12 0.005 0
23.2 0.005 0
23.28 0.005 0
23.36 0.005 0
23.44 0.005 0
23.52 0.005 0
23.6 0.005 0
23.68 0.005 0
23.76 0.005 0
23.84 0.005 0
23.92 0.005 0
24 0.005 0
24.08 0.005 0
24.16 0.005 0
24.24 0.005 0
24.32 0.005 0
24.4 0.005 0
24.48 0.005 0
24.56 0.005 0
24.64 0.005 0
24.72 0.005 0
24.8 0.005 0
24.88 0.005 0
24.96 0.005 0
25.04 0.005 0
25.12 0.005 0
25.2 0.005 0
25.28 0.005 0
25.36 0.005 0
25.44 0.005 0
25.52 0.005 0
25.6 0.005 0
25.68 0.005 0
25.76 0.005 0
25.84 0.005 0
25.92 0.005 0
26 0.005 0
26.08 0.005 0
26.16 0.005 0
26.24 0.005 0
26.32 0.005 0
26.4 0.005 0
26.48 0.005 0
26.56 0.005 0
26.64 0.005 0
26.72 0.005 0
26.8 0.005 0
26.88 0.005 0
26.96 0.005 0
27.04 0.005 0
27.12 0.005 0
27.2 0.005 0
27.28 0.005 0
27.36 0.005 0
27.44 0.005 0
27.52 0.005 0
27.6 0.005 0
27.68 0.005 0
27.76 0.005 0
27.84 0.005 0
27.92 0.005 0
28 0.005 0
28.08 0.005 0
28.16 0.005 0
28.24 0.005 0
28.32 0.005 0
28.4 0.005 0
28.48 0.005 0
28.56 0.005 0
28.64 0.005 0
28.72 0.005 0
28.8 0.005 0
28.88 0.005 0
28.96 0.005 0
29.04 0.005 0
29.12 0.005 0
29.2 0.005 0
29.28 0.005 0
29.36 0.005 0
29.44 0.005 0
29.52 0.005 0
29.6 0.005 0
29.68 0.005 0
29.76 0.005 0
29.84 0.005 0
29.92 0.005 0
30 0.005 0
30.08 0.005 0
30.16 0.005 0
30.24 0.005 0
30.32 0.005 0
30.4 0.005 0
30.48 0.005 0
30.56 0.005 0
30.64 0.005 0
30.72 0.005 0
30.8 0.005 0
30.88 0.005 0
30.96 0.005 0
31.04 0.005 0
31.12 0.005 0
31.2 0.005 0
31.28 0.005 0
31.36 0.005 0
31.44 0.005 0
31.52 0.005 0
31.6 0.005 0
31.68 0.005 0
31.76 0.005 0
31.84 0.005 0
31.92 0.005 0
0 0.01 0
0.08 0.01 0
0.16 0.01 0
0.24 0.01 0
0.32 0.01 0
0.4 0.01 0
0.48 0.01 0
0.56 0.01 0
0.64 0.01 0
0.72 0.01 0
0.8 0.01 0
0.88 0.01 0
0.96 0.01 0
1.04 0.01 0
1.12 0.01 0
1.2 0.01 0
1.28 0.01 0
1.36 0.01 0
1.44 0.01 0
1.52 0.01 0
1.6 0.01 0
1.68 0.01 0
1.76 0.01 0
1.84 0.01 0
1.92 0.01 0
2 0.01 0
2.08 0.01 0
2.16 0.01 0
2.24 0.01 0
2.32 0.01 0
2.4 0.01 0
2.48 0.01 0
2.56 0.01 0
2.64 0.01 0
2.72 0.01 0
2.8 0.01 0
2.88 0.01 0
2.96 0.01 0
3.04 0.01 0
3.12 0.01 0
3.2 0.01 0
3.28 0.01 0
3.36 0.01 0
3.44 0.01 0
3.52 0.01 0
3.6 0.01 0
3.68 0.01 0
3.76 0.01 0
3.84 0.01 0
3.92 0.01 0
4 0.01 0
4.08 0.01 0
4.16 0.01 0
4.24 0.01 0
4.32 0.01 0
4.4 0.01 0
4.48 0.01 0
4.56 0.01 0
4.64 0.01 0
4.72 0.01 0
4.8 0.01 0
4.88 0.01 0
4.96 0.01 0
5.04 0.01 0
5.12 0.01 0
[...]
POINT_DATA 80000

SCALARS p float 1
LOOKUP_TABLE default
1
56.54936812
56.24763301
56.20647315
56.1863831
56.1719641
56.15996306
56.14921957
56.13922137
56.1297157
56.12056932
56.11170852
56.10309053
56.09468895
56.08648611
56.078469
56.07062707
56.06295109
56.05543264
56.04806379
56.040837
56.03374509
56.02678123
56.01993894
56.01321209
56.00659492
56.00008199
55.99366823
55.98734887
55.98111947
55.97497584
55.96891412
55.96293064
55.95702203
55.95118507
55.9454168
55.93971442
55.93407529
55.92849695
55.92297708
55.91751349
55.91210413
55.90674705
55.9014404
55.89618246
55.89097158
55.8858062
55.88068484
55.87560609
55.87056863
55.86557117
55.8606125
55.85569148
55.850807
55.84595801
55.8411435
55.83636251
55.83161411
55.82689743
55.82221161
55.81755585
55.81292935
55.80833138
55.80376121
55.79921813
55.79470149
55.79021064
55.78574494
55.78130381
55.77688666
55.77249293
55.76812208
55.76377358
55.75944692
55.75514161
55.75085718
55.74659315
55.74234909
55.73812455
55.73391912
55.72973237
55.72556392
55.72141337
55.71728035
55.71316448
55.70906541
55.70498279
55.70091628
55.69686555
55.69283028
55.68881014
55.68480484
55.68081408
55.67683755
55.67287498
55.66892608
55.66499059
55.66106823
55.65715874
55.65326188
55.64937739
55.64550502
55.64164455
55.63779573
55.63395834
55.63013215
55.62631695
55.62251252
55.61871865
55.61493514
55.61116178
55.60739838
55.60364475
55.5999007
55.59616603
55.59244058
55.58872416
55.5850166
55.58131772
55.57762737
55.57394538
55.57027158
55.56660583
55.56294797
55.55929784
55.55565531
55.55202024
55.54839248
55.5447719
55.54115838
55.53755179
55.53395202
55.53035894
55.52677245
55.52319244
55.51961882
55.5160515
55.51249038
55.50893538
55.50538643
55.50184345
55.49830638
55.49477514
55.49124968
55.48772993
55.48421585
55.48070737
55.47720445
55.47370704
55.47021507
55.46672851
55.4632473
55.45977139
55.45630073
55.45283526
55.44937494
55.44591969
55.44246946
55.43902419
55.43558381
55.43214826
55.42871747
55.42529136
55.42186986
55.41845288
55.41504035
55.41163218
55.40822828
55.40482857
55.40143295
55.39804133
55.39465361
55.39126969
55.38788948
55.38451287
55.38113975
55.37777001
55.37440357
55.3710403
55.36768011
55.36432288
55.36096852
55.35761691
55.35426793
55.35092149
55.34757747
55.34423577
55.34089629
55.33755893
55.33422358
55.33089015
55.32755853
55.32422862
55.32090033
55.31757356
55.31424823
55.31092423
55.30760149
55.30427993
55.30095947
55.29764002
55.29432152
55.29100388
55.28768703
55.28437091
55.28105545
55.2777406
55.27442628
55.27111246
55.26779908
55.2644861
55.26117347
55.25786114
55.25454908
55.25123725
55.2479256
55.24461412
55.24130278
55.23799154
55.2346804
55.23136932
55.2280583
55.22474733
55.22143639
55.21812547
55.21481457
55.21150368
55.20819279
55.2048819
55.20157101
55.19826012
55.19494921
55.1916383
55.18832739
55.18501646
55.18170553
55.17839458
55.17508363
55.17177266
55.16846169
55.1651507
55.16183971
55.1585287
55.15521769
55.15190666
55.14859563
55.14528458
55.14197352
55.13866246
55.13535138
55.13204029
55.12872919
55.12541809
55.12210697
55.11879584
55.1154847
55.11217355
55.10886239
55.10555122
55.10224003
55.09892884
55.09561764
55.09230643
55.0889952
55.08568397
55.08237272
55.07906147
55.0757502
55.07243893
55.06912764
55.06581634
55.06250504
55.05919372
55.05588239
55.05257105
55.0492597
55.04594834
55.04263696
55.03932558
55.03601419
55.03270278
55.02939137
55.02607994
55.02276851
55.01945706
55.0161456
55.01283413
55.00952266
55.00621117
55.00289966
54.99958815
54.99627663
54.9929651
54.98965355
54.986342
54.98303043
54.97971885
54.97640727
54.97309567
54.96978406
54.96647244
54.96316081
54.95984916
54.95653751
54.95322585
54.94991417
54.94660248
54.94329079
54.93997908
54.93666736
54.93335563
54.93004388
54.92673213
54.92342037
54.92010859
54.91679681
54.91348501
54.9101732
54.90686138
54.90354955
54.90023771
54.89692586
54.89361399
54.89030212
54.88699023
54.88367833
54.88036642
54.8770545
54.87374257
54.87043063
54.86711867
54.86380671
54.86049473
54.85718274
54.85387074
54.85055873
54.84724671
54.84393467
54.84062263
54.83731057
54.83399851
54.83068643
54.82737434
54.82406223
54.82075012
54.81743799
54.81412586
54.81081371
54.80750155
54.80418938
54.8008772
54.797565
54.7942528
54.79094058
54.78762835
54.78431611
54.78100386
54.77769159
54.77437932
54.77106703
54.76775473
54.76444242
54.7611301
54.75781777
54.75450542
54.75119307
54.7478807
54.74456832
54.74125593
54.73794352
54.73463111
54.73131868
54.72800624
54.72469379
54.72138133
54.71806885
54.71475637
54.71144387
54.70813136
54.70481884
54.7015063
54.69819376
54.6948812
54.69156863
54.68825605
54.68494346
54.68163086
54.67831824
54.67500561
54.67169297
54.66838032
54.66506765
54.66175498
54.65844228
54.6551296
54.65181684
54.64850418
54.64519132
54.6418791
0.5
56.54936812
56.54936812
56.24763301
56.20647315
56.1863831
56.1719641
56.15996306
56.14921957
56.13922137
56.1297157
56.12056932
56.11170852
56.10309053
56.09468895
56.08648611
56.078469
56.07062707
56.06295109
56.05543264
56.04806379
56.040837
56.03374509
56.02678123
56.01993894
56.01321209
56.00659492
56.00008199
55.99366823
55.98734887
55.98111947
55.97497584
55.96891412
55.96293064
55.95702203
55.95118507
55.9454168
55.93971442
55.93407529
55.92849695
55.92297708
55.91751349
55.91210413
55.90674705
55.9014404
55.89618246
55.89097158
55.8858062
55.88068484
55.87560609
55.87056863
55.86557117
55.8606125
55.85569148
55.850807
55.84595801
55.8411435
55.83636251
55.83161411
55.82689743
55.82221161
55.81755585
55.81292935
55.80833138
55.80376121
55.79921813
55.79470149
55.79021064
55.78574494
55.78130381
55.77688666
55.77249293
55.76812208
55.76377358
55.75944692
55.75514161
55.75085718
55.74659315
55.74234909
55.73812455
55.73391912
55.72973237
55.72556392
55.72141337
55.71728035
55.71316448
55.70906541
55.70498279
55.70091628
55.69686555
55.69283028
55.68881014
55.68480484
55.68081408
55.67683755
55.67287498
55.66892608
55.66499059
55.66106823
55.65715874
55.65326188
55.64937739
55.64550502
55.64164455
55.63779573
55.63395834
55.63013215
55.62631695
55.62251252
55.61871865
55.61493514
55.61116178
55.60739838
55.60364475
55.5999007
55.59616603
55.59244058
55.58872416
55.5850166
55.58131772
55.57762737
55.57394538
55.57027158
55.56660583
55.56294797
55.55929784
55.55565531
55.55202024
55.54839248
55.5447719
55.54115838
55.53755179
55.53395202
55.53035894
55.52677245
55.52319244
55.51961882
55.5160515
55.51249038
55.50893538
55.50538643
55.50184345
55.49830638
55.49477514
55.49124968
55.48772993
55.48421585
55.48070737
55.47720445
55.47370704
55.47021507
55.46672851
55.4632473
55.45977139
55.45630073
55.45283526
55.44937494
55.44591969
55.44246946
55.43902419
55.43558381
55.43214826
55.42871747
55.42529136
55.42186986
55.41845288
55.41504035
55.41163218
55.40822828
55.40482857
55.40143295
55.39804133
55.39465361
55.39126969
55.38788948
55.38451287
55.38113975
55.37777001
55.37440357
55.3710403
55.36768011
55.36432288
55.36096852
55.35761691
55.35426793
55.35092149
55.34757747
55.34423577
55.34089629
55.33755893
55.33422358
55.33089015
55.32755853
55.32422862
55.32090033
55.31757356
55.31424823
55.31092423
55.30760149
55.30427993
55.30095947
55.29764002
55.29432152
55.29100388
55.28768703
55.28437091
55.28105545
55.2777406
55.27442628
55.27111246
55.26779908
55.2644861
55.26117347
55.25786114
55.25454908
55.25123725
55.2479256
55.24461412
55.24130278
55.23799154
55.2346804
55.23136932
55.2280583
55.22474733
55.22143639
55.21812547
55.21481457
55.21150368
55.20819279
55.2048819
55.20157101
55.19826012
55.19494921
55.1916383
55.18832739
55.18501646
55.18170553
55.17839458
55.17508363
55.17177266
55.16846169
55.1651507
55.16183971
55.1585287
55.15521769
55.15190666
55.14859563
55.14528458
55.14197352
55.13866246
55.13535138
55.13204029
55.12872919
55.12541809
55.12210697
55.11879584
55.1154847
55.11217355
55.10886239
55.10555122
55.10224003
55.09892884
55.09561764
55.09230643
55.0889952
55.08568397
55.08237272
55.07906147
55.0757502
55.07243893
55.06912764
55.06581634
55.06250504
55.05919372
55.05588239
55.05257105
55.0492597
55.04594834
55.04263696
55.03932558
55.03601419
55.03270278
55.02939137
55.02607994
55.02276851
55.01945706
55.0161456
55.01283413
55.00952266
55.00621117
55.00289966
54.99958815
54.99627663
54.9929651
54.98965355
54.986342
54.98303043
54.97971885
54.97640727
54.97309567
54.96978406
54.96647244
54.96316081
54.95984916
54.95653751
54.95322585
54.94991417
54.94660248
54.94329079
54.93997908
54.93666736
54.93335563
54.93004388
54.92673213
54.92342037
54.92010859
54.91679681
54.91348501
54.9101732
54.90686138
54.90354955
54.90023771
54.89692586
54.89361399
54.89030212
54.88699023
54.88367833
54.88036642
54.8770545
54.87374257
54.87043063
54.86711867
54.86380671
54.86049473
54.85718274
54.85387074
54.85055873
54.84724671
54.84393467
54.84062263
54.83731057
54.83399851
54.83068643
54.82737434
54.82406223
54.82075012
54.81743799
54.81412586
54.81081371
54.80750155
54.80418938
54.8008772
54.797565
54.7942528
54.79094058
54.78762835
54.78431611
54.78100386
54.77769159
54.77437932
54.77106703
54.76775473
54.76444242
54.7611301
54.75781777
54.75450542
54.75119307
54.7478807
54.74456832
54.74125593
54.73794352
54.73463111
54.73131868
54.72800624
54.72469379
54.72138133
54.71806885
54.71475637
54.71144387
54.70813136
54.70481884
54.7015063
54.69819376
54.6948812
54.69156863
54.68825605
54.68494346
54.68163086
54.67831824
54.67500561
54.67169297
54.66838032
54.66506765
54.66175498
54.65844228
54.6551296
54.65181684
54.64850418
54.64519132
54.6418791
54.6418791
56.53478638
56.53478638
56.25146889
56.20772856
56.18701834
56.17235861
56.16023475
56.14941902
56.13937451
56.12983739
56.12066874
56.11179162
56.10316132
56.09475024
56.08653989
56.07851673
56.07066983
56.06298972
56.05546778
56.04809594
56.04086656
56.0337724
56.02680655
56.0199625
56.01323409
56.00661551
56.00010132
55.99368641
55.98736601
55.98113565
55.97499116
55.96892863
55.96294443
55.95703513
55.95119755
55.9454287
55.93972578
55.93408615
55.92850734
55.92298703
55.91752304
55.91211329
55.90675585
55.90144886
55.8961906
55.89097942
55.88581376
55.88069213
55.87561313
55.87057542
55.86557773
55.86061885
55.85569762
55.85081295
55.84596377
55.84114908
55.83636791
55.83161936
55.82690252
55.82221655
55.81756065
55.81293402
55.80833591
55.80376561
55.79922242
55.79470566
55.79021469
55.78574889
55.78130766
55.77689041
55.77249658
55.76812564
55.76377705
55.7594503
55.75514491
55.75086039
55.74659629
55.74235215
55.73812754
55.73392203
55.72973522
55.7255667
55.72141609
55.717283
55.71316707
55.70906794
55.70498527
55.7009187
55.69686792
55.69283259
55.68881241
55.68480706
55.68081624
55.67683967
55.67287705
55.66892811
55.66499257
55.66107017
55.65716064
55.65326374
55.6493792
55.6455068
55.64164629
55.63779743
55.63396
55.63013378
55.62631855
55.62251408
55.61872018
55.61493664
55.61116325
55.60739982
55.60364616
55.59990207
55.59616738
55.5924419
55.58872545
55.58501786
55.58131896
55.57762859
55.57394657
55.57027275
55.56660697
55.56294908
55.55929894
55.55565639
55.55202129
55.54839351
55.54477291
55.54115937
55.53755276
55.53395296
55.53035986
55.52677335
55.52319333
55.51961969
55.51605235
55.51249121
55.5089362
55.50538723
55.50184424
55.49830714
55.49477589
55.49125041
55.48773065
55.48421655
55.48070805
55.47720512
55.47370768
55.4702157
55.46672913
55.4632479
55.45977197
55.4563013
55.45283581
55.44937547
55.44592021
55.44246996
55.43902468
55.43558428
55.43214872
55.42871791
55.42529178
55.42187026
55.41845327
55.41504073
55.41163254
55.40822863
55.4048289
55.40143327
55.39804163
55.3946539
55.39126997
55.38788974
55.38451312
55.38113998
55.37777024
55.37440378
55.3710405
55.3676803
55.36432306
55.36096869
55.35761706
55.35426808
55.35092163
55.3475776
55.34423589
55.3408964
55.33755903
55.33422368
55.33089023
55.32755861
55.32422869
55.3209004
55.31757362
55.31424828
55.31092428
55.30760154
55.30427997
55.3009595
55.29764005
55.29432154
55.2910039
55.28768705
55.28437093
55.28105547
55.27774061
55.27442629
55.27111247
55.26779909
55.2644861
55.26117347
55.25786114
55.25454908
55.25123724
55.2479256
55.24461412
55.24130277
55.23799154
55.23468039
55.23136931
55.2280583
55.22474732
55.22143638
55.21812546
55.21481456
55.21150367
55.20819278
55.20488189
55.201571
55.19826011
55.19494921
55.1916383
55.18832738
55.18501645
55.18170552
55.17839457
55.17508362
55.17177265
55.16846168
55.16515069
55.1618397
55.15852869
55.15521768
55.15190665
55.14859562
55.14528457
55.14197351
55.13866245
55.13535137
55.13204028
55.12872918
55.12541808
55.12210696
55.11879583
55.11548469
55.11217354
55.10886238
55.10555121
55.10224003
55.09892883
55.09561763
55.09230642
55.08899519
55.08568396
55.08237272
55.07906146
55.0757502
55.07243892
55.06912763
55.06581634
55.06250503
55.05919371
55.05588238
55.05257104
55.04925969
55.04594833
55.04263696
55.03932557
55.03601418
55.03270278
55.02939136
55.02607994
55.0227685
55.01945705
55.0161456
55.01283413
55.00952265
55.00621116
55.00289966
54.99958814
54.99627662
54.99296509
54.98965354
54.98634199
54.98303042
54.97971885
54.97640726
54.97309566
54.96978405
54.96647243
54.9631608
54.95984916
54.9565375
54.95322584
54.94991416
54.94660248
54.94329078
54.93997907
54.93666735
54.93335562
54.93004388
54.92673212
54.92342036
54.92010859
54.9167968
54.913485
54.91017319
54.90686137
54.90354954
54.9002377
54.89692585
54.89361398
54.89030211
54.88699022
54.88367832
54.88036641
54.87705449
54.87374256
54.87043062
54.86711867
54.8638067
54.86049472
54.85718273
54.85387073
54.85055872
54.8472467
54.84393467
54.84062262
54.83731057
54.8339985
54.83068642
54.82737433
54.82406223
54.82075011
54.81743799
54.81412585
54.8108137
54.80750154
54.80418937
54.80087719
54.797565
54.79425279
54.79094057
54.78762834
54.7843161
54.78100385
54.77769159
54.77437931
54.77106703
54.76775473
54.76444242
54.7611301
54.75781776
54.75450542
54.75119306
54.74788069
54.74456831
54.74125592
54.73794352
54.7346311
54.73131867
54.72800623
54.72469378
54.72138132
54.71806885
54.71475636
54.71144386
54.70813135
54.70481883
54.7015063
54.69819375
54.6948812
54.69156863
54.68825605
54.68494346
54.68163085
54.67831823
54.67500561
54.67169297
54.66838032
54.66506765
54.66175498
54.65844227
54.65512959
54.65181683
54.64850417
54.64519133
54.64187909
54.64187909
56.51880178
56.51880178
56.25465731
56.20891574
56.18763434
56.17274488
56.16050218
56.14961595
56.13952599
56.12995787
56.12076718
56.11187387
56.10323135
56.09481081
56.08659299
56.07856382
56.07071198
56.06302777
56.05550236
56.04812755
56.04089562
56.03379922
56.02683142
56.01998563
56.01325567
56.0066357
56.00012026
55.99370423
55.9873828
55.98115151
55.97500616
55.96894285
55.96295793
55.95704797
55.95120977
55.94544035
55.9397369
55.93409678
55.92851751
55.92299677
55.91753238
55.91212225
55.90676446
55.90145714
55.89619857
55.89098709
55.88582115
55.88069926
55.87562001
55.87058206
55.86558415
55.86062506
55.85570363
55.85081876
55.84596939
55.84115453
55.8363732
55.83162448
55.82690749
55.82222138
55.81756533
55.81293857
55.80834034
55.80376991
55.7992266
55.79470973
55.79021866
55.78575275
55.78131142
55.77689407
55.77250015
55.76812911
55.76378043
55.7594536
55.75514813
55.75086353
55.74659935
55.74235514
55.73813046
55.73392488
55.729738
55.72556942
55.72141874
55.71728559
55.7131696
55.70907042
55.70498769
55.70092107
55.69687023
55.69283485
55.68881461
55.68480922
55.68081835
55.67684173
55.67287907
55.66893008
55.6649945
55.66107206
55.65716249
55.65326555
55.64938098
55.64550854
55.64164799
55.63779909
55.63396163
55.63013537
55.6263201
55.62251561
55.61872167
55.6149381
55.61116468
55.60740122
55.60364753
55.59990342
55.5961687
55.59244319
55.58872671
55.5850191
55.58132018
55.57762977
55.57394773
55.57027389
55.56660809
55.56295018
55.55930001
55.55565743
55.55202232
55.54839451
55.5447739
55.54116034
55.53755371
55.53395389
55.53036077
55.52677424
55.5231942
55.51962055
55.51605318
55.51249203
55.508937
55.50538801
55.501845
55.49830789
55.49477662
55.49125112
55.48773134
55.48421723
55.48070872
55.47720576
55.47370832
55.47021632
55.46672973
55.46324848
55.45977254
55.45630185
55.45283635
55.44937599
55.44592071
55.44247045
55.43902515
55.43558474
55.43214916
55.42871833
55.42529219
55.42187066
55.41845365
55.41504109
55.41163289
55.40822897
55.40482922
55.40143357
55.39804192
55.39465418
55.39127024
55.38789
55.38451336
55.38114021
55.37777046
55.37440398
55.37104069
55.36768048
55.36432324
55.36096885
55.35761722
55.35426822
55.35092176
55.34757772
55.34423601
55.34089651
55.33755913
55.33422377
55.33089032
55.32755869
55.32422877
55.32090046
55.31757368
55.31424833
55.31092433
55.30760158
55.30428001
55.30095954
55.29764008
55.29432157
55.29100392
55.28768707
55.28437095
55.28105548
55.27774062
55.2744263
55.27111247
55.26779909
55.26448611
55.26117347
55.25786114
55.25454908
55.25123724
55.2479256
55.24461412
55.24130277
55.23799153
55.23468038
55.23136931
55.22805829
55.22474732
55.22143638
55.21812546
55.21481456
55.21150367
55.20819278
55.20488189
55.201571
55.1982601
55.1949492
55.19163829
55.18832737
55.18501645
55.18170551
55.17839457
55.17508361
55.17177265
55.16846167
55.16515069
55.16183969
55.15852869
55.15521767
55.15190665
55.14859561
55.14528457
55.14197351
55.13866244
55.13535137
55.13204028
55.12872918
55.12541807
55.12210695
55.11879582
55.11548468
55.11217353
55.10886237
55.1055512
55.10224002
55.09892883
55.09561763
55.09230641
55.08899519
55.08568396
55.08237271
55.07906146
55.07575019
55.07243891
55.06912763
55.06581633
55.06250502
55.0591937
55.05588237
55.05257103
55.04925968
55.04594832
55.04263695
55.03932557
55.03601418
55.03270277
55.02939136
55.02607993
55.0227685
55.01945705
55.01614559
55.01283412
55.00952264
55.00621115
55.00289965
54.99958814
54.99627662
54.99296508
54.98965354
54.98634198
54.98303042
54.97971884
54.97640725
54.97309566
54.96978405
54.96647242
54.96316079
54.95984915
54.9565375
54.95322583
54.94991416
54.94660247
54.94329077
54.93997906
54.93666734
54.93335561
54.93004387
54.92673212
54.92342036
54.92010858
54.91679679
54.913485
54.91017319
54.90686137
54.90354954
54.9002377
54.89692584
54.89361398
54.8903021
54.88699022
54.88367832
54.88036641
54.87705449
54.87374256
54.87043061
54.86711866
54.86380669
54.86049472
54.85718273
54.85387073
54.85055872
54.8472467
54.84393466
54.84062262
54.83731056
54.83399849
54.83068641
54.82737432
54.82406222
54.82075011
54.81743798
54.81412585
54.8108137
54.80750154
54.80418937
54.80087718
54.79756499
54.79425279
54.79094057
54.78762834
54.7843161
54.78100385
54.77769158
54.77437931
54.77106702
54.76775472
54.76444241
54.76113009
54.75781776
54.75450541
54.75119306
54.74788069
54.74456831
54.74125591
54.73794351
54.7346311
54.73131867
54.72800623
54.72469378
54.72138132
54.71806884
54.71475636
54.71144386
54.70813135
54.70481883
54.70150629
54.69819375
54.69488119
54.69156862
54.68825604
54.68494345
54.68163085
54.67831823
54.6750056
54.67169296
54.66838031
54.66506764
54.66175497
54.65844227
54.65512958
54.65181683
54.64850416
54.64519133
54.64187909
54.64187909
56.50288696
56.50288696
56.25754391
56.21005578
56.18823593
56.1731249
56.16076642
56.14981102
56.13967623
56.13007742
56.12086484
56.11195542
56.10330071
56.09487074
56.08664548
56.0786103
56.07075356
56.06306526
56.0555364
56.04815866
56.04092419
56.03382558
56.02685584
56.02000834
56.01327685
56.00665551
56.00013884
55.99372169
55.98739926
55.98116705
55.97502086
55.96895678
55.96297115
55.95706053
55.95122173
55.94545175
55.93974778
55.93410717
55.92852746
55.9230063
55.91754151
55.91213102
55.90677287
55.90146523
55.89620635
55.89099459
55.88582837
55.88070622
55.87562673
55.87058855
55.86559042
55.86063112
55.85570949
55.85082443
55.84597489
55.84115985
55.83637836
55.83162949
55.82691235
55.82222609
55.81756991
55.81294302
55.80834466
55.80377411
55.79923069
55.7947137
55.79022252
55.78575651
55.78131508
55.77689764
55.77250363
55.7681325
55.76378373
55.75945682
55.75515127
55.7508666
55.74660234
55.74235806
55.7381333
55.73392766