# vtk DataFile Version 2.0
FlowField
ASCII
DATASET STRUCTURED_GRID
DIMENSIONS 400 1 200
POINTS 80000 float
0 0 0
0.08 0 0
0.16 0 0
0.24 0 0
0.32 0 0
0.4 0 0
0.48 0 0
0.56 0 0
0.64 0 0
0.72 0 0
0.8 0 0
0.88 0 0
0.96 0 0
1.04 0 0
1.12 0 0
1.2 0 0
1.28 0 0
1.36 0 0
1.44 0 0
1.52 0 0
1.6 0 0
1.68 0 0
1.76 0 0
1.84 0 0
1.92 0 0
2 0 0
2.08 0 0
2.16 0 0
2.24 0 0
2.32 0 0
2.4 0 0
2.48 0 0
2.56 0 0
2.64 0 0
2.72 0 0
2.8 0 0
2.88 0 0
2.96 0 0
3.04 0 0
3.12 0 0
3.2 0 0
3.28 0 0
3.36 0 0
3.44 0 0
3.52 0 0
3.6 0 0
3.68 0 0
3.76 0 0
3.84 0 0
3.92 0 0
4 0 0
4.08 0 0
4.16 0 0
4.24 0 0
4.32 0 0
4.4 0 0
4.48 0 0
4.56 0 0
4.64 0 0
4.72 0 0
4.8 0 0
4.88 0 0
4.96 0 0
5.04 0 0
5.12 0 0
5.2 0 0
5.28 0 0
5.36 0 0
5.44 0 0
5.52 0 0
5.6 0 0
5.68 0 0
5.76 0 0
5.84 0 0
5.92 0 0
6 0 0
6.08 0 0
6.16 0 0
6.24 0 0
6.32 0 0
6.4 0 0
6.48 0 0
6.56 0 0
6.64 0 0
6.72 0 0
6.8 0 0
6.88 0 0
6.96 0 0
7.04 0 0
7.12 0 0
7.2 0 0
7.28 0 0
7.36 0 0
7.44 0 0
7.52 0 0
7.6 0 0
7.68 0 0
7.76 0 0
7.84 0 0
7.92 0 0
8 0 0
8.08 0 0
8.16 0 0
8.24 0 0
8.32 0 0
8.4 0 0
8.48 0 0
8.56 0 0
8.64 0 0
8.72 0 0
8.8 0 0
8.88 0 0
8.96 0 0
9.04 0 0
9.12 0 0
9.2 0 0
9.28 0 0
9.36 0 0
9.44 0 0
9.52 0 0
9.6 0 0
9.68 0 0
9.76 0 0
9.84 0 0
9.92 0 0
10 0 0
10.08 0 0
10.16 0 0
10.24 0 0
10.32 0 0
10.4 0 0
10.48 0 0
10.56 0 0
10.64 0 0
10.72 0 0
10.8 0 0
10.88 0 0
10.96 0 0
11.04 0 0
11.12 0 0
11.2 0 0
11.28 0 0
11.36 0 0
11.44 0 0
11.52 0 0
11.6 0 0
11.68 0 0
11.76 0 0
11.84 0 0
11.92 0 0
12 0 0
12.08 0 0
12.16 0 0
12.24 0 0
12.32 0 0
12.4 0 0
12.48 0 0
12.56 0 0
12.64 0 0
12.72 0 0
12.8 0 0
12.88 0 0
12.96 0 0
13.04 0 0
13.12 0 0
13.2 0 0
13.28 0 0
13.36 0 0
13.44 0 0
13.52 0 0
13.6 0 0
13.68 0 0
13.76 0 0
13.84 0 0
13.92 0 0
14 0 0
14.08 0 0
14.16 0 0
14.24 0 0
14.32 0 0
14.4 0 0
14.48 0 0
14.56 0 0
14.64 0 0
14.72 0 0
14.8 0 0
14.88 0 0
14.96 0 0
15.04 0 0
15.12 0 0
15.2 0 0
15.28 0 0
15.36 0 0
15.44 0 0
15.52 0 0
15.6 0 0
15.68 0 0
15.76 0 0
15.84 0 0
15.92 0 0
16 0 0
16.08 0 0
16.16 0 0
16.24 0 0
16.32 0 0
16.4 0 0
16.48 0 0
16.56 0 0
16.64 0 0
16.72 0 0
16.8 0 0
16.88 0 0
16.96 0 0
17.04 0 0
17.12 0 0
17.2 0 0
17.28 0 0
17.36 0 0
17.44 0 0
17.52 0 0
17.6 0 0
17.68 0 0
17.76 0 0
17.84 0 0
17.92 0 0
18 0 0
18.08 0 0
18.16 0 0
18.24 0 0
18.32 0 0
18.4 0 0
18.48 0 0
18.56 0 0
18.64 0 0
18.72 0 0
18.8 0 0
18.88 0 0
18.96 0 0
19.04 0 0
19.12 0 0
19.2 0 0
19.28 0 0
19.36 0 0
19.44 0 0
19.52 0 0
19.6 0 0
19.68 0 0
19.76 0 0
19.84 0 0
19.92 0 0
20 0 0
20.08 0 0
20.16 0 0
20.24 0 0
20.32 0 0
20.4 0 0
20.48 0 0
20.56 0 0
20.64 0 0
20.72 0 0
20.8 0 0
20.88 0 0
20.96 0 0
21.04 0 0
21.12 0 0
21.2 0 0
21.28 0 0
21.36 0 0
21.44 0 0
21.52 0 0
21.6 0 0
21.68 0 0
21.76 0 0
21.84 0 0
21.92 0 0
22 0 0
22.08 0 0
22.16 0 0
22.24 0 0
22.32 0 0
22.4 0 0
22.48 0 0
22.56 0 0
22.64 0 0
22.72 0 0
22.8 0 0
22.88 0 0
22.96 0 0
23.04 0 0
23.12 0 0
23.2 0 0
23.28 0 0
23.36 0 0
23.44 0 0
23.52 0 0
23.6 0 0
23.68 0 0
23.76 0 0
23.84 0 0
23.92 0 0
24 0 0
24.08 0 0
24.16 0 0
24.24 0 0
24.32 0 0
24.4 0 0
24.48 0 0
24.56 0 0
24.64 0 0
24.72 0 0
24.8 0 0
24.88 0 0
24.96 0 0
25.04 0 0
25.12 0 0
25.2 0 0
25.28 0 0
25.36 0 0
25.44 0 0
25.52 0 0
25.6 0 0
25.68 0 0
25.76 0 0
25.84 0 0
25.92 0 0
26 0 0
26.08 0 0
26.16 0 0
26.24 0 0
26.32 0 0
26.4 0 0
26.48 0 0
26.56 0 0
26.64 0 0
26.72 0 0
26.8 0 0
26.88 0 0
26.96 0 0
27.04 0 0
27.12 0 0
27.2 0 0
27.28 0 0
27.36 0 0
27.44 0 0
27.52 0 0
27.6 0 0
27.68 0 0
27.76 0 0
27.84 0 0
27.92 0 0
28 0 0
28.08 0 0
28.16 0 0
28.24 0 0
28.32 0 0
28.4 0 0
28.48 0 0
28.56 0 0
28.64 0 0
28.72 0 0
28.8 0 0
28.88 0 0
28.96 0 0
29.04 0 0
29.12 0 0
29.2 0 0
29.28 0 0
29.36 0 0
29.44 0 0
29.52 0 0
29.6 0 0
29.68 0 0
29.76 0 0
29.84 0 0
29.92 0 0
30 0 0
30.08 0 0
30.16 0 0
30.24 0 0
30.32 0 0
30.4 0 0
30.48 0 0
30.56 0 0
30.64 0 0
30.72 0 0
30.8 0 0
30.88 0 0
30.96 0 0
31.04 0 0
31.12 0 0
31.2 0 0
31.28 0 0
31.36 0 0
31.44 0 0
31.52 0 0
31.6 0 0
31.68 0 0
31.76 0 0
31.84 0 0
31.92 0 0
0 0.005 0
0.08 0.005 0
0.16 0.005 0
0.24 0.005 0
0.32 0.005 0
0.4 0.005 0
0.48 0.005 0
0.56 0.005 0
0.64 0.005 0
0.72 0.005 0
0.8 0.005 0
0.88 0.005 0
0.96 0.005 0
1.04 0.005 0
1.12 0.005 0
1.2 0.005 0
1.28 0.005 0
1.36 0.005 0
1.44 0.005 0
1.52 0.005 0
1.6 0.005 0
1.68 0.005 0
1.76 0.005 0
1.84 0.005 0
1.92 0.005 0
2 0.005 0
2.08 0.005 0
2.16 0.005 0
2.24 0.005 0
2.32 0.005 0
2.4 0.005 0
2.48 0.005 0
2.56 0.005 0
2.64 0.005 0
2.72 0.005 0
2.8 0.005 0
2.88 0.005 0
2.96 0.005 0
3.04 0.005 0
3.12 0.005 0
3.2 0.005 0
3.28 0.005 0
3.36 0.005 0
3.44 0.005 0
3.52 0.005 0
3.6 0.005 0
3.68 0.005 0
3.76 0.005 0
3.84 0.005 0
3.92 0.005 0
4 0.005 0
4.08 0.005 0
4.16 0.005 0
4.24 0.005 0
4.32 0.005 0
4.4 0.005 0
4.48 0.005 0
4.56 0.005 0
4.64 0.005 0
4.72 0.005 0
4.8 0.005 0
4.88 0.005 0
4.96 0.005 0
5.04 0.005 0
5.12 0.005 0
5.2 0.005 0
5.28 0.005 0
5.36 0.005 0
5.44 0.005 0
5.52 0.005 0
5.6 0.005 0
5.68 0.005 0
5.76 0.005 0
5.84 0.005 0
5.92 0.005 0
6 0.005 0
6.08 0.005 0
6.16 0.005 0
6.24 0.005 0
6.32 0.005 0
6.4 0.005 0
6.48 0.005 0
6.56 0.005 0
6.64 0.005 0
6.72 0.005 0
6.8 0.005 0
6.88 0.005 0
6.96 0.005 0
7.04 0.005 0
7.12 0.005 0
7.2 0.005 0
7.28 0.005 0
7.36 0.005 0
7.44 0.005 0
7.52 0.005 0
7.6 0.005 0
7.68 0.005 0
7.76 0.005 0
7.84 0.005 0
7.92 0.005 0
8 0.005 0
8.08 0.005 0
8.16 0.005 0
8.24 0.005 0
8.32 0.005 0
8.4 0.005 0
8.48 0.005 0
8.56 0.005 0
8.64 0.005 0
8.72 0.005 0
8.8 0.005 0
8.88 0.005 0
8.96 0.005 0
9.04 0.005 0
9.12 0.005 0
9.2 0.005 0
9.28 0.005 0
9.36 0.005 0
9.44 0.005 0
9.52 0.005 0
9.6 0.005 0
9.68 0.005 0
9.76 0.005 0
9.84 0.005 0
9.92 0.005 0
10 0.005 0
10.08 0.005 0
10.16 0.005 0
10.24 0.005 0
10.32 0.005 0
10.4 0.005 0
10.48 0.005 0
10.56 0.005 0
10.64 0.005 0
10.72 0.005 0
10.8 0.005 0
10.88 0.005 0
10.96 0.005 0
11.04 0.005 0
11.12 0.005 0
11.2 0.005 0
11.28 0.005 0
11.36 0.005 0
11.44 0.005 0
11.52 0.005 0
11.6 0.005 0
11.68 0.005 0
11.76 0.005 0
11.84 0.005 0
11.92 0.005 0
12 0.005 0
12.08 0.005 0
12.16 0.005 0
12.24 0.005 0
12.32 0.005 0
12.4 0.005 0
12.48 0.005 0
12.56 0.005 0
12.64 0.005 0
12.72 0.005 0
12.8 0.005 0
12.88 0.005 0
12.96 0.005 0
13.04 0.005 0
13.12 0.005 0
13.2 0.005 0
13.28 0.005 0
13.36 0.005 0
13.44 0.005 0
13.52 0.005 0
13.6 0.005 0
13.68 0.005 0
13.76 0.005 0
13.84 0.005 0
13.92 0.005 0
14 0.005 0
14.08 0.005 0
14.16 0.005 0
14.24 0.005 0
14.32 0.005 0
14.4 0.005 0
14.48 0.005 0
14.56 0.005 0
14.64 0.005 0
14.72 0.005 0
14.8 0.005 0
14.88 0.005 0
14.96 0.005 0
15.04 0.005 0
15.12 0.005 0
15.2 0.005 0
15.28 0.005 0
15.36 0.005 0
15.44 0.005 0
15.52 0.005 0
15.6 0.005 0
15.68 0.005 0
15.76 0.005 0
15.84 0.005 0
15.92 0.005 0
16 0.005 0
16.08 0.005 0
16.16 0.005 0
16.24 0.005 0
16.32 0.005 0
16.4 0.005 0
16.48 0.005 0
16.56 0.005 0
16.64 0.005 0
16.72 0.005 0
16.8 0.005 0
16.88 0.005 0
16.96 0.005 0
17.04 0.005 0
17.12 0.005 0
17.2 0.005 0
17.28 0.005 0
17.36 0.005 0
17.44 0.005 0
17.52 0.005 0
17.6 0.005 0
17.68 0.005 0
17.76 0.005 0
17.84 0.005 0
17.92 0.005 0
18 0.005 0
18.08 0.005 0
18.16 0.005 0
18.24 0.005 0
18.32 0.005 0
18.4 0.005 0
18.48 0.005 0
18.56 0.005 0
18.64 0.005 0
18.72 0.005 0
18.8 0.005 0
18.88 0.005 0
18.96 0.005 0
19.04 0.005 0
19.12 0.005 0
19.2 0.005 0
19.28 0.005 0
19.36 0.005 0
19.44 0.005 0
19.52 0.005 0
19.6 0.005 0
19.68 0.005 0
19.76 0.005 0
19.84 0.005 0
19.92 0.005 0
20 0.005 0
20.08 0.005 0
20.16 0.005 0
20.24 0.005 0
20.32 0.005 0
20.4 0.005 0
20.48 0.005 0
20.56 0.005 0
20.64 0.005 0
20.72 0.005 0
20.8 0.005 0
20.88 0.005 0
20.96 0.005 0
21.04 0.005 0
21.12 0.005 0
21.2 0.005 0
21.28 0.005 0
21.36 0.005 0
21.44 0.005 0
21.52 0.005 0
21.6 0.005 0
21.68 0.005 0
21.76 0.005 0
21.84 0.005 0
21.92 0.005 0
22 0.005 0
22.08 0.005 0
22.16 0.005 0
22.24 0.005 0
22.32 0.005 0
22.4 0.005 0
22.48 0.005 0
22.56 0.005 0
22.64 0.005 0
22.72 0.005 0
22.8 0.005 0
22.88 0.005 0
22.96 0.005 0
23.04 0.005 0
23.12 0.005 0
23.2 0.005 0
23.28 0.005 0
23.36 0.005 0
23.44 0.005 0
23.52 0.005 0
23.6 0.005 0
23.68 0.005 0
23.76 0.005 0
23.84 0.005 0
23.92 0.005 0
24 0.005 0
24.08 0.005 0
24.16 0.005 0
24.24 0.005 0
24.32 0.005 0
24.4 0.005 0
24.48 0.005 0
24.56 0.005 0
24.64 0.005 0
24.72 0.005 0
24.8 0.005 0
24.88 0.005 0
24.96 0.005 0
25.04 0.005 0
25.12 0.005 0
25.2 0.005 0
25.28 0.005 0
25.36 0.005 0
25.44 0.005 0
25.52 0.005 0
25.6 0.005 0
25.68 0.005 0
25.76 0.005 0
25.84 0.005 0
25.92 0.005 0
26 0.005 0
26.08 0.005 0
26.16 0.005 0
26.24 0.005 0
26.32 0.005 0
26.4 0.005 0
26.48 0.005 0
26.56 0.005 0
26.64 0.005 0
26.72 0.005 0
26.8 0.005 0
26.88 0.005 0
26.96 0.005 0
27.04 0.005 0
27.12 0.005 0
27.2 0.005 0
27.28 0.005 0
27.36 0.005 0
27.44 0.005 0
27.52 0.005 0
27.6 0.005 0
27.68 0.005 0
27.76 0.005 0
27.84 0.005 0
27.92 0.005 0
28 0.005 0
28.08 0.005 0
28.16 0.005 0
28.24 0.005 0
28.32 0.005 0
28.4 0.005 0
28.48 0.005 0
28.56 0.005 0
28.64 0.005 0
28.72 0.005 0
28.8 0.005 0
28.88 0.005 0
28.96 0.005 0
29.04 0.005 0
29.12 0.005 0
29.2 0.005 0
29.28 0.005 0
29.36 0.005 0
29.44 0.005 0
29.52 0.005 0
29.6 0.005 0
29.68 0.005 0
29.76 0.005 0
29.84 0.005 0
29.92 0.005 0
30 0.005 0
30.08 0.005 0
30.16 0.005 0
30.24 0.005 0
30.32 0.005 0
30.4 0.005 0
30.48 0.005 0
30.56 0.005 0
30.64 0.005 0
30.72 0.005 0
30.8 0.005 0
30.88 0.005 0
30.96 0.005 0
31.04 0.005 0
31.12 0.005 0
31.2 0.005 0
31.28 0.005 0
31.36 0.005 0
31.44 0.005 0
31.52 0.005 0
31.6 0.005 0
31.68 0.005 0
31.76 0.005 0
31.84 0.005 0
31.92 0.005 0
0 0.01 0
0.08 0.01 0
0.16 0.01 0
0.24 0.01 0
0.32 0.01 0
0.4 0.01 0
0.48 0.01 0
0.56 0.01 0
0.64 0.01 0
0.72 0.01 0
0.8 0.01 0
0.88 0.01 0
0.96 0.01 0
1.04 0.01 0
1.12 0.01 0
1.2 0.01 0
1.28 0.01 0
1.36 0.01 0
1.44 0.01 0
1.52 0.01 0
1.6 0.01 0
1.68 0.01 0
1.76 0.01 0
1.84 0.01 0
1.92 0.01 0
2 0.01 0
2.08 0.01 0
2.16 0.01 0
2.24 0.01 0
2.32 0.01 0
2.4 0.01 0
2.48 0.01 0
2.56 0.01 0
2.64 0.01 0
2.72 0.01 0
2.8 0.01 0
2.88 0.01 0
2.96 0.01 0
3.04 0.01 0
3.12 0.01 0
3.2 0.01 0
3.28 0.01 0
3.36 0.01 0
3.44 0.01 0
3.52 0.01 0
3.6 0.01 0
3.68 0.01 0
3.76 0.01 0
3.84 0.01 0
3.92 0.01 0
4 0.01 0
4.08 0.01 0
4.16 0.01 0
4.24 0.01 0
4.32 0.01 0
4.4 0.01 0
4.48 0.01 0
4.56 0.01 0
4.64 0.01 0
4.72 0.01 0
4.8 0.01 0
4.88 0.01 0
4.96 0.01 0
5.04 0.01 0
5.12 0.01 0
[...]
POINT_DATA 80000

SCALARS v float 1
LOOKUP_TABLE default
0
0
0
0
0
0
0
0
0
0
0
0
0
0
0
0
0
0
0
0
0
0
0
0
0
0
0
0
0
0
0
0
0
0
0
0
0
0
0
0
0
0
0
0
0
0
0
0
0
0
0
0
0
0
0
0
0
0
0
0
0
0
0
0
0
0
0
0
0
0
0
0
0
0
0
0
0
0
0
0
0
0
0
0
0
0
0
0
0
0
0
0
0
0
0
0
0
0
0
0
0
0
0
0
0
0
0
0
0
0
0
0
0
0
0
0
0
0
0
0
0
0
0
0
0
0
0
0
0
0
0
0
0
0
0
0
0
0
0
0
0
0
0
0
0
0
0
0
0
0
0
0
0
0
0
0
0
0
0
0
0
0
0
0
0
0
0
0
0
0
0
0
0
0
0
0
0
0
0
0
0
0
0
0
0
0
0
0
0
0
0
0
0
0
0
0
0
0
0
0
0
0
0
0
0
0
0
0
0
0
0
0
0
0
0
0
0
0
0
0
0
0
0
0
0
0
0
0
0
0
0
0
0
0
0
0
0
0
0
0
0
0
0
0
0
0
0
0
0
0
0
0
0
0
0
0
0
0
0
0
0
0
0
0
0
0
0
0
0
0
0
0
0
0
0
0
0
0
0
0
0
0
0
0
0
0
0
0
0
0
0
0
0
0
0
0
0
0
0
0
0
0
0
0
0
0
0
0
0
0
0
0
0
0
0
0
0
0
0
0
0
0
0
0
0
0
0
0
0
0
0
0
0
0
0
0
0
0
0
0
0
0
0
0
0
0
0
0
0
0
0
0
0
0
0
0
0
0
0
0
0
0
0
0
0
0
0
0
0
0
0
0
0
0
0
0
0
0
0
0
0
0
0
0
0
0
0
0
0
0
0
0
0
0
0
0
0
0
0
0
-0.05427108994
0.05427108994
0.003962094987
0.0009983297112
0.0004922602313
0.0003026962541
0.0002073200874
0.0001516916556
0.000116250225
9.229383031e-05
7.538067074e-05
6.30200463e-05
5.371959137e-05
4.654113325e-05
4.087328168e-05
3.63061969e-05
3.25586462e-05
2.943365361e-05
2.679063558e-05
2.452744442e-05
2.256856052e-05
2.085719743e-05
1.934994605e-05
1.801309275e-05
1.682005615e-05
1.574958018e-05
1.478444397e-05
1.391052878e-05
1.311613417e-05
1.239147002e-05
1.172827403e-05
1.111951979e-05
1.055919113e-05
1.004210545e-05
9.563773809e-06
9.120288785e-06
8.708233898e-06
8.324609599e-06
7.96677234e-06
7.632384162e-06
7.319370482e-06
7.025884766e-06
6.75027863e-06
6.491076544e-06
6.246954207e-06
6.016720124e-06
5.799299719e-06
5.59372166e-06
5.399106059e-06
5.214654174e-06
5.039639564e-06
4.873400197e-06
4.715331736e-06
4.564881488e-06
4.421543148e-06
4.284852245e-06
4.154381949e-06
4.02973947e-06
3.910562826e-06
3.796518024e-06
3.687296452e-06
3.582612577e-06
3.48220197e-06
3.385819416e-06
3.29323727e-06
3.204243996e-06
3.118642808e-06
3.036250466e-06
2.956896202e-06
2.880420673e-06
2.806675132e-06
2.735520561e-06
2.666826939e-06
2.600472553e-06
2.536343396e-06
2.474332606e-06
2.414339889e-06
2.356271116e-06
2.300037851e-06
2.245556935e-06
2.19275016e-06
2.141543873e-06
2.091868695e-06
2.043659263e-06
1.996853871e-06
1.951394318e-06
1.907225637e-06
1.864295852e-06
1.822555849e-06
1.781959164e-06
1.742461782e-06
1.704022016e-06
1.666600367e-06
1.63015935e-06
1.594663405e-06
1.560078765e-06
1.526373343e-06
1.493516632e-06
1.461479613e-06
1.430234667e-06
1.399755462e-06
1.370016942e-06
1.340995192e-06
1.312667393e-06
1.285011757e-06
1.258007473e-06
1.231634643e-06
1.205874246e-06
1.180708051e-06
1.156118637e-06
1.13208927e-06
1.108603934e-06
1.085647256e-06
1.063204472e-06
1.041261418e-06
1.01980445e-06
9.988204754e-07
9.782968828e-07
9.582215569e-07
9.38582784e-07
9.193693051e-07
9.00570271e-07
8.821751755e-07
8.641739228e-07
8.465567127e-07
8.293141318e-07
8.124370161e-07
7.959165654e-07
7.797442152e-07
7.639117025e-07
7.484110091e-07
7.332343441e-07
7.183742e-07
7.038232776e-07
6.895744818e-07
6.756209205e-07
6.619559311e-07
6.485730072e-07
6.354658546e-07
6.226283291e-07
6.100544865e-07
5.977384979e-07
5.856747294e-07
5.738577037e-07
5.622820416e-07
5.509425442e-07
5.398341269e-07
5.289518457e-07
5.182908613e-07
5.078464919e-07
4.976141216e-07
4.875892894e-07
4.777676139e-07
4.681448457e-07
4.587168027e-07
4.494794514e-07
4.404287832e-07
4.315609512e-07
4.228721444e-07
4.143586774e-07
4.060169291e-07
3.978433583e-07
3.898345304e-07
3.819870423e-07
3.742975951e-07
3.667629687e-07
3.593799823e-07
3.521455533e-07
3.45056667e-07
3.381103526e-07
3.313037178e-07
3.246339326e-07
3.180982184e-07
3.116938698e-07
3.054182129e-07
2.992686702e-07
2.932426768e-07
2.873377424e-07
2.815514248e-07
2.758813461e-07
2.703251492e-07
2.648805564e-07
2.595453107e-07
2.543172182e-07
2.491941307e-07
2.441739314e-07
2.392545537e-07
2.344339767e-07
2.297102237e-07
2.250813313e-07
2.205454273e-07
2.16100628e-07
2.117451094e-07
2.07477073e-07
2.032947721e-07
1.991965021e-07
1.951805557e-07
1.912453038e-07
1.873891166e-07
1.836104271e-07
1.799076489e-07
1.762793128e-07
1.727238752e-07
1.6923991e-07
1.658259708e-07
1.624806648e-07
1.59202618e-07
1.559904609e-07
1.528428995e-07
1.497586229e-07
1.467363928e-07
1.437749286e-07
1.408730394e-07
1.380295216e-07
1.352431928e-07
1.325129446e-07
1.298376152e-07
1.272161245e-07
1.246473916e-07
1.22130351e-07
1.196639747e-07
1.172472454e-07
1.148791723e-07
1.125587701e-07
1.102850922e-07
1.080571927e-07
1.05874159e-07
1.037351054e-07
1.01639129e-07
9.95853787e-08
9.757299563e-08
9.560117588e-08
9.366907274e-08
9.177590135e-08
8.99208964e-08
8.810327595e-08
8.632228723e-08
8.457720588e-08
8.286730915e-08
8.119188859e-08
7.955024996e-08
7.794172788e-08
7.636563147e-08
7.482132718e-08
7.330817982e-08
7.182554942e-08
7.037283827e-08
6.894943696e-08
6.755474614e-08
6.618821319e-08
6.48492488e-08
6.353730847e-08
6.22518427e-08
6.099233019e-08
5.975823756e-08
5.854906968e-08
5.736430168e-08
5.620345688e-08
5.506604757e-08
5.395160623e-08
5.28596775e-08
5.178978657e-08
5.074149984e-08
4.97143928e-08
4.870802364e-08
4.772198798e-08
4.675586382e-08
4.58092529e-08
4.488175897e-08
4.397301052e-08
4.308261227e-08
4.22101968e-08
4.135542814e-08
4.051791602e-08
3.969731657e-08
3.889330525e-08
3.810553883e-08
3.733369636e-08
3.657745572e-08
3.583648286e-08
3.511049934e-08
3.439918476e-08
3.370224855e-08
3.301940176e-08
3.235036264e-08
3.169483027e-08
3.105255783e-08
3.042328963e-08
2.980673961e-08
2.920265206e-08
2.861078751e-08
2.803088841e-08
2.746273025e-08
2.690605299e-08
2.636065692e-08
2.582629122e-08
2.530273987e-08
2.47897883e-08
2.428722663e-08
2.379483158e-08
2.331242834e-08
2.283978145e-08
2.237672593e-08
2.192304499e-08
2.147857447e-08
2.104310542e-08
2.061648594e-08
2.019850878e-08
1.978901387e-08
1.938783686e-08
1.899479062e-08
1.860973965e-08
1.823249586e-08
1.786290934e-08
1.750081817e-08
1.71460691e-08
1.679851132e-08
1.645798874e-08
1.612436134e-08
1.579746583e-08
1.547716403e-08
1.516332292e-08
1.485577068e-08
1.455438008e-08
1.425900084e-08
1.396949259e-08
1.368571462e-08
1.340752239e-08
1.313478704e-08
1.286735558e-08
1.260507982e-08
1.234782938e-08
1.209548501e-08
1.184786924e-08
1.160486685e-08
1.136632911e-08
1.113213383e-08
1.09021271e-08
1.067619278e-08
1.045416667e-08
1.023594956e-08
1.002138994e-08
9.81036575e-09
9.602734675e-09
9.398406962e-09
9.197214714e-09
8.999081335e-09
8.803867436e-09
8.611477071e-09
8.421783817e-09
8.234712596e-09
8.050123758e-09
7.867961924e-09
7.6881198e-09
7.510519768e-09
7.335092558e-09
7.16173687e-09
6.99045054e-09
6.821067426e-09
6.653693059e-09
6.488051937e-09
6.32442926e-09
6.16234833e-09
6.002374423e-09
5.843667061e-09
5.687318747e-09
5.531884484e-09
5.379184664e-09
5.226876234e-09
5.077981307e-09
4.928667012e-09
4.783802055e-09
4.637266733e-09
4.496850181e-09
4.35277621e-09
4.217379117e-09
4.075300131e-09
3.945774983e-09
3.804864725e-09
3.682439459e-09
3.541374304e-09
3.427821523e-09
3.284392353e-09
3.18213294e-09
3.032714825e-09
2.944963359e-09
2.783279525e-09
2.713782452e-09
2.528689719e-09
2.480278353e-09
2.251002478e-09
2.220995006e-09
1.90750815e-09
1.87515844e-09
1.402727928e-09
1.30630957e-09
5.833904102e-10
3.674703348e-10
-3.120454034e-11
-3.120454034e-11
-0.09521586187
0.09521586187
0.01297562022
0.003854618221
0.001934307889
0.001196199215
0.0008217410052
0.0006023144132
0.0004620669528
0.0003670408928
0.0002998305814
0.0002506449355
0.0002136016357
0.0001849938334
0.0001624004278
0.0001441950769
0.0001292596547
0.0001168096949
0.0001062845037
9.727620255e-05
8.948297318e-05
8.267773249e-05
7.668683954e-05
7.137543054e-05
6.663719136e-05
6.238713659e-05
5.855644702e-05
5.508873201e-05
5.193728784e-05
4.906306006e-05
4.643310877e-05
4.401943751e-05
4.179808794e-05
3.974843151e-05
3.785260856e-05
3.609507952e-05
3.446226211e-05
3.294223545e-05
3.152449662e-05
3.01997591e-05
2.895978456e-05
2.779724171e-05
2.67055873e-05
2.567896511e-05
2.47121201e-05
2.380032476e-05
2.293931606e-05
2.212524105e-05
2.135460983e-05
2.062425479e-05
1.993129515e-05
1.927310593e-05
1.864729099e-05
1.805165918e-05
1.74842035e-05
1.694308268e-05
1.642660488e-05
1.593321332e-05
1.546147341e-05
1.501006146e-05
1.457775445e-05
1.4163421e-05
1.376601323e-05
1.338455952e-05
1.301815794e-05
1.266597032e-05
1.232721704e-05
1.200117216e-05
1.168715909e-05
1.138454666e-05
1.109274555e-05
1.081120508e-05
1.053941018e-05
1.027687876e-05
1.002315923e-05
9.777828228e-06
9.540488577e-06
9.310767404e-06
9.088314395e-06
8.872800223e-06
8.663915029e-06
8.461367169e-06
8.264881853e-06
8.07420009e-06
7.8890776e-06
7.709283799e-06
7.534600947e-06
7.364823254e-06
7.199756172e-06
7.039215593e-06
6.883027238e-06
6.731026005e-06
6.583055394e-06
6.438966973e-06
6.298619881e-06
6.161880362e-06
6.028621322e-06
5.898721918e-06
5.77206719e-06
5.648547727e-06
5.528059298e-06
5.410502589e-06
5.295782865e-06
5.183809734e-06
5.074496918e-06
4.96776195e-06
4.863526022e-06
4.761713759e-06
4.662252991e-06
4.56507465e-06
4.470112486e-06
4.377303047e-06
4.286585403e-06
4.197901103e-06
4.111193982e-06
4.02641008e-06
3.943497478e-06
3.862406246e-06
3.783088327e-06
3.7054974e-06
3.629588828e-06
3.555319586e-06
3.482648172e-06
3.411534474e-06
3.341939794e-06
3.273826717e-06
3.207159087e-06
3.141901928e-06
3.078021383e-06
3.015484683e-06
2.954260085e-06
2.894316818e-06
2.835625058e-06
2.778155893e-06
2.721881233e-06
2.66677386e-06
2.61280731e-06
2.559955878e-06
2.508194599e-06
2.457499181e-06
2.407846037e-06
2.359212169e-06
2.311575249e-06
2.264913511e-06
2.21920577e-06
2.174431388e-06
2.130570268e-06
2.087602803e-06
2.045509917e-06
2.004272958e-06
1.963873787e-06
1.924294672e-06
1.885518327e-06
1.847527885e-06
1.810306849e-06
1.773839169e-06
1.738109115e-06
1.703101362e-06
1.668800919e-06
1.635193144e-06
1.60226373e-06
1.5699987e-06
1.538384362e-06
1.507407373e-06
1.477054651e-06
1.447313426e-06
1.418171194e-06
1.389615725e-06
1.361635066e-06
1.33421752e-06
1.307351618e-06
1.281026178e-06
1.25523023e-06
1.229953028e-06
1.205184089e-06
1.180913119e-06
1.157130054e-06
1.13382504e-06
1.110988429e-06
1.088610772e-06
1.066682801e-06
1.045195499e-06
1.02413995e-06
1.003507472e-06
9.832895812e-07
9.634779204e-07
9.440643178e-07
9.250407812e-07
9.063994879e-07
8.881327623e-07
8.702330589e-07
8.526930365e-07
8.355054651e-07
8.186632896e-07
8.021595601e-07
7.859875018e-07
7.701404814e-07
7.546119485e-07
7.393955269e-07
7.244849684e-07
7.098741522e-07
6.955570479e-07
6.815277918e-07
6.67780606e-07
6.543098211e-07
6.411099054e-07
6.281754636e-07
6.155011373e-07
6.030817306e-07
5.909121215e-07
5.789873259e-07
5.673024256e-07
5.558525965e-07
5.446331569e-07
5.336394746e-07
5.228670275e-07
5.123113799e-07
5.019681902e-07
4.918331912e-07
4.819022144e-07
4.721711694e-07
4.6263605e-07
4.532929177e-07
4.441379469e-07
4.351673446e-07
4.263774127e-07
4.177645291e-07
4.093251617e-07
4.010558005e-07
3.929530538e-07
3.850135868e-07
3.772341032e-07
3.696113964e-07
3.621423394e-07
3.548238332e-07
3.476528475e-07
3.406264497e-07
3.337417109e-07
3.269957971e-07
3.203859237e-07
3.139093488e-07
3.075634043e-07
3.013454649e-07
2.952529492e-07
2.892833527e-07
2.834341952e-07
2.77703059e-07
2.720875672e-07
2.665853977e-07
2.611942789e-07
2.55911962e-07
2.507362663e-07
2.456650455e-07
2.406962003e-07
2.358276664e-07
2.310574185e-07
2.263834983e-07
2.218039516e-07
2.173168701e-07
2.129203944e-07
2.086127069e-07
2.043920204e-07
2.002565725e-07
1.962046536e-07
1.922345692e-07
1.883446776e-07
1.845333705e-07
1.807990394e-07
1.771401562e-07
1.735551751e-07
1.700426408e-07
1.666010606e-07
1.632290309e-07
1.599251169e-07
1.566879652e-07
1.535162288e-07
1.504085861e-07
1.473637436e-07
1.443804479e-07
1.414574315e-07
1.385934987e-07
1.35787458e-07
1.330381442e-07
1.303443925e-07
1.277051246e-07
1.251192141e-07
1.225855763e-07
1.201031798e-07
1.176709818e-07
1.152879841e-07
1.12953174e-07
1.106656082e-07
1.084243065e-07
1.062283647e-07
1.040768695e-07
1.019689131e-07
9.990362131e-08
9.788014974e-08
9.589764882e-08
9.395530596e-08
9.205232032e-08
9.018787923e-08
8.836123314e-08
8.657161474e-08
8.48182738e-08
8.310049929e-08
8.141756324e-08
7.976877586e-08
7.815344707e-08
7.657089438e-08
7.502045483e-08
7.350148031e-08
7.201333218e-08
7.055536526e-08
6.912696139e-08
6.772750009e-08
6.635639065e-08
6.501299868e-08
6.369677246e-08
6.24070879e-08
6.114338276e-08
5.990506141e-08
5.869156135e-08
5.750229478e-08
5.633670957e-08
5.519421678e-08
5.407426588e-08
5.297629264e-08
5.189974234e-08
5.084402919e-08
4.980862744e-08
4.879294807e-08
4.779646599e-08
4.681859268e-08
4.585883461e-08
4.491655333e-08
4.399128966e-08
4.308243683e-08
4.218951966e-08
4.13119539e-08
4.044926116e-08
3.960084464e-08
3.876630421e-08
3.794501734e-08
3.713661751e-08
3.634050147e-08
3.555634478e-08
3.478352754e-08
3.402177792e-08
3.327052515e-08
3.252952653e-08
3.179822913e-08
3.107641154e-08
3.03636454e-08
2.965964785e-08
2.896413385e-08
2.827674787e-08
2.759742309e-08
2.692560906e-08
2.626163282e-08
2.560451367e-08
2.495527845e-08
2.431215092e-08
2.367727266e-08
2.304758921e-08
2.242696884e-08
2.181022656e-08
2.12040473e-08
2.059982089e-08
2.000863802e-08
1.941642178e-08
1.884119725e-08
1.826030664e-08
1.770253775e-08
1.713188435e-08
1.659381153e-08
1.603161214e-08
1.55164645e-08
1.495977212e-08
1.447217711e-08
1.391611475e-08
1.346265952e-08
1.289914607e-08
1.248884768e-08
1.190431149e-08
1.154907825e-08
1.092019189e-08
1.063368438e-08
9.918705485e-09
9.710962618e-09
8.831764699e-09
8.691222514e-09
7.496477789e-09
7.342526497e-09
5.548252625e-09
5.144137084e-09
2.396127158e-09
1.529930737e-09
-1.175548904e-10
-1.175548904e-10
-0.1252930377
0.1252930377
0.02493586972
0.008358019079
0.004277996217
0.002661518867
0.00183373546
0.00134635235
0.001033884275
0.0008217036278
0.0006713866854
0.0005612497191
0.0004782320388
0.0004140850229
0.0003634104829
0.0003225757525
0.0002890793044
0.0002611635921
0.0002375708938
0.0002173853737
0.0001999288335
0.0001846907482
0.0001712806303
0.0001593951719
0.0001487952963
0.0001392899355
0.0001307244196
0.0001229720632
0.0001159279898
0.0001095045402
0.0001036278126
9.823502341e-05
9.327246649e-05
8.869391704e-05
8.445936853e-05
8.053402226e-05
7.688747095e-05
7.349303331e-05
7.032720697e-05
6.736921555e-05
6.460063096e-05
6.200505671e-05
5.956786078e-05
5.727594927e-05
5.511757371e-05
5.308216616e-05
5.116019799e-05
4.934305782e-05
4.762294645e-05
4.599278537e-05
4.44461375e-05
4.297713782e-05
4.15804328e-05
4.025112726e-05
3.898473767e-05
3.777715088e-05
3.662458778e-05
3.552357105e-05
3.44708965e-05
3.346360766e-05
3.249897308e-05
3.157446604e-05
3.068774638e-05
2.98366443e-05
2.901914566e-05
2.823337887e-05
2.747760297e-05
2.675019701e-05
2.604965022e-05
2.537455331e-05
2.47235905e-05
2.409553217e-05
2.348922835e-05
2.290360268e-05
2.233764689e-05
2.179041577e-05
2.12610226e-05
2.074863488e-05
2.025247053e-05
1.977179427e-05
1.930591439e-05
1.885417971e-05
1.841597679e-05
1.799072743e-05
1.757788624e-05
1.717693844e-05
1.678739792e-05
1.640880528e-05
1.604072614e-05
1.568274948e-05
1.53344862e-05
1.499556771e-05
1.46656446e-05
1.43443855e-05
1.403147592e-05
1.372661719e-05
1.342952557e-05
1.313993127e-05
1.285757764e-05
1.258222035e-05
1.231362672e-05
1.205157496e-05
1.179585357e-05
1.154626076e-05
1.130260382e-05
1.106469868e-05
1.083236936e-05
1.060544753e-05
1.038377209e-05
1.016718877e-05
9.955549697e-06
9.748713135e-06
9.546543094e-06
9.348909012e-06
9.155685511e-06
8.966752069e-06
8.781992804e-06
8.601296221e-06
8.424554974e-06
8.251665679e-06
8.082528678e-06
7.917047885e-06
7.755130611e-06
7.596687339e-06
7.441631662e-06
7.28988004e-06
7.141351763e-06
6.995968705e-06
6.853655326e-06
6.714338421e-06
6.577947166e-06
6.444412852e-06
6.313668914e-06
6.185650783e-06
6.060295799e-06
5.937543161e-06
5.817333818e-06
5.699610409e-06
5.584317176e-06
5.471399947e-06
5.36080603e-06
5.252484135e-06
5.146384425e-06
5.042458312e-06
4.940658526e-06
4.840939032e-06
4.743254941e-06
4.647562577e-06
4.553819275e-06
4.461983503e-06
4.372014744e-06
4.283873463e-06
4.197521067e-06
4.11291995e-06
4.030033331e-06
3.948825356e-06
3.869260974e-06
3.79130597e-06
3.71492694e-06
3.640091209e-06
3.566766877e-06
3.494922727e-06
3.424528308e-06
3.355553787e-06
3.287970022e-06
3.221748532e-06
3.156861433e-06
3.09328146e-06
3.030981962e-06
2.969936832e-06
2.910120547e-06
2.851508137e-06
2.794075154e-06
2.737797661e-06
2.682652239e-06
2.628615995e-06
2.575666465e-06
2.523781686e-06
2.472940157e-06
2.423120814e-06
2.374303029e-06
2.326466618e-06
2.279591807e-06
2.233659227e-06
2.188649907e-06
2.14454526e-06
2.101327115e-06
2.058977625e-06
2.017479339e-06
1.976815154e-06
1.936968317e-06
1.897922396e-06
1.859661335e-06
1.822169372e-06
1.785431044e-06
1.749431273e-06
1.714155216e-06
1.679588362e-06
1.64571648e-06
1.612525619e-06
1.58000215e-06
1.548132663e-06
1.516904059e-06
1.486303502e-06
1.456318359e-06
1.426936331e-06
1.398145299e-06
1.369933436e-06
1.342289121e-06
1.31520096e-06
1.28865784e-06
1.262648786e-06
1.237163126e-06
1.212190356e-06
1.187720195e-06
1.163742561e-06
1.140247573e-06
1.117225565e-06
1.094667053e-06
1.072562717e-06
1.050903488e-06
1.029680397e-06
1.008884743e-06
9.885079126e-07
9.685415258e-07
9.489773497e-07
9.298072939e-07
9.110234811e-07
8.926181434e-07
8.745836867e-07
8.569126748e-07
8.39597817e-07
8.22631967e-07
8.060081072e-07
7.897193715e-07
7.737590402e-07
7.581205263e-07
7.427973572e-07
7.27783207e-07
7.13071855e-07
6.986572423e-07
6.845333947e-07
6.706944564e-07
6.571347238e-07
6.438485755e-07
6.308305067e-07
6.180751549e-07
6.055771963e-07
5.933314922e-07
5.813329375e-07
5.695765833e-07
5.580575437e-07
5.467710453e-07
5.357124126e-07
5.248770493e-07
5.142604626e-07
5.038582602e-07
4.936660966e-07
4.836797717e-07
4.738951134e-07
4.643080696e-07
4.549146587e-07
4.457109587e-07
4.366931856e-07
4.278575527e-07
4.192004093e-07
4.107181357e-07
4.024072344e-07
3.942642247e-07
3.862857318e-07
3.784684333e-07
3.708090975e-07
3.633045128e-07
3.559515743e-07
3.487472084e-07
3.416884368e-07
3.347723153e-07
3.279959678e-07
3.213565769e-07
3.148513739e-07
3.084776773e-07
3.022328113e-07
2.961141854e-07
2.901192573e-07
2.842455389e-07
2.784905892e-07
2.728519983e-07
2.673274432e-07
2.619146187e-07
2.566112711e-07
2.514151949e-07
2.463242468e-07
2.413362988e-07
2.364492799e-07
2.316611712e-07
2.26969966e-07
2.223737387e-07
2.17870592e-07
2.134586092e-07
2.091360114e-07
2.049009786e-07
2.007517642e-07
1.96686649e-07
1.927039419e-07
1.888019801e-07
1.849791542e-07
1.81233881e-07
1.775645858e-07
1.739697379e-07
1.704478172e-07
1.669973718e-07
1.636169354e-07
1.603050835e-07
1.570603614e-07
1.538814237e-07
1.507668717e-07
1.477153664e-07
1.447255354e-07
1.417960888e-07
1.389256629e-07
1.361130037e-07
1.333567684e-07
1.306557056e-07
1.280085043e-07
1.254139215e-07
1.228706408e-07
1.203774524e-07
1.179330548e-07
1.155362207e-07
1.131856619e-07
1.108801803e-07
1.086184665e-07
1.06399346e-07
1.042214967e-07
1.020837938e-07
9.998489106e-08
9.792370804e-08
9.589888846e-08
9.390937063e-08
9.195384339e-08
9.003129445e-08
8.814035997e-08
8.62801265e-08
8.444927018e-08
8.264692907e-08
8.087177651e-08
7.912306824e-08
7.739949671e-08
7.570043044e-08
7.40245882e-08
7.237142965e-08
7.073978493e-08
6.912916115e-08
6.753855813e-08
6.596742956e-08
6.441510785e-08
6.288083129e-08
6.136446067e-08
5.986479382e-08
5.83825412e-08
5.691562506e-08
5.546617915e-08
5.403049562e-08
5.261306181e-08
5.120742927e-08
4.982181462e-08
4.84452744e-08
4.709194434e-08
4.574356959e-08
4.442374869e-08
4.310256439e-08
4.181835239e-08
4.052295598e-08
3.927763863e-08
3.800578843e-08
3.680419828e-08
3.555219835e-08
3.440131813e-08
3.316296977e-08
3.207271417e-08
3.083771354e-08
2.982213802e-08
2.85733184e-08
2.765174179e-08
2.636018875e-08
2.555789066e-08
2.417374614e-08
2.351957937e-08
2.195344845e-08
2.146802005e-08
1.955210262e-08
1.920877847e-08
1.661710275e-08
1.623924158e-08
1.235753888e-08
1.143034617e-08
5.48155126e-09
3.53846485e-09
-2.616890064e-10
-2.616890064e-10
-0.1464876053
0.1464876053
0.03831047049
0.01423404628
0.007456022623
0.004672748437