# vtk DataFile Version 2.0
FlowField
ASCII
DATASET STRUCTURED_GRID
DIMENSIONS 400 1 200
POINTS 80000 float
0 0 0
0.08 0 0
0.16 0 0
0.24 0 0
0.32 0 0
0.4 0 0
0.48 0 0
0.56 0 0
0.64 0 0
0.72 0 0
0.8 0 0
0.88 0 0
0.96 0 0
1.04 0 0
1.12 0 0
1.2 0 0
1.28 0 0
1.36 0 0
1.44 0 0
1.52 0 0
1.6 0 0
1.68 0 0
1.76 0 0
1.84 0 0
1.92 0 0
2 0 0
2.08 0 0
2.16 0 0
2.24 0 0
2.32 0 0
2.4 0 0
2.48 0 0
2.56 0 0
2.64 0 0
2.72 0 0
2.8 0 0
2.88 0 0
2.96 0 0
3.04 0 0
3.12 0 0
3.2 0 0
3.28 0 0
3.36 0 0
3.44 0 0
3.52 0 0
3.6 0 0
3.68 0 0
3.76 0 0
3.84 0 0
3.92 0 0
4 0 0
4.08 0 0
4.16 0 0
4.24 0 0
4.32 0 0
4.4 0 0
4.48 0 0
4.56 0 0
4.64 0 0
4.72 0 0
4.8 0 0
4.88 0 0
4.96 0 0
5.04 0 0
5.12 0 0
5.2 0 0
5.28 0 0
5.36 0 0
5.44 0 0
5.52 0 0
5.6 0 0
5.68 0 0
5.76 0 0
5.84 0 0
5.92 0 0
6 0 0
6.08 0 0
6.16 0 0
6.24 0 0
6.32 0 0
6.4 0 0
6.48 0 0
6.56 0 0
6.64 0 0
6.72 0 0
6.8 0 0
6.88 0 0
6.96 0 0
7.04 0 0
7.12 0 0
7.2 0 0
7.28 0 0
7.36 0 0
7.44 0 0
7.52 0 0
7.6 0 0
7.68 0 0
7.76 0 0
7.84 0 0
7.92 0 0
8 0 0
8.08 0 0
8.16 0 0
8.24 0 0
8.32 0 0
8.4 0 0
8.48 0 0
8.56 0 0
8.64 0 0
8.72 0 0
8.8 0 0
8.88 0 0
8.96 0 0
9.04 0 0
9.12 0 0
9.2 0 0
9.28 0 0
9.36 0 0
9.44 0 0
9.52 0 0
9.6 0 0
9.68 0 0
9.76 0 0
9.84 0 0
9.92 0 0
10 0 0
10.08 0 0
10.16 0 0
10.24 0 0
10.32 0 0
10.4 0 0
10.48 0 0
10.56 0 0
10.64 0 0
10.72 0 0
10.8 0 0
10.88 0 0
10.96 0 0
11.04 0 0
11.12 0 0
11.2 0 0
11.28 0 0
11.36 0 0
11.44 0 0
11.52 0 0
11.6 0 0
11.68 0 0
11.76 0 0
11.84 0 0
11.92 0 0
12 0 0
12.08 0 0
12.16 0 0
12.24 0 0
12.32 0 0
12.4 0 0
12.48 0 0
12.56 0 0
12.64 0 0
12.72 0 0
12.8 0 0
12.88 0 0
12.96 0 0
13.04 0 0
13.12 0 0
13.2 0 0
13.28 0 0
13.36 0 0
13.44 0 0
13.52 0 0
13.6 0 0
13.68 0 0
13.76 0 0
13.84 0 0
13.92 0 0
14 0 0
14.08 0 0
14.16 0 0
14.24 0 0
14.32 0 0
14.4 0 0
14.48 0 0
14.56 0 0
14.64 0 0
14.72 0 0
14.8 0 0
14.88 0 0
14.96 0 0
15.04 0 0
15.12 0 0
15.2 0 0
15.28 0 0
15.36 0 0
15.44 0 0
15.52 0 0
15.6 0 0
15.68 0 0
15.76 0 0
15.84 0 0
15.92 0 0
16 0 0
16.08 0 0
16.16 0 0
16.24 0 0
16.32 0 0
16.4 0 0
16.48 0 0
16.56 0 0
16.64 0 0
16.72 0 0
16.8 0 0
16.88 0 0
16.96 0 0
17.04 0 0
17.12 0 0
17.2 0 0
17.28 0 0
17.36 0 0
17.44 0 0
17.52 0 0
17.6 0 0
17.68 0 0
17.76 0 0
17.84 0 0
17.92 0 0
18 0 0
18.08 0 0
18.16 0 0
18.24 0 0
18.32 0 0
18.4 0 0
18.48 0 0
18.56 0 0
18.64 0 0
18.72 0 0
18.8 0 0
18.88 0 0
18.96 0 0
19.04 0 0
19.12 0 0
19.2 0 0
19.28 0 0
19.36 0 0
19.44 0 0
19.52 0 0
19.6 0 0
19.68 0 0
19.76 0 0
19.84 0 0
19.92 0 0
20 0 0
20.08 0 0
20.16 0 0
20.24 0 0
20.32 0 0
20.4 0 0
20.48 0 0
20.56 0 0
20.64 0 0
20.72 0 0
20.8 0 0
20.88 0 0
20.96 0 0
21.04 0 0
21.12 0 0
21.2 0 0
21.28 0 0
21.36 0 0
21.44 0 0
21.52 0 0
21.6 0 0
21.68 0 0
21.76 0 0
21.84 0 0
21.92 0 0
22 0 0
22.08 0 0
22.16 0 0
22.24 0 0
22.32 0 0
22.4 0 0
22.48 0 0
22.56 0 0
22.64 0 0
22.72 0 0
22.8 0 0
22.88 0 0
22.96 0 0
23.04 0 0
23.12 0 0
23.2 0 0
23.28 0 0
23.36 0 0
23.44 0 0
23.52 0 0
23.6 0 0
23.68 0 0
23.76 0 0
23.84 0 0
23.92 0 0
24 0 0
24.08 0 0
24.16 0 0
24.24 0 0
24.32 0 0
24.4 0 0
24.48 0 0
24.56 0 0
24.64 0 0
24.72 0 0
24.8 0 0
24.88 0 0
24.96 0 0
25.04 0 0
25.12 0 0
25.2 0 0
25.28 0 0
25.36 0 0
25.44 0 0
25.52 0 0
25.6 0 0
25.68 0 0
25.76 0 0
25.84 0 0
25.92 0 0
26 0 0
26.08 0 0
26.16 0 0
26.24 0 0
26.32 0 0
26.4 0 0
26.48 0 0
26.56 0 0
26.64 0 0
26.72 0 0
26.8 0 0
26.88 0 0
26.96 0 0
27.04 0 0
27.12 0 0
27.2 0 0
27.28 0 0
27.36 0 0
27.44 0 0
27.52 0 0
27.6 0 0
27.68 0 0
27.76 0 0
27.84 0 0
27.92 0 0
28 0 0
28.08 0 0
28.16 0 0
28.24 0 0
28.32 0 0
28.4 0 0
28.48 0 0
28.56 0 0
28.64 0 0
28.72 0 0
28.8 0 0
28.88 0 0
28.96 0 0
29.04 0 0
29.12 0 0
29.2 0 0
29.28 0 0
29.36 0 0
29.44 0 0
29.52 0 0
29.6 0 0
29.68 0 0
29.76 0 0
29.84 0 0
29.92 0 0
30 0 0
30.08 0 0
30.16 0 0
30.24 0 0
30.32 0 0
30.4 0 0
30.48 0 0
30.56 0 0
30.64 0 0
30.72 0 0
30.8 0 0
30.88 0 0
30.96 0 0
31.04 0 0
31.12 0 0
31.2 0 0
31.28 0 0
31.36 0 0
31.44 0 0
31.52 0 0
31.6 0 0
31.68 0 0
31.76 0 0
31.84 0 0
31.92 0 0
0 0.005 0
0.08 0.005 0
0.16 0.005 0
0.24 0.005 0
0.32 0.005 0
0.4 0.005 0
0.48 0.005 0
0.56 0.005 0
0.64 0.005 0
0.72 0.005 0
0.8 0.005 0
0.88 0.005 0
0.96 0.005 0
1.04 0.005 0
1.12 0.005 0
1.2 0.005 0
1.28 0.005 0
1.36 0.005 0
1.44 0.005 0
1.52 0.005 0
1.6 0.005 0
1.68 0.005 0
1.76 0.005 0
1.84 0.005 0
1.92 0.005 0
2 0.005 0
2.08 0.005 0
2.16 0.005 0
2.24 0.005 0
2.32 0.005 0
2.4 0.005 0
2.48 0.005 0
2.56 0.005 0
2.64 0.005 0
2.72 0.005 0
2.8 0.005 0
2.88 0.005 0
2.96 0.005 0
3.04 0.005 0
3.12 0.005 0
3.2 0.005 0
3.28 0.005 0
3.36 0.005 0
3.44 0.005 0
3.52 0.005 0
3.6 0.005 0
3.68 0.005 0
3.76 0.005 0
3.84 0.005 0
3.92 0.005 0
4 0.005 0
4.08 0.005 0
4.16 0.005 0
4.24 0.005 0
4.32 0.005 0
4.4 0.005 0
4.48 0.005 0
4.56 0.005 0
4.64 0.005 0
4.72 0.005 0
4.8 0.005 0
4.88 0.005 0
4.96 0.005 0
5.04 0.005 0
5.12 0.005 0
5.2 0.005 0
5.28 0.005 0
5.36 0.005 0
5.44 0.005 0
5.52 0.005 0
5.6 0.005 0
5.68 0.005 0
5.76 0.005 0
5.84 0.005 0
5.92 0.005 0
6 0.005 0
6.08 0.005 0
6.16 0.005 0
6.24 0.005 0
6.32 0.005 0
6.4 0.005 0
6.48 0.005 0
6.56 0.005 0
6.64 0.005 0
6.72 0.005 0
6.8 0.005 0
6.88 0.005 0
6.96 0.005 0
7.04 0.005 0
7.12 0.005 0
7.2 0.005 0
7.28 0.005 0
7.36 0.005 0
7.44 0.005 0
7.52 0.005 0
7.6 0.005 0
7.68 0.005 0
7.76 0.005 0
7.84 0.005 0
7.92 0.005 0
8 0.005 0
8.08 0.005 0
8.16 0.005 0
8.24 0.005 0
8.32 0.005 0
8.4 0.005 0
8.48 0.005 0
8.56 0.005 0
8.64 0.005 0
8.72 0.005 0
8.8 0.005 0
8.88 0.005 0
8.96 0.005 0
9.04 0.005 0
9.12 0.005 0
9.2 0.005 0
9.28 0.005 0
9.36 0.005 0
9.44 0.005 0
9.52 0.005 0
9.6 0.005 0
9.68 0.005 0
9.76 0.005 0
9.84 0.005 0
9.92 0.005 0
10 0.005 0
10.08 0.005 0
10.16 0.005 0
10.24 0.005 0
10.32 0.005 0
10.4 0.005 0
10.48 0.005 0
10.56 0.005 0
10.64 0.005 0
10.72 0.005 0
10.8 0.005 0
10.88 0.005 0
10.96 0.005 0
11.04 0.005 0
11.12 0.005 0
11.2 0.005 0
11.28 0.005 0
11.36 0.005 0
11.44 0.005 0
11.52 0.005 0
11.6 0.005 0
11.68 0.005 0
11.76 0.005 0
11.84 0.005 0
11.92 0.005 0
12 0.005 0
12.08 0.005 0
12.16 0.005 0
12.24 0.005 0
12.32 0.005 0
12.4 0.005 0
12.48 0.005 0
12.56 0.005 0
12.64 0.005 0
12.72 0.005 0
12.8 0.005 0
12.88 0.005 0
12.96 0.005 0
13.04 0.005 0
13.12 0.005 0
13.2 0.005 0
13.28 0.005 0
13.36 0.005 0
13.44 0.005 0
13.52 0.005 0
13.6 0.005 0
13.68 0.005 0
13.76 0.005 0
13.84 0.005 0
13.92 0.005 0
14 0.005 0
14.08 0.005 0
14.16 0.005 0
14.24 0.005 0
14.32 0.005 0
14.4 0.005 0
14.48 0.005 0
14.56 0.005 0
14.64 0.005 0
14.72 0.005 0
14.8 0.005 0
14.88 0.005 0
14.96 0.005 0
15.04 0.005 0
15.12 0.005 0
15.2 0.005 0
15.28 0.005 0
15.36 0.005 0
15.44 0.005 0
15.52 0.005 0
15.6 0.005 0
15.68 0.005 0
15.76 0.005 0
15.84 0.005 0
15.92 0.005 0
16 0.005 0
16.08 0.005 0
16.16 0.005 0
16.24 0.005 0
16.32 0.005 0
16.4 0.005 0
16.48 0.005 0
16.56 0.005 0
16.64 0.005 0
16.72 0.005 0
16.8 0.005 0
16.88 0.005 0
16.96 0.005 0
17.04 0.005 0
17.12 0.005 0
17.2 0.005 0
17.28 0.005 0
17.36 0.005 0
17.44 0.005 0
17.52 0.005 0
17.6 0.005 0
17.68 0.005 0
17.76 0.005 0
17.84 0.005 0
17.92 0.005 0
18 0.005 0
18.08 0.005 0
18.16 0.005 0
18.24 0.005 0
18.32 0.005 0
18.4 0.005 0
18.48 0.005 0
18.56 0.005 0
18.64 0.005 0
18.72 0.005 0
18.8 0.005 0
18.88 0.005 0
18.96 0.005 0
19.04 0.005 0
19.12 0.005 0
19.2 0.005 0
19.28 0.005 0
19.36 0.005 0
19.44 0.005 0
19.52 0.005 0
19.6 0.005 0
19.68 0.005 0
19.76 0.005 0
19.84 0.005 0
19.92 0.005 0
20 0.005 0
20.08 0.005 0
20.16 0.005 0
20.24 0.005 0
20.32 0.005 0
20.4 0.005 0
20.48 0.005 0
20.56 0.005 0
20.64 0.005 0
20.72 0.005 0
20.8 0.005 0
20.88 0.005 0
20.96 0.005 0
21.04 0.005 0
21.12 0.005 0
21.2 0.005 0
21.28 0.005 0
21.36 0.005 0
21.44 0.005 0
21.52 0.005 0
21.6 0.005 0
21.68 0.005 0
21.76 0.005 0
21.84 0.005 0
21.92 0.005 0
22 0.005 0
22.08 0.005 0
22.16 0.005 0
22.24 0.005 0
22.32 0.005 0
22.4 0.005 0
22.48 0.005 0
22.56 0.005 0
22.64 0.005 0
22.72 0.005 0
22.8 0.005 0
22.88 0.005 0
22.96 0.005 0
23.04 0.005 0
23.12 0.005 0
23.2 0.005 0
23.28 0.005 0
23.36 0.005 0
23.44 0.005 0
23.52 0.005 0
23.6 0.005 0
23.68 0.005 0
23.76 0.005 0
23.84 0.005 0
23.92 0.005 0
24 0.005 0
24.08 0.005 0
24.16 0.005 0
24.24 0.005 0
24.32 0.005 0
24.4 0.005 0
24.48 0.005 0
24.56 0.005 0
24.64 0.005 0
24.72 0.005 0
24.8 0.005 0
24.88 0.005 0
24.96 0.005 0
25.04 0.005 0
25.12 0.005 0
25.2 0.005 0
25.28 0.005 0
25.36 0.005 0
25.44 0.005 0
25.52 0.005 0
25.6 0.005 0
25.68 0.005 0
25.76 0.005 0
25.84 0.005 0
25.92 0.005 0
26 0.005 0
26.08 0.005 0
26.16 0.005 0
26.24 0.005 0
26.32 0.005 0
26.4 0.005 0
26.48 0.005 0
26.56 0.005 0
26.64 0.005 0
26.72 0.005 0
26.8 0.005 0
26.88 0.005 0
26.96 0.005 0
27.04 0.005 0
27.12 0.005 0
27.2 0.005 0
27.28 0.005 0
27.36 0.005 0
27.44 0.005 0
27.52 0.005 0
27.6 0.005 0
27.68 0.005 0
27.76 0.005 0
27.84 0.005 0
27.92 0.005 0
28 0.005 0
28.08 0.005 0
28.16 0.005 0
28.24 0.005 0
28.32 0.005 0
28.4 0.005 0
28.48 0.005 0
28.56 0.005 0
28.64 0.005 0
28.72 0.005 0
28.8 0.005 0
28.88 0.005 0
28.96 0.005 0
29.04 0.005 0
29.12 0.005 0
29.2 0.005 0
29.28 0.005 0
29.36 0.005 0
29.44 0.005 0
29.52 0.005 0
29.6 0.005 0
29.68 0.005 0
29.76 0.005 0
29.84 0.005 0
29.92 0.005 0
30 0.005 0
30.08 0.005 0
30.16 0.005 0
30.24 0.005 0
30.32 0.005 0
30.4 0.005 0
30.48 0.005 0
30.56 0.005 0
30.64 0.005 0
30.72 0.005 0
30.8 0.005 0
30.88 0.005 0
30.96 0.005 0
31.04 0.005 0
31.12 0.005 0
31.2 0.005 0
31.28 0.005 0
31.36 0.005 0
31.44 0.005 0
31.52 0.005 0
31.6 0.005 0
31.68 0.005 0
31.76 0.005 0
31.84 0.005 0
31.92 0.005 0
0 0.01 0
0.08 0.01 0
0.16 0.01 0
0.24 0.01 0
0.32 0.01 0
0.4 0.01 0
0.48 0.01 0
0.56 0.01 0
0.64 0.01 0
0.72 0.01 0
0.8 0.01 0
0.88 0.01 0
0.96 0.01 0
1.04 0.01 0
1.12 0.01 0
1.2 0.01 0
1.28 0.01 0
1.36 0.01 0
1.44 0.01 0
1.52 0.01 0
1.6 0.01 0
1.68 0.01 0
1.76 0.01 0
1.84 0.01 0
1.92 0.01 0
2 0.01 0
2.08 0.01 0
2.16 0.01 0
2.24 0.01 0
2.32 0.01 0
2.4 0.01 0
2.48 0.01 0
2.56 0.01 0
2.64 0.01 0
2.72 0.01 0
2.8 0.01 0
2.88 0.01 0
2.96 0.01 0
3.04 0.01 0
3.12 0.01 0
3.2 0.01 0
3.28 0.01 0
3.36 0.01 0
3.44 0.01 0
3.52 0.01 0
3.6 0.01 0
3.68 0.01 0
3.76 0.01 0
3.84 0.01 0
3.92 0.01 0
4 0.01 0
4.08 0.01 0
4.16 0.01 0
4.24 0.01 0
4.32 0.01 0
4.4 0.01 0
4.48 0.01 0
4.56 0.01 0
4.64 0.01 0
4.72 0.01 0
4.8 0.01 0
4.88 0.01 0
4.96 0.01 0
5.04 0.01 0
5.12 0.01 0
[...]
POINT_DATA 80000

SCALARS p float 1
LOOKUP_TABLE default
1
56.57784459
56.27610899
56.23494869
56.21485822
56.2004388
56.18843736
56.17769347
56.16769487
56.15818881
56.14904204
56.14018085
56.13156248
56.12316052
56.11495731
56.10693983
56.09909752
56.09142118
56.08390237
56.07653316
56.06930602
56.06221376
56.05524955
56.04840692
56.04167974
56.03506223
56.02854898
56.02213489
56.01581521
56.00958549
56.00344155
55.99737952
55.99139574
55.98548683
55.97964958
55.97388102
55.96817835
55.96253894
55.95696033
55.95144018
55.94597633
55.94056671
55.93520936
55.92990246
55.92464428
55.91943315
55.91426753
55.90914594
55.90406697
55.89902928
55.8940316
55.88907273
55.88415151
55.87926684
55.87441767
55.86960299
55.86482184
55.8600733
55.85535651
55.8506706
55.84601477
55.84138825
55.83679028
55.83222017
55.82767723
55.82316079
55.81867024
55.81420497
55.80976438
55.80534795
55.80095514
55.79658547
55.79223846
55.78791367
55.78361066
55.77932905
55.77506849
55.77082869
55.76660938
55.76241033
55.75823135
55.75407229
55.74993304
55.74581356
55.74171383
55.73763386
55.73357367
55.72953324
55.72551256
55.72151159
55.71753028
55.71356857
55.70962636
55.70570351
55.70179984
55.69791507
55.69404888
55.69020093
55.68637083
55.68255824
55.67876283
55.67498423
55.67122206
55.66747589
55.66374523
55.66002957
55.6563284
55.65264124
55.64896765
55.64530725
55.64165964
55.63802441
55.63440109
55.63078919
55.62718816
55.62359749
55.62001668
55.61644532
55.61288302
55.60932945
55.60578426
55.60224711
55.59871756
55.59519518
55.59167951
55.58817009
55.58466652
55.58116846
55.57767563
55.5741878
55.57070477
55.56722634
55.56375227
55.56028226
55.55681598
55.55335303
55.549893
55.54643547
55.54298002
55.53952629
55.53607393
55.53262266
55.52917224
55.52572249
55.52227323
55.51882435
55.51537575
55.51192734
55.50847907
55.50503087
55.50158272
55.49813457
55.49468643
55.49123825
55.48779005
55.48434181
55.48089354
55.47744522
55.47399687
55.47054847
55.46710004
55.46365156
55.46020305
55.4567545
55.45330591
55.44985727
55.4464086
55.44295989
55.43951114
55.43606235
55.43261351
55.42916464
55.42571572
55.42226676
55.41881777
55.41536873
55.41191965
55.40847053
55.40502137
55.40157217
55.39812292
55.39467364
55.39122431
55.38777495
55.38432554
55.38087609
55.3774266
55.37397707
55.3705275
55.36707788
55.36362823
55.36017853
55.35672879
55.35327901
55.34982919
55.34637933
55.34292942
55.33947947
55.33602949
55.33257946
55.32912938
55.32567927
55.32222911
55.31877891
55.31532867
55.31187839
55.30842806
55.3049777
55.30152729
55.29807683
55.29462634
55.2911758
55.28772522
55.2842746
55.28082394
55.27737323
55.27392248
55.27047169
55.26702085
55.26356997
55.26011905
55.25666809
55.25321708
55.24976603
55.24631494
55.2428638
55.23941262
55.2359614
55.23251014
55.22905883
55.22560748
55.22215608
55.21870464
55.21525316
55.21180164
55.20835007
55.20489845
55.2014468
55.1979951
55.19454335
55.19109157
55.18763973
55.18418786
55.18073594
55.17728398
55.17383197
55.17037992
55.16692782
55.16347568
55.1600235
55.15657127
55.153119
55.14966668
55.14621432
55.14276192
55.13930947
55.13585697
55.13240443
55.12895185
55.12549922
55.12204655
55.11859383
55.11514107
55.11168826
55.10823541
55.10478251
55.10132957
55.09787658
55.09442355
55.09097047
55.08751735
55.08406418
55.08061097
55.07715771
55.07370441
55.07025106
55.06679767
55.06334423
55.05989074
55.05643721
55.05298363
55.04953001
55.04607634
55.04262263
55.03916887
55.03571506
55.03226121
55.02880731
55.02535337
55.02189938
55.01844534
55.01499126
55.01153713
55.00808296
55.00462874
55.00117447
54.99772016
54.9942658
54.99081139
54.98735694
54.98390244
54.98044789
54.9769933
54.97353866
54.97008397
54.96662924
54.96317446
54.95971963
54.95626476
54.95280984
54.94935487
54.94589986
54.94244479
54.93898968
54.93553453
54.93207932
54.92862407
54.92516877
54.92171343
54.91825803
54.91480259
54.9113471
54.90789157
54.90443598
54.90098035
54.89752467
54.89406894
54.89061317
54.88715735
54.88370148
54.88024556
54.87678959
54.87333357
54.86987751
54.8664214
54.86296524
54.85950903
54.85605277
54.85259647
54.84914012
54.84568371
54.84222726
54.83877077
54.83531422
54.83185762
54.82840098
54.82494428
54.82148754
54.81803075
54.81457391
54.81111702
54.80766008
54.80420309
54.80074606
54.79728897
54.79383184
54.79037465
54.78691742
54.78346014
54.78000281
54.77654543
54.77308799
54.76963051
54.76617298
54.7627154
54.75925778
54.7558001
54.75234237
54.74888459
54.74542676
54.74196888
54.73851096
54.73505298
54.73159495
54.72813687
54.72467874
54.72122056
54.71776234
54.71430406
54.71084573
54.70738735
54.70392892
54.70047044
54.69701191
54.69355333
54.6900947
54.68663602
54.68317728
54.6797185
54.67625966
54.67280079
54.66934182
54.66588286
54.66242375
54.65896474
54.6555054
54.65204648
54.64858674
54.64512967
0.5
56.57784459
56.57784459
56.27610899
56.23494869
56.21485822
56.2004388
56.18843736
56.17769347
56.16769487
56.15818881
56.14904204
56.14018085
56.13156248
56.12316052
56.11495731
56.10693983
56.09909752
56.09142118
56.08390237
56.07653316
56.06930602
56.06221376
56.05524955
56.04840692
56.04167974
56.03506223
56.02854898
56.02213489
56.01581521
56.00958549
56.00344155
55.99737952
55.99139574
55.98548683
55.97964958
55.97388102
55.96817835
55.96253894
55.95696033
55.95144018
55.94597633
55.94056671
55.93520936
55.92990246
55.92464428
55.91943315
55.91426753
55.90914594
55.90406697
55.89902928
55.8940316
55.88907273
55.88415151
55.87926684
55.87441767
55.86960299
55.86482184
55.8600733
55.85535651
55.8506706
55.84601477
55.84138825
55.83679028
55.83222017
55.82767723
55.82316079
55.81867024
55.81420497
55.80976438
55.80534795
55.80095514
55.79658547
55.79223846
55.78791367
55.78361066
55.77932905
55.77506849
55.77082869
55.76660938
55.76241033
55.75823135
55.75407229
55.74993304
55.74581356
55.74171383
55.73763386
55.73357367
55.72953324
55.72551256
55.72151159
55.71753028
55.71356857
55.70962636
55.70570351
55.70179984
55.69791507
55.69404888
55.69020093
55.68637083
55.68255824
55.67876283
55.67498423
55.67122206
55.66747589
55.66374523
55.66002957
55.6563284
55.65264124
55.64896765
55.64530725
55.64165964
55.63802441
55.63440109
55.63078919
55.62718816
55.62359749
55.62001668
55.61644532
55.61288302
55.60932945
55.60578426
55.60224711
55.59871756
55.59519518
55.59167951
55.58817009
55.58466652
55.58116846
55.57767563
55.5741878
55.57070477
55.56722634
55.56375227
55.56028226
55.55681598
55.55335303
55.549893
55.54643547
55.54298002
55.53952629
55.53607393
55.53262266
55.52917224
55.52572249
55.52227323
55.51882435
55.51537575
55.51192734
55.50847907
55.50503087
55.50158272
55.49813457
55.49468643
55.49123825
55.48779005
55.48434181
55.48089354
55.47744522
55.47399687
55.47054847
55.46710004
55.46365156
55.46020305
55.4567545
55.45330591
55.44985727
55.4464086
55.44295989
55.43951114
55.43606235
55.43261351
55.42916464
55.42571572
55.42226676
55.41881777
55.41536873
55.41191965
55.40847053
55.40502137
55.40157217
55.39812292
55.39467364
55.39122431
55.38777495
55.38432554
55.38087609
55.3774266
55.37397707
55.3705275
55.36707788
55.36362823
55.36017853
55.35672879
55.35327901
55.34982919
55.34637933
55.34292942
55.33947947
55.33602949
55.33257946
55.32912938
55.32567927
55.32222911
55.31877891
55.31532867
55.31187839
55.30842806
55.3049777
55.30152729
55.29807683
55.29462634
55.2911758
55.28772522
55.2842746
55.28082394
55.27737323
55.27392248
55.27047169
55.26702085
55.26356997
55.26011905
55.25666809
55.25321708
55.24976603
55.24631494
55.2428638
55.23941262
55.2359614
55.23251014
55.22905883
55.22560748
55.22215608
55.21870464
55.21525316
55.21180164
55.20835007
55.20489845
55.2014468
55.1979951
55.19454335
55.19109157
55.18763973
55.18418786
55.18073594
55.17728398
55.17383197
55.17037992
55.16692782
55.16347568
55.1600235
55.15657127
55.153119
55.14966668
55.14621432
55.14276192
55.13930947
55.13585697
55.13240443
55.12895185
55.12549922
55.12204655
55.11859383
55.11514107
55.11168826
55.10823541
55.10478251
55.10132957
55.09787658
55.09442355
55.09097047
55.08751735
55.08406418
55.08061097
55.07715771
55.07370441
55.07025106
55.06679767
55.06334423
55.05989074
55.05643721
55.05298363
55.04953001
55.04607634
55.04262263
55.03916887
55.03571506
55.03226121
55.02880731
55.02535337
55.02189938
55.01844534
55.01499126
55.01153713
55.00808296
55.00462874
55.00117447
54.99772016
54.9942658
54.99081139
54.98735694
54.98390244
54.98044789
54.9769933
54.97353866
54.97008397
54.96662924
54.96317446
54.95971963
54.95626476
54.95280984
54.94935487
54.94589986
54.94244479
54.93898968
54.93553453
54.93207932
54.92862407
54.92516877
54.92171343
54.91825803
54.91480259
54.9113471
54.90789157
54.90443598
54.90098035
54.89752467
54.89406894
54.89061317
54.88715735
54.88370148
54.88024556
54.87678959
54.87333357
54.86987751
54.8664214
54.86296524
54.85950903
54.85605277
54.85259647
54.84914012
54.84568371
54.84222726
54.83877077
54.83531422
54.83185762
54.82840098
54.82494428
54.82148754
54.81803075
54.81457391
54.81111702
54.80766008
54.80420309
54.80074606
54.79728897
54.79383184
54.79037465
54.78691742
54.78346014
54.78000281
54.77654543
54.77308799
54.76963051
54.76617298
54.7627154
54.75925778
54.7558001
54.75234237
54.74888459
54.74542676
54.74196888
54.73851096
54.73505298
54.73159495
54.72813687
54.72467874
54.72122056
54.71776234
54.71430406
54.71084573
54.70738735
54.70392892
54.70047044
54.69701191
54.69355333
54.6900947
54.68663602
54.68317728
54.6797185
54.67625966
54.67280079
54.66934182
54.66588286
54.66242375
54.65896474
54.6555054
54.65204648
54.64858674
54.64512967
54.64512967
56.56326281
56.56326281
56.27994484
56.23620408
56.21549344
56.20083329
56.18870903
56.17789289
56.16784798
56.15831048
56.14914144
56.14026393
56.13163325
56.12322179
56.11501107
56.10698754
56.09914027
56.09145979
56.08393749
56.07656529
56.06933556
56.06224105
56.05527486
56.04843047
56.04170172
56.0350828
56.02856828
56.02215305
56.01583233
56.00960165
56.00345685
55.99739402
55.99140951
55.98549991
55.97966204
55.9738929
55.96818969
55.96254978
55.9569707
55.95145012
55.94598586
55.94057585
55.93521814
55.92991091
55.9246524
55.91944097
55.91427507
55.90915321
55.90407398
55.89903605
55.89403815
55.88907906
55.88415764
55.87927277
55.87442341
55.86960855
55.86482723
55.86007853
55.85536158
55.85067552
55.84601955
55.84139289
55.83679479
55.83222456
55.82768149
55.82316494
55.81867428
55.8142089
55.80976821
55.80535167
55.80095877
55.79658901
55.79224191
55.78791702
55.78361393
55.77933223
55.7750716
55.77083172
55.76661234
55.76241321
55.75823416
55.75407502
55.74993571
55.74581615
55.74171635
55.73763631
55.73357604
55.72953554
55.72551479
55.72151375
55.71753236
55.71357057
55.70962829
55.70570537
55.70180162
55.69791678
55.69405052
55.69020249
55.68637233
55.68255968
55.67876419
55.67498553
55.6712233
55.66747707
55.66374635
55.66003063
55.6563294
55.65264218
55.64896855
55.64530809
55.64166043
55.63802515
55.63440178
55.63078983
55.62718876
55.62359805
55.62001721
55.6164458
55.61288347
55.60932986
55.60578464
55.60224745
55.59871787
55.59519547
55.59167976
55.58817032
55.58466673
55.58116864
55.57767579
55.57418794
55.57070489
55.56722644
55.56375235
55.56028232
55.55681602
55.55335306
55.54989302
55.54643547
55.54298001
55.53952627
55.5360739
55.53262263
55.52917221
55.52572245
55.52227319
55.51882431
55.51537571
55.5119273
55.50847902
55.50503082
55.50158267
55.49813453
55.49468638
55.49123821
55.48779001
55.48434177
55.48089349
55.47744518
55.47399682
55.47054842
55.46709999
55.46365152
55.460203
55.45675445
55.45330586
55.44985723
55.44640856
55.44295985
55.43951109
55.4360623
55.43261347
55.42916459
55.42571568
55.42226672
55.41881772
55.41536868
55.41191961
55.40847049
55.40502133
55.40157212
55.39812288
55.3946736
55.39122427
55.38777491
55.3843255
55.38087605
55.37742656
55.37397703
55.37052746
55.36707784
55.36362819
55.36017849
55.35672875
55.35327897
55.34982915
55.34637929
55.34292938
55.33947943
55.33602944
55.33257941
55.32912934
55.32567923
55.32222907
55.31877887
55.31532863
55.31187835
55.30842802
55.30497765
55.30152724
55.29807679
55.2946263
55.29117576
55.28772518
55.28427456
55.2808239
55.27737319
55.27392244
55.27047165
55.26702081
55.26356993
55.26011901
55.25666805
55.25321704
55.24976599
55.2463149
55.24286376
55.23941259
55.23596136
55.2325101
55.22905879
55.22560744
55.22215604
55.2187046
55.21525312
55.2118016
55.20835003
55.20489841
55.20144676
55.19799506
55.19454331
55.19109153
55.1876397
55.18418782
55.1807359
55.17728394
55.17383193
55.17037988
55.16692779
55.16347565
55.16002346
55.15657123
55.15311896
55.14966665
55.14621429
55.14276188
55.13930943
55.13585694
55.1324044
55.12895181
55.12549919
55.12204651
55.1185938
55.11514103
55.11168823
55.10823537
55.10478248
55.10132954
55.09787655
55.09442352
55.09097044
55.08751732
55.08406415
55.08061094
55.07715768
55.07370437
55.07025103
55.06679763
55.06334419
55.05989071
55.05643717
55.0529836
55.04952998
55.04607631
55.04262259
55.03916883
55.03571503
55.03226118
55.02880728
55.02535334
55.02189935
55.01844531
55.01499123
55.0115371
55.00808293
55.0046287
55.00117444
54.99772012
54.99426576
54.99081136
54.98735691
54.98390241
54.98044786
54.97699327
54.97353863
54.97008394
54.96662921
54.96317443
54.9597196
54.95626473
54.95280981
54.94935484
54.94589982
54.94244476
54.93898965
54.9355345
54.93207929
54.92862404
54.92516874
54.9217134
54.918258
54.91480256
54.91134707
54.90789154
54.90443595
54.90098032
54.89752464
54.89406891
54.89061314
54.88715732
54.88370145
54.88024553
54.87678956
54.87333354
54.86987748
54.86642137
54.86296521
54.859509
54.85605274
54.85259644
54.84914009
54.84568369
54.84222724
54.83877074
54.83531419
54.83185759
54.82840095
54.82494425
54.82148751
54.81803072
54.81457388
54.81111699
54.80766005
54.80420307
54.80074603
54.79728894
54.79383181
54.79037463
54.78691739
54.78346011
54.78000278
54.7765454
54.77308797
54.76963049
54.76617296
54.76271538
54.75925775
54.75580007
54.75234234
54.74888456
54.74542673
54.74196886
54.73851093
54.73505295
54.73159492
54.72813684
54.72467872
54.72122054
54.71776231
54.71430403
54.7108457
54.70738732
54.7039289
54.70047041
54.69701189
54.6935533
54.69009467
54.68663599
54.68317726
54.67971848
54.67625964
54.67280076
54.6693418
54.66588284
54.66242373
54.65896471
54.65550538
54.65204645
54.64858676
54.64512965
54.64512965
56.54727821
56.54727821
56.28313326
56.23739126
56.21610944
56.20121956
56.18897646
56.17808983
56.16799946
56.15843096
56.14923987
56.14034618
56.13170327
56.12328235
56.11506417
56.10703462
56.09918242
56.09149784
56.08397206
56.0765969
56.06936462
56.06226787
56.05529972
56.04845359
56.0417233
56.035103
56.02858723
56.02217087
56.01584912
56.00961751
56.00347185
55.99740824
55.99142301
55.98551275
55.97967426
55.97390455
55.96820081
55.96256041
55.95698087
55.95145986
55.9459952
55.94058481
55.93522675
55.92991918
55.92466036
55.91944864
55.91428246
55.90916034
55.90408086
55.89904269
55.89404457
55.88908527
55.88416364
55.87927858
55.87442904
55.869614
55.86483251
55.86008366
55.85536655
55.85068035
55.84602424
55.84139745
55.83679922
55.83222886
55.82768568
55.82316901
55.81867824
55.81421275
55.80977196
55.80535533
55.80096233
55.79659248
55.79224529
55.78792032
55.78361714
55.77933536
55.77507465
55.7708347
55.76661523
55.76241604
55.75823691
55.7540777
55.74993831
55.74581869
55.74171881
55.7376387
55.73357836
55.72953779
55.72551696
55.72151585
55.71753439
55.71357252
55.70963016
55.70570717
55.70180335
55.69791844
55.69405212
55.69020402
55.68637379
55.68256107
55.67876552
55.67498679
55.6712245
55.66747821
55.66374743
55.66003166
55.65633037
55.6526431
55.64896941
55.64530891
55.6416612
55.63802587
55.63440246
55.63079047
55.62718936
55.6235986
55.62001772
55.61644628
55.61288391
55.60933027
55.60578502
55.60224779
55.59871818
55.59519575
55.59168002
55.58817055
55.58466694
55.58116883
55.57767595
55.57418808
55.57070502
55.56722655
55.56375244
55.5602824
55.55681608
55.5533531
55.54989305
55.54643549
55.54298003
55.53952628
55.5360739
55.53262262
55.5291722
55.52572244
55.52227318
55.5188243
55.51537569
55.51192728
55.508479
55.50503081
55.50158265
55.49813451
55.49468636
55.49123819
55.48778999
55.48434175
55.48089347
55.47744516
55.4739968
55.47054841
55.46709997
55.4636515
55.46020298
55.45675443
55.45330584
55.44985721
55.44640854
55.44295983
55.43951107
55.43606228
55.43261345
55.42916457
55.42571566
55.4222667
55.4188177
55.41536867
55.41191959
55.40847047
55.40502131
55.4015721
55.39812286
55.39467358
55.39122425
55.38777489
55.38432548
55.38087603
55.37742654
55.37397701
55.37052744
55.36707782
55.36362817
55.36017847
55.35672873
55.35327895
55.34982913
55.34637927
55.34292936
55.33947941
55.33602942
55.33257939
55.32912932
55.32567921
55.32222905
55.31877885
55.31532861
55.31187833
55.308428
55.30497763
55.30152723
55.29807677
55.29462628
55.29117574
55.28772516
55.28427454
55.28082388
55.27737317
55.27392242
55.27047163
55.26702079
55.26356991
55.26011899
55.25666803
55.25321702
55.24976597
55.24631488
55.24286374
55.23941257
55.23596134
55.23251008
55.22905877
55.22560742
55.22215602
55.21870458
55.2152531
55.21180158
55.20835001
55.20489839
55.20144674
55.19799504
55.19454329
55.19109151
55.18763968
55.1841878
55.18073588
55.17728392
55.17383191
55.17037986
55.16692777
55.16347563
55.16002344
55.15657121
55.15311894
55.14966663
55.14621427
55.14276186
55.13930941
55.13585692
55.13240438
55.12895179
55.12549917
55.12204649
55.11859378
55.11514101
55.11168821
55.10823535
55.10478246
55.10132952
55.09787653
55.0944235
55.09097042
55.0875173
55.08406413
55.08061092
55.07715766
55.07370435
55.07025101
55.06679761
55.06334417
55.05989069
55.05643715
55.05298358
55.04952995
55.04607629
55.04262257
55.03916881
55.03571501
55.03226116
55.02880726
55.02535331
55.02189933
55.01844529
55.01499121
55.01153708
55.00808291
55.00462868
55.00117442
54.9977201
54.99426574
54.99081134
54.98735688
54.98390239
54.98044784
54.97699325
54.97353861
54.97008392
54.96662919
54.96317441
54.95971958
54.95626471
54.95280979
54.94935482
54.9458998
54.94244474
54.93898963
54.93553448
54.93207927
54.92862402
54.92516872
54.92171338
54.91825798
54.91480254
54.91134705
54.90789152
54.90443593
54.9009803
54.89752462
54.89406889
54.89061312
54.8871573
54.88370142
54.88024551
54.87678954
54.87333352
54.86987746
54.86642135
54.86296519
54.85950898
54.85605272
54.85259642
54.84914007
54.84568366
54.84222721
54.83877072
54.83531417
54.83185757
54.82840093
54.82494423
54.82148749
54.8180307
54.81457386
54.81111697
54.80766003
54.80420305
54.80074601
54.79728892
54.79383179
54.79037461
54.78691737
54.78346009
54.78000276
54.77654538
54.77308795
54.76963047
54.76617294
54.76271536
54.75925773
54.75580005
54.75234232
54.74888454
54.74542671
54.74196883
54.73851091
54.73505293
54.7315949
54.72813682
54.7246787
54.72122052
54.71776229
54.71430401
54.71084568
54.7073873
54.70392887
54.70047039
54.69701186
54.69355328
54.69009465
54.68663597
54.68317724
54.67971846
54.67625962
54.67280074
54.66934178
54.66588281
54.66242371
54.65896468
54.65550537
54.65204641
54.64858678
54.64512963
54.64512963
56.53136338
56.53136338
56.28601986
56.23853129
56.21671102
56.20159959
56.18924069
56.1782849
56.16814971
56.15855051
56.14933753
56.14042773
56.13177264
56.12334229
56.11511665
56.10708111
56.09922399
56.09153532
56.08400611
56.07662801
56.06939318
56.06229423
56.05532414
56.0484763
56.04174447
56.03512281
56.02860581
56.02218833
56.01586558
56.00963305
56.00348655
55.99742216
55.99143623
55.98552531
55.97968622
55.97391595
55.96821169
55.96257081
55.95699081
55.95146939
55.94600433
55.94059357
55.93523517
55.92992728
55.92466815
55.91945614
55.91428969
55.9091673
55.90408758
55.89904918
55.89405084
55.88909133
55.8841695
55.87928426
55.87443453
55.86961933
55.86483768
55.86008866
55.85537141
55.85068506
55.84602882
55.84140189
55.83680354
55.83223306
55.82768976
55.82317299
55.81868211
55.81421651
55.80977562
55.80535889
55.8009658
55.79659586
55.79224858
55.78792353
55.78362027