# vtk DataFile Version 2.0
FlowField
ASCII
DATASET STRUCTURED_GRID
DIMENSIONS 400 1 200
POINTS 80000 float
0 0 0
0.08 0 0
0.16 0 0
0.24 0 0
0.32 0 0
0.4 0 0
0.48 0 0
0.56 0 0
0.64 0 0
0.72 0 0
0.8 0 0
0.88 0 0
0.96 0 0
1.04 0 0
1.12 0 0
1.2 0 0
1.28 0 0
1.36 0 0
1.44 0 0
1.52 0 0
1.6 0 0
1.68 0 0
1.76 0 0
1.84 0 0
1.92 0 0
2 0 0
2.08 0 0
2.16 0 0
2.24 0 0
2.32 0 0
2.4 0 0
2.48 0 0
2.56 0 0
2.64 0 0
2.72 0 0
2.8 0 0
2.88 0 0
2.96 0 0
3.04 0 0
3.12 0 0
3.2 0 0
3.28 0 0
3.36 0 0
3.44 0 0
3.52 0 0
3.6 0 0
3.68 0 0
3.76 0 0
3.84 0 0
3.92 0 0
4 0 0
4.08 0 0
4.16 0 0
4.24 0 0
4.32 0 0
4.4 0 0
4.48 0 0
4.56 0 0
4.64 0 0
4.72 0 0
4.8 0 0
4.88 0 0
4.96 0 0
5.04 0 0
5.12 0 0
5.2 0 0
5.28 0 0
5.36 0 0
5.44 0 0
5.52 0 0
5.6 0 0
5.68 0 0
5.76 0 0
5.84 0 0
5.92 0 0
6 0 0
6.08 0 0
6.16 0 0
6.24 0 0
6.32 0 0
6.4 0 0
6.48 0 0
6.56 0 0
6.64 0 0
6.72 0 0
6.8 0 0
6.88 0 0
6.96 0 0
7.04 0 0
7.12 0 0
7.2 0 0
7.28 0 0
7.36 0 0
7.44 0 0
7.52 0 0
7.6 0 0
7.68 0 0
7.76 0 0
7.84 0 0
7.92 0 0
8 0 0
8.08 0 0
8.16 0 0
8.24 0 0
8.32 0 0
8.4 0 0
8.48 0 0
8.56 0 0
8.64 0 0
8.72 0 0
8.8 0 0
8.88 0 0
8.96 0 0
9.04 0 0
9.12 0 0
9.2 0 0
9.28 0 0
9.36 0 0
9.44 0 0
9.52 0 0
9.6 0 0
9.68 0 0
9.76 0 0
9.84 0 0
9.92 0 0
10 0 0
10.08 0 0
10.16 0 0
10.24 0 0
10.32 0 0
10.4 0 0
10.48 0 0
10.56 0 0
10.64 0 0
10.72 0 0
10.8 0 0
10.88 0 0
10.96 0 0
11.04 0 0
11.12 0 0
11.2 0 0
11.28 0 0
11.36 0 0
11.44 0 0
11.52 0 0
11.6 0 0
11.68 0 0
11.76 0 0
11.84 0 0
11.92 0 0
12 0 0
12.08 0 0
12.16 0 0
12.24 0 0
12.32 0 0
12.4 0 0
12.48 0 0
12.56 0 0
12.64 0 0
12.72 0 0
12.8 0 0
12.88 0 0
12.96 0 0
13.04 0 0
13.12 0 0
13.2 0 0
13.28 0 0
13.36 0 0
13.44 0 0
13.52 0 0
13.6 0 0
13.68 0 0
13.76 0 0
13.84 0 0
13.92 0 0
14 0 0
14.08 0 0
14.16 0 0
14.24 0 0
14.32 0 0
14.4 0 0
14.48 0 0
14.56 0 0
14.64 0 0
14.72 0 0
14.8 0 0
14.88 0 0
14.96 0 0
15.04 0 0
15.12 0 0
15.2 0 0
15.28 0 0
15.36 0 0
15.44 0 0
15.52 0 0
15.6 0 0
15.68 0 0
15.76 0 0
15.84 0 0
15.92 0 0
16 0 0
16.08 0 0
16.16 0 0
16.24 0 0
16.32 0 0
16.4 0 0
16.48 0 0
16.56 0 0
16.64 0 0
16.72 0 0
16.8 0 0
16.88 0 0
16.96 0 0
17.04 0 0
17.12 0 0
17.2 0 0
17.28 0 0
17.36 0 0
17.44 0 0
17.52 0 0
17.6 0 0
17.68 0 0
17.76 0 0
17.84 0 0
17.92 0 0
18 0 0
18.08 0 0
18.16 0 0
18.24 0 0
18.32 0 0
18.4 0 0
18.48 0 0
18.56 0 0
18.64 0 0
18.72 0 0
18.8 0 0
18.88 0 0
18.96 0 0
19.04 0 0
19.12 0 0
19.2 0 0
19.28 0 0
19.36 0 0
19.44 0 0
19.52 0 0
19.6 0 0
19.68 0 0
19.76 0 0
19.84 0 0
19.92 0 0
20 0 0
20.08 0 0
20.16 0 0
20.24 0 0
20.32 0 0
20.4 0 0
20.48 0 0
20.56 0 0
20.64 0 0
20.72 0 0
20.8 0 0
20.88 0 0
20.96 0 0
21.04 0 0
21.12 0 0
21.2 0 0
21.28 0 0
21.36 0 0
21.44 0 0
21.52 0 0
21.6 0 0
21.68 0 0
21.76 0 0
21.84 0 0
21.92 0 0
22 0 0
22.08 0 0
22.16 0 0
22.24 0 0
22.32 0 0
22.4 0 0
22.48 0 0
22.56 0 0
22.64 0 0
22.72 0 0
22.8 0 0
22.88 0 0
22.96 0 0
23.04 0 0
23.12 0 0
23.2 0 0
23.28 0 0
23.36 0 0
23.44 0 0
23.52 0 0
23.6 0 0
23.68 0 0
23.76 0 0
23.84 0 0
23.92 0 0
24 0 0
24.08 0 0
24.16 0 0
24.24 0 0
24.32 0 0
24.4 0 0
24.48 0 0
24.56 0 0
24.64 0 0
24.72 0 0
24.8 0 0
24.88 0 0
24.96 0 0
25.04 0 0
25.12 0 0
25.2 0 0
25.28 0 0
25.36 0 0
25.44 0 0
25.52 0 0
25.6 0 0
25.68 0 0
25.76 0 0
25.84 0 0
25.92 0 0
26 0 0
26.08 0 0
26.16 0 0
26.24 0 0
26.32 0 0
26.4 0 0
26.48 0 0
26.56 0 0
26.64 0 0
26.72 0 0
26.8 0 0
26.88 0 0
26.96 0 0
27.04 0 0
27.12 0 0
27.2 0 0
27.28 0 0
27.36 0 0
27.44 0 0
27.52 0 0
27.6 0 0
27.68 0 0
27.76 0 0
27.84 0 0
27.92 0 0
28 0 0
28.08 0 0
28.16 0 0
28.24 0 0
28.32 0 0
28.4 0 0
28.48 0 0
28.56 0 0
28.64 0 0
28.72 0 0
28.8 0 0
28.88 0 0
28.96 0 0
29.04 0 0
29.12 0 0
29.2 0 0
29.28 0 0
29.36 0 0
29.44 0 0
29.52 0 0
29.6 0 0
29.68 0 0
29.76 0 0
29.84 0 0
29.92 0 0
30 0 0
30.08 0 0
30.16 0 0
30.24 0 0
30.32 0 0
30.4 0 0
30.48 0 0
30.56 0 0
30.64 0 0
30.72 0 0
30.8 0 0
30.88 0 0
30.96 0 0
31.04 0 0
31.12 0 0
31.2 0 0
31.28 0 0
31.36 0 0
31.44 0 0
31.52 0 0
31.6 0 0
31.68 0 0
31.76 0 0
31.84 0 0
31.92 0 0
0 0.005 0
0.08 0.005 0
0.16 0.005 0
0.24 0.005 0
0.32 0.005 0
0.4 0.005 0
0.48 0.005 0
0.56 0.005 0
0.64 0.005 0
0.72 0.005 0
0.8 0.005 0
0.88 0.005 0
0.96 0.005 0
1.04 0.005 0
1.12 0.005 0
1.2 0.005 0
1.28 0.005 0
1.36 0.005 0
1.44 0.005 0
1.52 0.005 0
1.6 0.005 0
1.68 0.005 0
1.76 0.005 0
1.84 0.005 0
1.92 0.005 0
2 0.005 0
2.08 0.005 0
2.16 0.005 0
2.24 0.005 0
2.32 0.005 0
2.4 0.005 0
2.48 0.005 0
2.56 0.005 0
2.64 0.005 0
2.72 0.005 0
2.8 0.005 0
2.88 0.005 0
2.96 0.005 0
3.04 0.005 0
3.12 0.005 0
3.2 0.005 0
3.28 0.005 0
3.36 0.005 0
3.44 0.005 0
3.52 0.005 0
3.6 0.005 0
3.68 0.005 0
3.76 0.005 0
3.84 0.005 0
3.92 0.005 0
4 0.005 0
4.08 0.005 0
4.16 0.005 0
4.24 0.005 0
4.32 0.005 0
4.4 0.005 0
4.48 0.005 0
4.56 0.005 0
4.64 0.005 0
4.72 0.005 0
4.8 0.005 0
4.88 0.005 0
4.96 0.005 0
5.04 0.005 0
5.12 0.005 0
5.2 0.005 0
5.28 0.005 0
5.36 0.005 0
5.44 0.005 0
5.52 0.005 0
5.6 0.005 0
5.68 0.005 0
5.76 0.005 0
5.84 0.005 0
5.92 0.005 0
6 0.005 0
6.08 0.005 0
6.16 0.005 0
6.24 0.005 0
6.32 0.005 0
6.4 0.005 0
6.48 0.005 0
6.56 0.005 0
6.64 0.005 0
6.72 0.005 0
6.8 0.005 0
6.88 0.005 0
6.96 0.005 0
7.04 0.005 0
7.12 0.005 0
7.2 0.005 0
7.28 0.005 0
7.36 0.005 0
7.44 0.005 0
7.52 0.005 0
7.6 0.005 0
7.68 0.005 0
7.76 0.005 0
7.84 0.005 0
7.92 0.005 0
8 0.005 0
8.08 0.005 0
8.16 0.005 0
8.24 0.005 0
8.32 0.005 0
8.4 0.005 0
8.48 0.005 0
8.56 0.005 0
8.64 0.005 0
8.72 0.005 0
8.8 0.005 0
8.88 0.005 0
8.96 0.005 0
9.04 0.005 0
9.12 0.005 0
9.2 0.005 0
9.28 0.005 0
9.36 0.005 0
9.44 0.005 0
9.52 0.005 0
9.6 0.005 0
9.68 0.005 0
9.76 0.005 0
9.84 0.005 0
9.92 0.005 0
10 0.005 0
10.08 0.005 0
10.16 0.005 0
10.24 0.005 0
10.32 0.005 0
10.4 0.005 0
10.48 0.005 0
10.56 0.005 0
10.64 0.005 0
10.72 0.005 0
10.8 0.005 0
10.88 0.005 0
10.96 0.005 0
11.04 0.005 0
11.12 0.005 0
11.2 0.005 0
11.28 0.005 0
11.36 0.005 0
11.44 0.005 0
11.52 0.005 0
11.6 0.005 0
11.68 0.005 0
11.76 0.005 0
11.84 0.005 0
11.92 0.005 0
12 0.005 0
12.08 0.005 0
12.16 0.005 0
12.24 0.005 0
12.32 0.005 0
12.4 0.005 0
12.48 0.005 0
12.56 0.005 0
12.64 0.005 0
12.72 0.005 0
12.8 0.005 0
12.88 0.005 0
12.96 0.005 0
13.04 0.005 0
13.12 0.005 0
13.2 0.005 0
13.28 0.005 0
13.36 0.005 0
13.44 0.005 0
13.52 0.005 0
13.6 0.005 0
13.68 0.005 0
13.76 0.005 0
13.84 0.005 0
13.92 0.005 0
14 0.005 0
14.08 0.005 0
14.16 0.005 0
14.24 0.005 0
14.32 0.005 0
14.4 0.005 0
14.48 0.005 0
14.56 0.005 0
14.64 0.005 0
14.72 0.005 0
14.8 0.005 0
14.88 0.005 0
14.96 0.005 0
15.04 0.005 0
15.12 0.005 0
15.2 0.005 0
15.28 0.005 0
15.36 0.005 0
15.44 0.005 0
15.52 0.005 0
15.6 0.005 0
15.68 0.005 0
15.76 0.005 0
15.84 0.005 0
15.92 0.005 0
16 0.005 0
16.08 0.005 0
16.16 0.005 0
16.24 0.005 0
16.32 0.005 0
16.4 0.005 0
16.48 0.005 0
16.56 0.005 0
16.64 0.005 0
16.72 0.005 0
16.8 0.005 0
16.88 0.005 0
16.96 0.005 0
17.04 0.005 0
17.12 0.005 0
17.2 0.005 0
17.28 0.005 0
17.36 0.005 0
17.44 0.005 0
17.52 0.005 0
17.6 0.005 0
17.68 0.005 0
17.76 0.005 0
17.84 0.005 0
17.92 0.005 0
18 0.005 0
18.08 0.005 0
18.16 0.005 0
18.24 0.005 0
18.32 0.005 0
18.4 0.005 0
18.48 0.005 0
18.56 0.005 0
18.64 0.005 0
18.72 0.005 0
18.8 0.005 0
18.88 0.005 0
18.96 0.005 0
19.04 0.005 0
19.12 0.005 0
19.2 0.005 0
19.28 0.005 0
19.36 0.005 0
19.44 0.005 0
19.52 0.005 0
19.6 0.005 0
19.68 0.005 0
19.76 0.005 0
19.84 0.005 0
19.92 0.005 0
20 0.005 0
20.08 0.005 0
20.16 0.005 0
20.24 0.005 0
20.32 0.005 0
20.4 0.005 0
20.48 0.005 0
20.56 0.005 0
20.64 0.005 0
20.72 0.005 0
20.8 0.005 0
20.88 0.005 0
20.96 0.005 0
21.04 0.005 0
21.12 0.005 0
21.2 0.005 0
21.28 0.005 0
21.36 0.005 0
21.44 0.005 0
21.52 0.005 0
21.6 0.005 0
21.68 0.005 0
21.76 0.005 0
21.84 0.005 0
21.92 0.005 0
22 0.005 0
22.08 0.005 0
22.16 0.005 0
22.24 0.005 0
22.32 0.005 0
22.4 0.005 0
22.48 0.005 0
22.56 0.005 0
22.64 0.005 0
22.72 0.005 0
22.8 0.005 0
22.88 0.005 0
22.96 0.005 0
23.04 0.005 0
23.12 0.005 0
23.2 0.005 0
23.28 0.005 0
23.36 0.005 0
23.44 0.005 0
23.52 0.005 0
23.6 0.005 0
23.68 0.005 0
23.76 0.005 0
23.84 0.005 0
23.92 0.005 0
24 0.005 0
24.08 0.005 0
24.16 0.005 0
24.24 0.005 0
24.32 0.005 0
24.4 0.005 0
24.48 0.005 0
24.56 0.005 0
24.64 0.005 0
24.72 0.005 0
24.8 0.005 0
24.88 0.005 0
24.96 0.005 0
25.04 0.005 0
25.12 0.005 0
25.2 0.005 0
25.28 0.005 0
25.36 0.005 0
25.44 0.005 0
25.52 0.005 0
25.6 0.005 0
25.68 0.005 0
25.76 0.005 0
25.84 0.005 0
25.92 0.005 0
26 0.005 0
26.08 0.005 0
26.16 0.005 0
26.24 0.005 0
26.32 0.005 0
26.4 0.005 0
26.48 0.005 0
26.56 0.005 0
26.64 0.005 0
26.72 0.005 0
26.8 0.005 0
26.88 0.005 0
26.96 0.005 0
27.04 0.005 0
27.12 0.005 0
27.2 0.005 0
27.28 0.005 0
27.36 0.005 0
27.44 0.005 0
27.52 0.005 0
27.6 0.005 0
27.68 0.005 0
27.76 0.005 0
27.84 0.005 0
27.92 0.005 0
28 0.005 0
28.08 0.005 0
28.16 0.005 0
28.24 0.005 0
28.32 0.005 0
28.4 0.005 0
28.48 0.005 0
28.56 0.005 0
28.64 0.005 0
28.72 0.005 0
28.8 0.005 0
28.88 0.005 0
28.96 0.005 0
29.04 0.005 0
29.12 0.005 0
29.2 0.005 0
29.28 0.005 0
29.36 0.005 0
29.44 0.005 0
29.52 0.005 0
29.6 0.005 0
29.68 0.005 0
29.76 0.005 0
29.84 0.005 0
29.92 0.005 0
30 0.005 0
30.08 0.005 0
30.16 0.005 0
30.24 0.005 0
30.32 0.005 0
30.4 0.005 0
30.48 0.005 0
30.56 0.005 0
30.64 0.005 0
30.72 0.005 0
30.8 0.005 0
30.88 0.005 0
30.96 0.005 0
31.04 0.005 0
31.12 0.005 0
31.2 0.005 0
31.28 0.005 0
31.36 0.005 0
31.44 0.005 0
31.52 0.005 0
31.6 0.005 0
31.68 0.005 0
31.76 0.005 0
31.84 0.005 0
31.92 0.005 0
0 0.01 0
0.08 0.01 0
0.16 0.01 0
0.24 0.01 0
0.32 0.01 0
0.4 0.01 0
0.48 0.01 0
0.56 0.01 0
0.64 0.01 0
0.72 0.01 0
0.8 0.01 0
0.88 0.01 0
0.96 0.01 0
1.04 0.01 0
1.12 0.01 0
1.2 0.01 0
1.28 0.01 0
1.36 0.01 0
1.44 0.01 0
1.52 0.01 0
1.6 0.01 0
1.68 0.01 0
1.76 0.01 0
1.84 0.01 0
1.92 0.01 0
2 0.01 0
2.08 0.01 0
2.16 0.01 0
2.24 0.01 0
2.32 0.01 0
2.4 0.01 0
2.48 0.01 0
2.56 0.01 0
2.64 0.01 0
2.72 0.01 0
2.8 0.01 0
2.88 0.01 0
2.96 0.01 0
3.04 0.01 0
3.12 0.01 0
3.2 0.01 0
3.28 0.01 0
3.36 0.01 0
3.44 0.01 0
3.52 0.01 0
3.6 0.01 0
3.68 0.01 0
3.76 0.01 0
3.84 0.01 0
3.92 0.01 0
4 0.01 0
4.08 0.01 0
4.16 0.01 0
4.24 0.01 0
4.32 0.01 0
4.4 0.01 0
4.48 0.01 0
4.56 0.01 0
4.64 0.01 0
4.72 0.01 0
4.8 0.01 0
4.88 0.01 0
4.96 0.01 0
5.04 0.01 0
5.12 0.01 0
[...]
POINT_DATA 80000

SCALARS v float 1
LOOKUP_TABLE default
0
0
0
0
0
0
0
0
0
0
0
0
0
0
0
0
0
0
0
0
0
0
0
0
0
0
0
0
0
0
0
0
0
0
0
0
0
0
0
0
0
0
0
0
0
0
0
0
0
0
0
0
0
0
0
0
0
0
0
0
0
0
0
0
0
0
0
0
0
0
0
0
0
0
0
0
0
0
0
0
0
0
0
0
0
0
0
0
0
0
0
0
0
0
0
0
0
0
0
0
0
0
0
0
0
0
0
0
0
0
0
0
0
0
0
0
0
0
0
0
0
0
0
0
0
0
0
0
0
0
0
0
0
0
0
0
0
0
0
0
0
0
0
0
0
0
0
0
0
0
0
0
0
0
0
0
0
0
0
0
0
0
0
0
0
0
0
0
0
0
0
0
0
0
0
0
0
0
0
0
0
0
0
0
0
0
0
0
0
0
0
0
0
0
0
0
0
0
0
0
0
0
0
0
0
0
0
0
0
0
0
0
0
0
0
0
0
0
0
0
0
0
0
0
0
0
0
0
0
0
0
0
0
0
0
0
0
0
0
0
0
0
0
0
0
0
0
0
0
0
0
0
0
0
0
0
0
0
0
0
0
0
0
0
0
0
0
0
0
0
0
0
0
0
0
0
0
0
0
0
0
0
0
0
0
0
0
0
0
0
0
0
0
0
0
0
0
0
0
0
0
0
0
0
0
0
0
0
0
0
0
0
0
0
0
0
0
0
0
0
0
0
0
0
0
0
0
0
0
0
0
0
0
0
0
0
0
0
0
0
0
0
0
0
0
0
0
0
0
0
0
0
0
0
0
0
0
0
0
0
0
0
0
0
0
0
0
0
0
0
0
0
0
0
0
0
0
0
0
0
0
0
0
0
0
0
0
0
0
0
0
0
0
0
0
0
0
0
0
0
-0.05427109142
0.05427109142
0.003962096515
0.0009983312593
0.0004922617881
0.0003026978161
0.0002073216529
0.0001516932238
0.0001162517953
9.229540237e-05
7.53822443e-05
6.302162116e-05
5.372116736e-05
4.654271027e-05
4.08748596e-05
3.630777566e-05
3.256022571e-05
2.943523381e-05
2.679221643e-05
2.452902587e-05
2.257014253e-05
2.085877997e-05
1.935152909e-05
1.801467627e-05
1.682164012e-05
1.575116457e-05
1.478602877e-05
1.391211398e-05
1.311771975e-05
1.239305598e-05
1.172986035e-05
1.112110644e-05
1.056077814e-05
1.004369279e-05
9.565361464e-06
9.121876767e-06
8.709822203e-06
8.326198216e-06
7.96836128e-06
7.633973411e-06
7.320960049e-06
7.027474628e-06
6.7518688e-06
6.492667025e-06
6.248545005e-06
6.018311238e-06
5.800891159e-06
5.595313426e-06
5.400698154e-06
5.216246623e-06
5.041232348e-06
4.874993347e-06
4.71692525e-06
4.566475368e-06
4.423137439e-06
4.286446948e-06
4.155977063e-06
4.031335022e-06
3.912158843e-06
3.798114509e-06
3.688893429e-06
3.584210061e-06
3.483799995e-06
3.38741801e-06
3.294836456e-06
3.2058438e-06
3.120243261e-06
3.037851601e-06
2.958498053e-06
2.882023286e-06
2.808278535e-06
2.737124789e-06
2.668432038e-06
2.60207856e-06
2.537950373e-06
2.475940578e-06
2.415948923e-06
2.357881251e-06
2.301649144e-06
2.247169447e-06
2.194363923e-06
2.14315896e-06
2.093485159e-06
2.045277163e-06
1.99847326e-06
1.953015271e-06
1.908848201e-06
1.865920089e-06
1.824181834e-06
1.783586939e-06
1.744091409e-06
1.705653561e-06
1.668233874e-06
1.631794876e-06
1.596301012e-06
1.561718509e-06
1.528015252e-06
1.495160758e-06
1.463125993e-06
1.431883326e-06
1.401406455e-06
1.37167028e-06
1.342650887e-06
1.314325455e-06
1.286672197e-06
1.259670286e-06
1.233299815e-06
1.207541752e-06
1.182377869e-06
1.157790713e-06
1.133763567e-06
1.110280392e-06
1.087325805e-06
1.064885025e-06
1.042943865e-06
1.021488702e-06
1.000506422e-06
9.799843865e-07
9.599104827e-07
9.402729852e-07
9.210606246e-07
9.022625208e-07
8.838681883e-07
8.658674927e-07
8.482506623e-07
8.310082461e-07
8.141310805e-07
7.976103588e-07
7.814375097e-07
7.656042807e-07
7.501026334e-07
7.349247972e-07
7.200632568e-07
7.055106975e-07
6.912600351e-07
6.773044176e-07
6.636371503e-07
6.502517582e-07
6.371419553e-07
6.243016154e-07
6.117247801e-07
5.994056777e-07
5.873386712e-07
5.755182835e-07
5.639391981e-07
5.525962156e-07
5.414843035e-07
5.305984794e-07
5.199339821e-07
5.09486118e-07
4.992503261e-07
4.892221762e-07
4.79397327e-07
4.697715437e-07
4.603407057e-07
4.511007854e-07
4.420478535e-07
4.331781394e-07
4.24487917e-07
4.159736165e-07
4.076316954e-07
3.994587272e-07
3.914513428e-07
3.836063047e-07
3.759204422e-07
3.683906364e-07
3.610138579e-07
3.537870352e-07
3.46707131e-07
3.397711116e-07
3.329758987e-07
3.263184635e-07
3.197957016e-07
3.134044222e-07
3.07141344e-07
3.01003039e-07
2.949859353e-07
2.890864141e-07
2.833006881e-07
2.776249609e-07
2.720552496e-07
2.66587447e-07
2.612173065e-07
2.559404753e-07
2.507525173e-07
2.4564907e-07
2.406257548e-07
2.356782077e-07
2.308021243e-07
2.259931794e-07
2.212471068e-07
2.165597459e-07
2.119271748e-07
2.073456569e-07
2.028117778e-07
1.983222781e-07
1.938741181e-07
1.894643961e-07
1.850904643e-07
1.807499581e-07
1.764409072e-07
1.721616867e-07
1.679110519e-07
1.636879617e-07
1.594916201e-07
1.553213766e-07
1.511768438e-07
1.470579964e-07
1.429651986e-07
1.388991749e-07
1.34860967e-07
1.308517528e-07
1.26872792e-07
1.229254418e-07
1.190112002e-07
1.151319044e-07
1.112897016e-07
1.074870608e-07
1.037265833e-07
1.000109186e-07
9.634252851e-08
9.27237152e-08
8.915680997e-08
8.564420533e-08
8.218858097e-08
7.879280103e-08
7.54597789e-08
7.219225976e-08
6.899262319e-08
6.586280116e-08
6.280443682e-08
5.98190494e-08
5.690825545e-08
5.407386687e-08
5.131779734e-08
4.864188823e-08
4.604758112e-08
4.353581622e-08
4.110696633e-08
3.876106653e-08
3.649801604e-08
3.431783981e-08
3.222081186e-08
3.020735767e-08
2.827784301e-08
2.643227574e-08
2.467015366e-08
2.299040624e-08
2.139152311e-08
1.987185905e-08
1.842976087e-08
1.706387561e-08
1.577302634e-08
1.455613619e-08
1.341197694e-08
1.23389127e-08
1.133486809e-08
1.039731846e-08
9.523458678e-09
8.710449312e-09
7.955579206e-09
7.25641227e-09
6.61074836e-09
6.016503178e-09
5.471574206e-09
4.973615545e-09
4.520101071e-09
4.108199936e-09
3.734948784e-09
3.397437253e-09
3.092910028e-09
2.818841439e-09
2.572997404e-09
2.353384626e-09
2.158116654e-09
1.98539164e-09
1.833310829e-09
1.699962398e-09
1.583366121e-09
1.48155301e-09
1.392673028e-09
1.315007318e-09
1.247030736e-09
1.187440583e-09
1.135125709e-09
1.089118843e-09
1.048550642e-09
1.012660535e-09
9.806893901e-10
9.519619398e-10
9.258632883e-10
9.01792205e-10
8.79307483e-10
8.580016812e-10
8.375840327e-10
8.178349121e-10
7.986008421e-10
7.797933918e-10
7.613179858e-10
7.431244662e-10
7.251477977e-10
7.073342463e-10
6.896551085e-10
6.720459667e-10
6.544773859e-10
6.369117719e-10
6.193715717e-10
6.017995881e-10
5.842312534e-10
5.666386085e-10
5.490743328e-10
5.314954502e-10
5.139424738e-10
4.96371856e-10
4.788200777e-10
4.612623363e-10
4.437150097e-10
4.26140844e-10
4.085874999e-10
3.910084359e-10
3.734492057e-10
3.558426401e-10
3.382712512e-10
3.206478869e-10
3.030867427e-10
2.854417418e-10
2.678816079e-10
2.502321787e-10
2.326776741e-10
2.150064209e-10
1.974566515e-10
1.797627826e-10
1.622152708e-10
1.444877719e-10
1.269680029e-10
1.092035318e-10
9.168966871e-11
7.389874765e-11
5.642388597e-11
3.857467664e-11
2.114072049e-11
3.223178236e-12
-1.414584035e-11
-3.215598368e-11
-4.944880072e-11
-6.755435038e-11
-8.47478957e-11
-1.029802956e-10
-1.200523599e-10
-1.384464962e-10
-1.553482928e-10
-1.7394143e-10
-1.906298467e-10
-2.094917801e-10
-2.258902792e-10
-2.450909789e-10
-2.611174828e-10
-2.807403239e-10
-2.963105371e-10
-3.164605305e-10
-3.314265851e-10
-3.522719259e-10
-3.664784539e-10
-3.881759576e-10
-4.014151501e-10
-4.24200537e-10
-4.362092457e-10
-4.603547579e-10
-4.70825989e-10
-4.966691992e-10
-5.052497589e-10
-5.331501614e-10
-5.394043669e-10
-5.698267089e-10
-5.732813232e-10
-6.066475674e-10
-6.068829719e-10
-6.435755075e-10
-6.402755914e-10
-6.804285862e-10
-6.736725511e-10
-7.168207705e-10
-7.076459906e-10
-7.520139183e-10
-7.434851524e-10
-7.84487094e-10
-7.840416407e-10
-8.111812858e-10
-8.35702776e-10
-8.256318084e-10
-9.13137326e-10
-8.123544708e-10
-1.050955747e-09
-7.244917324e-10
-1.331505663e-09
-3.492875743e-10
-1.925242453e-09
2.434623756e-09
-1.049938247e-09
-1.049938247e-09
-0.09521586354
0.09521586354
0.01297562203
0.003854620106
0.001934309807
0.001196201154
0.0008217429584
0.0006023163769
0.000462068925
0.000367042872
0.0002998325666
0.0002506469258
0.0002136036307
0.0001849958325
0.0001624024305
0.000144197083
0.0001292616639
0.0001168117069
0.0001062865183
9.727821959e-05
8.94849925e-05
8.267975397e-05
7.668886307e-05
7.137745599e-05
6.663921866e-05
6.238916565e-05
5.855847778e-05
5.509076441e-05
5.193932182e-05
4.906509555e-05
4.643514575e-05
4.402147594e-05
4.180012779e-05
3.975047274e-05
3.785465114e-05
3.609712342e-05
3.446430734e-05
3.294428197e-05
3.152654444e-05
3.020180822e-05
2.896183496e-05
2.779929339e-05
2.670764025e-05
2.568101935e-05
2.471417565e-05
2.380238161e-05
2.294137424e-05
2.212730057e-05
2.135667072e-05
2.06263171e-05
1.993335887e-05
1.927517112e-05
1.864935768e-05
1.805372743e-05
1.748627335e-05
1.694515418e-05
1.64286781e-05
1.59352883e-05
1.546355024e-05
1.501214022e-05
1.457983521e-05
1.416550384e-05
1.376809827e-05
1.338664684e-05
1.302024764e-05
1.266806254e-05
1.232931189e-05
1.200326977e-05
1.168925958e-05
1.138665016e-05
1.109485224e-05
1.08133151e-05
1.054152372e-05
1.027899598e-05
1.002528029e-05
9.779953334e-06
9.542617915e-06
9.312901174e-06
9.090452804e-06
8.874943481e-06
8.666063368e-06
8.463520799e-06
8.267041015e-06
8.07636501e-06
7.89124851e-06
7.711460938e-06
7.536784558e-06
7.367013592e-06
7.201953456e-06
7.041420085e-06
6.885239156e-06
6.733245592e-06
6.585282868e-06
6.441202547e-06
6.300863779e-06
6.164132787e-06
6.030882442e-06
5.900991915e-06
5.774346231e-06
5.650835947e-06
5.530356804e-06
5.412809477e-06
5.29809921e-06
5.186135575e-06
5.076832258e-06
4.970106797e-06
4.865880316e-06
4.764077416e-06
4.664625895e-06
4.567456605e-06
4.472503331e-06
4.379702521e-06
4.288993233e-06
4.200316937e-06
4.113617458e-06
4.028840761e-06
3.945934912e-06
3.86484992e-06
3.785537665e-06
3.707951813e-06
3.632047669e-06
3.557782164e-06
3.485113731e-06
3.414002265e-06
3.344409023e-06
3.276296562e-06
3.209628679e-06
3.144370388e-06
3.080487792e-06
3.017948146e-06
2.956719672e-06
2.896771623e-06
2.838074179e-06
2.780598397e-06
2.724316241e-06
2.669200514e-06
2.615224761e-06
2.562363363e-06
2.510591378e-06
2.459884591e-06
2.410219428e-06
2.361572979e-06
2.313922964e-06
2.267247733e-06
2.221526202e-06
2.176737833e-06
2.132862571e-06
2.089880946e-06
2.047773899e-06
2.006522932e-06
1.966110017e-06
1.926517605e-06
1.887728516e-06
1.849726036e-06
1.812493785e-06
1.776015877e-06
1.740276833e-06
1.705261618e-06
1.670955602e-06
1.63734451e-06
1.604414401e-06
1.572151634e-06
1.540542939e-06
1.509575368e-06
1.479236326e-06
1.449513443e-06
1.4203945e-06
1.3918673e-06
1.363919614e-06
1.336539235e-06
1.309713905e-06
1.283431303e-06
1.2576789e-06
1.232443825e-06
1.207712732e-06
1.183471741e-06
1.159706536e-06
1.136402332e-06
1.113544072e-06
1.091116223e-06
1.06910282e-06
1.04748731e-06
1.02625265e-06
1.005381408e-06
9.848560021e-07
9.646589215e-07
9.447727861e-07
9.251803769e-07
9.058645278e-07
8.868081829e-07
8.679945636e-07
8.494074396e-07
8.310314196e-07
8.128521217e-07
7.94856136e-07
7.770309351e-07
7.593647079e-07
7.418464088e-07
7.244659133e-07
7.07214409e-07
6.900844867e-07
6.730702985e-07
6.561672575e-07
6.393717312e-07
6.226809096e-07
6.060927752e-07
5.896063594e-07
5.73222077e-07
5.569419001e-07
5.40769218e-07
5.247084722e-07
5.087646847e-07
4.929432414e-07
4.772498931e-07
4.616911614e-07
4.462746685e-07
4.310093812e-07
4.159053324e-07
4.009730701e-07
3.862230283e-07
3.716651097e-07
3.573087495e-07
3.431632767e-07
3.292386121e-07
3.155454556e-07
3.020951959e-07
2.888992718e-07
2.759683197e-07
2.633115043e-07
2.50936446e-07
2.38849621e-07
2.270571296e-07
2.155655077e-07
2.04381844e-07
1.93513558e-07
1.829674763e-07
1.727489181e-07
1.628611903e-07
1.533055546e-07
1.440820254e-07
1.35190255e-07
1.266304093e-07
1.184034465e-07
1.105107642e-07
1.029533208e-07
9.573063915e-08
8.88402286e-08
8.227747577e-08
7.603627781e-08
7.010994714e-08
6.44921443e-08
5.917734162e-08
5.416073298e-08
4.943768049e-08
4.500273469e-08
4.084904497e-08
3.696791441e-08
3.334910275e-08
2.998144697e-08
2.685369496e-08
2.395524043e-08
2.127639907e-08
1.880834764e-08
1.654264427e-08
1.447059595e-08
1.25827603e-08
1.086870616e-08
9.317194784e-09
7.916597975e-09
6.655408257e-09
5.522838255e-09
4.50910775e-09
3.605450632e-09
2.80393478e-09
2.097103102e-09
1.477650945e-09
9.381011916e-10
4.707923511e-10
6.794400777e-11
-2.781066339e-10
-5.745753092e-10
-8.280900352e-10
-1.044448602e-09
-1.228677048e-09
-1.385083899e-09
-1.517391527e-09
-1.628940489e-09
-1.722782068e-09
-1.801747906e-09
-1.868473546e-09
-1.925399997e-09
-1.974649986e-09
-2.018012594e-09
-2.05694414e-09
-2.092555173e-09
-2.125651094e-09
-2.156746606e-09
-2.186302434e-09
-2.214560709e-09
-2.241783145e-09
-2.268167595e-09
-2.293915181e-09
-2.319221922e-09
-2.344249558e-09
-2.369104931e-09
-2.393924913e-09
-2.41871871e-09
-2.443568159e-09
-2.46839978e-09
-2.493257302e-09
-2.518088623e-09
-2.542915936e-09
-2.567657105e-09
-2.592435583e-09
-2.617120953e-09
-2.641852229e-09
-2.666508118e-09
-2.691268167e-09
-2.715942888e-09
-2.740745911e-09
-2.765420271e-09
-2.790263905e-09
-2.81495044e-09
-2.83982601e-09
-2.86450296e-09
-2.889400074e-09
-2.914036929e-09
-2.938973097e-09
-2.963577912e-09
-2.988571446e-09
-3.013130389e-09
-3.038187712e-09
-3.062692993e-09
-3.087854106e-09
-3.112273983e-09
-3.137545823e-09
-3.161871141e-09
-3.187288408e-09
-3.211466047e-09
-3.237054642e-09
-3.261047073e-09
-3.286857494e-09
-3.310629303e-09
-3.336713828e-09
-3.360181588e-09
-3.386637973e-09
-3.40971843e-09
-3.436633295e-09
-3.459204111e-09
-3.486705533e-09
-3.508627291e-09
-3.536881317e-09
-3.557967709e-09
-3.587167363e-09
-3.60718059e-09
-3.637617112e-09
-3.656253922e-09
-3.688245233e-09
-3.705098418e-09
-3.739083581e-09
-3.753696104e-09
-3.790198305e-09
-3.801933637e-09
-3.841629905e-09
-3.849724135e-09
-3.8934457e-09
-3.896955705e-09
-3.945739674e-09
-3.943499982e-09
-3.998572733e-09
-3.989202404e-09
-4.051993925e-09
-4.033902532e-09
-4.106057353e-09
-4.077492136e-09
-4.160671096e-09
-4.119972374e-09
-4.215592914e-09
-4.161589132e-09
-4.270181176e-09
-4.203178091e-09
-4.32305758e-09
-4.246793639e-09
-4.371445124e-09
-4.297194032e-09
-4.409778524e-09
-4.364993918e-09
-4.426863424e-09
-4.473939221e-09
-4.399055082e-09
-4.678539725e-09
-4.269962466e-09
-5.107124702e-09
-3.868336867e-09
-6.061746362e-09
-2.411415008e-09
-8.128689893e-09
7.80699956e-09
-4.876709167e-09
-4.876709167e-09
-0.1252930394
0.1252930394
0.0249358717
0.008358021209
0.004277998421
0.002661521115
0.001833737739
0.001346354653
0.001033886597
0.0008217059651
0.000671389036
0.0005612520814
0.0004782344113
0.0004140874046
0.0003634128728
0.0003225781499
0.0002890817086
0.0002611660027
0.0002375733103
0.0002173877956
0.0001999312606
0.00018469318
0.0001712830667
0.0001593976126
0.0001487977412
0.0001392923844
0.0001307268723
0.0001229745196
0.0001159304497
0.0001095070035
0.0001036302793
9.823749336e-05
9.327493963e-05
8.869639329e-05
8.446184786e-05
8.05365046e-05
7.688995627e-05
7.349552157e-05
7.032969814e-05
6.737170962e-05
6.460312794e-05
6.200755657e-05
5.957036353e-05
5.727845494e-05
5.51200823e-05
5.308467772e-05
5.116271253e-05
4.93455754e-05
4.762546711e-05
4.599530919e-05
4.444866454e-05
4.297966816e-05
4.158296653e-05
4.025366449e-05
3.89872785e-05
3.777969543e-05
3.662713619e-05
3.552612347e-05
3.447345307e-05
3.346616857e-05
3.25015385e-05
3.157703616e-05
3.069032141e-05
2.983922449e-05
2.902173123e-05
2.823597006e-05
2.748020008e-05
2.675280031e-05
2.605226002e-05
2.537716993e-05
2.472621427e-05
2.409816344e-05
2.349186751e-05
2.290625011e-05
2.234030297e-05
2.179308094e-05
2.126369728e-05
2.075131953e-05
2.025516562e-05
1.977450029e-05
1.930863181e-05
1.885690904e-05
1.841871856e-05
1.799348215e-05
1.758065443e-05
1.717972065e-05
1.67901947e-05
1.641161718e-05
1.604355368e-05
1.568559323e-05
1.533734667e-05
1.499844543e-05
1.466854008e-05
1.434729923e-05
1.403440836e-05
1.372956882e-05
1.343249681e-05
1.314292249e-05
1.286058919e-05
1.258525256e-05
1.231667985e-05
1.205464921e-05
1.179894912e-05
1.154937769e-05
1.130574217e-05
1.106785842e-05
1.083555035e-05
1.06086496e-05
1.038699497e-05
1.017043207e-05
9.958812984e-06
9.751995852e-06
9.549844601e-06
9.352228554e-06
9.159022244e-06
8.970105022e-06
8.785360941e-06
8.604678369e-06
8.427949892e-06
8.255071994e-06
8.08594492e-06
7.920472491e-06
7.758561937e-06
7.600123662e-06
7.445071179e-06
7.293320891e-06
7.144791981e-06
6.999406333e-06
6.857088294e-06
6.717764696e-06
6.581364657e-06
6.447819511e-06
6.317062681e-06
6.189029609e-06
6.063657678e-06
5.940886131e-06
5.820656015e-06
5.70291007e-06
5.587592682e-06
5.474649754e-06
5.364028719e-06
5.255678424e-06
5.149549184e-06
5.045592659e-06
4.94376177e-06
4.84401071e-06
4.746294798e-06
4.650570456e-06
4.556795288e-06
4.464927982e-06
4.374928323e-06
4.286757131e-06
4.200376126e-06
4.115747961e-06
4.032836187e-06
3.951605315e-06
3.872020816e-06
3.79404919e-06
3.717657759e-06
3.64281464e-06
3.569488718e-06
3.49764953e-06
3.427267373e-06
3.358313329e-06
3.290759177e-06
3.224577153e-06
3.15973979e-06
3.096219661e-06
3.033989283e-06
2.973021101e-06
2.913287507e-06
2.854760621e-06
2.797412112e-06
2.741212843e-06
2.686132561e-06
2.632139925e-06
2.57920253e-06
2.527287075e-06
2.476359477e-06
2.426384728e-06
2.377326799e-06
2.329148447e-06
2.281811343e-06
2.235276463e-06
2.189504495e-06
2.144456311e-06
2.100093177e-06
2.056376663e-06
2.013268568e-06
1.970731052e-06
1.928727004e-06
1.887220637e-06
1.846178094e-06
1.805567778e-06
1.765360298e-06
1.725528203e-06
1.686045704e-06
1.646888806e-06
1.608035732e-06
1.569467529e-06
1.531168593e-06
1.49312653e-06
1.455331743e-06
1.41777686e-06
1.38045624e-06
1.343366144e-06
1.306505259e-06
1.269875316e-06
1.233481452e-06
1.197331849e-06
1.161436873e-06
1.125808214e-06
1.090458318e-06
1.055400623e-06
1.020650271e-06
9.862248851e-07
9.521448691e-07
9.184328614e-07
8.851124774e-07
8.522069244e-07
8.197383584e-07
7.877279525e-07
7.561968481e-07
7.251673385e-07
6.946634181e-07
6.647103216e-07
6.353331615e-07
6.065551236e-07
5.783962132e-07
5.508730758e-07
5.240000525e-07
4.977908277e-07
4.722598739e-07
4.474228336e-07
4.232956845e-07
3.998928818e-07
3.772255359e-07
3.553002498e-07
3.341194709e-07
3.13683053e-07
2.939902176e-07
2.750412819e-07
2.568381096e-07
2.393832601e-07
2.226780068e-07
2.067204365e-07
1.915041889e-07
1.77018478e-07
1.632494265e-07
1.501821583e-07
1.378025133e-07
1.260980511e-07
1.150577361e-07
1.046705482e-07
9.492365453e-08
8.580097567e-08
7.728261971e-08
6.934543279e-08
6.196451228e-08
5.511490069e-08
4.877305371e-08
4.291749185e-08
3.752836092e-08
3.258652616e-08
2.807221444e-08
2.396398342e-08
2.023834233e-08
1.687016885e-08
1.38336223e-08
1.110338462e-08
8.655709403e-09
6.469060828e-09
4.524089299e-09
2.803210138e-09
1.289784315e-09
-3.260403895e-11
-1.18057807e-09
-2.171222968e-09
-3.021704126e-09
-3.748822628e-09
-4.368391647e-09
-4.894806842e-09
-5.340677494e-09
-5.716960274e-09
-6.032980743e-09
-6.296914075e-09
-6.51604484e-09
-6.697038804e-09
-6.846078968e-09
-6.968967293e-09
-7.070884346e-09
-7.156437657e-09
-7.229478483e-09
-7.293092571e-09
-7.349612628e-09
-7.400739528e-09
-7.447646877e-09
-7.491182738e-09
-7.531970599e-09
-7.570540589e-09
-7.607315036e-09
-7.642772186e-09
-7.677279648e-09
-7.711223118e-09
-7.744814961e-09
-7.778339184e-09
-7.811796797e-09
-7.845337683e-09
-7.878883575e-09
-7.912463024e-09
-7.945944204e-09
-7.979425002e-09
-8.012742655e-09
-8.046099988e-09
-8.079264603e-09
-8.112542914e-09
-8.145648765e-09
-8.178961132e-09
-8.212071637e-09
-8.245461784e-09
-8.278614597e-09
-8.312088885e-09
-8.345232305e-09
-8.37876558e-09
-8.411860888e-09
-8.445446939e-09
-8.478453762e-09
-8.512111438e-09
-8.545027605e-09
-8.578800763e-09
-8.611609096e-09
-8.645528003e-09
-8.678205135e-09
-8.712307713e-09
-8.744823009e-09
-8.779144223e-09
-8.811428371e-09
-8.846042653e-09
-8.878036264e-09
-8.913018309e-09
-8.944598734e-09
-8.98003811e-09
-9.011117542e-09
-9.047154585e-09
-9.077572546e-09
-9.11437398e-09
-9.143950708e-09
-9.181739298e-09
-9.210235236e-09
-9.249259653e-09
-9.27635822e-09
-9.31697617e-09
-9.342262505e-09
-9.3849203e-09
-9.407895545e-09
-9.45317378e-09
-9.473182547e-09
-9.521786659e-09
-9.537999914e-09
-9.590835617e-09
-9.602221337e-09
-9.660441859e-09
-9.665663097e-09
-9.730715301e-09
-9.728148666e-09
-9.801790496e-09
-9.789404079e-09
-9.873853404e-09
-9.849135467e-09
-9.947040231e-09
-9.907040533e-09
-1.002147722e-08
-9.96278874e-09
-1.009723439e-08
-1.00161042e-08
-1.017416131e-08
-1.006698666e-08
-1.025170476e-08
-1.011593666e-08
-1.032851853e-08
-1.016471049e-08
-1.040170471e-08
-1.021767889e-08
-1.046534178e-08
-1.028494229e-08
-1.050772211e-08
-1.038900374e-08
-1.050527503e-08