# vtk DataFile Version 2.0
FlowField
ASCII
DATASET STRUCTURED_GRID
DIMENSIONS 400 1 200
POINTS 80000 float
0 0 0
0.08 0 0
0.16 0 0
0.24 0 0
0.32 0 0
0.4 0 0
0.48 0 0
0.56 0 0
0.64 0 0
0.72 0 0
0.8 0 0
0.88 0 0
0.96 0 0
1.04 0 0
1.12 0 0
1.2 0 0
1.28 0 0
1.36 0 0
1.44 0 0
1.52 0 0
1.6 0 0
1.68 0 0
1.76 0 0
1.84 0 0
1.92 0 0
2 0 0
2.08 0 0
2.16 0 0
2.24 0 0
2.32 0 0
2.4 0 0
2.48 0 0
2.56 0 0
2.64 0 0
2.72 0 0
2.8 0 0
2.88 0 0
2.96 0 0
3.04 0 0
3.12 0 0
3.2 0 0
3.28 0 0
3.36 0 0
3.44 0 0
3.52 0 0
3.6 0 0
3.68 0 0
3.76 0 0
3.84 0 0
3.92 0 0
4 0 0
4.08 0 0
4.16 0 0
4.24 0 0
4.32 0 0
4.4 0 0
4.48 0 0
4.56 0 0
4.64 0 0
4.72 0 0
4.8 0 0
4.88 0 0
4.96 0 0
5.04 0 0
5.12 0 0
5.2 0 0
5.28 0 0
5.36 0 0
5.44 0 0
5.52 0 0
5.6 0 0
5.68 0 0
5.76 0 0
5.84 0 0
5.92 0 0
6 0 0
6.08 0 0
6.16 0 0
6.24 0 0
6.32 0 0
6.4 0 0
6.48 0 0
6.56 0 0
6.64 0 0
6.72 0 0
6.8 0 0
6.88 0 0
6.96 0 0
7.04 0 0
7.12 0 0
7.2 0 0
7.28 0 0
7.36 0 0
7.44 0 0
7.52 0 0
7.6 0 0
7.68 0 0
7.76 0 0
7.84 0 0
7.92 0 0
8 0 0
8.08 0 0
8.16 0 0
8.24 0 0
8.32 0 0
8.4 0 0
8.48 0 0
8.56 0 0
8.64 0 0
8.72 0 0
8.8 0 0
8.88 0 0
8.96 0 0
9.04 0 0
9.12 0 0
9.2 0 0
9.28 0 0
9.36 0 0
9.44 0 0
9.52 0 0
9.6 0 0
9.68 0 0
9.76 0 0
9.84 0 0
9.92 0 0
10 0 0
10.08 0 0
10.16 0 0
10.24 0 0
10.32 0 0
10.4 0 0
10.48 0 0
10.56 0 0
10.64 0 0
10.72 0 0
10.8 0 0
10.88 0 0
10.96 0 0
11.04 0 0
11.12 0 0
11.2 0 0
11.28 0 0
11.36 0 0
11.44 0 0
11.52 0 0
11.6 0 0
11.68 0 0
11.76 0 0
11.84 0 0
11.92 0 0
12 0 0
12.08 0 0
12.16 0 0
12.24 0 0
12.32 0 0
12.4 0 0
12.48 0 0
12.56 0 0
12.64 0 0
12.72 0 0
12.8 0 0
12.88 0 0
12.96 0 0
13.04 0 0
13.12 0 0
13.2 0 0
13.28 0 0
13.36 0 0
13.44 0 0
13.52 0 0
13.6 0 0
13.68 0 0
13.76 0 0
13.84 0 0
13.92 0 0
14 0 0
14.08 0 0
14.16 0 0
14.24 0 0
14.32 0 0
14.4 0 0
14.48 0 0
14.56 0 0
14.64 0 0
14.72 0 0
14.8 0 0
14.88 0 0
14.96 0 0
15.04 0 0
15.12 0 0
15.2 0 0
15.28 0 0
15.36 0 0
15.44 0 0
15.52 0 0
15.6 0 0
15.68 0 0
15.76 0 0
15.84 0 0
15.92 0 0
16 0 0
16.08 0 0
16.16 0 0
16.24 0 0
16.32 0 0
16.4 0 0
16.48 0 0
16.56 0 0
16.64 0 0
16.72 0 0
16.8 0 0
16.88 0 0
16.96 0 0
17.04 0 0
17.12 0 0
17.2 0 0
17.28 0 0
17.36 0 0
17.44 0 0
17.52 0 0
17.6 0 0
17.68 0 0
17.76 0 0
17.84 0 0
17.92 0 0
18 0 0
18.08 0 0
18.16 0 0
18.24 0 0
18.32 0 0
18.4 0 0
18.48 0 0
18.56 0 0
18.64 0 0
18.72 0 0
18.8 0 0
18.88 0 0
18.96 0 0
19.04 0 0
19.12 0 0
19.2 0 0
19.28 0 0
19.36 0 0
19.44 0 0
19.52 0 0
19.6 0 0
19.68 0 0
19.76 0 0
19.84 0 0
19.92 0 0
20 0 0
20.08 0 0
20.16 0 0
20.24 0 0
20.32 0 0
20.4 0 0
20.48 0 0
20.56 0 0
20.64 0 0
20.72 0 0
20.8 0 0
20.88 0 0
20.96 0 0
21.04 0 0
21.12 0 0
21.2 0 0
21.28 0 0
21.36 0 0
21.44 0 0
21.52 0 0
21.6 0 0
21.68 0 0
21.76 0 0
21.84 0 0
21.92 0 0
22 0 0
22.08 0 0
22.16 0 0
22.24 0 0
22.32 0 0
22.4 0 0
22.48 0 0
22.56 0 0
22.64 0 0
22.72 0 0
22.8 0 0
22.88 0 0
22.96 0 0
23.04 0 0
23.12 0 0
23.2 0 0
23.28 0 0
23.36 0 0
23.44 0 0
23.52 0 0
23.6 0 0
23.68 0 0
23.76 0 0
23.84 0 0
23.92 0 0
24 0 0
24.08 0 0
24.16 0 0
24.24 0 0
24.32 0 0
24.4 0 0
24.48 0 0
24.56 0 0
24.64 0 0
24.72 0 0
24.8 0 0
24.88 0 0
24.96 0 0
25.04 0 0
25.12 0 0
25.2 0 0
25.28 0 0
25.36 0 0
25.44 0 0
25.52 0 0
25.6 0 0
25.68 0 0
25.76 0 0
25.84 0 0
25.92 0 0
26 0 0
26.08 0 0
26.16 0 0
26.24 0 0
26.32 0 0
26.4 0 0
26.48 0 0
26.56 0 0
26.64 0 0
26.72 0 0
26.8 0 0
26.88 0 0
26.96 0 0
27.04 0 0
27.12 0 0
27.2 0 0
27.28 0 0
27.36 0 0
27.44 0 0
27.52 0 0
27.6 0 0
27.68 0 0
27.76 0 0
27.84 0 0
27.92 0 0
28 0 0
28.08 0 0
28.16 0 0
28.24 0 0
28.32 0 0
28.4 0 0
28.48 0 0
28.56 0 0
28.64 0 0
28.72 0 0
28.8 0 0
28.88 0 0
28.96 0 0
29.04 0 0
29.12 0 0
29.2 0 0
29.28 0 0
29.36 0 0
29.44 0 0
29.52 0 0
29.6 0 0
29.68 0 0
29.76 0 0
29.84 0 0
29.92 0 0
30 0 0
30.08 0 0
30.16 0 0
30.24 0 0
30.32 0 0
30.4 0 0
30.48 0 0
30.56 0 0
30.64 0 0
30.72 0 0
30.8 0 0
30.88 0 0
30.96 0 0
31.04 0 0
31.12 0 0
31.2 0 0
31.28 0 0
31.36 0 0
31.44 0 0
31.52 0 0
31.6 0 0
31.68 0 0
31.76 0 0
31.84 0 0
31.92 0 0
0 0.005 0
0.08 0.005 0
0.16 0.005 0
0.24 0.005 0
0.32 0.005 0
0.4 0.005 0
0.48 0.005 0
0.56 0.005 0
0.64 0.005 0
0.72 0.005 0
0.8 0.005 0
0.88 0.005 0
0.96 0.005 0
1.04 0.005 0
1.12 0.005 0
1.2 0.005 0
1.28 0.005 0
1.36 0.005 0
1.44 0.005 0
1.52 0.005 0
1.6 0.005 0
1.68 0.005 0
1.76 0.005 0
1.84 0.005 0
1.92 0.005 0
2 0.005 0
2.08 0.005 0
2.16 0.005 0
2.24 0.005 0
2.32 0.005 0
2.4 0.005 0
2.48 0.005 0
2.56 0.005 0
2.64 0.005 0
2.72 0.005 0
2.8 0.005 0
2.88 0.005 0
2.96 0.005 0
3.04 0.005 0
3.12 0.005 0
3.2 0.005 0
3.28 0.005 0
3.36 0.005 0
3.44 0.005 0
3.52 0.005 0
3.6 0.005 0
3.68 0.005 0
3.76 0.005 0
3.84 0.005 0
3.92 0.005 0
4 0.005 0
4.08 0.005 0
4.16 0.005 0
4.24 0.005 0
4.32 0.005 0
4.4 0.005 0
4.48 0.005 0
4.56 0.005 0
4.64 0.005 0
4.72 0.005 0
4.8 0.005 0
4.88 0.005 0
4.96 0.005 0
5.04 0.005 0
5.12 0.005 0
5.2 0.005 0
5.28 0.005 0
5.36 0.005 0
5.44 0.005 0
5.52 0.005 0
5.6 0.005 0
5.68 0.005 0
5.76 0.005 0
5.84 0.005 0
5.92 0.005 0
6 0.005 0
6.08 0.005 0
6.16 0.005 0
6.24 0.005 0
6.32 0.005 0
6.4 0.005 0
6.48 0.005 0
6.56 0.005 0
6.64 0.005 0
6.72 0.005 0
6.8 0.005 0
6.88 0.005 0
6.96 0.005 0
7.04 0.005 0
7.12 0.005 0
7.2 0.005 0
7.28 0.005 0
7.36 0.005 0
7.44 0.005 0
7.52 0.005 0
7.6 0.005 0
7.68 0.005 0
7.76 0.005 0
7.84 0.005 0
7.92 0.005 0
8 0.005 0
8.08 0.005 0
8.16 0.005 0
8.24 0.005 0
8.32 0.005 0
8.4 0.005 0
8.48 0.005 0
8.56 0.005 0
8.64 0.005 0
8.72 0.005 0
8.8 0.005 0
8.88 0.005 0
8.96 0.005 0
9.04 0.005 0
9.12 0.005 0
9.2 0.005 0
9.28 0.005 0
9.36 0.005 0
9.44 0.005 0
9.52 0.005 0
9.6 0.005 0
9.68 0.005 0
9.76 0.005 0
9.84 0.005 0
9.92 0.005 0
10 0.005 0
10.08 0.005 0
10.16 0.005 0
10.24 0.005 0
10.32 0.005 0
10.4 0.005 0
10.48 0.005 0
10.56 0.005 0
10.64 0.005 0
10.72 0.005 0
10.8 0.005 0
10.88 0.005 0
10.96 0.005 0
11.04 0.005 0
11.12 0.005 0
11.2 0.005 0
11.28 0.005 0
11.36 0.005 0
11.44 0.005 0
11.52 0.005 0
11.6 0.005 0
11.68 0.005 0
11.76 0.005 0
11.84 0.005 0
11.92 0.005 0
12 0.005 0
12.08 0.005 0
12.16 0.005 0
12.24 0.005 0
12.32 0.005 0
12.4 0.005 0
12.48 0.005 0
12.56 0.005 0
12.64 0.005 0
12.72 0.005 0
12.8 0.005 0
12.88 0.005 0
12.96 0.005 0
13.04 0.005 0
13.12 0.005 0
13.2 0.005 0
13.28 0.005 0
13.36 0.005 0
13.44 0.005 0
13.52 0.005 0
13.6 0.005 0
13.68 0.005 0
13.76 0.005 0
13.84 0.005 0
13.92 0.005 0
14 0.005 0
14.08 0.005 0
14.16 0.005 0
14.24 0.005 0
14.32 0.005 0
14.4 0.005 0
14.48 0.005 0
14.56 0.005 0
14.64 0.005 0
14.72 0.005 0
14.8 0.005 0
14.88 0.005 0
14.96 0.005 0
15.04 0.005 0
15.12 0.005 0
15.2 0.005 0
15.28 0.005 0
15.36 0.005 0
15.44 0.005 0
15.52 0.005 0
15.6 0.005 0
15.68 0.005 0
15.76 0.005 0
15.84 0.005 0
15.92 0.005 0
16 0.005 0
16.08 0.005 0
16.16 0.005 0
16.24 0.005 0
16.32 0.005 0
16.4 0.005 0
16.48 0.005 0
16.56 0.005 0
16.64 0.005 0
16.72 0.005 0
16.8 0.005 0
16.88 0.005 0
16.96 0.005 0
17.04 0.005 0
17.12 0.005 0
17.2 0.005 0
17.28 0.005 0
17.36 0.005 0
17.44 0.005 0
17.52 0.005 0
17.6 0.005 0
17.68 0.005 0
17.76 0.005 0
17.84 0.005 0
17.92 0.005 0
18 0.005 0
18.08 0.005 0
18.16 0.005 0
18.24 0.005 0
18.32 0.005 0
18.4 0.005 0
18.48 0.005 0
18.56 0.005 0
18.64 0.005 0
18.72 0.005 0
18.8 0.005 0
18.88 0.005 0
18.96 0.005 0
19.04 0.005 0
19.12 0.005 0
19.2 0.005 0
19.28 0.005 0
19.36 0.005 0
19.44 0.005 0
19.52 0.005 0
19.6 0.005 0
19.68 0.005 0
19.76 0.005 0
19.84 0.005 0
19.92 0.005 0
20 0.005 0
20.08 0.005 0
20.16 0.005 0
20.24 0.005 0
20.32 0.005 0
20.4 0.005 0
20.48 0.005 0
20.56 0.005 0
20.64 0.005 0
20.72 0.005 0
20.8 0.005 0
20.88 0.005 0
20.96 0.005 0
21.04 0.005 0
21.12 0.005 0
21.2 0.005 0
21.28 0.005 0
21.36 0.005 0
21.44 0.005 0
21.52 0.005 0
21.6 0.005 0
21.68 0.005 0
21.76 0.005 0
21.84 0.005 0
21.92 0.005 0
22 0.005 0
22.08 0.005 0
22.16 0.005 0
22.24 0.005 0
22.32 0.005 0
22.4 0.005 0
22.48 0.005 0
22.56 0.005 0
22.64 0.005 0
22.72 0.005 0
22.8 0.005 0
22.88 0.005 0
22.96 0.005 0
23.04 0.005 0
23.12 0.005 0
23.2 0.005 0
23.28 0.005 0
23.36 0.005 0
23.44 0.005 0
23.52 0.005 0
23.6 0.005 0
23.68 0.005 0
23.76 0.005 0
23.84 0.005 0
23.92 0.005 0
24 0.005 0
24.08 0.005 0
24.16 0.005 0
24.24 0.005 0
24.32 0.005 0
24.4 0.005 0
24.48 0.005 0
24.56 0.005 0
24.64 0.005 0
24.72 0.005 0
24.8 0.005 0
24.88 0.005 0
24.96 0.005 0
25.04 0.005 0
25.12 0.005 0
25.2 0.005 0
25.28 0.005 0
25.36 0.005 0
25.44 0.005 0
25.52 0.005 0
25.6 0.005 0
25.68 0.005 0
25.76 0.005 0
25.84 0.005 0
25.92 0.005 0
26 0.005 0
26.08 0.005 0
26.16 0.005 0
26.24 0.005 0
26.32 0.005 0
26.4 0.005 0
26.48 0.005 0
26.56 0.005 0
26.64 0.005 0
26.72 0.005 0
26.8 0.005 0
26.88 0.005 0
26.96 0.005 0
27.04 0.005 0
27.12 0.005 0
27.2 0.005 0
27.28 0.005 0
27.36 0.005 0
27.44 0.005 0
27.52 0.005 0
27.6 0.005 0
27.68 0.005 0
27.76 0.005 0
27.84 0.005 0
27.92 0.005 0
28 0.005 0
28.08 0.005 0
28.16 0.005 0
28.24 0.005 0
28.32 0.005 0
28.4 0.005 0
28.48 0.005 0
28.56 0.005 0
28.64 0.005 0
28.72 0.005 0
28.8 0.005 0
28.88 0.005 0
28.96 0.005 0
29.04 0.005 0
29.12 0.005 0
29.2 0.005 0
29.28 0.005 0
29.36 0.005 0
29.44 0.005 0
29.52 0.005 0
29.6 0.005 0
29.68 0.005 0
29.76 0.005 0
29.84 0.005 0
29.92 0.005 0
30 0.005 0
30.08 0.005 0
30.16 0.005 0
30.24 0.005 0
30.32 0.005 0
30.4 0.005 0
30.48 0.005 0
30.56 0.005 0
30.64 0.005 0
30.72 0.005 0
30.8 0.005 0
30.88 0.005 0
30.96 0.005 0
31.04 0.005 0
31.12 0.005 0
31.2 0.005 0
31.28 0.005 0
31.36 0.005 0
31.44 0.005 0
31.52 0.005 0
31.6 0.005 0
31.68 0.005 0
31.76 0.005 0
31.84 0.005 0
31.92 0.005 0
0 0.01 0
0.08 0.01 0
0.16 0.01 0
0.24 0.01 0
0.32 0.01 0
0.4 0.01 0
0.48 0.01 0
0.56 0.01 0
0.64 0.01 0
0.72 0.01 0
0.8 0.01 0
0.88 0.01 0
0.96 0.01 0
1.04 0.01 0
1.12 0.01 0
1.2 0.01 0
1.28 0.01 0
1.36 0.01 0
1.44 0.01 0
1.52 0.01 0
1.6 0.01 0
1.68 0.01 0
1.76 0.01 0
1.84 0.01 0
1.92 0.01 0
2 0.01 0
2.08 0.01 0
2.16 0.01 0
2.24 0.01 0
2.32 0.01 0
2.4 0.01 0
2.48 0.01 0
2.56 0.01 0
2.64 0.01 0
2.72 0.01 0
2.8 0.01 0
2.88 0.01 0
2.96 0.01 0
3.04 0.01 0
3.12 0.01 0
3.2 0.01 0
3.28 0.01 0
3.36 0.01 0
3.44 0.01 0
3.52 0.01 0
3.6 0.01 0
3.68 0.01 0
3.76 0.01 0
3.84 0.01 0
3.92 0.01 0
4 0.01 0
4.08 0.01 0
4.16 0.01 0
4.24 0.01 0
4.32 0.01 0
4.4 0.01 0
4.48 0.01 0
4.56 0.01 0
4.64 0.01 0
4.72 0.01 0
4.8 0.01 0
4.88 0.01 0
4.96 0.01 0
5.04 0.01 0
5.12 0.01 0
[...]
POINT_DATA 80000

SCALARS v float 1
LOOKUP_TABLE default
0
0
0
0
0
0
0
0
0
0
0
0
0
0
0
0
0
0
0
0
0
0
0
0
0
0
0
0
0
0
0
0
0
0
0
0
0
0
0
0
0
0
0
0
0
0
0
0
0
0
0
0
0
0
0
0
0
0
0
0
0
0
0
0
0
0
0
0
0
0
0
0
0
0
0
0
0
0
0
0
0
0
0
0
0
0
0
0
0
0
0
0
0
0
0
0
0
0
0
0
0
0
0
0
0
0
0
0
0
0
0
0
0
0
0
0
0
0
0
0
0
0
0
0
0
0
0
0
0
0
0
0
0
0
0
0
0
0
0
0
0
0
0
0
0
0
0
0
0
0
0
0
0
0
0
0
0
0
0
0
0
0
0
0
0
0
0
0
0
0
0
0
0
0
0
0
0
0
0
0
0
0
0
0
0
0
0
0
0
0
0
0
0
0
0
0
0
0
0
0
0
0
0
0
0
0
0
0
0
0
0
0
0
0
0
0
0
0
0
0
0
0
0
0
0
0
0
0
0
0
0
0
0
0
0
0
0
0
0
0
0
0
0
0
0
0
0
0
0
0
0
0
0
0
0
0
0
0
0
0
0
0
0
0
0
0
0
0
0
0
0
0
0
0
0
0
0
0
0
0
0
0
0
0
0
0
0
0
0
0
0
0
0
0
0
0
0
0
0
0
0
0
0
0
0
0
0
0
0
0
0
0
0
0
0
0
0
0
0
0
0
0
0
0
0
0
0
0
0
0
0
0
0
0
0
0
0
0
0
0
0
0
0
0
0
0
0
0
0
0
0
0
0
0
0
0
0
0
0
0
0
0
0
0
0
0
0
0
0
0
0
0
0
0
0
0
0
0
0
0
0
0
0
0
0
0
0
0
0
0
0
0
0
0
0
0
0
0
0
0
-0.05427108997
0.05427108997
0.003962095021
0.0009983297453
0.0004922602656
0.0003026962885
0.0002073201218
0.0001516916902
0.0001162502596
9.229386493e-05
7.538070539e-05
6.302008099e-05
5.371962607e-05
4.654116799e-05
4.087331642e-05
3.630623167e-05
3.255868099e-05
2.943368839e-05
2.679067039e-05
2.452747923e-05
2.256859534e-05
2.085723227e-05
1.93499809e-05
1.801312761e-05
1.682009102e-05
1.574961506e-05
1.478447885e-05
1.391056366e-05
1.311616906e-05
1.239150493e-05
1.172830894e-05
1.11195547e-05
1.055922604e-05
1.004214037e-05
9.563808727e-06
9.120323714e-06
8.708268828e-06
8.324644532e-06
7.966807281e-06
7.6324191e-06
7.31940543e-06
7.025919716e-06
6.750313587e-06
6.491111483e-06
6.246989158e-06
6.01675507e-06
5.799334674e-06
5.593756612e-06
5.399141022e-06
5.214689139e-06
5.039674525e-06
4.873435166e-06
4.715366705e-06
4.56491644e-06
4.421578118e-06
4.284887217e-06
4.154416924e-06
4.02977444e-06
3.910597798e-06
3.796552996e-06
3.687331419e-06
3.582647547e-06
3.482236938e-06
3.385854381e-06
3.293272235e-06
3.204278959e-06
3.118677767e-06
3.036285439e-06
2.956931166e-06
2.880455633e-06
2.8067101e-06
2.735555526e-06
2.666861896e-06
2.600507505e-06
2.536378352e-06
2.474367551e-06
2.414374837e-06
2.356306062e-06
2.300072794e-06
2.245591881e-06
2.1927851e-06
2.141578805e-06
2.091903634e-06
2.043694196e-06
1.996888797e-06
1.951429244e-06
1.907260553e-06
1.864330761e-06
1.822590767e-06
1.781994074e-06
1.742496682e-06
1.704056909e-06
1.666635247e-06
1.630194227e-06
1.594698284e-06
1.560113632e-06
1.526408196e-06
1.493551474e-06
1.461514453e-06
1.430269488e-06
1.399790281e-06
1.370051746e-06
1.341029989e-06
1.312702173e-06
1.285046527e-06
1.25804223e-06
1.231669391e-06
1.205908966e-06
1.180742766e-06
1.156153324e-06
1.132123941e-06
1.10863859e-06
1.085681893e-06
1.063239086e-06
1.041296e-06
1.019839011e-06
9.988550123e-07
9.783313978e-07
9.582560338e-07
9.386172312e-07
9.194037341e-07
9.0060466e-07
8.822095344e-07
8.642082411e-07
8.46591e-07
8.293483647e-07
8.124712141e-07
7.959507325e-07
7.797783391e-07
7.639457653e-07
7.484450145e-07
7.332683064e-07
7.184081137e-07
7.038571321e-07
6.896082726e-07
6.756546491e-07
6.61989593e-07
6.486065996e-07
6.354993765e-07
6.22661786e-07
6.100878531e-07
5.977717891e-07
5.857079473e-07
5.738908322e-07
5.623150752e-07
5.509754911e-07
5.398669722e-07
5.289845909e-07
5.183235135e-07
5.078790222e-07
4.976465391e-07
4.876215868e-07
4.777998001e-07
4.681769181e-07
4.587487468e-07
4.495112547e-07
4.404604595e-07
4.315924799e-07
4.229035339e-07
4.143899267e-07
4.060480298e-07
3.978743157e-07
3.898653214e-07
3.820176693e-07
3.743280669e-07
3.667932719e-07
3.594101199e-07
3.521755217e-07
3.45086451e-07
3.38139957e-07
3.31333151e-07
3.246631863e-07
3.181272929e-07
3.117227512e-07
3.054469201e-07
2.992971816e-07
2.932709974e-07
2.87365874e-07
2.815793632e-07
2.759090979e-07
2.703527253e-07
2.649079352e-07
2.59572505e-07
2.543442247e-07
2.492209516e-07
2.442005763e-07
2.392810219e-07
2.344602651e-07
2.297363378e-07
2.251072874e-07
2.205712067e-07
2.161262484e-07
2.117705748e-07
2.07502396e-07
2.033199487e-07
1.992215409e-07
1.952054734e-07
1.912701019e-07
1.874137939e-07
1.836349857e-07
1.799321227e-07
1.763036827e-07
1.7274817e-07
1.692641333e-07
1.658501281e-07
1.625047643e-07
1.592266737e-07
1.560144832e-07
1.528669028e-07
1.497826189e-07
1.467603672e-07
1.43798921e-07
1.408970426e-07
1.380535373e-07
1.352672582e-07
1.32537047e-07
1.298617751e-07
1.272403509e-07
1.246716876e-07
1.221547278e-07
1.196884498e-07
1.172718198e-07
1.149038601e-07
1.125835743e-07
1.103100257e-07
1.080822554e-07
1.058993628e-07
1.037604484e-07
1.016646258e-07
9.961102656e-08
9.759881915e-08
9.562714091e-08
9.369520833e-08
9.180221961e-08
8.9947378e-08
8.81299338e-08
8.634912108e-08
8.460421927e-08
8.289449943e-08
8.12192585e-08
7.957780361e-08
7.7969442e-08
7.639352401e-08
7.484940511e-08
7.333643676e-08
7.185396934e-08
7.040143247e-08
6.897819261e-08
6.75836822e-08
6.621730071e-08
6.487849607e-08
6.356671721e-08
6.228141443e-08
6.102206163e-08
5.978812601e-08
5.857910191e-08
5.739448666e-08
5.623378503e-08
5.509652422e-08
5.398222876e-08
5.289044729e-08
5.18206916e-08
5.077255358e-08
4.974558422e-08
4.873935986e-08
4.775345859e-08
4.678747768e-08
4.58409992e-08
4.491365758e-08
4.400504453e-08
4.311478692e-08
4.2242536e-08
4.138789861e-08
4.05505237e-08
3.973008439e-08
3.892622447e-08
3.813860536e-08
3.736691389e-08
3.661080094e-08
3.587000133e-08
3.514415843e-08
3.443299198e-08
3.373619712e-08
3.305349993e-08
3.238459444e-08
3.172921966e-08
3.108709737e-08
3.045795406e-08
2.984154015e-08
2.923758442e-08
2.864583836e-08
2.806606e-08
2.749801129e-08
2.694145536e-08
2.639614907e-08
2.586186797e-08
2.533840163e-08
2.482552039e-08
2.432300925e-08
2.383066992e-08
2.334828431e-08
2.287565611e-08
2.241260102e-08
2.195890257e-08
2.151438441e-08
2.107886003e-08
2.065213956e-08
2.023406294e-08
1.98244356e-08
1.942310686e-08
1.902988959e-08
1.864463384e-08
1.826716946e-08
1.789735035e-08
1.753500187e-08
1.717999967e-08
1.683216494e-08
1.649138866e-08
1.615749385e-08
1.583036349e-08
1.550984259e-08
1.519583208e-08
1.488814431e-08
1.458672131e-08
1.42913476e-08
1.400200721e-08
1.371847277e-08
1.344072518e-08
1.316854581e-08
1.290193769e-08
1.264065899e-08
1.23847468e-08
1.213391365e-08
1.188828197e-08
1.164747619e-08
1.141171172e-08
1.118053033e-08
1.095424593e-08
1.073229291e-08
1.051511089e-08
1.03020126e-08
1.009358738e-08
9.888965379e-09
9.688972201e-09
9.492461789e-09
9.300574877e-09
9.11184144e-09
8.927774274e-09
8.746440617e-09
8.569936033e-09
8.395663884e-09
8.226478196e-09
8.058903771e-09
7.89682124e-09
7.735588507e-09
7.580441754e-09
7.425170417e-09
7.27681621e-09
7.127102117e-09
6.9854754e-09
6.840848653e-09
6.705965473e-09
6.565891446e-09
6.437853499e-09
6.301740185e-09
6.18076061e-09
6.047843353e-09
5.934325143e-09
5.803702037e-09
5.698283239e-09
5.568746313e-09
5.472366441e-09
5.34240582e-09
5.256424306e-09
5.124018836e-09
5.050367071e-09
4.912808274e-09
4.854200107e-09
4.707822787e-09
4.667986982e-09
4.507755709e-09
4.49173598e-09
4.310589957e-09
4.325002214e-09
4.112856442e-09
4.165851718e-09
3.907705979e-09
4.007883857e-09
3.680329674e-09
3.832590361e-09
3.396618077e-09
3.589897358e-09
2.976832923e-09
3.151568192e-09
2.244077794e-09
2.221603143e-09
9.18012633e-10
3.557858313e-10
1.648909857e-14
1.648909857e-14
-0.0952158619
0.0952158619
0.01297562026
0.003854618263
0.001934307931
0.001196199257
0.0008217410482
0.0006023144564
0.0004620669962
0.0003670409364
0.0002998306251
0.0002506449793
0.0002136016796
0.0001849938774
0.0001624004718
0.000144195121
0.0001292596989
0.0001168097392
0.000106284548
9.72762469e-05
8.948301756e-05
8.267777692e-05
7.668688402e-05
7.137547504e-05
6.663723591e-05
6.238718116e-05
5.855649163e-05
5.508877664e-05
5.193733251e-05
4.906310474e-05
4.643315347e-05
4.401948224e-05
4.179813269e-05
3.974847627e-05
3.785265335e-05
3.609512432e-05
3.446230693e-05
3.294228028e-05
3.152454147e-05
3.019980398e-05
2.895982945e-05
2.779728661e-05
2.670563219e-05
2.567901004e-05
2.471216503e-05
2.38003697e-05
2.293936101e-05
2.212528601e-05
2.13546548e-05
2.062429977e-05
1.993134013e-05
1.927315092e-05
1.864733599e-05
1.805170419e-05
1.748424851e-05
1.694312769e-05
1.642664991e-05
1.593325834e-05
1.546151844e-05
1.501010649e-05
1.457779949e-05
1.416346603e-05
1.376605827e-05
1.338460456e-05
1.301820297e-05
1.266601536e-05
1.232726208e-05
1.20012172e-05
1.168720413e-05
1.138459168e-05
1.109279058e-05
1.08112501e-05
1.05394552e-05
1.027692378e-05
1.002320425e-05
9.777873238e-06
9.54053358e-06
9.3108124e-06
9.08835938e-06
8.872845193e-06
8.66396e-06
8.461412117e-06
8.2649268e-06
8.074245027e-06
7.889122516e-06
7.709328697e-06
7.534645822e-06
7.364868131e-06
7.199801023e-06
7.039260427e-06
6.883072051e-06
6.731070793e-06
6.583100158e-06
6.439011714e-06
6.298664598e-06
6.161925057e-06
6.028665971e-06
5.898766538e-06
5.772111779e-06
5.648592273e-06
5.528103807e-06
5.410547062e-06
5.295827286e-06
5.183854118e-06
5.074541244e-06
4.967806212e-06
4.863570236e-06
4.761757908e-06
4.662297092e-06
4.565118666e-06
4.470156452e-06
4.377346923e-06
4.286629213e-06
4.197944829e-06
4.11123762e-06
4.026453622e-06
3.943540917e-06
3.862449593e-06
3.783131557e-06
3.705540512e-06
3.629631827e-06
3.555362471e-06
3.48269091e-06
3.411577076e-06
3.341982237e-06
3.273869006e-06
3.207201215e-06
3.141943883e-06
3.078063162e-06
3.015526274e-06
2.95430147e-06
2.894358002e-06
2.835666027e-06
2.778196627e-06
2.721921743e-06
2.666814116e-06
2.612847311e-06
2.559995606e-06
2.508234048e-06
2.457538341e-06
2.407884887e-06
2.359250699e-06
2.311613443e-06
2.264951361e-06
2.219243265e-06
2.174468507e-06
2.13060701e-06
2.08763915e-06
2.045545843e-06
2.00430846e-06
1.963908849e-06
1.924329269e-06
1.885552451e-06
1.847561522e-06
1.810339985e-06
1.773871777e-06
1.738141201e-06
1.703132899e-06
1.668831895e-06
1.63522355e-06
1.602293531e-06
1.570027895e-06
1.538412934e-06
1.507435322e-06
1.477081948e-06
1.44734006e-06
1.418197156e-06
1.38964101e-06
1.361659654e-06
1.334241399e-06
1.30737479e-06
1.281048639e-06
1.255251944e-06
1.229974012e-06
1.205204331e-06
1.180932615e-06
1.157148803e-06
1.133843031e-06
1.111005669e-06
1.088627256e-06
1.066698542e-06
1.045210474e-06
1.024154174e-06
1.003520977e-06
9.833023465e-07
9.634899556e-07
9.44075647e-07
9.250514205e-07
9.064094277e-07
8.881420201e-07
8.702416681e-07
8.527010213e-07
8.355128374e-07
8.186700627e-07
8.021657691e-07
7.859931665e-07
7.701456222e-07
7.546166014e-07
7.393997282e-07
7.24488746e-07
7.098775281e-07
6.95560069e-07
6.815304841e-07
6.677830063e-07
6.543119722e-07
6.411118605e-07
6.281772288e-07
6.155027642e-07
6.030832557e-07
5.909135908e-07
5.789887803e-07
5.673039012e-07
5.558541592e-07
5.446348102e-07
5.336412739e-07
5.228690126e-07
5.123135904e-07
5.019706509e-07
4.918359553e-07
4.819053185e-07
4.721746532e-07
4.626399512e-07
4.532972611e-07
4.441427511e-07
4.351726551e-07
4.2638325e-07
4.177709176e-07
4.093321245e-07
4.010633713e-07
3.929612582e-07
3.850224242e-07
3.772436057e-07
3.696215668e-07
3.621531962e-07
3.548353828e-07
3.476651116e-07
3.4063941e-07
3.33755382e-07
3.270101922e-07
3.204010351e-07
3.139251787e-07
3.075799433e-07
3.013627133e-07
2.952709085e-07
2.893020101e-07
2.834535468e-07
2.777230981e-07
2.721082782e-07
2.666067787e-07
2.612163226e-07
2.559346514e-07
2.507596024e-07
2.456890104e-07
2.407207948e-07
2.358528611e-07
2.310832305e-07
2.264099003e-07
2.218309436e-07
2.173444491e-07
2.129485551e-07
2.08641447e-07
2.044213276e-07
2.002864502e-07
1.962350956e-07
1.922655896e-07
1.883762627e-07
1.845655169e-07
1.808317639e-07
1.771734481e-07
1.735890592e-07
1.700770904e-07
1.66636096e-07
1.632646452e-07
1.599613159e-07
1.567247579e-07
1.535536138e-07
1.504465708e-07
1.474023363e-07
1.444196247e-07
1.414972266e-07
1.386338811e-07
1.358284494e-07
1.330797219e-07
1.303865685e-07
1.27747862e-07
1.251625229e-07
1.226294514e-07
1.201476145e-07
1.177159525e-07
1.15333471e-07
1.129991634e-07
1.107120694e-07
1.084712294e-07
1.062757132e-07
1.04124598e-07
1.020170066e-07
9.99520232e-08
9.792882614e-08
9.594655109e-08
9.400437521e-08
9.210147429e-08
9.023708841e-08
8.841041427e-08
8.662069206e-08
8.486717681e-08
8.314914143e-08
8.146586339e-08
7.981664813e-08
7.820078415e-08
7.66176412e-08
7.506650364e-08
7.354677648e-08
7.205778307e-08
7.059893757e-08
6.916959241e-08
6.776919671e-08
6.639710653e-08
6.505282388e-08
6.373569781e-08
6.244528302e-08
6.118090823e-08
5.994221791e-08
5.872849865e-08
5.753944647e-08
5.637434545e-08
5.523294607e-08
5.411450893e-08
5.301887884e-08
5.194522045e-08
5.089352556e-08
4.986285457e-08
4.885335169e-08
4.786393002e-08
4.689495255e-08
4.594509445e-08
4.501503513e-08
4.410314961e-08
4.321046797e-08
4.233498743e-08
4.14782464e-08
4.063767496e-08
3.981548108e-08
3.900835631e-08
3.821938255e-08
3.744428141e-08
3.668731103e-08
3.594284635e-08
3.5216694e-08
3.45015055e-08
3.380512756e-08
3.311782739e-08
3.24502648e-08
3.178946008e-08
3.11498503e-08
3.051414466e-08
2.99018067e-08
2.928969305e-08
2.8704068e-08
2.811397833e-08
2.755474872e-08
2.698491204e-08
2.645205317e-08
2.590045121e-08
2.539428551e-08
2.485860487e-08
2.43799274e-08
2.385734377e-08
2.340760195e-08
2.289460108e-08
2.247611091e-08
2.196825845e-08
2.158444969e-08
2.107601539e-08
2.073195328e-08
2.021535784e-08
1.991820555e-08
1.938333138e-08
1.914311052e-08
1.857628105e-08
1.840685403e-08
1.778920957e-08
1.770930462e-08
1.701450534e-08
1.704868445e-08
1.623892374e-08
1.641728941e-08
1.543631002e-08
1.579032288e-08
1.454992452e-08
1.509657594e-08
1.344895034e-08
1.414370046e-08
1.182658345e-08
1.243990916e-08
9.000256748e-09
8.85119456e-09
3.871906226e-09
1.683196078e-09
7.03564881e-14
7.03564881e-14
-0.1252930377
0.1252930377
0.02493586976
0.008358019126
0.004277996266
0.002661518917
0.00183373551
0.001346352401
0.001033884326
0.0008217036792
0.000671386737
0.0005612497711
0.000478232091
0.0004140850753
0.0003634105354
0.0003225758052
0.0002890793572
0.0002611636451
0.0002375709469
0.0002173854269
0.0001999288868
0.0001846908016
0.0001712806838
0.0001593952254
0.0001487953499
0.0001392899892
0.0001307244734
0.000122972117
0.0001159280437
0.0001095045941
0.0001036278666
9.823507744e-05
9.327252055e-05
8.869397115e-05
8.445942271e-05
8.053407648e-05
7.688752519e-05
7.349308758e-05
7.032726129e-05
6.73692699e-05
6.460068534e-05
6.200511112e-05
5.956791522e-05
5.727600374e-05
5.511762819e-05
5.308222068e-05
5.116025252e-05
4.934311239e-05
4.762300102e-05
4.599283997e-05
4.444619212e-05
4.297719245e-05
4.158048744e-05
4.025118193e-05
3.898479234e-05
3.777720557e-05
3.662464249e-05
3.552362577e-05
3.447095122e-05
3.346366239e-05
3.249902783e-05
3.157452078e-05
3.068780115e-05
2.983669907e-05
2.901920042e-05
2.823343362e-05
2.747765773e-05
2.675025176e-05
2.604970497e-05
2.537460807e-05
2.472364523e-05
2.40955869e-05
2.348928307e-05
2.290365741e-05
2.233770159e-05
2.179047046e-05
2.126107727e-05
2.074868954e-05
2.025252517e-05
1.977184891e-05
1.930596899e-05
1.885423428e-05
1.841603135e-05
1.799078196e-05
1.757794074e-05
1.71769929e-05
1.678745235e-05
1.640885968e-05
1.604078049e-05
1.568280379e-05
1.533454048e-05
1.499562192e-05
1.466569878e-05
1.434443961e-05
1.403152996e-05
1.372667117e-05
1.342957948e-05
1.313998512e-05
1.285763141e-05
1.258227404e-05
1.231368031e-05
1.205162846e-05
1.179590697e-05
1.154631406e-05
1.130265701e-05
1.106475175e-05
1.08324223e-05
1.060550034e-05
1.038382477e-05
1.016724128e-05
9.955602054e-06
9.748765332e-06
9.546595119e-06
9.348960857e-06
9.15573715e-06
8.966803495e-06
8.782044018e-06
8.601347207e-06
8.424605721e-06
8.251716171e-06
8.082578887e-06
7.917097822e-06
7.755180241e-06
7.596736657e-06
7.441680647e-06
7.289928677e-06
7.141400034e-06
6.996016594e-06
6.853702811e-06
6.714385494e-06
6.577993791e-06
6.444459013e-06
6.313714588e-06
6.185695956e-06
6.060340442e-06
5.937587243e-06
5.817377326e-06
5.699653297e-06
5.584359452e-06
5.471441559e-06
5.360846946e-06
5.252524347e-06
5.146423883e-06
5.042497007e-06
4.940696413e-06
4.840976076e-06
4.743291134e-06
4.64759786e-06
4.553853629e-06
4.462016901e-06
4.372047161e-06
4.283904841e-06
4.197551389e-06
4.112949167e-06
4.030061417e-06
3.948852269e-06
3.869286709e-06
3.791330473e-06
3.714950187e-06
3.640113145e-06
3.56678748e-06
3.494941981e-06
3.424546148e-06
3.355570207e-06
3.287984992e-06
3.221762016e-06
3.156873412e-06
3.093291907e-06
3.030990843e-06
2.969944133e-06
2.91012625e-06
2.851512217e-06
2.794077583e-06
2.737798437e-06
2.682651363e-06
2.62861343e-06
2.575662219e-06
2.523775741e-06
2.472932512e-06
2.42311148e-06
2.374292009e-06
2.326453915e-06
2.279577425e-06
2.233643174e-06
2.188632205e-06
2.14452595e-06
2.101306197e-06
2.05895513e-06
2.017455298e-06
1.976789599e-06
1.936941294e-06
1.897893952e-06
1.859631515e-06
1.822138211e-06
1.785398624e-06
1.749397622e-06
1.714120405e-06
1.679552449e-06
1.645679532e-06
1.612487719e-06
1.579963369e-06
1.548093076e-06
1.516863742e-06
1.486262523e-06
1.456276825e-06
1.426894318e-06
1.39810289e-06
1.369890723e-06
1.342246183e-06
1.315157901e-06
1.288614734e-06
1.262605764e-06
1.237120249e-06
1.21214772e-06
1.18767788e-06
1.163700667e-06
1.140206181e-06
1.117184771e-06
1.094626938e-06
1.072523376e-06
1.050864985e-06
1.029642826e-06
1.00884815e-06
9.884723919e-07
9.685071282e-07
9.489441431e-07
9.297753388e-07
9.109928277e-07
8.92588853e-07
8.745558025e-07
8.568862347e-07
8.39572856e-07
8.226085079e-07
8.059861841e-07
7.896990166e-07
7.737402659e-07
7.581033505e-07
7.427817764e-07
7.277692435e-07
7.130595181e-07
6.98646508e-07
6.84524247e-07
6.706869185e-07
6.571287676e-07
6.438441996e-07
6.308276891e-07
6.180738756e-07
6.05577443e-07
5.933332247e-07
5.813361698e-07
5.695812691e-07
5.580636657e-07
5.467785921e-07
5.357213644e-07
5.248873738e-07
5.14272161e-07
5.038712913e-07
4.936804728e-07
4.836954527e-07
4.739120972e-07
4.643263536e-07
4.549342303e-07
4.457318227e-07
4.36715329e-07
4.278809747e-07
4.192251204e-07
4.107441331e-07
4.024345097e-07
3.94292795e-07
3.863156031e-07
3.784996188e-07
3.708415871e-07
3.633383162e-07
3.559867032e-07
3.487836897e-07
3.417262468e-07
3.348114636e-07
3.280364652e-07
3.213984314e-07
3.148945986e-07
3.085222354e-07
3.022787155e-07
2.961614253e-07
2.901678355e-07
2.842954212e-07
2.785417478e-07
2.729044332e-07
2.673811108e-07
2.619694828e-07
2.566673008e-07
2.514723561e-07
2.463824635e-07
2.413955335e-07
2.36509463e-07
2.317222085e-07
2.27031805e-07
2.224362577e-07
2.179336838e-07
2.135221872e-07
2.091999395e-07
2.049651183e-07
2.008159888e-07
1.967507774e-07
1.927678264e-07
1.888654545e-07
1.850420419e-07
1.812959724e-07
1.77625719e-07
1.740297004e-07
1.705064719e-07
1.67054512e-07
1.636724283e-07
1.603587499e-07
1.571121737e-07
1.539312326e-07
1.508147288e-07
1.477612184e-07
1.4476961e-07
1.418384108e-07
1.389666788e-07
1.361529022e-07
1.33396252e-07
1.30695197e-07
1.280490302e-07
1.254561734e-07
1.229160721e-07
1.204270627e-07
1.179888106e-07
1.155994687e-07
1.132589965e-07
1.109653062e-07
1.087187279e-07
1.065168498e-07
1.043604317e-07
1.022466217e-07
1.001768164e-07
9.814750278e-08
9.616089008e-08
9.421261535e-08
9.230595229e-08
9.043538319e-08
8.860557087e-08
8.680946187e-08
8.505358129e-08
8.332876139e-08
8.164406048e-08
7.998746029e-08
7.837133181e-08
7.677988748e-08
7.522995934e-08
7.370066058e-08
7.221476887e-08
7.07445481e-08
6.932078777e-08
6.790650644e-08
6.654326798e-08
6.518167591e-08
6.387772871e-08
6.256531474e-08
6.131989081e-08
6.005283159e-08
5.886576088e-08
5.763968192e-08
5.651157542e-08
5.532139761e-08
5.425391172e-08
5.309352468e-08
5.208965788e-08
5.095153722e-08
5.001611757e-08
4.889069523e-08
4.803106983e-08
4.690601356e-08
4.613284856e-08
4.499193678e-08
4.432048724e-08
4.314205252e-08
4.259368275e-08
4.134839551e-08
4.095258922e-08
3.960015131e-08
3.939682218e-08
3.788082408e-08
3.792222642e-08
3.616168796e-08
3.651177881e-08
3.438603809e-08
3.511123915e-08
3.243050459e-08
3.356528652e-08
3.001034642e-08
3.145524969e-08
2.645681809e-08
2.77114013e-08
2.027816396e-08
1.986765647e-08
9.046494552e-09
4.238647926e-09
1.488570659e-13
1.488570659e-13
-0.1464876054
0.1464876054
0.03831047054
0.01423404634
0.007456022676
0.004672748492
0.003230546969
0.002376528371