# vtk DataFile Version 2.0
FlowField
ASCII
DATASET STRUCTURED_GRID
DIMENSIONS 400 1 200
POINTS 80000 float
0 0 0
0.08 0 0
0.16 0 0
0.24 0 0
0.32 0 0
0.4 0 0
0.48 0 0
0.56 0 0
0.64 0 0
0.72 0 0
0.8 0 0
0.88 0 0
0.96 0 0
1.04 0 0
1.12 0 0
1.2 0 0
1.28 0 0
1.36 0 0
1.44 0 0
1.52 0 0
1.6 0 0
1.68 0 0
1.76 0 0
1.84 0 0
1.92 0 0
2 0 0
2.08 0 0
2.16 0 0
2.24 0 0
2.32 0 0
2.4 0 0
2.48 0 0
2.56 0 0
2.64 0 0
2.72 0 0
2.8 0 0
2.88 0 0
2.96 0 0
3.04 0 0
3.12 0 0
3.2 0 0
3.28 0 0
3.36 0 0
3.44 0 0
3.52 0 0
3.6 0 0
3.68 0 0
3.76 0 0
3.84 0 0
3.92 0 0
4 0 0
4.08 0 0
4.16 0 0
4.24 0 0
4.32 0 0
4.4 0 0
4.48 0 0
4.56 0 0
4.64 0 0
4.72 0 0
4.8 0 0
4.88 0 0
4.96 0 0
5.04 0 0
5.12 0 0
5.2 0 0
5.28 0 0
5.36 0 0
5.44 0 0
5.52 0 0
5.6 0 0
5.68 0 0
5.76 0 0
5.84 0 0
5.92 0 0
6 0 0
6.08 0 0
6.16 0 0
6.24 0 0
6.32 0 0
6.4 0 0
6.48 0 0
6.56 0 0
6.64 0 0
6.72 0 0
6.8 0 0
6.88 0 0
6.96 0 0
7.04 0 0
7.12 0 0
7.2 0 0
7.28 0 0
7.36 0 0
7.44 0 0
7.52 0 0
7.6 0 0
7.68 0 0
7.76 0 0
7.84 0 0
7.92 0 0
8 0 0
8.08 0 0
8.16 0 0
8.24 0 0
8.32 0 0
8.4 0 0
8.48 0 0
8.56 0 0
8.64 0 0
8.72 0 0
8.8 0 0
8.88 0 0
8.96 0 0
9.04 0 0
9.12 0 0
9.2 0 0
9.28 0 0
9.36 0 0
9.44 0 0
9.52 0 0
9.6 0 0
9.68 0 0
9.76 0 0
9.84 0 0
9.92 0 0
10 0 0
10.08 0 0
10.16 0 0
10.24 0 0
10.32 0 0
10.4 0 0
10.48 0 0
10.56 0 0
10.64 0 0
10.72 0 0
10.8 0 0
10.88 0 0
10.96 0 0
11.04 0 0
11.12 0 0
11.2 0 0
11.28 0 0
11.36 0 0
11.44 0 0
11.52 0 0
11.6 0 0
11.68 0 0
11.76 0 0
11.84 0 0
11.92 0 0
12 0 0
12.08 0 0
12.16 0 0
12.24 0 0
12.32 0 0
12.4 0 0
12.48 0 0
12.56 0 0
12.64 0 0
12.72 0 0
12.8 0 0
12.88 0 0
12.96 0 0
13.04 0 0
13.12 0 0
13.2 0 0
13.28 0 0
13.36 0 0
13.44 0 0
13.52 0 0
13.6 0 0
13.68 0 0
13.76 0 0
13.84 0 0
13.92 0 0
14 0 0
14.08 0 0
14.16 0 0
14.24 0 0
14.32 0 0
14.4 0 0
14.48 0 0
14.56 0 0
14.64 0 0
14.72 0 0
14.8 0 0
14.88 0 0
14.96 0 0
15.04 0 0
15.12 0 0
15.2 0 0
15.28 0 0
15.36 0 0
15.44 0 0
15.52 0 0
15.6 0 0
15.68 0 0
15.76 0 0
15.84 0 0
15.92 0 0
16 0 0
16.08 0 0
16.16 0 0
16.24 0 0
16.32 0 0
16.4 0 0
16.48 0 0
16.56 0 0
16.64 0 0
16.72 0 0
16.8 0 0
16.88 0 0
16.96 0 0
17.04 0 0
17.12 0 0
17.2 0 0
17.28 0 0
17.36 0 0
17.44 0 0
17.52 0 0
17.6 0 0
17.68 0 0
17.76 0 0
17.84 0 0
17.92 0 0
18 0 0
18.08 0 0
18.16 0 0
18.24 0 0
18.32 0 0
18.4 0 0
18.48 0 0
18.56 0 0
18.64 0 0
18.72 0 0
18.8 0 0
18.88 0 0
18.96 0 0
19.04 0 0
19.12 0 0
19.2 0 0
19.28 0 0
19.36 0 0
19.44 0 0
19.52 0 0
19.6 0 0
19.68 0 0
19.76 0 0
19.84 0 0
19.92 0 0
20 0 0
20.08 0 0
20.16 0 0
20.24 0 0
20.32 0 0
20.4 0 0
20.48 0 0
20.56 0 0
20.64 0 0
20.72 0 0
20.8 0 0
20.88 0 0
20.96 0 0
21.04 0 0
21.12 0 0
21.2 0 0
21.28 0 0
21.36 0 0
21.44 0 0
21.52 0 0
21.6 0 0
21.68 0 0
21.76 0 0
21.84 0 0
21.92 0 0
22 0 0
22.08 0 0
22.16 0 0
22.24 0 0
22.32 0 0
22.4 0 0
22.48 0 0
22.56 0 0
22.64 0 0
22.72 0 0
22.8 0 0
22.88 0 0
22.96 0 0
23.04 0 0
23.12 0 0
23.2 0 0
23.28 0 0
23.36 0 0
23.44 0 0
23.52 0 0
23.6 0 0
23.68 0 0
23.76 0 0
23.84 0 0
23.92 0 0
24 0 0
24.08 0 0
24.16 0 0
24.24 0 0
24.32 0 0
24.4 0 0
24.48 0 0
24.56 0 0
24.64 0 0
24.72 0 0
24.8 0 0
24.88 0 0
24.96 0 0
25.04 0 0
25.12 0 0
25.2 0 0
25.28 0 0
25.36 0 0
25.44 0 0
25.52 0 0
25.6 0 0
25.68 0 0
25.76 0 0
25.84 0 0
25.92 0 0
26 0 0
26.08 0 0
26.16 0 0
26.24 0 0
26.32 0 0
26.4 0 0
26.48 0 0
26.56 0 0
26.64 0 0
26.72 0 0
26.8 0 0
26.88 0 0
26.96 0 0
27.04 0 0
27.12 0 0
27.2 0 0
27.28 0 0
27.36 0 0
27.44 0 0
27.52 0 0
27.6 0 0
27.68 0 0
27.76 0 0
27.84 0 0
27.92 0 0
28 0 0
28.08 0 0
28.16 0 0
28.24 0 0
28.32 0 0
28.4 0 0
28.48 0 0
28.56 0 0
28.64 0 0
28.72 0 0
28.8 0 0
28.88 0 0
28.96 0 0
29.04 0 0
29.12 0 0
29.2 0 0
29.28 0 0
29.36 0 0
29.44 0 0
29.52 0 0
29.6 0 0
29.68 0 0
29.76 0 0
29.84 0 0
29.92 0 0
30 0 0
30.08 0 0
30.16 0 0
30.24 0 0
30.32 0 0
30.4 0 0
30.48 0 0
30.56 0 0
30.64 0 0
30.72 0 0
30.8 0 0
30.88 0 0
30.96 0 0
31.04 0 0
31.12 0 0
31.2 0 0
31.28 0 0
31.36 0 0
31.44 0 0
31.52 0 0
31.6 0 0
31.68 0 0
31.76 0 0
31.84 0 0
31.92 0 0
0 0.005 0
0.08 0.005 0
0.16 0.005 0
0.24 0.005 0
0.32 0.005 0
0.4 0.005 0
0.48 0.005 0
0.56 0.005 0
0.64 0.005 0
0.72 0.005 0
0.8 0.005 0
0.88 0.005 0
0.96 0.005 0
1.04 0.005 0
1.12 0.005 0
1.2 0.005 0
1.28 0.005 0
1.36 0.005 0
1.44 0.005 0
1.52 0.005 0
1.6 0.005 0
1.68 0.005 0
1.76 0.005 0
1.84 0.005 0
1.92 0.005 0
2 0.005 0
2.08 0.005 0
2.16 0.005 0
2.24 0.005 0
2.32 0.005 0
2.4 0.005 0
2.48 0.005 0
2.56 0.005 0
2.64 0.005 0
2.72 0.005 0
2.8 0.005 0
2.88 0.005 0
2.96 0.005 0
3.04 0.005 0
3.12 0.005 0
3.2 0.005 0
3.28 0.005 0
3.36 0.005 0
3.44 0.005 0
3.52 0.005 0
3.6 0.005 0
3.68 0.005 0
3.76 0.005 0
3.84 0.005 0
3.92 0.005 0
4 0.005 0
4.08 0.005 0
4.16 0.005 0
4.24 0.005 0
4.32 0.005 0
4.4 0.005 0
4.48 0.005 0
4.56 0.005 0
4.64 0.005 0
4.72 0.005 0
4.8 0.005 0
4.88 0.005 0
4.96 0.005 0
5.04 0.005 0
5.12 0.005 0
5.2 0.005 0
5.28 0.005 0
5.36 0.005 0
5.44 0.005 0
5.52 0.005 0
5.6 0.005 0
5.68 0.005 0
5.76 0.005 0
5.84 0.005 0
5.92 0.005 0
6 0.005 0
6.08 0.005 0
6.16 0.005 0
6.24 0.005 0
6.32 0.005 0
6.4 0.005 0
6.48 0.005 0
6.56 0.005 0
6.64 0.005 0
6.72 0.005 0
6.8 0.005 0
6.88 0.005 0
6.96 0.005 0
7.04 0.005 0
7.12 0.005 0
7.2 0.005 0
7.28 0.005 0
7.36 0.005 0
7.44 0.005 0
7.52 0.005 0
7.6 0.005 0
7.68 0.005 0
7.76 0.005 0
7.84 0.005 0
7.92 0.005 0
8 0.005 0
8.08 0.005 0
8.16 0.005 0
8.24 0.005 0
8.32 0.005 0
8.4 0.005 0
8.48 0.005 0
8.56 0.005 0
8.64 0.005 0
8.72 0.005 0
8.8 0.005 0
8.88 0.005 0
8.96 0.005 0
9.04 0.005 0
9.12 0.005 0
9.2 0.005 0
9.28 0.005 0
9.36 0.005 0
9.44 0.005 0
9.52 0.005 0
9.6 0.005 0
9.68 0.005 0
9.76 0.005 0
9.84 0.005 0
9.92 0.005 0
10 0.005 0
10.08 0.005 0
10.16 0.005 0
10.24 0.005 0
10.32 0.005 0
10.4 0.005 0
10.48 0.005 0
10.56 0.005 0
10.64 0.005 0
10.72 0.005 0
10.8 0.005 0
10.88 0.005 0
10.96 0.005 0
11.04 0.005 0
11.12 0.005 0
11.2 0.005 0
11.28 0.005 0
11.36 0.005 0
11.44 0.005 0
11.52 0.005 0
11.6 0.005 0
11.68 0.005 0
11.76 0.005 0
11.84 0.005 0
11.92 0.005 0
12 0.005 0
12.08 0.005 0
12.16 0.005 0
12.24 0.005 0
12.32 0.005 0
12.4 0.005 0
12.48 0.005 0
12.56 0.005 0
12.64 0.005 0
12.72 0.005 0
12.8 0.005 0
12.88 0.005 0
12.96 0.005 0
13.04 0.005 0
13.12 0.005 0
13.2 0.005 0
13.28 0.005 0
13.36 0.005 0
13.44 0.005 0
13.52 0.005 0
13.6 0.005 0
13.68 0.005 0
13.76 0.005 0
13.84 0.005 0
13.92 0.005 0
14 0.005 0
14.08 0.005 0
14.16 0.005 0
14.24 0.005 0
14.32 0.005 0
14.4 0.005 0
14.48 0.005 0
14.56 0.005 0
14.64 0.005 0
14.72 0.005 0
14.8 0.005 0
14.88 0.005 0
14.96 0.005 0
15.04 0.005 0
15.12 0.005 0
15.2 0.005 0
15.28 0.005 0
15.36 0.005 0
15.44 0.005 0
15.52 0.005 0
15.6 0.005 0
15.68 0.005 0
15.76 0.005 0
15.84 0.005 0
15.92 0.005 0
16 0.005 0
16.08 0.005 0
16.16 0.005 0
16.24 0.005 0
16.32 0.005 0
16.4 0.005 0
16.48 0.005 0
16.56 0.005 0
16.64 0.005 0
16.72 0.005 0
16.8 0.005 0
16.88 0.005 0
16.96 0.005 0
17.04 0.005 0
17.12 0.005 0
17.2 0.005 0
17.28 0.005 0
17.36 0.005 0
17.44 0.005 0
17.52 0.005 0
17.6 0.005 0
17.68 0.005 0
17.76 0.005 0
17.84 0.005 0
17.92 0.005 0
18 0.005 0
18.08 0.005 0
18.16 0.005 0
18.24 0.005 0
18.32 0.005 0
18.4 0.005 0
18.48 0.005 0
18.56 0.005 0
18.64 0.005 0
18.72 0.005 0
18.8 0.005 0
18.88 0.005 0
18.96 0.005 0
19.04 0.005 0
19.12 0.005 0
19.2 0.005 0
19.28 0.005 0
19.36 0.005 0
19.44 0.005 0
19.52 0.005 0
19.6 0.005 0
19.68 0.005 0
19.76 0.005 0
19.84 0.005 0
19.92 0.005 0
20 0.005 0
20.08 0.005 0
20.16 0.005 0
20.24 0.005 0
20.32 0.005 0
20.4 0.005 0
20.48 0.005 0
20.56 0.005 0
20.64 0.005 0
20.72 0.005 0
20.8 0.005 0
20.88 0.005 0
20.96 0.005 0
21.04 0.005 0
21.12 0.005 0
21.2 0.005 0
21.28 0.005 0
21.36 0.005 0
21.44 0.005 0
21.52 0.005 0
21.6 0.005 0
21.68 0.005 0
21.76 0.005 0
21.84 0.005 0
21.92 0.005 0
22 0.005 0
22.08 0.005 0
22.16 0.005 0
22.24 0.005 0
22.32 0.005 0
22.4 0.005 0
22.48 0.005 0
22.56 0.005 0
22.64 0.005 0
22.72 0.005 0
22.8 0.005 0
22.88 0.005 0
22.96 0.005 0
23.04 0.005 0
23.12 0.005 0
23.2 0.005 0
23.28 0.005 0
23.36 0.005 0
23.44 0.005 0
23.52 0.005 0
23.6 0.005 0
23.68 0.005 0
23.76 0.005 0
23.84 0.005 0
23.92 0.005 0
24 0.005 0
24.08 0.005 0
24.16 0.005 0
24.24 0.005 0
24.32 0.005 0
24.4 0.005 0
24.48 0.005 0
24.56 0.005 0
24.64 0.005 0
24.72 0.005 0
24.8 0.005 0
24.88 0.005 0
24.96 0.005 0
25.04 0.005 0
25.12 0.005 0
25.2 0.005 0
25.28 0.005 0
25.36 0.005 0
25.44 0.005 0
25.52 0.005 0
25.6 0.005 0
25.68 0.005 0
25.76 0.005 0
25.84 0.005 0
25.92 0.005 0
26 0.005 0
26.08 0.005 0
26.16 0.005 0
26.24 0.005 0
26.32 0.005 0
26.4 0.005 0
26.48 0.005 0
26.56 0.005 0
26.64 0.005 0
26.72 0.005 0
26.8 0.005 0
26.88 0.005 0
26.96 0.005 0
27.04 0.005 0
27.12 0.005 0
27.2 0.005 0
27.28 0.005 0
27.36 0.005 0
27.44 0.005 0
27.52 0.005 0
27.6 0.005 0
27.68 0.005 0
27.76 0.005 0
27.84 0.005 0
27.92 0.005 0
28 0.005 0
28.08 0.005 0
28.16 0.005 0
28.24 0.005 0
28.32 0.005 0
28.4 0.005 0
28.48 0.005 0
28.56 0.005 0
28.64 0.005 0
28.72 0.005 0
28.8 0.005 0
28.88 0.005 0
28.96 0.005 0
29.04 0.005 0
29.12 0.005 0
29.2 0.005 0
29.28 0.005 0
29.36 0.005 0
29.44 0.005 0
29.52 0.005 0
29.6 0.005 0
29.68 0.005 0
29.76 0.005 0
29.84 0.005 0
29.92 0.005 0
30 0.005 0
30.08 0.005 0
30.16 0.005 0
30.24 0.005 0
30.32 0.005 0
30.4 0.005 0
30.48 0.005 0
30.56 0.005 0
30.64 0.005 0
30.72 0.005 0
30.8 0.005 0
30.88 0.005 0
30.96 0.005 0
31.04 0.005 0
31.12 0.005 0
31.2 0.005 0
31.28 0.005 0
31.36 0.005 0
31.44 0.005 0
31.52 0.005 0
31.6 0.005 0
31.68 0.005 0
31.76 0.005 0
31.84 0.005 0
31.92 0.005 0
0 0.01 0
0.08 0.01 0
0.16 0.01 0
0.24 0.01 0
0.32 0.01 0
0.4 0.01 0
0.48 0.01 0
0.56 0.01 0
0.64 0.01 0
0.72 0.01 0
0.8 0.01 0
0.88 0.01 0
0.96 0.01 0
1.04 0.01 0
1.12 0.01 0
1.2 0.01 0
1.28 0.01 0
1.36 0.01 0
1.44 0.01 0
1.52 0.01 0
1.6 0.01 0
1.68 0.01 0
1.76 0.01 0
1.84 0.01 0
1.92 0.01 0
2 0.01 0
2.08 0.01 0
2.16 0.01 0
2.24 0.01 0
2.32 0.01 0
2.4 0.01 0
2.48 0.01 0
2.56 0.01 0
2.64 0.01 0
2.72 0.01 0
2.8 0.01 0
2.88 0.01 0
2.96 0.01 0
3.04 0.01 0
3.12 0.01 0
3.2 0.01 0
3.28 0.01 0
3.36 0.01 0
3.44 0.01 0
3.52 0.01 0
3.6 0.01 0
3.68 0.01 0
3.76 0.01 0
3.84 0.01 0
3.92 0.01 0
4 0.01 0
4.08 0.01 0
4.16 0.01 0
4.24 0.01 0
4.32 0.01 0
4.4 0.01 0
4.48 0.01 0
4.56 0.01 0
4.64 0.01 0
4.72 0.01 0
4.8 0.01 0
4.88 0.01 0
4.96 0.01 0
5.04 0.01 0
5.12 0.01 0
[...]
POINT_DATA 80000

SCALARS p float 1
LOOKUP_TABLE default
1
56.54460972
56.2428747
56.20171492
56.18162495
56.16720602
56.15520506
56.14446165
56.13446352
56.12495793
56.11581162
56.1069509
56.09833297
56.08993146
56.0817287
56.07371166
56.06586979
56.05819389
56.05067551
56.04330672
56.03608
56.02898815
56.02202436
56.01518213
56.00845535
56.00183824
55.99532538
55.98891168
55.98259238
55.97636303
55.97021947
55.9641578
55.95817438
55.95226582
55.94642892
55.94066071
55.93495838
55.9293193
55.92374102
55.9182212
55.91275766
55.90734835
55.90199131
55.89668472
55.89142683
55.88621599
55.88105066
55.87592934
55.87085064
55.86581322
55.8608158
55.85585718
55.8509362
55.84605176
55.8412028
55.83638833
55.83160737
55.82685901
55.82214237
55.81745658
55.81280085
55.80817439
55.80357645
55.79900631
55.79446327
55.78994665
55.78545583
55.78099016
55.77654906
55.77213194
55.76773823
55.7633674
55.75901892
55.75469229
55.750387
55.74610259
55.74183858
55.73759454
55.73337002
55.7291646
55.72497788
55.72080944
55.71665891
55.7125259
55.70841005
55.70431099
55.70022839
55.69616189
55.69211117
55.68807591
55.68405579
55.6800505
55.67605974
55.67208322
55.66812066
55.66417177
55.66023628
55.65631393
55.65240445
55.64850759
55.6446231
55.64075074
55.63689026
55.63304145
55.62920405
55.62537786
55.62156266
55.61775822
55.61396435
55.61018082
55.60640746
55.60264405
55.5988904
55.59514632
55.59141163
55.58768615
55.5839697
55.5802621
55.57656319
55.57287279
55.56919074
55.56551687
55.56185104
55.55819309
55.55454285
55.5509002
55.54726497
55.54363702
55.54001622
55.53640242
55.53279549
55.52919531
55.52560172
55.52201462
55.51843387
55.51485935
55.51129095
55.50772853
55.50417199
55.50062122
55.49707609
55.4935365
55.49000235
55.48647353
55.48294993
55.47943145
55.47591799
55.47240946
55.46890577
55.4654068
55.46191248
55.45842271
55.45493741
55.45145648
55.44797985
55.44450742
55.44103911
55.43757486
55.43411456
55.43065816
55.42720557
55.42375671
55.42031152
55.41686992
55.41343185
55.40999722
55.40656598
55.40313806
55.39971339
55.39629191
55.39287356
55.38945827
55.38604599
55.38263665
55.37923019
55.37582657
55.37242573
55.3690276
55.36563214
55.36223929
55.358849
55.35546122
55.35207591
55.34869301
55.34531247
55.34193425
55.3385583
55.33518458
55.33181304
55.32844364
55.32507634
55.32171109
55.31834786
55.3149866
55.31162728
55.30826985
55.30491429
55.30156054
55.29820858
55.29485838
55.29150988
55.28816307
55.28481791
55.28147436
55.27813239
55.27479198
55.27145308
55.26811567
55.26477973
55.26144521
55.2581121
55.25478036
55.25144997
55.2481209
55.24479312
55.24146661
55.23814134
55.23481729
55.23149443
55.22817274
55.2248522
55.22153278
55.21821446
55.21489722
55.21158103
55.20826588
55.20495175
55.2016386
55.19832644
55.19501523
55.19170495
55.18839559
55.18508713
55.18177955
55.17847284
55.17516697
55.17186194
55.16855771
55.16525429
55.16195165
55.15864978
55.15534866
55.15204828
55.14874862
55.14544968
55.14215144
55.13885388
55.135557
55.13226078
55.12896521
55.12567029
55.12237599
55.11908231
55.11578924
55.11249677
55.10920489
55.10591358
55.10262285
55.09933269
55.09604307
55.09275401
55.08946548
55.08617749
55.08289001
55.07960306
55.07631661
55.07303066
55.06974521
55.06646025
55.06317577
55.05989176
55.05660822
55.05332514
55.05004251
55.04676034
55.0434786
55.0401973
55.03691642
55.03363597
55.03035592
55.02707629
55.02379705
55.02051821
55.01723975
55.01396167
55.01068396
55.00740661
55.00412962
55.00085297
54.99757666
54.99430069
54.99102504
54.9877497
54.98447467
54.98119994
54.9779255
54.97465135
54.97137746
54.96810385
54.96483049
54.96155738
54.95828451
54.95501187
54.95173946
54.94846726
54.94519527
54.94192348
54.93865188
54.93538046
54.93210921
54.92883814
54.92556722
54.92229646
54.91902584
54.91575535
54.912485
54.90921477
54.90594466
54.90267466
54.89940476
54.89613496
54.89286525
54.88959562
54.88632608
54.88305661
54.87978721
54.87651788
54.8732486
54.86997938
54.86671022
54.8634411
54.86017202
54.85690298
54.85363399
54.85036502
54.84709608
54.84382718
54.84055829
54.83728943
54.83402059
54.83075177
54.82748297
54.82421418
54.8209454
54.81767663
54.81440787
54.81113912
54.80787038
54.80460165
54.80133292
54.79806419
54.79479547
54.79152676
54.78825804
54.78498933
54.78172062
54.77845191
54.7751832
54.77191449
54.76864579
54.76537708
54.76210837
54.75883966
54.75557096
54.75230225
54.74903354
54.74576483
54.74249612
54.73922741
54.7359587
54.73268999
54.72942128
54.72615256
54.72288385
54.71961514
54.71634642
54.7130777
54.70980899
54.70654027
54.70327155
54.70000283
54.69673411
54.69346538
54.69019666
54.68692794
54.68365921
54.68039049
54.67712176
54.67385303
54.67058431
54.66731558
54.66404685
54.66077812
54.65750938
54.65424065
54.65097191
54.64770319
54.64443444
54.64116575
0.5
56.54460972
56.54460972
56.2428747
56.20171492
56.18162495
56.16720602
56.15520506
56.14446165
56.13446352
56.12495793
56.11581162
56.1069509
56.09833297
56.08993146
56.0817287
56.07371166
56.06586979
56.05819389
56.05067551
56.04330672
56.03608
56.02898815
56.02202436
56.01518213
56.00845535
56.00183824
55.99532538
55.98891168
55.98259238
55.97636303
55.97021947
55.9641578
55.95817438
55.95226582
55.94642892
55.94066071
55.93495838
55.9293193
55.92374102
55.9182212
55.91275766
55.90734835
55.90199131
55.89668472
55.89142683
55.88621599
55.88105066
55.87592934
55.87085064
55.86581322
55.8608158
55.85585718
55.8509362
55.84605176
55.8412028
55.83638833
55.83160737
55.82685901
55.82214237
55.81745658
55.81280085
55.80817439
55.80357645
55.79900631
55.79446327
55.78994665
55.78545583
55.78099016
55.77654906
55.77213194
55.76773823
55.7633674
55.75901892
55.75469229
55.750387
55.74610259
55.74183858
55.73759454
55.73337002
55.7291646
55.72497788
55.72080944
55.71665891
55.7125259
55.70841005
55.70431099
55.70022839
55.69616189
55.69211117
55.68807591
55.68405579
55.6800505
55.67605974
55.67208322
55.66812066
55.66417177
55.66023628
55.65631393
55.65240445
55.64850759
55.6446231
55.64075074
55.63689026
55.63304145
55.62920405
55.62537786
55.62156266
55.61775822
55.61396435
55.61018082
55.60640746
55.60264405
55.5988904
55.59514632
55.59141163
55.58768615
55.5839697
55.5802621
55.57656319
55.57287279
55.56919074
55.56551687
55.56185104
55.55819309
55.55454285
55.5509002
55.54726497
55.54363702
55.54001622
55.53640242
55.53279549
55.52919531
55.52560172
55.52201462
55.51843387
55.51485935
55.51129095
55.50772853
55.50417199
55.50062122
55.49707609
55.4935365
55.49000235
55.48647353
55.48294993
55.47943145
55.47591799
55.47240946
55.46890577
55.4654068
55.46191248
55.45842271
55.45493741
55.45145648
55.44797985
55.44450742
55.44103911
55.43757486
55.43411456
55.43065816
55.42720557
55.42375671
55.42031152
55.41686992
55.41343185
55.40999722
55.40656598
55.40313806
55.39971339
55.39629191
55.39287356
55.38945827
55.38604599
55.38263665
55.37923019
55.37582657
55.37242573
55.3690276
55.36563214
55.36223929
55.358849
55.35546122
55.35207591
55.34869301
55.34531247
55.34193425
55.3385583
55.33518458
55.33181304
55.32844364
55.32507634
55.32171109
55.31834786
55.3149866
55.31162728
55.30826985
55.30491429
55.30156054
55.29820858
55.29485838
55.29150988
55.28816307
55.28481791
55.28147436
55.27813239
55.27479198
55.27145308
55.26811567
55.26477973
55.26144521
55.2581121
55.25478036
55.25144997
55.2481209
55.24479312
55.24146661
55.23814134
55.23481729
55.23149443
55.22817274
55.2248522
55.22153278
55.21821446
55.21489722
55.21158103
55.20826588
55.20495175
55.2016386
55.19832644
55.19501523
55.19170495
55.18839559
55.18508713
55.18177955
55.17847284
55.17516697
55.17186194
55.16855771
55.16525429
55.16195165
55.15864978
55.15534866
55.15204828
55.14874862
55.14544968
55.14215144
55.13885388
55.135557
55.13226078
55.12896521
55.12567029
55.12237599
55.11908231
55.11578924
55.11249677
55.10920489
55.10591358
55.10262285
55.09933269
55.09604307
55.09275401
55.08946548
55.08617749
55.08289001
55.07960306
55.07631661
55.07303066
55.06974521
55.06646025
55.06317577
55.05989176
55.05660822
55.05332514
55.05004251
55.04676034
55.0434786
55.0401973
55.03691642
55.03363597
55.03035592
55.02707629
55.02379705
55.02051821
55.01723975
55.01396167
55.01068396
55.00740661
55.00412962
55.00085297
54.99757666
54.99430069
54.99102504
54.9877497
54.98447467
54.98119994
54.9779255
54.97465135
54.97137746
54.96810385
54.96483049
54.96155738
54.95828451
54.95501187
54.95173946
54.94846726
54.94519527
54.94192348
54.93865188
54.93538046
54.93210921
54.92883814
54.92556722
54.92229646
54.91902584
54.91575535
54.912485
54.90921477
54.90594466
54.90267466
54.89940476
54.89613496
54.89286525
54.88959562
54.88632608
54.88305661
54.87978721
54.87651788
54.8732486
54.86997938
54.86671022
54.8634411
54.86017202
54.85690298
54.85363399
54.85036502
54.84709608
54.84382718
54.84055829
54.83728943
54.83402059
54.83075177
54.82748297
54.82421418
54.8209454
54.81767663
54.81440787
54.81113912
54.80787038
54.80460165
54.80133292
54.79806419
54.79479547
54.79152676
54.78825804
54.78498933
54.78172062
54.77845191
54.7751832
54.77191449
54.76864579
54.76537708
54.76210837
54.75883966
54.75557096
54.75230225
54.74903354
54.74576483
54.74249612
54.73922741
54.7359587
54.73268999
54.72942128
54.72615256
54.72288385
54.71961514
54.71634642
54.7130777
54.70980899
54.70654027
54.70327155
54.70000283
54.69673411
54.69346538
54.69019666
54.68692794
54.68365921
54.68039049
54.67712176
54.67385303
54.67058431
54.66731558
54.66404685
54.66077812
54.65750938
54.65424065
54.65097191
54.64770319
54.64443444
54.64116575
54.64116575
56.53002797
56.53002797
56.24671058
56.20297033
56.18226019
56.16760054
56.15547676
56.1446611
56.13461666
56.12507962
56.11591104
56.107034
56.09840377
56.08999276
56.08178248
56.07375939
56.06591256
56.05823252
56.05071065
56.04333887
56.03610956
56.02901546
56.02204969
56.0152057
56.00847735
56.00185883
55.9953447
55.98892986
55.98260952
55.97637922
55.97023478
55.96417232
55.95818817
55.95227893
55.94644141
55.94067261
55.93496974
55.92933017
55.92375141
55.91823116
55.91276721
55.90735751
55.90200012
55.89669318
55.89143497
55.88622384
55.88105822
55.87593663
55.87085768
55.86582001
55.86082237
55.85586353
55.85094234
55.8460577
55.84120856
55.83639391
55.83161279
55.82686426
55.82214746
55.81746153
55.81280566
55.80817906
55.80358099
55.79901072
55.79446755
55.78995083
55.78545989
55.78099412
55.77655291
55.77213569
55.76774188
55.76337096
55.75902239
55.75469567
55.7503903
55.74610581
55.74184172
55.7375976
55.73337301
55.72916752
55.72498073
55.72081223
55.71666163
55.71252856
55.70841264
55.70431353
55.70023087
55.69616431
55.69211354
55.68807823
55.68405805
55.68005271
55.6760619
55.67208534
55.66812273
55.66417379
55.66023826
55.65631587
55.65240635
55.64850945
55.64462492
55.64075252
55.63689201
55.63304315
55.62920572
55.6253795
55.62156426
55.61775979
55.61396588
55.61018233
55.60640893
55.60264549
55.59889181
55.5951477
55.59141299
55.58768748
55.583971
55.58026337
55.57656443
55.57287401
55.56919193
55.56551804
55.56185219
55.55819421
55.55454395
55.55090127
55.54726602
55.54363805
55.54001723
55.53640341
55.53279647
55.52919626
55.52560266
55.52201553
55.51843477
55.51486023
55.51129181
55.50772937
55.50417282
55.50062203
55.49707688
55.49353728
55.49000311
55.48647427
55.48295066
55.47943216
55.47591869
55.47241015
55.46890644
55.46540746
55.46191313
55.45842334
55.45493803
55.45145709
55.44798044
55.444508
55.44103969
55.43757542
55.43411511
55.4306587
55.42720609
55.42375723
55.42031203
55.41687042
55.41343233
55.4099977
55.40656645
55.40313852
55.39971384
55.39629235
55.39287399
55.38945869
55.3860464
55.38263705
55.37923059
55.37582696
55.37242611
55.36902797
55.3656325
55.36223964
55.35884935
55.35546157
55.35207624
55.34869334
55.34531279
55.34193456
55.33855861
55.33518488
55.33181334
55.32844393
55.32507662
55.32171137
55.31834813
55.31498687
55.31162754
55.30827011
55.30491454
55.30156079
55.29820883
55.29485861
55.29151012
55.2881633
55.28481813
55.28147458
55.27813261
55.27479219
55.27145329
55.26811588
55.26477993
55.26144541
55.25811229
55.25478055
55.25145015
55.24812108
55.2447933
55.24146678
55.23814151
55.23481746
55.23149459
55.2281729
55.22485236
55.22153293
55.21821461
55.21489736
55.21158117
55.20826602
55.20495188
55.20163874
55.19832657
55.19501535
55.19170508
55.18839571
55.18508725
55.18177967
55.17847296
55.17516709
55.17186205
55.16855782
55.1652544
55.16195175
55.15864988
55.15534876
55.15204838
55.14874872
55.14544978
55.14215153
55.13885397
55.13555709
55.13226087
55.1289653
55.12567037
55.12237607
55.11908239
55.11578932
55.11249684
55.10920496
55.10591366
55.10262293
55.09933276
55.09604314
55.09275408
55.08946555
55.08617755
55.08289008
55.07960312
55.07631667
55.07303072
55.06974527
55.0664603
55.06317582
55.05989181
55.05660827
55.05332519
55.05004256
55.04676038
55.04347865
55.04019734
55.03691646
55.03363601
55.03035596
55.02707633
55.02379709
55.02051825
55.01723979
55.0139617
55.01068399
55.00740664
55.00412965
55.000853
54.99757669
54.99430072
54.99102506
54.98774973
54.9844747
54.98119996
54.97792552
54.97465137
54.97137748
54.96810387
54.96483051
54.9615574
54.95828452
54.95501189
54.95173947
54.94846727
54.94519528
54.94192349
54.93865189
54.93538047
54.93210922
54.92883815
54.92556723
54.92229646
54.91902584
54.91575536
54.91248501
54.90921478
54.90594466
54.90267466
54.89940476
54.89613496
54.89286525
54.88959563
54.88632608
54.88305661
54.87978721
54.87651788
54.8732486
54.86997938
54.86671022
54.8634411
54.86017202
54.85690299
54.85363399
54.85036502
54.84709609
54.84382718
54.84055829
54.83728943
54.83402059
54.83075177
54.82748297
54.82421418
54.8209454
54.81767663
54.81440787
54.81113912
54.80787038
54.80460165
54.80133292
54.79806419
54.79479547
54.79152676
54.78825804
54.78498933
54.78172062
54.77845191
54.7751832
54.77191449
54.76864579
54.76537708
54.76210837
54.75883966
54.75557096
54.75230225
54.74903354
54.74576483
54.74249612
54.73922741
54.7359587
54.73268999
54.72942128
54.72615256
54.72288385
54.71961513
54.71634642
54.7130777
54.70980898
54.70654027
54.70327155
54.70000283
54.69673411
54.69346538
54.69019666
54.68692794
54.68365921
54.68039049
54.67712176
54.67385303
54.6705843
54.66731558
54.66404685
54.66077812
54.65750938
54.65424065
54.65097191
54.64770318
54.64443444
54.64116575
54.64116575
56.51404338
56.51404338
56.249899
56.20415752
56.18287619
56.16798681
56.15574419
56.14485803
56.13476814
56.1252001
56.11600948
56.10711624
56.0984738
56.09005333
56.08183558
56.07380648
56.06595471
56.05827057
56.05074522
56.04337049
56.03613862
56.02904229
56.02207455
56.01522883
56.00849893
56.00187903
55.99536365
55.98894767
55.98262631
55.97639508
55.97024979
55.96418654
55.95820167
55.95229177
55.94645363
55.94068426
55.93498086
55.92934079
55.92376158
55.9182409
55.91277655
55.90736648
55.90200873
55.89670146
55.89144294
55.88623151
55.88106561
55.87594376
55.87086456
55.86582665
55.86082878
55.85586973
55.85094835
55.84606352
55.84121419
55.83639936
55.83161807
55.82686939
55.82215243
55.81746636
55.81281035
55.80818361
55.80358541
55.79901502
55.79447174
55.7899549
55.78546385
55.78099797
55.77655666
55.77213934
55.76774545
55.76337444
55.75902578
55.75469897
55.75039352
55.74610895
55.74184479
55.73760059
55.73337593
55.72917037
55.72498351
55.72081494
55.71666428
55.71253115
55.70841517
55.704316
55.70023328
55.69616668
55.69211585
55.68808048
55.68406026
55.68005487
55.67606402
55.6720874
55.66812475
55.66417577
55.6602402
55.65631776
55.6524082
55.64851126
55.64462669
55.64075425
55.6368937
55.63304481
55.62920735
55.62538109
55.62156582
55.61776131
55.61396737
55.61018379
55.60641036
55.60264689
55.59889318
55.59514905
55.5914143
55.58768877
55.58397226
55.58026461
55.57656564
55.57287519
55.56919309
55.56551918
55.5618533
55.5581953
55.55454502
55.55090232
55.54726705
55.54363906
55.54001821
55.53640438
55.53279741
55.52919718
55.52560356
55.52201642
55.51843564
55.51486109
55.51129264
55.50773019
55.50417362
55.50062281
55.49707765
55.49353804
55.49000385
55.486475
55.48295137
55.47943286
55.47591938
55.47241082
55.46890709
55.4654081
55.46191375
55.45842396
55.45493863
55.45145768
55.44798102
55.44450857
55.44104024
55.43757596
55.43411565
55.43065922
55.42720661
55.42375773
55.42031252
55.4168709
55.4134328
55.40999816
55.4065669
55.40313896
55.39971427
55.39629278
55.39287441
55.3894591
55.3860468
55.38263744
55.37923098
55.37582734
55.37242648
55.36902833
55.36563286
55.36223999
55.35884969
55.3554619
55.35207657
55.34869366
55.34531311
55.34193487
55.33855891
55.33518518
55.33181363
55.32844422
55.3250769
55.32171165
55.3183484
55.31498713
55.3116278
55.30827036
55.30491479
55.30156103
55.29820906
55.29485885
55.29151034
55.28816352
55.28481835
55.28147479
55.27813281
55.27479239
55.27145349
55.26811607
55.26478012
55.2614456
55.25811248
55.25478073
55.25145033
55.24812125
55.24479347
55.24146695
55.23814167
55.23481762
55.23149475
55.22817306
55.22485251
55.22153308
55.21821475
55.2148975
55.21158131
55.20826616
55.20495202
55.20163887
55.1983267
55.19501548
55.1917052
55.18839584
55.18508737
55.18177979
55.17847307
55.1751672
55.17186216
55.16855793
55.1652545
55.16195186
55.15864998
55.15534886
55.15204847
55.14874881
55.14544987
55.14215162
55.13885406
55.13555718
55.13226095
55.12896538
55.12567045
55.12237615
55.11908247
55.11578939
55.11249692
55.10920503
55.10591373
55.102623
55.09933283
55.09604321
55.09275414
55.08946561
55.08617761
55.08289014
55.07960318
55.07631673
55.07303078
55.06974532
55.06646036
55.06317587
55.05989186
55.05660832
55.05332524
55.05004261
55.04676043
55.04347869
55.04019738
55.03691651
55.03363605
55.030356
55.02707637
55.02379713
55.02051828
55.01723982
55.01396174
55.01068402
55.00740667
55.00412968
55.00085303
54.99757672
54.99430074
54.99102509
54.98774975
54.98447472
54.98119999
54.97792555
54.97465139
54.9713775
54.96810388
54.96483052
54.96155741
54.95828454
54.9550119
54.95173949
54.94846729
54.94519529
54.9419235
54.9386519
54.93538048
54.93210923
54.92883816
54.92556724
54.92229647
54.91902585
54.91575537
54.91248501
54.90921478
54.90594467
54.90267467
54.89940477
54.89613496
54.89286525
54.88959563
54.88632608
54.88305661
54.87978721
54.87651788
54.87324861
54.86997939
54.86671022
54.8634411
54.86017202
54.85690299
54.85363399
54.85036502
54.84709609
54.84382718
54.84055829
54.83728943
54.83402059
54.83075177
54.82748297
54.82421418
54.8209454
54.81767663
54.81440787
54.81113912
54.80787038
54.80460165
54.80133292
54.79806419
54.79479547
54.79152676
54.78825804
54.78498933
54.78172062
54.77845191
54.7751832
54.77191449
54.76864579
54.76537708
54.76210837
54.75883966
54.75557096
54.75230225
54.74903354
54.74576483
54.74249612
54.73922741
54.7359587
54.73268999
54.72942128
54.72615256
54.72288385
54.71961513
54.71634642
54.7130777
54.70980898
54.70654027
54.70327155
54.70000283
54.69673411
54.69346538
54.69019666
54.68692794
54.68365921
54.68039049
54.67712176
54.67385303
54.6705843
54.66731558
54.66404685
54.66077811
54.65750938
54.65424065
54.65097191
54.64770318
54.64443444
54.64116574
54.64116574
56.49812856
56.49812856
56.2527856
56.20529755
56.18347778
56.16836683
56.15600842
56.14505311
56.13491839
56.12531965
56.11610714
56.10719779
56.09854316
56.09011326
56.08188807
56.07385297
56.06599629
56.05830806
56.05077927
56.04340159
56.03616719
56.02906865
56.02209897
56.01525153
56.00852011
56.00189884
55.99538223
55.98896514
55.98264277
55.97641061
55.97026449
55.96420046
55.95821489
55.95230433
55.94646559
55.94069566
55.93499175
55.92935119
55.92377153
55.91825042
55.91278568
55.90737524
55.90201714
55.89670955
55.89145072
55.886239
55.88107283
55.87595073
55.87087128
55.86583314
55.86083505
55.8558758
55.85095421
55.84606919
55.84121969
55.83640469
55.83162323
55.82687439
55.82215729
55.81747107
55.81281492
55.80818806
55.80358973
55.79901922
55.79447582
55.78995887
55.78546772
55.78100174
55.77656033
55.77214291
55.76774892
55.76337782
55.75902908
55.75470219
55.75039666
55.74611201
55.74184777
55.73760351