# vtk DataFile Version 2.0
FlowField
ASCII
DATASET STRUCTURED_GRID
DIMENSIONS 400 1 200
POINTS 80000 float
0 0 0
0.08 0 0
0.16 0 0
0.24 0 0
0.32 0 0
0.4 0 0
0.48 0 0
0.56 0 0
0.64 0 0
0.72 0 0
0.8 0 0
0.88 0 0
0.96 0 0
1.04 0 0
1.12 0 0
1.2 0 0
1.28 0 0
1.36 0 0
1.44 0 0
1.52 0 0
1.6 0 0
1.68 0 0
1.76 0 0
1.84 0 0
1.92 0 0
2 0 0
2.08 0 0
2.16 0 0
2.24 0 0
2.32 0 0
2.4 0 0
2.48 0 0
2.56 0 0
2.64 0 0
2.72 0 0
2.8 0 0
2.88 0 0
2.96 0 0
3.04 0 0
3.12 0 0
3.2 0 0
3.28 0 0
3.36 0 0
3.44 0 0
3.52 0 0
3.6 0 0
3.68 0 0
3.76 0 0
3.84 0 0
3.92 0 0
4 0 0
4.08 0 0
4.16 0 0
4.24 0 0
4.32 0 0
4.4 0 0
4.48 0 0
4.56 0 0
4.64 0 0
4.72 0 0
4.8 0 0
4.88 0 0
4.96 0 0
5.04 0 0
5.12 0 0
5.2 0 0
5.28 0 0
5.36 0 0
5.44 0 0
5.52 0 0
5.6 0 0
5.68 0 0
5.76 0 0
5.84 0 0
5.92 0 0
6 0 0
6.08 0 0
6.16 0 0
6.24 0 0
6.32 0 0
6.4 0 0
6.48 0 0
6.56 0 0
6.64 0 0
6.72 0 0
6.8 0 0
6.88 0 0
6.96 0 0
7.04 0 0
7.12 0 0
7.2 0 0
7.28 0 0
7.36 0 0
7.44 0 0
7.52 0 0
7.6 0 0
7.68 0 0
7.76 0 0
7.84 0 0
7.92 0 0
8 0 0
8.08 0 0
8.16 0 0
8.24 0 0
8.32 0 0
8.4 0 0
8.48 0 0
8.56 0 0
8.64 0 0
8.72 0 0
8.8 0 0
8.88 0 0
8.96 0 0
9.04 0 0
9.12 0 0
9.2 0 0
9.28 0 0
9.36 0 0
9.44 0 0
9.52 0 0
9.6 0 0
9.68 0 0
9.76 0 0
9.84 0 0
9.92 0 0
10 0 0
10.08 0 0
10.16 0 0
10.24 0 0
10.32 0 0
10.4 0 0
10.48 0 0
10.56 0 0
10.64 0 0
10.72 0 0
10.8 0 0
10.88 0 0
10.96 0 0
11.04 0 0
11.12 0 0
11.2 0 0
11.28 0 0
11.36 0 0
11.44 0 0
11.52 0 0
11.6 0 0
11.68 0 0
11.76 0 0
11.84 0 0
11.92 0 0
12 0 0
12.08 0 0
12.16 0 0
12.24 0 0
12.32 0 0
12.4 0 0
12.48 0 0
12.56 0 0
12.64 0 0
12.72 0 0
12.8 0 0
12.88 0 0
12.96 0 0
13.04 0 0
13.12 0 0
13.2 0 0
13.28 0 0
13.36 0 0
13.44 0 0
13.52 0 0
13.6 0 0
13.68 0 0
13.76 0 0
13.84 0 0
13.92 0 0
14 0 0
14.08 0 0
14.16 0 0
14.24 0 0
14.32 0 0
14.4 0 0
14.48 0 0
14.56 0 0
14.64 0 0
14.72 0 0
14.8 0 0
14.88 0 0
14.96 0 0
15.04 0 0
15.12 0 0
15.2 0 0
15.28 0 0
15.36 0 0
15.44 0 0
15.52 0 0
15.6 0 0
15.68 0 0
15.76 0 0
15.84 0 0
15.92 0 0
16 0 0
16.08 0 0
16.16 0 0
16.24 0 0
16.32 0 0
16.4 0 0
16.48 0 0
16.56 0 0
16.64 0 0
16.72 0 0
16.8 0 0
16.88 0 0
16.96 0 0
17.04 0 0
17.12 0 0
17.2 0 0
17.28 0 0
17.36 0 0
17.44 0 0
17.52 0 0
17.6 0 0
17.68 0 0
17.76 0 0
17.84 0 0
17.92 0 0
18 0 0
18.08 0 0
18.16 0 0
18.24 0 0
18.32 0 0
18.4 0 0
18.48 0 0
18.56 0 0
18.64 0 0
18.72 0 0
18.8 0 0
18.88 0 0
18.96 0 0
19.04 0 0
19.12 0 0
19.2 0 0
19.28 0 0
19.36 0 0
19.44 0 0
19.52 0 0
19.6 0 0
19.68 0 0
19.76 0 0
19.84 0 0
19.92 0 0
20 0 0
20.08 0 0
20.16 0 0
20.24 0 0
20.32 0 0
20.4 0 0
20.48 0 0
20.56 0 0
20.64 0 0
20.72 0 0
20.8 0 0
20.88 0 0
20.96 0 0
21.04 0 0
21.12 0 0
21.2 0 0
21.28 0 0
21.36 0 0
21.44 0 0
21.52 0 0
21.6 0 0
21.68 0 0
21.76 0 0
21.84 0 0
21.92 0 0
22 0 0
22.08 0 0
22.16 0 0
22.24 0 0
22.32 0 0
22.4 0 0
22.48 0 0
22.56 0 0
22.64 0 0
22.72 0 0
22.8 0 0
22.88 0 0
22.96 0 0
23.04 0 0
23.12 0 0
23.2 0 0
23.28 0 0
23.36 0 0
23.44 0 0
23.52 0 0
23.6 0 0
23.68 0 0
23.76 0 0
23.84 0 0
23.92 0 0
24 0 0
24.08 0 0
24.16 0 0
24.24 0 0
24.32 0 0
24.4 0 0
24.48 0 0
24.56 0 0
24.64 0 0
24.72 0 0
24.8 0 0
24.88 0 0
24.96 0 0
25.04 0 0
25.12 0 0
25.2 0 0
25.28 0 0
25.36 0 0
25.44 0 0
25.52 0 0
25.6 0 0
25.68 0 0
25.76 0 0
25.84 0 0
25.92 0 0
26 0 0
26.08 0 0
26.16 0 0
26.24 0 0
26.32 0 0
26.4 0 0
26.48 0 0
26.56 0 0
26.64 0 0
26.72 0 0
26.8 0 0
26.88 0 0
26.96 0 0
27.04 0 0
27.12 0 0
27.2 0 0
27.28 0 0
27.36 0 0
27.44 0 0
27.52 0 0
27.6 0 0
27.68 0 0
27.76 0 0
27.84 0 0
27.92 0 0
28 0 0
28.08 0 0
28.16 0 0
28.24 0 0
28.32 0 0
28.4 0 0
28.48 0 0
28.56 0 0
28.64 0 0
28.72 0 0
28.8 0 0
28.88 0 0
28.96 0 0
29.04 0 0
29.12 0 0
29.2 0 0
29.28 0 0
29.36 0 0
29.44 0 0
29.52 0 0
29.6 0 0
29.68 0 0
29.76 0 0
29.84 0 0
29.92 0 0
30 0 0
30.08 0 0
30.16 0 0
30.24 0 0
30.32 0 0
30.4 0 0
30.48 0 0
30.56 0 0
30.64 0 0
30.72 0 0
30.8 0 0
30.88 0 0
30.96 0 0
31.04 0 0
31.12 0 0
31.2 0 0
31.28 0 0
31.36 0 0
31.44 0 0
31.52 0 0
31.6 0 0
31.68 0 0
31.76 0 0
31.84 0 0
31.92 0 0
0 0.005 0
0.08 0.005 0
0.16 0.005 0
0.24 0.005 0
0.32 0.005 0
0.4 0.005 0
0.48 0.005 0
0.56 0.005 0
0.64 0.005 0
0.72 0.005 0
0.8 0.005 0
0.88 0.005 0
0.96 0.005 0
1.04 0.005 0
1.12 0.005 0
1.2 0.005 0
1.28 0.005 0
1.36 0.005 0
1.44 0.005 0
1.52 0.005 0
1.6 0.005 0
1.68 0.005 0
1.76 0.005 0
1.84 0.005 0
1.92 0.005 0
2 0.005 0
2.08 0.005 0
2.16 0.005 0
2.24 0.005 0
2.32 0.005 0
2.4 0.005 0
2.48 0.005 0
2.56 0.005 0
2.64 0.005 0
2.72 0.005 0
2.8 0.005 0
2.88 0.005 0
2.96 0.005 0
3.04 0.005 0
3.12 0.005 0
3.2 0.005 0
3.28 0.005 0
3.36 0.005 0
3.44 0.005 0
3.52 0.005 0
3.6 0.005 0
3.68 0.005 0
3.76 0.005 0
3.84 0.005 0
3.92 0.005 0
4 0.005 0
4.08 0.005 0
4.16 0.005 0
4.24 0.005 0
4.32 0.005 0
4.4 0.005 0
4.48 0.005 0
4.56 0.005 0
4.64 0.005 0
4.72 0.005 0
4.8 0.005 0
4.88 0.005 0
4.96 0.005 0
5.04 0.005 0
5.12 0.005 0
5.2 0.005 0
5.28 0.005 0
5.36 0.005 0
5.44 0.005 0
5.52 0.005 0
5.6 0.005 0
5.68 0.005 0
5.76 0.005 0
5.84 0.005 0
5.92 0.005 0
6 0.005 0
6.08 0.005 0
6.16 0.005 0
6.24 0.005 0
6.32 0.005 0
6.4 0.005 0
6.48 0.005 0
6.56 0.005 0
6.64 0.005 0
6.72 0.005 0
6.8 0.005 0
6.88 0.005 0
6.96 0.005 0
7.04 0.005 0
7.12 0.005 0
7.2 0.005 0
7.28 0.005 0
7.36 0.005 0
7.44 0.005 0
7.52 0.005 0
7.6 0.005 0
7.68 0.005 0
7.76 0.005 0
7.84 0.005 0
7.92 0.005 0
8 0.005 0
8.08 0.005 0
8.16 0.005 0
8.24 0.005 0
8.32 0.005 0
8.4 0.005 0
8.48 0.005 0
8.56 0.005 0
8.64 0.005 0
8.72 0.005 0
8.8 0.005 0
8.88 0.005 0
8.96 0.005 0
9.04 0.005 0
9.12 0.005 0
9.2 0.005 0
9.28 0.005 0
9.36 0.005 0
9.44 0.005 0
9.52 0.005 0
9.6 0.005 0
9.68 0.005 0
9.76 0.005 0
9.84 0.005 0
9.92 0.005 0
10 0.005 0
10.08 0.005 0
10.16 0.005 0
10.24 0.005 0
10.32 0.005 0
10.4 0.005 0
10.48 0.005 0
10.56 0.005 0
10.64 0.005 0
10.72 0.005 0
10.8 0.005 0
10.88 0.005 0
10.96 0.005 0
11.04 0.005 0
11.12 0.005 0
11.2 0.005 0
11.28 0.005 0
11.36 0.005 0
11.44 0.005 0
11.52 0.005 0
11.6 0.005 0
11.68 0.005 0
11.76 0.005 0
11.84 0.005 0
11.92 0.005 0
12 0.005 0
12.08 0.005 0
12.16 0.005 0
12.24 0.005 0
12.32 0.005 0
12.4 0.005 0
12.48 0.005 0
12.56 0.005 0
12.64 0.005 0
12.72 0.005 0
12.8 0.005 0
12.88 0.005 0
12.96 0.005 0
13.04 0.005 0
13.12 0.005 0
13.2 0.005 0
13.28 0.005 0
13.36 0.005 0
13.44 0.005 0
13.52 0.005 0
13.6 0.005 0
13.68 0.005 0
13.76 0.005 0
13.84 0.005 0
13.92 0.005 0
14 0.005 0
14.08 0.005 0
14.16 0.005 0
14.24 0.005 0
14.32 0.005 0
14.4 0.005 0
14.48 0.005 0
14.56 0.005 0
14.64 0.005 0
14.72 0.005 0
14.8 0.005 0
14.88 0.005 0
14.96 0.005 0
15.04 0.005 0
15.12 0.005 0
15.2 0.005 0
15.28 0.005 0
15.36 0.005 0
15.44 0.005 0
15.52 0.005 0
15.6 0.005 0
15.68 0.005 0
15.76 0.005 0
15.84 0.005 0
15.92 0.005 0
16 0.005 0
16.08 0.005 0
16.16 0.005 0
16.24 0.005 0
16.32 0.005 0
16.4 0.005 0
16.48 0.005 0
16.56 0.005 0
16.64 0.005 0
16.72 0.005 0
16.8 0.005 0
16.88 0.005 0
16.96 0.005 0
17.04 0.005 0
17.12 0.005 0
17.2 0.005 0
17.28 0.005 0
17.36 0.005 0
17.44 0.005 0
17.52 0.005 0
17.6 0.005 0
17.68 0.005 0
17.76 0.005 0
17.84 0.005 0
17.92 0.005 0
18 0.005 0
18.08 0.005 0
18.16 0.005 0
18.24 0.005 0
18.32 0.005 0
18.4 0.005 0
18.48 0.005 0
18.56 0.005 0
18.64 0.005 0
18.72 0.005 0
18.8 0.005 0
18.88 0.005 0
18.96 0.005 0
19.04 0.005 0
19.12 0.005 0
19.2 0.005 0
19.28 0.005 0
19.36 0.005 0
19.44 0.005 0
19.52 0.005 0
19.6 0.005 0
19.68 0.005 0
19.76 0.005 0
19.84 0.005 0
19.92 0.005 0
20 0.005 0
20.08 0.005 0
20.16 0.005 0
20.24 0.005 0
20.32 0.005 0
20.4 0.005 0
20.48 0.005 0
20.56 0.005 0
20.64 0.005 0
20.72 0.005 0
20.8 0.005 0
20.88 0.005 0
20.96 0.005 0
21.04 0.005 0
21.12 0.005 0
21.2 0.005 0
21.28 0.005 0
21.36 0.005 0
21.44 0.005 0
21.52 0.005 0
21.6 0.005 0
21.68 0.005 0
21.76 0.005 0
21.84 0.005 0
21.92 0.005 0
22 0.005 0
22.08 0.005 0
22.16 0.005 0
22.24 0.005 0
22.32 0.005 0
22.4 0.005 0
22.48 0.005 0
22.56 0.005 0
22.64 0.005 0
22.72 0.005 0
22.8 0.005 0
22.88 0.005 0
22.96 0.005 0
23.04 0.005 0
23.12 0.005 0
23.2 0.005 0
23.28 0.005 0
23.36 0.005 0
23.44 0.005 0
23.52 0.005 0
23.6 0.005 0
23.68 0.005 0
23.76 0.005 0
23.84 0.005 0
23.92 0.005 0
24 0.005 0
24.08 0.005 0
24.16 0.005 0
24.24 0.005 0
24.32 0.005 0
24.4 0.005 0
24.48 0.005 0
24.56 0.005 0
24.64 0.005 0
24.72 0.005 0
24.8 0.005 0
24.88 0.005 0
24.96 0.005 0
25.04 0.005 0
25.12 0.005 0
25.2 0.005 0
25.28 0.005 0
25.36 0.005 0
25.44 0.005 0
25.52 0.005 0
25.6 0.005 0
25.68 0.005 0
25.76 0.005 0
25.84 0.005 0
25.92 0.005 0
26 0.005 0
26.08 0.005 0
26.16 0.005 0
26.24 0.005 0
26.32 0.005 0
26.4 0.005 0
26.48 0.005 0
26.56 0.005 0
26.64 0.005 0
26.72 0.005 0
26.8 0.005 0
26.88 0.005 0
26.96 0.005 0
27.04 0.005 0
27.12 0.005 0
27.2 0.005 0
27.28 0.005 0
27.36 0.005 0
27.44 0.005 0
27.52 0.005 0
27.6 0.005 0
27.68 0.005 0
27.76 0.005 0
27.84 0.005 0
27.92 0.005 0
28 0.005 0
28.08 0.005 0
28.16 0.005 0
28.24 0.005 0
28.32 0.005 0
28.4 0.005 0
28.48 0.005 0
28.56 0.005 0
28.64 0.005 0
28.72 0.005 0
28.8 0.005 0
28.88 0.005 0
28.96 0.005 0
29.04 0.005 0
29.12 0.005 0
29.2 0.005 0
29.28 0.005 0
29.36 0.005 0
29.44 0.005 0
29.52 0.005 0
29.6 0.005 0
29.68 0.005 0
29.76 0.005 0
29.84 0.005 0
29.92 0.005 0
30 0.005 0
30.08 0.005 0
30.16 0.005 0
30.24 0.005 0
30.32 0.005 0
30.4 0.005 0
30.48 0.005 0
30.56 0.005 0
30.64 0.005 0
30.72 0.005 0
30.8 0.005 0
30.88 0.005 0
30.96 0.005 0
31.04 0.005 0
31.12 0.005 0
31.2 0.005 0
31.28 0.005 0
31.36 0.005 0
31.44 0.005 0
31.52 0.005 0
31.6 0.005 0
31.68 0.005 0
31.76 0.005 0
31.84 0.005 0
31.92 0.005 0
0 0.01 0
0.08 0.01 0
0.16 0.01 0
0.24 0.01 0
0.32 0.01 0
0.4 0.01 0
0.48 0.01 0
0.56 0.01 0
0.64 0.01 0
0.72 0.01 0
0.8 0.01 0
0.88 0.01 0
0.96 0.01 0
1.04 0.01 0
1.12 0.01 0
1.2 0.01 0
1.28 0.01 0
1.36 0.01 0
1.44 0.01 0
1.52 0.01 0
1.6 0.01 0
1.68 0.01 0
1.76 0.01 0
1.84 0.01 0
1.92 0.01 0
2 0.01 0
2.08 0.01 0
2.16 0.01 0
2.24 0.01 0
2.32 0.01 0
2.4 0.01 0
2.48 0.01 0
2.56 0.01 0
2.64 0.01 0
2.72 0.01 0
2.8 0.01 0
2.88 0.01 0
2.96 0.01 0
3.04 0.01 0
3.12 0.01 0
3.2 0.01 0
3.28 0.01 0
3.36 0.01 0
3.44 0.01 0
3.52 0.01 0
3.6 0.01 0
3.68 0.01 0
3.76 0.01 0
3.84 0.01 0
3.92 0.01 0
4 0.01 0
4.08 0.01 0
4.16 0.01 0
4.24 0.01 0
4.32 0.01 0
4.4 0.01 0
4.48 0.01 0
4.56 0.01 0
4.64 0.01 0
4.72 0.01 0
4.8 0.01 0
4.88 0.01 0
4.96 0.01 0
5.04 0.01 0
5.12 0.01 0
[...]
POINT_DATA 80000

SCALARS u float 1
LOOKUP_TABLE default
0
-0.1316625612
-0.06826904124
-0.05229576561
-0.0444196016
-0.03957646119
-0.03625933943
-0.03383227255
-0.03197226856
-0.03049556686
-0.02928947571
-0.02828115454
-0.02742164064
-0.02667698207
-0.02602300911
-0.02544210951
-0.02492117071
-0.02445023179
-0.02402158115
-0.02362914156
-0.02326804412
-0.02293432848
-0.02262472886
-0.02233651888
-0.02206739749
-0.02181540372
-0.02157885212
-0.02135628316
-0.02114642451
-0.02094816048
-0.02076050759
-0.02058259476
-0.02041364719
-0.02025297299
-0.02009995209
-0.01995402695
-0.01981469468
-0.01968150041
-0.01955403152
-0.01943191285
-0.01931480239
-0.0192023877
-0.0190943827
-0.01899052494
-0.01889057313
-0.01879430507
-0.01870151573
-0.01861201564
-0.01852562939
-0.01844219437
-0.01836155958
-0.01828358463
-0.01820813876
-0.0181351001
-0.01806435484
-0.01799579664
-0.01792932596
-0.01786484956
-0.01780227998
-0.01774153511
-0.01768253779
-0.0176252154
-0.01756949959
-0.01751532589
-0.0174626335
-0.017411365
-0.01736146611
-0.0173128855
-0.01726557455
-0.0172194872
-0.01717457978
-0.01713081083
-0.01708814097
-0.01704653278
-0.01700595064
-0.01696636068
-0.01692773059
-0.01689002959
-0.01685322832
-0.01681729874
-0.01678221406
-0.01674794867
-0.01671447807
-0.01668177882
-0.01664982845
-0.01661860541
-0.01658808907
-0.01655825959
-0.01652909794
-0.01650058583
-0.01647270566
-0.01644544052
-0.01641877411
-0.01639269074
-0.0163671753
-0.01634221319
-0.01631779035
-0.01629389321
-0.01627050864
-0.01624762398
-0.01622522696
-0.01620330574
-0.01618184885
-0.01616084519
-0.016140284
-0.01612015485
-0.01610044765
-0.01608115259
-0.01606226018
-0.01604376117
-0.01602564661
-0.01600790779
-0.01599053625
-0.01597352378
-0.01595686237
-0.01594054425
-0.01592456185
-0.0159089078
-0.01589357494
-0.01587855627
-0.01586384499
-0.01584943448
-0.01583531827
-0.01582149005
-0.01580794369
-0.0157946732
-0.01578167271
-0.01576893653
-0.0157564591
-0.01574423497
-0.01573225883
-0.01572052551
-0.01570902993
-0.01569776716
-0.01568673236
-0.01567592081
-0.0156653279
-0.01565494911
-0.01564478002
-0.01563481634
-0.01562505385
-0.01561548841
-0.01560611599
-0.01559693266
-0.01558793455
-0.01557911788
-0.01557047896
-0.01556201418
-0.01555371998
-0.01554559292
-0.0155376296
-0.01552982669
-0.01552218096
-0.01551468923
-0.01550734836
-0.01550015533
-0.01549310714
-0.01548620086
-0.01547943364
-0.01547280266
-0.01546630519
-0.01545993853
-0.01545370004
-0.01544758715
-0.01544159732
-0.01543572808
-0.015429977
-0.01542434171
-0.01541881986
-0.01541340919
-0.01540810745
-0.01540291245
-0.01539782205
-0.01539283414
-0.01538794667
-0.01538315761
-0.01537846498
-0.01537386685
-0.0153693613
-0.01536494649
-0.01536062059
-0.0153563818
-0.01535222837
-0.01534815858
-0.01534417074
-0.01534026321
-0.01533643435
-0.01533268259
-0.01532900636
-0.01532540414
-0.01532187443
-0.01531841576
-0.01531502669
-0.01531170582
-0.01530845176
-0.01530526318
-0.01530213874
-0.01529907717
-0.01529607721
-0.01529313762
-0.01529025723
-0.01528743486
-0.0152846694
-0.01528195974
-0.01527930484
-0.01527670368
-0.01527415526
-0.01527165864
-0.01526921291
-0.0152668172
-0.01526447067
-0.01526217253
-0.01525992202
-0.01525771841
-0.01525556103
-0.01525344921
-0.01525138237
-0.0152493599
-0.01524738128
-0.01524544599
-0.01524355355
-0.01524170351
-0.01523989543
-0.01523812894
-0.01523640364
-0.01523471918
-0.01523307523
-0.01523147148
-0.0152299076
-0.01522838332
-0.01522689834
-0.01522545239
-0.0152240452
-0.0152226765
-0.015221346
-0.01522005344
-0.01521879854
-0.01521758099
-0.01521640051
-0.01521525678
-0.01521414948
-0.01521307826
-0.01521204276
-0.01521104261
-0.01521007741
-0.01520914673
-0.01520825016
-0.01520738722
-0.01520655743
-0.0152057603
-0.0152049953
-0.01520426188
-0.01520355947
-0.01520288749
-0.01520224534
-0.01520163239
-0.015201048
-0.01520049152
-0.01519996226
-0.01519945954
-0.01519898265
-0.01519853087
-0.01519810348
-0.01519769974
-0.01519731893
-0.01519696028
-0.01519662303
-0.01519630644
-0.01519600972
-0.01519573212
-0.01519547288
-0.01519523123
-0.01519500643
-0.01519479773
-0.0151946044
-0.01519442569
-0.01519426088
-0.01519410927
-0.01519397014
-0.01519384282
-0.01519372664
-0.01519362095
-0.01519352512
-0.01519343855
-0.01519336064
-0.01519329081
-0.01519322851
-0.0151931732
-0.01519312437
-0.01519308152
-0.01519304421
-0.01519301198
-0.01519298443
-0.01519296115
-0.01519294176
-0.01519292593
-0.0151929133
-0.01519290357
-0.01519289645
-0.01519289166
-0.01519288897
-0.01519288814
-0.01519288896
-0.01519289125
-0.01519289483
-0.01519289954
-0.01519290523
-0.01519291177
-0.01519291905
-0.01519292696
-0.0151929354
-0.0151929443
-0.01519295359
-0.01519296319
-0.01519297308
-0.01519298318
-0.01519299348
-0.01519300393
-0.01519301451
-0.01519302518
-0.01519303594
-0.01519304677
-0.01519305764
-0.01519306856
-0.01519307952
-0.0151930905
-0.0151931015
-0.01519311253
-0.01519312357
-0.01519313462
-0.01519314569
-0.01519315676
-0.01519316785
-0.01519317894
-0.01519319005
-0.01519320116
-0.01519321227
-0.0151932234
-0.01519323453
-0.01519324567
-0.01519325681
-0.01519326797
-0.01519327913
-0.0151932903
-0.01519330147
-0.01519331265
-0.01519332384
-0.01519333503
-0.01519334623
-0.01519335744
-0.01519336865
-0.01519337988
-0.0151933911
-0.01519340234
-0.01519341358
-0.01519342484
-0.01519343608
-0.01519344735
-0.01519345861
-0.0151934699
-0.01519348117
-0.01519349247
-0.01519350375
-0.01519351507
-0.01519352636
-0.01519353769
-0.01519354899
-0.01519356035
-0.01519357164
-0.01519358302
-0.01519359432
-0.01519360572
-0.01519361702
-0.01519362844
-0.01519363974
-0.01519365119
-0.01519366248
-0.01519367395
-0.01519368523
-0.01519369672
-0.015193708
-0.01519371951
-0.01519373078
-0.0151937423
-0.01519375358
-0.01519376508
-0.01519377642
-0.01519378784
-0.01519379934
-0.01519381057
-0.01519382246
-0.01519383325
-0.01519384609
-0.01519385577
-0.01519387087
-0.01519387682
-0.01519389708
-0.01519387729
-0.01519387729
-0.01519387729
1
0.1316625612
0.06826904124
0.05229576561
0.0444196016
0.03957646119
0.03625933943
0.03383227255
0.03197226856
0.03049556686
0.02928947571
0.02828115454
0.02742164064
0.02667698207
0.02602300911
0.02544210951
0.02492117071
0.02445023179
0.02402158115
0.02362914156
0.02326804412
0.02293432848
0.02262472886
0.02233651888
0.02206739749
0.02181540372
0.02157885212
0.02135628316
0.02114642451
0.02094816048
0.02076050759
0.02058259476
0.02041364719
0.02025297299
0.02009995209
0.01995402695
0.01981469468
0.01968150041
0.01955403152
0.01943191285
0.01931480239
0.0192023877
0.0190943827
0.01899052494
0.01889057313
0.01879430507
0.01870151573
0.01861201564
0.01852562939
0.01844219437
0.01836155958
0.01828358463
0.01820813876
0.0181351001
0.01806435484
0.01799579664
0.01792932596
0.01786484956
0.01780227998
0.01774153511
0.01768253779
0.0176252154
0.01756949959
0.01751532589
0.0174626335
0.017411365
0.01736146611
0.0173128855
0.01726557455
0.0172194872
0.01717457978
0.01713081083
0.01708814097
0.01704653278
0.01700595064
0.01696636068
0.01692773059
0.01689002959
0.01685322832
0.01681729874
0.01678221406
0.01674794867
0.01671447807
0.01668177882
0.01664982845
0.01661860541
0.01658808907
0.01655825959
0.01652909794
0.01650058583
0.01647270566
0.01644544052
0.01641877411
0.01639269074
0.0163671753
0.01634221319
0.01631779035
0.01629389321
0.01627050864
0.01624762398
0.01622522696
0.01620330574
0.01618184885
0.01616084519
0.016140284
0.01612015485
0.01610044765
0.01608115259
0.01606226018
0.01604376117
0.01602564661
0.01600790779
0.01599053625
0.01597352378
0.01595686237
0.01594054425
0.01592456185
0.0159089078
0.01589357494
0.01587855627
0.01586384499
0.01584943448
0.01583531827
0.01582149005
0.01580794369
0.0157946732
0.01578167271
0.01576893653
0.0157564591
0.01574423497
0.01573225883
0.01572052551
0.01570902993
0.01569776716
0.01568673236
0.01567592081
0.0156653279
0.01565494911
0.01564478002
0.01563481634
0.01562505385
0.01561548841
0.01560611599
0.01559693266
0.01558793455
0.01557911788
0.01557047896
0.01556201418
0.01555371998
0.01554559292
0.0155376296
0.01552982669
0.01552218096
0.01551468923
0.01550734836
0.01550015533
0.01549310714
0.01548620086
0.01547943364
0.01547280266
0.01546630519
0.01545993853
0.01545370004
0.01544758715
0.01544159732
0.01543572808
0.015429977
0.01542434171
0.01541881986
0.01541340919
0.01540810745
0.01540291245
0.01539782205
0.01539283414
0.01538794667
0.01538315761
0.01537846498
0.01537386685
0.0153693613
0.01536494649
0.01536062059
0.0153563818
0.01535222837
0.01534815858
0.01534417074
0.01534026321
0.01533643435
0.01533268259
0.01532900636
0.01532540414
0.01532187443
0.01531841576
0.01531502669
0.01531170582
0.01530845176
0.01530526318
0.01530213874
0.01529907717
0.01529607721
0.01529313762
0.01529025723
0.01528743486
0.0152846694
0.01528195974
0.01527930484
0.01527670368
0.01527415526
0.01527165864
0.01526921291
0.0152668172
0.01526447067
0.01526217253
0.01525992202
0.01525771841
0.01525556103
0.01525344921
0.01525138237
0.0152493599
0.01524738128
0.01524544599
0.01524355355
0.01524170351
0.01523989543
0.01523812894
0.01523640364
0.01523471918
0.01523307523
0.01523147148
0.0152299076
0.01522838332
0.01522689834
0.01522545239
0.0152240452
0.0152226765
0.015221346
0.01522005344
0.01521879854
0.01521758099
0.01521640051
0.01521525678
0.01521414948
0.01521307826
0.01521204276
0.01521104261
0.01521007741
0.01520914673
0.01520825016
0.01520738722
0.01520655743
0.0152057603
0.0152049953
0.01520426188
0.01520355947
0.01520288749
0.01520224534
0.01520163239
0.015201048
0.01520049152
0.01519996226
0.01519945954
0.01519898265
0.01519853087
0.01519810348
0.01519769974
0.01519731893
0.01519696028
0.01519662303
0.01519630644
0.01519600972
0.01519573212
0.01519547288
0.01519523123
0.01519500643
0.01519479773
0.0151946044
0.01519442569
0.01519426088
0.01519410927
0.01519397014
0.01519384282
0.01519372664
0.01519362095
0.01519352512
0.01519343855
0.01519336064
0.01519329081
0.01519322851
0.0151931732
0.01519312437
0.01519308152
0.01519304421
0.01519301198
0.01519298443
0.01519296115
0.01519294176
0.01519292593
0.0151929133
0.01519290357
0.01519289645
0.01519289166
0.01519288897
0.01519288814
0.01519288896
0.01519289125
0.01519289483
0.01519289954
0.01519290523
0.01519291177
0.01519291905
0.01519292696
0.0151929354
0.0151929443
0.01519295359
0.01519296319
0.01519297308
0.01519298318
0.01519299348
0.01519300393
0.01519301451
0.01519302518
0.01519303594
0.01519304677
0.01519305764
0.01519306856
0.01519307952
0.0151930905
0.0151931015
0.01519311253
0.01519312357
0.01519313462
0.01519314569
0.01519315676
0.01519316785
0.01519317894
0.01519319005
0.01519320116
0.01519321227
0.0151932234
0.01519323453
0.01519324567
0.01519325681
0.01519326797
0.01519327913
0.0151932903
0.01519330147
0.01519331265
0.01519332384
0.01519333503
0.01519334623
0.01519335744
0.01519336865
0.01519337988
0.0151933911
0.01519340234
0.01519341358
0.01519342484
0.01519343608
0.01519344735
0.01519345861
0.0151934699
0.01519348117
0.01519349247
0.01519350375
0.01519351507
0.01519352636
0.01519353769
0.01519354899
0.01519356035
0.01519357164
0.01519358302
0.01519359432
0.01519360572
0.01519361702
0.01519362844
0.01519363974
0.01519365119
0.01519366248
0.01519367395
0.01519368523
0.01519369672
0.015193708
0.01519371951
0.01519373078
0.0151937423
0.01519375358
0.01519376508
0.01519377642
0.01519378784
0.01519379934
0.01519381057
0.01519382246
0.01519383325
0.01519384609
0.01519385577
0.01519387087
0.01519387682
0.01519389708
0.01519387729
0.01519387729
0.01519387729
1
0.3448836509
0.2006672483
0.1549666329
0.131893871
0.1175978241
0.1077670899
0.1005571261
0.09502405882
0.09062810611
0.08703690781
0.08403490982
0.08147679733
0.07926155433
0.07731712017
0.07559089825
0.07404368226
0.07264566573
0.07137376396
0.07020978393
0.06913915342
0.06815002495
0.06723263472
0.06637883738
0.06558176327
0.06483556241
0.0641352104
0.06347635917
0.06285522073
0.0622684753
0.06171319795
0.06118679926
0.0606869769
0.06021167566
0.05975905428
0.0593274576
0.05891539311
0.05852151105
0.0581445874
0.05778350934
0.05743726265
0.05710492087
0.05678563585
0.05647862955
0.0561831868
0.05589864903
0.05562440866
0.05535990424
0.05510461606
0.05485806232
0.0546197957
0.05438940026
0.05416648877
0.05395070017
0.05374169744
0.05353916558
0.05334280984
0.05315235407
0.05296753931
0.05278812241
0.05261387487
0.05244458171
0.0522800405
0.05212006041
0.05196446143
0.05181307354
0.05166573608
0.05152229705
0.05138261254
0.05124654621
0.05111396876
0.05098475746
0.05085879577
0.0507359729
0.05061618346
0.05049932712
0.05038530831
0.05027403593
0.05016542303
0.05005938665
0.0499558475
0.0498547298
0.04975596103
0.04965947179
0.04956519559
0.04947306872
0.04938303004
0.0492950209
0.04920898496
0.04912486808
0.04904261823
0.04896218532
0.04888352115
0.0488065793
0.04873131503
0.04865768519
0.04858564816
0.04851516377
0.04844619321
0.048378699
0.04831264487
0.04824799579
0.04818471781
0.04812277811
0.04806214485
0.04800278723
0.04794467536
0.04788778025
0.04783207379
0.04777752868
0.04772411844
0.04767181731
0.04762060028
0.04757044306
0.04752132198
0.04747321407
0.04742609694
0.04737994883
0.04733474853
0.04729047539
0.0472471093
0.04720463067
0.0471630204
0.04712225986
0.04708233089
0.04704321579
0.04700489729
0.04696735851
0.04693058301
0.04689455473
0.04685925799
0.04682467747
0.04679079822
0.04675760563
0.04672508543
0.04669322366
0.0466620067
0.04663142122
0.0466014542
0.04657209291
0.04654332489
0.04651513797
0.04648752024
0.04646046004
0.04643394599
0.04640796693
0.04638251196
0.0463575704
0.04633313181
0.04630918595
0.04628572284
0.04626273266
0.04624020583
0.04621813297
0.04619650488
0.04617531256
0.04615454721
0.04613420019
0.04611426305
0.04609472752
0.0460755855
0.04605682904
0.04603845038
0.04602044188
0.0460027961
0.04598550572
0.04596856359
0.04595196269
0.04593569615
0.04591975724
0.04590413936
0.04588883605
0.04587384098
0.04585914794
0.04584475087
0.04583064379
0.04581682087
0.0458032764
0.04579000477
0.04577700048
0.04576425816
0.04575177252
0.0457395384
0.04572755071
0.0457158045
0.04570429489
0.04569301709
0.04568196644
0.04567113833
0.04566052826
0.04565013184
0.04563994472
0.04562996269
0.0456201816
0.0456105974
0.04560120612
0.04559200389
0.04558298693
0.04557415155
0.04556549415
0.04555701124
0.04554869943
0.04554055541
0.045532576
0.04552475811
0.04551709874
0.04550959505
0.04550224425
0.04549504371
0.04548799087
0.04548108333
0.04547431876
0.04546769495
0.04546120982
0.04545486138
0.04544864776
0.04544256718
0.04543661797
0.04543079856
0.04542510746
0.04541954328
0.0454141047
0.0454087905
0.04540359951
0.04539853065
0.04539358286
0.04538875518
0.04538404665
0.04537945638
0.0453749835
0.04537062717
0.04536638656
0.04536226084
0.04535824919
0.0453543508
0.0453505648
0.04534689035
0.04534332655
0.0453398725
0.04533652723
0.04533328974
0.04533015898
0.04532713385
0.04532421318
0.04532139576
0.04531868032
0.04531606552
0.04531354996
0.04531113218
0.04530881064
0.04530658375
0.04530444985
0.04530240722
0.04530045409
0.04529858864
0.045296809
0.04529511322
0.04529349932
0.04529196527
0.045290509
0.04528912838
0.04528782129
0.04528658555
0.04528541899
0.04528431938
0.04528328448
0.04528231205
0.04528139982
0.04528054551
0.04527974687
0.04527900163
0.04527830757
0.04527766245
0.04527706408
0.04527651027
0.04527599885
0.0452755277
0.04527509472
0.04527469784
0.04527433508
0.04527400448
0.04527370414
0.04527343223
0.04527318696
0.04527296659
0.04527276944
0.0452725939
0.04527243842
0.04527230149
0.04527218171
0.04527207774
0.0452719883
0.04527191218
0.04527184825
0.04527179541
0.04527175265
0.045271719
0.04527169357
0.04527167552
0.04527166409
0.04527165856
0.04527165829
0.04527166269
0.0452716712
0.04527168334
0.04527169864
0.0452717167
0.04527173714
0.04527175963
0.04527178387
0.0452718096
0.0452718366
0.04527186467
0.04527189363
0.04527192336
0.0452719537
0.04527198457
0.04527201586
0.0452720475
0.04527207941
0.04527211155
0.04527214387
0.04527217633
0.0452722089
0.04527224158
0.04527227433
0.04527230714
0.04527234001
0.04527237293
0.04527240588
0.04527243887
0.04527247189
0.04527250493
0.045272538
0.0452725711
0.04527260421
0.04527263735
0.04527267051
0.04527270369
0.04527273689
0.04527277011
0.04527280336
0.04527283662
0.04527286991
0.04527290321
0.04527293654
0.04527296988
0.04527300325
0.04527303662
0.04527307004
0.04527310346
0.04527313691
0.04527317037
0.04527320387
0.04527323736
0.0452732709
0.04527330443
0.04527333802
0.04527337158
0.04527340521
0.0452734388
0.04527347249
0.04527350611
0.04527353984
0.04527357348
0.04527360727
0.04527364094
0.04527367478
0.04527370846
0.04527374236
0.04527377605
0.04527381001
0.04527384371
0.04527387773
0.04527391142
0.04527394551
0.04527397919
0.04527401335
0.04527404701
0.04527408123
0.04527411487
0.04527414915
0.04527418277
0.04527421707
0.04527425073
0.04527428497
0.04527431878
0.04527435283
0.04527438706
0.04527442061
0.0452744559
0.04527448829
0.04527452615
0.04527455558
0.04527459955
0.04527461903
0.04527467651
0.04527462801
0.04527462801
0.04527462801
1
0.5187651892
0.327401199
0.2553467866
0.2178477744
0.1944026609
0.1782107505
0.1663061442
0.1571570677
0.1498824646
0.1439375675
0.1389678914
0.1347338055
0.1310683469
0.1278521864
0.124998096
0.122440982
0.1201313199
0.118030738
0.1161089916
0.1143418581
0.1127096501
0.1111961497
0.1097878341
0.1084733046
0.10724286
0.1060881726
0.1050020395
0.1039781884
0.1030111249
0.1020960098
0.1012285605
0.1004049705
0.09962184287
0.09887613479
0.09816511177
0.09748630849
0.09683749577
0.09621665244
0.09562194116
0.09505168763
0.09450436259
0.09397856621
0.09347301444
0.09298652716
0.09251801765
0.09206648349
0.09163099836
0.0912107049
0.09080480832
0.09041257075
0.09003330613
0.08966637574
0.08931118412
0.08896717543
0.08863383018
0.08831066228
0.08799721637
0.0876930654
0.08739780845
0.08711106872
0.08683249176
0.08656174377
0.08629851013
0.08604249403
0.08579341518
0.08555100868
0.08531502393
0.08508522369
0.08486138319
0.08464328925
0.08443073958
0.08422354202
0.08402151394
0.08382448161
0.08363227966
0.08344475053
0.08326174404
0.08308311689
0.0829087323
0.08273845958
0.08257217382
0.08240975549
0.08225109021
0.08209606838
0.08194458496
0.08179653921
0.08165183446
0.08151037784
0.08137208014
0.08123685557
0.08110462163
0.08097529885
0.08084881074
0.08072508356
0.08060404621
0.0804856301
0.08036976904
0.08025639907
0.08014545843
0.08003688738
0.07993062816
0.07982662487
0.0797248234
0.07962517133
0.07952761789
0.07943211384
0.07933861143
0.07924706436
0.07915742765
0.07906965765
0.07898371198
0.07889954944
0.07881712997
0.07873641464
0.0786573656
0.07857994598
0.07850411993
0.07842985253
0.07835710979
0.0782858586
0.07821606667
0.07814770257
0.07808073563
0.07801513597
0.07795087442
0.07788792254
0.07782625258
0.07776583746
0.07770665074
0.07764866662
0.07759185988
0.07753620591
0.07748168067
0.07742826067
0.07737592295
0.07732464509
0.07727440517
0.07722518174
0.07717695386
0.07712970104
0.07708340324
0.07703804088
0.0769935948
0.07695004623
0.07690737685
0.0768655687
0.07682460424
0.07678446627
0.07674513798
0.07670660292
0.07666884497
0.07663184837
0.07659559767
0.07656007776
0.07652527385
0.07649117144
0.07645775634
0.07642501467
0.07639293281
0.07636149743
0.07633069549
0.07630051421
0.07627094105
0.07624196376
0.07621357031
0.07618574895
0.07615848813
0.07613177657
0.07610560319
0.07607995716
0.07605482786
0.07603020487
0.076006078
0.07598243725
0.07595927285
0.07593657519
0.07591433488
0.0758925427
0.07587118963
0.07585026682
0.07582976559
0.07580967745
0.07578999406
0.07577070725
0.07575180903
0.07573329154
0.07571514708
0.07569736812
0.07567994727
0.07566287728
0.07564615106
0.07562976168
0.07561370232
0.07559796635
0.07558254726
0.0755674387
0.07555263449
0.07553812857
0.07552391508
0.07550998829
0.07549634265
0.07548297277
0.07546987345
0.07545703963
0.07544446647
0.07543214927
0.07542008354
0.07540826498
0.07539668944
0.07538535298
0.07537425185
0.07536338246
0.07535274142