# vtk DataFile Version 2.0
FlowField
ASCII
DATASET STRUCTURED_GRID
DIMENSIONS 400 1 200
POINTS 80000 float
0 0 0
0.08 0 0
0.16 0 0
0.24 0 0
0.32 0 0
0.4 0 0
0.48 0 0
0.56 0 0
0.64 0 0
0.72 0 0
0.8 0 0
0.88 0 0
0.96 0 0
1.04 0 0
1.12 0 0
1.2 0 0
1.28 0 0
1.36 0 0
1.44 0 0
1.52 0 0
1.6 0 0
1.68 0 0
1.76 0 0
1.84 0 0
1.92 0 0
2 0 0
2.08 0 0
2.16 0 0
2.24 0 0
2.32 0 0
2.4 0 0
2.48 0 0
2.56 0 0
2.64 0 0
2.72 0 0
2.8 0 0
2.88 0 0
2.96 0 0
3.04 0 0
3.12 0 0
3.2 0 0
3.28 0 0
3.36 0 0
3.44 0 0
3.52 0 0
3.6 0 0
3.68 0 0
3.76 0 0
3.84 0 0
3.92 0 0
4 0 0
4.08 0 0
4.16 0 0
4.24 0 0
4.32 0 0
4.4 0 0
4.48 0 0
4.56 0 0
4.64 0 0
4.72 0 0
4.8 0 0
4.88 0 0
4.96 0 0
5.04 0 0
5.12 0 0
5.2 0 0
5.28 0 0
5.36 0 0
5.44 0 0
5.52 0 0
5.6 0 0
5.68 0 0
5.76 0 0
5.84 0 0
5.92 0 0
6 0 0
6.08 0 0
6.16 0 0
6.24 0 0
6.32 0 0
6.4 0 0
6.48 0 0
6.56 0 0
6.64 0 0
6.72 0 0
6.8 0 0
6.88 0 0
6.96 0 0
7.04 0 0
7.12 0 0
7.2 0 0
7.28 0 0
7.36 0 0
7.44 0 0
7.52 0 0
7.6 0 0
7.68 0 0
7.76 0 0
7.84 0 0
7.92 0 0
8 0 0
8.08 0 0
8.16 0 0
8.24 0 0
8.32 0 0
8.4 0 0
8.48 0 0
8.56 0 0
8.64 0 0
8.72 0 0
8.8 0 0
8.88 0 0
8.96 0 0
9.04 0 0
9.12 0 0
9.2 0 0
9.28 0 0
9.36 0 0
9.44 0 0
9.52 0 0
9.6 0 0
9.68 0 0
9.76 0 0
9.84 0 0
9.92 0 0
10 0 0
10.08 0 0
10.16 0 0
10.24 0 0
10.32 0 0
10.4 0 0
10.48 0 0
10.56 0 0
10.64 0 0
10.72 0 0
10.8 0 0
10.88 0 0
10.96 0 0
11.04 0 0
11.12 0 0
11.2 0 0
11.28 0 0
11.36 0 0
11.44 0 0
11.52 0 0
11.6 0 0
11.68 0 0
11.76 0 0
11.84 0 0
11.92 0 0
12 0 0
12.08 0 0
12.16 0 0
12.24 0 0
12.32 0 0
12.4 0 0
12.48 0 0
12.56 0 0
12.64 0 0
12.72 0 0
12.8 0 0
12.88 0 0
12.96 0 0
13.04 0 0
13.12 0 0
13.2 0 0
13.28 0 0
13.36 0 0
13.44 0 0
13.52 0 0
13.6 0 0
13.68 0 0
13.76 0 0
13.84 0 0
13.92 0 0
14 0 0
14.08 0 0
14.16 0 0
14.24 0 0
14.32 0 0
14.4 0 0
14.48 0 0
14.56 0 0
14.64 0 0
14.72 0 0
14.8 0 0
14.88 0 0
14.96 0 0
15.04 0 0
15.12 0 0
15.2 0 0
15.28 0 0
15.36 0 0
15.44 0 0
15.52 0 0
15.6 0 0
15.68 0 0
15.76 0 0
15.84 0 0
15.92 0 0
16 0 0
16.08 0 0
16.16 0 0
16.24 0 0
16.32 0 0
16.4 0 0
16.48 0 0
16.56 0 0
16.64 0 0
16.72 0 0
16.8 0 0
16.88 0 0
16.96 0 0
17.04 0 0
17.12 0 0
17.2 0 0
17.28 0 0
17.36 0 0
17.44 0 0
17.52 0 0
17.6 0 0
17.68 0 0
17.76 0 0
17.84 0 0
17.92 0 0
18 0 0
18.08 0 0
18.16 0 0
18.24 0 0
18.32 0 0
18.4 0 0
18.48 0 0
18.56 0 0
18.64 0 0
18.72 0 0
18.8 0 0
18.88 0 0
18.96 0 0
19.04 0 0
19.12 0 0
19.2 0 0
19.28 0 0
19.36 0 0
19.44 0 0
19.52 0 0
19.6 0 0
19.68 0 0
19.76 0 0
19.84 0 0
19.92 0 0
20 0 0
20.08 0 0
20.16 0 0
20.24 0 0
20.32 0 0
20.4 0 0
20.48 0 0
20.56 0 0
20.64 0 0
20.72 0 0
20.8 0 0
20.88 0 0
20.96 0 0
21.04 0 0
21.12 0 0
21.2 0 0
21.28 0 0
21.36 0 0
21.44 0 0
21.52 0 0
21.6 0 0
21.68 0 0
21.76 0 0
21.84 0 0
21.92 0 0
22 0 0
22.08 0 0
22.16 0 0
22.24 0 0
22.32 0 0
22.4 0 0
22.48 0 0
22.56 0 0
22.64 0 0
22.72 0 0
22.8 0 0
22.88 0 0
22.96 0 0
23.04 0 0
23.12 0 0
23.2 0 0
23.28 0 0
23.36 0 0
23.44 0 0
23.52 0 0
23.6 0 0
23.68 0 0
23.76 0 0
23.84 0 0
23.92 0 0
24 0 0
24.08 0 0
24.16 0 0
24.24 0 0
24.32 0 0
24.4 0 0
24.48 0 0
24.56 0 0
24.64 0 0
24.72 0 0
24.8 0 0
24.88 0 0
24.96 0 0
25.04 0 0
25.12 0 0
25.2 0 0
25.28 0 0
25.36 0 0
25.44 0 0
25.52 0 0
25.6 0 0
25.68 0 0
25.76 0 0
25.84 0 0
25.92 0 0
26 0 0
26.08 0 0
26.16 0 0
26.24 0 0
26.32 0 0
26.4 0 0
26.48 0 0
26.56 0 0
26.64 0 0
26.72 0 0
26.8 0 0
26.88 0 0
26.96 0 0
27.04 0 0
27.12 0 0
27.2 0 0
27.28 0 0
27.36 0 0
27.44 0 0
27.52 0 0
27.6 0 0
27.68 0 0
27.76 0 0
27.84 0 0
27.92 0 0
28 0 0
28.08 0 0
28.16 0 0
28.24 0 0
28.32 0 0
28.4 0 0
28.48 0 0
28.56 0 0
28.64 0 0
28.72 0 0
28.8 0 0
28.88 0 0
28.96 0 0
29.04 0 0
29.12 0 0
29.2 0 0
29.28 0 0
29.36 0 0
29.44 0 0
29.52 0 0
29.6 0 0
29.68 0 0
29.76 0 0
29.84 0 0
29.92 0 0
30 0 0
30.08 0 0
30.16 0 0
30.24 0 0
30.32 0 0
30.4 0 0
30.48 0 0
30.56 0 0
30.64 0 0
30.72 0 0
30.8 0 0
30.88 0 0
30.96 0 0
31.04 0 0
31.12 0 0
31.2 0 0
31.28 0 0
31.36 0 0
31.44 0 0
31.52 0 0
31.6 0 0
31.68 0 0
31.76 0 0
31.84 0 0
31.92 0 0
0 0.005 0
0.08 0.005 0
0.16 0.005 0
0.24 0.005 0
0.32 0.005 0
0.4 0.005 0
0.48 0.005 0
0.56 0.005 0
0.64 0.005 0
0.72 0.005 0
0.8 0.005 0
0.88 0.005 0
0.96 0.005 0
1.04 0.005 0
1.12 0.005 0
1.2 0.005 0
1.28 0.005 0
1.36 0.005 0
1.44 0.005 0
1.52 0.005 0
1.6 0.005 0
1.68 0.005 0
1.76 0.005 0
1.84 0.005 0
1.92 0.005 0
2 0.005 0
2.08 0.005 0
2.16 0.005 0
2.24 0.005 0
2.32 0.005 0
2.4 0.005 0
2.48 0.005 0
2.56 0.005 0
2.64 0.005 0
2.72 0.005 0
2.8 0.005 0
2.88 0.005 0
2.96 0.005 0
3.04 0.005 0
3.12 0.005 0
3.2 0.005 0
3.28 0.005 0
3.36 0.005 0
3.44 0.005 0
3.52 0.005 0
3.6 0.005 0
3.68 0.005 0
3.76 0.005 0
3.84 0.005 0
3.92 0.005 0
4 0.005 0
4.08 0.005 0
4.16 0.005 0
4.24 0.005 0
4.32 0.005 0
4.4 0.005 0
4.48 0.005 0
4.56 0.005 0
4.64 0.005 0
4.72 0.005 0
4.8 0.005 0
4.88 0.005 0
4.96 0.005 0
5.04 0.005 0
5.12 0.005 0
5.2 0.005 0
5.28 0.005 0
5.36 0.005 0
5.44 0.005 0
5.52 0.005 0
5.6 0.005 0
5.68 0.005 0
5.76 0.005 0
5.84 0.005 0
5.92 0.005 0
6 0.005 0
6.08 0.005 0
6.16 0.005 0
6.24 0.005 0
6.32 0.005 0
6.4 0.005 0
6.48 0.005 0
6.56 0.005 0
6.64 0.005 0
6.72 0.005 0
6.8 0.005 0
6.88 0.005 0
6.96 0.005 0
7.04 0.005 0
7.12 0.005 0
7.2 0.005 0
7.28 0.005 0
7.36 0.005 0
7.44 0.005 0
7.52 0.005 0
7.6 0.005 0
7.68 0.005 0
7.76 0.005 0
7.84 0.005 0
7.92 0.005 0
8 0.005 0
8.08 0.005 0
8.16 0.005 0
8.24 0.005 0
8.32 0.005 0
8.4 0.005 0
8.48 0.005 0
8.56 0.005 0
8.64 0.005 0
8.72 0.005 0
8.8 0.005 0
8.88 0.005 0
8.96 0.005 0
9.04 0.005 0
9.12 0.005 0
9.2 0.005 0
9.28 0.005 0
9.36 0.005 0
9.44 0.005 0
9.52 0.005 0
9.6 0.005 0
9.68 0.005 0
9.76 0.005 0
9.84 0.005 0
9.92 0.005 0
10 0.005 0
10.08 0.005 0
10.16 0.005 0
10.24 0.005 0
10.32 0.005 0
10.4 0.005 0
10.48 0.005 0
10.56 0.005 0
10.64 0.005 0
10.72 0.005 0
10.8 0.005 0
10.88 0.005 0
10.96 0.005 0
11.04 0.005 0
11.12 0.005 0
11.2 0.005 0
11.28 0.005 0
11.36 0.005 0
11.44 0.005 0
11.52 0.005 0
11.6 0.005 0
11.68 0.005 0
11.76 0.005 0
11.84 0.005 0
11.92 0.005 0
12 0.005 0
12.08 0.005 0
12.16 0.005 0
12.24 0.005 0
12.32 0.005 0
12.4 0.005 0
12.48 0.005 0
12.56 0.005 0
12.64 0.005 0
12.72 0.005 0
12.8 0.005 0
12.88 0.005 0
12.96 0.005 0
13.04 0.005 0
13.12 0.005 0
13.2 0.005 0
13.28 0.005 0
13.36 0.005 0
13.44 0.005 0
13.52 0.005 0
13.6 0.005 0
13.68 0.005 0
13.76 0.005 0
13.84 0.005 0
13.92 0.005 0
14 0.005 0
14.08 0.005 0
14.16 0.005 0
14.24 0.005 0
14.32 0.005 0
14.4 0.005 0
14.48 0.005 0
14.56 0.005 0
14.64 0.005 0
14.72 0.005 0
14.8 0.005 0
14.88 0.005 0
14.96 0.005 0
15.04 0.005 0
15.12 0.005 0
15.2 0.005 0
15.28 0.005 0
15.36 0.005 0
15.44 0.005 0
15.52 0.005 0
15.6 0.005 0
15.68 0.005 0
15.76 0.005 0
15.84 0.005 0
15.92 0.005 0
16 0.005 0
16.08 0.005 0
16.16 0.005 0
16.24 0.005 0
16.32 0.005 0
16.4 0.005 0
16.48 0.005 0
16.56 0.005 0
16.64 0.005 0
16.72 0.005 0
16.8 0.005 0
16.88 0.005 0
16.96 0.005 0
17.04 0.005 0
17.12 0.005 0
17.2 0.005 0
17.28 0.005 0
17.36 0.005 0
17.44 0.005 0
17.52 0.005 0
17.6 0.005 0
17.68 0.005 0
17.76 0.005 0
17.84 0.005 0
17.92 0.005 0
18 0.005 0
18.08 0.005 0
18.16 0.005 0
18.24 0.005 0
18.32 0.005 0
18.4 0.005 0
18.48 0.005 0
18.56 0.005 0
18.64 0.005 0
18.72 0.005 0
18.8 0.005 0
18.88 0.005 0
18.96 0.005 0
19.04 0.005 0
19.12 0.005 0
19.2 0.005 0
19.28 0.005 0
19.36 0.005 0
19.44 0.005 0
19.52 0.005 0
19.6 0.005 0
19.68 0.005 0
19.76 0.005 0
19.84 0.005 0
19.92 0.005 0
20 0.005 0
20.08 0.005 0
20.16 0.005 0
20.24 0.005 0
20.32 0.005 0
20.4 0.005 0
20.48 0.005 0
20.56 0.005 0
20.64 0.005 0
20.72 0.005 0
20.8 0.005 0
20.88 0.005 0
20.96 0.005 0
21.04 0.005 0
21.12 0.005 0
21.2 0.005 0
21.28 0.005 0
21.36 0.005 0
21.44 0.005 0
21.52 0.005 0
21.6 0.005 0
21.68 0.005 0
21.76 0.005 0
21.84 0.005 0
21.92 0.005 0
22 0.005 0
22.08 0.005 0
22.16 0.005 0
22.24 0.005 0
22.32 0.005 0
22.4 0.005 0
22.48 0.005 0
22.56 0.005 0
22.64 0.005 0
22.72 0.005 0
22.8 0.005 0
22.88 0.005 0
22.96 0.005 0
23.04 0.005 0
23.12 0.005 0
23.2 0.005 0
23.28 0.005 0
23.36 0.005 0
23.44 0.005 0
23.52 0.005 0
23.6 0.005 0
23.68 0.005 0
23.76 0.005 0
23.84 0.005 0
23.92 0.005 0
24 0.005 0
24.08 0.005 0
24.16 0.005 0
24.24 0.005 0
24.32 0.005 0
24.4 0.005 0
24.48 0.005 0
24.56 0.005 0
24.64 0.005 0
24.72 0.005 0
24.8 0.005 0
24.88 0.005 0
24.96 0.005 0
25.04 0.005 0
25.12 0.005 0
25.2 0.005 0
25.28 0.005 0
25.36 0.005 0
25.44 0.005 0
25.52 0.005 0
25.6 0.005 0
25.68 0.005 0
25.76 0.005 0
25.84 0.005 0
25.92 0.005 0
26 0.005 0
26.08 0.005 0
26.16 0.005 0
26.24 0.005 0
26.32 0.005 0
26.4 0.005 0
26.48 0.005 0
26.56 0.005 0
26.64 0.005 0
26.72 0.005 0
26.8 0.005 0
26.88 0.005 0
26.96 0.005 0
27.04 0.005 0
27.12 0.005 0
27.2 0.005 0
27.28 0.005 0
27.36 0.005 0
27.44 0.005 0
27.52 0.005 0
27.6 0.005 0
27.68 0.005 0
27.76 0.005 0
27.84 0.005 0
27.92 0.005 0
28 0.005 0
28.08 0.005 0
28.16 0.005 0
28.24 0.005 0
28.32 0.005 0
28.4 0.005 0
28.48 0.005 0
28.56 0.005 0
28.64 0.005 0
28.72 0.005 0
28.8 0.005 0
28.88 0.005 0
28.96 0.005 0
29.04 0.005 0
29.12 0.005 0
29.2 0.005 0
29.28 0.005 0
29.36 0.005 0
29.44 0.005 0
29.52 0.005 0
29.6 0.005 0
29.68 0.005 0
29.76 0.005 0
29.84 0.005 0
29.92 0.005 0
30 0.005 0
30.08 0.005 0
30.16 0.005 0
30.24 0.005 0
30.32 0.005 0
30.4 0.005 0
30.48 0.005 0
30.56 0.005 0
30.64 0.005 0
30.72 0.005 0
30.8 0.005 0
30.88 0.005 0
30.96 0.005 0
31.04 0.005 0
31.12 0.005 0
31.2 0.005 0
31.28 0.005 0
31.36 0.005 0
31.44 0.005 0
31.52 0.005 0
31.6 0.005 0
31.68 0.005 0
31.76 0.005 0
31.84 0.005 0
31.92 0.005 0
0 0.01 0
0.08 0.01 0
0.16 0.01 0
0.24 0.01 0
0.32 0.01 0
0.4 0.01 0
0.48 0.01 0
0.56 0.01 0
0.64 0.01 0
0.72 0.01 0
0.8 0.01 0
0.88 0.01 0
0.96 0.01 0
1.04 0.01 0
1.12 0.01 0
1.2 0.01 0
1.28 0.01 0
1.36 0.01 0
1.44 0.01 0
1.52 0.01 0
1.6 0.01 0
1.68 0.01 0
1.76 0.01 0
1.84 0.01 0
1.92 0.01 0
2 0.01 0
2.08 0.01 0
2.16 0.01 0
2.24 0.01 0
2.32 0.01 0
2.4 0.01 0
2.48 0.01 0
2.56 0.01 0
2.64 0.01 0
2.72 0.01 0
2.8 0.01 0
2.88 0.01 0
2.96 0.01 0
3.04 0.01 0
3.12 0.01 0
3.2 0.01 0
3.28 0.01 0
3.36 0.01 0
3.44 0.01 0
3.52 0.01 0
3.6 0.01 0
3.68 0.01 0
3.76 0.01 0
3.84 0.01 0
3.92 0.01 0
4 0.01 0
4.08 0.01 0
4.16 0.01 0
4.24 0.01 0
4.32 0.01 0
4.4 0.01 0
4.48 0.01 0
4.56 0.01 0
4.64 0.01 0
4.72 0.01 0
4.8 0.01 0
4.88 0.01 0
4.96 0.01 0
5.04 0.01 0
5.12 0.01 0
[...]
POINT_DATA 80000

SCALARS p float 1
LOOKUP_TABLE default
1
56.55177156
56.25003641
56.20887651
56.18878642
56.17436738
56.16236631
56.15162279
56.14162455
56.13211885
56.12297244
56.1141116
56.10549358
56.09709196
56.0888891
56.08087195
56.07302998
56.06535398
56.0578355
56.05046661
56.04323979
56.03614785
56.02918396
56.02234164
56.01561476
56.00899756
56.00248461
55.99607082
55.98975143
55.98352199
55.97737834
55.97131659
55.96533309
55.95942445
55.95358747
55.94781917
55.94211676
55.93647761
55.93089924
55.92537935
55.91991574
55.91450635
55.90914924
55.90384258
55.89858461
55.89337371
55.88820831
55.88308693
55.87800816
55.87297067
55.86797319
55.86301451
55.85809347
55.85320897
55.84835996
55.84354543
55.83876442
55.834016
55.8292993
55.82461347
55.81995769
55.81533118
55.81073319
55.806163
55.80161991
55.79710326
55.79261239
55.78814668
55.78370554
55.77928837
55.77489463
55.77052376
55.76617525
55.76184858
55.75754325
55.75325881
55.74899477
55.7447507
55.74052615
55.7363207
55.73213394
55.72796548
55.72381492
55.71968189
55.71556601
55.71146693
55.7073843
55.70331779
55.69926705
55.69523176
55.69121162
55.68720632
55.68321554
55.67923901
55.67527644
55.67132754
55.66739204
55.66346968
55.6595602
55.65566334
55.65177886
55.64790651
55.64404605
55.64019725
55.63635988
55.63253372
55.62871856
55.62491417
55.62112036
55.61733691
55.61356364
55.60980034
55.60604683
55.60230292
55.59856843
55.5948432
55.59112704
55.58741981
55.58372134
55.58003148
55.5763501
55.57267704
55.5690122
55.56535544
55.56170666
55.55806575
55.5544326
55.55080713
55.54718926
55.5435789
55.53997597
55.53638043
55.53279219
55.52921119
55.52563738
55.52207069
55.51851107
55.51495847
55.51141282
55.50787406
55.50434213
55.50081697
55.49729851
55.49378668
55.4902814
55.4867826
55.4832902
55.4798041
55.47632423
55.47285048
55.46938274
55.46592093
55.46246493
55.45901462
55.4555699
55.45213065
55.44869675
55.44526806
55.44184446
55.43842581
55.43501197
55.43160281
55.4281982
55.424798
55.42140207
55.41801026
55.41462244
55.41123846
55.40785817
55.40448142
55.40110807
55.39773799
55.39437104
55.39100709
55.38764599
55.38428762
55.38093183
55.37757848
55.37422745
55.3708786
55.3675318
55.36418695
55.36084393
55.35750262
55.35416291
55.35082469
55.34748786
55.34415229
55.3408179
55.33748458
55.33415224
55.3308208
55.32749018
55.32416031
55.3208311
55.3175025
55.31417443
55.31084683
55.30751963
55.30419277
55.3008662
55.29753987
55.29421374
55.29088777
55.28756193
55.2842362
55.28091055
55.27758496
55.27425942
55.27093392
55.26760843
55.26428296
55.26095749
55.25763202
55.25430654
55.25098106
55.24765557
55.24433007
55.24100456
55.23767903
55.23435349
55.23102795
55.22770238
55.22437681
55.22105122
55.21772562
55.21440001
55.21107438
55.20774874
55.20442308
55.20109742
55.19777173
55.19444604
55.19112033
55.18779461
55.18446887
55.18114312
55.17781735
55.17449158
55.17116579
55.16783998
55.16451416
55.16118833
55.15786249
55.15453663
55.15121075
55.14788487
55.14455896
55.14123305
55.13790712
55.13458118
55.13125522
55.12792925
55.12460327
55.12127727
55.11795126
55.11462523
55.11129919
55.10797314
55.10464707
55.10132099
55.0979949
55.09466879
55.09134266
55.08801653
55.08469037
55.08136421
55.07803803
55.07471183
55.07138563
55.0680594
55.06473317
55.06140692
55.05808065
55.05475437
55.05142808
55.04810177
55.04477545
55.04144912
55.03812277
55.0347964
55.03147003
55.02814363
55.02481723
55.0214908
55.01816437
55.01483792
55.01151145
55.00818497
55.00485848
55.00153197
54.99820545
54.99487891
54.99155236
54.9882258
54.98489922
54.98157262
54.97824601
54.97491939
54.97159275
54.9682661
54.96493943
54.96161275
54.95828605
54.95495934
54.95163261
54.94830587
54.94497912
54.94165235
54.93832556
54.93499876
54.93167195
54.92834512
54.92501827
54.92169141
54.91836454
54.91503765
54.91171075
54.90838383
54.9050569
54.90172995
54.89840299
54.89507601
54.89174902
54.88842201
54.88509499
54.88176795
54.8784409
54.87511383
54.87178675
54.86845965
54.86513254
54.86180541
54.85847827
54.85515111
54.85182393
54.84849675
54.84516954
54.84184232
54.83851509
54.83518784
54.83186058
54.8285333
54.825206
54.82187869
54.81855137
54.81522403
54.81189667
54.8085693
54.80524192
54.80191451
54.7985871
54.79525966
54.79193222
54.78860475
54.78527728
54.78194978
54.77862227
54.77529475
54.77196721
54.76863965
54.76531208
54.76198449
54.75865689
54.75532927
54.75200164
54.74867399
54.74534632
54.74201864
54.73869095
54.73536323
54.73203551
54.72870776
54.72538001
54.72205223
54.71872444
54.71539664
54.71206881
54.70874098
54.70541312
54.70208525
54.69875737
54.69542947
54.69210156
54.68877362
54.68544568
54.68211771
54.67878973
54.67546174
54.67213373
54.6688057
54.66547765
54.6621496
54.6588215
54.65549344
54.65216527
54.64883723
54.64550893
54.64218148
0.5
56.55177156
56.55177156
56.25003641
56.20887651
56.18878642
56.17436738
56.16236631
56.15162279
56.14162455
56.13211885
56.12297244
56.1141116
56.10549358
56.09709196
56.0888891
56.08087195
56.07302998
56.06535398
56.0578355
56.05046661
56.04323979
56.03614785
56.02918396
56.02234164
56.01561476
56.00899756
56.00248461
55.99607082
55.98975143
55.98352199
55.97737834
55.97131659
55.96533309
55.95942445
55.95358747
55.94781917
55.94211676
55.93647761
55.93089924
55.92537935
55.91991574
55.91450635
55.90914924
55.90384258
55.89858461
55.89337371
55.88820831
55.88308693
55.87800816
55.87297067
55.86797319
55.86301451
55.85809347
55.85320897
55.84835996
55.84354543
55.83876442
55.834016
55.8292993
55.82461347
55.81995769
55.81533118
55.81073319
55.806163
55.80161991
55.79710326
55.79261239
55.78814668
55.78370554
55.77928837
55.77489463
55.77052376
55.76617525
55.76184858
55.75754325
55.75325881
55.74899477
55.7447507
55.74052615
55.7363207
55.73213394
55.72796548
55.72381492
55.71968189
55.71556601
55.71146693
55.7073843
55.70331779
55.69926705
55.69523176
55.69121162
55.68720632
55.68321554
55.67923901
55.67527644
55.67132754
55.66739204
55.66346968
55.6595602
55.65566334
55.65177886
55.64790651
55.64404605
55.64019725
55.63635988
55.63253372
55.62871856
55.62491417
55.62112036
55.61733691
55.61356364
55.60980034
55.60604683
55.60230292
55.59856843
55.5948432
55.59112704
55.58741981
55.58372134
55.58003148
55.5763501
55.57267704
55.5690122
55.56535544
55.56170666
55.55806575
55.5544326
55.55080713
55.54718926
55.5435789
55.53997597
55.53638043
55.53279219
55.52921119
55.52563738
55.52207069
55.51851107
55.51495847
55.51141282
55.50787406
55.50434213
55.50081697
55.49729851
55.49378668
55.4902814
55.4867826
55.4832902
55.4798041
55.47632423
55.47285048
55.46938274
55.46592093
55.46246493
55.45901462
55.4555699
55.45213065
55.44869675
55.44526806
55.44184446
55.43842581
55.43501197
55.43160281
55.4281982
55.424798
55.42140207
55.41801026
55.41462244
55.41123846
55.40785817
55.40448142
55.40110807
55.39773799
55.39437104
55.39100709
55.38764599
55.38428762
55.38093183
55.37757848
55.37422745
55.3708786
55.3675318
55.36418695
55.36084393
55.35750262
55.35416291
55.35082469
55.34748786
55.34415229
55.3408179
55.33748458
55.33415224
55.3308208
55.32749018
55.32416031
55.3208311
55.3175025
55.31417443
55.31084683
55.30751963
55.30419277
55.3008662
55.29753987
55.29421374
55.29088777
55.28756193
55.2842362
55.28091055
55.27758496
55.27425942
55.27093392
55.26760843
55.26428296
55.26095749
55.25763202
55.25430654
55.25098106
55.24765557
55.24433007
55.24100456
55.23767903
55.23435349
55.23102795
55.22770238
55.22437681
55.22105122
55.21772562
55.21440001
55.21107438
55.20774874
55.20442308
55.20109742
55.19777173
55.19444604
55.19112033
55.18779461
55.18446887
55.18114312
55.17781735
55.17449158
55.17116579
55.16783998
55.16451416
55.16118833
55.15786249
55.15453663
55.15121075
55.14788487
55.14455896
55.14123305
55.13790712
55.13458118
55.13125522
55.12792925
55.12460327
55.12127727
55.11795126
55.11462523
55.11129919
55.10797314
55.10464707
55.10132099
55.0979949
55.09466879
55.09134266
55.08801653
55.08469037
55.08136421
55.07803803
55.07471183
55.07138563
55.0680594
55.06473317
55.06140692
55.05808065
55.05475437
55.05142808
55.04810177
55.04477545
55.04144912
55.03812277
55.0347964
55.03147003
55.02814363
55.02481723
55.0214908
55.01816437
55.01483792
55.01151145
55.00818497
55.00485848
55.00153197
54.99820545
54.99487891
54.99155236
54.9882258
54.98489922
54.98157262
54.97824601
54.97491939
54.97159275
54.9682661
54.96493943
54.96161275
54.95828605
54.95495934
54.95163261
54.94830587
54.94497912
54.94165235
54.93832556
54.93499876
54.93167195
54.92834512
54.92501827
54.92169141
54.91836454
54.91503765
54.91171075
54.90838383
54.9050569
54.90172995
54.89840299
54.89507601
54.89174902
54.88842201
54.88509499
54.88176795
54.8784409
54.87511383
54.87178675
54.86845965
54.86513254
54.86180541
54.85847827
54.85515111
54.85182393
54.84849675
54.84516954
54.84184232
54.83851509
54.83518784
54.83186058
54.8285333
54.825206
54.82187869
54.81855137
54.81522403
54.81189667
54.8085693
54.80524192
54.80191451
54.7985871
54.79525966
54.79193222
54.78860475
54.78527728
54.78194978
54.77862227
54.77529475
54.77196721
54.76863965
54.76531208
54.76198449
54.75865689
54.75532927
54.75200164
54.74867399
54.74534632
54.74201864
54.73869095
54.73536323
54.73203551
54.72870776
54.72538001
54.72205223
54.71872444
54.71539664
54.71206881
54.70874098
54.70541312
54.70208525
54.69875737
54.69542947
54.69210156
54.68877362
54.68544568
54.68211771
54.67878973
54.67546174
54.67213373
54.6688057
54.66547765
54.6621496
54.6588215
54.65549344
54.65216527
54.64883723
54.64550893
54.64218148
54.64218148
56.53718981
56.53718981
56.25387228
56.21013192
56.18942166
56.17476189
56.162638
56.15182223
56.14177768
56.13224054
56.12307185
56.1141947
56.10556437
56.09715325
56.08894287
56.08091968
56.07307275
56.06539261
56.05787063
56.05049876
56.04326935
56.03617516
56.02920928
56.0223652
56.01563676
56.00901815
56.00250393
55.99608899
55.98976856
55.98353818
55.97739366
55.9713311
55.96534687
55.95943755
55.95359995
55.94783107
55.94212812
55.93648846
55.93090963
55.9253893
55.91992528
55.91451551
55.90915804
55.90385104
55.89859275
55.89338155
55.88821586
55.88309421
55.87801519
55.87297746
55.86797975
55.86302085
55.85809961
55.85321491
55.84836571
55.843551
55.83876982
55.83402125
55.82930439
55.82461841
55.81996249
55.81533584
55.81073772
55.8061674
55.80162419
55.79710742
55.79261644
55.78815063
55.78370938
55.77929212
55.77489828
55.77052732
55.76617871
55.76185195
55.75754655
55.75326202
55.74899791
55.74475376
55.74052913
55.73632362
55.73213679
55.72796826
55.72381764
55.71968454
55.7155686
55.71146946
55.70738678
55.7033202
55.69926941
55.69523408
55.69121388
55.68720853
55.68321771
55.67924113
55.6752785
55.67132956
55.66739402
55.66347162
55.6595621
55.6556652
55.65178067
55.64790828
55.64404778
55.64019895
55.63636154
55.63253535
55.62872015
55.62491573
55.62112189
55.61733841
55.6135651
55.60980178
55.60604823
55.6023043
55.59856978
55.59484452
55.59112834
55.58742108
55.58372258
55.5800327
55.57635128
55.57267821
55.56901334
55.56535656
55.56170775
55.55806681
55.55443365
55.55080816
55.54719026
55.54357987
55.53997693
55.53638136
55.5327931
55.52921208
55.52563824
55.52207154
55.5185119
55.51495927
55.5114136
55.50787482
55.50434287
55.50081769
55.49729921
55.49378735
55.49028205
55.48678323
55.4832908
55.47980469
55.47632479
55.47285102
55.46938327
55.46592144
55.46246541
55.45901509
55.45557035
55.45213108
55.44869716
55.44526845
55.44184483
55.43842616
55.43501231
55.43160313
55.42819851
55.42479829
55.42140234
55.41801052
55.41462268
55.41123869
55.40785838
55.40448161
55.40110826
55.39773816
55.3943712
55.39100724
55.38764613
55.38428775
55.38093194
55.37757859
55.37422755
55.37087868
55.36753188
55.36418703
55.36084399
55.35750268
55.35416296
55.35082474
55.34748789
55.34415232
55.34081793
55.3374846
55.33415226
55.33082082
55.32749019
55.32416032
55.32083111
55.31750251
55.31417443
55.31084683
55.30751962
55.30419276
55.30086619
55.29753986
55.29421373
55.29088776
55.28756192
55.28423619
55.28091054
55.27758495
55.27425941
55.2709339
55.26760842
55.26428294
55.26095747
55.257632
55.25430653
55.25098105
55.24765556
55.24433005
55.24100454
55.23767902
55.23435348
55.23102793
55.22770237
55.2243768
55.22105121
55.21772561
55.2144
55.21107437
55.20774873
55.20442307
55.2010974
55.19777172
55.19444603
55.19112032
55.18779459
55.18446886
55.18114311
55.17781734
55.17449157
55.17116577
55.16783997
55.16451415
55.16118832
55.15786247
55.15453661
55.15121074
55.14788485
55.14455895
55.14123304
55.13790711
55.13458117
55.13125521
55.12792924
55.12460326
55.12127726
55.11795125
55.11462522
55.11129918
55.10797313
55.10464706
55.10132098
55.09799488
55.09466878
55.09134265
55.08801651
55.08469036
55.0813642
55.07803802
55.07471182
55.07138562
55.06805939
55.06473316
55.06140691
55.05808064
55.05475436
55.05142807
55.04810176
55.04477544
55.04144911
55.03812276
55.03479639
55.03147001
55.02814362
55.02481721
55.02149079
55.01816436
55.01483791
55.01151144
55.00818496
55.00485847
55.00153196
54.99820544
54.9948789
54.99155235
54.98822579
54.98489921
54.98157261
54.978246
54.97491938
54.97159274
54.96826609
54.96493942
54.96161274
54.95828604
54.95495933
54.9516326
54.94830586
54.94497911
54.94165234
54.93832555
54.93499875
54.93167194
54.92834511
54.92501826
54.9216914
54.91836453
54.91503764
54.91171074
54.90838382
54.90505689
54.90172994
54.89840298
54.895076
54.89174901
54.888422
54.88509498
54.88176794
54.87844089
54.87511382
54.87178674
54.86845964
54.86513253
54.8618054
54.85847826
54.8551511
54.85182393
54.84849674
54.84516953
54.84184232
54.83851508
54.83518783
54.83186057
54.82853329
54.825206
54.82187869
54.81855136
54.81522402
54.81189666
54.80856929
54.80524191
54.80191451
54.79858709
54.79525966
54.79193221
54.78860475
54.78527727
54.78194977
54.77862226
54.77529474
54.7719672
54.76863964
54.76531207
54.76198448
54.75865688
54.75532926
54.75200163
54.74867398
54.74534631
54.74201863
54.73869094
54.73536323
54.7320355
54.72870776
54.72538
54.72205222
54.71872443
54.71539663
54.71206881
54.70874097
54.70541312
54.70208525
54.69875736
54.69542946
54.69210155
54.68877362
54.68544567
54.6821177
54.67878973
54.67546173
54.67213372
54.66880569
54.66547764
54.66214959
54.6588215
54.65549343
54.65216526
54.64883722
54.64550894
54.64218147
54.64218147
56.52120521
56.52120521
56.25706071
56.2113191
56.19003766
56.17514816
56.16290543
56.15201916
56.14192916
56.13236102
56.12317029
56.11427695
56.10563439
56.09721382
56.08899597
56.08096676
56.0731149
56.06543065
56.05790521
56.05053037
56.04329841
56.03620198
56.02923415
56.02238833
56.01565834
56.00903834
56.00252288
55.99610681
55.98978536
55.98355403
55.97740866
55.97134533
55.96536037
55.95945038
55.95361217
55.94784272
55.94213924
55.93649909
55.9309198
55.92539904
55.91993462
55.91452447
55.90916665
55.90385931
55.89860072
55.89338922
55.88822325
55.88310134
55.87802207
55.8729841
55.86798617
55.86302706
55.85810561
55.85322072
55.84837134
55.84355646
55.83877511
55.83402637
55.82930937
55.82462324
55.81996717
55.8153404
55.81074215
55.80617171
55.80162838
55.79711149
55.7926204
55.78815448
55.78371314
55.77929577
55.77490184
55.77053079
55.7661821
55.76185526
55.75754977
55.75326516
55.74900097
55.74475675
55.74053205
55.73632646
55.73213957
55.72797098
55.72382029
55.71968713
55.71557113
55.71147194
55.7073892
55.70332257
55.69927172
55.69523634
55.69121609
55.68721069
55.68321982
55.67924319
55.67528052
55.67133154
55.66739595
55.66347351
55.65956395
55.65566701
55.65178245
55.64791002
55.64404948
55.64020061
55.63636317
55.63253694
55.62872171
55.62491726
55.62112338
55.61733987
55.61356654
55.60980318
55.60604961
55.60230564
55.5985711
55.59484581
55.5911296
55.58742231
55.58372379
55.58003388
55.57635245
55.57267934
55.56901445
55.56535765
55.56170882
55.55806786
55.55443467
55.55080915
55.54719123
55.54358083
55.53997786
55.53638227
55.53279399
55.52921295
55.52563909
55.52207236
55.5185127
55.51496005
55.51141436
55.50787555
55.50434359
55.50081838
55.49729988
55.49378801
55.49028269
55.48678384
55.4832914
55.47980526
55.47632534
55.47285155
55.46938378
55.46592193
55.46246588
55.45901554
55.45557078
55.45213149
55.44869755
55.44526883
55.44184519
55.43842651
55.43501263
55.43160344
55.4281988
55.42479856
55.4214026
55.41801077
55.41462292
55.4112389
55.40785858
55.40448181
55.40110844
55.39773833
55.39437136
55.39100738
55.38764626
55.38428787
55.38093206
55.37757869
55.37422764
55.37087877
55.36753196
55.3641871
55.36084406
55.35750274
55.35416301
55.35082478
55.34748794
55.34415236
55.34081796
55.33748463
55.33415228
55.33082084
55.32749021
55.32416033
55.32083112
55.31750251
55.31417444
55.31084683
55.30751962
55.30419276
55.30086619
55.29753986
55.29421372
55.29088775
55.28756192
55.28423618
55.28091053
55.27758495
55.27425941
55.2709339
55.26760841
55.26428294
55.26095747
55.257632
55.25430652
55.25098104
55.24765555
55.24433005
55.24100454
55.23767901
55.23435348
55.23102793
55.22770237
55.22437679
55.2210512
55.2177256
55.21439999
55.21107436
55.20774872
55.20442307
55.2010974
55.19777171
55.19444602
55.19112031
55.18779459
55.18446885
55.1811431
55.17781734
55.17449156
55.17116577
55.16783996
55.16451415
55.16118831
55.15786247
55.15453661
55.15121073
55.14788485
55.14455895
55.14123303
55.1379071
55.13458116
55.1312552
55.12792923
55.12460325
55.12127725
55.11795124
55.11462522
55.11129918
55.10797312
55.10464706
55.10132097
55.09799488
55.09466877
55.09134265
55.08801651
55.08469036
55.08136419
55.07803801
55.07471182
55.07138561
55.06805939
55.06473315
55.0614069
55.05808064
55.05475436
55.05142806
55.04810176
55.04477544
55.0414491
55.03812275
55.03479639
55.03147001
55.02814361
55.02481721
55.02149079
55.01816435
55.0148379
55.01151144
55.00818496
55.00485846
55.00153196
54.99820543
54.9948789
54.99155235
54.98822578
54.9848992
54.9815726
54.978246
54.97491937
54.97159273
54.96826608
54.96493941
54.96161273
54.95828603
54.95495932
54.9516326
54.94830586
54.9449791
54.94165233
54.93832554
54.93499874
54.93167193
54.9283451
54.92501826
54.9216914
54.91836452
54.91503764
54.91171073
54.90838382
54.90505688
54.90172993
54.89840297
54.89507599
54.891749
54.88842199
54.88509497
54.88176793
54.87844088
54.87511381
54.87178673
54.86845963
54.86513252
54.86180539
54.85847825
54.85515109
54.85182392
54.84849673
54.84516953
54.84184231
54.83851508
54.83518783
54.83186056
54.82853328
54.82520599
54.82187868
54.81855135
54.81522401
54.81189666
54.80856929
54.8052419
54.8019145
54.79858708
54.79525965
54.7919322
54.78860474
54.78527726
54.78194977
54.77862226
54.77529473
54.77196719
54.76863963
54.76531206
54.76198448
54.75865687
54.75532926
54.75200162
54.74867397
54.74534631
54.74201863
54.73869093
54.73536322
54.73203549
54.72870775
54.72537999
54.72205222
54.71872443
54.71539662
54.7120688
54.70874096
54.70541311
54.70208524
54.69875736
54.69542946
54.69210154
54.68877361
54.68544566
54.6821177
54.67878972
54.67546172
54.67213371
54.66880569
54.66547764
54.66214959
54.65882149
54.65549342
54.65216526
54.64883721
54.64550894
54.64218146
54.64218146
56.50529039
56.50529039
56.2599473
56.21245913
56.19063924
56.17552819
56.16316967
56.15221424
56.14207941
56.13248057
56.12326795
56.11435849
56.10570376
56.09727376
56.08904846
56.08101325
56.07315647
56.06546814
56.05793925
56.05056148
56.04332698
56.03622834
56.02925857
56.02241103
56.01567952
56.00905815
56.00254145
55.99612428
55.98980181
55.98356957
55.97742336
55.97135925
55.96537359
55.95946295
55.95362413
55.94785412
55.94215012
55.93650949
55.93092975
55.92540857
55.91994375
55.91453324
55.90917507
55.9038674
55.8986085
55.89339672
55.88823048
55.8831083
55.87802879
55.87299059
55.86799244
55.86303312
55.85811147
55.8532264
55.84837684
55.84356178
55.83878027
55.83403138
55.82931422
55.82462795
55.81997175
55.81534484
55.81074647
55.80617591
55.80163246
55.79711547
55.79262427
55.78815825
55.7837168
55.77929934
55.77490532
55.77053418
55.7661854
55.76185848
55.75755291
55.75326822
55.74900396
55.74475966
55.7405349
55.73632924