# vtk DataFile Version 2.0
FlowField
ASCII
DATASET STRUCTURED_GRID
DIMENSIONS 400 1 200
POINTS 80000 float
0 0 0
0.08 0 0
0.16 0 0
0.24 0 0
0.32 0 0
0.4 0 0
0.48 0 0
0.56 0 0
0.64 0 0
0.72 0 0
0.8 0 0
0.88 0 0
0.96 0 0
1.04 0 0
1.12 0 0
1.2 0 0
1.28 0 0
1.36 0 0
1.44 0 0
1.52 0 0
1.6 0 0
1.68 0 0
1.76 0 0
1.84 0 0
1.92 0 0
2 0 0
2.08 0 0
2.16 0 0
2.24 0 0
2.32 0 0
2.4 0 0
2.48 0 0
2.56 0 0
2.64 0 0
2.72 0 0
2.8 0 0
2.88 0 0
2.96 0 0
3.04 0 0
3.12 0 0
3.2 0 0
3.28 0 0
3.36 0 0
3.44 0 0
3.52 0 0
3.6 0 0
3.68 0 0
3.76 0 0
3.84 0 0
3.92 0 0
4 0 0
4.08 0 0
4.16 0 0
4.24 0 0
4.32 0 0
4.4 0 0
4.48 0 0
4.56 0 0
4.64 0 0
4.72 0 0
4.8 0 0
4.88 0 0
4.96 0 0
5.04 0 0
5.12 0 0
5.2 0 0
5.28 0 0
5.36 0 0
5.44 0 0
5.52 0 0
5.6 0 0
5.68 0 0
5.76 0 0
5.84 0 0
5.92 0 0
6 0 0
6.08 0 0
6.16 0 0
6.24 0 0
6.32 0 0
6.4 0 0
6.48 0 0
6.56 0 0
6.64 0 0
6.72 0 0
6.8 0 0
6.88 0 0
6.96 0 0
7.04 0 0
7.12 0 0
7.2 0 0
7.28 0 0
7.36 0 0
7.44 0 0
7.52 0 0
7.6 0 0
7.68 0 0
7.76 0 0
7.84 0 0
7.92 0 0
8 0 0
8.08 0 0
8.16 0 0
8.24 0 0
8.32 0 0
8.4 0 0
8.48 0 0
8.56 0 0
8.64 0 0
8.72 0 0
8.8 0 0
8.88 0 0
8.96 0 0
9.04 0 0
9.12 0 0
9.2 0 0
9.28 0 0
9.36 0 0
9.44 0 0
9.52 0 0
9.6 0 0
9.68 0 0
9.76 0 0
9.84 0 0
9.92 0 0
10 0 0
10.08 0 0
10.16 0 0
10.24 0 0
10.32 0 0
10.4 0 0
10.48 0 0
10.56 0 0
10.64 0 0
10.72 0 0
10.8 0 0
10.88 0 0
10.96 0 0
11.04 0 0
11.12 0 0
11.2 0 0
11.28 0 0
11.36 0 0
11.44 0 0
11.52 0 0
11.6 0 0
11.68 0 0
11.76 0 0
11.84 0 0
11.92 0 0
12 0 0
12.08 0 0
12.16 0 0
12.24 0 0
12.32 0 0
12.4 0 0
12.48 0 0
12.56 0 0
12.64 0 0
12.72 0 0
12.8 0 0
12.88 0 0
12.96 0 0
13.04 0 0
13.12 0 0
13.2 0 0
13.28 0 0
13.36 0 0
13.44 0 0
13.52 0 0
13.6 0 0
13.68 0 0
13.76 0 0
13.84 0 0
13.92 0 0
14 0 0
14.08 0 0
14.16 0 0
14.24 0 0
14.32 0 0
14.4 0 0
14.48 0 0
14.56 0 0
14.64 0 0
14.72 0 0
14.8 0 0
14.88 0 0
14.96 0 0
15.04 0 0
15.12 0 0
15.2 0 0
15.28 0 0
15.36 0 0
15.44 0 0
15.52 0 0
15.6 0 0
15.68 0 0
15.76 0 0
15.84 0 0
15.92 0 0
16 0 0
16.08 0 0
16.16 0 0
16.24 0 0
16.32 0 0
16.4 0 0
16.48 0 0
16.56 0 0
16.64 0 0
16.72 0 0
16.8 0 0
16.88 0 0
16.96 0 0
17.04 0 0
17.12 0 0
17.2 0 0
17.28 0 0
17.36 0 0
17.44 0 0
17.52 0 0
17.6 0 0
17.68 0 0
17.76 0 0
17.84 0 0
17.92 0 0
18 0 0
18.08 0 0
18.16 0 0
18.24 0 0
18.32 0 0
18.4 0 0
18.48 0 0
18.56 0 0
18.64 0 0
18.72 0 0
18.8 0 0
18.88 0 0
18.96 0 0
19.04 0 0
19.12 0 0
19.2 0 0
19.28 0 0
19.36 0 0
19.44 0 0
19.52 0 0
19.6 0 0
19.68 0 0
19.76 0 0
19.84 0 0
19.92 0 0
20 0 0
20.08 0 0
20.16 0 0
20.24 0 0
20.32 0 0
20.4 0 0
20.48 0 0
20.56 0 0
20.64 0 0
20.72 0 0
20.8 0 0
20.88 0 0
20.96 0 0
21.04 0 0
21.12 0 0
21.2 0 0
21.28 0 0
21.36 0 0
21.44 0 0
21.52 0 0
21.6 0 0
21.68 0 0
21.76 0 0
21.84 0 0
21.92 0 0
22 0 0
22.08 0 0
22.16 0 0
22.24 0 0
22.32 0 0
22.4 0 0
22.48 0 0
22.56 0 0
22.64 0 0
22.72 0 0
22.8 0 0
22.88 0 0
22.96 0 0
23.04 0 0
23.12 0 0
23.2 0 0
23.28 0 0
23.36 0 0
23.44 0 0
23.52 0 0
23.6 0 0
23.68 0 0
23.76 0 0
23.84 0 0
23.92 0 0
24 0 0
24.08 0 0
24.16 0 0
24.24 0 0
24.32 0 0
24.4 0 0
24.48 0 0
24.56 0 0
24.64 0 0
24.72 0 0
24.8 0 0
24.88 0 0
24.96 0 0
25.04 0 0
25.12 0 0
25.2 0 0
25.28 0 0
25.36 0 0
25.44 0 0
25.52 0 0
25.6 0 0
25.68 0 0
25.76 0 0
25.84 0 0
25.92 0 0
26 0 0
26.08 0 0
26.16 0 0
26.24 0 0
26.32 0 0
26.4 0 0
26.48 0 0
26.56 0 0
26.64 0 0
26.72 0 0
26.8 0 0
26.88 0 0
26.96 0 0
27.04 0 0
27.12 0 0
27.2 0 0
27.28 0 0
27.36 0 0
27.44 0 0
27.52 0 0
27.6 0 0
27.68 0 0
27.76 0 0
27.84 0 0
27.92 0 0
28 0 0
28.08 0 0
28.16 0 0
28.24 0 0
28.32 0 0
28.4 0 0
28.48 0 0
28.56 0 0
28.64 0 0
28.72 0 0
28.8 0 0
28.88 0 0
28.96 0 0
29.04 0 0
29.12 0 0
29.2 0 0
29.28 0 0
29.36 0 0
29.44 0 0
29.52 0 0
29.6 0 0
29.68 0 0
29.76 0 0
29.84 0 0
29.92 0 0
30 0 0
30.08 0 0
30.16 0 0
30.24 0 0
30.32 0 0
30.4 0 0
30.48 0 0
30.56 0 0
30.64 0 0
30.72 0 0
30.8 0 0
30.88 0 0
30.96 0 0
31.04 0 0
31.12 0 0
31.2 0 0
31.28 0 0
31.36 0 0
31.44 0 0
31.52 0 0
31.6 0 0
31.68 0 0
31.76 0 0
31.84 0 0
31.92 0 0
0 0.005 0
0.08 0.005 0
0.16 0.005 0
0.24 0.005 0
0.32 0.005 0
0.4 0.005 0
0.48 0.005 0
0.56 0.005 0
0.64 0.005 0
0.72 0.005 0
0.8 0.005 0
0.88 0.005 0
0.96 0.005 0
1.04 0.005 0
1.12 0.005 0
1.2 0.005 0
1.28 0.005 0
1.36 0.005 0
1.44 0.005 0
1.52 0.005 0
1.6 0.005 0
1.68 0.005 0
1.76 0.005 0
1.84 0.005 0
1.92 0.005 0
2 0.005 0
2.08 0.005 0
2.16 0.005 0
2.24 0.005 0
2.32 0.005 0
2.4 0.005 0
2.48 0.005 0
2.56 0.005 0
2.64 0.005 0
2.72 0.005 0
2.8 0.005 0
2.88 0.005 0
2.96 0.005 0
3.04 0.005 0
3.12 0.005 0
3.2 0.005 0
3.28 0.005 0
3.36 0.005 0
3.44 0.005 0
3.52 0.005 0
3.6 0.005 0
3.68 0.005 0
3.76 0.005 0
3.84 0.005 0
3.92 0.005 0
4 0.005 0
4.08 0.005 0
4.16 0.005 0
4.24 0.005 0
4.32 0.005 0
4.4 0.005 0
4.48 0.005 0
4.56 0.005 0
4.64 0.005 0
4.72 0.005 0
4.8 0.005 0
4.88 0.005 0
4.96 0.005 0
5.04 0.005 0
5.12 0.005 0
5.2 0.005 0
5.28 0.005 0
5.36 0.005 0
5.44 0.005 0
5.52 0.005 0
5.6 0.005 0
5.68 0.005 0
5.76 0.005 0
5.84 0.005 0
5.92 0.005 0
6 0.005 0
6.08 0.005 0
6.16 0.005 0
6.24 0.005 0
6.32 0.005 0
6.4 0.005 0
6.48 0.005 0
6.56 0.005 0
6.64 0.005 0
6.72 0.005 0
6.8 0.005 0
6.88 0.005 0
6.96 0.005 0
7.04 0.005 0
7.12 0.005 0
7.2 0.005 0
7.28 0.005 0
7.36 0.005 0
7.44 0.005 0
7.52 0.005 0
7.6 0.005 0
7.68 0.005 0
7.76 0.005 0
7.84 0.005 0
7.92 0.005 0
8 0.005 0
8.08 0.005 0
8.16 0.005 0
8.24 0.005 0
8.32 0.005 0
8.4 0.005 0
8.48 0.005 0
8.56 0.005 0
8.64 0.005 0
8.72 0.005 0
8.8 0.005 0
8.88 0.005 0
8.96 0.005 0
9.04 0.005 0
9.12 0.005 0
9.2 0.005 0
9.28 0.005 0
9.36 0.005 0
9.44 0.005 0
9.52 0.005 0
9.6 0.005 0
9.68 0.005 0
9.76 0.005 0
9.84 0.005 0
9.92 0.005 0
10 0.005 0
10.08 0.005 0
10.16 0.005 0
10.24 0.005 0
10.32 0.005 0
10.4 0.005 0
10.48 0.005 0
10.56 0.005 0
10.64 0.005 0
10.72 0.005 0
10.8 0.005 0
10.88 0.005 0
10.96 0.005 0
11.04 0.005 0
11.12 0.005 0
11.2 0.005 0
11.28 0.005 0
11.36 0.005 0
11.44 0.005 0
11.52 0.005 0
11.6 0.005 0
11.68 0.005 0
11.76 0.005 0
11.84 0.005 0
11.92 0.005 0
12 0.005 0
12.08 0.005 0
12.16 0.005 0
12.24 0.005 0
12.32 0.005 0
12.4 0.005 0
12.48 0.005 0
12.56 0.005 0
12.64 0.005 0
12.72 0.005 0
12.8 0.005 0
12.88 0.005 0
12.96 0.005 0
13.04 0.005 0
13.12 0.005 0
13.2 0.005 0
13.28 0.005 0
13.36 0.005 0
13.44 0.005 0
13.52 0.005 0
13.6 0.005 0
13.68 0.005 0
13.76 0.005 0
13.84 0.005 0
13.92 0.005 0
14 0.005 0
14.08 0.005 0
14.16 0.005 0
14.24 0.005 0
14.32 0.005 0
14.4 0.005 0
14.48 0.005 0
14.56 0.005 0
14.64 0.005 0
14.72 0.005 0
14.8 0.005 0
14.88 0.005 0
14.96 0.005 0
15.04 0.005 0
15.12 0.005 0
15.2 0.005 0
15.28 0.005 0
15.36 0.005 0
15.44 0.005 0
15.52 0.005 0
15.6 0.005 0
15.68 0.005 0
15.76 0.005 0
15.84 0.005 0
15.92 0.005 0
16 0.005 0
16.08 0.005 0
16.16 0.005 0
16.24 0.005 0
16.32 0.005 0
16.4 0.005 0
16.48 0.005 0
16.56 0.005 0
16.64 0.005 0
16.72 0.005 0
16.8 0.005 0
16.88 0.005 0
16.96 0.005 0
17.04 0.005 0
17.12 0.005 0
17.2 0.005 0
17.28 0.005 0
17.36 0.005 0
17.44 0.005 0
17.52 0.005 0
17.6 0.005 0
17.68 0.005 0
17.76 0.005 0
17.84 0.005 0
17.92 0.005 0
18 0.005 0
18.08 0.005 0
18.16 0.005 0
18.24 0.005 0
18.32 0.005 0
18.4 0.005 0
18.48 0.005 0
18.56 0.005 0
18.64 0.005 0
18.72 0.005 0
18.8 0.005 0
18.88 0.005 0
18.96 0.005 0
19.04 0.005 0
19.12 0.005 0
19.2 0.005 0
19.28 0.005 0
19.36 0.005 0
19.44 0.005 0
19.52 0.005 0
19.6 0.005 0
19.68 0.005 0
19.76 0.005 0
19.84 0.005 0
19.92 0.005 0
20 0.005 0
20.08 0.005 0
20.16 0.005 0
20.24 0.005 0
20.32 0.005 0
20.4 0.005 0
20.48 0.005 0
20.56 0.005 0
20.64 0.005 0
20.72 0.005 0
20.8 0.005 0
20.88 0.005 0
20.96 0.005 0
21.04 0.005 0
21.12 0.005 0
21.2 0.005 0
21.28 0.005 0
21.36 0.005 0
21.44 0.005 0
21.52 0.005 0
21.6 0.005 0
21.68 0.005 0
21.76 0.005 0
21.84 0.005 0
21.92 0.005 0
22 0.005 0
22.08 0.005 0
22.16 0.005 0
22.24 0.005 0
22.32 0.005 0
22.4 0.005 0
22.48 0.005 0
22.56 0.005 0
22.64 0.005 0
22.72 0.005 0
22.8 0.005 0
22.88 0.005 0
22.96 0.005 0
23.04 0.005 0
23.12 0.005 0
23.2 0.005 0
23.28 0.005 0
23.36 0.005 0
23.44 0.005 0
23.52 0.005 0
23.6 0.005 0
23.68 0.005 0
23.76 0.005 0
23.84 0.005 0
23.92 0.005 0
24 0.005 0
24.08 0.005 0
24.16 0.005 0
24.24 0.005 0
24.32 0.005 0
24.4 0.005 0
24.48 0.005 0
24.56 0.005 0
24.64 0.005 0
24.72 0.005 0
24.8 0.005 0
24.88 0.005 0
24.96 0.005 0
25.04 0.005 0
25.12 0.005 0
25.2 0.005 0
25.28 0.005 0
25.36 0.005 0
25.44 0.005 0
25.52 0.005 0
25.6 0.005 0
25.68 0.005 0
25.76 0.005 0
25.84 0.005 0
25.92 0.005 0
26 0.005 0
26.08 0.005 0
26.16 0.005 0
26.24 0.005 0
26.32 0.005 0
26.4 0.005 0
26.48 0.005 0
26.56 0.005 0
26.64 0.005 0
26.72 0.005 0
26.8 0.005 0
26.88 0.005 0
26.96 0.005 0
27.04 0.005 0
27.12 0.005 0
27.2 0.005 0
27.28 0.005 0
27.36 0.005 0
27.44 0.005 0
27.52 0.005 0
27.6 0.005 0
27.68 0.005 0
27.76 0.005 0
27.84 0.005 0
27.92 0.005 0
28 0.005 0
28.08 0.005 0
28.16 0.005 0
28.24 0.005 0
28.32 0.005 0
28.4 0.005 0
28.48 0.005 0
28.56 0.005 0
28.64 0.005 0
28.72 0.005 0
28.8 0.005 0
28.88 0.005 0
28.96 0.005 0
29.04 0.005 0
29.12 0.005 0
29.2 0.005 0
29.28 0.005 0
29.36 0.005 0
29.44 0.005 0
29.52 0.005 0
29.6 0.005 0
29.68 0.005 0
29.76 0.005 0
29.84 0.005 0
29.92 0.005 0
30 0.005 0
30.08 0.005 0
30.16 0.005 0
30.24 0.005 0
30.32 0.005 0
30.4 0.005 0
30.48 0.005 0
30.56 0.005 0
30.64 0.005 0
30.72 0.005 0
30.8 0.005 0
30.88 0.005 0
30.96 0.005 0
31.04 0.005 0
31.12 0.005 0
31.2 0.005 0
31.28 0.005 0
31.36 0.005 0
31.44 0.005 0
31.52 0.005 0
31.6 0.005 0
31.68 0.005 0
31.76 0.005 0
31.84 0.005 0
31.92 0.005 0
0 0.01 0
0.08 0.01 0
0.16 0.01 0
0.24 0.01 0
0.32 0.01 0
0.4 0.01 0
0.48 0.01 0
0.56 0.01 0
0.64 0.01 0
0.72 0.01 0
0.8 0.01 0
0.88 0.01 0
0.96 0.01 0
1.04 0.01 0
1.12 0.01 0
1.2 0.01 0
1.28 0.01 0
1.36 0.01 0
1.44 0.01 0
1.52 0.01 0
1.6 0.01 0
1.68 0.01 0
1.76 0.01 0
1.84 0.01 0
1.92 0.01 0
2 0.01 0
2.08 0.01 0
2.16 0.01 0
2.24 0.01 0
2.32 0.01 0
2.4 0.01 0
2.48 0.01 0
2.56 0.01 0
2.64 0.01 0
2.72 0.01 0
2.8 0.01 0
2.88 0.01 0
2.96 0.01 0
3.04 0.01 0
3.12 0.01 0
3.2 0.01 0
3.28 0.01 0
3.36 0.01 0
3.44 0.01 0
3.52 0.01 0
3.6 0.01 0
3.68 0.01 0
3.76 0.01 0
3.84 0.01 0
3.92 0.01 0
4 0.01 0
4.08 0.01 0
4.16 0.01 0
4.24 0.01 0
4.32 0.01 0
4.4 0.01 0
4.48 0.01 0
4.56 0.01 0
4.64 0.01 0
4.72 0.01 0
4.8 0.01 0
4.88 0.01 0
4.96 0.01 0
5.04 0.01 0
5.12 0.01 0
[...]
POINT_DATA 80000

SCALARS p float 1
LOOKUP_TABLE default
1
56.54659959
56.24486453
56.20370471
56.1836147
56.16919574
56.15719475
56.1464513
56.13645313
56.12694751
56.11780117
56.10894041
56.10032246
56.09192091
56.08371812
56.07570105
56.06785915
56.06018321
56.0526648
56.04529598
56.03806923
56.03097735
56.02401353
56.01717128
56.01044446
56.00382733
55.99731443
55.99090071
55.98458138
55.97835201
55.97220842
55.96614672
55.96016328
55.95425469
55.94841777
55.94264953
55.93694718
55.93130808
55.92572977
55.92020993
55.91474637
55.90933704
55.90397998
55.89867336
55.89341545
55.88820459
55.88303924
55.8779179
55.87283918
55.86780174
55.8628043
55.85784566
55.85292467
55.84804021
55.84319124
55.83837675
55.83359578
55.8288474
55.82413074
55.81944494
55.8147892
55.81016272
55.80556477
55.80099461
55.79645156
55.79193493
55.78744409
55.78297842
55.7785373
55.77412017
55.76972646
55.76535562
55.76100713
55.75668048
55.75237519
55.74809077
55.74382676
55.73958271
55.73535818
55.73115276
55.72696602
55.72279758
55.71864704
55.71451403
55.71039817
55.70629911
55.70221651
55.69815001
55.69409929
55.69006402
55.6860439
55.6820386
55.67804784
55.67407133
55.67010876
55.66615987
55.66222438
55.65830203
55.65439255
55.65049569
55.64661121
55.64273885
55.63887837
55.63502956
55.63119217
55.62736598
55.62355077
55.61974634
55.61595247
55.61216895
55.60839559
55.60463218
55.60087854
55.59713447
55.59339979
55.58967431
55.58595787
55.58225027
55.57855137
55.57486097
55.57117893
55.56750508
55.56383925
55.56018131
55.55653109
55.55288844
55.54925322
55.54562529
55.5420045
55.53839072
55.53478381
55.53118363
55.52759007
55.52400299
55.52042226
55.51684776
55.51327937
55.50971698
55.50616047
55.50260972
55.49906462
55.49552506
55.49199094
55.48846215
55.48493859
55.48142015
55.47790674
55.47439827
55.47089463
55.46739574
55.4639015
55.46041183
55.45692665
55.45344587
55.44996942
55.44649721
55.44302918
55.43956525
55.43610535
55.43264943
55.42919741
55.42574924
55.42230486
55.41886421
55.41542725
55.41199392
55.40856418
55.40513798
55.40171527
55.39829602
55.39488019
55.39146774
55.38805862
55.3846528
55.38125025
55.37785093
55.37445481
55.37106185
55.36767201
55.36428526
55.36090156
55.35752088
55.35414317
55.35076841
55.34739656
55.34402756
55.34066139
55.33729799
55.33393733
55.33057936
55.32722404
55.32387131
55.32052114
55.31717346
55.31382823
55.3104854
55.30714491
55.30380671
55.30047074
55.29713694
55.29380527
55.29047565
55.28714804
55.28382236
55.28049857
55.2771766
55.27385638
55.27053786
55.26722098
55.26390567
55.26059188
55.25727953
55.25396859
55.25065897
55.24735063
55.2440435
55.24073752
55.23743264
55.23412881
55.23082596
55.22752405
55.22422302
55.22092282
55.21762339
55.2143247
55.21102669
55.20772931
55.20443253
55.2011363
55.19784057
55.19454532
55.19125049
55.18795607
55.184662
55.18136827
55.17807483
55.17478167
55.17148874
55.16819603
55.16490352
55.16161118
55.15831899
55.15502693
55.15173499
55.14844315
55.14515139
55.14185971
55.13856809
55.13527651
55.13198498
55.12869348
55.125402
55.12211055
55.11881911
55.11552768
55.11223626
55.10894485
55.10565343
55.10236202
55.09907061
55.09577919
55.09248777
55.08919635
55.08590492
55.08261349
55.07932205
55.07603061
55.07273916
55.0694477
55.06615624
55.06286478
55.0595733
55.05628183
55.05299034
55.04969885
55.04640736
55.04311585
55.03982435
55.03653283
55.03324131
55.02994979
55.02665825
55.02336672
55.02007517
55.01678362
55.01349206
55.0102005
55.00690893
55.00361736
55.00032578
54.99703419
54.9937426
54.990451
54.9871594
54.98386778
54.98057617
54.97728454
54.97399291
54.97070128
54.96740964
54.96411799
54.96082633
54.95753467
54.95424301
54.95095133
54.94765965
54.94436797
54.94107628
54.93778458
54.93449288
54.93120117
54.92790945
54.92461773
54.921326
54.91803426
54.91474252
54.91145078
54.90815902
54.90486726
54.90157549
54.89828372
54.89499194
54.89170016
54.88840837
54.88511657
54.88182476
54.87853295
54.87524114
54.87194931
54.86865748
54.86536565
54.8620738
54.85878196
54.8554901
54.85219824
54.84890637
54.8456145
54.84232261
54.83903073
54.83573883
54.83244693
54.82915503
54.82586311
54.82257119
54.81927927
54.81598734
54.8126954
54.80940345
54.8061115
54.80281954
54.79952758
54.79623561
54.79294363
54.78965164
54.78635965
54.78306765
54.77977565
54.77648364
54.77319162
54.7698996
54.76660757
54.76331553
54.76002349
54.75673144
54.75343938
54.75014732
54.74685525
54.74356317
54.74027109
54.736979
54.7336869
54.7303948
54.72710269
54.72381057
54.72051845
54.71722632
54.71393419
54.71064204
54.70734989
54.70405774
54.70076557
54.69747341
54.69418123
54.69088905
54.68759686
54.68430466
54.68101246
54.67772025
54.67442803
54.67113581
54.66784358
54.66455134
54.6612591
54.65796684
54.6546746
54.65138231
54.64809007
54.64479772
54.64150574
0.5
56.54659959
56.54659959
56.24486453
56.20370471
56.1836147
56.16919574
56.15719475
56.1464513
56.13645313
56.12694751
56.11780117
56.10894041
56.10032246
56.09192091
56.08371812
56.07570105
56.06785915
56.06018321
56.0526648
56.04529598
56.03806923
56.03097735
56.02401353
56.01717128
56.01044446
56.00382733
55.99731443
55.99090071
55.98458138
55.97835201
55.97220842
55.96614672
55.96016328
55.95425469
55.94841777
55.94264953
55.93694718
55.93130808
55.92572977
55.92020993
55.91474637
55.90933704
55.90397998
55.89867336
55.89341545
55.88820459
55.88303924
55.8779179
55.87283918
55.86780174
55.8628043
55.85784566
55.85292467
55.84804021
55.84319124
55.83837675
55.83359578
55.8288474
55.82413074
55.81944494
55.8147892
55.81016272
55.80556477
55.80099461
55.79645156
55.79193493
55.78744409
55.78297842
55.7785373
55.77412017
55.76972646
55.76535562
55.76100713
55.75668048
55.75237519
55.74809077
55.74382676
55.73958271
55.73535818
55.73115276
55.72696602
55.72279758
55.71864704
55.71451403
55.71039817
55.70629911
55.70221651
55.69815001
55.69409929
55.69006402
55.6860439
55.6820386
55.67804784
55.67407133
55.67010876
55.66615987
55.66222438
55.65830203
55.65439255
55.65049569
55.64661121
55.64273885
55.63887837
55.63502956
55.63119217
55.62736598
55.62355077
55.61974634
55.61595247
55.61216895
55.60839559
55.60463218
55.60087854
55.59713447
55.59339979
55.58967431
55.58595787
55.58225027
55.57855137
55.57486097
55.57117893
55.56750508
55.56383925
55.56018131
55.55653109
55.55288844
55.54925322
55.54562529
55.5420045
55.53839072
55.53478381
55.53118363
55.52759007
55.52400299
55.52042226
55.51684776
55.51327937
55.50971698
55.50616047
55.50260972
55.49906462
55.49552506
55.49199094
55.48846215
55.48493859
55.48142015
55.47790674
55.47439827
55.47089463
55.46739574
55.4639015
55.46041183
55.45692665
55.45344587
55.44996942
55.44649721
55.44302918
55.43956525
55.43610535
55.43264943
55.42919741
55.42574924
55.42230486
55.41886421
55.41542725
55.41199392
55.40856418
55.40513798
55.40171527
55.39829602
55.39488019
55.39146774
55.38805862
55.3846528
55.38125025
55.37785093
55.37445481
55.37106185
55.36767201
55.36428526
55.36090156
55.35752088
55.35414317
55.35076841
55.34739656
55.34402756
55.34066139
55.33729799
55.33393733
55.33057936
55.32722404
55.32387131
55.32052114
55.31717346
55.31382823
55.3104854
55.30714491
55.30380671
55.30047074
55.29713694
55.29380527
55.29047565
55.28714804
55.28382236
55.28049857
55.2771766
55.27385638
55.27053786
55.26722098
55.26390567
55.26059188
55.25727953
55.25396859
55.25065897
55.24735063
55.2440435
55.24073752
55.23743264
55.23412881
55.23082596
55.22752405
55.22422302
55.22092282
55.21762339
55.2143247
55.21102669
55.20772931
55.20443253
55.2011363
55.19784057
55.19454532
55.19125049
55.18795607
55.184662
55.18136827
55.17807483
55.17478167
55.17148874
55.16819603
55.16490352
55.16161118
55.15831899
55.15502693
55.15173499
55.14844315
55.14515139
55.14185971
55.13856809
55.13527651
55.13198498
55.12869348
55.125402
55.12211055
55.11881911
55.11552768
55.11223626
55.10894485
55.10565343
55.10236202
55.09907061
55.09577919
55.09248777
55.08919635
55.08590492
55.08261349
55.07932205
55.07603061
55.07273916
55.0694477
55.06615624
55.06286478
55.0595733
55.05628183
55.05299034
55.04969885
55.04640736
55.04311585
55.03982435
55.03653283
55.03324131
55.02994979
55.02665825
55.02336672
55.02007517
55.01678362
55.01349206
55.0102005
55.00690893
55.00361736
55.00032578
54.99703419
54.9937426
54.990451
54.9871594
54.98386778
54.98057617
54.97728454
54.97399291
54.97070128
54.96740964
54.96411799
54.96082633
54.95753467
54.95424301
54.95095133
54.94765965
54.94436797
54.94107628
54.93778458
54.93449288
54.93120117
54.92790945
54.92461773
54.921326
54.91803426
54.91474252
54.91145078
54.90815902
54.90486726
54.90157549
54.89828372
54.89499194
54.89170016
54.88840837
54.88511657
54.88182476
54.87853295
54.87524114
54.87194931
54.86865748
54.86536565
54.8620738
54.85878196
54.8554901
54.85219824
54.84890637
54.8456145
54.84232261
54.83903073
54.83573883
54.83244693
54.82915503
54.82586311
54.82257119
54.81927927
54.81598734
54.8126954
54.80940345
54.8061115
54.80281954
54.79952758
54.79623561
54.79294363
54.78965164
54.78635965
54.78306765
54.77977565
54.77648364
54.77319162
54.7698996
54.76660757
54.76331553
54.76002349
54.75673144
54.75343938
54.75014732
54.74685525
54.74356317
54.74027109
54.736979
54.7336869
54.7303948
54.72710269
54.72381057
54.72051845
54.71722632
54.71393419
54.71064204
54.70734989
54.70405774
54.70076557
54.69747341
54.69418123
54.69088905
54.68759686
54.68430466
54.68101246
54.67772025
54.67442803
54.67113581
54.66784358
54.66455134
54.6612591
54.65796684
54.6546746
54.65138231
54.64809007
54.64479772
54.64150574
54.64150574
56.53201784
56.53201784
56.2487004
56.20496012
56.18424994
56.16959025
56.15746644
56.14665074
56.13660627
56.1270692
56.11790059
56.10902351
56.10039325
56.0919822
56.0837719
56.07574878
56.06790192
56.06022184
56.05269994
56.04532813
56.03809879
56.03100466
56.02403886
56.01719484
56.01046646
56.00384792
55.99733376
55.99091889
55.98459852
55.97836819
55.97222373
55.96616124
55.96017707
55.9542678
55.94843026
55.94266144
55.93695854
55.93131894
55.92574016
55.92021989
55.91475592
55.9093462
55.90398878
55.89868183
55.89342359
55.88821244
55.8830468
55.87792519
55.87284622
55.86780853
55.86281087
55.85785201
55.85293081
55.84804616
55.843197
55.83838233
55.83360119
55.82885265
55.82413583
55.81944989
55.814794
55.81016739
55.8055693
55.80099902
55.79645584
55.7919391
55.78744815
55.78298237
55.77854115
55.77412392
55.76973011
55.76535918
55.7610106
55.75668387
55.75237849
55.74809399
55.7438299
55.73958577
55.73536117
55.73115568
55.72696887
55.72280037
55.71864976
55.71451669
55.71040077
55.70630165
55.70221898
55.69815243
55.69410165
55.69006634
55.68604616
55.68204082
55.67805001
55.67407344
55.67011083
55.6661619
55.66222636
55.65830397
55.65439445
55.65049755
55.64661302
55.64274062
55.63888011
55.63503126
55.63119383
55.62736761
55.62355237
55.61974791
55.615954
55.61217045
55.60839706
55.60463362
55.60087995
55.59713585
55.59340114
55.58967563
55.58595916
55.58225154
55.57855261
55.57486219
55.57118012
55.56750624
55.5638404
55.56018243
55.55653218
55.55288951
55.54925427
55.54562632
55.54200551
55.53839171
55.53478478
55.53118458
55.527591
55.5240039
55.52042315
55.51684864
55.51328023
55.50971782
55.50616129
55.50261052
55.49906541
55.49552584
55.4919917
55.4884629
55.48493932
55.48142087
55.47790744
55.47439895
55.4708953
55.46739639
55.46390214
55.46041246
55.45692727
55.45344648
55.44997001
55.44649779
55.44302975
55.43956581
55.4361059
55.43264996
55.42919794
55.42574975
55.42230536
55.4188647
55.41542773
55.41199439
55.40856464
55.40513843
55.40171571
55.39829645
55.39488061
55.39146815
55.38805902
55.38465319
55.38125063
55.37785131
55.37445517
55.3710622
55.36767235
55.36428559
55.36090188
55.35752119
55.35414348
55.35076871
55.34739684
55.34402784
55.34066165
55.33729825
55.33393758
55.3305796
55.32722427
55.32387154
55.32052135
55.31717367
55.31382843
55.31048559
55.30714509
55.30380688
55.30047091
55.2971371
55.29380542
55.2904758
55.28714817
55.28382249
55.28049869
55.27717671
55.27385649
55.27053797
55.26722108
55.26390576
55.26059196
55.25727962
55.25396866
55.25065904
55.24735069
55.24404356
55.24073758
55.2374327
55.23412886
55.23082601
55.22752409
55.22422306
55.22092285
55.21762342
55.21432473
55.21102671
55.20772933
55.20443255
55.20113631
55.19784058
55.19454533
55.1912505
55.18795608
55.18466201
55.18136828
55.17807484
55.17478167
55.17148874
55.16819603
55.16490352
55.16161118
55.15831899
55.15502693
55.15173499
55.14844315
55.14515139
55.14185971
55.13856808
55.13527651
55.13198497
55.12869347
55.125402
55.12211054
55.1188191
55.11552768
55.11223626
55.10894484
55.10565343
55.10236202
55.0990706
55.09577919
55.09248777
55.08919634
55.08590492
55.08261348
55.07932205
55.0760306
55.07273915
55.0694477
55.06615624
55.06286477
55.0595733
55.05628182
55.05299034
55.04969885
55.04640735
55.04311585
55.03982434
55.03653283
55.03324131
55.02994978
55.02665825
55.02336671
55.02007517
55.01678362
55.01349206
55.0102005
55.00690893
55.00361735
55.00032577
54.99703419
54.99374259
54.990451
54.98715939
54.98386778
54.98057616
54.97728454
54.97399291
54.97070127
54.96740963
54.96411798
54.96082633
54.95753467
54.954243
54.95095133
54.94765965
54.94436797
54.94107627
54.93778458
54.93449287
54.93120116
54.92790945
54.92461772
54.92132599
54.91803426
54.91474252
54.91145077
54.90815902
54.90486726
54.90157549
54.89828372
54.89499194
54.89170015
54.88840836
54.88511656
54.88182476
54.87853295
54.87524113
54.87194931
54.86865748
54.86536564
54.8620738
54.85878195
54.8554901
54.85219823
54.84890637
54.84561449
54.84232261
54.83903072
54.83573883
54.83244693
54.82915502
54.82586311
54.82257119
54.81927926
54.81598733
54.81269539
54.80940345
54.8061115
54.80281954
54.79952757
54.7962356
54.79294362
54.78965164
54.78635965
54.78306765
54.77977565
54.77648364
54.77319162
54.7698996
54.76660756
54.76331553
54.76002348
54.75673143
54.75343938
54.75014731
54.74685524
54.74356317
54.74027109
54.736979
54.7336869
54.7303948
54.72710269
54.72381057
54.72051845
54.71722632
54.71393418
54.71064204
54.70734989
54.70405773
54.70076557
54.6974734
54.69418123
54.69088904
54.68759685
54.68430466
54.68101245
54.67772025
54.67442803
54.67113581
54.66784358
54.66455134
54.6612591
54.65796684
54.65467459
54.6513823
54.64809007
54.64479773
54.64150574
54.64150574
56.51603324
56.51603324
56.25188883
56.2061473
56.18486594
56.16997652
56.15773387
56.14684768
56.13675775
56.12718968
56.11799903
56.10910576
56.10046328
56.09204277
56.083825
56.07579586
56.06794407
56.06025989
56.05273451
56.04535975
56.03812785
56.03103149
56.02406372
56.01721797
56.01048804
56.00386811
55.99735271
55.9909367
55.98461531
55.97838405
55.97223874
55.96617546
55.96019057
55.95428064
55.94844248
55.94267309
55.93696966
55.93132957
55.92575033
55.92022963
55.91476526
55.90935516
55.90399739
55.8986901
55.89343156
55.88822011
55.88305419
55.87793232
55.8728531
55.86781518
55.86281729
55.85785822
55.85293681
55.84805197
55.84320263
55.83838778
55.83360647
55.82885778
55.82414081
55.81945471
55.81479869
55.81017194
55.80557373
55.80100332
55.79646003
55.79194318
55.78745212
55.78298623
55.77854491
55.77412758
55.76973367
55.76536265
55.76101398
55.75668717
55.75238171
55.74809713
55.74383296
55.73958876
55.73536409
55.73115852
55.72697166
55.72280308
55.71865242
55.71451928
55.7104033
55.70630412
55.7022214
55.69815479
55.69410396
55.69006859
55.68604837
55.68204298
55.67805212
55.67407551
55.67011285
55.66616387
55.6622283
55.65830586
55.6543963
55.65049936
55.6466148
55.64274236
55.63888181
55.63503292
55.63119546
55.6273692
55.62355393
55.61974943
55.6159555
55.61217192
55.60839849
55.60463502
55.60088132
55.59713719
55.59340245
55.58967692
55.58596042
55.58225278
55.57855382
55.57486338
55.57118128
55.56750738
55.56384151
55.56018352
55.55653325
55.55289056
55.5492553
55.54562733
55.54200649
55.53839267
55.53478572
55.53118551
55.52759191
55.52400479
55.52042402
55.51684949
55.51328107
55.50971864
55.50616209
55.50261131
55.49906618
55.49552659
55.49199244
55.48846362
55.48494003
55.48142156
55.47790813
55.47439962
55.47089595
55.46739703
55.46390277
55.46041308
55.45692787
55.45344707
55.44997059
55.44649836
55.4430303
55.43956635
55.43610643
55.43265049
55.42919845
55.42575025
55.42230585
55.41886518
55.4154282
55.41199485
55.40856509
55.40513887
55.40171614
55.39829687
55.39488102
55.39146855
55.38805941
55.38465357
55.38125101
55.37785167
55.37445552
55.37106254
55.36767268
55.36428591
55.3609022
55.3575215
55.35414378
55.350769
55.34739712
55.34402811
55.34066191
55.3372985
55.33393782
55.33057984
55.3272245
55.32387175
55.32052156
55.31717387
55.31382862
55.31048577
55.30714527
55.30380705
55.30047107
55.29713726
55.29380557
55.29047594
55.28714831
55.28382262
55.28049881
55.27717683
55.2738566
55.27053807
55.26722117
55.26390585
55.26059204
55.25727969
55.25396873
55.25065911
55.24735076
55.24404362
55.24073763
55.23743275
55.2341289
55.23082605
55.22752413
55.22422309
55.22092288
55.21762345
55.21432475
55.21102674
55.20772936
55.20443257
55.20113633
55.1978406
55.19454534
55.19125052
55.18795609
55.18466202
55.18136828
55.17807484
55.17478168
55.17148875
55.16819604
55.16490352
55.16161118
55.15831899
55.15502693
55.15173499
55.14844315
55.14515139
55.14185971
55.13856808
55.13527651
55.13198497
55.12869347
55.125402
55.12211054
55.1188191
55.11552767
55.11223625
55.10894484
55.10565343
55.10236201
55.0990706
55.09577918
55.09248777
55.08919634
55.08590491
55.08261348
55.07932204
55.0760306
55.07273915
55.0694477
55.06615624
55.06286477
55.0595733
55.05628182
55.05299033
55.04969884
55.04640735
55.04311585
55.03982434
55.03653282
55.0332413
55.02994978
55.02665825
55.02336671
55.02007516
55.01678361
55.01349206
55.0102005
55.00690893
55.00361735
55.00032577
54.99703418
54.99374259
54.99045099
54.98715939
54.98386778
54.98057616
54.97728454
54.97399291
54.97070127
54.96740963
54.96411798
54.96082633
54.95753467
54.954243
54.95095133
54.94765965
54.94436796
54.94107627
54.93778457
54.93449287
54.93120116
54.92790944
54.92461772
54.92132599
54.91803426
54.91474252
54.91145077
54.90815901
54.90486725
54.90157549
54.89828371
54.89499194
54.89170015
54.88840836
54.88511656
54.88182476
54.87853295
54.87524113
54.87194931
54.86865748
54.86536564
54.8620738
54.85878195
54.85549009
54.85219823
54.84890636
54.84561449
54.84232261
54.83903072
54.83573883
54.83244693
54.82915502
54.82586311
54.82257119
54.81927926
54.81598733
54.81269539
54.80940345
54.80611149
54.80281953
54.79952757
54.7962356
54.79294362
54.78965164
54.78635965
54.78306765
54.77977564
54.77648363
54.77319162
54.76989959
54.76660756
54.76331553
54.76002348
54.75673143
54.75343938
54.75014731
54.74685524
54.74356317
54.74027108
54.73697899
54.7336869
54.73039479
54.72710268
54.72381057
54.72051844
54.71722632
54.71393418
54.71064204
54.70734989
54.70405773
54.70076557
54.6974734
54.69418122
54.69088904
54.68759685
54.68430465
54.68101245
54.67772024
54.67442803
54.6711358
54.66784357
54.66455133
54.66125909
54.65796684
54.65467459
54.6513823
54.64809006
54.64479773
54.64150573
54.64150573
56.50011843
56.50011843
56.25477542
56.20728733
56.18546753
56.17035655
56.1579981
56.14704275
56.136908
56.12730923
56.11809669
56.1091873
56.10053264
56.09210271
56.08387749
56.07584235
56.06798564
56.06029738
56.05276856
56.04539085
56.03815642
56.03105785
56.02408814
56.01724067
56.01050922
56.00388792
55.99737129
55.99095417
55.98463177
55.97839959
55.97225344
55.96618939
55.96020379
55.9542932
55.94845444
55.94268449
55.93698054
55.93133997
55.92576028
55.92023915
55.91477439
55.90936393
55.90400581
55.89869819
55.89343934
55.8882276
55.88306141
55.87793929
55.87285982
55.86782167
55.86282356
55.85786428
55.85294268
55.84805764
55.84320812
55.83839311
55.83361163
55.82886278
55.82414566
55.81945943
55.81480326
55.81017639
55.80557805
55.80100752
55.79646411
55.79194715
55.78745598
55.78298999
55.77854857
55.77413115
55.76973715
55.76536604
55.76101729
55.75669039
55.75238485
55.74810019
55.74383595
55.73959167
55.73536693