# vtk DataFile Version 2.0
FlowField
ASCII
DATASET STRUCTURED_GRID
DIMENSIONS 400 1 200
POINTS 80000 float
0 0 0
0.08 0 0
0.16 0 0
0.24 0 0
0.32 0 0
0.4 0 0
0.48 0 0
0.56 0 0
0.64 0 0
0.72 0 0
0.8 0 0
0.88 0 0
0.96 0 0
1.04 0 0
1.12 0 0
1.2 0 0
1.28 0 0
1.36 0 0
1.44 0 0
1.52 0 0
1.6 0 0
1.68 0 0
1.76 0 0
1.84 0 0
1.92 0 0
2 0 0
2.08 0 0
2.16 0 0
2.24 0 0
2.32 0 0
2.4 0 0
2.48 0 0
2.56 0 0
2.64 0 0
2.72 0 0
2.8 0 0
2.88 0 0
2.96 0 0
3.04 0 0
3.12 0 0
3.2 0 0
3.28 0 0
3.36 0 0
3.44 0 0
3.52 0 0
3.6 0 0
3.68 0 0
3.76 0 0
3.84 0 0
3.92 0 0
4 0 0
4.08 0 0
4.16 0 0
4.24 0 0
4.32 0 0
4.4 0 0
4.48 0 0
4.56 0 0
4.64 0 0
4.72 0 0
4.8 0 0
4.88 0 0
4.96 0 0
5.04 0 0
5.12 0 0
5.2 0 0
5.28 0 0
5.36 0 0
5.44 0 0
5.52 0 0
5.6 0 0
5.68 0 0
5.76 0 0
5.84 0 0
5.92 0 0
6 0 0
6.08 0 0
6.16 0 0
6.24 0 0
6.32 0 0
6.4 0 0
6.48 0 0
6.56 0 0
6.64 0 0
6.72 0 0
6.8 0 0
6.88 0 0
6.96 0 0
7.04 0 0
7.12 0 0
7.2 0 0
7.28 0 0
7.36 0 0
7.44 0 0
7.52 0 0
7.6 0 0
7.68 0 0
7.76 0 0
7.84 0 0
7.92 0 0
8 0 0
8.08 0 0
8.16 0 0
8.24 0 0
8.32 0 0
8.4 0 0
8.48 0 0
8.56 0 0
8.64 0 0
8.72 0 0
8.8 0 0
8.88 0 0
8.96 0 0
9.04 0 0
9.12 0 0
9.2 0 0
9.28 0 0
9.36 0 0
9.44 0 0
9.52 0 0
9.6 0 0
9.68 0 0
9.76 0 0
9.84 0 0
9.92 0 0
10 0 0
10.08 0 0
10.16 0 0
10.24 0 0
10.32 0 0
10.4 0 0
10.48 0 0
10.56 0 0
10.64 0 0
10.72 0 0
10.8 0 0
10.88 0 0
10.96 0 0
11.04 0 0
11.12 0 0
11.2 0 0
11.28 0 0
11.36 0 0
11.44 0 0
11.52 0 0
11.6 0 0
11.68 0 0
11.76 0 0
11.84 0 0
11.92 0 0
12 0 0
12.08 0 0
12.16 0 0
12.24 0 0
12.32 0 0
12.4 0 0
12.48 0 0
12.56 0 0
12.64 0 0
12.72 0 0
12.8 0 0
12.88 0 0
12.96 0 0
13.04 0 0
13.12 0 0
13.2 0 0
13.28 0 0
13.36 0 0
13.44 0 0
13.52 0 0
13.6 0 0
13.68 0 0
13.76 0 0
13.84 0 0
13.92 0 0
14 0 0
14.08 0 0
14.16 0 0
14.24 0 0
14.32 0 0
14.4 0 0
14.48 0 0
14.56 0 0
14.64 0 0
14.72 0 0
14.8 0 0
14.88 0 0
14.96 0 0
15.04 0 0
15.12 0 0
15.2 0 0
15.28 0 0
15.36 0 0
15.44 0 0
15.52 0 0
15.6 0 0
15.68 0 0
15.76 0 0
15.84 0 0
15.92 0 0
16 0 0
16.08 0 0
16.16 0 0
16.24 0 0
16.32 0 0
16.4 0 0
16.48 0 0
16.56 0 0
16.64 0 0
16.72 0 0
16.8 0 0
16.88 0 0
16.96 0 0
17.04 0 0
17.12 0 0
17.2 0 0
17.28 0 0
17.36 0 0
17.44 0 0
17.52 0 0
17.6 0 0
17.68 0 0
17.76 0 0
17.84 0 0
17.92 0 0
18 0 0
18.08 0 0
18.16 0 0
18.24 0 0
18.32 0 0
18.4 0 0
18.48 0 0
18.56 0 0
18.64 0 0
18.72 0 0
18.8 0 0
18.88 0 0
18.96 0 0
19.04 0 0
19.12 0 0
19.2 0 0
19.28 0 0
19.36 0 0
19.44 0 0
19.52 0 0
19.6 0 0
19.68 0 0
19.76 0 0
19.84 0 0
19.92 0 0
20 0 0
20.08 0 0
20.16 0 0
20.24 0 0
20.32 0 0
20.4 0 0
20.48 0 0
20.56 0 0
20.64 0 0
20.72 0 0
20.8 0 0
20.88 0 0
20.96 0 0
21.04 0 0
21.12 0 0
21.2 0 0
21.28 0 0
21.36 0 0
21.44 0 0
21.52 0 0
21.6 0 0
21.68 0 0
21.76 0 0
21.84 0 0
21.92 0 0
22 0 0
22.08 0 0
22.16 0 0
22.24 0 0
22.32 0 0
22.4 0 0
22.48 0 0
22.56 0 0
22.64 0 0
22.72 0 0
22.8 0 0
22.88 0 0
22.96 0 0
23.04 0 0
23.12 0 0
23.2 0 0
23.28 0 0
23.36 0 0
23.44 0 0
23.52 0 0
23.6 0 0
23.68 0 0
23.76 0 0
23.84 0 0
23.92 0 0
24 0 0
24.08 0 0
24.16 0 0
24.24 0 0
24.32 0 0
24.4 0 0
24.48 0 0
24.56 0 0
24.64 0 0
24.72 0 0
24.8 0 0
24.88 0 0
24.96 0 0
25.04 0 0
25.12 0 0
25.2 0 0
25.28 0 0
25.36 0 0
25.44 0 0
25.52 0 0
25.6 0 0
25.68 0 0
25.76 0 0
25.84 0 0
25.92 0 0
26 0 0
26.08 0 0
26.16 0 0
26.24 0 0
26.32 0 0
26.4 0 0
26.48 0 0
26.56 0 0
26.64 0 0
26.72 0 0
26.8 0 0
26.88 0 0
26.96 0 0
27.04 0 0
27.12 0 0
27.2 0 0
27.28 0 0
27.36 0 0
27.44 0 0
27.52 0 0
27.6 0 0
27.68 0 0
27.76 0 0
27.84 0 0
27.92 0 0
28 0 0
28.08 0 0
28.16 0 0
28.24 0 0
28.32 0 0
28.4 0 0
28.48 0 0
28.56 0 0
28.64 0 0
28.72 0 0
28.8 0 0
28.88 0 0
28.96 0 0
29.04 0 0
29.12 0 0
29.2 0 0
29.28 0 0
29.36 0 0
29.44 0 0
29.52 0 0
29.6 0 0
29.68 0 0
29.76 0 0
29.84 0 0
29.92 0 0
30 0 0
30.08 0 0
30.16 0 0
30.24 0 0
30.32 0 0
30.4 0 0
30.48 0 0
30.56 0 0
30.64 0 0
30.72 0 0
30.8 0 0
30.88 0 0
30.96 0 0
31.04 0 0
31.12 0 0
31.2 0 0
31.28 0 0
31.36 0 0
31.44 0 0
31.52 0 0
31.6 0 0
31.68 0 0
31.76 0 0
31.84 0 0
31.92 0 0
0 0.005 0
0.08 0.005 0
0.16 0.005 0
0.24 0.005 0
0.32 0.005 0
0.4 0.005 0
0.48 0.005 0
0.56 0.005 0
0.64 0.005 0
0.72 0.005 0
0.8 0.005 0
0.88 0.005 0
0.96 0.005 0
1.04 0.005 0
1.12 0.005 0
1.2 0.005 0
1.28 0.005 0
1.36 0.005 0
1.44 0.005 0
1.52 0.005 0
1.6 0.005 0
1.68 0.005 0
1.76 0.005 0
1.84 0.005 0
1.92 0.005 0
2 0.005 0
2.08 0.005 0
2.16 0.005 0
2.24 0.005 0
2.32 0.005 0
2.4 0.005 0
2.48 0.005 0
2.56 0.005 0
2.64 0.005 0
2.72 0.005 0
2.8 0.005 0
2.88 0.005 0
2.96 0.005 0
3.04 0.005 0
3.12 0.005 0
3.2 0.005 0
3.28 0.005 0
3.36 0.005 0
3.44 0.005 0
3.52 0.005 0
3.6 0.005 0
3.68 0.005 0
3.76 0.005 0
3.84 0.005 0
3.92 0.005 0
4 0.005 0
4.08 0.005 0
4.16 0.005 0
4.24 0.005 0
4.32 0.005 0
4.4 0.005 0
4.48 0.005 0
4.56 0.005 0
4.64 0.005 0
4.72 0.005 0
4.8 0.005 0
4.88 0.005 0
4.96 0.005 0
5.04 0.005 0
5.12 0.005 0
5.2 0.005 0
5.28 0.005 0
5.36 0.005 0
5.44 0.005 0
5.52 0.005 0
5.6 0.005 0
5.68 0.005 0
5.76 0.005 0
5.84 0.005 0
5.92 0.005 0
6 0.005 0
6.08 0.005 0
6.16 0.005 0
6.24 0.005 0
6.32 0.005 0
6.4 0.005 0
6.48 0.005 0
6.56 0.005 0
6.64 0.005 0
6.72 0.005 0
6.8 0.005 0
6.88 0.005 0
6.96 0.005 0
7.04 0.005 0
7.12 0.005 0
7.2 0.005 0
7.28 0.005 0
7.36 0.005 0
7.44 0.005 0
7.52 0.005 0
7.6 0.005 0
7.68 0.005 0
7.76 0.005 0
7.84 0.005 0
7.92 0.005 0
8 0.005 0
8.08 0.005 0
8.16 0.005 0
8.24 0.005 0
8.32 0.005 0
8.4 0.005 0
8.48 0.005 0
8.56 0.005 0
8.64 0.005 0
8.72 0.005 0
8.8 0.005 0
8.88 0.005 0
8.96 0.005 0
9.04 0.005 0
9.12 0.005 0
9.2 0.005 0
9.28 0.005 0
9.36 0.005 0
9.44 0.005 0
9.52 0.005 0
9.6 0.005 0
9.68 0.005 0
9.76 0.005 0
9.84 0.005 0
9.92 0.005 0
10 0.005 0
10.08 0.005 0
10.16 0.005 0
10.24 0.005 0
10.32 0.005 0
10.4 0.005 0
10.48 0.005 0
10.56 0.005 0
10.64 0.005 0
10.72 0.005 0
10.8 0.005 0
10.88 0.005 0
10.96 0.005 0
11.04 0.005 0
11.12 0.005 0
11.2 0.005 0
11.28 0.005 0
11.36 0.005 0
11.44 0.005 0
11.52 0.005 0
11.6 0.005 0
11.68 0.005 0
11.76 0.005 0
11.84 0.005 0
11.92 0.005 0
12 0.005 0
12.08 0.005 0
12.16 0.005 0
12.24 0.005 0
12.32 0.005 0
12.4 0.005 0
12.48 0.005 0
12.56 0.005 0
12.64 0.005 0
12.72 0.005 0
12.8 0.005 0
12.88 0.005 0
12.96 0.005 0
13.04 0.005 0
13.12 0.005 0
13.2 0.005 0
13.28 0.005 0
13.36 0.005 0
13.44 0.005 0
13.52 0.005 0
13.6 0.005 0
13.68 0.005 0
13.76 0.005 0
13.84 0.005 0
13.92 0.005 0
14 0.005 0
14.08 0.005 0
14.16 0.005 0
14.24 0.005 0
14.32 0.005 0
14.4 0.005 0
14.48 0.005 0
14.56 0.005 0
14.64 0.005 0
14.72 0.005 0
14.8 0.005 0
14.88 0.005 0
14.96 0.005 0
15.04 0.005 0
15.12 0.005 0
15.2 0.005 0
15.28 0.005 0
15.36 0.005 0
15.44 0.005 0
15.52 0.005 0
15.6 0.005 0
15.68 0.005 0
15.76 0.005 0
15.84 0.005 0
15.92 0.005 0
16 0.005 0
16.08 0.005 0
16.16 0.005 0
16.24 0.005 0
16.32 0.005 0
16.4 0.005 0
16.48 0.005 0
16.56 0.005 0
16.64 0.005 0
16.72 0.005 0
16.8 0.005 0
16.88 0.005 0
16.96 0.005 0
17.04 0.005 0
17.12 0.005 0
17.2 0.005 0
17.28 0.005 0
17.36 0.005 0
17.44 0.005 0
17.52 0.005 0
17.6 0.005 0
17.68 0.005 0
17.76 0.005 0
17.84 0.005 0
17.92 0.005 0
18 0.005 0
18.08 0.005 0
18.16 0.005 0
18.24 0.005 0
18.32 0.005 0
18.4 0.005 0
18.48 0.005 0
18.56 0.005 0
18.64 0.005 0
18.72 0.005 0
18.8 0.005 0
18.88 0.005 0
18.96 0.005 0
19.04 0.005 0
19.12 0.005 0
19.2 0.005 0
19.28 0.005 0
19.36 0.005 0
19.44 0.005 0
19.52 0.005 0
19.6 0.005 0
19.68 0.005 0
19.76 0.005 0
19.84 0.005 0
19.92 0.005 0
20 0.005 0
20.08 0.005 0
20.16 0.005 0
20.24 0.005 0
20.32 0.005 0
20.4 0.005 0
20.48 0.005 0
20.56 0.005 0
20.64 0.005 0
20.72 0.005 0
20.8 0.005 0
20.88 0.005 0
20.96 0.005 0
21.04 0.005 0
21.12 0.005 0
21.2 0.005 0
21.28 0.005 0
21.36 0.005 0
21.44 0.005 0
21.52 0.005 0
21.6 0.005 0
21.68 0.005 0
21.76 0.005 0
21.84 0.005 0
21.92 0.005 0
22 0.005 0
22.08 0.005 0
22.16 0.005 0
22.24 0.005 0
22.32 0.005 0
22.4 0.005 0
22.48 0.005 0
22.56 0.005 0
22.64 0.005 0
22.72 0.005 0
22.8 0.005 0
22.88 0.005 0
22.96 0.005 0
23.04 0.005 0
23.12 0.005 0
23.2 0.005 0
23.28 0.005 0
23.36 0.005 0
23.44 0.005 0
23.52 0.005 0
23.6 0.005 0
23.68 0.005 0
23.76 0.005 0
23.84 0.005 0
23.92 0.005 0
24 0.005 0
24.08 0.005 0
24.16 0.005 0
24.24 0.005 0
24.32 0.005 0
24.4 0.005 0
24.48 0.005 0
24.56 0.005 0
24.64 0.005 0
24.72 0.005 0
24.8 0.005 0
24.88 0.005 0
24.96 0.005 0
25.04 0.005 0
25.12 0.005 0
25.2 0.005 0
25.28 0.005 0
25.36 0.005 0
25.44 0.005 0
25.52 0.005 0
25.6 0.005 0
25.68 0.005 0
25.76 0.005 0
25.84 0.005 0
25.92 0.005 0
26 0.005 0
26.08 0.005 0
26.16 0.005 0
26.24 0.005 0
26.32 0.005 0
26.4 0.005 0
26.48 0.005 0
26.56 0.005 0
26.64 0.005 0
26.72 0.005 0
26.8 0.005 0
26.88 0.005 0
26.96 0.005 0
27.04 0.005 0
27.12 0.005 0
27.2 0.005 0
27.28 0.005 0
27.36 0.005 0
27.44 0.005 0
27.52 0.005 0
27.6 0.005 0
27.68 0.005 0
27.76 0.005 0
27.84 0.005 0
27.92 0.005 0
28 0.005 0
28.08 0.005 0
28.16 0.005 0
28.24 0.005 0
28.32 0.005 0
28.4 0.005 0
28.48 0.005 0
28.56 0.005 0
28.64 0.005 0
28.72 0.005 0
28.8 0.005 0
28.88 0.005 0
28.96 0.005 0
29.04 0.005 0
29.12 0.005 0
29.2 0.005 0
29.28 0.005 0
29.36 0.005 0
29.44 0.005 0
29.52 0.005 0
29.6 0.005 0
29.68 0.005 0
29.76 0.005 0
29.84 0.005 0
29.92 0.005 0
30 0.005 0
30.08 0.005 0
30.16 0.005 0
30.24 0.005 0
30.32 0.005 0
30.4 0.005 0
30.48 0.005 0
30.56 0.005 0
30.64 0.005 0
30.72 0.005 0
30.8 0.005 0
30.88 0.005 0
30.96 0.005 0
31.04 0.005 0
31.12 0.005 0
31.2 0.005 0
31.28 0.005 0
31.36 0.005 0
31.44 0.005 0
31.52 0.005 0
31.6 0.005 0
31.68 0.005 0
31.76 0.005 0
31.84 0.005 0
31.92 0.005 0
0 0.01 0
0.08 0.01 0
0.16 0.01 0
0.24 0.01 0
0.32 0.01 0
0.4 0.01 0
0.48 0.01 0
0.56 0.01 0
0.64 0.01 0
0.72 0.01 0
0.8 0.01 0
0.88 0.01 0
0.96 0.01 0
1.04 0.01 0
1.12 0.01 0
1.2 0.01 0
1.28 0.01 0
1.36 0.01 0
1.44 0.01 0
1.52 0.01 0
1.6 0.01 0
1.68 0.01 0
1.76 0.01 0
1.84 0.01 0
1.92 0.01 0
2 0.01 0
2.08 0.01 0
2.16 0.01 0
2.24 0.01 0
2.32 0.01 0
2.4 0.01 0
2.48 0.01 0
2.56 0.01 0
2.64 0.01 0
2.72 0.01 0
2.8 0.01 0
2.88 0.01 0
2.96 0.01 0
3.04 0.01 0
3.12 0.01 0
3.2 0.01 0
3.28 0.01 0
3.36 0.01 0
3.44 0.01 0
3.52 0.01 0
3.6 0.01 0
3.68 0.01 0
3.76 0.01 0
3.84 0.01 0
3.92 0.01 0
4 0.01 0
4.08 0.01 0
4.16 0.01 0
4.24 0.01 0
4.32 0.01 0
4.4 0.01 0
4.48 0.01 0
4.56 0.01 0
4.64 0.01 0
4.72 0.01 0
4.8 0.01 0
4.88 0.01 0
4.96 0.01 0
5.04 0.01 0
5.12 0.01 0
[...]
POINT_DATA 80000

SCALARS p float 1
LOOKUP_TABLE default
1
56.5453514
56.24361637
56.20245657
56.18236659
56.16794764
56.15594667
56.14520324
56.1352051
56.12569949
56.11655317
56.10769243
56.0990745
56.09067298
56.0824702
56.07445315
56.06661127
56.05893535
56.05141695
56.04404815
56.03682142
56.02972956
56.02276575
56.01592352
56.00919672
56.0025796
55.99606672
55.98965301
55.9833337
55.97710434
55.97096077
55.96489909
55.95891567
55.95300709
55.94717019
55.94140196
55.93569962
55.93006054
55.92448224
55.91896241
55.91349887
55.90808955
55.9027325
55.8974259
55.892168
55.88695716
55.88179181
55.87667049
55.87159178
55.86655435
55.86155692
55.8565983
55.85167731
55.84679286
55.8419439
55.83712942
55.83234846
55.82760009
55.82288344
55.81819765
55.81354192
55.80891545
55.80431751
55.79974736
55.79520431
55.79068769
55.78619686
55.78173119
55.77729009
55.77287296
55.76847925
55.76410842
55.75975994
55.7554333
55.75112801
55.74684359
55.74257959
55.73833554
55.73411102
55.7299056
55.72571887
55.72155043
55.7173999
55.71326689
55.70915104
55.70505198
55.70096938
55.69690288
55.69285216
55.6888169
55.68479678
55.68079149
55.67680073
55.67282421
55.66886165
55.66491276
55.66097728
55.65705492
55.65314545
55.64924859
55.6453641
55.64149174
55.63763127
55.63378246
55.62994507
55.62611888
55.62230368
55.61849924
55.61470537
55.61092185
55.60714849
55.60338508
55.59963143
55.59588736
55.59215268
55.5884272
55.58471076
55.58100316
55.57730425
55.57361385
55.56993181
55.56625795
55.56259212
55.55893417
55.55528395
55.55164129
55.54800607
55.54437813
55.54075733
55.53714354
55.53353662
55.52993644
55.52634286
55.52275577
55.51917503
55.51560052
55.51203212
55.50846971
55.50491318
55.50136241
55.49781729
55.49427772
55.49074357
55.48721476
55.48369117
55.4801727
55.47665926
55.47315074
55.46964705
55.4661481
55.46265379
55.45916404
55.45567875
55.45219783
55.44872121
55.4452488
55.44178051
55.43831627
55.43485599
55.4313996
55.42794703
55.42449819
55.42105302
55.41761143
55.41417337
55.41073877
55.40730754
55.40387964
55.40045499
55.39703353
55.3936152
55.39019994
55.38678768
55.38337838
55.37997197
55.3765684
55.37316761
55.36976956
55.36637419
55.36298145
55.3595913
55.35620369
55.35281858
55.34943592
55.34605567
55.3426778
55.33930226
55.33592902
55.33255804
55.32918929
55.32582274
55.32245835
55.3190961
55.31573595
55.31237789
55.30902187
55.30566788
55.30231589
55.29896587
55.29561781
55.29227167
55.28892743
55.28558508
55.28224458
55.27890592
55.27556907
55.27223401
55.26890071
55.26556916
55.26223933
55.2589112
55.25558473
55.25225991
55.24893672
55.24561512
55.24229509
55.23897661
55.23565964
55.23234416
55.22903013
55.22571754
55.22240634
55.21909652
55.21578803
55.21248085
55.20917494
55.20587027
55.20256682
55.19926453
55.19596339
55.19266335
55.18936438
55.18606645
55.18276952
55.17947357
55.17617854
55.17288441
55.16959115
55.16629871
55.16300707
55.1597162
55.15642604
55.15313659
55.1498478
55.14655963
55.14327207
55.13998507
55.1366986
55.13341265
55.13012717
55.12684214
55.12355754
55.12027333
55.11698949
55.113706
55.11042282
55.10713995
55.10385735
55.10057501
55.0972929
55.094011
55.0907293
55.08744779
55.08416644
55.08088523
55.07760416
55.07432321
55.07104237
55.06776163
55.06448097
55.06120039
55.05791987
55.05463941
55.051359
55.04807864
55.04479831
55.04151802
55.03823775
55.03495751
55.03167728
55.02839706
55.02511686
55.02183667
55.01855648
55.0152763
55.01199613
55.00871595
55.00543578
55.0021556
54.99887543
54.99559525
54.99231507
54.98903489
54.98575471
54.98247452
54.97919433
54.97591414
54.97263394
54.96935374
54.96607354
54.96279334
54.95951313
54.95623292
54.9529527
54.94967248
54.94639226
54.94311203
54.9398318
54.93655157
54.93327133
54.92999109
54.92671085
54.9234306
54.92015035
54.9168701
54.91358984
54.91030958
54.90702931
54.90374904
54.90046877
54.8971885
54.89390822
54.89062793
54.88734765
54.88406736
54.88078706
54.87750677
54.87422647
54.87094616
54.86766585
54.86438554
54.86110523
54.85782491
54.85454459
54.85126426
54.84798393
54.8447036
54.84142326
54.83814292
54.83486258
54.83158223
54.82830188
54.82502153
54.82174117
54.81846081
54.81518044
54.81190007
54.8086197
54.80533932
54.80205894
54.79877856
54.79549817
54.79221778
54.78893738
54.78565699
54.78237658
54.77909618
54.77581577
54.77253535
54.76925494
54.76597452
54.76269409
54.75941366
54.75613323
54.7528528
54.74957236
54.74629191
54.74301147
54.73973102
54.73645056
54.7331701
54.72988964
54.72660918
54.72332871
54.72004823
54.71676776
54.71348728
54.71020679
54.7069263
54.70364581
54.70036532
54.69708482
54.69380431
54.69052381
54.6872433
54.68396278
54.68068226
54.67740174
54.67412122
54.67084069
54.66756015
54.66427962
54.66099908
54.65771853
54.65443798
54.65115742
54.64787688
54.64459628
54.64131589
0.5
56.5453514
56.5453514
56.24361637
56.20245657
56.18236659
56.16794764
56.15594667
56.14520324
56.1352051
56.12569949
56.11655317
56.10769243
56.0990745
56.09067298
56.0824702
56.07445315
56.06661127
56.05893535
56.05141695
56.04404815
56.03682142
56.02972956
56.02276575
56.01592352
56.00919672
56.0025796
55.99606672
55.98965301
55.9833337
55.97710434
55.97096077
55.96489909
55.95891567
55.95300709
55.94717019
55.94140196
55.93569962
55.93006054
55.92448224
55.91896241
55.91349887
55.90808955
55.9027325
55.8974259
55.892168
55.88695716
55.88179181
55.87667049
55.87159178
55.86655435
55.86155692
55.8565983
55.85167731
55.84679286
55.8419439
55.83712942
55.83234846
55.82760009
55.82288344
55.81819765
55.81354192
55.80891545
55.80431751
55.79974736
55.79520431
55.79068769
55.78619686
55.78173119
55.77729009
55.77287296
55.76847925
55.76410842
55.75975994
55.7554333
55.75112801
55.74684359
55.74257959
55.73833554
55.73411102
55.7299056
55.72571887
55.72155043
55.7173999
55.71326689
55.70915104
55.70505198
55.70096938
55.69690288
55.69285216
55.6888169
55.68479678
55.68079149
55.67680073
55.67282421
55.66886165
55.66491276
55.66097728
55.65705492
55.65314545
55.64924859
55.6453641
55.64149174
55.63763127
55.63378246
55.62994507
55.62611888
55.62230368
55.61849924
55.61470537
55.61092185
55.60714849
55.60338508
55.59963143
55.59588736
55.59215268
55.5884272
55.58471076
55.58100316
55.57730425
55.57361385
55.56993181
55.56625795
55.56259212
55.55893417
55.55528395
55.55164129
55.54800607
55.54437813
55.54075733
55.53714354
55.53353662
55.52993644
55.52634286
55.52275577
55.51917503
55.51560052
55.51203212
55.50846971
55.50491318
55.50136241
55.49781729
55.49427772
55.49074357
55.48721476
55.48369117
55.4801727
55.47665926
55.47315074
55.46964705
55.4661481
55.46265379
55.45916404
55.45567875
55.45219783
55.44872121
55.4452488
55.44178051
55.43831627
55.43485599
55.4313996
55.42794703
55.42449819
55.42105302
55.41761143
55.41417337
55.41073877
55.40730754
55.40387964
55.40045499
55.39703353
55.3936152
55.39019994
55.38678768
55.38337838
55.37997197
55.3765684
55.37316761
55.36976956
55.36637419
55.36298145
55.3595913
55.35620369
55.35281858
55.34943592
55.34605567
55.3426778
55.33930226
55.33592902
55.33255804
55.32918929
55.32582274
55.32245835
55.3190961
55.31573595
55.31237789
55.30902187
55.30566788
55.30231589
55.29896587
55.29561781
55.29227167
55.28892743
55.28558508
55.28224458
55.27890592
55.27556907
55.27223401
55.26890071
55.26556916
55.26223933
55.2589112
55.25558473
55.25225991
55.24893672
55.24561512
55.24229509
55.23897661
55.23565964
55.23234416
55.22903013
55.22571754
55.22240634
55.21909652
55.21578803
55.21248085
55.20917494
55.20587027
55.20256682
55.19926453
55.19596339
55.19266335
55.18936438
55.18606645
55.18276952
55.17947357
55.17617854
55.17288441
55.16959115
55.16629871
55.16300707
55.1597162
55.15642604
55.15313659
55.1498478
55.14655963
55.14327207
55.13998507
55.1366986
55.13341265
55.13012717
55.12684214
55.12355754
55.12027333
55.11698949
55.113706
55.11042282
55.10713995
55.10385735
55.10057501
55.0972929
55.094011
55.0907293
55.08744779
55.08416644
55.08088523
55.07760416
55.07432321
55.07104237
55.06776163
55.06448097
55.06120039
55.05791987
55.05463941
55.051359
55.04807864
55.04479831
55.04151802
55.03823775
55.03495751
55.03167728
55.02839706
55.02511686
55.02183667
55.01855648
55.0152763
55.01199613
55.00871595
55.00543578
55.0021556
54.99887543
54.99559525
54.99231507
54.98903489
54.98575471
54.98247452
54.97919433
54.97591414
54.97263394
54.96935374
54.96607354
54.96279334
54.95951313
54.95623292
54.9529527
54.94967248
54.94639226
54.94311203
54.9398318
54.93655157
54.93327133
54.92999109
54.92671085
54.9234306
54.92015035
54.9168701
54.91358984
54.91030958
54.90702931
54.90374904
54.90046877
54.8971885
54.89390822
54.89062793
54.88734765
54.88406736
54.88078706
54.87750677
54.87422647
54.87094616
54.86766585
54.86438554
54.86110523
54.85782491
54.85454459
54.85126426
54.84798393
54.8447036
54.84142326
54.83814292
54.83486258
54.83158223
54.82830188
54.82502153
54.82174117
54.81846081
54.81518044
54.81190007
54.8086197
54.80533932
54.80205894
54.79877856
54.79549817
54.79221778
54.78893738
54.78565699
54.78237658
54.77909618
54.77581577
54.77253535
54.76925494
54.76597452
54.76269409
54.75941366
54.75613323
54.7528528
54.74957236
54.74629191
54.74301147
54.73973102
54.73645056
54.7331701
54.72988964
54.72660918
54.72332871
54.72004823
54.71676776
54.71348728
54.71020679
54.7069263
54.70364581
54.70036532
54.69708482
54.69380431
54.69052381
54.6872433
54.68396278
54.68068226
54.67740174
54.67412122
54.67084069
54.66756015
54.66427962
54.66099908
54.65771853
54.65443798
54.65115742
54.64787688
54.64459628
54.64131589
54.64131589
56.53076966
56.53076966
56.24745225
56.20371199
56.18300183
56.16834216
56.15621837
56.14540269
56.13535824
56.12582119
56.1166526
56.10777553
56.0991453
56.09073427
56.08252398
56.07450088
56.06665403
56.05897398
56.05145209
56.0440803
56.03685098
56.02975687
56.02279108
56.01594708
56.00921872
56.00260019
55.99608605
55.98967119
55.98335084
55.97712053
55.97097609
55.96491361
55.95892945
55.9530202
55.94718267
55.94141387
55.93571099
55.9300714
55.92449264
55.91897237
55.91350842
55.90809871
55.90274131
55.89743436
55.89217614
55.886965
55.88179937
55.87667778
55.87159882
55.86656114
55.86156349
55.85660465
55.85168345
55.84679881
55.84194966
55.837135
55.83235387
55.82760534
55.82288853
55.8182026
55.81354672
55.80892012
55.80432204
55.79975176
55.7952086
55.79069186
55.78620092
55.78173515
55.77729393
55.77287671
55.7684829
55.76411198
55.75976341
55.75543668
55.75113131
55.74684681
55.74258273
55.7383386
55.73411401
55.72990852
55.72572172
55.72155322
55.71740262
55.71326955
55.70915363
55.70505452
55.70097186
55.6969053
55.69285453
55.68881922
55.68479904
55.6807937
55.6768029
55.67282633
55.66886372
55.66491479
55.66097926
55.65705686
55.65314735
55.64925045
55.64536592
55.64149352
55.63763301
55.63378416
55.62994674
55.62612051
55.62230528
55.61850081
55.6147069
55.61092335
55.60714996
55.60338652
55.59963284
55.59588874
55.59215403
55.58842853
55.58471205
55.58100443
55.57730549
55.57361507
55.569933
55.56625912
55.56259327
55.55893529
55.55528504
55.55164237
55.54800712
55.54437916
55.54075834
55.53714453
55.53353759
55.52993739
55.52634379
55.52275668
55.51917592
55.51560139
55.51203297
55.50847055
55.504914
55.50136322
55.49781808
55.49427849
55.49074433
55.4872155
55.4836919
55.48017342
55.47665996
55.47315143
55.46964772
55.46614876
55.46265444
55.45916467
55.45567937
55.45219844
55.44872181
55.44524938
55.44178108
55.43831683
55.43485654
55.43140014
55.42794755
55.42449871
55.42105352
55.41761193
55.41417386
55.41073924
55.40730801
55.4038801
55.40045544
55.39703397
55.39361563
55.39020036
55.3867881
55.38337878
55.37997236
55.37656878
55.37316799
55.36976993
55.36637455
55.36298181
55.35959165
55.35620403
55.35281891
55.34943625
55.34605599
55.34267811
55.33930257
55.33592932
55.33255834
55.32918958
55.32582302
55.32245863
55.31909637
55.31573622
55.31237815
55.30902213
55.30566813
55.30231613
55.29896611
55.29561804
55.29227189
55.28892765
55.28558529
55.28224479
55.27890612
55.27556927
55.2722342
55.2689009
55.26556934
55.26223951
55.25891137
55.2555849
55.25226007
55.24893687
55.24561527
55.24229524
55.23897675
55.23565977
55.23234428
55.22903026
55.22571766
55.22240646
55.21909663
55.21578814
55.21248095
55.20917504
55.20587037
55.2025669
55.19926461
55.19596347
55.19266342
55.18936445
55.18606652
55.18276959
55.17947363
55.1761786
55.17288447
55.1695912
55.16629876
55.16300712
55.15971624
55.15642608
55.15313662
55.14984783
55.14655966
55.14327209
55.13998509
55.13669863
55.13341267
55.13012719
55.12684216
55.12355756
55.12027334
55.1169895
55.11370601
55.11042283
55.10713996
55.10385736
55.10057501
55.0972929
55.09401101
55.09072931
55.08744779
55.08416644
55.08088523
55.07760416
55.07432322
55.07104237
55.06776163
55.06448097
55.06120039
55.05791987
55.05463941
55.051359
55.04807864
55.04479831
55.04151802
55.03823775
55.0349575
55.03167728
55.02839706
55.02511686
55.02183667
55.01855648
55.0152763
55.01199612
55.00871595
55.00543577
55.0021556
54.99887542
54.99559525
54.99231507
54.98903489
54.9857547
54.98247452
54.97919433
54.97591414
54.97263394
54.96935374
54.96607354
54.96279333
54.95951313
54.95623291
54.9529527
54.94967248
54.94639226
54.94311203
54.9398318
54.93655157
54.93327133
54.92999109
54.92671085
54.9234306
54.92015035
54.91687009
54.91358984
54.91030957
54.90702931
54.90374904
54.90046877
54.89718849
54.89390821
54.89062793
54.88734764
54.88406736
54.88078706
54.87750676
54.87422646
54.87094616
54.86766585
54.86438554
54.86110523
54.85782491
54.85454459
54.85126426
54.84798393
54.8447036
54.84142326
54.83814292
54.83486258
54.83158223
54.82830188
54.82502152
54.82174117
54.8184608
54.81518044
54.81190007
54.8086197
54.80533932
54.80205894
54.79877856
54.79549817
54.79221778
54.78893738
54.78565698
54.78237658
54.77909618
54.77581577
54.77253535
54.76925494
54.76597451
54.76269409
54.75941366
54.75613323
54.75285279
54.74957235
54.74629191
54.74301146
54.73973101
54.73645056
54.7331701
54.72988964
54.72660917
54.7233287
54.72004823
54.71676775
54.71348727
54.71020679
54.7069263
54.70364581
54.70036531
54.69708482
54.69380431
54.69052381
54.68724329
54.68396278
54.68068226
54.67740174
54.67412121
54.67084068
54.66756015
54.66427961
54.66099908
54.65771853
54.65443798
54.65115742
54.64787688
54.64459628
54.64131589
54.64131589
56.51478507
56.51478507
56.25064067
56.20489917
56.18361783
56.16872843
56.1564858
56.14559962
56.13550972
56.12594167
56.11675103
56.10785778
56.09921532
56.09079484
56.08257708
56.07454796
56.06669618
56.05901202
56.05148667
56.04411192
56.03688004
56.0297837
56.02281594
56.01597021
56.0092403
56.00262039
55.996105
55.98968901
55.98336763
55.97713639
55.97099109
55.96492783
55.95894295
55.95303304
55.94719489
55.94142552
55.93572211
55.93008203
55.9245028
55.91898211
55.91351776
55.90810767
55.90274991
55.89744264
55.89218411
55.88697267
55.88180676
55.87668491
55.87160569
55.86656779
55.86156991
55.85661085
55.85168946
55.84680462
55.84195529
55.83714045
55.83235916
55.82761047
55.82289351
55.81820743
55.81355141
55.80892467
55.80432647
55.79975607
55.79521278
55.79069594
55.78620488
55.781739
55.77729769
55.77288037
55.76848647
55.76411545
55.75976679
55.75543998
55.75113453
55.74684995
55.74258579
55.73834159
55.73411693
55.72991137
55.7257245
55.72155594
55.71740527
55.71327214
55.70915616
55.70505699
55.70097427
55.69690767
55.69285684
55.68882147
55.68480125
55.68079586
55.67680501
55.6728284
55.66886574
55.66491676
55.66098119
55.65705876
55.6531492
55.64925226
55.64536769
55.64149526
55.63763471
55.63378582
55.62994836
55.6261221
55.62230683
55.61850233
55.6147084
55.61092482
55.60715139
55.60338792
55.59963422
55.59589009
55.59215535
55.58842982
55.58471332
55.58100567
55.57730671
55.57361626
55.56993416
55.56626026
55.56259438
55.55893639
55.55528611
55.55164342
55.54800815
55.54438017
55.54075933
55.5371455
55.53353854
55.52993832
55.5263447
55.52275757
55.51917679
55.51560225
55.51203381
55.50847137
55.50491481
55.501364
55.49781885
55.49427925
55.49074507
55.48721623
55.48369261
55.48017411
55.47666064
55.47315209
55.46964838
55.4661494
55.46265507
55.45916529
55.45567997
55.45219903
55.44872239
55.44524995
55.44178164
55.43831737
55.43485707
55.43140066
55.42794807
55.42449921
55.42105401
55.41761241
55.41417433
55.4107397
55.40730846
55.40388054
55.40045587
55.3970344
55.39361605
55.39020077
55.3867885
55.38337918
55.37997275
55.37656916
55.37316836
55.36977029
55.36637491
55.36298215
55.35959199
55.35620437
55.35281924
55.34943657
55.34605631
55.34267842
55.33930287
55.33592961
55.33255862
55.32918986
55.3258233
55.3224589
55.31909664
55.31573648
55.3123784
55.30902237
55.30566837
55.30231637
55.29896634
55.29561826
55.29227211
55.28892787
55.2855855
55.28224499
55.27890632
55.27556946
55.27223439
55.26890108
55.26556952
55.26223968
55.25891153
55.25558506
55.25226023
55.24893702
55.24561541
55.24229538
55.23897688
55.2356599
55.23234441
55.22903038
55.22571777
55.22240657
55.21909673
55.21578824
55.21248105
55.20917513
55.20587045
55.20256699
55.19926469
55.19596354
55.19266349
55.18936452
55.18606658
55.18276965
55.17947368
55.17617865
55.17288452
55.16959125
55.16629881
55.16300716
55.15971628
55.15642612
55.15313666
55.14984786
55.14655969
55.14327212
55.13998512
55.13669865
55.13341269
55.13012721
55.12684218
55.12355757
55.12027336
55.11698952
55.11370602
55.11042285
55.10713997
55.10385737
55.10057502
55.09729291
55.09401101
55.09072931
55.0874478
55.08416644
55.08088524
55.07760417
55.07432322
55.07104238
55.06776163
55.06448097
55.06120039
55.05791987
55.05463941
55.051359
55.04807864
55.04479831
55.04151802
55.03823775
55.0349575
55.03167727
55.02839706
55.02511686
55.02183667
55.01855648
55.0152763
55.01199612
55.00871595
55.00543577
55.0021556
54.99887542
54.99559525
54.99231507
54.98903489
54.9857547
54.98247452
54.97919433
54.97591413
54.97263394
54.96935374
54.96607354
54.96279333
54.95951312
54.95623291
54.9529527
54.94967248
54.94639225
54.94311203
54.9398318
54.93655156
54.93327133
54.92999109
54.92671084
54.9234306
54.92015035
54.91687009
54.91358983
54.91030957
54.90702931
54.90374904
54.90046877
54.89718849
54.89390821
54.89062793
54.88734764
54.88406735
54.88078706
54.87750676
54.87422646
54.87094616
54.86766585
54.86438554
54.86110522
54.85782491
54.85454458
54.85126426
54.84798393
54.8447036
54.84142326
54.83814292
54.83486258
54.83158223
54.82830188
54.82502152
54.82174116
54.8184608
54.81518044
54.81190007
54.8086197
54.80533932
54.80205894
54.79877855
54.79549817
54.79221778
54.78893738
54.78565698
54.78237658
54.77909617
54.77581576
54.77253535
54.76925493
54.76597451
54.76269409
54.75941366
54.75613323
54.75285279
54.74957235
54.74629191
54.74301146
54.73973101
54.73645056
54.7331701
54.72988964
54.72660917
54.7233287
54.72004823
54.71676775
54.71348727
54.71020679
54.7069263
54.70364581
54.70036531
54.69708481
54.69380431
54.6905238
54.68724329
54.68396278
54.68068226
54.67740174
54.67412121
54.67084068
54.66756015
54.66427961
54.66099907
54.65771852
54.65443798
54.65115741
54.64787688
54.64459629
54.64131589
54.64131589
56.49887025
56.49887025
56.25352727
56.2060392
56.18421941
56.16910846
56.15675003
56.1457947
56.13565997
56.12606122
56.11684869
56.10793933
56.09928468
56.09085477
56.08262957
56.07459445
56.06673776
56.05904951
56.05152071
56.04414302
56.03690861
56.02981006
56.02284036
56.01599292
56.00926148
56.0026402
55.99612358
55.98970648
55.98338409
55.97715193
55.97100579
55.96494176
55.95895617
55.9530456
55.94720685
55.94143692
55.93573299
55.93009243
55.92451275
55.91899164
55.91352689
55.90811644
55.90275833
55.89745073
55.89219189
55.88698017
55.88181399
55.87669187
55.87161242
55.86657428
55.86157618
55.85661691
55.85169532
55.84681029
55.84196078
55.83714578
55.83236432
55.82761547
55.82289836
55.81821214
55.81355598
55.80892912
55.80433079
55.79976027
55.79521687
55.79069991
55.78620875
55.78174277
55.77730135
55.77288393
55.76848994
55.76411884
55.75977009
55.7554432
55.75113767
55.74685301
55.74258878
55.73834451
55.73411977
55.72991415