# vtk DataFile Version 2.0
FlowField
ASCII
DATASET STRUCTURED_GRID
DIMENSIONS 400 1 200
POINTS 80000 float
0 0 0
0.08 0 0
0.16 0 0
0.24 0 0
0.32 0 0
0.4 0 0
0.48 0 0
0.56 0 0
0.64 0 0
0.72 0 0
0.8 0 0
0.88 0 0
0.96 0 0
1.04 0 0
1.12 0 0
1.2 0 0
1.28 0 0
1.36 0 0
1.44 0 0
1.52 0 0
1.6 0 0
1.68 0 0
1.76 0 0
1.84 0 0
1.92 0 0
2 0 0
2.08 0 0
2.16 0 0
2.24 0 0
2.32 0 0
2.4 0 0
2.48 0 0
2.56 0 0
2.64 0 0
2.72 0 0
2.8 0 0
2.88 0 0
2.96 0 0
3.04 0 0
3.12 0 0
3.2 0 0
3.28 0 0
3.36 0 0
3.44 0 0
3.52 0 0
3.6 0 0
3.68 0 0
3.76 0 0
3.84 0 0
3.92 0 0
4 0 0
4.08 0 0
4.16 0 0
4.24 0 0
4.32 0 0
4.4 0 0
4.48 0 0
4.56 0 0
4.64 0 0
4.72 0 0
4.8 0 0
4.88 0 0
4.96 0 0
5.04 0 0
5.12 0 0
5.2 0 0
5.28 0 0
5.36 0 0
5.44 0 0
5.52 0 0
5.6 0 0
5.68 0 0
5.76 0 0
5.84 0 0
5.92 0 0
6 0 0
6.08 0 0
6.16 0 0
6.24 0 0
6.32 0 0
6.4 0 0
6.48 0 0
6.56 0 0
6.64 0 0
6.72 0 0
6.8 0 0
6.88 0 0
6.96 0 0
7.04 0 0
7.12 0 0
7.2 0 0
7.28 0 0
7.36 0 0
7.44 0 0
7.52 0 0
7.6 0 0
7.68 0 0
7.76 0 0
7.84 0 0
7.92 0 0
8 0 0
8.08 0 0
8.16 0 0
8.24 0 0
8.32 0 0
8.4 0 0
8.48 0 0
8.56 0 0
8.64 0 0
8.72 0 0
8.8 0 0
8.88 0 0
8.96 0 0
9.04 0 0
9.12 0 0
9.2 0 0
9.28 0 0
9.36 0 0
9.44 0 0
9.52 0 0
9.6 0 0
9.68 0 0
9.76 0 0
9.84 0 0
9.92 0 0
10 0 0
10.08 0 0
10.16 0 0
10.24 0 0
10.32 0 0
10.4 0 0
10.48 0 0
10.56 0 0
10.64 0 0
10.72 0 0
10.8 0 0
10.88 0 0
10.96 0 0
11.04 0 0
11.12 0 0
11.2 0 0
11.28 0 0
11.36 0 0
11.44 0 0
11.52 0 0
11.6 0 0
11.68 0 0
11.76 0 0
11.84 0 0
11.92 0 0
12 0 0
12.08 0 0
12.16 0 0
12.24 0 0
12.32 0 0
12.4 0 0
12.48 0 0
12.56 0 0
12.64 0 0
12.72 0 0
12.8 0 0
12.88 0 0
12.96 0 0
13.04 0 0
13.12 0 0
13.2 0 0
13.28 0 0
13.36 0 0
13.44 0 0
13.52 0 0
13.6 0 0
13.68 0 0
13.76 0 0
13.84 0 0
13.92 0 0
14 0 0
14.08 0 0
14.16 0 0
14.24 0 0
14.32 0 0
14.4 0 0
14.48 0 0
14.56 0 0
14.64 0 0
14.72 0 0
14.8 0 0
14.88 0 0
14.96 0 0
15.04 0 0
15.12 0 0
15.2 0 0
15.28 0 0
15.36 0 0
15.44 0 0
15.52 0 0
15.6 0 0
15.68 0 0
15.76 0 0
15.84 0 0
15.92 0 0
16 0 0
16.08 0 0
16.16 0 0
16.24 0 0
16.32 0 0
16.4 0 0
16.48 0 0
16.56 0 0
16.64 0 0
16.72 0 0
16.8 0 0
16.88 0 0
16.96 0 0
17.04 0 0
17.12 0 0
17.2 0 0
17.28 0 0
17.36 0 0
17.44 0 0
17.52 0 0
17.6 0 0
17.68 0 0
17.76 0 0
17.84 0 0
17.92 0 0
18 0 0
18.08 0 0
18.16 0 0
18.24 0 0
18.32 0 0
18.4 0 0
18.48 0 0
18.56 0 0
18.64 0 0
18.72 0 0
18.8 0 0
18.88 0 0
18.96 0 0
19.04 0 0
19.12 0 0
19.2 0 0
19.28 0 0
19.36 0 0
19.44 0 0
19.52 0 0
19.6 0 0
19.68 0 0
19.76 0 0
19.84 0 0
19.92 0 0
20 0 0
20.08 0 0
20.16 0 0
20.24 0 0
20.32 0 0
20.4 0 0
20.48 0 0
20.56 0 0
20.64 0 0
20.72 0 0
20.8 0 0
20.88 0 0
20.96 0 0
21.04 0 0
21.12 0 0
21.2 0 0
21.28 0 0
21.36 0 0
21.44 0 0
21.52 0 0
21.6 0 0
21.68 0 0
21.76 0 0
21.84 0 0
21.92 0 0
22 0 0
22.08 0 0
22.16 0 0
22.24 0 0
22.32 0 0
22.4 0 0
22.48 0 0
22.56 0 0
22.64 0 0
22.72 0 0
22.8 0 0
22.88 0 0
22.96 0 0
23.04 0 0
23.12 0 0
23.2 0 0
23.28 0 0
23.36 0 0
23.44 0 0
23.52 0 0
23.6 0 0
23.68 0 0
23.76 0 0
23.84 0 0
23.92 0 0
24 0 0
24.08 0 0
24.16 0 0
24.24 0 0
24.32 0 0
24.4 0 0
24.48 0 0
24.56 0 0
24.64 0 0
24.72 0 0
24.8 0 0
24.88 0 0
24.96 0 0
25.04 0 0
25.12 0 0
25.2 0 0
25.28 0 0
25.36 0 0
25.44 0 0
25.52 0 0
25.6 0 0
25.68 0 0
25.76 0 0
25.84 0 0
25.92 0 0
26 0 0
26.08 0 0
26.16 0 0
26.24 0 0
26.32 0 0
26.4 0 0
26.48 0 0
26.56 0 0
26.64 0 0
26.72 0 0
26.8 0 0
26.88 0 0
26.96 0 0
27.04 0 0
27.12 0 0
27.2 0 0
27.28 0 0
27.36 0 0
27.44 0 0
27.52 0 0
27.6 0 0
27.68 0 0
27.76 0 0
27.84 0 0
27.92 0 0
28 0 0
28.08 0 0
28.16 0 0
28.24 0 0
28.32 0 0
28.4 0 0
28.48 0 0
28.56 0 0
28.64 0 0
28.72 0 0
28.8 0 0
28.88 0 0
28.96 0 0
29.04 0 0
29.12 0 0
29.2 0 0
29.28 0 0
29.36 0 0
29.44 0 0
29.52 0 0
29.6 0 0
29.68 0 0
29.76 0 0
29.84 0 0
29.92 0 0
30 0 0
30.08 0 0
30.16 0 0
30.24 0 0
30.32 0 0
30.4 0 0
30.48 0 0
30.56 0 0
30.64 0 0
30.72 0 0
30.8 0 0
30.88 0 0
30.96 0 0
31.04 0 0
31.12 0 0
31.2 0 0
31.28 0 0
31.36 0 0
31.44 0 0
31.52 0 0
31.6 0 0
31.68 0 0
31.76 0 0
31.84 0 0
31.92 0 0
0 0.005 0
0.08 0.005 0
0.16 0.005 0
0.24 0.005 0
0.32 0.005 0
0.4 0.005 0
0.48 0.005 0
0.56 0.005 0
0.64 0.005 0
0.72 0.005 0
0.8 0.005 0
0.88 0.005 0
0.96 0.005 0
1.04 0.005 0
1.12 0.005 0
1.2 0.005 0
1.28 0.005 0
1.36 0.005 0
1.44 0.005 0
1.52 0.005 0
1.6 0.005 0
1.68 0.005 0
1.76 0.005 0
1.84 0.005 0
1.92 0.005 0
2 0.005 0
2.08 0.005 0
2.16 0.005 0
2.24 0.005 0
2.32 0.005 0
2.4 0.005 0
2.48 0.005 0
2.56 0.005 0
2.64 0.005 0
2.72 0.005 0
2.8 0.005 0
2.88 0.005 0
2.96 0.005 0
3.04 0.005 0
3.12 0.005 0
3.2 0.005 0
3.28 0.005 0
3.36 0.005 0
3.44 0.005 0
3.52 0.005 0
3.6 0.005 0
3.68 0.005 0
3.76 0.005 0
3.84 0.005 0
3.92 0.005 0
4 0.005 0
4.08 0.005 0
4.16 0.005 0
4.24 0.005 0
4.32 0.005 0
4.4 0.005 0
4.48 0.005 0
4.56 0.005 0
4.64 0.005 0
4.72 0.005 0
4.8 0.005 0
4.88 0.005 0
4.96 0.005 0
5.04 0.005 0
5.12 0.005 0
5.2 0.005 0
5.28 0.005 0
5.36 0.005 0
5.44 0.005 0
5.52 0.005 0
5.6 0.005 0
5.68 0.005 0
5.76 0.005 0
5.84 0.005 0
5.92 0.005 0
6 0.005 0
6.08 0.005 0
6.16 0.005 0
6.24 0.005 0
6.32 0.005 0
6.4 0.005 0
6.48 0.005 0
6.56 0.005 0
6.64 0.005 0
6.72 0.005 0
6.8 0.005 0
6.88 0.005 0
6.96 0.005 0
7.04 0.005 0
7.12 0.005 0
7.2 0.005 0
7.28 0.005 0
7.36 0.005 0
7.44 0.005 0
7.52 0.005 0
7.6 0.005 0
7.68 0.005 0
7.76 0.005 0
7.84 0.005 0
7.92 0.005 0
8 0.005 0
8.08 0.005 0
8.16 0.005 0
8.24 0.005 0
8.32 0.005 0
8.4 0.005 0
8.48 0.005 0
8.56 0.005 0
8.64 0.005 0
8.72 0.005 0
8.8 0.005 0
8.88 0.005 0
8.96 0.005 0
9.04 0.005 0
9.12 0.005 0
9.2 0.005 0
9.28 0.005 0
9.36 0.005 0
9.44 0.005 0
9.52 0.005 0
9.6 0.005 0
9.68 0.005 0
9.76 0.005 0
9.84 0.005 0
9.92 0.005 0
10 0.005 0
10.08 0.005 0
10.16 0.005 0
10.24 0.005 0
10.32 0.005 0
10.4 0.005 0
10.48 0.005 0
10.56 0.005 0
10.64 0.005 0
10.72 0.005 0
10.8 0.005 0
10.88 0.005 0
10.96 0.005 0
11.04 0.005 0
11.12 0.005 0
11.2 0.005 0
11.28 0.005 0
11.36 0.005 0
11.44 0.005 0
11.52 0.005 0
11.6 0.005 0
11.68 0.005 0
11.76 0.005 0
11.84 0.005 0
11.92 0.005 0
12 0.005 0
12.08 0.005 0
12.16 0.005 0
12.24 0.005 0
12.32 0.005 0
12.4 0.005 0
12.48 0.005 0
12.56 0.005 0
12.64 0.005 0
12.72 0.005 0
12.8 0.005 0
12.88 0.005 0
12.96 0.005 0
13.04 0.005 0
13.12 0.005 0
13.2 0.005 0
13.28 0.005 0
13.36 0.005 0
13.44 0.005 0
13.52 0.005 0
13.6 0.005 0
13.68 0.005 0
13.76 0.005 0
13.84 0.005 0
13.92 0.005 0
14 0.005 0
14.08 0.005 0
14.16 0.005 0
14.24 0.005 0
14.32 0.005 0
14.4 0.005 0
14.48 0.005 0
14.56 0.005 0
14.64 0.005 0
14.72 0.005 0
14.8 0.005 0
14.88 0.005 0
14.96 0.005 0
15.04 0.005 0
15.12 0.005 0
15.2 0.005 0
15.28 0.005 0
15.36 0.005 0
15.44 0.005 0
15.52 0.005 0
15.6 0.005 0
15.68 0.005 0
15.76 0.005 0
15.84 0.005 0
15.92 0.005 0
16 0.005 0
16.08 0.005 0
16.16 0.005 0
16.24 0.005 0
16.32 0.005 0
16.4 0.005 0
16.48 0.005 0
16.56 0.005 0
16.64 0.005 0
16.72 0.005 0
16.8 0.005 0
16.88 0.005 0
16.96 0.005 0
17.04 0.005 0
17.12 0.005 0
17.2 0.005 0
17.28 0.005 0
17.36 0.005 0
17.44 0.005 0
17.52 0.005 0
17.6 0.005 0
17.68 0.005 0
17.76 0.005 0
17.84 0.005 0
17.92 0.005 0
18 0.005 0
18.08 0.005 0
18.16 0.005 0
18.24 0.005 0
18.32 0.005 0
18.4 0.005 0
18.48 0.005 0
18.56 0.005 0
18.64 0.005 0
18.72 0.005 0
18.8 0.005 0
18.88 0.005 0
18.96 0.005 0
19.04 0.005 0
19.12 0.005 0
19.2 0.005 0
19.28 0.005 0
19.36 0.005 0
19.44 0.005 0
19.52 0.005 0
19.6 0.005 0
19.68 0.005 0
19.76 0.005 0
19.84 0.005 0
19.92 0.005 0
20 0.005 0
20.08 0.005 0
20.16 0.005 0
20.24 0.005 0
20.32 0.005 0
20.4 0.005 0
20.48 0.005 0
20.56 0.005 0
20.64 0.005 0
20.72 0.005 0
20.8 0.005 0
20.88 0.005 0
20.96 0.005 0
21.04 0.005 0
21.12 0.005 0
21.2 0.005 0
21.28 0.005 0
21.36 0.005 0
21.44 0.005 0
21.52 0.005 0
21.6 0.005 0
21.68 0.005 0
21.76 0.005 0
21.84 0.005 0
21.92 0.005 0
22 0.005 0
22.08 0.005 0
22.16 0.005 0
22.24 0.005 0
22.32 0.005 0
22.4 0.005 0
22.48 0.005 0
22.56 0.005 0
22.64 0.005 0
22.72 0.005 0
22.8 0.005 0
22.88 0.005 0
22.96 0.005 0
23.04 0.005 0
23.12 0.005 0
23.2 0.005 0
23.28 0.005 0
23.36 0.005 0
23.44 0.005 0
23.52 0.005 0
23.6 0.005 0
23.68 0.005 0
23.76 0.005 0
23.84 0.005 0
23.92 0.005 0
24 0.005 0
24.08 0.005 0
24.16 0.005 0
24.24 0.005 0
24.32 0.005 0
24.4 0.005 0
24.48 0.005 0
24.56 0.005 0
24.64 0.005 0
24.72 0.005 0
24.8 0.005 0
24.88 0.005 0
24.96 0.005 0
25.04 0.005 0
25.12 0.005 0
25.2 0.005 0
25.28 0.005 0
25.36 0.005 0
25.44 0.005 0
25.52 0.005 0
25.6 0.005 0
25.68 0.005 0
25.76 0.005 0
25.84 0.005 0
25.92 0.005 0
26 0.005 0
26.08 0.005 0
26.16 0.005 0
26.24 0.005 0
26.32 0.005 0
26.4 0.005 0
26.48 0.005 0
26.56 0.005 0
26.64 0.005 0
26.72 0.005 0
26.8 0.005 0
26.88 0.005 0
26.96 0.005 0
27.04 0.005 0
27.12 0.005 0
27.2 0.005 0
27.28 0.005 0
27.36 0.005 0
27.44 0.005 0
27.52 0.005 0
27.6 0.005 0
27.68 0.005 0
27.76 0.005 0
27.84 0.005 0
27.92 0.005 0
28 0.005 0
28.08 0.005 0
28.16 0.005 0
28.24 0.005 0
28.32 0.005 0
28.4 0.005 0
28.48 0.005 0
28.56 0.005 0
28.64 0.005 0
28.72 0.005 0
28.8 0.005 0
28.88 0.005 0
28.96 0.005 0
29.04 0.005 0
29.12 0.005 0
29.2 0.005 0
29.28 0.005 0
29.36 0.005 0
29.44 0.005 0
29.52 0.005 0
29.6 0.005 0
29.68 0.005 0
29.76 0.005 0
29.84 0.005 0
29.92 0.005 0
30 0.005 0
30.08 0.005 0
30.16 0.005 0
30.24 0.005 0
30.32 0.005 0
30.4 0.005 0
30.48 0.005 0
30.56 0.005 0
30.64 0.005 0
30.72 0.005 0
30.8 0.005 0
30.88 0.005 0
30.96 0.005 0
31.04 0.005 0
31.12 0.005 0
31.2 0.005 0
31.28 0.005 0
31.36 0.005 0
31.44 0.005 0
31.52 0.005 0
31.6 0.005 0
31.68 0.005 0
31.76 0.005 0
31.84 0.005 0
31.92 0.005 0
0 0.01 0
0.08 0.01 0
0.16 0.01 0
0.24 0.01 0
0.32 0.01 0
0.4 0.01 0
0.48 0.01 0
0.56 0.01 0
0.64 0.01 0
0.72 0.01 0
0.8 0.01 0
0.88 0.01 0
0.96 0.01 0
1.04 0.01 0
1.12 0.01 0
1.2 0.01 0
1.28 0.01 0
1.36 0.01 0
1.44 0.01 0
1.52 0.01 0
1.6 0.01 0
1.68 0.01 0
1.76 0.01 0
1.84 0.01 0
1.92 0.01 0
2 0.01 0
2.08 0.01 0
2.16 0.01 0
2.24 0.01 0
2.32 0.01 0
2.4 0.01 0
2.48 0.01 0
2.56 0.01 0
2.64 0.01 0
2.72 0.01 0
2.8 0.01 0
2.88 0.01 0
2.96 0.01 0
3.04 0.01 0
3.12 0.01 0
3.2 0.01 0
3.28 0.01 0
3.36 0.01 0
3.44 0.01 0
3.52 0.01 0
3.6 0.01 0
3.68 0.01 0
3.76 0.01 0
3.84 0.01 0
3.92 0.01 0
4 0.01 0
4.08 0.01 0
4.16 0.01 0
4.24 0.01 0
4.32 0.01 0
4.4 0.01 0
4.48 0.01 0
4.56 0.01 0
4.64 0.01 0
4.72 0.01 0
4.8 0.01 0
4.88 0.01 0
4.96 0.01 0
5.04 0.01 0
5.12 0.01 0
[...]
POINT_DATA 80000

SCALARS u float 1
LOOKUP_TABLE default
0
-0.1316625604
-0.06826904008
-0.05229576416
-0.04441959991
-0.03957645929
-0.03625933734
-0.0338322703
-0.03197226614
-0.0304955643
-0.02928947302
-0.02828115172
-0.02742163771
-0.02667697902
-0.02602300595
-0.02544210625
-0.02492116735
-0.02445022834
-0.02402157761
-0.02362913794
-0.02326804042
-0.0229343247
-0.02262472501
-0.02233651497
-0.02206739351
-0.02181539967
-0.02157884801
-0.02135627899
-0.02114642028
-0.02094815621
-0.02076050326
-0.02058259039
-0.02041364277
-0.02025296853
-0.02009994759
-0.01995402241
-0.01981469011
-0.01968149579
-0.01955402688
-0.01943190817
-0.01931479769
-0.01920238297
-0.01909437795
-0.01899052017
-0.01889056834
-0.01879430026
-0.01870151091
-0.0186120108
-0.01852562455
-0.01844218952
-0.01836155473
-0.01828357976
-0.0182081339
-0.01813509523
-0.01806434998
-0.01799579179
-0.01792932112
-0.01786484473
-0.01780227516
-0.01774153032
-0.01768253301
-0.01762521065
-0.01756949486
-0.01751532119
-0.01746262884
-0.01741136037
-0.01736146153
-0.01731288096
-0.01726557006
-0.01721948277
-0.01717457541
-0.01713080652
-0.01708813673
-0.01704652861
-0.01700594656
-0.01696635668
-0.01692772668
-0.01689002579
-0.01685322462
-0.01681729515
-0.01678221059
-0.01674794533
-0.01671447487
-0.01668177576
-0.01664982554
-0.01661860268
-0.01658808651
-0.01655825721
-0.01652909576
-0.01650058386
-0.01647270391
-0.016445439
-0.01641877284
-0.01639268973
-0.01636717456
-0.01634221274
-0.01631779021
-0.01629389338
-0.01627050915
-0.01624762484
-0.0162252282
-0.01620330737
-0.01618185089
-0.01616084765
-0.01614028691
-0.01612015823
-0.01610045152
-0.01608115698
-0.0160622651
-0.01604376664
-0.01602565266
-0.01600791444
-0.01599054353
-0.0159735317
-0.01595687097
-0.01594055354
-0.01592457186
-0.01590891856
-0.01589358646
-0.01587856859
-0.01586385813
-0.01584944845
-0.0158353331
-0.01582150577
-0.01580796031
-0.01579469073
-0.01578169119
-0.01576895598
-0.01575647953
-0.01574425639
-0.01573228127
-0.01572054898
-0.01570905445
-0.01569779273
-0.015686759
-0.01567594852
-0.01566535669
-0.01565497898
-0.01564481099
-0.01563484839
-0.01562508699
-0.01561552264
-0.01560615131
-0.01559696905
-0.01558797201
-0.01557915639
-0.01557051852
-0.01556205476
-0.01555376158
-0.01554563551
-0.01553767317
-0.01552987122
-0.01552222641
-0.01551473558
-0.01550739559
-0.01550020341
-0.01549315604
-0.01548625055
-0.01547948409
-0.01547285384
-0.01546635707
-0.01545999107
-0.01545375322
-0.01544764093
-0.01544165167
-0.01543578297
-0.0154300324
-0.01542439758
-0.01541887618
-0.01541346593
-0.01540816459
-0.01540296997
-0.01539787992
-0.01539289234
-0.01538800518
-0.01538321641
-0.01537852406
-0.01537392619
-0.0153694209
-0.01536500634
-0.01536068068
-0.01535644213
-0.01535228895
-0.01534821943
-0.01534423187
-0.01534032464
-0.01533649612
-0.01533274473
-0.01532906893
-0.01532546719
-0.01532193802
-0.01531847997
-0.01531509162
-0.01531177155
-0.0153085184
-0.01530533083
-0.01530220751
-0.01529914715
-0.0152961485
-0.0152932103
-0.01529033135
-0.01528751046
-0.01528474645
-0.01528203818
-0.01527938454
-0.01527678442
-0.01527423675
-0.01527174047
-0.01526929456
-0.01526689799
-0.01526454978
-0.01526224895
-0.01525999454
-0.01525778564
-0.01525562131
-0.01525350066
-0.01525142282
-0.01524938692
-0.01524739211
-0.01524543758
-0.01524352251
-0.0152416461
-0.01523980757
-0.01523800618
-0.01523624115
-0.01523451177
-0.01523281732
-0.01523115709
-0.01522953038
-0.01522793654
-0.01522637489
-0.01522484479
-0.0152233456
-0.01522187669
-0.01522043746
-0.01521902731
-0.01521764566
-0.01521629192
-0.01521496553
-0.01521366595
-0.01521239263
-0.01521114505
-0.01520992268
-0.01520872502
-0.01520755156
-0.01520640182
-0.01520527533
-0.0152041716
-0.01520309019
-0.01520203064
-0.01520099251
-0.01519997537
-0.0151989788
-0.01519800237
-0.01519704569
-0.01519610836
-0.01519518997
-0.01519429016
-0.01519340855
-0.01519254477
-0.01519169845
-0.01519086926
-0.01519005683
-0.01518926084
-0.01518848094
-0.01518771682
-0.01518696816
-0.01518623465
-0.01518551597
-0.01518481183
-0.01518412193
-0.015183446
-0.01518278374
-0.01518213487
-0.01518149914
-0.01518087627
-0.015180266
-0.01517966808
-0.01517908226
-0.01517850829
-0.01517794594
-0.01517739497
-0.01517685514
-0.01517632625
-0.01517580805
-0.01517530034
-0.01517480291
-0.01517431555
-0.01517383805
-0.01517337021
-0.01517291184
-0.01517246275
-0.01517202275
-0.01517159166
-0.01517116929
-0.01517075548
-0.01517035004
-0.0151699528
-0.01516956361
-0.0151691823
-0.0151688087
-0.01516844267
-0.01516808405
-0.01516773269
-0.01516738844
-0.01516705116
-0.01516672072
-0.01516639696
-0.01516607975
-0.01516576897
-0.01516546448
-0.01516516616
-0.01516487388
-0.01516458751
-0.01516430695
-0.01516403206
-0.01516376274
-0.01516349888
-0.01516324036
-0.01516298707
-0.01516273892
-0.01516249578
-0.01516225758
-0.01516202419
-0.01516179553
-0.01516157151
-0.01516135202
-0.01516113697
-0.01516092628
-0.01516071986
-0.01516051762
-0.01516031948
-0.01516012534
-0.01515993514
-0.01515974879
-0.01515956622
-0.01515938734
-0.01515921209
-0.01515904039
-0.01515887216
-0.01515870734
-0.01515854586
-0.01515838766
-0.01515823265
-0.01515808079
-0.01515793199
-0.01515778622
-0.0151576434
-0.01515750347
-0.01515736637
-0.01515723206
-0.01515710046
-0.01515697153
-0.0151568452
-0.01515672145
-0.01515660019
-0.0151564814
-0.015156365
-0.01515625098
-0.01515613924
-0.0151560298
-0.01515592253
-0.01515581749
-0.01515571451
-0.0151556137
-0.01515551483
-0.01515541808
-0.01515532316
-0.01515523031
-0.01515513917
-0.01515505007
-0.01515496254
-0.01515487707
-0.01515479299
-0.01515471101
-0.01515463023
-0.01515455162
-0.01515447398
-0.01515439865
-0.01515432399
-0.01515425185
-0.01515418001
-0.01515411102
-0.01515404184
-0.01515397601
-0.01515390938
-0.01515384683
-0.01515378272
-0.0151537238
-0.0151536625
-0.01515360812
-0.01515355069
-0.01515350302
-0.0151534526
-0.01515341665
-0.01515338107
-0.01515336633
-0.01515336055
-0.01515336055
-0.01515336055
1
0.1316625604
0.06826904008
0.05229576416
0.04441959991
0.03957645929
0.03625933734
0.0338322703
0.03197226614
0.0304955643
0.02928947302
0.02828115172
0.02742163771
0.02667697902
0.02602300595
0.02544210625
0.02492116735
0.02445022834
0.02402157761
0.02362913794
0.02326804042
0.0229343247
0.02262472501
0.02233651497
0.02206739351
0.02181539967
0.02157884801
0.02135627899
0.02114642028
0.02094815621
0.02076050326
0.02058259039
0.02041364277
0.02025296853
0.02009994759
0.01995402241
0.01981469011
0.01968149579
0.01955402688
0.01943190817
0.01931479769
0.01920238297
0.01909437795
0.01899052017
0.01889056834
0.01879430026
0.01870151091
0.0186120108
0.01852562455
0.01844218952
0.01836155473
0.01828357976
0.0182081339
0.01813509523
0.01806434998
0.01799579179
0.01792932112
0.01786484473
0.01780227516
0.01774153032
0.01768253301
0.01762521065
0.01756949486
0.01751532119
0.01746262884
0.01741136037
0.01736146153
0.01731288096
0.01726557006
0.01721948277
0.01717457541
0.01713080652
0.01708813673
0.01704652861
0.01700594656
0.01696635668
0.01692772668
0.01689002579
0.01685322462
0.01681729515
0.01678221059
0.01674794533
0.01671447487
0.01668177576
0.01664982554
0.01661860268
0.01658808651
0.01655825721
0.01652909576
0.01650058386
0.01647270391
0.016445439
0.01641877284
0.01639268973
0.01636717456
0.01634221274
0.01631779021
0.01629389338
0.01627050915
0.01624762484
0.0162252282
0.01620330737
0.01618185089
0.01616084765
0.01614028691
0.01612015823
0.01610045152
0.01608115698
0.0160622651
0.01604376664
0.01602565266
0.01600791444
0.01599054353
0.0159735317
0.01595687097
0.01594055354
0.01592457186
0.01590891856
0.01589358646
0.01587856859
0.01586385813
0.01584944845
0.0158353331
0.01582150577
0.01580796031
0.01579469073
0.01578169119
0.01576895598
0.01575647953
0.01574425639
0.01573228127
0.01572054898
0.01570905445
0.01569779273
0.015686759
0.01567594852
0.01566535669
0.01565497898
0.01564481099
0.01563484839
0.01562508699
0.01561552264
0.01560615131
0.01559696905
0.01558797201
0.01557915639
0.01557051852
0.01556205476
0.01555376158
0.01554563551
0.01553767317
0.01552987122
0.01552222641
0.01551473558
0.01550739559
0.01550020341
0.01549315604
0.01548625055
0.01547948409
0.01547285384
0.01546635707
0.01545999107
0.01545375322
0.01544764093
0.01544165167
0.01543578297
0.0154300324
0.01542439758
0.01541887618
0.01541346593
0.01540816459
0.01540296997
0.01539787992
0.01539289234
0.01538800518
0.01538321641
0.01537852406
0.01537392619
0.0153694209
0.01536500634
0.01536068068
0.01535644213
0.01535228895
0.01534821943
0.01534423187
0.01534032464
0.01533649612
0.01533274473
0.01532906893
0.01532546719
0.01532193802
0.01531847997
0.01531509162
0.01531177155
0.0153085184
0.01530533083
0.01530220751
0.01529914715
0.0152961485
0.0152932103
0.01529033135
0.01528751046
0.01528474645
0.01528203818
0.01527938454
0.01527678442
0.01527423675
0.01527174047
0.01526929456
0.01526689799
0.01526454978
0.01526224895
0.01525999454
0.01525778564
0.01525562131
0.01525350066
0.01525142282
0.01524938692
0.01524739211
0.01524543758
0.01524352251
0.0152416461
0.01523980757
0.01523800618
0.01523624115
0.01523451177
0.01523281732
0.01523115709
0.01522953038
0.01522793654
0.01522637489
0.01522484479
0.0152233456
0.01522187669
0.01522043746
0.01521902731
0.01521764566
0.01521629192
0.01521496553
0.01521366595
0.01521239263
0.01521114505
0.01520992268
0.01520872502
0.01520755156
0.01520640182
0.01520527533
0.0152041716
0.01520309019
0.01520203064
0.01520099251
0.01519997537
0.0151989788
0.01519800237
0.01519704569
0.01519610836
0.01519518997
0.01519429016
0.01519340855
0.01519254477
0.01519169845
0.01519086926
0.01519005683
0.01518926084
0.01518848094
0.01518771682
0.01518696816
0.01518623465
0.01518551597
0.01518481183
0.01518412193
0.015183446
0.01518278374
0.01518213487
0.01518149914
0.01518087627
0.015180266
0.01517966808
0.01517908226
0.01517850829
0.01517794594
0.01517739497
0.01517685514
0.01517632625
0.01517580805
0.01517530034
0.01517480291
0.01517431555
0.01517383805
0.01517337021
0.01517291184
0.01517246275
0.01517202275
0.01517159166
0.01517116929
0.01517075548
0.01517035004
0.0151699528
0.01516956361
0.0151691823
0.0151688087
0.01516844267
0.01516808405
0.01516773269
0.01516738844
0.01516705116
0.01516672072
0.01516639696
0.01516607975
0.01516576897
0.01516546448
0.01516516616
0.01516487388
0.01516458751
0.01516430695
0.01516403206
0.01516376274
0.01516349888
0.01516324036
0.01516298707
0.01516273892
0.01516249578
0.01516225758
0.01516202419
0.01516179553
0.01516157151
0.01516135202
0.01516113697
0.01516092628
0.01516071986
0.01516051762
0.01516031948
0.01516012534
0.01515993514
0.01515974879
0.01515956622
0.01515938734
0.01515921209
0.01515904039
0.01515887216
0.01515870734
0.01515854586
0.01515838766
0.01515823265
0.01515808079
0.01515793199
0.01515778622
0.0151576434
0.01515750347
0.01515736637
0.01515723206
0.01515710046
0.01515697153
0.0151568452
0.01515672145
0.01515660019
0.0151564814
0.015156365
0.01515625098
0.01515613924
0.0151560298
0.01515592253
0.01515581749
0.01515571451
0.0151556137
0.01515551483
0.01515541808
0.01515532316
0.01515523031
0.01515513917
0.01515505007
0.01515496254
0.01515487707
0.01515479299
0.01515471101
0.01515463023
0.01515455162
0.01515447398
0.01515439865
0.01515432399
0.01515425185
0.01515418001
0.01515411102
0.01515404184
0.01515397601
0.01515390938
0.01515384683
0.01515378272
0.0151537238
0.0151536625
0.01515360812
0.01515355069
0.01515350302
0.0151534526
0.01515341665
0.01515338107
0.01515336633
0.01515336055
0.01515336055
0.01515336055
1
0.3448836491
0.2006672453
0.1549666291
0.1318938664
0.1175978189
0.1077670841
0.1005571198
0.09502405206
0.09062809891
0.0870369002
0.08403490183
0.08147678897
0.07926154562
0.07731711113
0.0755908889
0.07404367262
0.0726456558
0.07137375376
0.07020977348
0.06913914272
0.06815001401
0.06723262356
0.066378826
0.06558175168
0.06483555062
0.06413519842
0.06347634701
0.0628552084
0.0622684628
0.06171318529
0.06118678645
0.06068696394
0.06021166257
0.05975904105
0.05932744424
0.05891537963
0.05852149746
0.05814457372
0.05778349556
0.05743724877
0.0571049069
0.05678562181
0.05647861543
0.05618317262
0.05589863478
0.05562439436
0.05535988989
0.05510460167
0.0548580479
0.05461978125
0.0543893858
0.05416647429
0.05395068569
0.05374168296
0.05353915112
0.05334279539
0.05315233965
0.05296752492
0.05278810806
0.05261386057
0.05244456748
0.05228002634
0.05212004633
0.05196444744
0.05181305966
0.05166572231
0.05152228341
0.05138259904
0.05124653286
0.05111395557
0.05098474446
0.05085878297
0.05073596031
0.0506161711
0.050499315
0.05038529647
0.05027402436
0.05016541178
0.05005937573
0.04995583693
0.0498547196
0.04975595123
0.04965946241
0.04956518667
0.04947306028
0.04938302212
0.04929501352
0.04920897816
0.04912486189
0.04904261269
0.04896218047
0.04888351703
0.04880657595
0.04873131249
0.04865768351
0.04858564738
0.04851516394
0.04844619438
0.04837870122
0.0483126482
0.04824800028
0.04818472352
0.04812278509
0.04806215317
0.04800279695
0.04794468653
0.04788779295
0.04783208808
0.04777754463
0.04772413611
0.04767183678
0.04762062162
0.04757046633
0.04752134726
0.04747324143
0.04742612645
0.04737998056
0.04733478255
0.04729051177
0.04724714812
0.047204672
0.04716306429
0.04712230639
0.04708238013
0.04704326779
0.04700495211
0.04696741622
0.04693064366
0.04689461836
0.04685932466
0.04682474722
0.04679087109
0.04675768165
0.04672516463
0.04669330607
0.04666209234
0.04663151011
0.04660154635
0.04657218832
0.04654342356
0.04651523989
0.0464876254
0.04646056842
0.04643405756
0.04640808166
0.04638262981
0.04635769133
0.04633325576
0.04630931287
0.04628585267
0.04626286533
0.04624034127
0.0462182711
0.04619664563
0.04617545584
0.04615469293
0.04613434827
0.0461144134
0.04609488004
0.04607574009
0.04605698561
0.04603860883
0.04602060212
0.04600295803
0.04598566925
0.04596872863
0.04595212916
0.04593586395
0.0459199263
0.0459043096
0.04588900739
0.04587401336
0.0458593213
0.04584492514
0.04583081893
0.04581699684
0.04580345316
0.04579018229
0.04577717875
0.04576443717
0.04575195227
0.04573971891
0.04572773202
0.04571598665
0.04570447796
0.04569320118
0.04568215165
0.04567132481
0.04566071618
0.04565032137
0.04564013609
0.04563015613
0.04562037737
0.04561079574
0.0456014073
0.04559220817
0.04558319452
0.04557436265
0.04556570888
0.04555722965
0.04554892143
0.0455407808
0.04553280438
0.04552498887
0.04551733103
0.04550982769
0.04550247575
0.04549527215
0.04548821391
0.04548129812
0.04547452189
0.04546788243
0.04546137697
0.04545500283
0.04544875736
0.04544263797
0.04543664212
0.04543076732
0.04542501113
0.04541937118
0.04541384511
0.04540843063
0.0454031255
0.04539792751
0.0453928345
0.04538784436
0.04538295502
0.04537816444
0.04537347064
0.04536887166
0.04536436559
0.04535995056
0.04535562473
0.04535138631
0.04534723354
0.04534316468
0.04533917804
0.04533527197
0.04533144485
0.04532769507
0.04532402108
0.04532042136
0.04531689439
0.04531343872
0.04531005291
0.04530673554
0.04530348524
0.04530030065
0.04529718045
0.04529412333
0.04529112803
0.04528819329
0.0452853179
0.04528250065
0.04527974037
0.04527703592
0.04527438616
0.04527178998
0.04526924632
0.0452667541
0.04526431229
0.04526191987
0.04525957585
0.04525727924
0.04525502908
0.04525282445
0.04525066442
0.04524854808
0.04524647456
0.04524444299
0.04524245253
0.04524050233
0.0452385916
0.04523671952
0.04523488533
0.04523308825
0.04523132753
0.04522960245
0.04522791227
0.0452262563
0.04522463384
0.04522304421
0.04522148675
0.04521996082
0.04521846577
0.04521700097
0.04521556583
0.04521415973
0.04521278209
0.04521143233
0.0452101099
0.04520881423
0.0452075448
0.04520630105
0.04520508249
0.04520388859
0.04520271886
0.04520157281
0.04520044997
0.04519934985
0.045198272
0.04519721598
0.04519618134
0.04519516764
0.04519417447
0.0451932014
0.04519224804
0.04519131398
0.04519039884
0.04518950222
0.04518862376
0.04518776308
0.04518691984
0.04518609367
0.04518528423
0.04518449118
0.04518371419
0.04518295293
0.04518220709
0.04518147635
0.04518076042
0.04518005898
0.04517937174
0.04517869843
0.04517803875
0.04517739243
0.0451767592
0.0451761388
0.04517553096
0.04517493543
0.04517435196
0.04517378032
0.04517322024
0.04517267152
0.0451721339
0.04517160718
0.04517109112
0.04517058552
0.04517009015
0.04516960483
0.04516912933
0.04516866346
0.04516820703
0.04516775985
0.04516732171
0.04516689247
0.0451664719
0.04516605987
0.04516565617
0.04516526067
0.04516487315
0.04516449351
0.04516412153
0.04516375713
0.04516340005
0.04516305027
0.0451627075
0.04516237177
0.04516204273
0.04516172048
0.04516140461
0.04516109531
0.04516079208
0.04516049522
0.04516020411
0.04515991919
0.0451596397
0.04515936628
0.04515909791
0.04515883555
0.04515857783
0.04515832611
0.04515807858
0.04515783713
0.04515759932
0.04515736778
0.04515713924
0.04515691732
0.04515669757
0.04515648504
0.04515627363
0.04515607032
0.04515586681
0.04515567273
0.04515547677
0.04515529224
0.04515510379
0.04515492979
0.04515474963
0.0451545887
0.04515441989
0.0451542782
0.0451541296
0.0451540214
0.04515391526
0.04515386787
0.04515384639
0.04515384639
0.04515384639
1
0.5187651867
0.3274011946
0.2553467807
0.2178477674
0.1944026528
0.1782107414
0.1663061343
0.157157057
0.1498824532
0.1439375554
0.1389678787
0.1347337921
0.131068333
0.1278521719
0.124998081
0.1224409665
0.120131304
0.1180307216
0.1161089747
0.1143418408
0.1127096324
0.1111961316
0.1097878156
0.1084732858
0.1072428408
0.1060881531
0.1050020197
0.1039781683
0.1030111045
0.1020959891
0.1012285396
0.1004049493
0.09962182143
0.09887611312
0.09816508989
0.0974862864
0.09683747348
0.09621662996
0.09562191851
0.09505166482
0.09450433962
0.0939785431
0.0934729912
0.09298650379
0.09251799417
0.09206645991
0.09163097469
0.09121068115
0.09080478451
0.09041254687
0.09003328221
0.08966635179
0.08931116014
0.08896715144
0.0886338062
0.08831063832
0.08799719244
0.08769304152
0.08739778462
0.08711104497
0.08683246809
0.08656172021
0.0862984867
0.08604247074
0.08579339205
0.08555098572
0.08531500117
0.08508520115
0.08486136089
0.08464326722
0.08443071783
0.08422352058
0.08402149285
0.08382446089
0.08363225933
0.08344473064
0.0832617246
0.08308309795
0.08290871389
0.08273844175
0.08257215659
0.08240973892
0.08225107433
0.08209605324
0.08194457061
0.08179652571
0.08165182184
0.08151036617
0.08137206948
0.08123684599
0.08110461317
0.08097529159
0.08084880474
0.0807250789
0.08060404296
0.08048562834
0.08036976885
0.08025640053
0.08014546162
0.0800368924
0.0799306351
0.07982663382
0.07972483446
0.07962518461
0.07952763348
0.07943213185
0.07933863197
0.07924708752
0.07915745356
0.07906968643
0.07898374373
0.07889958428
0.07881716802
0.07873645602
0.07865741042
0.07857999437
0.07850417201
0.07842990842
0.07835716961
0.07828592245
0.07821613468
0.07814777485
0.07808081229
0.07801521711
0.07795096015
0.07788801297
0.0778263478
0.07776593756
0.0777067558
0.07764877672
0.0775919751
0.07753632631
0.07748180632
0.07742839161
0.07737605923
0.07732478674
0.07727455221
0.07722533419
0.07717711173
0.07712986432
0.07708357193
0.07703821495
0.07699377421
0.07695023094
0.07690756681
0.07686576384
0.07682480449
0.07678467154
0.07674534819
0.07670681795
0.07666906472
0.07663207272
0.07659582649
0.07656031092
0.07652551121
0.07649141285
0.07645800166
0.07642526373
0.07639318547
0.07636175353
0.07633095486
0.07630077669
0.07627120649
0.076242232
0.07621384121
0.07618602234
0.07615876388
0.07613205452
0.07610588323
0.07608023915
0.07605511167
0.0760304904
0.07600636514
0.07598272592
0.07595956295
0.07593686667
0.07591462766
0.07589283675
0.07587148492
0.07585056334
0.07583006335
0.07580997648
0.07579029443
0.07577100905
0.07575211236
0.07573359656
0.07571545399
0.07569767713
0.07568025865
0.07566319132
0.0756464681
0.07563008206
0.07561402643
0.07559829456
0.07558287993
0.07556777617
0.07555297704
0.07553847639
0.07552426823
0.07551034668
0.07549670596
0.07548334044
0.07547024457
0.07545741293
0.0754448402
0.07543252117
0.07542045074
0.07540862391
0.07539703577
0.07538568152
0.07537455644