# vtk DataFile Version 2.0
FlowField
ASCII
DATASET STRUCTURED_GRID
DIMENSIONS 400 1 200
POINTS 80000 float
0 0 0
0.08 0 0
0.16 0 0
0.24 0 0
0.32 0 0
0.4 0 0
0.48 0 0
0.56 0 0
0.64 0 0
0.72 0 0
0.8 0 0
0.88 0 0
0.96 0 0
1.04 0 0
1.12 0 0
1.2 0 0
1.28 0 0
1.36 0 0
1.44 0 0
1.52 0 0
1.6 0 0
1.68 0 0
1.76 0 0
1.84 0 0
1.92 0 0
2 0 0
2.08 0 0
2.16 0 0
2.24 0 0
2.32 0 0
2.4 0 0
2.48 0 0
2.56 0 0
2.64 0 0
2.72 0 0
2.8 0 0
2.88 0 0
2.96 0 0
3.04 0 0
3.12 0 0
3.2 0 0
3.28 0 0
3.36 0 0
3.44 0 0
3.52 0 0
3.6 0 0
3.68 0 0
3.76 0 0
3.84 0 0
3.92 0 0
4 0 0
4.08 0 0
4.16 0 0
4.24 0 0
4.32 0 0
4.4 0 0
4.48 0 0
4.56 0 0
4.64 0 0
4.72 0 0
4.8 0 0
4.88 0 0
4.96 0 0
5.04 0 0
5.12 0 0
5.2 0 0
5.28 0 0
5.36 0 0
5.44 0 0
5.52 0 0
5.6 0 0
5.68 0 0
5.76 0 0
5.84 0 0
5.92 0 0
6 0 0
6.08 0 0
6.16 0 0
6.24 0 0
6.32 0 0
6.4 0 0
6.48 0 0
6.56 0 0
6.64 0 0
6.72 0 0
6.8 0 0
6.88 0 0
6.96 0 0
7.04 0 0
7.12 0 0
7.2 0 0
7.28 0 0
7.36 0 0
7.44 0 0
7.52 0 0
7.6 0 0
7.68 0 0
7.76 0 0
7.84 0 0
7.92 0 0
8 0 0
8.08 0 0
8.16 0 0
8.24 0 0
8.32 0 0
8.4 0 0
8.48 0 0
8.56 0 0
8.64 0 0
8.72 0 0
8.8 0 0
8.88 0 0
8.96 0 0
9.04 0 0
9.12 0 0
9.2 0 0
9.28 0 0
9.36 0 0
9.44 0 0
9.52 0 0
9.6 0 0
9.68 0 0
9.76 0 0
9.84 0 0
9.92 0 0
10 0 0
10.08 0 0
10.16 0 0
10.24 0 0
10.32 0 0
10.4 0 0
10.48 0 0
10.56 0 0
10.64 0 0
10.72 0 0
10.8 0 0
10.88 0 0
10.96 0 0
11.04 0 0
11.12 0 0
11.2 0 0
11.28 0 0
11.36 0 0
11.44 0 0
11.52 0 0
11.6 0 0
11.68 0 0
11.76 0 0
11.84 0 0
11.92 0 0
12 0 0
12.08 0 0
12.16 0 0
12.24 0 0
12.32 0 0
12.4 0 0
12.48 0 0
12.56 0 0
12.64 0 0
12.72 0 0
12.8 0 0
12.88 0 0
12.96 0 0
13.04 0 0
13.12 0 0
13.2 0 0
13.28 0 0
13.36 0 0
13.44 0 0
13.52 0 0
13.6 0 0
13.68 0 0
13.76 0 0
13.84 0 0
13.92 0 0
14 0 0
14.08 0 0
14.16 0 0
14.24 0 0
14.32 0 0
14.4 0 0
14.48 0 0
14.56 0 0
14.64 0 0
14.72 0 0
14.8 0 0
14.88 0 0
14.96 0 0
15.04 0 0
15.12 0 0
15.2 0 0
15.28 0 0
15.36 0 0
15.44 0 0
15.52 0 0
15.6 0 0
15.68 0 0
15.76 0 0
15.84 0 0
15.92 0 0
16 0 0
16.08 0 0
16.16 0 0
16.24 0 0
16.32 0 0
16.4 0 0
16.48 0 0
16.56 0 0
16.64 0 0
16.72 0 0
16.8 0 0
16.88 0 0
16.96 0 0
17.04 0 0
17.12 0 0
17.2 0 0
17.28 0 0
17.36 0 0
17.44 0 0
17.52 0 0
17.6 0 0
17.68 0 0
17.76 0 0
17.84 0 0
17.92 0 0
18 0 0
18.08 0 0
18.16 0 0
18.24 0 0
18.32 0 0
18.4 0 0
18.48 0 0
18.56 0 0
18.64 0 0
18.72 0 0
18.8 0 0
18.88 0 0
18.96 0 0
19.04 0 0
19.12 0 0
19.2 0 0
19.28 0 0
19.36 0 0
19.44 0 0
19.52 0 0
19.6 0 0
19.68 0 0
19.76 0 0
19.84 0 0
19.92 0 0
20 0 0
20.08 0 0
20.16 0 0
20.24 0 0
20.32 0 0
20.4 0 0
20.48 0 0
20.56 0 0
20.64 0 0
20.72 0 0
20.8 0 0
20.88 0 0
20.96 0 0
21.04 0 0
21.12 0 0
21.2 0 0
21.28 0 0
21.36 0 0
21.44 0 0
21.52 0 0
21.6 0 0
21.68 0 0
21.76 0 0
21.84 0 0
21.92 0 0
22 0 0
22.08 0 0
22.16 0 0
22.24 0 0
22.32 0 0
22.4 0 0
22.48 0 0
22.56 0 0
22.64 0 0
22.72 0 0
22.8 0 0
22.88 0 0
22.96 0 0
23.04 0 0
23.12 0 0
23.2 0 0
23.28 0 0
23.36 0 0
23.44 0 0
23.52 0 0
23.6 0 0
23.68 0 0
23.76 0 0
23.84 0 0
23.92 0 0
24 0 0
24.08 0 0
24.16 0 0
24.24 0 0
24.32 0 0
24.4 0 0
24.48 0 0
24.56 0 0
24.64 0 0
24.72 0 0
24.8 0 0
24.88 0 0
24.96 0 0
25.04 0 0
25.12 0 0
25.2 0 0
25.28 0 0
25.36 0 0
25.44 0 0
25.52 0 0
25.6 0 0
25.68 0 0
25.76 0 0
25.84 0 0
25.92 0 0
26 0 0
26.08 0 0
26.16 0 0
26.24 0 0
26.32 0 0
26.4 0 0
26.48 0 0
26.56 0 0
26.64 0 0
26.72 0 0
26.8 0 0
26.88 0 0
26.96 0 0
27.04 0 0
27.12 0 0
27.2 0 0
27.28 0 0
27.36 0 0
27.44 0 0
27.52 0 0
27.6 0 0
27.68 0 0
27.76 0 0
27.84 0 0
27.92 0 0
28 0 0
28.08 0 0
28.16 0 0
28.24 0 0
28.32 0 0
28.4 0 0
28.48 0 0
28.56 0 0
28.64 0 0
28.72 0 0
28.8 0 0
28.88 0 0
28.96 0 0
29.04 0 0
29.12 0 0
29.2 0 0
29.28 0 0
29.36 0 0
29.44 0 0
29.52 0 0
29.6 0 0
29.68 0 0
29.76 0 0
29.84 0 0
29.92 0 0
30 0 0
30.08 0 0
30.16 0 0
30.24 0 0
30.32 0 0
30.4 0 0
30.48 0 0
30.56 0 0
30.64 0 0
30.72 0 0
30.8 0 0
30.88 0 0
30.96 0 0
31.04 0 0
31.12 0 0
31.2 0 0
31.28 0 0
31.36 0 0
31.44 0 0
31.52 0 0
31.6 0 0
31.68 0 0
31.76 0 0
31.84 0 0
31.92 0 0
0 0.005 0
0.08 0.005 0
0.16 0.005 0
0.24 0.005 0
0.32 0.005 0
0.4 0.005 0
0.48 0.005 0
0.56 0.005 0
0.64 0.005 0
0.72 0.005 0
0.8 0.005 0
0.88 0.005 0
0.96 0.005 0
1.04 0.005 0
1.12 0.005 0
1.2 0.005 0
1.28 0.005 0
1.36 0.005 0
1.44 0.005 0
1.52 0.005 0
1.6 0.005 0
1.68 0.005 0
1.76 0.005 0
1.84 0.005 0
1.92 0.005 0
2 0.005 0
2.08 0.005 0
2.16 0.005 0
2.24 0.005 0
2.32 0.005 0
2.4 0.005 0
2.48 0.005 0
2.56 0.005 0
2.64 0.005 0
2.72 0.005 0
2.8 0.005 0
2.88 0.005 0
2.96 0.005 0
3.04 0.005 0
3.12 0.005 0
3.2 0.005 0
3.28 0.005 0
3.36 0.005 0
3.44 0.005 0
3.52 0.005 0
3.6 0.005 0
3.68 0.005 0
3.76 0.005 0
3.84 0.005 0
3.92 0.005 0
4 0.005 0
4.08 0.005 0
4.16 0.005 0
4.24 0.005 0
4.32 0.005 0
4.4 0.005 0
4.48 0.005 0
4.56 0.005 0
4.64 0.005 0
4.72 0.005 0
4.8 0.005 0
4.88 0.005 0
4.96 0.005 0
5.04 0.005 0
5.12 0.005 0
5.2 0.005 0
5.28 0.005 0
5.36 0.005 0
5.44 0.005 0
5.52 0.005 0
5.6 0.005 0
5.68 0.005 0
5.76 0.005 0
5.84 0.005 0
5.92 0.005 0
6 0.005 0
6.08 0.005 0
6.16 0.005 0
6.24 0.005 0
6.32 0.005 0
6.4 0.005 0
6.48 0.005 0
6.56 0.005 0
6.64 0.005 0
6.72 0.005 0
6.8 0.005 0
6.88 0.005 0
6.96 0.005 0
7.04 0.005 0
7.12 0.005 0
7.2 0.005 0
7.28 0.005 0
7.36 0.005 0
7.44 0.005 0
7.52 0.005 0
7.6 0.005 0
7.68 0.005 0
7.76 0.005 0
7.84 0.005 0
7.92 0.005 0
8 0.005 0
8.08 0.005 0
8.16 0.005 0
8.24 0.005 0
8.32 0.005 0
8.4 0.005 0
8.48 0.005 0
8.56 0.005 0
8.64 0.005 0
8.72 0.005 0
8.8 0.005 0
8.88 0.005 0
8.96 0.005 0
9.04 0.005 0
9.12 0.005 0
9.2 0.005 0
9.28 0.005 0
9.36 0.005 0
9.44 0.005 0
9.52 0.005 0
9.6 0.005 0
9.68 0.005 0
9.76 0.005 0
9.84 0.005 0
9.92 0.005 0
10 0.005 0
10.08 0.005 0
10.16 0.005 0
10.24 0.005 0
10.32 0.005 0
10.4 0.005 0
10.48 0.005 0
10.56 0.005 0
10.64 0.005 0
10.72 0.005 0
10.8 0.005 0
10.88 0.005 0
10.96 0.005 0
11.04 0.005 0
11.12 0.005 0
11.2 0.005 0
11.28 0.005 0
11.36 0.005 0
11.44 0.005 0
11.52 0.005 0
11.6 0.005 0
11.68 0.005 0
11.76 0.005 0
11.84 0.005 0
11.92 0.005 0
12 0.005 0
12.08 0.005 0
12.16 0.005 0
12.24 0.005 0
12.32 0.005 0
12.4 0.005 0
12.48 0.005 0
12.56 0.005 0
12.64 0.005 0
12.72 0.005 0
12.8 0.005 0
12.88 0.005 0
12.96 0.005 0
13.04 0.005 0
13.12 0.005 0
13.2 0.005 0
13.28 0.005 0
13.36 0.005 0
13.44 0.005 0
13.52 0.005 0
13.6 0.005 0
13.68 0.005 0
13.76 0.005 0
13.84 0.005 0
13.92 0.005 0
14 0.005 0
14.08 0.005 0
14.16 0.005 0
14.24 0.005 0
14.32 0.005 0
14.4 0.005 0
14.48 0.005 0
14.56 0.005 0
14.64 0.005 0
14.72 0.005 0
14.8 0.005 0
14.88 0.005 0
14.96 0.005 0
15.04 0.005 0
15.12 0.005 0
15.2 0.005 0
15.28 0.005 0
15.36 0.005 0
15.44 0.005 0
15.52 0.005 0
15.6 0.005 0
15.68 0.005 0
15.76 0.005 0
15.84 0.005 0
15.92 0.005 0
16 0.005 0
16.08 0.005 0
16.16 0.005 0
16.24 0.005 0
16.32 0.005 0
16.4 0.005 0
16.48 0.005 0
16.56 0.005 0
16.64 0.005 0
16.72 0.005 0
16.8 0.005 0
16.88 0.005 0
16.96 0.005 0
17.04 0.005 0
17.12 0.005 0
17.2 0.005 0
17.28 0.005 0
17.36 0.005 0
17.44 0.005 0
17.52 0.005 0
17.6 0.005 0
17.68 0.005 0
17.76 0.005 0
17.84 0.005 0
17.92 0.005 0
18 0.005 0
18.08 0.005 0
18.16 0.005 0
18.24 0.005 0
18.32 0.005 0
18.4 0.005 0
18.48 0.005 0
18.56 0.005 0
18.64 0.005 0
18.72 0.005 0
18.8 0.005 0
18.88 0.005 0
18.96 0.005 0
19.04 0.005 0
19.12 0.005 0
19.2 0.005 0
19.28 0.005 0
19.36 0.005 0
19.44 0.005 0
19.52 0.005 0
19.6 0.005 0
19.68 0.005 0
19.76 0.005 0
19.84 0.005 0
19.92 0.005 0
20 0.005 0
20.08 0.005 0
20.16 0.005 0
20.24 0.005 0
20.32 0.005 0
20.4 0.005 0
20.48 0.005 0
20.56 0.005 0
20.64 0.005 0
20.72 0.005 0
20.8 0.005 0
20.88 0.005 0
20.96 0.005 0
21.04 0.005 0
21.12 0.005 0
21.2 0.005 0
21.28 0.005 0
21.36 0.005 0
21.44 0.005 0
21.52 0.005 0
21.6 0.005 0
21.68 0.005 0
21.76 0.005 0
21.84 0.005 0
21.92 0.005 0
22 0.005 0
22.08 0.005 0
22.16 0.005 0
22.24 0.005 0
22.32 0.005 0
22.4 0.005 0
22.48 0.005 0
22.56 0.005 0
22.64 0.005 0
22.72 0.005 0
22.8 0.005 0
22.88 0.005 0
22.96 0.005 0
23.04 0.005 0
23.12 0.005 0
23.2 0.005 0
23.28 0.005 0
23.36 0.005 0
23.44 0.005 0
23.52 0.005 0
23.6 0.005 0
23.68 0.005 0
23.76 0.005 0
23.84 0.005 0
23.92 0.005 0
24 0.005 0
24.08 0.005 0
24.16 0.005 0
24.24 0.005 0
24.32 0.005 0
24.4 0.005 0
24.48 0.005 0
24.56 0.005 0
24.64 0.005 0
24.72 0.005 0
24.8 0.005 0
24.88 0.005 0
24.96 0.005 0
25.04 0.005 0
25.12 0.005 0
25.2 0.005 0
25.28 0.005 0
25.36 0.005 0
25.44 0.005 0
25.52 0.005 0
25.6 0.005 0
25.68 0.005 0
25.76 0.005 0
25.84 0.005 0
25.92 0.005 0
26 0.005 0
26.08 0.005 0
26.16 0.005 0
26.24 0.005 0
26.32 0.005 0
26.4 0.005 0
26.48 0.005 0
26.56 0.005 0
26.64 0.005 0
26.72 0.005 0
26.8 0.005 0
26.88 0.005 0
26.96 0.005 0
27.04 0.005 0
27.12 0.005 0
27.2 0.005 0
27.28 0.005 0
27.36 0.005 0
27.44 0.005 0
27.52 0.005 0
27.6 0.005 0
27.68 0.005 0
27.76 0.005 0
27.84 0.005 0
27.92 0.005 0
28 0.005 0
28.08 0.005 0
28.16 0.005 0
28.24 0.005 0
28.32 0.005 0
28.4 0.005 0
28.48 0.005 0
28.56 0.005 0
28.64 0.005 0
28.72 0.005 0
28.8 0.005 0
28.88 0.005 0
28.96 0.005 0
29.04 0.005 0
29.12 0.005 0
29.2 0.005 0
29.28 0.005 0
29.36 0.005 0
29.44 0.005 0
29.52 0.005 0
29.6 0.005 0
29.68 0.005 0
29.76 0.005 0
29.84 0.005 0
29.92 0.005 0
30 0.005 0
30.08 0.005 0
30.16 0.005 0
30.24 0.005 0
30.32 0.005 0
30.4 0.005 0
30.48 0.005 0
30.56 0.005 0
30.64 0.005 0
30.72 0.005 0
30.8 0.005 0
30.88 0.005 0
30.96 0.005 0
31.04 0.005 0
31.12 0.005 0
31.2 0.005 0
31.28 0.005 0
31.36 0.005 0
31.44 0.005 0
31.52 0.005 0
31.6 0.005 0
31.68 0.005 0
31.76 0.005 0
31.84 0.005 0
31.92 0.005 0
0 0.01 0
0.08 0.01 0
0.16 0.01 0
0.24 0.01 0
0.32 0.01 0
0.4 0.01 0
0.48 0.01 0
0.56 0.01 0
0.64 0.01 0
0.72 0.01 0
0.8 0.01 0
0.88 0.01 0
0.96 0.01 0
1.04 0.01 0
1.12 0.01 0
1.2 0.01 0
1.28 0.01 0
1.36 0.01 0
1.44 0.01 0
1.52 0.01 0
1.6 0.01 0
1.68 0.01 0
1.76 0.01 0
1.84 0.01 0
1.92 0.01 0
2 0.01 0
2.08 0.01 0
2.16 0.01 0
2.24 0.01 0
2.32 0.01 0
2.4 0.01 0
2.48 0.01 0
2.56 0.01 0
2.64 0.01 0
2.72 0.01 0
2.8 0.01 0
2.88 0.01 0
2.96 0.01 0
3.04 0.01 0
3.12 0.01 0
3.2 0.01 0
3.28 0.01 0
3.36 0.01 0
3.44 0.01 0
3.52 0.01 0
3.6 0.01 0
3.68 0.01 0
3.76 0.01 0
3.84 0.01 0
3.92 0.01 0
4 0.01 0
4.08 0.01 0
4.16 0.01 0
4.24 0.01 0
4.32 0.01 0
4.4 0.01 0
4.48 0.01 0
4.56 0.01 0
4.64 0.01 0
4.72 0.01 0
4.8 0.01 0
4.88 0.01 0
4.96 0.01 0
5.04 0.01 0
5.12 0.01 0
[...]
POINT_DATA 80000

SCALARS v float 1
LOOKUP_TABLE default
0
0
0
0
0
0
0
0
0
0
0
0
0
0
0
0
0
0
0
0
0
0
0
0
0
0
0
0
0
0
0
0
0
0
0
0
0
0
0
0
0
0
0
0
0
0
0
0
0
0
0
0
0
0
0
0
0
0
0
0
0
0
0
0
0
0
0
0
0
0
0
0
0
0
0
0
0
0
0
0
0
0
0
0
0
0
0
0
0
0
0
0
0
0
0
0
0
0
0
0
0
0
0
0
0
0
0
0
0
0
0
0
0
0
0
0
0
0
0
0
0
0
0
0
0
0
0
0
0
0
0
0
0
0
0
0
0
0
0
0
0
0
0
0
0
0
0
0
0
0
0
0
0
0
0
0
0
0
0
0
0
0
0
0
0
0
0
0
0
0
0
0
0
0
0
0
0
0
0
0
0
0
0
0
0
0
0
0
0
0
0
0
0
0
0
0
0
0
0
0
0
0
0
0
0
0
0
0
0
0
0
0
0
0
0
0
0
0
0
0
0
0
0
0
0
0
0
0
0
0
0
0
0
0
0
0
0
0
0
0
0
0
0
0
0
0
0
0
0
0
0
0
0
0
0
0
0
0
0
0
0
0
0
0
0
0
0
0
0
0
0
0
0
0
0
0
0
0
0
0
0
0
0
0
0
0
0
0
0
0
0
0
0
0
0
0
0
0
0
0
0
0
0
0
0
0
0
0
0
0
0
0
0
0
0
0
0
0
0
0
0
0
0
0
0
0
0
0
0
0
0
0
0
0
0
0
0
0
0
0
0
0
0
0
0
0
0
0
0
0
0
0
0
0
0
0
0
0
0
0
0
0
0
0
0
0
0
0
0
0
0
0
0
0
0
0
0
0
0
0
0
0
0
0
0
0
0
0
0
0
0
0
0
0
0
0
0
0
0
0
-0.0542710933
0.0542710933
0.003962098456
0.0009983332243
0.0004922637642
0.0003026997987
0.00020732364
0.0001516952143
0.0001162537884
9.229739766e-05
7.538424144e-05
6.302361991e-05
5.372316753e-05
4.654471171e-05
4.087686219e-05
3.630977927e-05
3.256223025e-05
2.943723921e-05
2.679422263e-05
2.453103281e-05
2.257215015e-05
2.086078825e-05
1.935353797e-05
1.801668573e-05
1.682365014e-05
1.575317513e-05
1.478803984e-05
1.391412553e-05
1.311973179e-05
1.239506848e-05
1.17318733e-05
1.112311984e-05
1.056279195e-05
1.004570704e-05
9.567376146e-06
9.123891868e-06
8.711837728e-06
8.328214148e-06
7.970377642e-06
7.635990182e-06
7.322977254e-06
7.029492279e-06
6.753886889e-06
6.494685561e-06
6.250564002e-06
6.020330717e-06
5.802911115e-06
5.597333884e-06
5.402719135e-06
5.218268135e-06
5.043254433e-06
4.877016015e-06
4.718948526e-06
4.568499285e-06
4.425162016e-06
4.288472218e-06
4.158003067e-06
4.033361776e-06
3.914186397e-06
3.800142918e-06
3.690922713e-06
3.586240283e-06
3.485831192e-06
3.389450212e-06
3.296869737e-06
3.207878196e-06
3.122278825e-06
3.039888407e-06
2.960536129e-06
2.884062698e-06
2.81031935e-06
2.739167057e-06
2.670475809e-06
2.604123902e-06
2.539997342e-06
2.477989236e-06
2.41799931e-06
2.359933435e-06
2.303703164e-06
2.249225353e-06
2.196421772e-06
2.145218792e-06
2.095547004e-06
2.047341035e-06
2.000539208e-06
1.9550833e-06
1.910918312e-06
1.867992304e-06
1.826256134e-06
1.785663311e-06
1.746169822e-06
1.707733974e-06
1.670316242e-06
1.63387912e-06
1.598387062e-06
1.563806272e-06
1.530104622e-06
1.497251627e-06
1.465218202e-06
1.43397674e-06
1.403500885e-06
1.373765558e-06
1.344746811e-06
1.316421821e-06
1.288768766e-06
1.261766798e-06
1.235396019e-06
1.209637376e-06
1.184472653e-06
1.15988437e-06
1.135855786e-06
1.112370861e-06
1.089414191e-06
1.066971024e-06
1.045027192e-06
1.023569054e-06
1.002583505e-06
9.820579138e-07
9.619801348e-07
9.42338475e-07
9.231217131e-07
9.043189932e-07
8.859198942e-07
8.679142816e-07
8.502923747e-07
8.330447407e-07
8.161622899e-07
7.996362577e-07
7.834581745e-07
7.676198366e-07
7.521132756e-07
7.369307321e-07
7.220647052e-07
7.075079963e-07
6.932536744e-07
6.792950724e-07
6.656257252e-07
6.522392866e-07
6.391296093e-07
6.262907572e-07
6.137170155e-07
6.014029965e-07
5.893434161e-07
5.775331422e-07
5.659669751e-07
5.546396796e-07
5.435460323e-07
5.326808354e-07
5.220389005e-07
5.116149268e-07
5.01403394e-07
4.913983188e-07
4.815933299e-07
4.719816769e-07
4.625563286e-07
4.533101268e-07
4.44235666e-07
4.35325187e-07
4.26570535e-07
4.179630769e-07
4.094939187e-07
4.011541306e-07
3.929349872e-07
3.848280614e-07
3.768251374e-07
3.689180754e-07
3.610987689e-07
3.533592282e-07
3.45691899e-07
3.38089973e-07
3.305475566e-07
3.230595852e-07
3.156216168e-07
3.082295312e-07
3.008795016e-07
2.935681458e-07
2.862928912e-07
2.790522597e-07
2.718458529e-07
2.646741416e-07
2.575379912e-07
2.504383235e-07
2.433760477e-07
2.363523521e-07
2.293692471e-07
2.224297212e-07
2.155378655e-07
2.086982273e-07
2.019153435e-07
1.951931615e-07
1.885351288e-07
1.819445002e-07
1.754251897e-07
1.689820761e-07
1.626211441e-07
1.563488554e-07
1.50171347e-07
1.440936745e-07
1.38119595e-07
1.322520514e-07
1.264940326e-07
1.208493965e-07
1.153232286e-07
1.099215596e-07
1.046503409e-07
9.95144685e-08
9.451699353e-08
8.965919679e-08
8.494130651e-08
8.036358524e-08
7.592726673e-08
7.163496432e-08
6.749021146e-08
6.349651225e-08
5.965614827e-08
5.596948047e-08
5.243486458e-08
4.904931364e-08
4.580963057e-08
4.271337235e-08
3.975950097e-08
3.694815879e-08
3.428002917e-08
3.1755209e-08
2.937245622e-08
2.712862474e-08
2.501906461e-08
2.303823712e-08
2.118070095e-08
1.944182481e-08
1.781819028e-08
1.630731297e-08
1.490713906e-08
1.361522798e-08
1.242819992e-08
1.134138587e-08
1.034896903e-08
9.444492764e-09
8.621444098e-09
7.873841597e-09
7.196641285e-09
6.585666706e-09
6.037470555e-09
5.548874647e-09
5.116614146e-09
4.736960092e-09
4.405659023e-09
4.118002498e-09
3.869043323e-09
3.653877661e-09
3.468002887e-09
3.30739216e-09
3.168653918e-09
3.048865308e-09
2.945607574e-09
2.856703847e-09
2.780135739e-09
2.714001661e-09
2.656499553e-09
2.605850402e-09
2.560522818e-09
2.519172244e-09
2.480686239e-09
2.444256846e-09
2.409286686e-09
2.37539162e-09
2.342354783e-09
2.309997937e-09
2.278226171e-09
2.246945801e-09
2.216052325e-09
2.18545414e-09
2.15504548e-09
2.124749186e-09
2.094492735e-09
2.064220639e-09
2.033907305e-09
2.003550758e-09
1.973174752e-09
1.942779581e-09
1.912377151e-09
1.88197587e-09
1.851599111e-09
1.821237277e-09
1.790877236e-09
1.760547279e-09
1.730199969e-09
1.699839741e-09
1.669481264e-09
1.639099905e-09
1.608704753e-09
1.578300343e-09
1.547887943e-09
1.517459576e-09
1.48703983e-09
1.456596887e-09
1.426161572e-09
1.395707181e-09
1.365267538e-09
1.334823023e-09
1.304366881e-09
1.273895664e-09
1.243424678e-09
1.212946134e-09
1.182467641e-09
1.151966374e-09
1.121475206e-09
1.090960155e-09
1.060452394e-09
1.029923175e-09
9.9940004e-10
9.688587401e-10
9.383220229e-10
9.07771103e-10
8.772257201e-10
8.466442052e-10
8.160928933e-10
7.854952555e-10
7.549362331e-10
7.243131738e-10
6.937398838e-10
6.63105697e-10
6.325303253e-10
6.018510959e-10
5.712896425e-10
5.405976057e-10
5.100124386e-10
4.793000504e-10
4.487219726e-10
4.179595717e-10
3.87401434e-10
3.565847998e-10
3.260492208e-10
2.951864385e-10
2.646680911e-10
2.337468384e-10
2.032730264e-10
1.722760205e-10
1.418468379e-10
1.107697087e-10
8.040960386e-11
4.920461905e-11
1.89604644e-11
-1.23973186e-11
-4.251213369e-11
-7.404527395e-11
-1.039839294e-10
-1.357389315e-10
-1.654711744e-10
-1.975085998e-10
-2.269322697e-10
-2.593367506e-10
-2.883809076e-10
-3.212609466e-10
-3.497951567e-10
-3.832575441e-10
-4.111602559e-10
-4.453733128e-10
-4.724531095e-10
-5.076195415e-10
-5.336281245e-10
-5.700055608e-10
-5.946788558e-10
-6.325755985e-10
-6.555408287e-10
-6.953701232e-10
-7.161745886e-10
-7.584090368e-10
-7.765171899e-10
-8.217506881e-10
-8.364987752e-10
-8.854162038e-10
-8.960486403e-10
-9.494318228e-10
-9.551343245e-10
-1.013784834e-09
-1.013754029e-09
-1.078348485e-09
-1.072045305e-09
-1.142850083e-09
-1.130427829e-09
-1.206652744e-09
-1.189858689e-09
-1.268456323e-09
-1.252634548e-09
-1.325624365e-09
-1.323736492e-09
-1.372807396e-09
-1.414335933e-09
-1.398554475e-09
-1.549940246e-09
-1.375484346e-09
-1.790641487e-09
-1.220715139e-09
-2.279188344e-09
-5.597478245e-10
-3.310942405e-09
4.320687824e-09
-1.76988984e-09
-1.76988984e-09
-0.09521586566
0.09521586566
0.01297562433
0.003854622497
0.001934312242
0.001196203614
0.0008217454365
0.0006023188684
0.000462071427
0.0003670453829
0.0002998350849
0.0002506494506
0.0002136061611
0.000184998368
0.0001624049706
0.0001441996272
0.0001292642119
0.0001168142584
0.000106289073
9.728077727e-05
8.9487553e-05
8.26823171e-05
7.66914287e-05
7.138002399e-05
6.664178893e-05
6.23917381e-05
5.85610523e-05
5.509334094e-05
5.19419003e-05
4.906767595e-05
4.643772801e-05
4.402406e-05
4.180271363e-05
3.975306035e-05
3.78572405e-05
3.609971452e-05
3.446690015e-05
3.294687652e-05
3.152914072e-05
3.020440623e-05
2.896443473e-05
2.780189494e-05
2.671024361e-05
2.568362457e-05
2.471678274e-05
2.380499064e-05
2.294398526e-05
2.212991364e-05
2.135928592e-05
2.062893448e-05
1.993597854e-05
1.927779316e-05
1.86519822e-05
1.805635452e-05
1.748890314e-05
1.694778679e-05
1.643131366e-05
1.593792695e-05
1.546619214e-05
1.501478551e-05
1.458248407e-05
1.416815644e-05
1.377075478e-05
1.338930747e-05
1.302291258e-05
1.267073198e-05
1.233198605e-05
1.200594887e-05
1.169194383e-05
1.138933982e-05
1.10975475e-05
1.081601622e-05
1.054423089e-05
1.028170947e-05
1.002800034e-05
9.78268013e-06
9.545351703e-06
9.315642158e-06
9.093201196e-06
8.877699468e-06
8.668827132e-06
8.466292503e-06
8.269820794e-06
8.079153003e-06
7.894044812e-06
7.714265615e-06
7.539597646e-06
7.369835089e-06
7.204783356e-06
7.044258288e-06
6.888085585e-06
6.736100051e-06
6.588145164e-06
6.444072425e-06
6.303740914e-06
6.167016819e-06
6.033772942e-06
5.903888391e-06
5.777248122e-06
5.653742629e-06
5.533267613e-06
5.415723682e-06
5.30101601e-06
5.189054123e-06
5.079751599e-06
4.97302591e-06
4.868798187e-06
4.766992947e-06
4.667538003e-06
4.570364137e-06
4.475405056e-06
4.382597176e-06
4.291879521e-06
4.203193624e-06
4.116483309e-06
4.031694596e-06
3.948775549e-06
3.867676135e-06
3.788348269e-06
3.71074564e-06
3.634823737e-06
3.560539646e-06
3.487851942e-06
3.416720579e-06
3.347106832e-06
3.27897332e-06
3.212284035e-06
3.147004282e-06
3.083100537e-06
3.020540256e-06
2.959291838e-06
2.899324582e-06
2.840608857e-06
2.783116134e-06
2.726818998e-06
2.671690991e-06
2.617706383e-06
2.564840121e-06
2.51306776e-06
2.46236574e-06
2.412711501e-06
2.364083377e-06
2.316460384e-06
2.269821748e-06
2.224146627e-06
2.179413981e-06
2.135602732e-06
2.092691856e-06
2.050660283e-06
2.009486399e-06
1.96914749e-06
1.929619224e-06
1.890875626e-06
1.852889297e-06
1.815631875e-06
1.779074256e-06
1.743186441e-06
1.707937117e-06
1.673293276e-06
1.639220368e-06
1.605682912e-06
1.572645525e-06
1.54007371e-06
1.507934108e-06
1.476194246e-06
1.444821978e-06
1.413785499e-06
1.383053766e-06
1.352597679e-06
1.32239119e-06
1.292411768e-06
1.262640175e-06
1.233059402e-06
1.203653934e-06
1.17440953e-06
1.145314002e-06
1.116358459e-06
1.087538258e-06
1.058852911e-06
1.030305045e-06
1.001898676e-06
9.736381204e-07
9.455279279e-07
9.175741177e-07
8.897857186e-07
8.62175836e-07
8.347611383e-07
8.07560098e-07
7.805906758e-07
7.538688079e-07
7.274086033e-07
7.012240601e-07
6.753315789e-07
6.497514571e-07
6.24507673e-07
5.996255927e-07
5.751288545e-07
5.510369232e-07
5.273646467e-07
5.041241655e-07
4.813281628e-07
4.589927006e-07
4.37138347e-07
4.157884055e-07
3.949654206e-07
3.746873578e-07
3.549653148e-07
3.358039784e-07
3.172045464e-07
2.991687991e-07
2.817023997e-07
2.648157681e-07
2.485221914e-07
2.328341024e-07
2.177589043e-07
2.032965736e-07
1.894398764e-07
1.761771131e-07
1.634961712e-07
1.513882032e-07
1.398493378e-07
1.288799e-07
1.184813743e-07
1.086526993e-07
9.938720148e-08
9.067146407e-08
8.248646775e-08
7.481051328e-08
6.762257075e-08
6.090489402e-08
5.464406859e-08
4.883000619e-08
4.345366424e-08
3.850426395e-08
3.396712418e-08
2.982287234e-08
2.604810694e-08
2.261728589e-08
1.950508641e-08
1.668845398e-08
1.414773671e-08
1.186665024e-08
9.831362758e-09
8.028912312e-09
6.445722021e-09
5.066554347e-09
3.874168917e-09
2.849820902e-09
1.974082178e-09
1.228005766e-09
5.941374106e-10
5.710456595e-11
-3.962254598e-10
-7.769207633e-10
-1.094496601e-09
-1.357377106e-09
-1.573395401e-09
-1.749960693e-09
-1.894164183e-09
-2.012648361e-09
-2.111317561e-09
-2.195233364e-09
-2.268477382e-09
-2.334105662e-09
-2.394254762e-09
-2.450330405e-09
-2.503216795e-09
-2.553469813e-09
-2.601525192e-09
-2.647719829e-09
-2.692458329e-09
-2.736105549e-09
-2.77905839e-09
-2.821613097e-09
-2.864041605e-09
-2.90650232e-09
-2.949087171e-09
-2.991812664e-09
-3.034636166e-09
-3.077501191e-09
-3.120344193e-09
-3.163140235e-09
-3.205849994e-09
-3.248496551e-09
-3.291071517e-09
-3.333615163e-09
-3.376144365e-09
-3.418701434e-09
-3.461267982e-09
-3.503884101e-09
-3.546530936e-09
-3.589212428e-09
-3.631899372e-09
-3.674614059e-09
-3.717326099e-09
-3.760035965e-09
-3.802753807e-09
-3.845448584e-09
-3.888160223e-09
-3.930869749e-09
-3.973570756e-09
-4.016302169e-09
-4.059016991e-09
-4.101769989e-09
-4.144497998e-09
-4.187295423e-09
-4.230043267e-09
-4.272836997e-09
-4.31561513e-09
-4.358445756e-09
-4.401223337e-09
-4.444070162e-09
-4.486854402e-09
-4.529743838e-09
-4.572537153e-09
-4.615445903e-09
-4.658245835e-09
-4.701192727e-09
-4.743984767e-09
-4.78696561e-09
-4.829753861e-09
-4.872807061e-09
-4.915568559e-09
-4.958671789e-09
-5.00141141e-09
-5.044592264e-09
-5.087293611e-09
-5.130555495e-09
-5.173211235e-09
-5.216577601e-09
-5.259161775e-09
-5.302650131e-09
-5.345138263e-09
-5.388773486e-09
-5.431126707e-09
-5.474971468e-09
-5.51713777e-09
-5.561229922e-09
-5.603166869e-09
-5.647568469e-09
-5.689190541e-09
-5.733988136e-09
-5.775213533e-09
-5.820505588e-09
-5.861200894e-09
-5.90714191e-09
-5.94715761e-09
-5.993908776e-09
-6.033032801e-09
-6.080821489e-09
-6.118815037e-09
-6.167934017e-09
-6.204439422e-09
-6.25525826e-09
-6.289882094e-09
-6.342867183e-09
-6.375047344e-09
-6.430805652e-09
-6.459875183e-09
-6.519138548e-09
-6.544233697e-09
-6.607970778e-09
-6.628010292e-09
-6.697412871e-09
-6.71102704e-09
-6.787578904e-09
-6.793085606e-09
-6.878611832e-09
-6.873994325e-09
-6.970683138e-09
-6.953442677e-09
-7.063887279e-09
-7.031252083e-09
-7.158333514e-09
-7.107188003e-09
-7.253926258e-09
-7.181296837e-09
-7.350254644e-09
-7.254034833e-09
-7.446286567e-09
-7.326919342e-09
-7.539673748e-09
-7.403619708e-09
-7.625624371e-09
-7.492511872e-09
-7.694464408e-09
-7.612163652e-09
-7.726546045e-09
-7.804019833e-09
-7.680147907e-09
-8.162901146e-09
-7.455389639e-09
-8.911550397e-09
-6.749132016e-09
-1.057327307e-08
-4.183332219e-09
-1.416277022e-08
1.373076544e-08
-8.433867215e-09
-8.433867215e-09
-0.1252930416
0.1252930416
0.02493587422
0.008358023912
0.004278001216
0.002661523967
0.00183374063
0.001346357574
0.001033889541
0.0008217089287
0.0006713920162
0.000561255076
0.0004782374187
0.0004140904232
0.0003634159016
0.000322581188
0.0002890847551
0.000261169057
0.0002375763718
0.0002173908638
0.0001999343351
0.0001846962605
0.0001712861528
0.000159400704
0.0001488008377
0.0001392954857
0.0001307299784
0.0001229776301
0.0001159335647
0.0001095101228
0.0001036334027
9.824062091e-05
9.327807117e-05
8.869952882e-05
8.446498731e-05
8.053964794e-05
7.68931035e-05
7.349867268e-05
7.033285317e-05
6.737486856e-05
6.460629083e-05
6.201072346e-05
5.957353451e-05
5.728163008e-05
5.512326168e-05
5.308786147e-05
5.116590076e-05
4.934876826e-05
4.762866474e-05
4.599851178e-05
4.445187227e-05
4.298288123e-05
4.158618516e-05
4.025688893e-05
3.899050901e-05
3.778293229e-05
3.66303797e-05
3.552937392e-05
3.447671082e-05
3.346943396e-05
3.250481191e-05
3.158031799e-05
3.069361208e-05
2.984252439e-05
2.902504083e-05
2.823928982e-05
2.748353046e-05
2.675614181e-05
2.605561313e-05
2.538053516e-05
2.472959213e-05
2.410155447e-05
2.349527222e-05
2.290966903e-05
2.234373662e-05
2.179652983e-05
2.12671619e-05
2.075480037e-05
2.025866315e-05
1.977801495e-05
1.931216399e-05
1.886045911e-05
1.842228685e-05
1.799706894e-05
1.758425994e-05
1.718334505e-05
1.679383806e-05
1.641527951e-05
1.604723494e-05
1.568929323e-05
1.534106519e-05
1.500218208e-05
1.467229439e-05
1.435107063e-05
1.403819615e-05
1.373337216e-05
1.343631472e-05
1.314675389e-05
1.286443281e-05
1.258910699e-05
1.232054359e-05
1.20585206e-05
1.180282636e-05
1.155325883e-05
1.130962507e-05
1.107174082e-05
1.083942992e-05
1.06125239e-05
1.039086151e-05
1.017428822e-05
9.962655998e-06
9.755822867e-06
9.553652713e-06
9.356014938e-06
9.162784144e-06
8.973839751e-06
8.789065796e-06
8.608350621e-06
8.431586782e-06
8.258670964e-06
8.089503751e-06
7.923989323e-06
7.762035151e-06
7.603551832e-06
7.448452902e-06
7.296654962e-06
7.148077627e-06
7.002643434e-06
6.860277465e-06
6.720907096e-06
6.584461747e-06
6.450872929e-06
6.32007449e-06
6.192002805e-06
6.066596658e-06
5.94379691e-06
5.823546066e-06
5.705788039e-06
5.590468295e-06
5.477534169e-06
5.366935174e-06
5.258622706e-06
5.15254954e-06
5.048668822e-06
4.946933478e-06
4.847296063e-06
4.74970896e-06
4.654124578e-06
4.560495011e-06
4.468771007e-06
4.378900748e-06
4.290828848e-06
4.204496317e-06
4.119841121e-06
4.036799096e-06
3.955304446e-06
3.8752893e-06
3.796682821e-06
3.71941067e-06
3.643395296e-06
3.568557507e-06
3.494818529e-06
3.42210164e-06
3.350332721e-06
3.279439554e-06
3.209350961e-06
3.139996658e-06
3.071308619e-06
3.003223412e-06
2.935684463e-06
2.868643064e-06
2.802057471e-06
2.735891037e-06
2.670110376e-06
2.604685337e-06
2.539590651e-06
2.474808575e-06
2.410330627e-06
2.346157235e-06
2.282295297e-06
2.218754695e-06
2.15554606e-06
2.092680994e-06
2.030174551e-06
1.968048716e-06
1.90633402e-06
1.845068392e-06
1.784293173e-06
1.72404831e-06
1.664369522e-06
1.605288974e-06
1.546839179e-06
1.489058015e-06
1.431991648e-06
1.375693541e-06
1.320219454e-06
1.265620827e-06
1.211940005e-06
1.159209854e-06
1.107457996e-06
1.056713745e-06
1.007013864e-06
9.584041331e-07
9.109353426e-07
8.646556967e-07
8.196029214e-07
7.758000465e-07
7.332569264e-07
6.919766462e-07
6.519642539e-07
6.13233034e-07
5.758059996e-07
5.397113609e-07
5.049742344e-07
4.716084628e-07
4.396119035e-07
4.08967405e-07
3.796490488e-07
3.516308535e-07
3.248940948e-07
2.994304561e-07
2.752397854e-07
2.523235219e-07
2.30676794e-07
2.102823264e-07
1.911086203e-07
1.73112796e-07
1.562468924e-07
1.404649331e-07
1.25728303e-07
1.120072997e-07
9.927883803e-08
8.752133282e-08
7.670893986e-08
6.680726909e-08
5.777194602e-08
4.955043545e-08
4.208618141e-08
3.532363006e-08
2.921238321e-08
2.370939416e-08
1.877871772e-08
1.438927245e-08
1.051152286e-08
7.114483332e-09
4.163444865e-09
1.619736328e-09
-5.584591407e-10
-2.413929266e-09
-3.988109459e-09
-5.318998364e-09
-6.439978371e-09
-7.379558486e-09
-8.161853842e-09
-8.807610977e-09
-9.3353372e-09
-9.7622054e-09
-1.010446906e-08
-1.037758736e-08
-1.059588631e-08
-1.077213114e-08
-1.09171389e-08
-1.103953058e-08
-1.114576163e-08
-1.124032847e-08
-1.132621156e-08
-1.140523006e-08
-1.147861292e-08
-1.154724986e-08
-1.161196445e-08
-1.167356575e-08
-1.173289451e-08
-1.179076123e-08
-1.184782665e-08
-1.190466392e-08
-1.196158941e-08
-1.201877939e-08
-1.2076231e-08
-1.213386884e-08
-1.219156092e-08
-1.224922671e-08
-1.23067446e-08
-1.236408436e-08
-1.242126413e-08
-1.247830754e-08
-1.253527652e-08
-1.259220939e-08
-1.264916675e-08
-1.270619614e-08
-1.276327756e-08
-1.282042957e-08
-1.287764206e-08
-1.293488114e-08
-1.29921417e-08
-1.304937389e-08
-1.310663563e-08
-1.316385217e-08
-1.322107568e-08
-1.327826385e-08
-1.33354745e-08
-1.339264888e-08
-1.344988917e-08
-1.350708513e-08
-1.356434558e-08
-1.362157796e-08
-1.367888885e-08
-1.373613149e-08
-1.379347243e-08
-1.38507251e-08
-1.390811412e-08
-1.396536594e-08
-1.402278727e-08
-1.408004217e-08
-1.413750614e-08
-1.419476409e-08
-1.425226371e-08
-1.430951232e-08
-1.43670786e-08
-1.442429756e-08
-1.44819436e-08
-1.453913468e-08
-1.459687145e-08
-1.465401309e-08
-1.471185071e-08
-1.47689323e-08
-1.482690582e-08
-1.488389399e-08
-1.494202422e-08
-1.49988943e-08
-1.505724164e-08
-1.511392073e-08
-1.517251959e-08
-1.522896447e-08
-1.528789055e-08
-1.534403838e-08
-1.540336402e-08
-1.545911395e-08
-1.551895158e-08
-1.557417707e-08
-1.563466442e-08
-1.568921296e-08
-1.575052957e-08
-1.580419448e-08
-1.586656627e-08
-1.591909132e-08
-1.598281618e-08
-1.603386156e-08
-1.60993243e-08
-1.614844792e-08
-1.621611238e-08
-1.626278064e-08
-1.633326653e-08
-1.637676884e-08
-1.645086801e-08
-1.649029549e-08
-1.656900787e-08
-1.660322185e-08
-1.668783837e-08
-1.671537202e-08
-1.680749281e-08
-1.682648527e-08
-1.692816219e-08
-1.693632083e-08
-1.705007662e-08
-1.7044493e-08
-1.717353632e-08
-1.715059674e-08
-1.729880866e-08
-1.725413529e-08
-1.742621766e-08
-1.735456133e-08
-1.755604539e-08
-1.745134535e-08
-1.768846548e-08
-1.754410076e-08
-1.78232829e-08
-1.763282286e-08
-1.79596824e-08
-1.77185164e-08
-1.809539481e-08
-1.780433422e-08
-1.822552125e-08
-1.789807394e-08
-1.833988721e-08