# vtk DataFile Version 2.0
FlowField
ASCII
DATASET STRUCTURED_GRID
DIMENSIONS 400 1 200
POINTS 80000 float
0 0 0
0.08 0 0
0.16 0 0
0.24 0 0
0.32 0 0
0.4 0 0
0.48 0 0
0.56 0 0
0.64 0 0
0.72 0 0
0.8 0 0
0.88 0 0
0.96 0 0
1.04 0 0
1.12 0 0
1.2 0 0
1.28 0 0
1.36 0 0
1.44 0 0
1.52 0 0
1.6 0 0
1.68 0 0
1.76 0 0
1.84 0 0
1.92 0 0
2 0 0
2.08 0 0
2.16 0 0
2.24 0 0
2.32 0 0
2.4 0 0
2.48 0 0
2.56 0 0
2.64 0 0
2.72 0 0
2.8 0 0
2.88 0 0
2.96 0 0
3.04 0 0
3.12 0 0
3.2 0 0
3.28 0 0
3.36 0 0
3.44 0 0
3.52 0 0
3.6 0 0
3.68 0 0
3.76 0 0
3.84 0 0
3.92 0 0
4 0 0
4.08 0 0
4.16 0 0
4.24 0 0
4.32 0 0
4.4 0 0
4.48 0 0
4.56 0 0
4.64 0 0
4.72 0 0
4.8 0 0
4.88 0 0
4.96 0 0
5.04 0 0
5.12 0 0
5.2 0 0
5.28 0 0
5.36 0 0
5.44 0 0
5.52 0 0
5.6 0 0
5.68 0 0
5.76 0 0
5.84 0 0
5.92 0 0
6 0 0
6.08 0 0
6.16 0 0
6.24 0 0
6.32 0 0
6.4 0 0
6.48 0 0
6.56 0 0
6.64 0 0
6.72 0 0
6.8 0 0
6.88 0 0
6.96 0 0
7.04 0 0
7.12 0 0
7.2 0 0
7.28 0 0
7.36 0 0
7.44 0 0
7.52 0 0
7.6 0 0
7.68 0 0
7.76 0 0
7.84 0 0
7.92 0 0
8 0 0
8.08 0 0
8.16 0 0
8.24 0 0
8.32 0 0
8.4 0 0
8.48 0 0
8.56 0 0
8.64 0 0
8.72 0 0
8.8 0 0
8.88 0 0
8.96 0 0
9.04 0 0
9.12 0 0
9.2 0 0
9.28 0 0
9.36 0 0
9.44 0 0
9.52 0 0
9.6 0 0
9.68 0 0
9.76 0 0
9.84 0 0
9.92 0 0
10 0 0
10.08 0 0
10.16 0 0
10.24 0 0
10.32 0 0
10.4 0 0
10.48 0 0
10.56 0 0
10.64 0 0
10.72 0 0
10.8 0 0
10.88 0 0
10.96 0 0
11.04 0 0
11.12 0 0
11.2 0 0
11.28 0 0
11.36 0 0
11.44 0 0
11.52 0 0
11.6 0 0
11.68 0 0
11.76 0 0
11.84 0 0
11.92 0 0
12 0 0
12.08 0 0
12.16 0 0
12.24 0 0
12.32 0 0
12.4 0 0
12.48 0 0
12.56 0 0
12.64 0 0
12.72 0 0
12.8 0 0
12.88 0 0
12.96 0 0
13.04 0 0
13.12 0 0
13.2 0 0
13.28 0 0
13.36 0 0
13.44 0 0
13.52 0 0
13.6 0 0
13.68 0 0
13.76 0 0
13.84 0 0
13.92 0 0
14 0 0
14.08 0 0
14.16 0 0
14.24 0 0
14.32 0 0
14.4 0 0
14.48 0 0
14.56 0 0
14.64 0 0
14.72 0 0
14.8 0 0
14.88 0 0
14.96 0 0
15.04 0 0
15.12 0 0
15.2 0 0
15.28 0 0
15.36 0 0
15.44 0 0
15.52 0 0
15.6 0 0
15.68 0 0
15.76 0 0
15.84 0 0
15.92 0 0
16 0 0
16.08 0 0
16.16 0 0
16.24 0 0
16.32 0 0
16.4 0 0
16.48 0 0
16.56 0 0
16.64 0 0
16.72 0 0
16.8 0 0
16.88 0 0
16.96 0 0
17.04 0 0
17.12 0 0
17.2 0 0
17.28 0 0
17.36 0 0
17.44 0 0
17.52 0 0
17.6 0 0
17.68 0 0
17.76 0 0
17.84 0 0
17.92 0 0
18 0 0
18.08 0 0
18.16 0 0
18.24 0 0
18.32 0 0
18.4 0 0
18.48 0 0
18.56 0 0
18.64 0 0
18.72 0 0
18.8 0 0
18.88 0 0
18.96 0 0
19.04 0 0
19.12 0 0
19.2 0 0
19.28 0 0
19.36 0 0
19.44 0 0
19.52 0 0
19.6 0 0
19.68 0 0
19.76 0 0
19.84 0 0
19.92 0 0
20 0 0
20.08 0 0
20.16 0 0
20.24 0 0
20.32 0 0
20.4 0 0
20.48 0 0
20.56 0 0
20.64 0 0
20.72 0 0
20.8 0 0
20.88 0 0
20.96 0 0
21.04 0 0
21.12 0 0
21.2 0 0
21.28 0 0
21.36 0 0
21.44 0 0
21.52 0 0
21.6 0 0
21.68 0 0
21.76 0 0
21.84 0 0
21.92 0 0
22 0 0
22.08 0 0
22.16 0 0
22.24 0 0
22.32 0 0
22.4 0 0
22.48 0 0
22.56 0 0
22.64 0 0
22.72 0 0
22.8 0 0
22.88 0 0
22.96 0 0
23.04 0 0
23.12 0 0
23.2 0 0
23.28 0 0
23.36 0 0
23.44 0 0
23.52 0 0
23.6 0 0
23.68 0 0
23.76 0 0
23.84 0 0
23.92 0 0
24 0 0
24.08 0 0
24.16 0 0
24.24 0 0
24.32 0 0
24.4 0 0
24.48 0 0
24.56 0 0
24.64 0 0
24.72 0 0
24.8 0 0
24.88 0 0
24.96 0 0
25.04 0 0
25.12 0 0
25.2 0 0
25.28 0 0
25.36 0 0
25.44 0 0
25.52 0 0
25.6 0 0
25.68 0 0
25.76 0 0
25.84 0 0
25.92 0 0
26 0 0
26.08 0 0
26.16 0 0
26.24 0 0
26.32 0 0
26.4 0 0
26.48 0 0
26.56 0 0
26.64 0 0
26.72 0 0
26.8 0 0
26.88 0 0
26.96 0 0
27.04 0 0
27.12 0 0
27.2 0 0
27.28 0 0
27.36 0 0
27.44 0 0
27.52 0 0
27.6 0 0
27.68 0 0
27.76 0 0
27.84 0 0
27.92 0 0
28 0 0
28.08 0 0
28.16 0 0
28.24 0 0
28.32 0 0
28.4 0 0
28.48 0 0
28.56 0 0
28.64 0 0
28.72 0 0
28.8 0 0
28.88 0 0
28.96 0 0
29.04 0 0
29.12 0 0
29.2 0 0
29.28 0 0
29.36 0 0
29.44 0 0
29.52 0 0
29.6 0 0
29.68 0 0
29.76 0 0
29.84 0 0
29.92 0 0
30 0 0
30.08 0 0
30.16 0 0
30.24 0 0
30.32 0 0
30.4 0 0
30.48 0 0
30.56 0 0
30.64 0 0
30.72 0 0
30.8 0 0
30.88 0 0
30.96 0 0
31.04 0 0
31.12 0 0
31.2 0 0
31.28 0 0
31.36 0 0
31.44 0 0
31.52 0 0
31.6 0 0
31.68 0 0
31.76 0 0
31.84 0 0
31.92 0 0
0 0.005 0
0.08 0.005 0
0.16 0.005 0
0.24 0.005 0
0.32 0.005 0
0.4 0.005 0
0.48 0.005 0
0.56 0.005 0
0.64 0.005 0
0.72 0.005 0
0.8 0.005 0
0.88 0.005 0
0.96 0.005 0
1.04 0.005 0
1.12 0.005 0
1.2 0.005 0
1.28 0.005 0
1.36 0.005 0
1.44 0.005 0
1.52 0.005 0
1.6 0.005 0
1.68 0.005 0
1.76 0.005 0
1.84 0.005 0
1.92 0.005 0
2 0.005 0
2.08 0.005 0
2.16 0.005 0
2.24 0.005 0
2.32 0.005 0
2.4 0.005 0
2.48 0.005 0
2.56 0.005 0
2.64 0.005 0
2.72 0.005 0
2.8 0.005 0
2.88 0.005 0
2.96 0.005 0
3.04 0.005 0
3.12 0.005 0
3.2 0.005 0
3.28 0.005 0
3.36 0.005 0
3.44 0.005 0
3.52 0.005 0
3.6 0.005 0
3.68 0.005 0
3.76 0.005 0
3.84 0.005 0
3.92 0.005 0
4 0.005 0
4.08 0.005 0
4.16 0.005 0
4.24 0.005 0
4.32 0.005 0
4.4 0.005 0
4.48 0.005 0
4.56 0.005 0
4.64 0.005 0
4.72 0.005 0
4.8 0.005 0
4.88 0.005 0
4.96 0.005 0
5.04 0.005 0
5.12 0.005 0
5.2 0.005 0
5.28 0.005 0
5.36 0.005 0
5.44 0.005 0
5.52 0.005 0
5.6 0.005 0
5.68 0.005 0
5.76 0.005 0
5.84 0.005 0
5.92 0.005 0
6 0.005 0
6.08 0.005 0
6.16 0.005 0
6.24 0.005 0
6.32 0.005 0
6.4 0.005 0
6.48 0.005 0
6.56 0.005 0
6.64 0.005 0
6.72 0.005 0
6.8 0.005 0
6.88 0.005 0
6.96 0.005 0
7.04 0.005 0
7.12 0.005 0
7.2 0.005 0
7.28 0.005 0
7.36 0.005 0
7.44 0.005 0
7.52 0.005 0
7.6 0.005 0
7.68 0.005 0
7.76 0.005 0
7.84 0.005 0
7.92 0.005 0
8 0.005 0
8.08 0.005 0
8.16 0.005 0
8.24 0.005 0
8.32 0.005 0
8.4 0.005 0
8.48 0.005 0
8.56 0.005 0
8.64 0.005 0
8.72 0.005 0
8.8 0.005 0
8.88 0.005 0
8.96 0.005 0
9.04 0.005 0
9.12 0.005 0
9.2 0.005 0
9.28 0.005 0
9.36 0.005 0
9.44 0.005 0
9.52 0.005 0
9.6 0.005 0
9.68 0.005 0
9.76 0.005 0
9.84 0.005 0
9.92 0.005 0
10 0.005 0
10.08 0.005 0
10.16 0.005 0
10.24 0.005 0
10.32 0.005 0
10.4 0.005 0
10.48 0.005 0
10.56 0.005 0
10.64 0.005 0
10.72 0.005 0
10.8 0.005 0
10.88 0.005 0
10.96 0.005 0
11.04 0.005 0
11.12 0.005 0
11.2 0.005 0
11.28 0.005 0
11.36 0.005 0
11.44 0.005 0
11.52 0.005 0
11.6 0.005 0
11.68 0.005 0
11.76 0.005 0
11.84 0.005 0
11.92 0.005 0
12 0.005 0
12.08 0.005 0
12.16 0.005 0
12.24 0.005 0
12.32 0.005 0
12.4 0.005 0
12.48 0.005 0
12.56 0.005 0
12.64 0.005 0
12.72 0.005 0
12.8 0.005 0
12.88 0.005 0
12.96 0.005 0
13.04 0.005 0
13.12 0.005 0
13.2 0.005 0
13.28 0.005 0
13.36 0.005 0
13.44 0.005 0
13.52 0.005 0
13.6 0.005 0
13.68 0.005 0
13.76 0.005 0
13.84 0.005 0
13.92 0.005 0
14 0.005 0
14.08 0.005 0
14.16 0.005 0
14.24 0.005 0
14.32 0.005 0
14.4 0.005 0
14.48 0.005 0
14.56 0.005 0
14.64 0.005 0
14.72 0.005 0
14.8 0.005 0
14.88 0.005 0
14.96 0.005 0
15.04 0.005 0
15.12 0.005 0
15.2 0.005 0
15.28 0.005 0
15.36 0.005 0
15.44 0.005 0
15.52 0.005 0
15.6 0.005 0
15.68 0.005 0
15.76 0.005 0
15.84 0.005 0
15.92 0.005 0
16 0.005 0
16.08 0.005 0
16.16 0.005 0
16.24 0.005 0
16.32 0.005 0
16.4 0.005 0
16.48 0.005 0
16.56 0.005 0
16.64 0.005 0
16.72 0.005 0
16.8 0.005 0
16.88 0.005 0
16.96 0.005 0
17.04 0.005 0
17.12 0.005 0
17.2 0.005 0
17.28 0.005 0
17.36 0.005 0
17.44 0.005 0
17.52 0.005 0
17.6 0.005 0
17.68 0.005 0
17.76 0.005 0
17.84 0.005 0
17.92 0.005 0
18 0.005 0
18.08 0.005 0
18.16 0.005 0
18.24 0.005 0
18.32 0.005 0
18.4 0.005 0
18.48 0.005 0
18.56 0.005 0
18.64 0.005 0
18.72 0.005 0
18.8 0.005 0
18.88 0.005 0
18.96 0.005 0
19.04 0.005 0
19.12 0.005 0
19.2 0.005 0
19.28 0.005 0
19.36 0.005 0
19.44 0.005 0
19.52 0.005 0
19.6 0.005 0
19.68 0.005 0
19.76 0.005 0
19.84 0.005 0
19.92 0.005 0
20 0.005 0
20.08 0.005 0
20.16 0.005 0
20.24 0.005 0
20.32 0.005 0
20.4 0.005 0
20.48 0.005 0
20.56 0.005 0
20.64 0.005 0
20.72 0.005 0
20.8 0.005 0
20.88 0.005 0
20.96 0.005 0
21.04 0.005 0
21.12 0.005 0
21.2 0.005 0
21.28 0.005 0
21.36 0.005 0
21.44 0.005 0
21.52 0.005 0
21.6 0.005 0
21.68 0.005 0
21.76 0.005 0
21.84 0.005 0
21.92 0.005 0
22 0.005 0
22.08 0.005 0
22.16 0.005 0
22.24 0.005 0
22.32 0.005 0
22.4 0.005 0
22.48 0.005 0
22.56 0.005 0
22.64 0.005 0
22.72 0.005 0
22.8 0.005 0
22.88 0.005 0
22.96 0.005 0
23.04 0.005 0
23.12 0.005 0
23.2 0.005 0
23.28 0.005 0
23.36 0.005 0
23.44 0.005 0
23.52 0.005 0
23.6 0.005 0
23.68 0.005 0
23.76 0.005 0
23.84 0.005 0
23.92 0.005 0
24 0.005 0
24.08 0.005 0
24.16 0.005 0
24.24 0.005 0
24.32 0.005 0
24.4 0.005 0
24.48 0.005 0
24.56 0.005 0
24.64 0.005 0
24.72 0.005 0
24.8 0.005 0
24.88 0.005 0
24.96 0.005 0
25.04 0.005 0
25.12 0.005 0
25.2 0.005 0
25.28 0.005 0
25.36 0.005 0
25.44 0.005 0
25.52 0.005 0
25.6 0.005 0
25.68 0.005 0
25.76 0.005 0
25.84 0.005 0
25.92 0.005 0
26 0.005 0
26.08 0.005 0
26.16 0.005 0
26.24 0.005 0
26.32 0.005 0
26.4 0.005 0
26.48 0.005 0
26.56 0.005 0
26.64 0.005 0
26.72 0.005 0
26.8 0.005 0
26.88 0.005 0
26.96 0.005 0
27.04 0.005 0
27.12 0.005 0
27.2 0.005 0
27.28 0.005 0
27.36 0.005 0
27.44 0.005 0
27.52 0.005 0
27.6 0.005 0
27.68 0.005 0
27.76 0.005 0
27.84 0.005 0
27.92 0.005 0
28 0.005 0
28.08 0.005 0
28.16 0.005 0
28.24 0.005 0
28.32 0.005 0
28.4 0.005 0
28.48 0.005 0
28.56 0.005 0
28.64 0.005 0
28.72 0.005 0
28.8 0.005 0
28.88 0.005 0
28.96 0.005 0
29.04 0.005 0
29.12 0.005 0
29.2 0.005 0
29.28 0.005 0
29.36 0.005 0
29.44 0.005 0
29.52 0.005 0
29.6 0.005 0
29.68 0.005 0
29.76 0.005 0
29.84 0.005 0
29.92 0.005 0
30 0.005 0
30.08 0.005 0
30.16 0.005 0
30.24 0.005 0
30.32 0.005 0
30.4 0.005 0
30.48 0.005 0
30.56 0.005 0
30.64 0.005 0
30.72 0.005 0
30.8 0.005 0
30.88 0.005 0
30.96 0.005 0
31.04 0.005 0
31.12 0.005 0
31.2 0.005 0
31.28 0.005 0
31.36 0.005 0
31.44 0.005 0
31.52 0.005 0
31.6 0.005 0
31.68 0.005 0
31.76 0.005 0
31.84 0.005 0
31.92 0.005 0
0 0.01 0
0.08 0.01 0
0.16 0.01 0
0.24 0.01 0
0.32 0.01 0
0.4 0.01 0
0.48 0.01 0
0.56 0.01 0
0.64 0.01 0
0.72 0.01 0
0.8 0.01 0
0.88 0.01 0
0.96 0.01 0
1.04 0.01 0
1.12 0.01 0
1.2 0.01 0
1.28 0.01 0
1.36 0.01 0
1.44 0.01 0
1.52 0.01 0
1.6 0.01 0
1.68 0.01 0
1.76 0.01 0
1.84 0.01 0
1.92 0.01 0
2 0.01 0
2.08 0.01 0
2.16 0.01 0
2.24 0.01 0
2.32 0.01 0
2.4 0.01 0
2.48 0.01 0
2.56 0.01 0
2.64 0.01 0
2.72 0.01 0
2.8 0.01 0
2.88 0.01 0
2.96 0.01 0
3.04 0.01 0
3.12 0.01 0
3.2 0.01 0
3.28 0.01 0
3.36 0.01 0
3.44 0.01 0
3.52 0.01 0
3.6 0.01 0
3.68 0.01 0
3.76 0.01 0
3.84 0.01 0
3.92 0.01 0
4 0.01 0
4.08 0.01 0
4.16 0.01 0
4.24 0.01 0
4.32 0.01 0
4.4 0.01 0
4.48 0.01 0
4.56 0.01 0
4.64 0.01 0
4.72 0.01 0
4.8 0.01 0
4.88 0.01 0
4.96 0.01 0
5.04 0.01 0
5.12 0.01 0
[...]
POINT_DATA 80000

SCALARS v float 1
LOOKUP_TABLE default
0
0
0
0
0
0
0
0
0
0
0
0
0
0
0
0
0
0
0
0
0
0
0
0
0
0
0
0
0
0
0
0
0
0
0
0
0
0
0
0
0
0
0
0
0
0
0
0
0
0
0
0
0
0
0
0
0
0
0
0
0
0
0
0
0
0
0
0
0
0
0
0
0
0
0
0
0
0
0
0
0
0
0
0
0
0
0
0
0
0
0
0
0
0
0
0
0
0
0
0
0
0
0
0
0
0
0
0
0
0
0
0
0
0
0
0
0
0
0
0
0
0
0
0
0
0
0
0
0
0
0
0
0
0
0
0
0
0
0
0
0
0
0
0
0
0
0
0
0
0
0
0
0
0
0
0
0
0
0
0
0
0
0
0
0
0
0
0
0
0
0
0
0
0
0
0
0
0
0
0
0
0
0
0
0
0
0
0
0
0
0
0
0
0
0
0
0
0
0
0
0
0
0
0
0
0
0
0
0
0
0
0
0
0
0
0
0
0
0
0
0
0
0
0
0
0
0
0
0
0
0
0
0
0
0
0
0
0
0
0
0
0
0
0
0
0
0
0
0
0
0
0
0
0
0
0
0
0
0
0
0
0
0
0
0
0
0
0
0
0
0
0
0
0
0
0
0
0
0
0
0
0
0
0
0
0
0
0
0
0
0
0
0
0
0
0
0
0
0
0
0
0
0
0
0
0
0
0
0
0
0
0
0
0
0
0
0
0
0
0
0
0
0
0
0
0
0
0
0
0
0
0
0
0
0
0
0
0
0
0
0
0
0
0
0
0
0
0
0
0
0
0
0
0
0
0
0
0
0
0
0
0
0
0
0
0
0
0
0
0
0
0
0
0
0
0
0
0
0
0
0
0
0
0
0
0
0
0
0
0
0
0
0
0
0
0
0
0
0
0
-0.05427108993
0.05427108993
0.003962094974
0.0009983296977
0.0004922602178
0.0003026962405
0.0002073200737
0.000151691642
0.0001162502114
9.229381665e-05
7.538065708e-05
6.302003264e-05
5.371957769e-05
4.654111957e-05
4.0873268e-05
3.630618323e-05
3.255863253e-05
2.943363993e-05
2.679062191e-05
2.452743074e-05
2.256854684e-05
2.085718376e-05
1.934993239e-05
1.801307909e-05
1.682004249e-05
1.574956652e-05
1.478443031e-05
1.391051513e-05
1.311612052e-05
1.239145638e-05
1.17282604e-05
1.111950615e-05
1.05591775e-05
1.004209181e-05
9.563760175e-06
9.120275156e-06
8.708220276e-06
8.324595973e-06
7.966758732e-06
7.632370563e-06
7.319356884e-06
7.025871168e-06
6.750265039e-06
6.49106295e-06
6.24694062e-06
6.016706549e-06
5.799286145e-06
5.593708085e-06
5.399092487e-06
5.214640621e-06
5.039626006e-06
4.873386653e-06
4.715318193e-06
4.564867939e-06
4.421529621e-06
4.284838732e-06
4.154368442e-06
4.029725967e-06
3.910549331e-06
3.796504541e-06
3.687282965e-06
3.582599108e-06
3.482188507e-06
3.385805966e-06
3.293223829e-06
3.20423057e-06
3.118629389e-06
3.036237062e-06
2.956882803e-06
2.880407296e-06
2.806661768e-06
2.735507205e-06
2.666813593e-06
2.600459225e-06
2.536330088e-06
2.47431931e-06
2.414326602e-06
2.356257861e-06
2.300024609e-06
2.245543724e-06
2.192736966e-06
2.141530686e-06
2.091855554e-06
2.043646139e-06
1.996840768e-06
1.951381254e-06
1.907212589e-06
1.864282844e-06
1.822542874e-06
1.781946223e-06
1.742448868e-06
1.704009145e-06
1.666587529e-06
1.630146559e-06
1.59465065e-06
1.560066056e-06
1.526360696e-06
1.493504037e-06
1.461467071e-06
1.430222171e-06
1.39974304e-06
1.370004584e-06
1.340982896e-06
1.312655169e-06
1.28499961e-06
1.257995398e-06
1.231622661e-06
1.205862348e-06
1.180696242e-06
1.156106918e-06
1.132077651e-06
1.108592426e-06
1.085635852e-06
1.063193185e-06
1.041250243e-06
1.019793399e-06
9.988095499e-07
9.782860987e-07
9.582109204e-07
9.385722934e-07
9.193589651e-07
9.005600897e-07
8.821651538e-07
8.641640662e-07
8.465470539e-07
8.29304648e-07
8.124277383e-07
7.95907479e-07
7.797353409e-07
7.639030291e-07
7.484025536e-07
7.332261204e-07
7.183662188e-07
7.038155307e-07
6.895669691e-07
6.756136666e-07
6.619489185e-07
6.485662648e-07
6.354593752e-07
6.226221331e-07
6.10048563e-07
5.97732866e-07
5.856693864e-07
5.73852637e-07
5.622772717e-07
5.509380695e-07
5.398299455e-07
5.28947972e-07
5.182872908e-07
5.078432042e-07
4.9761114e-07
4.875866039e-07
4.777652291e-07
4.681427449e-07
4.587150074e-07
4.494779228e-07
4.404275376e-07
4.315599728e-07
4.228714364e-07
4.14358227e-07
4.060167283e-07
3.978433996e-07
3.898347948e-07
3.81987512e-07
3.742982598e-07
3.667638055e-07
3.593809899e-07
3.521467178e-07
3.450579565e-07
3.381117687e-07
3.313052229e-07
3.246355132e-07
3.180998593e-07
3.116955325e-07
3.054198877e-07
2.992703271e-07
2.932442944e-07
2.873392921e-07
2.815528854e-07
2.758827088e-07
2.703263632e-07
2.648816118e-07
2.595461814e-07
2.543178801e-07
2.491945575e-07
2.441740952e-07
2.392544428e-07
2.344335607e-07
2.297094693e-07
2.250802485e-07
2.205439651e-07
2.160987724e-07
2.117428386e-07
2.074743866e-07
2.032916566e-07
1.991929372e-07
1.951765329e-07
1.91240812e-07
1.873841522e-07
1.83604965e-07
1.799017165e-07
1.762728731e-07
1.727169542e-07
1.692324921e-07
1.658180819e-07
1.624722828e-07
1.591937623e-07
1.559811553e-07
1.528331407e-07
1.497484312e-07
1.467257657e-07
1.437639012e-07
1.408616187e-07
1.380177176e-07
1.352310443e-07
1.325004484e-07
1.29824815e-07
1.27203028e-07
1.246340221e-07
1.221167429e-07
1.196501353e-07
1.172331955e-07
1.148649279e-07
1.125443665e-07
1.102705372e-07
1.080425254e-07
1.058593876e-07
1.037202269e-07
1.016241709e-07
9.95703436e-08
9.755790604e-08
9.558602469e-08
9.365388593e-08
9.176068512e-08
8.990563287e-08
8.808797389e-08
8.630695196e-08
8.456184297e-08
8.285189854e-08
8.117642522e-08
7.953473688e-08
7.792613771e-08
7.634998634e-08
7.480561172e-08
7.329237014e-08
7.180964455e-08
7.035684962e-08
6.893334735e-08
6.753858166e-08
6.61719667e-08
6.483294652e-08
6.352096004e-08
6.22354991e-08
6.097600277e-08
5.974198435e-08
5.853292471e-08
5.734833838e-08
5.61877358e-08
5.505065739e-08
5.393662142e-08
5.28451873e-08
5.177588293e-08
5.072829412e-08
4.9701959e-08
4.869646484e-08
4.771138203e-08
4.674628e-08
4.580075824e-08
4.48743796e-08
4.396674911e-08
4.307744469e-08
4.220605938e-08
4.135217727e-08
4.051540448e-08
3.969530543e-08
3.889146888e-08
3.81034937e-08
3.733096937e-08
3.657345598e-08
3.583055034e-08
3.510181996e-08
3.43868559e-08
3.368522485e-08
3.299651078e-08
3.232028198e-08
3.165612607e-08
3.100363527e-08
3.036236085e-08
2.973190485e-08
2.911188063e-08
2.850184758e-08
2.790143253e-08
2.731022989e-08
2.672788034e-08
2.615400047e-08
2.558823504e-08
2.503024897e-08
2.447968608e-08
2.39362571e-08
2.339961549e-08
2.28695272e-08
2.23456985e-08
2.182786476e-08
2.131580807e-08
2.080931224e-08
2.030818176e-08
1.981224535e-08
1.932133411e-08
1.883533619e-08
1.83541214e-08
1.787760636e-08
1.740572826e-08
1.693841365e-08
1.647565429e-08
1.601743998e-08
1.556376758e-08
1.511466398e-08
1.467021394e-08
1.423045214e-08
1.379548245e-08
1.336538976e-08
1.294029443e-08
1.252032708e-08
1.21056083e-08
1.169632019e-08
1.129260417e-08
1.089463435e-08
1.050256137e-08
1.011658851e-08
9.736857097e-09
9.36359134e-09
8.996913584e-09
8.637039851e-09
8.284093394e-09
7.938306271e-09
7.599765718e-09
7.268690373e-09
6.945129826e-09
6.629311491e-09
6.32126301e-09
6.021206833e-09
5.729113775e-09
5.445182682e-09
5.169391542e-09
4.901904566e-09
4.642641537e-09
4.391796839e-09
4.149188278e-09
3.915049848e-09
3.689116702e-09
3.471654917e-09
3.262298685e-09
3.061379086e-09
2.868383708e-09
2.683728485e-09
2.506758435e-09
2.337994329e-09
2.176606405e-09
2.023261635e-09
1.876913063e-09
1.738411631e-09
1.606450783e-09
1.482150643e-09
1.363854798e-09
1.253016123e-09
1.147577039e-09
1.049413597e-09
9.559658702e-10
8.696759017e-10
7.873367337e-10
7.120760016e-10
6.399183692e-10
5.748331798e-10
5.119018021e-10
4.561524944e-10
4.015384085e-10
3.542503206e-10
3.070418257e-10
2.674187122e-10
2.267519191e-10
1.939383266e-10
1.591033502e-10
1.321743284e-10
1.025928004e-10
8.044518203e-11
5.592376912e-11
3.702922948e-11
1.805494966e-11
-1.728816278e-13
-1.172617955e-11
-3.416617944e-11
-3.321748343e-11
-7.045329151e-11
-4.345243502e-11
-1.205278296e-10
-2.278229678e-11
-2.065484967e-10
2.529086787e-10
-1.323885745e-10
-1.323885745e-10
-0.09521586185
0.09521586185
0.0129756202
0.003854618205
0.001934307872
0.001196199198
0.0008217409885
0.0006023143964
0.0004620669359
0.0003670408759
0.0002998305645
0.0002506449185
0.0002136016188
0.0001849938165
0.0001624004108
0.0001441950599
0.0001292596378
0.000116809678
0.0001062844868
9.727618563e-05
8.948295627e-05
8.26777156e-05
7.668682267e-05
7.137541366e-05
6.663717451e-05
6.238711975e-05
5.855643019e-05
5.50887152e-05
5.193727104e-05
4.906304328e-05
4.643309199e-05
4.401942075e-05
4.179807121e-05
3.97484148e-05
3.785259185e-05
3.609506282e-05
3.446224544e-05
3.294221878e-05
3.152447999e-05
3.01997425e-05
2.895976797e-05
2.779722514e-05
2.670557074e-05
2.567894858e-05
2.471210359e-05
2.380030827e-05
2.293929959e-05
2.21252246e-05
2.135459341e-05
2.06242384e-05
1.993127877e-05
1.927308959e-05
1.864727468e-05
1.805164289e-05
1.748418725e-05
1.694306646e-05
1.64265887e-05
1.593319714e-05
1.546145729e-05
1.501004536e-05
1.457773838e-05
1.416340497e-05
1.376599724e-05
1.338454359e-05
1.301814203e-05
1.266595446e-05
1.232720123e-05
1.20011564e-05
1.168714337e-05
1.138453098e-05
1.109272994e-05
1.081118952e-05
1.053939468e-05
1.027686332e-05
1.002314386e-05
9.777812922e-06
9.540473337e-06
9.310752225e-06
9.0882993e-06
8.872785208e-06
8.663900115e-06
8.461352333e-06
8.264867116e-06
8.074185462e-06
7.889063062e-06
7.709269362e-06
7.534586629e-06
7.364809073e-06
7.199742105e-06
7.039201665e-06
6.883013457e-06
6.731012381e-06
6.583041917e-06
6.43895367e-06
6.298606758e-06
6.16186742e-06
6.028608576e-06
5.898709371e-06
5.772054872e-06
5.648535646e-06
5.528047464e-06
5.410491003e-06
5.295771538e-06
5.183798689e-06
5.074486161e-06
4.967751498e-06
4.863515906e-06
4.761703991e-06
4.662243596e-06
4.565065615e-06
4.470103859e-06
4.377294832e-06
4.286577619e-06
4.197893773e-06
4.111187141e-06
4.026403719e-06
3.943491652e-06
3.862400962e-06
3.783083599e-06
3.705493265e-06
3.629585315e-06
3.555316706e-06
3.482645947e-06
3.411532938e-06
3.341938968e-06
3.273826636e-06
3.207159778e-06
3.14190342e-06
3.078023691e-06
3.015487838e-06
2.954264113e-06
2.894321736e-06
2.835630906e-06
2.778162688e-06
2.721889009e-06
2.666782634e-06
2.612817096e-06
2.55996672e-06
2.508206517e-06
2.457512196e-06
2.407860151e-06
2.359227421e-06
2.311591631e-06
2.264931051e-06
2.219224481e-06
2.174451276e-06
2.130591345e-06
2.087625079e-06
2.045533383e-06
2.004297638e-06
1.963899653e-06
1.924321723e-06
1.885546575e-06
1.847557287e-06
1.810337415e-06
1.773870866e-06
1.738141925e-06
1.703135252e-06
1.668835875e-06
1.635229107e-06
1.602300685e-06
1.570036589e-06
1.538423146e-06
1.507447002e-06
1.47709507e-06
1.447354569e-06
1.418212998e-06
1.389658144e-06
1.361677997e-06
1.3342609e-06
1.307395371e-06
1.281070228e-06
1.255274493e-06
1.229997409e-06
1.2052285e-06
1.180957461e-06
1.157174243e-06
1.13386897e-06
1.111032012e-06
1.088653895e-06
1.066725377e-06
1.045237405e-06
1.024181104e-06
1.003547792e-06
9.833289433e-07
9.635162353e-07
9.441015009e-07
9.250767418e-07
9.064341201e-07
8.881659856e-07
8.702648021e-07
8.527232272e-07
8.355340378e-07
8.186901584e-07
8.021846873e-07
7.860108322e-07
7.701619517e-07
7.546315345e-07
7.394131987e-07
7.245007107e-07
7.098879214e-07
6.955688647e-07
6.815376342e-07
6.6778849e-07
6.543157624e-07
6.411139406e-07
6.281775983e-07
6.155014178e-07
6.030802084e-07
5.909088458e-07
5.789823404e-07
5.672957977e-07
5.55844412e-07
5.446234844e-07
5.336283774e-07
5.228546037e-07
5.12297699e-07
5.019533297e-07
4.918172483e-07
4.818852774e-07
4.721533203e-07
4.626173782e-07
4.532735018e-07
4.441178613e-07
4.351466728e-07
4.263562282e-07
4.177428947e-07
4.093031379e-07
4.010334547e-07
3.929304187e-07
3.849907062e-07
3.772110164e-07
3.695881361e-07
3.621189047e-07
3.54800242e-07
3.476291207e-07
3.406025567e-07
3.337176598e-07
3.269715594e-07
3.203614862e-07
3.138846866e-07
3.075384804e-07
3.013202669e-07
2.952274428e-07
2.89257508e-07
2.834079908e-07
2.776765148e-07
2.720606744e-07
2.665581864e-07
2.611667723e-07
2.5588424e-07
2.507084155e-07
2.456371785e-07
2.406684567e-07
2.358002183e-07
2.310304875e-07
2.263573018e-07
2.217787621e-07
2.172929896e-07
2.128981431e-07
2.08592419e-07
2.043740387e-07
2.002412435e-07
1.961923123e-07
1.922255427e-07
1.88339229e-07
1.845316956e-07
1.808013085e-07
1.771463912e-07
1.735653074e-07
1.700564053e-07
1.666180659e-07
1.632486319e-07
1.599464611e-07
1.567099264e-07
1.535373817e-07
1.504271364e-07
1.473775692e-07
1.443869962e-07
1.414537387e-07
1.385761353e-07
1.357524881e-07
1.329811354e-07
1.302603746e-07
1.275885172e-07
1.249639085e-07
1.223848708e-07
1.198497479e-07
1.173569051e-07
1.149047203e-07
1.124916018e-07
1.101159688e-07
1.07776323e-07
1.054711381e-07
1.031989785e-07
1.009584251e-07
9.874814211e-08
9.656681077e-08
9.44132115e-08
9.228615613e-08
9.018452303e-08
8.810728877e-08
8.605346057e-08
8.402217328e-08
8.201259964e-08
8.00239747e-08
7.805568061e-08
7.610710687e-08
7.417776433e-08
7.226725112e-08
7.037525181e-08
6.850149916e-08
6.664586638e-08
6.480822739e-08
6.298862591e-08
6.118712665e-08
5.940388501e-08
5.763912996e-08
5.589317959e-08
5.416639156e-08
5.245918724e-08
5.07720486e-08
4.910553046e-08
4.746016605e-08
4.583663146e-08
4.423551425e-08
4.265756034e-08
4.110340369e-08
3.957379496e-08
3.806939618e-08
3.65909784e-08
3.513915646e-08
3.371472789e-08
3.231824671e-08
3.095051071e-08
2.961197993e-08
2.830340935e-08
2.702514943e-08
2.577794641e-08
2.456199624e-08
2.337803539e-08
2.22261046e-08
2.110691075e-08
2.002029095e-08
1.896700307e-08
1.794659274e-08
1.695985922e-08
1.600609308e-08
1.508614215e-08
1.419900695e-08
1.334565313e-08
1.252467873e-08
1.173725847e-08
1.098150956e-08
1.025888753e-08
9.566945883e-09
8.907537339e-09
8.277537497e-09
7.679370699e-09
7.109081752e-09
6.569822135e-09
6.056613821e-09
5.573582405e-09
5.114506976e-09
4.684737638e-09
4.276518342e-09
3.896852766e-09
3.536055545e-09
3.203184644e-09
2.886234178e-09
2.596816605e-09
2.320007661e-09
2.070619272e-09
1.830203856e-09
1.617420332e-09
1.409703451e-09
1.230147914e-09
1.05153102e-09
9.019138822e-10
7.490485988e-10
6.26052137e-10
4.959691081e-10
3.95985981e-10
2.864399869e-10
2.05212063e-10
1.152641034e-10
4.690621111e-11
-2.184493394e-11
-8.692942493e-11
-1.2764753e-10
-2.077461975e-10
-2.019427073e-10
-3.36192804e-10
-2.341702963e-10
-5.148418233e-10
-1.524903424e-10
-8.212880281e-10
8.567339997e-10
-5.492493657e-10
-5.492493657e-10
-0.1252930377
0.1252930377
0.0249358697
0.008358019061
0.004277996198
0.002661518848
0.00183373544
0.001346352331
0.001033884256
0.0008217036082
0.0006713866658
0.0005612496995
0.0004782320192
0.0004140850033
0.0003634104633
0.0003225757329
0.0002890792847
0.0002611635725
0.0002375708743
0.0002173853541
0.000199928814
0.0001846907287
0.0001712806108
0.0001593951524
0.0001487952768
0.0001392899161
0.0001307244002
0.0001229720438
0.0001159279705
0.0001095045209
0.0001036277933
9.823500419e-05
9.32724473e-05
8.869389789e-05
8.445934943e-05
8.053400319e-05
7.688745192e-05
7.349301432e-05
7.032718803e-05
6.736919667e-05
6.460061211e-05
6.200503791e-05
5.956784202e-05
5.727593057e-05
5.511755504e-05
5.308214757e-05
5.116017943e-05
4.934303933e-05
4.762292799e-05
4.599276698e-05
4.444611917e-05
4.297711955e-05
4.158041459e-05
4.025110912e-05
3.898471959e-05
3.777713288e-05
3.662456985e-05
3.552355318e-05
3.447087871e-05
3.346358995e-05
3.249895545e-05
3.157444848e-05
3.068772892e-05
2.983662694e-05
2.901912838e-05
2.823336169e-05
2.747758589e-05
2.675018004e-05
2.604963335e-05
2.537453657e-05
2.472357386e-05
2.409551566e-05
2.348921198e-05
2.290358644e-05
2.233763078e-05
2.179039982e-05
2.12610068e-05
2.074861925e-05
2.025245508e-05
1.9771779e-05
1.930589932e-05
1.885416482e-05
1.841596213e-05
1.799071299e-05
1.757787202e-05
1.717692448e-05
1.678738422e-05
1.640879185e-05
1.604071299e-05
1.568273665e-05
1.533447369e-05
1.499555554e-05
1.466563278e-05
1.434437406e-05
1.403146486e-05
1.372660656e-05
1.34295154e-05
1.313992155e-05
1.285756841e-05
1.258221164e-05
1.231361855e-05
1.205156736e-05
1.179584657e-05
1.154625439e-05
1.130259812e-05
1.106469367e-05
1.083236509e-05
1.060544404e-05
1.03837694e-05
1.016718693e-05
9.955548739e-06
9.748713124e-06
9.546544044e-06
9.348910983e-06
9.155688551e-06
8.966756231e-06
8.781998138e-06
8.601302763e-06
8.424562798e-06
8.251674819e-06
8.082539201e-06
7.917059848e-06
7.755144055e-06
7.596702339e-06
7.441648252e-06
7.28989831e-06
7.141371751e-06
6.995990477e-06
6.85367894e-06
6.714363966e-06
6.57797466e-06
6.444442369e-06
6.313700503e-06
6.185684509e-06
6.060331726e-06
5.93758135e-06
5.817374304e-06
5.699653243e-06
5.584362433e-06
5.471447638e-06
5.360856208e-06
5.252536863e-06
5.146439716e-06
5.042516202e-06
4.940719058e-06
4.841002211e-06
4.7433208e-06
4.647631122e-06
4.553890505e-06
4.462057435e-06
4.372091366e-06
4.283952763e-06
4.197603036e-06
4.113004537e-06
4.030120515e-06
3.94891508e-06
3.869353211e-06
3.791400664e-06
3.715024e-06
3.640190566e-06
3.566868441e-06
3.495026405e-06
3.424633991e-06
3.355661356e-06
3.288079373e-06
3.2218595e-06
3.156973898e-06
3.093395284e-06
3.031096966e-06
2.970052849e-06
2.910237411e-06
2.851625652e-06
2.794193121e-06
2.737915904e-06
2.682770551e-06
2.628734155e-06
2.575784272e-06
2.523898906e-06
2.473056589e-06
2.423236221e-06
2.374417181e-06
2.326579298e-06
2.279702789e-06
2.233768278e-06
2.188756817e-06
2.14464983e-06
2.10142911e-06
2.059076851e-06
2.017575599e-06
1.976908248e-06
1.937058075e-06
1.898008656e-06
1.859743929e-06
1.822248149e-06
1.785505907e-06
1.749502068e-06
1.714221851e-06
1.679650744e-06
1.64577454e-06
1.612579324e-06
1.580051447e-06
1.548177549e-06
1.516944521e-06
1.486339541e-06
1.45635004e-06
1.426963685e-06
1.398168421e-06
1.36995238e-06
1.342304006e-06
1.315211911e-06
1.288664962e-06
1.262652235e-06
1.237163061e-06
1.212186939e-06
1.187713597e-06
1.163732957e-06
1.140235158e-06
1.117210532e-06
1.094649578e-06
1.072543028e-06
1.050881739e-06
1.029656814e-06
1.008859484e-06
9.884811692e-07
9.685134609e-07
9.489481222e-07
9.29777056e-07
9.109923722e-07
8.925862843e-07
8.745512027e-07
8.568796342e-07
8.395643069e-07
8.225980308e-07
8.059737916e-07
7.896847196e-07
7.737240524e-07
7.580851705e-07
7.427616223e-07
7.277470434e-07
7.130352437e-07
6.986201021e-07
6.844956676e-07
6.706560976e-07
6.570956639e-07
6.438087827e-07
6.307899451e-07
6.180338074e-07
6.055351047e-07
5.932886922e-07
5.812895443e-07
5.695327408e-07
5.580134386e-07
5.467269556e-07
5.356686555e-07
5.24834022e-07
5.142186226e-07
5.03818117e-07
4.93628264e-07
4.836448637e-07
4.738638367e-07
4.642811353e-07
4.548927994e-07
4.456949244e-07
4.366836222e-07
4.278551095e-07
4.192055807e-07
4.107313196e-07
4.024285758e-07
3.94293693e-07
3.863229523e-07
3.785126806e-07
3.70859222e-07
3.633589135e-07
3.560080495e-07
3.48802959e-07
3.417399452e-07
3.348153106e-07
3.280253128e-07
3.213662272e-07
3.148343018e-07
3.08425792e-07
3.021369304e-07
2.959639506e-07
2.899030684e-07
2.839505534e-07
2.781026488e-07
2.723556267e-07
2.667058181e-07
2.611495541e-07
2.55683244e-07
2.503033437e-07
2.450063467e-07
2.397888791e-07
2.346476126e-07
2.295793483e-07
2.245809756e-07
2.196495037e-07
2.147820655e-07
2.099759194e-07
2.05228496e-07
2.005373439e-07
1.959001906e-07
1.913149214e-07
1.867795839e-07
1.822924197e-07
1.778518085e-07
1.734563251e-07
1.691047405e-07
1.647960302e-07
1.605293036e-07
1.563039184e-07
1.521193489e-07
1.479753288e-07
1.438716974e-07
1.398085416e-07
1.357860537e-07
1.318046826e-07
1.278649402e-07
1.239676035e-07
1.201134657e-07
1.163035657e-07
1.125389628e-07
1.088209514e-07
1.051507508e-07
1.015298633e-07
9.795966995e-08
9.444179296e-08
9.097767684e-08
8.756903462e-08
8.421729706e-08
8.092421647e-08
7.769117351e-08
7.45199045e-08
7.141165015e-08
6.836818374e-08
6.539048466e-08
6.248026278e-08
5.963826272e-08
5.686610422e-08
5.41642338e-08
5.153424183e-08
4.89761804e-08
4.64916262e-08
4.40801925e-08
4.174344423e-08
3.948045836e-08
3.729288021e-08
3.517917086e-08
3.314112274e-08
3.117650517e-08
2.928739906e-08
2.747072147e-08
2.57289109e-08
2.405790034e-08
2.2460715e-08
2.093206547e-08
1.947581767e-08
1.808524993e-08
1.676541942e-08
1.550779353e-08
1.431902062e-08
1.318840423e-08
1.212463498e-08
1.111430168e-08
1.016878692e-08
9.271401256e-09
8.437005104e-09
7.64480426e-09
6.914115957e-09
6.219096597e-09
5.584545908e-09
4.978443235e-09
4.432363065e-09
3.906811462e-09
3.441559233e-09
2.988254199e-09
2.596309508e-09
2.207279706e-09
1.881300695e-09
1.549090859e-09
1.281665762e-09
9.996847347e-10
7.828925084e-10
5.460311202e-10
3.705658212e-10
1.765414678e-10
2.970822573e-11
-1.18320395e-10
-2.570976778e-10
-3.44940493e-10
-5.146319835e-10
-5.034216506e-10
-7.87098098e-10
-5.721688097e-10
-1.164800978e-09
-4.005308263e-10
-1.806245838e-09
1.700999226e-09
-1.241180769e-09
-1.241180769e-09
-0.1464876053
0.1464876053
0.03831047047
0.01423404626
0.007456022602