# vtk DataFile Version 2.0
FlowField
ASCII
DATASET STRUCTURED_GRID
DIMENSIONS 400 1 200
POINTS 80000 float
0 0 0
0.08 0 0
0.16 0 0
0.24 0 0
0.32 0 0
0.4 0 0
0.48 0 0
0.56 0 0
0.64 0 0
0.72 0 0
0.8 0 0
0.88 0 0
0.96 0 0
1.04 0 0
1.12 0 0
1.2 0 0
1.28 0 0
1.36 0 0
1.44 0 0
1.52 0 0
1.6 0 0
1.68 0 0
1.76 0 0
1.84 0 0
1.92 0 0
2 0 0
2.08 0 0
2.16 0 0
2.24 0 0
2.32 0 0
2.4 0 0
2.48 0 0
2.56 0 0
2.64 0 0
2.72 0 0
2.8 0 0
2.88 0 0
2.96 0 0
3.04 0 0
3.12 0 0
3.2 0 0
3.28 0 0
3.36 0 0
3.44 0 0
3.52 0 0
3.6 0 0
3.68 0 0
3.76 0 0
3.84 0 0
3.92 0 0
4 0 0
4.08 0 0
4.16 0 0
4.24 0 0
4.32 0 0
4.4 0 0
4.48 0 0
4.56 0 0
4.64 0 0
4.72 0 0
4.8 0 0
4.88 0 0
4.96 0 0
5.04 0 0
5.12 0 0
5.2 0 0
5.28 0 0
5.36 0 0
5.44 0 0
5.52 0 0
5.6 0 0
5.68 0 0
5.76 0 0
5.84 0 0
5.92 0 0
6 0 0
6.08 0 0
6.16 0 0
6.24 0 0
6.32 0 0
6.4 0 0
6.48 0 0
6.56 0 0
6.64 0 0
6.72 0 0
6.8 0 0
6.88 0 0
6.96 0 0
7.04 0 0
7.12 0 0
7.2 0 0
7.28 0 0
7.36 0 0
7.44 0 0
7.52 0 0
7.6 0 0
7.68 0 0
7.76 0 0
7.84 0 0
7.92 0 0
8 0 0
8.08 0 0
8.16 0 0
8.24 0 0
8.32 0 0
8.4 0 0
8.48 0 0
8.56 0 0
8.64 0 0
8.72 0 0
8.8 0 0
8.88 0 0
8.96 0 0
9.04 0 0
9.12 0 0
9.2 0 0
9.28 0 0
9.36 0 0
9.44 0 0
9.52 0 0
9.6 0 0
9.68 0 0
9.76 0 0
9.84 0 0
9.92 0 0
10 0 0
10.08 0 0
10.16 0 0
10.24 0 0
10.32 0 0
10.4 0 0
10.48 0 0
10.56 0 0
10.64 0 0
10.72 0 0
10.8 0 0
10.88 0 0
10.96 0 0
11.04 0 0
11.12 0 0
11.2 0 0
11.28 0 0
11.36 0 0
11.44 0 0
11.52 0 0
11.6 0 0
11.68 0 0
11.76 0 0
11.84 0 0
11.92 0 0
12 0 0
12.08 0 0
12.16 0 0
12.24 0 0
12.32 0 0
12.4 0 0
12.48 0 0
12.56 0 0
12.64 0 0
12.72 0 0
12.8 0 0
12.88 0 0
12.96 0 0
13.04 0 0
13.12 0 0
13.2 0 0
13.28 0 0
13.36 0 0
13.44 0 0
13.52 0 0
13.6 0 0
13.68 0 0
13.76 0 0
13.84 0 0
13.92 0 0
14 0 0
14.08 0 0
14.16 0 0
14.24 0 0
14.32 0 0
14.4 0 0
14.48 0 0
14.56 0 0
14.64 0 0
14.72 0 0
14.8 0 0
14.88 0 0
14.96 0 0
15.04 0 0
15.12 0 0
15.2 0 0
15.28 0 0
15.36 0 0
15.44 0 0
15.52 0 0
15.6 0 0
15.68 0 0
15.76 0 0
15.84 0 0
15.92 0 0
16 0 0
16.08 0 0
16.16 0 0
16.24 0 0
16.32 0 0
16.4 0 0
16.48 0 0
16.56 0 0
16.64 0 0
16.72 0 0
16.8 0 0
16.88 0 0
16.96 0 0
17.04 0 0
17.12 0 0
17.2 0 0
17.28 0 0
17.36 0 0
17.44 0 0
17.52 0 0
17.6 0 0
17.68 0 0
17.76 0 0
17.84 0 0
17.92 0 0
18 0 0
18.08 0 0
18.16 0 0
18.24 0 0
18.32 0 0
18.4 0 0
18.48 0 0
18.56 0 0
18.64 0 0
18.72 0 0
18.8 0 0
18.88 0 0
18.96 0 0
19.04 0 0
19.12 0 0
19.2 0 0
19.28 0 0
19.36 0 0
19.44 0 0
19.52 0 0
19.6 0 0
19.68 0 0
19.76 0 0
19.84 0 0
19.92 0 0
20 0 0
20.08 0 0
20.16 0 0
20.24 0 0
20.32 0 0
20.4 0 0
20.48 0 0
20.56 0 0
20.64 0 0
20.72 0 0
20.8 0 0
20.88 0 0
20.96 0 0
21.04 0 0
21.12 0 0
21.2 0 0
21.28 0 0
21.36 0 0
21.44 0 0
21.52 0 0
21.6 0 0
21.68 0 0
21.76 0 0
21.84 0 0
21.92 0 0
22 0 0
22.08 0 0
22.16 0 0
22.24 0 0
22.32 0 0
22.4 0 0
22.48 0 0
22.56 0 0
22.64 0 0
22.72 0 0
22.8 0 0
22.88 0 0
22.96 0 0
23.04 0 0
23.12 0 0
23.2 0 0
23.28 0 0
23.36 0 0
23.44 0 0
23.52 0 0
23.6 0 0
23.68 0 0
23.76 0 0
23.84 0 0
23.92 0 0
24 0 0
24.08 0 0
24.16 0 0
24.24 0 0
24.32 0 0
24.4 0 0
24.48 0 0
24.56 0 0
24.64 0 0
24.72 0 0
24.8 0 0
24.88 0 0
24.96 0 0
25.04 0 0
25.12 0 0
25.2 0 0
25.28 0 0
25.36 0 0
25.44 0 0
25.52 0 0
25.6 0 0
25.68 0 0
25.76 0 0
25.84 0 0
25.92 0 0
26 0 0
26.08 0 0
26.16 0 0
26.24 0 0
26.32 0 0
26.4 0 0
26.48 0 0
26.56 0 0
26.64 0 0
26.72 0 0
26.8 0 0
26.88 0 0
26.96 0 0
27.04 0 0
27.12 0 0
27.2 0 0
27.28 0 0
27.36 0 0
27.44 0 0
27.52 0 0
27.6 0 0
27.68 0 0
27.76 0 0
27.84 0 0
27.92 0 0
28 0 0
28.08 0 0
28.16 0 0
28.24 0 0
28.32 0 0
28.4 0 0
28.48 0 0
28.56 0 0
28.64 0 0
28.72 0 0
28.8 0 0
28.88 0 0
28.96 0 0
29.04 0 0
29.12 0 0
29.2 0 0
29.28 0 0
29.36 0 0
29.44 0 0
29.52 0 0
29.6 0 0
29.68 0 0
29.76 0 0
29.84 0 0
29.92 0 0
30 0 0
30.08 0 0
30.16 0 0
30.24 0 0
30.32 0 0
30.4 0 0
30.48 0 0
30.56 0 0
30.64 0 0
30.72 0 0
30.8 0 0
30.88 0 0
30.96 0 0
31.04 0 0
31.12 0 0
31.2 0 0
31.28 0 0
31.36 0 0
31.44 0 0
31.52 0 0
31.6 0 0
31.68 0 0
31.76 0 0
31.84 0 0
31.92 0 0
0 0.005 0
0.08 0.005 0
0.16 0.005 0
0.24 0.005 0
0.32 0.005 0
0.4 0.005 0
0.48 0.005 0
0.56 0.005 0
0.64 0.005 0
0.72 0.005 0
0.8 0.005 0
0.88 0.005 0
0.96 0.005 0
1.04 0.005 0
1.12 0.005 0
1.2 0.005 0
1.28 0.005 0
1.36 0.005 0
1.44 0.005 0
1.52 0.005 0
1.6 0.005 0
1.68 0.005 0
1.76 0.005 0
1.84 0.005 0
1.92 0.005 0
2 0.005 0
2.08 0.005 0
2.16 0.005 0
2.24 0.005 0
2.32 0.005 0
2.4 0.005 0
2.48 0.005 0
2.56 0.005 0
2.64 0.005 0
2.72 0.005 0
2.8 0.005 0
2.88 0.005 0
2.96 0.005 0
3.04 0.005 0
3.12 0.005 0
3.2 0.005 0
3.28 0.005 0
3.36 0.005 0
3.44 0.005 0
3.52 0.005 0
3.6 0.005 0
3.68 0.005 0
3.76 0.005 0
3.84 0.005 0
3.92 0.005 0
4 0.005 0
4.08 0.005 0
4.16 0.005 0
4.24 0.005 0
4.32 0.005 0
4.4 0.005 0
4.48 0.005 0
4.56 0.005 0
4.64 0.005 0
4.72 0.005 0
4.8 0.005 0
4.88 0.005 0
4.96 0.005 0
5.04 0.005 0
5.12 0.005 0
5.2 0.005 0
5.28 0.005 0
5.36 0.005 0
5.44 0.005 0
5.52 0.005 0
5.6 0.005 0
5.68 0.005 0
5.76 0.005 0
5.84 0.005 0
5.92 0.005 0
6 0.005 0
6.08 0.005 0
6.16 0.005 0
6.24 0.005 0
6.32 0.005 0
6.4 0.005 0
6.48 0.005 0
6.56 0.005 0
6.64 0.005 0
6.72 0.005 0
6.8 0.005 0
6.88 0.005 0
6.96 0.005 0
7.04 0.005 0
7.12 0.005 0
7.2 0.005 0
7.28 0.005 0
7.36 0.005 0
7.44 0.005 0
7.52 0.005 0
7.6 0.005 0
7.68 0.005 0
7.76 0.005 0
7.84 0.005 0
7.92 0.005 0
8 0.005 0
8.08 0.005 0
8.16 0.005 0
8.24 0.005 0
8.32 0.005 0
8.4 0.005 0
8.48 0.005 0
8.56 0.005 0
8.64 0.005 0
8.72 0.005 0
8.8 0.005 0
8.88 0.005 0
8.96 0.005 0
9.04 0.005 0
9.12 0.005 0
9.2 0.005 0
9.28 0.005 0
9.36 0.005 0
9.44 0.005 0
9.52 0.005 0
9.6 0.005 0
9.68 0.005 0
9.76 0.005 0
9.84 0.005 0
9.92 0.005 0
10 0.005 0
10.08 0.005 0
10.16 0.005 0
10.24 0.005 0
10.32 0.005 0
10.4 0.005 0
10.48 0.005 0
10.56 0.005 0
10.64 0.005 0
10.72 0.005 0
10.8 0.005 0
10.88 0.005 0
10.96 0.005 0
11.04 0.005 0
11.12 0.005 0
11.2 0.005 0
11.28 0.005 0
11.36 0.005 0
11.44 0.005 0
11.52 0.005 0
11.6 0.005 0
11.68 0.005 0
11.76 0.005 0
11.84 0.005 0
11.92 0.005 0
12 0.005 0
12.08 0.005 0
12.16 0.005 0
12.24 0.005 0
12.32 0.005 0
12.4 0.005 0
12.48 0.005 0
12.56 0.005 0
12.64 0.005 0
12.72 0.005 0
12.8 0.005 0
12.88 0.005 0
12.96 0.005 0
13.04 0.005 0
13.12 0.005 0
13.2 0.005 0
13.28 0.005 0
13.36 0.005 0
13.44 0.005 0
13.52 0.005 0
13.6 0.005 0
13.68 0.005 0
13.76 0.005 0
13.84 0.005 0
13.92 0.005 0
14 0.005 0
14.08 0.005 0
14.16 0.005 0
14.24 0.005 0
14.32 0.005 0
14.4 0.005 0
14.48 0.005 0
14.56 0.005 0
14.64 0.005 0
14.72 0.005 0
14.8 0.005 0
14.88 0.005 0
14.96 0.005 0
15.04 0.005 0
15.12 0.005 0
15.2 0.005 0
15.28 0.005 0
15.36 0.005 0
15.44 0.005 0
15.52 0.005 0
15.6 0.005 0
15.68 0.005 0
15.76 0.005 0
15.84 0.005 0
15.92 0.005 0
16 0.005 0
16.08 0.005 0
16.16 0.005 0
16.24 0.005 0
16.32 0.005 0
16.4 0.005 0
16.48 0.005 0
16.56 0.005 0
16.64 0.005 0
16.72 0.005 0
16.8 0.005 0
16.88 0.005 0
16.96 0.005 0
17.04 0.005 0
17.12 0.005 0
17.2 0.005 0
17.28 0.005 0
17.36 0.005 0
17.44 0.005 0
17.52 0.005 0
17.6 0.005 0
17.68 0.005 0
17.76 0.005 0
17.84 0.005 0
17.92 0.005 0
18 0.005 0
18.08 0.005 0
18.16 0.005 0
18.24 0.005 0
18.32 0.005 0
18.4 0.005 0
18.48 0.005 0
18.56 0.005 0
18.64 0.005 0
18.72 0.005 0
18.8 0.005 0
18.88 0.005 0
18.96 0.005 0
19.04 0.005 0
19.12 0.005 0
19.2 0.005 0
19.28 0.005 0
19.36 0.005 0
19.44 0.005 0
19.52 0.005 0
19.6 0.005 0
19.68 0.005 0
19.76 0.005 0
19.84 0.005 0
19.92 0.005 0
20 0.005 0
20.08 0.005 0
20.16 0.005 0
20.24 0.005 0
20.32 0.005 0
20.4 0.005 0
20.48 0.005 0
20.56 0.005 0
20.64 0.005 0
20.72 0.005 0
20.8 0.005 0
20.88 0.005 0
20.96 0.005 0
21.04 0.005 0
21.12 0.005 0
21.2 0.005 0
21.28 0.005 0
21.36 0.005 0
21.44 0.005 0
21.52 0.005 0
21.6 0.005 0
21.68 0.005 0
21.76 0.005 0
21.84 0.005 0
21.92 0.005 0
22 0.005 0
22.08 0.005 0
22.16 0.005 0
22.24 0.005 0
22.32 0.005 0
22.4 0.005 0
22.48 0.005 0
22.56 0.005 0
22.64 0.005 0
22.72 0.005 0
22.8 0.005 0
22.88 0.005 0
22.96 0.005 0
23.04 0.005 0
23.12 0.005 0
23.2 0.005 0
23.28 0.005 0
23.36 0.005 0
23.44 0.005 0
23.52 0.005 0
23.6 0.005 0
23.68 0.005 0
23.76 0.005 0
23.84 0.005 0
23.92 0.005 0
24 0.005 0
24.08 0.005 0
24.16 0.005 0
24.24 0.005 0
24.32 0.005 0
24.4 0.005 0
24.48 0.005 0
24.56 0.005 0
24.64 0.005 0
24.72 0.005 0
24.8 0.005 0
24.88 0.005 0
24.96 0.005 0
25.04 0.005 0
25.12 0.005 0
25.2 0.005 0
25.28 0.005 0
25.36 0.005 0
25.44 0.005 0
25.52 0.005 0
25.6 0.005 0
25.68 0.005 0
25.76 0.005 0
25.84 0.005 0
25.92 0.005 0
26 0.005 0
26.08 0.005 0
26.16 0.005 0
26.24 0.005 0
26.32 0.005 0
26.4 0.005 0
26.48 0.005 0
26.56 0.005 0
26.64 0.005 0
26.72 0.005 0
26.8 0.005 0
26.88 0.005 0
26.96 0.005 0
27.04 0.005 0
27.12 0.005 0
27.2 0.005 0
27.28 0.005 0
27.36 0.005 0
27.44 0.005 0
27.52 0.005 0
27.6 0.005 0
27.68 0.005 0
27.76 0.005 0
27.84 0.005 0
27.92 0.005 0
28 0.005 0
28.08 0.005 0
28.16 0.005 0
28.24 0.005 0
28.32 0.005 0
28.4 0.005 0
28.48 0.005 0
28.56 0.005 0
28.64 0.005 0
28.72 0.005 0
28.8 0.005 0
28.88 0.005 0
28.96 0.005 0
29.04 0.005 0
29.12 0.005 0
29.2 0.005 0
29.28 0.005 0
29.36 0.005 0
29.44 0.005 0
29.52 0.005 0
29.6 0.005 0
29.68 0.005 0
29.76 0.005 0
29.84 0.005 0
29.92 0.005 0
30 0.005 0
30.08 0.005 0
30.16 0.005 0
30.24 0.005 0
30.32 0.005 0
30.4 0.005 0
30.48 0.005 0
30.56 0.005 0
30.64 0.005 0
30.72 0.005 0
30.8 0.005 0
30.88 0.005 0
30.96 0.005 0
31.04 0.005 0
31.12 0.005 0
31.2 0.005 0
31.28 0.005 0
31.36 0.005 0
31.44 0.005 0
31.52 0.005 0
31.6 0.005 0
31.68 0.005 0
31.76 0.005 0
31.84 0.005 0
31.92 0.005 0
0 0.01 0
0.08 0.01 0
0.16 0.01 0
0.24 0.01 0
0.32 0.01 0
0.4 0.01 0
0.48 0.01 0
0.56 0.01 0
0.64 0.01 0
0.72 0.01 0
0.8 0.01 0
0.88 0.01 0
0.96 0.01 0
1.04 0.01 0
1.12 0.01 0
1.2 0.01 0
1.28 0.01 0
1.36 0.01 0
1.44 0.01 0
1.52 0.01 0
1.6 0.01 0
1.68 0.01 0
1.76 0.01 0
1.84 0.01 0
1.92 0.01 0
2 0.01 0
2.08 0.01 0
2.16 0.01 0
2.24 0.01 0
2.32 0.01 0
2.4 0.01 0
2.48 0.01 0
2.56 0.01 0
2.64 0.01 0
2.72 0.01 0
2.8 0.01 0
2.88 0.01 0
2.96 0.01 0
3.04 0.01 0
3.12 0.01 0
3.2 0.01 0
3.28 0.01 0
3.36 0.01 0
3.44 0.01 0
3.52 0.01 0
3.6 0.01 0
3.68 0.01 0
3.76 0.01 0
3.84 0.01 0
3.92 0.01 0
4 0.01 0
4.08 0.01 0
4.16 0.01 0
4.24 0.01 0
4.32 0.01 0
4.4 0.01 0
4.48 0.01 0
4.56 0.01 0
4.64 0.01 0
4.72 0.01 0
4.8 0.01 0
4.88 0.01 0
4.96 0.01 0
5.04 0.01 0
5.12 0.01 0
[...]
POINT_DATA 80000

SCALARS p float 1
LOOKUP_TABLE default
1
56.54470911
56.24297409
56.20181431
56.18172434
56.16730541
56.15530445
56.14456103
56.1345629
56.1250573
56.11591099
56.10705027
56.09843234
56.09003083
56.08182806
56.07381102
56.06596915
56.05829324
56.05077486
56.04340607
56.03617934
56.0290875
56.0221237
56.01528147
56.00855469
56.00193758
55.99542471
55.98901101
55.98269171
55.97646236
55.97031879
55.96425712
55.95827371
55.95236514
55.94652824
55.94076003
55.93505769
55.92941862
55.92384033
55.91832051
55.91285697
55.90744766
55.90209062
55.89678403
55.89152613
55.8863153
55.88114996
55.87602864
55.87094994
55.86591251
55.8609151
55.85595647
55.85103549
55.84615105
55.8413021
55.83648762
55.83170667
55.8269583
55.82224166
55.81755587
55.81290014
55.80827368
55.80367574
55.7991056
55.79456255
55.79004594
55.78555511
55.78108945
55.77664834
55.77223122
55.76783751
55.76346668
55.75911821
55.75479157
55.75048628
55.74620187
55.74193786
55.73769382
55.7334693
55.72926389
55.72507716
55.72090872
55.71675819
55.71262518
55.70850933
55.70441027
55.70032767
55.69626117
55.69221046
55.68817519
55.68415507
55.68014978
55.67615902
55.67218251
55.66821994
55.66427105
55.66033557
55.65641322
55.65250374
55.64860688
55.64472239
55.64085003
55.63698956
55.63314074
55.62930335
55.62547716
55.62166196
55.61785752
55.61406365
55.61028013
55.60650676
55.60274335
55.5989897
55.59524563
55.59151094
55.58778546
55.58406901
55.58036142
55.5766625
55.5729721
55.56929005
55.56561619
55.56195036
55.55829241
55.55464218
55.55099952
55.54736429
55.54373635
55.54011555
55.53650175
55.53289483
55.52929464
55.52570106
55.52211396
55.51853321
55.5149587
55.51139029
55.50782788
55.50427134
55.50072057
55.49717544
55.49363586
55.49010171
55.48657289
55.48304929
55.47953081
55.47601736
55.47250883
55.46900514
55.46550617
55.46201186
55.45852209
55.45503679
55.45155586
55.44807923
55.44460681
55.44113851
55.43767425
55.43421396
55.43075756
55.42730497
55.42385612
55.42041093
55.41696934
55.41353126
55.41009664
55.40666541
55.40323749
55.39981282
55.39639135
55.392973
55.38955771
55.38614543
55.3827361
55.37932965
55.37592604
55.37252519
55.36912707
55.36573161
55.36233877
55.35894849
55.35556071
55.3521754
55.34879251
55.34541197
55.34203376
55.33865781
55.3352841
55.33191256
55.32854317
55.32517587
55.32181063
55.3184474
55.31508615
55.31172683
55.30836941
55.30501385
55.30166011
55.29830815
55.29495795
55.29160946
55.28826265
55.28491749
55.28157394
55.27823198
55.27489156
55.27155267
55.26821527
55.26487933
55.26154483
55.25821172
55.25488
55.25154963
55.24822058
55.24489283
55.24156635
55.23824113
55.23491714
55.23159435
55.22827274
55.2249523
55.22163299
55.21831481
55.21499774
55.21168174
55.20836681
55.20505294
55.20174009
55.19842826
55.19511743
55.19180758
55.18849871
55.18519079
55.18188382
55.17857777
55.17527264
55.17196842
55.16866508
55.16536263
55.16206104
55.15876031
55.15546043
55.15216137
55.14886315
55.14556573
55.14226911
55.13897328
55.13567824
55.13238395
55.12909043
55.12579765
55.1225056
55.11921427
55.11592366
55.11263374
55.10934451
55.10605595
55.10276805
55.09948081
55.09619419
55.0929082
55.08962282
55.08633804
55.08305384
55.0797702
55.07648712
55.07320458
55.06992257
55.06664107
55.06336006
55.06007954
55.05679948
55.05351987
55.05024071
55.04696196
55.04368363
55.04040569
55.03712812
55.03385092
55.03057408
55.02729756
55.02402137
55.02074548
55.01746989
55.01419457
55.01091952
55.00764473
55.00437017
55.00109584
54.99782172
54.99454781
54.99127409
54.98800055
54.98472717
54.98145396
54.97818089
54.97490796
54.97163516
54.96836248
54.9650899
54.96181743
54.95854506
54.95527277
54.95200056
54.94872843
54.94545636
54.94218435
54.9389124
54.93564049
54.93236864
54.92909682
54.92582504
54.92255329
54.91928157
54.91600987
54.9127382
54.90946654
54.90619491
54.90292329
54.89965168
54.89638008
54.89310849
54.88983691
54.88656533
54.88329376
54.8800222
54.87675063
54.87347907
54.87020752
54.86693596
54.8636644
54.86039285
54.85712129
54.85384974
54.85057818
54.84730662
54.84403506
54.8407635
54.83749194
54.83422038
54.83094882
54.82767725
54.82440569
54.82113412
54.81786255
54.81459098
54.81131941
54.80804784
54.80477626
54.80150469
54.79823311
54.79496153
54.79168995
54.78841836
54.78514678
54.78187519
54.77860361
54.77533202
54.77206043
54.76878884
54.76551724
54.76224565
54.75897405
54.75570245
54.75243085
54.74915925
54.74588765
54.74261604
54.73934444
54.73607283
54.73280122
54.72952961
54.726258
54.72298638
54.71971477
54.71644315
54.71317153
54.70989991
54.70662829
54.70335667
54.70008504
54.69681341
54.69354179
54.69027016
54.68699852
54.68372689
54.68045526
54.67718362
54.67391198
54.67064034
54.6673687
54.66409706
54.66082542
54.65755377
54.65428212
54.65101047
54.64773883
54.64446716
54.64119558
0.5
56.54470911
56.54470911
56.24297409
56.20181431
56.18172434
56.16730541
56.15530445
56.14456103
56.1345629
56.1250573
56.11591099
56.10705027
56.09843234
56.09003083
56.08182806
56.07381102
56.06596915
56.05829324
56.05077486
56.04340607
56.03617934
56.0290875
56.0221237
56.01528147
56.00855469
56.00193758
55.99542471
55.98901101
55.98269171
55.97646236
55.97031879
55.96425712
55.95827371
55.95236514
55.94652824
55.94076003
55.93505769
55.92941862
55.92384033
55.91832051
55.91285697
55.90744766
55.90209062
55.89678403
55.89152613
55.8863153
55.88114996
55.87602864
55.87094994
55.86591251
55.8609151
55.85595647
55.85103549
55.84615105
55.8413021
55.83648762
55.83170667
55.8269583
55.82224166
55.81755587
55.81290014
55.80827368
55.80367574
55.7991056
55.79456255
55.79004594
55.78555511
55.78108945
55.77664834
55.77223122
55.76783751
55.76346668
55.75911821
55.75479157
55.75048628
55.74620187
55.74193786
55.73769382
55.7334693
55.72926389
55.72507716
55.72090872
55.71675819
55.71262518
55.70850933
55.70441027
55.70032767
55.69626117
55.69221046
55.68817519
55.68415507
55.68014978
55.67615902
55.67218251
55.66821994
55.66427105
55.66033557
55.65641322
55.65250374
55.64860688
55.64472239
55.64085003
55.63698956
55.63314074
55.62930335
55.62547716
55.62166196
55.61785752
55.61406365
55.61028013
55.60650676
55.60274335
55.5989897
55.59524563
55.59151094
55.58778546
55.58406901
55.58036142
55.5766625
55.5729721
55.56929005
55.56561619
55.56195036
55.55829241
55.55464218
55.55099952
55.54736429
55.54373635
55.54011555
55.53650175
55.53289483
55.52929464
55.52570106
55.52211396
55.51853321
55.5149587
55.51139029
55.50782788
55.50427134
55.50072057
55.49717544
55.49363586
55.49010171
55.48657289
55.48304929
55.47953081
55.47601736
55.47250883
55.46900514
55.46550617
55.46201186
55.45852209
55.45503679
55.45155586
55.44807923
55.44460681
55.44113851
55.43767425
55.43421396
55.43075756
55.42730497
55.42385612
55.42041093
55.41696934
55.41353126
55.41009664
55.40666541
55.40323749
55.39981282
55.39639135
55.392973
55.38955771
55.38614543
55.3827361
55.37932965
55.37592604
55.37252519
55.36912707
55.36573161
55.36233877
55.35894849
55.35556071
55.3521754
55.34879251
55.34541197
55.34203376
55.33865781
55.3352841
55.33191256
55.32854317
55.32517587
55.32181063
55.3184474
55.31508615
55.31172683
55.30836941
55.30501385
55.30166011
55.29830815
55.29495795
55.29160946
55.28826265
55.28491749
55.28157394
55.27823198
55.27489156
55.27155267
55.26821527
55.26487933
55.26154483
55.25821172
55.25488
55.25154963
55.24822058
55.24489283
55.24156635
55.23824113
55.23491714
55.23159435
55.22827274
55.2249523
55.22163299
55.21831481
55.21499774
55.21168174
55.20836681
55.20505294
55.20174009
55.19842826
55.19511743
55.19180758
55.18849871
55.18519079
55.18188382
55.17857777
55.17527264
55.17196842
55.16866508
55.16536263
55.16206104
55.15876031
55.15546043
55.15216137
55.14886315
55.14556573
55.14226911
55.13897328
55.13567824
55.13238395
55.12909043
55.12579765
55.1225056
55.11921427
55.11592366
55.11263374
55.10934451
55.10605595
55.10276805
55.09948081
55.09619419
55.0929082
55.08962282
55.08633804
55.08305384
55.0797702
55.07648712
55.07320458
55.06992257
55.06664107
55.06336006
55.06007954
55.05679948
55.05351987
55.05024071
55.04696196
55.04368363
55.04040569
55.03712812
55.03385092
55.03057408
55.02729756
55.02402137
55.02074548
55.01746989
55.01419457
55.01091952
55.00764473
55.00437017
55.00109584
54.99782172
54.99454781
54.99127409
54.98800055
54.98472717
54.98145396
54.97818089
54.97490796
54.97163516
54.96836248
54.9650899
54.96181743
54.95854506
54.95527277
54.95200056
54.94872843
54.94545636
54.94218435
54.9389124
54.93564049
54.93236864
54.92909682
54.92582504
54.92255329
54.91928157
54.91600987
54.9127382
54.90946654
54.90619491
54.90292329
54.89965168
54.89638008
54.89310849
54.88983691
54.88656533
54.88329376
54.8800222
54.87675063
54.87347907
54.87020752
54.86693596
54.8636644
54.86039285
54.85712129
54.85384974
54.85057818
54.84730662
54.84403506
54.8407635
54.83749194
54.83422038
54.83094882
54.82767725
54.82440569
54.82113412
54.81786255
54.81459098
54.81131941
54.80804784
54.80477626
54.80150469
54.79823311
54.79496153
54.79168995
54.78841836
54.78514678
54.78187519
54.77860361
54.77533202
54.77206043
54.76878884
54.76551724
54.76224565
54.75897405
54.75570245
54.75243085
54.74915925
54.74588765
54.74261604
54.73934444
54.73607283
54.73280122
54.72952961
54.726258
54.72298638
54.71971477
54.71644315
54.71317153
54.70989991
54.70662829
54.70335667
54.70008504
54.69681341
54.69354179
54.69027016
54.68699852
54.68372689
54.68045526
54.67718362
54.67391198
54.67064034
54.6673687
54.66409706
54.66082542
54.65755377
54.65428212
54.65101047
54.64773883
54.64446716
54.64119558
54.64119558
56.53012737
56.53012737
56.24680997
56.20306973
56.18235958
56.16769992
56.15557614
56.14476048
56.13471604
56.125179
56.11601042
56.10713337
56.09850314
56.09009212
56.08188185
56.07385875
56.06601192
56.05833188
56.05081
56.04343822
56.03620891
56.02911481
56.02214903
56.01530504
56.00857669
56.00195817
55.99544404
55.98902919
55.98270885
55.97647855
55.97033411
55.96427164
55.95828749
55.95237825
55.94654073
55.94077193
55.93506906
55.92942948
55.92385073
55.91833047
55.91286652
55.90745682
55.90209943
55.89679249
55.89153428
55.88632314
55.88115752
55.87603593
55.87095698
55.86591931
55.86092166
55.85596282
55.85104164
55.846157
55.84130786
55.8364932
55.83171208
55.82696355
55.82224675
55.81756082
55.81290494
55.80827835
55.80368027
55.79911
55.79456684
55.79005011
55.78555917
55.7810934
55.77665219
55.77223497
55.76784117
55.76347024
55.75912168
55.75479495
55.75048958
55.74620509
55.74194101
55.73769689
55.73347229
55.72926681
55.72508001
55.72091151
55.71676091
55.71262784
55.70851193
55.70441281
55.70033015
55.6962636
55.69221283
55.68817751
55.68415734
55.680152
55.67616119
55.67218463
55.66822202
55.66427308
55.66033755
55.65641516
55.65250564
55.64860874
55.64472421
55.64085181
55.6369913
55.63314245
55.62930502
55.6254788
55.62166356
55.61785909
55.61406518
55.61028163
55.60650823
55.60274479
55.59899111
55.59524701
55.5915123
55.58778679
55.58407031
55.58036269
55.57666375
55.57297332
55.56929125
55.56561736
55.56195151
55.55829353
55.55464328
55.5510006
55.54736535
55.54373738
55.54011656
55.53650274
55.5328958
55.52929559
55.52570199
55.52211487
55.51853411
55.51495957
55.51139115
55.50782872
55.50427217
55.50072138
55.49717623
55.49363664
55.49010247
55.48657363
55.48305002
55.47953153
55.47601806
55.47250952
55.46900581
55.46550683
55.4620125
55.45852272
55.45503741
55.45155647
55.44807983
55.44460739
55.44113908
55.43767481
55.43421451
55.4307581
55.4273055
55.42385664
55.42041144
55.41696983
55.41353175
55.41009712
55.40666587
55.40323795
55.39981327
55.39639179
55.39297343
55.38955814
55.38614585
55.3827365
55.37933005
55.37592642
55.37252557
55.36912744
55.36573198
55.36233913
55.35894884
55.35556106
55.35217574
55.34879284
55.3454123
55.34203407
55.33865812
55.3352844
55.33191286
55.32854346
55.32517616
55.32181091
55.31844768
55.31508642
55.3117271
55.30836967
55.3050141
55.30166035
55.29830839
55.29495818
55.29160969
55.28826288
55.28491771
55.28157416
55.27823219
55.27489177
55.27155288
55.26821547
55.26487953
55.26154502
55.25821191
55.25488019
55.25154981
55.24822076
55.244893
55.24156653
55.2382413
55.2349173
55.23159451
55.2282729
55.22495245
55.22163315
55.21831496
55.21499788
55.21168188
55.20836695
55.20505307
55.20174022
55.19842839
55.19511756
55.19180771
55.18849883
55.18519091
55.18188393
55.17857789
55.17527275
55.17196853
55.16866519
55.16536273
55.16206114
55.15876041
55.15546052
55.15216147
55.14886324
55.14556582
55.1422692
55.13897337
55.13567832
55.13238403
55.1290905
55.12579772
55.12250567
55.11921434
55.11592373
55.11263381
55.10934457
55.10605601
55.10276811
55.09948086
55.09619425
55.09290826
55.08962287
55.08633809
55.08305388
55.07977025
55.07648717
55.07320462
55.06992261
55.0666411
55.06336009
55.06007957
55.05679951
55.0535199
55.05024074
55.04696199
55.04368365
55.04040571
55.03712815
55.03385095
55.0305741
55.02729758
55.02402139
55.0207455
55.0174699
55.01419459
55.01091954
55.00764474
55.00437018
55.00109585
54.99782173
54.99454782
54.9912741
54.98800056
54.98472718
54.98145396
54.9781809
54.97490797
54.97163516
54.96836248
54.96508991
54.96181744
54.95854506
54.95527277
54.95200056
54.94872843
54.94545636
54.94218435
54.9389124
54.9356405
54.93236864
54.92909682
54.92582504
54.92255329
54.91928157
54.91600987
54.9127382
54.90946654
54.90619491
54.90292329
54.89965168
54.89638008
54.89310849
54.88983691
54.88656533
54.88329376
54.8800222
54.87675063
54.87347907
54.87020752
54.86693596
54.8636644
54.86039285
54.85712129
54.85384973
54.85057818
54.84730662
54.84403506
54.8407635
54.83749194
54.83422038
54.83094882
54.82767725
54.82440569
54.82113412
54.81786255
54.81459098
54.81131941
54.80804784
54.80477626
54.80150468
54.79823311
54.79496153
54.79168995
54.78841836
54.78514678
54.78187519
54.77860361
54.77533202
54.77206043
54.76878884
54.76551724
54.76224565
54.75897405
54.75570245
54.75243085
54.74915925
54.74588765
54.74261604
54.73934444
54.73607283
54.73280122
54.72952961
54.726258
54.72298638
54.71971477
54.71644315
54.71317153
54.70989991
54.70662829
54.70335667
54.70008504
54.69681341
54.69354178
54.69027016
54.68699852
54.68372689
54.68045526
54.67718362
54.67391198
54.67064034
54.6673687
54.66409706
54.66082542
54.65755377
54.65428212
54.65101047
54.64773883
54.64446716
54.64119558
54.64119558
56.51414278
56.51414278
56.2499984
56.20425691
56.18297558
56.16808619
56.15584357
56.14495741
56.13486752
56.12529948
56.11610885
56.10721561
56.09857316
56.09015269
56.08193495
56.07390584
56.06605407
56.05836992
56.05084458
56.04346984
56.03623797
56.02914163
56.02217389
56.01532817
56.00859827
56.00197836
55.99546298
55.98904701
55.98272564
55.9764944
55.97034912
55.96428586
55.95830099
55.95239109
55.94655295
55.94078358
55.93508018
55.92944011
55.92386089
55.91834021
55.91287586
55.90746579
55.90210803
55.89680077
55.89154224
55.88633081
55.88116491
55.87604306
55.87096386
55.86592595
55.86092808
55.85596903
55.85104764
55.84616281
55.84131348
55.83649866
55.83171736
55.82696868
55.82225172
55.81756565
55.81290963
55.8082829
55.8036847
55.79911431
55.79457103
55.79005418
55.78556313
55.78109726
55.77665595
55.77223863
55.76784473
55.76347372
55.75912506
55.75479825
55.7504928
55.74620823
55.74194407
55.73769988
55.73347521
55.72926965
55.72508279
55.72091422
55.71676356
55.71263043
55.70851446
55.70441529
55.70033257
55.69626596
55.69221514
55.68817977
55.68415954
55.68015416
55.6761633
55.67218669
55.66822404
55.66427506
55.66033948
55.65641705
55.65250749
55.64861055
55.64472598
55.64085355
55.636993
55.63314411
55.62930665
55.62548039
55.62166511
55.61786061
55.61406667
55.61028309
55.60650966
55.60274619
55.59899249
55.59524835
55.59151361
55.58778808
55.58407157
55.58036392
55.57666496
55.57297451
55.56929241
55.5656185
55.56195262
55.55829462
55.55464435
55.55100165
55.54736637
55.54373839
55.54011755
55.53650371
55.53289675
55.52929652
55.5257029
55.52211576
55.51853498
55.51496043
55.51139199
55.50782954
55.50427297
55.50072216
55.49717701
55.49363739
55.49010321
55.48657436
55.48305073
55.47953222
55.47601874
55.47251019
55.46900646
55.46550747
55.46201313
55.45852334
55.45503801
55.45155706
55.4480804
55.44460796
55.44113963
55.43767536
55.43421504
55.43075862
55.42730601
55.42385714
55.42041193
55.41697031
55.41353222
55.41009758
55.40666633
55.40323839
55.39981371
55.39639221
55.39297385
55.38955855
55.38614625
55.3827369
55.37933043
55.3759268
55.37252594
55.3691278
55.36573233
55.36233947
55.35894918
55.35556139
55.35217607
55.34879316
55.34541261
55.34203438
55.33865843
55.3352847
55.33191315
55.32854375
55.32517644
55.32181118
55.31844794
55.31508668
55.31172735
55.30836992
55.30501435
55.3016606
55.29830863
55.29495842
55.29160992
55.2882631
55.28491793
55.28157437
55.2782324
55.27489198
55.27155308
55.26821567
55.26487972
55.26154521
55.2582121
55.25488037
55.25154999
55.24822093
55.24489317
55.24156669
55.23824146
55.23491746
55.23159466
55.22827305
55.2249526
55.22163329
55.21831511
55.21499802
55.21168202
55.20836709
55.20505321
55.20174035
55.19842852
55.19511768
55.19180783
55.18849895
55.18519103
55.18188405
55.178578
55.17527286
55.17196863
55.16866529
55.16536283
55.16206124
55.15876051
55.15546062
55.15216156
55.14886333
55.1455659
55.14226928
55.13897345
55.1356784
55.13238411
55.12909058
55.12579779
55.12250574
55.11921441
55.11592379
55.11263387
55.10934463
55.10605607
55.10276817
55.09948092
55.0961943
55.09290831
55.08962292
55.08633813
55.08305393
55.07977029
55.07648721
55.07320466
55.06992264
55.06664114
55.06336013
55.0600796
55.05679954
55.05351993
55.05024076
55.04696202
55.04368368
55.04040574
55.03712817
55.03385097
55.03057412
55.0272976
55.0240214
55.02074551
55.01746992
55.0141946
55.01091955
55.00764475
55.00437019
55.00109586
54.99782174
54.99454783
54.99127411
54.98800056
54.98472719
54.98145397
54.9781809
54.97490797
54.97163517
54.96836248
54.96508991
54.96181744
54.95854506
54.95527278
54.95200057
54.94872843
54.94545636
54.94218435
54.9389124
54.9356405
54.93236864
54.92909682
54.92582504
54.92255329
54.91928157
54.91600987
54.9127382
54.90946654
54.90619491
54.90292329
54.89965168
54.89638008
54.89310849
54.88983691
54.88656533
54.88329376
54.8800222
54.87675063
54.87347907
54.87020752
54.86693596
54.8636644
54.86039285
54.85712129
54.85384973
54.85057818
54.84730662
54.84403506
54.8407635
54.83749194
54.83422038
54.83094882
54.82767725
54.82440569
54.82113412
54.81786255
54.81459098
54.81131941
54.80804784
54.80477626
54.80150468
54.79823311
54.79496153
54.79168995
54.78841836
54.78514678
54.78187519
54.77860361
54.77533202
54.77206043
54.76878883
54.76551724
54.76224565
54.75897405
54.75570245
54.75243085
54.74915925
54.74588765
54.74261604
54.73934444
54.73607283
54.73280122
54.72952961
54.726258
54.72298638
54.71971477
54.71644315
54.71317153
54.70989991
54.70662829
54.70335666
54.70008504
54.69681341
54.69354178
54.69027015
54.68699852
54.68372689
54.68045526
54.67718362
54.67391198
54.67064034
54.6673687
54.66409706
54.66082541
54.65755377
54.65428212
54.65101047
54.64773882
54.64446716
54.64119558
54.64119558
56.49822796
56.49822796
56.25288499
56.20539694
56.18357716
56.16846622
56.15610781
56.14515248
56.13501777
56.12541902
56.11620651
56.10729716
56.09864253
56.09021263
56.08198743
56.07395233
56.06609565
56.05840741
56.05087862
56.04350094
56.03626653
56.02916799
56.02219831
56.01535087
56.00861945
56.00199817
55.99548156
55.98906447
55.9827421
55.97650994
55.97036381
55.96429979
55.95831421
55.95240365
55.94656491
55.94079498
55.93509106
55.92945051
55.92387084
55.91834974
55.91288499
55.90747455
55.90211645
55.89680886
55.89155003
55.88633831
55.88117213
55.87605003
55.87097058
55.86593244
55.86093435
55.85597509
55.8510535
55.84616848
55.84131898
55.83650398
55.83172252
55.82697369
55.82225658
55.81757036
55.81291421
55.80828735
55.80368902
55.79911851
55.79457511
55.79005816
55.785567
55.78110102
55.77665961
55.7722422
55.76784821
55.76347711
55.75912836
55.75480147
55.75049594
55.74621129
55.74194706