# vtk DataFile Version 2.0
FlowField
ASCII
DATASET STRUCTURED_GRID
DIMENSIONS 400 1 200
POINTS 80000 float
0 0 0
0.08 0 0
0.16 0 0
0.24 0 0
0.32 0 0
0.4 0 0
0.48 0 0
0.56 0 0
0.64 0 0
0.72 0 0
0.8 0 0
0.88 0 0
0.96 0 0
1.04 0 0
1.12 0 0
1.2 0 0
1.28 0 0
1.36 0 0
1.44 0 0
1.52 0 0
1.6 0 0
1.68 0 0
1.76 0 0
1.84 0 0
1.92 0 0
2 0 0
2.08 0 0
2.16 0 0
2.24 0 0
2.32 0 0
2.4 0 0
2.48 0 0
2.56 0 0
2.64 0 0
2.72 0 0
2.8 0 0
2.88 0 0
2.96 0 0
3.04 0 0
3.12 0 0
3.2 0 0
3.28 0 0
3.36 0 0
3.44 0 0
3.52 0 0
3.6 0 0
3.68 0 0
3.76 0 0
3.84 0 0
3.92 0 0
4 0 0
4.08 0 0
4.16 0 0
4.24 0 0
4.32 0 0
4.4 0 0
4.48 0 0
4.56 0 0
4.64 0 0
4.72 0 0
4.8 0 0
4.88 0 0
4.96 0 0
5.04 0 0
5.12 0 0
5.2 0 0
5.28 0 0
5.36 0 0
5.44 0 0
5.52 0 0
5.6 0 0
5.68 0 0
5.76 0 0
5.84 0 0
5.92 0 0
6 0 0
6.08 0 0
6.16 0 0
6.24 0 0
6.32 0 0
6.4 0 0
6.48 0 0
6.56 0 0
6.64 0 0
6.72 0 0
6.8 0 0
6.88 0 0
6.96 0 0
7.04 0 0
7.12 0 0
7.2 0 0
7.28 0 0
7.36 0 0
7.44 0 0
7.52 0 0
7.6 0 0
7.68 0 0
7.76 0 0
7.84 0 0
7.92 0 0
8 0 0
8.08 0 0
8.16 0 0
8.24 0 0
8.32 0 0
8.4 0 0
8.48 0 0
8.56 0 0
8.64 0 0
8.72 0 0
8.8 0 0
8.88 0 0
8.96 0 0
9.04 0 0
9.12 0 0
9.2 0 0
9.28 0 0
9.36 0 0
9.44 0 0
9.52 0 0
9.6 0 0
9.68 0 0
9.76 0 0
9.84 0 0
9.92 0 0
10 0 0
10.08 0 0
10.16 0 0
10.24 0 0
10.32 0 0
10.4 0 0
10.48 0 0
10.56 0 0
10.64 0 0
10.72 0 0
10.8 0 0
10.88 0 0
10.96 0 0
11.04 0 0
11.12 0 0
11.2 0 0
11.28 0 0
11.36 0 0
11.44 0 0
11.52 0 0
11.6 0 0
11.68 0 0
11.76 0 0
11.84 0 0
11.92 0 0
12 0 0
12.08 0 0
12.16 0 0
12.24 0 0
12.32 0 0
12.4 0 0
12.48 0 0
12.56 0 0
12.64 0 0
12.72 0 0
12.8 0 0
12.88 0 0
12.96 0 0
13.04 0 0
13.12 0 0
13.2 0 0
13.28 0 0
13.36 0 0
13.44 0 0
13.52 0 0
13.6 0 0
13.68 0 0
13.76 0 0
13.84 0 0
13.92 0 0
14 0 0
14.08 0 0
14.16 0 0
14.24 0 0
14.32 0 0
14.4 0 0
14.48 0 0
14.56 0 0
14.64 0 0
14.72 0 0
14.8 0 0
14.88 0 0
14.96 0 0
15.04 0 0
15.12 0 0
15.2 0 0
15.28 0 0
15.36 0 0
15.44 0 0
15.52 0 0
15.6 0 0
15.68 0 0
15.76 0 0
15.84 0 0
15.92 0 0
16 0 0
16.08 0 0
16.16 0 0
16.24 0 0
16.32 0 0
16.4 0 0
16.48 0 0
16.56 0 0
16.64 0 0
16.72 0 0
16.8 0 0
16.88 0 0
16.96 0 0
17.04 0 0
17.12 0 0
17.2 0 0
17.28 0 0
17.36 0 0
17.44 0 0
17.52 0 0
17.6 0 0
17.68 0 0
17.76 0 0
17.84 0 0
17.92 0 0
18 0 0
18.08 0 0
18.16 0 0
18.24 0 0
18.32 0 0
18.4 0 0
18.48 0 0
18.56 0 0
18.64 0 0
18.72 0 0
18.8 0 0
18.88 0 0
18.96 0 0
19.04 0 0
19.12 0 0
19.2 0 0
19.28 0 0
19.36 0 0
19.44 0 0
19.52 0 0
19.6 0 0
19.68 0 0
19.76 0 0
19.84 0 0
19.92 0 0
20 0 0
20.08 0 0
20.16 0 0
20.24 0 0
20.32 0 0
20.4 0 0
20.48 0 0
20.56 0 0
20.64 0 0
20.72 0 0
20.8 0 0
20.88 0 0
20.96 0 0
21.04 0 0
21.12 0 0
21.2 0 0
21.28 0 0
21.36 0 0
21.44 0 0
21.52 0 0
21.6 0 0
21.68 0 0
21.76 0 0
21.84 0 0
21.92 0 0
22 0 0
22.08 0 0
22.16 0 0
22.24 0 0
22.32 0 0
22.4 0 0
22.48 0 0
22.56 0 0
22.64 0 0
22.72 0 0
22.8 0 0
22.88 0 0
22.96 0 0
23.04 0 0
23.12 0 0
23.2 0 0
23.28 0 0
23.36 0 0
23.44 0 0
23.52 0 0
23.6 0 0
23.68 0 0
23.76 0 0
23.84 0 0
23.92 0 0
24 0 0
24.08 0 0
24.16 0 0
24.24 0 0
24.32 0 0
24.4 0 0
24.48 0 0
24.56 0 0
24.64 0 0
24.72 0 0
24.8 0 0
24.88 0 0
24.96 0 0
25.04 0 0
25.12 0 0
25.2 0 0
25.28 0 0
25.36 0 0
25.44 0 0
25.52 0 0
25.6 0 0
25.68 0 0
25.76 0 0
25.84 0 0
25.92 0 0
26 0 0
26.08 0 0
26.16 0 0
26.24 0 0
26.32 0 0
26.4 0 0
26.48 0 0
26.56 0 0
26.64 0 0
26.72 0 0
26.8 0 0
26.88 0 0
26.96 0 0
27.04 0 0
27.12 0 0
27.2 0 0
27.28 0 0
27.36 0 0
27.44 0 0
27.52 0 0
27.6 0 0
27.68 0 0
27.76 0 0
27.84 0 0
27.92 0 0
28 0 0
28.08 0 0
28.16 0 0
28.24 0 0
28.32 0 0
28.4 0 0
28.48 0 0
28.56 0 0
28.64 0 0
28.72 0 0
28.8 0 0
28.88 0 0
28.96 0 0
29.04 0 0
29.12 0 0
29.2 0 0
29.28 0 0
29.36 0 0
29.44 0 0
29.52 0 0
29.6 0 0
29.68 0 0
29.76 0 0
29.84 0 0
29.92 0 0
30 0 0
30.08 0 0
30.16 0 0
30.24 0 0
30.32 0 0
30.4 0 0
30.48 0 0
30.56 0 0
30.64 0 0
30.72 0 0
30.8 0 0
30.88 0 0
30.96 0 0
31.04 0 0
31.12 0 0
31.2 0 0
31.28 0 0
31.36 0 0
31.44 0 0
31.52 0 0
31.6 0 0
31.68 0 0
31.76 0 0
31.84 0 0
31.92 0 0
0 0.005 0
0.08 0.005 0
0.16 0.005 0
0.24 0.005 0
0.32 0.005 0
0.4 0.005 0
0.48 0.005 0
0.56 0.005 0
0.64 0.005 0
0.72 0.005 0
0.8 0.005 0
0.88 0.005 0
0.96 0.005 0
1.04 0.005 0
1.12 0.005 0
1.2 0.005 0
1.28 0.005 0
1.36 0.005 0
1.44 0.005 0
1.52 0.005 0
1.6 0.005 0
1.68 0.005 0
1.76 0.005 0
1.84 0.005 0
1.92 0.005 0
2 0.005 0
2.08 0.005 0
2.16 0.005 0
2.24 0.005 0
2.32 0.005 0
2.4 0.005 0
2.48 0.005 0
2.56 0.005 0
2.64 0.005 0
2.72 0.005 0
2.8 0.005 0
2.88 0.005 0
2.96 0.005 0
3.04 0.005 0
3.12 0.005 0
3.2 0.005 0
3.28 0.005 0
3.36 0.005 0
3.44 0.005 0
3.52 0.005 0
3.6 0.005 0
3.68 0.005 0
3.76 0.005 0
3.84 0.005 0
3.92 0.005 0
4 0.005 0
4.08 0.005 0
4.16 0.005 0
4.24 0.005 0
4.32 0.005 0
4.4 0.005 0
4.48 0.005 0
4.56 0.005 0
4.64 0.005 0
4.72 0.005 0
4.8 0.005 0
4.88 0.005 0
4.96 0.005 0
5.04 0.005 0
5.12 0.005 0
5.2 0.005 0
5.28 0.005 0
5.36 0.005 0
5.44 0.005 0
5.52 0.005 0
5.6 0.005 0
5.68 0.005 0
5.76 0.005 0
5.84 0.005 0
5.92 0.005 0
6 0.005 0
6.08 0.005 0
6.16 0.005 0
6.24 0.005 0
6.32 0.005 0
6.4 0.005 0
6.48 0.005 0
6.56 0.005 0
6.64 0.005 0
6.72 0.005 0
6.8 0.005 0
6.88 0.005 0
6.96 0.005 0
7.04 0.005 0
7.12 0.005 0
7.2 0.005 0
7.28 0.005 0
7.36 0.005 0
7.44 0.005 0
7.52 0.005 0
7.6 0.005 0
7.68 0.005 0
7.76 0.005 0
7.84 0.005 0
7.92 0.005 0
8 0.005 0
8.08 0.005 0
8.16 0.005 0
8.24 0.005 0
8.32 0.005 0
8.4 0.005 0
8.48 0.005 0
8.56 0.005 0
8.64 0.005 0
8.72 0.005 0
8.8 0.005 0
8.88 0.005 0
8.96 0.005 0
9.04 0.005 0
9.12 0.005 0
9.2 0.005 0
9.28 0.005 0
9.36 0.005 0
9.44 0.005 0
9.52 0.005 0
9.6 0.005 0
9.68 0.005 0
9.76 0.005 0
9.84 0.005 0
9.92 0.005 0
10 0.005 0
10.08 0.005 0
10.16 0.005 0
10.24 0.005 0
10.32 0.005 0
10.4 0.005 0
10.48 0.005 0
10.56 0.005 0
10.64 0.005 0
10.72 0.005 0
10.8 0.005 0
10.88 0.005 0
10.96 0.005 0
11.04 0.005 0
11.12 0.005 0
11.2 0.005 0
11.28 0.005 0
11.36 0.005 0
11.44 0.005 0
11.52 0.005 0
11.6 0.005 0
11.68 0.005 0
11.76 0.005 0
11.84 0.005 0
11.92 0.005 0
12 0.005 0
12.08 0.005 0
12.16 0.005 0
12.24 0.005 0
12.32 0.005 0
12.4 0.005 0
12.48 0.005 0
12.56 0.005 0
12.64 0.005 0
12.72 0.005 0
12.8 0.005 0
12.88 0.005 0
12.96 0.005 0
13.04 0.005 0
13.12 0.005 0
13.2 0.005 0
13.28 0.005 0
13.36 0.005 0
13.44 0.005 0
13.52 0.005 0
13.6 0.005 0
13.68 0.005 0
13.76 0.005 0
13.84 0.005 0
13.92 0.005 0
14 0.005 0
14.08 0.005 0
14.16 0.005 0
14.24 0.005 0
14.32 0.005 0
14.4 0.005 0
14.48 0.005 0
14.56 0.005 0
14.64 0.005 0
14.72 0.005 0
14.8 0.005 0
14.88 0.005 0
14.96 0.005 0
15.04 0.005 0
15.12 0.005 0
15.2 0.005 0
15.28 0.005 0
15.36 0.005 0
15.44 0.005 0
15.52 0.005 0
15.6 0.005 0
15.68 0.005 0
15.76 0.005 0
15.84 0.005 0
15.92 0.005 0
16 0.005 0
16.08 0.005 0
16.16 0.005 0
16.24 0.005 0
16.32 0.005 0
16.4 0.005 0
16.48 0.005 0
16.56 0.005 0
16.64 0.005 0
16.72 0.005 0
16.8 0.005 0
16.88 0.005 0
16.96 0.005 0
17.04 0.005 0
17.12 0.005 0
17.2 0.005 0
17.28 0.005 0
17.36 0.005 0
17.44 0.005 0
17.52 0.005 0
17.6 0.005 0
17.68 0.005 0
17.76 0.005 0
17.84 0.005 0
17.92 0.005 0
18 0.005 0
18.08 0.005 0
18.16 0.005 0
18.24 0.005 0
18.32 0.005 0
18.4 0.005 0
18.48 0.005 0
18.56 0.005 0
18.64 0.005 0
18.72 0.005 0
18.8 0.005 0
18.88 0.005 0
18.96 0.005 0
19.04 0.005 0
19.12 0.005 0
19.2 0.005 0
19.28 0.005 0
19.36 0.005 0
19.44 0.005 0
19.52 0.005 0
19.6 0.005 0
19.68 0.005 0
19.76 0.005 0
19.84 0.005 0
19.92 0.005 0
20 0.005 0
20.08 0.005 0
20.16 0.005 0
20.24 0.005 0
20.32 0.005 0
20.4 0.005 0
20.48 0.005 0
20.56 0.005 0
20.64 0.005 0
20.72 0.005 0
20.8 0.005 0
20.88 0.005 0
20.96 0.005 0
21.04 0.005 0
21.12 0.005 0
21.2 0.005 0
21.28 0.005 0
21.36 0.005 0
21.44 0.005 0
21.52 0.005 0
21.6 0.005 0
21.68 0.005 0
21.76 0.005 0
21.84 0.005 0
21.92 0.005 0
22 0.005 0
22.08 0.005 0
22.16 0.005 0
22.24 0.005 0
22.32 0.005 0
22.4 0.005 0
22.48 0.005 0
22.56 0.005 0
22.64 0.005 0
22.72 0.005 0
22.8 0.005 0
22.88 0.005 0
22.96 0.005 0
23.04 0.005 0
23.12 0.005 0
23.2 0.005 0
23.28 0.005 0
23.36 0.005 0
23.44 0.005 0
23.52 0.005 0
23.6 0.005 0
23.68 0.005 0
23.76 0.005 0
23.84 0.005 0
23.92 0.005 0
24 0.005 0
24.08 0.005 0
24.16 0.005 0
24.24 0.005 0
24.32 0.005 0
24.4 0.005 0
24.48 0.005 0
24.56 0.005 0
24.64 0.005 0
24.72 0.005 0
24.8 0.005 0
24.88 0.005 0
24.96 0.005 0
25.04 0.005 0
25.12 0.005 0
25.2 0.005 0
25.28 0.005 0
25.36 0.005 0
25.44 0.005 0
25.52 0.005 0
25.6 0.005 0
25.68 0.005 0
25.76 0.005 0
25.84 0.005 0
25.92 0.005 0
26 0.005 0
26.08 0.005 0
26.16 0.005 0
26.24 0.005 0
26.32 0.005 0
26.4 0.005 0
26.48 0.005 0
26.56 0.005 0
26.64 0.005 0
26.72 0.005 0
26.8 0.005 0
26.88 0.005 0
26.96 0.005 0
27.04 0.005 0
27.12 0.005 0
27.2 0.005 0
27.28 0.005 0
27.36 0.005 0
27.44 0.005 0
27.52 0.005 0
27.6 0.005 0
27.68 0.005 0
27.76 0.005 0
27.84 0.005 0
27.92 0.005 0
28 0.005 0
28.08 0.005 0
28.16 0.005 0
28.24 0.005 0
28.32 0.005 0
28.4 0.005 0
28.48 0.005 0
28.56 0.005 0
28.64 0.005 0
28.72 0.005 0
28.8 0.005 0
28.88 0.005 0
28.96 0.005 0
29.04 0.005 0
29.12 0.005 0
29.2 0.005 0
29.28 0.005 0
29.36 0.005 0
29.44 0.005 0
29.52 0.005 0
29.6 0.005 0
29.68 0.005 0
29.76 0.005 0
29.84 0.005 0
29.92 0.005 0
30 0.005 0
30.08 0.005 0
30.16 0.005 0
30.24 0.005 0
30.32 0.005 0
30.4 0.005 0
30.48 0.005 0
30.56 0.005 0
30.64 0.005 0
30.72 0.005 0
30.8 0.005 0
30.88 0.005 0
30.96 0.005 0
31.04 0.005 0
31.12 0.005 0
31.2 0.005 0
31.28 0.005 0
31.36 0.005 0
31.44 0.005 0
31.52 0.005 0
31.6 0.005 0
31.68 0.005 0
31.76 0.005 0
31.84 0.005 0
31.92 0.005 0
0 0.01 0
0.08 0.01 0
0.16 0.01 0
0.24 0.01 0
0.32 0.01 0
0.4 0.01 0
0.48 0.01 0
0.56 0.01 0
0.64 0.01 0
0.72 0.01 0
0.8 0.01 0
0.88 0.01 0
0.96 0.01 0
1.04 0.01 0
1.12 0.01 0
1.2 0.01 0
1.28 0.01 0
1.36 0.01 0
1.44 0.01 0
1.52 0.01 0
1.6 0.01 0
1.68 0.01 0
1.76 0.01 0
1.84 0.01 0
1.92 0.01 0
2 0.01 0
2.08 0.01 0
2.16 0.01 0
2.24 0.01 0
2.32 0.01 0
2.4 0.01 0
2.48 0.01 0
2.56 0.01 0
2.64 0.01 0
2.72 0.01 0
2.8 0.01 0
2.88 0.01 0
2.96 0.01 0
3.04 0.01 0
3.12 0.01 0
3.2 0.01 0
3.28 0.01 0
3.36 0.01 0
3.44 0.01 0
3.52 0.01 0
3.6 0.01 0
3.68 0.01 0
3.76 0.01 0
3.84 0.01 0
3.92 0.01 0
4 0.01 0
4.08 0.01 0
4.16 0.01 0
4.24 0.01 0
4.32 0.01 0
4.4 0.01 0
4.48 0.01 0
4.56 0.01 0
4.64 0.01 0
4.72 0.01 0
4.8 0.01 0
4.88 0.01 0
4.96 0.01 0
5.04 0.01 0
5.12 0.01 0
[...]
POINT_DATA 80000

SCALARS u float 1
LOOKUP_TABLE default
0
-0.1316626018
-0.06826910447
-0.05229584497
-0.04441969419
-0.03957656529
-0.03625945385
-0.03383239642
-0.03197240117
-0.03049570763
-0.02928962414
-0.02828131019
-0.02742180313
-0.02667715105
-0.02602318427
-0.02544229055
-0.02492135738
-0.02445042384
-0.02402177835
-0.02362934369
-0.02326825097
-0.02293453985
-0.02262494455
-0.02233673872
-0.02206762128
-0.02181563127
-0.02157908325
-0.02135651769
-0.02114666226
-0.02094840127
-0.02076075123
-0.02058284106
-0.02041389595
-0.020253224
-0.02010020516
-0.01995428187
-0.01981495123
-0.01968175835
-0.01955429062
-0.01943217286
-0.01931506307
-0.01920264879
-0.01909464392
-0.018990786
-0.01889083373
-0.0187945649
-0.0187017745
-0.01861227304
-0.01852588508
-0.01844244799
-0.01836181076
-0.01828383301
-0.01820838402
-0.0181353419
-0.01806459283
-0.01799603041
-0.0179295551
-0.0178650737
-0.01780249883
-0.01774174842
-0.01768274528
-0.01762541676
-0.01756969445
-0.01751551397
-0.01746281464
-0.01741153918
-0.01736163338
-0.01731304585
-0.01726572795
-0.01721963362
-0.01717471937
-0.01713094399
-0.01708826834
-0.01704665509
-0.01700606861
-0.01696647498
-0.01692784206
-0.01689013941
-0.0168533382
-0.01681741085
-0.01678233086
-0.01674807272
-0.01671461203
-0.01668192574
-0.0166499923
-0.01661879159
-0.01658830475
-0.01655851413
-0.01652940337
-0.01650095777
-0.01647316483
-0.01644601459
-0.01641949959
-0.01639361461
-0.01636835609
-0.01634372182
-0.01631971082
-0.01629632354
-0.01627356192
-0.01625142916
-0.01622992892
-0.01620906434
-0.01618883708
-0.01616924697
-0.01615029235
-0.01613197086
-0.01611428015
-0.01609721806
-0.01608078202
-0.01606496799
-0.0160497695
-0.01603517739
-0.01602118054
-0.01600776721
-0.01599492661
-0.01598264956
-0.01597092825
-0.01595975491
-0.01594912017
-0.01593901191
-0.01592941521
-0.01592031343
-0.01591169
-0.01590353009
-0.0158958214
-0.01588855368
-0.01588171735
-0.01587530167
-0.01586929341
-0.01586367656
-0.01585843315
-0.01585354498
-0.0158489953
-0.01584477001
-0.01584085774
-0.01583724897
-0.01583393445
-0.01583090364
-0.01582814362
-0.01582563904
-0.01582337289
-0.01582132788
-0.01581948803
-0.01581783976
-0.0158163724
-0.01581507783
-0.01581394956
-0.01581298144
-0.01581216646
-0.01581149591
-0.015810959
-0.01581054306
-0.01581023412
-0.01581001772
-0.01580987972
-0.01580980699
-0.01580978785
-0.01580981228
-0.01580987185
-0.01580995962
-0.01581006988
-0.01581019789
-0.01581033973
-0.01581049215
-0.01581065242
-0.01581081834
-0.01581098815
-0.01581116053
-0.0158113345
-0.0158115094
-0.01581168481
-0.01581186052
-0.01581203642
-0.01581221248
-0.0158123887
-0.0158125651
-0.01581274169
-0.01581291846
-0.01581309542
-0.01581327253
-0.01581344978
-0.01581362715
-0.01581380461
-0.01581398216
-0.01581415979
-0.0158143375
-0.01581451528
-0.01581469314
-0.01581487108
-0.0158150491
-0.01581522721
-0.0158154054
-0.01581558368
-0.01581576206
-0.01581594052
-0.01581611908
-0.01581629772
-0.01581647645
-0.01581665528
-0.01581683419
-0.01581701318
-0.01581719227
-0.01581737144
-0.0158175507
-0.01581773005
-0.01581790949
-0.01581808901
-0.01581826862
-0.01581844832
-0.01581862811
-0.01581880798
-0.01581898794
-0.01581916799
-0.01581934813
-0.01581952835
-0.01581970866
-0.01581988906
-0.01582006954
-0.01582025012
-0.01582043078
-0.01582061152
-0.01582079235
-0.01582097327
-0.01582115428
-0.01582133537
-0.01582151655
-0.01582169782
-0.01582187917
-0.01582206061
-0.01582224214
-0.01582242375
-0.01582260545
-0.01582278724
-0.01582296911
-0.01582315107
-0.01582333312
-0.01582351525
-0.01582369747
-0.01582387978
-0.01582406217
-0.01582424465
-0.01582442722
-0.01582460987
-0.01582479262
-0.01582497544
-0.01582515836
-0.01582534136
-0.01582552444
-0.01582570762
-0.01582589088
-0.01582607423
-0.01582625766
-0.01582644118
-0.01582662479
-0.01582680849
-0.01582699227
-0.01582717614
-0.01582736009
-0.01582754414
-0.01582772827
-0.01582791248
-0.01582809679
-0.01582828118
-0.01582846565
-0.01582865022
-0.01582883487
-0.01582901961
-0.01582920444
-0.01582938935
-0.01582957435
-0.01582975944
-0.01582994461
-0.01583012988
-0.01583031523
-0.01583050066
-0.01583068619
-0.0158308718
-0.0158310575
-0.01583124329
-0.01583142916
-0.01583161512
-0.01583180117
-0.01583198731
-0.01583217353
-0.01583235985
-0.01583254625
-0.01583273274
-0.01583291931
-0.01583310598
-0.01583329273
-0.01583347957
-0.0158336665
-0.01583385351
-0.01583404062
-0.01583422781
-0.01583441509
-0.01583460246
-0.01583478991
-0.01583497746
-0.01583516509
-0.01583535281
-0.01583554062
-0.01583572852
-0.01583591651
-0.01583610459
-0.01583629275
-0.015836481
-0.01583666935
-0.01583685778
-0.0158370463
-0.0158372349
-0.0158374236
-0.01583761239
-0.01583780126
-0.01583799023
-0.01583817928
-0.01583836842
-0.01583855765
-0.01583874697
-0.01583893639
-0.01583912588
-0.01583931548
-0.01583950515
-0.01583969492
-0.01583988478
-0.01584007473
-0.01584026476
-0.01584045489
-0.01584064511
-0.01584083542
-0.01584102581
-0.0158412163
-0.01584140687
-0.01584159755
-0.0158417883
-0.01584197916
-0.01584217008
-0.01584236113
-0.01584255223
-0.01584274346
-0.01584293474
-0.01584312615
-0.01584331761
-0.01584350921
-0.01584370084
-0.01584389263
-0.01584408444
-0.01584427642
-0.0158444684
-0.01584466058
-0.01584485272
-0.0158450451
-0.01584523741
-0.01584542999
-0.01584562245
-0.01584581524
-0.01584600786
-0.01584620087
-0.01584639363
-0.01584658687
-0.01584677976
-0.01584697324
-0.01584716625
-0.01584735998
-0.01584755309
-0.0158477471
-0.01584794028
-0.01584813459
-0.01584832782
-0.01584852245
-0.0158487157
-0.01584891069
-0.01584910391
-0.01584929929
-0.01584949244
-0.01584968826
-0.0158498813
-0.01585007757
-0.01585027048
-0.01585046721
-0.01585066
-0.01585085714
-0.0158510499
-0.01585124729
-0.01585144034
-0.01585163758
-0.01585183166
-0.01585202788
-0.01585222473
-0.01585241801
-0.01585262157
-0.0158528075
-0.01585302692
-0.01585319361
-0.01585345027
-0.01585355259
-0.01585389325
-0.01585356185
-0.01585356185
-0.01585356185
1
0.1316626018
0.06826910447
0.05229584497
0.04441969419
0.03957656529
0.03625945385
0.03383239642
0.03197240117
0.03049570763
0.02928962414
0.02828131019
0.02742180313
0.02667715105
0.02602318427
0.02544229055
0.02492135738
0.02445042384
0.02402177835
0.02362934369
0.02326825097
0.02293453985
0.02262494455
0.02233673872
0.02206762128
0.02181563127
0.02157908325
0.02135651769
0.02114666226
0.02094840127
0.02076075123
0.02058284106
0.02041389595
0.020253224
0.02010020516
0.01995428187
0.01981495123
0.01968175835
0.01955429062
0.01943217286
0.01931506307
0.01920264879
0.01909464392
0.018990786
0.01889083373
0.0187945649
0.0187017745
0.01861227304
0.01852588508
0.01844244799
0.01836181076
0.01828383301
0.01820838402
0.0181353419
0.01806459283
0.01799603041
0.0179295551
0.0178650737
0.01780249883
0.01774174842
0.01768274528
0.01762541676
0.01756969445
0.01751551397
0.01746281464
0.01741153918
0.01736163338
0.01731304585
0.01726572795
0.01721963362
0.01717471937
0.01713094399
0.01708826834
0.01704665509
0.01700606861
0.01696647498
0.01692784206
0.01689013941
0.0168533382
0.01681741085
0.01678233086
0.01674807272
0.01671461203
0.01668192574
0.0166499923
0.01661879159
0.01658830475
0.01655851413
0.01652940337
0.01650095777
0.01647316483
0.01644601459
0.01641949959
0.01639361461
0.01636835609
0.01634372182
0.01631971082
0.01629632354
0.01627356192
0.01625142916
0.01622992892
0.01620906434
0.01618883708
0.01616924697
0.01615029235
0.01613197086
0.01611428015
0.01609721806
0.01608078202
0.01606496799
0.0160497695
0.01603517739
0.01602118054
0.01600776721
0.01599492661
0.01598264956
0.01597092825
0.01595975491
0.01594912017
0.01593901191
0.01592941521
0.01592031343
0.01591169
0.01590353009
0.0158958214
0.01588855368
0.01588171735
0.01587530167
0.01586929341
0.01586367656
0.01585843315
0.01585354498
0.0158489953
0.01584477001
0.01584085774
0.01583724897
0.01583393445
0.01583090364
0.01582814362
0.01582563904
0.01582337289
0.01582132788
0.01581948803
0.01581783976
0.0158163724
0.01581507783
0.01581394956
0.01581298144
0.01581216646
0.01581149591
0.015810959
0.01581054306
0.01581023412
0.01581001772
0.01580987972
0.01580980699
0.01580978785
0.01580981228
0.01580987185
0.01580995962
0.01581006988
0.01581019789
0.01581033973
0.01581049215
0.01581065242
0.01581081834
0.01581098815
0.01581116053
0.0158113345
0.0158115094
0.01581168481
0.01581186052
0.01581203642
0.01581221248
0.0158123887
0.0158125651
0.01581274169
0.01581291846
0.01581309542
0.01581327253
0.01581344978
0.01581362715
0.01581380461
0.01581398216
0.01581415979
0.0158143375
0.01581451528
0.01581469314
0.01581487108
0.0158150491
0.01581522721
0.0158154054
0.01581558368
0.01581576206
0.01581594052
0.01581611908
0.01581629772
0.01581647645
0.01581665528
0.01581683419
0.01581701318
0.01581719227
0.01581737144
0.0158175507
0.01581773005
0.01581790949
0.01581808901
0.01581826862
0.01581844832
0.01581862811
0.01581880798
0.01581898794
0.01581916799
0.01581934813
0.01581952835
0.01581970866
0.01581988906
0.01582006954
0.01582025012
0.01582043078
0.01582061152
0.01582079235
0.01582097327
0.01582115428
0.01582133537
0.01582151655
0.01582169782
0.01582187917
0.01582206061
0.01582224214
0.01582242375
0.01582260545
0.01582278724
0.01582296911
0.01582315107
0.01582333312
0.01582351525
0.01582369747
0.01582387978
0.01582406217
0.01582424465
0.01582442722
0.01582460987
0.01582479262
0.01582497544
0.01582515836
0.01582534136
0.01582552444
0.01582570762
0.01582589088
0.01582607423
0.01582625766
0.01582644118
0.01582662479
0.01582680849
0.01582699227
0.01582717614
0.01582736009
0.01582754414
0.01582772827
0.01582791248
0.01582809679
0.01582828118
0.01582846565
0.01582865022
0.01582883487
0.01582901961
0.01582920444
0.01582938935
0.01582957435
0.01582975944
0.01582994461
0.01583012988
0.01583031523
0.01583050066
0.01583068619
0.0158308718
0.0158310575
0.01583124329
0.01583142916
0.01583161512
0.01583180117
0.01583198731
0.01583217353
0.01583235985
0.01583254625
0.01583273274
0.01583291931
0.01583310598
0.01583329273
0.01583347957
0.0158336665
0.01583385351
0.01583404062
0.01583422781
0.01583441509
0.01583460246
0.01583478991
0.01583497746
0.01583516509
0.01583535281
0.01583554062
0.01583572852
0.01583591651
0.01583610459
0.01583629275
0.015836481
0.01583666935
0.01583685778
0.0158370463
0.0158372349
0.0158374236
0.01583761239
0.01583780126
0.01583799023
0.01583817928
0.01583836842
0.01583855765
0.01583874697
0.01583893639
0.01583912588
0.01583931548
0.01583950515
0.01583969492
0.01583988478
0.01584007473
0.01584026476
0.01584045489
0.01584064511
0.01584083542
0.01584102581
0.0158412163
0.01584140687
0.01584159755
0.0158417883
0.01584197916
0.01584217008
0.01584236113
0.01584255223
0.01584274346
0.01584293474
0.01584312615
0.01584331761
0.01584350921
0.01584370084
0.01584389263
0.01584408444
0.01584427642
0.0158444684
0.01584466058
0.01584485272
0.0158450451
0.01584523741
0.01584542999
0.01584562245
0.01584581524
0.01584600786
0.01584620087
0.01584639363
0.01584658687
0.01584677976
0.01584697324
0.01584716625
0.01584735998
0.01584755309
0.0158477471
0.01584794028
0.01584813459
0.01584832782
0.01584852245
0.0158487157
0.01584891069
0.01584910391
0.01584929929
0.01584949244
0.01584968826
0.0158498813
0.01585007757
0.01585027048
0.01585046721
0.01585066
0.01585085714
0.0158510499
0.01585124729
0.01585144034
0.01585163758
0.01585183166
0.01585202788
0.01585222473
0.01585241801
0.01585262157
0.0158528075
0.01585302692
0.01585319361
0.01585345027
0.01585355259
0.01585389325
0.01585356185
0.01585356185
0.01585356185
1
0.3448837487
0.2006674114
0.1549668439
0.1318941215
0.1175981091
0.1077674058
0.1005574705
0.09502442948
0.09062850135
0.08703732613
0.08403534995
0.08147725813
0.07926203476
0.07731761932
0.07559141527
0.07404421636
0.07264621618
0.07137433008
0.07021036507
0.06913974897
0.06815063429
0.0672332573
0.06637947262
0.06558241063
0.06483622134
0.06413588036
0.06347703962
0.06285591112
0.06226917509
0.06171390657
0.06118751615
0.06068770148
0.06021240733
0.05975979242
0.05932820159
0.05891614229
0.05852226473
0.05814534489
0.0577842699
0.05743802553
0.05710568529
0.05678640099
0.05647939453
0.05618395073
0.05589941101
0.0556251678
0.05536065958
0.05510536659
0.05485880696
0.05462053335
0.05439012989
0.05416720938
0.05395141076
0.05374239691
0.05353985273
0.05334348347
0.05315301315
0.05296818297
0.05278874988
0.05261448532
0.05244517421
0.05228061409
0.05212061436
0.05196499539
0.05181358754
0.05166623029
0.05152277162
0.05138306754
0.05124698193
0.05111438604
0.05098515795
0.0508591818
0.05073634714
0.05061654866
0.05049968623
0.050385665
0.05027439517
0.05016579155
0.05005977272
0.04995626053
0.04985517999
0.04975645967
0.04966003227
0.04956583494
0.04947380911
0.0493839001
0.04929605697
0.04921023297
0.04912638665
0.04904448315
0.04896449503
0.04888640202
0.04881019
0.0487358496
0.0486633753
0.04859276519
0.04852402134
0.04845714976
0.04839215938
0.04832905978
0.04826785837
0.04820855811
0.04815115685
0.04809564844
0.04804202484
0.04799027786
0.04794039926
0.04789237891
0.04784620201
0.04780184678
0.04775928431
0.04771848085
0.04767940174
0.04764201506
0.04760629321
0.04757221152
0.04753974452
0.04750886178
0.04747952522
0.04745168966
0.04742530609
0.0474003266
0.04737670844
0.04735441556
0.04733341688
0.04731368213
0.0472951772
0.04727786099
0.04726168526
0.04724659741
0.04723254508
0.04721948064
0.04720736381
0.04719616145
0.04718584461
0.04717638429
0.04716774733
0.04715989412
0.04715277874
0.04714635156
0.04714056316
0.04713536833
0.04713072886
0.04712661435
0.04712300094
0.0471198685
0.04711719717
0.04711496424
0.04711314206
0.04711169745
0.04711059244
0.04710978609
0.04710923674
0.0471089042
0.04710875157
0.04710874624
0.04710886039
0.04710907073
0.04710935808
0.04710970664
0.04711010338
0.04711053748
0.04711099996
0.04711148342
0.04711198186
0.04711249054
0.04711300591
0.04711352541
0.04711404732
0.04711457058
0.04711509463
0.04711561921
0.04711614427
0.04711666981
0.04711719587
0.04711772248
0.04711824963
0.04711877729
0.04711930539
0.04711983388
0.04712036271
0.04712089182
0.04712142118
0.04712195078
0.0471224806
0.04712301064
0.04712354092
0.04712407144
0.0471246022
0.04712513322
0.04712566451
0.04712619606
0.04712672787
0.04712725996
0.04712779231
0.04712832492
0.0471288578
0.04712939094
0.04712992434
0.047130458
0.04713099192
0.04713152611
0.04713206055
0.04713259525
0.04713313021
0.04713366543
0.04713420091
0.04713473665
0.04713527265
0.0471358089
0.04713634542
0.04713688219
0.04713741923
0.04713795652
0.04713849407
0.04713903188
0.04713956994
0.04714010826
0.04714064684
0.04714118568
0.04714172478
0.04714226413
0.04714280374
0.04714334361
0.04714388373
0.04714442411
0.04714496475
0.04714550564
0.04714604679
0.0471465882
0.04714712987
0.04714767179
0.04714821396
0.0471487564
0.04714929909
0.04714984204
0.04715038524
0.0471509287
0.04715147242
0.0471520164
0.04715256063
0.04715310511
0.04715364986
0.04715419486
0.04715474012
0.04715528563
0.0471558314
0.04715637743
0.04715692372
0.04715747026
0.04715801706
0.04715856411
0.04715911143
0.047159659
0.04716020683
0.04716075491
0.04716130325
0.04716185185
0.04716240071
0.04716294982
0.0471634992
0.04716404883
0.04716459871
0.04716514886
0.04716569926
0.04716624992
0.04716680084
0.04716735202
0.04716790346
0.04716845515
0.0471690071
0.04716955931
0.04717011178
0.04717066451
0.0471712175
0.04717177074
0.04717232425
0.04717287801
0.04717343203
0.04717398632
0.04717454086
0.04717509566
0.04717565072
0.04717620604
0.04717676162
0.04717731746
0.04717787356
0.04717842992
0.04717898654
0.04717954342
0.04718010057
0.04718065797
0.04718121563
0.04718177355
0.04718233174
0.04718289019
0.04718344889
0.04718400786
0.04718456709
0.04718512658
0.04718568634
0.04718624635
0.04718680663
0.04718736717
0.04718792797
0.04718848904
0.04718905037
0.04718961196
0.04719017381
0.04719073593
0.04719129831
0.04719186095
0.04719242386
0.04719298703
0.04719355046
0.04719411416
0.04719467812
0.04719524235
0.04719580684
0.0471963716
0.04719693662
0.0471975019
0.04719806746
0.04719863327
0.04719919936
0.0471997657
0.04720033233
0.0472008992
0.04720146635
0.04720203375
0.04720260145
0.04720316938
0.04720373761
0.04720430607
0.04720487485
0.04720544383
0.04720601315
0.04720658267
0.04720715253
0.04720772257
0.04720829298
0.04720886355
0.04720943451
0.0472100056
0.04721057713
0.04721114872
0.04721172082
0.04721229292
0.04721286559
0.0472134382
0.04721401145
0.04721458455
0.04721515841
0.04721573197
0.04721630645
0.04721688047
0.04721745558
0.04721803004
0.04721860582
0.04721918067
0.04721975715
0.04722033236
0.04722090959
0.04722148511
0.04722206313
0.0472226389
0.04722321777
0.04722379371
0.04722437352
0.04722494954
0.04722553037
0.04722610636
0.04722668831
0.04722726416
0.04722784732
0.04722842291
0.04722900735
0.04722958261
0.04723016836
0.04723074331
0.04723133023
0.04723190514
0.04723249281
0.0472330685
0.04723365586
0.04723423436
0.04723481906
0.04723540507
0.04723598203
0.04723658625
0.04723714377
0.04723779093
0.04723829739
0.04723904481
0.04723937952
0.04724034618
0.04723953582
0.04723953582
0.04723953582
1
0.5187653265
0.3274014388
0.2553471046
0.2178481576
0.1944031012
0.1782112422
0.1663066832
0.1571576505
0.1498830883
0.1439382297
0.1389685901
0.1347345387
0.131069113
0.1278529839
0.1249989234
0.1224418381
0.1201322036
0.118031648
0.1161099269
0.1143428176
0.1127106329
0.1111971549
0.1097888607
0.1084743517
0.1072439267
0.1060892581
0.1050031428
0.1039793086
0.1030122611
0.1020971611
0.101229726
0.1004061492
0.09962303372
0.09887733684
0.09816632397
0.09748752975
0.09683872495
0.09621788837
0.09562318264
0.09505293342
0.09450561139
0.09397981664
0.09347426505
0.09298777646
0.09251926418
0.09206772573
0.09163223473
0.09121193369
0.09080602775
0.09041377902
0.09003450152
0.08966755661
0.08931234876
0.08896832199
0.0886349567
0.08831176683
0.08799829726
0.08769412121
0.08739883789
0.08711207042
0.0868334642
0.08656268549
0.08629942006
0.08604337173
0.0857942608
0.08555182261
0.08531580658
0.08508597547
0.08486210499
0.084643983
0.08443140852
0.08422419056
0.08402214716
0.08382510493
0.08363289915
0.08344537379
0.08326238117
0.08308378105
0.08290943952
0.08273922819
0.08257302414
0.0824107106
0.08225217778
0.08209732326
0.08194605174
0.0817982745
0.08165390928
0.08151288113
0.08137512423
0.08124058372
0.08110921675
0.08098099197
0.08085588772
0.08073388995
0.08061499074
0.08049918807
0.0803864861
0.08027689481
0.08017042812
0.08006710012
0.07996692075
0.07986989257
0.07977601008
0.0796852616
0.07959763252
0.07951310763
0.07943167091
0.07935330256
0.07927797474
0.07920564858
0.07913627445
0.07906979592
0.07900615579
0.07894530136
0.07888718622
0.07883176763
0.07877900062
0.07872883187
0.0786811963
0.07863601846
0.07859321807
0.07855271744
0.07851444725
0.07847834822
0.07844436789
0.07841245401
0.0783825477
0.07835457924
0.07832846845
0.07830412951
0.07828147807
0.07826043781
0.07824094387
0.07822294183
0.07820638291
0.07819121731
0.07817738829
0.07816482911
0.07815346393
0.07814321211
0.07813399433
0.07812573859
0.07811838403
0.07811188167
0.07810619203
0.07810128063
0.07809711261
0.07809364816
0.07809083968
0.07808863118
0.07808695979
0.07808575876
0.07808496097
0.07808450233
0.0780843244
0.07808437586
0.07808461305
0.07808499955
0.07808550535
0.07808610576
0.07808678043
0.07808751248
0.07808828794
0.07808909532
0.07808992537
0.07809077087
0.07809162638
0.07809248805
0.07809335331
0.07809422062
0.07809508913
0.07809595851
0.07809682865
0.0780976996
0.07809857141
0.0780994441
0.07810031766
0.07810119203
0.07810206711
0.07810294281
0.07810381904
0.07810469574
0.07810557285
0.07810645034
0.0781073282
0.07810820644
0.07810908507
0.0781099641
0.07811084354
0.0781117234
0.0781126037
0.07811348444
0.07811436561
0.07811524723
0.07811612928
0.07811701177
0.0781178947
0.07811877805
0.07811966184
0.07812054606
0.0781214307
0.07812231578
0.07812320128
0.07812408721
0.07812497357
0.07812586035
0.07812674757
0.07812763521
0.07812852327
0.07812941177
0.07813030069
0.07813119004