# vtk DataFile Version 2.0
FlowField
ASCII
DATASET STRUCTURED_GRID
DIMENSIONS 400 1 200
POINTS 80000 float
0 0 0
0.08 0 0
0.16 0 0
0.24 0 0
0.32 0 0
0.4 0 0
0.48 0 0
0.56 0 0
0.64 0 0
0.72 0 0
0.8 0 0
0.88 0 0
0.96 0 0
1.04 0 0
1.12 0 0
1.2 0 0
1.28 0 0
1.36 0 0
1.44 0 0
1.52 0 0
1.6 0 0
1.68 0 0
1.76 0 0
1.84 0 0
1.92 0 0
2 0 0
2.08 0 0
2.16 0 0
2.24 0 0
2.32 0 0
2.4 0 0
2.48 0 0
2.56 0 0
2.64 0 0
2.72 0 0
2.8 0 0
2.88 0 0
2.96 0 0
3.04 0 0
3.12 0 0
3.2 0 0
3.28 0 0
3.36 0 0
3.44 0 0
3.52 0 0
3.6 0 0
3.68 0 0
3.76 0 0
3.84 0 0
3.92 0 0
4 0 0
4.08 0 0
4.16 0 0
4.24 0 0
4.32 0 0
4.4 0 0
4.48 0 0
4.56 0 0
4.64 0 0
4.72 0 0
4.8 0 0
4.88 0 0
4.96 0 0
5.04 0 0
5.12 0 0
5.2 0 0
5.28 0 0
5.36 0 0
5.44 0 0
5.52 0 0
5.6 0 0
5.68 0 0
5.76 0 0
5.84 0 0
5.92 0 0
6 0 0
6.08 0 0
6.16 0 0
6.24 0 0
6.32 0 0
6.4 0 0
6.48 0 0
6.56 0 0
6.64 0 0
6.72 0 0
6.8 0 0
6.88 0 0
6.96 0 0
7.04 0 0
7.12 0 0
7.2 0 0
7.28 0 0
7.36 0 0
7.44 0 0
7.52 0 0
7.6 0 0
7.68 0 0
7.76 0 0
7.84 0 0
7.92 0 0
8 0 0
8.08 0 0
8.16 0 0
8.24 0 0
8.32 0 0
8.4 0 0
8.48 0 0
8.56 0 0
8.64 0 0
8.72 0 0
8.8 0 0
8.88 0 0
8.96 0 0
9.04 0 0
9.12 0 0
9.2 0 0
9.28 0 0
9.36 0 0
9.44 0 0
9.52 0 0
9.6 0 0
9.68 0 0
9.76 0 0
9.84 0 0
9.92 0 0
10 0 0
10.08 0 0
10.16 0 0
10.24 0 0
10.32 0 0
10.4 0 0
10.48 0 0
10.56 0 0
10.64 0 0
10.72 0 0
10.8 0 0
10.88 0 0
10.96 0 0
11.04 0 0
11.12 0 0
11.2 0 0
11.28 0 0
11.36 0 0
11.44 0 0
11.52 0 0
11.6 0 0
11.68 0 0
11.76 0 0
11.84 0 0
11.92 0 0
12 0 0
12.08 0 0
12.16 0 0
12.24 0 0
12.32 0 0
12.4 0 0
12.48 0 0
12.56 0 0
12.64 0 0
12.72 0 0
12.8 0 0
12.88 0 0
12.96 0 0
13.04 0 0
13.12 0 0
13.2 0 0
13.28 0 0
13.36 0 0
13.44 0 0
13.52 0 0
13.6 0 0
13.68 0 0
13.76 0 0
13.84 0 0
13.92 0 0
14 0 0
14.08 0 0
14.16 0 0
14.24 0 0
14.32 0 0
14.4 0 0
14.48 0 0
14.56 0 0
14.64 0 0
14.72 0 0
14.8 0 0
14.88 0 0
14.96 0 0
15.04 0 0
15.12 0 0
15.2 0 0
15.28 0 0
15.36 0 0
15.44 0 0
15.52 0 0
15.6 0 0
15.68 0 0
15.76 0 0
15.84 0 0
15.92 0 0
16 0 0
16.08 0 0
16.16 0 0
16.24 0 0
16.32 0 0
16.4 0 0
16.48 0 0
16.56 0 0
16.64 0 0
16.72 0 0
16.8 0 0
16.88 0 0
16.96 0 0
17.04 0 0
17.12 0 0
17.2 0 0
17.28 0 0
17.36 0 0
17.44 0 0
17.52 0 0
17.6 0 0
17.68 0 0
17.76 0 0
17.84 0 0
17.92 0 0
18 0 0
18.08 0 0
18.16 0 0
18.24 0 0
18.32 0 0
18.4 0 0
18.48 0 0
18.56 0 0
18.64 0 0
18.72 0 0
18.8 0 0
18.88 0 0
18.96 0 0
19.04 0 0
19.12 0 0
19.2 0 0
19.28 0 0
19.36 0 0
19.44 0 0
19.52 0 0
19.6 0 0
19.68 0 0
19.76 0 0
19.84 0 0
19.92 0 0
20 0 0
20.08 0 0
20.16 0 0
20.24 0 0
20.32 0 0
20.4 0 0
20.48 0 0
20.56 0 0
20.64 0 0
20.72 0 0
20.8 0 0
20.88 0 0
20.96 0 0
21.04 0 0
21.12 0 0
21.2 0 0
21.28 0 0
21.36 0 0
21.44 0 0
21.52 0 0
21.6 0 0
21.68 0 0
21.76 0 0
21.84 0 0
21.92 0 0
22 0 0
22.08 0 0
22.16 0 0
22.24 0 0
22.32 0 0
22.4 0 0
22.48 0 0
22.56 0 0
22.64 0 0
22.72 0 0
22.8 0 0
22.88 0 0
22.96 0 0
23.04 0 0
23.12 0 0
23.2 0 0
23.28 0 0
23.36 0 0
23.44 0 0
23.52 0 0
23.6 0 0
23.68 0 0
23.76 0 0
23.84 0 0
23.92 0 0
24 0 0
24.08 0 0
24.16 0 0
24.24 0 0
24.32 0 0
24.4 0 0
24.48 0 0
24.56 0 0
24.64 0 0
24.72 0 0
24.8 0 0
24.88 0 0
24.96 0 0
25.04 0 0
25.12 0 0
25.2 0 0
25.28 0 0
25.36 0 0
25.44 0 0
25.52 0 0
25.6 0 0
25.68 0 0
25.76 0 0
25.84 0 0
25.92 0 0
26 0 0
26.08 0 0
26.16 0 0
26.24 0 0
26.32 0 0
26.4 0 0
26.48 0 0
26.56 0 0
26.64 0 0
26.72 0 0
26.8 0 0
26.88 0 0
26.96 0 0
27.04 0 0
27.12 0 0
27.2 0 0
27.28 0 0
27.36 0 0
27.44 0 0
27.52 0 0
27.6 0 0
27.68 0 0
27.76 0 0
27.84 0 0
27.92 0 0
28 0 0
28.08 0 0
28.16 0 0
28.24 0 0
28.32 0 0
28.4 0 0
28.48 0 0
28.56 0 0
28.64 0 0
28.72 0 0
28.8 0 0
28.88 0 0
28.96 0 0
29.04 0 0
29.12 0 0
29.2 0 0
29.28 0 0
29.36 0 0
29.44 0 0
29.52 0 0
29.6 0 0
29.68 0 0
29.76 0 0
29.84 0 0
29.92 0 0
30 0 0
30.08 0 0
30.16 0 0
30.24 0 0
30.32 0 0
30.4 0 0
30.48 0 0
30.56 0 0
30.64 0 0
30.72 0 0
30.8 0 0
30.88 0 0
30.96 0 0
31.04 0 0
31.12 0 0
31.2 0 0
31.28 0 0
31.36 0 0
31.44 0 0
31.52 0 0
31.6 0 0
31.68 0 0
31.76 0 0
31.84 0 0
31.92 0 0
0 0.005 0
0.08 0.005 0
0.16 0.005 0
0.24 0.005 0
0.32 0.005 0
0.4 0.005 0
0.48 0.005 0
0.56 0.005 0
0.64 0.005 0
0.72 0.005 0
0.8 0.005 0
0.88 0.005 0
0.96 0.005 0
1.04 0.005 0
1.12 0.005 0
1.2 0.005 0
1.28 0.005 0
1.36 0.005 0
1.44 0.005 0
1.52 0.005 0
1.6 0.005 0
1.68 0.005 0
1.76 0.005 0
1.84 0.005 0
1.92 0.005 0
2 0.005 0
2.08 0.005 0
2.16 0.005 0
2.24 0.005 0
2.32 0.005 0
2.4 0.005 0
2.48 0.005 0
2.56 0.005 0
2.64 0.005 0
2.72 0.005 0
2.8 0.005 0
2.88 0.005 0
2.96 0.005 0
3.04 0.005 0
3.12 0.005 0
3.2 0.005 0
3.28 0.005 0
3.36 0.005 0
3.44 0.005 0
3.52 0.005 0
3.6 0.005 0
3.68 0.005 0
3.76 0.005 0
3.84 0.005 0
3.92 0.005 0
4 0.005 0
4.08 0.005 0
4.16 0.005 0
4.24 0.005 0
4.32 0.005 0
4.4 0.005 0
4.48 0.005 0
4.56 0.005 0
4.64 0.005 0
4.72 0.005 0
4.8 0.005 0
4.88 0.005 0
4.96 0.005 0
5.04 0.005 0
5.12 0.005 0
5.2 0.005 0
5.28 0.005 0
5.36 0.005 0
5.44 0.005 0
5.52 0.005 0
5.6 0.005 0
5.68 0.005 0
5.76 0.005 0
5.84 0.005 0
5.92 0.005 0
6 0.005 0
6.08 0.005 0
6.16 0.005 0
6.24 0.005 0
6.32 0.005 0
6.4 0.005 0
6.48 0.005 0
6.56 0.005 0
6.64 0.005 0
6.72 0.005 0
6.8 0.005 0
6.88 0.005 0
6.96 0.005 0
7.04 0.005 0
7.12 0.005 0
7.2 0.005 0
7.28 0.005 0
7.36 0.005 0
7.44 0.005 0
7.52 0.005 0
7.6 0.005 0
7.68 0.005 0
7.76 0.005 0
7.84 0.005 0
7.92 0.005 0
8 0.005 0
8.08 0.005 0
8.16 0.005 0
8.24 0.005 0
8.32 0.005 0
8.4 0.005 0
8.48 0.005 0
8.56 0.005 0
8.64 0.005 0
8.72 0.005 0
8.8 0.005 0
8.88 0.005 0
8.96 0.005 0
9.04 0.005 0
9.12 0.005 0
9.2 0.005 0
9.28 0.005 0
9.36 0.005 0
9.44 0.005 0
9.52 0.005 0
9.6 0.005 0
9.68 0.005 0
9.76 0.005 0
9.84 0.005 0
9.92 0.005 0
10 0.005 0
10.08 0.005 0
10.16 0.005 0
10.24 0.005 0
10.32 0.005 0
10.4 0.005 0
10.48 0.005 0
10.56 0.005 0
10.64 0.005 0
10.72 0.005 0
10.8 0.005 0
10.88 0.005 0
10.96 0.005 0
11.04 0.005 0
11.12 0.005 0
11.2 0.005 0
11.28 0.005 0
11.36 0.005 0
11.44 0.005 0
11.52 0.005 0
11.6 0.005 0
11.68 0.005 0
11.76 0.005 0
11.84 0.005 0
11.92 0.005 0
12 0.005 0
12.08 0.005 0
12.16 0.005 0
12.24 0.005 0
12.32 0.005 0
12.4 0.005 0
12.48 0.005 0
12.56 0.005 0
12.64 0.005 0
12.72 0.005 0
12.8 0.005 0
12.88 0.005 0
12.96 0.005 0
13.04 0.005 0
13.12 0.005 0
13.2 0.005 0
13.28 0.005 0
13.36 0.005 0
13.44 0.005 0
13.52 0.005 0
13.6 0.005 0
13.68 0.005 0
13.76 0.005 0
13.84 0.005 0
13.92 0.005 0
14 0.005 0
14.08 0.005 0
14.16 0.005 0
14.24 0.005 0
14.32 0.005 0
14.4 0.005 0
14.48 0.005 0
14.56 0.005 0
14.64 0.005 0
14.72 0.005 0
14.8 0.005 0
14.88 0.005 0
14.96 0.005 0
15.04 0.005 0
15.12 0.005 0
15.2 0.005 0
15.28 0.005 0
15.36 0.005 0
15.44 0.005 0
15.52 0.005 0
15.6 0.005 0
15.68 0.005 0
15.76 0.005 0
15.84 0.005 0
15.92 0.005 0
16 0.005 0
16.08 0.005 0
16.16 0.005 0
16.24 0.005 0
16.32 0.005 0
16.4 0.005 0
16.48 0.005 0
16.56 0.005 0
16.64 0.005 0
16.72 0.005 0
16.8 0.005 0
16.88 0.005 0
16.96 0.005 0
17.04 0.005 0
17.12 0.005 0
17.2 0.005 0
17.28 0.005 0
17.36 0.005 0
17.44 0.005 0
17.52 0.005 0
17.6 0.005 0
17.68 0.005 0
17.76 0.005 0
17.84 0.005 0
17.92 0.005 0
18 0.005 0
18.08 0.005 0
18.16 0.005 0
18.24 0.005 0
18.32 0.005 0
18.4 0.005 0
18.48 0.005 0
18.56 0.005 0
18.64 0.005 0
18.72 0.005 0
18.8 0.005 0
18.88 0.005 0
18.96 0.005 0
19.04 0.005 0
19.12 0.005 0
19.2 0.005 0
19.28 0.005 0
19.36 0.005 0
19.44 0.005 0
19.52 0.005 0
19.6 0.005 0
19.68 0.005 0
19.76 0.005 0
19.84 0.005 0
19.92 0.005 0
20 0.005 0
20.08 0.005 0
20.16 0.005 0
20.24 0.005 0
20.32 0.005 0
20.4 0.005 0
20.48 0.005 0
20.56 0.005 0
20.64 0.005 0
20.72 0.005 0
20.8 0.005 0
20.88 0.005 0
20.96 0.005 0
21.04 0.005 0
21.12 0.005 0
21.2 0.005 0
21.28 0.005 0
21.36 0.005 0
21.44 0.005 0
21.52 0.005 0
21.6 0.005 0
21.68 0.005 0
21.76 0.005 0
21.84 0.005 0
21.92 0.005 0
22 0.005 0
22.08 0.005 0
22.16 0.005 0
22.24 0.005 0
22.32 0.005 0
22.4 0.005 0
22.48 0.005 0
22.56 0.005 0
22.64 0.005 0
22.72 0.005 0
22.8 0.005 0
22.88 0.005 0
22.96 0.005 0
23.04 0.005 0
23.12 0.005 0
23.2 0.005 0
23.28 0.005 0
23.36 0.005 0
23.44 0.005 0
23.52 0.005 0
23.6 0.005 0
23.68 0.005 0
23.76 0.005 0
23.84 0.005 0
23.92 0.005 0
24 0.005 0
24.08 0.005 0
24.16 0.005 0
24.24 0.005 0
24.32 0.005 0
24.4 0.005 0
24.48 0.005 0
24.56 0.005 0
24.64 0.005 0
24.72 0.005 0
24.8 0.005 0
24.88 0.005 0
24.96 0.005 0
25.04 0.005 0
25.12 0.005 0
25.2 0.005 0
25.28 0.005 0
25.36 0.005 0
25.44 0.005 0
25.52 0.005 0
25.6 0.005 0
25.68 0.005 0
25.76 0.005 0
25.84 0.005 0
25.92 0.005 0
26 0.005 0
26.08 0.005 0
26.16 0.005 0
26.24 0.005 0
26.32 0.005 0
26.4 0.005 0
26.48 0.005 0
26.56 0.005 0
26.64 0.005 0
26.72 0.005 0
26.8 0.005 0
26.88 0.005 0
26.96 0.005 0
27.04 0.005 0
27.12 0.005 0
27.2 0.005 0
27.28 0.005 0
27.36 0.005 0
27.44 0.005 0
27.52 0.005 0
27.6 0.005 0
27.68 0.005 0
27.76 0.005 0
27.84 0.005 0
27.92 0.005 0
28 0.005 0
28.08 0.005 0
28.16 0.005 0
28.24 0.005 0
28.32 0.005 0
28.4 0.005 0
28.48 0.005 0
28.56 0.005 0
28.64 0.005 0
28.72 0.005 0
28.8 0.005 0
28.88 0.005 0
28.96 0.005 0
29.04 0.005 0
29.12 0.005 0
29.2 0.005 0
29.28 0.005 0
29.36 0.005 0
29.44 0.005 0
29.52 0.005 0
29.6 0.005 0
29.68 0.005 0
29.76 0.005 0
29.84 0.005 0
29.92 0.005 0
30 0.005 0
30.08 0.005 0
30.16 0.005 0
30.24 0.005 0
30.32 0.005 0
30.4 0.005 0
30.48 0.005 0
30.56 0.005 0
30.64 0.005 0
30.72 0.005 0
30.8 0.005 0
30.88 0.005 0
30.96 0.005 0
31.04 0.005 0
31.12 0.005 0
31.2 0.005 0
31.28 0.005 0
31.36 0.005 0
31.44 0.005 0
31.52 0.005 0
31.6 0.005 0
31.68 0.005 0
31.76 0.005 0
31.84 0.005 0
31.92 0.005 0
0 0.01 0
0.08 0.01 0
0.16 0.01 0
0.24 0.01 0
0.32 0.01 0
0.4 0.01 0
0.48 0.01 0
0.56 0.01 0
0.64 0.01 0
0.72 0.01 0
0.8 0.01 0
0.88 0.01 0
0.96 0.01 0
1.04 0.01 0
1.12 0.01 0
1.2 0.01 0
1.28 0.01 0
1.36 0.01 0
1.44 0.01 0
1.52 0.01 0
1.6 0.01 0
1.68 0.01 0
1.76 0.01 0
1.84 0.01 0
1.92 0.01 0
2 0.01 0
2.08 0.01 0
2.16 0.01 0
2.24 0.01 0
2.32 0.01 0
2.4 0.01 0
2.48 0.01 0
2.56 0.01 0
2.64 0.01 0
2.72 0.01 0
2.8 0.01 0
2.88 0.01 0
2.96 0.01 0
3.04 0.01 0
3.12 0.01 0
3.2 0.01 0
3.28 0.01 0
3.36 0.01 0
3.44 0.01 0
3.52 0.01 0
3.6 0.01 0
3.68 0.01 0
3.76 0.01 0
3.84 0.01 0
3.92 0.01 0
4 0.01 0
4.08 0.01 0
4.16 0.01 0
4.24 0.01 0
4.32 0.01 0
4.4 0.01 0
4.48 0.01 0
4.56 0.01 0
4.64 0.01 0
4.72 0.01 0
4.8 0.01 0
4.88 0.01 0
4.96 0.01 0
5.04 0.01 0
5.12 0.01 0
[...]
POINT_DATA 80000

SCALARS u float 1
LOOKUP_TABLE default
0
-0.1316625604
-0.06826904008
-0.05229576416
-0.04441959991
-0.03957645929
-0.03625933734
-0.0338322703
-0.03197226614
-0.0304955643
-0.02928947302
-0.02828115172
-0.02742163771
-0.02667697902
-0.02602300596
-0.02544210625
-0.02492116735
-0.02445022834
-0.02402157761
-0.02362913794
-0.02326804042
-0.0229343247
-0.02262472501
-0.02233651497
-0.02206739351
-0.02181539967
-0.02157884801
-0.02135627899
-0.02114642028
-0.02094815621
-0.02076050326
-0.02058259039
-0.02041364277
-0.02025296853
-0.02009994759
-0.01995402241
-0.01981469011
-0.01968149579
-0.01955402688
-0.01943190817
-0.01931479768
-0.01920238297
-0.01909437795
-0.01899052017
-0.01889056834
-0.01879430026
-0.01870151091
-0.0186120108
-0.01852562454
-0.01844218952
-0.01836155472
-0.01828357976
-0.01820813389
-0.01813509523
-0.01806434998
-0.01799579179
-0.01792932112
-0.01786484472
-0.01780227516
-0.01774153031
-0.01768253301
-0.01762521065
-0.01756949486
-0.01751532119
-0.01746262883
-0.01741136037
-0.01736146152
-0.01731288096
-0.01726557006
-0.01721948277
-0.01717457541
-0.01713080652
-0.01708813673
-0.01704652861
-0.01700594655
-0.01696635667
-0.01692772668
-0.01689002578
-0.01685322461
-0.01681729514
-0.01678221058
-0.01674794532
-0.01671447486
-0.01668177576
-0.01664982554
-0.01661860267
-0.0165880865
-0.01655825721
-0.01652909576
-0.01650058385
-0.0164727039
-0.01644543899
-0.01641877283
-0.01639268972
-0.01636717455
-0.01634221273
-0.0163177902
-0.01629389338
-0.01627050915
-0.01624762483
-0.01622522819
-0.01620330736
-0.01618185088
-0.01616084765
-0.0161402869
-0.01612015823
-0.01610045152
-0.01608115697
-0.01606226509
-0.01604376664
-0.01602565265
-0.01600791444
-0.01599054353
-0.0159735317
-0.01595687096
-0.01594055354
-0.01592457186
-0.01590891856
-0.01589358646
-0.01587856858
-0.01586385812
-0.01584944845
-0.0158353331
-0.01582150577
-0.01580796031
-0.01579469074
-0.0157816912
-0.01576895599
-0.01575647953
-0.0157442564
-0.01573228128
-0.01572054899
-0.01570905446
-0.01569779274
-0.01568675901
-0.01567594854
-0.0156653567
-0.015654979
-0.01564481101
-0.01563484842
-0.01562508701
-0.01561552266
-0.01560615134
-0.01559696908
-0.01558797204
-0.01557915644
-0.01557051856
-0.01556205481
-0.01555376163
-0.01554563557
-0.01553767323
-0.01552987128
-0.01552222648
-0.01551473565
-0.01550739567
-0.01550020349
-0.01549315613
-0.01548625065
-0.01547948419
-0.01547285395
-0.01546635718
-0.01545999119
-0.01545375335
-0.01544764106
-0.01544165182
-0.01543578312
-0.01543003256
-0.01542439775
-0.01541887637
-0.01541346613
-0.0154081648
-0.01540297019
-0.01539788015
-0.01539289259
-0.01538800544
-0.01538321668
-0.01537852435
-0.01537392649
-0.01536942122
-0.01536500668
-0.01536068103
-0.01535644251
-0.01535228935
-0.01534821984
-0.0153442323
-0.01534032509
-0.0153364966
-0.01533274523
-0.01532906945
-0.01532546773
-0.01532193859
-0.01531848057
-0.01531509225
-0.01531177221
-0.01530851909
-0.01530533154
-0.01530220825
-0.01529914793
-0.01529614931
-0.01529321115
-0.01529033224
-0.01528751138
-0.01528474741
-0.01528203918
-0.01527938558
-0.0152767855
-0.01527423788
-0.01527174164
-0.01526929577
-0.01526689925
-0.01526455108
-0.0152622503
-0.01525999595
-0.01525778709
-0.01525562281
-0.01525350222
-0.01525142443
-0.01524938859
-0.01524739384
-0.01524543936
-0.01524352435
-0.015241648
-0.01523980953
-0.0152380082
-0.01523624324
-0.01523451392
-0.01523281953
-0.01523115936
-0.01522953273
-0.01522793895
-0.01522637737
-0.01522484733
-0.01522334821
-0.01522187937
-0.01522044021
-0.01521903013
-0.01521764855
-0.01521629488
-0.01521496856
-0.01521366905
-0.01521239581
-0.0152111483
-0.015209926
-0.01520872841
-0.01520755502
-0.01520640536
-0.01520527893
-0.01520417528
-0.01520309394
-0.01520203446
-0.0152009964
-0.01519997934
-0.01519898283
-0.01519800648
-0.01519704986
-0.0151961126
-0.01519519428
-0.01519429454
-0.015193413
-0.01519254928
-0.01519170303
-0.0151908739
-0.01519006153
-0.0151892656
-0.01518848577
-0.01518772171
-0.01518697311
-0.01518623965
-0.01518552103
-0.01518481695
-0.01518412711
-0.01518345123
-0.01518278902
-0.01518214021
-0.01518150452
-0.0151808817
-0.01518027148
-0.01517967361
-0.01517908783
-0.01517851391
-0.0151779516
-0.01517740067
-0.01517686089
-0.01517633203
-0.01517581387
-0.0151753062
-0.0151748088
-0.01517432147
-0.01517384401
-0.0151733762
-0.01517291787
-0.01517246881
-0.01517202884
-0.01517159777
-0.01517117543
-0.01517076163
-0.01517035622
-0.01516995901
-0.01516956983
-0.01516918854
-0.01516881497
-0.01516844895
-0.01516809035
-0.015167739
-0.01516739477
-0.0151670575
-0.01516672707
-0.01516640332
-0.01516608613
-0.01516577535
-0.01516547087
-0.01516517255
-0.01516488028
-0.01516459392
-0.01516431335
-0.01516403847
-0.01516376915
-0.01516350529
-0.01516324677
-0.01516299348
-0.01516274532
-0.01516250218
-0.01516226397
-0.01516203058
-0.01516180192
-0.01516157788
-0.01516135838
-0.01516114333
-0.01516093263
-0.0151607262
-0.01516052395
-0.01516032579
-0.01516013164
-0.01515994143
-0.01515975507
-0.01515957248
-0.01515939359
-0.01515921832
-0.0151590466
-0.01515887836
-0.01515871352
-0.01515855202
-0.0151583938
-0.01515823878
-0.01515808689
-0.01515793808
-0.01515779229
-0.01515764945
-0.0151575095
-0.01515737238
-0.01515723805
-0.01515710643
-0.01515697748
-0.01515685113
-0.01515672736
-0.01515660608
-0.01515648727
-0.01515637084
-0.01515625681
-0.01515614504
-0.01515603559
-0.01515592829
-0.01515582324
-0.01515572023
-0.0151556194
-0.01515552051
-0.01515542375
-0.0151553288
-0.01515523594
-0.01515514476
-0.01515505566
-0.01515496811
-0.01515488263
-0.01515479852
-0.01515471654
-0.01515463574
-0.01515455713
-0.01515447946
-0.01515440414
-0.01515432945
-0.01515425733
-0.01515418546
-0.01515411649
-0.01515404729
-0.01515398149
-0.01515391483
-0.01515385231
-0.01515378818
-0.0151537293
-0.01515366798
-0.01515361363
-0.01515355619
-0.01515350856
-0.01515345814
-0.01515342223
-0.01515338669
-0.015153372
-0.01515336631
-0.01515336631
-0.01515336631
1
0.1316625604
0.06826904008
0.05229576416
0.04441959991
0.03957645929
0.03625933734
0.0338322703
0.03197226614
0.0304955643
0.02928947302
0.02828115172
0.02742163771
0.02667697902
0.02602300596
0.02544210625
0.02492116735
0.02445022834
0.02402157761
0.02362913794
0.02326804042
0.0229343247
0.02262472501
0.02233651497
0.02206739351
0.02181539967
0.02157884801
0.02135627899
0.02114642028
0.02094815621
0.02076050326
0.02058259039
0.02041364277
0.02025296853
0.02009994759
0.01995402241
0.01981469011
0.01968149579
0.01955402688
0.01943190817
0.01931479768
0.01920238297
0.01909437795
0.01899052017
0.01889056834
0.01879430026
0.01870151091
0.0186120108
0.01852562454
0.01844218952
0.01836155472
0.01828357976
0.01820813389
0.01813509523
0.01806434998
0.01799579179
0.01792932112
0.01786484472
0.01780227516
0.01774153031
0.01768253301
0.01762521065
0.01756949486
0.01751532119
0.01746262883
0.01741136037
0.01736146152
0.01731288096
0.01726557006
0.01721948277
0.01717457541
0.01713080652
0.01708813673
0.01704652861
0.01700594655
0.01696635667
0.01692772668
0.01689002578
0.01685322461
0.01681729514
0.01678221058
0.01674794532
0.01671447486
0.01668177576
0.01664982554
0.01661860267
0.0165880865
0.01655825721
0.01652909576
0.01650058385
0.0164727039
0.01644543899
0.01641877283
0.01639268972
0.01636717455
0.01634221273
0.0163177902
0.01629389338
0.01627050915
0.01624762483
0.01622522819
0.01620330736
0.01618185088
0.01616084765
0.0161402869
0.01612015823
0.01610045152
0.01608115697
0.01606226509
0.01604376664
0.01602565265
0.01600791444
0.01599054353
0.0159735317
0.01595687096
0.01594055354
0.01592457186
0.01590891856
0.01589358646
0.01587856858
0.01586385812
0.01584944845
0.0158353331
0.01582150577
0.01580796031
0.01579469074
0.0157816912
0.01576895599
0.01575647953
0.0157442564
0.01573228128
0.01572054899
0.01570905446
0.01569779274
0.01568675901
0.01567594854
0.0156653567
0.015654979
0.01564481101
0.01563484842
0.01562508701
0.01561552266
0.01560615134
0.01559696908
0.01558797204
0.01557915644
0.01557051856
0.01556205481
0.01555376163
0.01554563557
0.01553767323
0.01552987128
0.01552222648
0.01551473565
0.01550739567
0.01550020349
0.01549315613
0.01548625065
0.01547948419
0.01547285395
0.01546635718
0.01545999119
0.01545375335
0.01544764106
0.01544165182
0.01543578312
0.01543003256
0.01542439775
0.01541887637
0.01541346613
0.0154081648
0.01540297019
0.01539788015
0.01539289259
0.01538800544
0.01538321668
0.01537852435
0.01537392649
0.01536942122
0.01536500668
0.01536068103
0.01535644251
0.01535228935
0.01534821984
0.0153442323
0.01534032509
0.0153364966
0.01533274523
0.01532906945
0.01532546773
0.01532193859
0.01531848057
0.01531509225
0.01531177221
0.01530851909
0.01530533154
0.01530220825
0.01529914793
0.01529614931
0.01529321115
0.01529033224
0.01528751138
0.01528474741
0.01528203918
0.01527938558
0.0152767855
0.01527423788
0.01527174164
0.01526929577
0.01526689925
0.01526455108
0.0152622503
0.01525999595
0.01525778709
0.01525562281
0.01525350222
0.01525142443
0.01524938859
0.01524739384
0.01524543936
0.01524352435
0.015241648
0.01523980953
0.0152380082
0.01523624324
0.01523451392
0.01523281953
0.01523115936
0.01522953273
0.01522793895
0.01522637737
0.01522484733
0.01522334821
0.01522187937
0.01522044021
0.01521903013
0.01521764855
0.01521629488
0.01521496856
0.01521366905
0.01521239581
0.0152111483
0.015209926
0.01520872841
0.01520755502
0.01520640536
0.01520527893
0.01520417528
0.01520309394
0.01520203446
0.0152009964
0.01519997934
0.01519898283
0.01519800648
0.01519704986
0.0151961126
0.01519519428
0.01519429454
0.015193413
0.01519254928
0.01519170303
0.0151908739
0.01519006153
0.0151892656
0.01518848577
0.01518772171
0.01518697311
0.01518623965
0.01518552103
0.01518481695
0.01518412711
0.01518345123
0.01518278902
0.01518214021
0.01518150452
0.0151808817
0.01518027148
0.01517967361
0.01517908783
0.01517851391
0.0151779516
0.01517740067
0.01517686089
0.01517633203
0.01517581387
0.0151753062
0.0151748088
0.01517432147
0.01517384401
0.0151733762
0.01517291787
0.01517246881
0.01517202884
0.01517159777
0.01517117543
0.01517076163
0.01517035622
0.01516995901
0.01516956983
0.01516918854
0.01516881497
0.01516844895
0.01516809035
0.015167739
0.01516739477
0.0151670575
0.01516672707
0.01516640332
0.01516608613
0.01516577535
0.01516547087
0.01516517255
0.01516488028
0.01516459392
0.01516431335
0.01516403847
0.01516376915
0.01516350529
0.01516324677
0.01516299348
0.01516274532
0.01516250218
0.01516226397
0.01516203058
0.01516180192
0.01516157788
0.01516135838
0.01516114333
0.01516093263
0.0151607262
0.01516052395
0.01516032579
0.01516013164
0.01515994143
0.01515975507
0.01515957248
0.01515939359
0.01515921832
0.0151590466
0.01515887836
0.01515871352
0.01515855202
0.0151583938
0.01515823878
0.01515808689
0.01515793808
0.01515779229
0.01515764945
0.0151575095
0.01515737238
0.01515723805
0.01515710643
0.01515697748
0.01515685113
0.01515672736
0.01515660608
0.01515648727
0.01515637084
0.01515625681
0.01515614504
0.01515603559
0.01515592829
0.01515582324
0.01515572023
0.0151556194
0.01515552051
0.01515542375
0.0151553288
0.01515523594
0.01515514476
0.01515505566
0.01515496811
0.01515488263
0.01515479852
0.01515471654
0.01515463574
0.01515455713
0.01515447946
0.01515440414
0.01515432945
0.01515425733
0.01515418546
0.01515411649
0.01515404729
0.01515398149
0.01515391483
0.01515385231
0.01515378818
0.0151537293
0.01515366798
0.01515361363
0.01515355619
0.01515350856
0.01515345814
0.01515342223
0.01515338669
0.015153372
0.01515336631
0.01515336631
0.01515336631
1
0.3448836491
0.2006672453
0.1549666291
0.1318938664
0.1175978189
0.1077670841
0.1005571198
0.09502405206
0.09062809891
0.0870369002
0.08403490183
0.08147678897
0.07926154562
0.07731711113
0.0755908889
0.07404367262
0.0726456558
0.07137375376
0.07020977348
0.06913914272
0.06815001401
0.06723262356
0.066378826
0.06558175168
0.06483555062
0.06413519842
0.06347634701
0.0628552084
0.0622684628
0.06171318529
0.06118678645
0.06068696394
0.06021166257
0.05975904105
0.05932744424
0.05891537963
0.05852149746
0.05814457371
0.05778349556
0.05743724877
0.0571049069
0.0567856218
0.05647861543
0.05618317261
0.05589863478
0.05562439436
0.05535988989
0.05510460167
0.0548580479
0.05461978125
0.0543893858
0.05416647429
0.05395068568
0.05374168296
0.05353915111
0.05334279538
0.05315233964
0.05296752491
0.05278810805
0.05261386056
0.05244456747
0.05228002633
0.05212004632
0.05196444743
0.05181305965
0.0516657223
0.05152228339
0.05138259902
0.05124653285
0.05111395556
0.05098474445
0.05085878295
0.05073596029
0.05061617108
0.05049931499
0.05038529645
0.05027402435
0.05016541176
0.05005937571
0.04995583691
0.04985471958
0.04975595121
0.04965946239
0.04956518665
0.04947306026
0.0493830221
0.0492950135
0.04920897814
0.04912486187
0.04904261267
0.04896218045
0.04888351701
0.04880657593
0.04873131247
0.04865768348
0.04858564736
0.04851516392
0.04844619436
0.0483787012
0.04831264818
0.04824800026
0.0481847235
0.04812278507
0.04806215315
0.04800279693
0.04794468652
0.04788779293
0.04783208806
0.04777754462
0.0477241361
0.04767183676
0.04762062161
0.04757046631
0.04752134725
0.04747324142
0.04742612644
0.04737998055
0.04733478254
0.04729051177
0.04724714812
0.04720467199
0.04716306429
0.04712230639
0.04708238013
0.0470432678
0.04700495212
0.04696741623
0.04693064367
0.04689461839
0.04685932468
0.04682474725
0.04679087112
0.04675768169
0.04672516467
0.04669330612
0.0466620924
0.04663151017
0.04660154642
0.04657218839
0.04654342364
0.04651523998
0.04648762549
0.04646056852
0.04643405767
0.04640808178
0.04638262994
0.04635769147
0.04633325591
0.04630931304
0.04628585284
0.04626286552
0.04624034148
0.04621827132
0.04619664586
0.0461754561
0.0461546932
0.04613434856
0.0461144137
0.04609488037
0.04607574044
0.04605698598
0.04603860922
0.04602060254
0.04600295847
0.04598566973
0.04596872913
0.04595212968
0.04593586451
0.04591992689
0.04590431022
0.04588900806
0.04587401406
0.04585932204
0.04584492592
0.04583081976
0.04581699771
0.04580345408
0.04579018325
0.04577717976
0.04576443823
0.04575195339
0.04573972008
0.04572773325
0.04571598795
0.04570447932
0.04569320261
0.04568215315
0.04567132638
0.04566071782
0.04565032309
0.0456401379
0.04563015802
0.04562037934
0.0456107978
0.04560140946
0.04559221041
0.04558319687
0.04557436509
0.04556571143
0.04555723231
0.0455489242
0.04554078368
0.04553280738
0.04552499199
0.04551733428
0.04550983107
0.04550247925
0.04549527579
0.04548821769
0.04548130204
0.04547452596
0.04546788664
0.04546138134
0.04545500736
0.04544876204
0.04544264281
0.04543664713
0.0454307725
0.04542501648
0.0454193767
0.04541385081
0.04540843652
0.04540313157
0.04539793376
0.04539284094
0.045387851
0.04538296185
0.04537817147
0.04537347786
0.04536887908
0.04536437321
0.04535995839
0.04535563277
0.04535139456
0.04534724199
0.04534317335
0.04533918692
0.04533528107
0.04533145416
0.0453277046
0.04532403083
0.04532043131
0.04531690457
0.04531344911
0.04531006352
0.04530674637
0.04530349628
0.04530031191
0.04529719192
0.04529413501
0.04529113992
0.0452882054
0.04528533021
0.04528251317
0.0452797531
0.04527704885
0.04527439929
0.04527180332
0.04526925985
0.04526676783
0.04526432621
0.04526193398
0.04525959014
0.04525729372
0.04525504375
0.04525283929
0.04525067943
0.04524856327
0.04524648992
0.04524445851
0.04524246821
0.04524051817
0.04523860759
0.04523673567
0.04523490162
0.04523310469
0.04523134411
0.04522961916
0.04522792912
0.04522627328
0.04522465094
0.04522306144
0.0452215041
0.04521997828
0.04521848334
0.04521701865
0.04521558361
0.04521417761
0.04521280006
0.0452114504
0.04521012806
0.04520883248
0.04520756312
0.04520631945
0.04520510096
0.04520390714
0.04520273747
0.04520159149
0.0452004687
0.04519936864
0.04519829085
0.04519723487
0.04519620028
0.04519518662
0.04519419349
0.04519322046
0.04519226713
0.0451913331
0.04519041798
0.04518952138
0.04518864294
0.04518778228
0.04518693905
0.04518611289
0.04518530345
0.04518451041
0.04518373341
0.04518297216
0.04518222631
0.04518149556
0.04518077961
0.04518007816
0.04517939091
0.04517871758
0.04517805787
0.04517741153
0.04517677827
0.04517615784
0.04517554997
0.04517495441
0.0451743709
0.04517379922
0.04517323911
0.04517269034
0.04517215268
0.04517162591
0.04517110981
0.04517060416
0.04517010875
0.04516962337
0.04516914782
0.0451686819
0.04516822541
0.04516777818
0.04516733999
0.04516691069
0.04516649006
0.04516607798
0.04516567421
0.04516527865
0.04516489107
0.04516451138
0.04516413933
0.04516377487
0.04516341772
0.04516306789
0.04516272505
0.04516238926
0.04516206015
0.04516173784
0.0451614219
0.04516111255
0.04516080925
0.04516051233
0.04516022115
0.04515993619
0.04515965662
0.04515938317
0.04515911472
0.04515885233
0.04515859454
0.0451583428
0.04515809519
0.04515785373
0.04515761584
0.04515738432
0.04515715569
0.0451569338
0.04515671398
0.04515650147
0.04515628999
0.04515608673
0.04515588315
0.04515568914
0.04515549312
0.04515530866
0.04515512014
0.04515494623
0.04515476601
0.04515460517
0.04515443631
0.04515429471
0.0451541461
0.045154038
0.04515393193
0.04515388467
0.04515386343
0.04515386343
0.04515386343
1
0.5187651867
0.3274011946
0.2553467807
0.2178477674
0.1944026528
0.1782107415
0.1663061343
0.1571570571
0.1498824532
0.1439375554
0.1389678787
0.1347337921
0.131068333
0.1278521719
0.124998081
0.1224409665
0.120131304
0.1180307216
0.1161089747
0.1143418408
0.1127096324
0.1111961316
0.1097878156
0.1084732858
0.1072428408
0.1060881531
0.1050020197
0.1039781683
0.1030111045
0.1020959891
0.1012285396
0.1004049493
0.09962182143
0.09887611312
0.09816508989
0.09748628639
0.09683747348
0.09621662996
0.09562191851
0.09505166481
0.09450433962
0.09397854309
0.09347299119
0.09298650378
0.09251799417
0.0920664599
0.09163097468
0.09121068114
0.0908047845
0.09041254686
0.0900332822
0.08966635178
0.08931116013
0.08896715143
0.08863380619
0.0883106383
0.08799719243
0.0876930415
0.08739778461
0.08711104495
0.08683246808
0.08656172019
0.08629848668
0.08604247072
0.08579339203
0.0855509857
0.08531500114
0.08508520113
0.08486136087
0.08464326719
0.08443071781
0.08422352056
0.08402149282
0.08382446086
0.08363225931
0.08344473061
0.08326172458
0.08308309792
0.08290871386
0.08273844172
0.08257215656
0.08240973889
0.0822510743
0.08209605321
0.08194457058
0.08179652568
0.08165182181
0.08151036614
0.08137206945
0.08123684595
0.08110461314
0.08097529156
0.08084880471
0.08072507887
0.08060404293
0.08048562831
0.08036976881
0.0802564005
0.08014546159
0.08003689237
0.07993063507
0.07982663379
0.07972483443
0.07962518458
0.07952763345
0.07943213182
0.07933863194
0.0792470875
0.07915745353
0.0790696864
0.07898374371
0.07889958426
0.078817168
0.07873645601
0.07865741041
0.07857999436
0.078504172
0.07842990841
0.0783571696
0.07828592245
0.07821613468
0.07814777485
0.0780808123
0.07801521712
0.07795096017
0.07788801299
0.07782634782
0.07776593759
0.07770675584
0.07764877677
0.07759197515
0.07753632637
0.07748180638
0.07742839168
0.07737605931
0.07732478683
0.07727455231
0.0772253343
0.07717711185
0.07712986446
0.07708357208
0.07703821511
0.07699377438
0.07695023113
0.07690756701
0.07686576407
0.07682480473
0.0767846718
0.07674534847
0.07670681825
0.07666906504
0.07663207306
0.07659582686
0.07656031132
0.07652551163
0.0764914133
0.07645800214
0.07642526425
0.07639318601
0.07636175411
0.07633095548
0.07630077735
0.07627120719
0.07624223274
0.07621384199
0.07618602317
0.07615876476
0.07613205546
0.07610588421
0.07608024019
0.07605511277
0.07603049156
0.07600636637
0.07598272722
0.07595956432
0.07593686811
0.07591462919
0.07589283836
0.07587148661
0.07585056511
0.07583006522
0.07580997844
0.07579029649
0.07577101121
0.07575211463
0.07573359894
0.07571545648
0.07569767975
0.07568026139
0.07566319419
0.0756464711
0.0756300852
0.07561402971
0.07559829799
0.07558288351
0.07556777992
0.07555298094
0.07553848046
0.07552427248
0.0755103511
0.07549671057
0.07548334524
0.07547024957
0.07545741813
0.07544484561
0.0754325268
0.07542045659
0.07540862998
0.07539704207
0.07538568805
0.07537456322
0.07536366296
0.07535298275