# vtk DataFile Version 2.0
FlowField
ASCII
DATASET STRUCTURED_GRID
DIMENSIONS 400 1 200
POINTS 80000 float
0 0 0
0.08 0 0
0.16 0 0
0.24 0 0
0.32 0 0
0.4 0 0
0.48 0 0
0.56 0 0
0.64 0 0
0.72 0 0
0.8 0 0
0.88 0 0
0.96 0 0
1.04 0 0
1.12 0 0
1.2 0 0
1.28 0 0
1.36 0 0
1.44 0 0
1.52 0 0
1.6 0 0
1.68 0 0
1.76 0 0
1.84 0 0
1.92 0 0
2 0 0
2.08 0 0
2.16 0 0
2.24 0 0
2.32 0 0
2.4 0 0
2.48 0 0
2.56 0 0
2.64 0 0
2.72 0 0
2.8 0 0
2.88 0 0
2.96 0 0
3.04 0 0
3.12 0 0
3.2 0 0
3.28 0 0
3.36 0 0
3.44 0 0
3.52 0 0
3.6 0 0
3.68 0 0
3.76 0 0
3.84 0 0
3.92 0 0
4 0 0
4.08 0 0
4.16 0 0
4.24 0 0
4.32 0 0
4.4 0 0
4.48 0 0
4.56 0 0
4.64 0 0
4.72 0 0
4.8 0 0
4.88 0 0
4.96 0 0
5.04 0 0
5.12 0 0
5.2 0 0
5.28 0 0
5.36 0 0
5.44 0 0
5.52 0 0
5.6 0 0
5.68 0 0
5.76 0 0
5.84 0 0
5.92 0 0
6 0 0
6.08 0 0
6.16 0 0
6.24 0 0
6.32 0 0
6.4 0 0
6.48 0 0
6.56 0 0
6.64 0 0
6.72 0 0
6.8 0 0
6.88 0 0
6.96 0 0
7.04 0 0
7.12 0 0
7.2 0 0
7.28 0 0
7.36 0 0
7.44 0 0
7.52 0 0
7.6 0 0
7.68 0 0
7.76 0 0
7.84 0 0
7.92 0 0
8 0 0
8.08 0 0
8.16 0 0
8.24 0 0
8.32 0 0
8.4 0 0
8.48 0 0
8.56 0 0
8.64 0 0
8.72 0 0
8.8 0 0
8.88 0 0
8.96 0 0
9.04 0 0
9.12 0 0
9.2 0 0
9.28 0 0
9.36 0 0
9.44 0 0
9.52 0 0
9.6 0 0
9.68 0 0
9.76 0 0
9.84 0 0
9.92 0 0
10 0 0
10.08 0 0
10.16 0 0
10.24 0 0
10.32 0 0
10.4 0 0
10.48 0 0
10.56 0 0
10.64 0 0
10.72 0 0
10.8 0 0
10.88 0 0
10.96 0 0
11.04 0 0
11.12 0 0
11.2 0 0
11.28 0 0
11.36 0 0
11.44 0 0
11.52 0 0
11.6 0 0
11.68 0 0
11.76 0 0
11.84 0 0
11.92 0 0
12 0 0
12.08 0 0
12.16 0 0
12.24 0 0
12.32 0 0
12.4 0 0
12.48 0 0
12.56 0 0
12.64 0 0
12.72 0 0
12.8 0 0
12.88 0 0
12.96 0 0
13.04 0 0
13.12 0 0
13.2 0 0
13.28 0 0
13.36 0 0
13.44 0 0
13.52 0 0
13.6 0 0
13.68 0 0
13.76 0 0
13.84 0 0
13.92 0 0
14 0 0
14.08 0 0
14.16 0 0
14.24 0 0
14.32 0 0
14.4 0 0
14.48 0 0
14.56 0 0
14.64 0 0
14.72 0 0
14.8 0 0
14.88 0 0
14.96 0 0
15.04 0 0
15.12 0 0
15.2 0 0
15.28 0 0
15.36 0 0
15.44 0 0
15.52 0 0
15.6 0 0
15.68 0 0
15.76 0 0
15.84 0 0
15.92 0 0
16 0 0
16.08 0 0
16.16 0 0
16.24 0 0
16.32 0 0
16.4 0 0
16.48 0 0
16.56 0 0
16.64 0 0
16.72 0 0
16.8 0 0
16.88 0 0
16.96 0 0
17.04 0 0
17.12 0 0
17.2 0 0
17.28 0 0
17.36 0 0
17.44 0 0
17.52 0 0
17.6 0 0
17.68 0 0
17.76 0 0
17.84 0 0
17.92 0 0
18 0 0
18.08 0 0
18.16 0 0
18.24 0 0
18.32 0 0
18.4 0 0
18.48 0 0
18.56 0 0
18.64 0 0
18.72 0 0
18.8 0 0
18.88 0 0
18.96 0 0
19.04 0 0
19.12 0 0
19.2 0 0
19.28 0 0
19.36 0 0
19.44 0 0
19.52 0 0
19.6 0 0
19.68 0 0
19.76 0 0
19.84 0 0
19.92 0 0
20 0 0
20.08 0 0
20.16 0 0
20.24 0 0
20.32 0 0
20.4 0 0
20.48 0 0
20.56 0 0
20.64 0 0
20.72 0 0
20.8 0 0
20.88 0 0
20.96 0 0
21.04 0 0
21.12 0 0
21.2 0 0
21.28 0 0
21.36 0 0
21.44 0 0
21.52 0 0
21.6 0 0
21.68 0 0
21.76 0 0
21.84 0 0
21.92 0 0
22 0 0
22.08 0 0
22.16 0 0
22.24 0 0
22.32 0 0
22.4 0 0
22.48 0 0
22.56 0 0
22.64 0 0
22.72 0 0
22.8 0 0
22.88 0 0
22.96 0 0
23.04 0 0
23.12 0 0
23.2 0 0
23.28 0 0
23.36 0 0
23.44 0 0
23.52 0 0
23.6 0 0
23.68 0 0
23.76 0 0
23.84 0 0
23.92 0 0
24 0 0
24.08 0 0
24.16 0 0
24.24 0 0
24.32 0 0
24.4 0 0
24.48 0 0
24.56 0 0
24.64 0 0
24.72 0 0
24.8 0 0
24.88 0 0
24.96 0 0
25.04 0 0
25.12 0 0
25.2 0 0
25.28 0 0
25.36 0 0
25.44 0 0
25.52 0 0
25.6 0 0
25.68 0 0
25.76 0 0
25.84 0 0
25.92 0 0
26 0 0
26.08 0 0
26.16 0 0
26.24 0 0
26.32 0 0
26.4 0 0
26.48 0 0
26.56 0 0
26.64 0 0
26.72 0 0
26.8 0 0
26.88 0 0
26.96 0 0
27.04 0 0
27.12 0 0
27.2 0 0
27.28 0 0
27.36 0 0
27.44 0 0
27.52 0 0
27.6 0 0
27.68 0 0
27.76 0 0
27.84 0 0
27.92 0 0
28 0 0
28.08 0 0
28.16 0 0
28.24 0 0
28.32 0 0
28.4 0 0
28.48 0 0
28.56 0 0
28.64 0 0
28.72 0 0
28.8 0 0
28.88 0 0
28.96 0 0
29.04 0 0
29.12 0 0
29.2 0 0
29.28 0 0
29.36 0 0
29.44 0 0
29.52 0 0
29.6 0 0
29.68 0 0
29.76 0 0
29.84 0 0
29.92 0 0
30 0 0
30.08 0 0
30.16 0 0
30.24 0 0
30.32 0 0
30.4 0 0
30.48 0 0
30.56 0 0
30.64 0 0
30.72 0 0
30.8 0 0
30.88 0 0
30.96 0 0
31.04 0 0
31.12 0 0
31.2 0 0
31.28 0 0
31.36 0 0
31.44 0 0
31.52 0 0
31.6 0 0
31.68 0 0
31.76 0 0
31.84 0 0
31.92 0 0
0 0.005 0
0.08 0.005 0
0.16 0.005 0
0.24 0.005 0
0.32 0.005 0
0.4 0.005 0
0.48 0.005 0
0.56 0.005 0
0.64 0.005 0
0.72 0.005 0
0.8 0.005 0
0.88 0.005 0
0.96 0.005 0
1.04 0.005 0
1.12 0.005 0
1.2 0.005 0
1.28 0.005 0
1.36 0.005 0
1.44 0.005 0
1.52 0.005 0
1.6 0.005 0
1.68 0.005 0
1.76 0.005 0
1.84 0.005 0
1.92 0.005 0
2 0.005 0
2.08 0.005 0
2.16 0.005 0
2.24 0.005 0
2.32 0.005 0
2.4 0.005 0
2.48 0.005 0
2.56 0.005 0
2.64 0.005 0
2.72 0.005 0
2.8 0.005 0
2.88 0.005 0
2.96 0.005 0
3.04 0.005 0
3.12 0.005 0
3.2 0.005 0
3.28 0.005 0
3.36 0.005 0
3.44 0.005 0
3.52 0.005 0
3.6 0.005 0
3.68 0.005 0
3.76 0.005 0
3.84 0.005 0
3.92 0.005 0
4 0.005 0
4.08 0.005 0
4.16 0.005 0
4.24 0.005 0
4.32 0.005 0
4.4 0.005 0
4.48 0.005 0
4.56 0.005 0
4.64 0.005 0
4.72 0.005 0
4.8 0.005 0
4.88 0.005 0
4.96 0.005 0
5.04 0.005 0
5.12 0.005 0
5.2 0.005 0
5.28 0.005 0
5.36 0.005 0
5.44 0.005 0
5.52 0.005 0
5.6 0.005 0
5.68 0.005 0
5.76 0.005 0
5.84 0.005 0
5.92 0.005 0
6 0.005 0
6.08 0.005 0
6.16 0.005 0
6.24 0.005 0
6.32 0.005 0
6.4 0.005 0
6.48 0.005 0
6.56 0.005 0
6.64 0.005 0
6.72 0.005 0
6.8 0.005 0
6.88 0.005 0
6.96 0.005 0
7.04 0.005 0
7.12 0.005 0
7.2 0.005 0
7.28 0.005 0
7.36 0.005 0
7.44 0.005 0
7.52 0.005 0
7.6 0.005 0
7.68 0.005 0
7.76 0.005 0
7.84 0.005 0
7.92 0.005 0
8 0.005 0
8.08 0.005 0
8.16 0.005 0
8.24 0.005 0
8.32 0.005 0
8.4 0.005 0
8.48 0.005 0
8.56 0.005 0
8.64 0.005 0
8.72 0.005 0
8.8 0.005 0
8.88 0.005 0
8.96 0.005 0
9.04 0.005 0
9.12 0.005 0
9.2 0.005 0
9.28 0.005 0
9.36 0.005 0
9.44 0.005 0
9.52 0.005 0
9.6 0.005 0
9.68 0.005 0
9.76 0.005 0
9.84 0.005 0
9.92 0.005 0
10 0.005 0
10.08 0.005 0
10.16 0.005 0
10.24 0.005 0
10.32 0.005 0
10.4 0.005 0
10.48 0.005 0
10.56 0.005 0
10.64 0.005 0
10.72 0.005 0
10.8 0.005 0
10.88 0.005 0
10.96 0.005 0
11.04 0.005 0
11.12 0.005 0
11.2 0.005 0
11.28 0.005 0
11.36 0.005 0
11.44 0.005 0
11.52 0.005 0
11.6 0.005 0
11.68 0.005 0
11.76 0.005 0
11.84 0.005 0
11.92 0.005 0
12 0.005 0
12.08 0.005 0
12.16 0.005 0
12.24 0.005 0
12.32 0.005 0
12.4 0.005 0
12.48 0.005 0
12.56 0.005 0
12.64 0.005 0
12.72 0.005 0
12.8 0.005 0
12.88 0.005 0
12.96 0.005 0
13.04 0.005 0
13.12 0.005 0
13.2 0.005 0
13.28 0.005 0
13.36 0.005 0
13.44 0.005 0
13.52 0.005 0
13.6 0.005 0
13.68 0.005 0
13.76 0.005 0
13.84 0.005 0
13.92 0.005 0
14 0.005 0
14.08 0.005 0
14.16 0.005 0
14.24 0.005 0
14.32 0.005 0
14.4 0.005 0
14.48 0.005 0
14.56 0.005 0
14.64 0.005 0
14.72 0.005 0
14.8 0.005 0
14.88 0.005 0
14.96 0.005 0
15.04 0.005 0
15.12 0.005 0
15.2 0.005 0
15.28 0.005 0
15.36 0.005 0
15.44 0.005 0
15.52 0.005 0
15.6 0.005 0
15.68 0.005 0
15.76 0.005 0
15.84 0.005 0
15.92 0.005 0
16 0.005 0
16.08 0.005 0
16.16 0.005 0
16.24 0.005 0
16.32 0.005 0
16.4 0.005 0
16.48 0.005 0
16.56 0.005 0
16.64 0.005 0
16.72 0.005 0
16.8 0.005 0
16.88 0.005 0
16.96 0.005 0
17.04 0.005 0
17.12 0.005 0
17.2 0.005 0
17.28 0.005 0
17.36 0.005 0
17.44 0.005 0
17.52 0.005 0
17.6 0.005 0
17.68 0.005 0
17.76 0.005 0
17.84 0.005 0
17.92 0.005 0
18 0.005 0
18.08 0.005 0
18.16 0.005 0
18.24 0.005 0
18.32 0.005 0
18.4 0.005 0
18.48 0.005 0
18.56 0.005 0
18.64 0.005 0
18.72 0.005 0
18.8 0.005 0
18.88 0.005 0
18.96 0.005 0
19.04 0.005 0
19.12 0.005 0
19.2 0.005 0
19.28 0.005 0
19.36 0.005 0
19.44 0.005 0
19.52 0.005 0
19.6 0.005 0
19.68 0.005 0
19.76 0.005 0
19.84 0.005 0
19.92 0.005 0
20 0.005 0
20.08 0.005 0
20.16 0.005 0
20.24 0.005 0
20.32 0.005 0
20.4 0.005 0
20.48 0.005 0
20.56 0.005 0
20.64 0.005 0
20.72 0.005 0
20.8 0.005 0
20.88 0.005 0
20.96 0.005 0
21.04 0.005 0
21.12 0.005 0
21.2 0.005 0
21.28 0.005 0
21.36 0.005 0
21.44 0.005 0
21.52 0.005 0
21.6 0.005 0
21.68 0.005 0
21.76 0.005 0
21.84 0.005 0
21.92 0.005 0
22 0.005 0
22.08 0.005 0
22.16 0.005 0
22.24 0.005 0
22.32 0.005 0
22.4 0.005 0
22.48 0.005 0
22.56 0.005 0
22.64 0.005 0
22.72 0.005 0
22.8 0.005 0
22.88 0.005 0
22.96 0.005 0
23.04 0.005 0
23.12 0.005 0
23.2 0.005 0
23.28 0.005 0
23.36 0.005 0
23.44 0.005 0
23.52 0.005 0
23.6 0.005 0
23.68 0.005 0
23.76 0.005 0
23.84 0.005 0
23.92 0.005 0
24 0.005 0
24.08 0.005 0
24.16 0.005 0
24.24 0.005 0
24.32 0.005 0
24.4 0.005 0
24.48 0.005 0
24.56 0.005 0
24.64 0.005 0
24.72 0.005 0
24.8 0.005 0
24.88 0.005 0
24.96 0.005 0
25.04 0.005 0
25.12 0.005 0
25.2 0.005 0
25.28 0.005 0
25.36 0.005 0
25.44 0.005 0
25.52 0.005 0
25.6 0.005 0
25.68 0.005 0
25.76 0.005 0
25.84 0.005 0
25.92 0.005 0
26 0.005 0
26.08 0.005 0
26.16 0.005 0
26.24 0.005 0
26.32 0.005 0
26.4 0.005 0
26.48 0.005 0
26.56 0.005 0
26.64 0.005 0
26.72 0.005 0
26.8 0.005 0
26.88 0.005 0
26.96 0.005 0
27.04 0.005 0
27.12 0.005 0
27.2 0.005 0
27.28 0.005 0
27.36 0.005 0
27.44 0.005 0
27.52 0.005 0
27.6 0.005 0
27.68 0.005 0
27.76 0.005 0
27.84 0.005 0
27.92 0.005 0
28 0.005 0
28.08 0.005 0
28.16 0.005 0
28.24 0.005 0
28.32 0.005 0
28.4 0.005 0
28.48 0.005 0
28.56 0.005 0
28.64 0.005 0
28.72 0.005 0
28.8 0.005 0
28.88 0.005 0
28.96 0.005 0
29.04 0.005 0
29.12 0.005 0
29.2 0.005 0
29.28 0.005 0
29.36 0.005 0
29.44 0.005 0
29.52 0.005 0
29.6 0.005 0
29.68 0.005 0
29.76 0.005 0
29.84 0.005 0
29.92 0.005 0
30 0.005 0
30.08 0.005 0
30.16 0.005 0
30.24 0.005 0
30.32 0.005 0
30.4 0.005 0
30.48 0.005 0
30.56 0.005 0
30.64 0.005 0
30.72 0.005 0
30.8 0.005 0
30.88 0.005 0
30.96 0.005 0
31.04 0.005 0
31.12 0.005 0
31.2 0.005 0
31.28 0.005 0
31.36 0.005 0
31.44 0.005 0
31.52 0.005 0
31.6 0.005 0
31.68 0.005 0
31.76 0.005 0
31.84 0.005 0
31.92 0.005 0
0 0.01 0
0.08 0.01 0
0.16 0.01 0
0.24 0.01 0
0.32 0.01 0
0.4 0.01 0
0.48 0.01 0
0.56 0.01 0
0.64 0.01 0
0.72 0.01 0
0.8 0.01 0
0.88 0.01 0
0.96 0.01 0
1.04 0.01 0
1.12 0.01 0
1.2 0.01 0
1.28 0.01 0
1.36 0.01 0
1.44 0.01 0
1.52 0.01 0
1.6 0.01 0
1.68 0.01 0
1.76 0.01 0
1.84 0.01 0
1.92 0.01 0
2 0.01 0
2.08 0.01 0
2.16 0.01 0
2.24 0.01 0
2.32 0.01 0
2.4 0.01 0
2.48 0.01 0
2.56 0.01 0
2.64 0.01 0
2.72 0.01 0
2.8 0.01 0
2.88 0.01 0
2.96 0.01 0
3.04 0.01 0
3.12 0.01 0
3.2 0.01 0
3.28 0.01 0
3.36 0.01 0
3.44 0.01 0
3.52 0.01 0
3.6 0.01 0
3.68 0.01 0
3.76 0.01 0
3.84 0.01 0
3.92 0.01 0
4 0.01 0
4.08 0.01 0
4.16 0.01 0
4.24 0.01 0
4.32 0.01 0
4.4 0.01 0
4.48 0.01 0
4.56 0.01 0
4.64 0.01 0
4.72 0.01 0
4.8 0.01 0
4.88 0.01 0
4.96 0.01 0
5.04 0.01 0
5.12 0.01 0
[...]
POINT_DATA 80000

SCALARS p float 1
LOOKUP_TABLE default
1
56.54467861
56.24294359
56.20178381
56.18169385
56.16727492
56.15527396
56.14453055
56.13453242
56.12502682
56.11588052
56.1070198
56.09840188
56.09000037
56.0817976
56.07378056
56.0659387
56.05826279
56.05074441
56.04337562
56.0361489
56.02905706
56.02209326
56.01525104
56.00852425
56.00190714
55.99539428
55.98898058
55.98266128
55.97643193
55.97028837
55.9642267
55.95824329
55.95233472
55.94649783
55.94072961
55.93502728
55.92938821
55.92380992
55.9182901
55.91282657
55.90741725
55.90206022
55.89675362
55.89149573
55.88628489
55.88111956
55.87599824
55.87091954
55.86588211
55.86088469
55.85592607
55.85100509
55.84612065
55.8412717
55.83645722
55.83167626
55.8269279
55.82221126
55.81752547
55.81286974
55.80824328
55.80364534
55.79907519
55.79453215
55.79001554
55.78552471
55.78105904
55.77661794
55.77220081
55.76780711
55.76343628
55.7590878
55.75476116
55.75045587
55.74617145
55.74190745
55.7376634
55.73343888
55.72923346
55.72504674
55.7208783
55.71672776
55.71259475
55.7084789
55.70437984
55.70029724
55.69623074
55.69218002
55.68814475
55.68412463
55.68011934
55.67612858
55.67215206
55.66818949
55.6642406
55.66030511
55.65638275
55.65247327
55.64857641
55.64469192
55.64081956
55.63695908
55.63311026
55.62927286
55.62544667
55.62163146
55.61782703
55.61403315
55.61024962
55.60647625
55.60271284
55.59895919
55.59521511
55.59148042
55.58775494
55.58403848
55.58033088
55.57663196
55.57294156
55.5692595
55.56558564
55.56191981
55.55826185
55.55461161
55.55096895
55.54733372
55.54370577
55.54008496
55.53647116
55.53286423
55.52926404
55.52567045
55.52208335
55.5185026
55.51492808
55.51135967
55.50779725
55.50424071
55.50068993
55.4971448
55.49360521
55.49007105
55.48654222
55.48301862
55.47950014
55.47598668
55.47247815
55.46897444
55.46547548
55.46198115
55.45849138
55.45500607
55.45152514
55.4480485
55.44457607
55.44110776
55.4376435
55.43418321
55.4307268
55.4272742
55.42382535
55.42038015
55.41693855
55.41350047
55.41006584
55.4066346
55.40320667
55.399782
55.39636051
55.39294216
55.38952686
55.38611458
55.38270523
55.37929878
55.37589515
55.3724943
55.36909617
55.3657007
55.36230785
55.35891756
55.35552977
55.35214445
55.34876155
55.345381
55.34200278
55.33862683
55.3352531
55.33188156
55.32851215
55.32514485
55.32177959
55.31841636
55.31505509
55.31169577
55.30833833
55.30498276
55.30162901
55.29827705
55.29492683
55.29157834
55.28823152
55.28488635
55.28154279
55.27820082
55.2748604
55.2715215
55.26818409
55.26484814
55.26151362
55.2581805
55.25484875
55.25151836
55.24818928
55.2448615
55.24153498
55.23820971
55.23488565
55.23156279
55.22824109
55.22492054
55.22160112
55.21828279
55.21496554
55.21164935
55.2083342
55.20502006
55.20170691
55.19839474
55.19508352
55.19177324
55.18846388
55.18515541
55.18184783
55.17854111
55.17523523
55.17193018
55.16862595
55.1653225
55.16201984
55.15871795
55.1554168
55.15211638
55.14881668
55.14551769
55.14221939
55.13892176
55.1356248
55.13232849
55.12903281
55.12573775
55.12244331
55.11914946
55.11585621
55.11256352
55.1092714
55.10597983
55.1026888
55.0993983
55.09610832
55.09281885
55.08952988
55.0862414
55.08295339
55.07966585
55.07637878
55.07309215
55.06980596
55.06652021
55.06323488
55.05994996
55.05666545
55.05338134
55.05009762
55.04681428
55.04353132
55.04024872
55.03696649
55.0336846
55.03040306
55.02712186
55.02384099
55.02056045
55.01728022
55.01400031
55.0107207
55.00744139
55.00416238
55.00088365
54.9976052
54.99432703
54.99104913
54.98777149
54.98449412
54.981217
54.97794012
54.9746635
54.97138711
54.96811095
54.96483503
54.96155933
54.95828385
54.95500858
54.95173353
54.94845869
54.94518404
54.9419096
54.93863535
54.9353613
54.93208743
54.92881374
54.92554024
54.92226691
54.91899375
54.91572076
54.91244794
54.90917528
54.90590277
54.90263043
54.89935824
54.89608619
54.89281429
54.88954254
54.88627093
54.88299945
54.87972811
54.8764569
54.87318583
54.86991487
54.86664405
54.86337334
54.86010276
54.85683229
54.85356193
54.85029169
54.84702156
54.84375154
54.84048162
54.8372118
54.83394209
54.83067248
54.82740296
54.82413354
54.82086421
54.81759497
54.81432583
54.81105677
54.8077878
54.80451891
54.8012501
54.79798138
54.79471273
54.79144416
54.78817567
54.78490726
54.78163891
54.77837064
54.77510244
54.77183431
54.76856624
54.76529824
54.7620303
54.75876243
54.75549462
54.75222687
54.74895919
54.74569155
54.74242398
54.73915646
54.735889
54.73262159
54.72935424
54.72608693
54.72281968
54.71955247
54.71628532
54.71301821
54.70975115
54.70648413
54.70321716
54.69995023
54.69668335
54.69341651
54.6901497
54.68688294
54.68361622
54.68034954
54.67708289
54.67381629
54.67054971
54.66728317
54.66401666
54.66075018
54.65748371
54.65421728
54.65095084
54.64768441
54.64441794
54.64115143
0.5
56.54467861
56.54467861
56.24294359
56.20178381
56.18169385
56.16727492
56.15527396
56.14453055
56.13453242
56.12502682
56.11588052
56.1070198
56.09840188
56.09000037
56.0817976
56.07378056
56.0659387
56.05826279
56.05074441
56.04337562
56.0361489
56.02905706
56.02209326
56.01525104
56.00852425
56.00190714
55.99539428
55.98898058
55.98266128
55.97643193
55.97028837
55.9642267
55.95824329
55.95233472
55.94649783
55.94072961
55.93502728
55.92938821
55.92380992
55.9182901
55.91282657
55.90741725
55.90206022
55.89675362
55.89149573
55.88628489
55.88111956
55.87599824
55.87091954
55.86588211
55.86088469
55.85592607
55.85100509
55.84612065
55.8412717
55.83645722
55.83167626
55.8269279
55.82221126
55.81752547
55.81286974
55.80824328
55.80364534
55.79907519
55.79453215
55.79001554
55.78552471
55.78105904
55.77661794
55.77220081
55.76780711
55.76343628
55.7590878
55.75476116
55.75045587
55.74617145
55.74190745
55.7376634
55.73343888
55.72923346
55.72504674
55.7208783
55.71672776
55.71259475
55.7084789
55.70437984
55.70029724
55.69623074
55.69218002
55.68814475
55.68412463
55.68011934
55.67612858
55.67215206
55.66818949
55.6642406
55.66030511
55.65638275
55.65247327
55.64857641
55.64469192
55.64081956
55.63695908
55.63311026
55.62927286
55.62544667
55.62163146
55.61782703
55.61403315
55.61024962
55.60647625
55.60271284
55.59895919
55.59521511
55.59148042
55.58775494
55.58403848
55.58033088
55.57663196
55.57294156
55.5692595
55.56558564
55.56191981
55.55826185
55.55461161
55.55096895
55.54733372
55.54370577
55.54008496
55.53647116
55.53286423
55.52926404
55.52567045
55.52208335
55.5185026
55.51492808
55.51135967
55.50779725
55.50424071
55.50068993
55.4971448
55.49360521
55.49007105
55.48654222
55.48301862
55.47950014
55.47598668
55.47247815
55.46897444
55.46547548
55.46198115
55.45849138
55.45500607
55.45152514
55.4480485
55.44457607
55.44110776
55.4376435
55.43418321
55.4307268
55.4272742
55.42382535
55.42038015
55.41693855
55.41350047
55.41006584
55.4066346
55.40320667
55.399782
55.39636051
55.39294216
55.38952686
55.38611458
55.38270523
55.37929878
55.37589515
55.3724943
55.36909617
55.3657007
55.36230785
55.35891756
55.35552977
55.35214445
55.34876155
55.345381
55.34200278
55.33862683
55.3352531
55.33188156
55.32851215
55.32514485
55.32177959
55.31841636
55.31505509
55.31169577
55.30833833
55.30498276
55.30162901
55.29827705
55.29492683
55.29157834
55.28823152
55.28488635
55.28154279
55.27820082
55.2748604
55.2715215
55.26818409
55.26484814
55.26151362
55.2581805
55.25484875
55.25151836
55.24818928
55.2448615
55.24153498
55.23820971
55.23488565
55.23156279
55.22824109
55.22492054
55.22160112
55.21828279
55.21496554
55.21164935
55.2083342
55.20502006
55.20170691
55.19839474
55.19508352
55.19177324
55.18846388
55.18515541
55.18184783
55.17854111
55.17523523
55.17193018
55.16862595
55.1653225
55.16201984
55.15871795
55.1554168
55.15211638
55.14881668
55.14551769
55.14221939
55.13892176
55.1356248
55.13232849
55.12903281
55.12573775
55.12244331
55.11914946
55.11585621
55.11256352
55.1092714
55.10597983
55.1026888
55.0993983
55.09610832
55.09281885
55.08952988
55.0862414
55.08295339
55.07966585
55.07637878
55.07309215
55.06980596
55.06652021
55.06323488
55.05994996
55.05666545
55.05338134
55.05009762
55.04681428
55.04353132
55.04024872
55.03696649
55.0336846
55.03040306
55.02712186
55.02384099
55.02056045
55.01728022
55.01400031
55.0107207
55.00744139
55.00416238
55.00088365
54.9976052
54.99432703
54.99104913
54.98777149
54.98449412
54.981217
54.97794012
54.9746635
54.97138711
54.96811095
54.96483503
54.96155933
54.95828385
54.95500858
54.95173353
54.94845869
54.94518404
54.9419096
54.93863535
54.9353613
54.93208743
54.92881374
54.92554024
54.92226691
54.91899375
54.91572076
54.91244794
54.90917528
54.90590277
54.90263043
54.89935824
54.89608619
54.89281429
54.88954254
54.88627093
54.88299945
54.87972811
54.8764569
54.87318583
54.86991487
54.86664405
54.86337334
54.86010276
54.85683229
54.85356193
54.85029169
54.84702156
54.84375154
54.84048162
54.8372118
54.83394209
54.83067248
54.82740296
54.82413354
54.82086421
54.81759497
54.81432583
54.81105677
54.8077878
54.80451891
54.8012501
54.79798138
54.79471273
54.79144416
54.78817567
54.78490726
54.78163891
54.77837064
54.77510244
54.77183431
54.76856624
54.76529824
54.7620303
54.75876243
54.75549462
54.75222687
54.74895919
54.74569155
54.74242398
54.73915646
54.735889
54.73262159
54.72935424
54.72608693
54.72281968
54.71955247
54.71628532
54.71301821
54.70975115
54.70648413
54.70321716
54.69995023
54.69668335
54.69341651
54.6901497
54.68688294
54.68361622
54.68034954
54.67708289
54.67381629
54.67054971
54.66728317
54.66401666
54.66075018
54.65748371
54.65421728
54.65095084
54.64768441
54.64441794
54.64115143
54.64115143
56.53009687
56.53009687
56.24677947
56.20303923
56.18232909
56.16766943
56.15554566
56.14472999
56.13468556
56.12514852
56.11597994
56.1071029
56.09847267
56.09006166
56.08185138
56.0738283
56.06598147
56.05830142
56.05077955
56.04340777
56.03617847
56.02908437
56.02211859
56.0152746
56.00854625
56.00192774
55.99541361
55.98899876
55.98267842
55.97644812
55.97030369
55.96424122
55.95825707
55.95234783
55.94651031
55.94074152
55.93503865
55.92939907
55.92382031
55.91830006
55.91283611
55.90742642
55.90206902
55.89676208
55.89150387
55.88629274
55.88112712
55.87600553
55.87092657
55.86588891
55.86089126
55.85593242
55.85101124
55.8461266
55.84127746
55.8364628
55.83168168
55.82693315
55.82221635
55.81753042
55.81287454
55.80824795
55.80364987
55.7990796
55.79453644
55.79001971
55.78552877
55.781063
55.77662179
55.77220456
55.76781076
55.76343984
55.75909127
55.75476454
55.75045917
55.74617467
55.74191059
55.73766647
55.73344188
55.72923639
55.72504959
55.72088108
55.71673049
55.71259741
55.7084815
55.70438238
55.70029972
55.69623316
55.69218239
55.68814707
55.68412689
55.68012155
55.67613074
55.67215417
55.66819156
55.66424263
55.66030709
55.65638469
55.65247517
55.64857827
55.64469374
55.64082134
55.63696082
55.63311196
55.62927453
55.62544831
55.62163306
55.61782859
55.61403468
55.61025112
55.60647772
55.60271428
55.5989606
55.59521649
55.59148177
55.58775626
55.58403978
55.58033215
55.57663321
55.57294278
55.5692607
55.56558681
55.56192095
55.55826297
55.55461271
55.55097003
55.54733477
55.5437068
55.54008597
55.53647215
55.5328652
55.52926499
55.52567139
55.52208426
55.51850349
55.51492895
55.51136053
55.50779809
55.50424153
55.50069073
55.49714559
55.49360598
55.49007181
55.48654297
55.48301935
55.47950085
55.47598738
55.47247883
55.46897512
55.46547613
55.4619818
55.45849201
55.45500669
55.45152575
55.4480491
55.44457665
55.44110834
55.43764406
55.43418376
55.43072734
55.42727473
55.42382586
55.42038066
55.41693904
55.41350095
55.41006631
55.40663506
55.40320713
55.39978244
55.39636095
55.39294259
55.38952728
55.38611499
55.38270564
55.37929917
55.37589554
55.37249468
55.36909654
55.36570107
55.3623082
55.35891791
55.35553012
55.35214479
55.34876188
55.34538133
55.3420031
55.33862714
55.3352534
55.33188185
55.32851244
55.32514513
55.32177987
55.31841663
55.31505536
55.31169603
55.30833859
55.30498302
55.30162926
55.29827729
55.29492707
55.29157857
55.28823175
55.28488657
55.28154301
55.27820104
55.27486061
55.27152171
55.26818429
55.26484833
55.26151381
55.25818069
55.25484894
55.25151854
55.24818946
55.24486167
55.24153515
55.23820987
55.23488581
55.23156295
55.22824125
55.2249207
55.22160127
55.21828294
55.21496569
55.2116495
55.20833434
55.2050202
55.20170705
55.19839487
55.19508365
55.19177337
55.188464
55.18515554
55.18184795
55.17854122
55.17523534
55.17193029
55.16862606
55.16532261
55.16201995
55.15871805
55.1554169
55.15211648
55.14881678
55.14551779
55.14221948
55.13892186
55.13562489
55.13232857
55.12903289
55.12573784
55.12244339
55.11914955
55.11585628
55.1125636
55.10927148
55.10597991
55.10268888
55.09939838
55.09610839
55.09281892
55.08952995
55.08624146
55.08295346
55.07966592
55.07637884
55.07309221
55.06980602
55.06652027
55.06323493
55.05995002
55.05666551
55.05338139
55.05009767
55.04681433
55.04353137
55.04024877
55.03696653
55.03368465
55.03040311
55.02712191
55.02384104
55.02056049
55.01728027
55.01400035
55.01072074
55.00744143
55.00416241
55.00088369
54.99760524
54.99432707
54.99104917
54.98777153
54.98449415
54.98121703
54.97794016
54.97466353
54.97138714
54.96811098
54.96483506
54.96155936
54.95828388
54.95500861
54.95173356
54.94845871
54.94518407
54.94190963
54.93863538
54.93536132
54.93208745
54.92881377
54.92554026
54.92226693
54.91899377
54.91572078
54.91244796
54.9091753
54.9059028
54.90263045
54.89935826
54.89608621
54.89281431
54.88954256
54.88627095
54.88299947
54.87972813
54.87645692
54.87318584
54.86991489
54.86664406
54.86337336
54.86010277
54.8568323
54.85356195
54.85029171
54.84702157
54.84375155
54.84048163
54.83721182
54.8339421
54.83067249
54.82740297
54.82413355
54.82086422
54.81759499
54.81432584
54.81105678
54.80778781
54.80451892
54.80125011
54.79798139
54.79471274
54.79144417
54.78817568
54.78490727
54.78163892
54.77837065
54.77510245
54.77183431
54.76856625
54.76529825
54.76203031
54.75876244
54.75549463
54.75222688
54.74895919
54.74569156
54.74242399
54.73915647
54.73588901
54.7326216
54.72935424
54.72608694
54.72281968
54.71955248
54.71628532
54.71301822
54.70975115
54.70648414
54.70321717
54.69995024
54.69668335
54.69341651
54.69014971
54.68688295
54.68361623
54.68034955
54.6770829
54.67381629
54.67054971
54.66728317
54.66401666
54.66075018
54.65748372
54.65421728
54.65095084
54.64768441
54.64441794
54.64115143
54.64115143
56.51411227
56.51411227
56.2499679
56.20422641
56.18294509
56.1680557
56.15581308
56.14492693
56.13483704
56.125269
56.11607838
56.10718514
56.0985427
56.09012223
56.08190448
56.07387538
56.06602362
56.05833947
56.05081413
56.04343939
56.03620752
56.02911119
56.02214345
56.01529773
56.00856783
56.00194793
55.99543255
55.98901658
55.98269521
55.97646398
55.97031869
55.96425544
55.95827057
55.95236067
55.94652253
55.94075317
55.93504977
55.9294097
55.92383048
55.9183098
55.91284545
55.90743538
55.90207763
55.89677036
55.89151184
55.88630041
55.88113451
55.87601266
55.87093345
55.86589555
55.86089768
55.85593863
55.85101724
55.84613241
55.84128308
55.83646826
55.83168696
55.82693828
55.82222132
55.81753525
55.81287923
55.8082525
55.8036543
55.79908391
55.79454062
55.79002378
55.78553273
55.78106685
55.77662554
55.77220822
55.76781432
55.76344331
55.75909465
55.75476784
55.75046239
55.74617781
55.74191365
55.73766946
55.73344479
55.72923923
55.72505237
55.7208838
55.71673314
55.7126
55.70848403
55.70438485
55.70030213
55.69623552
55.6921847
55.68814933
55.6841291
55.68012371
55.67613285
55.67215624
55.66819358
55.6642446
55.66030903
55.65638659
55.65247702
55.64858008
55.64469551
55.64082307
55.63696252
55.63311363
55.62927616
55.6254499
55.62163462
55.61783012
55.61403617
55.61025259
55.60647916
55.60271568
55.59896197
55.59521783
55.59148309
55.58775755
55.58404104
55.58033339
55.57663442
55.57294396
55.56926186
55.56558795
55.56192207
55.55826406
55.55461378
55.55097107
55.5473358
55.54370781
55.54008696
55.53647312
55.53286615
55.52926592
55.52567229
55.52208515
55.51850436
55.51492981
55.51136136
55.50779891
55.50424233
55.50069152
55.49714636
55.49360674
55.49007255
55.48654369
55.48302006
55.47950155
55.47598806
55.4724795
55.46897577
55.46547678
55.46198243
55.45849263
55.4550073
55.45152634
55.44804968
55.44457722
55.44110889
55.43764461
55.43418429
55.43072786
55.42727524
55.42382636
55.42038115
55.41693953
55.41350142
55.41006678
55.40663551
55.40320757
55.39978288
55.39636138
55.392943
55.38952769
55.38611539
55.38270603
55.37929956
55.37589592
55.37249505
55.3690969
55.36570142
55.36230855
55.35891825
55.35553045
55.35214512
55.3487622
55.34538164
55.3420034
55.33862744
55.3352537
55.33188214
55.32851273
55.32514541
55.32178015
55.3184169
55.31505562
55.31169629
55.30833884
55.30498326
55.3016295
55.29827753
55.2949273
55.2915788
55.28823197
55.28488679
55.28154323
55.27820125
55.27486082
55.27152191
55.26818449
55.26484853
55.261514
55.25818087
55.25484912
55.25151872
55.24818963
55.24486184
55.24153532
55.23821004
55.23488597
55.2315631
55.2282414
55.22492085
55.22160142
55.21828309
55.21496583
55.21164964
55.20833448
55.20502033
55.20170718
55.198395
55.19508378
55.19177349
55.18846412
55.18515565
55.18184806
55.17854134
55.17523546
55.1719304
55.16862616
55.16532272
55.16202005
55.15871815
55.155417
55.15211658
55.14881688
55.14551788
55.14221957
55.13892194
55.13562498
55.13232866
55.12903298
55.12573792
55.12244347
55.11914962
55.11585636
55.11256367
55.10927155
55.10597998
55.10268895
55.09939845
55.09610846
55.09281899
55.08953001
55.08624153
55.08295352
55.07966598
55.0763789
55.07309227
55.06980608
55.06652032
55.06323499
55.05995007
55.05666556
55.05338145
55.05009772
55.04681438
55.04353142
55.04024882
55.03696658
55.03368469
55.03040315
55.02712195
55.02384108
55.02056053
55.01728031
55.01400039
55.01072078
55.00744147
55.00416245
55.00088372
54.99760528
54.9943271
54.9910492
54.98777156
54.98449419
54.98121706
54.97794019
54.97466356
54.97138717
54.96811101
54.96483509
54.96155939
54.95828391
54.95500864
54.95173359
54.94845874
54.9451841
54.94190965
54.93863541
54.93536135
54.93208748
54.92881379
54.92554028
54.92226695
54.91899379
54.9157208
54.91244798
54.90917532
54.90590282
54.90263047
54.89935828
54.89608623
54.89281433
54.88954258
54.88627096
54.88299949
54.87972815
54.87645694
54.87318586
54.86991491
54.86664408
54.86337337
54.86010279
54.85683232
54.85356196
54.85029172
54.84702159
54.84375156
54.84048165
54.83721183
54.83394212
54.8306725
54.82740298
54.82413356
54.82086423
54.817595
54.81432585
54.81105679
54.80778782
54.80451893
54.80125012
54.7979814
54.79471275
54.79144418
54.78817569
54.78490728
54.78163893
54.77837066
54.77510246
54.77183432
54.76856626
54.76529826
54.76203032
54.75876245
54.75549464
54.75222689
54.7489592
54.74569157
54.742424
54.73915648
54.73588902
54.73262161
54.72935425
54.72608695
54.72281969
54.71955249
54.71628533
54.71301822
54.70975116
54.70648414
54.70321717
54.69995025
54.69668336
54.69341652
54.69014972
54.68688296
54.68361623
54.68034955
54.6770829
54.67381629
54.67054972
54.66728318
54.66401666
54.66075019
54.65748372
54.65421729
54.65095085
54.64768441
54.64441794
54.64115143
54.64115143
56.49819745
56.49819745
56.2528545
56.20536644
56.18354667
56.16843573
56.15607732
56.145122
56.13498729
56.12538855
56.11617604
56.10726669
56.09861206
56.09018216
56.08195697
56.07392187
56.06606519
56.05837696
56.05084817
56.04347049
56.03623609
56.02913755
56.02216787
56.01532044
56.00858901
56.00196774
55.99545113
55.98903404
55.98271167
55.97647952
55.97033339
55.96426937
55.95828379
55.95237323
55.94653449
55.94076457
55.93506065
55.9294201
55.92384043
55.91831933
55.91285458
55.90744414
55.90208605
55.89677845
55.89151962
55.8863079
55.88114173
55.87601962
55.87094017
55.86590204
55.86090395
55.85594469
55.8510231
55.84613808
55.84128858
55.83647358
55.83169212
55.82694329
55.82222618
55.81753996
55.81288381
55.80825695
55.80365862
55.79908811
55.79454471
55.79002775
55.7855366
55.78107062
55.77662921
55.77221179
55.7678178
55.7634467
55.75909795
55.75477106
55.75046553
55.74618088
55.74191664
55.73767237
55.73344764
55.72924201