# vtk DataFile Version 2.0
FlowField
ASCII
DATASET STRUCTURED_GRID
DIMENSIONS 400 1 200
POINTS 80000 float
0 0 0
0.08 0 0
0.16 0 0
0.24 0 0
0.32 0 0
0.4 0 0
0.48 0 0
0.56 0 0
0.64 0 0
0.72 0 0
0.8 0 0
0.88 0 0
0.96 0 0
1.04 0 0
1.12 0 0
1.2 0 0
1.28 0 0
1.36 0 0
1.44 0 0
1.52 0 0
1.6 0 0
1.68 0 0
1.76 0 0
1.84 0 0
1.92 0 0
2 0 0
2.08 0 0
2.16 0 0
2.24 0 0
2.32 0 0
2.4 0 0
2.48 0 0
2.56 0 0
2.64 0 0
2.72 0 0
2.8 0 0
2.88 0 0
2.96 0 0
3.04 0 0
3.12 0 0
3.2 0 0
3.28 0 0
3.36 0 0
3.44 0 0
3.52 0 0
3.6 0 0
3.68 0 0
3.76 0 0
3.84 0 0
3.92 0 0
4 0 0
4.08 0 0
4.16 0 0
4.24 0 0
4.32 0 0
4.4 0 0
4.48 0 0
4.56 0 0
4.64 0 0
4.72 0 0
4.8 0 0
4.88 0 0
4.96 0 0
5.04 0 0
5.12 0 0
5.2 0 0
5.28 0 0
5.36 0 0
5.44 0 0
5.52 0 0
5.6 0 0
5.68 0 0
5.76 0 0
5.84 0 0
5.92 0 0
6 0 0
6.08 0 0
6.16 0 0
6.24 0 0
6.32 0 0
6.4 0 0
6.48 0 0
6.56 0 0
6.64 0 0
6.72 0 0
6.8 0 0
6.88 0 0
6.96 0 0
7.04 0 0
7.12 0 0
7.2 0 0
7.28 0 0
7.36 0 0
7.44 0 0
7.52 0 0
7.6 0 0
7.68 0 0
7.76 0 0
7.84 0 0
7.92 0 0
8 0 0
8.08 0 0
8.16 0 0
8.24 0 0
8.32 0 0
8.4 0 0
8.48 0 0
8.56 0 0
8.64 0 0
8.72 0 0
8.8 0 0
8.88 0 0
8.96 0 0
9.04 0 0
9.12 0 0
9.2 0 0
9.28 0 0
9.36 0 0
9.44 0 0
9.52 0 0
9.6 0 0
9.68 0 0
9.76 0 0
9.84 0 0
9.92 0 0
10 0 0
10.08 0 0
10.16 0 0
10.24 0 0
10.32 0 0
10.4 0 0
10.48 0 0
10.56 0 0
10.64 0 0
10.72 0 0
10.8 0 0
10.88 0 0
10.96 0 0
11.04 0 0
11.12 0 0
11.2 0 0
11.28 0 0
11.36 0 0
11.44 0 0
11.52 0 0
11.6 0 0
11.68 0 0
11.76 0 0
11.84 0 0
11.92 0 0
12 0 0
12.08 0 0
12.16 0 0
12.24 0 0
12.32 0 0
12.4 0 0
12.48 0 0
12.56 0 0
12.64 0 0
12.72 0 0
12.8 0 0
12.88 0 0
12.96 0 0
13.04 0 0
13.12 0 0
13.2 0 0
13.28 0 0
13.36 0 0
13.44 0 0
13.52 0 0
13.6 0 0
13.68 0 0
13.76 0 0
13.84 0 0
13.92 0 0
14 0 0
14.08 0 0
14.16 0 0
14.24 0 0
14.32 0 0
14.4 0 0
14.48 0 0
14.56 0 0
14.64 0 0
14.72 0 0
14.8 0 0
14.88 0 0
14.96 0 0
15.04 0 0
15.12 0 0
15.2 0 0
15.28 0 0
15.36 0 0
15.44 0 0
15.52 0 0
15.6 0 0
15.68 0 0
15.76 0 0
15.84 0 0
15.92 0 0
16 0 0
16.08 0 0
16.16 0 0
16.24 0 0
16.32 0 0
16.4 0 0
16.48 0 0
16.56 0 0
16.64 0 0
16.72 0 0
16.8 0 0
16.88 0 0
16.96 0 0
17.04 0 0
17.12 0 0
17.2 0 0
17.28 0 0
17.36 0 0
17.44 0 0
17.52 0 0
17.6 0 0
17.68 0 0
17.76 0 0
17.84 0 0
17.92 0 0
18 0 0
18.08 0 0
18.16 0 0
18.24 0 0
18.32 0 0
18.4 0 0
18.48 0 0
18.56 0 0
18.64 0 0
18.72 0 0
18.8 0 0
18.88 0 0
18.96 0 0
19.04 0 0
19.12 0 0
19.2 0 0
19.28 0 0
19.36 0 0
19.44 0 0
19.52 0 0
19.6 0 0
19.68 0 0
19.76 0 0
19.84 0 0
19.92 0 0
20 0 0
20.08 0 0
20.16 0 0
20.24 0 0
20.32 0 0
20.4 0 0
20.48 0 0
20.56 0 0
20.64 0 0
20.72 0 0
20.8 0 0
20.88 0 0
20.96 0 0
21.04 0 0
21.12 0 0
21.2 0 0
21.28 0 0
21.36 0 0
21.44 0 0
21.52 0 0
21.6 0 0
21.68 0 0
21.76 0 0
21.84 0 0
21.92 0 0
22 0 0
22.08 0 0
22.16 0 0
22.24 0 0
22.32 0 0
22.4 0 0
22.48 0 0
22.56 0 0
22.64 0 0
22.72 0 0
22.8 0 0
22.88 0 0
22.96 0 0
23.04 0 0
23.12 0 0
23.2 0 0
23.28 0 0
23.36 0 0
23.44 0 0
23.52 0 0
23.6 0 0
23.68 0 0
23.76 0 0
23.84 0 0
23.92 0 0
24 0 0
24.08 0 0
24.16 0 0
24.24 0 0
24.32 0 0
24.4 0 0
24.48 0 0
24.56 0 0
24.64 0 0
24.72 0 0
24.8 0 0
24.88 0 0
24.96 0 0
25.04 0 0
25.12 0 0
25.2 0 0
25.28 0 0
25.36 0 0
25.44 0 0
25.52 0 0
25.6 0 0
25.68 0 0
25.76 0 0
25.84 0 0
25.92 0 0
26 0 0
26.08 0 0
26.16 0 0
26.24 0 0
26.32 0 0
26.4 0 0
26.48 0 0
26.56 0 0
26.64 0 0
26.72 0 0
26.8 0 0
26.88 0 0
26.96 0 0
27.04 0 0
27.12 0 0
27.2 0 0
27.28 0 0
27.36 0 0
27.44 0 0
27.52 0 0
27.6 0 0
27.68 0 0
27.76 0 0
27.84 0 0
27.92 0 0
28 0 0
28.08 0 0
28.16 0 0
28.24 0 0
28.32 0 0
28.4 0 0
28.48 0 0
28.56 0 0
28.64 0 0
28.72 0 0
28.8 0 0
28.88 0 0
28.96 0 0
29.04 0 0
29.12 0 0
29.2 0 0
29.28 0 0
29.36 0 0
29.44 0 0
29.52 0 0
29.6 0 0
29.68 0 0
29.76 0 0
29.84 0 0
29.92 0 0
30 0 0
30.08 0 0
30.16 0 0
30.24 0 0
30.32 0 0
30.4 0 0
30.48 0 0
30.56 0 0
30.64 0 0
30.72 0 0
30.8 0 0
30.88 0 0
30.96 0 0
31.04 0 0
31.12 0 0
31.2 0 0
31.28 0 0
31.36 0 0
31.44 0 0
31.52 0 0
31.6 0 0
31.68 0 0
31.76 0 0
31.84 0 0
31.92 0 0
0 0.005 0
0.08 0.005 0
0.16 0.005 0
0.24 0.005 0
0.32 0.005 0
0.4 0.005 0
0.48 0.005 0
0.56 0.005 0
0.64 0.005 0
0.72 0.005 0
0.8 0.005 0
0.88 0.005 0
0.96 0.005 0
1.04 0.005 0
1.12 0.005 0
1.2 0.005 0
1.28 0.005 0
1.36 0.005 0
1.44 0.005 0
1.52 0.005 0
1.6 0.005 0
1.68 0.005 0
1.76 0.005 0
1.84 0.005 0
1.92 0.005 0
2 0.005 0
2.08 0.005 0
2.16 0.005 0
2.24 0.005 0
2.32 0.005 0
2.4 0.005 0
2.48 0.005 0
2.56 0.005 0
2.64 0.005 0
2.72 0.005 0
2.8 0.005 0
2.88 0.005 0
2.96 0.005 0
3.04 0.005 0
3.12 0.005 0
3.2 0.005 0
3.28 0.005 0
3.36 0.005 0
3.44 0.005 0
3.52 0.005 0
3.6 0.005 0
3.68 0.005 0
3.76 0.005 0
3.84 0.005 0
3.92 0.005 0
4 0.005 0
4.08 0.005 0
4.16 0.005 0
4.24 0.005 0
4.32 0.005 0
4.4 0.005 0
4.48 0.005 0
4.56 0.005 0
4.64 0.005 0
4.72 0.005 0
4.8 0.005 0
4.88 0.005 0
4.96 0.005 0
5.04 0.005 0
5.12 0.005 0
5.2 0.005 0
5.28 0.005 0
5.36 0.005 0
5.44 0.005 0
5.52 0.005 0
5.6 0.005 0
5.68 0.005 0
5.76 0.005 0
5.84 0.005 0
5.92 0.005 0
6 0.005 0
6.08 0.005 0
6.16 0.005 0
6.24 0.005 0
6.32 0.005 0
6.4 0.005 0
6.48 0.005 0
6.56 0.005 0
6.64 0.005 0
6.72 0.005 0
6.8 0.005 0
6.88 0.005 0
6.96 0.005 0
7.04 0.005 0
7.12 0.005 0
7.2 0.005 0
7.28 0.005 0
7.36 0.005 0
7.44 0.005 0
7.52 0.005 0
7.6 0.005 0
7.68 0.005 0
7.76 0.005 0
7.84 0.005 0
7.92 0.005 0
8 0.005 0
8.08 0.005 0
8.16 0.005 0
8.24 0.005 0
8.32 0.005 0
8.4 0.005 0
8.48 0.005 0
8.56 0.005 0
8.64 0.005 0
8.72 0.005 0
8.8 0.005 0
8.88 0.005 0
8.96 0.005 0
9.04 0.005 0
9.12 0.005 0
9.2 0.005 0
9.28 0.005 0
9.36 0.005 0
9.44 0.005 0
9.52 0.005 0
9.6 0.005 0
9.68 0.005 0
9.76 0.005 0
9.84 0.005 0
9.92 0.005 0
10 0.005 0
10.08 0.005 0
10.16 0.005 0
10.24 0.005 0
10.32 0.005 0
10.4 0.005 0
10.48 0.005 0
10.56 0.005 0
10.64 0.005 0
10.72 0.005 0
10.8 0.005 0
10.88 0.005 0
10.96 0.005 0
11.04 0.005 0
11.12 0.005 0
11.2 0.005 0
11.28 0.005 0
11.36 0.005 0
11.44 0.005 0
11.52 0.005 0
11.6 0.005 0
11.68 0.005 0
11.76 0.005 0
11.84 0.005 0
11.92 0.005 0
12 0.005 0
12.08 0.005 0
12.16 0.005 0
12.24 0.005 0
12.32 0.005 0
12.4 0.005 0
12.48 0.005 0
12.56 0.005 0
12.64 0.005 0
12.72 0.005 0
12.8 0.005 0
12.88 0.005 0
12.96 0.005 0
13.04 0.005 0
13.12 0.005 0
13.2 0.005 0
13.28 0.005 0
13.36 0.005 0
13.44 0.005 0
13.52 0.005 0
13.6 0.005 0
13.68 0.005 0
13.76 0.005 0
13.84 0.005 0
13.92 0.005 0
14 0.005 0
14.08 0.005 0
14.16 0.005 0
14.24 0.005 0
14.32 0.005 0
14.4 0.005 0
14.48 0.005 0
14.56 0.005 0
14.64 0.005 0
14.72 0.005 0
14.8 0.005 0
14.88 0.005 0
14.96 0.005 0
15.04 0.005 0
15.12 0.005 0
15.2 0.005 0
15.28 0.005 0
15.36 0.005 0
15.44 0.005 0
15.52 0.005 0
15.6 0.005 0
15.68 0.005 0
15.76 0.005 0
15.84 0.005 0
15.92 0.005 0
16 0.005 0
16.08 0.005 0
16.16 0.005 0
16.24 0.005 0
16.32 0.005 0
16.4 0.005 0
16.48 0.005 0
16.56 0.005 0
16.64 0.005 0
16.72 0.005 0
16.8 0.005 0
16.88 0.005 0
16.96 0.005 0
17.04 0.005 0
17.12 0.005 0
17.2 0.005 0
17.28 0.005 0
17.36 0.005 0
17.44 0.005 0
17.52 0.005 0
17.6 0.005 0
17.68 0.005 0
17.76 0.005 0
17.84 0.005 0
17.92 0.005 0
18 0.005 0
18.08 0.005 0
18.16 0.005 0
18.24 0.005 0
18.32 0.005 0
18.4 0.005 0
18.48 0.005 0
18.56 0.005 0
18.64 0.005 0
18.72 0.005 0
18.8 0.005 0
18.88 0.005 0
18.96 0.005 0
19.04 0.005 0
19.12 0.005 0
19.2 0.005 0
19.28 0.005 0
19.36 0.005 0
19.44 0.005 0
19.52 0.005 0
19.6 0.005 0
19.68 0.005 0
19.76 0.005 0
19.84 0.005 0
19.92 0.005 0
20 0.005 0
20.08 0.005 0
20.16 0.005 0
20.24 0.005 0
20.32 0.005 0
20.4 0.005 0
20.48 0.005 0
20.56 0.005 0
20.64 0.005 0
20.72 0.005 0
20.8 0.005 0
20.88 0.005 0
20.96 0.005 0
21.04 0.005 0
21.12 0.005 0
21.2 0.005 0
21.28 0.005 0
21.36 0.005 0
21.44 0.005 0
21.52 0.005 0
21.6 0.005 0
21.68 0.005 0
21.76 0.005 0
21.84 0.005 0
21.92 0.005 0
22 0.005 0
22.08 0.005 0
22.16 0.005 0
22.24 0.005 0
22.32 0.005 0
22.4 0.005 0
22.48 0.005 0
22.56 0.005 0
22.64 0.005 0
22.72 0.005 0
22.8 0.005 0
22.88 0.005 0
22.96 0.005 0
23.04 0.005 0
23.12 0.005 0
23.2 0.005 0
23.28 0.005 0
23.36 0.005 0
23.44 0.005 0
23.52 0.005 0
23.6 0.005 0
23.68 0.005 0
23.76 0.005 0
23.84 0.005 0
23.92 0.005 0
24 0.005 0
24.08 0.005 0
24.16 0.005 0
24.24 0.005 0
24.32 0.005 0
24.4 0.005 0
24.48 0.005 0
24.56 0.005 0
24.64 0.005 0
24.72 0.005 0
24.8 0.005 0
24.88 0.005 0
24.96 0.005 0
25.04 0.005 0
25.12 0.005 0
25.2 0.005 0
25.28 0.005 0
25.36 0.005 0
25.44 0.005 0
25.52 0.005 0
25.6 0.005 0
25.68 0.005 0
25.76 0.005 0
25.84 0.005 0
25.92 0.005 0
26 0.005 0
26.08 0.005 0
26.16 0.005 0
26.24 0.005 0
26.32 0.005 0
26.4 0.005 0
26.48 0.005 0
26.56 0.005 0
26.64 0.005 0
26.72 0.005 0
26.8 0.005 0
26.88 0.005 0
26.96 0.005 0
27.04 0.005 0
27.12 0.005 0
27.2 0.005 0
27.28 0.005 0
27.36 0.005 0
27.44 0.005 0
27.52 0.005 0
27.6 0.005 0
27.68 0.005 0
27.76 0.005 0
27.84 0.005 0
27.92 0.005 0
28 0.005 0
28.08 0.005 0
28.16 0.005 0
28.24 0.005 0
28.32 0.005 0
28.4 0.005 0
28.48 0.005 0
28.56 0.005 0
28.64 0.005 0
28.72 0.005 0
28.8 0.005 0
28.88 0.005 0
28.96 0.005 0
29.04 0.005 0
29.12 0.005 0
29.2 0.005 0
29.28 0.005 0
29.36 0.005 0
29.44 0.005 0
29.52 0.005 0
29.6 0.005 0
29.68 0.005 0
29.76 0.005 0
29.84 0.005 0
29.92 0.005 0
30 0.005 0
30.08 0.005 0
30.16 0.005 0
30.24 0.005 0
30.32 0.005 0
30.4 0.005 0
30.48 0.005 0
30.56 0.005 0
30.64 0.005 0
30.72 0.005 0
30.8 0.005 0
30.88 0.005 0
30.96 0.005 0
31.04 0.005 0
31.12 0.005 0
31.2 0.005 0
31.28 0.005 0
31.36 0.005 0
31.44 0.005 0
31.52 0.005 0
31.6 0.005 0
31.68 0.005 0
31.76 0.005 0
31.84 0.005 0
31.92 0.005 0
0 0.01 0
0.08 0.01 0
0.16 0.01 0
0.24 0.01 0
0.32 0.01 0
0.4 0.01 0
0.48 0.01 0
0.56 0.01 0
0.64 0.01 0
0.72 0.01 0
0.8 0.01 0
0.88 0.01 0
0.96 0.01 0
1.04 0.01 0
1.12 0.01 0
1.2 0.01 0
1.28 0.01 0
1.36 0.01 0
1.44 0.01 0
1.52 0.01 0
1.6 0.01 0
1.68 0.01 0
1.76 0.01 0
1.84 0.01 0
1.92 0.01 0
2 0.01 0
2.08 0.01 0
2.16 0.01 0
2.24 0.01 0
2.32 0.01 0
2.4 0.01 0
2.48 0.01 0
2.56 0.01 0
2.64 0.01 0
2.72 0.01 0
2.8 0.01 0
2.88 0.01 0
2.96 0.01 0
3.04 0.01 0
3.12 0.01 0
3.2 0.01 0
3.28 0.01 0
3.36 0.01 0
3.44 0.01 0
3.52 0.01 0
3.6 0.01 0
3.68 0.01 0
3.76 0.01 0
3.84 0.01 0
3.92 0.01 0
4 0.01 0
4.08 0.01 0
4.16 0.01 0
4.24 0.01 0
4.32 0.01 0
4.4 0.01 0
4.48 0.01 0
4.56 0.01 0
4.64 0.01 0
4.72 0.01 0
4.8 0.01 0
4.88 0.01 0
4.96 0.01 0
5.04 0.01 0
5.12 0.01 0
[...]
POINT_DATA 80000

SCALARS u float 1
LOOKUP_TABLE default
0
-0.1322245366
-0.06915202499
-0.05344297985
-0.04585383517
-0.04132158144
-0.03829893132
-0.03616433734
-0.03468459322
-0.03375922881
-0.03328301822
-0.03312418069
-0.03315892765
-0.03329832603
-0.03348944211
-0.03370355083
-0.03392506956
-0.03414537648
-0.03436004048
-0.03456737122
-0.03476733586
-0.03496069055
-0.035148392
-0.03533128276
-0.03550998057
-0.03568487739
-0.03585618592
-0.03602399086
-0.03618829447
-0.03634904756
-0.03650617249
-0.03665957594
-0.03680915892
-0.03695482105
-0.03709646538
-0.03723399937
-0.03736733785
-0.03749640288
-0.03762112597
-0.03774144751
-0.03785731865
-0.03796870045
-0.03807556555
-0.03817789714
-0.03827569036
-0.03836895112
-0.03845769731
-0.03854195741
-0.03862177153
-0.03869718984
-0.03876827351
-0.0388350929
-0.0388977284
-0.03895626855
-0.03901081073
-0.03906145916
-0.03910832556
-0.03915152712
-0.03919118704
-0.03922743252
-0.0392603953
-0.03929020962
-0.03931701281
-0.03934094324
-0.03936214097
-0.03938074575
-0.03939689774
-0.03941073556
-0.03942239709
-0.0394320176
-0.03943973061
-0.03944566615
-0.03944995168
-0.03945271046
-0.03945406252
-0.03945412314
-0.03945300392
-0.03945081132
-0.03944764783
-0.03944361059
-0.03943879261
-0.03943328143
-0.03942716048
-0.03942050778
-0.03941339728
-0.03940589768
-0.03939807381
-0.03938998545
-0.03938168875
-0.03937323512
-0.03936467262
-0.03935604488
-0.03934739255
-0.03933875217
-0.03933015767
-0.03932163919
-0.03931322465
-0.03930493853
-0.03929680343
-0.03928883888
-0.03928106282
-0.03927349047
-0.03926613581
-0.03925901035
-0.03925212466
-0.03924548716
-0.03923910555
-0.03923298563
-0.03922713273
-0.03922155051
-0.03921624236
-0.03921121018
-0.03920645578
-0.03920197965
-0.03919778236
-0.0391938633
-0.03919022205
-0.03918685714
-0.03918376739
-0.03918095069
-0.03917840531
-0.03917612864
-0.03917411855
-0.03917237209
-0.03917088687
-0.03916965969
-0.03916868798
-0.03916796842
-0.03916749831
-0.0391672743
-0.03916729363
-0.03916755292
-0.03916804944
-0.03916877983
-0.03916974141
-0.03917093086
-0.03917234557
-0.0391739823
-0.03917583852
-0.0391779111
-0.03918019758
-0.03918269494
-0.03918540084
-0.03918831235
-0.03919142723
-0.03919474267
-0.03919825655
-0.03920196614
-0.03920586945
-0.03920996385
-0.03921424746
-0.03921871775
-0.03922337294
-0.03922821061
-0.03923322907
-0.039238426
-0.03924379981
-0.03924934829
-0.03925506991
-0.03926096255
-0.03926702479
-0.03927325459
-0.0392796506
-0.03928621087
-0.03929293414
-0.03929981851
-0.03930686282
-0.03931406524
-0.03932142466
-0.03932893935
-0.03933660825
-0.03934442969
-0.0393524027
-0.03936052566
-0.03936879764
-0.03937721711
-0.0393857832
-0.03939449441
-0.03940334994
-0.03941234835
-0.03942148889
-0.03943077017
-0.03944019149
-0.03944975151
-0.03945944957
-0.03946928439
-0.03947925536
-0.03948936123
-0.03949960144
-0.03950997478
-0.03952048074
-0.03953111815
-0.03954188653
-0.03955278476
-0.03956381239
-0.03957496835
-0.03958625221
-0.03959766295
-0.03960920018
-0.03962086289
-0.03963265074
-0.03964456276
-0.03965659864
-0.03966875743
-0.03968103886
-0.03969344201
-0.03970596664
-0.03971861186
-0.03973137746
-0.03974426257
-0.03975726701
-0.03977038996
-0.03978363124
-0.03979699005
-0.03981046626
-0.03982405909
-0.03983776843
-0.03985159353
-0.03986553429
-0.03987958998
-0.03989376055
-0.03990804528
-0.03992244414
-0.03993695643
-0.03995158214
-0.0399663206
-0.03998117182
-0.03999613515
-0.04001121062
-0.04002639759
-0.04004169612
-0.0400571056
-0.04007262608
-0.04008825699
-0.04010399841
-0.04011984976
-0.04013581114
-0.04015188202
-0.0401680625
-0.04018435204
-0.0402007508
-0.04021725824
-0.04023387452
-0.04025059914
-0.04026743228
-0.04028437343
-0.0403014228
-0.0403185799
-0.04033584495
-0.04035321748
-0.04037069771
-0.04038828521
-0.0404059802
-0.04042378226
-0.04044169164
-0.04045970792
-0.04047783136
-0.04049606157
-0.04051439883
-0.04053284274
-0.0405513936
-0.04057005103
-0.04058881535
-0.04060768618
-0.04062666386
-0.04064574802
-0.04066493901
-0.04068423649
-0.0407036408
-0.04072315162
-0.04074276931
-0.04076249356
-0.04078232473
-0.04080226254
-0.04082230735
-0.0408424589
-0.04086271757
-0.04088308309
-0.04090355586
-0.04092413562
-0.04094482279
-0.04096561713
-0.04098651905
-0.04100752834
-0.04102864541
-0.04104987005
-0.04107120271
-0.04109264318
-0.04111419192
-0.04113584872
-0.04115761407
-0.04117948777
-0.0412014703
-0.0412235615
-0.04124576184
-0.04126807118
-0.04129049001
-0.04131301818
-0.04133565621
-0.04135840396
-0.04138126195
-0.04140423005
-0.04142730881
-0.0414504981
-0.04147379848
-0.04149720983
-0.04152073272
-0.04154436706
-0.04156811342
-0.04159197171
-0.04161594252
-0.04164002578
-0.04166422208
-0.04168853137
-0.04171295425
-0.04173749068
-0.04176214127
-0.04178690599
-0.04181178547
-0.04183677969
-0.0418618893
-0.04188711427
-0.04191245527
-0.0419379123
-0.04196348602
-0.04198917646
-0.04201498428
-0.04204090952
-0.04206695287
-0.04209311437
-0.04211939471
-0.04214579396
-0.04217231284
-0.04219895139
-0.04222571036
-0.04225258981
-0.0422795905
-0.04230671251
-0.04233395659
-0.04236132285
-0.04238881204
-0.04241642429
-0.04244416038
-0.04247202042
-0.04250000521
-0.04252811489
-0.04255635027
-0.04258471148
-0.04261319936
-0.04264181405
-0.0426705564
-0.04269942658
-0.04272842543
-0.04275755315
-0.04278681059
-0.04281619795
-0.04284571612
-0.04287536532
-0.04290514643
-0.0429350597
-0.04296510604
-0.04299528571
-0.04302559964
-0.04305604812
-0.04308663211
-0.04311735192
-0.04314820852
-0.04317920227
-0.04321033418
-0.04324160461
-0.04327301462
-0.04330456459
-0.04333625562
-0.04336808813
-0.04340006322
-0.04343218137
-0.0434644437
-0.04349685071
-0.04352940358
-0.04356210285
-0.04359494978
-0.04362794503
-0.04366109004
-0.04369438587
-0.04372783423
-0.04376143848
-0.04379519536
-0.04382913855
-0.04386315917
-0.04389769326
-0.04393135296
-0.0439683573
-0.04399771389
-0.04404487647
-0.04406058243
-0.04412404156
-0.04413917187
-0.04416305653
-0.04416305653
-0.04416305653
1
0.1322245366
0.06915202499
0.05344297985
0.04585383517
0.04132158144
0.03829893132
0.03616433734
0.03468459322
0.03375922881
0.03328301822
0.03312418069
0.03315892765
0.03329832603
0.03348944211
0.03370355083
0.03392506956
0.03414537648
0.03436004048
0.03456737122
0.03476733586
0.03496069055
0.035148392
0.03533128276
0.03550998057
0.03568487739
0.03585618592
0.03602399086
0.03618829447
0.03634904756
0.03650617249
0.03665957594
0.03680915892
0.03695482105
0.03709646538
0.03723399937
0.03736733785
0.03749640288
0.03762112597
0.03774144751
0.03785731865
0.03796870045
0.03807556555
0.03817789714
0.03827569036
0.03836895112
0.03845769731
0.03854195741
0.03862177153
0.03869718984
0.03876827351
0.0388350929
0.0388977284
0.03895626855
0.03901081073
0.03906145916
0.03910832556
0.03915152712
0.03919118704
0.03922743252
0.0392603953
0.03929020962
0.03931701281
0.03934094324
0.03936214097
0.03938074575
0.03939689774
0.03941073556
0.03942239709
0.0394320176
0.03943973061
0.03944566615
0.03944995168
0.03945271046
0.03945406252
0.03945412314
0.03945300392
0.03945081132
0.03944764783
0.03944361059
0.03943879261
0.03943328143
0.03942716048
0.03942050778
0.03941339728
0.03940589768
0.03939807381
0.03938998545
0.03938168875
0.03937323512
0.03936467262
0.03935604488
0.03934739255
0.03933875217
0.03933015767
0.03932163919
0.03931322465
0.03930493853
0.03929680343
0.03928883888
0.03928106282
0.03927349047
0.03926613581
0.03925901035
0.03925212466
0.03924548716
0.03923910555
0.03923298563
0.03922713273
0.03922155051
0.03921624236
0.03921121018
0.03920645578
0.03920197965
0.03919778236
0.0391938633
0.03919022205
0.03918685714
0.03918376739
0.03918095069
0.03917840531
0.03917612864
0.03917411855
0.03917237209
0.03917088687
0.03916965969
0.03916868798
0.03916796842
0.03916749831
0.0391672743
0.03916729363
0.03916755292
0.03916804944
0.03916877983
0.03916974141
0.03917093086
0.03917234557
0.0391739823
0.03917583852
0.0391779111
0.03918019758
0.03918269494
0.03918540084
0.03918831235
0.03919142723
0.03919474267
0.03919825655
0.03920196614
0.03920586945
0.03920996385
0.03921424746
0.03921871775
0.03922337294
0.03922821061
0.03923322907
0.039238426
0.03924379981
0.03924934829
0.03925506991
0.03926096255
0.03926702479
0.03927325459
0.0392796506
0.03928621087
0.03929293414
0.03929981851
0.03930686282
0.03931406524
0.03932142466
0.03932893935
0.03933660825
0.03934442969
0.0393524027
0.03936052566
0.03936879764
0.03937721711
0.0393857832
0.03939449441
0.03940334994
0.03941234835
0.03942148889
0.03943077017
0.03944019149
0.03944975151
0.03945944957
0.03946928439
0.03947925536
0.03948936123
0.03949960144
0.03950997478
0.03952048074
0.03953111815
0.03954188653
0.03955278476
0.03956381239
0.03957496835
0.03958625221
0.03959766295
0.03960920018
0.03962086289
0.03963265074
0.03964456276
0.03965659864
0.03966875743
0.03968103886
0.03969344201
0.03970596664
0.03971861186
0.03973137746
0.03974426257
0.03975726701
0.03977038996
0.03978363124
0.03979699005
0.03981046626
0.03982405909
0.03983776843
0.03985159353
0.03986553429
0.03987958998
0.03989376055
0.03990804528
0.03992244414
0.03993695643
0.03995158214
0.0399663206
0.03998117182
0.03999613515
0.04001121062
0.04002639759
0.04004169612
0.0400571056
0.04007262608
0.04008825699
0.04010399841
0.04011984976
0.04013581114
0.04015188202
0.0401680625
0.04018435204
0.0402007508
0.04021725824
0.04023387452
0.04025059914
0.04026743228
0.04028437343
0.0403014228
0.0403185799
0.04033584495
0.04035321748
0.04037069771
0.04038828521
0.0404059802
0.04042378226
0.04044169164
0.04045970792
0.04047783136
0.04049606157
0.04051439883
0.04053284274
0.0405513936
0.04057005103
0.04058881535
0.04060768618
0.04062666386
0.04064574802
0.04066493901
0.04068423649
0.0407036408
0.04072315162
0.04074276931
0.04076249356
0.04078232473
0.04080226254
0.04082230735
0.0408424589
0.04086271757
0.04088308309
0.04090355586
0.04092413562
0.04094482279
0.04096561713
0.04098651905
0.04100752834
0.04102864541
0.04104987005
0.04107120271
0.04109264318
0.04111419192
0.04113584872
0.04115761407
0.04117948777
0.0412014703
0.0412235615
0.04124576184
0.04126807118
0.04129049001
0.04131301818
0.04133565621
0.04135840396
0.04138126195
0.04140423005
0.04142730881
0.0414504981
0.04147379848
0.04149720983
0.04152073272
0.04154436706
0.04156811342
0.04159197171
0.04161594252
0.04164002578
0.04166422208
0.04168853137
0.04171295425
0.04173749068
0.04176214127
0.04178690599
0.04181178547
0.04183677969
0.0418618893
0.04188711427
0.04191245527
0.0419379123
0.04196348602
0.04198917646
0.04201498428
0.04204090952
0.04206695287
0.04209311437
0.04211939471
0.04214579396
0.04217231284
0.04219895139
0.04222571036
0.04225258981
0.0422795905
0.04230671251
0.04233395659
0.04236132285
0.04238881204
0.04241642429
0.04244416038
0.04247202042
0.04250000521
0.04252811489
0.04255635027
0.04258471148
0.04261319936
0.04264181405
0.0426705564
0.04269942658
0.04272842543
0.04275755315
0.04278681059
0.04281619795
0.04284571612
0.04287536532
0.04290514643
0.0429350597
0.04296510604
0.04299528571
0.04302559964
0.04305604812
0.04308663211
0.04311735192
0.04314820852
0.04317920227
0.04321033418
0.04324160461
0.04327301462
0.04330456459
0.04333625562
0.04336808813
0.04340006322
0.04343218137
0.0434644437
0.04349685071
0.04352940358
0.04356210285
0.04359494978
0.04362794503
0.04366109004
0.04369438587
0.04372783423
0.04376143848
0.04379519536
0.04382913855
0.04386315917
0.04389769326
0.04393135296
0.0439683573
0.04399771389
0.04404487647
0.04406058243
0.04412404156
0.04413917187
0.04416305653
0.04416305653
0.04416305653
1
0.3463169332
0.2031255882
0.158311128
0.1361958935
0.1229174946
0.114057151
0.1078387946
0.1035866923
0.1009833323
0.09969396923
0.09932117975
0.09950384201
0.0999860369
0.1006150307
0.1013067562
0.1020150421
0.1027144109
0.103391973
0.1040429019
0.1046670954
0.1052666313
0.1058441224
0.1064018701
0.1069415841
0.1074643919
0.1079709703
0.108461684
0.108936706
0.1093960986
0.109839872
0.1102680156
0.1106805225
0.1110773977
0.1114586691
0.1118243867
0.1121746289
0.1125094988
0.1128291286
0.1131336749
0.1134233223
0.1136982787
0.1139587779
0.1142050752
0.1144374493
0.1146561981
0.1148616403
0.1150541107
0.115233962
0.1154015602
0.1155572858
0.1157015293
0.1158346926
0.1159571842
0.1160694207
0.1161718218
0.1162648124
0.1163488171
0.1164242625
0.1164915721
0.1165511684
0.116603468
0.1166488841
0.1166878214
0.116720679
0.1167478452
0.1167697011
0.1167866152
0.1167989472
0.116807043
0.1168112382
0.116811854
0.1168092006
0.116803573
0.1167952547
0.1167845138
0.1167716068
0.1167567751
0.1167402484
0.1167222413
0.1167029576
0.1166825865
0.1166613065
0.1166392825
0.1166166696
0.1165936099
0.1165702364
0.1165466701
0.1165230239
0.1164993997
0.1164758921
0.1164525856
0.1164295583
0.1164068794
0.1163846127
0.1163628134
0.1163415329
0.1163208145
0.1163006985
0.1162812183
0.1162624045
0.1162442819
0.1162268733
0.116210196
0.1161942663
0.1161790955
0.1161646941
0.1161510687
0.1161382253
0.1161261662
0.1161148941
0.1161044082
0.1160947079
0.1160857901
0.1160776522
0.1160702889
0.116063696
0.1160578667
0.1160527956
0.1160484749
0.1160448983
0.1160420572
0.1160399448
0.1160385521
0.1160378717
0.1160378945
0.116038613
0.1160400178
0.1160421015
0.1160448547
0.1160482701
0.1160523383
0.1160570522
0.1160624027
0.1160683827
0.1160749835
0.1160821981
0.1160900182
0.116098437
0.1161074464
0.1161170401
0.1161272101
0.1161379505
0.1161492534
0.1161611134
0.1161735229
0.1161864766
0.1161999674
0.1162139902
0.1162285381
0.1162436063
0.1162591883
0.1162752795
0.1162918736
0.1163089663
0.1163265515
0.1163446253
0.1163631817
0.1163822169
0.1164017254
0.1164217035
0.116442146
0.1164630493
0.1164844084
0.11650622
0.1165284793
0.116551183
0.1165743266
0.1165979072
0.1166219202
0.1166463629
0.116671231
0.1166965219
0.1167222314
0.1167483571
0.116774895
0.1168018429
0.1168291968
0.1168569546
0.1168851127
0.116913669
0.1169426199
0.1169719636
0.1170016966
0.1170318172
0.1170623221
0.1170932095
0.1171244764
0.1171561211
0.1171881407
0.1172205336
0.1172532969
0.1172864294
0.117319928
0.1173537917
0.1173880176
0.1174226046
0.11745755
0.1174928528
0.1175285105
0.117564522
0.1176008849
0.1176375984
0.11767466
0.1177120689
0.1177498228
0.1177879211
0.1178263614
0.1178651432
0.1179042642
0.1179437241
0.1179835205
0.1180236531
0.1180641197
0.1181049202
0.1181460523
0.1181875159
0.1182293089
0.1182714313
0.1183138809
0.1183566578
0.1183997601
0.1184431876
0.1184869386
0.1185310132
0.1185754094
0.1186201274
0.1186651655
0.1187105238
0.1187562006
0.1188021961
0.1188485087
0.1188951387
0.1189420845
0.1189893463
0.1190369226
0.1190848139
0.1191330186
0.119181537
0.1192303679
0.1192795115
0.1193289666
0.1193787337
0.1194288113
0.1194792
0.1195298985
0.1195809075
0.1196322255
0.1196838533
0.1197357897
0.1197880353
0.1198405889
0.1198934512
0.1199466211
0.1200000994
0.1200538849
0.1201079784
0.1201623789
0.1202170872
0.1202721022
0.1203274249
0.1203830542
0.1204389911
0.1204952345
0.1205517854
0.120608643
0.1206658081
0.1207232799
0.1207810595
0.1208391458
0.1208975401
0.1209562415
0.121015251
0.1210745679
0.1211341933
0.1211941264
0.1212543684
0.1213149187
0.1213757782
0.1214369465
0.1214984246
0.121560212
0.1216223098
0.1216847175
0.1217474364
0.1218104658
0.1218738071
0.1219374597
0.1220014249
0.1220657023
0.1221302932
0.1221951971
0.1222604154
0.1223259477
0.1223917954
0.122457958
0.1225244371
0.1225912323
0.122658345
0.1227257748
0.1227935234
0.1228615904
0.1229299773
0.1229986838
0.1230677116
0.1231370603
0.1232067317
0.1232767254
0.1233470431
0.1234176846
0.1234886516
0.123559944
0.1236315634
0.1237035097
0.1237757847
0.1238483882
0.1239213221
0.1239945863
0.1240681826
0.1241421109
0.1242163731
0.1242909693
0.1243659012
0.1244411689
0.1245167744
0.1245927177
0.1246690007
0.1247456236
0.1248225883
0.124899895
0.1249775457
0.1250555406
0.1251338816
0.1252125691
0.125291605
0.1253709897
0.1254507252
0.1255308119
0.1256112518
0.1256920454
0.1257731946
0.1258547001
0.1259365638
0.1260187863
0.1261013697
0.1261843145
0.126267623
0.1263512956
0.1264353347
0.1265197407
0.126604516
0.1266896611
0.1267751785
0.1268610686
0.1269473341
0.1270339754
0.1271209951
0.1272083938
0.1272961741
0.1273843367
0.1274728842
0.1275618174
0.127651139
0.1277408499
0.1278309528
0.1279214486
0.1280123402
0.1281036286
0.1281953168
0.1282874058
0.1283798988
0.1284727969
0.1285661033
0.1286598193
0.1287539481
0.1288484912
0.1289434518
0.1290388316
0.1291346339
0.1292308603
0.1293275147
0.1294245989
0.1295221171
0.1296200725
0.12971847
0.1298173185
0.1299166117
0.1300164325
0.130116519
0.1302179466
0.1303172694
0.1304251233
0.1305134534
0.1306482316
0.130699794
0.1308805334
0.1309268922
0.1310151317
0.1310151317
0.1310151317
1
0.52082009
0.3310934406
0.2605091173
0.2246051279
0.2028463023
0.1882691419
0.1780453868
0.1710828524
0.1668391052
0.16474207
0.1641341021
0.1644291431
0.1652143941
0.1662420914
0.1673739858
0.1685332459
0.1696774066
0.1707850951
0.1718482884
0.1728666373
0.1738432777
0.1747821991
0.1756869241
0.1765600815
0.1774034282
0.1782180531
0.1790045887
0.1797633946
0.1804946782
0.1811985834
0.1818752354
0.182524777
0.1831473793
0.1837432564
0.1843126634
0.1848559035
0.1853733216
0.1858653086
0.186332294
0.1867747487
0.1871931776
0.1875881217
0.1879601503
0.1883098635
0.1886378839
0.1889448591
0.1892314535
0.1894983505
0.1897462447
0.1899758441
0.1901878623
0.1903830207
0.1905620411
0.1907256483
0.1908745621
0.1910095007
0.1911311733
0.1912402828
0.1913375194
0.1914235634
0.1914990787
0.1915647167
0.1916211095
0.1916688739
0.1917086054
0.1917408826
0.191766261
0.1917852777
0.1917984458
0.1918062594
0.1918091879
0.1918076813
0.1918021651
0.1917930454
0.191780704
0.1917655042
0.1917477854
0.1917278694
0.1917060551
0.1916826247
0.1916578391
0.1916319433
0.1916051625
0.1915777077
0.191549771
0.191521532
0.1914931532
0.1914647857
0.191436565
0.1914086169
0.191381053
0.1913539767
0.1913274783
0.1913016416
0.1912765386
0.1912522359
0.1912287898
0.1912062523
0.1911846659
0.1911640703
0.1911444967
0.1911259742
0.1911085244
0.1910921679
0.1910769183
0.191062789
0.1910497874
0.191037921
0.1910271918
0.1910176029
0.1910091524
0.1910018393
0.1909956586
0.1909906068
0.1909866761
0.190983861
0.190982152
0.1909815417
0.1909820195
0.190983577
0.1909862025
0.1909898869
0.1909946179
0.191000386
0.1910071787
0.191014986
0.1910237955
0.1910335971
0.1910443783
0.1910561294
0.1910688378
0.191082494
0.1910970858
0.1911126038
0.1911290361
0.1911463737
0.1911646051
0.1911837214
0.1912037116
0.1912245673
0.1912462777
0.1912688348
0.1912922281
0.1913164502
0.1913414908
0.1913673428
0.1913939966
0.1914214452
0.1914496794
0.1914786926
0.1915084759
0.1915390231
0.1915703256
0.1916023776
0.1916351708
0.1916686996
0.1917029561
0.1917379352
0.191773629
0.1918100327
0.191847139
0.1918849431
0.191923438
0.1919626193
0.1920024802
0.1920430165
0.1920842216
0.1921260918
0.1921686205
0.1922118043
0.1922556368
0.1923001149
0.1923452324
0.1923909863
0.1924373708
0.192484383
0.1925320173
0.1925802709
0.1926291385
0.1926786175
0.1927287028
0.192779392
0.1928306799
0.1928825646
0.192935041
0.1929881072
0.1930417584
0.1930959929
0.193150806
0.193206196
0.1932621585
0.1933186921
0.1933757923
0.1934334578
0.1934916844
0.1935504709
0.1936098132
0.1936697103
0.1937301582
0.193791156
0.1938526997
0.1939147887
0.1939774191
0.1940405903
0.1941042987
0.1941685437
0.1942333218
0.1942986324
0.1943644723
0.194430841
0.1944977353
0.1945651548
0.1946330964
0.1947015599
0.1947705422
0.1948400433
0.1949100601
0.1949805926
0.1950516379
0.1951231962
0.1951952645
0.1952678431
0.1953409293
0.1954145232
0.1954886224
0.1955632269
0.1956383345
0.1957139453
0.1957900571
0.1958666701
0.1959437822
0.1960213937
0.1960995024
0.1961781088
0.1962572109
0.1963368092
0.1964169016
0.1964974888
0.1965785687
0.1966601422
0.1967422073
0.1968247647
0.1969078126
0.1969913519
0.1970753808
0.1971599001
0.1972449082
0.197330406
0.1974163918
0.1975028667
0.197589829
0.19767728
0.1977652179
0.1978536441
0.1979425568
0.1980319575