# vtk DataFile Version 2.0
FlowField
ASCII
DATASET STRUCTURED_GRID
DIMENSIONS 400 1 200
POINTS 80000 float
0 0 0
0.08 0 0
0.16 0 0
0.24 0 0
0.32 0 0
0.4 0 0
0.48 0 0
0.56 0 0
0.64 0 0
0.72 0 0
0.8 0 0
0.88 0 0
0.96 0 0
1.04 0 0
1.12 0 0
1.2 0 0
1.28 0 0
1.36 0 0
1.44 0 0
1.52 0 0
1.6 0 0
1.68 0 0
1.76 0 0
1.84 0 0
1.92 0 0
2 0 0
2.08 0 0
2.16 0 0
2.24 0 0
2.32 0 0
2.4 0 0
2.48 0 0
2.56 0 0
2.64 0 0
2.72 0 0
2.8 0 0
2.88 0 0
2.96 0 0
3.04 0 0
3.12 0 0
3.2 0 0
3.28 0 0
3.36 0 0
3.44 0 0
3.52 0 0
3.6 0 0
3.68 0 0
3.76 0 0
3.84 0 0
3.92 0 0
4 0 0
4.08 0 0
4.16 0 0
4.24 0 0
4.32 0 0
4.4 0 0
4.48 0 0
4.56 0 0
4.64 0 0
4.72 0 0
4.8 0 0
4.88 0 0
4.96 0 0
5.04 0 0
5.12 0 0
5.2 0 0
5.28 0 0
5.36 0 0
5.44 0 0
5.52 0 0
5.6 0 0
5.68 0 0
5.76 0 0
5.84 0 0
5.92 0 0
6 0 0
6.08 0 0
6.16 0 0
6.24 0 0
6.32 0 0
6.4 0 0
6.48 0 0
6.56 0 0
6.64 0 0
6.72 0 0
6.8 0 0
6.88 0 0
6.96 0 0
7.04 0 0
7.12 0 0
7.2 0 0
7.28 0 0
7.36 0 0
7.44 0 0
7.52 0 0
7.6 0 0
7.68 0 0
7.76 0 0
7.84 0 0
7.92 0 0
8 0 0
8.08 0 0
8.16 0 0
8.24 0 0
8.32 0 0
8.4 0 0
8.48 0 0
8.56 0 0
8.64 0 0
8.72 0 0
8.8 0 0
8.88 0 0
8.96 0 0
9.04 0 0
9.12 0 0
9.2 0 0
9.28 0 0
9.36 0 0
9.44 0 0
9.52 0 0
9.6 0 0
9.68 0 0
9.76 0 0
9.84 0 0
9.92 0 0
10 0 0
10.08 0 0
10.16 0 0
10.24 0 0
10.32 0 0
10.4 0 0
10.48 0 0
10.56 0 0
10.64 0 0
10.72 0 0
10.8 0 0
10.88 0 0
10.96 0 0
11.04 0 0
11.12 0 0
11.2 0 0
11.28 0 0
11.36 0 0
11.44 0 0
11.52 0 0
11.6 0 0
11.68 0 0
11.76 0 0
11.84 0 0
11.92 0 0
12 0 0
12.08 0 0
12.16 0 0
12.24 0 0
12.32 0 0
12.4 0 0
12.48 0 0
12.56 0 0
12.64 0 0
12.72 0 0
12.8 0 0
12.88 0 0
12.96 0 0
13.04 0 0
13.12 0 0
13.2 0 0
13.28 0 0
13.36 0 0
13.44 0 0
13.52 0 0
13.6 0 0
13.68 0 0
13.76 0 0
13.84 0 0
13.92 0 0
14 0 0
14.08 0 0
14.16 0 0
14.24 0 0
14.32 0 0
14.4 0 0
14.48 0 0
14.56 0 0
14.64 0 0
14.72 0 0
14.8 0 0
14.88 0 0
14.96 0 0
15.04 0 0
15.12 0 0
15.2 0 0
15.28 0 0
15.36 0 0
15.44 0 0
15.52 0 0
15.6 0 0
15.68 0 0
15.76 0 0
15.84 0 0
15.92 0 0
16 0 0
16.08 0 0
16.16 0 0
16.24 0 0
16.32 0 0
16.4 0 0
16.48 0 0
16.56 0 0
16.64 0 0
16.72 0 0
16.8 0 0
16.88 0 0
16.96 0 0
17.04 0 0
17.12 0 0
17.2 0 0
17.28 0 0
17.36 0 0
17.44 0 0
17.52 0 0
17.6 0 0
17.68 0 0
17.76 0 0
17.84 0 0
17.92 0 0
18 0 0
18.08 0 0
18.16 0 0
18.24 0 0
18.32 0 0
18.4 0 0
18.48 0 0
18.56 0 0
18.64 0 0
18.72 0 0
18.8 0 0
18.88 0 0
18.96 0 0
19.04 0 0
19.12 0 0
19.2 0 0
19.28 0 0
19.36 0 0
19.44 0 0
19.52 0 0
19.6 0 0
19.68 0 0
19.76 0 0
19.84 0 0
19.92 0 0
20 0 0
20.08 0 0
20.16 0 0
20.24 0 0
20.32 0 0
20.4 0 0
20.48 0 0
20.56 0 0
20.64 0 0
20.72 0 0
20.8 0 0
20.88 0 0
20.96 0 0
21.04 0 0
21.12 0 0
21.2 0 0
21.28 0 0
21.36 0 0
21.44 0 0
21.52 0 0
21.6 0 0
21.68 0 0
21.76 0 0
21.84 0 0
21.92 0 0
22 0 0
22.08 0 0
22.16 0 0
22.24 0 0
22.32 0 0
22.4 0 0
22.48 0 0
22.56 0 0
22.64 0 0
22.72 0 0
22.8 0 0
22.88 0 0
22.96 0 0
23.04 0 0
23.12 0 0
23.2 0 0
23.28 0 0
23.36 0 0
23.44 0 0
23.52 0 0
23.6 0 0
23.68 0 0
23.76 0 0
23.84 0 0
23.92 0 0
24 0 0
24.08 0 0
24.16 0 0
24.24 0 0
24.32 0 0
24.4 0 0
24.48 0 0
24.56 0 0
24.64 0 0
24.72 0 0
24.8 0 0
24.88 0 0
24.96 0 0
25.04 0 0
25.12 0 0
25.2 0 0
25.28 0 0
25.36 0 0
25.44 0 0
25.52 0 0
25.6 0 0
25.68 0 0
25.76 0 0
25.84 0 0
25.92 0 0
26 0 0
26.08 0 0
26.16 0 0
26.24 0 0
26.32 0 0
26.4 0 0
26.48 0 0
26.56 0 0
26.64 0 0
26.72 0 0
26.8 0 0
26.88 0 0
26.96 0 0
27.04 0 0
27.12 0 0
27.2 0 0
27.28 0 0
27.36 0 0
27.44 0 0
27.52 0 0
27.6 0 0
27.68 0 0
27.76 0 0
27.84 0 0
27.92 0 0
28 0 0
28.08 0 0
28.16 0 0
28.24 0 0
28.32 0 0
28.4 0 0
28.48 0 0
28.56 0 0
28.64 0 0
28.72 0 0
28.8 0 0
28.88 0 0
28.96 0 0
29.04 0 0
29.12 0 0
29.2 0 0
29.28 0 0
29.36 0 0
29.44 0 0
29.52 0 0
29.6 0 0
29.68 0 0
29.76 0 0
29.84 0 0
29.92 0 0
30 0 0
30.08 0 0
30.16 0 0
30.24 0 0
30.32 0 0
30.4 0 0
30.48 0 0
30.56 0 0
30.64 0 0
30.72 0 0
30.8 0 0
30.88 0 0
30.96 0 0
31.04 0 0
31.12 0 0
31.2 0 0
31.28 0 0
31.36 0 0
31.44 0 0
31.52 0 0
31.6 0 0
31.68 0 0
31.76 0 0
31.84 0 0
31.92 0 0
0 0.005 0
0.08 0.005 0
0.16 0.005 0
0.24 0.005 0
0.32 0.005 0
0.4 0.005 0
0.48 0.005 0
0.56 0.005 0
0.64 0.005 0
0.72 0.005 0
0.8 0.005 0
0.88 0.005 0
0.96 0.005 0
1.04 0.005 0
1.12 0.005 0
1.2 0.005 0
1.28 0.005 0
1.36 0.005 0
1.44 0.005 0
1.52 0.005 0
1.6 0.005 0
1.68 0.005 0
1.76 0.005 0
1.84 0.005 0
1.92 0.005 0
2 0.005 0
2.08 0.005 0
2.16 0.005 0
2.24 0.005 0
2.32 0.005 0
2.4 0.005 0
2.48 0.005 0
2.56 0.005 0
2.64 0.005 0
2.72 0.005 0
2.8 0.005 0
2.88 0.005 0
2.96 0.005 0
3.04 0.005 0
3.12 0.005 0
3.2 0.005 0
3.28 0.005 0
3.36 0.005 0
3.44 0.005 0
3.52 0.005 0
3.6 0.005 0
3.68 0.005 0
3.76 0.005 0
3.84 0.005 0
3.92 0.005 0
4 0.005 0
4.08 0.005 0
4.16 0.005 0
4.24 0.005 0
4.32 0.005 0
4.4 0.005 0
4.48 0.005 0
4.56 0.005 0
4.64 0.005 0
4.72 0.005 0
4.8 0.005 0
4.88 0.005 0
4.96 0.005 0
5.04 0.005 0
5.12 0.005 0
5.2 0.005 0
5.28 0.005 0
5.36 0.005 0
5.44 0.005 0
5.52 0.005 0
5.6 0.005 0
5.68 0.005 0
5.76 0.005 0
5.84 0.005 0
5.92 0.005 0
6 0.005 0
6.08 0.005 0
6.16 0.005 0
6.24 0.005 0
6.32 0.005 0
6.4 0.005 0
6.48 0.005 0
6.56 0.005 0
6.64 0.005 0
6.72 0.005 0
6.8 0.005 0
6.88 0.005 0
6.96 0.005 0
7.04 0.005 0
7.12 0.005 0
7.2 0.005 0
7.28 0.005 0
7.36 0.005 0
7.44 0.005 0
7.52 0.005 0
7.6 0.005 0
7.68 0.005 0
7.76 0.005 0
7.84 0.005 0
7.92 0.005 0
8 0.005 0
8.08 0.005 0
8.16 0.005 0
8.24 0.005 0
8.32 0.005 0
8.4 0.005 0
8.48 0.005 0
8.56 0.005 0
8.64 0.005 0
8.72 0.005 0
8.8 0.005 0
8.88 0.005 0
8.96 0.005 0
9.04 0.005 0
9.12 0.005 0
9.2 0.005 0
9.28 0.005 0
9.36 0.005 0
9.44 0.005 0
9.52 0.005 0
9.6 0.005 0
9.68 0.005 0
9.76 0.005 0
9.84 0.005 0
9.92 0.005 0
10 0.005 0
10.08 0.005 0
10.16 0.005 0
10.24 0.005 0
10.32 0.005 0
10.4 0.005 0
10.48 0.005 0
10.56 0.005 0
10.64 0.005 0
10.72 0.005 0
10.8 0.005 0
10.88 0.005 0
10.96 0.005 0
11.04 0.005 0
11.12 0.005 0
11.2 0.005 0
11.28 0.005 0
11.36 0.005 0
11.44 0.005 0
11.52 0.005 0
11.6 0.005 0
11.68 0.005 0
11.76 0.005 0
11.84 0.005 0
11.92 0.005 0
12 0.005 0
12.08 0.005 0
12.16 0.005 0
12.24 0.005 0
12.32 0.005 0
12.4 0.005 0
12.48 0.005 0
12.56 0.005 0
12.64 0.005 0
12.72 0.005 0
12.8 0.005 0
12.88 0.005 0
12.96 0.005 0
13.04 0.005 0
13.12 0.005 0
13.2 0.005 0
13.28 0.005 0
13.36 0.005 0
13.44 0.005 0
13.52 0.005 0
13.6 0.005 0
13.68 0.005 0
13.76 0.005 0
13.84 0.005 0
13.92 0.005 0
14 0.005 0
14.08 0.005 0
14.16 0.005 0
14.24 0.005 0
14.32 0.005 0
14.4 0.005 0
14.48 0.005 0
14.56 0.005 0
14.64 0.005 0
14.72 0.005 0
14.8 0.005 0
14.88 0.005 0
14.96 0.005 0
15.04 0.005 0
15.12 0.005 0
15.2 0.005 0
15.28 0.005 0
15.36 0.005 0
15.44 0.005 0
15.52 0.005 0
15.6 0.005 0
15.68 0.005 0
15.76 0.005 0
15.84 0.005 0
15.92 0.005 0
16 0.005 0
16.08 0.005 0
16.16 0.005 0
16.24 0.005 0
16.32 0.005 0
16.4 0.005 0
16.48 0.005 0
16.56 0.005 0
16.64 0.005 0
16.72 0.005 0
16.8 0.005 0
16.88 0.005 0
16.96 0.005 0
17.04 0.005 0
17.12 0.005 0
17.2 0.005 0
17.28 0.005 0
17.36 0.005 0
17.44 0.005 0
17.52 0.005 0
17.6 0.005 0
17.68 0.005 0
17.76 0.005 0
17.84 0.005 0
17.92 0.005 0
18 0.005 0
18.08 0.005 0
18.16 0.005 0
18.24 0.005 0
18.32 0.005 0
18.4 0.005 0
18.48 0.005 0
18.56 0.005 0
18.64 0.005 0
18.72 0.005 0
18.8 0.005 0
18.88 0.005 0
18.96 0.005 0
19.04 0.005 0
19.12 0.005 0
19.2 0.005 0
19.28 0.005 0
19.36 0.005 0
19.44 0.005 0
19.52 0.005 0
19.6 0.005 0
19.68 0.005 0
19.76 0.005 0
19.84 0.005 0
19.92 0.005 0
20 0.005 0
20.08 0.005 0
20.16 0.005 0
20.24 0.005 0
20.32 0.005 0
20.4 0.005 0
20.48 0.005 0
20.56 0.005 0
20.64 0.005 0
20.72 0.005 0
20.8 0.005 0
20.88 0.005 0
20.96 0.005 0
21.04 0.005 0
21.12 0.005 0
21.2 0.005 0
21.28 0.005 0
21.36 0.005 0
21.44 0.005 0
21.52 0.005 0
21.6 0.005 0
21.68 0.005 0
21.76 0.005 0
21.84 0.005 0
21.92 0.005 0
22 0.005 0
22.08 0.005 0
22.16 0.005 0
22.24 0.005 0
22.32 0.005 0
22.4 0.005 0
22.48 0.005 0
22.56 0.005 0
22.64 0.005 0
22.72 0.005 0
22.8 0.005 0
22.88 0.005 0
22.96 0.005 0
23.04 0.005 0
23.12 0.005 0
23.2 0.005 0
23.28 0.005 0
23.36 0.005 0
23.44 0.005 0
23.52 0.005 0
23.6 0.005 0
23.68 0.005 0
23.76 0.005 0
23.84 0.005 0
23.92 0.005 0
24 0.005 0
24.08 0.005 0
24.16 0.005 0
24.24 0.005 0
24.32 0.005 0
24.4 0.005 0
24.48 0.005 0
24.56 0.005 0
24.64 0.005 0
24.72 0.005 0
24.8 0.005 0
24.88 0.005 0
24.96 0.005 0
25.04 0.005 0
25.12 0.005 0
25.2 0.005 0
25.28 0.005 0
25.36 0.005 0
25.44 0.005 0
25.52 0.005 0
25.6 0.005 0
25.68 0.005 0
25.76 0.005 0
25.84 0.005 0
25.92 0.005 0
26 0.005 0
26.08 0.005 0
26.16 0.005 0
26.24 0.005 0
26.32 0.005 0
26.4 0.005 0
26.48 0.005 0
26.56 0.005 0
26.64 0.005 0
26.72 0.005 0
26.8 0.005 0
26.88 0.005 0
26.96 0.005 0
27.04 0.005 0
27.12 0.005 0
27.2 0.005 0
27.28 0.005 0
27.36 0.005 0
27.44 0.005 0
27.52 0.005 0
27.6 0.005 0
27.68 0.005 0
27.76 0.005 0
27.84 0.005 0
27.92 0.005 0
28 0.005 0
28.08 0.005 0
28.16 0.005 0
28.24 0.005 0
28.32 0.005 0
28.4 0.005 0
28.48 0.005 0
28.56 0.005 0
28.64 0.005 0
28.72 0.005 0
28.8 0.005 0
28.88 0.005 0
28.96 0.005 0
29.04 0.005 0
29.12 0.005 0
29.2 0.005 0
29.28 0.005 0
29.36 0.005 0
29.44 0.005 0
29.52 0.005 0
29.6 0.005 0
29.68 0.005 0
29.76 0.005 0
29.84 0.005 0
29.92 0.005 0
30 0.005 0
30.08 0.005 0
30.16 0.005 0
30.24 0.005 0
30.32 0.005 0
30.4 0.005 0
30.48 0.005 0
30.56 0.005 0
30.64 0.005 0
30.72 0.005 0
30.8 0.005 0
30.88 0.005 0
30.96 0.005 0
31.04 0.005 0
31.12 0.005 0
31.2 0.005 0
31.28 0.005 0
31.36 0.005 0
31.44 0.005 0
31.52 0.005 0
31.6 0.005 0
31.68 0.005 0
31.76 0.005 0
31.84 0.005 0
31.92 0.005 0
0 0.01 0
0.08 0.01 0
0.16 0.01 0
0.24 0.01 0
0.32 0.01 0
0.4 0.01 0
0.48 0.01 0
0.56 0.01 0
0.64 0.01 0
0.72 0.01 0
0.8 0.01 0
0.88 0.01 0
0.96 0.01 0
1.04 0.01 0
1.12 0.01 0
1.2 0.01 0
1.28 0.01 0
1.36 0.01 0
1.44 0.01 0
1.52 0.01 0
1.6 0.01 0
1.68 0.01 0
1.76 0.01 0
1.84 0.01 0
1.92 0.01 0
2 0.01 0
2.08 0.01 0
2.16 0.01 0
2.24 0.01 0
2.32 0.01 0
2.4 0.01 0
2.48 0.01 0
2.56 0.01 0
2.64 0.01 0
2.72 0.01 0
2.8 0.01 0
2.88 0.01 0
2.96 0.01 0
3.04 0.01 0
3.12 0.01 0
3.2 0.01 0
3.28 0.01 0
3.36 0.01 0
3.44 0.01 0
3.52 0.01 0
3.6 0.01 0
3.68 0.01 0
3.76 0.01 0
3.84 0.01 0
3.92 0.01 0
4 0.01 0
4.08 0.01 0
4.16 0.01 0
4.24 0.01 0
4.32 0.01 0
4.4 0.01 0
4.48 0.01 0
4.56 0.01 0
4.64 0.01 0
4.72 0.01 0
4.8 0.01 0
4.88 0.01 0
4.96 0.01 0
5.04 0.01 0
5.12 0.01 0
[...]
POINT_DATA 80000

SCALARS p float 1
LOOKUP_TABLE default
1
56.54459923
56.24286421
56.20170443
56.18161446
56.16719553
56.15519458
56.14445116
56.13445303
56.12494744
56.11580114
56.10694041
56.09832249
56.08992098
56.08171822
56.07370118
56.06585931
56.05818341
56.05066502
56.04329624
56.03606951
56.02897767
56.02201388
56.01517165
56.00844487
56.00182776
55.9953149
55.9889012
55.9825819
55.97635255
55.97020899
55.96414732
55.95816391
55.95225535
55.94641845
55.94065024
55.9349479
55.92930883
55.92373054
55.91821073
55.91274719
55.90733788
55.90198084
55.89667425
55.89141636
55.88620552
55.88104019
55.87591887
55.87084017
55.86580275
55.86080533
55.85584671
55.85092573
55.84604129
55.84119233
55.83637786
55.8315969
55.82684854
55.8221319
55.81744612
55.81279039
55.80816393
55.80356598
55.79899584
55.7944528
55.78993619
55.78544536
55.78097969
55.77653859
55.77212147
55.76772776
55.76335693
55.75900845
55.75468182
55.75037653
55.74609212
55.74182811
55.73758407
55.73335955
55.72915413
55.72496741
55.72079897
55.71664844
55.71251543
55.70839958
55.70430052
55.70021791
55.69615142
55.6921007
55.68806544
55.68404531
55.68004002
55.67604927
55.67207275
55.66811018
55.66416129
55.66022581
55.65630345
55.65239397
55.64849711
55.64461263
55.64074026
55.63687979
55.63303097
55.62919358
55.62536739
55.62155218
55.61774774
55.61395387
55.61017035
55.60639698
55.60263357
55.59887992
55.59513584
55.59140115
55.58767567
55.58395922
55.58025162
55.57655271
55.5728623
55.56918025
55.56550639
55.56184056
55.5581826
55.55453237
55.55088971
55.54725448
55.54362653
55.54000573
55.53639193
55.532785
55.52918481
55.52559123
55.52200413
55.51842338
55.51484886
55.51128045
55.50771804
55.5041615
55.50061072
55.49706559
55.49352601
55.48999185
55.48646303
55.48293943
55.47942095
55.47590749
55.47239896
55.46889526
55.4653963
55.46190197
55.45841221
55.4549269
55.45144597
55.44796934
55.44449691
55.4410286
55.43756435
55.43410405
55.43064765
55.42719505
55.4237462
55.42030101
55.41685941
55.41342133
55.4099867
55.40655546
55.40312754
55.39970287
55.39628139
55.39286303
55.38944774
55.38603546
55.38262612
55.37921967
55.37581604
55.37241519
55.36901707
55.3656216
55.36222875
55.35883846
55.35545069
55.35206537
55.34868246
55.34530193
55.3419237
55.33854775
55.33517403
55.33180249
55.32843309
55.32506579
55.32170054
55.31833731
55.31497605
55.31161672
55.30825929
55.30490373
55.30154998
55.29819802
55.29484781
55.29149932
55.2881525
55.28480734
55.28146378
55.27812182
55.2747814
55.2714425
55.26810509
55.26476915
55.26143463
55.25810152
55.25476978
55.25143938
55.24811031
55.24478253
55.24145602
55.23813075
55.2348067
55.23148384
55.22816215
55.2248416
55.22152218
55.21820386
55.21488662
55.21157043
55.20825528
55.20494114
55.201628
55.19831584
55.19500462
55.19169435
55.18838499
55.18507652
55.18176894
55.17846222
55.17515635
55.17185131
55.16854707
55.16524364
55.16194098
55.15863908
55.15533794
55.15203753
55.14873783
55.14543884
55.14214055
55.13884293
55.13554597
55.13224966
55.128954
55.12565895
55.12236452
55.11907069
55.11577746
55.1124848
55.1091927
55.10590117
55.10261018
55.09931973
55.09602981
55.0927404
55.08945151
55.08616311
55.08287521
55.07958779
55.07630084
55.07301436
55.06972834
55.06644277
55.06315765
55.05987297
55.05658871
55.05330489
55.05002148
55.04673848
55.0434559
55.04017371
55.03689191
55.03361051
55.03032949
55.02704885
55.02376858
55.02048868
55.01720915
55.01392997
55.01065114
55.00737266
55.00409452
55.00081672
54.99753925
54.9942621
54.99098528
54.98770877
54.98443257
54.98115667
54.97788108
54.97460578
54.97133076
54.96805603
54.96478158
54.9615074
54.95823348
54.95495982
54.95168642
54.94841326
54.94514034
54.94186766
54.93859521
54.93532297
54.93205096
54.92877915
54.92550755
54.92223615
54.91896494
54.91569391
54.91242306
54.90915238
54.90588187
54.90261151
54.89934131
54.89607126
54.89280135
54.88953157
54.88626192
54.8829924
54.87972299
54.8764537
54.87318451
54.86991542
54.86664643
54.86337753
54.86010872
54.85683999
54.85357133
54.85030275
54.84703423
54.84376578
54.84049738
54.83722904
54.83396075
54.83069252
54.82742432
54.82415617
54.82088805
54.81761997
54.81435192
54.8110839
54.80781591
54.80454794
54.80128
54.79801207
54.79474417
54.79147628
54.78820841
54.78494055
54.7816727
54.77840486
54.77513703
54.77186922
54.7686014
54.7653336
54.7620658
54.75879801
54.75553022
54.75226243
54.74899465
54.74572687
54.74245909
54.73919131
54.73592354
54.73265576
54.72938799
54.72612022
54.72285245
54.71958467
54.7163169
54.71304913
54.70978136
54.70651359
54.70324581
54.69997804
54.69671027
54.69344249
54.69017472
54.68690694
54.68363917
54.68037139
54.67710362
54.67383584
54.67056806
54.66730028
54.6640325
54.66076472
54.65749694
54.65422916
54.65096138
54.6476936
54.64442581
54.64115806
0.5
56.54459923
56.54459923
56.24286421
56.20170443
56.18161446
56.16719553
56.15519458
56.14445116
56.13445303
56.12494744
56.11580114
56.10694041
56.09832249
56.08992098
56.08171822
56.07370118
56.06585931
56.05818341
56.05066502
56.04329624
56.03606951
56.02897767
56.02201388
56.01517165
56.00844487
56.00182776
55.9953149
55.9889012
55.9825819
55.97635255
55.97020899
55.96414732
55.95816391
55.95225535
55.94641845
55.94065024
55.9349479
55.92930883
55.92373054
55.91821073
55.91274719
55.90733788
55.90198084
55.89667425
55.89141636
55.88620552
55.88104019
55.87591887
55.87084017
55.86580275
55.86080533
55.85584671
55.85092573
55.84604129
55.84119233
55.83637786
55.8315969
55.82684854
55.8221319
55.81744612
55.81279039
55.80816393
55.80356598
55.79899584
55.7944528
55.78993619
55.78544536
55.78097969
55.77653859
55.77212147
55.76772776
55.76335693
55.75900845
55.75468182
55.75037653
55.74609212
55.74182811
55.73758407
55.73335955
55.72915413
55.72496741
55.72079897
55.71664844
55.71251543
55.70839958
55.70430052
55.70021791
55.69615142
55.6921007
55.68806544
55.68404531
55.68004002
55.67604927
55.67207275
55.66811018
55.66416129
55.66022581
55.65630345
55.65239397
55.64849711
55.64461263
55.64074026
55.63687979
55.63303097
55.62919358
55.62536739
55.62155218
55.61774774
55.61395387
55.61017035
55.60639698
55.60263357
55.59887992
55.59513584
55.59140115
55.58767567
55.58395922
55.58025162
55.57655271
55.5728623
55.56918025
55.56550639
55.56184056
55.5581826
55.55453237
55.55088971
55.54725448
55.54362653
55.54000573
55.53639193
55.532785
55.52918481
55.52559123
55.52200413
55.51842338
55.51484886
55.51128045
55.50771804
55.5041615
55.50061072
55.49706559
55.49352601
55.48999185
55.48646303
55.48293943
55.47942095
55.47590749
55.47239896
55.46889526
55.4653963
55.46190197
55.45841221
55.4549269
55.45144597
55.44796934
55.44449691
55.4410286
55.43756435
55.43410405
55.43064765
55.42719505
55.4237462
55.42030101
55.41685941
55.41342133
55.4099867
55.40655546
55.40312754
55.39970287
55.39628139
55.39286303
55.38944774
55.38603546
55.38262612
55.37921967
55.37581604
55.37241519
55.36901707
55.3656216
55.36222875
55.35883846
55.35545069
55.35206537
55.34868246
55.34530193
55.3419237
55.33854775
55.33517403
55.33180249
55.32843309
55.32506579
55.32170054
55.31833731
55.31497605
55.31161672
55.30825929
55.30490373
55.30154998
55.29819802
55.29484781
55.29149932
55.2881525
55.28480734
55.28146378
55.27812182
55.2747814
55.2714425
55.26810509
55.26476915
55.26143463
55.25810152
55.25476978
55.25143938
55.24811031
55.24478253
55.24145602
55.23813075
55.2348067
55.23148384
55.22816215
55.2248416
55.22152218
55.21820386
55.21488662
55.21157043
55.20825528
55.20494114
55.201628
55.19831584
55.19500462
55.19169435
55.18838499
55.18507652
55.18176894
55.17846222
55.17515635
55.17185131
55.16854707
55.16524364
55.16194098
55.15863908
55.15533794
55.15203753
55.14873783
55.14543884
55.14214055
55.13884293
55.13554597
55.13224966
55.128954
55.12565895
55.12236452
55.11907069
55.11577746
55.1124848
55.1091927
55.10590117
55.10261018
55.09931973
55.09602981
55.0927404
55.08945151
55.08616311
55.08287521
55.07958779
55.07630084
55.07301436
55.06972834
55.06644277
55.06315765
55.05987297
55.05658871
55.05330489
55.05002148
55.04673848
55.0434559
55.04017371
55.03689191
55.03361051
55.03032949
55.02704885
55.02376858
55.02048868
55.01720915
55.01392997
55.01065114
55.00737266
55.00409452
55.00081672
54.99753925
54.9942621
54.99098528
54.98770877
54.98443257
54.98115667
54.97788108
54.97460578
54.97133076
54.96805603
54.96478158
54.9615074
54.95823348
54.95495982
54.95168642
54.94841326
54.94514034
54.94186766
54.93859521
54.93532297
54.93205096
54.92877915
54.92550755
54.92223615
54.91896494
54.91569391
54.91242306
54.90915238
54.90588187
54.90261151
54.89934131
54.89607126
54.89280135
54.88953157
54.88626192
54.8829924
54.87972299
54.8764537
54.87318451
54.86991542
54.86664643
54.86337753
54.86010872
54.85683999
54.85357133
54.85030275
54.84703423
54.84376578
54.84049738
54.83722904
54.83396075
54.83069252
54.82742432
54.82415617
54.82088805
54.81761997
54.81435192
54.8110839
54.80781591
54.80454794
54.80128
54.79801207
54.79474417
54.79147628
54.78820841
54.78494055
54.7816727
54.77840486
54.77513703
54.77186922
54.7686014
54.7653336
54.7620658
54.75879801
54.75553022
54.75226243
54.74899465
54.74572687
54.74245909
54.73919131
54.73592354
54.73265576
54.72938799
54.72612022
54.72285245
54.71958467
54.7163169
54.71304913
54.70978136
54.70651359
54.70324581
54.69997804
54.69671027
54.69344249
54.69017472
54.68690694
54.68363917
54.68037139
54.67710362
54.67383584
54.67056806
54.66730028
54.6640325
54.66076472
54.65749694
54.65422916
54.65096138
54.6476936
54.64442581
54.64115806
54.64115806
56.53001748
56.53001748
56.24670009
56.20295984
56.1822497
56.16759005
56.15546627
56.14465061
56.13460617
56.12506914
56.11590056
56.10702351
56.09839329
56.08998227
56.081772
56.07374891
56.06590208
56.05822204
56.05070016
56.04332839
56.03609908
56.02900498
56.02203921
56.01519522
56.00846687
56.00184835
55.99533422
55.98891938
55.98259904
55.97636874
55.97022431
55.96416184
55.95817769
55.95226846
55.94643093
55.94066214
55.93495927
55.92931969
55.92374094
55.91822068
55.91275674
55.90734704
55.90198965
55.89668271
55.8914245
55.88621337
55.88104775
55.87592616
55.87084721
55.86580954
55.8608119
55.85585306
55.85093187
55.84604724
55.84119809
55.83638344
55.83160232
55.82685379
55.82213699
55.81745106
55.81279519
55.80816859
55.80357052
55.79900025
55.79445709
55.78994036
55.78544942
55.78098365
55.77654244
55.77212522
55.76773142
55.76336049
55.75901193
55.7546852
55.75037983
55.74609534
55.74183125
55.73758714
55.73336254
55.72915705
55.72497026
55.72080176
55.71665116
55.71251809
55.70840217
55.70430306
55.70022039
55.69615384
55.69210307
55.68806775
55.68404758
55.68004224
55.67605143
55.67207487
55.66811226
55.66416332
55.66022779
55.65630539
55.65239587
55.64849897
55.64461444
55.64074204
55.63688153
55.63303268
55.62919525
55.62536902
55.62155378
55.61774931
55.6139554
55.61017185
55.60639845
55.60263501
55.59888133
55.59513722
55.59140251
55.587677
55.58396052
55.58025289
55.57655395
55.57286352
55.56918145
55.56550756
55.5618417
55.55818372
55.55453347
55.55089079
55.54725553
55.54362756
55.54000674
55.53639292
55.53278597
55.52918577
55.52559216
55.52200504
55.51842427
55.51484974
55.51128131
55.50771888
55.50416232
55.50061153
55.49706638
55.49352678
55.48999261
55.48646377
55.48294016
55.47942166
55.47590819
55.47239965
55.46889593
55.46539696
55.46190262
55.45841284
55.45492752
55.45144658
55.44796993
55.44449749
55.44102918
55.43756491
55.4341046
55.43064819
55.42719558
55.42374671
55.42030151
55.4168599
55.41342181
55.40998718
55.40655593
55.403128
55.39970332
55.39628183
55.39286346
55.38944817
55.38603587
55.38262652
55.37922006
55.37581643
55.37241558
55.36901744
55.36562197
55.36222911
55.35883881
55.35545103
55.35206571
55.34868279
55.34530225
55.34192402
55.33854806
55.33517434
55.33180279
55.32843338
55.32506607
55.32170082
55.31833758
55.31497632
55.31161699
55.30825955
55.30490398
55.30155023
55.29819826
55.29484805
55.29149955
55.28815273
55.28480756
55.281464
55.27812203
55.27478161
55.27144271
55.2681053
55.26476935
55.26143483
55.25810171
55.25476996
55.25143957
55.24811049
55.24478271
55.24145619
55.23813092
55.23480686
55.231484
55.22816231
55.22484176
55.22152233
55.21820401
55.21488676
55.21157057
55.20825542
55.20494128
55.20162814
55.19831597
55.19500475
55.19169447
55.18838511
55.18507665
55.18176906
55.17846234
55.17515646
55.17185142
55.16854718
55.16524374
55.16194108
55.15863919
55.15533804
55.15203762
55.14873793
55.14543894
55.14214064
55.13884302
55.13554606
55.13224975
55.12895408
55.12565904
55.1223646
55.11907077
55.11577753
55.11248487
55.10919278
55.10590124
55.10261026
55.0993198
55.09602988
55.09274047
55.08945158
55.08616318
55.08287527
55.07958785
55.0763009
55.07301442
55.0697284
55.06644283
55.06315771
55.05987302
55.05658877
55.05330494
55.05002153
55.04673853
55.04345594
55.04017376
55.03689196
55.03361056
55.03032954
55.0270489
55.02376863
55.02048873
55.01720919
55.01393001
55.01065118
55.0073727
55.00409456
55.00081675
54.99753928
54.99426213
54.99098531
54.9877088
54.9844326
54.9811567
54.97788111
54.9746058
54.97133079
54.96805606
54.9647816
54.96150742
54.9582335
54.95495984
54.95168644
54.94841328
54.94514036
54.94186768
54.93859522
54.93532299
54.93205098
54.92877917
54.92550757
54.92223616
54.91896495
54.91569392
54.91242307
54.90915239
54.90588188
54.90261152
54.89934132
54.89607127
54.89280135
54.88953158
54.88626193
54.8829924
54.879723
54.8764537
54.87318451
54.86991543
54.86664644
54.86337754
54.86010872
54.85683999
54.85357133
54.85030275
54.84703423
54.84376578
54.84049738
54.83722904
54.83396076
54.83069252
54.82742432
54.82415617
54.82088805
54.81761997
54.81435192
54.8110839
54.80781591
54.80454794
54.80128
54.79801207
54.79474417
54.79147628
54.78820841
54.78494055
54.7816727
54.77840486
54.77513703
54.77186922
54.7686014
54.7653336
54.7620658
54.75879801
54.75553022
54.75226243
54.74899465
54.74572687
54.74245909
54.73919131
54.73592354
54.73265576
54.72938799
54.72612022
54.72285245
54.71958467
54.7163169
54.71304913
54.70978136
54.70651359
54.70324581
54.69997804
54.69671027
54.69344249
54.69017472
54.68690694
54.68363917
54.68037139
54.67710362
54.67383584
54.67056806
54.66730028
54.6640325
54.66076472
54.65749694
54.65422916
54.65096138
54.6476936
54.64442581
54.64115806
54.64115806
56.51403289
56.51403289
56.24988851
56.20414703
56.1828657
56.16797632
56.1557337
56.14484754
56.13475765
56.12518961
56.115999
56.10710576
56.09846331
56.09004284
56.0818251
56.07379599
56.06594423
56.05826008
56.05073474
56.04336001
56.03612814
56.02903181
56.02206407
56.01521835
56.00848845
56.00186855
55.99535317
55.9889372
55.98261583
55.9763846
55.97023931
55.96417606
55.95819119
55.95228129
55.94644315
55.94067379
55.93497039
55.92933032
55.92375111
55.91823042
55.91276608
55.907356
55.90199826
55.89669099
55.89143247
55.88622104
55.88105514
55.87593329
55.87085408
55.86581618
55.86081831
55.85585926
55.85093788
55.84605305
55.84120372
55.83638889
55.8316076
55.82685892
55.82214197
55.81745589
55.81279988
55.80817315
55.80357495
55.79900455
55.79446127
55.78994443
55.78545338
55.7809875
55.7765462
55.77212888
55.76773498
55.76336397
55.75901531
55.7546885
55.75038305
55.74609848
55.74183432
55.73759012
55.73336546
55.7291599
55.72497304
55.72080447
55.71665381
55.71252068
55.7084047
55.70430553
55.70022281
55.69615621
55.69210538
55.68807001
55.68404979
55.6800444
55.67605354
55.67207693
55.66811428
55.6641653
55.66022972
55.65630728
55.65239772
55.64850078
55.64461622
55.64074378
55.63688323
55.63303434
55.62919687
55.62537061
55.62155534
55.61775084
55.6139569
55.61017331
55.60639988
55.60263641
55.5988827
55.59513857
55.59140382
55.58767829
55.58396178
55.58025413
55.57655516
55.57286471
55.56918261
55.5655087
55.56184282
55.55818482
55.55453454
55.55089183
55.54725656
55.54362857
55.54000773
55.53639389
55.53278692
55.52918669
55.52559307
55.52200593
55.51842514
55.51485059
55.51128215
55.5077197
55.50416312
55.50061231
55.49706715
55.49352754
55.48999335
55.4864645
55.48294087
55.47942236
55.47590887
55.47240032
55.46889659
55.4653976
55.46190325
55.45841345
55.45492812
55.45144717
55.44797051
55.44449806
55.44102973
55.43756545
55.43410513
55.43064871
55.42719609
55.42374722
55.420302
55.41686038
55.41342229
55.40998764
55.40655638
55.40312844
55.39970375
55.39628225
55.39286388
55.38944858
55.38603627
55.38262692
55.37922045
55.37581681
55.37241594
55.3690178
55.36562232
55.36222946
55.35883916
55.35545136
55.35206603
55.34868312
55.34530256
55.34192433
55.33854837
55.33517463
55.33180308
55.32843367
55.32506635
55.32170109
55.31833785
55.31497658
55.31161724
55.3082598
55.30490423
55.30155047
55.2981985
55.29484828
55.29149978
55.28815295
55.28480778
55.28146422
55.27812224
55.27478181
55.27144291
55.26810549
55.26476954
55.26143501
55.25810189
55.25477014
55.25143974
55.24811066
55.24478288
55.24145636
55.23813108
55.23480702
55.23148416
55.22816246
55.22484191
55.22152248
55.21820416
55.21488691
55.21157071
55.20825556
55.20494142
55.20162827
55.1983161
55.19500488
55.1916946
55.18838523
55.18507676
55.18176918
55.17846245
55.17515658
55.17185153
55.16854729
55.16524385
55.16194118
55.15863929
55.15533814
55.15203772
55.14873802
55.14543903
55.14214073
55.13884311
55.13554615
55.13224984
55.12895416
55.12565912
55.12236468
55.11907085
55.11577761
55.11248495
55.10919285
55.10590132
55.10261033
55.09931987
55.09602995
55.09274054
55.08945164
55.08616324
55.08287533
55.07958791
55.07630096
55.07301448
55.06972846
55.06644289
55.06315776
55.05987308
55.05658882
55.05330499
55.05002158
55.04673858
55.04345599
55.0401738
55.03689201
55.0336106
55.03032958
55.02704894
55.02376867
55.02048877
55.01720923
55.01393004
55.01065121
55.00737273
55.00409459
55.00081679
54.99753931
54.99426216
54.99098534
54.98770883
54.98443263
54.98115673
54.97788113
54.97460583
54.97133082
54.96805608
54.96478163
54.96150744
54.95823352
54.95495986
54.95168646
54.9484133
54.94514038
54.94186769
54.93859524
54.93532301
54.93205099
54.92877918
54.92550758
54.92223618
54.91896496
54.91569393
54.91242308
54.9091524
54.90588189
54.90261153
54.89934133
54.89607128
54.89280136
54.88953158
54.88626194
54.88299241
54.879723
54.87645371
54.87318452
54.86991543
54.86664644
54.86337754
54.86010873
54.85683999
54.85357134
54.85030275
54.84703424
54.84376578
54.84049739
54.83722905
54.83396076
54.83069252
54.82742432
54.82415617
54.82088805
54.81761997
54.81435192
54.8110839
54.80781591
54.80454794
54.80128
54.79801207
54.79474417
54.79147628
54.78820841
54.78494055
54.7816727
54.77840486
54.77513703
54.77186922
54.7686014
54.7653336
54.7620658
54.75879801
54.75553022
54.75226243
54.74899465
54.74572687
54.74245909
54.73919131
54.73592354
54.73265576
54.72938799
54.72612022
54.72285245
54.71958467
54.7163169
54.71304913
54.70978136
54.70651359
54.70324581
54.69997804
54.69671027
54.69344249
54.69017472
54.68690694
54.68363917
54.68037139
54.67710362
54.67383584
54.67056806
54.66730028
54.6640325
54.66076472
54.65749694
54.65422916
54.65096138
54.6476936
54.64442581
54.64115806
54.64115806
56.49811807
56.49811807
56.25277511
56.20528706
56.18346729
56.16835634
56.15599794
56.14504262
56.1349079
56.12530916
56.11609666
56.10718731
56.09853268
56.09010278
56.08187759
56.07384248
56.06598581
56.05829757
56.05076879
56.04339111
56.03615671
56.02905817
56.02208849
56.01524105
56.00850963
56.00188836
55.99537175
55.98895466
55.98263229
55.97640014
55.97025401
55.96418999
55.95820441
55.95229386
55.94645511
55.94068519
55.93498127
55.92934072
55.92376106
55.91823995
55.91277521
55.90736477
55.90200667
55.89669908
55.89144025
55.88622853
55.88106236
55.87594026
55.87086081
55.86582267
55.86082458
55.85586533
55.85094374
55.84605872
55.84120922
55.83639422
55.83161276
55.82686393
55.82214682
55.8174606
55.81280445
55.80817759
55.80357927
55.79900875
55.79446535
55.7899484
55.78545725
55.78099127
55.77654986
55.77213244
55.76773846
55.76336735
55.75901861
55.75469172
55.75038619
55.74610154
55.74183731
55.73759304
55.73336831