# vtk DataFile Version 2.0
FlowField
ASCII
DATASET STRUCTURED_GRID
DIMENSIONS 400 1 200
POINTS 80000 float
0 0 0
0.08 0 0
0.16 0 0
0.24 0 0
0.32 0 0
0.4 0 0
0.48 0 0
0.56 0 0
0.64 0 0
0.72 0 0
0.8 0 0
0.88 0 0
0.96 0 0
1.04 0 0
1.12 0 0
1.2 0 0
1.28 0 0
1.36 0 0
1.44 0 0
1.52 0 0
1.6 0 0
1.68 0 0
1.76 0 0
1.84 0 0
1.92 0 0
2 0 0
2.08 0 0
2.16 0 0
2.24 0 0
2.32 0 0
2.4 0 0
2.48 0 0
2.56 0 0
2.64 0 0
2.72 0 0
2.8 0 0
2.88 0 0
2.96 0 0
3.04 0 0
3.12 0 0
3.2 0 0
3.28 0 0
3.36 0 0
3.44 0 0
3.52 0 0
3.6 0 0
3.68 0 0
3.76 0 0
3.84 0 0
3.92 0 0
4 0 0
4.08 0 0
4.16 0 0
4.24 0 0
4.32 0 0
4.4 0 0
4.48 0 0
4.56 0 0
4.64 0 0
4.72 0 0
4.8 0 0
4.88 0 0
4.96 0 0
5.04 0 0
5.12 0 0
5.2 0 0
5.28 0 0
5.36 0 0
5.44 0 0
5.52 0 0
5.6 0 0
5.68 0 0
5.76 0 0
5.84 0 0
5.92 0 0
6 0 0
6.08 0 0
6.16 0 0
6.24 0 0
6.32 0 0
6.4 0 0
6.48 0 0
6.56 0 0
6.64 0 0
6.72 0 0
6.8 0 0
6.88 0 0
6.96 0 0
7.04 0 0
7.12 0 0
7.2 0 0
7.28 0 0
7.36 0 0
7.44 0 0
7.52 0 0
7.6 0 0
7.68 0 0
7.76 0 0
7.84 0 0
7.92 0 0
8 0 0
8.08 0 0
8.16 0 0
8.24 0 0
8.32 0 0
8.4 0 0
8.48 0 0
8.56 0 0
8.64 0 0
8.72 0 0
8.8 0 0
8.88 0 0
8.96 0 0
9.04 0 0
9.12 0 0
9.2 0 0
9.28 0 0
9.36 0 0
9.44 0 0
9.52 0 0
9.6 0 0
9.68 0 0
9.76 0 0
9.84 0 0
9.92 0 0
10 0 0
10.08 0 0
10.16 0 0
10.24 0 0
10.32 0 0
10.4 0 0
10.48 0 0
10.56 0 0
10.64 0 0
10.72 0 0
10.8 0 0
10.88 0 0
10.96 0 0
11.04 0 0
11.12 0 0
11.2 0 0
11.28 0 0
11.36 0 0
11.44 0 0
11.52 0 0
11.6 0 0
11.68 0 0
11.76 0 0
11.84 0 0
11.92 0 0
12 0 0
12.08 0 0
12.16 0 0
12.24 0 0
12.32 0 0
12.4 0 0
12.48 0 0
12.56 0 0
12.64 0 0
12.72 0 0
12.8 0 0
12.88 0 0
12.96 0 0
13.04 0 0
13.12 0 0
13.2 0 0
13.28 0 0
13.36 0 0
13.44 0 0
13.52 0 0
13.6 0 0
13.68 0 0
13.76 0 0
13.84 0 0
13.92 0 0
14 0 0
14.08 0 0
14.16 0 0
14.24 0 0
14.32 0 0
14.4 0 0
14.48 0 0
14.56 0 0
14.64 0 0
14.72 0 0
14.8 0 0
14.88 0 0
14.96 0 0
15.04 0 0
15.12 0 0
15.2 0 0
15.28 0 0
15.36 0 0
15.44 0 0
15.52 0 0
15.6 0 0
15.68 0 0
15.76 0 0
15.84 0 0
15.92 0 0
16 0 0
16.08 0 0
16.16 0 0
16.24 0 0
16.32 0 0
16.4 0 0
16.48 0 0
16.56 0 0
16.64 0 0
16.72 0 0
16.8 0 0
16.88 0 0
16.96 0 0
17.04 0 0
17.12 0 0
17.2 0 0
17.28 0 0
17.36 0 0
17.44 0 0
17.52 0 0
17.6 0 0
17.68 0 0
17.76 0 0
17.84 0 0
17.92 0 0
18 0 0
18.08 0 0
18.16 0 0
18.24 0 0
18.32 0 0
18.4 0 0
18.48 0 0
18.56 0 0
18.64 0 0
18.72 0 0
18.8 0 0
18.88 0 0
18.96 0 0
19.04 0 0
19.12 0 0
19.2 0 0
19.28 0 0
19.36 0 0
19.44 0 0
19.52 0 0
19.6 0 0
19.68 0 0
19.76 0 0
19.84 0 0
19.92 0 0
20 0 0
20.08 0 0
20.16 0 0
20.24 0 0
20.32 0 0
20.4 0 0
20.48 0 0
20.56 0 0
20.64 0 0
20.72 0 0
20.8 0 0
20.88 0 0
20.96 0 0
21.04 0 0
21.12 0 0
21.2 0 0
21.28 0 0
21.36 0 0
21.44 0 0
21.52 0 0
21.6 0 0
21.68 0 0
21.76 0 0
21.84 0 0
21.92 0 0
22 0 0
22.08 0 0
22.16 0 0
22.24 0 0
22.32 0 0
22.4 0 0
22.48 0 0
22.56 0 0
22.64 0 0
22.72 0 0
22.8 0 0
22.88 0 0
22.96 0 0
23.04 0 0
23.12 0 0
23.2 0 0
23.28 0 0
23.36 0 0
23.44 0 0
23.52 0 0
23.6 0 0
23.68 0 0
23.76 0 0
23.84 0 0
23.92 0 0
24 0 0
24.08 0 0
24.16 0 0
24.24 0 0
24.32 0 0
24.4 0 0
24.48 0 0
24.56 0 0
24.64 0 0
24.72 0 0
24.8 0 0
24.88 0 0
24.96 0 0
25.04 0 0
25.12 0 0
25.2 0 0
25.28 0 0
25.36 0 0
25.44 0 0
25.52 0 0
25.6 0 0
25.68 0 0
25.76 0 0
25.84 0 0
25.92 0 0
26 0 0
26.08 0 0
26.16 0 0
26.24 0 0
26.32 0 0
26.4 0 0
26.48 0 0
26.56 0 0
26.64 0 0
26.72 0 0
26.8 0 0
26.88 0 0
26.96 0 0
27.04 0 0
27.12 0 0
27.2 0 0
27.28 0 0
27.36 0 0
27.44 0 0
27.52 0 0
27.6 0 0
27.68 0 0
27.76 0 0
27.84 0 0
27.92 0 0
28 0 0
28.08 0 0
28.16 0 0
28.24 0 0
28.32 0 0
28.4 0 0
28.48 0 0
28.56 0 0
28.64 0 0
28.72 0 0
28.8 0 0
28.88 0 0
28.96 0 0
29.04 0 0
29.12 0 0
29.2 0 0
29.28 0 0
29.36 0 0
29.44 0 0
29.52 0 0
29.6 0 0
29.68 0 0
29.76 0 0
29.84 0 0
29.92 0 0
30 0 0
30.08 0 0
30.16 0 0
30.24 0 0
30.32 0 0
30.4 0 0
30.48 0 0
30.56 0 0
30.64 0 0
30.72 0 0
30.8 0 0
30.88 0 0
30.96 0 0
31.04 0 0
31.12 0 0
31.2 0 0
31.28 0 0
31.36 0 0
31.44 0 0
31.52 0 0
31.6 0 0
31.68 0 0
31.76 0 0
31.84 0 0
31.92 0 0
0 0.005 0
0.08 0.005 0
0.16 0.005 0
0.24 0.005 0
0.32 0.005 0
0.4 0.005 0
0.48 0.005 0
0.56 0.005 0
0.64 0.005 0
0.72 0.005 0
0.8 0.005 0
0.88 0.005 0
0.96 0.005 0
1.04 0.005 0
1.12 0.005 0
1.2 0.005 0
1.28 0.005 0
1.36 0.005 0
1.44 0.005 0
1.52 0.005 0
1.6 0.005 0
1.68 0.005 0
1.76 0.005 0
1.84 0.005 0
1.92 0.005 0
2 0.005 0
2.08 0.005 0
2.16 0.005 0
2.24 0.005 0
2.32 0.005 0
2.4 0.005 0
2.48 0.005 0
2.56 0.005 0
2.64 0.005 0
2.72 0.005 0
2.8 0.005 0
2.88 0.005 0
2.96 0.005 0
3.04 0.005 0
3.12 0.005 0
3.2 0.005 0
3.28 0.005 0
3.36 0.005 0
3.44 0.005 0
3.52 0.005 0
3.6 0.005 0
3.68 0.005 0
3.76 0.005 0
3.84 0.005 0
3.92 0.005 0
4 0.005 0
4.08 0.005 0
4.16 0.005 0
4.24 0.005 0
4.32 0.005 0
4.4 0.005 0
4.48 0.005 0
4.56 0.005 0
4.64 0.005 0
4.72 0.005 0
4.8 0.005 0
4.88 0.005 0
4.96 0.005 0
5.04 0.005 0
5.12 0.005 0
5.2 0.005 0
5.28 0.005 0
5.36 0.005 0
5.44 0.005 0
5.52 0.005 0
5.6 0.005 0
5.68 0.005 0
5.76 0.005 0
5.84 0.005 0
5.92 0.005 0
6 0.005 0
6.08 0.005 0
6.16 0.005 0
6.24 0.005 0
6.32 0.005 0
6.4 0.005 0
6.48 0.005 0
6.56 0.005 0
6.64 0.005 0
6.72 0.005 0
6.8 0.005 0
6.88 0.005 0
6.96 0.005 0
7.04 0.005 0
7.12 0.005 0
7.2 0.005 0
7.28 0.005 0
7.36 0.005 0
7.44 0.005 0
7.52 0.005 0
7.6 0.005 0
7.68 0.005 0
7.76 0.005 0
7.84 0.005 0
7.92 0.005 0
8 0.005 0
8.08 0.005 0
8.16 0.005 0
8.24 0.005 0
8.32 0.005 0
8.4 0.005 0
8.48 0.005 0
8.56 0.005 0
8.64 0.005 0
8.72 0.005 0
8.8 0.005 0
8.88 0.005 0
8.96 0.005 0
9.04 0.005 0
9.12 0.005 0
9.2 0.005 0
9.28 0.005 0
9.36 0.005 0
9.44 0.005 0
9.52 0.005 0
9.6 0.005 0
9.68 0.005 0
9.76 0.005 0
9.84 0.005 0
9.92 0.005 0
10 0.005 0
10.08 0.005 0
10.16 0.005 0
10.24 0.005 0
10.32 0.005 0
10.4 0.005 0
10.48 0.005 0
10.56 0.005 0
10.64 0.005 0
10.72 0.005 0
10.8 0.005 0
10.88 0.005 0
10.96 0.005 0
11.04 0.005 0
11.12 0.005 0
11.2 0.005 0
11.28 0.005 0
11.36 0.005 0
11.44 0.005 0
11.52 0.005 0
11.6 0.005 0
11.68 0.005 0
11.76 0.005 0
11.84 0.005 0
11.92 0.005 0
12 0.005 0
12.08 0.005 0
12.16 0.005 0
12.24 0.005 0
12.32 0.005 0
12.4 0.005 0
12.48 0.005 0
12.56 0.005 0
12.64 0.005 0
12.72 0.005 0
12.8 0.005 0
12.88 0.005 0
12.96 0.005 0
13.04 0.005 0
13.12 0.005 0
13.2 0.005 0
13.28 0.005 0
13.36 0.005 0
13.44 0.005 0
13.52 0.005 0
13.6 0.005 0
13.68 0.005 0
13.76 0.005 0
13.84 0.005 0
13.92 0.005 0
14 0.005 0
14.08 0.005 0
14.16 0.005 0
14.24 0.005 0
14.32 0.005 0
14.4 0.005 0
14.48 0.005 0
14.56 0.005 0
14.64 0.005 0
14.72 0.005 0
14.8 0.005 0
14.88 0.005 0
14.96 0.005 0
15.04 0.005 0
15.12 0.005 0
15.2 0.005 0
15.28 0.005 0
15.36 0.005 0
15.44 0.005 0
15.52 0.005 0
15.6 0.005 0
15.68 0.005 0
15.76 0.005 0
15.84 0.005 0
15.92 0.005 0
16 0.005 0
16.08 0.005 0
16.16 0.005 0
16.24 0.005 0
16.32 0.005 0
16.4 0.005 0
16.48 0.005 0
16.56 0.005 0
16.64 0.005 0
16.72 0.005 0
16.8 0.005 0
16.88 0.005 0
16.96 0.005 0
17.04 0.005 0
17.12 0.005 0
17.2 0.005 0
17.28 0.005 0
17.36 0.005 0
17.44 0.005 0
17.52 0.005 0
17.6 0.005 0
17.68 0.005 0
17.76 0.005 0
17.84 0.005 0
17.92 0.005 0
18 0.005 0
18.08 0.005 0
18.16 0.005 0
18.24 0.005 0
18.32 0.005 0
18.4 0.005 0
18.48 0.005 0
18.56 0.005 0
18.64 0.005 0
18.72 0.005 0
18.8 0.005 0
18.88 0.005 0
18.96 0.005 0
19.04 0.005 0
19.12 0.005 0
19.2 0.005 0
19.28 0.005 0
19.36 0.005 0
19.44 0.005 0
19.52 0.005 0
19.6 0.005 0
19.68 0.005 0
19.76 0.005 0
19.84 0.005 0
19.92 0.005 0
20 0.005 0
20.08 0.005 0
20.16 0.005 0
20.24 0.005 0
20.32 0.005 0
20.4 0.005 0
20.48 0.005 0
20.56 0.005 0
20.64 0.005 0
20.72 0.005 0
20.8 0.005 0
20.88 0.005 0
20.96 0.005 0
21.04 0.005 0
21.12 0.005 0
21.2 0.005 0
21.28 0.005 0
21.36 0.005 0
21.44 0.005 0
21.52 0.005 0
21.6 0.005 0
21.68 0.005 0
21.76 0.005 0
21.84 0.005 0
21.92 0.005 0
22 0.005 0
22.08 0.005 0
22.16 0.005 0
22.24 0.005 0
22.32 0.005 0
22.4 0.005 0
22.48 0.005 0
22.56 0.005 0
22.64 0.005 0
22.72 0.005 0
22.8 0.005 0
22.88 0.005 0
22.96 0.005 0
23.04 0.005 0
23.12 0.005 0
23.2 0.005 0
23.28 0.005 0
23.36 0.005 0
23.44 0.005 0
23.52 0.005 0
23.6 0.005 0
23.68 0.005 0
23.76 0.005 0
23.84 0.005 0
23.92 0.005 0
24 0.005 0
24.08 0.005 0
24.16 0.005 0
24.24 0.005 0
24.32 0.005 0
24.4 0.005 0
24.48 0.005 0
24.56 0.005 0
24.64 0.005 0
24.72 0.005 0
24.8 0.005 0
24.88 0.005 0
24.96 0.005 0
25.04 0.005 0
25.12 0.005 0
25.2 0.005 0
25.28 0.005 0
25.36 0.005 0
25.44 0.005 0
25.52 0.005 0
25.6 0.005 0
25.68 0.005 0
25.76 0.005 0
25.84 0.005 0
25.92 0.005 0
26 0.005 0
26.08 0.005 0
26.16 0.005 0
26.24 0.005 0
26.32 0.005 0
26.4 0.005 0
26.48 0.005 0
26.56 0.005 0
26.64 0.005 0
26.72 0.005 0
26.8 0.005 0
26.88 0.005 0
26.96 0.005 0
27.04 0.005 0
27.12 0.005 0
27.2 0.005 0
27.28 0.005 0
27.36 0.005 0
27.44 0.005 0
27.52 0.005 0
27.6 0.005 0
27.68 0.005 0
27.76 0.005 0
27.84 0.005 0
27.92 0.005 0
28 0.005 0
28.08 0.005 0
28.16 0.005 0
28.24 0.005 0
28.32 0.005 0
28.4 0.005 0
28.48 0.005 0
28.56 0.005 0
28.64 0.005 0
28.72 0.005 0
28.8 0.005 0
28.88 0.005 0
28.96 0.005 0
29.04 0.005 0
29.12 0.005 0
29.2 0.005 0
29.28 0.005 0
29.36 0.005 0
29.44 0.005 0
29.52 0.005 0
29.6 0.005 0
29.68 0.005 0
29.76 0.005 0
29.84 0.005 0
29.92 0.005 0
30 0.005 0
30.08 0.005 0
30.16 0.005 0
30.24 0.005 0
30.32 0.005 0
30.4 0.005 0
30.48 0.005 0
30.56 0.005 0
30.64 0.005 0
30.72 0.005 0
30.8 0.005 0
30.88 0.005 0
30.96 0.005 0
31.04 0.005 0
31.12 0.005 0
31.2 0.005 0
31.28 0.005 0
31.36 0.005 0
31.44 0.005 0
31.52 0.005 0
31.6 0.005 0
31.68 0.005 0
31.76 0.005 0
31.84 0.005 0
31.92 0.005 0
0 0.01 0
0.08 0.01 0
0.16 0.01 0
0.24 0.01 0
0.32 0.01 0
0.4 0.01 0
0.48 0.01 0
0.56 0.01 0
0.64 0.01 0
0.72 0.01 0
0.8 0.01 0
0.88 0.01 0
0.96 0.01 0
1.04 0.01 0
1.12 0.01 0
1.2 0.01 0
1.28 0.01 0
1.36 0.01 0
1.44 0.01 0
1.52 0.01 0
1.6 0.01 0
1.68 0.01 0
1.76 0.01 0
1.84 0.01 0
1.92 0.01 0
2 0.01 0
2.08 0.01 0
2.16 0.01 0
2.24 0.01 0
2.32 0.01 0
2.4 0.01 0
2.48 0.01 0
2.56 0.01 0
2.64 0.01 0
2.72 0.01 0
2.8 0.01 0
2.88 0.01 0
2.96 0.01 0
3.04 0.01 0
3.12 0.01 0
3.2 0.01 0
3.28 0.01 0
3.36 0.01 0
3.44 0.01 0
3.52 0.01 0
3.6 0.01 0
3.68 0.01 0
3.76 0.01 0
3.84 0.01 0
3.92 0.01 0
4 0.01 0
4.08 0.01 0
4.16 0.01 0
4.24 0.01 0
4.32 0.01 0
4.4 0.01 0
4.48 0.01 0
4.56 0.01 0
4.64 0.01 0
4.72 0.01 0
4.8 0.01 0
4.88 0.01 0
4.96 0.01 0
5.04 0.01 0
5.12 0.01 0
[...]
POINT_DATA 80000

SCALARS v float 1
LOOKUP_TABLE default
0
0
0
0
0
0
0
0
0
0
0
0
0
0
0
0
0
0
0
0
0
0
0
0
0
0
0
0
0
0
0
0
0
0
0
0
0
0
0
0
0
0
0
0
0
0
0
0
0
0
0
0
0
0
0
0
0
0
0
0
0
0
0
0
0
0
0
0
0
0
0
0
0
0
0
0
0
0
0
0
0
0
0
0
0
0
0
0
0
0
0
0
0
0
0
0
0
0
0
0
0
0
0
0
0
0
0
0
0
0
0
0
0
0
0
0
0
0
0
0
0
0
0
0
0
0
0
0
0
0
0
0
0
0
0
0
0
0
0
0
0
0
0
0
0
0
0
0
0
0
0
0
0
0
0
0
0
0
0
0
0
0
0
0
0
0
0
0
0
0
0
0
0
0
0
0
0
0
0
0
0
0
0
0
0
0
0
0
0
0
0
0
0
0
0
0
0
0
0
0
0
0
0
0
0
0
0
0
0
0
0
0
0
0
0
0
0
0
0
0
0
0
0
0
0
0
0
0
0
0
0
0
0
0
0
0
0
0
0
0
0
0
0
0
0
0
0
0
0
0
0
0
0
0
0
0
0
0
0
0
0
0
0
0
0
0
0
0
0
0
0
0
0
0
0
0
0
0
0
0
0
0
0
0
0
0
0
0
0
0
0
0
0
0
0
0
0
0
0
0
0
0
0
0
0
0
0
0
0
0
0
0
0
0
0
0
0
0
0
0
0
0
0
0
0
0
0
0
0
0
0
0
0
0
0
0
0
0
0
0
0
0
0
0
0
0
0
0
0
0
0
0
0
0
0
0
0
0
0
0
0
0
0
0
0
0
0
0
0
0
0
0
0
0
0
0
0
0
0
0
0
0
0
0
0
0
0
0
0
0
0
0
0
0
0
0
0
0
0
0
-0.05427108998
0.05427108998
0.003962095031
0.0009983297558
0.0004922602762
0.0003026962991
0.0002073201325
0.0001516917008
0.0001162502703
9.229387564e-05
7.538071611e-05
6.302009173e-05
5.371963684e-05
4.654117877e-05
4.087332723e-05
3.630624249e-05
3.255869182e-05
2.943369924e-05
2.679068125e-05
2.452749012e-05
2.256860623e-05
2.085724318e-05
1.934999182e-05
1.801313854e-05
1.682010196e-05
1.574962602e-05
1.478448982e-05
1.391057465e-05
1.311618006e-05
1.239151595e-05
1.172831997e-05
1.111956574e-05
1.05592371e-05
1.004215144e-05
9.563819807e-06
9.120334806e-06
8.708279946e-06
8.324655658e-06
7.966818422e-06
7.632430262e-06
7.319416605e-06
7.025930897e-06
6.750324784e-06
6.491122704e-06
6.2470004e-06
6.016766325e-06
5.799345943e-06
5.593767903e-06
5.399152319e-06
5.214700453e-06
5.039685856e-06
4.873446526e-06
4.71537808e-06
4.564927848e-06
4.421589537e-06
4.284898666e-06
4.154428395e-06
4.02978593e-06
3.910609315e-06
3.796564529e-06
3.687342984e-06
3.582659139e-06
3.482248567e-06
3.385866031e-06
3.293283914e-06
3.204290668e-06
3.118689518e-06
3.036297219e-06
2.956942979e-06
2.880467497e-06
2.806721987e-06
2.735567463e-06
2.666873881e-06
2.600519542e-06
2.536390435e-06
2.474379677e-06
2.414387016e-06
2.356318296e-06
2.300085092e-06
2.245604242e-06
2.19279752e-06
2.141591299e-06
2.091916203e-06
2.043706837e-06
1.996901521e-06
1.951442049e-06
1.907273448e-06
1.864343745e-06
1.82260385e-06
1.78200727e-06
1.742509984e-06
1.704070331e-06
1.666648798e-06
1.630207894e-06
1.594712087e-06
1.560127584e-06
1.5264223e-06
1.493565741e-06
1.461528879e-06
1.430284093e-06
1.399805066e-06
1.370066732e-06
1.341045173e-06
1.312717581e-06
1.285062148e-06
1.258058087e-06
1.231685479e-06
1.205925324e-06
1.180759375e-06
1.156170225e-06
1.132141136e-06
1.10865608e-06
1.085699699e-06
1.063257229e-06
1.04131448e-06
1.019857843e-06
9.988742145e-07
9.783509858e-07
9.582760274e-07
9.386376335e-07
9.194245544e-07
9.006259231e-07
8.822312473e-07
8.642304149e-07
8.466136616e-07
8.29371523e-07
8.124948852e-07
7.95974912e-07
7.798030423e-07
7.639710236e-07
7.484708308e-07
7.332946851e-07
7.184350718e-07
7.038846729e-07
6.896364133e-07
6.756833949e-07
6.620189381e-07
6.486365632e-07
6.355299694e-07
6.226929953e-07
6.101196892e-07
5.978042527e-07
5.857410461e-07
5.739245429e-07
5.623494135e-07
5.510104313e-07
5.399025408e-07
5.290207443e-07
5.183602476e-07
5.079163323e-07
4.976844167e-07
4.87660017e-07
4.778387511e-07
4.682163535e-07
4.587886755e-07
4.495516475e-07
4.405012719e-07
4.316337077e-07
4.229451314e-07
4.144318684e-07
4.060902877e-07
3.979168458e-07
3.899080871e-07
3.820606362e-07
3.743711964e-07
3.668365051e-07
3.59453431e-07
3.52218884e-07
3.451298128e-07
3.381832711e-07
3.313763792e-07
3.247062602e-07
3.181701959e-07
3.117654326e-07
3.054893423e-07
2.993392975e-07
2.933127637e-07
2.874072559e-07
2.816203339e-07
2.759496058e-07
2.703927368e-07
2.649474317e-07
2.596114483e-07
2.543825956e-07
2.492587192e-07
2.442377126e-07
2.3931752e-07
2.344960978e-07
2.297715042e-07
2.251417729e-07
2.206050087e-07
2.161593498e-07
2.118029844e-07
2.075341162e-07
2.033509932e-07
1.992519122e-07
1.952351831e-07
1.912991589e-07
1.874422319e-07
1.836628154e-07
1.799593568e-07
1.763303472e-07
1.727742971e-07
1.692897419e-07
1.658752516e-07
1.625294249e-07
1.592508847e-07
1.560382997e-07
1.528903329e-07
1.498056696e-07
1.467830892e-07
1.438213206e-07
1.409191493e-07
1.380753617e-07
1.352888101e-07
1.325583358e-07
1.298828267e-07
1.272611538e-07
1.246922462e-07
1.22175053e-07
1.19708536e-07
1.172916777e-07
1.14923481e-07
1.12602968e-07
1.103291992e-07
1.081012335e-07
1.059181561e-07
1.037790793e-07
1.016831352e-07
9.962946941e-08
9.761724118e-08
9.564563675e-08
9.37138482e-08
9.182111074e-08
8.996665768e-08
8.814971936e-08
8.636956193e-08
8.46254645e-08
8.291671177e-08
8.124258543e-08
7.960239952e-08
7.799546155e-08
7.642107093e-08
7.487855509e-08
7.336723914e-08
7.188642435e-08
7.043545264e-08
6.90136111e-08
6.762022979e-08
6.625462009e-08
6.49160764e-08
6.360390478e-08
6.231739674e-08
6.105583215e-08
5.981849356e-08
5.860465098e-08
5.741357269e-08
5.624453101e-08
5.509678334e-08
5.396956608e-08
5.286216311e-08
5.177381517e-08
5.070378245e-08
4.965134561e-08
4.861576006e-08
4.759632449e-08
4.659232613e-08
4.560304643e-08
4.462785077e-08
4.366607214e-08
4.271708149e-08
4.178027449e-08
4.085507693e-08
3.994091701e-08
3.90373279e-08
3.814379311e-08
3.725986554e-08
3.638517695e-08
3.551931971e-08
3.466198776e-08
3.38128942e-08
3.297177324e-08
3.21384395e-08
3.131271789e-08
3.049447253e-08
2.968361637e-08
2.888011793e-08
2.808394992e-08
2.729513814e-08
2.651375061e-08
2.573986433e-08
2.497361314e-08
2.421513136e-08
2.346463341e-08
2.272229974e-08
2.198839539e-08
2.12631491e-08
2.054685809e-08
1.983979442e-08
1.914227423e-08
1.845462375e-08
1.777716199e-08
1.711023534e-08
1.645421681e-08
1.580941368e-08
1.517618857e-08
1.455487181e-08
1.394578967e-08
1.334927818e-08
1.276562424e-08
1.219512486e-08
1.163807872e-08
1.109473759e-08
1.05653205e-08
1.005005558e-08
9.549086689e-09
9.062605366e-09
8.590725112e-09
8.133574426e-09
7.69120428e-09
7.263694543e-09
6.851062918e-09
6.45329422e-09
6.070348414e-09
5.702163118e-09
5.348630521e-09
5.009666711e-09
4.6851053e-09
4.374804735e-09
4.078560966e-09
3.79620509e-09
3.527443869e-09
3.272058415e-09
3.029722506e-09
2.80018476e-09
2.583057546e-09
2.378105319e-09
2.184878922e-09
2.003138772e-09
1.832375286e-09
1.672367955e-09
1.522534673e-09
1.382660711e-09
1.252130482e-09
1.130741397e-09
1.01783126e-09
9.1331164e-10
8.164040029e-10
7.271259891e-10
6.446116433e-10
5.689728614e-10
4.992385099e-10
4.356900257e-10
3.771746341e-10
3.242013184e-10
2.754417601e-10
2.316670766e-10
1.913126608e-10
1.554739934e-10
1.222775065e-10
9.322981453e-11
6.601839449e-11
4.268214015e-11
2.039287048e-11
1.830167044e-12
-1.650276404e-11
-3.110777844e-11
-4.631029093e-11
-5.758719794e-11
-7.040536795e-11
-7.894076969e-11
-8.998852301e-11
-9.623214786e-11
-1.060893004e-10
-1.104114844e-10
-1.195638314e-10
-1.222400039e-10
-1.310594231e-10
-1.323172919e-10
-1.410321099e-10
-1.411387655e-10
-1.49845437e-10
-1.491353595e-10
-1.576355482e-10
-1.56828474e-10
-1.643356637e-10
-1.649658235e-10
-1.695442966e-10
-1.748848923e-10
-1.721863872e-10
-1.894854554e-10
-1.695267309e-10
-2.155163826e-10
-1.531588455e-10
-2.689517711e-10
-8.404711017e-11
-3.829232448e-10
4.342310489e-10
-2.220915847e-10
-2.220915847e-10
-0.09521586192
0.09521586192
0.01297562027
0.003854618276
0.001934307944
0.001196199271
0.0008217410618
0.0006023144701
0.00046206701
0.0003670409503
0.0002998306391
0.0002506449933
0.0002136016937
0.0001849938916
0.0001624004862
0.0001441951354
0.0001292597134
0.0001168097537
0.0001062845626
9.727626154e-05
8.948303228e-05
8.267779169e-05
7.668689884e-05
7.137548992e-05
6.663725084e-05
6.238719616e-05
5.855650668e-05
5.508879175e-05
5.193734767e-05
4.906311996e-05
4.643316875e-05
4.401949756e-05
4.179814809e-05
3.974849174e-05
3.785266886e-05
3.609513989e-05
3.446232256e-05
3.294229597e-05
3.152455722e-05
3.019981978e-05
2.895984532e-05
2.779730254e-05
2.67056482e-05
2.56790261e-05
2.471218117e-05
2.38003859e-05
2.293937727e-05
2.212530235e-05
2.135467121e-05
2.062431625e-05
1.99313567e-05
1.927316757e-05
1.864735271e-05
1.8051721e-05
1.748426541e-05
1.694314468e-05
1.642666697e-05
1.593327551e-05
1.54615357e-05
1.501012385e-05
1.457781695e-05
1.41634836e-05
1.376607595e-05
1.338462237e-05
1.30182209e-05
1.266603342e-05
1.232728027e-05
1.200123553e-05
1.168722258e-05
1.138461031e-05
1.109280936e-05
1.081126905e-05
1.053947433e-05
1.02769431e-05
1.002322374e-05
9.777892931e-06
9.540553485e-06
9.310832529e-06
9.088379748e-06
8.872865809e-06
8.663980884e-06
8.461433277e-06
8.264948243e-06
8.074266776e-06
7.889144592e-06
7.709351101e-06
7.534668583e-06
7.364891262e-06
7.199824558e-06
7.039284372e-06
6.883096442e-06
6.731095654e-06
6.583125493e-06
6.439037566e-06
6.298690991e-06
6.161952009e-06
6.028693533e-06
5.89879472e-06
5.772140629e-06
5.648621823e-06
5.528134094e-06
5.410578105e-06
5.295859139e-06
5.18388681e-06
5.074574819e-06
4.967840735e-06
4.863605724e-06
4.761794418e-06
4.662334649e-06
4.565157341e-06
4.470196276e-06
4.377387971e-06
4.286671509e-06
4.197988435e-06
4.111282599e-06
4.026500011e-06
3.943588786e-06
3.862498989e-06
3.78318253e-06
3.70559313e-06
3.629686144e-06
3.555418526e-06
3.482748766e-06
3.411636787e-06
3.34204388e-06
3.273932624e-06
3.207266846e-06
3.142011598e-06
3.078133001e-06
3.015598285e-06
2.954375701e-06
2.894434492e-06
2.835744822e-06
2.778277769e-06
2.722005263e-06
2.666900041e-06
2.612935666e-06
2.560086429e-06
2.508327337e-06
2.457634121e-06
2.40798317e-06
2.359351482e-06
2.311716727e-06
2.265057145e-06
2.219351504e-06
2.174579217e-06
2.130720132e-06
2.087754656e-06
2.04566369e-06
2.004428601e-06
1.964031222e-06
1.924453818e-06
1.885679086e-06
1.847690145e-06
1.810470545e-06
1.774004162e-06
1.738275305e-06
1.7032686e-06
1.668969095e-06
1.635362102e-06
1.602433311e-06
1.570168752e-06
1.538554735e-06
1.507577901e-06
1.47722516e-06
1.447483759e-06
1.418341148e-06
1.389785138e-06
1.361803743e-06
1.334385286e-06
1.307518297e-06
1.281191571e-06
1.25539417e-06
1.230115342e-06
1.205344594e-06
1.181071643e-06
1.157286432e-06
1.133979119e-06
1.111140046e-06
1.08875978e-06
1.066829096e-06
1.045338924e-06
1.024280393e-06
1.003644863e-06
9.834237998e-07
9.636088955e-07
9.441919949e-07
9.251651137e-07
9.065204266e-07
8.882502826e-07
8.70347161e-07
8.52803729e-07
8.356127742e-07
8.187672375e-07
8.022602222e-07
7.860849238e-07
7.702347132e-07
7.547031116e-07
7.39483717e-07
7.245702948e-07
7.099567152e-07
6.956369911e-07
6.816052348e-07
6.678556805e-07
6.543826935e-07
6.411807108e-07
6.282443291e-07
6.155682144e-07
6.031471698e-07
5.909760643e-07
5.790498751e-07
5.673637154e-07
5.559127608e-07
5.446922858e-07
5.336976616e-07
5.229243617e-07
5.123679225e-07
5.020240122e-07
4.918883624e-07
4.819567639e-07
4.72225159e-07
4.626895191e-07
4.533459067e-07
4.441905211e-07
4.352195587e-07
4.264293665e-07
4.178163259e-07
4.093769288e-07
4.01107731e-07
3.930053631e-07
3.850665362e-07
3.772879809e-07
3.696665982e-07
3.621992619e-07
3.548829412e-07
3.477146585e-07
3.406914877e-07
3.338105421e-07
3.270689818e-07
3.204639984e-07
3.139928285e-07
3.076527087e-07
3.014409151e-07
2.953547103e-07
2.893913879e-07
2.835482381e-07
2.778225175e-07
2.722115128e-07
2.66712464e-07
2.61322628e-07
2.560392064e-07
2.508593872e-07
2.457803434e-07
2.407992357e-07
2.359131584e-07
2.311192179e-07
2.264144925e-07
2.217960571e-07
2.172609316e-07
2.128061838e-07
2.084288259e-07
2.041259391e-07
1.998945469e-07
1.957317858e-07
1.916347317e-07
1.87600573e-07
1.836265109e-07
1.797098275e-07
1.758478843e-07
1.720381198e-07
1.682780336e-07
1.645653165e-07
1.608977023e-07
1.57273076e-07
1.53689439e-07
1.501449505e-07
1.466378918e-07
1.431667287e-07
1.397300533e-07
1.363266574e-07
1.329554447e-07
1.29615508e-07
1.263060779e-07
1.230265773e-07
1.197765607e-07
1.165557467e-07
1.133640218e-07
1.102013994e-07
1.0706805e-07
1.03964273e-07
1.00890487e-07
9.784723185e-08
9.483517604e-08
9.185511239e-08
8.890793261e-08
8.59946039e-08
8.311622461e-08
8.027389492e-08
7.746881724e-08
7.470226179e-08
7.197552499e-08
6.928995892e-08
6.66469364e-08
6.4047871e-08
6.149414909e-08
5.898711052e-08
5.652810418e-08
5.411843082e-08
5.175936253e-08
4.945212184e-08
4.719786947e-08
4.499770113e-08
4.285261557e-08
4.076351677e-08
3.873119344e-08
3.675630964e-08
3.483949964e-08
3.298122484e-08
3.11819126e-08
2.944181607e-08
2.776115475e-08
2.61399463e-08
2.457814656e-08
2.307550957e-08
2.163180393e-08
2.024651299e-08
1.891927543e-08
1.764939018e-08
1.643632641e-08
1.527913749e-08
1.417713598e-08
1.31291328e-08
1.213425775e-08
1.119108338e-08
1.029868826e-08
9.45545556e-09
8.660383419e-09
7.911735855e-09
7.208484463e-09
6.548632764e-09
5.931181251e-09
5.353901179e-09
4.815855908e-09
4.314589035e-09
3.849347609e-09
3.41747559e-09
3.01852562e-09
2.649541225e-09
2.31043092e-09
1.997895527e-09
1.712263928e-09
1.449791651e-09
1.211408013e-09
9.928211612e-10
7.957755577e-10
6.153005959e-10
4.5415943e-10
3.064694006e-10
1.762503721e-10
5.641998748e-11
-4.746140803e-11
-1.440160043e-10
-2.257428152e-10
-3.032203937e-10
-3.664815263e-10
-4.286085616e-10
-4.765508303e-10
-5.265488559e-10
-5.617624044e-10
-6.024714509e-10
-6.271238704e-10
-6.610420425e-10
-6.769390531e-10
-7.062394586e-10
-7.148058358e-10
-7.413440123e-10
-7.436644355e-10
-7.688658565e-10
-7.658070345e-10
-7.906473371e-10
-7.831153302e-10
-8.079249928e-10
-7.973287112e-10
-8.21348128e-10
-8.103267984e-10
-8.306965909e-10
-8.248788707e-10
-8.345353494e-10
-8.460403008e-10
-8.289165062e-10
-8.845746758e-10
-8.039242445e-10
-9.654750217e-10
-7.288524209e-10
-1.147523222e-09
-4.602929505e-10
-1.545110006e-09
1.441628333e-09
-9.489677683e-10
-9.489677683e-10
-0.1252930377
0.1252930377
0.02493586978
0.008358019141
0.004277996281
0.002661518933
0.001833735526
0.001346352418
0.001033884343
0.0008217036962
0.0006713867542
0.0005612497884
0.0004782321086
0.000414085093
0.0003634105533
0.0003225758233
0.0002890793754
0.0002611636634
0.0002375709654
0.0002173854455
0.0001999289056
0.0001846908205
0.0001712807028
0.0001593952446
0.0001487953692
0.0001392900086
0.0001307244929
0.0001229721367
0.0001159280635
0.000109504614
0.0001036278866
9.823509765e-05
9.327254089e-05
8.869399162e-05
8.44594433e-05
8.05340972e-05
7.688754605e-05
7.349310859e-05
7.032728243e-05
6.736929118e-05
6.460070676e-05
6.200513269e-05
5.956793693e-05
5.72760256e-05
5.511765021e-05
5.308224286e-05
5.116027484e-05
4.934313487e-05
4.762302366e-05
4.599286278e-05
4.44462151e-05
4.297721561e-05
4.158051078e-05
4.025120545e-05
3.898481607e-05
3.777722949e-05
3.662466662e-05
3.552365009e-05
3.447097576e-05
3.346368716e-05
3.249905283e-05
3.157454604e-05
3.068782664e-05
2.983672483e-05
2.901922646e-05
2.823345995e-05
2.747768436e-05
2.67502787e-05
2.604973223e-05
2.537463567e-05
2.47236732e-05
2.409561523e-05
2.34893118e-05
2.290368654e-05
2.233773117e-05
2.179050048e-05
2.126110777e-05
2.074872054e-05
2.02525567e-05
1.977188097e-05
1.930600166e-05
1.885426757e-05
1.841606528e-05
1.799081657e-05
1.757797605e-05
1.717702899e-05
1.678748923e-05
1.64088974e-05
1.604081911e-05
1.568284335e-05
1.533458101e-05
1.49956635e-05
1.466574143e-05
1.434448343e-05
1.403157499e-05
1.372671748e-05
1.342962714e-05
1.314003418e-05
1.285768196e-05
1.258232614e-05
1.231373406e-05
1.205168395e-05
1.179596427e-05
1.154637324e-05
1.130271818e-05
1.106481501e-05
1.083248774e-05
1.060556808e-05
1.038389489e-05
1.016731389e-05
9.955677272e-06
9.748843257e-06
9.546675874e-06
9.349044557e-06
9.155823914e-06
8.966893453e-06
8.782137283e-06
8.601443891e-06
8.424705961e-06
8.251820098e-06
8.082686629e-06
7.917209484e-06
7.755295964e-06
7.596856568e-06
7.441804856e-06
7.290057329e-06
7.141533227e-06
6.996154464e-06
6.853845458e-06
6.71453303e-06
6.578146316e-06
6.444616628e-06
6.313877378e-06
6.18586401e-06
6.060513842e-06
5.937766073e-06
5.817561617e-06
5.699843135e-06
5.58455484e-06
5.471642562e-06
5.361053569e-06
5.252736598e-06
5.14664175e-06
5.042720467e-06
4.94092544e-06
4.841210626e-06
4.743531129e-06
4.647843219e-06
4.554104251e-06
4.462272682e-06
4.372307952e-06
4.284170497e-06
4.197821761e-06
4.113224055e-06
4.030340626e-06
3.949135572e-06
3.869573861e-06
3.791621253e-06
3.715244295e-06
3.640410301e-06
3.567087379e-06
3.495244307e-06
3.424850596e-06
3.355876409e-06
3.288292599e-06
3.22207067e-06
3.157182745e-06
3.093601534e-06
3.031300394e-06
2.970253205e-06
2.910434445e-06
2.85181915e-06
2.794382874e-06
2.738101701e-06
2.682952206e-06
2.628911485e-06
2.575957128e-06
2.524067157e-06
2.473220089e-06
2.423394894e-06
2.374570951e-06
2.326728111e-06
2.279846608e-06
2.233907093e-06
2.188890652e-06
2.144778728e-06
2.101553146e-06
2.059196105e-06
2.017690197e-06
1.97701833e-06
1.937163807e-06
1.898110216e-06
1.859841534e-06
1.82234202e-06
1.785596295e-06
1.749589224e-06
1.714306048e-06
1.679732274e-06
1.645853701e-06
1.612656405e-06
1.580126748e-06
1.548251373e-06
1.517017175e-06
1.486411303e-06
1.456421211e-06
1.427034521e-06
1.398239175e-06
1.370023306e-06
1.342375296e-06
1.315283752e-06
1.288737535e-06
1.262725665e-06
1.237237462e-06
1.212262361e-06
1.187790093e-06
1.163810539e-06
1.1403138e-06
1.117290184e-06
1.094730191e-06
1.072624497e-06
1.050964003e-06
1.029739782e-06
1.008943076e-06
9.885653378e-07
9.68598199e-07
9.490334708e-07
9.29863128e-07
9.110793154e-07
8.92674408e-07
8.746408714e-07
8.569713469e-07
8.396586766e-07
8.226957989e-07
8.060758152e-07
7.897919618e-07
7.738375967e-07
7.582061738e-07
7.428912523e-07
7.278865044e-07
7.131856349e-07
6.987824672e-07
6.846708028e-07
6.708445584e-07
6.572976027e-07
6.440238733e-07
6.310172497e-07
6.182716401e-07
6.057809232e-07
5.935389326e-07
5.815394501e-07
5.697762602e-07
5.582430564e-07
5.46933443e-07
5.358410644e-07
5.249594295e-07
5.142820388e-07
5.038023532e-07
4.935137814e-07
4.834097344e-07
4.734835791e-07
4.637287188e-07
4.541385348e-07
4.447065047e-07
4.35426131e-07
4.262910011e-07
4.172948267e-07
4.084314114e-07
3.996947233e-07
3.910788996e-07
3.825782801e-07
3.741874151e-07
3.659011273e-07
3.577144774e-07
3.496228148e-07
3.416217718e-07
3.337073197e-07
3.258757355e-07
3.181236552e-07
3.10448084e-07
3.02846385e-07
2.953162206e-07
2.878556923e-07
2.804631794e-07
2.73137476e-07
2.658777048e-07
2.586833356e-07
2.515542144e-07
2.444904643e-07
2.374925682e-07
2.305612546e-07
2.236975435e-07
2.169027391e-07
2.101784131e-07
2.035263899e-07
1.969487228e-07
1.904476506e-07
1.840256241e-07
1.776852011e-07
1.714290844e-07
1.652601266e-07
1.591812689e-07
1.531955296e-07
1.473060215e-07
1.41515846e-07
1.358281083e-07
1.302458132e-07
1.247719497e-07
1.194093946e-07
1.14160954e-07
1.090292999e-07
1.040170289e-07
9.91264952e-08
9.435990802e-08
8.97191646e-08
8.520603699e-08
8.082195154e-08
7.656820462e-08
7.244579917e-08
6.845561707e-08
6.459814592e-08
6.087382118e-08
5.7282557e-08
5.382424824e-08
5.049822381e-08
4.730389882e-08
4.424014544e-08
4.130600467e-08
3.849986294e-08
3.582044629e-08
3.326564543e-08
3.083377894e-08
2.852217396e-08
2.632880647e-08
2.425051612e-08
2.228506871e-08
2.042892513e-08
1.867978552e-08
1.703368849e-08
1.548831445e-08
1.403922794e-08
1.2684077e-08
1.141793502e-08
1.023862617e-08
9.140727308e-09
8.122497272e-09
7.178068554e-09
6.306303723e-09
5.500786707e-09
4.761132933e-09
4.080141777e-09
3.458379723e-09
2.887701856e-09
2.36997233e-09
1.895895981e-09
1.469102216e-09
1.078818654e-09
7.308779675e-10
4.12629437e-10
1.325166741e-10
-1.24618264e-10
-3.470392697e-10
-5.532028854e-10
-7.271614202e-10
-8.915862646e-10
-1.025231561e-09
-1.156082978e-09
-1.256303422e-09
-1.360678448e-09
-1.43320821e-09
-1.517299999e-09
-1.566912495e-09
-1.636204019e-09
-1.666834203e-09
-1.726078275e-09
-1.740856042e-09
-1.794041831e-09
-1.795338965e-09
-1.845606251e-09
-1.835295702e-09
-1.884746945e-09
-1.864794686e-09
-1.914194742e-09
-1.887551658e-09
-1.935341618e-09
-1.907673339e-09
-1.947820256e-09
-1.931017823e-09
-1.948576652e-09
-1.968322359e-09
-1.929383795e-09
-2.042541625e-09
-1.869486374e-09
-2.206835915e-09
-1.704523566e-09
-2.585184383e-09
-1.132584672e-09
-3.408775081e-09
2.837617863e-09
-2.157191937e-09