# vtk DataFile Version 2.0
FlowField
ASCII
DATASET STRUCTURED_GRID
DIMENSIONS 400 1 200
POINTS 80000 float
0 0 0
0.08 0 0
0.16 0 0
0.24 0 0
0.32 0 0
0.4 0 0
0.48 0 0
0.56 0 0
0.64 0 0
0.72 0 0
0.8 0 0
0.88 0 0
0.96 0 0
1.04 0 0
1.12 0 0
1.2 0 0
1.28 0 0
1.36 0 0
1.44 0 0
1.52 0 0
1.6 0 0
1.68 0 0
1.76 0 0
1.84 0 0
1.92 0 0
2 0 0
2.08 0 0
2.16 0 0
2.24 0 0
2.32 0 0
2.4 0 0
2.48 0 0
2.56 0 0
2.64 0 0
2.72 0 0
2.8 0 0
2.88 0 0
2.96 0 0
3.04 0 0
3.12 0 0
3.2 0 0
3.28 0 0
3.36 0 0
3.44 0 0
3.52 0 0
3.6 0 0
3.68 0 0
3.76 0 0
3.84 0 0
3.92 0 0
4 0 0
4.08 0 0
4.16 0 0
4.24 0 0
4.32 0 0
4.4 0 0
4.48 0 0
4.56 0 0
4.64 0 0
4.72 0 0
4.8 0 0
4.88 0 0
4.96 0 0
5.04 0 0
5.12 0 0
5.2 0 0
5.28 0 0
5.36 0 0
5.44 0 0
5.52 0 0
5.6 0 0
5.68 0 0
5.76 0 0
5.84 0 0
5.92 0 0
6 0 0
6.08 0 0
6.16 0 0
6.24 0 0
6.32 0 0
6.4 0 0
6.48 0 0
6.56 0 0
6.64 0 0
6.72 0 0
6.8 0 0
6.88 0 0
6.96 0 0
7.04 0 0
7.12 0 0
7.2 0 0
7.28 0 0
7.36 0 0
7.44 0 0
7.52 0 0
7.6 0 0
7.68 0 0
7.76 0 0
7.84 0 0
7.92 0 0
8 0 0
8.08 0 0
8.16 0 0
8.24 0 0
8.32 0 0
8.4 0 0
8.48 0 0
8.56 0 0
8.64 0 0
8.72 0 0
8.8 0 0
8.88 0 0
8.96 0 0
9.04 0 0
9.12 0 0
9.2 0 0
9.28 0 0
9.36 0 0
9.44 0 0
9.52 0 0
9.6 0 0
9.68 0 0
9.76 0 0
9.84 0 0
9.92 0 0
10 0 0
10.08 0 0
10.16 0 0
10.24 0 0
10.32 0 0
10.4 0 0
10.48 0 0
10.56 0 0
10.64 0 0
10.72 0 0
10.8 0 0
10.88 0 0
10.96 0 0
11.04 0 0
11.12 0 0
11.2 0 0
11.28 0 0
11.36 0 0
11.44 0 0
11.52 0 0
11.6 0 0
11.68 0 0
11.76 0 0
11.84 0 0
11.92 0 0
12 0 0
12.08 0 0
12.16 0 0
12.24 0 0
12.32 0 0
12.4 0 0
12.48 0 0
12.56 0 0
12.64 0 0
12.72 0 0
12.8 0 0
12.88 0 0
12.96 0 0
13.04 0 0
13.12 0 0
13.2 0 0
13.28 0 0
13.36 0 0
13.44 0 0
13.52 0 0
13.6 0 0
13.68 0 0
13.76 0 0
13.84 0 0
13.92 0 0
14 0 0
14.08 0 0
14.16 0 0
14.24 0 0
14.32 0 0
14.4 0 0
14.48 0 0
14.56 0 0
14.64 0 0
14.72 0 0
14.8 0 0
14.88 0 0
14.96 0 0
15.04 0 0
15.12 0 0
15.2 0 0
15.28 0 0
15.36 0 0
15.44 0 0
15.52 0 0
15.6 0 0
15.68 0 0
15.76 0 0
15.84 0 0
15.92 0 0
16 0 0
16.08 0 0
16.16 0 0
16.24 0 0
16.32 0 0
16.4 0 0
16.48 0 0
16.56 0 0
16.64 0 0
16.72 0 0
16.8 0 0
16.88 0 0
16.96 0 0
17.04 0 0
17.12 0 0
17.2 0 0
17.28 0 0
17.36 0 0
17.44 0 0
17.52 0 0
17.6 0 0
17.68 0 0
17.76 0 0
17.84 0 0
17.92 0 0
18 0 0
18.08 0 0
18.16 0 0
18.24 0 0
18.32 0 0
18.4 0 0
18.48 0 0
18.56 0 0
18.64 0 0
18.72 0 0
18.8 0 0
18.88 0 0
18.96 0 0
19.04 0 0
19.12 0 0
19.2 0 0
19.28 0 0
19.36 0 0
19.44 0 0
19.52 0 0
19.6 0 0
19.68 0 0
19.76 0 0
19.84 0 0
19.92 0 0
20 0 0
20.08 0 0
20.16 0 0
20.24 0 0
20.32 0 0
20.4 0 0
20.48 0 0
20.56 0 0
20.64 0 0
20.72 0 0
20.8 0 0
20.88 0 0
20.96 0 0
21.04 0 0
21.12 0 0
21.2 0 0
21.28 0 0
21.36 0 0
21.44 0 0
21.52 0 0
21.6 0 0
21.68 0 0
21.76 0 0
21.84 0 0
21.92 0 0
22 0 0
22.08 0 0
22.16 0 0
22.24 0 0
22.32 0 0
22.4 0 0
22.48 0 0
22.56 0 0
22.64 0 0
22.72 0 0
22.8 0 0
22.88 0 0
22.96 0 0
23.04 0 0
23.12 0 0
23.2 0 0
23.28 0 0
23.36 0 0
23.44 0 0
23.52 0 0
23.6 0 0
23.68 0 0
23.76 0 0
23.84 0 0
23.92 0 0
24 0 0
24.08 0 0
24.16 0 0
24.24 0 0
24.32 0 0
24.4 0 0
24.48 0 0
24.56 0 0
24.64 0 0
24.72 0 0
24.8 0 0
24.88 0 0
24.96 0 0
25.04 0 0
25.12 0 0
25.2 0 0
25.28 0 0
25.36 0 0
25.44 0 0
25.52 0 0
25.6 0 0
25.68 0 0
25.76 0 0
25.84 0 0
25.92 0 0
26 0 0
26.08 0 0
26.16 0 0
26.24 0 0
26.32 0 0
26.4 0 0
26.48 0 0
26.56 0 0
26.64 0 0
26.72 0 0
26.8 0 0
26.88 0 0
26.96 0 0
27.04 0 0
27.12 0 0
27.2 0 0
27.28 0 0
27.36 0 0
27.44 0 0
27.52 0 0
27.6 0 0
27.68 0 0
27.76 0 0
27.84 0 0
27.92 0 0
28 0 0
28.08 0 0
28.16 0 0
28.24 0 0
28.32 0 0
28.4 0 0
28.48 0 0
28.56 0 0
28.64 0 0
28.72 0 0
28.8 0 0
28.88 0 0
28.96 0 0
29.04 0 0
29.12 0 0
29.2 0 0
29.28 0 0
29.36 0 0
29.44 0 0
29.52 0 0
29.6 0 0
29.68 0 0
29.76 0 0
29.84 0 0
29.92 0 0
30 0 0
30.08 0 0
30.16 0 0
30.24 0 0
30.32 0 0
30.4 0 0
30.48 0 0
30.56 0 0
30.64 0 0
30.72 0 0
30.8 0 0
30.88 0 0
30.96 0 0
31.04 0 0
31.12 0 0
31.2 0 0
31.28 0 0
31.36 0 0
31.44 0 0
31.52 0 0
31.6 0 0
31.68 0 0
31.76 0 0
31.84 0 0
31.92 0 0
0 0.005 0
0.08 0.005 0
0.16 0.005 0
0.24 0.005 0
0.32 0.005 0
0.4 0.005 0
0.48 0.005 0
0.56 0.005 0
0.64 0.005 0
0.72 0.005 0
0.8 0.005 0
0.88 0.005 0
0.96 0.005 0
1.04 0.005 0
1.12 0.005 0
1.2 0.005 0
1.28 0.005 0
1.36 0.005 0
1.44 0.005 0
1.52 0.005 0
1.6 0.005 0
1.68 0.005 0
1.76 0.005 0
1.84 0.005 0
1.92 0.005 0
2 0.005 0
2.08 0.005 0
2.16 0.005 0
2.24 0.005 0
2.32 0.005 0
2.4 0.005 0
2.48 0.005 0
2.56 0.005 0
2.64 0.005 0
2.72 0.005 0
2.8 0.005 0
2.88 0.005 0
2.96 0.005 0
3.04 0.005 0
3.12 0.005 0
3.2 0.005 0
3.28 0.005 0
3.36 0.005 0
3.44 0.005 0
3.52 0.005 0
3.6 0.005 0
3.68 0.005 0
3.76 0.005 0
3.84 0.005 0
3.92 0.005 0
4 0.005 0
4.08 0.005 0
4.16 0.005 0
4.24 0.005 0
4.32 0.005 0
4.4 0.005 0
4.48 0.005 0
4.56 0.005 0
4.64 0.005 0
4.72 0.005 0
4.8 0.005 0
4.88 0.005 0
4.96 0.005 0
5.04 0.005 0
5.12 0.005 0
5.2 0.005 0
5.28 0.005 0
5.36 0.005 0
5.44 0.005 0
5.52 0.005 0
5.6 0.005 0
5.68 0.005 0
5.76 0.005 0
5.84 0.005 0
5.92 0.005 0
6 0.005 0
6.08 0.005 0
6.16 0.005 0
6.24 0.005 0
6.32 0.005 0
6.4 0.005 0
6.48 0.005 0
6.56 0.005 0
6.64 0.005 0
6.72 0.005 0
6.8 0.005 0
6.88 0.005 0
6.96 0.005 0
7.04 0.005 0
7.12 0.005 0
7.2 0.005 0
7.28 0.005 0
7.36 0.005 0
7.44 0.005 0
7.52 0.005 0
7.6 0.005 0
7.68 0.005 0
7.76 0.005 0
7.84 0.005 0
7.92 0.005 0
8 0.005 0
8.08 0.005 0
8.16 0.005 0
8.24 0.005 0
8.32 0.005 0
8.4 0.005 0
8.48 0.005 0
8.56 0.005 0
8.64 0.005 0
8.72 0.005 0
8.8 0.005 0
8.88 0.005 0
8.96 0.005 0
9.04 0.005 0
9.12 0.005 0
9.2 0.005 0
9.28 0.005 0
9.36 0.005 0
9.44 0.005 0
9.52 0.005 0
9.6 0.005 0
9.68 0.005 0
9.76 0.005 0
9.84 0.005 0
9.92 0.005 0
10 0.005 0
10.08 0.005 0
10.16 0.005 0
10.24 0.005 0
10.32 0.005 0
10.4 0.005 0
10.48 0.005 0
10.56 0.005 0
10.64 0.005 0
10.72 0.005 0
10.8 0.005 0
10.88 0.005 0
10.96 0.005 0
11.04 0.005 0
11.12 0.005 0
11.2 0.005 0
11.28 0.005 0
11.36 0.005 0
11.44 0.005 0
11.52 0.005 0
11.6 0.005 0
11.68 0.005 0
11.76 0.005 0
11.84 0.005 0
11.92 0.005 0
12 0.005 0
12.08 0.005 0
12.16 0.005 0
12.24 0.005 0
12.32 0.005 0
12.4 0.005 0
12.48 0.005 0
12.56 0.005 0
12.64 0.005 0
12.72 0.005 0
12.8 0.005 0
12.88 0.005 0
12.96 0.005 0
13.04 0.005 0
13.12 0.005 0
13.2 0.005 0
13.28 0.005 0
13.36 0.005 0
13.44 0.005 0
13.52 0.005 0
13.6 0.005 0
13.68 0.005 0
13.76 0.005 0
13.84 0.005 0
13.92 0.005 0
14 0.005 0
14.08 0.005 0
14.16 0.005 0
14.24 0.005 0
14.32 0.005 0
14.4 0.005 0
14.48 0.005 0
14.56 0.005 0
14.64 0.005 0
14.72 0.005 0
14.8 0.005 0
14.88 0.005 0
14.96 0.005 0
15.04 0.005 0
15.12 0.005 0
15.2 0.005 0
15.28 0.005 0
15.36 0.005 0
15.44 0.005 0
15.52 0.005 0
15.6 0.005 0
15.68 0.005 0
15.76 0.005 0
15.84 0.005 0
15.92 0.005 0
16 0.005 0
16.08 0.005 0
16.16 0.005 0
16.24 0.005 0
16.32 0.005 0
16.4 0.005 0
16.48 0.005 0
16.56 0.005 0
16.64 0.005 0
16.72 0.005 0
16.8 0.005 0
16.88 0.005 0
16.96 0.005 0
17.04 0.005 0
17.12 0.005 0
17.2 0.005 0
17.28 0.005 0
17.36 0.005 0
17.44 0.005 0
17.52 0.005 0
17.6 0.005 0
17.68 0.005 0
17.76 0.005 0
17.84 0.005 0
17.92 0.005 0
18 0.005 0
18.08 0.005 0
18.16 0.005 0
18.24 0.005 0
18.32 0.005 0
18.4 0.005 0
18.48 0.005 0
18.56 0.005 0
18.64 0.005 0
18.72 0.005 0
18.8 0.005 0
18.88 0.005 0
18.96 0.005 0
19.04 0.005 0
19.12 0.005 0
19.2 0.005 0
19.28 0.005 0
19.36 0.005 0
19.44 0.005 0
19.52 0.005 0
19.6 0.005 0
19.68 0.005 0
19.76 0.005 0
19.84 0.005 0
19.92 0.005 0
20 0.005 0
20.08 0.005 0
20.16 0.005 0
20.24 0.005 0
20.32 0.005 0
20.4 0.005 0
20.48 0.005 0
20.56 0.005 0
20.64 0.005 0
20.72 0.005 0
20.8 0.005 0
20.88 0.005 0
20.96 0.005 0
21.04 0.005 0
21.12 0.005 0
21.2 0.005 0
21.28 0.005 0
21.36 0.005 0
21.44 0.005 0
21.52 0.005 0
21.6 0.005 0
21.68 0.005 0
21.76 0.005 0
21.84 0.005 0
21.92 0.005 0
22 0.005 0
22.08 0.005 0
22.16 0.005 0
22.24 0.005 0
22.32 0.005 0
22.4 0.005 0
22.48 0.005 0
22.56 0.005 0
22.64 0.005 0
22.72 0.005 0
22.8 0.005 0
22.88 0.005 0
22.96 0.005 0
23.04 0.005 0
23.12 0.005 0
23.2 0.005 0
23.28 0.005 0
23.36 0.005 0
23.44 0.005 0
23.52 0.005 0
23.6 0.005 0
23.68 0.005 0
23.76 0.005 0
23.84 0.005 0
23.92 0.005 0
24 0.005 0
24.08 0.005 0
24.16 0.005 0
24.24 0.005 0
24.32 0.005 0
24.4 0.005 0
24.48 0.005 0
24.56 0.005 0
24.64 0.005 0
24.72 0.005 0
24.8 0.005 0
24.88 0.005 0
24.96 0.005 0
25.04 0.005 0
25.12 0.005 0
25.2 0.005 0
25.28 0.005 0
25.36 0.005 0
25.44 0.005 0
25.52 0.005 0
25.6 0.005 0
25.68 0.005 0
25.76 0.005 0
25.84 0.005 0
25.92 0.005 0
26 0.005 0
26.08 0.005 0
26.16 0.005 0
26.24 0.005 0
26.32 0.005 0
26.4 0.005 0
26.48 0.005 0
26.56 0.005 0
26.64 0.005 0
26.72 0.005 0
26.8 0.005 0
26.88 0.005 0
26.96 0.005 0
27.04 0.005 0
27.12 0.005 0
27.2 0.005 0
27.28 0.005 0
27.36 0.005 0
27.44 0.005 0
27.52 0.005 0
27.6 0.005 0
27.68 0.005 0
27.76 0.005 0
27.84 0.005 0
27.92 0.005 0
28 0.005 0
28.08 0.005 0
28.16 0.005 0
28.24 0.005 0
28.32 0.005 0
28.4 0.005 0
28.48 0.005 0
28.56 0.005 0
28.64 0.005 0
28.72 0.005 0
28.8 0.005 0
28.88 0.005 0
28.96 0.005 0
29.04 0.005 0
29.12 0.005 0
29.2 0.005 0
29.28 0.005 0
29.36 0.005 0
29.44 0.005 0
29.52 0.005 0
29.6 0.005 0
29.68 0.005 0
29.76 0.005 0
29.84 0.005 0
29.92 0.005 0
30 0.005 0
30.08 0.005 0
30.16 0.005 0
30.24 0.005 0
30.32 0.005 0
30.4 0.005 0
30.48 0.005 0
30.56 0.005 0
30.64 0.005 0
30.72 0.005 0
30.8 0.005 0
30.88 0.005 0
30.96 0.005 0
31.04 0.005 0
31.12 0.005 0
31.2 0.005 0
31.28 0.005 0
31.36 0.005 0
31.44 0.005 0
31.52 0.005 0
31.6 0.005 0
31.68 0.005 0
31.76 0.005 0
31.84 0.005 0
31.92 0.005 0
0 0.01 0
0.08 0.01 0
0.16 0.01 0
0.24 0.01 0
0.32 0.01 0
0.4 0.01 0
0.48 0.01 0
0.56 0.01 0
0.64 0.01 0
0.72 0.01 0
0.8 0.01 0
0.88 0.01 0
0.96 0.01 0
1.04 0.01 0
1.12 0.01 0
1.2 0.01 0
1.28 0.01 0
1.36 0.01 0
1.44 0.01 0
1.52 0.01 0
1.6 0.01 0
1.68 0.01 0
1.76 0.01 0
1.84 0.01 0
1.92 0.01 0
2 0.01 0
2.08 0.01 0
2.16 0.01 0
2.24 0.01 0
2.32 0.01 0
2.4 0.01 0
2.48 0.01 0
2.56 0.01 0
2.64 0.01 0
2.72 0.01 0
2.8 0.01 0
2.88 0.01 0
2.96 0.01 0
3.04 0.01 0
3.12 0.01 0
3.2 0.01 0
3.28 0.01 0
3.36 0.01 0
3.44 0.01 0
3.52 0.01 0
3.6 0.01 0
3.68 0.01 0
3.76 0.01 0
3.84 0.01 0
3.92 0.01 0
4 0.01 0
4.08 0.01 0
4.16 0.01 0
4.24 0.01 0
4.32 0.01 0
4.4 0.01 0
4.48 0.01 0
4.56 0.01 0
4.64 0.01 0
4.72 0.01 0
4.8 0.01 0
4.88 0.01 0
4.96 0.01 0
5.04 0.01 0
5.12 0.01 0
[...]
POINT_DATA 80000

SCALARS v float 1
LOOKUP_TABLE default
0
0
0
0
0
0
0
0
0
0
0
0
0
0
0
0
0
0
0
0
0
0
0
0
0
0
0
0
0
0
0
0
0
0
0
0
0
0
0
0
0
0
0
0
0
0
0
0
0
0
0
0
0
0
0
0
0
0
0
0
0
0
0
0
0
0
0
0
0
0
0
0
0
0
0
0
0
0
0
0
0
0
0
0
0
0
0
0
0
0
0
0
0
0
0
0
0
0
0
0
0
0
0
0
0
0
0
0
0
0
0
0
0
0
0
0
0
0
0
0
0
0
0
0
0
0
0
0
0
0
0
0
0
0
0
0
0
0
0
0
0
0
0
0
0
0
0
0
0
0
0
0
0
0
0
0
0
0
0
0
0
0
0
0
0
0
0
0
0
0
0
0
0
0
0
0
0
0
0
0
0
0
0
0
0
0
0
0
0
0
0
0
0
0
0
0
0
0
0
0
0
0
0
0
0
0
0
0
0
0
0
0
0
0
0
0
0
0
0
0
0
0
0
0
0
0
0
0
0
0
0
0
0
0
0
0
0
0
0
0
0
0
0
0
0
0
0
0
0
0
0
0
0
0
0
0
0
0
0
0
0
0
0
0
0
0
0
0
0
0
0
0
0
0
0
0
0
0
0
0
0
0
0
0
0
0
0
0
0
0
0
0
0
0
0
0
0
0
0
0
0
0
0
0
0
0
0
0
0
0
0
0
0
0
0
0
0
0
0
0
0
0
0
0
0
0
0
0
0
0
0
0
0
0
0
0
0
0
0
0
0
0
0
0
0
0
0
0
0
0
0
0
0
0
0
0
0
0
0
0
0
0
0
0
0
0
0
0
0
0
0
0
0
0
0
0
0
0
0
0
0
0
0
0
0
0
0
0
0
0
0
0
0
0
0
0
0
0
0
0
-0.0542712335
0.0542712335
0.003962243399
0.0009984800227
0.0004924113977
0.0003028479315
0.000207472118
0.0001518439548
0.0001164027411
9.244652702e-05
7.553352297e-05
6.317304078e-05
5.387272023e-05
4.669438065e-05
4.102662447e-05
3.645962732e-05
3.271218334e-05
2.958731086e-05
2.694437694e-05
2.46812033e-05
2.272232337e-05
2.101104296e-05
1.950395226e-05
1.816719664e-05
1.697405916e-05
1.590334861e-05
1.493808892e-05
1.406430656e-05
1.327010724e-05
1.254529695e-05
1.188143174e-05
1.127179857e-05
1.071093215e-05
1.019383497e-05
9.715509804e-06
9.271215415e-06
8.857161767e-06
8.470871713e-06
8.110697198e-06
7.774791353e-06
7.460427981e-06
7.164324414e-06
6.883739434e-06
6.617380226e-06
6.365252844e-06
6.127470476e-06
5.902942189e-06
5.689017759e-06
5.482413733e-06
5.280703231e-06
5.083163852e-06
4.890245274e-06
4.70198745e-06
4.516578095e-06
4.330232775e-06
4.138702726e-06
3.939579451e-06
3.733958291e-06
3.526357041e-06
3.322835444e-06
3.128348444e-06
2.944810184e-06
2.770903051e-06
2.603638623e-06
2.440698133e-06
2.282201988e-06
2.130947749e-06
1.991038928e-06
1.865687046e-06
1.755357203e-06
1.657190419e-06
1.565957592e-06
1.476062754e-06
1.383672415e-06
1.288068282e-06
1.191728701e-06
1.099208322e-06
1.015346575e-06
9.435212443e-07
8.845497743e-07
8.365238261e-07
7.955008063e-07
7.56710458e-07
7.158362248e-07
6.699954542e-07
6.182074612e-07
5.613274005e-07
5.015726903e-07
4.418441605e-07
3.850468308e-07
3.335622729e-07
2.889484546e-07
2.518693099e-07
2.222034573e-07
1.9925748e-07
1.820100716e-07
1.693310528e-07
1.601437156e-07
1.53521775e-07
1.487284442e-07
1.452135545e-07
1.42586452e-07
1.405794523e-07
1.390122624e-07
1.377625649e-07
1.367449452e-07
1.358969819e-07
1.351712142e-07
1.345307365e-07
1.339470004e-07
1.333984451e-07
1.32869522e-07
1.323497047e-07
1.31832448e-07
1.313142036e-07
1.307934424e-07
1.302698939e-07
1.297440109e-07
1.2921648e-07
1.286880061e-07
1.281591719e-07
1.276303855e-07
1.271018873e-07
1.265737787e-07
1.260460664e-07
1.255186815e-07
1.249915344e-07
1.244645457e-07
1.239375878e-07
1.234105978e-07
1.228835251e-07
1.223563096e-07
1.218289428e-07
1.21301384e-07
1.207736556e-07
1.202457374e-07
1.197176322e-07
1.191893514e-07
1.186609165e-07
1.181323127e-07
1.176035633e-07
1.170746607e-07
1.165456159e-07
1.160164295e-07
1.154871183e-07
1.149576736e-07
1.1442809e-07
1.138983785e-07
1.133685416e-07
1.128385675e-07
1.123084662e-07
1.117782239e-07
1.112478526e-07
1.107173623e-07
1.101867137e-07
1.096559227e-07
1.091250012e-07
1.085939248e-07
1.080627062e-07
1.075313384e-07
1.069998261e-07
1.064681576e-07
1.059363418e-07
1.054043643e-07
1.048722363e-07
1.043399451e-07
1.03807497e-07
1.032748907e-07
1.027421224e-07
1.022091869e-07
1.01676095e-07
1.011428205e-07
1.006094008e-07
1.000757825e-07
9.954202436e-08
9.900808956e-08
9.8473983e-08
9.793970005e-08
9.740525236e-08
9.687063315e-08
9.633583469e-08
9.580086552e-08
9.526571763e-08
9.473040865e-08
9.419491876e-08
9.365924929e-08
9.312341155e-08
9.258737958e-08
9.205119033e-08
9.151481786e-08
9.097826664e-08
9.044154315e-08
8.990464272e-08
8.936754803e-08
8.883028689e-08
8.829284855e-08
8.775523002e-08
8.721742985e-08
8.667945472e-08
8.61413136e-08
8.560296646e-08
8.506444885e-08
8.452575753e-08
8.398689025e-08
8.344784353e-08
8.290861028e-08
8.236919718e-08
8.182961809e-08
8.128985356e-08
8.074990058e-08
8.020977928e-08
7.966946929e-08
7.9128986e-08
7.858832497e-08
7.80474835e-08
7.750646568e-08
7.696526517e-08
7.642389048e-08
7.588233499e-08
7.53406112e-08
7.479869771e-08
7.425661053e-08
7.371434755e-08
7.317190166e-08
7.262928134e-08
7.208648945e-08
7.154351543e-08
7.100036587e-08
7.04570391e-08
6.991354529e-08
6.936986268e-08
6.882601141e-08
6.828197644e-08
6.773777873e-08
6.719339338e-08
6.664883072e-08
6.610411089e-08
6.555920429e-08
6.501411572e-08
6.446886109e-08
6.39234357e-08
6.337782734e-08
6.283205541e-08
6.228610391e-08
6.173997592e-08
6.119367674e-08
6.064720139e-08
6.010054688e-08
5.955373577e-08
5.900673434e-08
5.84595686e-08
5.791223281e-08
5.736472197e-08
5.681703429e-08
5.626917791e-08
5.572114488e-08
5.517293696e-08
5.462456849e-08
5.407602536e-08
5.352730306e-08
5.29784196e-08
5.242935227e-08
5.188011436e-08
5.133070258e-08
5.078112939e-08
5.023138581e-08
4.968145477e-08
4.913135832e-08
4.85810925e-08
4.803065841e-08
4.748005295e-08
4.692927728e-08
4.637831931e-08
4.582719403e-08
4.527590396e-08
4.472442409e-08
4.417279774e-08
4.362097987e-08
4.306900254e-08
4.251683924e-08
4.196451872e-08
4.141201379e-08
4.085934256e-08
4.030649146e-08
3.975347212e-08
3.920028842e-08
3.864692406e-08
3.809340097e-08
3.753968186e-08
3.698580421e-08
3.643174454e-08
3.587751794e-08
3.532310688e-08
3.476853858e-08
3.421378464e-08
3.365886305e-08
3.310376459e-08
3.254848163e-08
3.199303373e-08
3.143741549e-08
3.088161676e-08
3.032564899e-08
2.976949251e-08
2.921316418e-08
2.865666368e-08
2.809997461e-08
2.754311966e-08
2.698608411e-08
2.642887484e-08
2.587148664e-08
2.531391564e-08
2.475616695e-08
2.419824055e-08
2.364013337e-08
2.308186142e-08
2.252338321e-08
2.196475951e-08
2.140589759e-08
2.084694052e-08
2.028768181e-08
1.972842355e-08
1.916872533e-08
1.860919258e-08
1.804900357e-08
1.748926966e-08
1.692849199e-08
1.636867135e-08
1.580719809e-08
1.524739129e-08
1.468508689e-08
1.412546007e-08
1.356215502e-08
1.300285421e-08
1.243838984e-08
1.187958204e-08
1.131378579e-08
1.075566432e-08
1.018832007e-08
9.631081962e-09
9.061954635e-09
8.505918618e-09
7.934641296e-09
7.380226685e-09
6.806259372e-09
6.254096958e-09
5.676705204e-09
5.127670212e-09
4.545801474e-09
4.001160738e-09
3.413333675e-09
2.874774422e-09
2.279030372e-09
1.748808126e-09
1.14257096e-09
6.235808138e-10
3.619394212e-12
-5.004986275e-10
-1.138280388e-09
-1.622921396e-09
-2.283690034e-09
-2.743100006e-09
-3.433207956e-09
-3.860284009e-09
-4.587688642e-09
-4.973476927e-09
-5.748165188e-09
-6.081493748e-09
-6.915906732e-09
-7.182851604e-09
-8.092435326e-09
-8.275787386e-09
-9.279419658e-09
-9.358499392e-09
-1.047850741e-08
-1.04293171e-08
-1.169087621e-08
-1.148754431e-08
-1.291631749e-08
-1.253481679e-08
-1.415156415e-08
-1.357815121e-08
-1.538687118e-08
-1.463604347e-08
-1.659957945e-08
-1.575139465e-08
-1.774067364e-08
-1.701963548e-08
-1.870637566e-08
-1.865206471e-08
-1.926946648e-08
-2.112674527e-08
-1.888051179e-08
-2.556051157e-08
-1.590615843e-08
-3.462736606e-08
-3.254771539e-09
-5.41500287e-08
8.837344289e-08
-2.424264438e-08
-2.424264438e-08
-0.09521602394
0.09521602394
0.01297579623
0.003854801265
0.001934494258
0.001196387595
0.0008219307869
0.0006025052645
0.0004622586685
0.0003672333296
0.0003000236413
0.0002508385654
0.0002137957991
0.0001851884647
0.0001625954423
0.0001443904521
0.0001294554579
0.0001170059571
0.0001064810771
9.747285349e-05
8.967967936e-05
8.28747833e-05
7.688447124e-05
7.157335215e-05
6.683467372e-05
6.258375544e-05
5.875265639e-05
5.52854029e-05
5.213448231e-05
4.925940091e-05
4.662671407e-05
4.420968129e-05
4.198626128e-05
3.993623916e-05
3.803970013e-05
3.627812767e-05
3.463686272e-05
3.310610737e-05
3.167886399e-05
3.034718473e-05
2.910000133e-05
2.792465124e-05
2.681093012e-05
2.575406335e-05
2.47536955e-05
2.380933816e-05
2.29158295e-05
2.206254367e-05
2.123712376e-05
2.043081292e-05
1.964104055e-05
1.886895898e-05
1.811357358e-05
1.736695124e-05
1.661456373e-05
1.584137424e-05
1.504022988e-05
1.421727953e-05
1.339075154e-05
1.258342483e-05
1.181292697e-05
1.108524015e-05
1.039482208e-05
9.730880346e-06
9.085926963e-06
8.461697644e-06
7.869247897e-06
7.32337206e-06
6.834505608e-06
6.402414587e-06
6.014844729e-06
5.651701038e-06
5.292692646e-06
4.924956855e-06
4.54746623e-06
4.170658088e-06
3.811809844e-06
3.488278277e-06
3.211258373e-06
2.98216708e-06
2.792525969e-06
2.626896531e-06
2.467507994e-06
2.298940137e-06
2.111528957e-06
1.90280724e-06
1.676988057e-06
1.443021779e-06
1.212001587e-06
9.946656177e-07
7.995294146e-07
6.3189135e-07
4.936852458e-07
3.839712846e-07
2.997791689e-07
2.370321941e-07
1.913531607e-07
1.586459852e-07
1.354298898e-07
1.189611068e-07
1.07204381e-07
9.872087543e-08
9.252670545e-08
8.795860342e-08
8.456541103e-08
8.203035691e-08
8.012116057e-08
7.86608722e-08
7.7512217e-08
7.656934166e-08
7.575284747e-08
7.500595034e-08
7.429053637e-08
7.358329259e-08
7.287171032e-08
7.215068657e-08
7.141968255e-08
7.068048706e-08
6.993573518e-08
6.918807563e-08
6.843962244e-08
6.769185368e-08
6.694557554e-08
6.620114065e-08
6.545848882e-08
6.471736145e-08
6.397743669e-08
6.323829429e-08
6.249961154e-08
6.176109201e-08
6.102251274e-08
6.028372912e-08
5.954463321e-08
5.880517874e-08
5.806536475e-08
5.73251603e-08
5.658460718e-08
5.584374823e-08
5.51025668e-08
5.436114932e-08
5.361950341e-08
5.287765461e-08
5.213562313e-08
5.139342285e-08
5.065107795e-08
4.990859357e-08
4.916599194e-08
4.842325666e-08
4.768039466e-08
4.693742815e-08
4.619432534e-08
4.545110088e-08
4.470775123e-08
4.396427494e-08
4.322065907e-08
4.247689852e-08
4.173299438e-08
4.098893757e-08
4.024472043e-08
3.950035028e-08
3.875580179e-08
3.801109211e-08
3.72662096e-08
3.652112461e-08
3.577586903e-08
3.503041574e-08
3.428477406e-08
3.353893364e-08
3.27928902e-08
3.20466421e-08
3.130018104e-08
3.055352418e-08
2.980664591e-08
2.90595596e-08
2.831225292e-08
2.756472258e-08
2.681697062e-08
2.606901069e-08
2.532080405e-08
2.457238987e-08
2.382373295e-08
2.307485555e-08
2.232574702e-08
2.15764164e-08
2.082684016e-08
2.007702555e-08
1.932699378e-08
1.857670466e-08
1.782618838e-08
1.70754296e-08
1.632443395e-08
1.557320549e-08
1.482172382e-08
1.407000909e-08
1.331804459e-08
1.256584775e-08
1.181339506e-08
1.106069807e-08
1.030777156e-08
9.554571768e-09
8.801143172e-09
8.047475065e-09
7.293541832e-09
6.539372004e-09
5.784956071e-09
5.030276595e-09
4.27536408e-09
3.520209877e-09
2.764782962e-09
2.009106125e-09
1.253190388e-09
4.970354603e-10
-2.593878989e-10
-1.016062093e-09
-1.77297532e-09
-2.530138414e-09
-3.287565681e-09
-4.045233741e-09
-4.803171563e-09
-5.561341392e-09
-6.31976071e-09
-7.07844074e-09
-7.837369679e-09
-8.596560377e-09
-9.355989835e-09
-1.011567883e-08
-1.087562789e-08
-1.163581454e-08
-1.239625422e-08
-1.315695492e-08
-1.391790505e-08
-1.467910935e-08
-1.544056498e-08
-1.620227249e-08
-1.696422692e-08
-1.772644278e-08
-1.848892098e-08
-1.925163798e-08
-2.00146117e-08
-2.077783316e-08
-2.154132145e-08
-2.230506008e-08
-2.306905526e-08
-2.383329856e-08
-2.45977893e-08
-2.536253792e-08
-2.612755285e-08
-2.689281093e-08
-2.765833551e-08
-2.842410541e-08
-2.919012368e-08
-2.995641049e-08
-3.072295701e-08
-3.148975279e-08
-3.225679816e-08
-3.3024099e-08
-3.379166661e-08
-3.455947628e-08
-3.532754815e-08
-3.609587134e-08
-3.686446201e-08
-3.763330486e-08
-3.840240185e-08
-3.91717523e-08
-3.994136221e-08
-4.071122295e-08
-4.148135224e-08
-4.225173927e-08
-4.302237559e-08
-4.379327477e-08
-4.456442748e-08
-4.533584083e-08
-4.61075095e-08
-4.687944161e-08
-4.765163144e-08
-4.842408617e-08
-4.91967958e-08
-4.99697737e-08
-5.074299345e-08
-5.151649775e-08
-5.229024898e-08
-5.306427681e-08
-5.383855583e-08
-5.461308776e-08
-5.538789833e-08
-5.616296891e-08
-5.693831426e-08
-5.771392205e-08
-5.848978499e-08
-5.926592148e-08
-6.004232004e-08
-6.0818993e-08
-6.159592699e-08
-6.237313049e-08
-6.315060168e-08
-6.392834612e-08
-6.470636363e-08
-6.548464613e-08
-6.626319896e-08
-6.704203097e-08
-6.782113721e-08
-6.860051469e-08
-6.938017245e-08
-7.016010938e-08
-7.094030653e-08
-7.172078374e-08
-7.250154772e-08
-7.328259166e-08
-7.406391518e-08
-7.484551015e-08
-7.562738859e-08
-7.640956422e-08
-7.719200207e-08
-7.797474752e-08
-7.875774412e-08
-7.954109489e-08
-8.03246155e-08
-8.110860218e-08
-8.189260281e-08
-8.267731966e-08
-8.346169705e-08
-8.424728583e-08
-8.503188711e-08
-8.581854553e-08
-8.660310053e-08
-8.739115966e-08
-8.817530608e-08
-8.896519572e-08
-8.974846428e-08
-9.054071074e-08
-9.132257779e-08
-9.211773283e-08
-9.289759872e-08
-9.369630503e-08
-9.447353845e-08
-9.527644584e-08
-9.605035694e-08
-9.685824443e-08
-9.762800778e-08
-9.844181168e-08
-9.920634342e-08
-1.000273774e-07
-1.007850865e-07
-1.016153131e-07
-1.023638435e-07
-1.032060707e-07
-1.039421263e-07
-1.048002651e-07
-1.055192029e-07
-1.063987466e-07
-1.070942052e-07
-1.080024924e-07
-1.086660541e-07
-1.096126458e-07
-1.102335429e-07
-1.112305383e-07
-1.117951321e-07
-1.128578917e-07
-1.133489255e-07
-1.144966774e-07
-1.148927472e-07
-1.161492437e-07
-1.164237599e-07
-1.178187471e-07
-1.179382789e-07
-1.195090064e-07
-1.194318399e-07
-1.212247652e-07
-1.208988392e-07
-1.229717323e-07
-1.223327776e-07
-1.247561219e-07
-1.237267616e-07
-1.265841576e-07
-1.250744789e-07
-1.284603428e-07
-1.263731672e-07
-1.303840233e-07
-1.276287354e-07
-1.323434056e-07
-1.288668655e-07
-1.343029141e-07
-1.301559129e-07
-1.361794633e-07
-1.316547228e-07
-1.377936202e-07
-1.337172784e-07
-1.387655767e-07
-1.37127767e-07
-1.382652264e-07
-1.436589636e-07
-1.342865633e-07
-1.57440212e-07
-1.20854007e-07
-1.882573269e-07
-7.192018618e-08
-2.562274008e-07
2.632202673e-07
-1.448321593e-07
-1.448321593e-07
-0.1252932067
0.1252932067
0.0249360625
0.008358226041
0.004278210358
0.002661737419
0.00183395711
0.001346576376
0.001034110223
0.0008219311809
0.0006716156302
0.0005614799369
0.0004784634411
0.0004143174603
0.0003636437785
0.000322809868
0.0002893143753
0.0002613996548
0.000237807616
0.0002176222832
0.0002001659234
0.0001849286205
0.0001715197009
0.0001596347423
0.0001490338414
0.0001395266635
0.0001309603381
0.0001232088766
0.0001161655705
0.0001097398196
0.0001038569033
9.845680721e-05
9.348966476e-05
8.890971818e-05
8.467238758e-05
8.073677546e-05
7.707064583e-05
7.365203356e-05
7.046451695e-05
6.748941393e-05
6.470172382e-05
6.207380455e-05
5.958386108e-05
5.722162227e-05
5.498555273e-05
5.28730847e-05
5.087153043e-05
4.895717534e-05
4.710355373e-05
4.529237566e-05
4.351815881e-05
4.178235113e-05
4.008100195e-05
3.839552496e-05
3.669459352e-05
3.494768047e-05
3.314248492e-05
3.129521191e-05
2.944662322e-05
2.764534571e-05
2.592759149e-05
2.430447327e-05
2.276346353e-05
2.12823096e-05
1.984686163e-05
1.84625978e-05
1.715368451e-05
1.595051357e-05
1.487274795e-05
1.391688229e-05
1.305457341e-05
1.224239113e-05
1.143823419e-05
1.061697871e-05
9.778853182e-06
8.947658173e-06
8.160325767e-06
7.452504557e-06
6.845762043e-06
6.340648457e-06
5.917190024e-06
5.541627601e-06
5.176398152e-06
4.789900335e-06
4.363328439e-06
3.893264772e-06
3.390181193e-06
2.874060389e-06
2.36880655e-06
1.897008583e-06
1.476134846e-06
1.116614175e-06
8.216979351e-07
5.886296287e-07
4.105044764e-07
2.782493486e-07
1.823157069e-07
1.138770139e-07
6.549657159e-08
3.134923122e-08
7.1341342e-09
-1.017993515e-08
-2.266289104e-08
-3.171086353e-08
-3.827572734e-08
-4.302795208e-08
-4.646055758e-08
-4.89493821e-08
-5.078571827e-08
-5.219349487e-08
-5.333988896e-08
-5.434382702e-08
-5.528457374e-08
-5.621020969e-08
-5.714609011e-08
-5.810219443e-08
-5.907918754e-08
-6.007302816e-08
-6.107793886e-08
-6.208837554e-08
-6.309991898e-08
-6.41095428e-08
-6.511559091e-08
-6.61174555e-08
-6.711529822e-08
-6.810969142e-08
-6.910143083e-08
-7.009133542e-08
-7.108014893e-08
-7.206851114e-08
-7.305685067e-08
-7.404549784e-08
-7.503466553e-08
-7.602444179e-08
-7.701486978e-08
-7.800592131e-08
-7.899755434e-08
-7.998972084e-08
-8.098233434e-08
-8.197531032e-08
-8.296859945e-08
-8.396215653e-08
-8.495590702e-08
-8.594982974e-08
-8.694387738e-08
-8.793803435e-08
-8.893228884e-08
-8.992660935e-08
-9.092102188e-08
-9.191548158e-08
-9.291003111e-08
-9.390464461e-08
-9.489934535e-08
-9.589414794e-08
-9.688903858e-08
-9.788404681e-08
-9.887917064e-08
-9.987442381e-08
-1.008698218e-07
-1.018653764e-07
-1.028610947e-07
-1.038569685e-07
-1.048530467e-07
-1.058493172e-07
-1.068457894e-07
-1.078424613e-07
-1.088393635e-07
-1.098364807e-07
-1.108338383e-07
-1.118314249e-07
-1.128292658e-07
-1.138273436e-07
-1.148256885e-07
-1.158242772e-07
-1.168231428e-07
-1.178222574e-07
-1.18821664e-07
-1.198213343e-07
-1.208212882e-07
-1.218215266e-07
-1.228220432e-07
-1.238228384e-07
-1.248239319e-07
-1.258253121e-07
-1.268269935e-07
-1.278289732e-07
-1.288312548e-07
-1.298338277e-07
-1.308367177e-07
-1.318398972e-07
-1.328434025e-07
-1.338472139e-07
-1.348513352e-07
-1.358557668e-07
-1.368605074e-07
-1.37865576e-07
-1.388709628e-07
-1.398766785e-07
-1.408826871e-07
-1.418890337e-07
-1.42895711e-07
-1.439027115e-07
-1.449100303e-07
-1.459176762e-07
-1.469256518e-07
-1.479339629e-07
-1.489426032e-07
-1.499515743e-07
-1.509608697e-07
-1.519705165e-07
-1.529804792e-07
-1.539907906e-07
-1.550014215e-07
-1.560123995e-07
-1.57023724e-07
-1.580353688e-07
-1.59047358e-07
-1.600596861e-07
-1.610723613e-07
-1.620853804e-07
-1.630987197e-07
-1.641124121e-07
-1.651264547e-07
-1.661408315e-07
-1.671555542e-07
-1.681706228e-07
-1.691860431e-07
-1.702017969e-07
-1.712178989e-07
-1.722343402e-07
-1.732511349e-07
-1.742682867e-07
-1.752857754e-07
-1.763036147e-07
-1.773218061e-07
-1.783403496e-07
-1.79359242e-07
-1.803784877e-07
-1.813980823e-07
-1.824180157e-07
-1.834383188e-07
-1.844589714e-07
-1.854799854e-07
-1.865013471e-07
-1.875230636e-07
-1.885451395e-07
-1.895675706e-07
-1.905903673e-07
-1.916135105e-07
-1.926370288e-07
-1.936608817e-07
-1.946851106e-07
-1.957097087e-07
-1.967346466e-07
-1.977599591e-07
-1.98785637e-07
-1.998116699e-07
-2.008380667e-07
-2.018648222e-07
-2.028919441e-07
-2.039194382e-07
-2.049472907e-07
-2.059754974e-07
-2.070040857e-07
-2.080330409e-07
-2.090623514e-07
-2.100920409e-07
-2.111220964e-07
-2.121525203e-07
-2.131833108e-07
-2.142144695e-07
-2.152459988e-07
-2.162779036e-07
-2.173101897e-07
-2.183428374e-07
-2.193758592e-07
-2.204092631e-07
-2.214430419e-07
-2.224772026e-07
-2.235117373e-07
-2.245466448e-07
-2.255819369e-07
-2.2661763e-07
-2.276536823e-07
-2.286901208e-07
-2.297269454e-07
-2.307641615e-07
-2.318017578e-07
-2.328397532e-07
-2.338781325e-07
-2.349168881e-07
-2.359560535e-07
-2.369956024e-07
-2.380355513e-07
-2.390758936e-07
-2.401166316e-07
-2.411577658e-07
-2.421993e-07
-2.432412403e-07
-2.442835869e-07
-2.453263301e-07
-2.463694797e-07
-2.474130358e-07
-2.484570155e-07
-2.495013932e-07
-2.50546193e-07
-2.51591396e-07
-2.526370215e-07
-2.536830658e-07
-2.547295296e-07
-2.557763986e-07
-2.568237176e-07
-2.578714315e-07
-2.589196269e-07
-2.599681598e-07
-2.6101728e-07
-2.62066583e-07
-2.631167057e-07
-2.64166681e-07
-2.652179884e-07
-2.662684197e-07
-2.673212072e-07
-2.683717404e-07
-2.694264641e-07
-2.704765512e-07
-2.715338983e-07
-2.725827539e-07
-2.736436424e-07
-2.746902817e-07
-2.757558295e-07
-2.767990838e-07
-2.778705027e-07
-2.789091168e-07
-2.799877683e-07
-2.810203735e-07
-2.821076784e-07
-2.831328107e-07
-2.842303682e-07
-2.852462952e-07
-2.863561169e-07
-2.87360492e-07
-2.884854257e-07
-2.894748312e-07
-2.906190354e-07
-2.915885041e-07
-2.927579504e-07
-2.937004095e-07
-2.949034943e-07
-2.958090545e-07
-2.970574246e-07
-2.979125023e-07
-2.992219171e-07
-3.000084697e-07
-3.013993588e-07
-3.020943752e-07
-3.035926324e-07
-3.041669262e-07
-3.058053987e-07
-3.062220987e-07
-3.080418421e-07
-3.082552023e-07
-3.103070394e-07
-3.102601597e-07
-3.126076792e-07
-3.122291136e-07
-3.149520029e-07
-3.141524703e-07
-3.173500639e-07
-3.160182511e-07
-3.198141193e-07
-3.178124743e-07
-3.223575144e-07
-3.195203222e-07