# vtk DataFile Version 2.0
FlowField
ASCII
DATASET STRUCTURED_GRID
DIMENSIONS 400 1 200
POINTS 80000 float
0 0 0
0.08 0 0
0.16 0 0
0.24 0 0
0.32 0 0
0.4 0 0
0.48 0 0
0.56 0 0
0.64 0 0
0.72 0 0
0.8 0 0
0.88 0 0
0.96 0 0
1.04 0 0
1.12 0 0
1.2 0 0
1.28 0 0
1.36 0 0
1.44 0 0
1.52 0 0
1.6 0 0
1.68 0 0
1.76 0 0
1.84 0 0
1.92 0 0
2 0 0
2.08 0 0
2.16 0 0
2.24 0 0
2.32 0 0
2.4 0 0
2.48 0 0
2.56 0 0
2.64 0 0
2.72 0 0
2.8 0 0
2.88 0 0
2.96 0 0
3.04 0 0
3.12 0 0
3.2 0 0
3.28 0 0
3.36 0 0
3.44 0 0
3.52 0 0
3.6 0 0
3.68 0 0
3.76 0 0
3.84 0 0
3.92 0 0
4 0 0
4.08 0 0
4.16 0 0
4.24 0 0
4.32 0 0
4.4 0 0
4.48 0 0
4.56 0 0
4.64 0 0
4.72 0 0
4.8 0 0
4.88 0 0
4.96 0 0
5.04 0 0
5.12 0 0
5.2 0 0
5.28 0 0
5.36 0 0
5.44 0 0
5.52 0 0
5.6 0 0
5.68 0 0
5.76 0 0
5.84 0 0
5.92 0 0
6 0 0
6.08 0 0
6.16 0 0
6.24 0 0
6.32 0 0
6.4 0 0
6.48 0 0
6.56 0 0
6.64 0 0
6.72 0 0
6.8 0 0
6.88 0 0
6.96 0 0
7.04 0 0
7.12 0 0
7.2 0 0
7.28 0 0
7.36 0 0
7.44 0 0
7.52 0 0
7.6 0 0
7.68 0 0
7.76 0 0
7.84 0 0
7.92 0 0
8 0 0
8.08 0 0
8.16 0 0
8.24 0 0
8.32 0 0
8.4 0 0
8.48 0 0
8.56 0 0
8.64 0 0
8.72 0 0
8.8 0 0
8.88 0 0
8.96 0 0
9.04 0 0
9.12 0 0
9.2 0 0
9.28 0 0
9.36 0 0
9.44 0 0
9.52 0 0
9.6 0 0
9.68 0 0
9.76 0 0
9.84 0 0
9.92 0 0
10 0 0
10.08 0 0
10.16 0 0
10.24 0 0
10.32 0 0
10.4 0 0
10.48 0 0
10.56 0 0
10.64 0 0
10.72 0 0
10.8 0 0
10.88 0 0
10.96 0 0
11.04 0 0
11.12 0 0
11.2 0 0
11.28 0 0
11.36 0 0
11.44 0 0
11.52 0 0
11.6 0 0
11.68 0 0
11.76 0 0
11.84 0 0
11.92 0 0
12 0 0
12.08 0 0
12.16 0 0
12.24 0 0
12.32 0 0
12.4 0 0
12.48 0 0
12.56 0 0
12.64 0 0
12.72 0 0
12.8 0 0
12.88 0 0
12.96 0 0
13.04 0 0
13.12 0 0
13.2 0 0
13.28 0 0
13.36 0 0
13.44 0 0
13.52 0 0
13.6 0 0
13.68 0 0
13.76 0 0
13.84 0 0
13.92 0 0
14 0 0
14.08 0 0
14.16 0 0
14.24 0 0
14.32 0 0
14.4 0 0
14.48 0 0
14.56 0 0
14.64 0 0
14.72 0 0
14.8 0 0
14.88 0 0
14.96 0 0
15.04 0 0
15.12 0 0
15.2 0 0
15.28 0 0
15.36 0 0
15.44 0 0
15.52 0 0
15.6 0 0
15.68 0 0
15.76 0 0
15.84 0 0
15.92 0 0
16 0 0
16.08 0 0
16.16 0 0
16.24 0 0
16.32 0 0
16.4 0 0
16.48 0 0
16.56 0 0
16.64 0 0
16.72 0 0
16.8 0 0
16.88 0 0
16.96 0 0
17.04 0 0
17.12 0 0
17.2 0 0
17.28 0 0
17.36 0 0
17.44 0 0
17.52 0 0
17.6 0 0
17.68 0 0
17.76 0 0
17.84 0 0
17.92 0 0
18 0 0
18.08 0 0
18.16 0 0
18.24 0 0
18.32 0 0
18.4 0 0
18.48 0 0
18.56 0 0
18.64 0 0
18.72 0 0
18.8 0 0
18.88 0 0
18.96 0 0
19.04 0 0
19.12 0 0
19.2 0 0
19.28 0 0
19.36 0 0
19.44 0 0
19.52 0 0
19.6 0 0
19.68 0 0
19.76 0 0
19.84 0 0
19.92 0 0
20 0 0
20.08 0 0
20.16 0 0
20.24 0 0
20.32 0 0
20.4 0 0
20.48 0 0
20.56 0 0
20.64 0 0
20.72 0 0
20.8 0 0
20.88 0 0
20.96 0 0
21.04 0 0
21.12 0 0
21.2 0 0
21.28 0 0
21.36 0 0
21.44 0 0
21.52 0 0
21.6 0 0
21.68 0 0
21.76 0 0
21.84 0 0
21.92 0 0
22 0 0
22.08 0 0
22.16 0 0
22.24 0 0
22.32 0 0
22.4 0 0
22.48 0 0
22.56 0 0
22.64 0 0
22.72 0 0
22.8 0 0
22.88 0 0
22.96 0 0
23.04 0 0
23.12 0 0
23.2 0 0
23.28 0 0
23.36 0 0
23.44 0 0
23.52 0 0
23.6 0 0
23.68 0 0
23.76 0 0
23.84 0 0
23.92 0 0
24 0 0
24.08 0 0
24.16 0 0
24.24 0 0
24.32 0 0
24.4 0 0
24.48 0 0
24.56 0 0
24.64 0 0
24.72 0 0
24.8 0 0
24.88 0 0
24.96 0 0
25.04 0 0
25.12 0 0
25.2 0 0
25.28 0 0
25.36 0 0
25.44 0 0
25.52 0 0
25.6 0 0
25.68 0 0
25.76 0 0
25.84 0 0
25.92 0 0
26 0 0
26.08 0 0
26.16 0 0
26.24 0 0
26.32 0 0
26.4 0 0
26.48 0 0
26.56 0 0
26.64 0 0
26.72 0 0
26.8 0 0
26.88 0 0
26.96 0 0
27.04 0 0
27.12 0 0
27.2 0 0
27.28 0 0
27.36 0 0
27.44 0 0
27.52 0 0
27.6 0 0
27.68 0 0
27.76 0 0
27.84 0 0
27.92 0 0
28 0 0
28.08 0 0
28.16 0 0
28.24 0 0
28.32 0 0
28.4 0 0
28.48 0 0
28.56 0 0
28.64 0 0
28.72 0 0
28.8 0 0
28.88 0 0
28.96 0 0
29.04 0 0
29.12 0 0
29.2 0 0
29.28 0 0
29.36 0 0
29.44 0 0
29.52 0 0
29.6 0 0
29.68 0 0
29.76 0 0
29.84 0 0
29.92 0 0
30 0 0
30.08 0 0
30.16 0 0
30.24 0 0
30.32 0 0
30.4 0 0
30.48 0 0
30.56 0 0
30.64 0 0
30.72 0 0
30.8 0 0
30.88 0 0
30.96 0 0
31.04 0 0
31.12 0 0
31.2 0 0
31.28 0 0
31.36 0 0
31.44 0 0
31.52 0 0
31.6 0 0
31.68 0 0
31.76 0 0
31.84 0 0
31.92 0 0
0 0.005 0
0.08 0.005 0
0.16 0.005 0
0.24 0.005 0
0.32 0.005 0
0.4 0.005 0
0.48 0.005 0
0.56 0.005 0
0.64 0.005 0
0.72 0.005 0
0.8 0.005 0
0.88 0.005 0
0.96 0.005 0
1.04 0.005 0
1.12 0.005 0
1.2 0.005 0
1.28 0.005 0
1.36 0.005 0
1.44 0.005 0
1.52 0.005 0
1.6 0.005 0
1.68 0.005 0
1.76 0.005 0
1.84 0.005 0
1.92 0.005 0
2 0.005 0
2.08 0.005 0
2.16 0.005 0
2.24 0.005 0
2.32 0.005 0
2.4 0.005 0
2.48 0.005 0
2.56 0.005 0
2.64 0.005 0
2.72 0.005 0
2.8 0.005 0
2.88 0.005 0
2.96 0.005 0
3.04 0.005 0
3.12 0.005 0
3.2 0.005 0
3.28 0.005 0
3.36 0.005 0
3.44 0.005 0
3.52 0.005 0
3.6 0.005 0
3.68 0.005 0
3.76 0.005 0
3.84 0.005 0
3.92 0.005 0
4 0.005 0
4.08 0.005 0
4.16 0.005 0
4.24 0.005 0
4.32 0.005 0
4.4 0.005 0
4.48 0.005 0
4.56 0.005 0
4.64 0.005 0
4.72 0.005 0
4.8 0.005 0
4.88 0.005 0
4.96 0.005 0
5.04 0.005 0
5.12 0.005 0
5.2 0.005 0
5.28 0.005 0
5.36 0.005 0
5.44 0.005 0
5.52 0.005 0
5.6 0.005 0
5.68 0.005 0
5.76 0.005 0
5.84 0.005 0
5.92 0.005 0
6 0.005 0
6.08 0.005 0
6.16 0.005 0
6.24 0.005 0
6.32 0.005 0
6.4 0.005 0
6.48 0.005 0
6.56 0.005 0
6.64 0.005 0
6.72 0.005 0
6.8 0.005 0
6.88 0.005 0
6.96 0.005 0
7.04 0.005 0
7.12 0.005 0
7.2 0.005 0
7.28 0.005 0
7.36 0.005 0
7.44 0.005 0
7.52 0.005 0
7.6 0.005 0
7.68 0.005 0
7.76 0.005 0
7.84 0.005 0
7.92 0.005 0
8 0.005 0
8.08 0.005 0
8.16 0.005 0
8.24 0.005 0
8.32 0.005 0
8.4 0.005 0
8.48 0.005 0
8.56 0.005 0
8.64 0.005 0
8.72 0.005 0
8.8 0.005 0
8.88 0.005 0
8.96 0.005 0
9.04 0.005 0
9.12 0.005 0
9.2 0.005 0
9.28 0.005 0
9.36 0.005 0
9.44 0.005 0
9.52 0.005 0
9.6 0.005 0
9.68 0.005 0
9.76 0.005 0
9.84 0.005 0
9.92 0.005 0
10 0.005 0
10.08 0.005 0
10.16 0.005 0
10.24 0.005 0
10.32 0.005 0
10.4 0.005 0
10.48 0.005 0
10.56 0.005 0
10.64 0.005 0
10.72 0.005 0
10.8 0.005 0
10.88 0.005 0
10.96 0.005 0
11.04 0.005 0
11.12 0.005 0
11.2 0.005 0
11.28 0.005 0
11.36 0.005 0
11.44 0.005 0
11.52 0.005 0
11.6 0.005 0
11.68 0.005 0
11.76 0.005 0
11.84 0.005 0
11.92 0.005 0
12 0.005 0
12.08 0.005 0
12.16 0.005 0
12.24 0.005 0
12.32 0.005 0
12.4 0.005 0
12.48 0.005 0
12.56 0.005 0
12.64 0.005 0
12.72 0.005 0
12.8 0.005 0
12.88 0.005 0
12.96 0.005 0
13.04 0.005 0
13.12 0.005 0
13.2 0.005 0
13.28 0.005 0
13.36 0.005 0
13.44 0.005 0
13.52 0.005 0
13.6 0.005 0
13.68 0.005 0
13.76 0.005 0
13.84 0.005 0
13.92 0.005 0
14 0.005 0
14.08 0.005 0
14.16 0.005 0
14.24 0.005 0
14.32 0.005 0
14.4 0.005 0
14.48 0.005 0
14.56 0.005 0
14.64 0.005 0
14.72 0.005 0
14.8 0.005 0
14.88 0.005 0
14.96 0.005 0
15.04 0.005 0
15.12 0.005 0
15.2 0.005 0
15.28 0.005 0
15.36 0.005 0
15.44 0.005 0
15.52 0.005 0
15.6 0.005 0
15.68 0.005 0
15.76 0.005 0
15.84 0.005 0
15.92 0.005 0
16 0.005 0
16.08 0.005 0
16.16 0.005 0
16.24 0.005 0
16.32 0.005 0
16.4 0.005 0
16.48 0.005 0
16.56 0.005 0
16.64 0.005 0
16.72 0.005 0
16.8 0.005 0
16.88 0.005 0
16.96 0.005 0
17.04 0.005 0
17.12 0.005 0
17.2 0.005 0
17.28 0.005 0
17.36 0.005 0
17.44 0.005 0
17.52 0.005 0
17.6 0.005 0
17.68 0.005 0
17.76 0.005 0
17.84 0.005 0
17.92 0.005 0
18 0.005 0
18.08 0.005 0
18.16 0.005 0
18.24 0.005 0
18.32 0.005 0
18.4 0.005 0
18.48 0.005 0
18.56 0.005 0
18.64 0.005 0
18.72 0.005 0
18.8 0.005 0
18.88 0.005 0
18.96 0.005 0
19.04 0.005 0
19.12 0.005 0
19.2 0.005 0
19.28 0.005 0
19.36 0.005 0
19.44 0.005 0
19.52 0.005 0
19.6 0.005 0
19.68 0.005 0
19.76 0.005 0
19.84 0.005 0
19.92 0.005 0
20 0.005 0
20.08 0.005 0
20.16 0.005 0
20.24 0.005 0
20.32 0.005 0
20.4 0.005 0
20.48 0.005 0
20.56 0.005 0
20.64 0.005 0
20.72 0.005 0
20.8 0.005 0
20.88 0.005 0
20.96 0.005 0
21.04 0.005 0
21.12 0.005 0
21.2 0.005 0
21.28 0.005 0
21.36 0.005 0
21.44 0.005 0
21.52 0.005 0
21.6 0.005 0
21.68 0.005 0
21.76 0.005 0
21.84 0.005 0
21.92 0.005 0
22 0.005 0
22.08 0.005 0
22.16 0.005 0
22.24 0.005 0
22.32 0.005 0
22.4 0.005 0
22.48 0.005 0
22.56 0.005 0
22.64 0.005 0
22.72 0.005 0
22.8 0.005 0
22.88 0.005 0
22.96 0.005 0
23.04 0.005 0
23.12 0.005 0
23.2 0.005 0
23.28 0.005 0
23.36 0.005 0
23.44 0.005 0
23.52 0.005 0
23.6 0.005 0
23.68 0.005 0
23.76 0.005 0
23.84 0.005 0
23.92 0.005 0
24 0.005 0
24.08 0.005 0
24.16 0.005 0
24.24 0.005 0
24.32 0.005 0
24.4 0.005 0
24.48 0.005 0
24.56 0.005 0
24.64 0.005 0
24.72 0.005 0
24.8 0.005 0
24.88 0.005 0
24.96 0.005 0
25.04 0.005 0
25.12 0.005 0
25.2 0.005 0
25.28 0.005 0
25.36 0.005 0
25.44 0.005 0
25.52 0.005 0
25.6 0.005 0
25.68 0.005 0
25.76 0.005 0
25.84 0.005 0
25.92 0.005 0
26 0.005 0
26.08 0.005 0
26.16 0.005 0
26.24 0.005 0
26.32 0.005 0
26.4 0.005 0
26.48 0.005 0
26.56 0.005 0
26.64 0.005 0
26.72 0.005 0
26.8 0.005 0
26.88 0.005 0
26.96 0.005 0
27.04 0.005 0
27.12 0.005 0
27.2 0.005 0
27.28 0.005 0
27.36 0.005 0
27.44 0.005 0
27.52 0.005 0
27.6 0.005 0
27.68 0.005 0
27.76 0.005 0
27.84 0.005 0
27.92 0.005 0
28 0.005 0
28.08 0.005 0
28.16 0.005 0
28.24 0.005 0
28.32 0.005 0
28.4 0.005 0
28.48 0.005 0
28.56 0.005 0
28.64 0.005 0
28.72 0.005 0
28.8 0.005 0
28.88 0.005 0
28.96 0.005 0
29.04 0.005 0
29.12 0.005 0
29.2 0.005 0
29.28 0.005 0
29.36 0.005 0
29.44 0.005 0
29.52 0.005 0
29.6 0.005 0
29.68 0.005 0
29.76 0.005 0
29.84 0.005 0
29.92 0.005 0
30 0.005 0
30.08 0.005 0
30.16 0.005 0
30.24 0.005 0
30.32 0.005 0
30.4 0.005 0
30.48 0.005 0
30.56 0.005 0
30.64 0.005 0
30.72 0.005 0
30.8 0.005 0
30.88 0.005 0
30.96 0.005 0
31.04 0.005 0
31.12 0.005 0
31.2 0.005 0
31.28 0.005 0
31.36 0.005 0
31.44 0.005 0
31.52 0.005 0
31.6 0.005 0
31.68 0.005 0
31.76 0.005 0
31.84 0.005 0
31.92 0.005 0
0 0.01 0
0.08 0.01 0
0.16 0.01 0
0.24 0.01 0
0.32 0.01 0
0.4 0.01 0
0.48 0.01 0
0.56 0.01 0
0.64 0.01 0
0.72 0.01 0
0.8 0.01 0
0.88 0.01 0
0.96 0.01 0
1.04 0.01 0
1.12 0.01 0
1.2 0.01 0
1.28 0.01 0
1.36 0.01 0
1.44 0.01 0
1.52 0.01 0
1.6 0.01 0
1.68 0.01 0
1.76 0.01 0
1.84 0.01 0
1.92 0.01 0
2 0.01 0
2.08 0.01 0
2.16 0.01 0
2.24 0.01 0
2.32 0.01 0
2.4 0.01 0
2.48 0.01 0
2.56 0.01 0
2.64 0.01 0
2.72 0.01 0
2.8 0.01 0
2.88 0.01 0
2.96 0.01 0
3.04 0.01 0
3.12 0.01 0
3.2 0.01 0
3.28 0.01 0
3.36 0.01 0
3.44 0.01 0
3.52 0.01 0
3.6 0.01 0
3.68 0.01 0
3.76 0.01 0
3.84 0.01 0
3.92 0.01 0
4 0.01 0
4.08 0.01 0
4.16 0.01 0
4.24 0.01 0
4.32 0.01 0
4.4 0.01 0
4.48 0.01 0
4.56 0.01 0
4.64 0.01 0
4.72 0.01 0
4.8 0.01 0
4.88 0.01 0
4.96 0.01 0
5.04 0.01 0
5.12 0.01 0
[...]
POINT_DATA 80000

SCALARS u float 1
LOOKUP_TABLE default
0
-0.1316626872
-0.06826923724
-0.05229601143
-0.04441988819
-0.03957678316
-0.03625969306
-0.03383265505
-0.03197267765
-0.03049600066
-0.02928993257
-0.02828163303
-0.02742213946
-0.0266775
-0.02602354505
-0.02544266243
-0.02492173967
-0.02445081581
-0.02402217926
-0.02362975288
-0.02326866786
-0.02293496388
-0.022625375
-0.02233717469
-0.02206806202
-0.0218160764
-0.02157953254
-0.02135697057
-0.02114711756
-0.02094885778
-0.02076120857
-0.02058329985
-0.02041435686
-0.02025368661
-0.0201006679
-0.0199547436
-0.019815413
-0.01968222343
-0.01955476244
-0.01943265274
-0.01931555026
-0.01920314341
-0.01909515051
-0.01899131421
-0.01889139536
-0.01879516958
-0.0187024283
-0.01861298213
-0.01852666214
-0.01844331642
-0.01836280328
-0.0182849858
-0.01820973183
-0.01813691924
-0.01806644181
-0.01799821056
-0.01793214853
-0.0178681829
-0.01780624071
-0.01774625284
-0.01768816494
-0.01763194846
-0.01757760422
-0.01752515498
-0.01747463031
-0.01742605213
-0.01737942843
-0.01733475772
-0.01729203927
-0.01725128058
-0.01721249508
-0.01717568932
-0.01714084578
-0.0171079112
-0.01707679785
-0.0170473986
-0.01701960935
-0.01699334841
-0.01696856378
-0.01694522559
-0.01692330803
-0.01690277023
-0.01688354551
-0.01686554417
-0.01684866831
-0.01683283176
-0.01681797608
-0.01680407585
-0.01679113096
-0.0167791494
-0.01676812741
-0.01675803445
-0.0167488083
-0.0167403615
-0.01673259627
-0.01672542269
-0.0167187743
-0.01671261675
-0.01670694779
-0.0167017895
-0.01669717571
-0.01669313818
-0.01668969504
-0.01668684366
-0.01668455852
-0.01668279378
-0.01668148882
-0.01668057517
-0.01667998331
-0.01667964799
-0.01667951182
-0.01667952694
-0.01667965512
-0.01667986693
-0.0166801402
-0.01668045851
-0.01668080974
-0.01668118488
-0.0166815772
-0.01668198162
-0.01668239432
-0.01668281246
-0.01668323401
-0.01668365752
-0.01668408208
-0.01668450713
-0.01668493236
-0.01668535767
-0.01668578304
-0.01668620851
-0.01668663413
-0.01668705997
-0.01668748604
-0.01668791239
-0.01668833902
-0.01668876593
-0.0166891931
-0.01668962053
-0.01669004821
-0.01669047613
-0.01669090427
-0.01669133262
-0.0166917612
-0.01669218999
-0.01669261899
-0.0166930482
-0.01669347763
-0.01669390728
-0.01669433713
-0.01669476721
-0.01669519751
-0.01669562802
-0.01669605875
-0.0166964897
-0.01669692087
-0.01669735226
-0.01669778387
-0.01669821571
-0.01669864776
-0.01669908002
-0.01669951251
-0.01669994522
-0.01670037815
-0.01670081129
-0.01670124466
-0.01670167824
-0.01670211204
-0.01670254606
-0.0167029803
-0.01670341475
-0.01670384942
-0.01670428431
-0.01670471942
-0.01670515474
-0.01670559028
-0.01670602603
-0.01670646201
-0.0167068982
-0.0167073346
-0.01670777122
-0.01670820806
-0.01670864512
-0.01670908239
-0.01670951987
-0.01670995758
-0.0167103955
-0.01671083363
-0.01671127198
-0.01671171055
-0.01671214933
-0.01671258833
-0.01671302755
-0.01671346698
-0.01671390663
-0.01671434649
-0.01671478657
-0.01671522687
-0.01671566738
-0.01671610811
-0.01671654905
-0.01671699021
-0.01671743159
-0.01671787318
-0.01671831499
-0.01671875702
-0.01671919926
-0.01671964172
-0.0167200844
-0.01672052729
-0.0167209704
-0.01672141372
-0.01672185726
-0.01672230102
-0.016722745
-0.01672318919
-0.0167236336
-0.01672407822
-0.01672452307
-0.01672496813
-0.0167254134
-0.0167258589
-0.01672630461
-0.01672675054
-0.01672719669
-0.01672764305
-0.01672808963
-0.01672853643
-0.01672898345
-0.01672943069
-0.01672987814
-0.01673032581
-0.0167307737
-0.01673122181
-0.01673167014
-0.01673211868
-0.01673256745
-0.01673301643
-0.01673346563
-0.01673391505
-0.01673436469
-0.01673481454
-0.01673526462
-0.01673571492
-0.01673616543
-0.01673661617
-0.01673706712
-0.01673751829
-0.01673796969
-0.0167384213
-0.01673887313
-0.01673932519
-0.01673977746
-0.01674022995
-0.01674068267
-0.0167411356
-0.01674158876
-0.01674204213
-0.01674249573
-0.01674294955
-0.01674340359
-0.01674385785
-0.01674431233
-0.01674476703
-0.01674522195
-0.0167456771
-0.01674613247
-0.01674658806
-0.01674704387
-0.0167474999
-0.01674795616
-0.01674841264
-0.01674886934
-0.01674932626
-0.01674978341
-0.01675024078
-0.01675069837
-0.01675115619
-0.01675161423
-0.01675207249
-0.01675253098
-0.01675298969
-0.01675344863
-0.01675390779
-0.01675436717
-0.01675482678
-0.01675528661
-0.01675574666
-0.01675620695
-0.01675666745
-0.01675712818
-0.01675758914
-0.01675805032
-0.01675851173
-0.01675897336
-0.01675943522
-0.01675989731
-0.01676035962
-0.01676082216
-0.01676128492
-0.01676174791
-0.01676221113
-0.01676267458
-0.01676313825
-0.01676360215
-0.01676406627
-0.01676453063
-0.01676499521
-0.01676546002
-0.01676592506
-0.01676639033
-0.01676685582
-0.01676732155
-0.0167677875
-0.01676825369
-0.0167687201
-0.01676918674
-0.01676965361
-0.01677012071
-0.01677058804
-0.0167710556
-0.01677152339
-0.01677199142
-0.01677245967
-0.01677292816
-0.01677339687
-0.01677386582
-0.01677433499
-0.01677480441
-0.01677527405
-0.01677574393
-0.01677621403
-0.01677668438
-0.01677715494
-0.01677762576
-0.01677809679
-0.01677856808
-0.01677903957
-0.01677951134
-0.01677998328
-0.01678045553
-0.01678092793
-0.01678140066
-0.01678187353
-0.01678234674
-0.01678282006
-0.01678329377
-0.01678376754
-0.01678424174
-0.01678471596
-0.01678519067
-0.01678566532
-0.01678614056
-0.01678661563
-0.0167870914
-0.01678756688
-0.0167880432
-0.01678851908
-0.01678899598
-0.01678947222
-0.01678994972
-0.01679042631
-0.01679090444
-0.01679138133
-0.01679186015
-0.01679233729
-0.01679281685
-0.01679329417
-0.01679377453
-0.01679425196
-0.01679473322
-0.01679521067
-0.01679569292
-0.01679617026
-0.01679665362
-0.01679713074
-0.01679761531
-0.01679809208
-0.01679857798
-0.01679905431
-0.0167995416
-0.01680001748
-0.01680050607
-0.01680098172
-0.0168014713
-0.01680194743
-0.01680243707
-0.01680291552
-0.01680340311
-0.01680388812
-0.01680436894
-0.01680487028
-0.01680533334
-0.01680587358
-0.01680628913
-0.01680692128
-0.01680717764
-0.01680801935
-0.0168072071
-0.0168072071
-0.0168072071
1
0.1316626872
0.06826923724
0.05229601143
0.04441988819
0.03957678316
0.03625969306
0.03383265505
0.03197267765
0.03049600066
0.02928993257
0.02828163303
0.02742213946
0.0266775
0.02602354505
0.02544266243
0.02492173967
0.02445081581
0.02402217926
0.02362975288
0.02326866786
0.02293496388
0.022625375
0.02233717469
0.02206806202
0.0218160764
0.02157953254
0.02135697057
0.02114711756
0.02094885778
0.02076120857
0.02058329985
0.02041435686
0.02025368661
0.0201006679
0.0199547436
0.019815413
0.01968222343
0.01955476244
0.01943265274
0.01931555026
0.01920314341
0.01909515051
0.01899131421
0.01889139536
0.01879516958
0.0187024283
0.01861298213
0.01852666214
0.01844331642
0.01836280328
0.0182849858
0.01820973183
0.01813691924
0.01806644181
0.01799821056
0.01793214853
0.0178681829
0.01780624071
0.01774625284
0.01768816494
0.01763194846
0.01757760422
0.01752515498
0.01747463031
0.01742605213
0.01737942843
0.01733475772
0.01729203927
0.01725128058
0.01721249508
0.01717568932
0.01714084578
0.0171079112
0.01707679785
0.0170473986
0.01701960935
0.01699334841
0.01696856378
0.01694522559
0.01692330803
0.01690277023
0.01688354551
0.01686554417
0.01684866831
0.01683283176
0.01681797608
0.01680407585
0.01679113096
0.0167791494
0.01676812741
0.01675803445
0.0167488083
0.0167403615
0.01673259627
0.01672542269
0.0167187743
0.01671261675
0.01670694779
0.0167017895
0.01669717571
0.01669313818
0.01668969504
0.01668684366
0.01668455852
0.01668279378
0.01668148882
0.01668057517
0.01667998331
0.01667964799
0.01667951182
0.01667952694
0.01667965512
0.01667986693
0.0166801402
0.01668045851
0.01668080974
0.01668118488
0.0166815772
0.01668198162
0.01668239432
0.01668281246
0.01668323401
0.01668365752
0.01668408208
0.01668450713
0.01668493236
0.01668535767
0.01668578304
0.01668620851
0.01668663413
0.01668705997
0.01668748604
0.01668791239
0.01668833902
0.01668876593
0.0166891931
0.01668962053
0.01669004821
0.01669047613
0.01669090427
0.01669133262
0.0166917612
0.01669218999
0.01669261899
0.0166930482
0.01669347763
0.01669390728
0.01669433713
0.01669476721
0.01669519751
0.01669562802
0.01669605875
0.0166964897
0.01669692087
0.01669735226
0.01669778387
0.01669821571
0.01669864776
0.01669908002
0.01669951251
0.01669994522
0.01670037815
0.01670081129
0.01670124466
0.01670167824
0.01670211204
0.01670254606
0.0167029803
0.01670341475
0.01670384942
0.01670428431
0.01670471942
0.01670515474
0.01670559028
0.01670602603
0.01670646201
0.0167068982
0.0167073346
0.01670777122
0.01670820806
0.01670864512
0.01670908239
0.01670951987
0.01670995758
0.0167103955
0.01671083363
0.01671127198
0.01671171055
0.01671214933
0.01671258833
0.01671302755
0.01671346698
0.01671390663
0.01671434649
0.01671478657
0.01671522687
0.01671566738
0.01671610811
0.01671654905
0.01671699021
0.01671743159
0.01671787318
0.01671831499
0.01671875702
0.01671919926
0.01671964172
0.0167200844
0.01672052729
0.0167209704
0.01672141372
0.01672185726
0.01672230102
0.016722745
0.01672318919
0.0167236336
0.01672407822
0.01672452307
0.01672496813
0.0167254134
0.0167258589
0.01672630461
0.01672675054
0.01672719669
0.01672764305
0.01672808963
0.01672853643
0.01672898345
0.01672943069
0.01672987814
0.01673032581
0.0167307737
0.01673122181
0.01673167014
0.01673211868
0.01673256745
0.01673301643
0.01673346563
0.01673391505
0.01673436469
0.01673481454
0.01673526462
0.01673571492
0.01673616543
0.01673661617
0.01673706712
0.01673751829
0.01673796969
0.0167384213
0.01673887313
0.01673932519
0.01673977746
0.01674022995
0.01674068267
0.0167411356
0.01674158876
0.01674204213
0.01674249573
0.01674294955
0.01674340359
0.01674385785
0.01674431233
0.01674476703
0.01674522195
0.0167456771
0.01674613247
0.01674658806
0.01674704387
0.0167474999
0.01674795616
0.01674841264
0.01674886934
0.01674932626
0.01674978341
0.01675024078
0.01675069837
0.01675115619
0.01675161423
0.01675207249
0.01675253098
0.01675298969
0.01675344863
0.01675390779
0.01675436717
0.01675482678
0.01675528661
0.01675574666
0.01675620695
0.01675666745
0.01675712818
0.01675758914
0.01675805032
0.01675851173
0.01675897336
0.01675943522
0.01675989731
0.01676035962
0.01676082216
0.01676128492
0.01676174791
0.01676221113
0.01676267458
0.01676313825
0.01676360215
0.01676406627
0.01676453063
0.01676499521
0.01676546002
0.01676592506
0.01676639033
0.01676685582
0.01676732155
0.0167677875
0.01676825369
0.0167687201
0.01676918674
0.01676965361
0.01677012071
0.01677058804
0.0167710556
0.01677152339
0.01677199142
0.01677245967
0.01677292816
0.01677339687
0.01677386582
0.01677433499
0.01677480441
0.01677527405
0.01677574393
0.01677621403
0.01677668438
0.01677715494
0.01677762576
0.01677809679
0.01677856808
0.01677903957
0.01677951134
0.01677998328
0.01678045553
0.01678092793
0.01678140066
0.01678187353
0.01678234674
0.01678282006
0.01678329377
0.01678376754
0.01678424174
0.01678471596
0.01678519067
0.01678566532
0.01678614056
0.01678661563
0.0167870914
0.01678756688
0.0167880432
0.01678851908
0.01678899598
0.01678947222
0.01678994972
0.01679042631
0.01679090444
0.01679138133
0.01679186015
0.01679233729
0.01679281685
0.01679329417
0.01679377453
0.01679425196
0.01679473322
0.01679521067
0.01679569292
0.01679617026
0.01679665362
0.01679713074
0.01679761531
0.01679809208
0.01679857798
0.01679905431
0.0167995416
0.01680001748
0.01680050607
0.01680098172
0.0168014713
0.01680194743
0.01680243707
0.01680291552
0.01680340311
0.01680388812
0.01680436894
0.01680487028
0.01680533334
0.01680587358
0.01680628913
0.01680692128
0.01680717764
0.01680801935
0.0168072071
0.0168072071
0.0168072071
1
0.3448839541
0.2006677539
0.1549672865
0.1318946465
0.1175987058
0.1077680668
0.1005581899
0.09502520283
0.09062932471
0.08703819614
0.08403626363
0.08147821274
0.07926302778
0.07731864839
0.07559247823
0.07404531113
0.07264734064
0.07137548205
0.0702115426
0.06914095034
0.06815185779
0.06723450072
0.06638073344
0.06558368677
0.06483751167
0.06413718401
0.0634783547
0.06285723434
0.06227050339
0.06171523922
0.06118885486
0.06068904777
0.06021375976
0.05976114712
0.05932955663
0.0589175019
0.05852363868
0.05814674274
0.05778569577
0.05743947937
0.05710717131
0.05678793636
0.05648101011
0.05618568239
0.05590128911
0.05562721575
0.05536290528
0.05510785951
0.05486162783
0.05462378879
0.05439393729
0.05417168657
0.05395668289
0.05374861972
0.05354723849
0.05335231306
0.05316362954
0.0529809783
0.05280416804
0.05263305574
0.05246757357
0.05230773313
0.05215360075
0.05200525534
0.05186275138
0.05172610585
0.05159531226
0.05147036694
0.0513512846
0.05123808692
0.05113076538
0.05102923731
0.05093332067
0.05084274514
0.050757198
0.05067638488
0.05060007742
0.0505281261
0.0504604341
0.0503969071
0.05033740488
0.05028171869
0.05022958511
0.05018072944
0.05013491849
0.05009199891
0.05005190455
0.05001463019
0.04998018251
0.04994852796
0.049919557
0.04989307688
0.04986883411
0.04984655753
0.04982600694
0.04980701209
0.0497894914
0.0497734472
0.04975894119
0.04974605869
0.04973487169
0.04972540948
0.049717642
0.04971147707
0.04970676949
0.04970333767
0.04970098307
0.04969950827
0.04969873094
0.04969849261
0.04969866231
0.04969913624
0.04969983476
0.04970069817
0.04970168224
0.04970275435
0.04970389026
0.04970507181
0.04970628538
0.04970752073
0.04970877031
0.04971002869
0.04971129214
0.04971255826
0.04971382563
0.04971509352
0.04971636165
0.04971763001
0.04971889873
0.04972016795
0.04972143782
0.04972270843
0.04972397986
0.0497252521
0.04972652516
0.049727799
0.0497290736
0.04973034892
0.04973162493
0.0497329016
0.04973417892
0.04973545688
0.04973673548
0.04973801471
0.04973929457
0.04974057506
0.0497418562
0.04974313798
0.0497444204
0.04974570346
0.04974698718
0.04974827154
0.04974955656
0.04975084222
0.04975212854
0.04975341551
0.04975470313
0.04975599139
0.04975728031
0.04975856988
0.04975986009
0.04976115096
0.04976244247
0.04976373463
0.04976502743
0.04976632088
0.04976761498
0.04976890972
0.0497702051
0.04977150112
0.04977279779
0.0497740951
0.04977539306
0.04977669165
0.04977799089
0.04977929077
0.04978059129
0.04978189244
0.04978319424
0.04978449668
0.04978579976
0.04978710348
0.04978840784
0.04978971284
0.04979101847
0.04979232475
0.04979363167
0.04979493922
0.04979624742
0.04979755625
0.04979886572
0.04980017583
0.04980148659
0.04980279798
0.04980411001
0.04980542268
0.04980673599
0.04980804994
0.04980936452
0.04981067975
0.04981199562
0.04981331213
0.04981462927
0.04981594706
0.04981726549
0.04981858456
0.04981990427
0.04982122462
0.04982254561
0.04982386724
0.04982518951
0.04982651243
0.04982783598
0.04982916018
0.04983048502
0.0498318105
0.04983313662
0.04983446339
0.0498357908
0.04983711885
0.04983844755
0.04983977688
0.04984110686
0.04984243749
0.04984376876
0.04984510067
0.04984643323
0.04984776643
0.04984910028
0.04985043477
0.04985176991
0.04985310569
0.04985444212
0.0498557792
0.04985711692
0.04985845529
0.04985979431
0.04986113397
0.04986247428
0.04986381524
0.04986515685
0.04986649911
0.04986784201
0.04986918557
0.04987052977
0.04987187463
0.04987322013
0.04987456628
0.04987591309
0.04987726054
0.04987860865
0.04987995741
0.04988130682
0.04988265689
0.0498840076
0.04988535897
0.04988671099
0.04988806367
0.049889417
0.04989077099
0.04989212563
0.04989348092
0.04989483687
0.04989619348
0.04989755074
0.04989890866
0.04990026724
0.04990162648
0.04990298637
0.04990434692
0.04990570813
0.04990707
0.04990843252
0.04990979571
0.04991115956
0.04991252407
0.04991388924
0.04991525507
0.04991662156
0.04991798871
0.04991935653
0.04992072501
0.04992209415
0.04992346396
0.04992483443
0.04992620557
0.04992757737
0.04992894984
0.04993032297
0.04993169677
0.04993307124
0.04993444638
0.04993582218
0.04993719865
0.04993857579
0.0499399536
0.04994133208
0.04994271123
0.04994409105
0.04994547154
0.0499468527
0.04994823454
0.04994961705
0.04995100023
0.04995238408
0.04995376861
0.04995515382
0.04995653969
0.04995792625
0.04995931348
0.04996070139
0.04996208998
0.04996347924
0.04996486918
0.04996625981
0.04996765111
0.04996904309
0.04997043575
0.0499718291
0.04997322312
0.04997461784
0.04997601322
0.04997740931
0.04997880605
0.04998020351
0.04998160163
0.04998300047
0.04998439995
0.04998580017
0.04998720102
0.04998860262
0.04999000485
0.04999140784
0.04999281143
0.04999421582
0.04999562078
0.04999702658
0.04999843291
0.04999984011
0.0500012478
0.05000265643
0.05000406548
0.05000547555
0.05000688594
0.05000829747
0.0500097092
0.05001112219
0.05001253524
0.05001394973
0.05001536409
0.05001678011
0.05001819573
0.05001961332
0.05002103017
0.05002244937
0.05002386742
0.0500252883
0.05002670746
0.05002813009
0.05002955029
0.05003097478
0.05003239591
0.05003382237
0.05003524429
0.05003667289
0.05003809542
0.05003952634
0.05004094928
0.05004238275
0.05004380583
0.05004524212
0.05004666504
0.05004810445
0.05004952687
0.05005096973
0.0500523913
0.0500538379
0.05005525835
0.05005670886
0.05005812816
0.05005958241
0.05006100113
0.05006245823
0.05006387831
0.05006533583
0.05006676219
0.05006821453
0.0500696587
0.05007109331
0.05007258173
0.05007396943
0.05007556311
0.05007682487
0.0500786658
0.05007950331
0.05008189133
0.050079914
0.050079914
0.050079914
1
0.5187656153
0.3274019427
0.2553477721
0.2178489612
0.1944040236
0.1782122714
0.1663078098
0.157158867
0.1498843884
0.1439396079
0.1389700415
0.1347360587
0.1310706976
0.1278546292
0.1250006258
0.1224435942
0.1201340099
0.118033501
0.1161118233
0.1143447547
0.1127126078
0.1111991638
0.1097908996
0.1084764175
0.1072460174
0.106091372
0.1050052766
0.1039814573
0.1030144201
0.1020993295
0.1012319066
0.100408344
0.09962524024
0.0988795497
0.09816854165
0.09748976037
0.09684098457
0.09622019226
0.0956255382
0.09505534346
0.09450808741
0.09398239116
0.09347699139
0.0929907151
0.09252246824
0.0920712412
0.09163611964
0.09121628388
0.09081098977
0.09041954073
0.09004127007
0.08967554628
0.08932179555
0.08897952143
0.0886483029
0.08832776932
0.08801757131
0.08771737245
0.08742687418
0.08714586179
0.08687424159
0.0866120414
0.08635936776
0.08611634027
0.08588303728
0.08565947972
0.08544565424
0.08524155122
0.08504718313
0.08486256155
0.08468763839
0.08452224196
0.08436604625
0.08421859629
0.08407938362
0.08394793886
0.083823899
0.08370701943
0.08359712821
0.08349404828
0.0833975277
0.08330721226
0.08322267348
0.08314347814
0.08306926713
0.08299980807
0.0829349991
0.08287482257
0.082819268
0.08276825461
0.08272158224
0.08267892718
0.08263988201
0.08260402414
0.08257098918
0.08254052654
0.08251252271
0.08248698854
0.0824640178
0.08244373085
0.08242621874
0.08241150053
0.08239950108
0.08239005013
0.08238289887
0.08237774716
0.08237427398
0.08237216489
0.08237113276
0.08237093016
0.08237135397
0.082372244
0.08237347776
0.08237496364
0.08237663386
0.08237843836
0.08238033997
0.08238231089
0.08238433024
0.08238638238
0.08238845585
0.08239054244
0.08239263655
0.0823947346
0.08239683452
0.08239893525
0.08240103642
0.08240313805
0.08240524033
0.0824073435
0.08240944777
0.08241155329
0.08241366014
0.08241576833
0.08241787786
0.08241998867
0.08242210071
0.08242421393
0.08242632827
0.08242844372
0.08243056023
0.08243267779
0.0824347964
0.08243691606
0.08243903676
0.08244115851
0.08244328132
0.08244540518
0.08244753011
0.0824496561
0.08245178317
0.0824539113
0.0824560405
0.08245817078
0.08246030213
0.08246243455
0.08246456805
0.08246670261
0.08246883825
0.08247097495
0.08247311273
0.08247525157
0.08247739147
0.08247953244
0.08248167448
0.08248381758
0.08248596174
0.08248810696
0.08249025324
0.08249240058
0.08249454898
0.08249669844
0.08249884895
0.08250100052
0.08250315315
0.08250530683
0.08250746157
0.08250961736
0.08251177421
0.08251393211
0.08251609106
0.08251825107
0.08252041213
0.08252257424
0.08252473741
0.08252690162
0.0825290669
0.08253123322
0.08253340059
0.08253556902
0.0825377385
0.08253990904
0.08254208062
0.08254425326
0.08254642695
0.08254860169
0.08255077749
0.08255295434
0.08255513224
0.0825573112
0.0825594912
0.08256167227
0.08256385438
0.08256603755
0.08256822178
0.08257040705
0.08257259339
0.08257478077
0.08257696921
0.08257915871
0.08258134926
0.08258354087
0.08258573354
0.08258792726