# vtk DataFile Version 2.0
FlowField
ASCII
DATASET STRUCTURED_GRID
DIMENSIONS 400 1 200
POINTS 80000 float
0 0 0
0.08 0 0
0.16 0 0
0.24 0 0
0.32 0 0
0.4 0 0
0.48 0 0
0.56 0 0
0.64 0 0
0.72 0 0
0.8 0 0
0.88 0 0
0.96 0 0
1.04 0 0
1.12 0 0
1.2 0 0
1.28 0 0
1.36 0 0
1.44 0 0
1.52 0 0
1.6 0 0
1.68 0 0
1.76 0 0
1.84 0 0
1.92 0 0
2 0 0
2.08 0 0
2.16 0 0
2.24 0 0
2.32 0 0
2.4 0 0
2.48 0 0
2.56 0 0
2.64 0 0
2.72 0 0
2.8 0 0
2.88 0 0
2.96 0 0
3.04 0 0
3.12 0 0
3.2 0 0
3.28 0 0
3.36 0 0
3.44 0 0
3.52 0 0
3.6 0 0
3.68 0 0
3.76 0 0
3.84 0 0
3.92 0 0
4 0 0
4.08 0 0
4.16 0 0
4.24 0 0
4.32 0 0
4.4 0 0
4.48 0 0
4.56 0 0
4.64 0 0
4.72 0 0
4.8 0 0
4.88 0 0
4.96 0 0
5.04 0 0
5.12 0 0
5.2 0 0
5.28 0 0
5.36 0 0
5.44 0 0
5.52 0 0
5.6 0 0
5.68 0 0
5.76 0 0
5.84 0 0
5.92 0 0
6 0 0
6.08 0 0
6.16 0 0
6.24 0 0
6.32 0 0
6.4 0 0
6.48 0 0
6.56 0 0
6.64 0 0
6.72 0 0
6.8 0 0
6.88 0 0
6.96 0 0
7.04 0 0
7.12 0 0
7.2 0 0
7.28 0 0
7.36 0 0
7.44 0 0
7.52 0 0
7.6 0 0
7.68 0 0
7.76 0 0
7.84 0 0
7.92 0 0
8 0 0
8.08 0 0
8.16 0 0
8.24 0 0
8.32 0 0
8.4 0 0
8.48 0 0
8.56 0 0
8.64 0 0
8.72 0 0
8.8 0 0
8.88 0 0
8.96 0 0
9.04 0 0
9.12 0 0
9.2 0 0
9.28 0 0
9.36 0 0
9.44 0 0
9.52 0 0
9.6 0 0
9.68 0 0
9.76 0 0
9.84 0 0
9.92 0 0
10 0 0
10.08 0 0
10.16 0 0
10.24 0 0
10.32 0 0
10.4 0 0
10.48 0 0
10.56 0 0
10.64 0 0
10.72 0 0
10.8 0 0
10.88 0 0
10.96 0 0
11.04 0 0
11.12 0 0
11.2 0 0
11.28 0 0
11.36 0 0
11.44 0 0
11.52 0 0
11.6 0 0
11.68 0 0
11.76 0 0
11.84 0 0
11.92 0 0
12 0 0
12.08 0 0
12.16 0 0
12.24 0 0
12.32 0 0
12.4 0 0
12.48 0 0
12.56 0 0
12.64 0 0
12.72 0 0
12.8 0 0
12.88 0 0
12.96 0 0
13.04 0 0
13.12 0 0
13.2 0 0
13.28 0 0
13.36 0 0
13.44 0 0
13.52 0 0
13.6 0 0
13.68 0 0
13.76 0 0
13.84 0 0
13.92 0 0
14 0 0
14.08 0 0
14.16 0 0
14.24 0 0
14.32 0 0
14.4 0 0
14.48 0 0
14.56 0 0
14.64 0 0
14.72 0 0
14.8 0 0
14.88 0 0
14.96 0 0
15.04 0 0
15.12 0 0
15.2 0 0
15.28 0 0
15.36 0 0
15.44 0 0
15.52 0 0
15.6 0 0
15.68 0 0
15.76 0 0
15.84 0 0
15.92 0 0
16 0 0
16.08 0 0
16.16 0 0
16.24 0 0
16.32 0 0
16.4 0 0
16.48 0 0
16.56 0 0
16.64 0 0
16.72 0 0
16.8 0 0
16.88 0 0
16.96 0 0
17.04 0 0
17.12 0 0
17.2 0 0
17.28 0 0
17.36 0 0
17.44 0 0
17.52 0 0
17.6 0 0
17.68 0 0
17.76 0 0
17.84 0 0
17.92 0 0
18 0 0
18.08 0 0
18.16 0 0
18.24 0 0
18.32 0 0
18.4 0 0
18.48 0 0
18.56 0 0
18.64 0 0
18.72 0 0
18.8 0 0
18.88 0 0
18.96 0 0
19.04 0 0
19.12 0 0
19.2 0 0
19.28 0 0
19.36 0 0
19.44 0 0
19.52 0 0
19.6 0 0
19.68 0 0
19.76 0 0
19.84 0 0
19.92 0 0
20 0 0
20.08 0 0
20.16 0 0
20.24 0 0
20.32 0 0
20.4 0 0
20.48 0 0
20.56 0 0
20.64 0 0
20.72 0 0
20.8 0 0
20.88 0 0
20.96 0 0
21.04 0 0
21.12 0 0
21.2 0 0
21.28 0 0
21.36 0 0
21.44 0 0
21.52 0 0
21.6 0 0
21.68 0 0
21.76 0 0
21.84 0 0
21.92 0 0
22 0 0
22.08 0 0
22.16 0 0
22.24 0 0
22.32 0 0
22.4 0 0
22.48 0 0
22.56 0 0
22.64 0 0
22.72 0 0
22.8 0 0
22.88 0 0
22.96 0 0
23.04 0 0
23.12 0 0
23.2 0 0
23.28 0 0
23.36 0 0
23.44 0 0
23.52 0 0
23.6 0 0
23.68 0 0
23.76 0 0
23.84 0 0
23.92 0 0
24 0 0
24.08 0 0
24.16 0 0
24.24 0 0
24.32 0 0
24.4 0 0
24.48 0 0
24.56 0 0
24.64 0 0
24.72 0 0
24.8 0 0
24.88 0 0
24.96 0 0
25.04 0 0
25.12 0 0
25.2 0 0
25.28 0 0
25.36 0 0
25.44 0 0
25.52 0 0
25.6 0 0
25.68 0 0
25.76 0 0
25.84 0 0
25.92 0 0
26 0 0
26.08 0 0
26.16 0 0
26.24 0 0
26.32 0 0
26.4 0 0
26.48 0 0
26.56 0 0
26.64 0 0
26.72 0 0
26.8 0 0
26.88 0 0
26.96 0 0
27.04 0 0
27.12 0 0
27.2 0 0
27.28 0 0
27.36 0 0
27.44 0 0
27.52 0 0
27.6 0 0
27.68 0 0
27.76 0 0
27.84 0 0
27.92 0 0
28 0 0
28.08 0 0
28.16 0 0
28.24 0 0
28.32 0 0
28.4 0 0
28.48 0 0
28.56 0 0
28.64 0 0
28.72 0 0
28.8 0 0
28.88 0 0
28.96 0 0
29.04 0 0
29.12 0 0
29.2 0 0
29.28 0 0
29.36 0 0
29.44 0 0
29.52 0 0
29.6 0 0
29.68 0 0
29.76 0 0
29.84 0 0
29.92 0 0
30 0 0
30.08 0 0
30.16 0 0
30.24 0 0
30.32 0 0
30.4 0 0
30.48 0 0
30.56 0 0
30.64 0 0
30.72 0 0
30.8 0 0
30.88 0 0
30.96 0 0
31.04 0 0
31.12 0 0
31.2 0 0
31.28 0 0
31.36 0 0
31.44 0 0
31.52 0 0
31.6 0 0
31.68 0 0
31.76 0 0
31.84 0 0
31.92 0 0
0 0.005 0
0.08 0.005 0
0.16 0.005 0
0.24 0.005 0
0.32 0.005 0
0.4 0.005 0
0.48 0.005 0
0.56 0.005 0
0.64 0.005 0
0.72 0.005 0
0.8 0.005 0
0.88 0.005 0
0.96 0.005 0
1.04 0.005 0
1.12 0.005 0
1.2 0.005 0
1.28 0.005 0
1.36 0.005 0
1.44 0.005 0
1.52 0.005 0
1.6 0.005 0
1.68 0.005 0
1.76 0.005 0
1.84 0.005 0
1.92 0.005 0
2 0.005 0
2.08 0.005 0
2.16 0.005 0
2.24 0.005 0
2.32 0.005 0
2.4 0.005 0
2.48 0.005 0
2.56 0.005 0
2.64 0.005 0
2.72 0.005 0
2.8 0.005 0
2.88 0.005 0
2.96 0.005 0
3.04 0.005 0
3.12 0.005 0
3.2 0.005 0
3.28 0.005 0
3.36 0.005 0
3.44 0.005 0
3.52 0.005 0
3.6 0.005 0
3.68 0.005 0
3.76 0.005 0
3.84 0.005 0
3.92 0.005 0
4 0.005 0
4.08 0.005 0
4.16 0.005 0
4.24 0.005 0
4.32 0.005 0
4.4 0.005 0
4.48 0.005 0
4.56 0.005 0
4.64 0.005 0
4.72 0.005 0
4.8 0.005 0
4.88 0.005 0
4.96 0.005 0
5.04 0.005 0
5.12 0.005 0
5.2 0.005 0
5.28 0.005 0
5.36 0.005 0
5.44 0.005 0
5.52 0.005 0
5.6 0.005 0
5.68 0.005 0
5.76 0.005 0
5.84 0.005 0
5.92 0.005 0
6 0.005 0
6.08 0.005 0
6.16 0.005 0
6.24 0.005 0
6.32 0.005 0
6.4 0.005 0
6.48 0.005 0
6.56 0.005 0
6.64 0.005 0
6.72 0.005 0
6.8 0.005 0
6.88 0.005 0
6.96 0.005 0
7.04 0.005 0
7.12 0.005 0
7.2 0.005 0
7.28 0.005 0
7.36 0.005 0
7.44 0.005 0
7.52 0.005 0
7.6 0.005 0
7.68 0.005 0
7.76 0.005 0
7.84 0.005 0
7.92 0.005 0
8 0.005 0
8.08 0.005 0
8.16 0.005 0
8.24 0.005 0
8.32 0.005 0
8.4 0.005 0
8.48 0.005 0
8.56 0.005 0
8.64 0.005 0
8.72 0.005 0
8.8 0.005 0
8.88 0.005 0
8.96 0.005 0
9.04 0.005 0
9.12 0.005 0
9.2 0.005 0
9.28 0.005 0
9.36 0.005 0
9.44 0.005 0
9.52 0.005 0
9.6 0.005 0
9.68 0.005 0
9.76 0.005 0
9.84 0.005 0
9.92 0.005 0
10 0.005 0
10.08 0.005 0
10.16 0.005 0
10.24 0.005 0
10.32 0.005 0
10.4 0.005 0
10.48 0.005 0
10.56 0.005 0
10.64 0.005 0
10.72 0.005 0
10.8 0.005 0
10.88 0.005 0
10.96 0.005 0
11.04 0.005 0
11.12 0.005 0
11.2 0.005 0
11.28 0.005 0
11.36 0.005 0
11.44 0.005 0
11.52 0.005 0
11.6 0.005 0
11.68 0.005 0
11.76 0.005 0
11.84 0.005 0
11.92 0.005 0
12 0.005 0
12.08 0.005 0
12.16 0.005 0
12.24 0.005 0
12.32 0.005 0
12.4 0.005 0
12.48 0.005 0
12.56 0.005 0
12.64 0.005 0
12.72 0.005 0
12.8 0.005 0
12.88 0.005 0
12.96 0.005 0
13.04 0.005 0
13.12 0.005 0
13.2 0.005 0
13.28 0.005 0
13.36 0.005 0
13.44 0.005 0
13.52 0.005 0
13.6 0.005 0
13.68 0.005 0
13.76 0.005 0
13.84 0.005 0
13.92 0.005 0
14 0.005 0
14.08 0.005 0
14.16 0.005 0
14.24 0.005 0
14.32 0.005 0
14.4 0.005 0
14.48 0.005 0
14.56 0.005 0
14.64 0.005 0
14.72 0.005 0
14.8 0.005 0
14.88 0.005 0
14.96 0.005 0
15.04 0.005 0
15.12 0.005 0
15.2 0.005 0
15.28 0.005 0
15.36 0.005 0
15.44 0.005 0
15.52 0.005 0
15.6 0.005 0
15.68 0.005 0
15.76 0.005 0
15.84 0.005 0
15.92 0.005 0
16 0.005 0
16.08 0.005 0
16.16 0.005 0
16.24 0.005 0
16.32 0.005 0
16.4 0.005 0
16.48 0.005 0
16.56 0.005 0
16.64 0.005 0
16.72 0.005 0
16.8 0.005 0
16.88 0.005 0
16.96 0.005 0
17.04 0.005 0
17.12 0.005 0
17.2 0.005 0
17.28 0.005 0
17.36 0.005 0
17.44 0.005 0
17.52 0.005 0
17.6 0.005 0
17.68 0.005 0
17.76 0.005 0
17.84 0.005 0
17.92 0.005 0
18 0.005 0
18.08 0.005 0
18.16 0.005 0
18.24 0.005 0
18.32 0.005 0
18.4 0.005 0
18.48 0.005 0
18.56 0.005 0
18.64 0.005 0
18.72 0.005 0
18.8 0.005 0
18.88 0.005 0
18.96 0.005 0
19.04 0.005 0
19.12 0.005 0
19.2 0.005 0
19.28 0.005 0
19.36 0.005 0
19.44 0.005 0
19.52 0.005 0
19.6 0.005 0
19.68 0.005 0
19.76 0.005 0
19.84 0.005 0
19.92 0.005 0
20 0.005 0
20.08 0.005 0
20.16 0.005 0
20.24 0.005 0
20.32 0.005 0
20.4 0.005 0
20.48 0.005 0
20.56 0.005 0
20.64 0.005 0
20.72 0.005 0
20.8 0.005 0
20.88 0.005 0
20.96 0.005 0
21.04 0.005 0
21.12 0.005 0
21.2 0.005 0
21.28 0.005 0
21.36 0.005 0
21.44 0.005 0
21.52 0.005 0
21.6 0.005 0
21.68 0.005 0
21.76 0.005 0
21.84 0.005 0
21.92 0.005 0
22 0.005 0
22.08 0.005 0
22.16 0.005 0
22.24 0.005 0
22.32 0.005 0
22.4 0.005 0
22.48 0.005 0
22.56 0.005 0
22.64 0.005 0
22.72 0.005 0
22.8 0.005 0
22.88 0.005 0
22.96 0.005 0
23.04 0.005 0
23.12 0.005 0
23.2 0.005 0
23.28 0.005 0
23.36 0.005 0
23.44 0.005 0
23.52 0.005 0
23.6 0.005 0
23.68 0.005 0
23.76 0.005 0
23.84 0.005 0
23.92 0.005 0
24 0.005 0
24.08 0.005 0
24.16 0.005 0
24.24 0.005 0
24.32 0.005 0
24.4 0.005 0
24.48 0.005 0
24.56 0.005 0
24.64 0.005 0
24.72 0.005 0
24.8 0.005 0
24.88 0.005 0
24.96 0.005 0
25.04 0.005 0
25.12 0.005 0
25.2 0.005 0
25.28 0.005 0
25.36 0.005 0
25.44 0.005 0
25.52 0.005 0
25.6 0.005 0
25.68 0.005 0
25.76 0.005 0
25.84 0.005 0
25.92 0.005 0
26 0.005 0
26.08 0.005 0
26.16 0.005 0
26.24 0.005 0
26.32 0.005 0
26.4 0.005 0
26.48 0.005 0
26.56 0.005 0
26.64 0.005 0
26.72 0.005 0
26.8 0.005 0
26.88 0.005 0
26.96 0.005 0
27.04 0.005 0
27.12 0.005 0
27.2 0.005 0
27.28 0.005 0
27.36 0.005 0
27.44 0.005 0
27.52 0.005 0
27.6 0.005 0
27.68 0.005 0
27.76 0.005 0
27.84 0.005 0
27.92 0.005 0
28 0.005 0
28.08 0.005 0
28.16 0.005 0
28.24 0.005 0
28.32 0.005 0
28.4 0.005 0
28.48 0.005 0
28.56 0.005 0
28.64 0.005 0
28.72 0.005 0
28.8 0.005 0
28.88 0.005 0
28.96 0.005 0
29.04 0.005 0
29.12 0.005 0
29.2 0.005 0
29.28 0.005 0
29.36 0.005 0
29.44 0.005 0
29.52 0.005 0
29.6 0.005 0
29.68 0.005 0
29.76 0.005 0
29.84 0.005 0
29.92 0.005 0
30 0.005 0
30.08 0.005 0
30.16 0.005 0
30.24 0.005 0
30.32 0.005 0
30.4 0.005 0
30.48 0.005 0
30.56 0.005 0
30.64 0.005 0
30.72 0.005 0
30.8 0.005 0
30.88 0.005 0
30.96 0.005 0
31.04 0.005 0
31.12 0.005 0
31.2 0.005 0
31.28 0.005 0
31.36 0.005 0
31.44 0.005 0
31.52 0.005 0
31.6 0.005 0
31.68 0.005 0
31.76 0.005 0
31.84 0.005 0
31.92 0.005 0
0 0.01 0
0.08 0.01 0
0.16 0.01 0
0.24 0.01 0
0.32 0.01 0
0.4 0.01 0
0.48 0.01 0
0.56 0.01 0
0.64 0.01 0
0.72 0.01 0
0.8 0.01 0
0.88 0.01 0
0.96 0.01 0
1.04 0.01 0
1.12 0.01 0
1.2 0.01 0
1.28 0.01 0
1.36 0.01 0
1.44 0.01 0
1.52 0.01 0
1.6 0.01 0
1.68 0.01 0
1.76 0.01 0
1.84 0.01 0
1.92 0.01 0
2 0.01 0
2.08 0.01 0
2.16 0.01 0
2.24 0.01 0
2.32 0.01 0
2.4 0.01 0
2.48 0.01 0
2.56 0.01 0
2.64 0.01 0
2.72 0.01 0
2.8 0.01 0
2.88 0.01 0
2.96 0.01 0
3.04 0.01 0
3.12 0.01 0
3.2 0.01 0
3.28 0.01 0
3.36 0.01 0
3.44 0.01 0
3.52 0.01 0
3.6 0.01 0
3.68 0.01 0
3.76 0.01 0
3.84 0.01 0
3.92 0.01 0
4 0.01 0
4.08 0.01 0
4.16 0.01 0
4.24 0.01 0
4.32 0.01 0
4.4 0.01 0
4.48 0.01 0
4.56 0.01 0
4.64 0.01 0
4.72 0.01 0
4.8 0.01 0
4.88 0.01 0
4.96 0.01 0
5.04 0.01 0
5.12 0.01 0
[...]
POINT_DATA 80000

SCALARS u float 1
LOOKUP_TABLE default
0
-0.1316627501
-0.06826933491
-0.05229613372
-0.0444200305
-0.03957694269
-0.03625986787
-0.03383284362
-0.03197287876
-0.0304962133
-0.02929015586
-0.02828186612
-0.02742238147
-0.02667775023
-0.02602380307
-0.02544292783
-0.02492201168
-0.02445109346
-0.02402246217
-0.02363004164
-0.02326896317
-0.02293526518
-0.02262568061
-0.02233748413
-0.02206837786
-0.02181640297
-0.02157987222
-0.02135732199
-0.02114747895
-0.02094923292
-0.02076160882
-0.02058373891
-0.02041484292
-0.02025422052
-0.02010125142
-0.01995539125
-0.01981615626
-0.01968310225
-0.01955581136
-0.01943389532
-0.0193170096
-0.0192048623
-0.01909720545
-0.01899381169
-0.01889445347
-0.01879890146
-0.01870694392
-0.0186184118
-0.01853318882
-0.01845119761
-0.01837237228
-0.01829663972
-0.01822392627
-0.01815418756
-0.01808744018
-0.01802376897
-0.01796329724
-0.01790613033
-0.01785230062
-0.01780174292
-0.01775431242
-0.0177098337
-0.01766815263
-0.01762916304
-0.01759279578
-0.01755897935
-0.01752759685
-0.01749846522
-0.01747134984
-0.01744600885
-0.01742224673
-0.0173999523
-0.01737910437
-0.01735974318
-0.01734192014
-0.01732564638
-0.01731085954
-0.01729741937
-0.01728513153
-0.01727378896
-0.01726321578
-0.01725329993
-0.01724400636
-0.0172353695
-0.01722746996
-0.01722040384
-0.01721425307
-0.01720906354
-0.01720483412
-0.01720151676
-0.01719902497
-0.01719724721
-0.01719606131
-0.01719534721
-0.01719499612
-0.01719491583
-0.01719503245
-0.0171952895
-0.01719564549
-0.01719607085
-0.01719654491
-0.01719705328
-0.01719758595
-0.0171981358
-0.01719869767
-0.01719926783
-0.01719984353
-0.01720042278
-0.01720100421
-0.01720158691
-0.01720217031
-0.01720275408
-0.01720333809
-0.01720392229
-0.01720450668
-0.01720509133
-0.01720567625
-0.01720626151
-0.0172068471
-0.01720743306
-0.01720801939
-0.01720860607
-0.01720919312
-0.0172097805
-0.01721036823
-0.0172109563
-0.01721154468
-0.01721213339
-0.01721272242
-0.01721331177
-0.01721390144
-0.01721449142
-0.01721508172
-0.01721567234
-0.01721626328
-0.01721685455
-0.01721744613
-0.01721803804
-0.01721863027
-0.01721922282
-0.0172198157
-0.0172204089
-0.01722100243
-0.01722159628
-0.01722219045
-0.01722278495
-0.01722337977
-0.01722397492
-0.01722457039
-0.01722516618
-0.01722576229
-0.01722635872
-0.01722695548
-0.01722755256
-0.01722814996
-0.01722874768
-0.01722934572
-0.01722994408
-0.01723054277
-0.01723114177
-0.0172317411
-0.01723234074
-0.0172329407
-0.01723354099
-0.01723414159
-0.01723474251
-0.01723534376
-0.01723594532
-0.0172365472
-0.0172371494
-0.01723775192
-0.01723835476
-0.01723895792
-0.0172395614
-0.0172401652
-0.01724076932
-0.01724137375
-0.01724197851
-0.01724258358
-0.01724318898
-0.01724379469
-0.01724440072
-0.01724500708
-0.01724561375
-0.01724622074
-0.01724682805
-0.01724743568
-0.01724804363
-0.0172486519
-0.01724926049
-0.0172498694
-0.01725047863
-0.01725108818
-0.01725169805
-0.01725230824
-0.01725291875
-0.01725352958
-0.01725414073
-0.0172547522
-0.01725536399
-0.0172559761
-0.01725658853
-0.01725720128
-0.01725781435
-0.01725842774
-0.01725904146
-0.01725965549
-0.01726026985
-0.01726088453
-0.01726149952
-0.01726211484
-0.01726273048
-0.01726334645
-0.01726396273
-0.01726457934
-0.01726519626
-0.01726581351
-0.01726643108
-0.01726704898
-0.01726766719
-0.01726828573
-0.01726890459
-0.01726952378
-0.01727014329
-0.01727076311
-0.01727138327
-0.01727200374
-0.01727262454
-0.01727324567
-0.01727386711
-0.01727448888
-0.01727511098
-0.01727573339
-0.01727635613
-0.0172769792
-0.01727760259
-0.01727822631
-0.01727885035
-0.01727947471
-0.0172800994
-0.01728072442
-0.01728134976
-0.01728197542
-0.01728260141
-0.01728322773
-0.01728385437
-0.01728448134
-0.01728510864
-0.01728573626
-0.01728636421
-0.01728699249
-0.01728762109
-0.01728825002
-0.01728887928
-0.01728950886
-0.01729013878
-0.01729076902
-0.01729139959
-0.01729203048
-0.01729266171
-0.01729329326
-0.01729392515
-0.01729455736
-0.0172951899
-0.01729582277
-0.01729645598
-0.01729708951
-0.01729772337
-0.01729835756
-0.01729899208
-0.01729962693
-0.01730026212
-0.01730089763
-0.01730153348
-0.01730216965
-0.01730280616
-0.017303443
-0.01730408018
-0.01730471768
-0.01730535552
-0.01730599369
-0.0173066322
-0.01730727103
-0.01730791021
-0.01730854971
-0.01730918955
-0.01730982972
-0.01731047023
-0.01731111107
-0.01731175225
-0.01731239376
-0.01731303561
-0.01731367779
-0.01731432031
-0.01731496317
-0.01731560636
-0.01731624989
-0.01731689376
-0.01731753796
-0.0173181825
-0.01731882738
-0.0173194726
-0.01732011815
-0.01732076404
-0.01732141028
-0.01732205685
-0.01732270376
-0.01732335101
-0.0173239986
-0.01732464653
-0.01732529481
-0.01732594342
-0.01732659237
-0.01732724167
-0.01732789131
-0.01732854129
-0.01732919161
-0.01732984227
-0.01733049328
-0.01733114463
-0.01733179633
-0.01733244837
-0.01733310075
-0.01733375348
-0.01733440655
-0.01733505998
-0.01733571374
-0.01733636785
-0.0173370223
-0.01733767712
-0.01733833226
-0.01733898778
-0.0173396436
-0.01734029982
-0.01734095634
-0.01734161327
-0.01734227048
-0.01734292811
-0.01734358601
-0.01734424436
-0.01734490295
-0.01734556202
-0.01734622129
-0.01734688108
-0.01734754104
-0.01734820157
-0.0173488622
-0.01734952347
-0.01735018477
-0.0173508468
-0.01735150876
-0.01735217156
-0.01735283416
-0.01735349777
-0.01735416098
-0.01735482541
-0.01735548921
-0.01735615452
-0.01735681886
-0.01735748508
-0.01735814993
-0.01735881711
-0.0173594824
-0.01736015062
-0.01736081629
-0.01736148562
-0.01736215156
-0.01736282212
-0.01736348822
-0.01736416014
-0.01736482625
-0.01736549968
-0.01736616563
-0.01736684076
-0.01736750634
-0.01736818336
-0.01736884837
-0.01736952749
-0.01737019174
-0.01737087309
-0.01737153651
-0.01737222009
-0.01737288289
-0.01737356833
-0.01737423143
-0.01737491757
-0.0173755834
-0.01737626742
-0.01737694179
-0.01737761725
-0.01737831363
-0.01737896527
-0.01737971499
-0.01738030144
-0.01738117862
-0.01738154503
-0.01738271695
-0.01738159981
-0.01738159981
-0.01738159981
1
0.1316627501
0.06826933491
0.05229613372
0.0444200305
0.03957694269
0.03625986787
0.03383284362
0.03197287876
0.0304962133
0.02929015586
0.02828186612
0.02742238147
0.02667775023
0.02602380307
0.02544292783
0.02492201168
0.02445109346
0.02402246217
0.02363004164
0.02326896317
0.02293526518
0.02262568061
0.02233748413
0.02206837786
0.02181640297
0.02157987222
0.02135732199
0.02114747895
0.02094923292
0.02076160882
0.02058373891
0.02041484292
0.02025422052
0.02010125142
0.01995539125
0.01981615626
0.01968310225
0.01955581136
0.01943389532
0.0193170096
0.0192048623
0.01909720545
0.01899381169
0.01889445347
0.01879890146
0.01870694392
0.0186184118
0.01853318882
0.01845119761
0.01837237228
0.01829663972
0.01822392627
0.01815418756
0.01808744018
0.01802376897
0.01796329724
0.01790613033
0.01785230062
0.01780174292
0.01775431242
0.0177098337
0.01766815263
0.01762916304
0.01759279578
0.01755897935
0.01752759685
0.01749846522
0.01747134984
0.01744600885
0.01742224673
0.0173999523
0.01737910437
0.01735974318
0.01734192014
0.01732564638
0.01731085954
0.01729741937
0.01728513153
0.01727378896
0.01726321578
0.01725329993
0.01724400636
0.0172353695
0.01722746996
0.01722040384
0.01721425307
0.01720906354
0.01720483412
0.01720151676
0.01719902497
0.01719724721
0.01719606131
0.01719534721
0.01719499612
0.01719491583
0.01719503245
0.0171952895
0.01719564549
0.01719607085
0.01719654491
0.01719705328
0.01719758595
0.0171981358
0.01719869767
0.01719926783
0.01719984353
0.01720042278
0.01720100421
0.01720158691
0.01720217031
0.01720275408
0.01720333809
0.01720392229
0.01720450668
0.01720509133
0.01720567625
0.01720626151
0.0172068471
0.01720743306
0.01720801939
0.01720860607
0.01720919312
0.0172097805
0.01721036823
0.0172109563
0.01721154468
0.01721213339
0.01721272242
0.01721331177
0.01721390144
0.01721449142
0.01721508172
0.01721567234
0.01721626328
0.01721685455
0.01721744613
0.01721803804
0.01721863027
0.01721922282
0.0172198157
0.0172204089
0.01722100243
0.01722159628
0.01722219045
0.01722278495
0.01722337977
0.01722397492
0.01722457039
0.01722516618
0.01722576229
0.01722635872
0.01722695548
0.01722755256
0.01722814996
0.01722874768
0.01722934572
0.01722994408
0.01723054277
0.01723114177
0.0172317411
0.01723234074
0.0172329407
0.01723354099
0.01723414159
0.01723474251
0.01723534376
0.01723594532
0.0172365472
0.0172371494
0.01723775192
0.01723835476
0.01723895792
0.0172395614
0.0172401652
0.01724076932
0.01724137375
0.01724197851
0.01724258358
0.01724318898
0.01724379469
0.01724440072
0.01724500708
0.01724561375
0.01724622074
0.01724682805
0.01724743568
0.01724804363
0.0172486519
0.01724926049
0.0172498694
0.01725047863
0.01725108818
0.01725169805
0.01725230824
0.01725291875
0.01725352958
0.01725414073
0.0172547522
0.01725536399
0.0172559761
0.01725658853
0.01725720128
0.01725781435
0.01725842774
0.01725904146
0.01725965549
0.01726026985
0.01726088453
0.01726149952
0.01726211484
0.01726273048
0.01726334645
0.01726396273
0.01726457934
0.01726519626
0.01726581351
0.01726643108
0.01726704898
0.01726766719
0.01726828573
0.01726890459
0.01726952378
0.01727014329
0.01727076311
0.01727138327
0.01727200374
0.01727262454
0.01727324567
0.01727386711
0.01727448888
0.01727511098
0.01727573339
0.01727635613
0.0172769792
0.01727760259
0.01727822631
0.01727885035
0.01727947471
0.0172800994
0.01728072442
0.01728134976
0.01728197542
0.01728260141
0.01728322773
0.01728385437
0.01728448134
0.01728510864
0.01728573626
0.01728636421
0.01728699249
0.01728762109
0.01728825002
0.01728887928
0.01728950886
0.01729013878
0.01729076902
0.01729139959
0.01729203048
0.01729266171
0.01729329326
0.01729392515
0.01729455736
0.0172951899
0.01729582277
0.01729645598
0.01729708951
0.01729772337
0.01729835756
0.01729899208
0.01729962693
0.01730026212
0.01730089763
0.01730153348
0.01730216965
0.01730280616
0.017303443
0.01730408018
0.01730471768
0.01730535552
0.01730599369
0.0173066322
0.01730727103
0.01730791021
0.01730854971
0.01730918955
0.01730982972
0.01731047023
0.01731111107
0.01731175225
0.01731239376
0.01731303561
0.01731367779
0.01731432031
0.01731496317
0.01731560636
0.01731624989
0.01731689376
0.01731753796
0.0173181825
0.01731882738
0.0173194726
0.01732011815
0.01732076404
0.01732141028
0.01732205685
0.01732270376
0.01732335101
0.0173239986
0.01732464653
0.01732529481
0.01732594342
0.01732659237
0.01732724167
0.01732789131
0.01732854129
0.01732919161
0.01732984227
0.01733049328
0.01733114463
0.01733179633
0.01733244837
0.01733310075
0.01733375348
0.01733440655
0.01733505998
0.01733571374
0.01733636785
0.0173370223
0.01733767712
0.01733833226
0.01733898778
0.0173396436
0.01734029982
0.01734095634
0.01734161327
0.01734227048
0.01734292811
0.01734358601
0.01734424436
0.01734490295
0.01734556202
0.01734622129
0.01734688108
0.01734754104
0.01734820157
0.0173488622
0.01734952347
0.01735018477
0.0173508468
0.01735150876
0.01735217156
0.01735283416
0.01735349777
0.01735416098
0.01735482541
0.01735548921
0.01735615452
0.01735681886
0.01735748508
0.01735814993
0.01735881711
0.0173594824
0.01736015062
0.01736081629
0.01736148562
0.01736215156
0.01736282212
0.01736348822
0.01736416014
0.01736482625
0.01736549968
0.01736616563
0.01736684076
0.01736750634
0.01736818336
0.01736884837
0.01736952749
0.01737019174
0.01737087309
0.01737153651
0.01737222009
0.01737288289
0.01737356833
0.01737423143
0.01737491757
0.0173755834
0.01737626742
0.01737694179
0.01737761725
0.01737831363
0.01737896527
0.01737971499
0.01738030144
0.01738117862
0.01738154503
0.01738271695
0.01738159981
0.01738159981
0.01738159981
1
0.3448841055
0.2006680059
0.1549676119
0.1318950319
0.117599143
0.10776855
0.1005587148
0.09502576573
0.09062992261
0.08703882642
0.08403692373
0.08147890016
0.07926374051
0.0773193851
0.07559323758
0.07404609085
0.07264813816
0.07137629661
0.07021237586
0.06914180381
0.0681527296
0.06723538693
0.06638163407
0.06558460987
0.064838469
0.06413818156
0.06347938965
0.06285830528
0.06227162526
0.06171644642
0.06119018599
0.06069052643
0.06021539368
0.05976295239
0.05933158761
0.0589198583
0.05852644054
0.05815009599
0.05778968392
0.05744419711
0.05711277849
0.05679469037
0.05648925078
0.05619578348
0.0559136219
0.0556421646
0.05538093789
0.05512961328
0.05488796359
0.05465579122
0.05443288729
0.0542190595
0.05401421358
0.05381842729
0.05363195108
0.05345511127
0.0532881532
0.05313110265
0.05298371769
0.05284555354
0.05271610033
0.05259491584
0.05248168278
0.05237616653
0.05227810648
0.05218710973
0.05210261215
0.052023934
0.05195040677
0.05188151244
0.05181697109
0.05175673802
0.05170091303
0.05164960077
0.05160277837
0.0515602192
0.0515214962
0.05148605726
0.05145334074
0.05142289036
0.05139443397
0.05136790765
0.05134342524
0.05132120913
0.05130150541
0.05128450631
0.05127029614
0.05125882798
0.05124992942
0.05124332983
0.05123869869
0.05123568515
0.05123395152
0.05123319658
0.05123316808
0.05123366578
0.05123453783
0.05123567327
0.05123699331
0.05123844296
0.05123998398
0.05124158965
0.05124324096
0.05124492417
0.05124662925
0.05124834889
0.05125007786
0.05125181254
0.05125355053
0.05125529038
0.05125703129
0.05125877289
0.0512605151
0.05126225797
0.05126400161
0.05126574614
0.05126749164
0.05126923819
0.05127098581
0.0512727345
0.05127448427
0.05127623508
0.05127798691
0.05127973975
0.05128149357
0.05128324835
0.05128500409
0.05128676078
0.05128851841
0.05129027698
0.0512920365
0.05129379696
0.05129555837
0.05129732073
0.05129908404
0.0513008483
0.05130261352
0.0513043797
0.05130614684
0.05130791493
0.05130968398
0.051311454
0.05131322497
0.0513149969
0.05131676979
0.05131854363
0.05132031843
0.05132209419
0.0513238709
0.05132564856
0.05132742717
0.05132920674
0.05133098726
0.05133276873
0.05133455115
0.05133633451
0.05133811883
0.05133990409
0.0513416903
0.05134347746
0.05134526556
0.05134705461
0.0513488446
0.05135063554
0.05135242742
0.05135422025
0.05135601402
0.05135780874
0.0513596044
0.051361401
0.05136319855
0.05136499704
0.05136679648
0.05136859685
0.05137039818
0.05137220044
0.05137400365
0.05137580781
0.0513776129
0.05137941894
0.05138122593
0.05138303385
0.05138484273
0.05138665254
0.0513884633
0.05139027501
0.05139208765
0.05139390125
0.05139571579
0.05139753127
0.0513993477
0.05140116507
0.05140298339
0.05140480265
0.05140662286
0.05140844402
0.05141026612
0.05141208917
0.05141391316
0.0514157381
0.05141756399
0.05141939083
0.05142121861
0.05142304734
0.05142487702
0.05142670765
0.05142853923
0.05143037175
0.05143220523
0.05143403965
0.05143587503
0.05143771135
0.05143954863
0.05144138685
0.05144322603
0.05144506616
0.05144690724
0.05144874927
0.05145059226
0.0514524362
0.05145428109
0.05145612694
0.05145797374
0.05145982149
0.0514616702
0.05146351987
0.05146537049
0.05146722206
0.0514690746
0.05147092809
0.05147278254
0.05147463794
0.0514764943
0.05147835163
0.05148020991
0.05148206915
0.05148392935
0.05148579051
0.05148765263
0.05148951572
0.05149137976
0.05149324477
0.05149511074
0.05149697768
0.05149884558
0.05150071444
0.05150258427
0.05150445506
0.05150632682
0.05150819955
0.05151007324
0.0515119479
0.05151382353
0.05151570012
0.05151757769
0.05151945623
0.05152133573
0.05152321621
0.05152509766
0.05152698008
0.05152886348
0.05153074784
0.05153263318
0.0515345195
0.05153640679
0.05153829505
0.0515401843
0.05154207452
0.05154396571
0.05154585789
0.05154775104
0.05154964517
0.05155154028
0.05155343638
0.05155533345
0.05155723151
0.05155913055
0.05156103057
0.05156293158
0.05156483357
0.05156673654
0.0515686405
0.05157054545
0.05157245139
0.05157435831
0.05157626622
0.05157817512
0.05158008502
0.0515819959
0.05158390777
0.05158582064
0.0515877345
0.05158964935
0.0515915652
0.05159348205
0.05159539989
0.05159731872
0.05159923856
0.05160115939
0.05160308122
0.05160500406
0.05160692789
0.05160885273
0.05161077856
0.05161270541
0.05161463325
0.0516165621
0.05161849196
0.05162042283
0.0516223547
0.05162428758
0.05162622147
0.05162815637
0.05163009228
0.05163202921
0.05163396715
0.0516359061
0.05163784607
0.05163978705
0.05164172905
0.05164367207
0.05164561611
0.05164756118
0.05164950725
0.05165145436
0.05165340247
0.05165535164
0.0516573018
0.05165925303
0.05166120523
0.05166315853
0.05166511277
0.05166706815
0.05166902443
0.05167098191
0.05167294023
0.0516748998
0.05167686017
0.05167882185
0.05168078427
0.05168274807
0.05168471252
0.05168667846
0.05168864494
0.05169061304
0.05169258153
0.05169455183
0.0516965223
0.05169849483
0.05170046726
0.05170244208
0.05170441642
0.05170639358
0.05170836977
0.05171034936
0.05171232731
0.05171430944
0.05171628906
0.05171827384
0.05172025499
0.05172224258
0.05172422511
0.0517262157
0.0517281994
0.05173019322
0.05173217784
0.05173417517
0.05173616039
0.05173816159
0.05174014701
0.05174215252
0.05174413765
0.05174614796
0.05174813226
0.05175014793
0.05175213081
0.05175415238
0.05175613333
0.05175816121
0.05176014
0.05176217419
0.05176415141
0.05176619094
0.05176816901
0.05177021084
0.05177219633
0.05177423297
0.05177624163
0.05177825597
0.05178032424
0.05178227585
0.05178448839
0.05178626737
0.05178882262
0.05179001578
0.05179334088
0.05179063261
0.05179063261
0.05179063261
1
0.5187658281
0.3274023136
0.2553482629
0.2178495511
0.1944046997
0.1782130243
0.1663086322
0.1571597531
0.1498853332
0.1439406071
0.1389710908
0.1347371543
0.131071836
0.1278558083
0.1250018433
0.1224448463
0.1201352928
0.1180348138
0.1161131686
0.1143461343
0.1127140186
0.1112006005
0.1097923639
0.1084779229
0.107247582
0.1060930047
0.1050069748
0.103983223
0.1030162819
0.1021013446
0.1012341363
0.1004108275
0.09962799757
0.09888262032
0.09817202778
0.09749383316
0.09684584435
0.09622602002
0.09563249057
0.09506360938
0.09451796953
0.09399434956
0.09349161595
0.09300865403
0.09254438238
0.09209784006
0.09166827565
0.09125516351
0.09085813057
0.09047685033
0.09011099153
0.08976027025
0.08942457311
0.08910405563
0.08879912124
0.08851025574
0.08823778387
0.08798166967
0.0877414634
0.08751641786
0.08730570378
0.08710860371
0.08692458364
0.08675321607
0.08659401354
0.0864462786
0.08630906409
0.08618127515
0.08606186934
0.08595006183
0.08584544131
0.08574794564
0.08565770884
0.08557484476
0.08549925322
0.08543051942
0.08536793571
0.0853106285
0.08525773815
0.08520858917
0.08516279941
0.08512030359
0.08508129547
0.0850461151
0.08501511764
0.08498855801
0.0849665144
0.08494885988
0.08493527773
0.08492530793
0.08491840831
0.08491401563
0.08491159575
0.08491067756
0.08491086994
0.0849118646
0.08491342898
0.08491539389
0.08491763945
0.08492008207
0.08492266366
0.08492534352
0.08492809268
0.08493089019
0.08493372077
0.0849365733
0.08493943987
0.08494231502
0.08494519518
0.08494807818
0.08495096287
0.08495384872
0.08495673564
0.08495962372
0.08496251312
0.08496540403
0.08496829657
0.08497119084
0.08497408689
0.0849769847
0.08497988427
0.08498278556
0.08498568853
0.08498859315
0.08499149938
0.0849944072
0.08499731659
0.08500022755
0.08500314006
0.08500605413
0.08500896975
0.08501188693
0.08501480567
0.08501772598
0.08502064786
0.08502357131
0.08502649634
0.08502942294
0.08503235112
0.08503528088
0.08503821222
0.08504114513
0.08504407963
0.0850470157
0.08504995335
0.08505289257
0.08505583337
0.08505877574
0.08506171967
0.08506466518
0.08506761226
0.08507056089
0.0850735111
0.08507646287
0.08507941619
0.08508237108
0.08508532753
0.08508828554
0.0850912451
0.08509420623
0.0850971689
0.08510013314
0.08510309893
0.08510606627
0.08510903517
0.08511200562
0.08511497762
0.08511795117
0.08512092628
0.08512390294
0.08512688116
0.08512986092
0.08513284224
0.08513582511
0.08513880953
0.0851417955
0.08514478302
0.0851477721
0.08515076272
0.0851537549
0.08515674863
0.08515974392
0.08516274075
0.08516573914
0.08516873908
0.08517174057
0.08517474362
0.08517774822
0.08518075437
0.08518376208
0.08518677134
0.08518978216
0.08519279452
0.08519580845
0.08519882393
0.08520184097
0.08520485956
0.0852078797
0.08521090141
0.08521392467
0.08521694949
0.08521997587
0.0852230038
0.0852260333
0.08522906435
0.08523209697
0.08523513114
0.08523816688
0.08524120417
0.08524424303
0.08524728345
0.08525032543