# vtk DataFile Version 2.0
FlowField
ASCII
DATASET STRUCTURED_GRID
DIMENSIONS 400 1 200
POINTS 80000 float
0 0 0
0.08 0 0
0.16 0 0
0.24 0 0
0.32 0 0
0.4 0 0
0.48 0 0
0.56 0 0
0.64 0 0
0.72 0 0
0.8 0 0
0.88 0 0
0.96 0 0
1.04 0 0
1.12 0 0
1.2 0 0
1.28 0 0
1.36 0 0
1.44 0 0
1.52 0 0
1.6 0 0
1.68 0 0
1.76 0 0
1.84 0 0
1.92 0 0
2 0 0
2.08 0 0
2.16 0 0
2.24 0 0
2.32 0 0
2.4 0 0
2.48 0 0
2.56 0 0
2.64 0 0
2.72 0 0
2.8 0 0
2.88 0 0
2.96 0 0
3.04 0 0
3.12 0 0
3.2 0 0
3.28 0 0
3.36 0 0
3.44 0 0
3.52 0 0
3.6 0 0
3.68 0 0
3.76 0 0
3.84 0 0
3.92 0 0
4 0 0
4.08 0 0
4.16 0 0
4.24 0 0
4.32 0 0
4.4 0 0
4.48 0 0
4.56 0 0
4.64 0 0
4.72 0 0
4.8 0 0
4.88 0 0
4.96 0 0
5.04 0 0
5.12 0 0
5.2 0 0
5.28 0 0
5.36 0 0
5.44 0 0
5.52 0 0
5.6 0 0
5.68 0 0
5.76 0 0
5.84 0 0
5.92 0 0
6 0 0
6.08 0 0
6.16 0 0
6.24 0 0
6.32 0 0
6.4 0 0
6.48 0 0
6.56 0 0
6.64 0 0
6.72 0 0
6.8 0 0
6.88 0 0
6.96 0 0
7.04 0 0
7.12 0 0
7.2 0 0
7.28 0 0
7.36 0 0
7.44 0 0
7.52 0 0
7.6 0 0
7.68 0 0
7.76 0 0
7.84 0 0
7.92 0 0
8 0 0
8.08 0 0
8.16 0 0
8.24 0 0
8.32 0 0
8.4 0 0
8.48 0 0
8.56 0 0
8.64 0 0
8.72 0 0
8.8 0 0
8.88 0 0
8.96 0 0
9.04 0 0
9.12 0 0
9.2 0 0
9.28 0 0
9.36 0 0
9.44 0 0
9.52 0 0
9.6 0 0
9.68 0 0
9.76 0 0
9.84 0 0
9.92 0 0
10 0 0
10.08 0 0
10.16 0 0
10.24 0 0
10.32 0 0
10.4 0 0
10.48 0 0
10.56 0 0
10.64 0 0
10.72 0 0
10.8 0 0
10.88 0 0
10.96 0 0
11.04 0 0
11.12 0 0
11.2 0 0
11.28 0 0
11.36 0 0
11.44 0 0
11.52 0 0
11.6 0 0
11.68 0 0
11.76 0 0
11.84 0 0
11.92 0 0
12 0 0
12.08 0 0
12.16 0 0
12.24 0 0
12.32 0 0
12.4 0 0
12.48 0 0
12.56 0 0
12.64 0 0
12.72 0 0
12.8 0 0
12.88 0 0
12.96 0 0
13.04 0 0
13.12 0 0
13.2 0 0
13.28 0 0
13.36 0 0
13.44 0 0
13.52 0 0
13.6 0 0
13.68 0 0
13.76 0 0
13.84 0 0
13.92 0 0
14 0 0
14.08 0 0
14.16 0 0
14.24 0 0
14.32 0 0
14.4 0 0
14.48 0 0
14.56 0 0
14.64 0 0
14.72 0 0
14.8 0 0
14.88 0 0
14.96 0 0
15.04 0 0
15.12 0 0
15.2 0 0
15.28 0 0
15.36 0 0
15.44 0 0
15.52 0 0
15.6 0 0
15.68 0 0
15.76 0 0
15.84 0 0
15.92 0 0
16 0 0
16.08 0 0
16.16 0 0
16.24 0 0
16.32 0 0
16.4 0 0
16.48 0 0
16.56 0 0
16.64 0 0
16.72 0 0
16.8 0 0
16.88 0 0
16.96 0 0
17.04 0 0
17.12 0 0
17.2 0 0
17.28 0 0
17.36 0 0
17.44 0 0
17.52 0 0
17.6 0 0
17.68 0 0
17.76 0 0
17.84 0 0
17.92 0 0
18 0 0
18.08 0 0
18.16 0 0
18.24 0 0
18.32 0 0
18.4 0 0
18.48 0 0
18.56 0 0
18.64 0 0
18.72 0 0
18.8 0 0
18.88 0 0
18.96 0 0
19.04 0 0
19.12 0 0
19.2 0 0
19.28 0 0
19.36 0 0
19.44 0 0
19.52 0 0
19.6 0 0
19.68 0 0
19.76 0 0
19.84 0 0
19.92 0 0
20 0 0
20.08 0 0
20.16 0 0
20.24 0 0
20.32 0 0
20.4 0 0
20.48 0 0
20.56 0 0
20.64 0 0
20.72 0 0
20.8 0 0
20.88 0 0
20.96 0 0
21.04 0 0
21.12 0 0
21.2 0 0
21.28 0 0
21.36 0 0
21.44 0 0
21.52 0 0
21.6 0 0
21.68 0 0
21.76 0 0
21.84 0 0
21.92 0 0
22 0 0
22.08 0 0
22.16 0 0
22.24 0 0
22.32 0 0
22.4 0 0
22.48 0 0
22.56 0 0
22.64 0 0
22.72 0 0
22.8 0 0
22.88 0 0
22.96 0 0
23.04 0 0
23.12 0 0
23.2 0 0
23.28 0 0
23.36 0 0
23.44 0 0
23.52 0 0
23.6 0 0
23.68 0 0
23.76 0 0
23.84 0 0
23.92 0 0
24 0 0
24.08 0 0
24.16 0 0
24.24 0 0
24.32 0 0
24.4 0 0
24.48 0 0
24.56 0 0
24.64 0 0
24.72 0 0
24.8 0 0
24.88 0 0
24.96 0 0
25.04 0 0
25.12 0 0
25.2 0 0
25.28 0 0
25.36 0 0
25.44 0 0
25.52 0 0
25.6 0 0
25.68 0 0
25.76 0 0
25.84 0 0
25.92 0 0
26 0 0
26.08 0 0
26.16 0 0
26.24 0 0
26.32 0 0
26.4 0 0
26.48 0 0
26.56 0 0
26.64 0 0
26.72 0 0
26.8 0 0
26.88 0 0
26.96 0 0
27.04 0 0
27.12 0 0
27.2 0 0
27.28 0 0
27.36 0 0
27.44 0 0
27.52 0 0
27.6 0 0
27.68 0 0
27.76 0 0
27.84 0 0
27.92 0 0
28 0 0
28.08 0 0
28.16 0 0
28.24 0 0
28.32 0 0
28.4 0 0
28.48 0 0
28.56 0 0
28.64 0 0
28.72 0 0
28.8 0 0
28.88 0 0
28.96 0 0
29.04 0 0
29.12 0 0
29.2 0 0
29.28 0 0
29.36 0 0
29.44 0 0
29.52 0 0
29.6 0 0
29.68 0 0
29.76 0 0
29.84 0 0
29.92 0 0
30 0 0
30.08 0 0
30.16 0 0
30.24 0 0
30.32 0 0
30.4 0 0
30.48 0 0
30.56 0 0
30.64 0 0
30.72 0 0
30.8 0 0
30.88 0 0
30.96 0 0
31.04 0 0
31.12 0 0
31.2 0 0
31.28 0 0
31.36 0 0
31.44 0 0
31.52 0 0
31.6 0 0
31.68 0 0
31.76 0 0
31.84 0 0
31.92 0 0
0 0.005 0
0.08 0.005 0
0.16 0.005 0
0.24 0.005 0
0.32 0.005 0
0.4 0.005 0
0.48 0.005 0
0.56 0.005 0
0.64 0.005 0
0.72 0.005 0
0.8 0.005 0
0.88 0.005 0
0.96 0.005 0
1.04 0.005 0
1.12 0.005 0
1.2 0.005 0
1.28 0.005 0
1.36 0.005 0
1.44 0.005 0
1.52 0.005 0
1.6 0.005 0
1.68 0.005 0
1.76 0.005 0
1.84 0.005 0
1.92 0.005 0
2 0.005 0
2.08 0.005 0
2.16 0.005 0
2.24 0.005 0
2.32 0.005 0
2.4 0.005 0
2.48 0.005 0
2.56 0.005 0
2.64 0.005 0
2.72 0.005 0
2.8 0.005 0
2.88 0.005 0
2.96 0.005 0
3.04 0.005 0
3.12 0.005 0
3.2 0.005 0
3.28 0.005 0
3.36 0.005 0
3.44 0.005 0
3.52 0.005 0
3.6 0.005 0
3.68 0.005 0
3.76 0.005 0
3.84 0.005 0
3.92 0.005 0
4 0.005 0
4.08 0.005 0
4.16 0.005 0
4.24 0.005 0
4.32 0.005 0
4.4 0.005 0
4.48 0.005 0
4.56 0.005 0
4.64 0.005 0
4.72 0.005 0
4.8 0.005 0
4.88 0.005 0
4.96 0.005 0
5.04 0.005 0
5.12 0.005 0
5.2 0.005 0
5.28 0.005 0
5.36 0.005 0
5.44 0.005 0
5.52 0.005 0
5.6 0.005 0
5.68 0.005 0
5.76 0.005 0
5.84 0.005 0
5.92 0.005 0
6 0.005 0
6.08 0.005 0
6.16 0.005 0
6.24 0.005 0
6.32 0.005 0
6.4 0.005 0
6.48 0.005 0
6.56 0.005 0
6.64 0.005 0
6.72 0.005 0
6.8 0.005 0
6.88 0.005 0
6.96 0.005 0
7.04 0.005 0
7.12 0.005 0
7.2 0.005 0
7.28 0.005 0
7.36 0.005 0
7.44 0.005 0
7.52 0.005 0
7.6 0.005 0
7.68 0.005 0
7.76 0.005 0
7.84 0.005 0
7.92 0.005 0
8 0.005 0
8.08 0.005 0
8.16 0.005 0
8.24 0.005 0
8.32 0.005 0
8.4 0.005 0
8.48 0.005 0
8.56 0.005 0
8.64 0.005 0
8.72 0.005 0
8.8 0.005 0
8.88 0.005 0
8.96 0.005 0
9.04 0.005 0
9.12 0.005 0
9.2 0.005 0
9.28 0.005 0
9.36 0.005 0
9.44 0.005 0
9.52 0.005 0
9.6 0.005 0
9.68 0.005 0
9.76 0.005 0
9.84 0.005 0
9.92 0.005 0
10 0.005 0
10.08 0.005 0
10.16 0.005 0
10.24 0.005 0
10.32 0.005 0
10.4 0.005 0
10.48 0.005 0
10.56 0.005 0
10.64 0.005 0
10.72 0.005 0
10.8 0.005 0
10.88 0.005 0
10.96 0.005 0
11.04 0.005 0
11.12 0.005 0
11.2 0.005 0
11.28 0.005 0
11.36 0.005 0
11.44 0.005 0
11.52 0.005 0
11.6 0.005 0
11.68 0.005 0
11.76 0.005 0
11.84 0.005 0
11.92 0.005 0
12 0.005 0
12.08 0.005 0
12.16 0.005 0
12.24 0.005 0
12.32 0.005 0
12.4 0.005 0
12.48 0.005 0
12.56 0.005 0
12.64 0.005 0
12.72 0.005 0
12.8 0.005 0
12.88 0.005 0
12.96 0.005 0
13.04 0.005 0
13.12 0.005 0
13.2 0.005 0
13.28 0.005 0
13.36 0.005 0
13.44 0.005 0
13.52 0.005 0
13.6 0.005 0
13.68 0.005 0
13.76 0.005 0
13.84 0.005 0
13.92 0.005 0
14 0.005 0
14.08 0.005 0
14.16 0.005 0
14.24 0.005 0
14.32 0.005 0
14.4 0.005 0
14.48 0.005 0
14.56 0.005 0
14.64 0.005 0
14.72 0.005 0
14.8 0.005 0
14.88 0.005 0
14.96 0.005 0
15.04 0.005 0
15.12 0.005 0
15.2 0.005 0
15.28 0.005 0
15.36 0.005 0
15.44 0.005 0
15.52 0.005 0
15.6 0.005 0
15.68 0.005 0
15.76 0.005 0
15.84 0.005 0
15.92 0.005 0
16 0.005 0
16.08 0.005 0
16.16 0.005 0
16.24 0.005 0
16.32 0.005 0
16.4 0.005 0
16.48 0.005 0
16.56 0.005 0
16.64 0.005 0
16.72 0.005 0
16.8 0.005 0
16.88 0.005 0
16.96 0.005 0
17.04 0.005 0
17.12 0.005 0
17.2 0.005 0
17.28 0.005 0
17.36 0.005 0
17.44 0.005 0
17.52 0.005 0
17.6 0.005 0
17.68 0.005 0
17.76 0.005 0
17.84 0.005 0
17.92 0.005 0
18 0.005 0
18.08 0.005 0
18.16 0.005 0
18.24 0.005 0
18.32 0.005 0
18.4 0.005 0
18.48 0.005 0
18.56 0.005 0
18.64 0.005 0
18.72 0.005 0
18.8 0.005 0
18.88 0.005 0
18.96 0.005 0
19.04 0.005 0
19.12 0.005 0
19.2 0.005 0
19.28 0.005 0
19.36 0.005 0
19.44 0.005 0
19.52 0.005 0
19.6 0.005 0
19.68 0.005 0
19.76 0.005 0
19.84 0.005 0
19.92 0.005 0
20 0.005 0
20.08 0.005 0
20.16 0.005 0
20.24 0.005 0
20.32 0.005 0
20.4 0.005 0
20.48 0.005 0
20.56 0.005 0
20.64 0.005 0
20.72 0.005 0
20.8 0.005 0
20.88 0.005 0
20.96 0.005 0
21.04 0.005 0
21.12 0.005 0
21.2 0.005 0
21.28 0.005 0
21.36 0.005 0
21.44 0.005 0
21.52 0.005 0
21.6 0.005 0
21.68 0.005 0
21.76 0.005 0
21.84 0.005 0
21.92 0.005 0
22 0.005 0
22.08 0.005 0
22.16 0.005 0
22.24 0.005 0
22.32 0.005 0
22.4 0.005 0
22.48 0.005 0
22.56 0.005 0
22.64 0.005 0
22.72 0.005 0
22.8 0.005 0
22.88 0.005 0
22.96 0.005 0
23.04 0.005 0
23.12 0.005 0
23.2 0.005 0
23.28 0.005 0
23.36 0.005 0
23.44 0.005 0
23.52 0.005 0
23.6 0.005 0
23.68 0.005 0
23.76 0.005 0
23.84 0.005 0
23.92 0.005 0
24 0.005 0
24.08 0.005 0
24.16 0.005 0
24.24 0.005 0
24.32 0.005 0
24.4 0.005 0
24.48 0.005 0
24.56 0.005 0
24.64 0.005 0
24.72 0.005 0
24.8 0.005 0
24.88 0.005 0
24.96 0.005 0
25.04 0.005 0
25.12 0.005 0
25.2 0.005 0
25.28 0.005 0
25.36 0.005 0
25.44 0.005 0
25.52 0.005 0
25.6 0.005 0
25.68 0.005 0
25.76 0.005 0
25.84 0.005 0
25.92 0.005 0
26 0.005 0
26.08 0.005 0
26.16 0.005 0
26.24 0.005 0
26.32 0.005 0
26.4 0.005 0
26.48 0.005 0
26.56 0.005 0
26.64 0.005 0
26.72 0.005 0
26.8 0.005 0
26.88 0.005 0
26.96 0.005 0
27.04 0.005 0
27.12 0.005 0
27.2 0.005 0
27.28 0.005 0
27.36 0.005 0
27.44 0.005 0
27.52 0.005 0
27.6 0.005 0
27.68 0.005 0
27.76 0.005 0
27.84 0.005 0
27.92 0.005 0
28 0.005 0
28.08 0.005 0
28.16 0.005 0
28.24 0.005 0
28.32 0.005 0
28.4 0.005 0
28.48 0.005 0
28.56 0.005 0
28.64 0.005 0
28.72 0.005 0
28.8 0.005 0
28.88 0.005 0
28.96 0.005 0
29.04 0.005 0
29.12 0.005 0
29.2 0.005 0
29.28 0.005 0
29.36 0.005 0
29.44 0.005 0
29.52 0.005 0
29.6 0.005 0
29.68 0.005 0
29.76 0.005 0
29.84 0.005 0
29.92 0.005 0
30 0.005 0
30.08 0.005 0
30.16 0.005 0
30.24 0.005 0
30.32 0.005 0
30.4 0.005 0
30.48 0.005 0
30.56 0.005 0
30.64 0.005 0
30.72 0.005 0
30.8 0.005 0
30.88 0.005 0
30.96 0.005 0
31.04 0.005 0
31.12 0.005 0
31.2 0.005 0
31.28 0.005 0
31.36 0.005 0
31.44 0.005 0
31.52 0.005 0
31.6 0.005 0
31.68 0.005 0
31.76 0.005 0
31.84 0.005 0
31.92 0.005 0
0 0.01 0
0.08 0.01 0
0.16 0.01 0
0.24 0.01 0
0.32 0.01 0
0.4 0.01 0
0.48 0.01 0
0.56 0.01 0
0.64 0.01 0
0.72 0.01 0
0.8 0.01 0
0.88 0.01 0
0.96 0.01 0
1.04 0.01 0
1.12 0.01 0
1.2 0.01 0
1.28 0.01 0
1.36 0.01 0
1.44 0.01 0
1.52 0.01 0
1.6 0.01 0
1.68 0.01 0
1.76 0.01 0
1.84 0.01 0
1.92 0.01 0
2 0.01 0
2.08 0.01 0
2.16 0.01 0
2.24 0.01 0
2.32 0.01 0
2.4 0.01 0
2.48 0.01 0
2.56 0.01 0
2.64 0.01 0
2.72 0.01 0
2.8 0.01 0
2.88 0.01 0
2.96 0.01 0
3.04 0.01 0
3.12 0.01 0
3.2 0.01 0
3.28 0.01 0
3.36 0.01 0
3.44 0.01 0
3.52 0.01 0
3.6 0.01 0
3.68 0.01 0
3.76 0.01 0
3.84 0.01 0
3.92 0.01 0
4 0.01 0
4.08 0.01 0
4.16 0.01 0
4.24 0.01 0
4.32 0.01 0
4.4 0.01 0
4.48 0.01 0
4.56 0.01 0
4.64 0.01 0
4.72 0.01 0
4.8 0.01 0
4.88 0.01 0
4.96 0.01 0
5.04 0.01 0
5.12 0.01 0
[...]
POINT_DATA 80000

SCALARS u float 1
LOOKUP_TABLE default
0
-0.1316625892
-0.06826908489
-0.05229582039
-0.04441966552
-0.03957653306
-0.03625941843
-0.03383235808
-0.03197236013
-0.03049566408
-0.02928957822
-0.02828126205
-0.02742175289
-0.02667709882
-0.02602313015
-0.02544223464
-0.02492129976
-0.02445036458
-0.02402171754
-0.02362928141
-0.02326818727
-0.02293447481
-0.02262487824
-0.02233667121
-0.02206755263
-0.02181556155
-0.02157901253
-0.02135644605
-0.02114658976
-0.02094832798
-0.02076067722
-0.02058276642
-0.02041382076
-0.02025314835
-0.02010012912
-0.01995420553
-0.0198148747
-0.01968168172
-0.019554214
-0.01943209635
-0.01931498677
-0.01920257282
-0.01909456841
-0.01899071107
-0.01889075952
-0.01879449153
-0.01870170209
-0.01861220172
-0.01852581499
-0.01844237929
-0.01836174361
-0.01828376754
-0.01820832033
-0.0181352801
-0.01806453305
-0.0179959728
-0.01792949982
-0.01786502085
-0.01780244845
-0.0177417005
-0.01768269985
-0.01762537387
-0.01756965419
-0.01751547635
-0.01746277955
-0.01741150638
-0.01736160262
-0.01731301691
-0.01726570065
-0.01721960777
-0.01717469459
-0.0171309197
-0.01708824379
-0.01704662947
-0.01700604116
-0.01696644496
-0.01692780859
-0.01689010129
-0.01685329377
-0.01681735809
-0.01678226754
-0.01674799656
-0.01671452062
-0.01668181629
-0.01664986114
-0.01661863378
-0.0165881137
-0.0165582812
-0.0165291173
-0.01650060366
-0.01647272267
-0.01644545747
-0.01641879195
-0.0163927107
-0.01636719895
-0.01634224249
-0.01631782775
-0.01629394195
-0.01627057333
-0.01624771126
-0.01622534631
-0.0162034702
-0.01618207573
-0.01616115674
-0.01614070822
-0.01612072643
-0.01610120894
-0.01608215451
-0.01606356278
-0.0160454339
-0.01602776818
-0.01601056596
-0.01599382771
-0.01597755411
-0.01596174604
-0.0159464043
-0.01593152928
-0.0159171204
-0.01590317603
-0.01588969356
-0.01587666985
-0.01586410171
-0.01585198614
-0.01584032016
-0.01582910029
-0.01581832201
-0.01580797931
-0.01579806493
-0.01578857087
-0.01577948917
-0.01577081253
-0.01576253438
-0.01575464842
-0.01574714782
-0.01574002449
-0.01573326872
-0.01572686951
-0.0157208153
-0.01571509497
-0.0157096985
-0.01570461709
-0.01569984271
-0.01569536728
-0.01569118179
-0.01568727587
-0.01568363783
-0.01568025535
-0.01567711631
-0.01567420956
-0.01567152535
-0.01566905517
-0.01566679115
-0.01566472529
-0.01566284878
-0.01566115167
-0.01565962295
-0.01565825113
-0.01565702494
-0.01565593397
-0.01565496917
-0.01565412286
-0.01565338845
-0.01565275994
-0.01565223131
-0.01565179606
-0.01565144689
-0.0156511757
-0.01565097384
-0.01565083244
-0.01565074282
-0.01565069686
-0.01565068729
-0.01565070774
-0.01565075282
-0.01565081798
-0.01565089942
-0.01565099394
-0.01565109884
-0.0156512118
-0.01565133089
-0.01565145448
-0.01565158126
-0.01565171023
-0.01565184061
-0.01565197188
-0.0156521037
-0.01565223587
-0.01565236829
-0.0156525009
-0.01565263369
-0.01565276666
-0.0156528998
-0.01565303311
-0.01565316655
-0.01565330012
-0.01565343379
-0.01565356755
-0.01565370137
-0.01565383525
-0.01565396918
-0.01565410317
-0.01565423721
-0.01565437132
-0.01565450548
-0.01565463971
-0.01565477401
-0.01565490838
-0.01565504282
-0.01565517733
-0.01565531191
-0.01565544656
-0.01565558128
-0.01565571606
-0.01565585091
-0.01565598583
-0.01565612082
-0.01565625587
-0.01565639099
-0.01565652618
-0.01565666143
-0.01565679675
-0.01565693214
-0.01565706759
-0.01565720311
-0.0156573387
-0.01565747436
-0.01565761008
-0.01565774587
-0.01565788172
-0.01565801765
-0.01565815363
-0.01565828969
-0.01565842581
-0.015658562
-0.01565869825
-0.01565883458
-0.01565897096
-0.01565910742
-0.01565924394
-0.01565938052
-0.01565951718
-0.0156596539
-0.01565979068
-0.01565992754
-0.01566006446
-0.01566020144
-0.01566033849
-0.01566047561
-0.01566061279
-0.01566075004
-0.01566088736
-0.01566102474
-0.01566116219
-0.01566129971
-0.01566143729
-0.01566157494
-0.01566171266
-0.01566185044
-0.01566198828
-0.0156621262
-0.01566226418
-0.01566240222
-0.01566254034
-0.01566267852
-0.01566281676
-0.01566295508
-0.01566309345
-0.0156632319
-0.01566337041
-0.01566350899
-0.01566364763
-0.01566378634
-0.01566392512
-0.01566406397
-0.01566420288
-0.01566434185
-0.0156644809
-0.01566462001
-0.01566475919
-0.01566489843
-0.01566503774
-0.01566517712
-0.01566531656
-0.01566545607
-0.01566559565
-0.01566573529
-0.01566587501
-0.01566601478
-0.01566615463
-0.01566629454
-0.01566643452
-0.01566657456
-0.01566671468
-0.01566685486
-0.0156669951
-0.01566713542
-0.0156672758
-0.01566741625
-0.01566755676
-0.01566769734
-0.01566783799
-0.01566797871
-0.01566811949
-0.01566826035
-0.01566840126
-0.01566854225
-0.0156686833
-0.01566882442
-0.01566896561
-0.01566910687
-0.01566924819
-0.01566938958
-0.01566953104
-0.01566967257
-0.01566981416
-0.01566995582
-0.01567009755
-0.01567023935
-0.01567038121
-0.01567052315
-0.01567066515
-0.01567080722
-0.01567094935
-0.01567109156
-0.01567123383
-0.01567137617
-0.01567151858
-0.01567166106
-0.0156718036
-0.01567194622
-0.01567208889
-0.01567223165
-0.01567237446
-0.01567251735
-0.0156726603
-0.01567280333
-0.01567294642
-0.01567308959
-0.01567323281
-0.01567337612
-0.01567351947
-0.01567366292
-0.01567380641
-0.01567395
-0.01567409362
-0.01567423736
-0.01567438111
-0.015674525
-0.01567466888
-0.01567481291
-0.01567495692
-0.0156751011
-0.01567524523
-0.01567538957
-0.01567553382
-0.01567567831
-0.01567582268
-0.01567596734
-0.01567611181
-0.01567625665
-0.01567640122
-0.01567654623
-0.0156766909
-0.0156768361
-0.01567698084
-0.01567712625
-0.01567727105
-0.01567741669
-0.01567756152
-0.0156777074
-0.01567785225
-0.01567799839
-0.01567814322
-0.01567828966
-0.01567843444
-0.0156785812
-0.0156787259
-0.01567887299
-0.0156790176
-0.01567916502
-0.01567930955
-0.01567945727
-0.01567960178
-0.01567974967
-0.01567989439
-0.01568004217
-0.01568018766
-0.01568033466
-0.01568048222
-0.015680627
-0.01568077959
-0.01568091888
-0.01568108334
-0.01568120827
-0.01568140065
-0.01568147747
-0.01568173285
-0.01568148452
-0.01568148452
-0.01568148452
1
0.1316625892
0.06826908489
0.05229582039
0.04441966552
0.03957653306
0.03625941843
0.03383235808
0.03197236013
0.03049566408
0.02928957822
0.02828126205
0.02742175289
0.02667709882
0.02602313015
0.02544223464
0.02492129976
0.02445036458
0.02402171754
0.02362928141
0.02326818727
0.02293447481
0.02262487824
0.02233667121
0.02206755263
0.02181556155
0.02157901253
0.02135644605
0.02114658976
0.02094832798
0.02076067722
0.02058276642
0.02041382076
0.02025314835
0.02010012912
0.01995420553
0.0198148747
0.01968168172
0.019554214
0.01943209635
0.01931498677
0.01920257282
0.01909456841
0.01899071107
0.01889075952
0.01879449153
0.01870170209
0.01861220172
0.01852581499
0.01844237929
0.01836174361
0.01828376754
0.01820832033
0.0181352801
0.01806453305
0.0179959728
0.01792949982
0.01786502085
0.01780244845
0.0177417005
0.01768269985
0.01762537387
0.01756965419
0.01751547635
0.01746277955
0.01741150638
0.01736160262
0.01731301691
0.01726570065
0.01721960777
0.01717469459
0.0171309197
0.01708824379
0.01704662947
0.01700604116
0.01696644496
0.01692780859
0.01689010129
0.01685329377
0.01681735809
0.01678226754
0.01674799656
0.01671452062
0.01668181629
0.01664986114
0.01661863378
0.0165881137
0.0165582812
0.0165291173
0.01650060366
0.01647272267
0.01644545747
0.01641879195
0.0163927107
0.01636719895
0.01634224249
0.01631782775
0.01629394195
0.01627057333
0.01624771126
0.01622534631
0.0162034702
0.01618207573
0.01616115674
0.01614070822
0.01612072643
0.01610120894
0.01608215451
0.01606356278
0.0160454339
0.01602776818
0.01601056596
0.01599382771
0.01597755411
0.01596174604
0.0159464043
0.01593152928
0.0159171204
0.01590317603
0.01588969356
0.01587666985
0.01586410171
0.01585198614
0.01584032016
0.01582910029
0.01581832201
0.01580797931
0.01579806493
0.01578857087
0.01577948917
0.01577081253
0.01576253438
0.01575464842
0.01574714782
0.01574002449
0.01573326872
0.01572686951
0.0157208153
0.01571509497
0.0157096985
0.01570461709
0.01569984271
0.01569536728
0.01569118179
0.01568727587
0.01568363783
0.01568025535
0.01567711631
0.01567420956
0.01567152535
0.01566905517
0.01566679115
0.01566472529
0.01566284878
0.01566115167
0.01565962295
0.01565825113
0.01565702494
0.01565593397
0.01565496917
0.01565412286
0.01565338845
0.01565275994
0.01565223131
0.01565179606
0.01565144689
0.0156511757
0.01565097384
0.01565083244
0.01565074282
0.01565069686
0.01565068729
0.01565070774
0.01565075282
0.01565081798
0.01565089942
0.01565099394
0.01565109884
0.0156512118
0.01565133089
0.01565145448
0.01565158126
0.01565171023
0.01565184061
0.01565197188
0.0156521037
0.01565223587
0.01565236829
0.0156525009
0.01565263369
0.01565276666
0.0156528998
0.01565303311
0.01565316655
0.01565330012
0.01565343379
0.01565356755
0.01565370137
0.01565383525
0.01565396918
0.01565410317
0.01565423721
0.01565437132
0.01565450548
0.01565463971
0.01565477401
0.01565490838
0.01565504282
0.01565517733
0.01565531191
0.01565544656
0.01565558128
0.01565571606
0.01565585091
0.01565598583
0.01565612082
0.01565625587
0.01565639099
0.01565652618
0.01565666143
0.01565679675
0.01565693214
0.01565706759
0.01565720311
0.0156573387
0.01565747436
0.01565761008
0.01565774587
0.01565788172
0.01565801765
0.01565815363
0.01565828969
0.01565842581
0.015658562
0.01565869825
0.01565883458
0.01565897096
0.01565910742
0.01565924394
0.01565938052
0.01565951718
0.0156596539
0.01565979068
0.01565992754
0.01566006446
0.01566020144
0.01566033849
0.01566047561
0.01566061279
0.01566075004
0.01566088736
0.01566102474
0.01566116219
0.01566129971
0.01566143729
0.01566157494
0.01566171266
0.01566185044
0.01566198828
0.0156621262
0.01566226418
0.01566240222
0.01566254034
0.01566267852
0.01566281676
0.01566295508
0.01566309345
0.0156632319
0.01566337041
0.01566350899
0.01566364763
0.01566378634
0.01566392512
0.01566406397
0.01566420288
0.01566434185
0.0156644809
0.01566462001
0.01566475919
0.01566489843
0.01566503774
0.01566517712
0.01566531656
0.01566545607
0.01566559565
0.01566573529
0.01566587501
0.01566601478
0.01566615463
0.01566629454
0.01566643452
0.01566657456
0.01566671468
0.01566685486
0.0156669951
0.01566713542
0.0156672758
0.01566741625
0.01566755676
0.01566769734
0.01566783799
0.01566797871
0.01566811949
0.01566826035
0.01566840126
0.01566854225
0.0156686833
0.01566882442
0.01566896561
0.01566910687
0.01566924819
0.01566938958
0.01566953104
0.01566967257
0.01566981416
0.01566995582
0.01567009755
0.01567023935
0.01567038121
0.01567052315
0.01567066515
0.01567080722
0.01567094935
0.01567109156
0.01567123383
0.01567137617
0.01567151858
0.01567166106
0.0156718036
0.01567194622
0.01567208889
0.01567223165
0.01567237446
0.01567251735
0.0156726603
0.01567280333
0.01567294642
0.01567308959
0.01567323281
0.01567337612
0.01567351947
0.01567366292
0.01567380641
0.01567395
0.01567409362
0.01567423736
0.01567438111
0.015674525
0.01567466888
0.01567481291
0.01567495692
0.0156751011
0.01567524523
0.01567538957
0.01567553382
0.01567567831
0.01567582268
0.01567596734
0.01567611181
0.01567625665
0.01567640122
0.01567654623
0.0156766909
0.0156768361
0.01567698084
0.01567712625
0.01567727105
0.01567741669
0.01567756152
0.0156777074
0.01567785225
0.01567799839
0.01567814322
0.01567828966
0.01567843444
0.0156785812
0.0156787259
0.01567887299
0.0156790176
0.01567916502
0.01567930955
0.01567945727
0.01567960178
0.01567974967
0.01567989439
0.01568004217
0.01568018766
0.01568033466
0.01568048222
0.015680627
0.01568077959
0.01568091888
0.01568108334
0.01568120827
0.01568140065
0.01568147747
0.01568173285
0.01568148452
0.01568148452
0.01568148452
1
0.3448837184
0.2006673609
0.1549667785
0.1318940439
0.1175980209
0.107767308
0.1005573639
0.09502431477
0.09062837905
0.08703719673
0.08403521383
0.08147711566
0.07926188627
0.07731746509
0.07559125559
0.07404405148
0.07264604634
0.07137415551
0.07021018599
0.06913956558
0.0681504468
0.06723306592
0.06637927755
0.06558221206
0.06483601947
0.0641356754
0.06347683178
0.06285570061
0.06226896212
0.06171369138
0.06118729896
0.06068748253
0.06021218688
0.05975957072
0.0593279789
0.05891591891
0.05852204096
0.05814512103
0.05778404627
0.05743780245
0.05710546309
0.05678618005
0.05647917524
0.05618373348
0.05589919617
0.05562495574
0.05536045068
0.05510516129
0.05485860574
0.05462033666
0.05438993811
0.05416702282
0.05395122975
0.05374222184
0.05353968407
0.05334332164
0.05315285841
0.05296803539
0.05278860948
0.05261435216
0.05244504844
0.05228049585
0.05212050356
0.05196489157
0.05181348995
0.05166613809
0.05152268401
0.05138298381
0.05124690113
0.05111430671
0.05098507796
0.05085909848
0.05073625764
0.05061645011
0.05049957557
0.05038553849
0.0502742479
0.05016561711
0.05005956345
0.04995600788
0.04985487471
0.0497560915
0.04965958893
0.04956530077
0.04947316375
0.04938311729
0.04929510315
0.04920906524
0.04912494954
0.04904270421
0.04896227966
0.04888362856
0.0488067057
0.0487314678
0.04865787337
0.04858588303
0.04851545989
0.04844657016
0.04837918349
0.04831327305
0.04824881542
0.0481857903
0.04812418062
0.04806397269
0.04800515651
0.04794772574
0.0478916773
0.04783701036
0.04778372534
0.04773182305
0.04768130439
0.04763217053
0.04758442311
0.04753806405
0.04749309479
0.04744951512
0.04740732215
0.04736650986
0.0473270697
0.04728899177
0.04725226601
0.04721688265
0.04718283161
0.04715010111
0.04711867609
0.04708853758
0.04705966326
0.04703202916
0.0470056117
0.04698038901
0.04695634096
0.04693344771
0.04691168752
0.04689103499
0.04687146041
0.0468529309
0.0468354126
0.04681887314
0.04680328325
0.0467886168
0.04677484936
0.04676195583
0.04674990841
0.04673867555
0.04672822254
0.04671851332
0.04670951287
0.04670118913
0.04669351379
0.04668646165
0.04668000889
0.046674131
0.04666880103
0.04666398899
0.04665966238
0.04665578775
0.04665233268
0.04664926747
0.04664656617
0.04664420652
0.04664216904
0.04664043554
0.04663898754
0.04663780505
0.04663686602
0.04663614638
0.04663562076
0.04663526357
0.0466350501
0.04663495745
0.04663496519
0.04663505561
0.04663521372
0.04663542689
0.04663568458
0.0466359779
0.04663629936
0.04663664258
0.04663700223
0.04663737388
0.04663775399
0.04663813984
0.0466385294
0.04663892129
0.04663931464
0.04663970893
0.04664010389
0.04664049941
0.04664089546
0.04664129203
0.04664168908
0.04664208659
0.0466424845
0.04664288275
0.04664328128
0.04664368005
0.04664407901
0.04664447815
0.04664487745
0.04664527692
0.04664567655
0.04664607637
0.04664647637
0.04664687656
0.04664727696
0.04664767757
0.04664807839
0.04664847941
0.04664888064
0.04664928207
0.04664968371
0.04665008555
0.04665048758
0.04665088982
0.04665129225
0.04665169488
0.04665209771
0.04665250073
0.04665290396
0.04665330738
0.046653711
0.04665411482
0.04665451884
0.04665492305
0.04665532747
0.04665573208
0.04665613689
0.0466565419
0.0466569471
0.04665735251
0.0466577581
0.0466581639
0.0466585699
0.04665897609
0.04665938247
0.04665978906
0.04666019584
0.04666060282
0.04666100999
0.04666141736
0.04666182493
0.04666223269
0.04666264066
0.04666304881
0.04666345717
0.04666386572
0.04666427446
0.04666468341
0.04666509255
0.04666550188
0.04666591141
0.04666632114
0.04666673107
0.04666714119
0.04666755151
0.04666796202
0.04666837273
0.04666878364
0.04666919474
0.04666960604
0.04667001754
0.04667042923
0.04667084112
0.04667125321
0.04667166549
0.04667207797
0.04667249065
0.04667290352
0.04667331659
0.04667372986
0.04667414332
0.04667455699
0.04667497084
0.0466753849
0.04667579915
0.0466762136
0.04667662825
0.04667704309
0.04667745814
0.04667787337
0.04667828881
0.04667870445
0.04667912028
0.04667953631
0.04667995254
0.04668036896
0.04668078559
0.04668120241
0.04668161943
0.04668203664
0.04668245406
0.04668287168
0.04668328949
0.0466837075
0.04668412571
0.04668454412
0.04668496273
0.04668538153
0.04668580054
0.04668621974
0.04668663915
0.04668705875
0.04668747855
0.04668789855
0.04668831875
0.04668873915
0.04668915975
0.04668958055
0.04669000155
0.04669042275
0.04669084415
0.04669126575
0.04669168755
0.04669210955
0.04669253175
0.04669295415
0.04669337676
0.04669379956
0.04669422256
0.04669464577
0.04669506918
0.04669549278
0.04669591659
0.0466963406
0.04669676482
0.04669718922
0.04669761385
0.04669803866
0.04669846369
0.0466988889
0.04669931434
0.04669973995
0.0467001658
0.04670059181
0.04670101807
0.04670144448
0.04670187115
0.04670229797
0.04670272505
0.04670315227
0.04670357976
0.04670400738
0.0467044353
0.0467048633
0.04670529165
0.04670572004
0.04670614882
0.0467065776
0.04670700681
0.04670743597
0.04670786562
0.04670829515
0.04670872526
0.04670915515
0.04670958572
0.04671001596
0.04671044702
0.04671087758
0.04671130914
0.04671174001
0.04671217209
0.04671260323
0.04671303588
0.04671346726
0.04671390049
0.04671433207
0.04671476594
0.04671519765
0.04671563222
0.046716064
0.04671649933
0.04671693109
0.04671736725
0.04671779891
0.04671823596
0.04671866744
0.04671910544
0.04671953668
0.04671997564
0.04672040665
0.04672084646
0.04672127745
0.04672171779
0.04672214937
0.04672258943
0.04672302312
0.04672346116
0.04672390045
0.04672433267
0.04672478559
0.04672520327
0.04672568835
0.04672606791
0.04672662818
0.04672687937
0.04672760408
0.04672699659
0.04672699659
0.04672699659
1
0.518765284
0.3274013645
0.2553470061
0.2178480389
0.1944029648
0.17821109
0.1663065163
0.1571574701
0.1498828953
0.1439380248
0.138968374
0.134734312
0.1310688762
0.1278527375
0.1249986679
0.1224415738
0.1201319309
0.1180313674
0.1161096386
0.1143425222
0.1127103305
0.1111968459
0.1097885454
0.1084740305
0.1072435999
0.106088926
0.1050028058
0.1039789671
0.1030119153
0.1020968115
0.1012293729
0.1004057931
0.09962267499
0.09887697589
0.09816596125
0.09748716573
0.09683836014
0.09621752328
0.09562281778
0.09505256933
0.09450524864
0.09397945583
0.09347390685
0.09298742152
0.0925189131
0.09206737912
0.09163189325
0.09121159808
0.09080569878
0.09041345742
0.09003418792
0.08966725154
0.08931205278
0.08896803577
0.08863468098
0.08831150226
0.08799804422
0.08769387983
0.08739860818
0.08711185247
0.08683325821
0.08656249157
0.08629923792
0.08604320049
0.0857940991
0.08555166895
0.08531565948
0.08508583345
0.08486196607
0.08464384429
0.084431266
0.08422403933
0.08402198186
0.08382491999
0.08363268838
0.08344512959
0.08326209369
0.08308343784
0.08290902576
0.08273872717
0.08257241739
0.08240997704
0.08225129201
0.08209625328
0.08194475664
0.08179670232
0.08165199445
0.08151054075
0.08137225247
0.08123704449
0.08110483549
0.08097554794
0.08084910779
0.08072544424
0.08060448973
0.08048618027
0.08037045624
0.08025726324
0.08014655255
0.08003828129
0.0799324121
0.0798289129
0.07972775688
0.07962892284
0.07953239554
0.07943816551
0.07934622824
0.07925658264
0.07916922933
0.07908416951
0.07900140447
0.07892093581
0.07884276567
0.07876689633
0.07869332886
0.07862206142
0.07855308764
0.07848639633
0.07842197238
0.07835979868
0.07829985778
0.07824213242
0.07818660439
0.07813325235
0.07808204968
0.07803296366
0.07798595667
0.07794098885
0.07789802116
0.07785701714
0.07781794266
0.07778076345
0.0777454419
0.07771193449
0.07768019128
0.07765015781
0.0776217787
0.07759500122
0.07756977746
0.07754606409
0.07752381988
0.07750300213
0.07748356371
0.07746545183
0.07744860922
0.07743297711
0.07741849882
0.0774051225
0.077392802
0.07738149567
0.07737116357
0.07736176427
0.07735325247
0.07734557829
0.07733868835
0.07733252833
0.07732704597
0.07732219357
0.07731792927
0.07731421683
0.07731102399
0.07730832019
0.07730607416
0.07730425221
0.0773028175
0.07730173032
0.07730094936
0.07730043334
0.07730014273
0.0773000412
0.07730009647
0.07730028069
0.07730057027
0.07730094544
0.07730138963
0.07730188892
0.07730243154
0.07730300757
0.07730360869
0.07730422806
0.07730486024
0.07730550104
0.07730614745
0.07730679737
0.07730744949
0.07730810306
0.07730875769
0.07730941323
0.07731006962
0.07731072682
0.07731138482
0.07731204353
0.07731270288
0.07731336277
0.07731402311
0.07731468383
0.07731534487
0.07731600619
0.07731666778
0.07731732965
0.0773179918
0.07731865425
0.07731931701
0.0773199801
0.07732064352
0.07732130729
0.0773219714
0.07732263585
0.07732330064
0.07732396576
0.07732463122
0.07732529701