# vtk DataFile Version 2.0
FlowField
ASCII
DATASET STRUCTURED_GRID
DIMENSIONS 400 1 200
POINTS 80000 float
0 0 0
0.08 0 0
0.16 0 0
0.24 0 0
0.32 0 0
0.4 0 0
0.48 0 0
0.56 0 0
0.64 0 0
0.72 0 0
0.8 0 0
0.88 0 0
0.96 0 0
1.04 0 0
1.12 0 0
1.2 0 0
1.28 0 0
1.36 0 0
1.44 0 0
1.52 0 0
1.6 0 0
1.68 0 0
1.76 0 0
1.84 0 0
1.92 0 0
2 0 0
2.08 0 0
2.16 0 0
2.24 0 0
2.32 0 0
2.4 0 0
2.48 0 0
2.56 0 0
2.64 0 0
2.72 0 0
2.8 0 0
2.88 0 0
2.96 0 0
3.04 0 0
3.12 0 0
3.2 0 0
3.28 0 0
3.36 0 0
3.44 0 0
3.52 0 0
3.6 0 0
3.68 0 0
3.76 0 0
3.84 0 0
3.92 0 0
4 0 0
4.08 0 0
4.16 0 0
4.24 0 0
4.32 0 0
4.4 0 0
4.48 0 0
4.56 0 0
4.64 0 0
4.72 0 0
4.8 0 0
4.88 0 0
4.96 0 0
5.04 0 0
5.12 0 0
5.2 0 0
5.28 0 0
5.36 0 0
5.44 0 0
5.52 0 0
5.6 0 0
5.68 0 0
5.76 0 0
5.84 0 0
5.92 0 0
6 0 0
6.08 0 0
6.16 0 0
6.24 0 0
6.32 0 0
6.4 0 0
6.48 0 0
6.56 0 0
6.64 0 0
6.72 0 0
6.8 0 0
6.88 0 0
6.96 0 0
7.04 0 0
7.12 0 0
7.2 0 0
7.28 0 0
7.36 0 0
7.44 0 0
7.52 0 0
7.6 0 0
7.68 0 0
7.76 0 0
7.84 0 0
7.92 0 0
8 0 0
8.08 0 0
8.16 0 0
8.24 0 0
8.32 0 0
8.4 0 0
8.48 0 0
8.56 0 0
8.64 0 0
8.72 0 0
8.8 0 0
8.88 0 0
8.96 0 0
9.04 0 0
9.12 0 0
9.2 0 0
9.28 0 0
9.36 0 0
9.44 0 0
9.52 0 0
9.6 0 0
9.68 0 0
9.76 0 0
9.84 0 0
9.92 0 0
10 0 0
10.08 0 0
10.16 0 0
10.24 0 0
10.32 0 0
10.4 0 0
10.48 0 0
10.56 0 0
10.64 0 0
10.72 0 0
10.8 0 0
10.88 0 0
10.96 0 0
11.04 0 0
11.12 0 0
11.2 0 0
11.28 0 0
11.36 0 0
11.44 0 0
11.52 0 0
11.6 0 0
11.68 0 0
11.76 0 0
11.84 0 0
11.92 0 0
12 0 0
12.08 0 0
12.16 0 0
12.24 0 0
12.32 0 0
12.4 0 0
12.48 0 0
12.56 0 0
12.64 0 0
12.72 0 0
12.8 0 0
12.88 0 0
12.96 0 0
13.04 0 0
13.12 0 0
13.2 0 0
13.28 0 0
13.36 0 0
13.44 0 0
13.52 0 0
13.6 0 0
13.68 0 0
13.76 0 0
13.84 0 0
13.92 0 0
14 0 0
14.08 0 0
14.16 0 0
14.24 0 0
14.32 0 0
14.4 0 0
14.48 0 0
14.56 0 0
14.64 0 0
14.72 0 0
14.8 0 0
14.88 0 0
14.96 0 0
15.04 0 0
15.12 0 0
15.2 0 0
15.28 0 0
15.36 0 0
15.44 0 0
15.52 0 0
15.6 0 0
15.68 0 0
15.76 0 0
15.84 0 0
15.92 0 0
16 0 0
16.08 0 0
16.16 0 0
16.24 0 0
16.32 0 0
16.4 0 0
16.48 0 0
16.56 0 0
16.64 0 0
16.72 0 0
16.8 0 0
16.88 0 0
16.96 0 0
17.04 0 0
17.12 0 0
17.2 0 0
17.28 0 0
17.36 0 0
17.44 0 0
17.52 0 0
17.6 0 0
17.68 0 0
17.76 0 0
17.84 0 0
17.92 0 0
18 0 0
18.08 0 0
18.16 0 0
18.24 0 0
18.32 0 0
18.4 0 0
18.48 0 0
18.56 0 0
18.64 0 0
18.72 0 0
18.8 0 0
18.88 0 0
18.96 0 0
19.04 0 0
19.12 0 0
19.2 0 0
19.28 0 0
19.36 0 0
19.44 0 0
19.52 0 0
19.6 0 0
19.68 0 0
19.76 0 0
19.84 0 0
19.92 0 0
20 0 0
20.08 0 0
20.16 0 0
20.24 0 0
20.32 0 0
20.4 0 0
20.48 0 0
20.56 0 0
20.64 0 0
20.72 0 0
20.8 0 0
20.88 0 0
20.96 0 0
21.04 0 0
21.12 0 0
21.2 0 0
21.28 0 0
21.36 0 0
21.44 0 0
21.52 0 0
21.6 0 0
21.68 0 0
21.76 0 0
21.84 0 0
21.92 0 0
22 0 0
22.08 0 0
22.16 0 0
22.24 0 0
22.32 0 0
22.4 0 0
22.48 0 0
22.56 0 0
22.64 0 0
22.72 0 0
22.8 0 0
22.88 0 0
22.96 0 0
23.04 0 0
23.12 0 0
23.2 0 0
23.28 0 0
23.36 0 0
23.44 0 0
23.52 0 0
23.6 0 0
23.68 0 0
23.76 0 0
23.84 0 0
23.92 0 0
24 0 0
24.08 0 0
24.16 0 0
24.24 0 0
24.32 0 0
24.4 0 0
24.48 0 0
24.56 0 0
24.64 0 0
24.72 0 0
24.8 0 0
24.88 0 0
24.96 0 0
25.04 0 0
25.12 0 0
25.2 0 0
25.28 0 0
25.36 0 0
25.44 0 0
25.52 0 0
25.6 0 0
25.68 0 0
25.76 0 0
25.84 0 0
25.92 0 0
26 0 0
26.08 0 0
26.16 0 0
26.24 0 0
26.32 0 0
26.4 0 0
26.48 0 0
26.56 0 0
26.64 0 0
26.72 0 0
26.8 0 0
26.88 0 0
26.96 0 0
27.04 0 0
27.12 0 0
27.2 0 0
27.28 0 0
27.36 0 0
27.44 0 0
27.52 0 0
27.6 0 0
27.68 0 0
27.76 0 0
27.84 0 0
27.92 0 0
28 0 0
28.08 0 0
28.16 0 0
28.24 0 0
28.32 0 0
28.4 0 0
28.48 0 0
28.56 0 0
28.64 0 0
28.72 0 0
28.8 0 0
28.88 0 0
28.96 0 0
29.04 0 0
29.12 0 0
29.2 0 0
29.28 0 0
29.36 0 0
29.44 0 0
29.52 0 0
29.6 0 0
29.68 0 0
29.76 0 0
29.84 0 0
29.92 0 0
30 0 0
30.08 0 0
30.16 0 0
30.24 0 0
30.32 0 0
30.4 0 0
30.48 0 0
30.56 0 0
30.64 0 0
30.72 0 0
30.8 0 0
30.88 0 0
30.96 0 0
31.04 0 0
31.12 0 0
31.2 0 0
31.28 0 0
31.36 0 0
31.44 0 0
31.52 0 0
31.6 0 0
31.68 0 0
31.76 0 0
31.84 0 0
31.92 0 0
0 0.005 0
0.08 0.005 0
0.16 0.005 0
0.24 0.005 0
0.32 0.005 0
0.4 0.005 0
0.48 0.005 0
0.56 0.005 0
0.64 0.005 0
0.72 0.005 0
0.8 0.005 0
0.88 0.005 0
0.96 0.005 0
1.04 0.005 0
1.12 0.005 0
1.2 0.005 0
1.28 0.005 0
1.36 0.005 0
1.44 0.005 0
1.52 0.005 0
1.6 0.005 0
1.68 0.005 0
1.76 0.005 0
1.84 0.005 0
1.92 0.005 0
2 0.005 0
2.08 0.005 0
2.16 0.005 0
2.24 0.005 0
2.32 0.005 0
2.4 0.005 0
2.48 0.005 0
2.56 0.005 0
2.64 0.005 0
2.72 0.005 0
2.8 0.005 0
2.88 0.005 0
2.96 0.005 0
3.04 0.005 0
3.12 0.005 0
3.2 0.005 0
3.28 0.005 0
3.36 0.005 0
3.44 0.005 0
3.52 0.005 0
3.6 0.005 0
3.68 0.005 0
3.76 0.005 0
3.84 0.005 0
3.92 0.005 0
4 0.005 0
4.08 0.005 0
4.16 0.005 0
4.24 0.005 0
4.32 0.005 0
4.4 0.005 0
4.48 0.005 0
4.56 0.005 0
4.64 0.005 0
4.72 0.005 0
4.8 0.005 0
4.88 0.005 0
4.96 0.005 0
5.04 0.005 0
5.12 0.005 0
5.2 0.005 0
5.28 0.005 0
5.36 0.005 0
5.44 0.005 0
5.52 0.005 0
5.6 0.005 0
5.68 0.005 0
5.76 0.005 0
5.84 0.005 0
5.92 0.005 0
6 0.005 0
6.08 0.005 0
6.16 0.005 0
6.24 0.005 0
6.32 0.005 0
6.4 0.005 0
6.48 0.005 0
6.56 0.005 0
6.64 0.005 0
6.72 0.005 0
6.8 0.005 0
6.88 0.005 0
6.96 0.005 0
7.04 0.005 0
7.12 0.005 0
7.2 0.005 0
7.28 0.005 0
7.36 0.005 0
7.44 0.005 0
7.52 0.005 0
7.6 0.005 0
7.68 0.005 0
7.76 0.005 0
7.84 0.005 0
7.92 0.005 0
8 0.005 0
8.08 0.005 0
8.16 0.005 0
8.24 0.005 0
8.32 0.005 0
8.4 0.005 0
8.48 0.005 0
8.56 0.005 0
8.64 0.005 0
8.72 0.005 0
8.8 0.005 0
8.88 0.005 0
8.96 0.005 0
9.04 0.005 0
9.12 0.005 0
9.2 0.005 0
9.28 0.005 0
9.36 0.005 0
9.44 0.005 0
9.52 0.005 0
9.6 0.005 0
9.68 0.005 0
9.76 0.005 0
9.84 0.005 0
9.92 0.005 0
10 0.005 0
10.08 0.005 0
10.16 0.005 0
10.24 0.005 0
10.32 0.005 0
10.4 0.005 0
10.48 0.005 0
10.56 0.005 0
10.64 0.005 0
10.72 0.005 0
10.8 0.005 0
10.88 0.005 0
10.96 0.005 0
11.04 0.005 0
11.12 0.005 0
11.2 0.005 0
11.28 0.005 0
11.36 0.005 0
11.44 0.005 0
11.52 0.005 0
11.6 0.005 0
11.68 0.005 0
11.76 0.005 0
11.84 0.005 0
11.92 0.005 0
12 0.005 0
12.08 0.005 0
12.16 0.005 0
12.24 0.005 0
12.32 0.005 0
12.4 0.005 0
12.48 0.005 0
12.56 0.005 0
12.64 0.005 0
12.72 0.005 0
12.8 0.005 0
12.88 0.005 0
12.96 0.005 0
13.04 0.005 0
13.12 0.005 0
13.2 0.005 0
13.28 0.005 0
13.36 0.005 0
13.44 0.005 0
13.52 0.005 0
13.6 0.005 0
13.68 0.005 0
13.76 0.005 0
13.84 0.005 0
13.92 0.005 0
14 0.005 0
14.08 0.005 0
14.16 0.005 0
14.24 0.005 0
14.32 0.005 0
14.4 0.005 0
14.48 0.005 0
14.56 0.005 0
14.64 0.005 0
14.72 0.005 0
14.8 0.005 0
14.88 0.005 0
14.96 0.005 0
15.04 0.005 0
15.12 0.005 0
15.2 0.005 0
15.28 0.005 0
15.36 0.005 0
15.44 0.005 0
15.52 0.005 0
15.6 0.005 0
15.68 0.005 0
15.76 0.005 0
15.84 0.005 0
15.92 0.005 0
16 0.005 0
16.08 0.005 0
16.16 0.005 0
16.24 0.005 0
16.32 0.005 0
16.4 0.005 0
16.48 0.005 0
16.56 0.005 0
16.64 0.005 0
16.72 0.005 0
16.8 0.005 0
16.88 0.005 0
16.96 0.005 0
17.04 0.005 0
17.12 0.005 0
17.2 0.005 0
17.28 0.005 0
17.36 0.005 0
17.44 0.005 0
17.52 0.005 0
17.6 0.005 0
17.68 0.005 0
17.76 0.005 0
17.84 0.005 0
17.92 0.005 0
18 0.005 0
18.08 0.005 0
18.16 0.005 0
18.24 0.005 0
18.32 0.005 0
18.4 0.005 0
18.48 0.005 0
18.56 0.005 0
18.64 0.005 0
18.72 0.005 0
18.8 0.005 0
18.88 0.005 0
18.96 0.005 0
19.04 0.005 0
19.12 0.005 0
19.2 0.005 0
19.28 0.005 0
19.36 0.005 0
19.44 0.005 0
19.52 0.005 0
19.6 0.005 0
19.68 0.005 0
19.76 0.005 0
19.84 0.005 0
19.92 0.005 0
20 0.005 0
20.08 0.005 0
20.16 0.005 0
20.24 0.005 0
20.32 0.005 0
20.4 0.005 0
20.48 0.005 0
20.56 0.005 0
20.64 0.005 0
20.72 0.005 0
20.8 0.005 0
20.88 0.005 0
20.96 0.005 0
21.04 0.005 0
21.12 0.005 0
21.2 0.005 0
21.28 0.005 0
21.36 0.005 0
21.44 0.005 0
21.52 0.005 0
21.6 0.005 0
21.68 0.005 0
21.76 0.005 0
21.84 0.005 0
21.92 0.005 0
22 0.005 0
22.08 0.005 0
22.16 0.005 0
22.24 0.005 0
22.32 0.005 0
22.4 0.005 0
22.48 0.005 0
22.56 0.005 0
22.64 0.005 0
22.72 0.005 0
22.8 0.005 0
22.88 0.005 0
22.96 0.005 0
23.04 0.005 0
23.12 0.005 0
23.2 0.005 0
23.28 0.005 0
23.36 0.005 0
23.44 0.005 0
23.52 0.005 0
23.6 0.005 0
23.68 0.005 0
23.76 0.005 0
23.84 0.005 0
23.92 0.005 0
24 0.005 0
24.08 0.005 0
24.16 0.005 0
24.24 0.005 0
24.32 0.005 0
24.4 0.005 0
24.48 0.005 0
24.56 0.005 0
24.64 0.005 0
24.72 0.005 0
24.8 0.005 0
24.88 0.005 0
24.96 0.005 0
25.04 0.005 0
25.12 0.005 0
25.2 0.005 0
25.28 0.005 0
25.36 0.005 0
25.44 0.005 0
25.52 0.005 0
25.6 0.005 0
25.68 0.005 0
25.76 0.005 0
25.84 0.005 0
25.92 0.005 0
26 0.005 0
26.08 0.005 0
26.16 0.005 0
26.24 0.005 0
26.32 0.005 0
26.4 0.005 0
26.48 0.005 0
26.56 0.005 0
26.64 0.005 0
26.72 0.005 0
26.8 0.005 0
26.88 0.005 0
26.96 0.005 0
27.04 0.005 0
27.12 0.005 0
27.2 0.005 0
27.28 0.005 0
27.36 0.005 0
27.44 0.005 0
27.52 0.005 0
27.6 0.005 0
27.68 0.005 0
27.76 0.005 0
27.84 0.005 0
27.92 0.005 0
28 0.005 0
28.08 0.005 0
28.16 0.005 0
28.24 0.005 0
28.32 0.005 0
28.4 0.005 0
28.48 0.005 0
28.56 0.005 0
28.64 0.005 0
28.72 0.005 0
28.8 0.005 0
28.88 0.005 0
28.96 0.005 0
29.04 0.005 0
29.12 0.005 0
29.2 0.005 0
29.28 0.005 0
29.36 0.005 0
29.44 0.005 0
29.52 0.005 0
29.6 0.005 0
29.68 0.005 0
29.76 0.005 0
29.84 0.005 0
29.92 0.005 0
30 0.005 0
30.08 0.005 0
30.16 0.005 0
30.24 0.005 0
30.32 0.005 0
30.4 0.005 0
30.48 0.005 0
30.56 0.005 0
30.64 0.005 0
30.72 0.005 0
30.8 0.005 0
30.88 0.005 0
30.96 0.005 0
31.04 0.005 0
31.12 0.005 0
31.2 0.005 0
31.28 0.005 0
31.36 0.005 0
31.44 0.005 0
31.52 0.005 0
31.6 0.005 0
31.68 0.005 0
31.76 0.005 0
31.84 0.005 0
31.92 0.005 0
0 0.01 0
0.08 0.01 0
0.16 0.01 0
0.24 0.01 0
0.32 0.01 0
0.4 0.01 0
0.48 0.01 0
0.56 0.01 0
0.64 0.01 0
0.72 0.01 0
0.8 0.01 0
0.88 0.01 0
0.96 0.01 0
1.04 0.01 0
1.12 0.01 0
1.2 0.01 0
1.28 0.01 0
1.36 0.01 0
1.44 0.01 0
1.52 0.01 0
1.6 0.01 0
1.68 0.01 0
1.76 0.01 0
1.84 0.01 0
1.92 0.01 0
2 0.01 0
2.08 0.01 0
2.16 0.01 0
2.24 0.01 0
2.32 0.01 0
2.4 0.01 0
2.48 0.01 0
2.56 0.01 0
2.64 0.01 0
2.72 0.01 0
2.8 0.01 0
2.88 0.01 0
2.96 0.01 0
3.04 0.01 0
3.12 0.01 0
3.2 0.01 0
3.28 0.01 0
3.36 0.01 0
3.44 0.01 0
3.52 0.01 0
3.6 0.01 0
3.68 0.01 0
3.76 0.01 0
3.84 0.01 0
3.92 0.01 0
4 0.01 0
4.08 0.01 0
4.16 0.01 0
4.24 0.01 0
4.32 0.01 0
4.4 0.01 0
4.48 0.01 0
4.56 0.01 0
4.64 0.01 0
4.72 0.01 0
4.8 0.01 0
4.88 0.01 0
4.96 0.01 0
5.04 0.01 0
5.12 0.01 0
[...]
POINT_DATA 80000

SCALARS u float 1
LOOKUP_TABLE default
0
-0.1316625603
-0.06826903997
-0.05229576402
-0.04441959975
-0.03957645911
-0.03625933714
-0.03383227008
-0.03197226591
-0.03049556406
-0.02928947276
-0.02828115145
-0.02742163742
-0.02667697872
-0.02602300564
-0.02544210592
-0.02492116702
-0.02445022799
-0.02402157726
-0.02362913758
-0.02326804004
-0.02293432432
-0.02262472461
-0.02233651456
-0.02206739309
-0.02181539924
-0.02157884757
-0.02135627855
-0.02114641983
-0.02094815574
-0.02076050279
-0.02058258991
-0.02041364228
-0.02025296803
-0.02009994708
-0.01995402189
-0.01981468958
-0.01968149526
-0.01955402634
-0.01943190763
-0.01931479713
-0.01920238241
-0.01909437738
-0.01899051959
-0.01889056776
-0.01879429967
-0.01870151031
-0.01861201019
-0.01852562393
-0.01844218889
-0.01836155409
-0.01828357912
-0.01820813325
-0.01813509458
-0.01806434932
-0.01799579112
-0.01792932044
-0.01786484404
-0.01780227447
-0.01774152961
-0.0176825323
-0.01762520994
-0.01756949414
-0.01751532046
-0.0174626281
-0.01741135962
-0.01736146077
-0.0173128802
-0.01726556929
-0.01721948199
-0.01717457462
-0.01713080573
-0.01708813593
-0.0170465278
-0.01700594574
-0.01696635585
-0.01692772584
-0.01689002494
-0.01685322376
-0.01681729429
-0.01678220971
-0.01674794444
-0.01671447398
-0.01668177486
-0.01664982463
-0.01661860175
-0.01658808557
-0.01655825627
-0.01652909481
-0.01650058289
-0.01647270294
-0.01644543802
-0.01641877184
-0.01639268872
-0.01636717354
-0.01634221171
-0.01631778916
-0.01629389233
-0.01627050808
-0.01624762376
-0.0162252271
-0.01620330626
-0.01618184976
-0.01616084651
-0.01614028575
-0.01612015706
-0.01610045033
-0.01608115577
-0.01606226387
-0.0160437654
-0.01602565139
-0.01600791315
-0.01599054222
-0.01597353037
-0.01595686962
-0.01594055217
-0.01592457046
-0.01590891713
-0.01589358501
-0.01587856711
-0.01586385662
-0.01584944691
-0.01583533153
-0.01582150416
-0.01580795867
-0.01579468906
-0.01578168948
-0.01576895423
-0.01575647774
-0.01574425456
-0.0157322794
-0.01572054706
-0.01570905248
-0.01569779071
-0.01568675693
-0.0156759464
-0.0156653545
-0.01565497674
-0.01564480869
-0.01563484603
-0.01562508456
-0.01561552014
-0.01560614874
-0.01559696641
-0.01558796928
-0.01557915359
-0.01557051563
-0.01556205179
-0.01555375852
-0.01554563236
-0.01553766991
-0.01552986786
-0.01552222296
-0.01551473202
-0.01550739192
-0.01550019962
-0.01549315213
-0.01548624652
-0.01547947993
-0.01547284956
-0.01546635265
-0.01545998651
-0.01545374852
-0.01544763608
-0.01544164667
-0.01543577782
-0.01543002709
-0.01542439211
-0.01541887055
-0.01541346013
-0.01540815861
-0.01540296381
-0.01539787358
-0.01539288582
-0.01538799846
-0.0153832095
-0.01537851696
-0.01537391889
-0.0153694134
-0.01536499863
-0.01536067277
-0.01535643401
-0.01535228062
-0.01534821088
-0.01534422311
-0.01534031566
-0.01533648692
-0.01533273531
-0.01532905928
-0.01532545732
-0.01532192793
-0.01531846966
-0.01531508108
-0.01531176079
-0.01530850741
-0.01530531962
-0.01530219607
-0.0152991355
-0.01529613663
-0.01529319821
-0.01529031905
-0.01528749794
-0.01528473372
-0.01528202525
-0.0152793714
-0.01527677108
-0.01527422322
-0.01527172675
-0.01526928064
-0.01526688389
-0.0152645355
-0.01526223449
-0.01525997991
-0.01525777084
-0.01525560635
-0.01525348555
-0.01525140755
-0.01524937151
-0.01524737656
-0.01524542189
-0.01524350669
-0.01524163016
-0.01523979152
-0.01523799
-0.01523622487
-0.01523449539
-0.01523280084
-0.01523114051
-0.01522951372
-0.0152279198
-0.01522635807
-0.0152248279
-0.01522332863
-0.01522185966
-0.01522042038
-0.01521901017
-0.01521762846
-0.01521627468
-0.01521494825
-0.01521364863
-0.01521237527
-0.01521112765
-0.01520990525
-0.01520870756
-0.01520753408
-0.01520638432
-0.01520525781
-0.01520415407
-0.01520307264
-0.01520201308
-0.01520097495
-0.0151999578
-0.01519896123
-0.0151979848
-0.01519702812
-0.01519609079
-0.01519517242
-0.01519427261
-0.01519339101
-0.01519252724
-0.01519168095
-0.01519085177
-0.01519003936
-0.01518924339
-0.01518846353
-0.01518769944
-0.01518695081
-0.01518621732
-0.01518549868
-0.01518479458
-0.01518410473
-0.01518342883
-0.01518276661
-0.01518211779
-0.01518148211
-0.01518085928
-0.01518024906
-0.01517965119
-0.01517906541
-0.01517849149
-0.01517792918
-0.01517737825
-0.01517683846
-0.0151763096
-0.01517579143
-0.01517528374
-0.01517478633
-0.01517429897
-0.01517382147
-0.01517335363
-0.01517289524
-0.01517244612
-0.01517200609
-0.01517157495
-0.01517115252
-0.01517073864
-0.01517033313
-0.01516993581
-0.01516954654
-0.01516916514
-0.01516879146
-0.01516842535
-0.01516806666
-0.01516771525
-0.01516737097
-0.01516703368
-0.01516670327
-0.01516637959
-0.01516606252
-0.01516575194
-0.01516544773
-0.01516514978
-0.01516485799
-0.01516457223
-0.01516429242
-0.01516401845
-0.01516375023
-0.01516348766
-0.01516323066
-0.01516297915
-0.01516273304
-0.01516249226
-0.01516225673
-0.01516202638
-0.01516180114
-0.01516158094
-0.01516136573
-0.01516115543
-0.01516095
-0.01516074938
-0.01516055351
-0.01516036234
-0.01516017582
-0.0151599939
-0.01515981653
-0.01515964367
-0.01515947527
-0.01515931128
-0.01515915166
-0.01515899636
-0.01515884535
-0.01515869858
-0.01515855599
-0.01515841756
-0.01515828322
-0.01515815295
-0.01515802668
-0.01515790437
-0.01515778598
-0.01515767145
-0.01515756073
-0.01515745377
-0.01515735052
-0.01515725092
-0.01515715492
-0.01515706245
-0.01515697346
-0.01515688789
-0.01515680567
-0.01515672675
-0.01515665105
-0.01515657851
-0.01515650907
-0.01515644265
-0.01515637919
-0.01515631861
-0.01515626084
-0.01515620582
-0.01515615345
-0.01515610369
-0.01515605643
-0.01515601162
-0.01515596916
-0.01515592901
-0.01515589106
-0.01515585525
-0.01515582149
-0.01515578973
-0.01515575986
-0.01515573184
-0.01515570558
-0.015155681
-0.01515565804
-0.01515563662
-0.0151556167
-0.01515559815
-0.01515558101
-0.01515556508
-0.01515555053
-0.015155537
-0.01515552494
-0.01515551369
-0.01515550425
-0.01515549538
-0.0151554892
-0.01515548319
-0.01515548171
-0.01515547779
-0.01515547779
-0.01515547779
1
0.1316625603
0.06826903997
0.05229576402
0.04441959975
0.03957645911
0.03625933714
0.03383227008
0.03197226591
0.03049556406
0.02928947276
0.02828115145
0.02742163742
0.02667697872
0.02602300564
0.02544210592
0.02492116702
0.02445022799
0.02402157726
0.02362913758
0.02326804004
0.02293432432
0.02262472461
0.02233651456
0.02206739309
0.02181539924
0.02157884757
0.02135627855
0.02114641983
0.02094815574
0.02076050279
0.02058258991
0.02041364228
0.02025296803
0.02009994708
0.01995402189
0.01981468958
0.01968149526
0.01955402634
0.01943190763
0.01931479713
0.01920238241
0.01909437738
0.01899051959
0.01889056776
0.01879429967
0.01870151031
0.01861201019
0.01852562393
0.01844218889
0.01836155409
0.01828357912
0.01820813325
0.01813509458
0.01806434932
0.01799579112
0.01792932044
0.01786484404
0.01780227447
0.01774152961
0.0176825323
0.01762520994
0.01756949414
0.01751532046
0.0174626281
0.01741135962
0.01736146077
0.0173128802
0.01726556929
0.01721948199
0.01717457462
0.01713080573
0.01708813593
0.0170465278
0.01700594574
0.01696635585
0.01692772584
0.01689002494
0.01685322376
0.01681729429
0.01678220971
0.01674794444
0.01671447398
0.01668177486
0.01664982463
0.01661860175
0.01658808557
0.01655825627
0.01652909481
0.01650058289
0.01647270294
0.01644543802
0.01641877184
0.01639268872
0.01636717354
0.01634221171
0.01631778916
0.01629389233
0.01627050808
0.01624762376
0.0162252271
0.01620330626
0.01618184976
0.01616084651
0.01614028575
0.01612015706
0.01610045033
0.01608115577
0.01606226387
0.0160437654
0.01602565139
0.01600791315
0.01599054222
0.01597353037
0.01595686962
0.01594055217
0.01592457046
0.01590891713
0.01589358501
0.01587856711
0.01586385662
0.01584944691
0.01583533153
0.01582150416
0.01580795867
0.01579468906
0.01578168948
0.01576895423
0.01575647774
0.01574425456
0.0157322794
0.01572054706
0.01570905248
0.01569779071
0.01568675693
0.0156759464
0.0156653545
0.01565497674
0.01564480869
0.01563484603
0.01562508456
0.01561552014
0.01560614874
0.01559696641
0.01558796928
0.01557915359
0.01557051563
0.01556205179
0.01555375852
0.01554563236
0.01553766991
0.01552986786
0.01552222296
0.01551473202
0.01550739192
0.01550019962
0.01549315213
0.01548624652
0.01547947993
0.01547284956
0.01546635265
0.01545998651
0.01545374852
0.01544763608
0.01544164667
0.01543577782
0.01543002709
0.01542439211
0.01541887055
0.01541346013
0.01540815861
0.01540296381
0.01539787358
0.01539288582
0.01538799846
0.0153832095
0.01537851696
0.01537391889
0.0153694134
0.01536499863
0.01536067277
0.01535643401
0.01535228062
0.01534821088
0.01534422311
0.01534031566
0.01533648692
0.01533273531
0.01532905928
0.01532545732
0.01532192793
0.01531846966
0.01531508108
0.01531176079
0.01530850741
0.01530531962
0.01530219607
0.0152991355
0.01529613663
0.01529319821
0.01529031905
0.01528749794
0.01528473372
0.01528202525
0.0152793714
0.01527677108
0.01527422322
0.01527172675
0.01526928064
0.01526688389
0.0152645355
0.01526223449
0.01525997991
0.01525777084
0.01525560635
0.01525348555
0.01525140755
0.01524937151
0.01524737656
0.01524542189
0.01524350669
0.01524163016
0.01523979152
0.01523799
0.01523622487
0.01523449539
0.01523280084
0.01523114051
0.01522951372
0.0152279198
0.01522635807
0.0152248279
0.01522332863
0.01522185966
0.01522042038
0.01521901017
0.01521762846
0.01521627468
0.01521494825
0.01521364863
0.01521237527
0.01521112765
0.01520990525
0.01520870756
0.01520753408
0.01520638432
0.01520525781
0.01520415407
0.01520307264
0.01520201308
0.01520097495
0.0151999578
0.01519896123
0.0151979848
0.01519702812
0.01519609079
0.01519517242
0.01519427261
0.01519339101
0.01519252724
0.01519168095
0.01519085177
0.01519003936
0.01518924339
0.01518846353
0.01518769944
0.01518695081
0.01518621732
0.01518549868
0.01518479458
0.01518410473
0.01518342883
0.01518276661
0.01518211779
0.01518148211
0.01518085928
0.01518024906
0.01517965119
0.01517906541
0.01517849149
0.01517792918
0.01517737825
0.01517683846
0.0151763096
0.01517579143
0.01517528374
0.01517478633
0.01517429897
0.01517382147
0.01517335363
0.01517289524
0.01517244612
0.01517200609
0.01517157495
0.01517115252
0.01517073864
0.01517033313
0.01516993581
0.01516954654
0.01516916514
0.01516879146
0.01516842535
0.01516806666
0.01516771525
0.01516737097
0.01516703368
0.01516670327
0.01516637959
0.01516606252
0.01516575194
0.01516544773
0.01516514978
0.01516485799
0.01516457223
0.01516429242
0.01516401845
0.01516375023
0.01516348766
0.01516323066
0.01516297915
0.01516273304
0.01516249226
0.01516225673
0.01516202638
0.01516180114
0.01516158094
0.01516136573
0.01516115543
0.01516095
0.01516074938
0.01516055351
0.01516036234
0.01516017582
0.0151599939
0.01515981653
0.01515964367
0.01515947527
0.01515931128
0.01515915166
0.01515899636
0.01515884535
0.01515869858
0.01515855599
0.01515841756
0.01515828322
0.01515815295
0.01515802668
0.01515790437
0.01515778598
0.01515767145
0.01515756073
0.01515745377
0.01515735052
0.01515725092
0.01515715492
0.01515706245
0.01515697346
0.01515688789
0.01515680567
0.01515672675
0.01515665105
0.01515657851
0.01515650907
0.01515644265
0.01515637919
0.01515631861
0.01515626084
0.01515620582
0.01515615345
0.01515610369
0.01515605643
0.01515601162
0.01515596916
0.01515592901
0.01515589106
0.01515585525
0.01515582149
0.01515578973
0.01515575986
0.01515573184
0.01515570558
0.015155681
0.01515565804
0.01515563662
0.0151556167
0.01515559815
0.01515558101
0.01515556508
0.01515555053
0.015155537
0.01515552494
0.01515551369
0.01515550425
0.01515549538
0.0151554892
0.01515548319
0.01515548171
0.01515547779
0.01515547779
0.01515547779
1
0.344883649
0.2006672451
0.1549666287
0.131893866
0.1175978184
0.1077670836
0.1005571192
0.09502405141
0.09062809823
0.08703689947
0.08403490106
0.08147678816
0.07926154477
0.07731711025
0.07559088799
0.07404367166
0.07264565482
0.07137375274
0.07020977243
0.06913914164
0.0681500129
0.06723262242
0.06637882483
0.06558175049
0.0648355494
0.06413519717
0.06347634573
0.06285520709
0.06226846147
0.06171318393
0.06118678506
0.06068696253
0.06021166113
0.05975903959
0.05932744276
0.05891537813
0.05852149593
0.05814457216
0.05778349398
0.05743724717
0.05710490528
0.05678562015
0.05647861375
0.05618317092
0.05589863306
0.05562439262
0.05535988812
0.05510459988
0.05485804609
0.05461977941
0.05438938394
0.05416647241
0.05395068378
0.05374168103
0.05353914916
0.05334279341
0.05315233765
0.05296752289
0.05278810602
0.0526138585
0.05244456539
0.05228002422
0.0521200442
0.05196444528
0.05181305748
0.0516657201
0.05152228117
0.05138259678
0.05124653058
0.05111395327
0.05098474213
0.05085878061
0.05073595793
0.05061616869
0.05049931257
0.05038529401
0.05027402188
0.05016540927
0.05005937319
0.04995583437
0.049854717
0.04975594861
0.04965945977
0.049565184
0.04947305758
0.04938301938
0.04929501075
0.04920897536
0.04912485907
0.04904260983
0.04896217757
0.0488835141
0.04880657299
0.04873130949
0.04865768047
0.04858564431
0.04851516083
0.04844619123
0.04837869803
0.04831264497
0.048247997
0.0481847202
0.04812278172
0.04806214976
0.04800279348
0.04794468302
0.04788778938
0.04783208446
0.04777754095
0.04772413238
0.04767183298
0.04762061776
0.0475704624
0.04752134327
0.04747323736
0.04742612231
0.04737997634
0.04733477825
0.04729050739
0.04724714366
0.04720466744
0.04716305964
0.04712230164
0.04708237527
0.04704326283
0.04700494704
0.04696741103
0.04693063835
0.04689461293
0.04685931909
0.04682474152
0.04679086524
0.04675767566
0.04672515848
0.04669329976
0.04666208587
0.04663150346
0.04660153952
0.04657218129
0.04654341634
0.04651523246
0.04648761775
0.04646056055
0.04643404946
0.04640807332
0.04638262122
0.04635768247
0.04633324664
0.04630930347
0.04628584297
0.04626285534
0.04624033097
0.04621826048
0.04619663467
0.04617544454
0.04615468128
0.04613433625
0.04611440099
0.04609486725
0.04607572689
0.046056972
0.04603859479
0.04602058764
0.04600294311
0.04598565387
0.04596871277
0.04595211281
0.04593584711
0.04591990894
0.04590429172
0.04588898898
0.04587399441
0.04585930179
0.04584490507
0.04583079828
0.0458169756
0.04580343133
0.04579015985
0.0457771557
0.04576441349
0.04575192797
0.04573969397
0.04572770644
0.04571596042
0.04570445107
0.04569317363
0.04568212344
0.04567129593
0.04566068663
0.04565029116
0.04564010521
0.04563012458
0.04562034514
0.04561076284
0.04560137374
0.04559217393
0.04558315963
0.0455743271
0.04556567268
0.0455571928
0.04554888395
0.04554074269
0.04553276565
0.04552494952
0.04551729108
0.04550978715
0.04550243463
0.04549523047
0.04548817168
0.04548125534
0.04547447859
0.04546783861
0.04546133266
0.04545495803
0.04544871209
0.04544259225
0.04543659596
0.04543072074
0.04542496415
0.04541932381
0.04541379737
0.04540838253
0.04540307706
0.04539787874
0.04539278543
0.045387795
0.04538290538
0.04537811453
0.04537342048
0.04536882127
0.04536431498
0.04535989974
0.04535557372
0.04535133513
0.04534718218
0.04534311317
0.04533912639
0.04533522019
0.04533139294
0.04532764306
0.04532396897
0.04532036915
0.0453168421
0.04531338636
0.04531000048
0.04530668306
0.04530343271
0.04530024808
0.04529712785
0.04529407071
0.04529107539
0.04528814064
0.04528526525
0.04528244801
0.04527968774
0.04527698331
0.04527433357
0.04527173743
0.04526919381
0.04526670164
0.04526425989
0.04526186754
0.04525952358
0.04525722705
0.04525497698
0.04525277244
0.04525061251
0.04524849628
0.04524642287
0.04524439142
0.04524240108
0.04524045102
0.04523854042
0.04523666848
0.04523483442
0.04523303748
0.0452312769
0.04522955195
0.0452278619
0.04522620605
0.04522458371
0.04522299419
0.04522143683
0.04521991097
0.04521841598
0.04521695123
0.0452155161
0.04521411
0.04521273234
0.04521138254
0.04521006003
0.04520876426
0.04520749469
0.0452062508
0.04520503207
0.04520383798
0.04520266806
0.04520152181
0.04520039876
0.04519929847
0.04519822047
0.04519716434
0.04519612966
0.045195116
0.04519412297
0.04519315018
0.04519219725
0.04519126381
0.04519034952
0.04518945403
0.04518857701
0.04518771813
0.04518687708
0.04518605358
0.04518524733
0.04518445804
0.04518368547
0.04518292935
0.04518218943
0.04518146548
0.04518075728
0.04518006459
0.04517938722
0.04517872497
0.04517807764
0.04517744505
0.04517682701
0.04517622337
0.04517563394
0.04517505859
0.04517449714
0.04517394946
0.04517341539
0.04517289479
0.04517238753
0.04517189347
0.04517141248
0.04517094442
0.04517048916
0.04517004656
0.0451696165
0.04516919883
0.04516879344
0.04516840017
0.0451680189
0.04516764947
0.04516729175
0.04516694559
0.04516661083
0.04516628733
0.04516597493
0.04516567346
0.04516538276
0.04516510266
0.04516483299
0.04516457356
0.04516432419
0.0451640847
0.04516385489
0.04516363458
0.04516342356
0.04516322162
0.04516302857
0.04516284419
0.04516266828
0.04516250061
0.04516234097
0.04516218913
0.0451620449
0.04516190801
0.04516177827
0.04516165543
0.0451615393
0.0451614296
0.04516132617
0.04516122871
0.04516113706
0.04516105095
0.04516097021
0.04516089457
0.04516082384
0.04516075782
0.04516069625
0.04516063904
0.04516058582
0.04516053668
0.04516049104
0.04516044939
0.04516041068
0.0451603762
0.04516034408
0.04516031708
0.04516029181
0.04516027401
0.04516025695
0.0451602523
0.04516024156
0.04516024156
0.04516024156
1
0.5187651864
0.3274011942
0.2553467802
0.2178477667
0.1944026521
0.1782107406
0.1663061334
0.157157056
0.1498824521
0.1439375542
0.1389678775
0.1347337908
0.1310683316
0.1278521705
0.1249980795
0.1224409649
0.1201313024
0.11803072
0.116108973
0.1143418391
0.1127096306
0.1111961298
0.1097878137
0.1084732839
0.1072428389
0.1060881511
0.1050020176
0.1039781662
0.1030111023
0.1020959869
0.1012285373
0.1004049471
0.09962181911
0.09887611076
0.09816508749
0.09748628396
0.096837471
0.09621662744
0.09562191595
0.09505166221
0.09450433698
0.09397854042
0.09347298848
0.09298650103
0.09251799138
0.09206645707
0.09163097181
0.09121067824
0.09080478155
0.09041254389
0.09003327918
0.08966634872
0.08931115704
0.0889671483
0.08863380302
0.0883106351
0.08799718918
0.08769303822
0.08739778129
0.0871110416
0.08683246468
0.08656171676
0.08629848321
0.08604246721
0.08579338848
0.08555098211
0.08531499752
0.08508519747
0.08486135717
0.08464326345
0.08443071402
0.08422351674
0.08402148896
0.08382445696
0.08363225536
0.08344472662
0.08326172054
0.08308309385
0.08290870974
0.08273843756
0.08257215236
0.08240973464
0.08225107
0.08209604886
0.08194456618
0.08179652123
0.08165181732
0.08151036159
0.08137206485
0.0812368413
0.08110460843
0.08097528679
0.08084879989
0.08072507398
0.08060403798
0.08048562331
0.08036976374
0.08025639536
0.08014545639
0.08003688709
0.07993062972
0.07982662837
0.07972482893
0.079625179
0.07952762779
0.07943212607
0.0793386261
0.07924708157
0.07915744751
0.07906968028
0.07898373749
0.07889957793
0.07881716156
0.07873644945
0.07865740373
0.07857998756
0.07850416507
0.07842990134
0.07835716239
0.07828591509
0.07821612717
0.07814776718
0.07808080446
0.07801520911
0.07795095198
0.07788800461
0.07782633925
0.0777659288
0.07770674684
0.07764876754
0.07759196569
0.07753631667
0.07748179642
0.07742838146
0.07737604881
0.07732477604
0.07727454121
0.07722532289
0.07717710011
0.07712985238
0.07708355964
0.07703820231
0.07699376119
0.07695021754
0.076907553
0.07686574962
0.07682478983
0.07678465644
0.07674533262
0.0767068019
0.07666904817
0.07663205565
0.07659580889
0.07656029276
0.07652549247
0.07649139353
0.07645798172
0.07642524317
0.07639316425
0.07636173164
0.07633093229
0.07630075341
0.07627118248
0.07624220724
0.07621381567
0.07618599601
0.07615873674
0.07613202656
0.07610585441
0.07608020946
0.0760550811
0.07603045892
0.07600633274
0.07598269257
0.07595952865
0.07593683139
0.07591459139
0.07589279948
0.07587144662
0.075850524
0.07583002297
0.07580993504
0.07579025191
0.07577096545
0.07575206768
0.07573355078
0.0757154071
0.07569762914
0.07568020953
0.07566314109
0.07564641675
0.0756300296
0.07561397284
0.07559823985
0.07558282412
0.07556771925
0.07555291901
0.07553841727
0.07552420803
0.0755102854
0.07549664363
0.07548327705
0.07547018015
0.07545734749
0.07544477376
0.07543245375
0.07542038236
0.07540855458
0.07539696552
0.07538561036