# vtk DataFile Version 2.0
FlowField
ASCII
DATASET STRUCTURED_GRID
DIMENSIONS 400 1 200
POINTS 80000 float
0 0 0
0.08 0 0
0.16 0 0
0.24 0 0
0.32 0 0
0.4 0 0
0.48 0 0
0.56 0 0
0.64 0 0
0.72 0 0
0.8 0 0
0.88 0 0
0.96 0 0
1.04 0 0
1.12 0 0
1.2 0 0
1.28 0 0
1.36 0 0
1.44 0 0
1.52 0 0
1.6 0 0
1.68 0 0
1.76 0 0
1.84 0 0
1.92 0 0
2 0 0
2.08 0 0
2.16 0 0
2.24 0 0
2.32 0 0
2.4 0 0
2.48 0 0
2.56 0 0
2.64 0 0
2.72 0 0
2.8 0 0
2.88 0 0
2.96 0 0
3.04 0 0
3.12 0 0
3.2 0 0
3.28 0 0
3.36 0 0
3.44 0 0
3.52 0 0
3.6 0 0
3.68 0 0
3.76 0 0
3.84 0 0
3.92 0 0
4 0 0
4.08 0 0
4.16 0 0
4.24 0 0
4.32 0 0
4.4 0 0
4.48 0 0
4.56 0 0
4.64 0 0
4.72 0 0
4.8 0 0
4.88 0 0
4.96 0 0
5.04 0 0
5.12 0 0
5.2 0 0
5.28 0 0
5.36 0 0
5.44 0 0
5.52 0 0
5.6 0 0
5.68 0 0
5.76 0 0
5.84 0 0
5.92 0 0
6 0 0
6.08 0 0
6.16 0 0
6.24 0 0
6.32 0 0
6.4 0 0
6.48 0 0
6.56 0 0
6.64 0 0
6.72 0 0
6.8 0 0
6.88 0 0
6.96 0 0
7.04 0 0
7.12 0 0
7.2 0 0
7.28 0 0
7.36 0 0
7.44 0 0
7.52 0 0
7.6 0 0
7.68 0 0
7.76 0 0
7.84 0 0
7.92 0 0
8 0 0
8.08 0 0
8.16 0 0
8.24 0 0
8.32 0 0
8.4 0 0
8.48 0 0
8.56 0 0
8.64 0 0
8.72 0 0
8.8 0 0
8.88 0 0
8.96 0 0
9.04 0 0
9.12 0 0
9.2 0 0
9.28 0 0
9.36 0 0
9.44 0 0
9.52 0 0
9.6 0 0
9.68 0 0
9.76 0 0
9.84 0 0
9.92 0 0
10 0 0
10.08 0 0
10.16 0 0
10.24 0 0
10.32 0 0
10.4 0 0
10.48 0 0
10.56 0 0
10.64 0 0
10.72 0 0
10.8 0 0
10.88 0 0
10.96 0 0
11.04 0 0
11.12 0 0
11.2 0 0
11.28 0 0
11.36 0 0
11.44 0 0
11.52 0 0
11.6 0 0
11.68 0 0
11.76 0 0
11.84 0 0
11.92 0 0
12 0 0
12.08 0 0
12.16 0 0
12.24 0 0
12.32 0 0
12.4 0 0
12.48 0 0
12.56 0 0
12.64 0 0
12.72 0 0
12.8 0 0
12.88 0 0
12.96 0 0
13.04 0 0
13.12 0 0
13.2 0 0
13.28 0 0
13.36 0 0
13.44 0 0
13.52 0 0
13.6 0 0
13.68 0 0
13.76 0 0
13.84 0 0
13.92 0 0
14 0 0
14.08 0 0
14.16 0 0
14.24 0 0
14.32 0 0
14.4 0 0
14.48 0 0
14.56 0 0
14.64 0 0
14.72 0 0
14.8 0 0
14.88 0 0
14.96 0 0
15.04 0 0
15.12 0 0
15.2 0 0
15.28 0 0
15.36 0 0
15.44 0 0
15.52 0 0
15.6 0 0
15.68 0 0
15.76 0 0
15.84 0 0
15.92 0 0
16 0 0
16.08 0 0
16.16 0 0
16.24 0 0
16.32 0 0
16.4 0 0
16.48 0 0
16.56 0 0
16.64 0 0
16.72 0 0
16.8 0 0
16.88 0 0
16.96 0 0
17.04 0 0
17.12 0 0
17.2 0 0
17.28 0 0
17.36 0 0
17.44 0 0
17.52 0 0
17.6 0 0
17.68 0 0
17.76 0 0
17.84 0 0
17.92 0 0
18 0 0
18.08 0 0
18.16 0 0
18.24 0 0
18.32 0 0
18.4 0 0
18.48 0 0
18.56 0 0
18.64 0 0
18.72 0 0
18.8 0 0
18.88 0 0
18.96 0 0
19.04 0 0
19.12 0 0
19.2 0 0
19.28 0 0
19.36 0 0
19.44 0 0
19.52 0 0
19.6 0 0
19.68 0 0
19.76 0 0
19.84 0 0
19.92 0 0
20 0 0
20.08 0 0
20.16 0 0
20.24 0 0
20.32 0 0
20.4 0 0
20.48 0 0
20.56 0 0
20.64 0 0
20.72 0 0
20.8 0 0
20.88 0 0
20.96 0 0
21.04 0 0
21.12 0 0
21.2 0 0
21.28 0 0
21.36 0 0
21.44 0 0
21.52 0 0
21.6 0 0
21.68 0 0
21.76 0 0
21.84 0 0
21.92 0 0
22 0 0
22.08 0 0
22.16 0 0
22.24 0 0
22.32 0 0
22.4 0 0
22.48 0 0
22.56 0 0
22.64 0 0
22.72 0 0
22.8 0 0
22.88 0 0
22.96 0 0
23.04 0 0
23.12 0 0
23.2 0 0
23.28 0 0
23.36 0 0
23.44 0 0
23.52 0 0
23.6 0 0
23.68 0 0
23.76 0 0
23.84 0 0
23.92 0 0
24 0 0
24.08 0 0
24.16 0 0
24.24 0 0
24.32 0 0
24.4 0 0
24.48 0 0
24.56 0 0
24.64 0 0
24.72 0 0
24.8 0 0
24.88 0 0
24.96 0 0
25.04 0 0
25.12 0 0
25.2 0 0
25.28 0 0
25.36 0 0
25.44 0 0
25.52 0 0
25.6 0 0
25.68 0 0
25.76 0 0
25.84 0 0
25.92 0 0
26 0 0
26.08 0 0
26.16 0 0
26.24 0 0
26.32 0 0
26.4 0 0
26.48 0 0
26.56 0 0
26.64 0 0
26.72 0 0
26.8 0 0
26.88 0 0
26.96 0 0
27.04 0 0
27.12 0 0
27.2 0 0
27.28 0 0
27.36 0 0
27.44 0 0
27.52 0 0
27.6 0 0
27.68 0 0
27.76 0 0
27.84 0 0
27.92 0 0
28 0 0
28.08 0 0
28.16 0 0
28.24 0 0
28.32 0 0
28.4 0 0
28.48 0 0
28.56 0 0
28.64 0 0
28.72 0 0
28.8 0 0
28.88 0 0
28.96 0 0
29.04 0 0
29.12 0 0
29.2 0 0
29.28 0 0
29.36 0 0
29.44 0 0
29.52 0 0
29.6 0 0
29.68 0 0
29.76 0 0
29.84 0 0
29.92 0 0
30 0 0
30.08 0 0
30.16 0 0
30.24 0 0
30.32 0 0
30.4 0 0
30.48 0 0
30.56 0 0
30.64 0 0
30.72 0 0
30.8 0 0
30.88 0 0
30.96 0 0
31.04 0 0
31.12 0 0
31.2 0 0
31.28 0 0
31.36 0 0
31.44 0 0
31.52 0 0
31.6 0 0
31.68 0 0
31.76 0 0
31.84 0 0
31.92 0 0
0 0.005 0
0.08 0.005 0
0.16 0.005 0
0.24 0.005 0
0.32 0.005 0
0.4 0.005 0
0.48 0.005 0
0.56 0.005 0
0.64 0.005 0
0.72 0.005 0
0.8 0.005 0
0.88 0.005 0
0.96 0.005 0
1.04 0.005 0
1.12 0.005 0
1.2 0.005 0
1.28 0.005 0
1.36 0.005 0
1.44 0.005 0
1.52 0.005 0
1.6 0.005 0
1.68 0.005 0
1.76 0.005 0
1.84 0.005 0
1.92 0.005 0
2 0.005 0
2.08 0.005 0
2.16 0.005 0
2.24 0.005 0
2.32 0.005 0
2.4 0.005 0
2.48 0.005 0
2.56 0.005 0
2.64 0.005 0
2.72 0.005 0
2.8 0.005 0
2.88 0.005 0
2.96 0.005 0
3.04 0.005 0
3.12 0.005 0
3.2 0.005 0
3.28 0.005 0
3.36 0.005 0
3.44 0.005 0
3.52 0.005 0
3.6 0.005 0
3.68 0.005 0
3.76 0.005 0
3.84 0.005 0
3.92 0.005 0
4 0.005 0
4.08 0.005 0
4.16 0.005 0
4.24 0.005 0
4.32 0.005 0
4.4 0.005 0
4.48 0.005 0
4.56 0.005 0
4.64 0.005 0
4.72 0.005 0
4.8 0.005 0
4.88 0.005 0
4.96 0.005 0
5.04 0.005 0
5.12 0.005 0
5.2 0.005 0
5.28 0.005 0
5.36 0.005 0
5.44 0.005 0
5.52 0.005 0
5.6 0.005 0
5.68 0.005 0
5.76 0.005 0
5.84 0.005 0
5.92 0.005 0
6 0.005 0
6.08 0.005 0
6.16 0.005 0
6.24 0.005 0
6.32 0.005 0
6.4 0.005 0
6.48 0.005 0
6.56 0.005 0
6.64 0.005 0
6.72 0.005 0
6.8 0.005 0
6.88 0.005 0
6.96 0.005 0
7.04 0.005 0
7.12 0.005 0
7.2 0.005 0
7.28 0.005 0
7.36 0.005 0
7.44 0.005 0
7.52 0.005 0
7.6 0.005 0
7.68 0.005 0
7.76 0.005 0
7.84 0.005 0
7.92 0.005 0
8 0.005 0
8.08 0.005 0
8.16 0.005 0
8.24 0.005 0
8.32 0.005 0
8.4 0.005 0
8.48 0.005 0
8.56 0.005 0
8.64 0.005 0
8.72 0.005 0
8.8 0.005 0
8.88 0.005 0
8.96 0.005 0
9.04 0.005 0
9.12 0.005 0
9.2 0.005 0
9.28 0.005 0
9.36 0.005 0
9.44 0.005 0
9.52 0.005 0
9.6 0.005 0
9.68 0.005 0
9.76 0.005 0
9.84 0.005 0
9.92 0.005 0
10 0.005 0
10.08 0.005 0
10.16 0.005 0
10.24 0.005 0
10.32 0.005 0
10.4 0.005 0
10.48 0.005 0
10.56 0.005 0
10.64 0.005 0
10.72 0.005 0
10.8 0.005 0
10.88 0.005 0
10.96 0.005 0
11.04 0.005 0
11.12 0.005 0
11.2 0.005 0
11.28 0.005 0
11.36 0.005 0
11.44 0.005 0
11.52 0.005 0
11.6 0.005 0
11.68 0.005 0
11.76 0.005 0
11.84 0.005 0
11.92 0.005 0
12 0.005 0
12.08 0.005 0
12.16 0.005 0
12.24 0.005 0
12.32 0.005 0
12.4 0.005 0
12.48 0.005 0
12.56 0.005 0
12.64 0.005 0
12.72 0.005 0
12.8 0.005 0
12.88 0.005 0
12.96 0.005 0
13.04 0.005 0
13.12 0.005 0
13.2 0.005 0
13.28 0.005 0
13.36 0.005 0
13.44 0.005 0
13.52 0.005 0
13.6 0.005 0
13.68 0.005 0
13.76 0.005 0
13.84 0.005 0
13.92 0.005 0
14 0.005 0
14.08 0.005 0
14.16 0.005 0
14.24 0.005 0
14.32 0.005 0
14.4 0.005 0
14.48 0.005 0
14.56 0.005 0
14.64 0.005 0
14.72 0.005 0
14.8 0.005 0
14.88 0.005 0
14.96 0.005 0
15.04 0.005 0
15.12 0.005 0
15.2 0.005 0
15.28 0.005 0
15.36 0.005 0
15.44 0.005 0
15.52 0.005 0
15.6 0.005 0
15.68 0.005 0
15.76 0.005 0
15.84 0.005 0
15.92 0.005 0
16 0.005 0
16.08 0.005 0
16.16 0.005 0
16.24 0.005 0
16.32 0.005 0
16.4 0.005 0
16.48 0.005 0
16.56 0.005 0
16.64 0.005 0
16.72 0.005 0
16.8 0.005 0
16.88 0.005 0
16.96 0.005 0
17.04 0.005 0
17.12 0.005 0
17.2 0.005 0
17.28 0.005 0
17.36 0.005 0
17.44 0.005 0
17.52 0.005 0
17.6 0.005 0
17.68 0.005 0
17.76 0.005 0
17.84 0.005 0
17.92 0.005 0
18 0.005 0
18.08 0.005 0
18.16 0.005 0
18.24 0.005 0
18.32 0.005 0
18.4 0.005 0
18.48 0.005 0
18.56 0.005 0
18.64 0.005 0
18.72 0.005 0
18.8 0.005 0
18.88 0.005 0
18.96 0.005 0
19.04 0.005 0
19.12 0.005 0
19.2 0.005 0
19.28 0.005 0
19.36 0.005 0
19.44 0.005 0
19.52 0.005 0
19.6 0.005 0
19.68 0.005 0
19.76 0.005 0
19.84 0.005 0
19.92 0.005 0
20 0.005 0
20.08 0.005 0
20.16 0.005 0
20.24 0.005 0
20.32 0.005 0
20.4 0.005 0
20.48 0.005 0
20.56 0.005 0
20.64 0.005 0
20.72 0.005 0
20.8 0.005 0
20.88 0.005 0
20.96 0.005 0
21.04 0.005 0
21.12 0.005 0
21.2 0.005 0
21.28 0.005 0
21.36 0.005 0
21.44 0.005 0
21.52 0.005 0
21.6 0.005 0
21.68 0.005 0
21.76 0.005 0
21.84 0.005 0
21.92 0.005 0
22 0.005 0
22.08 0.005 0
22.16 0.005 0
22.24 0.005 0
22.32 0.005 0
22.4 0.005 0
22.48 0.005 0
22.56 0.005 0
22.64 0.005 0
22.72 0.005 0
22.8 0.005 0
22.88 0.005 0
22.96 0.005 0
23.04 0.005 0
23.12 0.005 0
23.2 0.005 0
23.28 0.005 0
23.36 0.005 0
23.44 0.005 0
23.52 0.005 0
23.6 0.005 0
23.68 0.005 0
23.76 0.005 0
23.84 0.005 0
23.92 0.005 0
24 0.005 0
24.08 0.005 0
24.16 0.005 0
24.24 0.005 0
24.32 0.005 0
24.4 0.005 0
24.48 0.005 0
24.56 0.005 0
24.64 0.005 0
24.72 0.005 0
24.8 0.005 0
24.88 0.005 0
24.96 0.005 0
25.04 0.005 0
25.12 0.005 0
25.2 0.005 0
25.28 0.005 0
25.36 0.005 0
25.44 0.005 0
25.52 0.005 0
25.6 0.005 0
25.68 0.005 0
25.76 0.005 0
25.84 0.005 0
25.92 0.005 0
26 0.005 0
26.08 0.005 0
26.16 0.005 0
26.24 0.005 0
26.32 0.005 0
26.4 0.005 0
26.48 0.005 0
26.56 0.005 0
26.64 0.005 0
26.72 0.005 0
26.8 0.005 0
26.88 0.005 0
26.96 0.005 0
27.04 0.005 0
27.12 0.005 0
27.2 0.005 0
27.28 0.005 0
27.36 0.005 0
27.44 0.005 0
27.52 0.005 0
27.6 0.005 0
27.68 0.005 0
27.76 0.005 0
27.84 0.005 0
27.92 0.005 0
28 0.005 0
28.08 0.005 0
28.16 0.005 0
28.24 0.005 0
28.32 0.005 0
28.4 0.005 0
28.48 0.005 0
28.56 0.005 0
28.64 0.005 0
28.72 0.005 0
28.8 0.005 0
28.88 0.005 0
28.96 0.005 0
29.04 0.005 0
29.12 0.005 0
29.2 0.005 0
29.28 0.005 0
29.36 0.005 0
29.44 0.005 0
29.52 0.005 0
29.6 0.005 0
29.68 0.005 0
29.76 0.005 0
29.84 0.005 0
29.92 0.005 0
30 0.005 0
30.08 0.005 0
30.16 0.005 0
30.24 0.005 0
30.32 0.005 0
30.4 0.005 0
30.48 0.005 0
30.56 0.005 0
30.64 0.005 0
30.72 0.005 0
30.8 0.005 0
30.88 0.005 0
30.96 0.005 0
31.04 0.005 0
31.12 0.005 0
31.2 0.005 0
31.28 0.005 0
31.36 0.005 0
31.44 0.005 0
31.52 0.005 0
31.6 0.005 0
31.68 0.005 0
31.76 0.005 0
31.84 0.005 0
31.92 0.005 0
0 0.01 0
0.08 0.01 0
0.16 0.01 0
0.24 0.01 0
0.32 0.01 0
0.4 0.01 0
0.48 0.01 0
0.56 0.01 0
0.64 0.01 0
0.72 0.01 0
0.8 0.01 0
0.88 0.01 0
0.96 0.01 0
1.04 0.01 0
1.12 0.01 0
1.2 0.01 0
1.28 0.01 0
1.36 0.01 0
1.44 0.01 0
1.52 0.01 0
1.6 0.01 0
1.68 0.01 0
1.76 0.01 0
1.84 0.01 0
1.92 0.01 0
2 0.01 0
2.08 0.01 0
2.16 0.01 0
2.24 0.01 0
2.32 0.01 0
2.4 0.01 0
2.48 0.01 0
2.56 0.01 0
2.64 0.01 0
2.72 0.01 0
2.8 0.01 0
2.88 0.01 0
2.96 0.01 0
3.04 0.01 0
3.12 0.01 0
3.2 0.01 0
3.28 0.01 0
3.36 0.01 0
3.44 0.01 0
3.52 0.01 0
3.6 0.01 0
3.68 0.01 0
3.76 0.01 0
3.84 0.01 0
3.92 0.01 0
4 0.01 0
4.08 0.01 0
4.16 0.01 0
4.24 0.01 0
4.32 0.01 0
4.4 0.01 0
4.48 0.01 0
4.56 0.01 0
4.64 0.01 0
4.72 0.01 0
4.8 0.01 0
4.88 0.01 0
4.96 0.01 0
5.04 0.01 0
5.12 0.01 0
[...]
POINT_DATA 80000

SCALARS p float 1
LOOKUP_TABLE default
1
56.7295552
56.42800223
56.38690618
56.36678426
56.35224128
56.34002493
56.32897932
56.31859703
56.30862493
56.29893372
56.28946735
56.28020056
56.27110263
56.26213845
56.25330517
56.24465944
56.23629567
56.22828515
56.22062362
56.21322653
56.20597121
56.19875285
56.1915194
56.18427306
56.17704804
56.16988308
56.16280243
56.15580942
56.14889012
56.14202141
56.13517899
56.12834281
56.12149936
56.11464163
56.10776769
56.10087898
56.09397876
56.08707109
56.0801601
56.07324979
56.06634384
56.05944569
56.05255852
56.04568535
56.03882903
56.03199231
56.02517781
56.01838808
56.01162553
56.00489249
55.99819118
55.99152372
55.98489211
55.97829824
55.97174389
55.96523071
55.95876025
55.95233394
55.94595309
55.93961888
55.93333239
55.92709459
55.9209063
55.91476828
55.90868113
55.90264537
55.89666141
55.89072954
55.88484996
55.87902279
55.87324801
55.86752556
55.86185526
55.85623684
55.85066999
55.84515427
55.83968921
55.83427425
55.82890877
55.82359209
55.81832348
55.81310214
55.80792725
55.8027979
55.7977132
55.79267216
55.78767382
55.78271714
55.77780107
55.77292457
55.76808652
55.76328585
55.75852144
55.75379216
55.7490969
55.74443452
55.73980391
55.73520392
55.73063346
55.7260914
55.72157665
55.71708811
55.71262471
55.70818539
55.7037691
55.69937482
55.69500155
55.6906483
55.6863141
55.68199803
55.67769916
55.6734166
55.66914949
55.66489698
55.66065826
55.65643255
55.65221908
55.64801711
55.64382594
55.63964489
55.63547329
55.63131051
55.62715596
55.62300906
55.61886924
55.61473598
55.61060878
55.60648715
55.60237063
55.5982588
55.59415123
55.59004754
55.58594735
55.58185032
55.5777561
55.57366439
55.5695749
55.56548733
55.56140145
55.557317
55.55323374
55.54915148
55.54507001
55.54098913
55.53690869
55.53282852
55.52874846
55.52466839
55.52058816
55.51650768
55.51242682
55.50834548
55.50426359
55.50018105
55.49609779
55.49201373
55.48792883
55.48384302
55.47975626
55.47566849
55.47157968
55.4674898
55.46339882
55.4593067
55.45521343
55.45111899
55.44702337
55.44292655
55.43882851
55.43472927
55.4306288
55.42652711
55.4224242
55.41832007
55.41421473
55.41010817
55.4060004
55.40189144
55.39778129
55.39366995
55.38955745
55.38544379
55.38132898
55.37721304
55.37309598
55.36897781
55.36485856
55.36073822
55.35661683
55.35249439
55.34837092
55.34424644
55.34012096
55.3359945
55.33186707
55.3277387
55.32360939
55.31947917
55.31534805
55.31121605
55.30708319
55.30294948
55.29881493
55.29467957
55.29054341
55.28640647
55.28226876
55.2781303
55.27399111
55.2698512
55.26571059
55.26156929
55.25742732
55.2532847
55.24914144
55.24499755
55.24085305
55.23670796
55.23256229
55.22841606
55.22426927
55.22012196
55.21597412
55.21182577
55.20767694
55.20352762
55.19937785
55.19522762
55.19107696
55.18692587
55.18277438
55.17862249
55.17447022
55.17031758
55.16616459
55.16201125
55.15785758
55.1537036
55.14954932
55.14539474
55.14123989
55.13708477
55.1329294
55.12877379
55.12461795
55.1204619
55.11630564
55.11214919
55.10799256
55.10383576
55.0996788
55.09552171
55.09136448
55.08720713
55.08304967
55.07889211
55.07473447
55.07057676
55.06641898
55.06226115
55.05810328
55.05394538
55.04978746
55.04562954
55.04147163
55.03731373
55.03315585
55.02899802
55.02484023
55.0206825
55.01652485
55.01236727
55.00820979
55.00405241
54.99989515
54.99573801
54.99158101
54.98742415
54.98326745
54.97911092
54.97495457
54.9707984
54.96664244
54.96248668
54.95833115
54.95417585
54.95002079
54.94586599
54.94171144
54.93755717
54.93340319
54.9292495
54.92509611
54.92094304
54.9167903
54.91263789
54.90848583
54.90433413
54.90018279
54.89603184
54.89188127
54.8877311
54.88358134
54.87943201
54.8752831
54.87113464
54.86698662
54.86283908
54.858692
54.85454541
54.85039931
54.84625371
54.84210864
54.83796408
54.83382007
54.8296766
54.82553369
54.82139135
54.81724959
54.81310842
54.80896785
54.80482789
54.80068855
54.79654985
54.79241179
54.78827438
54.78413764
54.78000158
54.77586621
54.77173153
54.76759757
54.76346432
54.75933181
54.75520004
54.75106903
54.74693878
54.7428093
54.73868062
54.73455273
54.73042566
54.72629941
54.72217399
54.71804941
54.71392569
54.70980284
54.70568087
54.70155979
54.69743962
54.69332036
54.68920202
54.68508463
54.68096818
54.6768527
54.67273819
54.66862467
54.66451215
54.66040064
54.65629015
54.65218069
54.64807229
54.64396494
54.63985867
54.63575348
54.63164939
54.62754641
54.62344456
54.61934384
54.61524427
54.61114586
54.60704863
54.60295258
54.59885774
54.59476411
54.5906717
54.58658056
54.58249062
54.57840204
54.57431458
54.5702287
54.56614365
54.5620607
54.5579779
54.55389812
54.54981752
54.54574094
54.5416628
54.53758912
54.53351381
54.52944287
54.52537052
54.521302
54.51723369
54.51316524
54.50910399
54.50503328
54.50097882
54.49690792
54.49289314
0.5
56.7295552
56.7295552
56.42800223
56.38690618
56.36678426
56.35224128
56.34002493
56.32897932
56.31859703
56.30862493
56.29893372
56.28946735
56.28020056
56.27110263
56.26213845
56.25330517
56.24465944
56.23629567
56.22828515
56.22062362
56.21322653
56.20597121
56.19875285
56.1915194
56.18427306
56.17704804
56.16988308
56.16280243
56.15580942
56.14889012
56.14202141
56.13517899
56.12834281
56.12149936
56.11464163
56.10776769
56.10087898
56.09397876
56.08707109
56.0801601
56.07324979
56.06634384
56.05944569
56.05255852
56.04568535
56.03882903
56.03199231
56.02517781
56.01838808
56.01162553
56.00489249
55.99819118
55.99152372
55.98489211
55.97829824
55.97174389
55.96523071
55.95876025
55.95233394
55.94595309
55.93961888
55.93333239
55.92709459
55.9209063
55.91476828
55.90868113
55.90264537
55.89666141
55.89072954
55.88484996
55.87902279
55.87324801
55.86752556
55.86185526
55.85623684
55.85066999
55.84515427
55.83968921
55.83427425
55.82890877
55.82359209
55.81832348
55.81310214
55.80792725
55.8027979
55.7977132
55.79267216
55.78767382
55.78271714
55.77780107
55.77292457
55.76808652
55.76328585
55.75852144
55.75379216
55.7490969
55.74443452
55.73980391
55.73520392
55.73063346
55.7260914
55.72157665
55.71708811
55.71262471
55.70818539
55.7037691
55.69937482
55.69500155
55.6906483
55.6863141
55.68199803
55.67769916
55.6734166
55.66914949
55.66489698
55.66065826
55.65643255
55.65221908
55.64801711
55.64382594
55.63964489
55.63547329
55.63131051
55.62715596
55.62300906
55.61886924
55.61473598
55.61060878
55.60648715
55.60237063
55.5982588
55.59415123
55.59004754
55.58594735
55.58185032
55.5777561
55.57366439
55.5695749
55.56548733
55.56140145
55.557317
55.55323374
55.54915148
55.54507001
55.54098913
55.53690869
55.53282852
55.52874846
55.52466839
55.52058816
55.51650768
55.51242682
55.50834548
55.50426359
55.50018105
55.49609779
55.49201373
55.48792883
55.48384302
55.47975626
55.47566849
55.47157968
55.4674898
55.46339882
55.4593067
55.45521343
55.45111899
55.44702337
55.44292655
55.43882851
55.43472927
55.4306288
55.42652711
55.4224242
55.41832007
55.41421473
55.41010817
55.4060004
55.40189144
55.39778129
55.39366995
55.38955745
55.38544379
55.38132898
55.37721304
55.37309598
55.36897781
55.36485856
55.36073822
55.35661683
55.35249439
55.34837092
55.34424644
55.34012096
55.3359945
55.33186707
55.3277387
55.32360939
55.31947917
55.31534805
55.31121605
55.30708319
55.30294948
55.29881493
55.29467957
55.29054341
55.28640647
55.28226876
55.2781303
55.27399111
55.2698512
55.26571059
55.26156929
55.25742732
55.2532847
55.24914144
55.24499755
55.24085305
55.23670796
55.23256229
55.22841606
55.22426927
55.22012196
55.21597412
55.21182577
55.20767694
55.20352762
55.19937785
55.19522762
55.19107696
55.18692587
55.18277438
55.17862249
55.17447022
55.17031758
55.16616459
55.16201125
55.15785758
55.1537036
55.14954932
55.14539474
55.14123989
55.13708477
55.1329294
55.12877379
55.12461795
55.1204619
55.11630564
55.11214919
55.10799256
55.10383576
55.0996788
55.09552171
55.09136448
55.08720713
55.08304967
55.07889211
55.07473447
55.07057676
55.06641898
55.06226115
55.05810328
55.05394538
55.04978746
55.04562954
55.04147163
55.03731373
55.03315585
55.02899802
55.02484023
55.0206825
55.01652485
55.01236727
55.00820979
55.00405241
54.99989515
54.99573801
54.99158101
54.98742415
54.98326745
54.97911092
54.97495457
54.9707984
54.96664244
54.96248668
54.95833115
54.95417585
54.95002079
54.94586599
54.94171144
54.93755717
54.93340319
54.9292495
54.92509611
54.92094304
54.9167903
54.91263789
54.90848583
54.90433413
54.90018279
54.89603184
54.89188127
54.8877311
54.88358134
54.87943201
54.8752831
54.87113464
54.86698662
54.86283908
54.858692
54.85454541
54.85039931
54.84625371
54.84210864
54.83796408
54.83382007
54.8296766
54.82553369
54.82139135
54.81724959
54.81310842
54.80896785
54.80482789
54.80068855
54.79654985
54.79241179
54.78827438
54.78413764
54.78000158
54.77586621
54.77173153
54.76759757
54.76346432
54.75933181
54.75520004
54.75106903
54.74693878
54.7428093
54.73868062
54.73455273
54.73042566
54.72629941
54.72217399
54.71804941
54.71392569
54.70980284
54.70568087
54.70155979
54.69743962
54.69332036
54.68920202
54.68508463
54.68096818
54.6768527
54.67273819
54.66862467
54.66451215
54.66040064
54.65629015
54.65218069
54.64807229
54.64396494
54.63985867
54.63575348
54.63164939
54.62754641
54.62344456
54.61934384
54.61524427
54.61114586
54.60704863
54.60295258
54.59885774
54.59476411
54.5906717
54.58658056
54.58249062
54.57840204
54.57431458
54.5702287
54.56614365
54.5620607
54.5579779
54.55389812
54.54981752
54.54574094
54.5416628
54.53758912
54.53351381
54.52944287
54.52537052
54.521302
54.51723369
54.51316524
54.50910399
54.50503328
54.50097882
54.49690792
54.49289314
54.49289314
56.71498795
56.71498795
56.43184896
56.38817203
56.36742974
56.35264593
56.34030665
56.3291886
56.31875974
56.30875602
56.29904228
56.28955903
56.28027915
56.2711711
56.26219909
56.25335935
56.24470742
56.23633708
56.22831979
56.22065201
56.21324992
56.20599117
56.19877069
56.19153592
56.18428854
56.17706247
56.16989636
56.16281453
56.15582044
56.14890025
56.14203087
56.135188
56.12835154
56.12150792
56.11465009
56.10777607
56.10088729
56.093987
56.08707925
56.08016817
56.07325776
56.06635171
56.05945345
56.05256616
56.04569287
56.03883643
56.03199959
56.02518497
56.0183951
56.01163242
56.00489925
55.99819781
55.99153021
55.98489847
55.97830446
55.97174996
55.96523665
55.95876605
55.9523396
55.9459586
55.93962424
55.93333761
55.92709966
55.92091124
55.91477307
55.90868577
55.90264987
55.89666576
55.89073375
55.88485403
55.87902671
55.87325179
55.8675292
55.86185875
55.8562402
55.85067321
55.84515736
55.83969216
55.83427707
55.82891146
55.82359465
55.81832591
55.81310445
55.80792943
55.80279997
55.79771514
55.792674
55.78767554
55.78271874
55.77780257
55.77292596
55.76808781
55.76328704
55.75852253
55.75379315
55.7490978
55.74443533
55.73980463
55.73520456
55.73063401
55.72609187
55.72157704
55.71708843
55.71262495
55.70818556
55.70376921
55.69937487
55.69500153
55.69064822
55.68631397
55.68199784
55.67769891
55.6734163
55.66914914
55.66489658
55.66065782
55.65643206
55.65221855
55.64801654
55.64382534
55.63964424
55.63547261
55.6313098
55.62715522
55.62300828
55.61886844
55.61473515
55.61060792
55.60648627
55.60236973
55.59825787
55.59415029
55.59004657
55.58594636
55.58184931
55.57775508
55.57366335
55.56957384
55.56548626
55.56140036
55.5573159
55.55323263
55.54915036
55.54506887
55.54098799
55.53690754
55.53282735
55.52874729
55.5246672
55.52058697
55.51650648
55.51242561
55.50834427
55.50426237
55.50017982
55.49609655
55.49201249
55.48792759
55.48384177
55.479755
55.47566723
55.47157842
55.46748853
55.46339754
55.45930542
55.45521215
55.45111771
55.44702208
55.44292525
55.43882721
55.43472796
55.43062749
55.4265258
55.42242289
55.41831876
55.41421341
55.41010685
55.40599908
55.40189011
55.39777996
55.39366862
55.38955611
55.38544245
55.38132764
55.3772117
55.37309463
55.36897647
55.36485721
55.36073687
55.35661548
55.35249303
55.34836956
55.34424508
55.3401196
55.33599313
55.33186571
55.32773733
55.32360802
55.3194778
55.31534668
55.31121468
55.30708181
55.30294809
55.29881355
55.29467818
55.29054202
55.28640508
55.28226737
55.27812891
55.27398972
55.2698498
55.26570919
55.26156789
55.25742592
55.25328329
55.24914003
55.24499614
55.24085164
55.23670655
55.23256088
55.22841464
55.22426786
55.22012054
55.2159727
55.21182435
55.20767551
55.2035262
55.19937642
55.19522619
55.19107552
55.18692444
55.18277294
55.17862105
55.17446878
55.17031614
55.16616314
55.16200981
55.15785614
55.15370216
55.14954787
55.14539329
55.14123844
55.13708332
55.13292795
55.12877233
55.12461649
55.12046044
55.11630418
55.11214772
55.10799109
55.10383429
55.09967734
55.09552024
55.09136301
55.08720565
55.08304819
55.07889064
55.07473299
55.07057528
55.0664175
55.06225967
55.05810179
55.05394389
55.04978598
55.04562805
55.04147014
55.03731223
55.03315436
55.02899652
55.02483873
55.020681
55.01652334
55.01236577
55.00820829
55.00405091
54.99989364
54.9957365
54.9915795
54.98742264
54.98326594
54.9791094
54.97495305
54.97079688
54.96664092
54.96248516
54.95832963
54.95417433
54.95001926
54.94586446
54.94170991
54.93755564
54.93340165
54.92924796
54.92509457
54.9209415
54.91678876
54.91263635
54.90848428
54.90433258
54.90018124
54.89603029
54.89187972
54.88772955
54.88357979
54.87943045
54.87528154
54.87113308
54.86698506
54.86283751
54.85869043
54.85454384
54.85039774
54.84625214
54.84210706
54.83796251
54.83381849
54.82967502
54.82553211
54.82138977
54.81724801
54.81310683
54.80896626
54.8048263
54.80068696
54.79654826
54.79241019
54.78827279
54.78413605
54.77999998
54.77586461
54.77172993
54.76759596
54.76346272
54.7593302
54.75519843
54.75106742
54.74693716
54.74280769
54.738679
54.73455111
54.73042404
54.72629778
54.72217236
54.71804778
54.71392406
54.70980121
54.70567924
54.70155816
54.69743798
54.69331872
54.68920038
54.68508298
54.68096654
54.67685105
54.67273654
54.66862302
54.66451049
54.66039898
54.65628849
54.65217903
54.64807063
54.64396328
54.639857
54.63575181
54.63164772
54.62754474
54.62344288
54.61934216
54.61524259
54.61114418
54.60704694
54.6029509
54.59885605
54.59476242
54.59067001
54.58657886
54.58248893
54.57840033
54.57431288
54.57022699
54.56614195
54.56205896
54.55797621
54.55389636
54.54981586
54.54573914
54.54166116
54.5375873
54.53351217
54.52944105
54.52536887
54.52130019
54.51723198
54.51316354
54.50910207
54.50503184
54.50097664
54.49690708
54.4928914
54.4928914
56.69900654
56.69900654
56.43503752
56.38935906
56.3680454
56.35303178
56.34057358
56.32938483
56.31891031
56.30887544
56.29913938
56.28963938
56.28034656
56.27122856
56.2622488
56.25340244
56.24474402
56.23636693
56.22834297
56.22066936
56.21326284
56.20600114
56.19877884
56.19154285
56.18429441
56.17706724
56.16990001
56.16281711
56.15582211
56.14890124
56.14203142
56.1351883
56.12835174
56.12150811
56.11465032
56.10777636
56.10088764
56.09398741
56.0870797
56.08016867
56.07325829
56.06635227
56.05945403
56.05256677
56.0456935
56.03883709
56.03200026
56.02518566
56.01839581
56.01163314
56.00489999
55.99819856
55.99153098
55.98489924
55.97830524
55.97175076
55.96523744
55.95876685
55.9523404
55.9459594
55.93962505
55.93333841
55.92710046
55.92091203
55.91477385
55.90868655
55.90265064
55.89666652
55.8907345
55.88485477
55.87902743
55.8732525
55.8675299
55.86185944
55.85624087
55.85067386
55.84515799
55.83969277
55.83427766
55.82891203
55.82359521
55.81832645
55.81310496
55.80792992
55.80280044
55.79771559
55.79267442
55.78767594
55.78271912
55.77780293
55.77292629
55.76808813
55.76328733
55.7585228
55.7537934
55.74909802
55.74443554
55.73980481
55.73520472
55.73063416
55.726092
55.72157715
55.71708851
55.71262502
55.70818561
55.70376924
55.69937488
55.69500153
55.6906482
55.68631393
55.68199779
55.67769885
55.67341622
55.66914904
55.66489648
55.6606577
55.65643193
55.65221841
55.64801639
55.64382517
55.63964407
55.63547242
55.63130961
55.62715502
55.62300807
55.61886822
55.61473492
55.61060769
55.60648603
55.60236948
55.59825762
55.59415003
55.59004631
55.58594609
55.58184903
55.5777548
55.57366307
55.56957355
55.56548597
55.56140007
55.5573156
55.55323233
55.54915005
55.54506856
55.54098768
55.53690722
55.53282704
55.52874697
55.52466688
55.52058665
55.51650615
55.51242528
55.50834394
55.50426204
55.50017949
55.49609622
55.49201217
55.48792726
55.48384144
55.47975467
55.4756669
55.47157809
55.4674882
55.46339721
55.45930509
55.45521182
55.45111737
55.44702174
55.44292492
55.43882688
55.43472763
55.43062716
55.42652547
55.42242256
55.41831843
55.41421308
55.41010651
55.40599875
55.40188978
55.39777962
55.39366829
55.38955578
55.38544212
55.38132731
55.37721137
55.3730943
55.36897614
55.36485688
55.36073654
55.35661515
55.35249271
55.34836923
55.34424475
55.34011927
55.33599281
55.33186538
55.327737
55.32360769
55.31947747
55.31534635
55.31121435
55.30708148
55.30294777
55.29881322
55.29467786
55.2905417
55.28640475
55.28226704
55.27812858
55.27398939
55.26984948
55.26570887
55.26156757
55.2574256
55.25328297
55.2491397
55.24499582
55.24085132
55.23670623
55.23256055
55.22841432
55.22426753
55.22012021
55.21597237
55.21182403
55.20767519
55.20352587
55.1993761
55.19522587
55.1910752
55.18692411
55.18277262
55.17862073
55.17446846
55.17031582
55.16616282
55.16200948
55.15785582
55.15370184
55.14954755
55.14539297
55.14123812
55.137083
55.13292763
55.12877201
55.12461617
55.12046011
55.11630385
55.1121474
55.10799077
55.10383397
55.09967701
55.09551992
55.09136268
55.08720533
55.08304787
55.07889032
55.07473267
55.07057496
55.06641718
55.06225934
55.05810147
55.05394357
55.04978566
55.04562773
55.04146981
55.03731191
55.03315404
55.0289962
55.02483841
55.02068068
55.01652302
55.01236545
55.00820797
55.00405059
54.99989332
54.99573618
54.99157918
54.98742232
54.98326562
54.97910908
54.97495273
54.97079656
54.9666406
54.96248484
54.95832931
54.95417401
54.95001894
54.94586414
54.94170959
54.93755532
54.93340133
54.92924764
54.92509425
54.92094118
54.91678844
54.91263603
54.90848396
54.90433226
54.90018092
54.89602997
54.8918794
54.88772923
54.88357947
54.87943013
54.87528122
54.87113276
54.86698474
54.86283719
54.85869011
54.85454352
54.85039742
54.84625183
54.84210675
54.83796219
54.83381817
54.8296747
54.82553179
54.82138945
54.81724769
54.81310651
54.80896594
54.80482598
54.80068664
54.79654794
54.79240987
54.78827247
54.78413573
54.77999966
54.77586429
54.77172961
54.76759565
54.7634624
54.75932988
54.75519811
54.7510671
54.74693684
54.74280737
54.73867868
54.7345508
54.73042372
54.72629746
54.72217204
54.71804747
54.71392375
54.70980089
54.70567892
54.70155784
54.69743766
54.6933184
54.68920006
54.68508267
54.68096622
54.67685073
54.67273622
54.6686227
54.66451018
54.66039866
54.65628817
54.65217872
54.64807031
54.64396296
54.63985669
54.6357515
54.6316474
54.62754442
54.62344257
54.61934184
54.61524227
54.61114386
54.60704663
54.60295058
54.59885573
54.5947621
54.59066969
54.58657854
54.58248861
54.57840002
54.57431257
54.57022666
54.56614164
54.56205863
54.55797592
54.55389601
54.54981559
54.54573877
54.54166091
54.53758691
54.53351193
54.52944066
54.52536862
54.52129981
54.5172317
54.51316324
54.50910162
54.50503178
54.50097596
54.49690747
54.49289111
54.49289111
56.68309446
56.68309446
56.43792414
56.39049891
56.36864665
56.3534114
56.34083731
56.3295792
56.31905965
56.30899391
56.29923564
56.2897189
56.28041322
56.27128536
56.26229784
56.25344464
56.24477939
56.2363953
56.2283647
56.22068557
56.21327507
56.20601082
56.19878688
56.19154965
56.18430003
56.17707163
56.16990319
56.16281922
56.15582338
56.14890193
56.14203177
56.13518849
56.12835189
56.12150829
56.11465056
56.10777666
56.10088801
56.09398783
56.08708016
56.08016917
56.07325882
56.06635283
56.05945462
56.05256739
56.04569414
56.03883774
56.03200094
56.02518635
56.01839652
56.01163387
56.00490073
55.99819932
55.99153175
55.98490002
55.97830603
55.97175155
55.96523824
55.95876765
55.95234121
55.94596021
55.93962586
55.93333922
55.92710126
55.92091283
55.91477465
55.90868734
55.90265142
55.89666729
55.89073525
55.88485551
55.87902817
55.87325322
55.8675306
55.86186013
55.85624154
55.85067451
55.84515862
55.83969339
55.83427826