# vtk DataFile Version 2.0
FlowField
ASCII
DATASET STRUCTURED_GRID
DIMENSIONS 400 1 200
POINTS 80000 float
0 0 0
0.08 0 0
0.16 0 0
0.24 0 0
0.32 0 0
0.4 0 0
0.48 0 0
0.56 0 0
0.64 0 0
0.72 0 0
0.8 0 0
0.88 0 0
0.96 0 0
1.04 0 0
1.12 0 0
1.2 0 0
1.28 0 0
1.36 0 0
1.44 0 0
1.52 0 0
1.6 0 0
1.68 0 0
1.76 0 0
1.84 0 0
1.92 0 0
2 0 0
2.08 0 0
2.16 0 0
2.24 0 0
2.32 0 0
2.4 0 0
2.48 0 0
2.56 0 0
2.64 0 0
2.72 0 0
2.8 0 0
2.88 0 0
2.96 0 0
3.04 0 0
3.12 0 0
3.2 0 0
3.28 0 0
3.36 0 0
3.44 0 0
3.52 0 0
3.6 0 0
3.68 0 0
3.76 0 0
3.84 0 0
3.92 0 0
4 0 0
4.08 0 0
4.16 0 0
4.24 0 0
4.32 0 0
4.4 0 0
4.48 0 0
4.56 0 0
4.64 0 0
4.72 0 0
4.8 0 0
4.88 0 0
4.96 0 0
5.04 0 0
5.12 0 0
5.2 0 0
5.28 0 0
5.36 0 0
5.44 0 0
5.52 0 0
5.6 0 0
5.68 0 0
5.76 0 0
5.84 0 0
5.92 0 0
6 0 0
6.08 0 0
6.16 0 0
6.24 0 0
6.32 0 0
6.4 0 0
6.48 0 0
6.56 0 0
6.64 0 0
6.72 0 0
6.8 0 0
6.88 0 0
6.96 0 0
7.04 0 0
7.12 0 0
7.2 0 0
7.28 0 0
7.36 0 0
7.44 0 0
7.52 0 0
7.6 0 0
7.68 0 0
7.76 0 0
7.84 0 0
7.92 0 0
8 0 0
8.08 0 0
8.16 0 0
8.24 0 0
8.32 0 0
8.4 0 0
8.48 0 0
8.56 0 0
8.64 0 0
8.72 0 0
8.8 0 0
8.88 0 0
8.96 0 0
9.04 0 0
9.12 0 0
9.2 0 0
9.28 0 0
9.36 0 0
9.44 0 0
9.52 0 0
9.6 0 0
9.68 0 0
9.76 0 0
9.84 0 0
9.92 0 0
10 0 0
10.08 0 0
10.16 0 0
10.24 0 0
10.32 0 0
10.4 0 0
10.48 0 0
10.56 0 0
10.64 0 0
10.72 0 0
10.8 0 0
10.88 0 0
10.96 0 0
11.04 0 0
11.12 0 0
11.2 0 0
11.28 0 0
11.36 0 0
11.44 0 0
11.52 0 0
11.6 0 0
11.68 0 0
11.76 0 0
11.84 0 0
11.92 0 0
12 0 0
12.08 0 0
12.16 0 0
12.24 0 0
12.32 0 0
12.4 0 0
12.48 0 0
12.56 0 0
12.64 0 0
12.72 0 0
12.8 0 0
12.88 0 0
12.96 0 0
13.04 0 0
13.12 0 0
13.2 0 0
13.28 0 0
13.36 0 0
13.44 0 0
13.52 0 0
13.6 0 0
13.68 0 0
13.76 0 0
13.84 0 0
13.92 0 0
14 0 0
14.08 0 0
14.16 0 0
14.24 0 0
14.32 0 0
14.4 0 0
14.48 0 0
14.56 0 0
14.64 0 0
14.72 0 0
14.8 0 0
14.88 0 0
14.96 0 0
15.04 0 0
15.12 0 0
15.2 0 0
15.28 0 0
15.36 0 0
15.44 0 0
15.52 0 0
15.6 0 0
15.68 0 0
15.76 0 0
15.84 0 0
15.92 0 0
16 0 0
16.08 0 0
16.16 0 0
16.24 0 0
16.32 0 0
16.4 0 0
16.48 0 0
16.56 0 0
16.64 0 0
16.72 0 0
16.8 0 0
16.88 0 0
16.96 0 0
17.04 0 0
17.12 0 0
17.2 0 0
17.28 0 0
17.36 0 0
17.44 0 0
17.52 0 0
17.6 0 0
17.68 0 0
17.76 0 0
17.84 0 0
17.92 0 0
18 0 0
18.08 0 0
18.16 0 0
18.24 0 0
18.32 0 0
18.4 0 0
18.48 0 0
18.56 0 0
18.64 0 0
18.72 0 0
18.8 0 0
18.88 0 0
18.96 0 0
19.04 0 0
19.12 0 0
19.2 0 0
19.28 0 0
19.36 0 0
19.44 0 0
19.52 0 0
19.6 0 0
19.68 0 0
19.76 0 0
19.84 0 0
19.92 0 0
20 0 0
20.08 0 0
20.16 0 0
20.24 0 0
20.32 0 0
20.4 0 0
20.48 0 0
20.56 0 0
20.64 0 0
20.72 0 0
20.8 0 0
20.88 0 0
20.96 0 0
21.04 0 0
21.12 0 0
21.2 0 0
21.28 0 0
21.36 0 0
21.44 0 0
21.52 0 0
21.6 0 0
21.68 0 0
21.76 0 0
21.84 0 0
21.92 0 0
22 0 0
22.08 0 0
22.16 0 0
22.24 0 0
22.32 0 0
22.4 0 0
22.48 0 0
22.56 0 0
22.64 0 0
22.72 0 0
22.8 0 0
22.88 0 0
22.96 0 0
23.04 0 0
23.12 0 0
23.2 0 0
23.28 0 0
23.36 0 0
23.44 0 0
23.52 0 0
23.6 0 0
23.68 0 0
23.76 0 0
23.84 0 0
23.92 0 0
24 0 0
24.08 0 0
24.16 0 0
24.24 0 0
24.32 0 0
24.4 0 0
24.48 0 0
24.56 0 0
24.64 0 0
24.72 0 0
24.8 0 0
24.88 0 0
24.96 0 0
25.04 0 0
25.12 0 0
25.2 0 0
25.28 0 0
25.36 0 0
25.44 0 0
25.52 0 0
25.6 0 0
25.68 0 0
25.76 0 0
25.84 0 0
25.92 0 0
26 0 0
26.08 0 0
26.16 0 0
26.24 0 0
26.32 0 0
26.4 0 0
26.48 0 0
26.56 0 0
26.64 0 0
26.72 0 0
26.8 0 0
26.88 0 0
26.96 0 0
27.04 0 0
27.12 0 0
27.2 0 0
27.28 0 0
27.36 0 0
27.44 0 0
27.52 0 0
27.6 0 0
27.68 0 0
27.76 0 0
27.84 0 0
27.92 0 0
28 0 0
28.08 0 0
28.16 0 0
28.24 0 0
28.32 0 0
28.4 0 0
28.48 0 0
28.56 0 0
28.64 0 0
28.72 0 0
28.8 0 0
28.88 0 0
28.96 0 0
29.04 0 0
29.12 0 0
29.2 0 0
29.28 0 0
29.36 0 0
29.44 0 0
29.52 0 0
29.6 0 0
29.68 0 0
29.76 0 0
29.84 0 0
29.92 0 0
30 0 0
30.08 0 0
30.16 0 0
30.24 0 0
30.32 0 0
30.4 0 0
30.48 0 0
30.56 0 0
30.64 0 0
30.72 0 0
30.8 0 0
30.88 0 0
30.96 0 0
31.04 0 0
31.12 0 0
31.2 0 0
31.28 0 0
31.36 0 0
31.44 0 0
31.52 0 0
31.6 0 0
31.68 0 0
31.76 0 0
31.84 0 0
31.92 0 0
0 0.005 0
0.08 0.005 0
0.16 0.005 0
0.24 0.005 0
0.32 0.005 0
0.4 0.005 0
0.48 0.005 0
0.56 0.005 0
0.64 0.005 0
0.72 0.005 0
0.8 0.005 0
0.88 0.005 0
0.96 0.005 0
1.04 0.005 0
1.12 0.005 0
1.2 0.005 0
1.28 0.005 0
1.36 0.005 0
1.44 0.005 0
1.52 0.005 0
1.6 0.005 0
1.68 0.005 0
1.76 0.005 0
1.84 0.005 0
1.92 0.005 0
2 0.005 0
2.08 0.005 0
2.16 0.005 0
2.24 0.005 0
2.32 0.005 0
2.4 0.005 0
2.48 0.005 0
2.56 0.005 0
2.64 0.005 0
2.72 0.005 0
2.8 0.005 0
2.88 0.005 0
2.96 0.005 0
3.04 0.005 0
3.12 0.005 0
3.2 0.005 0
3.28 0.005 0
3.36 0.005 0
3.44 0.005 0
3.52 0.005 0
3.6 0.005 0
3.68 0.005 0
3.76 0.005 0
3.84 0.005 0
3.92 0.005 0
4 0.005 0
4.08 0.005 0
4.16 0.005 0
4.24 0.005 0
4.32 0.005 0
4.4 0.005 0
4.48 0.005 0
4.56 0.005 0
4.64 0.005 0
4.72 0.005 0
4.8 0.005 0
4.88 0.005 0
4.96 0.005 0
5.04 0.005 0
5.12 0.005 0
5.2 0.005 0
5.28 0.005 0
5.36 0.005 0
5.44 0.005 0
5.52 0.005 0
5.6 0.005 0
5.68 0.005 0
5.76 0.005 0
5.84 0.005 0
5.92 0.005 0
6 0.005 0
6.08 0.005 0
6.16 0.005 0
6.24 0.005 0
6.32 0.005 0
6.4 0.005 0
6.48 0.005 0
6.56 0.005 0
6.64 0.005 0
6.72 0.005 0
6.8 0.005 0
6.88 0.005 0
6.96 0.005 0
7.04 0.005 0
7.12 0.005 0
7.2 0.005 0
7.28 0.005 0
7.36 0.005 0
7.44 0.005 0
7.52 0.005 0
7.6 0.005 0
7.68 0.005 0
7.76 0.005 0
7.84 0.005 0
7.92 0.005 0
8 0.005 0
8.08 0.005 0
8.16 0.005 0
8.24 0.005 0
8.32 0.005 0
8.4 0.005 0
8.48 0.005 0
8.56 0.005 0
8.64 0.005 0
8.72 0.005 0
8.8 0.005 0
8.88 0.005 0
8.96 0.005 0
9.04 0.005 0
9.12 0.005 0
9.2 0.005 0
9.28 0.005 0
9.36 0.005 0
9.44 0.005 0
9.52 0.005 0
9.6 0.005 0
9.68 0.005 0
9.76 0.005 0
9.84 0.005 0
9.92 0.005 0
10 0.005 0
10.08 0.005 0
10.16 0.005 0
10.24 0.005 0
10.32 0.005 0
10.4 0.005 0
10.48 0.005 0
10.56 0.005 0
10.64 0.005 0
10.72 0.005 0
10.8 0.005 0
10.88 0.005 0
10.96 0.005 0
11.04 0.005 0
11.12 0.005 0
11.2 0.005 0
11.28 0.005 0
11.36 0.005 0
11.44 0.005 0
11.52 0.005 0
11.6 0.005 0
11.68 0.005 0
11.76 0.005 0
11.84 0.005 0
11.92 0.005 0
12 0.005 0
12.08 0.005 0
12.16 0.005 0
12.24 0.005 0
12.32 0.005 0
12.4 0.005 0
12.48 0.005 0
12.56 0.005 0
12.64 0.005 0
12.72 0.005 0
12.8 0.005 0
12.88 0.005 0
12.96 0.005 0
13.04 0.005 0
13.12 0.005 0
13.2 0.005 0
13.28 0.005 0
13.36 0.005 0
13.44 0.005 0
13.52 0.005 0
13.6 0.005 0
13.68 0.005 0
13.76 0.005 0
13.84 0.005 0
13.92 0.005 0
14 0.005 0
14.08 0.005 0
14.16 0.005 0
14.24 0.005 0
14.32 0.005 0
14.4 0.005 0
14.48 0.005 0
14.56 0.005 0
14.64 0.005 0
14.72 0.005 0
14.8 0.005 0
14.88 0.005 0
14.96 0.005 0
15.04 0.005 0
15.12 0.005 0
15.2 0.005 0
15.28 0.005 0
15.36 0.005 0
15.44 0.005 0
15.52 0.005 0
15.6 0.005 0
15.68 0.005 0
15.76 0.005 0
15.84 0.005 0
15.92 0.005 0
16 0.005 0
16.08 0.005 0
16.16 0.005 0
16.24 0.005 0
16.32 0.005 0
16.4 0.005 0
16.48 0.005 0
16.56 0.005 0
16.64 0.005 0
16.72 0.005 0
16.8 0.005 0
16.88 0.005 0
16.96 0.005 0
17.04 0.005 0
17.12 0.005 0
17.2 0.005 0
17.28 0.005 0
17.36 0.005 0
17.44 0.005 0
17.52 0.005 0
17.6 0.005 0
17.68 0.005 0
17.76 0.005 0
17.84 0.005 0
17.92 0.005 0
18 0.005 0
18.08 0.005 0
18.16 0.005 0
18.24 0.005 0
18.32 0.005 0
18.4 0.005 0
18.48 0.005 0
18.56 0.005 0
18.64 0.005 0
18.72 0.005 0
18.8 0.005 0
18.88 0.005 0
18.96 0.005 0
19.04 0.005 0
19.12 0.005 0
19.2 0.005 0
19.28 0.005 0
19.36 0.005 0
19.44 0.005 0
19.52 0.005 0
19.6 0.005 0
19.68 0.005 0
19.76 0.005 0
19.84 0.005 0
19.92 0.005 0
20 0.005 0
20.08 0.005 0
20.16 0.005 0
20.24 0.005 0
20.32 0.005 0
20.4 0.005 0
20.48 0.005 0
20.56 0.005 0
20.64 0.005 0
20.72 0.005 0
20.8 0.005 0
20.88 0.005 0
20.96 0.005 0
21.04 0.005 0
21.12 0.005 0
21.2 0.005 0
21.28 0.005 0
21.36 0.005 0
21.44 0.005 0
21.52 0.005 0
21.6 0.005 0
21.68 0.005 0
21.76 0.005 0
21.84 0.005 0
21.92 0.005 0
22 0.005 0
22.08 0.005 0
22.16 0.005 0
22.24 0.005 0
22.32 0.005 0
22.4 0.005 0
22.48 0.005 0
22.56 0.005 0
22.64 0.005 0
22.72 0.005 0
22.8 0.005 0
22.88 0.005 0
22.96 0.005 0
23.04 0.005 0
23.12 0.005 0
23.2 0.005 0
23.28 0.005 0
23.36 0.005 0
23.44 0.005 0
23.52 0.005 0
23.6 0.005 0
23.68 0.005 0
23.76 0.005 0
23.84 0.005 0
23.92 0.005 0
24 0.005 0
24.08 0.005 0
24.16 0.005 0
24.24 0.005 0
24.32 0.005 0
24.4 0.005 0
24.48 0.005 0
24.56 0.005 0
24.64 0.005 0
24.72 0.005 0
24.8 0.005 0
24.88 0.005 0
24.96 0.005 0
25.04 0.005 0
25.12 0.005 0
25.2 0.005 0
25.28 0.005 0
25.36 0.005 0
25.44 0.005 0
25.52 0.005 0
25.6 0.005 0
25.68 0.005 0
25.76 0.005 0
25.84 0.005 0
25.92 0.005 0
26 0.005 0
26.08 0.005 0
26.16 0.005 0
26.24 0.005 0
26.32 0.005 0
26.4 0.005 0
26.48 0.005 0
26.56 0.005 0
26.64 0.005 0
26.72 0.005 0
26.8 0.005 0
26.88 0.005 0
26.96 0.005 0
27.04 0.005 0
27.12 0.005 0
27.2 0.005 0
27.28 0.005 0
27.36 0.005 0
27.44 0.005 0
27.52 0.005 0
27.6 0.005 0
27.68 0.005 0
27.76 0.005 0
27.84 0.005 0
27.92 0.005 0
28 0.005 0
28.08 0.005 0
28.16 0.005 0
28.24 0.005 0
28.32 0.005 0
28.4 0.005 0
28.48 0.005 0
28.56 0.005 0
28.64 0.005 0
28.72 0.005 0
28.8 0.005 0
28.88 0.005 0
28.96 0.005 0
29.04 0.005 0
29.12 0.005 0
29.2 0.005 0
29.28 0.005 0
29.36 0.005 0
29.44 0.005 0
29.52 0.005 0
29.6 0.005 0
29.68 0.005 0
29.76 0.005 0
29.84 0.005 0
29.92 0.005 0
30 0.005 0
30.08 0.005 0
30.16 0.005 0
30.24 0.005 0
30.32 0.005 0
30.4 0.005 0
30.48 0.005 0
30.56 0.005 0
30.64 0.005 0
30.72 0.005 0
30.8 0.005 0
30.88 0.005 0
30.96 0.005 0
31.04 0.005 0
31.12 0.005 0
31.2 0.005 0
31.28 0.005 0
31.36 0.005 0
31.44 0.005 0
31.52 0.005 0
31.6 0.005 0
31.68 0.005 0
31.76 0.005 0
31.84 0.005 0
31.92 0.005 0
0 0.01 0
0.08 0.01 0
0.16 0.01 0
0.24 0.01 0
0.32 0.01 0
0.4 0.01 0
0.48 0.01 0
0.56 0.01 0
0.64 0.01 0
0.72 0.01 0
0.8 0.01 0
0.88 0.01 0
0.96 0.01 0
1.04 0.01 0
1.12 0.01 0
1.2 0.01 0
1.28 0.01 0
1.36 0.01 0
1.44 0.01 0
1.52 0.01 0
1.6 0.01 0
1.68 0.01 0
1.76 0.01 0
1.84 0.01 0
1.92 0.01 0
2 0.01 0
2.08 0.01 0
2.16 0.01 0
2.24 0.01 0
2.32 0.01 0
2.4 0.01 0
2.48 0.01 0
2.56 0.01 0
2.64 0.01 0
2.72 0.01 0
2.8 0.01 0
2.88 0.01 0
2.96 0.01 0
3.04 0.01 0
3.12 0.01 0
3.2 0.01 0
3.28 0.01 0
3.36 0.01 0
3.44 0.01 0
3.52 0.01 0
3.6 0.01 0
3.68 0.01 0
3.76 0.01 0
3.84 0.01 0
3.92 0.01 0
4 0.01 0
4.08 0.01 0
4.16 0.01 0
4.24 0.01 0
4.32 0.01 0
4.4 0.01 0
4.48 0.01 0
4.56 0.01 0
4.64 0.01 0
4.72 0.01 0
4.8 0.01 0
4.88 0.01 0
4.96 0.01 0
5.04 0.01 0
5.12 0.01 0
[...]
POINT_DATA 80000

SCALARS p float 1
LOOKUP_TABLE default
1
63.21742485
62.91183648
62.86940896
62.85026479
62.8389361
62.83197164
62.8281748
62.82733205
62.82952088
62.83462081
62.84224777
62.85195148
62.86337912
62.87630089
62.89056165
62.90603539
62.92260629
62.94016553
62.95861098
62.97784487
62.99777043
63.01828931
63.03930055
63.06070092
63.08238592
63.104251
63.12619278
63.14811001
63.16990441
63.19148134
63.21275026
63.23362525
63.25402528
63.27387453
63.29310262
63.31164472
63.32944176
63.34644042
63.36259321
63.37785844
63.39220015
63.40558805
63.41799738
63.42940875
63.43980795
63.44918576
63.4575377
63.46486379
63.47116827
63.47645932
63.48074881
63.48405195
63.48638701
63.48777505
63.48823957
63.48780626
63.48650269
63.48435803
63.48140278
63.47766852
63.47318764
63.46799314
63.46211838
63.45559688
63.44846213
63.44074745
63.43248576
63.42370952
63.41445052
63.40473983
63.39460769
63.38408339
63.37319525
63.36197052
63.35043536
63.3386148
63.32653271
63.3142118
63.30167359
63.28893844
63.27602554
63.26295296
63.24973762
63.23639536
63.22294094
63.20938812
63.19574963
63.18203729
63.16826197
63.15443371
63.14056169
63.12665434
63.11271934
63.09876367
63.08479368
63.0708151
63.0568331
63.0428523
63.02887686
63.01491048
63.00095643
62.9870176
62.97309654
62.95919546
62.94531628
62.93146066
62.91763001
62.90382552
62.89004818
62.8762988
62.86257802
62.84888635
62.83522418
62.82159175
62.80798923
62.79441669
62.78087413
62.76736145
62.75387853
62.74042518
62.72700116
62.71360619
62.70023997
62.68690217
62.67359242
62.66031036
62.64705558
62.63382769
62.62062627
62.60745091
62.59430117
62.58117662
62.56807685
62.55500141
62.54194989
62.52892184
62.51591686
62.50293452
62.4899744
62.47703609
62.46411919
62.4512233
62.43834803
62.42549297
62.41265777
62.39984202
62.38704538
62.37426747
62.36150793
62.34876642
62.33604259
62.3233361
62.31064661
62.29797381
62.28531736
62.27267696
62.26005229
62.24744304
62.23484893
62.22226964
62.20970491
62.19715443
62.18461794
62.17209515
62.1595858
62.14708962
62.13460636
62.12213575
62.10967754
62.09723148
62.08479733
62.07237486
62.05996381
62.04756397
62.0351751
62.02279697
62.01042936
61.99807206
61.98572484
61.9733875
61.96105982
61.94874161
61.93643265
61.92413274
61.91184169
61.8995593
61.88728539
61.87501975
61.8627622
61.85051257
61.83827066
61.82603629
61.81380929
61.80158949
61.78937671
61.77717077
61.76497151
61.75277877
61.74059238
61.72841217
61.71623799
61.70406967
61.69190706
61.67975001
61.66759835
61.65545195
61.64331064
61.63117428
61.61904272
61.60691583
61.59479344
61.58267542
61.57056164
61.55845194
61.5463462
61.53424428
61.52214603
61.51005134
61.49796005
61.48587205
61.4737872
61.46170538
61.44962645
61.43755029
61.42547677
61.41340577
61.40133717
61.38927084
61.37720666
61.36514451
61.35308427
61.34102583
61.32896907
61.31691386
61.3048601
61.29280767
61.28075645
61.26870634
61.25665722
61.24460897
61.2325615
61.22051468
61.20846841
61.19642258
61.18437709
61.17233182
61.16028667
61.14824154
61.13619632
61.1241509
61.11210518
61.10005906
61.08801244
61.07596521
61.06391727
61.05186853
61.03981887
61.02776821
61.01571644
61.00366346
60.99160918
60.9795535
60.96749631
60.95543753
60.94337706
60.9313148
60.91925065
60.90718452
60.89511632
60.88304595
60.87097331
60.85889832
60.84682087
60.83474089
60.82265826
60.81057291
60.79848474
60.78639365
60.77429956
60.76220237
60.750102
60.73799834
60.72589132
60.71378084
60.70166682
60.68954915
60.67742776
60.66530254
60.65317343
60.64104031
60.62890311
60.61676174
60.6046161
60.59246611
60.58031168
60.56815273
60.55598916
60.54382088
60.53164781
60.51946986
60.50728695
60.49509897
60.48290586
60.47070751
60.45850384
60.44629477
60.4340802
60.42186004
60.40963422
60.39740264
60.38516521
60.37292185
60.36067247
60.34841698
60.33615529
60.32388731
60.31161296
60.29933214
60.28704478
60.27475077
60.26245004
60.25014248
60.23782802
60.22550656
60.21317801
60.20084229
60.1884993
60.17614895
60.16379115
60.15142582
60.13905285
60.12667216
60.11428366
60.10188725
60.08948285
60.07707035
60.06464967
60.05222071
60.03978338
60.02733758
60.01488322
60.00242021
59.98994844
59.97746783
59.96497827
59.95247967
59.93997193
59.92745495
59.91492864
59.90239289
59.88984761
59.87729269
59.86472804
59.85215356
59.83956913
59.82697467
59.81437007
59.80175522
59.78913002
59.77649437
59.76384816
59.75119129
59.73852364
59.72584512
59.71315562
59.70045504
59.68774325
59.67502016
59.66228565
59.64953963
59.63678197
59.62401257
59.61123133
59.59843812
59.58563285
59.57281539
59.55998565
59.54714351
59.53428886
59.52142159
59.50854159
59.49564875
59.48274296
59.4698241
59.45689207
59.44394673
59.43098801
59.41801559
59.40503
59.39202879
59.37901862
59.36598096
59.35295741
59.33986594
59.3268336
59.31370844
59.30059372
59.28767194
0.5
63.21742485
63.21742485
62.91183648
62.86940896
62.85026479
62.8389361
62.83197164
62.8281748
62.82733205
62.82952088
62.83462081
62.84224777
62.85195148
62.86337912
62.87630089
62.89056165
62.90603539
62.92260629
62.94016553
62.95861098
62.97784487
62.99777043
63.01828931
63.03930055
63.06070092
63.08238592
63.104251
63.12619278
63.14811001
63.16990441
63.19148134
63.21275026
63.23362525
63.25402528
63.27387453
63.29310262
63.31164472
63.32944176
63.34644042
63.36259321
63.37785844
63.39220015
63.40558805
63.41799738
63.42940875
63.43980795
63.44918576
63.4575377
63.46486379
63.47116827
63.47645932
63.48074881
63.48405195
63.48638701
63.48777505
63.48823957
63.48780626
63.48650269
63.48435803
63.48140278
63.47766852
63.47318764
63.46799314
63.46211838
63.45559688
63.44846213
63.44074745
63.43248576
63.42370952
63.41445052
63.40473983
63.39460769
63.38408339
63.37319525
63.36197052
63.35043536
63.3386148
63.32653271
63.3142118
63.30167359
63.28893844
63.27602554
63.26295296
63.24973762
63.23639536
63.22294094
63.20938812
63.19574963
63.18203729
63.16826197
63.15443371
63.14056169
63.12665434
63.11271934
63.09876367
63.08479368
63.0708151
63.0568331
63.0428523
63.02887686
63.01491048
63.00095643
62.9870176
62.97309654
62.95919546
62.94531628
62.93146066
62.91763001
62.90382552
62.89004818
62.8762988
62.86257802
62.84888635
62.83522418
62.82159175
62.80798923
62.79441669
62.78087413
62.76736145
62.75387853
62.74042518
62.72700116
62.71360619
62.70023997
62.68690217
62.67359242
62.66031036
62.64705558
62.63382769
62.62062627
62.60745091
62.59430117
62.58117662
62.56807685
62.55500141
62.54194989
62.52892184
62.51591686
62.50293452
62.4899744
62.47703609
62.46411919
62.4512233
62.43834803
62.42549297
62.41265777
62.39984202
62.38704538
62.37426747
62.36150793
62.34876642
62.33604259
62.3233361
62.31064661
62.29797381
62.28531736
62.27267696
62.26005229
62.24744304
62.23484893
62.22226964
62.20970491
62.19715443
62.18461794
62.17209515
62.1595858
62.14708962
62.13460636
62.12213575
62.10967754
62.09723148
62.08479733
62.07237486
62.05996381
62.04756397
62.0351751
62.02279697
62.01042936
61.99807206
61.98572484
61.9733875
61.96105982
61.94874161
61.93643265
61.92413274
61.91184169
61.8995593
61.88728539
61.87501975
61.8627622
61.85051257
61.83827066
61.82603629
61.81380929
61.80158949
61.78937671
61.77717077
61.76497151
61.75277877
61.74059238
61.72841217
61.71623799
61.70406967
61.69190706
61.67975001
61.66759835
61.65545195
61.64331064
61.63117428
61.61904272
61.60691583
61.59479344
61.58267542
61.57056164
61.55845194
61.5463462
61.53424428
61.52214603
61.51005134
61.49796005
61.48587205
61.4737872
61.46170538
61.44962645
61.43755029
61.42547677
61.41340577
61.40133717
61.38927084
61.37720666
61.36514451
61.35308427
61.34102583
61.32896907
61.31691386
61.3048601
61.29280767
61.28075645
61.26870634
61.25665722
61.24460897
61.2325615
61.22051468
61.20846841
61.19642258
61.18437709
61.17233182
61.16028667
61.14824154
61.13619632
61.1241509
61.11210518
61.10005906
61.08801244
61.07596521
61.06391727
61.05186853
61.03981887
61.02776821
61.01571644
61.00366346
60.99160918
60.9795535
60.96749631
60.95543753
60.94337706
60.9313148
60.91925065
60.90718452
60.89511632
60.88304595
60.87097331
60.85889832
60.84682087
60.83474089
60.82265826
60.81057291
60.79848474
60.78639365
60.77429956
60.76220237
60.750102
60.73799834
60.72589132
60.71378084
60.70166682
60.68954915
60.67742776
60.66530254
60.65317343
60.64104031
60.62890311
60.61676174
60.6046161
60.59246611
60.58031168
60.56815273
60.55598916
60.54382088
60.53164781
60.51946986
60.50728695
60.49509897
60.48290586
60.47070751
60.45850384
60.44629477
60.4340802
60.42186004
60.40963422
60.39740264
60.38516521
60.37292185
60.36067247
60.34841698
60.33615529
60.32388731
60.31161296
60.29933214
60.28704478
60.27475077
60.26245004
60.25014248
60.23782802
60.22550656
60.21317801
60.20084229
60.1884993
60.17614895
60.16379115
60.15142582
60.13905285
60.12667216
60.11428366
60.10188725
60.08948285
60.07707035
60.06464967
60.05222071
60.03978338
60.02733758
60.01488322
60.00242021
59.98994844
59.97746783
59.96497827
59.95247967
59.93997193
59.92745495
59.91492864
59.90239289
59.88984761
59.87729269
59.86472804
59.85215356
59.83956913
59.82697467
59.81437007
59.80175522
59.78913002
59.77649437
59.76384816
59.75119129
59.73852364
59.72584512
59.71315562
59.70045504
59.68774325
59.67502016
59.66228565
59.64953963
59.63678197
59.62401257
59.61123133
59.59843812
59.58563285
59.57281539
59.55998565
59.54714351
59.53428886
59.52142159
59.50854159
59.49564875
59.48274296
59.4698241
59.45689207
59.44394673
59.43098801
59.41801559
59.40503
59.39202879
59.37901862
59.36598096
59.35295741
59.33986594
59.3268336
59.31370844
59.30059372
59.28767194
59.28767194
63.20253037
63.20253037
62.91543444
62.87043206
62.85066672
62.83909687
62.83201201
62.82814291
62.82724632
62.8293906
62.83445594
62.84205973
62.85175035
62.86317195
62.87609193
62.89035329
62.90582901
62.92240269
62.93996517
62.95841409
62.97765156
62.99758075
63.01810328
63.03911821
63.06052231
63.0822111
63.10408003
63.12602572
63.14794693
63.16974537
63.19132637
63.21259942
63.23347858
63.2538828
63.27373628
63.29296859
63.31151493
63.32931621
63.3463191
63.3624761
63.37774551
63.39209138
63.4054834
63.4178968
63.42931219
63.43971534
63.44909704
63.45745281
63.46478264
63.47109077
63.47638541
63.48067838
63.48398491
63.48632327
63.48771451
63.48818213
63.48775181
63.48645113
63.48430925
63.48135667
63.47762497
63.47314656
63.46795441
63.4620819
63.45556254
63.44842984
63.4407171
63.43245725
63.42368275
63.41442541
63.40471628
63.39458562
63.38406271
63.37317587
63.36195237
63.35041836
63.33859887
63.32651779
63.31419781
63.30166047
63.28892614
63.27601401
63.26294213
63.24972745
63.23638579
63.22293194
63.20937963
63.19574163
63.18202972
63.16825482
63.15442693
63.14055526
63.12664822
63.11271351
63.09875812
63.08478838
63.07081002
63.05682823
63.04284762
63.02887236
63.01490614
63.00095224
62.98701355
62.97309261
62.95919165
62.94531258
62.93145706
62.91762651
62.9038221
62.89004484
62.87629553
62.86257482
62.84888322
62.8352211
62.82158873
62.80798627
62.79441378
62.78087126
62.76735864
62.75387576
62.74042245
62.72699846
62.71360353
62.70023735
62.68689958
62.67358987
62.66030784
62.6470531
62.63382524
62.62062385
62.60744852
62.59429881
62.58117429
62.56807455
62.55499914
62.54194764
62.52891962
62.51591467
62.50293235
62.48997225
62.47703397
62.4641171
62.45122124
62.43834598
62.42549096
62.41265577
62.39984005
62.38704343
62.37426554
62.36150603
62.34876454
62.33604073
62.32333427
62.3106448
62.29797202
62.2853156
62.27267521
62.26005056
62.24744134
62.23484725
62.22226798
62.20970327
62.19715281
62.18461634
62.17209357
62.15958424
62.14708809
62.13460484
62.12213425
62.10967606
62.09723002
62.08479589
62.07237344
62.05996241
62.04756259
62.03517373
62.02279562
62.01042803
61.99807075
61.98572355
61.97338623
61.96105857
61.94874037
61.93643143
61.92413154
61.91184051
61.89955814
61.88728424
61.87501862
61.86276109
61.85051147
61.83826958
61.82603523
61.81380825
61.80158846
61.78937569
61.77716977
61.76497053
61.75277781
61.74059143
61.72841124
61.71623707
61.70406877
61.69190618
61.67974914
61.6675975
61.65545111
61.64330982
61.63117348
61.61904194
61.60691505
61.59479268
61.58267468
61.57056091
61.55845123
61.54634551
61.53424359
61.52214536
61.51005068
61.49795941
61.48587143
61.47378659
61.46170478
61.44962587
61.43754972
61.42547622
61.41340523
61.40133664
61.38927033
61.37720616
61.36514403
61.35308381
61.34102538
61.32896863
61.31691344
61.30485969
61.29280728
61.28075607
61.26870597
61.25665686
61.24460863
61.23256117
61.22051437
61.20846811
61.1964223
61.18437682
61.17233156
61.16028643
61.14824131
61.1361961
61.12415069
61.11210499
61.10005888
61.08801227
61.07596506
61.06391713
61.0518684
61.03981876
61.02776811
61.01571635
61.00366339
60.99160912
60.97955345
60.96749628
60.95543751
60.94337705
60.9313148
60.91925067
60.90718455
60.89511636
60.883046
60.87097338
60.8588984
60.84682097
60.83474099
60.82265838
60.81057304
60.79848488
60.7863938
60.77429972
60.76220255
60.75010219
60.73799855
60.72589154
60.71378107
60.70166706
60.6895494
60.67742802
60.66530282
60.65317372
60.64104061
60.62890342
60.61676206
60.60461644
60.59246646
60.58031205
60.5681531
60.55598954
60.54382128
60.53164822
60.51947029
60.50728738
60.49509942
60.48290632
60.47070798
60.45850433
60.44629526
60.43408071
60.42186057
60.40963475
60.39740319
60.38516577
60.37292242
60.36067305
60.34841757
60.33615589
60.32388793
60.31161359
60.29933279
60.28704543
60.27475144
60.26245071
60.25014317
60.23782872
60.22550727
60.21317874
60.20084302
60.18850005
60.17614971
60.16379192
60.1514266
60.13905365
60.12667297
60.11428448
60.10188809
60.08948369
60.07707121
60.06465054
60.05222159
60.03978427
60.02733849
60.01488414
60.00242114
59.98994938
59.97746878
59.96497923
59.95248064
59.93997292
59.92745595
59.91492965
59.90239391
59.88984864
59.87729374
59.8647291
59.85215463
59.83957022
59.82697577
59.81437118
59.80175634
59.78913115
59.77649551
59.76384932
59.75119246
59.73852483
59.72584632
59.71315683
59.70045626
59.68774448
59.6750214
59.66228691
59.6495409
59.63678325
59.62401387
59.61123263
59.59843944
59.58563418
59.57281674
59.55998701
59.54714488
59.53429024
59.52142298
59.508543
59.49565017
59.48274439
59.46982555
59.45689353
59.4439482
59.43098949
59.41801709
59.4050315
59.39203036
59.37902001
59.36598285
59.35295816
59.33986884
59.32683313
59.31371163
59.30059549
59.28767361
59.28767361
63.18647735
63.18647735
62.91861603
62.87161424
62.85127552
62.83947488
62.83227215
62.82832964
62.82737681
62.82947464
62.83450422
62.84208364
62.85175938
62.86317249
62.87608775
62.89034649
62.90582076
62.9223936
62.93995551
62.95840395
62.97764091
62.99756953
63.01809143
63.0391057
63.06050913
63.08219724
63.10406551
63.12601058
63.14793119
63.16972908
63.19130958
63.21258219
63.23346095
63.25386484
63.27371803
63.29295013
63.31149631
63.32929748
63.34630033
63.36245735
63.37772683
63.39207283
63.40546503
63.41787865
63.42929431
63.43969779
63.44907985
63.45743601
63.46476627
63.47107487
63.47637
63.48066349
63.48397055
63.48630946
63.48770126
63.48816946
63.48773972
63.48643962
63.48429833
63.48134634
63.47761522
63.47313738
63.4679458
63.46207384
63.45555503
63.44842285
63.44071062
63.43245128
63.42367725
63.41442037
63.40471168
63.39458143
63.38405893
63.37317247
63.36194933
63.35041566
63.33859649
63.32651571
63.31419601
63.30165894
63.28892485
63.27601294
63.26294127
63.24972678
63.23638529
63.2229316
63.20937944
63.19574157
63.18202978
63.16825498
63.15442719
63.1405556
63.12664864
63.112714
63.09875865
63.08478896
63.07081065
63.05682888
63.04284831
63.02887307
63.01490686
63.00095297
62.98701429
62.97309335
62.95919239
62.94531332
62.93145779
62.91762722
62.90382281
62.89004553
62.8762962
62.86257548
62.84888386
62.83522172
62.82158933
62.80798685
62.79441434
62.7808718
62.76735914
62.75387625
62.74042291
62.7269989
62.71360395
62.70023774
62.68689995
62.67359021
62.66030816
62.64705339
62.63382551
62.6206241
62.60744874
62.59429901
62.58117447
62.5680747
62.55499927
62.54194775
62.52891971
62.51591473
62.50293239
62.48997228
62.47703398
62.46411708
62.4512212
62.43834593
62.42549088
62.41265568
62.39983994
62.3870433
62.37426539
62.36150586
62.34876435
62.33604053
62.32333404
62.31064456
62.29797176
62.28531532
62.27267492
62.26005025
62.24744101
62.2348469
62.22226762
62.20970289
62.19715242
62.18461593
62.17209315
62.15958381
62.14708763
62.13460437
62.12213376
62.10967556
62.09722951
62.08479537
62.0723729
62.05996186
62.04756202
62.03517315
62.02279503
62.01042742
61.99807012
61.98572291
61.97338558
61.96105791
61.9487397
61.93643074
61.92413084
61.91183979
61.89955741
61.8872835
61.87501787
61.86276033
61.85051069
61.83826879
61.82603443
61.81380744
61.80158764
61.78937486
61.77716893
61.76496968
61.75277694
61.74059055
61.72841035
61.71623617
61.70406786
61.69190525
61.6797482
61.66759655
61.65545015
61.64330885
61.63117249
61.61904094
61.60691405
61.59479166
61.58267365
61.57055987
61.55845018
61.54634445
61.53424253
61.52214429
61.51004959
61.49795831
61.48587032
61.47378547
61.46170365
61.44962473
61.43754857
61.42547506
61.41340406
61.40133546
61.38926914
61.37720496
61.36514282
61.35308259
61.34102415
61.32896739
61.31691219
61.30485843
61.292806
61.28075479
61.26870468
61.25665556
61.24460732
61.23255985
61.22051304
61.20846677
61.19642095
61.18437546
61.17233019
61.16028505
61.14823992
61.1361947
61.12414929
61.11210357
61.10005746
61.08801084
61.07596361
61.06391568
61.05186694
61.03981728
61.02776663
61.01571486
61.00366189
60.99160761
60.97955193
60.96749475
60.95543597
60.9433755
60.93131324
60.9192491
60.90718297
60.89511477
60.8830444
60.87097177
60.85889678
60.84681934
60.83473936
60.82265674
60.81057139
60.79848322
60.78639213
60.77429804
60.76220086
60.75010049
60.73799684
60.72588982
60.71377935
60.70166532
60.68954766
60.67742627
60.66530106
60.65317194
60.64103883
60.62890163
60.61676026
60.60461463
60.59246464
60.58031021
60.56815126
60.55598769
60.54381942
60.53164635
60.51946841
60.50728549
60.49509752
60.48290441
60.47070606
60.4585024
60.44629332
60.43407876
60.42185861
60.40963279
60.39740121
60.38516378
60.37292043
60.36067105
60.34841556
60.33615387
60.32388589
60.31161154
60.29933073
60.28704337
60.27474936
60.26244863
60.25014107
60.23782661
60.22550515
60.21317661
60.20084089
60.1884979
60.17614755
60.16378976
60.15142442
60.13905146
60.12667077
60.11428227
60.10188587
60.08948146
60.07706897
60.06464829
60.05221933
60.039782
60.0273362
60.01488185
60.00241883
59.98994707
59.97746645
59.96497689
59.95247829
59.93997056
59.92745358
59.91492727
59.90239152
59.88984624
59.87729133
59.86472668
59.85215219
59.83956777
59.82697331
59.8143687
59.80175386
59.78912866
59.77649301
59.7638468
59.75118992
59.73852228
59.72584377
59.71315427
59.70045368
59.68774189
59.6750188
59.6622843
59.64953827
59.63678061
59.62401122
59.61122997
59.59843676
59.58563149
59.57281404
59.55998429
59.54714215
59.5342875
59.52142023
59.50854023
59.49564739
59.4827416
59.46982274
59.45689071
59.44394537
59.43098665
59.41801423
59.40502861
59.3920275
59.379017
59.36598017
59.3529546
59.33986697
59.3268284
59.31371015
59.3005919
59.28767067
59.28767067
63.17050549
63.17050549
62.92149989
62.87275051
62.85187042
62.83984742
62.8325297
62.82851392
62.82750423
62.82955569
62.83455044
62.84210661
62.85176823
62.8631732
62.87608385
62.89034
62.90581283
62.92238481
62.93994612
62.95839401
62.97763039
62.99755839
63.01807962
63.03909319
63.06049591
63.08218333
63.10405093
63.12599535
63.14791537
63.1697127
63.1912927
63.21256485
63.23344321
63.25384676
63.27369967
63.29293154
63.31147757
63.32927864
63.34628144
63.36243847
63.37770803
63.39205415
63.40544653
63.41786038
63.42927632
63.43968011
63.44906254
63.45741909
63.46474979
63.47105886
63.47635447
63.48064848
63.48395608
63.48629554
63.48768791
63.48815668
63.48772753
63.48642802
63.48428732
63.48133591
63.47760538
63.47312812
63.46793711
63.46206571
63.45554744
63.44841579
63.44070408
63.43244523
63.42367169
63.41441526
63.40470702
63.3945772
63.38405509
63.37316902
63.36194624
63.35041291