# vtk DataFile Version 2.0
FlowField
ASCII
DATASET STRUCTURED_GRID
DIMENSIONS 400 1 200
POINTS 80000 float
0 0 0
0.08 0 0
0.16 0 0
0.24 0 0
0.32 0 0
0.4 0 0
0.48 0 0
0.56 0 0
0.64 0 0
0.72 0 0
0.8 0 0
0.88 0 0
0.96 0 0
1.04 0 0
1.12 0 0
1.2 0 0
1.28 0 0
1.36 0 0
1.44 0 0
1.52 0 0
1.6 0 0
1.68 0 0
1.76 0 0
1.84 0 0
1.92 0 0
2 0 0
2.08 0 0
2.16 0 0
2.24 0 0
2.32 0 0
2.4 0 0
2.48 0 0
2.56 0 0
2.64 0 0
2.72 0 0
2.8 0 0
2.88 0 0
2.96 0 0
3.04 0 0
3.12 0 0
3.2 0 0
3.28 0 0
3.36 0 0
3.44 0 0
3.52 0 0
3.6 0 0
3.68 0 0
3.76 0 0
3.84 0 0
3.92 0 0
4 0 0
4.08 0 0
4.16 0 0
4.24 0 0
4.32 0 0
4.4 0 0
4.48 0 0
4.56 0 0
4.64 0 0
4.72 0 0
4.8 0 0
4.88 0 0
4.96 0 0
5.04 0 0
5.12 0 0
5.2 0 0
5.28 0 0
5.36 0 0
5.44 0 0
5.52 0 0
5.6 0 0
5.68 0 0
5.76 0 0
5.84 0 0
5.92 0 0
6 0 0
6.08 0 0
6.16 0 0
6.24 0 0
6.32 0 0
6.4 0 0
6.48 0 0
6.56 0 0
6.64 0 0
6.72 0 0
6.8 0 0
6.88 0 0
6.96 0 0
7.04 0 0
7.12 0 0
7.2 0 0
7.28 0 0
7.36 0 0
7.44 0 0
7.52 0 0
7.6 0 0
7.68 0 0
7.76 0 0
7.84 0 0
7.92 0 0
8 0 0
8.08 0 0
8.16 0 0
8.24 0 0
8.32 0 0
8.4 0 0
8.48 0 0
8.56 0 0
8.64 0 0
8.72 0 0
8.8 0 0
8.88 0 0
8.96 0 0
9.04 0 0
9.12 0 0
9.2 0 0
9.28 0 0
9.36 0 0
9.44 0 0
9.52 0 0
9.6 0 0
9.68 0 0
9.76 0 0
9.84 0 0
9.92 0 0
10 0 0
10.08 0 0
10.16 0 0
10.24 0 0
10.32 0 0
10.4 0 0
10.48 0 0
10.56 0 0
10.64 0 0
10.72 0 0
10.8 0 0
10.88 0 0
10.96 0 0
11.04 0 0
11.12 0 0
11.2 0 0
11.28 0 0
11.36 0 0
11.44 0 0
11.52 0 0
11.6 0 0
11.68 0 0
11.76 0 0
11.84 0 0
11.92 0 0
12 0 0
12.08 0 0
12.16 0 0
12.24 0 0
12.32 0 0
12.4 0 0
12.48 0 0
12.56 0 0
12.64 0 0
12.72 0 0
12.8 0 0
12.88 0 0
12.96 0 0
13.04 0 0
13.12 0 0
13.2 0 0
13.28 0 0
13.36 0 0
13.44 0 0
13.52 0 0
13.6 0 0
13.68 0 0
13.76 0 0
13.84 0 0
13.92 0 0
14 0 0
14.08 0 0
14.16 0 0
14.24 0 0
14.32 0 0
14.4 0 0
14.48 0 0
14.56 0 0
14.64 0 0
14.72 0 0
14.8 0 0
14.88 0 0
14.96 0 0
15.04 0 0
15.12 0 0
15.2 0 0
15.28 0 0
15.36 0 0
15.44 0 0
15.52 0 0
15.6 0 0
15.68 0 0
15.76 0 0
15.84 0 0
15.92 0 0
16 0 0
16.08 0 0
16.16 0 0
16.24 0 0
16.32 0 0
16.4 0 0
16.48 0 0
16.56 0 0
16.64 0 0
16.72 0 0
16.8 0 0
16.88 0 0
16.96 0 0
17.04 0 0
17.12 0 0
17.2 0 0
17.28 0 0
17.36 0 0
17.44 0 0
17.52 0 0
17.6 0 0
17.68 0 0
17.76 0 0
17.84 0 0
17.92 0 0
18 0 0
18.08 0 0
18.16 0 0
18.24 0 0
18.32 0 0
18.4 0 0
18.48 0 0
18.56 0 0
18.64 0 0
18.72 0 0
18.8 0 0
18.88 0 0
18.96 0 0
19.04 0 0
19.12 0 0
19.2 0 0
19.28 0 0
19.36 0 0
19.44 0 0
19.52 0 0
19.6 0 0
19.68 0 0
19.76 0 0
19.84 0 0
19.92 0 0
20 0 0
20.08 0 0
20.16 0 0
20.24 0 0
20.32 0 0
20.4 0 0
20.48 0 0
20.56 0 0
20.64 0 0
20.72 0 0
20.8 0 0
20.88 0 0
20.96 0 0
21.04 0 0
21.12 0 0
21.2 0 0
21.28 0 0
21.36 0 0
21.44 0 0
21.52 0 0
21.6 0 0
21.68 0 0
21.76 0 0
21.84 0 0
21.92 0 0
22 0 0
22.08 0 0
22.16 0 0
22.24 0 0
22.32 0 0
22.4 0 0
22.48 0 0
22.56 0 0
22.64 0 0
22.72 0 0
22.8 0 0
22.88 0 0
22.96 0 0
23.04 0 0
23.12 0 0
23.2 0 0
23.28 0 0
23.36 0 0
23.44 0 0
23.52 0 0
23.6 0 0
23.68 0 0
23.76 0 0
23.84 0 0
23.92 0 0
24 0 0
24.08 0 0
24.16 0 0
24.24 0 0
24.32 0 0
24.4 0 0
24.48 0 0
24.56 0 0
24.64 0 0
24.72 0 0
24.8 0 0
24.88 0 0
24.96 0 0
25.04 0 0
25.12 0 0
25.2 0 0
25.28 0 0
25.36 0 0
25.44 0 0
25.52 0 0
25.6 0 0
25.68 0 0
25.76 0 0
25.84 0 0
25.92 0 0
26 0 0
26.08 0 0
26.16 0 0
26.24 0 0
26.32 0 0
26.4 0 0
26.48 0 0
26.56 0 0
26.64 0 0
26.72 0 0
26.8 0 0
26.88 0 0
26.96 0 0
27.04 0 0
27.12 0 0
27.2 0 0
27.28 0 0
27.36 0 0
27.44 0 0
27.52 0 0
27.6 0 0
27.68 0 0
27.76 0 0
27.84 0 0
27.92 0 0
28 0 0
28.08 0 0
28.16 0 0
28.24 0 0
28.32 0 0
28.4 0 0
28.48 0 0
28.56 0 0
28.64 0 0
28.72 0 0
28.8 0 0
28.88 0 0
28.96 0 0
29.04 0 0
29.12 0 0
29.2 0 0
29.28 0 0
29.36 0 0
29.44 0 0
29.52 0 0
29.6 0 0
29.68 0 0
29.76 0 0
29.84 0 0
29.92 0 0
30 0 0
30.08 0 0
30.16 0 0
30.24 0 0
30.32 0 0
30.4 0 0
30.48 0 0
30.56 0 0
30.64 0 0
30.72 0 0
30.8 0 0
30.88 0 0
30.96 0 0
31.04 0 0
31.12 0 0
31.2 0 0
31.28 0 0
31.36 0 0
31.44 0 0
31.52 0 0
31.6 0 0
31.68 0 0
31.76 0 0
31.84 0 0
31.92 0 0
0 0.005 0
0.08 0.005 0
0.16 0.005 0
0.24 0.005 0
0.32 0.005 0
0.4 0.005 0
0.48 0.005 0
0.56 0.005 0
0.64 0.005 0
0.72 0.005 0
0.8 0.005 0
0.88 0.005 0
0.96 0.005 0
1.04 0.005 0
1.12 0.005 0
1.2 0.005 0
1.28 0.005 0
1.36 0.005 0
1.44 0.005 0
1.52 0.005 0
1.6 0.005 0
1.68 0.005 0
1.76 0.005 0
1.84 0.005 0
1.92 0.005 0
2 0.005 0
2.08 0.005 0
2.16 0.005 0
2.24 0.005 0
2.32 0.005 0
2.4 0.005 0
2.48 0.005 0
2.56 0.005 0
2.64 0.005 0
2.72 0.005 0
2.8 0.005 0
2.88 0.005 0
2.96 0.005 0
3.04 0.005 0
3.12 0.005 0
3.2 0.005 0
3.28 0.005 0
3.36 0.005 0
3.44 0.005 0
3.52 0.005 0
3.6 0.005 0
3.68 0.005 0
3.76 0.005 0
3.84 0.005 0
3.92 0.005 0
4 0.005 0
4.08 0.005 0
4.16 0.005 0
4.24 0.005 0
4.32 0.005 0
4.4 0.005 0
4.48 0.005 0
4.56 0.005 0
4.64 0.005 0
4.72 0.005 0
4.8 0.005 0
4.88 0.005 0
4.96 0.005 0
5.04 0.005 0
5.12 0.005 0
5.2 0.005 0
5.28 0.005 0
5.36 0.005 0
5.44 0.005 0
5.52 0.005 0
5.6 0.005 0
5.68 0.005 0
5.76 0.005 0
5.84 0.005 0
5.92 0.005 0
6 0.005 0
6.08 0.005 0
6.16 0.005 0
6.24 0.005 0
6.32 0.005 0
6.4 0.005 0
6.48 0.005 0
6.56 0.005 0
6.64 0.005 0
6.72 0.005 0
6.8 0.005 0
6.88 0.005 0
6.96 0.005 0
7.04 0.005 0
7.12 0.005 0
7.2 0.005 0
7.28 0.005 0
7.36 0.005 0
7.44 0.005 0
7.52 0.005 0
7.6 0.005 0
7.68 0.005 0
7.76 0.005 0
7.84 0.005 0
7.92 0.005 0
8 0.005 0
8.08 0.005 0
8.16 0.005 0
8.24 0.005 0
8.32 0.005 0
8.4 0.005 0
8.48 0.005 0
8.56 0.005 0
8.64 0.005 0
8.72 0.005 0
8.8 0.005 0
8.88 0.005 0
8.96 0.005 0
9.04 0.005 0
9.12 0.005 0
9.2 0.005 0
9.28 0.005 0
9.36 0.005 0
9.44 0.005 0
9.52 0.005 0
9.6 0.005 0
9.68 0.005 0
9.76 0.005 0
9.84 0.005 0
9.92 0.005 0
10 0.005 0
10.08 0.005 0
10.16 0.005 0
10.24 0.005 0
10.32 0.005 0
10.4 0.005 0
10.48 0.005 0
10.56 0.005 0
10.64 0.005 0
10.72 0.005 0
10.8 0.005 0
10.88 0.005 0
10.96 0.005 0
11.04 0.005 0
11.12 0.005 0
11.2 0.005 0
11.28 0.005 0
11.36 0.005 0
11.44 0.005 0
11.52 0.005 0
11.6 0.005 0
11.68 0.005 0
11.76 0.005 0
11.84 0.005 0
11.92 0.005 0
12 0.005 0
12.08 0.005 0
12.16 0.005 0
12.24 0.005 0
12.32 0.005 0
12.4 0.005 0
12.48 0.005 0
12.56 0.005 0
12.64 0.005 0
12.72 0.005 0
12.8 0.005 0
12.88 0.005 0
12.96 0.005 0
13.04 0.005 0
13.12 0.005 0
13.2 0.005 0
13.28 0.005 0
13.36 0.005 0
13.44 0.005 0
13.52 0.005 0
13.6 0.005 0
13.68 0.005 0
13.76 0.005 0
13.84 0.005 0
13.92 0.005 0
14 0.005 0
14.08 0.005 0
14.16 0.005 0
14.24 0.005 0
14.32 0.005 0
14.4 0.005 0
14.48 0.005 0
14.56 0.005 0
14.64 0.005 0
14.72 0.005 0
14.8 0.005 0
14.88 0.005 0
14.96 0.005 0
15.04 0.005 0
15.12 0.005 0
15.2 0.005 0
15.28 0.005 0
15.36 0.005 0
15.44 0.005 0
15.52 0.005 0
15.6 0.005 0
15.68 0.005 0
15.76 0.005 0
15.84 0.005 0
15.92 0.005 0
16 0.005 0
16.08 0.005 0
16.16 0.005 0
16.24 0.005 0
16.32 0.005 0
16.4 0.005 0
16.48 0.005 0
16.56 0.005 0
16.64 0.005 0
16.72 0.005 0
16.8 0.005 0
16.88 0.005 0
16.96 0.005 0
17.04 0.005 0
17.12 0.005 0
17.2 0.005 0
17.28 0.005 0
17.36 0.005 0
17.44 0.005 0
17.52 0.005 0
17.6 0.005 0
17.68 0.005 0
17.76 0.005 0
17.84 0.005 0
17.92 0.005 0
18 0.005 0
18.08 0.005 0
18.16 0.005 0
18.24 0.005 0
18.32 0.005 0
18.4 0.005 0
18.48 0.005 0
18.56 0.005 0
18.64 0.005 0
18.72 0.005 0
18.8 0.005 0
18.88 0.005 0
18.96 0.005 0
19.04 0.005 0
19.12 0.005 0
19.2 0.005 0
19.28 0.005 0
19.36 0.005 0
19.44 0.005 0
19.52 0.005 0
19.6 0.005 0
19.68 0.005 0
19.76 0.005 0
19.84 0.005 0
19.92 0.005 0
20 0.005 0
20.08 0.005 0
20.16 0.005 0
20.24 0.005 0
20.32 0.005 0
20.4 0.005 0
20.48 0.005 0
20.56 0.005 0
20.64 0.005 0
20.72 0.005 0
20.8 0.005 0
20.88 0.005 0
20.96 0.005 0
21.04 0.005 0
21.12 0.005 0
21.2 0.005 0
21.28 0.005 0
21.36 0.005 0
21.44 0.005 0
21.52 0.005 0
21.6 0.005 0
21.68 0.005 0
21.76 0.005 0
21.84 0.005 0
21.92 0.005 0
22 0.005 0
22.08 0.005 0
22.16 0.005 0
22.24 0.005 0
22.32 0.005 0
22.4 0.005 0
22.48 0.005 0
22.56 0.005 0
22.64 0.005 0
22.72 0.005 0
22.8 0.005 0
22.88 0.005 0
22.96 0.005 0
23.04 0.005 0
23.12 0.005 0
23.2 0.005 0
23.28 0.005 0
23.36 0.005 0
23.44 0.005 0
23.52 0.005 0
23.6 0.005 0
23.68 0.005 0
23.76 0.005 0
23.84 0.005 0
23.92 0.005 0
24 0.005 0
24.08 0.005 0
24.16 0.005 0
24.24 0.005 0
24.32 0.005 0
24.4 0.005 0
24.48 0.005 0
24.56 0.005 0
24.64 0.005 0
24.72 0.005 0
24.8 0.005 0
24.88 0.005 0
24.96 0.005 0
25.04 0.005 0
25.12 0.005 0
25.2 0.005 0
25.28 0.005 0
25.36 0.005 0
25.44 0.005 0
25.52 0.005 0
25.6 0.005 0
25.68 0.005 0
25.76 0.005 0
25.84 0.005 0
25.92 0.005 0
26 0.005 0
26.08 0.005 0
26.16 0.005 0
26.24 0.005 0
26.32 0.005 0
26.4 0.005 0
26.48 0.005 0
26.56 0.005 0
26.64 0.005 0
26.72 0.005 0
26.8 0.005 0
26.88 0.005 0
26.96 0.005 0
27.04 0.005 0
27.12 0.005 0
27.2 0.005 0
27.28 0.005 0
27.36 0.005 0
27.44 0.005 0
27.52 0.005 0
27.6 0.005 0
27.68 0.005 0
27.76 0.005 0
27.84 0.005 0
27.92 0.005 0
28 0.005 0
28.08 0.005 0
28.16 0.005 0
28.24 0.005 0
28.32 0.005 0
28.4 0.005 0
28.48 0.005 0
28.56 0.005 0
28.64 0.005 0
28.72 0.005 0
28.8 0.005 0
28.88 0.005 0
28.96 0.005 0
29.04 0.005 0
29.12 0.005 0
29.2 0.005 0
29.28 0.005 0
29.36 0.005 0
29.44 0.005 0
29.52 0.005 0
29.6 0.005 0
29.68 0.005 0
29.76 0.005 0
29.84 0.005 0
29.92 0.005 0
30 0.005 0
30.08 0.005 0
30.16 0.005 0
30.24 0.005 0
30.32 0.005 0
30.4 0.005 0
30.48 0.005 0
30.56 0.005 0
30.64 0.005 0
30.72 0.005 0
30.8 0.005 0
30.88 0.005 0
30.96 0.005 0
31.04 0.005 0
31.12 0.005 0
31.2 0.005 0
31.28 0.005 0
31.36 0.005 0
31.44 0.005 0
31.52 0.005 0
31.6 0.005 0
31.68 0.005 0
31.76 0.005 0
31.84 0.005 0
31.92 0.005 0
0 0.01 0
0.08 0.01 0
0.16 0.01 0
0.24 0.01 0
0.32 0.01 0
0.4 0.01 0
0.48 0.01 0
0.56 0.01 0
0.64 0.01 0
0.72 0.01 0
0.8 0.01 0
0.88 0.01 0
0.96 0.01 0
1.04 0.01 0
1.12 0.01 0
1.2 0.01 0
1.28 0.01 0
1.36 0.01 0
1.44 0.01 0
1.52 0.01 0
1.6 0.01 0
1.68 0.01 0
1.76 0.01 0
1.84 0.01 0
1.92 0.01 0
2 0.01 0
2.08 0.01 0
2.16 0.01 0
2.24 0.01 0
2.32 0.01 0
2.4 0.01 0
2.48 0.01 0
2.56 0.01 0
2.64 0.01 0
2.72 0.01 0
2.8 0.01 0
2.88 0.01 0
2.96 0.01 0
3.04 0.01 0
3.12 0.01 0
3.2 0.01 0
3.28 0.01 0
3.36 0.01 0
3.44 0.01 0
3.52 0.01 0
3.6 0.01 0
3.68 0.01 0
3.76 0.01 0
3.84 0.01 0
3.92 0.01 0
4 0.01 0
4.08 0.01 0
4.16 0.01 0
4.24 0.01 0
4.32 0.01 0
4.4 0.01 0
4.48 0.01 0
4.56 0.01 0
4.64 0.01 0
4.72 0.01 0
4.8 0.01 0
4.88 0.01 0
4.96 0.01 0
5.04 0.01 0
5.12 0.01 0
[...]
POINT_DATA 80000

SCALARS p float 1
LOOKUP_TABLE default
1
56.77270823
56.47096939
56.42980598
56.4097123
56.39528953
56.38328459
56.37253704
56.36253465
56.35302466
56.3438738
56.33500837
56.3263857
56.31797943
56.3097718
56.30174971
56.29390278
56.28622226
56.27870003
56.27132798
56.2640982
56.2570037
56.25003878
56.24319845
56.23647741
56.22986969
56.22336965
56.21697345
56.21067959
56.20448772
56.19839671
56.19240386
56.18650626
56.18070343
56.17499927
56.16940132
56.16391741
56.15855148
56.15330099
56.1481574
56.14310929
56.13814612
56.1332606
56.12844852
56.12370661
56.11902986
56.11441007
56.10983628
56.10529691
56.10078252
56.09628799
56.09181325
56.0873625
56.08294236
56.07855963
56.07421942
56.06992401
56.06567252
56.06146137
56.05728507
56.05313721
56.04901134
56.04490162
56.04080319
56.03671228
56.03262616
56.02854297
56.02446152
56.02038108
56.01630124
56.01222175
56.00814249
56.00406339
55.99998441
55.9959055
55.99182665
55.98774784
55.98366905
55.97959028
55.97551152
55.97143275
55.967354
55.96327524
55.95919649
55.95511775
55.95103902
55.9469603
55.9428816
55.93880291
55.93472425
55.93064562
55.92656701
55.92248842
55.91840987
55.91433135
55.91025287
55.90617442
55.902096
55.89801763
55.89393929
55.88986099
55.88578273
55.88170451
55.87762634
55.8735482
55.86947011
55.86539205
55.86131404
55.85723606
55.85315813
55.84908023
55.84500237
55.84092455
55.83684676
55.83276901
55.82869129
55.8246136
55.82053594
55.81645831
55.81238071
55.80830312
55.80422556
55.80014802
55.7960705
55.79199299
55.7879155
55.78383801
55.77976053
55.77568306
55.77160559
55.76752812
55.76345064
55.75937316
55.75529567
55.75121817
55.74714065
55.74306311
55.73898555
55.73490797
55.73083035
55.72675271
55.72267503
55.71859732
55.71451956
55.71044176
55.70636391
55.70228601
55.69820805
55.69413004
55.69005197
55.68597383
55.68189563
55.67781736
55.67373901
55.66966059
55.66558208
55.66150349
55.65742482
55.65334605
55.6492672
55.64518824
55.64110919
55.63703004
55.63295078
55.62887142
55.62479194
55.62071235
55.61663264
55.61255282
55.60847287
55.6043928
55.6003126
55.59623227
55.59215181
55.58807121
55.58399048
55.5799096
55.57582859
55.57174743
55.56766612
55.56358466
55.55950305
55.55542129
55.55133938
55.5472573
55.54317507
55.53909267
55.53501011
55.53092739
55.52684449
55.52276143
55.5186782
55.5145948
55.51051122
55.50642746
55.50234353
55.49825942
55.49417513
55.49009066
55.486006
55.48192116
55.47783614
55.47375092
55.46966552
55.46557993
55.46149414
55.45740817
55.453322
55.44923564
55.44514908
55.44106232
55.43697537
55.43288822
55.42880087
55.42471332
55.42062557
55.41653762
55.41244946
55.4083611
55.40427253
55.40018376
55.39609479
55.3920056
55.38791621
55.38382661
55.37973681
55.37564679
55.37155656
55.36746612
55.36337547
55.35928461
55.35519353
55.35110225
55.34701074
55.34291903
55.3388271
55.33473495
55.33064259
55.32655001
55.32245722
55.31836421
55.31427098
55.31017753
55.30608386
55.30198998
55.29789587
55.29380155
55.28970701
55.28561224
55.28151726
55.27742205
55.27332662
55.26923097
55.2651351
55.261039
55.25694269
55.25284614
55.24874938
55.24465239
55.24055517
55.23645773
55.23236007
55.22826218
55.22416407
55.22006572
55.21596716
55.21186836
55.20776934
55.20367009
55.19957062
55.19547091
55.19137098
55.18727082
55.18317043
55.17906981
55.17496896
55.17086789
55.16676658
55.16266504
55.15856327
55.15446128
55.15035905
55.14625658
55.14215389
55.13805097
55.13394781
55.12984442
55.1257408
55.12163694
55.11753286
55.11342853
55.10932398
55.10521919
55.10111416
55.0970089
55.09290341
55.08879768
55.08469172
55.08058552
55.07647908
55.07237241
55.0682655
55.06415835
55.06005097
55.05594335
55.05183549
55.04772739
55.04361906
55.03951049
55.03540167
55.03129262
55.02718333
55.0230738
55.01896403
55.01485403
55.01074378
55.00663329
55.00252255
54.99841158
54.99430037
54.99018891
54.98607721
54.98196528
54.97785309
54.97374067
54.969628
54.96551509
54.96140193
54.95728853
54.95317489
54.949061
54.94494687
54.9408325
54.93671787
54.93260301
54.92848789
54.92437253
54.92025693
54.91614108
54.91202498
54.90790863
54.90379204
54.8996752
54.89555811
54.89144078
54.88732319
54.88320536
54.87908728
54.87496894
54.87085036
54.86673153
54.86261245
54.85849312
54.85437354
54.85025371
54.84613363
54.8420133
54.83789271
54.83377187
54.82965079
54.82552944
54.82140786
54.817286
54.81316391
54.80904155
54.80491895
54.80079609
54.79667298
54.7925496
54.78842599
54.78430211
54.78017799
54.77605359
54.77192896
54.76780404
54.76367891
54.75955348
54.75542784
54.75130189
54.74717575
54.74304927
54.73892263
54.73479562
54.73066848
54.72654094
54.72241329
54.71828523
54.71415706
54.71002849
54.70589977
54.7017707
54.69764136
54.69351187
54.68938173
54.68525199
54.68112063
54.67699146
54.67285776
54.66873952
0.5
56.77270823
56.77270823
56.47096939
56.42980598
56.4097123
56.39528953
56.38328459
56.37253704
56.36253465
56.35302466
56.3438738
56.33500837
56.3263857
56.31797943
56.3097718
56.30174971
56.29390278
56.28622226
56.27870003
56.27132798
56.2640982
56.2570037
56.25003878
56.24319845
56.23647741
56.22986969
56.22336965
56.21697345
56.21067959
56.20448772
56.19839671
56.19240386
56.18650626
56.18070343
56.17499927
56.16940132
56.16391741
56.15855148
56.15330099
56.1481574
56.14310929
56.13814612
56.1332606
56.12844852
56.12370661
56.11902986
56.11441007
56.10983628
56.10529691
56.10078252
56.09628799
56.09181325
56.0873625
56.08294236
56.07855963
56.07421942
56.06992401
56.06567252
56.06146137
56.05728507
56.05313721
56.04901134
56.04490162
56.04080319
56.03671228
56.03262616
56.02854297
56.02446152
56.02038108
56.01630124
56.01222175
56.00814249
56.00406339
55.99998441
55.9959055
55.99182665
55.98774784
55.98366905
55.97959028
55.97551152
55.97143275
55.967354
55.96327524
55.95919649
55.95511775
55.95103902
55.9469603
55.9428816
55.93880291
55.93472425
55.93064562
55.92656701
55.92248842
55.91840987
55.91433135
55.91025287
55.90617442
55.902096
55.89801763
55.89393929
55.88986099
55.88578273
55.88170451
55.87762634
55.8735482
55.86947011
55.86539205
55.86131404
55.85723606
55.85315813
55.84908023
55.84500237
55.84092455
55.83684676
55.83276901
55.82869129
55.8246136
55.82053594
55.81645831
55.81238071
55.80830312
55.80422556
55.80014802
55.7960705
55.79199299
55.7879155
55.78383801
55.77976053
55.77568306
55.77160559
55.76752812
55.76345064
55.75937316
55.75529567
55.75121817
55.74714065
55.74306311
55.73898555
55.73490797
55.73083035
55.72675271
55.72267503
55.71859732
55.71451956
55.71044176
55.70636391
55.70228601
55.69820805
55.69413004
55.69005197
55.68597383
55.68189563
55.67781736
55.67373901
55.66966059
55.66558208
55.66150349
55.65742482
55.65334605
55.6492672
55.64518824
55.64110919
55.63703004
55.63295078
55.62887142
55.62479194
55.62071235
55.61663264
55.61255282
55.60847287
55.6043928
55.6003126
55.59623227
55.59215181
55.58807121
55.58399048
55.5799096
55.57582859
55.57174743
55.56766612
55.56358466
55.55950305
55.55542129
55.55133938
55.5472573
55.54317507
55.53909267
55.53501011
55.53092739
55.52684449
55.52276143
55.5186782
55.5145948
55.51051122
55.50642746
55.50234353
55.49825942
55.49417513
55.49009066
55.486006
55.48192116
55.47783614
55.47375092
55.46966552
55.46557993
55.46149414
55.45740817
55.453322
55.44923564
55.44514908
55.44106232
55.43697537
55.43288822
55.42880087
55.42471332
55.42062557
55.41653762
55.41244946
55.4083611
55.40427253
55.40018376
55.39609479
55.3920056
55.38791621
55.38382661
55.37973681
55.37564679
55.37155656
55.36746612
55.36337547
55.35928461
55.35519353
55.35110225
55.34701074
55.34291903
55.3388271
55.33473495
55.33064259
55.32655001
55.32245722
55.31836421
55.31427098
55.31017753
55.30608386
55.30198998
55.29789587
55.29380155
55.28970701
55.28561224
55.28151726
55.27742205
55.27332662
55.26923097
55.2651351
55.261039
55.25694269
55.25284614
55.24874938
55.24465239
55.24055517
55.23645773
55.23236007
55.22826218
55.22416407
55.22006572
55.21596716
55.21186836
55.20776934
55.20367009
55.19957062
55.19547091
55.19137098
55.18727082
55.18317043
55.17906981
55.17496896
55.17086789
55.16676658
55.16266504
55.15856327
55.15446128
55.15035905
55.14625658
55.14215389
55.13805097
55.13394781
55.12984442
55.1257408
55.12163694
55.11753286
55.11342853
55.10932398
55.10521919
55.10111416
55.0970089
55.09290341
55.08879768
55.08469172
55.08058552
55.07647908
55.07237241
55.0682655
55.06415835
55.06005097
55.05594335
55.05183549
55.04772739
55.04361906
55.03951049
55.03540167
55.03129262
55.02718333
55.0230738
55.01896403
55.01485403
55.01074378
55.00663329
55.00252255
54.99841158
54.99430037
54.99018891
54.98607721
54.98196528
54.97785309
54.97374067
54.969628
54.96551509
54.96140193
54.95728853
54.95317489
54.949061
54.94494687
54.9408325
54.93671787
54.93260301
54.92848789
54.92437253
54.92025693
54.91614108
54.91202498
54.90790863
54.90379204
54.8996752
54.89555811
54.89144078
54.88732319
54.88320536
54.87908728
54.87496894
54.87085036
54.86673153
54.86261245
54.85849312
54.85437354
54.85025371
54.84613363
54.8420133
54.83789271
54.83377187
54.82965079
54.82552944
54.82140786
54.817286
54.81316391
54.80904155
54.80491895
54.80079609
54.79667298
54.7925496
54.78842599
54.78430211
54.78017799
54.77605359
54.77192896
54.76780404
54.76367891
54.75955348
54.75542784
54.75130189
54.74717575
54.74304927
54.73892263
54.73479562
54.73066848
54.72654094
54.72241329
54.71828523
54.71415706
54.71002849
54.70589977
54.7017707
54.69764136
54.69351187
54.68938173
54.68525199
54.68112063
54.67699146
54.67285776
54.66873952
54.66873952
56.75812628
56.75812628
56.47480511
56.43106124
56.41034739
56.39568389
56.38355613
56.37273634
56.36268764
56.35314621
56.34397307
56.33509132
56.32645635
56.31804056
56.30982542
56.30179728
56.29394539
56.28626073
56.27873499
56.27135994
56.26412757
56.2570308
56.25006387
56.24322175
56.2364991
56.22988994
56.22338859
56.2169912
56.21069623
56.2045033
56.1984113
56.19241752
56.18651906
56.18071542
56.17501043
56.1694116
56.16392676
56.15855987
56.15330844
56.148164
56.14311515
56.13815135
56.13326528
56.1284527
56.1237103
56.1190331
56.1144129
56.10983878
56.10529915
56.10078458
56.09628992
56.09181507
56.0873642
56.0829439
56.07856098
56.07422056
56.06992491
56.06567319
56.06146183
56.05728533
56.05313732
56.04901133
56.04490152
56.04080303
56.03671208
56.03262593
56.02854273
56.02446127
56.02038083
56.01630098
56.01222149
56.00814223
56.00406313
55.99998415
55.99590524
55.99182639
55.98774758
55.98366879
55.97959002
55.97551125
55.97143249
55.96735373
55.96327498
55.95919623
55.95511749
55.95103875
55.94696004
55.94288133
55.93880265
55.93472399
55.93064535
55.92656674
55.92248816
55.91840961
55.91433109
55.9102526
55.90617415
55.90209574
55.89801736
55.89393902
55.88986073
55.88578247
55.88170425
55.87762607
55.87354794
55.86946984
55.86539179
55.86131377
55.8572358
55.85315786
55.84907997
55.84500211
55.84092429
55.8368465
55.83276875
55.82869103
55.82461334
55.82053568
55.81645805
55.81238044
55.80830286
55.8042253
55.80014776
55.79607024
55.79199273
55.78791523
55.78383775
55.77976027
55.7756828
55.77160533
55.76752785
55.76345038
55.7593729
55.75529541
55.7512179
55.74714038
55.74306285
55.73898529
55.7349077
55.73083009
55.72675245
55.72267477
55.71859705
55.71451929
55.71044149
55.70636364
55.70228574
55.69820779
55.69412978
55.69005171
55.68597357
55.68189537
55.67781709
55.67373875
55.66966032
55.66558182
55.66150323
55.65742456
55.65334579
55.64926694
55.64518798
55.64110893
55.63702978
55.63295052
55.62887115
55.62479168
55.62071209
55.61663238
55.61255256
55.60847261
55.60439254
55.60031234
55.59623201
55.59215155
55.58807095
55.58399022
55.57990934
55.57582833
55.57174717
55.56766586
55.5635844
55.5595028
55.55542104
55.55133912
55.54725704
55.54317481
55.53909242
55.53500986
55.53092713
55.52684424
55.52276118
55.51867795
55.51459454
55.51051097
55.50642721
55.50234328
55.49825917
55.49417488
55.49009041
55.48600575
55.48192091
55.47783589
55.47375067
55.46966527
55.46557968
55.4614939
55.45740792
55.45332175
55.44923539
55.44514883
55.44106208
55.43697513
55.43288798
55.42880063
55.42471308
55.42062532
55.41653737
55.41244921
55.40836085
55.40427229
55.40018352
55.39609454
55.39200536
55.38791597
55.38382637
55.37973656
55.37564655
55.37155632
55.36746588
55.36337523
55.35928437
55.3551933
55.35110201
55.34701051
55.34291879
55.33882686
55.33473472
55.33064235
55.32654978
55.32245698
55.31836397
55.31427074
55.3101773
55.30608363
55.30198975
55.29789564
55.29380132
55.28970678
55.28561201
55.28151703
55.27742182
55.27332639
55.26923074
55.26513487
55.26103877
55.25694246
55.25284592
55.24874915
55.24465216
55.24055495
55.23645751
55.23235984
55.22826196
55.22416384
55.2200655
55.21596693
55.21186814
55.20776912
55.20366987
55.19957039
55.19547069
55.19137076
55.1872706
55.18317021
55.17906959
55.17496874
55.17086767
55.16676636
55.16266482
55.15856306
55.15446106
55.15035883
55.14625637
55.14215367
55.13805075
55.13394759
55.1298442
55.12574058
55.12163673
55.11753264
55.11342832
55.10932376
55.10521897
55.10111395
55.09700869
55.0929032
55.08879747
55.08469151
55.08058531
55.07647887
55.0723722
55.06826529
55.06415814
55.06005076
55.05594314
55.05183528
55.04772719
55.04361885
55.03951028
55.03540147
55.03129242
55.02718313
55.0230736
55.01896383
55.01485382
55.01074357
55.00663308
55.00252235
54.99841138
54.99430017
54.99018871
54.98607701
54.98196507
54.97785289
54.97374047
54.9696278
54.96551489
54.96140173
54.95728834
54.95317469
54.94906081
54.94494668
54.9408323
54.93671768
54.93260281
54.9284877
54.92437234
54.92025673
54.91614088
54.91202479
54.90790844
54.90379185
54.89967501
54.89555792
54.89144058
54.887323
54.88320517
54.87908709
54.87496876
54.87085018
54.86673135
54.86261227
54.85849294
54.85437336
54.85025352
54.84613344
54.84201311
54.83789253
54.83377169
54.8296506
54.82552926
54.82140767
54.81728582
54.81316373
54.80904137
54.80491877
54.8007959
54.7966728
54.79254942
54.78842581
54.78430193
54.78017781
54.77605341
54.77192878
54.76780387
54.76367873
54.7595533
54.75542766
54.75130171
54.74717557
54.74304909
54.73892245
54.73479545
54.7306683
54.72654077
54.72241311
54.71828506
54.71415688
54.71002832
54.70589959
54.70177053
54.69764119
54.69351169
54.68938157
54.68525179
54.6811205
54.67699122
54.67285784
54.66873935
54.66873935
56.74214162
56.74214162
56.47799351
56.43224841
56.41096338
56.39607015
56.38382355
56.37293326
56.36283911
56.35326667
56.3440715
56.33517356
56.32652636
56.31810112
56.30987851
56.30184435
56.29398752
56.28629874
56.27876952
56.2713915
56.26415657
56.25705756
56.25008864
56.24324474
56.2365205
56.22990991
56.22340728
56.2170087
56.21071262
56.20451865
56.19842565
56.19243096
56.18653164
56.18072717
56.17502133
56.1694216
56.16393581
56.15856796
56.15331563
56.14817038
56.14312083
56.13815644
56.13326984
56.12845677
56.12371391
56.11903628
56.11441572
56.1098413
56.10530146
56.10078673
56.09629194
56.09181695
56.08736594
56.08294547
56.07856234
56.07422169
56.06992581
56.06567387
56.06146231
56.05728566
56.05313751
56.04901142
56.04490155
56.04080301
56.03671203
56.03262587
56.02854266
56.02446119
56.02038075
56.01630089
56.0122214
56.00814214
56.00406304
55.99998405
55.99590515
55.9918263
55.98774749
55.9836687
55.97958993
55.97551116
55.9714324
55.96735364
55.96327488
55.95919613
55.95511739
55.95103866
55.94695994
55.94288124
55.93880256
55.9347239
55.93064526
55.92656665
55.92248807
55.91840951
55.91433099
55.91025251
55.90617406
55.90209564
55.89801727
55.89393893
55.88986063
55.88578237
55.88170415
55.87762598
55.87354784
55.86946975
55.86539169
55.86131368
55.8572357
55.85315777
55.84907987
55.84500201
55.84092419
55.8368464
55.83276865
55.82869093
55.82461324
55.82053558
55.81645795
55.81238034
55.80830276
55.8042252
55.80014766
55.79607014
55.79199263
55.78791514
55.78383765
55.77976017
55.7756827
55.77160523
55.76752776
55.76345028
55.7593728
55.75529531
55.7512178
55.74714028
55.74306275
55.73898519
55.7349076
55.73082999
55.72675235
55.72267467
55.71859695
55.71451919
55.71044139
55.70636354
55.70228564
55.69820769
55.69412968
55.69005161
55.68597347
55.68189527
55.67781699
55.67373865
55.66966022
55.66558172
55.66150313
55.65742445
55.65334569
55.64926683
55.64518788
55.64110883
55.63702968
55.63295042
55.62887105
55.62479158
55.62071199
55.61663228
55.61255245
55.60847251
55.60439243
55.60031223
55.59623191
55.59215144
55.58807085
55.58399011
55.57990924
55.57582822
55.57174706
55.56766576
55.5635843
55.55950269
55.55542093
55.55133901
55.54725694
55.54317471
55.53909231
55.53500975
55.53092703
55.52684413
55.52276107
55.51867784
55.51459444
55.51051086
55.50642711
55.50234317
55.49825906
55.49417477
55.4900903
55.48600565
55.4819208
55.47783578
55.47375057
55.46966516
55.46557957
55.46149379
55.45740781
55.45332165
55.44923528
55.44514872
55.44106197
55.43697502
55.43288787
55.42880052
55.42471297
55.42062522
55.41653726
55.41244911
55.40836075
55.40427218
55.40018341
55.39609444
55.39200525
55.38791586
55.38382626
55.37973646
55.37564644
55.37155621
55.36746577
55.36337512
55.35928426
55.35519319
55.3511019
55.3470104
55.34291868
55.33882675
55.33473461
55.33064224
55.32654967
55.32245687
55.31836386
55.31427063
55.31017719
55.30608352
55.30198964
55.29789553
55.29380121
55.28970666
55.2856119
55.28151692
55.27742171
55.27332628
55.26923063
55.26513476
55.26103866
55.25694235
55.2528458
55.24874904
55.24465205
55.24055484
55.2364574
55.23235973
55.22826184
55.22416373
55.22006539
55.21596682
55.21186803
55.20776901
55.20366976
55.19957028
55.19547058
55.19137065
55.18727049
55.1831701
55.17906948
55.17496863
55.17086755
55.16676625
55.16266471
55.15856294
55.15446094
55.15035871
55.14625625
55.14215356
55.13805064
55.13394748
55.12984409
55.12574047
55.12163661
55.11753253
55.11342821
55.10932365
55.10521886
55.10111384
55.09700858
55.09290308
55.08879736
55.08469139
55.08058519
55.07647875
55.07237208
55.06826517
55.06415803
55.06005064
55.05594302
55.05183517
55.04772707
55.04361874
55.03951016
55.03540135
55.0312923
55.02718301
55.02307348
55.01896371
55.01485371
55.01074346
55.00663297
55.00252224
54.99841126
54.99430005
54.99018859
54.9860769
54.98196496
54.97785278
54.97374035
54.96962768
54.96551477
54.96140162
54.95728822
54.95317458
54.94906069
54.94494656
54.94083218
54.93671756
54.93260269
54.92848758
54.92437222
54.92025662
54.91614077
54.91202467
54.90790832
54.90379173
54.89967489
54.8955578
54.89144047
54.88732288
54.88320505
54.87908697
54.87496864
54.87085006
54.86673123
54.86261215
54.85849282
54.85437324
54.8502534
54.84613332
54.84201299
54.83789241
54.83377157
54.82965048
54.82552914
54.82140755
54.8172857
54.81316361
54.80904125
54.80491865
54.80079578
54.79667268
54.7925493
54.78842569
54.78430181
54.78017769
54.77605329
54.77192866
54.76780375
54.76367861
54.75955318
54.75542754
54.75130159
54.74717545
54.74304897
54.73892233
54.73479533
54.73066817
54.72654065
54.72241299
54.71828494
54.71415676
54.7100282
54.70589947
54.70177041
54.69764107
54.69351156
54.68938145
54.68525165
54.68112041
54.67699104
54.67285792
54.66873924
54.66873924
56.72622676
56.72622676
56.48088009
56.43338842
56.41156495
56.39645017
56.38408778
56.37312833
56.36298935
56.35338621
56.34416915
56.3352551
56.32659571
56.31816104
56.30993098
56.30189082
56.29402907
56.2863362
56.27880352
56.27142255
56.26418507
56.25708384
56.25011295
56.24326729
56.23654149
56.22992949
56.22342558
56.21702583
56.21072864
56.20453361
56.19843963
56.19244404
56.18654387
56.18073855
56.17503183
56.16943117
56.16394442
56.15857562
56.15332242
56.1481764
56.1431262
56.13816124
56.13327412
56.12846057
56.12371727
56.11903925
56.11441837
56.1098437
56.10530367
56.1007888
56.09629388
56.09181875
56.08736756
56.08294689
56.07856353
56.07422265
56.06992654
56.0656744
56.06146266
56.05728587
56.05313762
56.04901146
56.04490154
56.04080297
56.03671197
56.0326258
56.02854258
56.02446111
56.02038066
56.01630081
56.01222132
56.00814205
56.00406295
55.99998396
55.99590506
55.99182621
55.98774739
55.98366861
55.97958983