# vtk DataFile Version 2.0
FlowField
ASCII
DATASET STRUCTURED_GRID
DIMENSIONS 400 1 200
POINTS 80000 float
0 0 0
0.08 0 0
0.16 0 0
0.24 0 0
0.32 0 0
0.4 0 0
0.48 0 0
0.56 0 0
0.64 0 0
0.72 0 0
0.8 0 0
0.88 0 0
0.96 0 0
1.04 0 0
1.12 0 0
1.2 0 0
1.28 0 0
1.36 0 0
1.44 0 0
1.52 0 0
1.6 0 0
1.68 0 0
1.76 0 0
1.84 0 0
1.92 0 0
2 0 0
2.08 0 0
2.16 0 0
2.24 0 0
2.32 0 0
2.4 0 0
2.48 0 0
2.56 0 0
2.64 0 0
2.72 0 0
2.8 0 0
2.88 0 0
2.96 0 0
3.04 0 0
3.12 0 0
3.2 0 0
3.28 0 0
3.36 0 0
3.44 0 0
3.52 0 0
3.6 0 0
3.68 0 0
3.76 0 0
3.84 0 0
3.92 0 0
4 0 0
4.08 0 0
4.16 0 0
4.24 0 0
4.32 0 0
4.4 0 0
4.48 0 0
4.56 0 0
4.64 0 0
4.72 0 0
4.8 0 0
4.88 0 0
4.96 0 0
5.04 0 0
5.12 0 0
5.2 0 0
5.28 0 0
5.36 0 0
5.44 0 0
5.52 0 0
5.6 0 0
5.68 0 0
5.76 0 0
5.84 0 0
5.92 0 0
6 0 0
6.08 0 0
6.16 0 0
6.24 0 0
6.32 0 0
6.4 0 0
6.48 0 0
6.56 0 0
6.64 0 0
6.72 0 0
6.8 0 0
6.88 0 0
6.96 0 0
7.04 0 0
7.12 0 0
7.2 0 0
7.28 0 0
7.36 0 0
7.44 0 0
7.52 0 0
7.6 0 0
7.68 0 0
7.76 0 0
7.84 0 0
7.92 0 0
8 0 0
8.08 0 0
8.16 0 0
8.24 0 0
8.32 0 0
8.4 0 0
8.48 0 0
8.56 0 0
8.64 0 0
8.72 0 0
8.8 0 0
8.88 0 0
8.96 0 0
9.04 0 0
9.12 0 0
9.2 0 0
9.28 0 0
9.36 0 0
9.44 0 0
9.52 0 0
9.6 0 0
9.68 0 0
9.76 0 0
9.84 0 0
9.92 0 0
10 0 0
10.08 0 0
10.16 0 0
10.24 0 0
10.32 0 0
10.4 0 0
10.48 0 0
10.56 0 0
10.64 0 0
10.72 0 0
10.8 0 0
10.88 0 0
10.96 0 0
11.04 0 0
11.12 0 0
11.2 0 0
11.28 0 0
11.36 0 0
11.44 0 0
11.52 0 0
11.6 0 0
11.68 0 0
11.76 0 0
11.84 0 0
11.92 0 0
12 0 0
12.08 0 0
12.16 0 0
12.24 0 0
12.32 0 0
12.4 0 0
12.48 0 0
12.56 0 0
12.64 0 0
12.72 0 0
12.8 0 0
12.88 0 0
12.96 0 0
13.04 0 0
13.12 0 0
13.2 0 0
13.28 0 0
13.36 0 0
13.44 0 0
13.52 0 0
13.6 0 0
13.68 0 0
13.76 0 0
13.84 0 0
13.92 0 0
14 0 0
14.08 0 0
14.16 0 0
14.24 0 0
14.32 0 0
14.4 0 0
14.48 0 0
14.56 0 0
14.64 0 0
14.72 0 0
14.8 0 0
14.88 0 0
14.96 0 0
15.04 0 0
15.12 0 0
15.2 0 0
15.28 0 0
15.36 0 0
15.44 0 0
15.52 0 0
15.6 0 0
15.68 0 0
15.76 0 0
15.84 0 0
15.92 0 0
16 0 0
16.08 0 0
16.16 0 0
16.24 0 0
16.32 0 0
16.4 0 0
16.48 0 0
16.56 0 0
16.64 0 0
16.72 0 0
16.8 0 0
16.88 0 0
16.96 0 0
17.04 0 0
17.12 0 0
17.2 0 0
17.28 0 0
17.36 0 0
17.44 0 0
17.52 0 0
17.6 0 0
17.68 0 0
17.76 0 0
17.84 0 0
17.92 0 0
18 0 0
18.08 0 0
18.16 0 0
18.24 0 0
18.32 0 0
18.4 0 0
18.48 0 0
18.56 0 0
18.64 0 0
18.72 0 0
18.8 0 0
18.88 0 0
18.96 0 0
19.04 0 0
19.12 0 0
19.2 0 0
19.28 0 0
19.36 0 0
19.44 0 0
19.52 0 0
19.6 0 0
19.68 0 0
19.76 0 0
19.84 0 0
19.92 0 0
20 0 0
20.08 0 0
20.16 0 0
20.24 0 0
20.32 0 0
20.4 0 0
20.48 0 0
20.56 0 0
20.64 0 0
20.72 0 0
20.8 0 0
20.88 0 0
20.96 0 0
21.04 0 0
21.12 0 0
21.2 0 0
21.28 0 0
21.36 0 0
21.44 0 0
21.52 0 0
21.6 0 0
21.68 0 0
21.76 0 0
21.84 0 0
21.92 0 0
22 0 0
22.08 0 0
22.16 0 0
22.24 0 0
22.32 0 0
22.4 0 0
22.48 0 0
22.56 0 0
22.64 0 0
22.72 0 0
22.8 0 0
22.88 0 0
22.96 0 0
23.04 0 0
23.12 0 0
23.2 0 0
23.28 0 0
23.36 0 0
23.44 0 0
23.52 0 0
23.6 0 0
23.68 0 0
23.76 0 0
23.84 0 0
23.92 0 0
24 0 0
24.08 0 0
24.16 0 0
24.24 0 0
24.32 0 0
24.4 0 0
24.48 0 0
24.56 0 0
24.64 0 0
24.72 0 0
24.8 0 0
24.88 0 0
24.96 0 0
25.04 0 0
25.12 0 0
25.2 0 0
25.28 0 0
25.36 0 0
25.44 0 0
25.52 0 0
25.6 0 0
25.68 0 0
25.76 0 0
25.84 0 0
25.92 0 0
26 0 0
26.08 0 0
26.16 0 0
26.24 0 0
26.32 0 0
26.4 0 0
26.48 0 0
26.56 0 0
26.64 0 0
26.72 0 0
26.8 0 0
26.88 0 0
26.96 0 0
27.04 0 0
27.12 0 0
27.2 0 0
27.28 0 0
27.36 0 0
27.44 0 0
27.52 0 0
27.6 0 0
27.68 0 0
27.76 0 0
27.84 0 0
27.92 0 0
28 0 0
28.08 0 0
28.16 0 0
28.24 0 0
28.32 0 0
28.4 0 0
28.48 0 0
28.56 0 0
28.64 0 0
28.72 0 0
28.8 0 0
28.88 0 0
28.96 0 0
29.04 0 0
29.12 0 0
29.2 0 0
29.28 0 0
29.36 0 0
29.44 0 0
29.52 0 0
29.6 0 0
29.68 0 0
29.76 0 0
29.84 0 0
29.92 0 0
30 0 0
30.08 0 0
30.16 0 0
30.24 0 0
30.32 0 0
30.4 0 0
30.48 0 0
30.56 0 0
30.64 0 0
30.72 0 0
30.8 0 0
30.88 0 0
30.96 0 0
31.04 0 0
31.12 0 0
31.2 0 0
31.28 0 0
31.36 0 0
31.44 0 0
31.52 0 0
31.6 0 0
31.68 0 0
31.76 0 0
31.84 0 0
31.92 0 0
0 0.005 0
0.08 0.005 0
0.16 0.005 0
0.24 0.005 0
0.32 0.005 0
0.4 0.005 0
0.48 0.005 0
0.56 0.005 0
0.64 0.005 0
0.72 0.005 0
0.8 0.005 0
0.88 0.005 0
0.96 0.005 0
1.04 0.005 0
1.12 0.005 0
1.2 0.005 0
1.28 0.005 0
1.36 0.005 0
1.44 0.005 0
1.52 0.005 0
1.6 0.005 0
1.68 0.005 0
1.76 0.005 0
1.84 0.005 0
1.92 0.005 0
2 0.005 0
2.08 0.005 0
2.16 0.005 0
2.24 0.005 0
2.32 0.005 0
2.4 0.005 0
2.48 0.005 0
2.56 0.005 0
2.64 0.005 0
2.72 0.005 0
2.8 0.005 0
2.88 0.005 0
2.96 0.005 0
3.04 0.005 0
3.12 0.005 0
3.2 0.005 0
3.28 0.005 0
3.36 0.005 0
3.44 0.005 0
3.52 0.005 0
3.6 0.005 0
3.68 0.005 0
3.76 0.005 0
3.84 0.005 0
3.92 0.005 0
4 0.005 0
4.08 0.005 0
4.16 0.005 0
4.24 0.005 0
4.32 0.005 0
4.4 0.005 0
4.48 0.005 0
4.56 0.005 0
4.64 0.005 0
4.72 0.005 0
4.8 0.005 0
4.88 0.005 0
4.96 0.005 0
5.04 0.005 0
5.12 0.005 0
5.2 0.005 0
5.28 0.005 0
5.36 0.005 0
5.44 0.005 0
5.52 0.005 0
5.6 0.005 0
5.68 0.005 0
5.76 0.005 0
5.84 0.005 0
5.92 0.005 0
6 0.005 0
6.08 0.005 0
6.16 0.005 0
6.24 0.005 0
6.32 0.005 0
6.4 0.005 0
6.48 0.005 0
6.56 0.005 0
6.64 0.005 0
6.72 0.005 0
6.8 0.005 0
6.88 0.005 0
6.96 0.005 0
7.04 0.005 0
7.12 0.005 0
7.2 0.005 0
7.28 0.005 0
7.36 0.005 0
7.44 0.005 0
7.52 0.005 0
7.6 0.005 0
7.68 0.005 0
7.76 0.005 0
7.84 0.005 0
7.92 0.005 0
8 0.005 0
8.08 0.005 0
8.16 0.005 0
8.24 0.005 0
8.32 0.005 0
8.4 0.005 0
8.48 0.005 0
8.56 0.005 0
8.64 0.005 0
8.72 0.005 0
8.8 0.005 0
8.88 0.005 0
8.96 0.005 0
9.04 0.005 0
9.12 0.005 0
9.2 0.005 0
9.28 0.005 0
9.36 0.005 0
9.44 0.005 0
9.52 0.005 0
9.6 0.005 0
9.68 0.005 0
9.76 0.005 0
9.84 0.005 0
9.92 0.005 0
10 0.005 0
10.08 0.005 0
10.16 0.005 0
10.24 0.005 0
10.32 0.005 0
10.4 0.005 0
10.48 0.005 0
10.56 0.005 0
10.64 0.005 0
10.72 0.005 0
10.8 0.005 0
10.88 0.005 0
10.96 0.005 0
11.04 0.005 0
11.12 0.005 0
11.2 0.005 0
11.28 0.005 0
11.36 0.005 0
11.44 0.005 0
11.52 0.005 0
11.6 0.005 0
11.68 0.005 0
11.76 0.005 0
11.84 0.005 0
11.92 0.005 0
12 0.005 0
12.08 0.005 0
12.16 0.005 0
12.24 0.005 0
12.32 0.005 0
12.4 0.005 0
12.48 0.005 0
12.56 0.005 0
12.64 0.005 0
12.72 0.005 0
12.8 0.005 0
12.88 0.005 0
12.96 0.005 0
13.04 0.005 0
13.12 0.005 0
13.2 0.005 0
13.28 0.005 0
13.36 0.005 0
13.44 0.005 0
13.52 0.005 0
13.6 0.005 0
13.68 0.005 0
13.76 0.005 0
13.84 0.005 0
13.92 0.005 0
14 0.005 0
14.08 0.005 0
14.16 0.005 0
14.24 0.005 0
14.32 0.005 0
14.4 0.005 0
14.48 0.005 0
14.56 0.005 0
14.64 0.005 0
14.72 0.005 0
14.8 0.005 0
14.88 0.005 0
14.96 0.005 0
15.04 0.005 0
15.12 0.005 0
15.2 0.005 0
15.28 0.005 0
15.36 0.005 0
15.44 0.005 0
15.52 0.005 0
15.6 0.005 0
15.68 0.005 0
15.76 0.005 0
15.84 0.005 0
15.92 0.005 0
16 0.005 0
16.08 0.005 0
16.16 0.005 0
16.24 0.005 0
16.32 0.005 0
16.4 0.005 0
16.48 0.005 0
16.56 0.005 0
16.64 0.005 0
16.72 0.005 0
16.8 0.005 0
16.88 0.005 0
16.96 0.005 0
17.04 0.005 0
17.12 0.005 0
17.2 0.005 0
17.28 0.005 0
17.36 0.005 0
17.44 0.005 0
17.52 0.005 0
17.6 0.005 0
17.68 0.005 0
17.76 0.005 0
17.84 0.005 0
17.92 0.005 0
18 0.005 0
18.08 0.005 0
18.16 0.005 0
18.24 0.005 0
18.32 0.005 0
18.4 0.005 0
18.48 0.005 0
18.56 0.005 0
18.64 0.005 0
18.72 0.005 0
18.8 0.005 0
18.88 0.005 0
18.96 0.005 0
19.04 0.005 0
19.12 0.005 0
19.2 0.005 0
19.28 0.005 0
19.36 0.005 0
19.44 0.005 0
19.52 0.005 0
19.6 0.005 0
19.68 0.005 0
19.76 0.005 0
19.84 0.005 0
19.92 0.005 0
20 0.005 0
20.08 0.005 0
20.16 0.005 0
20.24 0.005 0
20.32 0.005 0
20.4 0.005 0
20.48 0.005 0
20.56 0.005 0
20.64 0.005 0
20.72 0.005 0
20.8 0.005 0
20.88 0.005 0
20.96 0.005 0
21.04 0.005 0
21.12 0.005 0
21.2 0.005 0
21.28 0.005 0
21.36 0.005 0
21.44 0.005 0
21.52 0.005 0
21.6 0.005 0
21.68 0.005 0
21.76 0.005 0
21.84 0.005 0
21.92 0.005 0
22 0.005 0
22.08 0.005 0
22.16 0.005 0
22.24 0.005 0
22.32 0.005 0
22.4 0.005 0
22.48 0.005 0
22.56 0.005 0
22.64 0.005 0
22.72 0.005 0
22.8 0.005 0
22.88 0.005 0
22.96 0.005 0
23.04 0.005 0
23.12 0.005 0
23.2 0.005 0
23.28 0.005 0
23.36 0.005 0
23.44 0.005 0
23.52 0.005 0
23.6 0.005 0
23.68 0.005 0
23.76 0.005 0
23.84 0.005 0
23.92 0.005 0
24 0.005 0
24.08 0.005 0
24.16 0.005 0
24.24 0.005 0
24.32 0.005 0
24.4 0.005 0
24.48 0.005 0
24.56 0.005 0
24.64 0.005 0
24.72 0.005 0
24.8 0.005 0
24.88 0.005 0
24.96 0.005 0
25.04 0.005 0
25.12 0.005 0
25.2 0.005 0
25.28 0.005 0
25.36 0.005 0
25.44 0.005 0
25.52 0.005 0
25.6 0.005 0
25.68 0.005 0
25.76 0.005 0
25.84 0.005 0
25.92 0.005 0
26 0.005 0
26.08 0.005 0
26.16 0.005 0
26.24 0.005 0
26.32 0.005 0
26.4 0.005 0
26.48 0.005 0
26.56 0.005 0
26.64 0.005 0
26.72 0.005 0
26.8 0.005 0
26.88 0.005 0
26.96 0.005 0
27.04 0.005 0
27.12 0.005 0
27.2 0.005 0
27.28 0.005 0
27.36 0.005 0
27.44 0.005 0
27.52 0.005 0
27.6 0.005 0
27.68 0.005 0
27.76 0.005 0
27.84 0.005 0
27.92 0.005 0
28 0.005 0
28.08 0.005 0
28.16 0.005 0
28.24 0.005 0
28.32 0.005 0
28.4 0.005 0
28.48 0.005 0
28.56 0.005 0
28.64 0.005 0
28.72 0.005 0
28.8 0.005 0
28.88 0.005 0
28.96 0.005 0
29.04 0.005 0
29.12 0.005 0
29.2 0.005 0
29.28 0.005 0
29.36 0.005 0
29.44 0.005 0
29.52 0.005 0
29.6 0.005 0
29.68 0.005 0
29.76 0.005 0
29.84 0.005 0
29.92 0.005 0
30 0.005 0
30.08 0.005 0
30.16 0.005 0
30.24 0.005 0
30.32 0.005 0
30.4 0.005 0
30.48 0.005 0
30.56 0.005 0
30.64 0.005 0
30.72 0.005 0
30.8 0.005 0
30.88 0.005 0
30.96 0.005 0
31.04 0.005 0
31.12 0.005 0
31.2 0.005 0
31.28 0.005 0
31.36 0.005 0
31.44 0.005 0
31.52 0.005 0
31.6 0.005 0
31.68 0.005 0
31.76 0.005 0
31.84 0.005 0
31.92 0.005 0
0 0.01 0
0.08 0.01 0
0.16 0.01 0
0.24 0.01 0
0.32 0.01 0
0.4 0.01 0
0.48 0.01 0
0.56 0.01 0
0.64 0.01 0
0.72 0.01 0
0.8 0.01 0
0.88 0.01 0
0.96 0.01 0
1.04 0.01 0
1.12 0.01 0
1.2 0.01 0
1.28 0.01 0
1.36 0.01 0
1.44 0.01 0
1.52 0.01 0
1.6 0.01 0
1.68 0.01 0
1.76 0.01 0
1.84 0.01 0
1.92 0.01 0
2 0.01 0
2.08 0.01 0
2.16 0.01 0
2.24 0.01 0
2.32 0.01 0
2.4 0.01 0
2.48 0.01 0
2.56 0.01 0
2.64 0.01 0
2.72 0.01 0
2.8 0.01 0
2.88 0.01 0
2.96 0.01 0
3.04 0.01 0
3.12 0.01 0
3.2 0.01 0
3.28 0.01 0
3.36 0.01 0
3.44 0.01 0
3.52 0.01 0
3.6 0.01 0
3.68 0.01 0
3.76 0.01 0
3.84 0.01 0
3.92 0.01 0
4 0.01 0
4.08 0.01 0
4.16 0.01 0
4.24 0.01 0
4.32 0.01 0
4.4 0.01 0
4.48 0.01 0
4.56 0.01 0
4.64 0.01 0
4.72 0.01 0
4.8 0.01 0
4.88 0.01 0
4.96 0.01 0
5.04 0.01 0
5.12 0.01 0
[...]
POINT_DATA 80000

SCALARS p float 1
LOOKUP_TABLE default
1
56.54465411
56.24291909
56.20175931
56.18166934
56.16725042
56.15524946
56.14450604
56.13450792
56.12500232
56.11585602
56.1069953
56.09837738
56.08997587
56.0817731
56.07375607
56.0659142
56.05823829
56.05071991
56.04335113
56.0361244
56.02903256
56.02206877
56.01522654
56.00849976
56.00188265
55.99536979
55.98895609
55.98263679
55.97640744
55.97026388
55.96420221
55.9582188
55.95231023
55.94647334
55.94070512
55.93500279
55.92936372
55.92378543
55.91826561
55.91280208
55.90739277
55.90203573
55.89672913
55.89147124
55.88626041
55.88109507
55.87597376
55.87089505
55.86585763
55.86086021
55.85590159
55.85098061
55.84609617
55.84124722
55.83643274
55.83165179
55.82690342
55.82218678
55.81750099
55.81284526
55.8082188
55.80362086
55.79905072
55.79450767
55.78999106
55.78550023
55.78103457
55.77659346
55.77217634
55.76778263
55.7634118
55.75906332
55.75473668
55.7504314
55.74614698
55.74188298
55.73763893
55.73341441
55.72920899
55.72502227
55.72085383
55.71670329
55.71257028
55.70845443
55.70435537
55.70027277
55.69620627
55.69215555
55.68812028
55.68410016
55.68009487
55.67610411
55.67212759
55.66816502
55.66421613
55.66028064
55.65635829
55.65244881
55.64855195
55.64466746
55.64079509
55.63693462
55.63308579
55.6292484
55.62542221
55.621607
55.61780256
55.61400868
55.61022516
55.60645179
55.60268838
55.59893472
55.59519065
55.59145596
55.58773048
55.58401402
55.58030642
55.5766075
55.5729171
55.56923504
55.56556118
55.56189535
55.55823739
55.55458715
55.55094449
55.54730926
55.54368131
55.5400605
55.5364467
55.53283977
55.52923958
55.525646
55.52205889
55.51847814
55.51490362
55.51133521
55.50777279
55.50421625
55.50066547
55.49712034
55.49358075
55.49004659
55.48651777
55.48299416
55.47947568
55.47596222
55.47245369
55.46894999
55.46545102
55.4619567
55.45846692
55.45498162
55.45150069
55.44802405
55.44455162
55.44108331
55.43761905
55.43415875
55.43070234
55.42724975
55.42380089
55.4203557
55.41691409
55.41347601
55.41004138
55.40661014
55.40318221
55.39975754
55.39633606
55.3929177
55.38950241
55.38609012
55.38268078
55.37927432
55.37587069
55.37246984
55.36907171
55.36567624
55.36228339
55.3588931
55.35550532
55.35212
55.34873709
55.34535655
55.34197832
55.33860237
55.33522864
55.3318571
55.3284877
55.32512039
55.32175514
55.3183919
55.31503064
55.31167131
55.30831388
55.3049583
55.30160455
55.29825259
55.29490238
55.29155388
55.28820706
55.28486189
55.28151833
55.27817636
55.27483594
55.27149704
55.26815963
55.26482367
55.26148915
55.25815604
55.25482429
55.25149389
55.24816482
55.24483703
55.24151052
55.23818524
55.23486118
55.23153832
55.22821663
55.22489608
55.22157665
55.21825833
55.21494108
55.21162489
55.20830973
55.20499559
55.20168245
55.19837027
55.19505906
55.19174878
55.18843941
55.18513095
55.18182336
55.17851664
55.17521076
55.17190571
55.16860148
55.16529803
55.16199537
55.15869348
55.15539233
55.15209191
55.14879221
55.14549322
55.14219492
55.13889729
55.13560033
55.13230401
55.12900834
55.12571328
55.12241884
55.11912499
55.11583173
55.11253905
55.10924693
55.10595536
55.10266433
55.09937383
55.09608385
55.09279438
55.0895054
55.08621692
55.08292891
55.07964138
55.0763543
55.07306767
55.06978148
55.06649573
55.0632104
55.05992548
55.05664097
55.05335686
55.05007314
55.0467898
55.04350684
55.04022424
55.036942
55.03366012
55.03037858
55.02709738
55.02381651
55.02053596
55.01725574
55.01397582
55.01069621
55.0074169
55.00413789
55.00085916
54.99758071
54.99430254
54.99102464
54.987747
54.98446963
54.9811925
54.97791563
54.974639
54.97136261
54.96808646
54.96481053
54.96153483
54.95825935
54.95498408
54.95170903
54.94843418
54.94515954
54.9418851
54.93861085
54.93533679
54.93206292
54.92878924
54.92551573
54.9222424
54.91896925
54.91569626
54.91242344
54.90915078
54.90587828
54.90260594
54.89933376
54.89606172
54.89278984
54.88951809
54.8862465
54.88297504
54.87970372
54.87643253
54.87316148
54.86989055
54.86661976
54.86334909
54.86007855
54.85680812
54.85353782
54.85026764
54.84699757
54.84372761
54.84045777
54.83718803
54.83391841
54.83064889
54.82737948
54.82411017
54.82084097
54.81757186
54.81430285
54.81103394
54.80776513
54.80449641
54.80122779
54.79795925
54.79469081
54.79142245
54.78815419
54.78488601
54.78161791
54.7783499
54.77508196
54.77181411
54.76854634
54.76527864
54.76201103
54.75874348
54.75547601
54.75220861
54.74894128
54.74567402
54.74240683
54.7391397
54.73587264
54.73260564
54.7293387
54.72607182
54.722805
54.71953823
54.71627152
54.71300486
54.70973826
54.70647171
54.7032052
54.69993874
54.69667233
54.69340597
54.69013964
54.68687336
54.68360711
54.68034091
54.67707474
54.67380861
54.67054251
54.66727644
54.6640104
54.66074439
54.6574784
54.65421243
54.65094648
54.64768055
54.64441461
54.64114867
0.5
56.54465411
56.54465411
56.24291909
56.20175931
56.18166934
56.16725042
56.15524946
56.14450604
56.13450792
56.12500232
56.11585602
56.1069953
56.09837738
56.08997587
56.0817731
56.07375607
56.0659142
56.05823829
56.05071991
56.04335113
56.0361244
56.02903256
56.02206877
56.01522654
56.00849976
56.00188265
55.99536979
55.98895609
55.98263679
55.97640744
55.97026388
55.96420221
55.9582188
55.95231023
55.94647334
55.94070512
55.93500279
55.92936372
55.92378543
55.91826561
55.91280208
55.90739277
55.90203573
55.89672913
55.89147124
55.88626041
55.88109507
55.87597376
55.87089505
55.86585763
55.86086021
55.85590159
55.85098061
55.84609617
55.84124722
55.83643274
55.83165179
55.82690342
55.82218678
55.81750099
55.81284526
55.8082188
55.80362086
55.79905072
55.79450767
55.78999106
55.78550023
55.78103457
55.77659346
55.77217634
55.76778263
55.7634118
55.75906332
55.75473668
55.7504314
55.74614698
55.74188298
55.73763893
55.73341441
55.72920899
55.72502227
55.72085383
55.71670329
55.71257028
55.70845443
55.70435537
55.70027277
55.69620627
55.69215555
55.68812028
55.68410016
55.68009487
55.67610411
55.67212759
55.66816502
55.66421613
55.66028064
55.65635829
55.65244881
55.64855195
55.64466746
55.64079509
55.63693462
55.63308579
55.6292484
55.62542221
55.621607
55.61780256
55.61400868
55.61022516
55.60645179
55.60268838
55.59893472
55.59519065
55.59145596
55.58773048
55.58401402
55.58030642
55.5766075
55.5729171
55.56923504
55.56556118
55.56189535
55.55823739
55.55458715
55.55094449
55.54730926
55.54368131
55.5400605
55.5364467
55.53283977
55.52923958
55.525646
55.52205889
55.51847814
55.51490362
55.51133521
55.50777279
55.50421625
55.50066547
55.49712034
55.49358075
55.49004659
55.48651777
55.48299416
55.47947568
55.47596222
55.47245369
55.46894999
55.46545102
55.4619567
55.45846692
55.45498162
55.45150069
55.44802405
55.44455162
55.44108331
55.43761905
55.43415875
55.43070234
55.42724975
55.42380089
55.4203557
55.41691409
55.41347601
55.41004138
55.40661014
55.40318221
55.39975754
55.39633606
55.3929177
55.38950241
55.38609012
55.38268078
55.37927432
55.37587069
55.37246984
55.36907171
55.36567624
55.36228339
55.3588931
55.35550532
55.35212
55.34873709
55.34535655
55.34197832
55.33860237
55.33522864
55.3318571
55.3284877
55.32512039
55.32175514
55.3183919
55.31503064
55.31167131
55.30831388
55.3049583
55.30160455
55.29825259
55.29490238
55.29155388
55.28820706
55.28486189
55.28151833
55.27817636
55.27483594
55.27149704
55.26815963
55.26482367
55.26148915
55.25815604
55.25482429
55.25149389
55.24816482
55.24483703
55.24151052
55.23818524
55.23486118
55.23153832
55.22821663
55.22489608
55.22157665
55.21825833
55.21494108
55.21162489
55.20830973
55.20499559
55.20168245
55.19837027
55.19505906
55.19174878
55.18843941
55.18513095
55.18182336
55.17851664
55.17521076
55.17190571
55.16860148
55.16529803
55.16199537
55.15869348
55.15539233
55.15209191
55.14879221
55.14549322
55.14219492
55.13889729
55.13560033
55.13230401
55.12900834
55.12571328
55.12241884
55.11912499
55.11583173
55.11253905
55.10924693
55.10595536
55.10266433
55.09937383
55.09608385
55.09279438
55.0895054
55.08621692
55.08292891
55.07964138
55.0763543
55.07306767
55.06978148
55.06649573
55.0632104
55.05992548
55.05664097
55.05335686
55.05007314
55.0467898
55.04350684
55.04022424
55.036942
55.03366012
55.03037858
55.02709738
55.02381651
55.02053596
55.01725574
55.01397582
55.01069621
55.0074169
55.00413789
55.00085916
54.99758071
54.99430254
54.99102464
54.987747
54.98446963
54.9811925
54.97791563
54.974639
54.97136261
54.96808646
54.96481053
54.96153483
54.95825935
54.95498408
54.95170903
54.94843418
54.94515954
54.9418851
54.93861085
54.93533679
54.93206292
54.92878924
54.92551573
54.9222424
54.91896925
54.91569626
54.91242344
54.90915078
54.90587828
54.90260594
54.89933376
54.89606172
54.89278984
54.88951809
54.8862465
54.88297504
54.87970372
54.87643253
54.87316148
54.86989055
54.86661976
54.86334909
54.86007855
54.85680812
54.85353782
54.85026764
54.84699757
54.84372761
54.84045777
54.83718803
54.83391841
54.83064889
54.82737948
54.82411017
54.82084097
54.81757186
54.81430285
54.81103394
54.80776513
54.80449641
54.80122779
54.79795925
54.79469081
54.79142245
54.78815419
54.78488601
54.78161791
54.7783499
54.77508196
54.77181411
54.76854634
54.76527864
54.76201103
54.75874348
54.75547601
54.75220861
54.74894128
54.74567402
54.74240683
54.7391397
54.73587264
54.73260564
54.7293387
54.72607182
54.722805
54.71953823
54.71627152
54.71300486
54.70973826
54.70647171
54.7032052
54.69993874
54.69667233
54.69340597
54.69013964
54.68687336
54.68360711
54.68034091
54.67707474
54.67380861
54.67054251
54.66727644
54.6640104
54.66074439
54.6574784
54.65421243
54.65094648
54.64768055
54.64441461
54.64114867
54.64114867
56.53007236
56.53007236
56.24675497
56.20301473
56.18230458
56.16764493
56.15552115
56.14470549
56.13466106
56.12512402
56.11595544
56.1070784
56.09844817
56.09003716
56.08182689
56.0738038
56.06595697
56.05827693
56.05075505
56.04338328
56.03615397
56.02905987
56.02209409
56.01525011
56.00852176
56.00190324
55.99538911
55.98897427
55.98265393
55.97642363
55.9702792
55.96421673
55.95823258
55.95232335
55.94648582
55.94071703
55.93501416
55.92937458
55.92379583
55.91827557
55.91281163
55.90740193
55.90204453
55.8967376
55.89147939
55.88626825
55.88110263
55.87598105
55.87090209
55.86586443
55.86086678
55.85590794
55.85098676
55.84610212
55.84125298
55.83643832
55.8316572
55.82690867
55.82219187
55.81750594
55.81285007
55.80822347
55.8036254
55.79905512
55.79451196
55.78999523
55.78550429
55.78103852
55.77659731
55.77218009
55.76778628
55.76341536
55.75906679
55.75474007
55.7504347
55.7461502
55.74188612
55.737642
55.7334174
55.72921191
55.72502512
55.72085661
55.71670601
55.71257294
55.70845703
55.70435791
55.70027525
55.69620869
55.69215792
55.6881226
55.68410243
55.68009708
55.67610627
55.67212971
55.6681671
55.66421816
55.66028263
55.65636023
55.65245071
55.64855381
55.64466927
55.64079687
55.63693636
55.6330875
55.62925007
55.62542384
55.6216086
55.61780413
55.61401022
55.61022666
55.60645326
55.60268982
55.59893613
55.59519203
55.59145731
55.5877318
55.58401532
55.58030769
55.57660875
55.57291832
55.56923624
55.56556235
55.56189649
55.55823851
55.55458825
55.55094557
55.54731031
55.54368234
55.54006151
55.53644769
55.53284074
55.52924053
55.52564693
55.5220598
55.51847903
55.5149045
55.51133607
55.50777363
55.50421707
55.50066628
55.49712113
55.49358153
55.49004735
55.48651851
55.48299489
55.4794764
55.47596292
55.47245438
55.46895066
55.46545168
55.46195734
55.45846756
55.45498224
55.45150129
55.44802464
55.4445522
55.44108388
55.43761961
55.4341593
55.43070288
55.42725028
55.42380141
55.4203562
55.41691459
55.4134765
55.41004186
55.40661061
55.40318267
55.39975799
55.3963365
55.39291813
55.38950283
55.38609053
55.38268118
55.37927472
55.37587108
55.37247022
55.36907208
55.36567661
55.36228375
55.35889345
55.35550566
55.35212034
55.34873742
55.34535687
55.34197864
55.33860268
55.33522895
55.3318574
55.32848799
55.32512067
55.32175542
55.31839217
55.3150309
55.31167157
55.30831413
55.30495856
55.3016048
55.29825283
55.29490261
55.29155411
55.28820729
55.28486211
55.28151855
55.27817658
55.27483615
55.27149724
55.26815983
55.26482387
55.26148935
55.25815623
55.25482448
55.25149408
55.248165
55.24483721
55.24151069
55.23818541
55.23486135
55.23153848
55.22821679
55.22489623
55.2215768
55.21825848
55.21494122
55.21162503
55.20830987
55.20499573
55.20168258
55.19837041
55.19505919
55.1917489
55.18843954
55.18513107
55.18182348
55.17851675
55.17521088
55.17190582
55.16860159
55.16529814
55.16199548
55.15869358
55.15539243
55.15209201
55.14879231
55.14549332
55.14219501
55.13889738
55.13560042
55.1323041
55.12900842
55.12571336
55.12241892
55.11912507
55.11583181
55.11253912
55.109247
55.10595543
55.1026644
55.0993739
55.09608392
55.09279445
55.08950547
55.08621699
55.08292898
55.07964144
55.07635436
55.07306773
55.06978154
55.06649579
55.06321045
55.05992554
55.05664103
55.05335691
55.05007319
55.04678985
55.04350689
55.04022429
55.03694205
55.03366016
55.03037862
55.02709742
55.02381655
55.02053601
55.01725578
55.01397586
55.01069625
55.00741694
55.00413793
55.0008592
54.99758075
54.99430258
54.99102468
54.98774704
54.98446966
54.98119254
54.97791566
54.97463903
54.97136264
54.96808649
54.96481056
54.96153486
54.95825938
54.95498411
54.95170906
54.94843421
54.94515957
54.94188512
54.93861088
54.93533682
54.93206295
54.92878926
54.92551575
54.92224243
54.91896927
54.91569628
54.91242346
54.9091508
54.90587831
54.90260596
54.89933378
54.89606174
54.89278986
54.88951811
54.88624651
54.88297506
54.87970373
54.87643255
54.87316149
54.86989057
54.86661978
54.86334911
54.86007856
54.85680814
54.85353784
54.85026765
54.84699758
54.84372762
54.84045778
54.83718805
54.83391842
54.83064891
54.82737949
54.82411018
54.82084098
54.81757187
54.81430286
54.81103396
54.80776514
54.80449642
54.8012278
54.79795926
54.79469082
54.79142246
54.7881542
54.78488602
54.78161792
54.7783499
54.77508197
54.77181412
54.76854635
54.76527865
54.76201103
54.75874349
54.75547602
54.75220862
54.74894129
54.74567403
54.74240683
54.73913971
54.73587264
54.73260564
54.7293387
54.72607182
54.722805
54.71953823
54.71627153
54.71300487
54.70973826
54.70647171
54.70320521
54.69993875
54.69667234
54.69340597
54.69013964
54.68687336
54.68360712
54.68034091
54.67707474
54.67380861
54.67054251
54.66727644
54.6640104
54.66074439
54.6574784
54.65421244
54.65094648
54.64768055
54.64441461
54.64114867
54.64114867
56.51408777
56.51408777
56.24994339
56.20420191
56.18292059
56.1680312
56.15578858
56.14490243
56.13481254
56.1252445
56.11605388
56.10716065
56.0985182
56.09009773
56.08187999
56.07385088
56.06599912
56.05831497
56.05078963
56.04341489
56.03618303
56.0290867
56.02211896
56.01527324
56.00854334
56.00192344
55.99540806
55.98899209
55.98267072
55.97643949
55.9702942
55.96423095
55.95824608
55.95233618
55.94649804
55.94072868
55.93502528
55.92938521
55.923806
55.91828531
55.91282097
55.90741089
55.90205314
55.89674588
55.89148735
55.88627592
55.88111002
55.87598818
55.87090897
55.86587107
55.8608732
55.85591415
55.85099276
55.84610793
55.8412586
55.83644378
55.83166248
55.8269138
55.82219685
55.81751077
55.81285475
55.80822802
55.80362982
55.79905943
55.79451615
55.7899993
55.78550825
55.78104238
55.77660107
55.77218375
55.76778985
55.76341884
55.75907018
55.75474337
55.75043792
55.74615334
55.74188918
55.73764499
55.73342032
55.72921476
55.7250279
55.72085933
55.71670867
55.71257553
55.70845956
55.70436038
55.70027766
55.69621106
55.69216023
55.68812486
55.68410463
55.68009924
55.67610839
55.67213177
55.66816912
55.66422014
55.66028456
55.65636212
55.65245256
55.64855562
55.64467105
55.64079861
55.63693806
55.63308916
55.6292517
55.62542543
55.62161016
55.61780565
55.61401171
55.61022812
55.60645469
55.60269122
55.59893751
55.59519337
55.59145863
55.58773309
55.58401658
55.58030893
55.57660996
55.5729195
55.5692374
55.56556349
55.56189761
55.5582396
55.55458932
55.55094661
55.54731134
55.54368335
55.5400625
55.53644866
55.53284169
55.52924146
55.52564784
55.52206069
55.51847991
55.51490535
55.5113369
55.50777445
55.50421788
55.50066706
55.4971219
55.49358228
55.49004809
55.48651923
55.4829956
55.47947709
55.4759636
55.47245504
55.46895131
55.46545232
55.46195797
55.45846817
55.45498284
55.45150188
55.44802522
55.44455277
55.44108444
55.43762015
55.43415983
55.4307034
55.42725079
55.42380191
55.42035669
55.41691507
55.41347697
55.41004232
55.40661106
55.40318312
55.39975842
55.39633692
55.39291855
55.38950324
55.38609093
55.38268157
55.3792751
55.37587146
55.37247059
55.36907245
55.36567696
55.3622841
55.35889379
55.355506
55.35212066
55.34873774
55.34535719
55.34197895
55.33860298
55.33522924
55.33185769
55.32848827
55.32512095
55.32175569
55.31839244
55.31503117
55.31167183
55.30831439
55.3049588
55.30160504
55.29825307
55.29490285
55.29155434
55.28820751
55.28486233
55.28151877
55.27817679
55.27483636
55.27149745
55.26816003
55.26482407
55.26148954
55.25815641
55.25482466
55.25149425
55.24816517
55.24483738
55.24151085
55.23818557
55.23486151
55.23153864
55.22821694
55.22489638
55.22157695
55.21825862
55.21494137
55.21162517
55.20831001
55.20499586
55.20168271
55.19837053
55.19505931
55.19174903
55.18843966
55.18513119
55.1818236
55.17851687
55.17521099
55.17190593
55.16860169
55.16529825
55.16199558
55.15869368
55.15539253
55.15209211
55.14879241
55.14549341
55.1421951
55.13889747
55.1356005
55.13230419
55.1290085
55.12571345
55.122419
55.11912515
55.11583189
55.1125392
55.10924708
55.1059555
55.10266447
55.09937397
55.09608399
55.09279451
55.08950554
55.08621705
55.08292904
55.0796415
55.07635442
55.07306779
55.0697816
55.06649584
55.06321051
55.05992559
55.05664108
55.05335697
55.05007324
55.0467899
55.04350694
55.04022434
55.0369421
55.03366021
55.03037867
55.02709747
55.0238166
55.02053605
55.01725582
55.0139759
55.01069629
55.00741698
55.00413796
55.00085923
54.99758079
54.99430261
54.99102471
54.98774707
54.98446969
54.98119257
54.9779157
54.97463907
54.97136267
54.96808652
54.96481059
54.96153489
54.95825941
54.95498414
54.95170909
54.94843424
54.94515959
54.94188515
54.9386109
54.93533684
54.93206297
54.92878929
54.92551578
54.92224245
54.91896929
54.9156963
54.91242348
54.90915082
54.90587833
54.90260599
54.8993338
54.89606176
54.89278987
54.88951813
54.88624653
54.88297507
54.87970375
54.87643256
54.87316151
54.86989059
54.86661979
54.86334912
54.86007858
54.85680815
54.85353785
54.85026766
54.84699759
54.84372764
54.84045779
54.83718806
54.83391844
54.83064892
54.82737951
54.8241102
54.82084099
54.81757188
54.81430288
54.81103397
54.80776515
54.80449643
54.80122781
54.79795927
54.79469083
54.79142247
54.78815421
54.78488602
54.78161793
54.77834991
54.77508198
54.77181413
54.76854636
54.76527866
54.76201104
54.7587435
54.75547602
54.75220862
54.74894129
54.74567403
54.74240684
54.73913971
54.73587265
54.73260565
54.72933871
54.72607183
54.722805
54.71953824
54.71627153
54.71300487
54.70973827
54.70647171
54.70320521
54.69993875
54.69667234
54.69340597
54.69013965
54.68687336
54.68360712
54.68034091
54.67707474
54.67380861
54.67054251
54.66727644
54.6640104
54.66074439
54.6574784
54.65421244
54.65094649
54.64768055
54.64441461
54.64114867
54.64114867
56.49817295
56.49817295
56.25282999
56.20534194
56.18352217
56.16841123
56.15605282
56.1450975
56.13496279
56.12536405
56.11615154
56.10724219
56.09858756
56.09015767
56.08193248
56.07389737
56.0660407
56.05835246
56.05082367
56.043446
56.03621159
56.02911306
56.02214338
56.01529594
56.00856452
56.00194325
55.99542664
55.98900955
55.98268718
55.97645503
55.9703089
55.96424488
55.9582593
55.95234874
55.94651
55.94074008
55.93503616
55.92939561
55.92381594
55.91829484
55.9128301
55.90741966
55.90206156
55.89675397
55.89149514
55.88628342
55.88111725
55.87599514
55.87091569
55.86587756
55.86087947
55.85592021
55.85099862
55.8461136
55.8412641
55.8364491
55.83166764
55.82691881
55.8222017
55.81751548
55.81285933
55.80823247
55.80363414
55.79906363
55.79452023
55.79000328
55.78551212
55.78104614
55.77660473
55.77218731
55.76779333
55.76342222
55.75907348
55.75474659
55.75044106
55.7461564
55.74189217
55.7376479
55.73342317
55.72921754
55.72503061