# vtk DataFile Version 2.0
FlowField
ASCII
DATASET STRUCTURED_GRID
DIMENSIONS 400 1 200
POINTS 80000 float
0 0 0
0.08 0 0
0.16 0 0
0.24 0 0
0.32 0 0
0.4 0 0
0.48 0 0
0.56 0 0
0.64 0 0
0.72 0 0
0.8 0 0
0.88 0 0
0.96 0 0
1.04 0 0
1.12 0 0
1.2 0 0
1.28 0 0
1.36 0 0
1.44 0 0
1.52 0 0
1.6 0 0
1.68 0 0
1.76 0 0
1.84 0 0
1.92 0 0
2 0 0
2.08 0 0
2.16 0 0
2.24 0 0
2.32 0 0
2.4 0 0
2.48 0 0
2.56 0 0
2.64 0 0
2.72 0 0
2.8 0 0
2.88 0 0
2.96 0 0
3.04 0 0
3.12 0 0
3.2 0 0
3.28 0 0
3.36 0 0
3.44 0 0
3.52 0 0
3.6 0 0
3.68 0 0
3.76 0 0
3.84 0 0
3.92 0 0
4 0 0
4.08 0 0
4.16 0 0
4.24 0 0
4.32 0 0
4.4 0 0
4.48 0 0
4.56 0 0
4.64 0 0
4.72 0 0
4.8 0 0
4.88 0 0
4.96 0 0
5.04 0 0
5.12 0 0
5.2 0 0
5.28 0 0
5.36 0 0
5.44 0 0
5.52 0 0
5.6 0 0
5.68 0 0
5.76 0 0
5.84 0 0
5.92 0 0
6 0 0
6.08 0 0
6.16 0 0
6.24 0 0
6.32 0 0
6.4 0 0
6.48 0 0
6.56 0 0
6.64 0 0
6.72 0 0
6.8 0 0
6.88 0 0
6.96 0 0
7.04 0 0
7.12 0 0
7.2 0 0
7.28 0 0
7.36 0 0
7.44 0 0
7.52 0 0
7.6 0 0
7.68 0 0
7.76 0 0
7.84 0 0
7.92 0 0
8 0 0
8.08 0 0
8.16 0 0
8.24 0 0
8.32 0 0
8.4 0 0
8.48 0 0
8.56 0 0
8.64 0 0
8.72 0 0
8.8 0 0
8.88 0 0
8.96 0 0
9.04 0 0
9.12 0 0
9.2 0 0
9.28 0 0
9.36 0 0
9.44 0 0
9.52 0 0
9.6 0 0
9.68 0 0
9.76 0 0
9.84 0 0
9.92 0 0
10 0 0
10.08 0 0
10.16 0 0
10.24 0 0
10.32 0 0
10.4 0 0
10.48 0 0
10.56 0 0
10.64 0 0
10.72 0 0
10.8 0 0
10.88 0 0
10.96 0 0
11.04 0 0
11.12 0 0
11.2 0 0
11.28 0 0
11.36 0 0
11.44 0 0
11.52 0 0
11.6 0 0
11.68 0 0
11.76 0 0
11.84 0 0
11.92 0 0
12 0 0
12.08 0 0
12.16 0 0
12.24 0 0
12.32 0 0
12.4 0 0
12.48 0 0
12.56 0 0
12.64 0 0
12.72 0 0
12.8 0 0
12.88 0 0
12.96 0 0
13.04 0 0
13.12 0 0
13.2 0 0
13.28 0 0
13.36 0 0
13.44 0 0
13.52 0 0
13.6 0 0
13.68 0 0
13.76 0 0
13.84 0 0
13.92 0 0
14 0 0
14.08 0 0
14.16 0 0
14.24 0 0
14.32 0 0
14.4 0 0
14.48 0 0
14.56 0 0
14.64 0 0
14.72 0 0
14.8 0 0
14.88 0 0
14.96 0 0
15.04 0 0
15.12 0 0
15.2 0 0
15.28 0 0
15.36 0 0
15.44 0 0
15.52 0 0
15.6 0 0
15.68 0 0
15.76 0 0
15.84 0 0
15.92 0 0
16 0 0
16.08 0 0
16.16 0 0
16.24 0 0
16.32 0 0
16.4 0 0
16.48 0 0
16.56 0 0
16.64 0 0
16.72 0 0
16.8 0 0
16.88 0 0
16.96 0 0
17.04 0 0
17.12 0 0
17.2 0 0
17.28 0 0
17.36 0 0
17.44 0 0
17.52 0 0
17.6 0 0
17.68 0 0
17.76 0 0
17.84 0 0
17.92 0 0
18 0 0
18.08 0 0
18.16 0 0
18.24 0 0
18.32 0 0
18.4 0 0
18.48 0 0
18.56 0 0
18.64 0 0
18.72 0 0
18.8 0 0
18.88 0 0
18.96 0 0
19.04 0 0
19.12 0 0
19.2 0 0
19.28 0 0
19.36 0 0
19.44 0 0
19.52 0 0
19.6 0 0
19.68 0 0
19.76 0 0
19.84 0 0
19.92 0 0
20 0 0
20.08 0 0
20.16 0 0
20.24 0 0
20.32 0 0
20.4 0 0
20.48 0 0
20.56 0 0
20.64 0 0
20.72 0 0
20.8 0 0
20.88 0 0
20.96 0 0
21.04 0 0
21.12 0 0
21.2 0 0
21.28 0 0
21.36 0 0
21.44 0 0
21.52 0 0
21.6 0 0
21.68 0 0
21.76 0 0
21.84 0 0
21.92 0 0
22 0 0
22.08 0 0
22.16 0 0
22.24 0 0
22.32 0 0
22.4 0 0
22.48 0 0
22.56 0 0
22.64 0 0
22.72 0 0
22.8 0 0
22.88 0 0
22.96 0 0
23.04 0 0
23.12 0 0
23.2 0 0
23.28 0 0
23.36 0 0
23.44 0 0
23.52 0 0
23.6 0 0
23.68 0 0
23.76 0 0
23.84 0 0
23.92 0 0
24 0 0
24.08 0 0
24.16 0 0
24.24 0 0
24.32 0 0
24.4 0 0
24.48 0 0
24.56 0 0
24.64 0 0
24.72 0 0
24.8 0 0
24.88 0 0
24.96 0 0
25.04 0 0
25.12 0 0
25.2 0 0
25.28 0 0
25.36 0 0
25.44 0 0
25.52 0 0
25.6 0 0
25.68 0 0
25.76 0 0
25.84 0 0
25.92 0 0
26 0 0
26.08 0 0
26.16 0 0
26.24 0 0
26.32 0 0
26.4 0 0
26.48 0 0
26.56 0 0
26.64 0 0
26.72 0 0
26.8 0 0
26.88 0 0
26.96 0 0
27.04 0 0
27.12 0 0
27.2 0 0
27.28 0 0
27.36 0 0
27.44 0 0
27.52 0 0
27.6 0 0
27.68 0 0
27.76 0 0
27.84 0 0
27.92 0 0
28 0 0
28.08 0 0
28.16 0 0
28.24 0 0
28.32 0 0
28.4 0 0
28.48 0 0
28.56 0 0
28.64 0 0
28.72 0 0
28.8 0 0
28.88 0 0
28.96 0 0
29.04 0 0
29.12 0 0
29.2 0 0
29.28 0 0
29.36 0 0
29.44 0 0
29.52 0 0
29.6 0 0
29.68 0 0
29.76 0 0
29.84 0 0
29.92 0 0
30 0 0
30.08 0 0
30.16 0 0
30.24 0 0
30.32 0 0
30.4 0 0
30.48 0 0
30.56 0 0
30.64 0 0
30.72 0 0
30.8 0 0
30.88 0 0
30.96 0 0
31.04 0 0
31.12 0 0
31.2 0 0
31.28 0 0
31.36 0 0
31.44 0 0
31.52 0 0
31.6 0 0
31.68 0 0
31.76 0 0
31.84 0 0
31.92 0 0
0 0.005 0
0.08 0.005 0
0.16 0.005 0
0.24 0.005 0
0.32 0.005 0
0.4 0.005 0
0.48 0.005 0
0.56 0.005 0
0.64 0.005 0
0.72 0.005 0
0.8 0.005 0
0.88 0.005 0
0.96 0.005 0
1.04 0.005 0
1.12 0.005 0
1.2 0.005 0
1.28 0.005 0
1.36 0.005 0
1.44 0.005 0
1.52 0.005 0
1.6 0.005 0
1.68 0.005 0
1.76 0.005 0
1.84 0.005 0
1.92 0.005 0
2 0.005 0
2.08 0.005 0
2.16 0.005 0
2.24 0.005 0
2.32 0.005 0
2.4 0.005 0
2.48 0.005 0
2.56 0.005 0
2.64 0.005 0
2.72 0.005 0
2.8 0.005 0
2.88 0.005 0
2.96 0.005 0
3.04 0.005 0
3.12 0.005 0
3.2 0.005 0
3.28 0.005 0
3.36 0.005 0
3.44 0.005 0
3.52 0.005 0
3.6 0.005 0
3.68 0.005 0
3.76 0.005 0
3.84 0.005 0
3.92 0.005 0
4 0.005 0
4.08 0.005 0
4.16 0.005 0
4.24 0.005 0
4.32 0.005 0
4.4 0.005 0
4.48 0.005 0
4.56 0.005 0
4.64 0.005 0
4.72 0.005 0
4.8 0.005 0
4.88 0.005 0
4.96 0.005 0
5.04 0.005 0
5.12 0.005 0
5.2 0.005 0
5.28 0.005 0
5.36 0.005 0
5.44 0.005 0
5.52 0.005 0
5.6 0.005 0
5.68 0.005 0
5.76 0.005 0
5.84 0.005 0
5.92 0.005 0
6 0.005 0
6.08 0.005 0
6.16 0.005 0
6.24 0.005 0
6.32 0.005 0
6.4 0.005 0
6.48 0.005 0
6.56 0.005 0
6.64 0.005 0
6.72 0.005 0
6.8 0.005 0
6.88 0.005 0
6.96 0.005 0
7.04 0.005 0
7.12 0.005 0
7.2 0.005 0
7.28 0.005 0
7.36 0.005 0
7.44 0.005 0
7.52 0.005 0
7.6 0.005 0
7.68 0.005 0
7.76 0.005 0
7.84 0.005 0
7.92 0.005 0
8 0.005 0
8.08 0.005 0
8.16 0.005 0
8.24 0.005 0
8.32 0.005 0
8.4 0.005 0
8.48 0.005 0
8.56 0.005 0
8.64 0.005 0
8.72 0.005 0
8.8 0.005 0
8.88 0.005 0
8.96 0.005 0
9.04 0.005 0
9.12 0.005 0
9.2 0.005 0
9.28 0.005 0
9.36 0.005 0
9.44 0.005 0
9.52 0.005 0
9.6 0.005 0
9.68 0.005 0
9.76 0.005 0
9.84 0.005 0
9.92 0.005 0
10 0.005 0
10.08 0.005 0
10.16 0.005 0
10.24 0.005 0
10.32 0.005 0
10.4 0.005 0
10.48 0.005 0
10.56 0.005 0
10.64 0.005 0
10.72 0.005 0
10.8 0.005 0
10.88 0.005 0
10.96 0.005 0
11.04 0.005 0
11.12 0.005 0
11.2 0.005 0
11.28 0.005 0
11.36 0.005 0
11.44 0.005 0
11.52 0.005 0
11.6 0.005 0
11.68 0.005 0
11.76 0.005 0
11.84 0.005 0
11.92 0.005 0
12 0.005 0
12.08 0.005 0
12.16 0.005 0
12.24 0.005 0
12.32 0.005 0
12.4 0.005 0
12.48 0.005 0
12.56 0.005 0
12.64 0.005 0
12.72 0.005 0
12.8 0.005 0
12.88 0.005 0
12.96 0.005 0
13.04 0.005 0
13.12 0.005 0
13.2 0.005 0
13.28 0.005 0
13.36 0.005 0
13.44 0.005 0
13.52 0.005 0
13.6 0.005 0
13.68 0.005 0
13.76 0.005 0
13.84 0.005 0
13.92 0.005 0
14 0.005 0
14.08 0.005 0
14.16 0.005 0
14.24 0.005 0
14.32 0.005 0
14.4 0.005 0
14.48 0.005 0
14.56 0.005 0
14.64 0.005 0
14.72 0.005 0
14.8 0.005 0
14.88 0.005 0
14.96 0.005 0
15.04 0.005 0
15.12 0.005 0
15.2 0.005 0
15.28 0.005 0
15.36 0.005 0
15.44 0.005 0
15.52 0.005 0
15.6 0.005 0
15.68 0.005 0
15.76 0.005 0
15.84 0.005 0
15.92 0.005 0
16 0.005 0
16.08 0.005 0
16.16 0.005 0
16.24 0.005 0
16.32 0.005 0
16.4 0.005 0
16.48 0.005 0
16.56 0.005 0
16.64 0.005 0
16.72 0.005 0
16.8 0.005 0
16.88 0.005 0
16.96 0.005 0
17.04 0.005 0
17.12 0.005 0
17.2 0.005 0
17.28 0.005 0
17.36 0.005 0
17.44 0.005 0
17.52 0.005 0
17.6 0.005 0
17.68 0.005 0
17.76 0.005 0
17.84 0.005 0
17.92 0.005 0
18 0.005 0
18.08 0.005 0
18.16 0.005 0
18.24 0.005 0
18.32 0.005 0
18.4 0.005 0
18.48 0.005 0
18.56 0.005 0
18.64 0.005 0
18.72 0.005 0
18.8 0.005 0
18.88 0.005 0
18.96 0.005 0
19.04 0.005 0
19.12 0.005 0
19.2 0.005 0
19.28 0.005 0
19.36 0.005 0
19.44 0.005 0
19.52 0.005 0
19.6 0.005 0
19.68 0.005 0
19.76 0.005 0
19.84 0.005 0
19.92 0.005 0
20 0.005 0
20.08 0.005 0
20.16 0.005 0
20.24 0.005 0
20.32 0.005 0
20.4 0.005 0
20.48 0.005 0
20.56 0.005 0
20.64 0.005 0
20.72 0.005 0
20.8 0.005 0
20.88 0.005 0
20.96 0.005 0
21.04 0.005 0
21.12 0.005 0
21.2 0.005 0
21.28 0.005 0
21.36 0.005 0
21.44 0.005 0
21.52 0.005 0
21.6 0.005 0
21.68 0.005 0
21.76 0.005 0
21.84 0.005 0
21.92 0.005 0
22 0.005 0
22.08 0.005 0
22.16 0.005 0
22.24 0.005 0
22.32 0.005 0
22.4 0.005 0
22.48 0.005 0
22.56 0.005 0
22.64 0.005 0
22.72 0.005 0
22.8 0.005 0
22.88 0.005 0
22.96 0.005 0
23.04 0.005 0
23.12 0.005 0
23.2 0.005 0
23.28 0.005 0
23.36 0.005 0
23.44 0.005 0
23.52 0.005 0
23.6 0.005 0
23.68 0.005 0
23.76 0.005 0
23.84 0.005 0
23.92 0.005 0
24 0.005 0
24.08 0.005 0
24.16 0.005 0
24.24 0.005 0
24.32 0.005 0
24.4 0.005 0
24.48 0.005 0
24.56 0.005 0
24.64 0.005 0
24.72 0.005 0
24.8 0.005 0
24.88 0.005 0
24.96 0.005 0
25.04 0.005 0
25.12 0.005 0
25.2 0.005 0
25.28 0.005 0
25.36 0.005 0
25.44 0.005 0
25.52 0.005 0
25.6 0.005 0
25.68 0.005 0
25.76 0.005 0
25.84 0.005 0
25.92 0.005 0
26 0.005 0
26.08 0.005 0
26.16 0.005 0
26.24 0.005 0
26.32 0.005 0
26.4 0.005 0
26.48 0.005 0
26.56 0.005 0
26.64 0.005 0
26.72 0.005 0
26.8 0.005 0
26.88 0.005 0
26.96 0.005 0
27.04 0.005 0
27.12 0.005 0
27.2 0.005 0
27.28 0.005 0
27.36 0.005 0
27.44 0.005 0
27.52 0.005 0
27.6 0.005 0
27.68 0.005 0
27.76 0.005 0
27.84 0.005 0
27.92 0.005 0
28 0.005 0
28.08 0.005 0
28.16 0.005 0
28.24 0.005 0
28.32 0.005 0
28.4 0.005 0
28.48 0.005 0
28.56 0.005 0
28.64 0.005 0
28.72 0.005 0
28.8 0.005 0
28.88 0.005 0
28.96 0.005 0
29.04 0.005 0
29.12 0.005 0
29.2 0.005 0
29.28 0.005 0
29.36 0.005 0
29.44 0.005 0
29.52 0.005 0
29.6 0.005 0
29.68 0.005 0
29.76 0.005 0
29.84 0.005 0
29.92 0.005 0
30 0.005 0
30.08 0.005 0
30.16 0.005 0
30.24 0.005 0
30.32 0.005 0
30.4 0.005 0
30.48 0.005 0
30.56 0.005 0
30.64 0.005 0
30.72 0.005 0
30.8 0.005 0
30.88 0.005 0
30.96 0.005 0
31.04 0.005 0
31.12 0.005 0
31.2 0.005 0
31.28 0.005 0
31.36 0.005 0
31.44 0.005 0
31.52 0.005 0
31.6 0.005 0
31.68 0.005 0
31.76 0.005 0
31.84 0.005 0
31.92 0.005 0
0 0.01 0
0.08 0.01 0
0.16 0.01 0
0.24 0.01 0
0.32 0.01 0
0.4 0.01 0
0.48 0.01 0
0.56 0.01 0
0.64 0.01 0
0.72 0.01 0
0.8 0.01 0
0.88 0.01 0
0.96 0.01 0
1.04 0.01 0
1.12 0.01 0
1.2 0.01 0
1.28 0.01 0
1.36 0.01 0
1.44 0.01 0
1.52 0.01 0
1.6 0.01 0
1.68 0.01 0
1.76 0.01 0
1.84 0.01 0
1.92 0.01 0
2 0.01 0
2.08 0.01 0
2.16 0.01 0
2.24 0.01 0
2.32 0.01 0
2.4 0.01 0
2.48 0.01 0
2.56 0.01 0
2.64 0.01 0
2.72 0.01 0
2.8 0.01 0
2.88 0.01 0
2.96 0.01 0
3.04 0.01 0
3.12 0.01 0
3.2 0.01 0
3.28 0.01 0
3.36 0.01 0
3.44 0.01 0
3.52 0.01 0
3.6 0.01 0
3.68 0.01 0
3.76 0.01 0
3.84 0.01 0
3.92 0.01 0
4 0.01 0
4.08 0.01 0
4.16 0.01 0
4.24 0.01 0
4.32 0.01 0
4.4 0.01 0
4.48 0.01 0
4.56 0.01 0
4.64 0.01 0
4.72 0.01 0
4.8 0.01 0
4.88 0.01 0
4.96 0.01 0
5.04 0.01 0
5.12 0.01 0
[...]
POINT_DATA 80000

SCALARS p float 1
LOOKUP_TABLE default
1
56.54771966
56.24598458
56.20482474
56.18473472
56.17031574
56.15831473
56.14757126
56.13757308
56.12806744
56.11892109
56.11006031
56.10144234
56.09304078
56.08483797
56.07682089
56.06897897
56.06130302
56.05378459
56.04641576
56.03918899
56.0320971
56.02513326
56.01829099
56.01156417
56.00494702
55.99843411
55.99202037
55.98570103
55.97947164
55.97332804
55.96726633
55.96128288
55.95537428
55.94953734
55.94376909
55.93806672
55.93242761
55.92684929
55.92132944
55.91586587
55.91045652
55.90509945
55.89979283
55.8945349
55.88932404
55.88415867
55.87903732
55.87395859
55.86892114
55.86392369
55.85896505
55.85404404
55.84915957
55.84431059
55.83949609
55.83471511
55.82996673
55.82525006
55.82056425
55.8159085
55.81128202
55.80668406
55.80211389
55.79757083
55.7930542
55.78856335
55.78409767
55.77965655
55.77523941
55.77084569
55.76647485
55.76212635
55.7577997
55.7534944
55.74920997
55.74494596
55.7407019
55.73647737
55.73227194
55.72808521
55.72391676
55.71976622
55.7156332
55.71151734
55.70741828
55.70333567
55.69926916
55.69521844
55.69118317
55.68716304
55.68315775
55.67916698
55.67519046
55.67122789
55.667279
55.66334351
55.65942116
55.65551168
55.65161482
55.64773033
55.64385796
55.63999749
55.63614867
55.63231128
55.62848509
55.62466989
55.62086545
55.61707158
55.61328806
55.6095147
55.60575129
55.60199765
55.59825358
55.5945189
55.59079343
55.58707699
55.5833694
55.5796705
55.57598011
55.57229808
55.56862423
55.56495842
55.56130048
55.55765027
55.55400763
55.55037243
55.54674451
55.54312374
55.53950998
55.53590309
55.53230295
55.52870941
55.52512236
55.52154168
55.51796723
55.51439891
55.51083659
55.50728016
55.50372953
55.50018457
55.49664519
55.49311129
55.48958277
55.48605954
55.48254151
55.4790286
55.47552074
55.47201783
55.46851981
55.46502662
55.46153817
55.45805442
55.45457531
55.45110077
55.44763076
55.44416521
55.4407041
55.43724735
55.43379494
55.43034682
55.42690294
55.42346326
55.42002774
55.41659633
55.41316899
55.40974569
55.40632636
55.40291098
55.39949948
55.39609183
55.39268798
55.38928787
55.38589144
55.38249866
55.37910945
55.37572377
55.37234155
55.36896273
55.36558724
55.36221502
55.35884601
55.35548012
55.3521173
55.34875746
55.34540054
55.34204646
55.33869515
55.33534652
55.3320005
55.328657
55.32531595
55.32197726
55.31864086
55.31530667
55.3119746
55.30864457
55.3053165
55.30199032
55.29866593
55.29534326
55.29202223
55.28870277
55.28538479
55.28206823
55.27875301
55.27543905
55.27212629
55.26881466
55.26550407
55.26219448
55.25888582
55.25557801
55.25227102
55.24896477
55.24565921
55.24235429
55.23904996
55.23574617
55.23244286
55.22914
55.22583754
55.22253545
55.21923368
55.2159322
55.21263099
55.20933
55.20602922
55.20272861
55.19942815
55.19612782
55.1928276
55.18952747
55.18622741
55.18292741
55.17962747
55.17632756
55.17302768
55.16972782
55.16642798
55.16312815
55.15982833
55.15652851
55.15322869
55.14992887
55.14662905
55.14332922
55.14002938
55.13672954
55.1334297
55.13012984
55.12682998
55.12353011
55.12023024
55.11693036
55.11363047
55.11033057
55.10703066
55.10373075
55.10043083
55.0971309
55.09383096
55.09053101
55.08723106
55.0839311
55.08063113
55.07733115
55.07403117
55.07073117
55.06743117
55.06413116
55.06083115
55.05753112
55.05423109
55.05093105
55.047631
55.04433094
55.04103088
55.03773081
55.03443073
55.03113064
55.02783054
55.02453044
55.02123032
55.0179302
55.01463007
55.01132994
55.00802979
55.00472964
55.00142948
54.99812931
54.99482913
54.99152894
54.98822875
54.98492855
54.98162834
54.97832812
54.97502789
54.97172766
54.96842741
54.96512716
54.9618269
54.95852664
54.95522636
54.95192607
54.94862578
54.94532548
54.94202517
54.93872486
54.93542453
54.9321242
54.92882385
54.9255235
54.92222314
54.91892278
54.9156224
54.91232202
54.90902163
54.90572122
54.90242082
54.8991204
54.89581997
54.89251954
54.8892191
54.88591864
54.88261819
54.87931772
54.87601724
54.87271676
54.86941626
54.86611576
54.86281525
54.85951473
54.85621421
54.85291367
54.84961312
54.84631257
54.84301201
54.83971144
54.83641086
54.83311028
54.82980968
54.82650908
54.82320846
54.81990784
54.81660721
54.81330657
54.81000593
54.80670527
54.8034046
54.80010393
54.79680325
54.79350256
54.79020186
54.78690115
54.78360044
54.78029971
54.77699898
54.77369823
54.77039748
54.76709672
54.76379595
54.76049517
54.75719439
54.75389359
54.75059279
54.74729198
54.74399115
54.74069032
54.73738948
54.73408864
54.73078778
54.72748691
54.72418604
54.72088515
54.71758426
54.71428336
54.71098245
54.70768153
54.70438061
54.70107967
54.69777872
54.69447777
54.69117681
54.68787583
54.68457485
54.68127386
54.67797286
54.67467186
54.67137084
54.66806981
54.66476877
54.66146774
54.65816667
54.65486562
54.65156452
54.64826348
54.6449623
54.6416616
0.5
56.54771966
56.54771966
56.24598458
56.20482474
56.18473472
56.17031574
56.15831473
56.14757126
56.13757308
56.12806744
56.11892109
56.11006031
56.10144234
56.09304078
56.08483797
56.07682089
56.06897897
56.06130302
56.05378459
56.04641576
56.03918899
56.0320971
56.02513326
56.01829099
56.01156417
56.00494702
55.99843411
55.99202037
55.98570103
55.97947164
55.97332804
55.96726633
55.96128288
55.95537428
55.94953734
55.94376909
55.93806672
55.93242761
55.92684929
55.92132944
55.91586587
55.91045652
55.90509945
55.89979283
55.8945349
55.88932404
55.88415867
55.87903732
55.87395859
55.86892114
55.86392369
55.85896505
55.85404404
55.84915957
55.84431059
55.83949609
55.83471511
55.82996673
55.82525006
55.82056425
55.8159085
55.81128202
55.80668406
55.80211389
55.79757083
55.7930542
55.78856335
55.78409767
55.77965655
55.77523941
55.77084569
55.76647485
55.76212635
55.7577997
55.7534944
55.74920997
55.74494596
55.7407019
55.73647737
55.73227194
55.72808521
55.72391676
55.71976622
55.7156332
55.71151734
55.70741828
55.70333567
55.69926916
55.69521844
55.69118317
55.68716304
55.68315775
55.67916698
55.67519046
55.67122789
55.667279
55.66334351
55.65942116
55.65551168
55.65161482
55.64773033
55.64385796
55.63999749
55.63614867
55.63231128
55.62848509
55.62466989
55.62086545
55.61707158
55.61328806
55.6095147
55.60575129
55.60199765
55.59825358
55.5945189
55.59079343
55.58707699
55.5833694
55.5796705
55.57598011
55.57229808
55.56862423
55.56495842
55.56130048
55.55765027
55.55400763
55.55037243
55.54674451
55.54312374
55.53950998
55.53590309
55.53230295
55.52870941
55.52512236
55.52154168
55.51796723
55.51439891
55.51083659
55.50728016
55.50372953
55.50018457
55.49664519
55.49311129
55.48958277
55.48605954
55.48254151
55.4790286
55.47552074
55.47201783
55.46851981
55.46502662
55.46153817
55.45805442
55.45457531
55.45110077
55.44763076
55.44416521
55.4407041
55.43724735
55.43379494
55.43034682
55.42690294
55.42346326
55.42002774
55.41659633
55.41316899
55.40974569
55.40632636
55.40291098
55.39949948
55.39609183
55.39268798
55.38928787
55.38589144
55.38249866
55.37910945
55.37572377
55.37234155
55.36896273
55.36558724
55.36221502
55.35884601
55.35548012
55.3521173
55.34875746
55.34540054
55.34204646
55.33869515
55.33534652
55.3320005
55.328657
55.32531595
55.32197726
55.31864086
55.31530667
55.3119746
55.30864457
55.3053165
55.30199032
55.29866593
55.29534326
55.29202223
55.28870277
55.28538479
55.28206823
55.27875301
55.27543905
55.27212629
55.26881466
55.26550407
55.26219448
55.25888582
55.25557801
55.25227102
55.24896477
55.24565921
55.24235429
55.23904996
55.23574617
55.23244286
55.22914
55.22583754
55.22253545
55.21923368
55.2159322
55.21263099
55.20933
55.20602922
55.20272861
55.19942815
55.19612782
55.1928276
55.18952747
55.18622741
55.18292741
55.17962747
55.17632756
55.17302768
55.16972782
55.16642798
55.16312815
55.15982833
55.15652851
55.15322869
55.14992887
55.14662905
55.14332922
55.14002938
55.13672954
55.1334297
55.13012984
55.12682998
55.12353011
55.12023024
55.11693036
55.11363047
55.11033057
55.10703066
55.10373075
55.10043083
55.0971309
55.09383096
55.09053101
55.08723106
55.0839311
55.08063113
55.07733115
55.07403117
55.07073117
55.06743117
55.06413116
55.06083115
55.05753112
55.05423109
55.05093105
55.047631
55.04433094
55.04103088
55.03773081
55.03443073
55.03113064
55.02783054
55.02453044
55.02123032
55.0179302
55.01463007
55.01132994
55.00802979
55.00472964
55.00142948
54.99812931
54.99482913
54.99152894
54.98822875
54.98492855
54.98162834
54.97832812
54.97502789
54.97172766
54.96842741
54.96512716
54.9618269
54.95852664
54.95522636
54.95192607
54.94862578
54.94532548
54.94202517
54.93872486
54.93542453
54.9321242
54.92882385
54.9255235
54.92222314
54.91892278
54.9156224
54.91232202
54.90902163
54.90572122
54.90242082
54.8991204
54.89581997
54.89251954
54.8892191
54.88591864
54.88261819
54.87931772
54.87601724
54.87271676
54.86941626
54.86611576
54.86281525
54.85951473
54.85621421
54.85291367
54.84961312
54.84631257
54.84301201
54.83971144
54.83641086
54.83311028
54.82980968
54.82650908
54.82320846
54.81990784
54.81660721
54.81330657
54.81000593
54.80670527
54.8034046
54.80010393
54.79680325
54.79350256
54.79020186
54.78690115
54.78360044
54.78029971
54.77699898
54.77369823
54.77039748
54.76709672
54.76379595
54.76049517
54.75719439
54.75389359
54.75059279
54.74729198
54.74399115
54.74069032
54.73738948
54.73408864
54.73078778
54.72748691
54.72418604
54.72088515
54.71758426
54.71428336
54.71098245
54.70768153
54.70438061
54.70107967
54.69777872
54.69447777
54.69117681
54.68787583
54.68457485
54.68127386
54.67797286
54.67467186
54.67137084
54.66806981
54.66476877
54.66146774
54.65816667
54.65486562
54.65156452
54.64826348
54.6449623
54.6416616
54.6416616
56.53313792
56.53313792
56.24982046
56.20608016
56.18536996
56.17071025
56.15858642
56.14777071
56.13772623
56.12818914
56.11902051
56.11014341
56.10151314
56.09310207
56.08489175
56.07686862
56.06902174
56.06134165
56.05381973
56.04644791
56.03921855
56.03212441
56.02515859
56.01831456
56.01158617
56.00496761
55.99845343
55.99203855
55.98571817
55.97948783
55.97334335
55.96728085
55.96129666
55.95538738
55.94954982
55.94378099
55.93807809
55.93243847
55.92685968
55.92133939
55.91587541
55.91046568
55.90510825
55.89980129
55.89454304
55.88933188
55.88416623
55.87904461
55.87396563
55.86892793
55.86393026
55.85897139
55.85405018
55.84916552
55.84431635
55.83950167
55.83472052
55.82997198
55.82525515
55.8205692
55.8159133
55.81128668
55.80668859
55.8021183
55.79757512
55.79305837
55.78856741
55.78410162
55.7796604
55.77524316
55.77084934
55.7664784
55.76212982
55.75780308
55.7534977
55.74921319
55.7449491
55.74070497
55.73648036
55.73227486
55.72808806
55.72391955
55.71976894
55.71563586
55.71151994
55.70742081
55.70333814
55.69927158
55.69522081
55.69118548
55.6871653
55.68315996
55.67916915
55.67519258
55.67122997
55.66728103
55.66334549
55.6594231
55.65551357
55.65161667
55.64773214
55.64385974
55.63999923
55.63615038
55.63231295
55.62848672
55.62467149
55.62086702
55.61707311
55.61328956
55.60951617
55.60575273
55.60199906
55.59825496
55.59452025
55.59079476
55.58707829
55.58337067
55.57967174
55.57598133
55.57229927
55.5686254
55.56495956
55.5613016
55.55765137
55.55400871
55.55037348
55.54674554
55.54312475
55.53951097
55.53590406
55.5323039
55.52871034
55.52512327
55.52154257
55.5179681
55.51439976
55.51083743
55.50728099
55.50373033
55.50018536
55.49664596
55.49311204
55.48958351
55.48606026
55.48254222
55.4790293
55.47552142
55.4720185
55.46852047
55.46502726
55.4615388
55.45805504
55.45457591
55.45110136
55.44763133
55.44416578
55.44070464
55.43724789
55.43379547
55.43034733
55.42690344
55.42346374
55.42002821
55.41659679
55.41316944
55.40974612
55.40632678
55.40291139
55.39949988
55.39609222
55.39268835
55.38928823
55.38589179
55.382499
55.37910978
55.37572408
55.37234185
55.36896302
55.36558752
55.36221529
55.35884626
55.35548037
55.35211753
55.34875769
55.34540076
55.34204667
55.33869534
55.3353467
55.33200067
55.32865717
55.32531611
55.32197741
55.318641
55.3153068
55.31197472
55.30864469
55.30531661
55.30199042
55.29866603
55.29534335
55.29202232
55.28870285
55.28538486
55.28206829
55.27875307
55.27543911
55.27212634
55.2688147
55.26550411
55.26219452
55.25888585
55.25557804
55.25227104
55.24896479
55.24565923
55.24235431
55.23904998
55.23574618
55.23244287
55.22914001
55.22583755
55.22253545
55.21923368
55.21593221
55.21263099
55.20933
55.20602922
55.20272861
55.19942815
55.19612782
55.1928276
55.18952746
55.18622741
55.18292741
55.17962746
55.17632755
55.17302767
55.16972781
55.16642797
55.16312814
55.15982832
55.1565285
55.15322868
55.14992886
55.14662904
55.14332921
55.14002938
55.13672954
55.13342969
55.13012984
55.12682998
55.12353011
55.12023023
55.11693035
55.11363046
55.11033056
55.10703066
55.10373074
55.10043082
55.09713089
55.09383095
55.09053101
55.08723105
55.08393109
55.08063112
55.07733115
55.07403116
55.07073117
55.06743117
55.06413116
55.06083114
55.05753112
55.05423108
55.05093104
55.047631
55.04433094
55.04103087
55.0377308
55.03443072
55.03113063
55.02783053
55.02453043
55.02123032
55.0179302
55.01463007
55.01132993
55.00802979
55.00472963
55.00142947
54.9981293
54.99482912
54.99152894
54.98822874
54.98492854
54.98162833
54.97832811
54.97502789
54.97172765
54.96842741
54.96512716
54.9618269
54.95852663
54.95522635
54.95192607
54.94862578
54.94532548
54.94202517
54.93872485
54.93542452
54.93212419
54.92882385
54.9255235
54.92222314
54.91892277
54.9156224
54.91232201
54.90902162
54.90572122
54.90242081
54.89912039
54.89581997
54.89251953
54.88921909
54.88591864
54.88261818
54.87931771
54.87601724
54.87271675
54.86941626
54.86611576
54.86281525
54.85951473
54.8562142
54.85291366
54.84961312
54.84631257
54.84301201
54.83971144
54.83641086
54.83311027
54.82980967
54.82650907
54.82320846
54.81990784
54.81660721
54.81330657
54.81000592
54.80670526
54.8034046
54.80010393
54.79680324
54.79350255
54.79020185
54.78690115
54.78360043
54.78029971
54.77699897
54.77369823
54.77039748
54.76709672
54.76379595
54.76049517
54.75719438
54.75389359
54.75059278
54.74729197
54.74399115
54.74069032
54.73738948
54.73408863
54.73078777
54.72748691
54.72418603
54.72088515
54.71758426
54.71428336
54.71098245
54.70768153
54.7043806
54.70107966
54.69777872
54.69447776
54.6911768
54.68787583
54.68457485
54.68127386
54.67797286
54.67467185
54.67137083
54.66806981
54.66476877
54.66146773
54.65816667
54.65486562
54.65156451
54.64826348
54.64496231
54.6416616
54.6416616
56.51715332
56.51715332
56.25300888
56.20726734
56.18598596
56.17109652
56.15885385
56.14796765
56.13787771
56.12830962
56.11911895
56.11022566
56.10158316
56.09316264
56.08494485
56.0769157
56.06906389
56.06137969
56.05385431
56.04647952
56.03924761
56.03215124
56.02518345
56.01833769
56.01160775
56.0049878
55.99847238
55.99205636
55.98573496
55.97950369
55.97335836
55.96729507
55.96131016
55.95540022
55.94956204
55.94379264
55.93808921
55.9324491
55.92686985
55.92134913
55.91588475
55.91047465
55.90511686
55.89980956
55.89455101
55.88933955
55.88417362
55.87905174
55.87397251
55.86893458
55.86393668
55.8589776
55.85405618
55.84917133
55.84432198
55.83950713
55.83472581
55.8299771
55.82526012
55.82057402
55.81591799
55.81129124
55.80669302
55.8021226
55.7975793
55.79306244
55.78857137
55.78410548
55.77966415
55.77524682
55.77085291
55.76648188
55.76213321
55.75780638
55.75350092
55.74921633
55.74495216
55.74070796
55.73648328
55.73227771
55.72809084
55.72392226
55.71977159
55.71563845
55.71152247
55.70742329
55.70334056
55.69927395
55.69522312
55.69118774
55.68716751
55.68316212
55.67917126
55.67519464
55.67123199
55.667283
55.66334743
55.65942499
55.65551542
55.65161848
55.64773392
55.64386148
55.64000093
55.63615204
55.63231457
55.62848832
55.62467304
55.62086854
55.61707461
55.61329103
55.6095176
55.60575413
55.60200043
55.59825631
55.59452157
55.59079604
55.58707955
55.58337191
55.57967295
55.57598252
55.57230043
55.56862654
55.56496067
55.56130269
55.55765244
55.55400976
55.55037451
55.54674655
55.54312574
55.53951193
55.53590501
55.53230482
55.52871125
55.52512416
55.52154344
55.51796896
55.5144006
55.51083825
55.50728179
55.50373112
55.50018613
55.49664672
55.49311278
55.48958423
55.48606097
55.48254292
55.47902998
55.47552208
55.47201915
55.46852111
55.46502788
55.46153941
55.45805564
55.4545765
55.45110193
55.44763189
55.44416632
55.44070518
55.43724841
55.43379598
55.43034783
55.42690392
55.42346422
55.42002867
55.41659724
55.41316988
55.40974654
55.40632719
55.40291178
55.39950026
55.39609259
55.39268871
55.38928858
55.38589213
55.38249932
55.37911009
55.37572439
55.37234214
55.3689633
55.36558779
55.36221555
55.35884651
55.3554806
55.35211776
55.3487579
55.34540096
55.34204686
55.33869553
55.33534688
55.33200084
55.32865733
55.32531626
55.32197755
55.31864114
55.31530693
55.31197484
55.3086448
55.30531672
55.30199052
55.29866612
55.29534344
55.2920224
55.28870292
55.28538493
55.28206836
55.27875312
55.27543916
55.27212639
55.26881474
55.26550415
55.26219455
55.25888588
55.25557807
55.25227107
55.24896481
55.24565925
55.24235433
55.23904999
55.23574619
55.23244288
55.22914002
55.22583756
55.22253546
55.21923369
55.21593221
55.21263099
55.20933
55.20602922
55.20272861
55.19942815
55.19612782
55.1928276
55.18952746
55.1862274
55.18292741
55.17962746
55.17632755
55.17302767
55.16972781
55.16642797
55.16312814
55.15982832
55.1565285
55.15322868
55.14992886
55.14662904
55.14332921
55.14002937
55.13672953
55.13342969
55.13012983
55.12682997
55.1235301
55.12023023
55.11693035
55.11363046
55.11033056
55.10703065
55.10373074
55.10043082
55.09713089
55.09383095
55.090531
55.08723105
55.08393109
55.08063112
55.07733114
55.07403116
55.07073116
55.06743116
55.06413115
55.06083114
55.05753111
55.05423108
55.05093104
55.04763099
55.04433093
55.04103087
55.0377308
55.03443072
55.03113063
55.02783053
55.02453043
55.02123031
55.01793019
55.01463006
55.01132993
55.00802978
55.00472963
55.00142947
54.9981293
54.99482912
54.99152893
54.98822874
54.98492854
54.98162833
54.97832811
54.97502788
54.97172765
54.9684274
54.96512715
54.96182689
54.95852663
54.95522635
54.95192607
54.94862577
54.94532547
54.94202516
54.93872485
54.93542452
54.93212419
54.92882384
54.92552349
54.92222314
54.91892277
54.91562239
54.91232201
54.90902162
54.90572122
54.90242081
54.89912039
54.89581996
54.89251953
54.88921909
54.88591864
54.88261818
54.87931771
54.87601723
54.87271675
54.86941625
54.86611575
54.86281524
54.85951472
54.8562142
54.85291366
54.84961312
54.84631256
54.843012
54.83971143
54.83641085
54.83311027
54.82980967
54.82650907
54.82320845
54.81990783
54.8166072
54.81330656
54.81000592
54.80670526
54.8034046
54.80010392
54.79680324
54.79350255
54.79020185
54.78690114
54.78360043
54.7802997
54.77699897
54.77369822
54.77039747
54.76709671
54.76379594
54.76049517
54.75719438
54.75389358
54.75059278
54.74729197
54.74399115
54.74069031
54.73738948
54.73408863
54.73078777
54.7274869
54.72418603
54.72088515
54.71758425
54.71428335
54.71098244
54.70768152
54.7043806
54.70107966
54.69777871
54.69447776
54.6911768
54.68787582
54.68457484
54.68127385
54.67797285
54.67467185
54.67137083
54.66806981
54.66476877
54.66146773
54.65816666
54.65486561
54.65156451
54.64826347
54.64496231
54.64166159
54.64166159
56.5012385
56.5012385
56.25589548
56.20840737
56.18658755
56.17147655
56.15911809
56.14816272
56.13802795
56.12842916
56.11921661
56.11030721
56.10165253
56.09322258
56.08499734
56.07696219
56.06910546
56.06141718
56.05388835
56.04651063
56.03927618
56.0321776
56.02520787
56.01836039
56.01162892
56.00500761
55.99849096
55.99207383
55.98575142
55.97951922
55.97337306
55.967309
55.96132338
55.95541278
55.94957401
55.94380404
55.93810009
55.9324595
55.9268798
55.92135866
55.91589389
55.91048341
55.90512528
55.89981766
55.89455879
55.88934704
55.88418084
55.87905871
55.87397923
55.86894107
55.86394295
55.85898366
55.85406205
55.849177
55.84432747
55.83951245
55.83473097
55.82998211
55.82526498
55.82057874
55.81592257
55.81129568
55.80669734
55.8021268
55.79758339
55.79306641
55.78857524
55.78410924
55.77966782
55.77525039
55.77085638
55.76648526
55.76213651
55.7578096
55.75350406
55.74921939
55.74495515
55.74071087