# vtk DataFile Version 2.0
FlowField
ASCII
DATASET STRUCTURED_GRID
DIMENSIONS 400 1 200
POINTS 80000 float
0 0 0
0.08 0 0
0.16 0 0
0.24 0 0
0.32 0 0
0.4 0 0
0.48 0 0
0.56 0 0
0.64 0 0
0.72 0 0
0.8 0 0
0.88 0 0
0.96 0 0
1.04 0 0
1.12 0 0
1.2 0 0
1.28 0 0
1.36 0 0
1.44 0 0
1.52 0 0
1.6 0 0
1.68 0 0
1.76 0 0
1.84 0 0
1.92 0 0
2 0 0
2.08 0 0
2.16 0 0
2.24 0 0
2.32 0 0
2.4 0 0
2.48 0 0
2.56 0 0
2.64 0 0
2.72 0 0
2.8 0 0
2.88 0 0
2.96 0 0
3.04 0 0
3.12 0 0
3.2 0 0
3.28 0 0
3.36 0 0
3.44 0 0
3.52 0 0
3.6 0 0
3.68 0 0
3.76 0 0
3.84 0 0
3.92 0 0
4 0 0
4.08 0 0
4.16 0 0
4.24 0 0
4.32 0 0
4.4 0 0
4.48 0 0
4.56 0 0
4.64 0 0
4.72 0 0
4.8 0 0
4.88 0 0
4.96 0 0
5.04 0 0
5.12 0 0
5.2 0 0
5.28 0 0
5.36 0 0
5.44 0 0
5.52 0 0
5.6 0 0
5.68 0 0
5.76 0 0
5.84 0 0
5.92 0 0
6 0 0
6.08 0 0
6.16 0 0
6.24 0 0
6.32 0 0
6.4 0 0
6.48 0 0
6.56 0 0
6.64 0 0
6.72 0 0
6.8 0 0
6.88 0 0
6.96 0 0
7.04 0 0
7.12 0 0
7.2 0 0
7.28 0 0
7.36 0 0
7.44 0 0
7.52 0 0
7.6 0 0
7.68 0 0
7.76 0 0
7.84 0 0
7.92 0 0
8 0 0
8.08 0 0
8.16 0 0
8.24 0 0
8.32 0 0
8.4 0 0
8.48 0 0
8.56 0 0
8.64 0 0
8.72 0 0
8.8 0 0
8.88 0 0
8.96 0 0
9.04 0 0
9.12 0 0
9.2 0 0
9.28 0 0
9.36 0 0
9.44 0 0
9.52 0 0
9.6 0 0
9.68 0 0
9.76 0 0
9.84 0 0
9.92 0 0
10 0 0
10.08 0 0
10.16 0 0
10.24 0 0
10.32 0 0
10.4 0 0
10.48 0 0
10.56 0 0
10.64 0 0
10.72 0 0
10.8 0 0
10.88 0 0
10.96 0 0
11.04 0 0
11.12 0 0
11.2 0 0
11.28 0 0
11.36 0 0
11.44 0 0
11.52 0 0
11.6 0 0
11.68 0 0
11.76 0 0
11.84 0 0
11.92 0 0
12 0 0
12.08 0 0
12.16 0 0
12.24 0 0
12.32 0 0
12.4 0 0
12.48 0 0
12.56 0 0
12.64 0 0
12.72 0 0
12.8 0 0
12.88 0 0
12.96 0 0
13.04 0 0
13.12 0 0
13.2 0 0
13.28 0 0
13.36 0 0
13.44 0 0
13.52 0 0
13.6 0 0
13.68 0 0
13.76 0 0
13.84 0 0
13.92 0 0
14 0 0
14.08 0 0
14.16 0 0
14.24 0 0
14.32 0 0
14.4 0 0
14.48 0 0
14.56 0 0
14.64 0 0
14.72 0 0
14.8 0 0
14.88 0 0
14.96 0 0
15.04 0 0
15.12 0 0
15.2 0 0
15.28 0 0
15.36 0 0
15.44 0 0
15.52 0 0
15.6 0 0
15.68 0 0
15.76 0 0
15.84 0 0
15.92 0 0
16 0 0
16.08 0 0
16.16 0 0
16.24 0 0
16.32 0 0
16.4 0 0
16.48 0 0
16.56 0 0
16.64 0 0
16.72 0 0
16.8 0 0
16.88 0 0
16.96 0 0
17.04 0 0
17.12 0 0
17.2 0 0
17.28 0 0
17.36 0 0
17.44 0 0
17.52 0 0
17.6 0 0
17.68 0 0
17.76 0 0
17.84 0 0
17.92 0 0
18 0 0
18.08 0 0
18.16 0 0
18.24 0 0
18.32 0 0
18.4 0 0
18.48 0 0
18.56 0 0
18.64 0 0
18.72 0 0
18.8 0 0
18.88 0 0
18.96 0 0
19.04 0 0
19.12 0 0
19.2 0 0
19.28 0 0
19.36 0 0
19.44 0 0
19.52 0 0
19.6 0 0
19.68 0 0
19.76 0 0
19.84 0 0
19.92 0 0
20 0 0
20.08 0 0
20.16 0 0
20.24 0 0
20.32 0 0
20.4 0 0
20.48 0 0
20.56 0 0
20.64 0 0
20.72 0 0
20.8 0 0
20.88 0 0
20.96 0 0
21.04 0 0
21.12 0 0
21.2 0 0
21.28 0 0
21.36 0 0
21.44 0 0
21.52 0 0
21.6 0 0
21.68 0 0
21.76 0 0
21.84 0 0
21.92 0 0
22 0 0
22.08 0 0
22.16 0 0
22.24 0 0
22.32 0 0
22.4 0 0
22.48 0 0
22.56 0 0
22.64 0 0
22.72 0 0
22.8 0 0
22.88 0 0
22.96 0 0
23.04 0 0
23.12 0 0
23.2 0 0
23.28 0 0
23.36 0 0
23.44 0 0
23.52 0 0
23.6 0 0
23.68 0 0
23.76 0 0
23.84 0 0
23.92 0 0
24 0 0
24.08 0 0
24.16 0 0
24.24 0 0
24.32 0 0
24.4 0 0
24.48 0 0
24.56 0 0
24.64 0 0
24.72 0 0
24.8 0 0
24.88 0 0
24.96 0 0
25.04 0 0
25.12 0 0
25.2 0 0
25.28 0 0
25.36 0 0
25.44 0 0
25.52 0 0
25.6 0 0
25.68 0 0
25.76 0 0
25.84 0 0
25.92 0 0
26 0 0
26.08 0 0
26.16 0 0
26.24 0 0
26.32 0 0
26.4 0 0
26.48 0 0
26.56 0 0
26.64 0 0
26.72 0 0
26.8 0 0
26.88 0 0
26.96 0 0
27.04 0 0
27.12 0 0
27.2 0 0
27.28 0 0
27.36 0 0
27.44 0 0
27.52 0 0
27.6 0 0
27.68 0 0
27.76 0 0
27.84 0 0
27.92 0 0
28 0 0
28.08 0 0
28.16 0 0
28.24 0 0
28.32 0 0
28.4 0 0
28.48 0 0
28.56 0 0
28.64 0 0
28.72 0 0
28.8 0 0
28.88 0 0
28.96 0 0
29.04 0 0
29.12 0 0
29.2 0 0
29.28 0 0
29.36 0 0
29.44 0 0
29.52 0 0
29.6 0 0
29.68 0 0
29.76 0 0
29.84 0 0
29.92 0 0
30 0 0
30.08 0 0
30.16 0 0
30.24 0 0
30.32 0 0
30.4 0 0
30.48 0 0
30.56 0 0
30.64 0 0
30.72 0 0
30.8 0 0
30.88 0 0
30.96 0 0
31.04 0 0
31.12 0 0
31.2 0 0
31.28 0 0
31.36 0 0
31.44 0 0
31.52 0 0
31.6 0 0
31.68 0 0
31.76 0 0
31.84 0 0
31.92 0 0
0 0.005 0
0.08 0.005 0
0.16 0.005 0
0.24 0.005 0
0.32 0.005 0
0.4 0.005 0
0.48 0.005 0
0.56 0.005 0
0.64 0.005 0
0.72 0.005 0
0.8 0.005 0
0.88 0.005 0
0.96 0.005 0
1.04 0.005 0
1.12 0.005 0
1.2 0.005 0
1.28 0.005 0
1.36 0.005 0
1.44 0.005 0
1.52 0.005 0
1.6 0.005 0
1.68 0.005 0
1.76 0.005 0
1.84 0.005 0
1.92 0.005 0
2 0.005 0
2.08 0.005 0
2.16 0.005 0
2.24 0.005 0
2.32 0.005 0
2.4 0.005 0
2.48 0.005 0
2.56 0.005 0
2.64 0.005 0
2.72 0.005 0
2.8 0.005 0
2.88 0.005 0
2.96 0.005 0
3.04 0.005 0
3.12 0.005 0
3.2 0.005 0
3.28 0.005 0
3.36 0.005 0
3.44 0.005 0
3.52 0.005 0
3.6 0.005 0
3.68 0.005 0
3.76 0.005 0
3.84 0.005 0
3.92 0.005 0
4 0.005 0
4.08 0.005 0
4.16 0.005 0
4.24 0.005 0
4.32 0.005 0
4.4 0.005 0
4.48 0.005 0
4.56 0.005 0
4.64 0.005 0
4.72 0.005 0
4.8 0.005 0
4.88 0.005 0
4.96 0.005 0
5.04 0.005 0
5.12 0.005 0
5.2 0.005 0
5.28 0.005 0
5.36 0.005 0
5.44 0.005 0
5.52 0.005 0
5.6 0.005 0
5.68 0.005 0
5.76 0.005 0
5.84 0.005 0
5.92 0.005 0
6 0.005 0
6.08 0.005 0
6.16 0.005 0
6.24 0.005 0
6.32 0.005 0
6.4 0.005 0
6.48 0.005 0
6.56 0.005 0
6.64 0.005 0
6.72 0.005 0
6.8 0.005 0
6.88 0.005 0
6.96 0.005 0
7.04 0.005 0
7.12 0.005 0
7.2 0.005 0
7.28 0.005 0
7.36 0.005 0
7.44 0.005 0
7.52 0.005 0
7.6 0.005 0
7.68 0.005 0
7.76 0.005 0
7.84 0.005 0
7.92 0.005 0
8 0.005 0
8.08 0.005 0
8.16 0.005 0
8.24 0.005 0
8.32 0.005 0
8.4 0.005 0
8.48 0.005 0
8.56 0.005 0
8.64 0.005 0
8.72 0.005 0
8.8 0.005 0
8.88 0.005 0
8.96 0.005 0
9.04 0.005 0
9.12 0.005 0
9.2 0.005 0
9.28 0.005 0
9.36 0.005 0
9.44 0.005 0
9.52 0.005 0
9.6 0.005 0
9.68 0.005 0
9.76 0.005 0
9.84 0.005 0
9.92 0.005 0
10 0.005 0
10.08 0.005 0
10.16 0.005 0
10.24 0.005 0
10.32 0.005 0
10.4 0.005 0
10.48 0.005 0
10.56 0.005 0
10.64 0.005 0
10.72 0.005 0
10.8 0.005 0
10.88 0.005 0
10.96 0.005 0
11.04 0.005 0
11.12 0.005 0
11.2 0.005 0
11.28 0.005 0
11.36 0.005 0
11.44 0.005 0
11.52 0.005 0
11.6 0.005 0
11.68 0.005 0
11.76 0.005 0
11.84 0.005 0
11.92 0.005 0
12 0.005 0
12.08 0.005 0
12.16 0.005 0
12.24 0.005 0
12.32 0.005 0
12.4 0.005 0
12.48 0.005 0
12.56 0.005 0
12.64 0.005 0
12.72 0.005 0
12.8 0.005 0
12.88 0.005 0
12.96 0.005 0
13.04 0.005 0
13.12 0.005 0
13.2 0.005 0
13.28 0.005 0
13.36 0.005 0
13.44 0.005 0
13.52 0.005 0
13.6 0.005 0
13.68 0.005 0
13.76 0.005 0
13.84 0.005 0
13.92 0.005 0
14 0.005 0
14.08 0.005 0
14.16 0.005 0
14.24 0.005 0
14.32 0.005 0
14.4 0.005 0
14.48 0.005 0
14.56 0.005 0
14.64 0.005 0
14.72 0.005 0
14.8 0.005 0
14.88 0.005 0
14.96 0.005 0
15.04 0.005 0
15.12 0.005 0
15.2 0.005 0
15.28 0.005 0
15.36 0.005 0
15.44 0.005 0
15.52 0.005 0
15.6 0.005 0
15.68 0.005 0
15.76 0.005 0
15.84 0.005 0
15.92 0.005 0
16 0.005 0
16.08 0.005 0
16.16 0.005 0
16.24 0.005 0
16.32 0.005 0
16.4 0.005 0
16.48 0.005 0
16.56 0.005 0
16.64 0.005 0
16.72 0.005 0
16.8 0.005 0
16.88 0.005 0
16.96 0.005 0
17.04 0.005 0
17.12 0.005 0
17.2 0.005 0
17.28 0.005 0
17.36 0.005 0
17.44 0.005 0
17.52 0.005 0
17.6 0.005 0
17.68 0.005 0
17.76 0.005 0
17.84 0.005 0
17.92 0.005 0
18 0.005 0
18.08 0.005 0
18.16 0.005 0
18.24 0.005 0
18.32 0.005 0
18.4 0.005 0
18.48 0.005 0
18.56 0.005 0
18.64 0.005 0
18.72 0.005 0
18.8 0.005 0
18.88 0.005 0
18.96 0.005 0
19.04 0.005 0
19.12 0.005 0
19.2 0.005 0
19.28 0.005 0
19.36 0.005 0
19.44 0.005 0
19.52 0.005 0
19.6 0.005 0
19.68 0.005 0
19.76 0.005 0
19.84 0.005 0
19.92 0.005 0
20 0.005 0
20.08 0.005 0
20.16 0.005 0
20.24 0.005 0
20.32 0.005 0
20.4 0.005 0
20.48 0.005 0
20.56 0.005 0
20.64 0.005 0
20.72 0.005 0
20.8 0.005 0
20.88 0.005 0
20.96 0.005 0
21.04 0.005 0
21.12 0.005 0
21.2 0.005 0
21.28 0.005 0
21.36 0.005 0
21.44 0.005 0
21.52 0.005 0
21.6 0.005 0
21.68 0.005 0
21.76 0.005 0
21.84 0.005 0
21.92 0.005 0
22 0.005 0
22.08 0.005 0
22.16 0.005 0
22.24 0.005 0
22.32 0.005 0
22.4 0.005 0
22.48 0.005 0
22.56 0.005 0
22.64 0.005 0
22.72 0.005 0
22.8 0.005 0
22.88 0.005 0
22.96 0.005 0
23.04 0.005 0
23.12 0.005 0
23.2 0.005 0
23.28 0.005 0
23.36 0.005 0
23.44 0.005 0
23.52 0.005 0
23.6 0.005 0
23.68 0.005 0
23.76 0.005 0
23.84 0.005 0
23.92 0.005 0
24 0.005 0
24.08 0.005 0
24.16 0.005 0
24.24 0.005 0
24.32 0.005 0
24.4 0.005 0
24.48 0.005 0
24.56 0.005 0
24.64 0.005 0
24.72 0.005 0
24.8 0.005 0
24.88 0.005 0
24.96 0.005 0
25.04 0.005 0
25.12 0.005 0
25.2 0.005 0
25.28 0.005 0
25.36 0.005 0
25.44 0.005 0
25.52 0.005 0
25.6 0.005 0
25.68 0.005 0
25.76 0.005 0
25.84 0.005 0
25.92 0.005 0
26 0.005 0
26.08 0.005 0
26.16 0.005 0
26.24 0.005 0
26.32 0.005 0
26.4 0.005 0
26.48 0.005 0
26.56 0.005 0
26.64 0.005 0
26.72 0.005 0
26.8 0.005 0
26.88 0.005 0
26.96 0.005 0
27.04 0.005 0
27.12 0.005 0
27.2 0.005 0
27.28 0.005 0
27.36 0.005 0
27.44 0.005 0
27.52 0.005 0
27.6 0.005 0
27.68 0.005 0
27.76 0.005 0
27.84 0.005 0
27.92 0.005 0
28 0.005 0
28.08 0.005 0
28.16 0.005 0
28.24 0.005 0
28.32 0.005 0
28.4 0.005 0
28.48 0.005 0
28.56 0.005 0
28.64 0.005 0
28.72 0.005 0
28.8 0.005 0
28.88 0.005 0
28.96 0.005 0
29.04 0.005 0
29.12 0.005 0
29.2 0.005 0
29.28 0.005 0
29.36 0.005 0
29.44 0.005 0
29.52 0.005 0
29.6 0.005 0
29.68 0.005 0
29.76 0.005 0
29.84 0.005 0
29.92 0.005 0
30 0.005 0
30.08 0.005 0
30.16 0.005 0
30.24 0.005 0
30.32 0.005 0
30.4 0.005 0
30.48 0.005 0
30.56 0.005 0
30.64 0.005 0
30.72 0.005 0
30.8 0.005 0
30.88 0.005 0
30.96 0.005 0
31.04 0.005 0
31.12 0.005 0
31.2 0.005 0
31.28 0.005 0
31.36 0.005 0
31.44 0.005 0
31.52 0.005 0
31.6 0.005 0
31.68 0.005 0
31.76 0.005 0
31.84 0.005 0
31.92 0.005 0
0 0.01 0
0.08 0.01 0
0.16 0.01 0
0.24 0.01 0
0.32 0.01 0
0.4 0.01 0
0.48 0.01 0
0.56 0.01 0
0.64 0.01 0
0.72 0.01 0
0.8 0.01 0
0.88 0.01 0
0.96 0.01 0
1.04 0.01 0
1.12 0.01 0
1.2 0.01 0
1.28 0.01 0
1.36 0.01 0
1.44 0.01 0
1.52 0.01 0
1.6 0.01 0
1.68 0.01 0
1.76 0.01 0
1.84 0.01 0
1.92 0.01 0
2 0.01 0
2.08 0.01 0
2.16 0.01 0
2.24 0.01 0
2.32 0.01 0
2.4 0.01 0
2.48 0.01 0
2.56 0.01 0
2.64 0.01 0
2.72 0.01 0
2.8 0.01 0
2.88 0.01 0
2.96 0.01 0
3.04 0.01 0
3.12 0.01 0
3.2 0.01 0
3.28 0.01 0
3.36 0.01 0
3.44 0.01 0
3.52 0.01 0
3.6 0.01 0
3.68 0.01 0
3.76 0.01 0
3.84 0.01 0
3.92 0.01 0
4 0.01 0
4.08 0.01 0
4.16 0.01 0
4.24 0.01 0
4.32 0.01 0
4.4 0.01 0
4.48 0.01 0
4.56 0.01 0
4.64 0.01 0
4.72 0.01 0
4.8 0.01 0
4.88 0.01 0
4.96 0.01 0
5.04 0.01 0
5.12 0.01 0
[...]
POINT_DATA 80000

SCALARS p float 1
LOOKUP_TABLE default
1
56.5446786
56.24294358
56.2017838
56.18169384
56.16727491
56.15527395
56.14453054
56.13453241
56.12502681
56.11588051
56.10701979
56.09840187
56.09000036
56.08179759
56.07378055
56.06593869
56.05826278
56.0507444
56.04337561
56.03614889
56.02905705
56.02209325
56.01525103
56.00852424
56.00190713
55.99539427
55.98898057
55.98266127
55.97643192
55.97028836
55.96422669
55.95824328
55.95233471
55.94649782
55.9407296
55.93502727
55.9293882
55.92380991
55.91829009
55.91282656
55.90741724
55.90206021
55.89675361
55.89149572
55.88628488
55.88111955
55.87599823
55.87091953
55.8658821
55.86088468
55.85592606
55.85100508
55.84612064
55.84127169
55.83645721
55.83167626
55.82692789
55.82221125
55.81752546
55.81286973
55.80824327
55.80364533
55.79907518
55.79453214
55.79001553
55.7855247
55.78105903
55.77661793
55.7722008
55.7678071
55.76343627
55.75908779
55.75476115
55.75045586
55.74617145
55.74190744
55.73766339
55.73343887
55.72923346
55.72504673
55.72087829
55.71672775
55.71259474
55.70847889
55.70437983
55.70029723
55.69623073
55.69218001
55.68814474
55.68412462
55.68011933
55.67612857
55.67215205
55.66818948
55.66424059
55.6603051
55.65638274
55.65247326
55.6485764
55.64469191
55.64081955
55.63695907
55.63311025
55.62927285
55.62544666
55.62163145
55.61782702
55.61403314
55.61024961
55.60647624
55.60271283
55.59895918
55.5952151
55.59148041
55.58775493
55.58403847
55.58033087
55.57663195
55.57294155
55.5692595
55.56558563
55.5619198
55.55826184
55.5546116
55.55096894
55.54733371
55.54370576
55.54008495
55.53647115
55.53286422
55.52926403
55.52567044
55.52208334
55.51850259
55.51492807
55.51135966
55.50779724
55.5042407
55.50068992
55.49714479
55.4936052
55.49007104
55.48654221
55.48301861
55.47950013
55.47598667
55.47247814
55.46897443
55.46547547
55.46198114
55.45849137
55.45500606
55.45152513
55.44804849
55.44457606
55.44110775
55.43764349
55.4341832
55.43072679
55.42727419
55.42382534
55.42038014
55.41693854
55.41350046
55.41006583
55.40663459
55.40320666
55.39978199
55.3963605
55.39294215
55.38952685
55.38611457
55.38270522
55.37929877
55.37589514
55.37249429
55.36909616
55.36570069
55.36230784
55.35891755
55.35552976
55.35214444
55.34876154
55.34538099
55.34200277
55.33862682
55.33525309
55.33188155
55.32851214
55.32514484
55.32177958
55.31841635
55.31505508
55.31169576
55.30833832
55.30498275
55.301629
55.29827704
55.29492682
55.29157833
55.28823151
55.28488634
55.28154278
55.27820081
55.27486039
55.27152149
55.26818408
55.26484813
55.26151361
55.25818049
55.25484874
55.25151835
55.24818927
55.24486149
55.24153497
55.2382097
55.23488564
55.23156278
55.22824108
55.22492053
55.22160111
55.21828278
55.21496553
55.21164934
55.20833419
55.20502005
55.2017069
55.19839473
55.19508351
55.19177323
55.18846387
55.1851554
55.18184782
55.1785411
55.17523522
55.17193017
55.16862594
55.16532249
55.16201983
55.15871794
55.15541679
55.15211637
55.14881667
55.14551768
55.14221938
55.13892175
55.13562479
55.13232848
55.1290328
55.12573774
55.1224433
55.11914945
55.1158562
55.11256351
55.10927139
55.10597982
55.10268879
55.09939829
55.09610831
55.09281884
55.08952987
55.08624139
55.08295338
55.07966584
55.07637877
55.07309214
55.06980595
55.0665202
55.06323487
55.05994995
55.05666544
55.05338133
55.05009761
55.04681427
55.04353131
55.04024871
55.03696648
55.03368459
55.03040305
55.02712185
55.02384098
55.02056044
55.01728021
55.0140003
55.01072069
55.00744138
55.00416237
55.00088364
54.99760519
54.99432702
54.99104912
54.98777148
54.98449411
54.98121699
54.97794011
54.97466349
54.9713871
54.96811094
54.96483502
54.96155932
54.95828384
54.95500857
54.95173352
54.94845868
54.94518404
54.94190959
54.93863534
54.93536129
54.93208742
54.92881373
54.92554023
54.9222669
54.91899374
54.91572075
54.91244793
54.90917527
54.90590277
54.90263042
54.89935823
54.89608618
54.89281429
54.88954253
54.88627092
54.88299944
54.8797281
54.87645689
54.87318582
54.86991486
54.86664404
54.86337333
54.86010275
54.85683228
54.85356192
54.85029168
54.84702155
54.84375153
54.84048161
54.83721179
54.83394208
54.83067247
54.82740295
54.82413353
54.8208642
54.81759496
54.81432582
54.81105676
54.80778779
54.8045189
54.80125009
54.79798137
54.79471272
54.79144415
54.78817566
54.78490725
54.7816389
54.77837063
54.77510243
54.7718343
54.76856623
54.76529823
54.7620303
54.75876242
54.75549461
54.75222687
54.74895918
54.74569155
54.74242397
54.73915645
54.73588899
54.73262158
54.72935423
54.72608692
54.72281967
54.71955246
54.71628531
54.7130182
54.70975114
54.70648412
54.70321715
54.69995022
54.69668334
54.6934165
54.6901497
54.68688294
54.68361621
54.68034953
54.67708288
54.67381628
54.6705497
54.66728316
54.66401665
54.66075017
54.6574837
54.65421727
54.65095083
54.6476844
54.64441793
54.64115142
0.5
56.5446786
56.5446786
56.24294358
56.2017838
56.18169384
56.16727491
56.15527395
56.14453054
56.13453241
56.12502681
56.11588051
56.10701979
56.09840187
56.09000036
56.08179759
56.07378055
56.06593869
56.05826278
56.0507444
56.04337561
56.03614889
56.02905705
56.02209325
56.01525103
56.00852424
56.00190713
55.99539427
55.98898057
55.98266127
55.97643192
55.97028836
55.96422669
55.95824328
55.95233471
55.94649782
55.9407296
55.93502727
55.9293882
55.92380991
55.91829009
55.91282656
55.90741724
55.90206021
55.89675361
55.89149572
55.88628488
55.88111955
55.87599823
55.87091953
55.8658821
55.86088468
55.85592606
55.85100508
55.84612064
55.84127169
55.83645721
55.83167626
55.82692789
55.82221125
55.81752546
55.81286973
55.80824327
55.80364533
55.79907518
55.79453214
55.79001553
55.7855247
55.78105903
55.77661793
55.7722008
55.7678071
55.76343627
55.75908779
55.75476115
55.75045586
55.74617145
55.74190744
55.73766339
55.73343887
55.72923346
55.72504673
55.72087829
55.71672775
55.71259474
55.70847889
55.70437983
55.70029723
55.69623073
55.69218001
55.68814474
55.68412462
55.68011933
55.67612857
55.67215205
55.66818948
55.66424059
55.6603051
55.65638274
55.65247326
55.6485764
55.64469191
55.64081955
55.63695907
55.63311025
55.62927285
55.62544666
55.62163145
55.61782702
55.61403314
55.61024961
55.60647624
55.60271283
55.59895918
55.5952151
55.59148041
55.58775493
55.58403847
55.58033087
55.57663195
55.57294155
55.5692595
55.56558563
55.5619198
55.55826184
55.5546116
55.55096894
55.54733371
55.54370576
55.54008495
55.53647115
55.53286422
55.52926403
55.52567044
55.52208334
55.51850259
55.51492807
55.51135966
55.50779724
55.5042407
55.50068992
55.49714479
55.4936052
55.49007104
55.48654221
55.48301861
55.47950013
55.47598667
55.47247814
55.46897443
55.46547547
55.46198114
55.45849137
55.45500606
55.45152513
55.44804849
55.44457606
55.44110775
55.43764349
55.4341832
55.43072679
55.42727419
55.42382534
55.42038014
55.41693854
55.41350046
55.41006583
55.40663459
55.40320666
55.39978199
55.3963605
55.39294215
55.38952685
55.38611457
55.38270522
55.37929877
55.37589514
55.37249429
55.36909616
55.36570069
55.36230784
55.35891755
55.35552976
55.35214444
55.34876154
55.34538099
55.34200277
55.33862682
55.33525309
55.33188155
55.32851214
55.32514484
55.32177958
55.31841635
55.31505508
55.31169576
55.30833832
55.30498275
55.301629
55.29827704
55.29492682
55.29157833
55.28823151
55.28488634
55.28154278
55.27820081
55.27486039
55.27152149
55.26818408
55.26484813
55.26151361
55.25818049
55.25484874
55.25151835
55.24818927
55.24486149
55.24153497
55.2382097
55.23488564
55.23156278
55.22824108
55.22492053
55.22160111
55.21828278
55.21496553
55.21164934
55.20833419
55.20502005
55.2017069
55.19839473
55.19508351
55.19177323
55.18846387
55.1851554
55.18184782
55.1785411
55.17523522
55.17193017
55.16862594
55.16532249
55.16201983
55.15871794
55.15541679
55.15211637
55.14881667
55.14551768
55.14221938
55.13892175
55.13562479
55.13232848
55.1290328
55.12573774
55.1224433
55.11914945
55.1158562
55.11256351
55.10927139
55.10597982
55.10268879
55.09939829
55.09610831
55.09281884
55.08952987
55.08624139
55.08295338
55.07966584
55.07637877
55.07309214
55.06980595
55.0665202
55.06323487
55.05994995
55.05666544
55.05338133
55.05009761
55.04681427
55.04353131
55.04024871
55.03696648
55.03368459
55.03040305
55.02712185
55.02384098
55.02056044
55.01728021
55.0140003
55.01072069
55.00744138
55.00416237
55.00088364
54.99760519
54.99432702
54.99104912
54.98777148
54.98449411
54.98121699
54.97794011
54.97466349
54.9713871
54.96811094
54.96483502
54.96155932
54.95828384
54.95500857
54.95173352
54.94845868
54.94518404
54.94190959
54.93863534
54.93536129
54.93208742
54.92881373
54.92554023
54.9222669
54.91899374
54.91572075
54.91244793
54.90917527
54.90590277
54.90263042
54.89935823
54.89608618
54.89281429
54.88954253
54.88627092
54.88299944
54.8797281
54.87645689
54.87318582
54.86991486
54.86664404
54.86337333
54.86010275
54.85683228
54.85356192
54.85029168
54.84702155
54.84375153
54.84048161
54.83721179
54.83394208
54.83067247
54.82740295
54.82413353
54.8208642
54.81759496
54.81432582
54.81105676
54.80778779
54.8045189
54.80125009
54.79798137
54.79471272
54.79144415
54.78817566
54.78490725
54.7816389
54.77837063
54.77510243
54.7718343
54.76856623
54.76529823
54.7620303
54.75876242
54.75549461
54.75222687
54.74895918
54.74569155
54.74242397
54.73915645
54.73588899
54.73262158
54.72935423
54.72608692
54.72281967
54.71955246
54.71628531
54.7130182
54.70975114
54.70648412
54.70321715
54.69995022
54.69668334
54.6934165
54.6901497
54.68688294
54.68361621
54.68034953
54.67708288
54.67381628
54.6705497
54.66728316
54.66401665
54.66075017
54.6574837
54.65421727
54.65095083
54.6476844
54.64441793
54.64115142
54.64115142
56.53009686
56.53009686
56.24677946
56.20303922
56.18232908
56.16766942
56.15554565
56.14472998
56.13468555
56.12514851
56.11597993
56.10710289
56.09847266
56.09006165
56.08185138
56.07382829
56.06598146
56.05830141
56.05077954
56.04340777
56.03617846
56.02908436
56.02211858
56.01527459
56.00854624
56.00192773
55.9954136
55.98899875
55.98267841
55.97644811
55.97030368
55.96424121
55.95825706
55.95234782
55.9465103
55.94074151
55.93503864
55.92939906
55.9238203
55.91830005
55.9128361
55.90742641
55.90206901
55.89676207
55.89150386
55.88629273
55.88112711
55.87600552
55.87092656
55.8658889
55.86089125
55.85593241
55.85101123
55.84612659
55.84127745
55.83646279
55.83168167
55.82693314
55.82221634
55.81753041
55.81287453
55.80824794
55.80364986
55.79907959
55.79453643
55.7900197
55.78552876
55.78106299
55.77662178
55.77220455
55.76781075
55.76343983
55.75909126
55.75476453
55.75045916
55.74617466
55.74191058
55.73766646
55.73344187
55.72923638
55.72504958
55.72088108
55.71673048
55.7125974
55.70848149
55.70438237
55.70029971
55.69623315
55.69218238
55.68814706
55.68412688
55.68012154
55.67613073
55.67215417
55.66819155
55.66424262
55.66030708
55.65638468
55.65247516
55.64857826
55.64469373
55.64082133
55.63696081
55.63311196
55.62927452
55.6254483
55.62163305
55.61782858
55.61403467
55.61025112
55.60647771
55.60271427
55.59896059
55.59521648
55.59148176
55.58775625
55.58403977
55.58033214
55.5766332
55.57294277
55.56926069
55.5655868
55.56192094
55.55826296
55.5546127
55.55097002
55.54733476
55.54370679
55.54008596
55.53647214
55.53286519
55.52926498
55.52567138
55.52208425
55.51850348
55.51492894
55.51136052
55.50779808
55.50424152
55.50069072
55.49714558
55.49360597
55.4900718
55.48654296
55.48301934
55.47950084
55.47598737
55.47247882
55.46897511
55.46547613
55.46198179
55.458492
55.45500668
55.45152574
55.44804909
55.44457664
55.44110833
55.43764405
55.43418375
55.43072733
55.42727472
55.42382585
55.42038065
55.41693903
55.41350094
55.4100663
55.40663505
55.40320712
55.39978243
55.39636094
55.39294258
55.38952728
55.38611498
55.38270563
55.37929916
55.37589553
55.37249467
55.36909653
55.36570106
55.36230819
55.3589179
55.35553011
55.35214478
55.34876187
55.34538132
55.34200309
55.33862713
55.33525339
55.33188184
55.32851243
55.32514512
55.32177986
55.31841662
55.31505535
55.31169602
55.30833858
55.30498301
55.30162925
55.29827728
55.29492706
55.29157856
55.28823174
55.28488656
55.281543
55.27820103
55.2748606
55.2715217
55.26818428
55.26484832
55.2615138
55.25818068
55.25484893
55.25151853
55.24818945
55.24486166
55.24153514
55.23820986
55.2348858
55.23156294
55.22824124
55.22492069
55.22160126
55.21828293
55.21496568
55.21164949
55.20833433
55.20502019
55.20170704
55.19839486
55.19508364
55.19177336
55.18846399
55.18515553
55.18184794
55.17854121
55.17523533
55.17193028
55.16862605
55.1653226
55.16201994
55.15871804
55.15541689
55.15211647
55.14881677
55.14551778
55.14221947
55.13892185
55.13562488
55.13232856
55.12903288
55.12573783
55.12244338
55.11914954
55.11585627
55.11256359
55.10927147
55.1059799
55.10268887
55.09939837
55.09610838
55.09281891
55.08952994
55.08624145
55.08295345
55.07966591
55.07637883
55.0730922
55.06980601
55.06652026
55.06323493
55.05995001
55.0566655
55.05338139
55.05009766
55.04681432
55.04353136
55.04024876
55.03696652
55.03368464
55.0304031
55.0271219
55.02384103
55.02056048
55.01728026
55.01400034
55.01072073
55.00744142
55.00416241
55.00088368
54.99760523
54.99432706
54.99104916
54.98777152
54.98449414
54.98121702
54.97794015
54.97466352
54.97138713
54.96811097
54.96483505
54.96155935
54.95828387
54.9550086
54.95173355
54.9484587
54.94518406
54.94190962
54.93863537
54.93536131
54.93208744
54.92881376
54.92554025
54.92226692
54.91899376
54.91572077
54.91244795
54.90917529
54.90590279
54.90263044
54.89935825
54.8960862
54.8928143
54.88954255
54.88627094
54.88299946
54.87972812
54.87645691
54.87318583
54.86991488
54.86664405
54.86337335
54.86010276
54.85683229
54.85356194
54.8502917
54.84702157
54.84375154
54.84048162
54.83721181
54.83394209
54.83067248
54.82740296
54.82413354
54.82086421
54.81759498
54.81432583
54.81105677
54.8077878
54.80451891
54.8012501
54.79798138
54.79471273
54.79144417
54.78817567
54.78490726
54.78163891
54.77837064
54.77510244
54.77183431
54.76856624
54.76529824
54.7620303
54.75876243
54.75549462
54.75222687
54.74895918
54.74569155
54.74242398
54.73915646
54.735889
54.73262159
54.72935423
54.72608693
54.72281968
54.71955247
54.71628531
54.71301821
54.70975114
54.70648413
54.70321716
54.69995023
54.69668335
54.6934165
54.6901497
54.68688294
54.68361622
54.68034954
54.67708289
54.67381628
54.6705497
54.66728316
54.66401665
54.66075017
54.65748371
54.65421727
54.65095083
54.6476844
54.64441793
54.64115142
54.64115142
56.51411226
56.51411226
56.24996789
56.2042264
56.18294508
56.16805569
56.15581307
56.14492692
56.13483703
56.12526899
56.11607837
56.10718513
56.09854269
56.09012222
56.08190448
56.07387537
56.06602361
56.05833946
56.05081412
56.04343938
56.03620751
56.02911118
56.02214344
56.01529772
56.00856783
56.00194792
55.99543254
55.98901657
55.9826952
55.97646397
55.97031868
55.96425543
55.95827056
55.95236066
55.94652252
55.94075316
55.93504976
55.92940969
55.92383047
55.91830979
55.91284544
55.90743537
55.90207762
55.89677035
55.89151183
55.8863004
55.8811345
55.87601265
55.87093344
55.86589554
55.86089767
55.85593862
55.85101723
55.8461324
55.84128307
55.83646825
55.83168695
55.82693827
55.82222131
55.81753524
55.81287922
55.80825249
55.80365429
55.7990839
55.79454061
55.79002377
55.78553272
55.78106684
55.77662553
55.77220821
55.76781431
55.7634433
55.75909464
55.75476783
55.75046238
55.74617781
55.74191364
55.73766945
55.73344478
55.72923923
55.72505236
55.72088379
55.71673313
55.71259999
55.70848402
55.70438484
55.70030212
55.69623551
55.69218469
55.68814932
55.68412909
55.6801237
55.67613284
55.67215623
55.66819357
55.66424459
55.66030902
55.65638658
55.65247701
55.64858007
55.6446955
55.64082306
55.63696251
55.63311362
55.62927615
55.62544989
55.62163461
55.61783011
55.61403616
55.61025258
55.60647915
55.60271567
55.59896196
55.59521782
55.59148308
55.58775754
55.58404103
55.58033338
55.57663441
55.57294395
55.56926185
55.56558794
55.56192206
55.55826405
55.55461377
55.55097106
55.54733579
55.5437078
55.54008695
55.53647311
55.53286614
55.52926591
55.52567228
55.52208514
55.51850435
55.5149298
55.51136135
55.5077989
55.50424232
55.50069151
55.49714635
55.49360673
55.49007254
55.48654368
55.48302005
55.47950154
55.47598805
55.47247949
55.46897576
55.46547677
55.46198242
55.45849262
55.45500729
55.45152633
55.44804967
55.44457721
55.44110888
55.4376446
55.43418428
55.43072785
55.42727523
55.42382635
55.42038114
55.41693952
55.41350142
55.41006677
55.4066355
55.40320756
55.39978287
55.39636137
55.39294299
55.38952768
55.38611538
55.38270602
55.37929955
55.37589591
55.37249504
55.36909689
55.36570141
55.36230854
55.35891824
55.35553044
55.35214511
55.34876219
55.34538163
55.34200339
55.33862743
55.33525369
55.33188213
55.32851272
55.3251454
55.32178014
55.31841689
55.31505561
55.31169628
55.30833883
55.30498325
55.30162949
55.29827752
55.29492729
55.29157879
55.28823196
55.28488678
55.28154322
55.27820124
55.27486081
55.2715219
55.26818448
55.26484852
55.26151399
55.25818086
55.25484911
55.25151871
55.24818962
55.24486183
55.24153531
55.23821003
55.23488596
55.23156309
55.22824139
55.22492084
55.22160141
55.21828308
55.21496582
55.21164963
55.20833447
55.20502032
55.20170717
55.19839499
55.19508377
55.19177348
55.18846411
55.18515564
55.18184805
55.17854133
55.17523545
55.17193039
55.16862615
55.16532271
55.16202004
55.15871814
55.15541699
55.15211657
55.14881687
55.14551787
55.14221956
55.13892193
55.13562497
55.13232865
55.12903297
55.12573791
55.12244346
55.11914961
55.11585635
55.11256366
55.10927154
55.10597997
55.10268894
55.09939844
55.09610845
55.09281898
55.08953
55.08624152
55.08295351
55.07966597
55.07637889
55.07309226
55.06980607
55.06652031
55.06323498
55.05995006
55.05666555
55.05338144
55.05009771
55.04681437
55.04353141
55.04024881
55.03696657
55.03368469
55.03040314
55.02712194
55.02384107
55.02056053
55.0172803
55.01400038
55.01072077
55.00744146
55.00416244
55.00088371
54.99760527
54.99432709
54.99104919
54.98777155
54.98449418
54.98121705
54.97794018
54.97466355
54.97138716
54.968111
54.96483508
54.96155938
54.9582839
54.95500863
54.95173358
54.94845873
54.94518409
54.94190965
54.9386354
54.93536134
54.93208747
54.92881378
54.92554027
54.92226694
54.91899379
54.9157208
54.91244797
54.90917531
54.90590281
54.90263046
54.89935827
54.89608622
54.89281432
54.88954257
54.88627096
54.88299948
54.87972814
54.87645693
54.87318585
54.8699149
54.86664407
54.86337336
54.86010278
54.85683231
54.85356195
54.85029171
54.84702158
54.84375156
54.84048164
54.83721182
54.83394211
54.83067249
54.82740298
54.82413355
54.82086423
54.81759499
54.81432584
54.81105678
54.80778781
54.80451892
54.80125011
54.79798139
54.79471274
54.79144418
54.78817568
54.78490727
54.78163892
54.77837065
54.77510245
54.77183431
54.76856625
54.76529825
54.76203031
54.75876244
54.75549463
54.75222688
54.74895919
54.74569156
54.74242399
54.73915647
54.73588901
54.7326216
54.72935424
54.72608694
54.72281968
54.71955248
54.71628532
54.71301821
54.70975115
54.70648414
54.70321716
54.69995024
54.69668335
54.69341651
54.69014971
54.68688295
54.68361622
54.68034954
54.67708289
54.67381629
54.67054971
54.66728317
54.66401666
54.66075018
54.65748371
54.65421728
54.65095084
54.6476844
54.64441793
54.64115142
54.64115142
56.49819745
56.49819745
56.25285449
56.20536643
56.18354666
56.16843572
56.15607731
56.14512199
56.13498728
56.12538854
56.11617603
56.10726668
56.09861205
56.09018215
56.08195696
56.07392186
56.06606518
56.05837695
56.05084816
56.04347048
56.03623608
56.02913754
56.02216786
56.01532043
56.008589
56.00196773
55.99545112
55.98903403
55.98271166
55.97647951
55.97033338
55.96426936
55.95828378
55.95237322
55.94653448
55.94076456
55.93506064
55.92942009
55.92384042
55.91831932
55.91285458
55.90744413
55.90208604
55.89677844
55.89151961
55.88630789
55.88114172
55.87601961
55.87094016
55.86590203
55.86090394
55.85594468
55.85102309
55.84613807
55.84128857
55.83647357
55.83169211
55.82694328
55.82222617
55.81753995
55.8128838
55.80825694
55.80365861
55.7990881
55.7945447
55.79002774
55.78553659
55.78107061
55.7766292
55.77221178
55.76781779
55.76344669
55.75909794
55.75477105
55.75046552
55.74618087
55.74191663