# vtk DataFile Version 2.0
FlowField
ASCII
DATASET STRUCTURED_GRID
DIMENSIONS 400 1 200
POINTS 80000 float
0 0 0
0.08 0 0
0.16 0 0
0.24 0 0
0.32 0 0
0.4 0 0
0.48 0 0
0.56 0 0
0.64 0 0
0.72 0 0
0.8 0 0
0.88 0 0
0.96 0 0
1.04 0 0
1.12 0 0
1.2 0 0
1.28 0 0
1.36 0 0
1.44 0 0
1.52 0 0
1.6 0 0
1.68 0 0
1.76 0 0
1.84 0 0
1.92 0 0
2 0 0
2.08 0 0
2.16 0 0
2.24 0 0
2.32 0 0
2.4 0 0
2.48 0 0
2.56 0 0
2.64 0 0
2.72 0 0
2.8 0 0
2.88 0 0
2.96 0 0
3.04 0 0
3.12 0 0
3.2 0 0
3.28 0 0
3.36 0 0
3.44 0 0
3.52 0 0
3.6 0 0
3.68 0 0
3.76 0 0
3.84 0 0
3.92 0 0
4 0 0
4.08 0 0
4.16 0 0
4.24 0 0
4.32 0 0
4.4 0 0
4.48 0 0
4.56 0 0
4.64 0 0
4.72 0 0
4.8 0 0
4.88 0 0
4.96 0 0
5.04 0 0
5.12 0 0
5.2 0 0
5.28 0 0
5.36 0 0
5.44 0 0
5.52 0 0
5.6 0 0
5.68 0 0
5.76 0 0
5.84 0 0
5.92 0 0
6 0 0
6.08 0 0
6.16 0 0
6.24 0 0
6.32 0 0
6.4 0 0
6.48 0 0
6.56 0 0
6.64 0 0
6.72 0 0
6.8 0 0
6.88 0 0
6.96 0 0
7.04 0 0
7.12 0 0
7.2 0 0
7.28 0 0
7.36 0 0
7.44 0 0
7.52 0 0
7.6 0 0
7.68 0 0
7.76 0 0
7.84 0 0
7.92 0 0
8 0 0
8.08 0 0
8.16 0 0
8.24 0 0
8.32 0 0
8.4 0 0
8.48 0 0
8.56 0 0
8.64 0 0
8.72 0 0
8.8 0 0
8.88 0 0
8.96 0 0
9.04 0 0
9.12 0 0
9.2 0 0
9.28 0 0
9.36 0 0
9.44 0 0
9.52 0 0
9.6 0 0
9.68 0 0
9.76 0 0
9.84 0 0
9.92 0 0
10 0 0
10.08 0 0
10.16 0 0
10.24 0 0
10.32 0 0
10.4 0 0
10.48 0 0
10.56 0 0
10.64 0 0
10.72 0 0
10.8 0 0
10.88 0 0
10.96 0 0
11.04 0 0
11.12 0 0
11.2 0 0
11.28 0 0
11.36 0 0
11.44 0 0
11.52 0 0
11.6 0 0
11.68 0 0
11.76 0 0
11.84 0 0
11.92 0 0
12 0 0
12.08 0 0
12.16 0 0
12.24 0 0
12.32 0 0
12.4 0 0
12.48 0 0
12.56 0 0
12.64 0 0
12.72 0 0
12.8 0 0
12.88 0 0
12.96 0 0
13.04 0 0
13.12 0 0
13.2 0 0
13.28 0 0
13.36 0 0
13.44 0 0
13.52 0 0
13.6 0 0
13.68 0 0
13.76 0 0
13.84 0 0
13.92 0 0
14 0 0
14.08 0 0
14.16 0 0
14.24 0 0
14.32 0 0
14.4 0 0
14.48 0 0
14.56 0 0
14.64 0 0
14.72 0 0
14.8 0 0
14.88 0 0
14.96 0 0
15.04 0 0
15.12 0 0
15.2 0 0
15.28 0 0
15.36 0 0
15.44 0 0
15.52 0 0
15.6 0 0
15.68 0 0
15.76 0 0
15.84 0 0
15.92 0 0
16 0 0
16.08 0 0
16.16 0 0
16.24 0 0
16.32 0 0
16.4 0 0
16.48 0 0
16.56 0 0
16.64 0 0
16.72 0 0
16.8 0 0
16.88 0 0
16.96 0 0
17.04 0 0
17.12 0 0
17.2 0 0
17.28 0 0
17.36 0 0
17.44 0 0
17.52 0 0
17.6 0 0
17.68 0 0
17.76 0 0
17.84 0 0
17.92 0 0
18 0 0
18.08 0 0
18.16 0 0
18.24 0 0
18.32 0 0
18.4 0 0
18.48 0 0
18.56 0 0
18.64 0 0
18.72 0 0
18.8 0 0
18.88 0 0
18.96 0 0
19.04 0 0
19.12 0 0
19.2 0 0
19.28 0 0
19.36 0 0
19.44 0 0
19.52 0 0
19.6 0 0
19.68 0 0
19.76 0 0
19.84 0 0
19.92 0 0
20 0 0
20.08 0 0
20.16 0 0
20.24 0 0
20.32 0 0
20.4 0 0
20.48 0 0
20.56 0 0
20.64 0 0
20.72 0 0
20.8 0 0
20.88 0 0
20.96 0 0
21.04 0 0
21.12 0 0
21.2 0 0
21.28 0 0
21.36 0 0
21.44 0 0
21.52 0 0
21.6 0 0
21.68 0 0
21.76 0 0
21.84 0 0
21.92 0 0
22 0 0
22.08 0 0
22.16 0 0
22.24 0 0
22.32 0 0
22.4 0 0
22.48 0 0
22.56 0 0
22.64 0 0
22.72 0 0
22.8 0 0
22.88 0 0
22.96 0 0
23.04 0 0
23.12 0 0
23.2 0 0
23.28 0 0
23.36 0 0
23.44 0 0
23.52 0 0
23.6 0 0
23.68 0 0
23.76 0 0
23.84 0 0
23.92 0 0
24 0 0
24.08 0 0
24.16 0 0
24.24 0 0
24.32 0 0
24.4 0 0
24.48 0 0
24.56 0 0
24.64 0 0
24.72 0 0
24.8 0 0
24.88 0 0
24.96 0 0
25.04 0 0
25.12 0 0
25.2 0 0
25.28 0 0
25.36 0 0
25.44 0 0
25.52 0 0
25.6 0 0
25.68 0 0
25.76 0 0
25.84 0 0
25.92 0 0
26 0 0
26.08 0 0
26.16 0 0
26.24 0 0
26.32 0 0
26.4 0 0
26.48 0 0
26.56 0 0
26.64 0 0
26.72 0 0
26.8 0 0
26.88 0 0
26.96 0 0
27.04 0 0
27.12 0 0
27.2 0 0
27.28 0 0
27.36 0 0
27.44 0 0
27.52 0 0
27.6 0 0
27.68 0 0
27.76 0 0
27.84 0 0
27.92 0 0
28 0 0
28.08 0 0
28.16 0 0
28.24 0 0
28.32 0 0
28.4 0 0
28.48 0 0
28.56 0 0
28.64 0 0
28.72 0 0
28.8 0 0
28.88 0 0
28.96 0 0
29.04 0 0
29.12 0 0
29.2 0 0
29.28 0 0
29.36 0 0
29.44 0 0
29.52 0 0
29.6 0 0
29.68 0 0
29.76 0 0
29.84 0 0
29.92 0 0
30 0 0
30.08 0 0
30.16 0 0
30.24 0 0
30.32 0 0
30.4 0 0
30.48 0 0
30.56 0 0
30.64 0 0
30.72 0 0
30.8 0 0
30.88 0 0
30.96 0 0
31.04 0 0
31.12 0 0
31.2 0 0
31.28 0 0
31.36 0 0
31.44 0 0
31.52 0 0
31.6 0 0
31.68 0 0
31.76 0 0
31.84 0 0
31.92 0 0
0 0.005 0
0.08 0.005 0
0.16 0.005 0
0.24 0.005 0
0.32 0.005 0
0.4 0.005 0
0.48 0.005 0
0.56 0.005 0
0.64 0.005 0
0.72 0.005 0
0.8 0.005 0
0.88 0.005 0
0.96 0.005 0
1.04 0.005 0
1.12 0.005 0
1.2 0.005 0
1.28 0.005 0
1.36 0.005 0
1.44 0.005 0
1.52 0.005 0
1.6 0.005 0
1.68 0.005 0
1.76 0.005 0
1.84 0.005 0
1.92 0.005 0
2 0.005 0
2.08 0.005 0
2.16 0.005 0
2.24 0.005 0
2.32 0.005 0
2.4 0.005 0
2.48 0.005 0
2.56 0.005 0
2.64 0.005 0
2.72 0.005 0
2.8 0.005 0
2.88 0.005 0
2.96 0.005 0
3.04 0.005 0
3.12 0.005 0
3.2 0.005 0
3.28 0.005 0
3.36 0.005 0
3.44 0.005 0
3.52 0.005 0
3.6 0.005 0
3.68 0.005 0
3.76 0.005 0
3.84 0.005 0
3.92 0.005 0
4 0.005 0
4.08 0.005 0
4.16 0.005 0
4.24 0.005 0
4.32 0.005 0
4.4 0.005 0
4.48 0.005 0
4.56 0.005 0
4.64 0.005 0
4.72 0.005 0
4.8 0.005 0
4.88 0.005 0
4.96 0.005 0
5.04 0.005 0
5.12 0.005 0
5.2 0.005 0
5.28 0.005 0
5.36 0.005 0
5.44 0.005 0
5.52 0.005 0
5.6 0.005 0
5.68 0.005 0
5.76 0.005 0
5.84 0.005 0
5.92 0.005 0
6 0.005 0
6.08 0.005 0
6.16 0.005 0
6.24 0.005 0
6.32 0.005 0
6.4 0.005 0
6.48 0.005 0
6.56 0.005 0
6.64 0.005 0
6.72 0.005 0
6.8 0.005 0
6.88 0.005 0
6.96 0.005 0
7.04 0.005 0
7.12 0.005 0
7.2 0.005 0
7.28 0.005 0
7.36 0.005 0
7.44 0.005 0
7.52 0.005 0
7.6 0.005 0
7.68 0.005 0
7.76 0.005 0
7.84 0.005 0
7.92 0.005 0
8 0.005 0
8.08 0.005 0
8.16 0.005 0
8.24 0.005 0
8.32 0.005 0
8.4 0.005 0
8.48 0.005 0
8.56 0.005 0
8.64 0.005 0
8.72 0.005 0
8.8 0.005 0
8.88 0.005 0
8.96 0.005 0
9.04 0.005 0
9.12 0.005 0
9.2 0.005 0
9.28 0.005 0
9.36 0.005 0
9.44 0.005 0
9.52 0.005 0
9.6 0.005 0
9.68 0.005 0
9.76 0.005 0
9.84 0.005 0
9.92 0.005 0
10 0.005 0
10.08 0.005 0
10.16 0.005 0
10.24 0.005 0
10.32 0.005 0
10.4 0.005 0
10.48 0.005 0
10.56 0.005 0
10.64 0.005 0
10.72 0.005 0
10.8 0.005 0
10.88 0.005 0
10.96 0.005 0
11.04 0.005 0
11.12 0.005 0
11.2 0.005 0
11.28 0.005 0
11.36 0.005 0
11.44 0.005 0
11.52 0.005 0
11.6 0.005 0
11.68 0.005 0
11.76 0.005 0
11.84 0.005 0
11.92 0.005 0
12 0.005 0
12.08 0.005 0
12.16 0.005 0
12.24 0.005 0
12.32 0.005 0
12.4 0.005 0
12.48 0.005 0
12.56 0.005 0
12.64 0.005 0
12.72 0.005 0
12.8 0.005 0
12.88 0.005 0
12.96 0.005 0
13.04 0.005 0
13.12 0.005 0
13.2 0.005 0
13.28 0.005 0
13.36 0.005 0
13.44 0.005 0
13.52 0.005 0
13.6 0.005 0
13.68 0.005 0
13.76 0.005 0
13.84 0.005 0
13.92 0.005 0
14 0.005 0
14.08 0.005 0
14.16 0.005 0
14.24 0.005 0
14.32 0.005 0
14.4 0.005 0
14.48 0.005 0
14.56 0.005 0
14.64 0.005 0
14.72 0.005 0
14.8 0.005 0
14.88 0.005 0
14.96 0.005 0
15.04 0.005 0
15.12 0.005 0
15.2 0.005 0
15.28 0.005 0
15.36 0.005 0
15.44 0.005 0
15.52 0.005 0
15.6 0.005 0
15.68 0.005 0
15.76 0.005 0
15.84 0.005 0
15.92 0.005 0
16 0.005 0
16.08 0.005 0
16.16 0.005 0
16.24 0.005 0
16.32 0.005 0
16.4 0.005 0
16.48 0.005 0
16.56 0.005 0
16.64 0.005 0
16.72 0.005 0
16.8 0.005 0
16.88 0.005 0
16.96 0.005 0
17.04 0.005 0
17.12 0.005 0
17.2 0.005 0
17.28 0.005 0
17.36 0.005 0
17.44 0.005 0
17.52 0.005 0
17.6 0.005 0
17.68 0.005 0
17.76 0.005 0
17.84 0.005 0
17.92 0.005 0
18 0.005 0
18.08 0.005 0
18.16 0.005 0
18.24 0.005 0
18.32 0.005 0
18.4 0.005 0
18.48 0.005 0
18.56 0.005 0
18.64 0.005 0
18.72 0.005 0
18.8 0.005 0
18.88 0.005 0
18.96 0.005 0
19.04 0.005 0
19.12 0.005 0
19.2 0.005 0
19.28 0.005 0
19.36 0.005 0
19.44 0.005 0
19.52 0.005 0
19.6 0.005 0
19.68 0.005 0
19.76 0.005 0
19.84 0.005 0
19.92 0.005 0
20 0.005 0
20.08 0.005 0
20.16 0.005 0
20.24 0.005 0
20.32 0.005 0
20.4 0.005 0
20.48 0.005 0
20.56 0.005 0
20.64 0.005 0
20.72 0.005 0
20.8 0.005 0
20.88 0.005 0
20.96 0.005 0
21.04 0.005 0
21.12 0.005 0
21.2 0.005 0
21.28 0.005 0
21.36 0.005 0
21.44 0.005 0
21.52 0.005 0
21.6 0.005 0
21.68 0.005 0
21.76 0.005 0
21.84 0.005 0
21.92 0.005 0
22 0.005 0
22.08 0.005 0
22.16 0.005 0
22.24 0.005 0
22.32 0.005 0
22.4 0.005 0
22.48 0.005 0
22.56 0.005 0
22.64 0.005 0
22.72 0.005 0
22.8 0.005 0
22.88 0.005 0
22.96 0.005 0
23.04 0.005 0
23.12 0.005 0
23.2 0.005 0
23.28 0.005 0
23.36 0.005 0
23.44 0.005 0
23.52 0.005 0
23.6 0.005 0
23.68 0.005 0
23.76 0.005 0
23.84 0.005 0
23.92 0.005 0
24 0.005 0
24.08 0.005 0
24.16 0.005 0
24.24 0.005 0
24.32 0.005 0
24.4 0.005 0
24.48 0.005 0
24.56 0.005 0
24.64 0.005 0
24.72 0.005 0
24.8 0.005 0
24.88 0.005 0
24.96 0.005 0
25.04 0.005 0
25.12 0.005 0
25.2 0.005 0
25.28 0.005 0
25.36 0.005 0
25.44 0.005 0
25.52 0.005 0
25.6 0.005 0
25.68 0.005 0
25.76 0.005 0
25.84 0.005 0
25.92 0.005 0
26 0.005 0
26.08 0.005 0
26.16 0.005 0
26.24 0.005 0
26.32 0.005 0
26.4 0.005 0
26.48 0.005 0
26.56 0.005 0
26.64 0.005 0
26.72 0.005 0
26.8 0.005 0
26.88 0.005 0
26.96 0.005 0
27.04 0.005 0
27.12 0.005 0
27.2 0.005 0
27.28 0.005 0
27.36 0.005 0
27.44 0.005 0
27.52 0.005 0
27.6 0.005 0
27.68 0.005 0
27.76 0.005 0
27.84 0.005 0
27.92 0.005 0
28 0.005 0
28.08 0.005 0
28.16 0.005 0
28.24 0.005 0
28.32 0.005 0
28.4 0.005 0
28.48 0.005 0
28.56 0.005 0
28.64 0.005 0
28.72 0.005 0
28.8 0.005 0
28.88 0.005 0
28.96 0.005 0
29.04 0.005 0
29.12 0.005 0
29.2 0.005 0
29.28 0.005 0
29.36 0.005 0
29.44 0.005 0
29.52 0.005 0
29.6 0.005 0
29.68 0.005 0
29.76 0.005 0
29.84 0.005 0
29.92 0.005 0
30 0.005 0
30.08 0.005 0
30.16 0.005 0
30.24 0.005 0
30.32 0.005 0
30.4 0.005 0
30.48 0.005 0
30.56 0.005 0
30.64 0.005 0
30.72 0.005 0
30.8 0.005 0
30.88 0.005 0
30.96 0.005 0
31.04 0.005 0
31.12 0.005 0
31.2 0.005 0
31.28 0.005 0
31.36 0.005 0
31.44 0.005 0
31.52 0.005 0
31.6 0.005 0
31.68 0.005 0
31.76 0.005 0
31.84 0.005 0
31.92 0.005 0
0 0.01 0
0.08 0.01 0
0.16 0.01 0
0.24 0.01 0
0.32 0.01 0
0.4 0.01 0
0.48 0.01 0
0.56 0.01 0
0.64 0.01 0
0.72 0.01 0
0.8 0.01 0
0.88 0.01 0
0.96 0.01 0
1.04 0.01 0
1.12 0.01 0
1.2 0.01 0
1.28 0.01 0
1.36 0.01 0
1.44 0.01 0
1.52 0.01 0
1.6 0.01 0
1.68 0.01 0
1.76 0.01 0
1.84 0.01 0
1.92 0.01 0
2 0.01 0
2.08 0.01 0
2.16 0.01 0
2.24 0.01 0
2.32 0.01 0
2.4 0.01 0
2.48 0.01 0
2.56 0.01 0
2.64 0.01 0
2.72 0.01 0
2.8 0.01 0
2.88 0.01 0
2.96 0.01 0
3.04 0.01 0
3.12 0.01 0
3.2 0.01 0
3.28 0.01 0
3.36 0.01 0
3.44 0.01 0
3.52 0.01 0
3.6 0.01 0
3.68 0.01 0
3.76 0.01 0
3.84 0.01 0
3.92 0.01 0
4 0.01 0
4.08 0.01 0
4.16 0.01 0
4.24 0.01 0
4.32 0.01 0
4.4 0.01 0
4.48 0.01 0
4.56 0.01 0
4.64 0.01 0
4.72 0.01 0
4.8 0.01 0
4.88 0.01 0
4.96 0.01 0
5.04 0.01 0
5.12 0.01 0
[...]
POINT_DATA 80000

SCALARS v float 1
LOOKUP_TABLE default
0
0
0
0
0
0
0
0
0
0
0
0
0
0
0
0
0
0
0
0
0
0
0
0
0
0
0
0
0
0
0
0
0
0
0
0
0
0
0
0
0
0
0
0
0
0
0
0
0
0
0
0
0
0
0
0
0
0
0
0
0
0
0
0
0
0
0
0
0
0
0
0
0
0
0
0
0
0
0
0
0
0
0
0
0
0
0
0
0
0
0
0
0
0
0
0
0
0
0
0
0
0
0
0
0
0
0
0
0
0
0
0
0
0
0
0
0
0
0
0
0
0
0
0
0
0
0
0
0
0
0
0
0
0
0
0
0
0
0
0
0
0
0
0
0
0
0
0
0
0
0
0
0
0
0
0
0
0
0
0
0
0
0
0
0
0
0
0
0
0
0
0
0
0
0
0
0
0
0
0
0
0
0
0
0
0
0
0
0
0
0
0
0
0
0
0
0
0
0
0
0
0
0
0
0
0
0
0
0
0
0
0
0
0
0
0
0
0
0
0
0
0
0
0
0
0
0
0
0
0
0
0
0
0
0
0
0
0
0
0
0
0
0
0
0
0
0
0
0
0
0
0
0
0
0
0
0
0
0
0
0
0
0
0
0
0
0
0
0
0
0
0
0
0
0
0
0
0
0
0
0
0
0
0
0
0
0
0
0
0
0
0
0
0
0
0
0
0
0
0
0
0
0
0
0
0
0
0
0
0
0
0
0
0
0
0
0
0
0
0
0
0
0
0
0
0
0
0
0
0
0
0
0
0
0
0
0
0
0
0
0
0
0
0
0
0
0
0
0
0
0
0
0
0
0
0
0
0
0
0
0
0
0
0
0
0
0
0
0
0
0
0
0
0
0
0
0
0
0
0
0
0
0
0
0
0
0
0
0
0
0
0
0
0
0
0
0
0
0
0
-0.05427108997
0.05427108997
0.00396209502
0.0009983297451
0.0004922602654
0.0003026962883
0.0002073201216
0.00015169169
0.0001162502594
9.229386473e-05
7.53807052e-05
6.30200808e-05
5.371962587e-05
4.654116779e-05
4.087331623e-05
3.630623148e-05
3.255868079e-05
2.94336882e-05
2.67906702e-05
2.452747905e-05
2.256859514e-05
2.085723207e-05
1.934998071e-05
1.801312741e-05
1.682009082e-05
1.574961486e-05
1.478447865e-05
1.391056346e-05
1.311616887e-05
1.239150473e-05
1.172830874e-05
1.111955451e-05
1.055922584e-05
1.004214017e-05
9.563808529e-06
9.120323507e-06
8.708268632e-06
8.324644326e-06
7.966807083e-06
7.632418903e-06
7.319405235e-06
7.025919514e-06
6.750313379e-06
6.491111284e-06
6.24698896e-06
6.016754881e-06
5.799334476e-06
5.593756422e-06
5.399140813e-06
5.214688938e-06
5.039674324e-06
4.873434958e-06
4.715366497e-06
4.564916232e-06
4.42157792e-06
4.284887013e-06
4.154416727e-06
4.029774233e-06
3.910597598e-06
3.796552799e-06
3.687331211e-06
3.582647355e-06
3.482236739e-06
3.385854179e-06
3.29327203e-06
3.20427876e-06
3.118677565e-06
3.036285235e-06
2.956930959e-06
2.880455437e-06
2.806709895e-06
2.735555325e-06
2.666861697e-06
2.600507307e-06
2.536378152e-06
2.474367349e-06
2.414374631e-06
2.356305869e-06
2.3000726e-06
2.245591683e-06
2.192784902e-06
2.141578599e-06
2.091903433e-06
2.043693992e-06
1.996888592e-06
1.951429043e-06
1.907260344e-06
1.864330559e-06
1.822590564e-06
1.781993873e-06
1.742496489e-06
1.704056714e-06
1.666635043e-06
1.630194039e-06
1.594698076e-06
1.560113431e-06
1.526407997e-06
1.493551283e-06
1.46151425e-06
1.43026929e-06
1.39979009e-06
1.37005155e-06
1.3410298e-06
1.31270198e-06
1.285046335e-06
1.258042037e-06
1.231669196e-06
1.205908781e-06
1.180742569e-06
1.156153144e-06
1.132123764e-06
1.108638412e-06
1.085681709e-06
1.063238908e-06
1.041295827e-06
1.019838839e-06
9.98854836e-07
9.783312376e-07
9.582558759e-07
9.386170734e-07
9.1940357e-07
9.006045003e-07
8.822093709e-07
8.642080874e-07
8.465908446e-07
8.293482338e-07
8.124710831e-07
7.959505897e-07
7.79778205e-07
7.639456463e-07
7.484448952e-07
7.332681983e-07
7.184080015e-07
7.038570243e-07
6.896081674e-07
6.756545563e-07
6.619895064e-07
6.486065246e-07
6.354993077e-07
6.226617222e-07
6.100877973e-07
5.977717426e-07
5.857079138e-07
5.738908076e-07
5.623150685e-07
5.509754819e-07
5.398669852e-07
5.289846061e-07
5.18323539e-07
5.078790672e-07
4.976466083e-07
4.876216657e-07
4.777998959e-07
4.681770171e-07
4.587488685e-07
4.495113948e-07
4.404606117e-07
4.315926583e-07
4.229037301e-07
4.143901415e-07
4.06048268e-07
3.978745777e-07
3.898656065e-07
3.820179898e-07
3.743284042e-07
3.667936195e-07
3.594105058e-07
3.521759361e-07
3.450869069e-07
3.381404429e-07
3.313336638e-07
3.246637352e-07
3.181278677e-07
3.117233743e-07
3.054475715e-07
2.992978653e-07
2.93271721e-07
2.873666446e-07
2.815801748e-07
2.759099507e-07
2.703536223e-07
2.649088724e-07
2.595734908e-07
2.543452595e-07
2.492220423e-07
2.442017108e-07
2.392822144e-07
2.344615148e-07
2.297376417e-07
2.251086452e-07
2.205726427e-07
2.161277271e-07
2.117721018e-07
2.075039902e-07
2.033216138e-07
1.992232635e-07
1.952072613e-07
1.912719425e-07
1.874157219e-07
1.83636977e-07
1.79934185e-07
1.763058094e-07
1.727503657e-07
1.692663978e-07
1.658524627e-07
1.625071605e-07
1.592291412e-07
1.560170311e-07
1.528695149e-07
1.497853069e-07
1.467631364e-07
1.438017457e-07
1.408999493e-07
1.38056522e-07
1.352703101e-07
1.325401639e-07
1.29864967e-07
1.272436133e-07
1.246750126e-07
1.221581231e-07
1.196919081e-07
1.172753448e-07
1.149074417e-07
1.125872259e-07
1.103137279e-07
1.080860231e-07
1.059031899e-07
1.037643256e-07
1.016685528e-07
9.961499935e-08
9.760283603e-08
9.563121263e-08
9.369931935e-08
9.180636167e-08
8.995156587e-08
8.813414775e-08
8.635337178e-08
8.460849438e-08
8.289879886e-08
8.12235804e-08
7.958213535e-08
7.797379468e-08
7.639788435e-08
7.485377352e-08
7.334079982e-08
7.185834674e-08
7.040579659e-08
6.89825497e-08
6.758801649e-08
6.62216338e-08
6.488281245e-08
6.357102134e-08
6.228569088e-08
6.10263014e-08
5.979234222e-08
5.858328728e-08
5.739863086e-08
5.623788635e-08
5.510058846e-08
5.398624822e-08
5.289440831e-08
5.182460606e-08
5.077641625e-08
4.974938707e-08
4.874310793e-08
4.775715343e-08
4.679110367e-08
4.584456919e-08
4.491715448e-08
4.400847797e-08
4.311815711e-08
4.224583008e-08
4.139112071e-08
4.055369058e-08
3.973316687e-08
3.892922791e-08
3.814154149e-08
3.736976808e-08
3.661359294e-08
3.587270305e-08
3.514679012e-08
3.443553996e-08
3.373867554e-08
3.305590006e-08
3.238692443e-08
3.173147766e-08
3.108926514e-08
3.046004977e-08
2.984355522e-08
2.923952105e-08
2.864771098e-08
2.806785847e-08
2.749972612e-08
2.694309205e-08
2.639771032e-08
2.586336569e-08
2.533982122e-08
2.482686108e-08
2.432428583e-08
2.383186351e-08
2.334940265e-08
2.287669923e-08
2.241356523e-08
2.19598015e-08
2.151521017e-08
2.107961418e-08
2.065281447e-08
2.023466786e-08
1.982496861e-08
1.942357098e-08
1.903028018e-08
1.864495838e-08
1.826742328e-08
1.789752668e-08
1.753511927e-08
1.71800409e-08
1.683214693e-08
1.649129338e-08
1.615733744e-08
1.583015187e-08
1.55095617e-08
1.51954767e-08
1.488774172e-08
1.458624303e-08
1.42908279e-08
1.400142905e-08
1.371784066e-08
1.344003896e-08
1.31678189e-08
1.290114506e-08
1.263983075e-08
1.238385003e-08
1.21329999e-08
1.188729411e-08
1.164648961e-08
1.141064199e-08
1.117946061e-08
1.09531049e-08
1.073116945e-08
1.051390159e-08
1.030083106e-08
1.009231746e-08
9.887729289e-09
9.687632177e-09
9.491184474e-09
9.29918345e-09
9.110518695e-09
8.926330771e-09
8.745092068e-09
8.568433396e-09
8.394300378e-09
8.224910145e-09
8.057526227e-09
7.89520389e-09
7.73419962e-09
7.578775846e-09
7.423786471e-09
7.275105013e-09
7.125731415e-09
6.983715054e-09
6.839506297e-09
6.704144128e-09
6.564603908e-09
6.436001618e-09
6.30051435e-09
6.178865254e-09
6.046730004e-09
5.932416055e-09
5.802699736e-09
5.696340285e-09
5.567919729e-09
5.470428957e-09
5.341785815e-09
5.254488038e-09
5.123639962e-09
5.048455804e-09
4.912710735e-09
4.852315279e-09
4.708033131e-09
4.666126345e-09
4.508312763e-09
4.48991199e-09
4.311511888e-09
4.323223038e-09
4.114131575e-09
4.16413462e-09
3.909323563e-09
4.006233703e-09
3.6822422e-09
3.831105063e-09
3.398763579e-09
3.588782564e-09
2.979160585e-09
3.151336656e-09
2.246644888e-09
2.223391095e-09
9.208694753e-10
3.614850078e-10
-7.837124428e-14
-7.837124428e-14
-0.0952158619
0.0952158619
0.01297562026
0.003854618262
0.001934307931
0.001196199257
0.000821741048
0.0006023144562
0.000462066996
0.0003670409362
0.0002998306249
0.000250644979
0.0002136016793
0.0001849938771
0.0001624004716
0.0001441951208
0.0001292596987
0.0001168097389
0.0001062845478
9.727624665e-05
8.94830173e-05
8.267777666e-05
7.668688376e-05
7.137547477e-05
6.663723564e-05
6.23871809e-05
5.855649136e-05
5.508877638e-05
5.193733224e-05
4.906310447e-05
4.64331532e-05
4.401948196e-05
4.179813242e-05
3.9748476e-05
3.785265308e-05
3.609512405e-05
3.446230666e-05
3.294228001e-05
3.15245412e-05
3.019980369e-05
2.895982917e-05
2.779728633e-05
2.670563192e-05
2.567900975e-05
2.471216476e-05
2.380036943e-05
2.293936073e-05
2.212528573e-05
2.135465451e-05
2.062429948e-05
1.993133983e-05
1.927315064e-05
1.86473357e-05
1.80517039e-05
1.748424824e-05
1.694312742e-05
1.642664963e-05
1.593325806e-05
1.546151815e-05
1.50101062e-05
1.45777992e-05
1.416346575e-05
1.376605798e-05
1.338460428e-05
1.301820269e-05
1.266601507e-05
1.23272618e-05
1.200121691e-05
1.168720383e-05
1.138459139e-05
1.109279029e-05
1.081124982e-05
1.053945491e-05
1.027692351e-05
1.002320396e-05
9.777872946e-06
9.540533284e-06
9.310812109e-06
9.088359093e-06
8.872844913e-06
8.663959715e-06
8.461411848e-06
8.264926518e-06
8.074244754e-06
7.889122238e-06
7.709328427e-06
7.534645542e-06
7.364867861e-06
7.199800752e-06
7.03926016e-06
6.88307179e-06
6.731070526e-06
6.583099888e-06
6.439011445e-06
6.298664333e-06
6.161924787e-06
6.028665715e-06
5.898766277e-06
5.77211153e-06
5.648592027e-06
5.528103574e-06
5.410546812e-06
5.295827044e-06
5.183853875e-06
5.074541004e-06
4.967805992e-06
4.863570016e-06
4.761757698e-06
4.662296886e-06
4.565118466e-06
4.47015625e-06
4.377346745e-06
4.286629023e-06
4.19794465e-06
4.11123745e-06
4.026453463e-06
3.943540778e-06
3.86244946e-06
3.783131438e-06
3.705540401e-06
3.629631732e-06
3.555362375e-06
3.48269083e-06
3.411577003e-06
3.341982184e-06
3.273868965e-06
3.207201199e-06
3.141943886e-06
3.078063183e-06
3.015526301e-06
2.95430153e-06
2.894358078e-06
2.835666125e-06
2.778196758e-06
2.721921888e-06
2.666814296e-06
2.612847509e-06
2.559995839e-06
2.5082343e-06
2.457538642e-06
2.407885215e-06
2.359251066e-06
2.311613856e-06
2.2649518e-06
2.219243756e-06
2.174469042e-06
2.130607577e-06
2.087639771e-06
2.04554652e-06
2.004309195e-06
1.963909627e-06
1.924330116e-06
1.885553353e-06
1.847562486e-06
1.810341015e-06
1.773872887e-06
1.738142368e-06
1.703134147e-06
1.66883323e-06
1.635224962e-06
1.602295042e-06
1.57002949e-06
1.538414623e-06
1.507437102e-06
1.477083827e-06
1.447342054e-06
1.418199261e-06
1.389643235e-06
1.361661988e-06
1.334243867e-06
1.307377386e-06
1.28105135e-06
1.255254807e-06
1.229977027e-06
1.205207476e-06
1.180935926e-06
1.15715226e-06
1.133846658e-06
1.111009453e-06
1.088631219e-06
1.066702691e-06
1.045214797e-06
1.024158699e-06
1.003525689e-06
9.8330725e-07
9.634950713e-07
9.440809678e-07
9.25056957e-07
9.064151958e-07
8.881480168e-07
8.702478988e-07
8.527074629e-07
8.355195343e-07
8.186769931e-07
8.021729566e-07
7.860006101e-07
7.701533266e-07
7.546245651e-07
7.394079591e-07
7.244972504e-07
7.098863056e-07
6.955691209e-07
6.815398124e-07
6.67792603e-07
6.543218684e-07
6.411220279e-07
6.281876894e-07
6.155135089e-07
6.030943001e-07
5.90924938e-07
5.790004086e-07
5.673158198e-07
5.558663507e-07
5.446473036e-07
5.3365405e-07
5.228820727e-07
5.123269309e-07
5.019842793e-07
4.918498535e-07
4.819194846e-07
4.721890756e-07
4.626546176e-07
4.533121921e-07
4.441579275e-07
4.351880622e-07
4.263988987e-07
4.17786789e-07
4.093482205e-07
4.010796679e-07
3.929777571e-07
3.850391062e-07
3.772604583e-07
3.696385974e-07
3.621703772e-07
3.548527103e-07
3.476825626e-07
3.406569943e-07
3.3377308e-07
3.270279718e-07
3.204189002e-07
3.139431049e-07
3.07597936e-07
3.013807434e-07
2.952889634e-07
2.893200864e-07
2.834716152e-07
2.777411594e-07
2.721263108e-07
2.666247691e-07
2.612342486e-07
2.559525167e-07
2.507773818e-07
2.457066962e-07
2.407383581e-07
2.358703261e-07
2.311005556e-07
2.264270808e-07
2.218479469e-07
2.17361295e-07
2.129652227e-07
2.086579141e-07
2.044375952e-07
2.003025124e-07
1.962509364e-07
1.922812036e-07
1.883916379e-07
1.845806387e-07
1.808466375e-07
1.771880747e-07
1.736034034e-07
1.700911739e-07
1.666499065e-07
1.632781687e-07
1.599745555e-07
1.567377004e-07
1.535662706e-07
1.504589395e-07
1.474144019e-07
1.444313937e-07
1.415086822e-07
1.386450428e-07
1.358393119e-07
1.330902792e-07
1.303968216e-07
1.277578148e-07
1.251721611e-07
1.226387906e-07
1.201566413e-07
1.17724683e-07
1.15341892e-07
1.130072893e-07
1.107198907e-07
1.084787576e-07
1.062829369e-07
1.041315255e-07
1.020236239e-07
9.995835018e-08
9.79348506e-08
9.59522759e-08
9.400980591e-08
9.210662309e-08
9.024192791e-08
8.841495715e-08
8.662494337e-08
8.487113658e-08
8.315281019e-08
8.146923181e-08
7.981973684e-08
7.820359105e-08
7.662015425e-08
7.506874025e-08
7.354872666e-08
7.205946008e-08
7.060032658e-08
6.917071807e-08
6.777005203e-08
6.639769728e-08
6.505314433e-08
6.37357681e-08
6.244507499e-08
6.118048748e-08
5.994151026e-08
5.87275824e-08
5.753825758e-08
5.637295328e-08
5.523130714e-08
5.411267854e-08
5.301679446e-08
5.194298968e-08
5.089103755e-08
4.986024375e-08
4.885049439e-08
4.786096461e-08
4.689172287e-08
4.594181186e-08
4.501148829e-08
4.409957519e-08
4.320661399e-08
4.233117396e-08
4.147412677e-08
4.06336379e-08
3.981108851e-08
3.90041071e-08
3.821475806e-08
3.743988148e-08
3.668245149e-08
3.593829581e-08
3.521162942e-08
3.449683221e-08
3.379985009e-08
3.311306707e-08
3.244478372e-08
3.178464661e-08
3.114417492e-08
3.050929865e-08
2.989591537e-08
2.928486254e-08
2.869799404e-08
2.810920037e-08
2.754848846e-08
2.698025097e-08
2.644562292e-08
2.589599106e-08
2.538771767e-08
2.485441737e-08
2.437323995e-08
2.38535269e-08
2.340082028e-08
2.289129363e-08
2.246927254e-08
2.196558358e-08
2.157762135e-08
2.10741258e-08
2.072516274e-08
2.021439531e-08
1.991148572e-08
1.938344e-08
1.913650779e-08
1.857756647e-08
1.840036656e-08
1.779177613e-08
1.770293296e-08
1.701838831e-08
1.70424084e-08
1.624407948e-08
1.641108568e-08
1.544261813e-08
1.57842746e-08
1.455716508e-08
1.509092509e-08
1.34568398e-08
1.413920172e-08
1.183499214e-08
1.24384953e-08
9.009454242e-09
8.857271767e-09
3.882428627e-09
1.704212138e-09
6.437716943e-14
6.437716943e-14
-0.1252930377
0.1252930377
0.02493586976
0.008358019126
0.004277996265
0.002661518916
0.001833735509
0.001346352401
0.001033884326
0.0008217036789
0.0006713867368
0.0005612497708
0.0004782320907
0.000414085075
0.0003634105351
0.0003225758049
0.0002890793569
0.0002611636448
0.0002375709466
0.0002173854266
0.0001999288865
0.0001846908012
0.0001712806834
0.0001593952251
0.0001487953496
0.0001392899889
0.000130724473
0.0001229721167
0.0001159280434
0.0001095045937
0.0001036278662
9.823507708e-05
9.327252021e-05
8.86939708e-05
8.445942235e-05
8.05340761e-05
7.688752484e-05
7.349308723e-05
7.032726092e-05
6.736926953e-05
6.460068498e-05
6.200511075e-05
5.956791484e-05
5.727600337e-05
5.511762783e-05
5.308222031e-05
5.116025215e-05
4.934311201e-05
4.762300065e-05
4.599283959e-05
4.444619173e-05
4.297719207e-05
4.158048707e-05
4.025118155e-05
3.898479197e-05
3.777720519e-05
3.662464211e-05
3.552362538e-05
3.447095083e-05
3.346366201e-05
3.249902745e-05
3.157452041e-05
3.068780076e-05
2.983669867e-05
2.901920002e-05
2.823343323e-05
2.747765734e-05
2.675025138e-05
2.604970458e-05
2.537460768e-05
2.472364486e-05
2.409558652e-05
2.34892827e-05
2.290365701e-05
2.233770122e-05
2.179047008e-05
2.126107689e-05
2.074868916e-05
2.02525248e-05
1.977184852e-05
1.930596862e-05
1.885423392e-05
1.841603097e-05
1.79907816e-05
1.757794037e-05
1.717699254e-05
1.6787452e-05
1.640885932e-05
1.604078014e-05
1.568280344e-05
1.533454013e-05
1.499562159e-05
1.466569843e-05
1.434443928e-05
1.403152963e-05
1.372667085e-05
1.342957916e-05
1.313998481e-05
1.28576311e-05
1.258227374e-05
1.231368002e-05
1.205162818e-05
1.179590671e-05
1.154631379e-05
1.130265676e-05
1.10647515e-05
1.083242208e-05
1.060550013e-05
1.038382456e-05
1.016724109e-05
9.955601892e-06
9.748765188e-06
9.546594972e-06
9.348960724e-06
9.155737053e-06
8.966803418e-06
8.782043956e-06
8.601347166e-06
8.424605694e-06
8.251716158e-06
8.082578925e-06
7.917097885e-06
7.755180318e-06
7.596736777e-06
7.441680788e-06
7.28992886e-06
7.141400252e-06
6.996016857e-06
6.853703116e-06
6.714385849e-06
6.577994177e-06
6.444459461e-06
6.313715082e-06
6.185696504e-06
6.060341045e-06
5.937587903e-06
5.817378052e-06
5.699654094e-06
5.584360302e-06
5.471442489e-06
5.36084796e-06
5.252525442e-06
5.146425067e-06
5.04249827e-06
4.940697776e-06
4.840977547e-06
4.743292702e-06
4.647599537e-06
4.553855411e-06
4.462018812e-06
4.372049181e-06
4.283907001e-06
4.19755369e-06
4.112951616e-06
4.030064015e-06
3.948855025e-06
3.869289613e-06
3.791333565e-06
3.714953437e-06
3.640116598e-06
3.566791127e-06
3.494945823e-06
3.424550209e-06
3.355574497e-06
3.287989511e-06
3.221766773e-06
3.156878411e-06
3.093297171e-06
3.030996375e-06
2.969949936e-06
2.910132342e-06
2.851518603e-06
2.794084284e-06
2.737805466e-06
2.68265872e-06
2.628621128e-06
2.575670265e-06
2.523784172e-06
2.472941315e-06
2.423120671e-06
2.374301604e-06
2.32646391e-06
2.279587847e-06
2.233654043e-06
2.18864353e-06
2.144537726e-06
2.101318443e-06
2.058967858e-06
2.017468532e-06
1.976803351e-06
1.936955557e-06
1.89790874e-06
1.859646841e-06
1.822154094e-06
1.785415074e-06
1.749414643e-06
1.714137993e-06
1.679570641e-06
1.645698322e-06
1.612507121e-06
1.579983371e-06
1.548113709e-06
1.516885017e-06
1.486284414e-06
1.45629936e-06
1.426917489e-06
1.398126713e-06
1.369915188e-06
1.342271309e-06
1.315183687e-06
1.288641175e-06
1.262632837e-06
1.237147977e-06
1.2121761e-06
1.187706901e-06
1.163730323e-06
1.140236474e-06
1.117215684e-06
1.094658464e-06
1.072555509e-06
1.050897699e-06
1.029676123e-06
1.008882026e-06
9.885068207e-07
9.685421056e-07
9.489796324e-07
9.298113374e-07
9.110293125e-07
8.926257988e-07
8.745931913e-07
8.569240479e-07
8.396110658e-07
8.226470967e-07
8.060251172e-07
7.897382823e-07
7.737798377e-07
7.581431879e-07
7.428218645e-07
7.278095274e-07
7.130999778e-07
6.986871244e-07
6.845650074e-07
6.70727766e-07
6.571696838e-07
6.438851362e-07
6.30868638e-07
6.181147822e-07
6.056182976e-07
5.93373987e-07
5.813767954e-07
5.696217466e-07
5.581039636e-07
5.468186786e-07
5.357611901e-07
5.249269302e-07
5.143114156e-07
5.039102198e-07
4.937190399e-07
4.837336472e-07
4.739498897e-07
4.643637171e-07
4.54971141e-07
4.457682627e-07
4.367512578e-07
4.27916397e-07
4.192599944e-07
4.107784683e-07
4.024682746e-07
3.943259767e-07
3.863481861e-07
3.785315954e-07
3.708729399e-07
3.63369046e-07
3.560167853e-07
3.488131161e-07
3.417550334e-07
3.348395944e-07
3.280639265e-07
3.214252111e-07
3.149207034e-07
3.085476678e-07
3.023034688e-07
2.961854979e-07
2.901911977e-07
2.8431811e-07
2.7856376e-07
2.729257532e-07
2.674017501e-07
2.619894428e-07
2.566865845e-07
2.51490948e-07
2.464003843e-07
2.414127695e-07
2.365260162e-07
2.317381094e-07
2.270470175e-07
2.224508044e-07
2.179475628e-07
2.135354044e-07
2.092124865e-07
2.049770029e-07
2.008272005e-07
1.967613359e-07
1.927777282e-07
1.888747065e-07
1.850506391e-07
1.81303919e-07
1.776330053e-07
1.740363545e-07
1.705124757e-07
1.67059895e-07
1.636771623e-07
1.603628639e-07
1.571156496e-07
1.539341157e-07
1.508169815e-07
1.477629111e-07
1.447706482e-07
1.418389123e-07
1.389665586e-07
1.361522718e-07
1.333950029e-07
1.306934595e-07
1.280467017e-07
1.254534042e-07
1.229127118e-07
1.204233067e-07
1.179844747e-07
1.155948004e-07
1.132537557e-07
1.109597842e-07
1.087126374e-07
1.065105348e-07
1.043535466e-07
1.02239597e-07
1.001691975e-07
9.813984041e-08
9.615259786e-08
9.420438669e-08
9.2297058e-08
9.042664275e-08
8.85960864e-08
8.680027802e-08
8.504356026e-08
8.331920525e-08
8.163353339e-08
7.997756056e-08
7.836032069e-08
7.676973965e-08
7.521849845e-08
7.369029897e-08
7.220284683e-08
7.073405029e-08
6.930842599e-08
6.789595063e-08
6.65304763e-08
6.517112164e-08
6.386452518e-08
6.255488191e-08
6.130630165e-08
6.004264633e-08
5.885180373e-08
5.762991044e-08
5.649731626e-08
5.531225348e-08
5.42394156e-08
5.308521341e-08
5.207499901e-08
5.09443196e-08
5.000138686e-08
4.888488288e-08
4.801634208e-08
4.690188449e-08
4.611824131e-08
4.498982052e-08
4.430605265e-08
4.314224361e-08
4.257947358e-08
4.135112511e-08
4.093859935e-08
3.960556739e-08
3.938301267e-08
3.788898199e-08
3.790851312e-08
3.617245646e-08
3.649807115e-08
3.439906024e-08
3.509760293e-08
3.244526527e-08
3.355218485e-08
3.002620646e-08
3.144425378e-08
2.647345556e-08
2.770664587e-08
2.029635722e-08
1.987882772e-08
9.06791768e-09
4.282264789e-09
2.658395881e-13
2.658395881e-13
-0.1464876054
0.1464876054
0.03831047054
0.01423404633
0.007456022675
0.004672748492
0.003230546968
0.002376528371