# vtk DataFile Version 2.0
FlowField
ASCII
DATASET STRUCTURED_GRID
DIMENSIONS 400 1 200
POINTS 80000 float
0 0 0
0.08 0 0
0.16 0 0
0.24 0 0
0.32 0 0
0.4 0 0
0.48 0 0
0.56 0 0
0.64 0 0
0.72 0 0
0.8 0 0
0.88 0 0
0.96 0 0
1.04 0 0
1.12 0 0
1.2 0 0
1.28 0 0
1.36 0 0
1.44 0 0
1.52 0 0
1.6 0 0
1.68 0 0
1.76 0 0
1.84 0 0
1.92 0 0
2 0 0
2.08 0 0
2.16 0 0
2.24 0 0
2.32 0 0
2.4 0 0
2.48 0 0
2.56 0 0
2.64 0 0
2.72 0 0
2.8 0 0
2.88 0 0
2.96 0 0
3.04 0 0
3.12 0 0
3.2 0 0
3.28 0 0
3.36 0 0
3.44 0 0
3.52 0 0
3.6 0 0
3.68 0 0
3.76 0 0
3.84 0 0
3.92 0 0
4 0 0
4.08 0 0
4.16 0 0
4.24 0 0
4.32 0 0
4.4 0 0
4.48 0 0
4.56 0 0
4.64 0 0
4.72 0 0
4.8 0 0
4.88 0 0
4.96 0 0
5.04 0 0
5.12 0 0
5.2 0 0
5.28 0 0
5.36 0 0
5.44 0 0
5.52 0 0
5.6 0 0
5.68 0 0
5.76 0 0
5.84 0 0
5.92 0 0
6 0 0
6.08 0 0
6.16 0 0
6.24 0 0
6.32 0 0
6.4 0 0
6.48 0 0
6.56 0 0
6.64 0 0
6.72 0 0
6.8 0 0
6.88 0 0
6.96 0 0
7.04 0 0
7.12 0 0
7.2 0 0
7.28 0 0
7.36 0 0
7.44 0 0
7.52 0 0
7.6 0 0
7.68 0 0
7.76 0 0
7.84 0 0
7.92 0 0
8 0 0
8.08 0 0
8.16 0 0
8.24 0 0
8.32 0 0
8.4 0 0
8.48 0 0
8.56 0 0
8.64 0 0
8.72 0 0
8.8 0 0
8.88 0 0
8.96 0 0
9.04 0 0
9.12 0 0
9.2 0 0
9.28 0 0
9.36 0 0
9.44 0 0
9.52 0 0
9.6 0 0
9.68 0 0
9.76 0 0
9.84 0 0
9.92 0 0
10 0 0
10.08 0 0
10.16 0 0
10.24 0 0
10.32 0 0
10.4 0 0
10.48 0 0
10.56 0 0
10.64 0 0
10.72 0 0
10.8 0 0
10.88 0 0
10.96 0 0
11.04 0 0
11.12 0 0
11.2 0 0
11.28 0 0
11.36 0 0
11.44 0 0
11.52 0 0
11.6 0 0
11.68 0 0
11.76 0 0
11.84 0 0
11.92 0 0
12 0 0
12.08 0 0
12.16 0 0
12.24 0 0
12.32 0 0
12.4 0 0
12.48 0 0
12.56 0 0
12.64 0 0
12.72 0 0
12.8 0 0
12.88 0 0
12.96 0 0
13.04 0 0
13.12 0 0
13.2 0 0
13.28 0 0
13.36 0 0
13.44 0 0
13.52 0 0
13.6 0 0
13.68 0 0
13.76 0 0
13.84 0 0
13.92 0 0
14 0 0
14.08 0 0
14.16 0 0
14.24 0 0
14.32 0 0
14.4 0 0
14.48 0 0
14.56 0 0
14.64 0 0
14.72 0 0
14.8 0 0
14.88 0 0
14.96 0 0
15.04 0 0
15.12 0 0
15.2 0 0
15.28 0 0
15.36 0 0
15.44 0 0
15.52 0 0
15.6 0 0
15.68 0 0
15.76 0 0
15.84 0 0
15.92 0 0
16 0 0
16.08 0 0
16.16 0 0
16.24 0 0
16.32 0 0
16.4 0 0
16.48 0 0
16.56 0 0
16.64 0 0
16.72 0 0
16.8 0 0
16.88 0 0
16.96 0 0
17.04 0 0
17.12 0 0
17.2 0 0
17.28 0 0
17.36 0 0
17.44 0 0
17.52 0 0
17.6 0 0
17.68 0 0
17.76 0 0
17.84 0 0
17.92 0 0
18 0 0
18.08 0 0
18.16 0 0
18.24 0 0
18.32 0 0
18.4 0 0
18.48 0 0
18.56 0 0
18.64 0 0
18.72 0 0
18.8 0 0
18.88 0 0
18.96 0 0
19.04 0 0
19.12 0 0
19.2 0 0
19.28 0 0
19.36 0 0
19.44 0 0
19.52 0 0
19.6 0 0
19.68 0 0
19.76 0 0
19.84 0 0
19.92 0 0
20 0 0
20.08 0 0
20.16 0 0
20.24 0 0
20.32 0 0
20.4 0 0
20.48 0 0
20.56 0 0
20.64 0 0
20.72 0 0
20.8 0 0
20.88 0 0
20.96 0 0
21.04 0 0
21.12 0 0
21.2 0 0
21.28 0 0
21.36 0 0
21.44 0 0
21.52 0 0
21.6 0 0
21.68 0 0
21.76 0 0
21.84 0 0
21.92 0 0
22 0 0
22.08 0 0
22.16 0 0
22.24 0 0
22.32 0 0
22.4 0 0
22.48 0 0
22.56 0 0
22.64 0 0
22.72 0 0
22.8 0 0
22.88 0 0
22.96 0 0
23.04 0 0
23.12 0 0
23.2 0 0
23.28 0 0
23.36 0 0
23.44 0 0
23.52 0 0
23.6 0 0
23.68 0 0
23.76 0 0
23.84 0 0
23.92 0 0
24 0 0
24.08 0 0
24.16 0 0
24.24 0 0
24.32 0 0
24.4 0 0
24.48 0 0
24.56 0 0
24.64 0 0
24.72 0 0
24.8 0 0
24.88 0 0
24.96 0 0
25.04 0 0
25.12 0 0
25.2 0 0
25.28 0 0
25.36 0 0
25.44 0 0
25.52 0 0
25.6 0 0
25.68 0 0
25.76 0 0
25.84 0 0
25.92 0 0
26 0 0
26.08 0 0
26.16 0 0
26.24 0 0
26.32 0 0
26.4 0 0
26.48 0 0
26.56 0 0
26.64 0 0
26.72 0 0
26.8 0 0
26.88 0 0
26.96 0 0
27.04 0 0
27.12 0 0
27.2 0 0
27.28 0 0
27.36 0 0
27.44 0 0
27.52 0 0
27.6 0 0
27.68 0 0
27.76 0 0
27.84 0 0
27.92 0 0
28 0 0
28.08 0 0
28.16 0 0
28.24 0 0
28.32 0 0
28.4 0 0
28.48 0 0
28.56 0 0
28.64 0 0
28.72 0 0
28.8 0 0
28.88 0 0
28.96 0 0
29.04 0 0
29.12 0 0
29.2 0 0
29.28 0 0
29.36 0 0
29.44 0 0
29.52 0 0
29.6 0 0
29.68 0 0
29.76 0 0
29.84 0 0
29.92 0 0
30 0 0
30.08 0 0
30.16 0 0
30.24 0 0
30.32 0 0
30.4 0 0
30.48 0 0
30.56 0 0
30.64 0 0
30.72 0 0
30.8 0 0
30.88 0 0
30.96 0 0
31.04 0 0
31.12 0 0
31.2 0 0
31.28 0 0
31.36 0 0
31.44 0 0
31.52 0 0
31.6 0 0
31.68 0 0
31.76 0 0
31.84 0 0
31.92 0 0
0 0.005 0
0.08 0.005 0
0.16 0.005 0
0.24 0.005 0
0.32 0.005 0
0.4 0.005 0
0.48 0.005 0
0.56 0.005 0
0.64 0.005 0
0.72 0.005 0
0.8 0.005 0
0.88 0.005 0
0.96 0.005 0
1.04 0.005 0
1.12 0.005 0
1.2 0.005 0
1.28 0.005 0
1.36 0.005 0
1.44 0.005 0
1.52 0.005 0
1.6 0.005 0
1.68 0.005 0
1.76 0.005 0
1.84 0.005 0
1.92 0.005 0
2 0.005 0
2.08 0.005 0
2.16 0.005 0
2.24 0.005 0
2.32 0.005 0
2.4 0.005 0
2.48 0.005 0
2.56 0.005 0
2.64 0.005 0
2.72 0.005 0
2.8 0.005 0
2.88 0.005 0
2.96 0.005 0
3.04 0.005 0
3.12 0.005 0
3.2 0.005 0
3.28 0.005 0
3.36 0.005 0
3.44 0.005 0
3.52 0.005 0
3.6 0.005 0
3.68 0.005 0
3.76 0.005 0
3.84 0.005 0
3.92 0.005 0
4 0.005 0
4.08 0.005 0
4.16 0.005 0
4.24 0.005 0
4.32 0.005 0
4.4 0.005 0
4.48 0.005 0
4.56 0.005 0
4.64 0.005 0
4.72 0.005 0
4.8 0.005 0
4.88 0.005 0
4.96 0.005 0
5.04 0.005 0
5.12 0.005 0
5.2 0.005 0
5.28 0.005 0
5.36 0.005 0
5.44 0.005 0
5.52 0.005 0
5.6 0.005 0
5.68 0.005 0
5.76 0.005 0
5.84 0.005 0
5.92 0.005 0
6 0.005 0
6.08 0.005 0
6.16 0.005 0
6.24 0.005 0
6.32 0.005 0
6.4 0.005 0
6.48 0.005 0
6.56 0.005 0
6.64 0.005 0
6.72 0.005 0
6.8 0.005 0
6.88 0.005 0
6.96 0.005 0
7.04 0.005 0
7.12 0.005 0
7.2 0.005 0
7.28 0.005 0
7.36 0.005 0
7.44 0.005 0
7.52 0.005 0
7.6 0.005 0
7.68 0.005 0
7.76 0.005 0
7.84 0.005 0
7.92 0.005 0
8 0.005 0
8.08 0.005 0
8.16 0.005 0
8.24 0.005 0
8.32 0.005 0
8.4 0.005 0
8.48 0.005 0
8.56 0.005 0
8.64 0.005 0
8.72 0.005 0
8.8 0.005 0
8.88 0.005 0
8.96 0.005 0
9.04 0.005 0
9.12 0.005 0
9.2 0.005 0
9.28 0.005 0
9.36 0.005 0
9.44 0.005 0
9.52 0.005 0
9.6 0.005 0
9.68 0.005 0
9.76 0.005 0
9.84 0.005 0
9.92 0.005 0
10 0.005 0
10.08 0.005 0
10.16 0.005 0
10.24 0.005 0
10.32 0.005 0
10.4 0.005 0
10.48 0.005 0
10.56 0.005 0
10.64 0.005 0
10.72 0.005 0
10.8 0.005 0
10.88 0.005 0
10.96 0.005 0
11.04 0.005 0
11.12 0.005 0
11.2 0.005 0
11.28 0.005 0
11.36 0.005 0
11.44 0.005 0
11.52 0.005 0
11.6 0.005 0
11.68 0.005 0
11.76 0.005 0
11.84 0.005 0
11.92 0.005 0
12 0.005 0
12.08 0.005 0
12.16 0.005 0
12.24 0.005 0
12.32 0.005 0
12.4 0.005 0
12.48 0.005 0
12.56 0.005 0
12.64 0.005 0
12.72 0.005 0
12.8 0.005 0
12.88 0.005 0
12.96 0.005 0
13.04 0.005 0
13.12 0.005 0
13.2 0.005 0
13.28 0.005 0
13.36 0.005 0
13.44 0.005 0
13.52 0.005 0
13.6 0.005 0
13.68 0.005 0
13.76 0.005 0
13.84 0.005 0
13.92 0.005 0
14 0.005 0
14.08 0.005 0
14.16 0.005 0
14.24 0.005 0
14.32 0.005 0
14.4 0.005 0
14.48 0.005 0
14.56 0.005 0
14.64 0.005 0
14.72 0.005 0
14.8 0.005 0
14.88 0.005 0
14.96 0.005 0
15.04 0.005 0
15.12 0.005 0
15.2 0.005 0
15.28 0.005 0
15.36 0.005 0
15.44 0.005 0
15.52 0.005 0
15.6 0.005 0
15.68 0.005 0
15.76 0.005 0
15.84 0.005 0
15.92 0.005 0
16 0.005 0
16.08 0.005 0
16.16 0.005 0
16.24 0.005 0
16.32 0.005 0
16.4 0.005 0
16.48 0.005 0
16.56 0.005 0
16.64 0.005 0
16.72 0.005 0
16.8 0.005 0
16.88 0.005 0
16.96 0.005 0
17.04 0.005 0
17.12 0.005 0
17.2 0.005 0
17.28 0.005 0
17.36 0.005 0
17.44 0.005 0
17.52 0.005 0
17.6 0.005 0
17.68 0.005 0
17.76 0.005 0
17.84 0.005 0
17.92 0.005 0
18 0.005 0
18.08 0.005 0
18.16 0.005 0
18.24 0.005 0
18.32 0.005 0
18.4 0.005 0
18.48 0.005 0
18.56 0.005 0
18.64 0.005 0
18.72 0.005 0
18.8 0.005 0
18.88 0.005 0
18.96 0.005 0
19.04 0.005 0
19.12 0.005 0
19.2 0.005 0
19.28 0.005 0
19.36 0.005 0
19.44 0.005 0
19.52 0.005 0
19.6 0.005 0
19.68 0.005 0
19.76 0.005 0
19.84 0.005 0
19.92 0.005 0
20 0.005 0
20.08 0.005 0
20.16 0.005 0
20.24 0.005 0
20.32 0.005 0
20.4 0.005 0
20.48 0.005 0
20.56 0.005 0
20.64 0.005 0
20.72 0.005 0
20.8 0.005 0
20.88 0.005 0
20.96 0.005 0
21.04 0.005 0
21.12 0.005 0
21.2 0.005 0
21.28 0.005 0
21.36 0.005 0
21.44 0.005 0
21.52 0.005 0
21.6 0.005 0
21.68 0.005 0
21.76 0.005 0
21.84 0.005 0
21.92 0.005 0
22 0.005 0
22.08 0.005 0
22.16 0.005 0
22.24 0.005 0
22.32 0.005 0
22.4 0.005 0
22.48 0.005 0
22.56 0.005 0
22.64 0.005 0
22.72 0.005 0
22.8 0.005 0
22.88 0.005 0
22.96 0.005 0
23.04 0.005 0
23.12 0.005 0
23.2 0.005 0
23.28 0.005 0
23.36 0.005 0
23.44 0.005 0
23.52 0.005 0
23.6 0.005 0
23.68 0.005 0
23.76 0.005 0
23.84 0.005 0
23.92 0.005 0
24 0.005 0
24.08 0.005 0
24.16 0.005 0
24.24 0.005 0
24.32 0.005 0
24.4 0.005 0
24.48 0.005 0
24.56 0.005 0
24.64 0.005 0
24.72 0.005 0
24.8 0.005 0
24.88 0.005 0
24.96 0.005 0
25.04 0.005 0
25.12 0.005 0
25.2 0.005 0
25.28 0.005 0
25.36 0.005 0
25.44 0.005 0
25.52 0.005 0
25.6 0.005 0
25.68 0.005 0
25.76 0.005 0
25.84 0.005 0
25.92 0.005 0
26 0.005 0
26.08 0.005 0
26.16 0.005 0
26.24 0.005 0
26.32 0.005 0
26.4 0.005 0
26.48 0.005 0
26.56 0.005 0
26.64 0.005 0
26.72 0.005 0
26.8 0.005 0
26.88 0.005 0
26.96 0.005 0
27.04 0.005 0
27.12 0.005 0
27.2 0.005 0
27.28 0.005 0
27.36 0.005 0
27.44 0.005 0
27.52 0.005 0
27.6 0.005 0
27.68 0.005 0
27.76 0.005 0
27.84 0.005 0
27.92 0.005 0
28 0.005 0
28.08 0.005 0
28.16 0.005 0
28.24 0.005 0
28.32 0.005 0
28.4 0.005 0
28.48 0.005 0
28.56 0.005 0
28.64 0.005 0
28.72 0.005 0
28.8 0.005 0
28.88 0.005 0
28.96 0.005 0
29.04 0.005 0
29.12 0.005 0
29.2 0.005 0
29.28 0.005 0
29.36 0.005 0
29.44 0.005 0
29.52 0.005 0
29.6 0.005 0
29.68 0.005 0
29.76 0.005 0
29.84 0.005 0
29.92 0.005 0
30 0.005 0
30.08 0.005 0
30.16 0.005 0
30.24 0.005 0
30.32 0.005 0
30.4 0.005 0
30.48 0.005 0
30.56 0.005 0
30.64 0.005 0
30.72 0.005 0
30.8 0.005 0
30.88 0.005 0
30.96 0.005 0
31.04 0.005 0
31.12 0.005 0
31.2 0.005 0
31.28 0.005 0
31.36 0.005 0
31.44 0.005 0
31.52 0.005 0
31.6 0.005 0
31.68 0.005 0
31.76 0.005 0
31.84 0.005 0
31.92 0.005 0
0 0.01 0
0.08 0.01 0
0.16 0.01 0
0.24 0.01 0
0.32 0.01 0
0.4 0.01 0
0.48 0.01 0
0.56 0.01 0
0.64 0.01 0
0.72 0.01 0
0.8 0.01 0
0.88 0.01 0
0.96 0.01 0
1.04 0.01 0
1.12 0.01 0
1.2 0.01 0
1.28 0.01 0
1.36 0.01 0
1.44 0.01 0
1.52 0.01 0
1.6 0.01 0
1.68 0.01 0
1.76 0.01 0
1.84 0.01 0
1.92 0.01 0
2 0.01 0
2.08 0.01 0
2.16 0.01 0
2.24 0.01 0
2.32 0.01 0
2.4 0.01 0
2.48 0.01 0
2.56 0.01 0
2.64 0.01 0
2.72 0.01 0
2.8 0.01 0
2.88 0.01 0
2.96 0.01 0
3.04 0.01 0
3.12 0.01 0
3.2 0.01 0
3.28 0.01 0
3.36 0.01 0
3.44 0.01 0
3.52 0.01 0
3.6 0.01 0
3.68 0.01 0
3.76 0.01 0
3.84 0.01 0
3.92 0.01 0
4 0.01 0
4.08 0.01 0
4.16 0.01 0
4.24 0.01 0
4.32 0.01 0
4.4 0.01 0
4.48 0.01 0
4.56 0.01 0
4.64 0.01 0
4.72 0.01 0
4.8 0.01 0
4.88 0.01 0
4.96 0.01 0
5.04 0.01 0
5.12 0.01 0
[...]
POINT_DATA 80000

SCALARS u float 1
LOOKUP_TABLE default
0
-0.1316625603
-0.06826903999
-0.05229576404
-0.04441959976
-0.03957645913
-0.03625933716
-0.0338322701
-0.03197226594
-0.03049556408
-0.02928947278
-0.02828115147
-0.02742163744
-0.02667697874
-0.02602300567
-0.02544210595
-0.02492116704
-0.02445022802
-0.02402157728
-0.0236291376
-0.02326804006
-0.02293432434
-0.02262472463
-0.02233651458
-0.02206739311
-0.02181539926
-0.02157884759
-0.02135627856
-0.02114641985
-0.02094815576
-0.0207605028
-0.02058258992
-0.02041364229
-0.02025296804
-0.02009994709
-0.0199540219
-0.01981468959
-0.01968149526
-0.01955402634
-0.01943190762
-0.01931479712
-0.0192023824
-0.01909437737
-0.01899051958
-0.01889056774
-0.01879429965
-0.01870151028
-0.01861201017
-0.0185256239
-0.01844218886
-0.01836155406
-0.01828357909
-0.01820813321
-0.01813509453
-0.01806434927
-0.01799579107
-0.01792932038
-0.01786484398
-0.01780227441
-0.01774152955
-0.01768253223
-0.01762520986
-0.01756949406
-0.01751532037
-0.01746262801
-0.01741135953
-0.01736146067
-0.01731288009
-0.01726556918
-0.01721948188
-0.0171745745
-0.0171308056
-0.0170881358
-0.01704652766
-0.01700594559
-0.0169663557
-0.01692772569
-0.01689002477
-0.01685322359
-0.01681729411
-0.01678220953
-0.01674794425
-0.01671447378
-0.01668177465
-0.01664982441
-0.01661860153
-0.01658808534
-0.01655825603
-0.01652909455
-0.01650058263
-0.01647270266
-0.01644543773
-0.01641877154
-0.01639268841
-0.01636717321
-0.01634221137
-0.01631778881
-0.01629389196
-0.0162705077
-0.01624762336
-0.01622522668
-0.01620330582
-0.01618184931
-0.01616084604
-0.01614028526
-0.01612015655
-0.0161004498
-0.01608115522
-0.01606226329
-0.0160437648
-0.01602565077
-0.0160079125
-0.01599054154
-0.01597352966
-0.01595686888
-0.01594055139
-0.01592456966
-0.01590891629
-0.01589358413
-0.01587856619
-0.01586385566
-0.01584944591
-0.01583533048
-0.01582150307
-0.01580795753
-0.01579468787
-0.01578168824
-0.01576895294
-0.01575647639
-0.01574425315
-0.01573227793
-0.01572054552
-0.01570905088
-0.01569778904
-0.01568675519
-0.01567594458
-0.01566535262
-0.01565497477
-0.01564480663
-0.01563484389
-0.01562508233
-0.01561551782
-0.01560614633
-0.0155969639
-0.01558796668
-0.01557915088
-0.01557051282
-0.01556204887
-0.01555375548
-0.01554562921
-0.01553766664
-0.01552986447
-0.01552221944
-0.01551472838
-0.01550738815
-0.01550019572
-0.01549314809
-0.01548624235
-0.01547947562
-0.0154728451
-0.01546634805
-0.01545998177
-0.01545374363
-0.01544763105
-0.01544164149
-0.01543577248
-0.0154300216
-0.01542438647
-0.01541886476
-0.01541345419
-0.01540815252
-0.01540295757
-0.01539786718
-0.01539287927
-0.01538799177
-0.01538320266
-0.01537850997
-0.01537391175
-0.01536940612
-0.01536499122
-0.01536066521
-0.01535642632
-0.0153522728
-0.01534820293
-0.01534421503
-0.01534030746
-0.01533647861
-0.01533272688
-0.01532905075
-0.01532544868
-0.01532191919
-0.01531846083
-0.01531507216
-0.01531175179
-0.01530849834
-0.01530531047
-0.01530218686
-0.01529912622
-0.01529612729
-0.01529318883
-0.01529030962
-0.01528748847
-0.01528472421
-0.01528201571
-0.01527936184
-0.0152767615
-0.01527421362
-0.01527171714
-0.01526927102
-0.01526687426
-0.01526452587
-0.01526222486
-0.0152599703
-0.01525776123
-0.01525559675
-0.01525347596
-0.01525139798
-0.01524936195
-0.01524736702
-0.01524541237
-0.01524349719
-0.01524162068
-0.01523978205
-0.01523798056
-0.01523621545
-0.01523448599
-0.01523279146
-0.01523113115
-0.01522950438
-0.01522791048
-0.01522634877
-0.01522481861
-0.01522331937
-0.01522185041
-0.01522041114
-0.01521900095
-0.01521761926
-0.01521626549
-0.01521493908
-0.01521363947
-0.01521236614
-0.01521111854
-0.01520989616
-0.01520869849
-0.01520752503
-0.01520637529
-0.0152052488
-0.01520414509
-0.01520306369
-0.01520200416
-0.01520096605
-0.01519994893
-0.01519895239
-0.01519797599
-0.01519701934
-0.01519608203
-0.01519516367
-0.01519426389
-0.0151933823
-0.01519251853
-0.01519167223
-0.01519084303
-0.0151900306
-0.01518923459
-0.01518845467
-0.0151876905
-0.01518694178
-0.01518620819
-0.01518548942
-0.01518478517
-0.01518409515
-0.01518341908
-0.01518275667
-0.01518210764
-0.01518147174
-0.0151808487
-0.01518023827
-0.0151796402
-0.01517905426
-0.0151784802
-0.01517791781
-0.01517736685
-0.01517682713
-0.01517629843
-0.01517578056
-0.01517527331
-0.01517477651
-0.01517428998
-0.01517381354
-0.01517334703
-0.01517289029
-0.01517244316
-0.0151720055
-0.01517157718
-0.01517115804
-0.01517074797
-0.01517034684
-0.01516995454
-0.01516957094
-0.01516919595
-0.01516882946
-0.01516847137
-0.01516812158
-0.01516778001
-0.01516744656
-0.01516712115
-0.01516680371
-0.01516649414
-0.01516619237
-0.01516589833
-0.01516561195
-0.01516533314
-0.01516506184
-0.01516479798
-0.01516454147
-0.01516429226
-0.01516405027
-0.01516381542
-0.01516358765
-0.01516336686
-0.015163153
-0.01516294597
-0.0151627457
-0.01516255209
-0.01516236508
-0.01516218456
-0.01516201044
-0.01516184263
-0.01516168103
-0.01516152554
-0.01516137606
-0.01516123248
-0.0151610947
-0.01516096259
-0.01516083605
-0.01516071496
-0.01516059919
-0.01516048864
-0.01516038316
-0.01516028264
-0.01516018695
-0.01516009596
-0.01516000953
-0.01515992754
-0.01515984986
-0.01515977634
-0.01515970685
-0.01515964126
-0.01515957944
-0.01515952124
-0.01515946654
-0.0151594152
-0.01515936708
-0.01515932207
-0.01515928001
-0.01515924079
-0.01515920427
-0.01515917034
-0.01515913886
-0.01515910973
-0.0151590828
-0.01515905799
-0.01515903516
-0.01515901422
-0.01515899504
-0.01515897755
-0.01515896161
-0.01515894716
-0.01515893407
-0.01515892229
-0.0151589117
-0.01515890225
-0.01515889383
-0.01515888639
-0.01515887983
-0.01515887412
-0.01515886915
-0.01515886491
-0.01515886129
-0.01515885829
-0.0151588558
-0.01515885384
-0.01515885228
-0.01515885118
-0.01515885041
-0.01515885
-0.01515884987
-0.01515885001
-0.01515885042
-0.01515885099
-0.01515885189
-0.01515885275
-0.01515885417
-0.01515885514
-0.01515885731
-0.01515885789
-0.01515886138
-0.01515885749
-0.01515885749
-0.01515885749
1
0.1316625603
0.06826903999
0.05229576404
0.04441959976
0.03957645913
0.03625933716
0.0338322701
0.03197226594
0.03049556408
0.02928947278
0.02828115147
0.02742163744
0.02667697874
0.02602300567
0.02544210595
0.02492116704
0.02445022802
0.02402157728
0.0236291376
0.02326804006
0.02293432434
0.02262472463
0.02233651458
0.02206739311
0.02181539926
0.02157884759
0.02135627856
0.02114641985
0.02094815576
0.0207605028
0.02058258992
0.02041364229
0.02025296804
0.02009994709
0.0199540219
0.01981468959
0.01968149526
0.01955402634
0.01943190762
0.01931479712
0.0192023824
0.01909437737
0.01899051958
0.01889056774
0.01879429965
0.01870151028
0.01861201017
0.0185256239
0.01844218886
0.01836155406
0.01828357909
0.01820813321
0.01813509453
0.01806434927
0.01799579107
0.01792932038
0.01786484398
0.01780227441
0.01774152955
0.01768253223
0.01762520986
0.01756949406
0.01751532037
0.01746262801
0.01741135953
0.01736146067
0.01731288009
0.01726556918
0.01721948188
0.0171745745
0.0171308056
0.0170881358
0.01704652766
0.01700594559
0.0169663557
0.01692772569
0.01689002477
0.01685322359
0.01681729411
0.01678220953
0.01674794425
0.01671447378
0.01668177465
0.01664982441
0.01661860153
0.01658808534
0.01655825603
0.01652909455
0.01650058263
0.01647270266
0.01644543773
0.01641877154
0.01639268841
0.01636717321
0.01634221137
0.01631778881
0.01629389196
0.0162705077
0.01624762336
0.01622522668
0.01620330582
0.01618184931
0.01616084604
0.01614028526
0.01612015655
0.0161004498
0.01608115522
0.01606226329
0.0160437648
0.01602565077
0.0160079125
0.01599054154
0.01597352966
0.01595686888
0.01594055139
0.01592456966
0.01590891629
0.01589358413
0.01587856619
0.01586385566
0.01584944591
0.01583533048
0.01582150307
0.01580795753
0.01579468787
0.01578168824
0.01576895294
0.01575647639
0.01574425315
0.01573227793
0.01572054552
0.01570905088
0.01569778904
0.01568675519
0.01567594458
0.01566535262
0.01565497477
0.01564480663
0.01563484389
0.01562508233
0.01561551782
0.01560614633
0.0155969639
0.01558796668
0.01557915088
0.01557051282
0.01556204887
0.01555375548
0.01554562921
0.01553766664
0.01552986447
0.01552221944
0.01551472838
0.01550738815
0.01550019572
0.01549314809
0.01548624235
0.01547947562
0.0154728451
0.01546634805
0.01545998177
0.01545374363
0.01544763105
0.01544164149
0.01543577248
0.0154300216
0.01542438647
0.01541886476
0.01541345419
0.01540815252
0.01540295757
0.01539786718
0.01539287927
0.01538799177
0.01538320266
0.01537850997
0.01537391175
0.01536940612
0.01536499122
0.01536066521
0.01535642632
0.0153522728
0.01534820293
0.01534421503
0.01534030746
0.01533647861
0.01533272688
0.01532905075
0.01532544868
0.01532191919
0.01531846083
0.01531507216
0.01531175179
0.01530849834
0.01530531047
0.01530218686
0.01529912622
0.01529612729
0.01529318883
0.01529030962
0.01528748847
0.01528472421
0.01528201571
0.01527936184
0.0152767615
0.01527421362
0.01527171714
0.01526927102
0.01526687426
0.01526452587
0.01526222486
0.0152599703
0.01525776123
0.01525559675
0.01525347596
0.01525139798
0.01524936195
0.01524736702
0.01524541237
0.01524349719
0.01524162068
0.01523978205
0.01523798056
0.01523621545
0.01523448599
0.01523279146
0.01523113115
0.01522950438
0.01522791048
0.01522634877
0.01522481861
0.01522331937
0.01522185041
0.01522041114
0.01521900095
0.01521761926
0.01521626549
0.01521493908
0.01521363947
0.01521236614
0.01521111854
0.01520989616
0.01520869849
0.01520752503
0.01520637529
0.0152052488
0.01520414509
0.01520306369
0.01520200416
0.01520096605
0.01519994893
0.01519895239
0.01519797599
0.01519701934
0.01519608203
0.01519516367
0.01519426389
0.0151933823
0.01519251853
0.01519167223
0.01519084303
0.0151900306
0.01518923459
0.01518845467
0.0151876905
0.01518694178
0.01518620819
0.01518548942
0.01518478517
0.01518409515
0.01518341908
0.01518275667
0.01518210764
0.01518147174
0.0151808487
0.01518023827
0.0151796402
0.01517905426
0.0151784802
0.01517791781
0.01517736685
0.01517682713
0.01517629843
0.01517578056
0.01517527331
0.01517477651
0.01517428998
0.01517381354
0.01517334703
0.01517289029
0.01517244316
0.0151720055
0.01517157718
0.01517115804
0.01517074797
0.01517034684
0.01516995454
0.01516957094
0.01516919595
0.01516882946
0.01516847137
0.01516812158
0.01516778001
0.01516744656
0.01516712115
0.01516680371
0.01516649414
0.01516619237
0.01516589833
0.01516561195
0.01516533314
0.01516506184
0.01516479798
0.01516454147
0.01516429226
0.01516405027
0.01516381542
0.01516358765
0.01516336686
0.015163153
0.01516294597
0.0151627457
0.01516255209
0.01516236508
0.01516218456
0.01516201044
0.01516184263
0.01516168103
0.01516152554
0.01516137606
0.01516123248
0.0151610947
0.01516096259
0.01516083605
0.01516071496
0.01516059919
0.01516048864
0.01516038316
0.01516028264
0.01516018695
0.01516009596
0.01516000953
0.01515992754
0.01515984986
0.01515977634
0.01515970685
0.01515964126
0.01515957944
0.01515952124
0.01515946654
0.0151594152
0.01515936708
0.01515932207
0.01515928001
0.01515924079
0.01515920427
0.01515917034
0.01515913886
0.01515910973
0.0151590828
0.01515905799
0.01515903516
0.01515901422
0.01515899504
0.01515897755
0.01515896161
0.01515894716
0.01515893407
0.01515892229
0.0151589117
0.01515890225
0.01515889383
0.01515888639
0.01515887983
0.01515887412
0.01515886915
0.01515886491
0.01515886129
0.01515885829
0.0151588558
0.01515885384
0.01515885228
0.01515885118
0.01515885041
0.01515885
0.01515884987
0.01515885001
0.01515885042
0.01515885099
0.01515885189
0.01515885275
0.01515885417
0.01515885514
0.01515885731
0.01515885789
0.01515886138
0.01515885749
0.01515885749
0.01515885749
1
0.344883649
0.2006672451
0.1549666288
0.131893866
0.1175978185
0.1077670836
0.1005571193
0.09502405148
0.0906280983
0.08703689954
0.08403490113
0.08147678824
0.07926154485
0.07731711033
0.07559088807
0.07404367174
0.0726456549
0.07137375282
0.07020977251
0.06913914172
0.06815001297
0.06723262249
0.0663788249
0.06558175055
0.06483554947
0.06413519723
0.06347634579
0.06285520715
0.06226846152
0.06171318398
0.06118678511
0.06068696257
0.06021166117
0.05975903962
0.05932744279
0.05891537815
0.05852149594
0.05814457217
0.05778349398
0.05743724717
0.05710490527
0.05678562014
0.05647861373
0.05618317089
0.05589863302
0.05562439257
0.05535988807
0.05510459982
0.05485804602
0.05461977934
0.05438938385
0.05416647231
0.05395068368
0.05374168092
0.05353914904
0.05334279328
0.0531523375
0.05296752274
0.05278810585
0.05261385832
0.05244456519
0.05228002402
0.05212004398
0.05196444505
0.05181305723
0.05166571984
0.0515222809
0.05138259649
0.05124653028
0.05111395295
0.0509847418
0.05085878026
0.05073595756
0.0506161683
0.05049931217
0.05038529358
0.05027402144
0.05016540881
0.0500593727
0.04995583386
0.04985471648
0.04975594805
0.04965945919
0.04956518339
0.04947305695
0.04938301873
0.04929501007
0.04920897465
0.04912485832
0.04904260905
0.04896217676
0.04888351326
0.04880657211
0.04873130857
0.04865767951
0.04858564331
0.04851515979
0.04844619015
0.0483786969
0.04831264379
0.04824799577
0.04818471891
0.04812278038
0.04806214836
0.04800279203
0.0479446815
0.04788778779
0.0478320828
0.04777753922
0.04772413057
0.04767183109
0.04762061579
0.04757046034
0.04752134112
0.04747323511
0.04742611996
0.04737997389
0.04733477569
0.04729050472
0.04724714086
0.04720466452
0.04716305659
0.04712229845
0.04708237194
0.04704325936
0.04700494341
0.04696740724
0.04693063439
0.04689460879
0.04685931477
0.04682473701
0.04679086053
0.04675767074
0.04672515335
0.04669329441
0.04666208029
0.04663149764
0.04660153345
0.04657217498
0.04654340975
0.0465152256
0.04648761061
0.04646055312
0.04643404173
0.04640806528
0.04638261286
0.04635767379
0.04633323762
0.04630929411
0.04628583326
0.04626284526
0.04624032053
0.04621824966
0.04619662346
0.04617543294
0.04615466927
0.04613432383
0.04611438816
0.04609485399
0.04607571321
0.04605695789
0.04603858024
0.04602057265
0.04600292767
0.04598563798
0.04596869643
0.04595209601
0.04593582985
0.04591989123
0.04590427355
0.04588897036
0.04587397533
0.04585928226
0.04584488509
0.04583077786
0.04581695475
0.04580341003
0.04579013813
0.04577713356
0.04576439094
0.04575190501
0.04573967061
0.0457276827
0.04571593631
0.0457044266
0.04569314882
0.04568209829
0.04567127046
0.04566066085
0.04565026508
0.04564007885
0.04563009796
0.04562031827
0.04561073575
0.04560134643
0.04559214642
0.04558313194
0.04557429924
0.04556564467
0.04555716465
0.04554885568
0.04554071432
0.04553273718
0.04552492099
0.04551726248
0.04550975851
0.04550240595
0.04549520176
0.04548814296
0.04548122662
0.04547444987
0.04546780991
0.04546130398
0.04545492939
0.04544868349
0.04544256369
0.04543656745
0.04543069228
0.04542493575
0.04541929546
0.04541376908
0.04540835431
0.04540304889
0.04539785064
0.04539275739
0.04538776702
0.04538287745
0.04537808667
0.04537339267
0.04536879351
0.04536428728
0.0453598721
0.04535554613
0.04535130758
0.04534715469
0.04534308572
0.04533909899
0.04533519284
0.04533136565
0.04532761581
0.04532394178
0.04532034202
0.04531681504
0.04531335936
0.04530997355
0.0453066562
0.04530340593
0.04530022138
0.04529710123
0.04529404417
0.04529104894
0.04528811428
0.04528523896
0.0452824218
0.0452796616
0.04527695722
0.04527430753
0.04527171142
0.0452691678
0.04526667561
0.0452642338
0.04526184136
0.04525949728
0.04525720058
0.0452549503
0.0452527455
0.04525058526
0.04524846867
0.04524639486
0.04524436296
0.04524237213
0.04524042156
0.04523851043
0.04523663796
0.04523480339
0.04523300598
0.045231245
0.04522951975
0.04522782955
0.04522617373
0.04522455165
0.04522296269
0.04522140624
0.04521988172
0.04521838857
0.04521692625
0.04521549423
0.04521409201
0.04521271911
0.04521137506
0.04521005942
0.04520877175
0.04520751165
0.04520627873
0.04520507261
0.04520389293
0.04520273935
0.04520161153
0.04520050917
0.04519943195
0.0451983796
0.04519735183
0.04519634837
0.04519536896
0.04519441337
0.04519348134
0.04519257264
0.04519168704
0.04519082432
0.04518998425
0.04518916662
0.04518837122
0.04518759782
0.04518684622
0.04518611618
0.04518540751
0.04518471997
0.04518405334
0.04518340739
0.04518278188
0.04518217658
0.04518159123
0.04518102558
0.04518047938
0.04517995234
0.04517944419
0.04517895465
0.04517848341
0.04517803018
0.04517759465
0.04517717648
0.04517677536
0.04517639095
0.04517602289
0.04517567085
0.04517533445
0.04517501334
0.04517470714
0.04517441548
0.04517413797
0.04517387422
0.04517362384
0.04517338644
0.04517316162
0.04517294899
0.04517274814
0.04517255867
0.04517238017
0.04517221227
0.04517205454
0.0451719066
0.04517176804
0.04517163849
0.04517151756
0.04517140486
0.04517130002
0.04517120267
0.04517111244
0.045171029
0.04517095196
0.04517088103
0.04517081583
0.04517075608
0.04517070144
0.04517065164
0.04517060633
0.04517056531
0.04517052822
0.04517049488
0.04517046497
0.04517043832
0.04517041462
0.04517039376
0.0451703754
0.04517035948
0.04517034568
0.04517033397
0.04517032401
0.04517031585
0.04517030912
0.0451703039
0.04517029985
0.04517029707
0.04517029523
0.04517029443
0.04517029441
0.04517029518
0.04517029669
0.04517029866
0.04517030154
0.04517030434
0.04517030868
0.04517031181
0.04517031819
0.04517032033
0.04517033022
0.04517032061
0.04517032061
0.04517032061
1
0.5187651865
0.3274011942
0.2553467803
0.2178477668
0.1944026522
0.1782107407
0.1663061335
0.1571570562
0.1498824522
0.1439375543
0.1389678776
0.134733791
0.1310683317
0.1278521707
0.1249980797
0.1224409651
0.1201313025
0.1180307201
0.1161089732
0.1143418392
0.1127096308
0.1111961299
0.1097878139
0.108473284
0.107242839
0.1060881512
0.1050020177
0.1039781663
0.1030111024
0.102095987
0.1012285374
0.1004049472
0.09962181919
0.09887611083
0.09816508755
0.09748628401
0.09683747104
0.09621662748
0.09562191598
0.09505166223
0.09450433699
0.09397854041
0.09347298847
0.09298650101
0.09251799134
0.09206645703
0.09163097175
0.09121067816
0.09080478147
0.09041254379
0.09003327907
0.08966634859
0.0893111569
0.08896714814
0.08863380285
0.08831063491
0.08799718898
0.087693038
0.08739778105
0.08711104134
0.0868324644
0.08656171646
0.08629848289
0.08604246687
0.08579338812
0.08555098173
0.08531499711
0.08508519704
0.08486135671
0.08464326297
0.08443071352
0.0842235162
0.0840214884
0.08382445637
0.08363225474
0.08344472597
0.08326171986
0.08308309313
0.08290870899
0.08273843677
0.08257215153
0.08240973378
0.0822510691
0.08209604792
0.0819445652
0.0817965202
0.08165181624
0.08151036047
0.08137206368
0.08123684008
0.08110460715
0.08097528546
0.08084879849
0.08072507253
0.08060403647
0.08048562172
0.08036976209
0.08025639364
0.08014545458
0.08003688521
0.07993062775
0.07982662631
0.07972482679
0.07962517676
0.07952762545
0.07943212362
0.07933862355
0.0792470789
0.07915744472
0.07906967736
0.07898373444
0.07889957474
0.07881715822
0.07873644597
0.07865740009
0.07857998375
0.07850416108
0.07842989718
0.07835715804
0.07828591054
0.07821612241
0.07814776221
0.07808079926
0.07801520368
0.07795094629
0.07788799866
0.07782633303
0.07776592231
0.07770674006
0.07764876046
0.07759195829
0.07753630894
0.07748178835
0.07742837303
0.07737604002
0.07732476687
0.07727453165
0.07722531292
0.07717708971
0.07712984154
0.07708354835
0.07703819055
0.07699374895
0.0769502048
0.07690753975
0.07686573584
0.07682477551
0.07678464156
0.07674531716
0.07670678586
0.07666903153
0.07663203839
0.076595791
0.07656027423
0.07652547329
0.07649137367
0.07645796119
0.07642522194
0.07639314232
0.076361709
0.07633090893
0.07630072932
0.07627115765
0.07624218167
0.07621378935
0.07618596894
0.07615870891
0.07613199797
0.07610582507
0.07608017936
0.07605505023
0.0760304273
0.07600630037
0.07598265946
0.0759594948
0.0759367968
0.07591455608
0.07589276346
0.0758714099
0.0758504866
0.07582998489
0.07580989631
0.07579021255
0.07577092546
0.07575202709
0.07573350961
0.07571536537
0.07569758688
0.07568016676
0.07566309784
0.07564637303
0.07562998544
0.07561392828
0.0755981949
0.0755827788
0.07556767361
0.07555287307
0.07553837105
0.07552416156
0.0755102387
0.07549659673
0.07548322998
0.07547013293
0.07545730015
0.07544472632
0.07543240623
0.07542033478
0.07540850696
0.07539691788
0.07538556272
0.07537443678