# vtk DataFile Version 2.0
FlowField
ASCII
DATASET STRUCTURED_GRID
DIMENSIONS 400 1 200
POINTS 80000 float
0 0 0
0.08 0 0
0.16 0 0
0.24 0 0
0.32 0 0
0.4 0 0
0.48 0 0
0.56 0 0
0.64 0 0
0.72 0 0
0.8 0 0
0.88 0 0
0.96 0 0
1.04 0 0
1.12 0 0
1.2 0 0
1.28 0 0
1.36 0 0
1.44 0 0
1.52 0 0
1.6 0 0
1.68 0 0
1.76 0 0
1.84 0 0
1.92 0 0
2 0 0
2.08 0 0
2.16 0 0
2.24 0 0
2.32 0 0
2.4 0 0
2.48 0 0
2.56 0 0
2.64 0 0
2.72 0 0
2.8 0 0
2.88 0 0
2.96 0 0
3.04 0 0
3.12 0 0
3.2 0 0
3.28 0 0
3.36 0 0
3.44 0 0
3.52 0 0
3.6 0 0
3.68 0 0
3.76 0 0
3.84 0 0
3.92 0 0
4 0 0
4.08 0 0
4.16 0 0
4.24 0 0
4.32 0 0
4.4 0 0
4.48 0 0
4.56 0 0
4.64 0 0
4.72 0 0
4.8 0 0
4.88 0 0
4.96 0 0
5.04 0 0
5.12 0 0
5.2 0 0
5.28 0 0
5.36 0 0
5.44 0 0
5.52 0 0
5.6 0 0
5.68 0 0
5.76 0 0
5.84 0 0
5.92 0 0
6 0 0
6.08 0 0
6.16 0 0
6.24 0 0
6.32 0 0
6.4 0 0
6.48 0 0
6.56 0 0
6.64 0 0
6.72 0 0
6.8 0 0
6.88 0 0
6.96 0 0
7.04 0 0
7.12 0 0
7.2 0 0
7.28 0 0
7.36 0 0
7.44 0 0
7.52 0 0
7.6 0 0
7.68 0 0
7.76 0 0
7.84 0 0
7.92 0 0
8 0 0
8.08 0 0
8.16 0 0
8.24 0 0
8.32 0 0
8.4 0 0
8.48 0 0
8.56 0 0
8.64 0 0
8.72 0 0
8.8 0 0
8.88 0 0
8.96 0 0
9.04 0 0
9.12 0 0
9.2 0 0
9.28 0 0
9.36 0 0
9.44 0 0
9.52 0 0
9.6 0 0
9.68 0 0
9.76 0 0
9.84 0 0
9.92 0 0
10 0 0
10.08 0 0
10.16 0 0
10.24 0 0
10.32 0 0
10.4 0 0
10.48 0 0
10.56 0 0
10.64 0 0
10.72 0 0
10.8 0 0
10.88 0 0
10.96 0 0
11.04 0 0
11.12 0 0
11.2 0 0
11.28 0 0
11.36 0 0
11.44 0 0
11.52 0 0
11.6 0 0
11.68 0 0
11.76 0 0
11.84 0 0
11.92 0 0
12 0 0
12.08 0 0
12.16 0 0
12.24 0 0
12.32 0 0
12.4 0 0
12.48 0 0
12.56 0 0
12.64 0 0
12.72 0 0
12.8 0 0
12.88 0 0
12.96 0 0
13.04 0 0
13.12 0 0
13.2 0 0
13.28 0 0
13.36 0 0
13.44 0 0
13.52 0 0
13.6 0 0
13.68 0 0
13.76 0 0
13.84 0 0
13.92 0 0
14 0 0
14.08 0 0
14.16 0 0
14.24 0 0
14.32 0 0
14.4 0 0
14.48 0 0
14.56 0 0
14.64 0 0
14.72 0 0
14.8 0 0
14.88 0 0
14.96 0 0
15.04 0 0
15.12 0 0
15.2 0 0
15.28 0 0
15.36 0 0
15.44 0 0
15.52 0 0
15.6 0 0
15.68 0 0
15.76 0 0
15.84 0 0
15.92 0 0
16 0 0
16.08 0 0
16.16 0 0
16.24 0 0
16.32 0 0
16.4 0 0
16.48 0 0
16.56 0 0
16.64 0 0
16.72 0 0
16.8 0 0
16.88 0 0
16.96 0 0
17.04 0 0
17.12 0 0
17.2 0 0
17.28 0 0
17.36 0 0
17.44 0 0
17.52 0 0
17.6 0 0
17.68 0 0
17.76 0 0
17.84 0 0
17.92 0 0
18 0 0
18.08 0 0
18.16 0 0
18.24 0 0
18.32 0 0
18.4 0 0
18.48 0 0
18.56 0 0
18.64 0 0
18.72 0 0
18.8 0 0
18.88 0 0
18.96 0 0
19.04 0 0
19.12 0 0
19.2 0 0
19.28 0 0
19.36 0 0
19.44 0 0
19.52 0 0
19.6 0 0
19.68 0 0
19.76 0 0
19.84 0 0
19.92 0 0
20 0 0
20.08 0 0
20.16 0 0
20.24 0 0
20.32 0 0
20.4 0 0
20.48 0 0
20.56 0 0
20.64 0 0
20.72 0 0
20.8 0 0
20.88 0 0
20.96 0 0
21.04 0 0
21.12 0 0
21.2 0 0
21.28 0 0
21.36 0 0
21.44 0 0
21.52 0 0
21.6 0 0
21.68 0 0
21.76 0 0
21.84 0 0
21.92 0 0
22 0 0
22.08 0 0
22.16 0 0
22.24 0 0
22.32 0 0
22.4 0 0
22.48 0 0
22.56 0 0
22.64 0 0
22.72 0 0
22.8 0 0
22.88 0 0
22.96 0 0
23.04 0 0
23.12 0 0
23.2 0 0
23.28 0 0
23.36 0 0
23.44 0 0
23.52 0 0
23.6 0 0
23.68 0 0
23.76 0 0
23.84 0 0
23.92 0 0
24 0 0
24.08 0 0
24.16 0 0
24.24 0 0
24.32 0 0
24.4 0 0
24.48 0 0
24.56 0 0
24.64 0 0
24.72 0 0
24.8 0 0
24.88 0 0
24.96 0 0
25.04 0 0
25.12 0 0
25.2 0 0
25.28 0 0
25.36 0 0
25.44 0 0
25.52 0 0
25.6 0 0
25.68 0 0
25.76 0 0
25.84 0 0
25.92 0 0
26 0 0
26.08 0 0
26.16 0 0
26.24 0 0
26.32 0 0
26.4 0 0
26.48 0 0
26.56 0 0
26.64 0 0
26.72 0 0
26.8 0 0
26.88 0 0
26.96 0 0
27.04 0 0
27.12 0 0
27.2 0 0
27.28 0 0
27.36 0 0
27.44 0 0
27.52 0 0
27.6 0 0
27.68 0 0
27.76 0 0
27.84 0 0
27.92 0 0
28 0 0
28.08 0 0
28.16 0 0
28.24 0 0
28.32 0 0
28.4 0 0
28.48 0 0
28.56 0 0
28.64 0 0
28.72 0 0
28.8 0 0
28.88 0 0
28.96 0 0
29.04 0 0
29.12 0 0
29.2 0 0
29.28 0 0
29.36 0 0
29.44 0 0
29.52 0 0
29.6 0 0
29.68 0 0
29.76 0 0
29.84 0 0
29.92 0 0
30 0 0
30.08 0 0
30.16 0 0
30.24 0 0
30.32 0 0
30.4 0 0
30.48 0 0
30.56 0 0
30.64 0 0
30.72 0 0
30.8 0 0
30.88 0 0
30.96 0 0
31.04 0 0
31.12 0 0
31.2 0 0
31.28 0 0
31.36 0 0
31.44 0 0
31.52 0 0
31.6 0 0
31.68 0 0
31.76 0 0
31.84 0 0
31.92 0 0
0 0.005 0
0.08 0.005 0
0.16 0.005 0
0.24 0.005 0
0.32 0.005 0
0.4 0.005 0
0.48 0.005 0
0.56 0.005 0
0.64 0.005 0
0.72 0.005 0
0.8 0.005 0
0.88 0.005 0
0.96 0.005 0
1.04 0.005 0
1.12 0.005 0
1.2 0.005 0
1.28 0.005 0
1.36 0.005 0
1.44 0.005 0
1.52 0.005 0
1.6 0.005 0
1.68 0.005 0
1.76 0.005 0
1.84 0.005 0
1.92 0.005 0
2 0.005 0
2.08 0.005 0
2.16 0.005 0
2.24 0.005 0
2.32 0.005 0
2.4 0.005 0
2.48 0.005 0
2.56 0.005 0
2.64 0.005 0
2.72 0.005 0
2.8 0.005 0
2.88 0.005 0
2.96 0.005 0
3.04 0.005 0
3.12 0.005 0
3.2 0.005 0
3.28 0.005 0
3.36 0.005 0
3.44 0.005 0
3.52 0.005 0
3.6 0.005 0
3.68 0.005 0
3.76 0.005 0
3.84 0.005 0
3.92 0.005 0
4 0.005 0
4.08 0.005 0
4.16 0.005 0
4.24 0.005 0
4.32 0.005 0
4.4 0.005 0
4.48 0.005 0
4.56 0.005 0
4.64 0.005 0
4.72 0.005 0
4.8 0.005 0
4.88 0.005 0
4.96 0.005 0
5.04 0.005 0
5.12 0.005 0
5.2 0.005 0
5.28 0.005 0
5.36 0.005 0
5.44 0.005 0
5.52 0.005 0
5.6 0.005 0
5.68 0.005 0
5.76 0.005 0
5.84 0.005 0
5.92 0.005 0
6 0.005 0
6.08 0.005 0
6.16 0.005 0
6.24 0.005 0
6.32 0.005 0
6.4 0.005 0
6.48 0.005 0
6.56 0.005 0
6.64 0.005 0
6.72 0.005 0
6.8 0.005 0
6.88 0.005 0
6.96 0.005 0
7.04 0.005 0
7.12 0.005 0
7.2 0.005 0
7.28 0.005 0
7.36 0.005 0
7.44 0.005 0
7.52 0.005 0
7.6 0.005 0
7.68 0.005 0
7.76 0.005 0
7.84 0.005 0
7.92 0.005 0
8 0.005 0
8.08 0.005 0
8.16 0.005 0
8.24 0.005 0
8.32 0.005 0
8.4 0.005 0
8.48 0.005 0
8.56 0.005 0
8.64 0.005 0
8.72 0.005 0
8.8 0.005 0
8.88 0.005 0
8.96 0.005 0
9.04 0.005 0
9.12 0.005 0
9.2 0.005 0
9.28 0.005 0
9.36 0.005 0
9.44 0.005 0
9.52 0.005 0
9.6 0.005 0
9.68 0.005 0
9.76 0.005 0
9.84 0.005 0
9.92 0.005 0
10 0.005 0
10.08 0.005 0
10.16 0.005 0
10.24 0.005 0
10.32 0.005 0
10.4 0.005 0
10.48 0.005 0
10.56 0.005 0
10.64 0.005 0
10.72 0.005 0
10.8 0.005 0
10.88 0.005 0
10.96 0.005 0
11.04 0.005 0
11.12 0.005 0
11.2 0.005 0
11.28 0.005 0
11.36 0.005 0
11.44 0.005 0
11.52 0.005 0
11.6 0.005 0
11.68 0.005 0
11.76 0.005 0
11.84 0.005 0
11.92 0.005 0
12 0.005 0
12.08 0.005 0
12.16 0.005 0
12.24 0.005 0
12.32 0.005 0
12.4 0.005 0
12.48 0.005 0
12.56 0.005 0
12.64 0.005 0
12.72 0.005 0
12.8 0.005 0
12.88 0.005 0
12.96 0.005 0
13.04 0.005 0
13.12 0.005 0
13.2 0.005 0
13.28 0.005 0
13.36 0.005 0
13.44 0.005 0
13.52 0.005 0
13.6 0.005 0
13.68 0.005 0
13.76 0.005 0
13.84 0.005 0
13.92 0.005 0
14 0.005 0
14.08 0.005 0
14.16 0.005 0
14.24 0.005 0
14.32 0.005 0
14.4 0.005 0
14.48 0.005 0
14.56 0.005 0
14.64 0.005 0
14.72 0.005 0
14.8 0.005 0
14.88 0.005 0
14.96 0.005 0
15.04 0.005 0
15.12 0.005 0
15.2 0.005 0
15.28 0.005 0
15.36 0.005 0
15.44 0.005 0
15.52 0.005 0
15.6 0.005 0
15.68 0.005 0
15.76 0.005 0
15.84 0.005 0
15.92 0.005 0
16 0.005 0
16.08 0.005 0
16.16 0.005 0
16.24 0.005 0
16.32 0.005 0
16.4 0.005 0
16.48 0.005 0
16.56 0.005 0
16.64 0.005 0
16.72 0.005 0
16.8 0.005 0
16.88 0.005 0
16.96 0.005 0
17.04 0.005 0
17.12 0.005 0
17.2 0.005 0
17.28 0.005 0
17.36 0.005 0
17.44 0.005 0
17.52 0.005 0
17.6 0.005 0
17.68 0.005 0
17.76 0.005 0
17.84 0.005 0
17.92 0.005 0
18 0.005 0
18.08 0.005 0
18.16 0.005 0
18.24 0.005 0
18.32 0.005 0
18.4 0.005 0
18.48 0.005 0
18.56 0.005 0
18.64 0.005 0
18.72 0.005 0
18.8 0.005 0
18.88 0.005 0
18.96 0.005 0
19.04 0.005 0
19.12 0.005 0
19.2 0.005 0
19.28 0.005 0
19.36 0.005 0
19.44 0.005 0
19.52 0.005 0
19.6 0.005 0
19.68 0.005 0
19.76 0.005 0
19.84 0.005 0
19.92 0.005 0
20 0.005 0
20.08 0.005 0
20.16 0.005 0
20.24 0.005 0
20.32 0.005 0
20.4 0.005 0
20.48 0.005 0
20.56 0.005 0
20.64 0.005 0
20.72 0.005 0
20.8 0.005 0
20.88 0.005 0
20.96 0.005 0
21.04 0.005 0
21.12 0.005 0
21.2 0.005 0
21.28 0.005 0
21.36 0.005 0
21.44 0.005 0
21.52 0.005 0
21.6 0.005 0
21.68 0.005 0
21.76 0.005 0
21.84 0.005 0
21.92 0.005 0
22 0.005 0
22.08 0.005 0
22.16 0.005 0
22.24 0.005 0
22.32 0.005 0
22.4 0.005 0
22.48 0.005 0
22.56 0.005 0
22.64 0.005 0
22.72 0.005 0
22.8 0.005 0
22.88 0.005 0
22.96 0.005 0
23.04 0.005 0
23.12 0.005 0
23.2 0.005 0
23.28 0.005 0
23.36 0.005 0
23.44 0.005 0
23.52 0.005 0
23.6 0.005 0
23.68 0.005 0
23.76 0.005 0
23.84 0.005 0
23.92 0.005 0
24 0.005 0
24.08 0.005 0
24.16 0.005 0
24.24 0.005 0
24.32 0.005 0
24.4 0.005 0
24.48 0.005 0
24.56 0.005 0
24.64 0.005 0
24.72 0.005 0
24.8 0.005 0
24.88 0.005 0
24.96 0.005 0
25.04 0.005 0
25.12 0.005 0
25.2 0.005 0
25.28 0.005 0
25.36 0.005 0
25.44 0.005 0
25.52 0.005 0
25.6 0.005 0
25.68 0.005 0
25.76 0.005 0
25.84 0.005 0
25.92 0.005 0
26 0.005 0
26.08 0.005 0
26.16 0.005 0
26.24 0.005 0
26.32 0.005 0
26.4 0.005 0
26.48 0.005 0
26.56 0.005 0
26.64 0.005 0
26.72 0.005 0
26.8 0.005 0
26.88 0.005 0
26.96 0.005 0
27.04 0.005 0
27.12 0.005 0
27.2 0.005 0
27.28 0.005 0
27.36 0.005 0
27.44 0.005 0
27.52 0.005 0
27.6 0.005 0
27.68 0.005 0
27.76 0.005 0
27.84 0.005 0
27.92 0.005 0
28 0.005 0
28.08 0.005 0
28.16 0.005 0
28.24 0.005 0
28.32 0.005 0
28.4 0.005 0
28.48 0.005 0
28.56 0.005 0
28.64 0.005 0
28.72 0.005 0
28.8 0.005 0
28.88 0.005 0
28.96 0.005 0
29.04 0.005 0
29.12 0.005 0
29.2 0.005 0
29.28 0.005 0
29.36 0.005 0
29.44 0.005 0
29.52 0.005 0
29.6 0.005 0
29.68 0.005 0
29.76 0.005 0
29.84 0.005 0
29.92 0.005 0
30 0.005 0
30.08 0.005 0
30.16 0.005 0
30.24 0.005 0
30.32 0.005 0
30.4 0.005 0
30.48 0.005 0
30.56 0.005 0
30.64 0.005 0
30.72 0.005 0
30.8 0.005 0
30.88 0.005 0
30.96 0.005 0
31.04 0.005 0
31.12 0.005 0
31.2 0.005 0
31.28 0.005 0
31.36 0.005 0
31.44 0.005 0
31.52 0.005 0
31.6 0.005 0
31.68 0.005 0
31.76 0.005 0
31.84 0.005 0
31.92 0.005 0
0 0.01 0
0.08 0.01 0
0.16 0.01 0
0.24 0.01 0
0.32 0.01 0
0.4 0.01 0
0.48 0.01 0
0.56 0.01 0
0.64 0.01 0
0.72 0.01 0
0.8 0.01 0
0.88 0.01 0
0.96 0.01 0
1.04 0.01 0
1.12 0.01 0
1.2 0.01 0
1.28 0.01 0
1.36 0.01 0
1.44 0.01 0
1.52 0.01 0
1.6 0.01 0
1.68 0.01 0
1.76 0.01 0
1.84 0.01 0
1.92 0.01 0
2 0.01 0
2.08 0.01 0
2.16 0.01 0
2.24 0.01 0
2.32 0.01 0
2.4 0.01 0
2.48 0.01 0
2.56 0.01 0
2.64 0.01 0
2.72 0.01 0
2.8 0.01 0
2.88 0.01 0
2.96 0.01 0
3.04 0.01 0
3.12 0.01 0
3.2 0.01 0
3.28 0.01 0
3.36 0.01 0
3.44 0.01 0
3.52 0.01 0
3.6 0.01 0
3.68 0.01 0
3.76 0.01 0
3.84 0.01 0
3.92 0.01 0
4 0.01 0
4.08 0.01 0
4.16 0.01 0
4.24 0.01 0
4.32 0.01 0
4.4 0.01 0
4.48 0.01 0
4.56 0.01 0
4.64 0.01 0
4.72 0.01 0
4.8 0.01 0
4.88 0.01 0
4.96 0.01 0
5.04 0.01 0
5.12 0.01 0
[...]
POINT_DATA 80000

SCALARS u float 1
LOOKUP_TABLE default
0
-0.13166262
-0.0682691328
-0.0522958805
-0.04441973563
-0.03957661186
-0.03625950503
-0.0338324518
-0.03197246042
-0.03049577049
-0.02928969038
-0.0282813796
-0.02742187553
-0.02667722628
-0.02602326218
-0.025442371
-0.02492144022
-0.02445050895
-0.02402186561
-0.02362943299
-0.02326834218
-0.02293463286
-0.02262503925
-0.02233683499
-0.02206771901
-0.02181573033
-0.02157918353
-0.02135661906
-0.02114676459
-0.02094850443
-0.02076085507
-0.02058294544
-0.02041400072
-0.02025332903
-0.02010031029
-0.01995438693
-0.01981505602
-0.01968186267
-0.01955439432
-0.0194322758
-0.01931516508
-0.01920274965
-0.01909474337
-0.0189908838
-0.01889092975
-0.01879465907
-0.01870186671
-0.01861236307
-0.01852597264
-0.01844253286
-0.01836189289
-0.01828391255
-0.01820846114
-0.01813541662
-0.01806466502
-0.01799609998
-0.01792962227
-0.01786513908
-0.01780256326
-0.01774181266
-0.01768280988
-0.01762548217
-0.0175697615
-0.01751558414
-0.01746289014
-0.01741162256
-0.01736172717
-0.01731315247
-0.0172658501
-0.01721977498
-0.01717488512
-0.01713114086
-0.01708850421
-0.01704693849
-0.01700640883
-0.01696688294
-0.01692833188
-0.01689073028
-0.01685405589
-0.01681828907
-0.01678341272
-0.01674941289
-0.01671627992
-0.01668400933
-0.01665260161
-0.01662206084
-0.01659239256
-0.01656360179
-0.01653569213
-0.01650866622
-0.01648252676
-0.01645727722
-0.01643292127
-0.01640946084
-0.01638689366
-0.01636521153
-0.01634440051
-0.016324443
-0.01630532102
-0.01628701889
-0.01626952414
-0.01625282612
-0.016236913
-0.01622176885
-0.01620737231
-0.01619369769
-0.01618071807
-0.01616840895
-0.01615675085
-0.01614572948
-0.01613533353
-0.01612555101
-0.01611636583
-0.01610775616
-0.01609969525
-0.01609215436
-0.01608510654
-0.01607852965
-0.01607240755
-0.01606672883
-0.01606148391
-0.01605666146
-0.01605224559
-0.01604821483
-0.01604454314
-0.01604120259
-0.01603816671
-0.01603541345
-0.01603292686
-0.0160306971
-0.0160287189
-0.01602698902
-0.0160255034
-0.0160242549
-0.01602323184
-0.01602241778
-0.01602179223
-0.0160213321
-0.01602101339
-0.01602081274
-0.0160207087
-0.01602068249
-0.01602071824
-0.01602080291
-0.01602092598
-0.016021079
-0.01602125519
-0.01602144907
-0.0160216562
-0.01602187298
-0.01602209655
-0.01602232469
-0.01602255573
-0.01602278851
-0.01602302223
-0.01602325641
-0.0160234908
-0.01602372531
-0.01602395991
-0.01602419464
-0.01602442953
-0.01602466461
-0.0160248999
-0.0160251354
-0.01602537109
-0.01602560696
-0.01602584299
-0.01602607917
-0.01602631547
-0.01602655188
-0.01602678841
-0.01602702504
-0.01602726177
-0.01602749861
-0.01602773557
-0.01602797263
-0.01602820981
-0.0160284471
-0.01602868451
-0.01602892203
-0.01602915968
-0.01602939744
-0.01602963532
-0.01602987332
-0.01603011143
-0.01603034966
-0.01603058801
-0.01603082647
-0.01603106506
-0.01603130375
-0.01603154257
-0.0160317815
-0.01603202054
-0.0160322597
-0.01603249898
-0.01603273837
-0.01603297788
-0.01603321751
-0.01603345725
-0.0160336971
-0.01603393707
-0.01603417716
-0.01603441736
-0.01603465768
-0.01603489811
-0.01603513866
-0.01603537932
-0.0160356201
-0.01603586099
-0.016036102
-0.01603634312
-0.01603658436
-0.01603682571
-0.01603706718
-0.01603730876
-0.01603755045
-0.01603779227
-0.01603803419
-0.01603827623
-0.01603851839
-0.01603876066
-0.01603900304
-0.01603924554
-0.01603948815
-0.01603973088
-0.01603997373
-0.01604021669
-0.01604045976
-0.01604070295
-0.01604094625
-0.01604118967
-0.0160414332
-0.01604167685
-0.01604192061
-0.01604216448
-0.01604240847
-0.01604265258
-0.0160428968
-0.01604314114
-0.01604338559
-0.01604363015
-0.01604387484
-0.01604411963
-0.01604436454
-0.01604460957
-0.01604485471
-0.01604509997
-0.01604534534
-0.01604559082
-0.01604583643
-0.01604608214
-0.01604632797
-0.01604657392
-0.01604681999
-0.01604706616
-0.01604731246
-0.01604755887
-0.01604780539
-0.01604805203
-0.01604829879
-0.01604854566
-0.01604879265
-0.01604903975
-0.01604928697
-0.0160495343
-0.01604978175
-0.01605002932
-0.016050277
-0.0160505248
-0.01605077271
-0.01605102075
-0.01605126889
-0.01605151715
-0.01605176553
-0.01605201403
-0.01605226264
-0.01605251137
-0.01605276021
-0.01605300917
-0.01605325825
-0.01605350745
-0.01605375676
-0.01605400618
-0.01605425573
-0.01605450539
-0.01605475517
-0.01605500506
-0.01605525508
-0.01605550521
-0.01605575545
-0.01605600582
-0.0160562563
-0.01605650689
-0.01605675761
-0.01605700844
-0.01605725939
-0.01605751046
-0.01605776165
-0.01605801295
-0.01605826437
-0.01605851591
-0.01605876757
-0.01605901934
-0.01605927124
-0.01605952325
-0.01605977538
-0.01606002763
-0.01606027999
-0.01606053248
-0.01606078508
-0.0160610378
-0.01606129064
-0.0160615436
-0.01606179668
-0.01606204988
-0.01606230319
-0.01606255663
-0.01606281018
-0.01606306385
-0.01606331765
-0.01606357156
-0.01606382559
-0.01606407974
-0.01606433401
-0.0160645884
-0.01606484291
-0.01606509754
-0.01606535229
-0.01606560716
-0.01606586215
-0.01606611726
-0.01606637249
-0.01606662784
-0.01606688332
-0.0160671389
-0.01606739462
-0.01606765044
-0.01606790642
-0.01606816247
-0.01606841869
-0.01606867499
-0.01606893145
-0.01606918798
-0.0160694447
-0.01606970146
-0.01606995843
-0.01607021543
-0.01607047266
-0.01607072988
-0.01607098737
-0.01607124482
-0.01607150258
-0.01607176024
-0.01607201828
-0.01607227615
-0.01607253447
-0.01607279255
-0.01607305116
-0.01607330943
-0.01607356834
-0.01607382679
-0.01607408603
-0.01607434463
-0.01607460421
-0.01607486294
-0.0160751229
-0.01607538173
-0.01607564209
-0.01607590098
-0.01607616179
-0.01607642069
-0.01607668199
-0.01607694086
-0.01607720269
-0.01607746146
-0.01607772388
-0.0160779825
-0.01607824555
-0.01607850398
-0.01607876767
-0.01607902592
-0.01607929019
-0.0160795484
-0.01607981304
-0.01608007161
-0.01608033609
-0.01608059604
-0.01608085919
-0.01608112284
-0.01608138208
-0.01608165473
-0.01608190412
-0.01608219804
-0.01608242155
-0.01608276539
-0.01608290244
-0.01608335895
-0.01608291498
-0.01608291498
-0.01608291498
1
0.13166262
0.0682691328
0.0522958805
0.04441973563
0.03957661186
0.03625950503
0.0338324518
0.03197246042
0.03049577049
0.02928969038
0.0282813796
0.02742187553
0.02667722628
0.02602326218
0.025442371
0.02492144022
0.02445050895
0.02402186561
0.02362943299
0.02326834218
0.02293463286
0.02262503925
0.02233683499
0.02206771901
0.02181573033
0.02157918353
0.02135661906
0.02114676459
0.02094850443
0.02076085507
0.02058294544
0.02041400072
0.02025332903
0.02010031029
0.01995438693
0.01981505602
0.01968186267
0.01955439432
0.0194322758
0.01931516508
0.01920274965
0.01909474337
0.0189908838
0.01889092975
0.01879465907
0.01870186671
0.01861236307
0.01852597264
0.01844253286
0.01836189289
0.01828391255
0.01820846114
0.01813541662
0.01806466502
0.01799609998
0.01792962227
0.01786513908
0.01780256326
0.01774181266
0.01768280988
0.01762548217
0.0175697615
0.01751558414
0.01746289014
0.01741162256
0.01736172717
0.01731315247
0.0172658501
0.01721977498
0.01717488512
0.01713114086
0.01708850421
0.01704693849
0.01700640883
0.01696688294
0.01692833188
0.01689073028
0.01685405589
0.01681828907
0.01678341272
0.01674941289
0.01671627992
0.01668400933
0.01665260161
0.01662206084
0.01659239256
0.01656360179
0.01653569213
0.01650866622
0.01648252676
0.01645727722
0.01643292127
0.01640946084
0.01638689366
0.01636521153
0.01634440051
0.016324443
0.01630532102
0.01628701889
0.01626952414
0.01625282612
0.016236913
0.01622176885
0.01620737231
0.01619369769
0.01618071807
0.01616840895
0.01615675085
0.01614572948
0.01613533353
0.01612555101
0.01611636583
0.01610775616
0.01609969525
0.01609215436
0.01608510654
0.01607852965
0.01607240755
0.01606672883
0.01606148391
0.01605666146
0.01605224559
0.01604821483
0.01604454314
0.01604120259
0.01603816671
0.01603541345
0.01603292686
0.0160306971
0.0160287189
0.01602698902
0.0160255034
0.0160242549
0.01602323184
0.01602241778
0.01602179223
0.0160213321
0.01602101339
0.01602081274
0.0160207087
0.01602068249
0.01602071824
0.01602080291
0.01602092598
0.016021079
0.01602125519
0.01602144907
0.0160216562
0.01602187298
0.01602209655
0.01602232469
0.01602255573
0.01602278851
0.01602302223
0.01602325641
0.0160234908
0.01602372531
0.01602395991
0.01602419464
0.01602442953
0.01602466461
0.0160248999
0.0160251354
0.01602537109
0.01602560696
0.01602584299
0.01602607917
0.01602631547
0.01602655188
0.01602678841
0.01602702504
0.01602726177
0.01602749861
0.01602773557
0.01602797263
0.01602820981
0.0160284471
0.01602868451
0.01602892203
0.01602915968
0.01602939744
0.01602963532
0.01602987332
0.01603011143
0.01603034966
0.01603058801
0.01603082647
0.01603106506
0.01603130375
0.01603154257
0.0160317815
0.01603202054
0.0160322597
0.01603249898
0.01603273837
0.01603297788
0.01603321751
0.01603345725
0.0160336971
0.01603393707
0.01603417716
0.01603441736
0.01603465768
0.01603489811
0.01603513866
0.01603537932
0.0160356201
0.01603586099
0.016036102
0.01603634312
0.01603658436
0.01603682571
0.01603706718
0.01603730876
0.01603755045
0.01603779227
0.01603803419
0.01603827623
0.01603851839
0.01603876066
0.01603900304
0.01603924554
0.01603948815
0.01603973088
0.01603997373
0.01604021669
0.01604045976
0.01604070295
0.01604094625
0.01604118967
0.0160414332
0.01604167685
0.01604192061
0.01604216448
0.01604240847
0.01604265258
0.0160428968
0.01604314114
0.01604338559
0.01604363015
0.01604387484
0.01604411963
0.01604436454
0.01604460957
0.01604485471
0.01604509997
0.01604534534
0.01604559082
0.01604583643
0.01604608214
0.01604632797
0.01604657392
0.01604681999
0.01604706616
0.01604731246
0.01604755887
0.01604780539
0.01604805203
0.01604829879
0.01604854566
0.01604879265
0.01604903975
0.01604928697
0.0160495343
0.01604978175
0.01605002932
0.016050277
0.0160505248
0.01605077271
0.01605102075
0.01605126889
0.01605151715
0.01605176553
0.01605201403
0.01605226264
0.01605251137
0.01605276021
0.01605300917
0.01605325825
0.01605350745
0.01605375676
0.01605400618
0.01605425573
0.01605450539
0.01605475517
0.01605500506
0.01605525508
0.01605550521
0.01605575545
0.01605600582
0.0160562563
0.01605650689
0.01605675761
0.01605700844
0.01605725939
0.01605751046
0.01605776165
0.01605801295
0.01605826437
0.01605851591
0.01605876757
0.01605901934
0.01605927124
0.01605952325
0.01605977538
0.01606002763
0.01606027999
0.01606053248
0.01606078508
0.0160610378
0.01606129064
0.0160615436
0.01606179668
0.01606204988
0.01606230319
0.01606255663
0.01606281018
0.01606306385
0.01606331765
0.01606357156
0.01606382559
0.01606407974
0.01606433401
0.0160645884
0.01606484291
0.01606509754
0.01606535229
0.01606560716
0.01606586215
0.01606611726
0.01606637249
0.01606662784
0.01606688332
0.0160671389
0.01606739462
0.01606765044
0.01606790642
0.01606816247
0.01606841869
0.01606867499
0.01606893145
0.01606918798
0.0160694447
0.01606970146
0.01606995843
0.01607021543
0.01607047266
0.01607072988
0.01607098737
0.01607124482
0.01607150258
0.01607176024
0.01607201828
0.01607227615
0.01607253447
0.01607279255
0.01607305116
0.01607330943
0.01607356834
0.01607382679
0.01607408603
0.01607434463
0.01607460421
0.01607486294
0.0160751229
0.01607538173
0.01607564209
0.01607590098
0.01607616179
0.01607642069
0.01607668199
0.01607694086
0.01607720269
0.01607746146
0.01607772388
0.0160779825
0.01607824555
0.01607850398
0.01607876767
0.01607902592
0.01607929019
0.0160795484
0.01607981304
0.01608007161
0.01608033609
0.01608059604
0.01608085919
0.01608112284
0.01608138208
0.01608165473
0.01608190412
0.01608219804
0.01608242155
0.01608276539
0.01608290244
0.01608335895
0.01608291498
0.01608291498
0.01608291498
1
0.3448837925
0.2006674845
0.1549669383
0.1318942336
0.1175982366
0.1077675472
0.1005576245
0.09502459513
0.09062867789
0.08703751287
0.08403554629
0.08147746352
0.07926224873
0.0773178414
0.07559164505
0.07404445345
0.0726464602
0.07137458067
0.07021062188
0.06914001165
0.0681509025
0.0672335307
0.06637975087
0.06558269338
0.06483650823
0.06413617102
0.0634773337
0.06285620824
0.06226947485
0.06171420854
0.06118781989
0.06068800654
0.06021271331
0.05976009887
0.05932850797
0.05891644802
0.05852256926
0.05814564772
0.05778457061
0.05743832362
0.05710598008
0.05678669172
0.05647968056
0.05618423168
0.05589968662
0.05562543772
0.05536092317
0.05510562307
0.05485905578
0.0546207745
0.05439036383
0.05416743656
0.05395163128
0.05374261057
0.05354005961
0.05334368459
0.0531532106
0.05296837942
0.05278894785
0.0526146869
0.05244538163
0.05228083083
0.052120846
0.05196524956
0.05181387303
0.05166655614
0.05152314717
0.05138350377
0.05124749335
0.05111499213
0.05098588317
0.05086005458
0.05073739909
0.05061781535
0.05050121026
0.0503875008
0.05027661427
0.05016848716
0.0500630639
0.04996029693
0.04986014866
0.04976259432
0.04966762375
0.04957524017
0.04948545582
0.04939828603
0.0493137441
0.04923183942
0.0491525787
0.04907596865
0.04900201717
0.04893073112
0.04886211074
0.04879614334
0.04873279962
0.04867203516
0.04861379687
0.04855803169
0.04850469316
0.04845374281
0.04840514552
0.04835886145
0.04831483881
0.04827301155
0.04823330334
0.04819563645
0.04815994125
0.04812616198
0.04809425608
0.04806418723
0.04803591551
0.04800938894
0.04798454028
0.04796129043
0.04793955695
0.04791926402
0.04790034985
0.04788276847
0.04786648552
0.04785146969
0.04783768339
0.04782507599
0.04781358216
0.04780312556
0.04779362664
0.04778501161
0.04777721988
0.04777020772
0.04776394733
0.04775842196
0.04775361871
0.04774952104
0.0477461029
0.04774332557
0.04774113762
0.04773947742
0.04773827733
0.04773746835
0.0477369844
0.04773676545
0.04773675934
0.04773692228
0.04773721843
0.04773761893
0.0477381006
0.04773864486
0.04773923669
0.04773986393
0.04774051684
0.04774118767
0.04774187046
0.0477425608
0.04774325557
0.04774395275
0.04774465112
0.04774535006
0.04774604932
0.04774674891
0.04774744888
0.04774814935
0.04774885039
0.04774955204
0.04775025428
0.04775095709
0.0477516604
0.04775236418
0.04775306836
0.04775377291
0.0477544778
0.04775518301
0.04775588854
0.04775659438
0.04775730055
0.04775800704
0.04775871386
0.04775942102
0.04776012853
0.04776083638
0.04776154458
0.04776225312
0.04776296202
0.04776367127
0.04776438086
0.0477650908
0.04776580108
0.04776651171
0.04776722269
0.04776793401
0.04776864568
0.04776935769
0.04777007004
0.04777078274
0.04777149578
0.04777220917
0.04777292289
0.04777363696
0.04777435138
0.04777506613
0.04777578123
0.04777649667
0.04777721245
0.04777792857
0.04777864503
0.04777936183
0.04778007898
0.04778079646
0.04778151429
0.04778223245
0.04778295096
0.0477836698
0.04778438899
0.04778510851
0.04778582838
0.04778654858
0.04778726913
0.04778799001
0.04778871124
0.0477894328
0.04779015471
0.04779087695
0.04779159953
0.04779232245
0.04779304571
0.04779376932
0.04779449326
0.04779521754
0.04779594216
0.04779666712
0.04779739242
0.04779811806
0.04779884403
0.04779957035
0.04780029701
0.04780102401
0.04780175135
0.04780247903
0.04780320705
0.0478039354
0.0478046641
0.04780539314
0.04780612252
0.04780685224
0.0478075823
0.0478083127
0.04780904344
0.04780977452
0.04781050595
0.04781123771
0.04781196982
0.04781270226
0.04781343505
0.04781416818
0.04781490165
0.04781563546
0.04781636961
0.04781710411
0.04781783895
0.04781857412
0.04781930965
0.04782004551
0.04782078171
0.04782151826
0.04782225515
0.04782299239
0.04782372996
0.04782446788
0.04782520615
0.04782594475
0.0478266837
0.047827423
0.04782816264
0.04782890262
0.04782964294
0.04783038361
0.04783112463
0.04783186598
0.04783260769
0.04783334974
0.04783409213
0.04783483487
0.04783557795
0.04783632138
0.04783706516
0.04783780928
0.04783855375
0.04783929856
0.04784004372
0.04784078922
0.04784153508
0.04784228128
0.04784302782
0.04784377472
0.04784452196
0.04784526955
0.04784601749
0.04784676577
0.04784751441
0.04784826339
0.04784901272
0.0478497624
0.04785051243
0.04785126281
0.04785201353
0.04785276461
0.04785351604
0.04785426782
0.04785501994
0.04785577242
0.04785652525
0.04785727843
0.04785803196
0.04785878585
0.04785954008
0.04786029467
0.04786104961
0.0478618049
0.04786256054
0.04786331654
0.04786407289
0.04786482959
0.04786558665
0.04786634406
0.04786710183
0.04786785994
0.04786861843
0.04786937724
0.04787013644
0.04787089597
0.04787165588
0.04787241611
0.04787317674
0.04787393768
0.04787469903
0.04787546068
0.04787622275
0.04787698511
0.0478777479
0.04787851096
0.04787927449
0.04788003825
0.04788080251
0.04788156697
0.04788233198
0.04788309713
0.04788386288
0.04788462873
0.04788539524
0.04788616176
0.04788692905
0.04788769624
0.04788846431
0.04788923215
0.04789000102
0.04789076951
0.04789153921
0.0478923083
0.04789307886
0.04789384852
0.04789461998
0.04789539017
0.04789616257
0.04789693325
0.04789770665
0.04789847774
0.04789925222
0.04790002363
0.04790079927
0.04790157091
0.04790234782
0.04790311955
0.04790389785
0.04790466953
0.04790544936
0.04790622083
0.04790700232
0.04790777342
0.0479085567
0.04790932732
0.04791011241
0.04791088259
0.04791166933
0.04791243942
0.04791322726
0.04791399836
0.04791478589
0.04791556073
0.04791634481
0.0479171297
0.04791790349
0.0479187128
0.04791946055
0.04792032741
0.04792100651
0.04792200773
0.04792245618
0.04792375146
0.04792266667
0.04792266667
0.04792266667
1
0.5187653881
0.3274015463
0.255347247
0.2178483291
0.1944032982
0.1782114622
0.1663069242
0.157157911
0.1498833669
0.1439385254
0.1389689019
0.1347348656
0.1310694543
0.1278533388
0.1249992913
0.1224422182
0.1201325954
0.1180320509
0.1161103402
0.114343241
0.1127110656
0.1111975964
0.1097893104
0.1084748091
0.1072443912
0.106089729
0.1050036196
0.1039797907
0.1030127478
0.1020976516
0.1012302197
0.1004066453
0.0996235316
0.09887783569
0.09816682293
0.09748802785
0.09683922128
0.09621838214
0.0956236731
0.09505341971
0.09450609239
0.09398029115
0.09347473207
0.09298823535
0.09251971448
0.09206816682
0.09163266556
0.09121235308
0.09080643495
0.09041417411
0.09003488527
0.08966792976
0.08931271154
0.08896867434
0.08863529915
0.08831210149
0.08799862789
0.08769445249
0.08739917434
0.08711241616
0.08683382396
0.08656306635
0.08629983267
0.0860438301
0.08579478098
0.08555242157
0.0853165026
0.08508679047
0.08486306752
0.08464513036
0.08443278679
0.08422585331
0.08402415474
0.08382752651
0.08363581816
0.08344889594
0.08326664297
0.08308895748
0.08291575108
0.08274694925
0.08258249445
0.08242235028
0.0822665034
0.08211496086
0.0819677428
0.08182487308
0.08168637183
0.08155225294
0.08142252602
0.08129720022
0.08117628522
0.08105978709
0.08094769952
0.08083999464
0.08073661848
0.08063749445
0.08054253396
0.08045164954
0.08036476407
0.08028181167
0.08020272986
0.08012744721
0.08005587328
0.07998789637
0.07992339083
0.07986223101
0.07980430521
0.0797495232
0.07969781379
0.07964911337
0.07960335092
0.07956043603
0.07952025541
0.07948267943
0.07944757561
0.07941482366
0.07938432564
0.07935600736
0.07932981081
0.0793056807
0.07928355043
0.07926333286
0.07924491892
0.0792281844
0.07921300232
0.07919925656
0.0791868525
0.07917572157
0.07916581875
0.07915711439
0.07914958283
0.07914319114
0.07913789066
0.07913361293
0.07913027034
0.07912776059
0.07912597345
0.07912479806
0.07912412935
0.07912387261
0.07912394604
0.07912428126
0.07912482245
0.07912552469
0.07912635197
0.07912727539
0.07912827163
0.07912932189
0.07913041107
0.07913152731
0.07913266148
0.0791338069
0.0791349589
0.07913611444
0.07913727175
0.07913842994
0.07913958868
0.07914074797
0.07914190794
0.07914306874
0.07914423048
0.0791453932
0.07914655689
0.07914772148
0.0791488869
0.07915005305
0.07915121986
0.07915238727
0.07915355523
0.07915472372
0.07915589274
0.07915706229
0.07915823236
0.07915940298
0.07916057415
0.07916174588
0.07916291817
0.07916409104
0.07916526448
0.0791664385
0.07916761309
0.07916878826
0.079169964
0.07917114031
0.07917231719
0.07917349464
0.07917467266
0.07917585125
0.0791770304
0.07917821012
0.07917939041
0.07918057127
0.07918175269
0.07918293468
0.07918411723
0.07918530035
0.07918648403
0.07918766827
0.07918885308
0.07919003845
0.07919122439
0.07919241088
0.07919359794
0.07919478556
0.07919597374
0.07919716249
0.07919835179
0.07919954165
0.07920073208
0.07920192306
0.07920311461
0.07920430671