# vtk DataFile Version 2.0
FlowField
ASCII
DATASET STRUCTURED_GRID
DIMENSIONS 400 1 200
POINTS 80000 float
0 0 0
0.08 0 0
0.16 0 0
0.24 0 0
0.32 0 0
0.4 0 0
0.48 0 0
0.56 0 0
0.64 0 0
0.72 0 0
0.8 0 0
0.88 0 0
0.96 0 0
1.04 0 0
1.12 0 0
1.2 0 0
1.28 0 0
1.36 0 0
1.44 0 0
1.52 0 0
1.6 0 0
1.68 0 0
1.76 0 0
1.84 0 0
1.92 0 0
2 0 0
2.08 0 0
2.16 0 0
2.24 0 0
2.32 0 0
2.4 0 0
2.48 0 0
2.56 0 0
2.64 0 0
2.72 0 0
2.8 0 0
2.88 0 0
2.96 0 0
3.04 0 0
3.12 0 0
3.2 0 0
3.28 0 0
3.36 0 0
3.44 0 0
3.52 0 0
3.6 0 0
3.68 0 0
3.76 0 0
3.84 0 0
3.92 0 0
4 0 0
4.08 0 0
4.16 0 0
4.24 0 0
4.32 0 0
4.4 0 0
4.48 0 0
4.56 0 0
4.64 0 0
4.72 0 0
4.8 0 0
4.88 0 0
4.96 0 0
5.04 0 0
5.12 0 0
5.2 0 0
5.28 0 0
5.36 0 0
5.44 0 0
5.52 0 0
5.6 0 0
5.68 0 0
5.76 0 0
5.84 0 0
5.92 0 0
6 0 0
6.08 0 0
6.16 0 0
6.24 0 0
6.32 0 0
6.4 0 0
6.48 0 0
6.56 0 0
6.64 0 0
6.72 0 0
6.8 0 0
6.88 0 0
6.96 0 0
7.04 0 0
7.12 0 0
7.2 0 0
7.28 0 0
7.36 0 0
7.44 0 0
7.52 0 0
7.6 0 0
7.68 0 0
7.76 0 0
7.84 0 0
7.92 0 0
8 0 0
8.08 0 0
8.16 0 0
8.24 0 0
8.32 0 0
8.4 0 0
8.48 0 0
8.56 0 0
8.64 0 0
8.72 0 0
8.8 0 0
8.88 0 0
8.96 0 0
9.04 0 0
9.12 0 0
9.2 0 0
9.28 0 0
9.36 0 0
9.44 0 0
9.52 0 0
9.6 0 0
9.68 0 0
9.76 0 0
9.84 0 0
9.92 0 0
10 0 0
10.08 0 0
10.16 0 0
10.24 0 0
10.32 0 0
10.4 0 0
10.48 0 0
10.56 0 0
10.64 0 0
10.72 0 0
10.8 0 0
10.88 0 0
10.96 0 0
11.04 0 0
11.12 0 0
11.2 0 0
11.28 0 0
11.36 0 0
11.44 0 0
11.52 0 0
11.6 0 0
11.68 0 0
11.76 0 0
11.84 0 0
11.92 0 0
12 0 0
12.08 0 0
12.16 0 0
12.24 0 0
12.32 0 0
12.4 0 0
12.48 0 0
12.56 0 0
12.64 0 0
12.72 0 0
12.8 0 0
12.88 0 0
12.96 0 0
13.04 0 0
13.12 0 0
13.2 0 0
13.28 0 0
13.36 0 0
13.44 0 0
13.52 0 0
13.6 0 0
13.68 0 0
13.76 0 0
13.84 0 0
13.92 0 0
14 0 0
14.08 0 0
14.16 0 0
14.24 0 0
14.32 0 0
14.4 0 0
14.48 0 0
14.56 0 0
14.64 0 0
14.72 0 0
14.8 0 0
14.88 0 0
14.96 0 0
15.04 0 0
15.12 0 0
15.2 0 0
15.28 0 0
15.36 0 0
15.44 0 0
15.52 0 0
15.6 0 0
15.68 0 0
15.76 0 0
15.84 0 0
15.92 0 0
16 0 0
16.08 0 0
16.16 0 0
16.24 0 0
16.32 0 0
16.4 0 0
16.48 0 0
16.56 0 0
16.64 0 0
16.72 0 0
16.8 0 0
16.88 0 0
16.96 0 0
17.04 0 0
17.12 0 0
17.2 0 0
17.28 0 0
17.36 0 0
17.44 0 0
17.52 0 0
17.6 0 0
17.68 0 0
17.76 0 0
17.84 0 0
17.92 0 0
18 0 0
18.08 0 0
18.16 0 0
18.24 0 0
18.32 0 0
18.4 0 0
18.48 0 0
18.56 0 0
18.64 0 0
18.72 0 0
18.8 0 0
18.88 0 0
18.96 0 0
19.04 0 0
19.12 0 0
19.2 0 0
19.28 0 0
19.36 0 0
19.44 0 0
19.52 0 0
19.6 0 0
19.68 0 0
19.76 0 0
19.84 0 0
19.92 0 0
20 0 0
20.08 0 0
20.16 0 0
20.24 0 0
20.32 0 0
20.4 0 0
20.48 0 0
20.56 0 0
20.64 0 0
20.72 0 0
20.8 0 0
20.88 0 0
20.96 0 0
21.04 0 0
21.12 0 0
21.2 0 0
21.28 0 0
21.36 0 0
21.44 0 0
21.52 0 0
21.6 0 0
21.68 0 0
21.76 0 0
21.84 0 0
21.92 0 0
22 0 0
22.08 0 0
22.16 0 0
22.24 0 0
22.32 0 0
22.4 0 0
22.48 0 0
22.56 0 0
22.64 0 0
22.72 0 0
22.8 0 0
22.88 0 0
22.96 0 0
23.04 0 0
23.12 0 0
23.2 0 0
23.28 0 0
23.36 0 0
23.44 0 0
23.52 0 0
23.6 0 0
23.68 0 0
23.76 0 0
23.84 0 0
23.92 0 0
24 0 0
24.08 0 0
24.16 0 0
24.24 0 0
24.32 0 0
24.4 0 0
24.48 0 0
24.56 0 0
24.64 0 0
24.72 0 0
24.8 0 0
24.88 0 0
24.96 0 0
25.04 0 0
25.12 0 0
25.2 0 0
25.28 0 0
25.36 0 0
25.44 0 0
25.52 0 0
25.6 0 0
25.68 0 0
25.76 0 0
25.84 0 0
25.92 0 0
26 0 0
26.08 0 0
26.16 0 0
26.24 0 0
26.32 0 0
26.4 0 0
26.48 0 0
26.56 0 0
26.64 0 0
26.72 0 0
26.8 0 0
26.88 0 0
26.96 0 0
27.04 0 0
27.12 0 0
27.2 0 0
27.28 0 0
27.36 0 0
27.44 0 0
27.52 0 0
27.6 0 0
27.68 0 0
27.76 0 0
27.84 0 0
27.92 0 0
28 0 0
28.08 0 0
28.16 0 0
28.24 0 0
28.32 0 0
28.4 0 0
28.48 0 0
28.56 0 0
28.64 0 0
28.72 0 0
28.8 0 0
28.88 0 0
28.96 0 0
29.04 0 0
29.12 0 0
29.2 0 0
29.28 0 0
29.36 0 0
29.44 0 0
29.52 0 0
29.6 0 0
29.68 0 0
29.76 0 0
29.84 0 0
29.92 0 0
30 0 0
30.08 0 0
30.16 0 0
30.24 0 0
30.32 0 0
30.4 0 0
30.48 0 0
30.56 0 0
30.64 0 0
30.72 0 0
30.8 0 0
30.88 0 0
30.96 0 0
31.04 0 0
31.12 0 0
31.2 0 0
31.28 0 0
31.36 0 0
31.44 0 0
31.52 0 0
31.6 0 0
31.68 0 0
31.76 0 0
31.84 0 0
31.92 0 0
0 0.005 0
0.08 0.005 0
0.16 0.005 0
0.24 0.005 0
0.32 0.005 0
0.4 0.005 0
0.48 0.005 0
0.56 0.005 0
0.64 0.005 0
0.72 0.005 0
0.8 0.005 0
0.88 0.005 0
0.96 0.005 0
1.04 0.005 0
1.12 0.005 0
1.2 0.005 0
1.28 0.005 0
1.36 0.005 0
1.44 0.005 0
1.52 0.005 0
1.6 0.005 0
1.68 0.005 0
1.76 0.005 0
1.84 0.005 0
1.92 0.005 0
2 0.005 0
2.08 0.005 0
2.16 0.005 0
2.24 0.005 0
2.32 0.005 0
2.4 0.005 0
2.48 0.005 0
2.56 0.005 0
2.64 0.005 0
2.72 0.005 0
2.8 0.005 0
2.88 0.005 0
2.96 0.005 0
3.04 0.005 0
3.12 0.005 0
3.2 0.005 0
3.28 0.005 0
3.36 0.005 0
3.44 0.005 0
3.52 0.005 0
3.6 0.005 0
3.68 0.005 0
3.76 0.005 0
3.84 0.005 0
3.92 0.005 0
4 0.005 0
4.08 0.005 0
4.16 0.005 0
4.24 0.005 0
4.32 0.005 0
4.4 0.005 0
4.48 0.005 0
4.56 0.005 0
4.64 0.005 0
4.72 0.005 0
4.8 0.005 0
4.88 0.005 0
4.96 0.005 0
5.04 0.005 0
5.12 0.005 0
5.2 0.005 0
5.28 0.005 0
5.36 0.005 0
5.44 0.005 0
5.52 0.005 0
5.6 0.005 0
5.68 0.005 0
5.76 0.005 0
5.84 0.005 0
5.92 0.005 0
6 0.005 0
6.08 0.005 0
6.16 0.005 0
6.24 0.005 0
6.32 0.005 0
6.4 0.005 0
6.48 0.005 0
6.56 0.005 0
6.64 0.005 0
6.72 0.005 0
6.8 0.005 0
6.88 0.005 0
6.96 0.005 0
7.04 0.005 0
7.12 0.005 0
7.2 0.005 0
7.28 0.005 0
7.36 0.005 0
7.44 0.005 0
7.52 0.005 0
7.6 0.005 0
7.68 0.005 0
7.76 0.005 0
7.84 0.005 0
7.92 0.005 0
8 0.005 0
8.08 0.005 0
8.16 0.005 0
8.24 0.005 0
8.32 0.005 0
8.4 0.005 0
8.48 0.005 0
8.56 0.005 0
8.64 0.005 0
8.72 0.005 0
8.8 0.005 0
8.88 0.005 0
8.96 0.005 0
9.04 0.005 0
9.12 0.005 0
9.2 0.005 0
9.28 0.005 0
9.36 0.005 0
9.44 0.005 0
9.52 0.005 0
9.6 0.005 0
9.68 0.005 0
9.76 0.005 0
9.84 0.005 0
9.92 0.005 0
10 0.005 0
10.08 0.005 0
10.16 0.005 0
10.24 0.005 0
10.32 0.005 0
10.4 0.005 0
10.48 0.005 0
10.56 0.005 0
10.64 0.005 0
10.72 0.005 0
10.8 0.005 0
10.88 0.005 0
10.96 0.005 0
11.04 0.005 0
11.12 0.005 0
11.2 0.005 0
11.28 0.005 0
11.36 0.005 0
11.44 0.005 0
11.52 0.005 0
11.6 0.005 0
11.68 0.005 0
11.76 0.005 0
11.84 0.005 0
11.92 0.005 0
12 0.005 0
12.08 0.005 0
12.16 0.005 0
12.24 0.005 0
12.32 0.005 0
12.4 0.005 0
12.48 0.005 0
12.56 0.005 0
12.64 0.005 0
12.72 0.005 0
12.8 0.005 0
12.88 0.005 0
12.96 0.005 0
13.04 0.005 0
13.12 0.005 0
13.2 0.005 0
13.28 0.005 0
13.36 0.005 0
13.44 0.005 0
13.52 0.005 0
13.6 0.005 0
13.68 0.005 0
13.76 0.005 0
13.84 0.005 0
13.92 0.005 0
14 0.005 0
14.08 0.005 0
14.16 0.005 0
14.24 0.005 0
14.32 0.005 0
14.4 0.005 0
14.48 0.005 0
14.56 0.005 0
14.64 0.005 0
14.72 0.005 0
14.8 0.005 0
14.88 0.005 0
14.96 0.005 0
15.04 0.005 0
15.12 0.005 0
15.2 0.005 0
15.28 0.005 0
15.36 0.005 0
15.44 0.005 0
15.52 0.005 0
15.6 0.005 0
15.68 0.005 0
15.76 0.005 0
15.84 0.005 0
15.92 0.005 0
16 0.005 0
16.08 0.005 0
16.16 0.005 0
16.24 0.005 0
16.32 0.005 0
16.4 0.005 0
16.48 0.005 0
16.56 0.005 0
16.64 0.005 0
16.72 0.005 0
16.8 0.005 0
16.88 0.005 0
16.96 0.005 0
17.04 0.005 0
17.12 0.005 0
17.2 0.005 0
17.28 0.005 0
17.36 0.005 0
17.44 0.005 0
17.52 0.005 0
17.6 0.005 0
17.68 0.005 0
17.76 0.005 0
17.84 0.005 0
17.92 0.005 0
18 0.005 0
18.08 0.005 0
18.16 0.005 0
18.24 0.005 0
18.32 0.005 0
18.4 0.005 0
18.48 0.005 0
18.56 0.005 0
18.64 0.005 0
18.72 0.005 0
18.8 0.005 0
18.88 0.005 0
18.96 0.005 0
19.04 0.005 0
19.12 0.005 0
19.2 0.005 0
19.28 0.005 0
19.36 0.005 0
19.44 0.005 0
19.52 0.005 0
19.6 0.005 0
19.68 0.005 0
19.76 0.005 0
19.84 0.005 0
19.92 0.005 0
20 0.005 0
20.08 0.005 0
20.16 0.005 0
20.24 0.005 0
20.32 0.005 0
20.4 0.005 0
20.48 0.005 0
20.56 0.005 0
20.64 0.005 0
20.72 0.005 0
20.8 0.005 0
20.88 0.005 0
20.96 0.005 0
21.04 0.005 0
21.12 0.005 0
21.2 0.005 0
21.28 0.005 0
21.36 0.005 0
21.44 0.005 0
21.52 0.005 0
21.6 0.005 0
21.68 0.005 0
21.76 0.005 0
21.84 0.005 0
21.92 0.005 0
22 0.005 0
22.08 0.005 0
22.16 0.005 0
22.24 0.005 0
22.32 0.005 0
22.4 0.005 0
22.48 0.005 0
22.56 0.005 0
22.64 0.005 0
22.72 0.005 0
22.8 0.005 0
22.88 0.005 0
22.96 0.005 0
23.04 0.005 0
23.12 0.005 0
23.2 0.005 0
23.28 0.005 0
23.36 0.005 0
23.44 0.005 0
23.52 0.005 0
23.6 0.005 0
23.68 0.005 0
23.76 0.005 0
23.84 0.005 0
23.92 0.005 0
24 0.005 0
24.08 0.005 0
24.16 0.005 0
24.24 0.005 0
24.32 0.005 0
24.4 0.005 0
24.48 0.005 0
24.56 0.005 0
24.64 0.005 0
24.72 0.005 0
24.8 0.005 0
24.88 0.005 0
24.96 0.005 0
25.04 0.005 0
25.12 0.005 0
25.2 0.005 0
25.28 0.005 0
25.36 0.005 0
25.44 0.005 0
25.52 0.005 0
25.6 0.005 0
25.68 0.005 0
25.76 0.005 0
25.84 0.005 0
25.92 0.005 0
26 0.005 0
26.08 0.005 0
26.16 0.005 0
26.24 0.005 0
26.32 0.005 0
26.4 0.005 0
26.48 0.005 0
26.56 0.005 0
26.64 0.005 0
26.72 0.005 0
26.8 0.005 0
26.88 0.005 0
26.96 0.005 0
27.04 0.005 0
27.12 0.005 0
27.2 0.005 0
27.28 0.005 0
27.36 0.005 0
27.44 0.005 0
27.52 0.005 0
27.6 0.005 0
27.68 0.005 0
27.76 0.005 0
27.84 0.005 0
27.92 0.005 0
28 0.005 0
28.08 0.005 0
28.16 0.005 0
28.24 0.005 0
28.32 0.005 0
28.4 0.005 0
28.48 0.005 0
28.56 0.005 0
28.64 0.005 0
28.72 0.005 0
28.8 0.005 0
28.88 0.005 0
28.96 0.005 0
29.04 0.005 0
29.12 0.005 0
29.2 0.005 0
29.28 0.005 0
29.36 0.005 0
29.44 0.005 0
29.52 0.005 0
29.6 0.005 0
29.68 0.005 0
29.76 0.005 0
29.84 0.005 0
29.92 0.005 0
30 0.005 0
30.08 0.005 0
30.16 0.005 0
30.24 0.005 0
30.32 0.005 0
30.4 0.005 0
30.48 0.005 0
30.56 0.005 0
30.64 0.005 0
30.72 0.005 0
30.8 0.005 0
30.88 0.005 0
30.96 0.005 0
31.04 0.005 0
31.12 0.005 0
31.2 0.005 0
31.28 0.005 0
31.36 0.005 0
31.44 0.005 0
31.52 0.005 0
31.6 0.005 0
31.68 0.005 0
31.76 0.005 0
31.84 0.005 0
31.92 0.005 0
0 0.01 0
0.08 0.01 0
0.16 0.01 0
0.24 0.01 0
0.32 0.01 0
0.4 0.01 0
0.48 0.01 0
0.56 0.01 0
0.64 0.01 0
0.72 0.01 0
0.8 0.01 0
0.88 0.01 0
0.96 0.01 0
1.04 0.01 0
1.12 0.01 0
1.2 0.01 0
1.28 0.01 0
1.36 0.01 0
1.44 0.01 0
1.52 0.01 0
1.6 0.01 0
1.68 0.01 0
1.76 0.01 0
1.84 0.01 0
1.92 0.01 0
2 0.01 0
2.08 0.01 0
2.16 0.01 0
2.24 0.01 0
2.32 0.01 0
2.4 0.01 0
2.48 0.01 0
2.56 0.01 0
2.64 0.01 0
2.72 0.01 0
2.8 0.01 0
2.88 0.01 0
2.96 0.01 0
3.04 0.01 0
3.12 0.01 0
3.2 0.01 0
3.28 0.01 0
3.36 0.01 0
3.44 0.01 0
3.52 0.01 0
3.6 0.01 0
3.68 0.01 0
3.76 0.01 0
3.84 0.01 0
3.92 0.01 0
4 0.01 0
4.08 0.01 0
4.16 0.01 0
4.24 0.01 0
4.32 0.01 0
4.4 0.01 0
4.48 0.01 0
4.56 0.01 0
4.64 0.01 0
4.72 0.01 0
4.8 0.01 0
4.88 0.01 0
4.96 0.01 0
5.04 0.01 0
5.12 0.01 0
[...]
POINT_DATA 80000

SCALARS v float 1
LOOKUP_TABLE default
0
0
0
0
0
0
0
0
0
0
0
0
0
0
0
0
0
0
0
0
0
0
0
0
0
0
0
0
0
0
0
0
0
0
0
0
0
0
0
0
0
0
0
0
0
0
0
0
0
0
0
0
0
0
0
0
0
0
0
0
0
0
0
0
0
0
0
0
0
0
0
0
0
0
0
0
0
0
0
0
0
0
0
0
0
0
0
0
0
0
0
0
0
0
0
0
0
0
0
0
0
0
0
0
0
0
0
0
0
0
0
0
0
0
0
0
0
0
0
0
0
0
0
0
0
0
0
0
0
0
0
0
0
0
0
0
0
0
0
0
0
0
0
0
0
0
0
0
0
0
0
0
0
0
0
0
0
0
0
0
0
0
0
0
0
0
0
0
0
0
0
0
0
0
0
0
0
0
0
0
0
0
0
0
0
0
0
0
0
0
0
0
0
0
0
0
0
0
0
0
0
0
0
0
0
0
0
0
0
0
0
0
0
0
0
0
0
0
0
0
0
0
0
0
0
0
0
0
0
0
0
0
0
0
0
0
0
0
0
0
0
0
0
0
0
0
0
0
0
0
0
0
0
0
0
0
0
0
0
0
0
0
0
0
0
0
0
0
0
0
0
0
0
0
0
0
0
0
0
0
0
0
0
0
0
0
0
0
0
0
0
0
0
0
0
0
0
0
0
0
0
0
0
0
0
0
0
0
0
0
0
0
0
0
0
0
0
0
0
0
0
0
0
0
0
0
0
0
0
0
0
0
0
0
0
0
0
0
0
0
0
0
0
0
0
0
0
0
0
0
0
0
0
0
0
0
0
0
0
0
0
0
0
0
0
0
0
0
0
0
0
0
0
0
0
0
0
0
0
0
0
0
0
0
0
0
0
0
0
0
0
0
0
0
0
0
0
0
0
0
-0.05427108997
0.05427108997
0.003962095021
0.0009983297453
0.0004922602656
0.0003026962885
0.0002073201218
0.0001516916902
0.0001162502596
9.229386493e-05
7.53807054e-05
6.302008099e-05
5.371962607e-05
4.654116798e-05
4.087331643e-05
3.630623168e-05
3.255868098e-05
2.943368839e-05
2.679067039e-05
2.452747924e-05
2.256859534e-05
2.085723227e-05
1.934998089e-05
1.80131276e-05
1.682009102e-05
1.574961506e-05
1.478447885e-05
1.391056365e-05
1.311616906e-05
1.239150492e-05
1.172830894e-05
1.11195547e-05
1.055922604e-05
1.004214037e-05
9.563808721e-06
9.120323704e-06
8.708268825e-06
8.324644524e-06
7.966807287e-06
7.632419107e-06
7.319405432e-06
7.025919715e-06
6.750313573e-06
6.491111495e-06
6.246989156e-06
6.016755084e-06
5.799334677e-06
5.593756621e-06
5.399141011e-06
5.214689139e-06
5.039674528e-06
4.873435167e-06
4.715366701e-06
4.56491644e-06
4.421578119e-06
4.284887217e-06
4.154416924e-06
4.029774432e-06
3.910597799e-06
3.796552996e-06
3.687331422e-06
3.582647543e-06
3.482236941e-06
3.385854377e-06
3.293272236e-06
3.204278958e-06
3.118677771e-06
3.036285438e-06
2.956931169e-06
2.880455639e-06
2.806710103e-06
2.735555526e-06
2.666861893e-06
2.600507502e-06
2.536378357e-06
2.47436755e-06
2.414374847e-06
2.356306066e-06
2.300072799e-06
2.245591888e-06
2.192785095e-06
2.141578809e-06
2.091903631e-06
2.04369419e-06
1.996888802e-06
1.951429237e-06
1.907260542e-06
1.864330763e-06
1.822590764e-06
1.781994068e-06
1.742496684e-06
1.704056915e-06
1.666635245e-06
1.630194223e-06
1.594698278e-06
1.560113627e-06
1.526408194e-06
1.493551471e-06
1.461514451e-06
1.430269487e-06
1.399790276e-06
1.370051749e-06
1.341029983e-06
1.312702176e-06
1.285046521e-06
1.258042226e-06
1.231669385e-06
1.205908962e-06
1.180742755e-06
1.156153321e-06
1.13212394e-06
1.108638588e-06
1.085681887e-06
1.063239084e-06
1.041295999e-06
1.019839007e-06
9.9885501e-07
9.783313998e-07
9.582560393e-07
9.386172446e-07
9.194037329e-07
9.006046706e-07
8.822095385e-07
8.642082406e-07
8.465909962e-07
8.293483697e-07
8.124712231e-07
7.959507234e-07
7.797783336e-07
7.639457691e-07
7.484450184e-07
7.332683042e-07
7.184081184e-07
7.038571297e-07
6.896082711e-07
6.75654649e-07
6.619895916e-07
6.486066002e-07
6.35499383e-07
6.226617851e-07
6.100878513e-07
5.977717964e-07
5.857079426e-07
5.738908363e-07
5.623150797e-07
5.509754778e-07
5.39866979e-07
5.289845898e-07
5.183235035e-07
5.078790164e-07
4.976465372e-07
4.87621589e-07
4.777998055e-07
4.681769017e-07
4.58748748e-07
4.495112471e-07
4.404604492e-07
4.315924788e-07
4.229035377e-07
4.143899249e-07
4.060480317e-07
3.97874315e-07
3.898653227e-07
3.8201767e-07
3.743280666e-07
3.667932579e-07
3.594101138e-07
3.521755141e-07
3.450864549e-07
3.381399573e-07
3.313331532e-07
3.246631774e-07
3.181272849e-07
3.117227446e-07
3.054469119e-07
2.992971724e-07
2.932709884e-07
2.873658615e-07
2.815793539e-07
2.759090958e-07
2.703527053e-07
2.649079346e-07
2.595724958e-07
2.543442207e-07
2.492209444e-07
2.442005622e-07
2.392810093e-07
2.344602556e-07
2.297363321e-07
2.251072731e-07
2.205712023e-07
2.161262348e-07
2.117705575e-07
2.075023804e-07
2.033199365e-07
1.992215261e-07
1.952054559e-07
1.912700755e-07
1.874137795e-07
1.836349719e-07
1.799321008e-07
1.763036549e-07
1.727481446e-07
1.692641055e-07
1.658501007e-07
1.625047405e-07
1.592266399e-07
1.560144517e-07
1.528668727e-07
1.497825784e-07
1.467603333e-07
1.437988764e-07
1.408970003e-07
1.380535016e-07
1.352672153e-07
1.325370005e-07
1.298617279e-07
1.272402949e-07
1.246716316e-07
1.221546725e-07
1.196883987e-07
1.17271759e-07
1.149037939e-07
1.125835042e-07
1.103099495e-07
1.080821825e-07
1.058992898e-07
1.037603765e-07
1.016645475e-07
9.96109383e-08
9.759872455e-08
9.562705319e-08
9.369511089e-08
9.180212085e-08
8.994728213e-08
8.812982711e-08
8.634901259e-08
8.46041086e-08
8.289438679e-08
8.121914179e-08
7.957768205e-08
7.796932674e-08
7.639340173e-08
7.484927189e-08
7.333628534e-08
7.18538289e-08
7.040127677e-08
6.897803827e-08
6.758351768e-08
6.621714151e-08
6.487833172e-08
6.356655477e-08
6.228124247e-08
6.102187599e-08
5.978793407e-08
5.857890431e-08
5.739428417e-08
5.623358321e-08
5.509630659e-08
5.398200479e-08
5.289021333e-08
5.182045997e-08
5.077231445e-08
4.974533052e-08
4.873910766e-08
4.775320502e-08
4.678721158e-08
4.584073802e-08
4.491338739e-08
4.400477591e-08
4.311450994e-08
4.224223679e-08
4.138759601e-08
4.055022113e-08
3.972977068e-08
3.89259013e-08
3.813827853e-08
3.736657723e-08
3.661046534e-08
3.586964763e-08
3.514380819e-08
3.443262823e-08
3.373583642e-08
3.305312701e-08
3.238421873e-08
3.172883445e-08
3.108670626e-08
3.045755469e-08
2.984112648e-08
2.923717804e-08
2.864542807e-08
2.806565391e-08
2.749759909e-08
2.694102619e-08
2.639571942e-08
2.586143552e-08
2.533796101e-08
2.482507672e-08
2.432256369e-08
2.383021837e-08
2.334784249e-08
2.28752038e-08
2.241213312e-08
2.195844013e-08
2.151391584e-08
2.10783868e-08
2.065167533e-08
2.023359371e-08
1.982397434e-08
1.942263833e-08
1.902941822e-08
1.864416744e-08
1.826670046e-08
1.789687684e-08
1.753453573e-08
1.717952585e-08
1.68316961e-08
1.649091541e-08
1.61570232e-08
1.582989355e-08
1.550938719e-08
1.519536958e-08
1.488768638e-08
1.458625955e-08
1.429090507e-08
1.400156185e-08
1.371803007e-08
1.344029253e-08
1.316811646e-08
1.290150489e-08
1.264022213e-08
1.23843255e-08
1.213349917e-08
1.188787234e-08
1.164707736e-08
1.1411309e-08
1.118015336e-08
1.095385111e-08
1.073192026e-08
1.051473359e-08
1.030164102e-08
1.009322667e-08
9.888607964e-09
9.688621159e-09
9.492110976e-09
9.300254117e-09
9.111510469e-09
8.927459816e-09
8.746120627e-09
8.569632374e-09
8.395360406e-09
8.226182825e-09
8.058619028e-09
7.896549326e-09
7.735322476e-09
7.580175212e-09
7.424917261e-09
7.276574381e-09
7.126864096e-09
6.985253503e-09
6.840630298e-09
6.705748873e-09
6.565688818e-09
6.437658297e-09
6.30153843e-09
6.180575746e-09
6.047671259e-09
5.934162271e-09
5.80354484e-09
5.698132879e-09
5.568615417e-09
5.472243357e-09
5.342282112e-09
5.256308337e-09
5.123906818e-09
5.050269252e-09
4.912709682e-09
4.854116239e-09
4.707738786e-09
4.667909471e-09
4.507683928e-09
4.491665078e-09
4.310531578e-09
4.324954066e-09
4.112808965e-09
4.165808734e-09
3.907682823e-09
4.007871134e-09
3.680314451e-09
3.832595602e-09
3.396628682e-09
3.589924964e-09
2.976847162e-09
3.151618043e-09
2.244116533e-09
2.221677162e-09
9.180441847e-10
3.558658877e-10
6.767976082e-15
6.767976082e-15
-0.0952158619
0.0952158619
0.01297562026
0.003854618263
0.001934307931
0.001196199257
0.0008217410482
0.0006023144564
0.0004620669962
0.0003670409364
0.0002998306251
0.0002506449793
0.0002136016796
0.0001849938774
0.0001624004718
0.000144195121
0.0001292596989
0.0001168097392
0.000106284548
9.727624691e-05
8.948301756e-05
8.267777692e-05
7.668688403e-05
7.137547504e-05
6.663723592e-05
6.238718117e-05
5.855649163e-05
5.508877665e-05
5.193733251e-05
4.906310474e-05
4.643315347e-05
4.401948223e-05
4.179813269e-05
3.974847628e-05
3.785265334e-05
3.609512432e-05
3.446230693e-05
3.294228028e-05
3.152454147e-05
3.019980397e-05
2.895982945e-05
2.779728661e-05
2.670563219e-05
2.567901003e-05
2.471216504e-05
2.380036971e-05
2.2939361e-05
2.2125286e-05
2.135465479e-05
2.062429977e-05
1.993134013e-05
1.927315093e-05
1.8647336e-05
1.805170418e-05
1.748424852e-05
1.694312771e-05
1.64266499e-05
1.593325835e-05
1.546151844e-05
1.50101065e-05
1.457779949e-05
1.416346603e-05
1.376605827e-05
1.338460456e-05
1.301820297e-05
1.266601536e-05
1.232726208e-05
1.200121719e-05
1.168720411e-05
1.138459168e-05
1.109279058e-05
1.081125011e-05
1.05394552e-05
1.027692378e-05
1.002320425e-05
9.777873241e-06
9.540533584e-06
9.310812399e-06
9.088359378e-06
8.872845201e-06
8.663960005e-06
8.461412127e-06
8.264926796e-06
8.074245027e-06
7.889122521e-06
7.709328704e-06
7.534645828e-06
7.364868138e-06
7.199801029e-06
7.039260434e-06
6.883072058e-06
6.731070795e-06
6.583100153e-06
6.439011707e-06
6.298664595e-06
6.161925051e-06
6.028665969e-06
5.898766528e-06
5.772111775e-06
5.64859228e-06
5.528103817e-06
5.41054706e-06
5.295827283e-06
5.183854105e-06
5.07454123e-06
4.967806208e-06
4.863570238e-06
4.761757913e-06
4.662297088e-06
4.565118669e-06
4.470156441e-06
4.377346926e-06
4.286629206e-06
4.197944814e-06
4.111237622e-06
4.02645362e-06
3.943540919e-06
3.862449595e-06
3.783131565e-06
3.705540512e-06
3.62963183e-06
3.555362477e-06
3.482690911e-06
3.411577059e-06
3.341982229e-06
3.273869003e-06
3.20720121e-06
3.141943885e-06
3.078063165e-06
3.015526269e-06
2.954301473e-06
2.894358002e-06
2.835666024e-06
2.778196633e-06
2.721921742e-06
2.666814119e-06
2.612847311e-06
2.559995609e-06
2.508234049e-06
2.457538334e-06
2.407884881e-06
2.3592507e-06
2.311613441e-06
2.264951361e-06
2.219243267e-06
2.174468515e-06
2.13060701e-06
2.087639147e-06
2.045545846e-06
2.004308454e-06
1.963908845e-06
1.924329264e-06
1.885552444e-06
1.847561512e-06
1.810339977e-06
1.773871769e-06
1.738141183e-06
1.703132893e-06
1.668831882e-06
1.635223526e-06
1.602293527e-06
1.570027883e-06
1.538412937e-06
1.507435298e-06
1.477081933e-06
1.447340043e-06
1.418197136e-06
1.38964099e-06
1.361659633e-06
1.33424138e-06
1.307374767e-06
1.281048603e-06
1.255251928e-06
1.229973986e-06
1.205204302e-06
1.180932589e-06
1.157148769e-06
1.133843e-06
1.111005629e-06
1.088627215e-06
1.066698507e-06
1.045210432e-06
1.024154144e-06
1.003520933e-06
9.833023002e-07
9.634899107e-07
9.440756034e-07
9.250513673e-07
9.064093808e-07
8.881419624e-07
8.702416198e-07
8.52700954e-07
8.355127742e-07
8.186699883e-07
8.021656936e-07
7.859930976e-07
7.701455419e-07
7.546165122e-07
7.393996318e-07
7.24488645e-07
7.098774302e-07
6.955599785e-07
6.815303785e-07
6.677828869e-07
6.543118583e-07
6.411117317e-07
6.281770992e-07
6.155026373e-07
6.030831175e-07
5.909134466e-07
5.789886262e-07
5.673037388e-07
5.558539767e-07
5.446346302e-07
5.336410897e-07
5.228688247e-07
5.123133843e-07
5.019704532e-07
4.918357526e-07
4.819051039e-07
4.721744281e-07
4.626397082e-07
4.532970101e-07
4.441424908e-07
4.35172374e-07
4.26382976e-07
4.177706406e-07
4.093318268e-07
4.010630684e-07
3.929609251e-07
3.850220932e-07
3.77243251e-07
3.696212043e-07
3.621528158e-07
3.548349958e-07
3.476647046e-07
3.406389901e-07
3.337549389e-07
3.270097317e-07
3.204005565e-07
3.139246848e-07
3.075794351e-07
3.013621891e-07
2.952703632e-07
2.893014495e-07
2.834529668e-07
2.777224939e-07
2.721076641e-07
2.666061411e-07
2.612156595e-07
2.559339761e-07
2.50758898e-07
2.456882837e-07
2.407200444e-07
2.358521033e-07
2.31082441e-07
2.264090901e-07
2.218300982e-07
2.173435849e-07
2.129476713e-07
2.086405418e-07
2.044203972e-07
2.002854929e-07
1.962341167e-07
1.922645767e-07
1.883752415e-07
1.845644751e-07
1.808306895e-07
1.771723506e-07
1.735879423e-07
1.700759442e-07
1.666349144e-07
1.632634287e-07
1.599600879e-07
1.567235039e-07
1.535523414e-07
1.504452643e-07
1.474009967e-07
1.444182617e-07
1.414958257e-07
1.386324696e-07
1.358269988e-07
1.330782562e-07
1.303850766e-07
1.27746357e-07
1.251609852e-07
1.226278936e-07
1.201460284e-07
1.177143599e-07
1.153318407e-07
1.129975234e-07
1.107104062e-07
1.08469549e-07
1.062740151e-07
1.041228872e-07
1.020152606e-07
9.995027178e-08
9.792705153e-08
9.594476748e-08
9.400257294e-08
9.209966922e-08
9.023527223e-08
8.840857749e-08
8.661885669e-08
8.486532314e-08
8.314727788e-08
8.146398334e-08
7.981476261e-08
7.819891121e-08
7.661575577e-08
7.506461461e-08
7.354489279e-08
7.205590321e-08
7.05970545e-08
6.916770129e-08
6.77673151e-08
6.639522772e-08
6.505094797e-08
6.373382681e-08
6.244341703e-08
6.117906784e-08
5.994037481e-08
5.87266663e-08
5.75376223e-08
5.637252447e-08
5.523115157e-08
5.411273422e-08
5.301712161e-08
5.1943466e-08
5.089180228e-08
4.98611448e-08
4.885166902e-08
4.786226681e-08
4.689330509e-08
4.594347268e-08
4.50134454e-08
4.41015765e-08
4.320891636e-08
4.233347017e-08
4.147675311e-08
4.063620418e-08
3.981402846e-08
3.900693027e-08
3.821800111e-08
3.744292413e-08
3.668596986e-08
3.594154456e-08
3.521543477e-08
3.450026017e-08
3.380392348e-08
3.311663849e-08
3.24491091e-08
3.178833506e-08
3.114877087e-08
3.051308873e-08
2.990076891e-08
2.928871302e-08
2.87031042e-08
2.811304651e-08
2.755384817e-08
2.698403984e-08
2.645120731e-08
2.589964548e-08
2.539351526e-08
2.485786225e-08
2.437921833e-08
2.385666483e-08
2.340694918e-08
2.289398554e-08
2.247550805e-08
2.196769989e-08
2.158393061e-08
2.107551331e-08
2.073147724e-08
2.021491142e-08
1.99177882e-08
1.938294643e-08
1.914277025e-08
1.857594779e-08
1.840655726e-08
1.77889312e-08
1.770907183e-08
1.701428587e-08
1.704850436e-08
1.62387616e-08
1.641716363e-08
1.543619504e-08
1.579026791e-08
1.454987724e-08
1.50965709e-08
1.344896355e-08
1.414378384e-08
1.182666758e-08
1.24400804e-08
9.000384492e-09
8.851463661e-09
3.872033215e-09
1.68353152e-09
4.290636586e-14
4.290636586e-14
-0.1252930377
0.1252930377
0.02493586976
0.008358019126
0.004277996266
0.002661518917
0.00183373551
0.001346352401
0.001033884326
0.0008217036792
0.0006713867371
0.0005612497711
0.000478232091
0.0004140850753
0.0003634105354
0.0003225758052
0.0002890793572
0.0002611636451
0.0002375709469
0.0002173854269
0.0001999288868
0.0001846908016
0.0001712806838
0.0001593952254
0.0001487953499
0.0001392899892
0.0001307244734
0.000122972117
0.0001159280437
0.0001095045941
0.0001036278666
9.823507744e-05
9.327252056e-05
8.869397115e-05
8.445942269e-05
8.053407646e-05
7.68875252e-05
7.349308759e-05
7.032726128e-05
6.736926989e-05
6.460068534e-05
6.200511112e-05
5.956791521e-05
5.727600374e-05
5.51176282e-05
5.30822207e-05
5.116025252e-05
4.934311239e-05
4.762300102e-05
4.599283997e-05
4.444619212e-05
4.297719245e-05
4.158048745e-05
4.025118193e-05
3.898479234e-05
3.777720557e-05
3.662464249e-05
3.552362576e-05
3.447095122e-05
3.346366239e-05
3.249902783e-05
3.157452078e-05
3.068780114e-05
2.983669906e-05
2.901920041e-05
2.823343361e-05
2.747765773e-05
2.675025176e-05
2.604970497e-05
2.537460807e-05
2.472364524e-05
2.40955869e-05
2.348928307e-05
2.29036574e-05
2.23377016e-05
2.179047047e-05
2.126107728e-05
2.074868954e-05
2.025252517e-05
1.977184889e-05
1.9305969e-05
1.885423428e-05
1.841603135e-05
1.799078196e-05
1.757794073e-05
1.717699291e-05
1.678745235e-05
1.640885969e-05
1.604078051e-05
1.56828038e-05
1.533454048e-05
1.499562193e-05
1.466569877e-05
1.434443961e-05
1.403152995e-05
1.372667117e-05
1.342957949e-05
1.313998512e-05
1.28576314e-05
1.258227403e-05
1.231368032e-05
1.205162846e-05
1.179590698e-05
1.154631406e-05
1.130265701e-05
1.106475175e-05
1.08324223e-05
1.060550035e-05
1.038382477e-05
1.016724128e-05
9.955602064e-06
9.748765331e-06
9.546595118e-06
9.348960853e-06
9.155737145e-06
8.966803505e-06
8.782044021e-06
8.601347213e-06
8.424605721e-06
8.251716165e-06
8.082578897e-06
7.917097826e-06
7.755180243e-06
7.59673666e-06
7.441680637e-06
7.289928675e-06
7.141400029e-06
6.996016609e-06
6.853702811e-06
6.714385493e-06
6.577993796e-06
6.44445901e-06
6.313714594e-06
6.185695949e-06
6.060340438e-06
5.937587252e-06
5.817377322e-06
5.699653299e-06
5.584359448e-06
5.471441558e-06
5.360846943e-06
5.252524352e-06
5.14642388e-06
5.042497003e-06
4.940696413e-06
4.840976077e-06
4.743291139e-06
4.647597857e-06
4.55385363e-06
4.4620169e-06
4.372047151e-06
4.283904819e-06
4.197551366e-06
4.112949158e-06
4.030061406e-06
3.948852257e-06
3.869286686e-06
3.791330453e-06
3.714950165e-06
3.640113129e-06
3.566787458e-06
3.494941955e-06
3.42454613e-06
3.355570175e-06
3.287984962e-06
3.221761997e-06
3.156873372e-06
3.093291873e-06
3.030990799e-06
2.969944093e-06
2.9101262e-06
2.851512166e-06
2.794077534e-06
2.737798382e-06
2.682651306e-06
2.628613372e-06
2.575662161e-06
2.523775674e-06
2.472932441e-06
2.423111402e-06
2.374291934e-06
2.326453829e-06
2.279577335e-06
2.233643081e-06
2.188632115e-06
2.144525845e-06
2.10130609e-06
2.058955022e-06
2.017455179e-06
1.976789476e-06
1.93694116e-06
1.897893811e-06
1.859631371e-06
1.822138066e-06
1.785398458e-06
1.74939746e-06
1.714120221e-06
1.679552257e-06
1.645679339e-06
1.612487515e-06
1.579963143e-06
1.548092842e-06
1.516863498e-06
1.486262275e-06
1.456276567e-06
1.426894039e-06
1.398102614e-06
1.369890422e-06
1.342245873e-06
1.315157584e-06
1.288614407e-06
1.262605399e-06
1.237119874e-06
1.212147331e-06
1.187677475e-06
1.16370025e-06
1.140205748e-06
1.117184329e-06
1.094626469e-06
1.072522881e-06
1.050864465e-06
1.029642285e-06
1.008847585e-06
9.884718045e-07
9.685065326e-07
9.489435211e-07
9.297746978e-07
9.109921613e-07
8.925881448e-07
8.745550618e-07
8.568854775e-07
8.395720693e-07
8.226076882e-07
8.059853386e-07
7.896981306e-07
7.737393558e-07
7.581023983e-07
7.427807884e-07
7.277682123e-07
7.130584482e-07
6.986453976e-07
6.84523123e-07
6.70685738e-07
6.571275596e-07
6.438429351e-07
6.308263993e-07
6.180725222e-07
6.055760497e-07
5.93331807e-07
5.813346874e-07
5.695797471e-07
5.580620983e-07
5.467769758e-07
5.357196956e-07
5.248856555e-07
5.142703839e-07
5.038694675e-07
4.93678588e-07
4.836935233e-07
4.739101255e-07
4.643243252e-07
4.549321476e-07
4.457296827e-07
4.367131252e-07
4.278787295e-07
4.192228099e-07
4.107417701e-07
4.02432085e-07
3.942903213e-07
3.863130566e-07
3.784970194e-07
3.70838915e-07
3.633355991e-07
3.559839276e-07
3.487808425e-07
3.417233575e-07
3.348085217e-07
3.280334508e-07
3.213953602e-07
3.148914599e-07
3.085190472e-07
3.022754798e-07
2.961581315e-07
2.901644772e-07
2.842920116e-07
2.785383006e-07
2.729009155e-07
2.673775522e-07
2.619658866e-07
2.566636512e-07
2.51468664e-07
2.46378724e-07
2.413917364e-07
2.365056312e-07
2.31718336e-07
2.270278886e-07
2.224323096e-07
2.179297049e-07
2.135181726e-07
2.091958888e-07
2.049610489e-07
2.008118855e-07
1.967466575e-07
1.92763684e-07
1.888612757e-07
1.850378499e-07
1.812917619e-07
1.776214953e-07
1.740254666e-07
1.705022364e-07
1.670502641e-07
1.63668185e-07
1.603545093e-07
1.571079307e-07
1.539269896e-07
1.50810492e-07
1.477569971e-07
1.447653788e-07
1.418342106e-07
1.389624784e-07
1.361487375e-07
1.333921075e-07
1.306910749e-07
1.28044931e-07
1.254520992e-07
1.22912046e-07
1.204230672e-07
1.179848417e-07
1.15595539e-07
1.132551069e-07
1.109614716e-07
1.087149299e-07
1.06513098e-07
1.043567422e-07
1.022429762e-07
1.001732258e-07
9.814396038e-08
9.615740219e-08
9.42091878e-08
9.230258195e-08
9.043207311e-08
8.860232896e-08
8.680627451e-08
8.50504609e-08
8.332570794e-08
8.164105231e-08
7.9984515e-08
7.836846657e-08
7.677708832e-08
7.522723665e-08
7.369799585e-08
7.221217925e-08
7.074202878e-08
6.931833467e-08
6.790412966e-08
6.654096222e-08
6.517943734e-08
6.38755638e-08
6.256322332e-08
6.131786919e-08
6.005086839e-08
5.886386819e-08
5.763785147e-08
5.650982935e-08
5.531972912e-08
5.425230147e-08
5.309199939e-08
5.208819545e-08
5.095013154e-08
5.001479322e-08
4.888943638e-08
4.802987866e-08
4.690487547e-08
4.613179073e-08
4.499094322e-08
4.431956668e-08
4.314119308e-08
4.259288481e-08
4.134764565e-08
4.095192405e-08
3.959953462e-08
3.939629198e-08
3.788033219e-08
3.792180364e-08
3.616131958e-08
3.651149619e-08
3.438578918e-08
3.511109272e-08
3.243039119e-08
3.356530272e-08
3.001036694e-08
3.145544071e-08
2.645698204e-08
2.771177962e-08
2.027844973e-08
1.986823836e-08
9.046770534e-09
4.239347436e-09
9.459873175e-14
9.459873175e-14
-0.1464876054
0.1464876054
0.03831047054
0.01423404634
0.007456022676
0.004672748492
0.003230546969