# vtk DataFile Version 2.0
FlowField
ASCII
DATASET STRUCTURED_GRID
DIMENSIONS 400 1 200
POINTS 80000 float
0 0 0
0.08 0 0
0.16 0 0
0.24 0 0
0.32 0 0
0.4 0 0
0.48 0 0
0.56 0 0
0.64 0 0
0.72 0 0
0.8 0 0
0.88 0 0
0.96 0 0
1.04 0 0
1.12 0 0
1.2 0 0
1.28 0 0
1.36 0 0
1.44 0 0
1.52 0 0
1.6 0 0
1.68 0 0
1.76 0 0
1.84 0 0
1.92 0 0
2 0 0
2.08 0 0
2.16 0 0
2.24 0 0
2.32 0 0
2.4 0 0
2.48 0 0
2.56 0 0
2.64 0 0
2.72 0 0
2.8 0 0
2.88 0 0
2.96 0 0
3.04 0 0
3.12 0 0
3.2 0 0
3.28 0 0
3.36 0 0
3.44 0 0
3.52 0 0
3.6 0 0
3.68 0 0
3.76 0 0
3.84 0 0
3.92 0 0
4 0 0
4.08 0 0
4.16 0 0
4.24 0 0
4.32 0 0
4.4 0 0
4.48 0 0
4.56 0 0
4.64 0 0
4.72 0 0
4.8 0 0
4.88 0 0
4.96 0 0
5.04 0 0
5.12 0 0
5.2 0 0
5.28 0 0
5.36 0 0
5.44 0 0
5.52 0 0
5.6 0 0
5.68 0 0
5.76 0 0
5.84 0 0
5.92 0 0
6 0 0
6.08 0 0
6.16 0 0
6.24 0 0
6.32 0 0
6.4 0 0
6.48 0 0
6.56 0 0
6.64 0 0
6.72 0 0
6.8 0 0
6.88 0 0
6.96 0 0
7.04 0 0
7.12 0 0
7.2 0 0
7.28 0 0
7.36 0 0
7.44 0 0
7.52 0 0
7.6 0 0
7.68 0 0
7.76 0 0
7.84 0 0
7.92 0 0
8 0 0
8.08 0 0
8.16 0 0
8.24 0 0
8.32 0 0
8.4 0 0
8.48 0 0
8.56 0 0
8.64 0 0
8.72 0 0
8.8 0 0
8.88 0 0
8.96 0 0
9.04 0 0
9.12 0 0
9.2 0 0
9.28 0 0
9.36 0 0
9.44 0 0
9.52 0 0
9.6 0 0
9.68 0 0
9.76 0 0
9.84 0 0
9.92 0 0
10 0 0
10.08 0 0
10.16 0 0
10.24 0 0
10.32 0 0
10.4 0 0
10.48 0 0
10.56 0 0
10.64 0 0
10.72 0 0
10.8 0 0
10.88 0 0
10.96 0 0
11.04 0 0
11.12 0 0
11.2 0 0
11.28 0 0
11.36 0 0
11.44 0 0
11.52 0 0
11.6 0 0
11.68 0 0
11.76 0 0
11.84 0 0
11.92 0 0
12 0 0
12.08 0 0
12.16 0 0
12.24 0 0
12.32 0 0
12.4 0 0
12.48 0 0
12.56 0 0
12.64 0 0
12.72 0 0
12.8 0 0
12.88 0 0
12.96 0 0
13.04 0 0
13.12 0 0
13.2 0 0
13.28 0 0
13.36 0 0
13.44 0 0
13.52 0 0
13.6 0 0
13.68 0 0
13.76 0 0
13.84 0 0
13.92 0 0
14 0 0
14.08 0 0
14.16 0 0
14.24 0 0
14.32 0 0
14.4 0 0
14.48 0 0
14.56 0 0
14.64 0 0
14.72 0 0
14.8 0 0
14.88 0 0
14.96 0 0
15.04 0 0
15.12 0 0
15.2 0 0
15.28 0 0
15.36 0 0
15.44 0 0
15.52 0 0
15.6 0 0
15.68 0 0
15.76 0 0
15.84 0 0
15.92 0 0
16 0 0
16.08 0 0
16.16 0 0
16.24 0 0
16.32 0 0
16.4 0 0
16.48 0 0
16.56 0 0
16.64 0 0
16.72 0 0
16.8 0 0
16.88 0 0
16.96 0 0
17.04 0 0
17.12 0 0
17.2 0 0
17.28 0 0
17.36 0 0
17.44 0 0
17.52 0 0
17.6 0 0
17.68 0 0
17.76 0 0
17.84 0 0
17.92 0 0
18 0 0
18.08 0 0
18.16 0 0
18.24 0 0
18.32 0 0
18.4 0 0
18.48 0 0
18.56 0 0
18.64 0 0
18.72 0 0
18.8 0 0
18.88 0 0
18.96 0 0
19.04 0 0
19.12 0 0
19.2 0 0
19.28 0 0
19.36 0 0
19.44 0 0
19.52 0 0
19.6 0 0
19.68 0 0
19.76 0 0
19.84 0 0
19.92 0 0
20 0 0
20.08 0 0
20.16 0 0
20.24 0 0
20.32 0 0
20.4 0 0
20.48 0 0
20.56 0 0
20.64 0 0
20.72 0 0
20.8 0 0
20.88 0 0
20.96 0 0
21.04 0 0
21.12 0 0
21.2 0 0
21.28 0 0
21.36 0 0
21.44 0 0
21.52 0 0
21.6 0 0
21.68 0 0
21.76 0 0
21.84 0 0
21.92 0 0
22 0 0
22.08 0 0
22.16 0 0
22.24 0 0
22.32 0 0
22.4 0 0
22.48 0 0
22.56 0 0
22.64 0 0
22.72 0 0
22.8 0 0
22.88 0 0
22.96 0 0
23.04 0 0
23.12 0 0
23.2 0 0
23.28 0 0
23.36 0 0
23.44 0 0
23.52 0 0
23.6 0 0
23.68 0 0
23.76 0 0
23.84 0 0
23.92 0 0
24 0 0
24.08 0 0
24.16 0 0
24.24 0 0
24.32 0 0
24.4 0 0
24.48 0 0
24.56 0 0
24.64 0 0
24.72 0 0
24.8 0 0
24.88 0 0
24.96 0 0
25.04 0 0
25.12 0 0
25.2 0 0
25.28 0 0
25.36 0 0
25.44 0 0
25.52 0 0
25.6 0 0
25.68 0 0
25.76 0 0
25.84 0 0
25.92 0 0
26 0 0
26.08 0 0
26.16 0 0
26.24 0 0
26.32 0 0
26.4 0 0
26.48 0 0
26.56 0 0
26.64 0 0
26.72 0 0
26.8 0 0
26.88 0 0
26.96 0 0
27.04 0 0
27.12 0 0
27.2 0 0
27.28 0 0
27.36 0 0
27.44 0 0
27.52 0 0
27.6 0 0
27.68 0 0
27.76 0 0
27.84 0 0
27.92 0 0
28 0 0
28.08 0 0
28.16 0 0
28.24 0 0
28.32 0 0
28.4 0 0
28.48 0 0
28.56 0 0
28.64 0 0
28.72 0 0
28.8 0 0
28.88 0 0
28.96 0 0
29.04 0 0
29.12 0 0
29.2 0 0
29.28 0 0
29.36 0 0
29.44 0 0
29.52 0 0
29.6 0 0
29.68 0 0
29.76 0 0
29.84 0 0
29.92 0 0
30 0 0
30.08 0 0
30.16 0 0
30.24 0 0
30.32 0 0
30.4 0 0
30.48 0 0
30.56 0 0
30.64 0 0
30.72 0 0
30.8 0 0
30.88 0 0
30.96 0 0
31.04 0 0
31.12 0 0
31.2 0 0
31.28 0 0
31.36 0 0
31.44 0 0
31.52 0 0
31.6 0 0
31.68 0 0
31.76 0 0
31.84 0 0
31.92 0 0
0 0.005 0
0.08 0.005 0
0.16 0.005 0
0.24 0.005 0
0.32 0.005 0
0.4 0.005 0
0.48 0.005 0
0.56 0.005 0
0.64 0.005 0
0.72 0.005 0
0.8 0.005 0
0.88 0.005 0
0.96 0.005 0
1.04 0.005 0
1.12 0.005 0
1.2 0.005 0
1.28 0.005 0
1.36 0.005 0
1.44 0.005 0
1.52 0.005 0
1.6 0.005 0
1.68 0.005 0
1.76 0.005 0
1.84 0.005 0
1.92 0.005 0
2 0.005 0
2.08 0.005 0
2.16 0.005 0
2.24 0.005 0
2.32 0.005 0
2.4 0.005 0
2.48 0.005 0
2.56 0.005 0
2.64 0.005 0
2.72 0.005 0
2.8 0.005 0
2.88 0.005 0
2.96 0.005 0
3.04 0.005 0
3.12 0.005 0
3.2 0.005 0
3.28 0.005 0
3.36 0.005 0
3.44 0.005 0
3.52 0.005 0
3.6 0.005 0
3.68 0.005 0
3.76 0.005 0
3.84 0.005 0
3.92 0.005 0
4 0.005 0
4.08 0.005 0
4.16 0.005 0
4.24 0.005 0
4.32 0.005 0
4.4 0.005 0
4.48 0.005 0
4.56 0.005 0
4.64 0.005 0
4.72 0.005 0
4.8 0.005 0
4.88 0.005 0
4.96 0.005 0
5.04 0.005 0
5.12 0.005 0
5.2 0.005 0
5.28 0.005 0
5.36 0.005 0
5.44 0.005 0
5.52 0.005 0
5.6 0.005 0
5.68 0.005 0
5.76 0.005 0
5.84 0.005 0
5.92 0.005 0
6 0.005 0
6.08 0.005 0
6.16 0.005 0
6.24 0.005 0
6.32 0.005 0
6.4 0.005 0
6.48 0.005 0
6.56 0.005 0
6.64 0.005 0
6.72 0.005 0
6.8 0.005 0
6.88 0.005 0
6.96 0.005 0
7.04 0.005 0
7.12 0.005 0
7.2 0.005 0
7.28 0.005 0
7.36 0.005 0
7.44 0.005 0
7.52 0.005 0
7.6 0.005 0
7.68 0.005 0
7.76 0.005 0
7.84 0.005 0
7.92 0.005 0
8 0.005 0
8.08 0.005 0
8.16 0.005 0
8.24 0.005 0
8.32 0.005 0
8.4 0.005 0
8.48 0.005 0
8.56 0.005 0
8.64 0.005 0
8.72 0.005 0
8.8 0.005 0
8.88 0.005 0
8.96 0.005 0
9.04 0.005 0
9.12 0.005 0
9.2 0.005 0
9.28 0.005 0
9.36 0.005 0
9.44 0.005 0
9.52 0.005 0
9.6 0.005 0
9.68 0.005 0
9.76 0.005 0
9.84 0.005 0
9.92 0.005 0
10 0.005 0
10.08 0.005 0
10.16 0.005 0
10.24 0.005 0
10.32 0.005 0
10.4 0.005 0
10.48 0.005 0
10.56 0.005 0
10.64 0.005 0
10.72 0.005 0
10.8 0.005 0
10.88 0.005 0
10.96 0.005 0
11.04 0.005 0
11.12 0.005 0
11.2 0.005 0
11.28 0.005 0
11.36 0.005 0
11.44 0.005 0
11.52 0.005 0
11.6 0.005 0
11.68 0.005 0
11.76 0.005 0
11.84 0.005 0
11.92 0.005 0
12 0.005 0
12.08 0.005 0
12.16 0.005 0
12.24 0.005 0
12.32 0.005 0
12.4 0.005 0
12.48 0.005 0
12.56 0.005 0
12.64 0.005 0
12.72 0.005 0
12.8 0.005 0
12.88 0.005 0
12.96 0.005 0
13.04 0.005 0
13.12 0.005 0
13.2 0.005 0
13.28 0.005 0
13.36 0.005 0
13.44 0.005 0
13.52 0.005 0
13.6 0.005 0
13.68 0.005 0
13.76 0.005 0
13.84 0.005 0
13.92 0.005 0
14 0.005 0
14.08 0.005 0
14.16 0.005 0
14.24 0.005 0
14.32 0.005 0
14.4 0.005 0
14.48 0.005 0
14.56 0.005 0
14.64 0.005 0
14.72 0.005 0
14.8 0.005 0
14.88 0.005 0
14.96 0.005 0
15.04 0.005 0
15.12 0.005 0
15.2 0.005 0
15.28 0.005 0
15.36 0.005 0
15.44 0.005 0
15.52 0.005 0
15.6 0.005 0
15.68 0.005 0
15.76 0.005 0
15.84 0.005 0
15.92 0.005 0
16 0.005 0
16.08 0.005 0
16.16 0.005 0
16.24 0.005 0
16.32 0.005 0
16.4 0.005 0
16.48 0.005 0
16.56 0.005 0
16.64 0.005 0
16.72 0.005 0
16.8 0.005 0
16.88 0.005 0
16.96 0.005 0
17.04 0.005 0
17.12 0.005 0
17.2 0.005 0
17.28 0.005 0
17.36 0.005 0
17.44 0.005 0
17.52 0.005 0
17.6 0.005 0
17.68 0.005 0
17.76 0.005 0
17.84 0.005 0
17.92 0.005 0
18 0.005 0
18.08 0.005 0
18.16 0.005 0
18.24 0.005 0
18.32 0.005 0
18.4 0.005 0
18.48 0.005 0
18.56 0.005 0
18.64 0.005 0
18.72 0.005 0
18.8 0.005 0
18.88 0.005 0
18.96 0.005 0
19.04 0.005 0
19.12 0.005 0
19.2 0.005 0
19.28 0.005 0
19.36 0.005 0
19.44 0.005 0
19.52 0.005 0
19.6 0.005 0
19.68 0.005 0
19.76 0.005 0
19.84 0.005 0
19.92 0.005 0
20 0.005 0
20.08 0.005 0
20.16 0.005 0
20.24 0.005 0
20.32 0.005 0
20.4 0.005 0
20.48 0.005 0
20.56 0.005 0
20.64 0.005 0
20.72 0.005 0
20.8 0.005 0
20.88 0.005 0
20.96 0.005 0
21.04 0.005 0
21.12 0.005 0
21.2 0.005 0
21.28 0.005 0
21.36 0.005 0
21.44 0.005 0
21.52 0.005 0
21.6 0.005 0
21.68 0.005 0
21.76 0.005 0
21.84 0.005 0
21.92 0.005 0
22 0.005 0
22.08 0.005 0
22.16 0.005 0
22.24 0.005 0
22.32 0.005 0
22.4 0.005 0
22.48 0.005 0
22.56 0.005 0
22.64 0.005 0
22.72 0.005 0
22.8 0.005 0
22.88 0.005 0
22.96 0.005 0
23.04 0.005 0
23.12 0.005 0
23.2 0.005 0
23.28 0.005 0
23.36 0.005 0
23.44 0.005 0
23.52 0.005 0
23.6 0.005 0
23.68 0.005 0
23.76 0.005 0
23.84 0.005 0
23.92 0.005 0
24 0.005 0
24.08 0.005 0
24.16 0.005 0
24.24 0.005 0
24.32 0.005 0
24.4 0.005 0
24.48 0.005 0
24.56 0.005 0
24.64 0.005 0
24.72 0.005 0
24.8 0.005 0
24.88 0.005 0
24.96 0.005 0
25.04 0.005 0
25.12 0.005 0
25.2 0.005 0
25.28 0.005 0
25.36 0.005 0
25.44 0.005 0
25.52 0.005 0
25.6 0.005 0
25.68 0.005 0
25.76 0.005 0
25.84 0.005 0
25.92 0.005 0
26 0.005 0
26.08 0.005 0
26.16 0.005 0
26.24 0.005 0
26.32 0.005 0
26.4 0.005 0
26.48 0.005 0
26.56 0.005 0
26.64 0.005 0
26.72 0.005 0
26.8 0.005 0
26.88 0.005 0
26.96 0.005 0
27.04 0.005 0
27.12 0.005 0
27.2 0.005 0
27.28 0.005 0
27.36 0.005 0
27.44 0.005 0
27.52 0.005 0
27.6 0.005 0
27.68 0.005 0
27.76 0.005 0
27.84 0.005 0
27.92 0.005 0
28 0.005 0
28.08 0.005 0
28.16 0.005 0
28.24 0.005 0
28.32 0.005 0
28.4 0.005 0
28.48 0.005 0
28.56 0.005 0
28.64 0.005 0
28.72 0.005 0
28.8 0.005 0
28.88 0.005 0
28.96 0.005 0
29.04 0.005 0
29.12 0.005 0
29.2 0.005 0
29.28 0.005 0
29.36 0.005 0
29.44 0.005 0
29.52 0.005 0
29.6 0.005 0
29.68 0.005 0
29.76 0.005 0
29.84 0.005 0
29.92 0.005 0
30 0.005 0
30.08 0.005 0
30.16 0.005 0
30.24 0.005 0
30.32 0.005 0
30.4 0.005 0
30.48 0.005 0
30.56 0.005 0
30.64 0.005 0
30.72 0.005 0
30.8 0.005 0
30.88 0.005 0
30.96 0.005 0
31.04 0.005 0
31.12 0.005 0
31.2 0.005 0
31.28 0.005 0
31.36 0.005 0
31.44 0.005 0
31.52 0.005 0
31.6 0.005 0
31.68 0.005 0
31.76 0.005 0
31.84 0.005 0
31.92 0.005 0
0 0.01 0
0.08 0.01 0
0.16 0.01 0
0.24 0.01 0
0.32 0.01 0
0.4 0.01 0
0.48 0.01 0
0.56 0.01 0
0.64 0.01 0
0.72 0.01 0
0.8 0.01 0
0.88 0.01 0
0.96 0.01 0
1.04 0.01 0
1.12 0.01 0
1.2 0.01 0
1.28 0.01 0
1.36 0.01 0
1.44 0.01 0
1.52 0.01 0
1.6 0.01 0
1.68 0.01 0
1.76 0.01 0
1.84 0.01 0
1.92 0.01 0
2 0.01 0
2.08 0.01 0
2.16 0.01 0
2.24 0.01 0
2.32 0.01 0
2.4 0.01 0
2.48 0.01 0
2.56 0.01 0
2.64 0.01 0
2.72 0.01 0
2.8 0.01 0
2.88 0.01 0
2.96 0.01 0
3.04 0.01 0
3.12 0.01 0
3.2 0.01 0
3.28 0.01 0
3.36 0.01 0
3.44 0.01 0
3.52 0.01 0
3.6 0.01 0
3.68 0.01 0
3.76 0.01 0
3.84 0.01 0
3.92 0.01 0
4 0.01 0
4.08 0.01 0
4.16 0.01 0
4.24 0.01 0
4.32 0.01 0
4.4 0.01 0
4.48 0.01 0
4.56 0.01 0
4.64 0.01 0
4.72 0.01 0
4.8 0.01 0
4.88 0.01 0
4.96 0.01 0
5.04 0.01 0
5.12 0.01 0
[...]
POINT_DATA 80000

SCALARS p float 1
LOOKUP_TABLE default
1
56.54467601
56.24294099
56.20178121
56.18169124
56.16727231
56.15527136
56.14452794
56.13452981
56.12502422
56.11587792
56.10701719
56.09839927
56.08999776
56.081795
56.07377796
56.06593609
56.05826019
56.05074181
56.04337302
56.0361463
56.02905445
56.02209066
56.01524843
56.00852165
56.00190454
55.99539168
55.98897798
55.98265868
55.97642933
55.97028577
55.9642241
55.95824068
55.95233212
55.94649523
55.94072701
55.93502468
55.9293856
55.92380732
55.9182875
55.91282396
55.90741465
55.90205761
55.89675102
55.89149312
55.88628229
55.88111695
55.87599564
55.87091693
55.86587951
55.86088209
55.85592347
55.85100249
55.84611805
55.84126909
55.83645462
55.83167366
55.8269253
55.82220865
55.81752287
55.81286714
55.80824068
55.80364274
55.79907259
55.79452955
55.79001293
55.78552211
55.78105644
55.77661533
55.77219821
55.7678045
55.76343367
55.75908519
55.75475855
55.75045327
55.74616885
55.74190485
55.7376608
55.73343628
55.72923086
55.72504413
55.72087569
55.71672516
55.71259215
55.70847629
55.70437724
55.70029463
55.69622813
55.69217741
55.68814215
55.68412202
55.68011673
55.67612597
55.67214945
55.66818688
55.66423799
55.6603025
55.65638015
55.65247067
55.6485738
55.64468931
55.64081695
55.63695647
55.63310765
55.62927026
55.62544406
55.62162885
55.61782442
55.61403054
55.61024701
55.60647364
55.60271023
55.59895658
55.5952125
55.59147781
55.58775233
55.58403587
55.58032827
55.57662935
55.57293895
55.56925689
55.56558303
55.56191719
55.55825923
55.554609
55.55096634
55.5473311
55.54370315
55.54008235
55.53646855
55.53286162
55.52926142
55.52566784
55.52208073
55.51849998
55.51492546
55.51135705
55.50779463
55.50423809
55.50068731
55.49714218
55.49360259
55.49006843
55.4865396
55.483016
55.47949752
55.47598406
55.47247553
55.46897182
55.46547286
55.46197853
55.45848876
55.45500345
55.45152252
55.44804588
55.44457345
55.44110514
55.43764088
55.43418058
55.43072418
55.42727158
55.42382272
55.42037753
55.41693592
55.41349784
55.41006321
55.40663197
55.40320404
55.39977937
55.39635789
55.39293953
55.38952423
55.38611195
55.3827026
55.37929615
55.37589252
55.37249167
55.36909353
55.36569807
55.36230521
55.35891492
55.35552714
55.35214182
55.34875891
55.34537837
55.34200014
55.33862419
55.33525046
55.33187892
55.32850952
55.32514221
55.32177696
55.31841372
55.31505245
55.31169313
55.30833569
55.30498012
55.30162637
55.29827441
55.29492419
55.29157569
55.28822887
55.2848837
55.28154015
55.27819818
55.27485775
55.27151885
55.26818144
55.26484549
55.26151097
55.25817785
55.2548461
55.25151571
55.24818663
55.24485884
55.24153233
55.23820705
55.23488299
55.23156013
55.22823844
55.22491789
55.22159846
55.21828013
55.21496289
55.2116467
55.20833154
55.2050174
55.20170425
55.19839208
55.19508086
55.19177058
55.18846122
55.18515275
55.18184516
55.17853844
55.17523256
55.17192751
55.16862328
55.16531984
55.16201717
55.15871528
55.15541413
55.15211371
55.14881401
55.14551502
55.14221672
55.13891909
55.13562212
55.13232581
55.12903013
55.12573508
55.12244063
55.11914679
55.11585353
55.11256084
55.10926872
55.10597715
55.10268612
55.09939562
55.09610564
55.09281617
55.0895272
55.08623871
55.0829507
55.07966317
55.07637609
55.07308946
55.06980327
55.06651752
55.06323219
55.05994727
55.05666276
55.05337865
55.05009493
55.04681159
55.04352862
55.04024602
55.03696379
55.0336819
55.03040036
55.02711916
55.02383829
55.02055775
55.01727752
55.0139976
55.01071799
55.00743868
55.00415967
55.00088094
54.99760249
54.99432432
54.99104642
54.98776878
54.98449141
54.98121428
54.97793741
54.97466078
54.97138439
54.96810823
54.96483231
54.96155661
54.95828113
54.95500586
54.95173081
54.94845596
54.94518132
54.94190688
54.93863263
54.93535857
54.9320847
54.92881101
54.92553751
54.92226418
54.91899102
54.91571803
54.9124452
54.90917254
54.90590004
54.90262769
54.8993555
54.89608345
54.89281156
54.8895398
54.88626819
54.88299671
54.87972537
54.87645416
54.87318308
54.86991213
54.8666413
54.86337059
54.86010001
54.85682954
54.85355918
54.85028894
54.8470188
54.84374878
54.84047886
54.83720904
54.83393933
54.83066971
54.8274002
54.82413077
54.82086144
54.81759221
54.81432306
54.811054
54.80778503
54.80451614
54.80124733
54.79797861
54.79470996
54.79144139
54.7881729
54.78490449
54.78163614
54.77836787
54.77509967
54.77183154
54.76856348
54.76529549
54.76202756
54.75875969
54.75549189
54.75222415
54.74895647
54.74568885
54.74242129
54.73915379
54.73588634
54.73261895
54.72935161
54.72608433
54.7228171
54.71954993
54.7162828
54.71301572
54.7097487
54.70648172
54.70321479
54.69994791
54.69668107
54.69341429
54.69014754
54.68688084
54.68361418
54.68034757
54.67708099
54.67381446
54.67054797
54.66728152
54.66401509
54.66074871
54.65748235
54.65421602
54.6509497
54.64768339
54.64441705
54.64115069
0.5
56.54467601
56.54467601
56.24294099
56.20178121
56.18169124
56.16727231
56.15527136
56.14452794
56.13452981
56.12502422
56.11587792
56.10701719
56.09839927
56.08999776
56.081795
56.07377796
56.06593609
56.05826019
56.05074181
56.04337302
56.0361463
56.02905445
56.02209066
56.01524843
56.00852165
56.00190454
55.99539168
55.98897798
55.98265868
55.97642933
55.97028577
55.9642241
55.95824068
55.95233212
55.94649523
55.94072701
55.93502468
55.9293856
55.92380732
55.9182875
55.91282396
55.90741465
55.90205761
55.89675102
55.89149312
55.88628229
55.88111695
55.87599564
55.87091693
55.86587951
55.86088209
55.85592347
55.85100249
55.84611805
55.84126909
55.83645462
55.83167366
55.8269253
55.82220865
55.81752287
55.81286714
55.80824068
55.80364274
55.79907259
55.79452955
55.79001293
55.78552211
55.78105644
55.77661533
55.77219821
55.7678045
55.76343367
55.75908519
55.75475855
55.75045327
55.74616885
55.74190485
55.7376608
55.73343628
55.72923086
55.72504413
55.72087569
55.71672516
55.71259215
55.70847629
55.70437724
55.70029463
55.69622813
55.69217741
55.68814215
55.68412202
55.68011673
55.67612597
55.67214945
55.66818688
55.66423799
55.6603025
55.65638015
55.65247067
55.6485738
55.64468931
55.64081695
55.63695647
55.63310765
55.62927026
55.62544406
55.62162885
55.61782442
55.61403054
55.61024701
55.60647364
55.60271023
55.59895658
55.5952125
55.59147781
55.58775233
55.58403587
55.58032827
55.57662935
55.57293895
55.56925689
55.56558303
55.56191719
55.55825923
55.554609
55.55096634
55.5473311
55.54370315
55.54008235
55.53646855
55.53286162
55.52926142
55.52566784
55.52208073
55.51849998
55.51492546
55.51135705
55.50779463
55.50423809
55.50068731
55.49714218
55.49360259
55.49006843
55.4865396
55.483016
55.47949752
55.47598406
55.47247553
55.46897182
55.46547286
55.46197853
55.45848876
55.45500345
55.45152252
55.44804588
55.44457345
55.44110514
55.43764088
55.43418058
55.43072418
55.42727158
55.42382272
55.42037753
55.41693592
55.41349784
55.41006321
55.40663197
55.40320404
55.39977937
55.39635789
55.39293953
55.38952423
55.38611195
55.3827026
55.37929615
55.37589252
55.37249167
55.36909353
55.36569807
55.36230521
55.35891492
55.35552714
55.35214182
55.34875891
55.34537837
55.34200014
55.33862419
55.33525046
55.33187892
55.32850952
55.32514221
55.32177696
55.31841372
55.31505245
55.31169313
55.30833569
55.30498012
55.30162637
55.29827441
55.29492419
55.29157569
55.28822887
55.2848837
55.28154015
55.27819818
55.27485775
55.27151885
55.26818144
55.26484549
55.26151097
55.25817785
55.2548461
55.25151571
55.24818663
55.24485884
55.24153233
55.23820705
55.23488299
55.23156013
55.22823844
55.22491789
55.22159846
55.21828013
55.21496289
55.2116467
55.20833154
55.2050174
55.20170425
55.19839208
55.19508086
55.19177058
55.18846122
55.18515275
55.18184516
55.17853844
55.17523256
55.17192751
55.16862328
55.16531984
55.16201717
55.15871528
55.15541413
55.15211371
55.14881401
55.14551502
55.14221672
55.13891909
55.13562212
55.13232581
55.12903013
55.12573508
55.12244063
55.11914679
55.11585353
55.11256084
55.10926872
55.10597715
55.10268612
55.09939562
55.09610564
55.09281617
55.0895272
55.08623871
55.0829507
55.07966317
55.07637609
55.07308946
55.06980327
55.06651752
55.06323219
55.05994727
55.05666276
55.05337865
55.05009493
55.04681159
55.04352862
55.04024602
55.03696379
55.0336819
55.03040036
55.02711916
55.02383829
55.02055775
55.01727752
55.0139976
55.01071799
55.00743868
55.00415967
55.00088094
54.99760249
54.99432432
54.99104642
54.98776878
54.98449141
54.98121428
54.97793741
54.97466078
54.97138439
54.96810823
54.96483231
54.96155661
54.95828113
54.95500586
54.95173081
54.94845596
54.94518132
54.94190688
54.93863263
54.93535857
54.9320847
54.92881101
54.92553751
54.92226418
54.91899102
54.91571803
54.9124452
54.90917254
54.90590004
54.90262769
54.8993555
54.89608345
54.89281156
54.8895398
54.88626819
54.88299671
54.87972537
54.87645416
54.87318308
54.86991213
54.8666413
54.86337059
54.86010001
54.85682954
54.85355918
54.85028894
54.8470188
54.84374878
54.84047886
54.83720904
54.83393933
54.83066971
54.8274002
54.82413077
54.82086144
54.81759221
54.81432306
54.811054
54.80778503
54.80451614
54.80124733
54.79797861
54.79470996
54.79144139
54.7881729
54.78490449
54.78163614
54.77836787
54.77509967
54.77183154
54.76856348
54.76529549
54.76202756
54.75875969
54.75549189
54.75222415
54.74895647
54.74568885
54.74242129
54.73915379
54.73588634
54.73261895
54.72935161
54.72608433
54.7228171
54.71954993
54.7162828
54.71301572
54.7097487
54.70648172
54.70321479
54.69994791
54.69668107
54.69341429
54.69014754
54.68688084
54.68361418
54.68034757
54.67708099
54.67381446
54.67054797
54.66728152
54.66401509
54.66074871
54.65748235
54.65421602
54.6509497
54.64768339
54.64441705
54.64115069
54.64115069
56.53009426
56.53009426
56.24677687
56.20303663
56.18232648
56.16766683
56.15554305
56.14472739
56.13468296
56.12514592
56.11597734
56.10710029
56.09847007
56.09005905
56.08184878
56.07382569
56.06597886
56.05829882
56.05077695
56.04340517
56.03617586
56.02908177
56.02211599
56.015272
56.00854365
56.00192513
55.995411
55.98899616
55.98267582
55.97644552
55.97030109
55.96423862
55.95825447
55.95234523
55.94650771
55.94073891
55.93503604
55.92939647
55.92381771
55.91829746
55.91283351
55.90742381
55.90206642
55.89675948
55.89150127
55.88629013
55.88112451
55.87600293
55.87092397
55.86588631
55.86088866
55.85592982
55.85100863
55.846124
55.84127485
55.8364602
55.83167907
55.82693055
55.82221375
55.81752782
55.81287194
55.80824534
55.80364727
55.799077
55.79453383
55.7900171
55.78552617
55.78106039
55.77661918
55.77220196
55.76780816
55.76343723
55.75908866
55.75476194
55.75045657
55.74617207
55.74190799
55.73766387
55.73343927
55.72923378
55.72504698
55.72087848
55.71672788
55.71259481
55.70847889
55.70437978
55.70029711
55.69623056
55.69217978
55.68814446
55.68412429
55.68011894
55.67612814
55.67215157
55.66818896
55.66424002
55.66030449
55.65638209
55.65247257
55.64857566
55.64469113
55.64081873
55.63695822
55.63310936
55.62927193
55.6254457
55.62163046
55.61782598
55.61403207
55.61024852
55.60647511
55.60271167
55.59895799
55.59521388
55.59147916
55.58775365
55.58403717
55.58032954
55.5766306
55.57294017
55.56925809
55.5655842
55.56191834
55.55826036
55.5546101
55.55096741
55.54733216
55.54370419
55.54008336
55.53646954
55.53286259
55.52926238
55.52566877
55.52208165
55.51850088
55.51492634
55.51135791
55.50779547
55.50423891
55.50068812
55.49714297
55.49360336
55.49006919
55.48654035
55.48301673
55.47949823
55.47598476
55.47247621
55.4689725
55.46547351
55.46197918
55.45848939
55.45500407
55.45152313
55.44804648
55.44457403
55.44110571
55.43764144
55.43418113
55.43072471
55.42727211
55.42382324
55.42037803
55.41693642
55.41349833
55.41006369
55.40663243
55.4032045
55.39977982
55.39635832
55.39293996
55.38952466
55.38611236
55.38270301
55.37929654
55.37589291
55.37249205
55.36909391
55.36569843
55.36230557
55.35891527
55.35552748
55.35214216
55.34875924
55.34537869
55.34200046
55.3386245
55.33525077
55.33187922
55.32850981
55.32514249
55.32177724
55.31841399
55.31505272
55.31169339
55.30833595
55.30498037
55.30162662
55.29827465
55.29492443
55.29157593
55.2882291
55.28488393
55.28154037
55.27819839
55.27485796
55.27151906
55.26818164
55.26484569
55.26151116
55.25817804
55.25484629
55.25151589
55.24818681
55.24485902
55.2415325
55.23820722
55.23488316
55.23156029
55.22823859
55.22491804
55.22159861
55.21828028
55.21496303
55.21164684
55.20833168
55.20501754
55.20170439
55.19839221
55.19508099
55.19177071
55.18846134
55.18515287
55.18184528
55.17853856
55.17523268
55.17192763
55.16862339
55.16531994
55.16201728
55.15871538
55.15541423
55.15211381
55.14881411
55.14551511
55.14221681
55.13891918
55.13562221
55.1323259
55.12903022
55.12573516
55.12244071
55.11914687
55.1158536
55.11256092
55.1092688
55.10597722
55.10268619
55.09939569
55.09610571
55.09281624
55.08952726
55.08623878
55.08295077
55.07966323
55.07637615
55.07308952
55.06980333
55.06651758
55.06323224
55.05994732
55.05666281
55.0533787
55.05009498
55.04681164
55.04352867
55.04024607
55.03696384
55.03368195
55.03040041
55.02711921
55.02383834
55.02055779
55.01727756
55.01399765
55.01071804
55.00743872
55.00415971
55.00088098
54.99760253
54.99432436
54.99104645
54.98776882
54.98449144
54.98121432
54.97793744
54.97466081
54.97138442
54.96810827
54.96483234
54.96155664
54.95828116
54.95500589
54.95173084
54.94845599
54.94518135
54.9419069
54.93863265
54.9353586
54.93208473
54.92881104
54.92553753
54.9222642
54.91899104
54.91571805
54.91244523
54.90917256
54.90590006
54.90262771
54.89935552
54.89608347
54.89281157
54.88953982
54.88626821
54.88299673
54.87972539
54.87645418
54.8731831
54.86991214
54.86664132
54.86337061
54.86010002
54.85682955
54.8535592
54.85028895
54.84701882
54.84374879
54.84047887
54.83720906
54.83393934
54.83066973
54.82740021
54.82413079
54.82086146
54.81759222
54.81432307
54.81105401
54.80778504
54.80451615
54.80124734
54.79797862
54.79470997
54.7914414
54.78817291
54.7849045
54.78163615
54.77836788
54.77509968
54.77183155
54.76856349
54.76529549
54.76202756
54.7587597
54.7554919
54.75222416
54.74895648
54.74568886
54.7424213
54.73915379
54.73588635
54.73261896
54.72935162
54.72608434
54.72281711
54.71954993
54.71628281
54.71301573
54.7097487
54.70648173
54.7032148
54.69994792
54.69668108
54.69341429
54.69014755
54.68688085
54.68361419
54.68034757
54.677081
54.67381447
54.67054797
54.66728152
54.6640151
54.66074872
54.65748236
54.65421603
54.6509497
54.64768339
54.64441706
54.64115069
54.64115069
56.51410967
56.51410967
56.24996529
56.20422381
56.18294249
56.1680531
56.15581048
56.14492433
56.13483444
56.1252664
56.11607578
56.10718254
56.09854009
56.09011962
56.08190188
56.07387278
56.06602101
56.05833687
56.05081152
56.04343679
56.03620492
56.02910859
56.02214085
56.01529513
56.00856523
56.00194533
55.99542995
55.98901398
55.98269261
55.97646138
55.97031609
55.96425284
55.95826797
55.95235807
55.94651993
55.94075056
55.93504716
55.92940709
55.92382788
55.9183072
55.91284285
55.90743278
55.90207503
55.89676776
55.89150923
55.8862978
55.88113191
55.87601006
55.87093085
55.86589295
55.86089508
55.85593603
55.85101464
55.84612981
55.84128048
55.83646565
55.83168436
55.82693568
55.82221872
55.81753264
55.81287663
55.8082499
55.8036517
55.7990813
55.79453802
55.79002118
55.78553013
55.78106425
55.77662294
55.77220562
55.76781172
55.76344071
55.75909205
55.75476524
55.75045979
55.74617521
55.74191105
55.73766686
55.73344219
55.72923663
55.72504977
55.7208812
55.71673053
55.7125974
55.70848142
55.70438225
55.70029953
55.69623292
55.69218209
55.68814672
55.6841265
55.6801211
55.67613025
55.67215363
55.66819098
55.664242
55.66030642
55.65638398
55.65247442
55.64857747
55.6446929
55.64082046
55.63695991
55.63311102
55.62927355
55.62544729
55.62163201
55.61782751
55.61403357
55.61024998
55.60647655
55.60271307
55.59895936
55.59521522
55.59148048
55.58775494
55.58403843
55.58033078
55.57663181
55.57294135
55.56925925
55.56558534
55.56191945
55.55826145
55.55461117
55.55096846
55.54733318
55.54370519
55.54008434
55.5364705
55.53286353
55.5292633
55.52566968
55.52208254
55.51850175
55.51492719
55.51135874
55.50779629
55.50423972
55.5006889
55.49714374
55.49360412
55.49006993
55.48654107
55.48301744
55.47949893
55.47598544
55.47247688
55.46897315
55.46547416
55.4619798
55.45849001
55.45500467
55.45152372
55.44804705
55.4445746
55.44110627
55.43764198
55.43418167
55.43072524
55.42727262
55.42382374
55.42037852
55.4169369
55.4134988
55.41006415
55.40663289
55.40320494
55.39978025
55.39635875
55.39294038
55.38952507
55.38611276
55.3827034
55.37929693
55.37589329
55.37249242
55.36909427
55.36569879
55.36230592
55.35891561
55.35552782
55.35214248
55.34875956
55.34537901
55.34200077
55.3386248
55.33525106
55.33187951
55.32851009
55.32514277
55.32177751
55.31841426
55.31505298
55.31169365
55.3083362
55.30498062
55.30162686
55.29827489
55.29492466
55.29157615
55.28822933
55.28488415
55.28154058
55.2781986
55.27485817
55.27151926
55.26818184
55.26484588
55.26151135
55.25817822
55.25484647
55.25151607
55.24818698
55.24485919
55.24153267
55.23820738
55.23488332
55.23156045
55.22823875
55.22491819
55.22159876
55.21828043
55.21496317
55.21164698
55.20833182
55.20501767
55.20170452
55.19839234
55.19508112
55.19177083
55.18846146
55.18515299
55.1818454
55.17853867
55.17523279
55.17192774
55.16862349
55.16532005
55.16201738
55.15871548
55.15541433
55.15211391
55.1488142
55.14551521
55.1422169
55.13891927
55.1356223
55.13232598
55.1290303
55.12573524
55.12244079
55.11914694
55.11585368
55.11256099
55.10926887
55.1059773
55.10268626
55.09939576
55.09610578
55.0928163
55.08952733
55.08623884
55.08295083
55.07966329
55.07637621
55.07308958
55.06980339
55.06651763
55.0632323
55.05994738
55.05666287
55.05337875
55.05009503
55.04681169
55.04352872
55.04024612
55.03696388
55.033682
55.03040045
55.02711925
55.02383838
55.02055783
55.0172776
55.01399769
55.01071808
55.00743876
55.00415975
55.00088102
54.99760257
54.99432439
54.99104649
54.98776885
54.98449147
54.98121435
54.97793748
54.97466085
54.97138445
54.9681083
54.96483237
54.96155667
54.95828119
54.95500592
54.95173087
54.94845602
54.94518137
54.94190693
54.93863268
54.93535862
54.93208475
54.92881106
54.92553755
54.92226422
54.91899106
54.91571807
54.91244525
54.90917259
54.90590008
54.90262773
54.89935554
54.89608349
54.89281159
54.88953984
54.88626822
54.88299675
54.8797254
54.87645419
54.87318311
54.86991216
54.86664133
54.86337063
54.86010004
54.85682957
54.85355921
54.85028897
54.84701883
54.84374881
54.84047889
54.83720907
54.83393936
54.83066974
54.82740022
54.8241308
54.82086147
54.81759223
54.81432308
54.81105402
54.80778505
54.80451616
54.80124735
54.79797863
54.79470998
54.79144141
54.78817292
54.78490451
54.78163616
54.77836789
54.77509969
54.77183156
54.7685635
54.7652955
54.76202757
54.75875971
54.75549191
54.75222416
54.74895649
54.74568887
54.7424213
54.7391538
54.73588635
54.73261896
54.72935163
54.72608435
54.72281712
54.71954994
54.71628281
54.71301574
54.70974871
54.70648173
54.7032148
54.69994792
54.69668109
54.6934143
54.69014755
54.68688085
54.68361419
54.68034758
54.677081
54.67381447
54.67054798
54.66728152
54.6640151
54.66074872
54.65748236
54.65421603
54.65094971
54.64768339
54.64441706
54.64115069
54.64115069
56.49819485
56.49819485
56.25285189
56.20536384
56.18354407
56.16843313
56.15607472
56.1451194
56.13498468
56.12538595
56.11617344
56.10726409
56.09860946
56.09017956
56.08195437
56.07391926
56.06606259
56.05837436
56.05084557
56.04346789
56.03623349
56.02913495
56.02216527
56.01531783
56.00858641
56.00196514
55.99544853
55.98903144
55.98270907
55.97647692
55.97033079
55.96426677
55.95828119
55.95237063
55.94653189
55.94076197
55.93505805
55.92941749
55.92383783
55.91831672
55.91285198
55.90744154
55.90208344
55.89677585
55.89151702
55.8863053
55.88113913
55.87601702
55.87093757
55.86589944
55.86090135
55.85594209
55.8510205
55.84613548
55.84128598
55.83647098
55.83168952
55.82694068
55.82222358
55.81753736
55.81288121
55.80825434
55.80365602
55.7990855
55.7945421
55.79002515
55.78553399
55.78106801
55.7766266
55.77220919
55.7678152
55.76344409
55.75909535
55.75476846
55.75046293
55.74617827
55.74191404
55.73766977