# vtk DataFile Version 2.0
FlowField
ASCII
DATASET STRUCTURED_GRID
DIMENSIONS 400 1 200
POINTS 80000 float
0 0 0
0.08 0 0
0.16 0 0
0.24 0 0
0.32 0 0
0.4 0 0
0.48 0 0
0.56 0 0
0.64 0 0
0.72 0 0
0.8 0 0
0.88 0 0
0.96 0 0
1.04 0 0
1.12 0 0
1.2 0 0
1.28 0 0
1.36 0 0
1.44 0 0
1.52 0 0
1.6 0 0
1.68 0 0
1.76 0 0
1.84 0 0
1.92 0 0
2 0 0
2.08 0 0
2.16 0 0
2.24 0 0
2.32 0 0
2.4 0 0
2.48 0 0
2.56 0 0
2.64 0 0
2.72 0 0
2.8 0 0
2.88 0 0
2.96 0 0
3.04 0 0
3.12 0 0
3.2 0 0
3.28 0 0
3.36 0 0
3.44 0 0
3.52 0 0
3.6 0 0
3.68 0 0
3.76 0 0
3.84 0 0
3.92 0 0
4 0 0
4.08 0 0
4.16 0 0
4.24 0 0
4.32 0 0
4.4 0 0
4.48 0 0
4.56 0 0
4.64 0 0
4.72 0 0
4.8 0 0
4.88 0 0
4.96 0 0
5.04 0 0
5.12 0 0
5.2 0 0
5.28 0 0
5.36 0 0
5.44 0 0
5.52 0 0
5.6 0 0
5.68 0 0
5.76 0 0
5.84 0 0
5.92 0 0
6 0 0
6.08 0 0
6.16 0 0
6.24 0 0
6.32 0 0
6.4 0 0
6.48 0 0
6.56 0 0
6.64 0 0
6.72 0 0
6.8 0 0
6.88 0 0
6.96 0 0
7.04 0 0
7.12 0 0
7.2 0 0
7.28 0 0
7.36 0 0
7.44 0 0
7.52 0 0
7.6 0 0
7.68 0 0
7.76 0 0
7.84 0 0
7.92 0 0
8 0 0
8.08 0 0
8.16 0 0
8.24 0 0
8.32 0 0
8.4 0 0
8.48 0 0
8.56 0 0
8.64 0 0
8.72 0 0
8.8 0 0
8.88 0 0
8.96 0 0
9.04 0 0
9.12 0 0
9.2 0 0
9.28 0 0
9.36 0 0
9.44 0 0
9.52 0 0
9.6 0 0
9.68 0 0
9.76 0 0
9.84 0 0
9.92 0 0
10 0 0
10.08 0 0
10.16 0 0
10.24 0 0
10.32 0 0
10.4 0 0
10.48 0 0
10.56 0 0
10.64 0 0
10.72 0 0
10.8 0 0
10.88 0 0
10.96 0 0
11.04 0 0
11.12 0 0
11.2 0 0
11.28 0 0
11.36 0 0
11.44 0 0
11.52 0 0
11.6 0 0
11.68 0 0
11.76 0 0
11.84 0 0
11.92 0 0
12 0 0
12.08 0 0
12.16 0 0
12.24 0 0
12.32 0 0
12.4 0 0
12.48 0 0
12.56 0 0
12.64 0 0
12.72 0 0
12.8 0 0
12.88 0 0
12.96 0 0
13.04 0 0
13.12 0 0
13.2 0 0
13.28 0 0
13.36 0 0
13.44 0 0
13.52 0 0
13.6 0 0
13.68 0 0
13.76 0 0
13.84 0 0
13.92 0 0
14 0 0
14.08 0 0
14.16 0 0
14.24 0 0
14.32 0 0
14.4 0 0
14.48 0 0
14.56 0 0
14.64 0 0
14.72 0 0
14.8 0 0
14.88 0 0
14.96 0 0
15.04 0 0
15.12 0 0
15.2 0 0
15.28 0 0
15.36 0 0
15.44 0 0
15.52 0 0
15.6 0 0
15.68 0 0
15.76 0 0
15.84 0 0
15.92 0 0
16 0 0
16.08 0 0
16.16 0 0
16.24 0 0
16.32 0 0
16.4 0 0
16.48 0 0
16.56 0 0
16.64 0 0
16.72 0 0
16.8 0 0
16.88 0 0
16.96 0 0
17.04 0 0
17.12 0 0
17.2 0 0
17.28 0 0
17.36 0 0
17.44 0 0
17.52 0 0
17.6 0 0
17.68 0 0
17.76 0 0
17.84 0 0
17.92 0 0
18 0 0
18.08 0 0
18.16 0 0
18.24 0 0
18.32 0 0
18.4 0 0
18.48 0 0
18.56 0 0
18.64 0 0
18.72 0 0
18.8 0 0
18.88 0 0
18.96 0 0
19.04 0 0
19.12 0 0
19.2 0 0
19.28 0 0
19.36 0 0
19.44 0 0
19.52 0 0
19.6 0 0
19.68 0 0
19.76 0 0
19.84 0 0
19.92 0 0
20 0 0
20.08 0 0
20.16 0 0
20.24 0 0
20.32 0 0
20.4 0 0
20.48 0 0
20.56 0 0
20.64 0 0
20.72 0 0
20.8 0 0
20.88 0 0
20.96 0 0
21.04 0 0
21.12 0 0
21.2 0 0
21.28 0 0
21.36 0 0
21.44 0 0
21.52 0 0
21.6 0 0
21.68 0 0
21.76 0 0
21.84 0 0
21.92 0 0
22 0 0
22.08 0 0
22.16 0 0
22.24 0 0
22.32 0 0
22.4 0 0
22.48 0 0
22.56 0 0
22.64 0 0
22.72 0 0
22.8 0 0
22.88 0 0
22.96 0 0
23.04 0 0
23.12 0 0
23.2 0 0
23.28 0 0
23.36 0 0
23.44 0 0
23.52 0 0
23.6 0 0
23.68 0 0
23.76 0 0
23.84 0 0
23.92 0 0
24 0 0
24.08 0 0
24.16 0 0
24.24 0 0
24.32 0 0
24.4 0 0
24.48 0 0
24.56 0 0
24.64 0 0
24.72 0 0
24.8 0 0
24.88 0 0
24.96 0 0
25.04 0 0
25.12 0 0
25.2 0 0
25.28 0 0
25.36 0 0
25.44 0 0
25.52 0 0
25.6 0 0
25.68 0 0
25.76 0 0
25.84 0 0
25.92 0 0
26 0 0
26.08 0 0
26.16 0 0
26.24 0 0
26.32 0 0
26.4 0 0
26.48 0 0
26.56 0 0
26.64 0 0
26.72 0 0
26.8 0 0
26.88 0 0
26.96 0 0
27.04 0 0
27.12 0 0
27.2 0 0
27.28 0 0
27.36 0 0
27.44 0 0
27.52 0 0
27.6 0 0
27.68 0 0
27.76 0 0
27.84 0 0
27.92 0 0
28 0 0
28.08 0 0
28.16 0 0
28.24 0 0
28.32 0 0
28.4 0 0
28.48 0 0
28.56 0 0
28.64 0 0
28.72 0 0
28.8 0 0
28.88 0 0
28.96 0 0
29.04 0 0
29.12 0 0
29.2 0 0
29.28 0 0
29.36 0 0
29.44 0 0
29.52 0 0
29.6 0 0
29.68 0 0
29.76 0 0
29.84 0 0
29.92 0 0
30 0 0
30.08 0 0
30.16 0 0
30.24 0 0
30.32 0 0
30.4 0 0
30.48 0 0
30.56 0 0
30.64 0 0
30.72 0 0
30.8 0 0
30.88 0 0
30.96 0 0
31.04 0 0
31.12 0 0
31.2 0 0
31.28 0 0
31.36 0 0
31.44 0 0
31.52 0 0
31.6 0 0
31.68 0 0
31.76 0 0
31.84 0 0
31.92 0 0
0 0.005 0
0.08 0.005 0
0.16 0.005 0
0.24 0.005 0
0.32 0.005 0
0.4 0.005 0
0.48 0.005 0
0.56 0.005 0
0.64 0.005 0
0.72 0.005 0
0.8 0.005 0
0.88 0.005 0
0.96 0.005 0
1.04 0.005 0
1.12 0.005 0
1.2 0.005 0
1.28 0.005 0
1.36 0.005 0
1.44 0.005 0
1.52 0.005 0
1.6 0.005 0
1.68 0.005 0
1.76 0.005 0
1.84 0.005 0
1.92 0.005 0
2 0.005 0
2.08 0.005 0
2.16 0.005 0
2.24 0.005 0
2.32 0.005 0
2.4 0.005 0
2.48 0.005 0
2.56 0.005 0
2.64 0.005 0
2.72 0.005 0
2.8 0.005 0
2.88 0.005 0
2.96 0.005 0
3.04 0.005 0
3.12 0.005 0
3.2 0.005 0
3.28 0.005 0
3.36 0.005 0
3.44 0.005 0
3.52 0.005 0
3.6 0.005 0
3.68 0.005 0
3.76 0.005 0
3.84 0.005 0
3.92 0.005 0
4 0.005 0
4.08 0.005 0
4.16 0.005 0
4.24 0.005 0
4.32 0.005 0
4.4 0.005 0
4.48 0.005 0
4.56 0.005 0
4.64 0.005 0
4.72 0.005 0
4.8 0.005 0
4.88 0.005 0
4.96 0.005 0
5.04 0.005 0
5.12 0.005 0
5.2 0.005 0
5.28 0.005 0
5.36 0.005 0
5.44 0.005 0
5.52 0.005 0
5.6 0.005 0
5.68 0.005 0
5.76 0.005 0
5.84 0.005 0
5.92 0.005 0
6 0.005 0
6.08 0.005 0
6.16 0.005 0
6.24 0.005 0
6.32 0.005 0
6.4 0.005 0
6.48 0.005 0
6.56 0.005 0
6.64 0.005 0
6.72 0.005 0
6.8 0.005 0
6.88 0.005 0
6.96 0.005 0
7.04 0.005 0
7.12 0.005 0
7.2 0.005 0
7.28 0.005 0
7.36 0.005 0
7.44 0.005 0
7.52 0.005 0
7.6 0.005 0
7.68 0.005 0
7.76 0.005 0
7.84 0.005 0
7.92 0.005 0
8 0.005 0
8.08 0.005 0
8.16 0.005 0
8.24 0.005 0
8.32 0.005 0
8.4 0.005 0
8.48 0.005 0
8.56 0.005 0
8.64 0.005 0
8.72 0.005 0
8.8 0.005 0
8.88 0.005 0
8.96 0.005 0
9.04 0.005 0
9.12 0.005 0
9.2 0.005 0
9.28 0.005 0
9.36 0.005 0
9.44 0.005 0
9.52 0.005 0
9.6 0.005 0
9.68 0.005 0
9.76 0.005 0
9.84 0.005 0
9.92 0.005 0
10 0.005 0
10.08 0.005 0
10.16 0.005 0
10.24 0.005 0
10.32 0.005 0
10.4 0.005 0
10.48 0.005 0
10.56 0.005 0
10.64 0.005 0
10.72 0.005 0
10.8 0.005 0
10.88 0.005 0
10.96 0.005 0
11.04 0.005 0
11.12 0.005 0
11.2 0.005 0
11.28 0.005 0
11.36 0.005 0
11.44 0.005 0
11.52 0.005 0
11.6 0.005 0
11.68 0.005 0
11.76 0.005 0
11.84 0.005 0
11.92 0.005 0
12 0.005 0
12.08 0.005 0
12.16 0.005 0
12.24 0.005 0
12.32 0.005 0
12.4 0.005 0
12.48 0.005 0
12.56 0.005 0
12.64 0.005 0
12.72 0.005 0
12.8 0.005 0
12.88 0.005 0
12.96 0.005 0
13.04 0.005 0
13.12 0.005 0
13.2 0.005 0
13.28 0.005 0
13.36 0.005 0
13.44 0.005 0
13.52 0.005 0
13.6 0.005 0
13.68 0.005 0
13.76 0.005 0
13.84 0.005 0
13.92 0.005 0
14 0.005 0
14.08 0.005 0
14.16 0.005 0
14.24 0.005 0
14.32 0.005 0
14.4 0.005 0
14.48 0.005 0
14.56 0.005 0
14.64 0.005 0
14.72 0.005 0
14.8 0.005 0
14.88 0.005 0
14.96 0.005 0
15.04 0.005 0
15.12 0.005 0
15.2 0.005 0
15.28 0.005 0
15.36 0.005 0
15.44 0.005 0
15.52 0.005 0
15.6 0.005 0
15.68 0.005 0
15.76 0.005 0
15.84 0.005 0
15.92 0.005 0
16 0.005 0
16.08 0.005 0
16.16 0.005 0
16.24 0.005 0
16.32 0.005 0
16.4 0.005 0
16.48 0.005 0
16.56 0.005 0
16.64 0.005 0
16.72 0.005 0
16.8 0.005 0
16.88 0.005 0
16.96 0.005 0
17.04 0.005 0
17.12 0.005 0
17.2 0.005 0
17.28 0.005 0
17.36 0.005 0
17.44 0.005 0
17.52 0.005 0
17.6 0.005 0
17.68 0.005 0
17.76 0.005 0
17.84 0.005 0
17.92 0.005 0
18 0.005 0
18.08 0.005 0
18.16 0.005 0
18.24 0.005 0
18.32 0.005 0
18.4 0.005 0
18.48 0.005 0
18.56 0.005 0
18.64 0.005 0
18.72 0.005 0
18.8 0.005 0
18.88 0.005 0
18.96 0.005 0
19.04 0.005 0
19.12 0.005 0
19.2 0.005 0
19.28 0.005 0
19.36 0.005 0
19.44 0.005 0
19.52 0.005 0
19.6 0.005 0
19.68 0.005 0
19.76 0.005 0
19.84 0.005 0
19.92 0.005 0
20 0.005 0
20.08 0.005 0
20.16 0.005 0
20.24 0.005 0
20.32 0.005 0
20.4 0.005 0
20.48 0.005 0
20.56 0.005 0
20.64 0.005 0
20.72 0.005 0
20.8 0.005 0
20.88 0.005 0
20.96 0.005 0
21.04 0.005 0
21.12 0.005 0
21.2 0.005 0
21.28 0.005 0
21.36 0.005 0
21.44 0.005 0
21.52 0.005 0
21.6 0.005 0
21.68 0.005 0
21.76 0.005 0
21.84 0.005 0
21.92 0.005 0
22 0.005 0
22.08 0.005 0
22.16 0.005 0
22.24 0.005 0
22.32 0.005 0
22.4 0.005 0
22.48 0.005 0
22.56 0.005 0
22.64 0.005 0
22.72 0.005 0
22.8 0.005 0
22.88 0.005 0
22.96 0.005 0
23.04 0.005 0
23.12 0.005 0
23.2 0.005 0
23.28 0.005 0
23.36 0.005 0
23.44 0.005 0
23.52 0.005 0
23.6 0.005 0
23.68 0.005 0
23.76 0.005 0
23.84 0.005 0
23.92 0.005 0
24 0.005 0
24.08 0.005 0
24.16 0.005 0
24.24 0.005 0
24.32 0.005 0
24.4 0.005 0
24.48 0.005 0
24.56 0.005 0
24.64 0.005 0
24.72 0.005 0
24.8 0.005 0
24.88 0.005 0
24.96 0.005 0
25.04 0.005 0
25.12 0.005 0
25.2 0.005 0
25.28 0.005 0
25.36 0.005 0
25.44 0.005 0
25.52 0.005 0
25.6 0.005 0
25.68 0.005 0
25.76 0.005 0
25.84 0.005 0
25.92 0.005 0
26 0.005 0
26.08 0.005 0
26.16 0.005 0
26.24 0.005 0
26.32 0.005 0
26.4 0.005 0
26.48 0.005 0
26.56 0.005 0
26.64 0.005 0
26.72 0.005 0
26.8 0.005 0
26.88 0.005 0
26.96 0.005 0
27.04 0.005 0
27.12 0.005 0
27.2 0.005 0
27.28 0.005 0
27.36 0.005 0
27.44 0.005 0
27.52 0.005 0
27.6 0.005 0
27.68 0.005 0
27.76 0.005 0
27.84 0.005 0
27.92 0.005 0
28 0.005 0
28.08 0.005 0
28.16 0.005 0
28.24 0.005 0
28.32 0.005 0
28.4 0.005 0
28.48 0.005 0
28.56 0.005 0
28.64 0.005 0
28.72 0.005 0
28.8 0.005 0
28.88 0.005 0
28.96 0.005 0
29.04 0.005 0
29.12 0.005 0
29.2 0.005 0
29.28 0.005 0
29.36 0.005 0
29.44 0.005 0
29.52 0.005 0
29.6 0.005 0
29.68 0.005 0
29.76 0.005 0
29.84 0.005 0
29.92 0.005 0
30 0.005 0
30.08 0.005 0
30.16 0.005 0
30.24 0.005 0
30.32 0.005 0
30.4 0.005 0
30.48 0.005 0
30.56 0.005 0
30.64 0.005 0
30.72 0.005 0
30.8 0.005 0
30.88 0.005 0
30.96 0.005 0
31.04 0.005 0
31.12 0.005 0
31.2 0.005 0
31.28 0.005 0
31.36 0.005 0
31.44 0.005 0
31.52 0.005 0
31.6 0.005 0
31.68 0.005 0
31.76 0.005 0
31.84 0.005 0
31.92 0.005 0
0 0.01 0
0.08 0.01 0
0.16 0.01 0
0.24 0.01 0
0.32 0.01 0
0.4 0.01 0
0.48 0.01 0
0.56 0.01 0
0.64 0.01 0
0.72 0.01 0
0.8 0.01 0
0.88 0.01 0
0.96 0.01 0
1.04 0.01 0
1.12 0.01 0
1.2 0.01 0
1.28 0.01 0
1.36 0.01 0
1.44 0.01 0
1.52 0.01 0
1.6 0.01 0
1.68 0.01 0
1.76 0.01 0
1.84 0.01 0
1.92 0.01 0
2 0.01 0
2.08 0.01 0
2.16 0.01 0
2.24 0.01 0
2.32 0.01 0
2.4 0.01 0
2.48 0.01 0
2.56 0.01 0
2.64 0.01 0
2.72 0.01 0
2.8 0.01 0
2.88 0.01 0
2.96 0.01 0
3.04 0.01 0
3.12 0.01 0
3.2 0.01 0
3.28 0.01 0
3.36 0.01 0
3.44 0.01 0
3.52 0.01 0
3.6 0.01 0
3.68 0.01 0
3.76 0.01 0
3.84 0.01 0
3.92 0.01 0
4 0.01 0
4.08 0.01 0
4.16 0.01 0
4.24 0.01 0
4.32 0.01 0
4.4 0.01 0
4.48 0.01 0
4.56 0.01 0
4.64 0.01 0
4.72 0.01 0
4.8 0.01 0
4.88 0.01 0
4.96 0.01 0
5.04 0.01 0
5.12 0.01 0
[...]
POINT_DATA 80000

SCALARS u float 1
LOOKUP_TABLE default
0
-0.1316625608
-0.06826904075
-0.052295765
-0.04441960088
-0.03957646039
-0.03625933854
-0.0338322716
-0.03197226753
-0.03049556578
-0.02928947457
-0.02828115334
-0.02742163939
-0.02667698077
-0.02602300776
-0.02544210811
-0.02492116927
-0.02445023031
-0.02402157963
-0.02362914001
-0.02326804252
-0.02293432685
-0.02262472719
-0.02233651719
-0.02206739577
-0.02181540196
-0.02157885033
-0.02135628134
-0.02114642267
-0.02094815861
-0.0207605057
-0.02058259285
-0.02041364525
-0.02025297103
-0.02009995011
-0.01995402494
-0.01981469266
-0.01968149836
-0.01955402946
-0.01943191077
-0.01931480029
-0.01920238558
-0.01909438058
-0.0189905228
-0.01889057098
-0.0187943029
-0.01870151355
-0.01861201344
-0.01852562719
-0.01844219216
-0.01836155737
-0.0182835824
-0.01820813653
-0.01813509786
-0.0180643526
-0.01799579439
-0.01792932371
-0.0178648473
-0.01780227772
-0.01774153286
-0.01768253554
-0.01762521315
-0.01756949734
-0.01751532365
-0.01746263126
-0.01741136277
-0.01736146389
-0.01731288329
-0.01726557236
-0.01721948503
-0.01717457762
-0.01713080869
-0.01708813885
-0.01704653068
-0.01700594857
-0.01696635863
-0.01692772857
-0.0168900276
-0.01685322637
-0.01681729682
-0.01678221218
-0.01674794684
-0.01671447629
-0.01668177709
-0.01664982676
-0.01661860379
-0.01658808751
-0.0165582581
-0.01652909652
-0.01650058448
-0.01647270439
-0.01644543933
-0.01641877301
-0.01639268974
-0.01636717439
-0.01634221239
-0.01631778966
-0.01629389263
-0.01627050819
-0.01624762365
-0.01622522676
-0.01620330569
-0.01618184894
-0.01616084543
-0.0161402844
-0.01612015542
-0.01610044839
-0.01608115352
-0.01606226129
-0.01604376247
-0.01602564811
-0.01600790949
-0.01599053817
-0.01597352592
-0.01595686473
-0.01594054685
-0.01592456468
-0.01590891088
-0.01589357826
-0.01587855985
-0.01586384883
-0.01584943858
-0.01583532263
-0.01582149468
-0.01580794859
-0.01579467837
-0.01578167816
-0.01576894226
-0.01575646509
-0.01574424124
-0.01573226537
-0.01572053232
-0.01570903701
-0.01569777451
-0.01568673997
-0.01567592867
-0.015665336
-0.01565495745
-0.0156447886
-0.01563482514
-0.01562506286
-0.01561549763
-0.01560612541
-0.01559694226
-0.01558794431
-0.0155791278
-0.01557048902
-0.01556202436
-0.01555373029
-0.01554560332
-0.01553764008
-0.01552983725
-0.01552219157
-0.01551469987
-0.01550735903
-0.015500166
-0.0154931178
-0.0154862115
-0.01547944424
-0.01547281322
-0.01546631568
-0.01545994895
-0.01545371038
-0.01544759739
-0.01544160746
-0.01543573811
-0.01542998691
-0.0154243515
-0.01541882953
-0.01541341872
-0.01540811685
-0.01540292173
-0.0153978312
-0.01539284317
-0.01538795557
-0.01538316639
-0.01537847365
-0.01537387542
-0.01536936978
-0.01536495489
-0.01536062892
-0.01535639008
-0.01535223662
-0.01534816683
-0.01534417902
-0.01534027155
-0.0153364428
-0.01533269119
-0.01532901517
-0.01532541322
-0.01532188385
-0.0153184256
-0.01531503703
-0.01531171676
-0.0153084634
-0.0153052756
-0.01530215204
-0.01529909143
-0.01529609249
-0.01529315399
-0.01529027469
-0.01528745341
-0.01528468897
-0.01528198021
-0.01527932602
-0.01527672529
-0.01527417694
-0.01527167991
-0.01526923316
-0.0152668357
-0.01526448653
-0.01526218469
-0.01525992925
-0.01525771928
-0.01525555391
-0.01525343226
-0.01525135351
-0.01524931685
-0.01524732149
-0.01524536668
-0.0152434517
-0.01524157584
-0.01523973843
-0.01523793883
-0.01523617643
-0.01523445064
-0.0152327609
-0.01523110668
-0.01522948747
-0.0152279028
-0.01522635222
-0.0152248353
-0.01522335164
-0.01522190085
-0.01522048259
-0.0152190965
-0.01521774227
-0.0152164196
-0.01521512821
-0.01521386782
-0.01521263818
-0.01521143903
-0.01521027014
-0.01520913128
-0.01520802222
-0.01520694274
-0.01520589261
-0.01520487162
-0.01520387954
-0.01520291614
-0.01520198119
-0.01520107445
-0.01520019567
-0.0151993446
-0.01519852096
-0.01519772447
-0.01519695485
-0.01519621178
-0.01519549495
-0.01519480402
-0.01519413864
-0.01519349845
-0.01519288307
-0.01519229211
-0.01519172515
-0.01519118177
-0.01519066154
-0.015190164
-0.01518968868
-0.01518923511
-0.01518880279
-0.01518839123
-0.0151879999
-0.01518762828
-0.01518727585
-0.01518694204
-0.01518662632
-0.01518632813
-0.0151860469
-0.01518578207
-0.01518553307
-0.01518529933
-0.01518508028
-0.01518487534
-0.01518468395
-0.01518450553
-0.01518433953
-0.01518418539
-0.01518404255
-0.01518391049
-0.01518378865
-0.01518367652
-0.01518357359
-0.01518347933
-0.01518339327
-0.01518331493
-0.01518324384
-0.01518317955
-0.01518312163
-0.01518306966
-0.01518302323
-0.01518298195
-0.01518294546
-0.01518291338
-0.01518288538
-0.01518286114
-0.01518284035
-0.01518282272
-0.01518280797
-0.01518279586
-0.01518278614
-0.01518277858
-0.01518277297
-0.01518276911
-0.01518276682
-0.01518276594
-0.0151827663
-0.01518276777
-0.01518277022
-0.01518277353
-0.0151827776
-0.01518278234
-0.01518278764
-0.01518279344
-0.01518279967
-0.01518280626
-0.01518281315
-0.01518282032
-0.0151828277
-0.01518283527
-0.015182843
-0.01518285086
-0.01518285882
-0.01518286688
-0.015182875
-0.01518288319
-0.01518289142
-0.01518289969
-0.015182908
-0.01518291632
-0.01518292467
-0.01518293304
-0.01518294142
-0.01518294982
-0.01518295822
-0.01518296664
-0.01518297506
-0.01518298349
-0.01518299193
-0.01518300037
-0.01518300882
-0.01518301728
-0.01518302574
-0.01518303421
-0.01518304267
-0.01518305116
-0.01518305963
-0.01518306813
-0.01518307661
-0.01518308512
-0.01518309362
-0.01518310214
-0.01518311064
-0.01518311917
-0.01518312768
-0.01518313622
-0.01518314474
-0.0151831533
-0.01518316182
-0.01518317039
-0.01518317891
-0.0151831875
-0.01518319602
-0.01518320463
-0.01518321315
-0.01518322178
-0.01518323029
-0.01518323894
-0.01518324744
-0.0151832561
-0.0151832646
-0.01518327328
-0.01518328177
-0.01518329045
-0.01518329896
-0.01518330762
-0.01518331616
-0.01518332477
-0.01518333343
-0.01518334189
-0.01518335085
-0.01518335897
-0.01518336865
-0.01518337592
-0.01518338732
-0.01518339178
-0.0151834071
-0.01518339211
-0.01518339211
-0.01518339211
1
0.1316625608
0.06826904075
0.052295765
0.04441960088
0.03957646039
0.03625933854
0.0338322716
0.03197226753
0.03049556578
0.02928947457
0.02828115334
0.02742163939
0.02667698077
0.02602300776
0.02544210811
0.02492116927
0.02445023031
0.02402157963
0.02362914001
0.02326804252
0.02293432685
0.02262472719
0.02233651719
0.02206739577
0.02181540196
0.02157885033
0.02135628134
0.02114642267
0.02094815861
0.0207605057
0.02058259285
0.02041364525
0.02025297103
0.02009995011
0.01995402494
0.01981469266
0.01968149836
0.01955402946
0.01943191077
0.01931480029
0.01920238558
0.01909438058
0.0189905228
0.01889057098
0.0187943029
0.01870151355
0.01861201344
0.01852562719
0.01844219216
0.01836155737
0.0182835824
0.01820813653
0.01813509786
0.0180643526
0.01799579439
0.01792932371
0.0178648473
0.01780227772
0.01774153286
0.01768253554
0.01762521315
0.01756949734
0.01751532365
0.01746263126
0.01741136277
0.01736146389
0.01731288329
0.01726557236
0.01721948503
0.01717457762
0.01713080869
0.01708813885
0.01704653068
0.01700594857
0.01696635863
0.01692772857
0.0168900276
0.01685322637
0.01681729682
0.01678221218
0.01674794684
0.01671447629
0.01668177709
0.01664982676
0.01661860379
0.01658808751
0.0165582581
0.01652909652
0.01650058448
0.01647270439
0.01644543933
0.01641877301
0.01639268974
0.01636717439
0.01634221239
0.01631778966
0.01629389263
0.01627050819
0.01624762365
0.01622522676
0.01620330569
0.01618184894
0.01616084543
0.0161402844
0.01612015542
0.01610044839
0.01608115352
0.01606226129
0.01604376247
0.01602564811
0.01600790949
0.01599053817
0.01597352592
0.01595686473
0.01594054685
0.01592456468
0.01590891088
0.01589357826
0.01587855985
0.01586384883
0.01584943858
0.01583532263
0.01582149468
0.01580794859
0.01579467837
0.01578167816
0.01576894226
0.01575646509
0.01574424124
0.01573226537
0.01572053232
0.01570903701
0.01569777451
0.01568673997
0.01567592867
0.015665336
0.01565495745
0.0156447886
0.01563482514
0.01562506286
0.01561549763
0.01560612541
0.01559694226
0.01558794431
0.0155791278
0.01557048902
0.01556202436
0.01555373029
0.01554560332
0.01553764008
0.01552983725
0.01552219157
0.01551469987
0.01550735903
0.015500166
0.0154931178
0.0154862115
0.01547944424
0.01547281322
0.01546631568
0.01545994895
0.01545371038
0.01544759739
0.01544160746
0.01543573811
0.01542998691
0.0154243515
0.01541882953
0.01541341872
0.01540811685
0.01540292173
0.0153978312
0.01539284317
0.01538795557
0.01538316639
0.01537847365
0.01537387542
0.01536936978
0.01536495489
0.01536062892
0.01535639008
0.01535223662
0.01534816683
0.01534417902
0.01534027155
0.0153364428
0.01533269119
0.01532901517
0.01532541322
0.01532188385
0.0153184256
0.01531503703
0.01531171676
0.0153084634
0.0153052756
0.01530215204
0.01529909143
0.01529609249
0.01529315399
0.01529027469
0.01528745341
0.01528468897
0.01528198021
0.01527932602
0.01527672529
0.01527417694
0.01527167991
0.01526923316
0.0152668357
0.01526448653
0.01526218469
0.01525992925
0.01525771928
0.01525555391
0.01525343226
0.01525135351
0.01524931685
0.01524732149
0.01524536668
0.0152434517
0.01524157584
0.01523973843
0.01523793883
0.01523617643
0.01523445064
0.0152327609
0.01523110668
0.01522948747
0.0152279028
0.01522635222
0.0152248353
0.01522335164
0.01522190085
0.01522048259
0.0152190965
0.01521774227
0.0152164196
0.01521512821
0.01521386782
0.01521263818
0.01521143903
0.01521027014
0.01520913128
0.01520802222
0.01520694274
0.01520589261
0.01520487162
0.01520387954
0.01520291614
0.01520198119
0.01520107445
0.01520019567
0.0151993446
0.01519852096
0.01519772447
0.01519695485
0.01519621178
0.01519549495
0.01519480402
0.01519413864
0.01519349845
0.01519288307
0.01519229211
0.01519172515
0.01519118177
0.01519066154
0.015190164
0.01518968868
0.01518923511
0.01518880279
0.01518839123
0.0151879999
0.01518762828
0.01518727585
0.01518694204
0.01518662632
0.01518632813
0.0151860469
0.01518578207
0.01518553307
0.01518529933
0.01518508028
0.01518487534
0.01518468395
0.01518450553
0.01518433953
0.01518418539
0.01518404255
0.01518391049
0.01518378865
0.01518367652
0.01518357359
0.01518347933
0.01518339327
0.01518331493
0.01518324384
0.01518317955
0.01518312163
0.01518306966
0.01518302323
0.01518298195
0.01518294546
0.01518291338
0.01518288538
0.01518286114
0.01518284035
0.01518282272
0.01518280797
0.01518279586
0.01518278614
0.01518277858
0.01518277297
0.01518276911
0.01518276682
0.01518276594
0.0151827663
0.01518276777
0.01518277022
0.01518277353
0.0151827776
0.01518278234
0.01518278764
0.01518279344
0.01518279967
0.01518280626
0.01518281315
0.01518282032
0.0151828277
0.01518283527
0.015182843
0.01518285086
0.01518285882
0.01518286688
0.015182875
0.01518288319
0.01518289142
0.01518289969
0.015182908
0.01518291632
0.01518292467
0.01518293304
0.01518294142
0.01518294982
0.01518295822
0.01518296664
0.01518297506
0.01518298349
0.01518299193
0.01518300037
0.01518300882
0.01518301728
0.01518302574
0.01518303421
0.01518304267
0.01518305116
0.01518305963
0.01518306813
0.01518307661
0.01518308512
0.01518309362
0.01518310214
0.01518311064
0.01518311917
0.01518312768
0.01518313622
0.01518314474
0.0151831533
0.01518316182
0.01518317039
0.01518317891
0.0151831875
0.01518319602
0.01518320463
0.01518321315
0.01518322178
0.01518323029
0.01518323894
0.01518324744
0.0151832561
0.0151832646
0.01518327328
0.01518328177
0.01518329045
0.01518329896
0.01518330762
0.01518331616
0.01518332477
0.01518333343
0.01518334189
0.01518335085
0.01518335897
0.01518336865
0.01518337592
0.01518338732
0.01518339178
0.0151834071
0.01518339211
0.01518339211
0.01518339211
1
0.3448836502
0.2006672471
0.1549666313
0.1318938691
0.1175978219
0.1077670874
0.1005571235
0.09502405596
0.09062810306
0.08703690458
0.08403490643
0.08147679378
0.07926155062
0.07731711632
0.07559089426
0.07404367814
0.07264566148
0.07137375959
0.07020977945
0.06913914883
0.06815002024
0.06723262992
0.06637883248
0.06558175827
0.06483555732
0.06413520521
0.0634763539
0.06285521538
0.06226846987
0.06171319243
0.06118679367
0.06068697124
0.06021166993
0.05975904848
0.05932745173
0.05891538718
0.05852150506
0.05814458136
0.05778350324
0.0574372565
0.05710491466
0.0567856296
0.05647862325
0.05618318046
0.05589864264
0.05562440223
0.05535989778
0.05510460956
0.05485805579
0.05461978914
0.05438939368
0.05416648216
0.05395069355
0.0537416908
0.05353915893
0.05334280317
0.05315234739
0.05296753262
0.05278811572
0.05261386818
0.05244457503
0.05228003383
0.05212005375
0.05196445479
0.05181306692
0.05166572948
0.05152229048
0.05138260601
0.05124653972
0.05111396231
0.05098475107
0.05085878944
0.05073596663
0.05061617725
0.05049932099
0.05038530227
0.05027402998
0.05016541719
0.05005938092
0.04995584188
0.0498547243
0.04975595567
0.04965946658
0.04956519054
0.04947306384
0.04938302534
0.04929501639
0.04920898066
0.049124864
0.04904261438
0.04896218172
0.04888351781
0.04880657624
0.04873131226
0.04865768273
0.04858564603
0.04851516199
0.04844619179
0.04837869795
0.04831264423
0.04824799556
0.04818471802
0.04812277877
0.04806214599
0.04800278887
0.04794467751
0.04788778294
0.04783207703
0.04777753251
0.04772412286
0.04767182234
0.04762060596
0.04757044938
0.04752132898
0.04747322176
0.04742610534
0.04737995796
0.04733475839
0.04729048601
0.0472471207
0.04720464285
0.04716303336
0.04712227362
0.04708234547
0.04704323119
0.0470049135
0.04696737554
0.04693060087
0.04689457341
0.04685927748
0.04682469777
0.04679081932
0.04675762752
0.04672510808
0.04669324707
0.04666203085
0.04663144609
0.04660147977
0.04657211914
0.04654335176
0.04651516545
0.04648754829
0.04646048864
0.04643397509
0.04640799649
0.04638254194
0.04635760076
0.0463331625
0.04630921693
0.04628575406
0.04626276408
0.0462402374
0.04621816464
0.04619653661
0.04617534431
0.04615457892
0.04613423183
0.04611429458
0.0460947589
0.04607561669
0.04605686
0.04603848108
0.0460204723
0.0460028262
0.04598553549
0.04596859301
0.04595199174
0.04593572482
0.04591978552
0.04590416725
0.04588886355
0.04587386809
0.04585917468
0.04584477723
0.0458306698
0.04581684656
0.04580330179
0.04579002988
0.04577702536
0.04576428285
0.04575179708
0.04573956288
0.0457275752
0.04571582909
0.04570431967
0.0456930422
0.04568199201
0.04567116452
0.04566055526
0.04565015984
0.04563997395
0.04562999337
0.04562021397
0.04561063169
0.04560124257
0.04559204271
0.04558302828
0.04557419555
0.04556554085
0.04555706057
0.0455487512
0.04554060927
0.04553263141
0.0455248143
0.04551715468
0.04550964939
0.04550229532
0.04549508942
0.04548802874
0.04548111038
0.04547433151
0.04546768938
0.04546118132
0.04545480473
0.04544855709
0.04544243595
0.04543643895
0.04543056381
0.04542480832
0.04541917037
0.04541364792
0.04540823901
0.04540294179
0.04539775445
0.0453926753
0.04538770271
0.04538283514
0.04537807114
0.04537340931
0.04536884834
0.045364387
0.04536002412
0.04535575858
0.04535158936
0.04534751547
0.04534353598
0.04533965001
0.04533585673
0.04533215534
0.04532854508
0.04532502523
0.04532159506
0.04531825391
0.04531500108
0.04531183591
0.04530875774
0.04530576589
0.04530285969
0.04530003844
0.04529730143
0.04529464793
0.04529207718
0.04528958839
0.04528718075
0.0452848534
0.04528260544
0.04528043593
0.04527834389
0.04527632831
0.04527438813
0.04527252222
0.04527072946
0.04526900863
0.04526735849
0.04526577777
0.04526426513
0.04526281921
0.04526143859
0.04526012185
0.04525886749
0.04525767402
0.04525653988
0.0452554635
0.04525444328
0.04525347759
0.04525256479
0.04525170321
0.04525089119
0.04525012704
0.04524940907
0.04524873559
0.0452481049
0.04524751529
0.04524696508
0.04524645258
0.04524597616
0.04524553415
0.04524512494
0.04524474695
0.04524439858
0.0452440783
0.0452437846
0.04524351599
0.04524327102
0.04524304832
0.04524284651
0.04524266429
0.04524250039
0.04524235359
0.04524222271
0.04524210661
0.0452420042
0.04524191444
0.04524183635
0.045241769
0.04524171149
0.045241663
0.04524162274
0.04524158996
0.04524156397
0.04524154411
0.04524152979
0.04524152042
0.04524151549
0.04524151453
0.04524151709
0.04524152277
0.04524153121
0.04524154207
0.04524155506
0.0452415699
0.04524158634
0.04524160417
0.04524162318
0.04524164321
0.04524166409
0.04524168571
0.04524170794
0.04524173069
0.04524175388
0.04524177742
0.04524180126
0.04524182535
0.04524184964
0.04524187409
0.04524189866
0.04524192335
0.04524194812
0.04524197296
0.04524199786
0.04524202282
0.04524204781
0.04524207284
0.04524209789
0.04524212298
0.04524214808
0.04524217322
0.04524219836
0.04524222354
0.04524224871
0.04524227392
0.04524229913
0.04524232438
0.04524234962
0.0452423749
0.04524240017
0.04524242548
0.04524245078
0.04524247613
0.04524250145
0.04524252684
0.04524255218
0.04524257761
0.04524260297
0.04524262844
0.04524265382
0.04524267933
0.04524270472
0.04524273027
0.04524275567
0.04524278128
0.04524280668
0.04524283233
0.04524285772
0.04524288343
0.04524290881
0.04524293456
0.04524295994
0.04524298573
0.04524301109
0.04524303692
0.04524306227
0.04524308811
0.04524311348
0.04524313928
0.04524316476
0.04524319041
0.0452432162
0.04524324146
0.04524326806
0.04524329243
0.04524332097
0.04524334311
0.04524337628
0.04524339092
0.04524343435
0.04524339761
0.04524339761
0.04524339761
1
0.5187651881
0.3274011971
0.2553467841
0.2178477715
0.1944026575
0.1782107467
0.16630614
0.1571570632
0.1498824597
0.1439375623
0.138967886
0.1347337998
0.131068341
0.1278521803
0.1249980896
0.1224409754
0.1201313131
0.118030731
0.1161089844
0.1143418507
0.1127096425
0.1111961419
0.1097878261
0.1084732965
0.1072428518
0.1060881642
0.1050020309
0.1039781797
0.103011116
0.1020960008
0.1012285514
0.1004049613
0.09962183351
0.09887612532
0.09816510219
0.0974862988
0.09683748598
0.09621664255
0.09562193117
0.09505167755
0.09450435243
0.09397855596
0.09347300411
0.09298651675
0.09251800717
0.09206647294
0.09163098775
0.09121069423
0.0908047976
0.09041255997
0.0900332953
0.08966636487
0.08931117321
0.08896716449
0.08863381921
0.08831065128
0.08799720536
0.08769305438
0.08739779741
0.08711105768
0.08683248072
0.08656173274
0.08629849912
0.08604248305
0.08579340423
0.08555099776
0.08531501305
0.08508521288
0.08486137244
0.08464327857
0.08443072897
0.08422353151
0.08402150353
0.08382447132
0.08363226949
0.0834447405
0.08326173415
0.08308310717
0.08290872275
0.08273845023
0.08257216467
0.08240974657
0.08225108153
0.08209605995
0.08194457682
0.08179653137
0.08165182693
0.08151037065
0.08137207331
0.08123684913
0.08110461559
0.08097529325
0.08084880559
0.08072507889
0.08060404206
0.08048562649
0.08036976599
0.08025639663
0.08014545661
0.08003688622
0.07993062769
0.07982662512
0.0797248244
0.07962517313
0.07952762051
0.07943211731
0.0793386158
0.07924706964
0.07915743389
0.07906966489
0.07898372024
0.07889955874
0.07881714036
0.07873642616
0.07865737826
0.07857995982
0.07850413497
0.07842986881
0.07835712733
0.07828587741
0.07821608678
0.07814772399
0.07808075839
0.07801516007
0.07795089987
0.07788794935
0.07782628076
0.07776586701
0.07770668165
0.07764869888
0.07759189348
0.07753624084
0.07748171691
0.0774282982
0.07737596174
0.07732468511
0.07727444637
0.07722522409
0.07717699732
0.07712974556
0.07708344877
0.07703808736
0.07699364217
0.07695009443
0.07690742581
0.07686561836
0.07682465451
0.0767845171
0.07674518929
0.07670665462
0.076668897
0.07663190064
0.07659565011
0.07656013029
0.07652532639
0.07649122392
0.0764578087
0.07642506683
0.0763929847
0.076361549
0.07633074668
0.07630056496
0.07627099132
0.0762420135
0.07621361949
0.07618579753
0.0761585361
0.0761318239
0.07610564988
0.07608000319
0.07605487323
0.0760302496
0.0760061221
0.07598248075
0.07595931577
0.07593661756
0.07591437675
0.07589258413
0.07587123068
0.07585030756
0.07582980612
0.07580971787
0.07579003451
0.07577074788
0.07575185
0.07573333305
0.07571518937
0.07569741145
0.07567999191
0.07566292355
0.0756461993
0.07562981222
0.07561375553
0.07559802256
0.07558260678
0.0755675018
0.07555270134
0.07553819926
0.07552398953
0.07551006624
0.07549642361
0.07548305596
0.07546995773
0.07545712348
0.0754445479
0.07543222576
0.07542015197
0.07540832156
0.07539672967
0.07538537154
0.07537424257
0.07536333824
0.07535265419