# vtk DataFile Version 2.0
FlowField
ASCII
DATASET STRUCTURED_GRID
DIMENSIONS 400 1 200
POINTS 80000 float
0 0 0
0.08 0 0
0.16 0 0
0.24 0 0
0.32 0 0
0.4 0 0
0.48 0 0
0.56 0 0
0.64 0 0
0.72 0 0
0.8 0 0
0.88 0 0
0.96 0 0
1.04 0 0
1.12 0 0
1.2 0 0
1.28 0 0
1.36 0 0
1.44 0 0
1.52 0 0
1.6 0 0
1.68 0 0
1.76 0 0
1.84 0 0
1.92 0 0
2 0 0
2.08 0 0
2.16 0 0
2.24 0 0
2.32 0 0
2.4 0 0
2.48 0 0
2.56 0 0
2.64 0 0
2.72 0 0
2.8 0 0
2.88 0 0
2.96 0 0
3.04 0 0
3.12 0 0
3.2 0 0
3.28 0 0
3.36 0 0
3.44 0 0
3.52 0 0
3.6 0 0
3.68 0 0
3.76 0 0
3.84 0 0
3.92 0 0
4 0 0
4.08 0 0
4.16 0 0
4.24 0 0
4.32 0 0
4.4 0 0
4.48 0 0
4.56 0 0
4.64 0 0
4.72 0 0
4.8 0 0
4.88 0 0
4.96 0 0
5.04 0 0
5.12 0 0
5.2 0 0
5.28 0 0
5.36 0 0
5.44 0 0
5.52 0 0
5.6 0 0
5.68 0 0
5.76 0 0
5.84 0 0
5.92 0 0
6 0 0
6.08 0 0
6.16 0 0
6.24 0 0
6.32 0 0
6.4 0 0
6.48 0 0
6.56 0 0
6.64 0 0
6.72 0 0
6.8 0 0
6.88 0 0
6.96 0 0
7.04 0 0
7.12 0 0
7.2 0 0
7.28 0 0
7.36 0 0
7.44 0 0
7.52 0 0
7.6 0 0
7.68 0 0
7.76 0 0
7.84 0 0
7.92 0 0
8 0 0
8.08 0 0
8.16 0 0
8.24 0 0
8.32 0 0
8.4 0 0
8.48 0 0
8.56 0 0
8.64 0 0
8.72 0 0
8.8 0 0
8.88 0 0
8.96 0 0
9.04 0 0
9.12 0 0
9.2 0 0
9.28 0 0
9.36 0 0
9.44 0 0
9.52 0 0
9.6 0 0
9.68 0 0
9.76 0 0
9.84 0 0
9.92 0 0
10 0 0
10.08 0 0
10.16 0 0
10.24 0 0
10.32 0 0
10.4 0 0
10.48 0 0
10.56 0 0
10.64 0 0
10.72 0 0
10.8 0 0
10.88 0 0
10.96 0 0
11.04 0 0
11.12 0 0
11.2 0 0
11.28 0 0
11.36 0 0
11.44 0 0
11.52 0 0
11.6 0 0
11.68 0 0
11.76 0 0
11.84 0 0
11.92 0 0
12 0 0
12.08 0 0
12.16 0 0
12.24 0 0
12.32 0 0
12.4 0 0
12.48 0 0
12.56 0 0
12.64 0 0
12.72 0 0
12.8 0 0
12.88 0 0
12.96 0 0
13.04 0 0
13.12 0 0
13.2 0 0
13.28 0 0
13.36 0 0
13.44 0 0
13.52 0 0
13.6 0 0
13.68 0 0
13.76 0 0
13.84 0 0
13.92 0 0
14 0 0
14.08 0 0
14.16 0 0
14.24 0 0
14.32 0 0
14.4 0 0
14.48 0 0
14.56 0 0
14.64 0 0
14.72 0 0
14.8 0 0
14.88 0 0
14.96 0 0
15.04 0 0
15.12 0 0
15.2 0 0
15.28 0 0
15.36 0 0
15.44 0 0
15.52 0 0
15.6 0 0
15.68 0 0
15.76 0 0
15.84 0 0
15.92 0 0
16 0 0
16.08 0 0
16.16 0 0
16.24 0 0
16.32 0 0
16.4 0 0
16.48 0 0
16.56 0 0
16.64 0 0
16.72 0 0
16.8 0 0
16.88 0 0
16.96 0 0
17.04 0 0
17.12 0 0
17.2 0 0
17.28 0 0
17.36 0 0
17.44 0 0
17.52 0 0
17.6 0 0
17.68 0 0
17.76 0 0
17.84 0 0
17.92 0 0
18 0 0
18.08 0 0
18.16 0 0
18.24 0 0
18.32 0 0
18.4 0 0
18.48 0 0
18.56 0 0
18.64 0 0
18.72 0 0
18.8 0 0
18.88 0 0
18.96 0 0
19.04 0 0
19.12 0 0
19.2 0 0
19.28 0 0
19.36 0 0
19.44 0 0
19.52 0 0
19.6 0 0
19.68 0 0
19.76 0 0
19.84 0 0
19.92 0 0
20 0 0
20.08 0 0
20.16 0 0
20.24 0 0
20.32 0 0
20.4 0 0
20.48 0 0
20.56 0 0
20.64 0 0
20.72 0 0
20.8 0 0
20.88 0 0
20.96 0 0
21.04 0 0
21.12 0 0
21.2 0 0
21.28 0 0
21.36 0 0
21.44 0 0
21.52 0 0
21.6 0 0
21.68 0 0
21.76 0 0
21.84 0 0
21.92 0 0
22 0 0
22.08 0 0
22.16 0 0
22.24 0 0
22.32 0 0
22.4 0 0
22.48 0 0
22.56 0 0
22.64 0 0
22.72 0 0
22.8 0 0
22.88 0 0
22.96 0 0
23.04 0 0
23.12 0 0
23.2 0 0
23.28 0 0
23.36 0 0
23.44 0 0
23.52 0 0
23.6 0 0
23.68 0 0
23.76 0 0
23.84 0 0
23.92 0 0
24 0 0
24.08 0 0
24.16 0 0
24.24 0 0
24.32 0 0
24.4 0 0
24.48 0 0
24.56 0 0
24.64 0 0
24.72 0 0
24.8 0 0
24.88 0 0
24.96 0 0
25.04 0 0
25.12 0 0
25.2 0 0
25.28 0 0
25.36 0 0
25.44 0 0
25.52 0 0
25.6 0 0
25.68 0 0
25.76 0 0
25.84 0 0
25.92 0 0
26 0 0
26.08 0 0
26.16 0 0
26.24 0 0
26.32 0 0
26.4 0 0
26.48 0 0
26.56 0 0
26.64 0 0
26.72 0 0
26.8 0 0
26.88 0 0
26.96 0 0
27.04 0 0
27.12 0 0
27.2 0 0
27.28 0 0
27.36 0 0
27.44 0 0
27.52 0 0
27.6 0 0
27.68 0 0
27.76 0 0
27.84 0 0
27.92 0 0
28 0 0
28.08 0 0
28.16 0 0
28.24 0 0
28.32 0 0
28.4 0 0
28.48 0 0
28.56 0 0
28.64 0 0
28.72 0 0
28.8 0 0
28.88 0 0
28.96 0 0
29.04 0 0
29.12 0 0
29.2 0 0
29.28 0 0
29.36 0 0
29.44 0 0
29.52 0 0
29.6 0 0
29.68 0 0
29.76 0 0
29.84 0 0
29.92 0 0
30 0 0
30.08 0 0
30.16 0 0
30.24 0 0
30.32 0 0
30.4 0 0
30.48 0 0
30.56 0 0
30.64 0 0
30.72 0 0
30.8 0 0
30.88 0 0
30.96 0 0
31.04 0 0
31.12 0 0
31.2 0 0
31.28 0 0
31.36 0 0
31.44 0 0
31.52 0 0
31.6 0 0
31.68 0 0
31.76 0 0
31.84 0 0
31.92 0 0
0 0.005 0
0.08 0.005 0
0.16 0.005 0
0.24 0.005 0
0.32 0.005 0
0.4 0.005 0
0.48 0.005 0
0.56 0.005 0
0.64 0.005 0
0.72 0.005 0
0.8 0.005 0
0.88 0.005 0
0.96 0.005 0
1.04 0.005 0
1.12 0.005 0
1.2 0.005 0
1.28 0.005 0
1.36 0.005 0
1.44 0.005 0
1.52 0.005 0
1.6 0.005 0
1.68 0.005 0
1.76 0.005 0
1.84 0.005 0
1.92 0.005 0
2 0.005 0
2.08 0.005 0
2.16 0.005 0
2.24 0.005 0
2.32 0.005 0
2.4 0.005 0
2.48 0.005 0
2.56 0.005 0
2.64 0.005 0
2.72 0.005 0
2.8 0.005 0
2.88 0.005 0
2.96 0.005 0
3.04 0.005 0
3.12 0.005 0
3.2 0.005 0
3.28 0.005 0
3.36 0.005 0
3.44 0.005 0
3.52 0.005 0
3.6 0.005 0
3.68 0.005 0
3.76 0.005 0
3.84 0.005 0
3.92 0.005 0
4 0.005 0
4.08 0.005 0
4.16 0.005 0
4.24 0.005 0
4.32 0.005 0
4.4 0.005 0
4.48 0.005 0
4.56 0.005 0
4.64 0.005 0
4.72 0.005 0
4.8 0.005 0
4.88 0.005 0
4.96 0.005 0
5.04 0.005 0
5.12 0.005 0
5.2 0.005 0
5.28 0.005 0
5.36 0.005 0
5.44 0.005 0
5.52 0.005 0
5.6 0.005 0
5.68 0.005 0
5.76 0.005 0
5.84 0.005 0
5.92 0.005 0
6 0.005 0
6.08 0.005 0
6.16 0.005 0
6.24 0.005 0
6.32 0.005 0
6.4 0.005 0
6.48 0.005 0
6.56 0.005 0
6.64 0.005 0
6.72 0.005 0
6.8 0.005 0
6.88 0.005 0
6.96 0.005 0
7.04 0.005 0
7.12 0.005 0
7.2 0.005 0
7.28 0.005 0
7.36 0.005 0
7.44 0.005 0
7.52 0.005 0
7.6 0.005 0
7.68 0.005 0
7.76 0.005 0
7.84 0.005 0
7.92 0.005 0
8 0.005 0
8.08 0.005 0
8.16 0.005 0
8.24 0.005 0
8.32 0.005 0
8.4 0.005 0
8.48 0.005 0
8.56 0.005 0
8.64 0.005 0
8.72 0.005 0
8.8 0.005 0
8.88 0.005 0
8.96 0.005 0
9.04 0.005 0
9.12 0.005 0
9.2 0.005 0
9.28 0.005 0
9.36 0.005 0
9.44 0.005 0
9.52 0.005 0
9.6 0.005 0
9.68 0.005 0
9.76 0.005 0
9.84 0.005 0
9.92 0.005 0
10 0.005 0
10.08 0.005 0
10.16 0.005 0
10.24 0.005 0
10.32 0.005 0
10.4 0.005 0
10.48 0.005 0
10.56 0.005 0
10.64 0.005 0
10.72 0.005 0
10.8 0.005 0
10.88 0.005 0
10.96 0.005 0
11.04 0.005 0
11.12 0.005 0
11.2 0.005 0
11.28 0.005 0
11.36 0.005 0
11.44 0.005 0
11.52 0.005 0
11.6 0.005 0
11.68 0.005 0
11.76 0.005 0
11.84 0.005 0
11.92 0.005 0
12 0.005 0
12.08 0.005 0
12.16 0.005 0
12.24 0.005 0
12.32 0.005 0
12.4 0.005 0
12.48 0.005 0
12.56 0.005 0
12.64 0.005 0
12.72 0.005 0
12.8 0.005 0
12.88 0.005 0
12.96 0.005 0
13.04 0.005 0
13.12 0.005 0
13.2 0.005 0
13.28 0.005 0
13.36 0.005 0
13.44 0.005 0
13.52 0.005 0
13.6 0.005 0
13.68 0.005 0
13.76 0.005 0
13.84 0.005 0
13.92 0.005 0
14 0.005 0
14.08 0.005 0
14.16 0.005 0
14.24 0.005 0
14.32 0.005 0
14.4 0.005 0
14.48 0.005 0
14.56 0.005 0
14.64 0.005 0
14.72 0.005 0
14.8 0.005 0
14.88 0.005 0
14.96 0.005 0
15.04 0.005 0
15.12 0.005 0
15.2 0.005 0
15.28 0.005 0
15.36 0.005 0
15.44 0.005 0
15.52 0.005 0
15.6 0.005 0
15.68 0.005 0
15.76 0.005 0
15.84 0.005 0
15.92 0.005 0
16 0.005 0
16.08 0.005 0
16.16 0.005 0
16.24 0.005 0
16.32 0.005 0
16.4 0.005 0
16.48 0.005 0
16.56 0.005 0
16.64 0.005 0
16.72 0.005 0
16.8 0.005 0
16.88 0.005 0
16.96 0.005 0
17.04 0.005 0
17.12 0.005 0
17.2 0.005 0
17.28 0.005 0
17.36 0.005 0
17.44 0.005 0
17.52 0.005 0
17.6 0.005 0
17.68 0.005 0
17.76 0.005 0
17.84 0.005 0
17.92 0.005 0
18 0.005 0
18.08 0.005 0
18.16 0.005 0
18.24 0.005 0
18.32 0.005 0
18.4 0.005 0
18.48 0.005 0
18.56 0.005 0
18.64 0.005 0
18.72 0.005 0
18.8 0.005 0
18.88 0.005 0
18.96 0.005 0
19.04 0.005 0
19.12 0.005 0
19.2 0.005 0
19.28 0.005 0
19.36 0.005 0
19.44 0.005 0
19.52 0.005 0
19.6 0.005 0
19.68 0.005 0
19.76 0.005 0
19.84 0.005 0
19.92 0.005 0
20 0.005 0
20.08 0.005 0
20.16 0.005 0
20.24 0.005 0
20.32 0.005 0
20.4 0.005 0
20.48 0.005 0
20.56 0.005 0
20.64 0.005 0
20.72 0.005 0
20.8 0.005 0
20.88 0.005 0
20.96 0.005 0
21.04 0.005 0
21.12 0.005 0
21.2 0.005 0
21.28 0.005 0
21.36 0.005 0
21.44 0.005 0
21.52 0.005 0
21.6 0.005 0
21.68 0.005 0
21.76 0.005 0
21.84 0.005 0
21.92 0.005 0
22 0.005 0
22.08 0.005 0
22.16 0.005 0
22.24 0.005 0
22.32 0.005 0
22.4 0.005 0
22.48 0.005 0
22.56 0.005 0
22.64 0.005 0
22.72 0.005 0
22.8 0.005 0
22.88 0.005 0
22.96 0.005 0
23.04 0.005 0
23.12 0.005 0
23.2 0.005 0
23.28 0.005 0
23.36 0.005 0
23.44 0.005 0
23.52 0.005 0
23.6 0.005 0
23.68 0.005 0
23.76 0.005 0
23.84 0.005 0
23.92 0.005 0
24 0.005 0
24.08 0.005 0
24.16 0.005 0
24.24 0.005 0
24.32 0.005 0
24.4 0.005 0
24.48 0.005 0
24.56 0.005 0
24.64 0.005 0
24.72 0.005 0
24.8 0.005 0
24.88 0.005 0
24.96 0.005 0
25.04 0.005 0
25.12 0.005 0
25.2 0.005 0
25.28 0.005 0
25.36 0.005 0
25.44 0.005 0
25.52 0.005 0
25.6 0.005 0
25.68 0.005 0
25.76 0.005 0
25.84 0.005 0
25.92 0.005 0
26 0.005 0
26.08 0.005 0
26.16 0.005 0
26.24 0.005 0
26.32 0.005 0
26.4 0.005 0
26.48 0.005 0
26.56 0.005 0
26.64 0.005 0
26.72 0.005 0
26.8 0.005 0
26.88 0.005 0
26.96 0.005 0
27.04 0.005 0
27.12 0.005 0
27.2 0.005 0
27.28 0.005 0
27.36 0.005 0
27.44 0.005 0
27.52 0.005 0
27.6 0.005 0
27.68 0.005 0
27.76 0.005 0
27.84 0.005 0
27.92 0.005 0
28 0.005 0
28.08 0.005 0
28.16 0.005 0
28.24 0.005 0
28.32 0.005 0
28.4 0.005 0
28.48 0.005 0
28.56 0.005 0
28.64 0.005 0
28.72 0.005 0
28.8 0.005 0
28.88 0.005 0
28.96 0.005 0
29.04 0.005 0
29.12 0.005 0
29.2 0.005 0
29.28 0.005 0
29.36 0.005 0
29.44 0.005 0
29.52 0.005 0
29.6 0.005 0
29.68 0.005 0
29.76 0.005 0
29.84 0.005 0
29.92 0.005 0
30 0.005 0
30.08 0.005 0
30.16 0.005 0
30.24 0.005 0
30.32 0.005 0
30.4 0.005 0
30.48 0.005 0
30.56 0.005 0
30.64 0.005 0
30.72 0.005 0
30.8 0.005 0
30.88 0.005 0
30.96 0.005 0
31.04 0.005 0
31.12 0.005 0
31.2 0.005 0
31.28 0.005 0
31.36 0.005 0
31.44 0.005 0
31.52 0.005 0
31.6 0.005 0
31.68 0.005 0
31.76 0.005 0
31.84 0.005 0
31.92 0.005 0
0 0.01 0
0.08 0.01 0
0.16 0.01 0
0.24 0.01 0
0.32 0.01 0
0.4 0.01 0
0.48 0.01 0
0.56 0.01 0
0.64 0.01 0
0.72 0.01 0
0.8 0.01 0
0.88 0.01 0
0.96 0.01 0
1.04 0.01 0
1.12 0.01 0
1.2 0.01 0
1.28 0.01 0
1.36 0.01 0
1.44 0.01 0
1.52 0.01 0
1.6 0.01 0
1.68 0.01 0
1.76 0.01 0
1.84 0.01 0
1.92 0.01 0
2 0.01 0
2.08 0.01 0
2.16 0.01 0
2.24 0.01 0
2.32 0.01 0
2.4 0.01 0
2.48 0.01 0
2.56 0.01 0
2.64 0.01 0
2.72 0.01 0
2.8 0.01 0
2.88 0.01 0
2.96 0.01 0
3.04 0.01 0
3.12 0.01 0
3.2 0.01 0
3.28 0.01 0
3.36 0.01 0
3.44 0.01 0
3.52 0.01 0
3.6 0.01 0
3.68 0.01 0
3.76 0.01 0
3.84 0.01 0
3.92 0.01 0
4 0.01 0
4.08 0.01 0
4.16 0.01 0
4.24 0.01 0
4.32 0.01 0
4.4 0.01 0
4.48 0.01 0
4.56 0.01 0
4.64 0.01 0
4.72 0.01 0
4.8 0.01 0
4.88 0.01 0
4.96 0.01 0
5.04 0.01 0
5.12 0.01 0
[...]
POINT_DATA 80000

SCALARS u float 1
LOOKUP_TABLE default
0
-0.1316625604
-0.06826904008
-0.05229576416
-0.04441959991
-0.03957645929
-0.03625933734
-0.0338322703
-0.03197226614
-0.0304955643
-0.02928947302
-0.02828115172
-0.02742163771
-0.02667697902
-0.02602300596
-0.02544210625
-0.02492116735
-0.02445022834
-0.02402157761
-0.02362913794
-0.02326804042
-0.0229343247
-0.02262472501
-0.02233651497
-0.02206739351
-0.02181539967
-0.02157884801
-0.02135627899
-0.02114642028
-0.02094815621
-0.02076050326
-0.02058259039
-0.02041364277
-0.02025296853
-0.02009994759
-0.01995402241
-0.01981469011
-0.01968149579
-0.01955402688
-0.01943190817
-0.01931479768
-0.01920238297
-0.01909437795
-0.01899052017
-0.01889056834
-0.01879430026
-0.01870151091
-0.0186120108
-0.01852562454
-0.01844218952
-0.01836155472
-0.01828357976
-0.0182081339
-0.01813509523
-0.01806434998
-0.01799579179
-0.01792932112
-0.01786484473
-0.01780227516
-0.01774153031
-0.01768253301
-0.01762521065
-0.01756949486
-0.01751532119
-0.01746262883
-0.01741136037
-0.01736146152
-0.01731288096
-0.01726557006
-0.01721948277
-0.01717457541
-0.01713080652
-0.01708813673
-0.01704652861
-0.01700594656
-0.01696635667
-0.01692772668
-0.01689002578
-0.01685322462
-0.01681729515
-0.01678221058
-0.01674794532
-0.01671447486
-0.01668177576
-0.01664982554
-0.01661860267
-0.0165880865
-0.01655825721
-0.01652909576
-0.01650058385
-0.0164727039
-0.01644543899
-0.01641877283
-0.01639268972
-0.01636717455
-0.01634221273
-0.0163177902
-0.01629389338
-0.01627050915
-0.01624762483
-0.01622522819
-0.01620330736
-0.01618185088
-0.01616084765
-0.0161402869
-0.01612015823
-0.01610045152
-0.01608115697
-0.01606226509
-0.01604376664
-0.01602565265
-0.01600791444
-0.01599054353
-0.0159735317
-0.01595687096
-0.01594055354
-0.01592457186
-0.01590891856
-0.01589358646
-0.01587856858
-0.01586385812
-0.01584944845
-0.0158353331
-0.01582150576
-0.01580796031
-0.01579469073
-0.01578169119
-0.01576895598
-0.01575647953
-0.0157442564
-0.01573228128
-0.01572054898
-0.01570905445
-0.01569779274
-0.01568675901
-0.01567594853
-0.0156653567
-0.01565497899
-0.015644811
-0.01563484841
-0.01562508701
-0.01561552266
-0.01560615133
-0.01559696908
-0.01558797203
-0.01557915643
-0.01557051855
-0.0155620548
-0.01555376162
-0.01554563556
-0.01553767321
-0.01552987127
-0.01552222647
-0.01551473564
-0.01550739566
-0.01550020348
-0.01549315611
-0.01548625063
-0.01547948417
-0.01547285393
-0.01546635716
-0.01545999117
-0.01545375332
-0.01544764104
-0.01544165179
-0.01543578309
-0.01543003253
-0.01542439772
-0.01541887633
-0.01541346609
-0.01540816476
-0.01540297015
-0.01539788011
-0.01539289254
-0.01538800539
-0.01538321663
-0.01537852429
-0.01537392643
-0.01536942116
-0.01536500661
-0.01536068097
-0.01535644244
-0.01535228927
-0.01534821976
-0.01534423222
-0.01534032501
-0.01533649651
-0.01533274514
-0.01532906935
-0.01532546763
-0.01532193849
-0.01531848046
-0.01531509213
-0.01531177208
-0.01530851896
-0.01530533141
-0.01530220811
-0.01529914778
-0.01529614915
-0.01529321099
-0.01529033207
-0.0152875112
-0.01528474722
-0.01528203898
-0.01527938537
-0.01527678529
-0.01527423765
-0.01527174141
-0.01526929553
-0.015266899
-0.01526455082
-0.01526225002
-0.01525999566
-0.01525778679
-0.0152556225
-0.01525350189
-0.01525142409
-0.01524938823
-0.01524739347
-0.01524543898
-0.01524352395
-0.01524164758
-0.01523980911
-0.01523800775
-0.01523624277
-0.01523451344
-0.01523281903
-0.01523115885
-0.01522953219
-0.0152279384
-0.01522637679
-0.01522484674
-0.01522334759
-0.01522187874
-0.01522043956
-0.01521902945
-0.01521764784
-0.01521629415
-0.01521496782
-0.01521366828
-0.01521239501
-0.01521114748
-0.01520992515
-0.01520872754
-0.01520755413
-0.01520640443
-0.01520527798
-0.0152041743
-0.01520309293
-0.01520203343
-0.01520099534
-0.01519997824
-0.01519898171
-0.01519800533
-0.01519704869
-0.01519611139
-0.01519519305
-0.01519429327
-0.0151934117
-0.01519254795
-0.01519170167
-0.0151908725
-0.01519006011
-0.01518926415
-0.01518848428
-0.01518772019
-0.01518697156
-0.01518623807
-0.01518551942
-0.0151848153
-0.01518412543
-0.01518344952
-0.01518278728
-0.01518213844
-0.01518150272
-0.01518087987
-0.01518026962
-0.01517967171
-0.01517908591
-0.01517851196
-0.01517794962
-0.01517739866
-0.01517685885
-0.01517632996
-0.01517581177
-0.01517530408
-0.01517480665
-0.01517431929
-0.0151738418
-0.01517337397
-0.01517291561
-0.01517246652
-0.01517202653
-0.01517159544
-0.01517117307
-0.01517075925
-0.01517035381
-0.01516995658
-0.01516956739
-0.01516918607
-0.01516881248
-0.01516844644
-0.01516808782
-0.01516773645
-0.0151673922
-0.01516705492
-0.01516672447
-0.0151664007
-0.01516608349
-0.0151657727
-0.01516546821
-0.01516516988
-0.01516487759
-0.01516459121
-0.01516431064
-0.01516403574
-0.01516376641
-0.01516350254
-0.015163244
-0.01516299071
-0.01516274254
-0.01516249939
-0.01516226117
-0.01516202777
-0.0151617991
-0.01516157506
-0.01516135556
-0.0151611405
-0.0151609298
-0.01516072336
-0.0151605211
-0.01516032294
-0.01516012879
-0.01515993857
-0.01515975221
-0.01515956962
-0.01515939073
-0.01515921546
-0.01515904374
-0.0151588755
-0.01515871066
-0.01515854917
-0.01515839094
-0.01515823592
-0.01515808404
-0.01515793523
-0.01515778945
-0.0151576466
-0.01515750666
-0.01515736955
-0.01515723522
-0.0151571036
-0.01515697466
-0.01515684832
-0.01515672455
-0.01515660327
-0.01515648447
-0.01515636805
-0.01515625402
-0.01515614226
-0.01515603282
-0.01515592553
-0.01515582048
-0.01515571748
-0.01515561666
-0.01515551778
-0.01515542102
-0.01515532608
-0.01515523323
-0.01515514207
-0.01515505297
-0.01515496543
-0.01515487996
-0.01515479586
-0.01515471389
-0.01515463309
-0.01515455449
-0.01515447683
-0.01515440152
-0.01515432684
-0.01515425472
-0.01515418286
-0.0151541139
-0.01515404471
-0.01515397891
-0.01515391226
-0.01515384975
-0.01515378563
-0.01515372675
-0.01515366543
-0.01515361109
-0.01515355365
-0.01515350602
-0.01515345559
-0.01515341969
-0.01515338414
-0.01515336944
-0.01515336374
-0.01515336374
-0.01515336374
1
0.1316625604
0.06826904008
0.05229576416
0.04441959991
0.03957645929
0.03625933734
0.0338322703
0.03197226614
0.0304955643
0.02928947302
0.02828115172
0.02742163771
0.02667697902
0.02602300596
0.02544210625
0.02492116735
0.02445022834
0.02402157761
0.02362913794
0.02326804042
0.0229343247
0.02262472501
0.02233651497
0.02206739351
0.02181539967
0.02157884801
0.02135627899
0.02114642028
0.02094815621
0.02076050326
0.02058259039
0.02041364277
0.02025296853
0.02009994759
0.01995402241
0.01981469011
0.01968149579
0.01955402688
0.01943190817
0.01931479768
0.01920238297
0.01909437795
0.01899052017
0.01889056834
0.01879430026
0.01870151091
0.0186120108
0.01852562454
0.01844218952
0.01836155472
0.01828357976
0.0182081339
0.01813509523
0.01806434998
0.01799579179
0.01792932112
0.01786484473
0.01780227516
0.01774153031
0.01768253301
0.01762521065
0.01756949486
0.01751532119
0.01746262883
0.01741136037
0.01736146152
0.01731288096
0.01726557006
0.01721948277
0.01717457541
0.01713080652
0.01708813673
0.01704652861
0.01700594656
0.01696635667
0.01692772668
0.01689002578
0.01685322462
0.01681729515
0.01678221058
0.01674794532
0.01671447486
0.01668177576
0.01664982554
0.01661860267
0.0165880865
0.01655825721
0.01652909576
0.01650058385
0.0164727039
0.01644543899
0.01641877283
0.01639268972
0.01636717455
0.01634221273
0.0163177902
0.01629389338
0.01627050915
0.01624762483
0.01622522819
0.01620330736
0.01618185088
0.01616084765
0.0161402869
0.01612015823
0.01610045152
0.01608115697
0.01606226509
0.01604376664
0.01602565265
0.01600791444
0.01599054353
0.0159735317
0.01595687096
0.01594055354
0.01592457186
0.01590891856
0.01589358646
0.01587856858
0.01586385812
0.01584944845
0.0158353331
0.01582150576
0.01580796031
0.01579469073
0.01578169119
0.01576895598
0.01575647953
0.0157442564
0.01573228128
0.01572054898
0.01570905445
0.01569779274
0.01568675901
0.01567594853
0.0156653567
0.01565497899
0.015644811
0.01563484841
0.01562508701
0.01561552266
0.01560615133
0.01559696908
0.01558797203
0.01557915643
0.01557051855
0.0155620548
0.01555376162
0.01554563556
0.01553767321
0.01552987127
0.01552222647
0.01551473564
0.01550739566
0.01550020348
0.01549315611
0.01548625063
0.01547948417
0.01547285393
0.01546635716
0.01545999117
0.01545375332
0.01544764104
0.01544165179
0.01543578309
0.01543003253
0.01542439772
0.01541887633
0.01541346609
0.01540816476
0.01540297015
0.01539788011
0.01539289254
0.01538800539
0.01538321663
0.01537852429
0.01537392643
0.01536942116
0.01536500661
0.01536068097
0.01535644244
0.01535228927
0.01534821976
0.01534423222
0.01534032501
0.01533649651
0.01533274514
0.01532906935
0.01532546763
0.01532193849
0.01531848046
0.01531509213
0.01531177208
0.01530851896
0.01530533141
0.01530220811
0.01529914778
0.01529614915
0.01529321099
0.01529033207
0.0152875112
0.01528474722
0.01528203898
0.01527938537
0.01527678529
0.01527423765
0.01527174141
0.01526929553
0.015266899
0.01526455082
0.01526225002
0.01525999566
0.01525778679
0.0152556225
0.01525350189
0.01525142409
0.01524938823
0.01524739347
0.01524543898
0.01524352395
0.01524164758
0.01523980911
0.01523800775
0.01523624277
0.01523451344
0.01523281903
0.01523115885
0.01522953219
0.0152279384
0.01522637679
0.01522484674
0.01522334759
0.01522187874
0.01522043956
0.01521902945
0.01521764784
0.01521629415
0.01521496782
0.01521366828
0.01521239501
0.01521114748
0.01520992515
0.01520872754
0.01520755413
0.01520640443
0.01520527798
0.0152041743
0.01520309293
0.01520203343
0.01520099534
0.01519997824
0.01519898171
0.01519800533
0.01519704869
0.01519611139
0.01519519305
0.01519429327
0.0151934117
0.01519254795
0.01519170167
0.0151908725
0.01519006011
0.01518926415
0.01518848428
0.01518772019
0.01518697156
0.01518623807
0.01518551942
0.0151848153
0.01518412543
0.01518344952
0.01518278728
0.01518213844
0.01518150272
0.01518087987
0.01518026962
0.01517967171
0.01517908591
0.01517851196
0.01517794962
0.01517739866
0.01517685885
0.01517632996
0.01517581177
0.01517530408
0.01517480665
0.01517431929
0.0151738418
0.01517337397
0.01517291561
0.01517246652
0.01517202653
0.01517159544
0.01517117307
0.01517075925
0.01517035381
0.01516995658
0.01516956739
0.01516918607
0.01516881248
0.01516844644
0.01516808782
0.01516773645
0.0151673922
0.01516705492
0.01516672447
0.0151664007
0.01516608349
0.0151657727
0.01516546821
0.01516516988
0.01516487759
0.01516459121
0.01516431064
0.01516403574
0.01516376641
0.01516350254
0.015163244
0.01516299071
0.01516274254
0.01516249939
0.01516226117
0.01516202777
0.0151617991
0.01516157506
0.01516135556
0.0151611405
0.0151609298
0.01516072336
0.0151605211
0.01516032294
0.01516012879
0.01515993857
0.01515975221
0.01515956962
0.01515939073
0.01515921546
0.01515904374
0.0151588755
0.01515871066
0.01515854917
0.01515839094
0.01515823592
0.01515808404
0.01515793523
0.01515778945
0.0151576466
0.01515750666
0.01515736955
0.01515723522
0.0151571036
0.01515697466
0.01515684832
0.01515672455
0.01515660327
0.01515648447
0.01515636805
0.01515625402
0.01515614226
0.01515603282
0.01515592553
0.01515582048
0.01515571748
0.01515561666
0.01515551778
0.01515542102
0.01515532608
0.01515523323
0.01515514207
0.01515505297
0.01515496543
0.01515487996
0.01515479586
0.01515471389
0.01515463309
0.01515455449
0.01515447683
0.01515440152
0.01515432684
0.01515425472
0.01515418286
0.0151541139
0.01515404471
0.01515397891
0.01515391226
0.01515384975
0.01515378563
0.01515372675
0.01515366543
0.01515361109
0.01515355365
0.01515350602
0.01515345559
0.01515341969
0.01515338414
0.01515336944
0.01515336374
0.01515336374
0.01515336374
1
0.3448836491
0.2006672453
0.1549666291
0.1318938664
0.1175978189
0.1077670841
0.1005571198
0.09502405206
0.09062809891
0.0870369002
0.08403490183
0.08147678897
0.07926154562
0.07731711113
0.0755908889
0.07404367262
0.0726456558
0.07137375376
0.07020977348
0.06913914272
0.06815001401
0.06723262356
0.066378826
0.06558175168
0.06483555062
0.06413519842
0.06347634701
0.0628552084
0.0622684628
0.06171318529
0.06118678645
0.06068696394
0.06021166257
0.05975904105
0.05932744424
0.05891537963
0.05852149746
0.05814457371
0.05778349556
0.05743724877
0.0571049069
0.0567856218
0.05647861543
0.05618317261
0.05589863478
0.05562439436
0.05535988989
0.05510460167
0.0548580479
0.05461978125
0.0543893858
0.05416647429
0.05395068568
0.05374168296
0.05353915111
0.05334279538
0.05315233964
0.05296752491
0.05278810805
0.05261386056
0.05244456747
0.05228002633
0.05212004632
0.05196444743
0.05181305965
0.0516657223
0.05152228339
0.05138259903
0.05124653285
0.05111395556
0.05098474445
0.05085878296
0.0507359603
0.05061617108
0.05049931499
0.05038529645
0.05027402435
0.05016541176
0.05005937571
0.04995583691
0.04985471958
0.04975595121
0.0496594624
0.04956518666
0.04947306027
0.0493830221
0.0492950135
0.04920897814
0.04912486188
0.04904261267
0.04896218045
0.04888351701
0.04880657593
0.04873131247
0.04865768349
0.04858564736
0.04851516392
0.04844619436
0.0483787012
0.04831264818
0.04824800026
0.0481847235
0.04812278507
0.04806215315
0.04800279693
0.04794468652
0.04788779293
0.04783208806
0.04777754462
0.0477241361
0.04767183676
0.04762062161
0.04757046632
0.04752134725
0.04747324141
0.04742612644
0.04737998055
0.04733478254
0.04729051177
0.04724714812
0.04720467199
0.04716306429
0.04712230639
0.04708238013
0.0470432678
0.04700495212
0.04696741622
0.04693064367
0.04689461838
0.04685932467
0.04682474724
0.04679087111
0.04675768168
0.04672516466
0.04669330611
0.04666209238
0.04663151016
0.0466015464
0.04657218838
0.04654342362
0.04651523996
0.04648762547
0.0464605685
0.04643405765
0.04640808176
0.04638262991
0.04635769144
0.04633325588
0.046309313
0.04628585281
0.04626286548
0.04624034144
0.04621827128
0.04619664582
0.04617545604
0.04615469315
0.0461343485
0.04611441364
0.0460948803
0.04607574037
0.04605698591
0.04603860914
0.04602060245
0.04600295839
0.04598566963
0.04596872904
0.04595212958
0.04593586441
0.04591992678
0.0459043101
0.04588900793
0.04587401393
0.0458593219
0.04584492578
0.0458308196
0.04581699755
0.0458034539
0.04579018307
0.04577717957
0.04576443803
0.04575195318
0.04573971986
0.04572773302
0.04571598771
0.04570447906
0.04569320234
0.04568215287
0.04567132608
0.04566071751
0.04565032277
0.04564013756
0.04563015766
0.04562037896
0.04561079741
0.04560140904
0.04559220998
0.04558319642
0.04557436462
0.04556571094
0.04555723179
0.04554892366
0.04554078312
0.04553280679
0.04552499137
0.04551733363
0.04550983039
0.04550247855
0.04549527506
0.04548821693
0.04548130124
0.04547452513
0.04546788578
0.04546138044
0.04545500642
0.04544876106
0.04544264179
0.04543664607
0.04543077139
0.04542501534
0.04541937551
0.04541384957
0.04540843523
0.04540313023
0.04539793238
0.04539283951
0.04538784951
0.0453829603
0.04537816987
0.0453734762
0.04536887736
0.04536437144
0.04535995655
0.04535563087
0.04535139259
0.04534723996
0.04534317124
0.04533918475
0.04533527883
0.04533145185
0.04532770221
0.04532402837
0.04532042878
0.04531690195
0.04531344642
0.04531006075
0.04530674351
0.04530349335
0.04530030889
0.04529718882
0.04529413183
0.04529113665
0.04528820204
0.04528532677
0.04528250964
0.04527974948
0.04527704513
0.04527439548
0.04527179942
0.04526925586
0.04526676374
0.04526432203
0.04526192971
0.04525958578
0.04525728926
0.04525503919
0.04525283464
0.04525067469
0.04524855843
0.04524648499
0.04524445349
0.04524246309
0.04524051296
0.04523860229
0.04523673027
0.04523489613
0.0452330991
0.04523133844
0.0452296134
0.04522792326
0.04522626733
0.04522464491
0.04522305532
0.04522149789
0.04521997199
0.04521847696
0.04521701219
0.04521557707
0.04521417099
0.04521279337
0.04521144363
0.04521012121
0.04520882555
0.04520755612
0.04520631238
0.04520509382
0.04520389993
0.0452027302
0.04520158415
0.0452004613
0.04519936117
0.04519828332
0.04519722729
0.04519619264
0.04519517893
0.04519418574
0.04519321266
0.04519225928
0.0451913252
0.04519041004
0.0451895134
0.04518863491
0.04518777421
0.04518693094
0.04518610474
0.04518529527
0.04518450219
0.04518372516
0.04518296387
0.045182218
0.04518148722
0.04518077125
0.04518006977
0.0451793825
0.04517870914
0.04517804942
0.04517740306
0.04517676978
0.04517614934
0.04517554145
0.04517494588
0.04517436236
0.04517379067
0.04517323055
0.04517268177
0.04517214411
0.04517161734
0.04517110123
0.04517059558
0.04517010017
0.04516961479
0.04516913924
0.04516867333
0.04516821685
0.04516776962
0.04516733144
0.04516690215
0.04516648153
0.04516606946
0.0451656657
0.04516527016
0.04516488259
0.04516450291
0.04516413088
0.04516376644
0.04516340931
0.04516305949
0.04516271668
0.0451623809
0.04516205182
0.04516172953
0.04516141361
0.04516110428
0.045160801
0.04516050412
0.04516021295
0.04515992803
0.04515964848
0.04515937505
0.04515910663
0.04515884426
0.0451585865
0.04515833478
0.0451580872
0.04515784577
0.04515760791
0.04515737641
0.04515714781
0.04515692594
0.04515670615
0.04515649367
0.04515628221
0.04515607897
0.04515587542
0.04515568142
0.04515548542
0.04515530098
0.04515511248
0.04515493858
0.04515475837
0.04515459754
0.04515442868
0.04515428709
0.04515413847
0.04515403037
0.04515392428
0.04515387701
0.04515385575
0.04515385575
0.04515385575
1
0.5187651867
0.3274011946
0.2553467807
0.2178477674
0.1944026528
0.1782107415
0.1663061343
0.1571570571
0.1498824532
0.1439375554
0.1389678787
0.1347337921
0.131068333
0.1278521719
0.124998081
0.1224409665
0.120131304
0.1180307216
0.1161089747
0.1143418408
0.1127096324
0.1111961316
0.1097878156
0.1084732858
0.1072428408
0.1060881531
0.1050020197
0.1039781683
0.1030111045
0.1020959891
0.1012285396
0.1004049493
0.09962182143
0.09887611312
0.09816508989
0.09748628639
0.09683747348
0.09621662996
0.09562191851
0.09505166481
0.09450433962
0.09397854309
0.09347299119
0.09298650378
0.09251799417
0.0920664599
0.09163097468
0.09121068114
0.0908047845
0.09041254687
0.0900332822
0.08966635178
0.08931116013
0.08896715143
0.08863380619
0.08831063831
0.08799719243
0.0876930415
0.08739778461
0.08711104496
0.08683246808
0.08656172019
0.08629848668
0.08604247072
0.08579339203
0.0855509857
0.08531500115
0.08508520113
0.08486136087
0.0846432672
0.08443071781
0.08422352056
0.08402149283
0.08382446087
0.08363225931
0.08344473061
0.08326172458
0.08308309793
0.08290871387
0.08273844172
0.08257215657
0.0824097389
0.08225107431
0.08209605321
0.08194457059
0.08179652568
0.08165182182
0.08151036615
0.08137206945
0.08123684596
0.08110461314
0.08097529156
0.08084880472
0.08072507887
0.08060404293
0.08048562832
0.08036976882
0.0802564005
0.0801454616
0.08003689237
0.07993063507
0.07982663379
0.07972483444
0.07962518458
0.07952763345
0.07943213182
0.07933863194
0.0792470875
0.07915745354
0.07906968641
0.07898374371
0.07889958426
0.078817168
0.07873645601
0.07865741041
0.07857999436
0.07850417199
0.07842990841
0.0783571696
0.07828592244
0.07821613468
0.07814777485
0.07808081229
0.07801521712
0.07795096016
0.07788801298
0.07782634781
0.07776593758
0.07770675583
0.07764877675
0.07759197513
0.07753632635
0.07748180636
0.07742839166
0.07737605929
0.07732478681
0.07727455228
0.07722533428
0.07717711182
0.07712986443
0.07708357205
0.07703821508
0.07699377434
0.07695023109
0.07690756697
0.07686576402
0.07682480467
0.07678467175
0.07674534841
0.07670681819
0.07666906498
0.07663207299
0.07659582678
0.07656031123
0.07652551154
0.07649141321
0.07645800204
0.07642526414
0.0763931859
0.07636175399
0.07633095536
0.07630077722
0.07627120706
0.0762422326
0.07621384184
0.07618602301
0.07615876459
0.07613205528
0.07610588403
0.07608023999
0.07605511256
0.07603049134
0.07600636614
0.07598272697
0.07595956407
0.07593686784
0.0759146289
0.07589283806
0.07587148629
0.07585056478
0.07583006487
0.07580997808
0.0757902961
0.0757710108
0.07575211421
0.0757335985
0.07571545601
0.07569767926
0.07568026087
0.07566319365
0.07564647054
0.07563008461
0.07561402909
0.07559829733
0.07558288283
0.0755677792
0.07555298019
0.07553847968
0.07552427166
0.07551035025
0.07549670968
0.0754833443
0.07547024859
0.0754574171
0.07544484454
0.07543252568
0.07542045542
0.07540862876
0.0753970408
0.07538568672
0.07537456184
0.07536366152