# vtk DataFile Version 2.0
FlowField
ASCII
DATASET STRUCTURED_GRID
DIMENSIONS 400 1 200
POINTS 80000 float
0 0 0
0.08 0 0
0.16 0 0
0.24 0 0
0.32 0 0
0.4 0 0
0.48 0 0
0.56 0 0
0.64 0 0
0.72 0 0
0.8 0 0
0.88 0 0
0.96 0 0
1.04 0 0
1.12 0 0
1.2 0 0
1.28 0 0
1.36 0 0
1.44 0 0
1.52 0 0
1.6 0 0
1.68 0 0
1.76 0 0
1.84 0 0
1.92 0 0
2 0 0
2.08 0 0
2.16 0 0
2.24 0 0
2.32 0 0
2.4 0 0
2.48 0 0
2.56 0 0
2.64 0 0
2.72 0 0
2.8 0 0
2.88 0 0
2.96 0 0
3.04 0 0
3.12 0 0
3.2 0 0
3.28 0 0
3.36 0 0
3.44 0 0
3.52 0 0
3.6 0 0
3.68 0 0
3.76 0 0
3.84 0 0
3.92 0 0
4 0 0
4.08 0 0
4.16 0 0
4.24 0 0
4.32 0 0
4.4 0 0
4.48 0 0
4.56 0 0
4.64 0 0
4.72 0 0
4.8 0 0
4.88 0 0
4.96 0 0
5.04 0 0
5.12 0 0
5.2 0 0
5.28 0 0
5.36 0 0
5.44 0 0
5.52 0 0
5.6 0 0
5.68 0 0
5.76 0 0
5.84 0 0
5.92 0 0
6 0 0
6.08 0 0
6.16 0 0
6.24 0 0
6.32 0 0
6.4 0 0
6.48 0 0
6.56 0 0
6.64 0 0
6.72 0 0
6.8 0 0
6.88 0 0
6.96 0 0
7.04 0 0
7.12 0 0
7.2 0 0
7.28 0 0
7.36 0 0
7.44 0 0
7.52 0 0
7.6 0 0
7.68 0 0
7.76 0 0
7.84 0 0
7.92 0 0
8 0 0
8.08 0 0
8.16 0 0
8.24 0 0
8.32 0 0
8.4 0 0
8.48 0 0
8.56 0 0
8.64 0 0
8.72 0 0
8.8 0 0
8.88 0 0
8.96 0 0
9.04 0 0
9.12 0 0
9.2 0 0
9.28 0 0
9.36 0 0
9.44 0 0
9.52 0 0
9.6 0 0
9.68 0 0
9.76 0 0
9.84 0 0
9.92 0 0
10 0 0
10.08 0 0
10.16 0 0
10.24 0 0
10.32 0 0
10.4 0 0
10.48 0 0
10.56 0 0
10.64 0 0
10.72 0 0
10.8 0 0
10.88 0 0
10.96 0 0
11.04 0 0
11.12 0 0
11.2 0 0
11.28 0 0
11.36 0 0
11.44 0 0
11.52 0 0
11.6 0 0
11.68 0 0
11.76 0 0
11.84 0 0
11.92 0 0
12 0 0
12.08 0 0
12.16 0 0
12.24 0 0
12.32 0 0
12.4 0 0
12.48 0 0
12.56 0 0
12.64 0 0
12.72 0 0
12.8 0 0
12.88 0 0
12.96 0 0
13.04 0 0
13.12 0 0
13.2 0 0
13.28 0 0
13.36 0 0
13.44 0 0
13.52 0 0
13.6 0 0
13.68 0 0
13.76 0 0
13.84 0 0
13.92 0 0
14 0 0
14.08 0 0
14.16 0 0
14.24 0 0
14.32 0 0
14.4 0 0
14.48 0 0
14.56 0 0
14.64 0 0
14.72 0 0
14.8 0 0
14.88 0 0
14.96 0 0
15.04 0 0
15.12 0 0
15.2 0 0
15.28 0 0
15.36 0 0
15.44 0 0
15.52 0 0
15.6 0 0
15.68 0 0
15.76 0 0
15.84 0 0
15.92 0 0
16 0 0
16.08 0 0
16.16 0 0
16.24 0 0
16.32 0 0
16.4 0 0
16.48 0 0
16.56 0 0
16.64 0 0
16.72 0 0
16.8 0 0
16.88 0 0
16.96 0 0
17.04 0 0
17.12 0 0
17.2 0 0
17.28 0 0
17.36 0 0
17.44 0 0
17.52 0 0
17.6 0 0
17.68 0 0
17.76 0 0
17.84 0 0
17.92 0 0
18 0 0
18.08 0 0
18.16 0 0
18.24 0 0
18.32 0 0
18.4 0 0
18.48 0 0
18.56 0 0
18.64 0 0
18.72 0 0
18.8 0 0
18.88 0 0
18.96 0 0
19.04 0 0
19.12 0 0
19.2 0 0
19.28 0 0
19.36 0 0
19.44 0 0
19.52 0 0
19.6 0 0
19.68 0 0
19.76 0 0
19.84 0 0
19.92 0 0
20 0 0
20.08 0 0
20.16 0 0
20.24 0 0
20.32 0 0
20.4 0 0
20.48 0 0
20.56 0 0
20.64 0 0
20.72 0 0
20.8 0 0
20.88 0 0
20.96 0 0
21.04 0 0
21.12 0 0
21.2 0 0
21.28 0 0
21.36 0 0
21.44 0 0
21.52 0 0
21.6 0 0
21.68 0 0
21.76 0 0
21.84 0 0
21.92 0 0
22 0 0
22.08 0 0
22.16 0 0
22.24 0 0
22.32 0 0
22.4 0 0
22.48 0 0
22.56 0 0
22.64 0 0
22.72 0 0
22.8 0 0
22.88 0 0
22.96 0 0
23.04 0 0
23.12 0 0
23.2 0 0
23.28 0 0
23.36 0 0
23.44 0 0
23.52 0 0
23.6 0 0
23.68 0 0
23.76 0 0
23.84 0 0
23.92 0 0
24 0 0
24.08 0 0
24.16 0 0
24.24 0 0
24.32 0 0
24.4 0 0
24.48 0 0
24.56 0 0
24.64 0 0
24.72 0 0
24.8 0 0
24.88 0 0
24.96 0 0
25.04 0 0
25.12 0 0
25.2 0 0
25.28 0 0
25.36 0 0
25.44 0 0
25.52 0 0
25.6 0 0
25.68 0 0
25.76 0 0
25.84 0 0
25.92 0 0
26 0 0
26.08 0 0
26.16 0 0
26.24 0 0
26.32 0 0
26.4 0 0
26.48 0 0
26.56 0 0
26.64 0 0
26.72 0 0
26.8 0 0
26.88 0 0
26.96 0 0
27.04 0 0
27.12 0 0
27.2 0 0
27.28 0 0
27.36 0 0
27.44 0 0
27.52 0 0
27.6 0 0
27.68 0 0
27.76 0 0
27.84 0 0
27.92 0 0
28 0 0
28.08 0 0
28.16 0 0
28.24 0 0
28.32 0 0
28.4 0 0
28.48 0 0
28.56 0 0
28.64 0 0
28.72 0 0
28.8 0 0
28.88 0 0
28.96 0 0
29.04 0 0
29.12 0 0
29.2 0 0
29.28 0 0
29.36 0 0
29.44 0 0
29.52 0 0
29.6 0 0
29.68 0 0
29.76 0 0
29.84 0 0
29.92 0 0
30 0 0
30.08 0 0
30.16 0 0
30.24 0 0
30.32 0 0
30.4 0 0
30.48 0 0
30.56 0 0
30.64 0 0
30.72 0 0
30.8 0 0
30.88 0 0
30.96 0 0
31.04 0 0
31.12 0 0
31.2 0 0
31.28 0 0
31.36 0 0
31.44 0 0
31.52 0 0
31.6 0 0
31.68 0 0
31.76 0 0
31.84 0 0
31.92 0 0
0 0.005 0
0.08 0.005 0
0.16 0.005 0
0.24 0.005 0
0.32 0.005 0
0.4 0.005 0
0.48 0.005 0
0.56 0.005 0
0.64 0.005 0
0.72 0.005 0
0.8 0.005 0
0.88 0.005 0
0.96 0.005 0
1.04 0.005 0
1.12 0.005 0
1.2 0.005 0
1.28 0.005 0
1.36 0.005 0
1.44 0.005 0
1.52 0.005 0
1.6 0.005 0
1.68 0.005 0
1.76 0.005 0
1.84 0.005 0
1.92 0.005 0
2 0.005 0
2.08 0.005 0
2.16 0.005 0
2.24 0.005 0
2.32 0.005 0
2.4 0.005 0
2.48 0.005 0
2.56 0.005 0
2.64 0.005 0
2.72 0.005 0
2.8 0.005 0
2.88 0.005 0
2.96 0.005 0
3.04 0.005 0
3.12 0.005 0
3.2 0.005 0
3.28 0.005 0
3.36 0.005 0
3.44 0.005 0
3.52 0.005 0
3.6 0.005 0
3.68 0.005 0
3.76 0.005 0
3.84 0.005 0
3.92 0.005 0
4 0.005 0
4.08 0.005 0
4.16 0.005 0
4.24 0.005 0
4.32 0.005 0
4.4 0.005 0
4.48 0.005 0
4.56 0.005 0
4.64 0.005 0
4.72 0.005 0
4.8 0.005 0
4.88 0.005 0
4.96 0.005 0
5.04 0.005 0
5.12 0.005 0
5.2 0.005 0
5.28 0.005 0
5.36 0.005 0
5.44 0.005 0
5.52 0.005 0
5.6 0.005 0
5.68 0.005 0
5.76 0.005 0
5.84 0.005 0
5.92 0.005 0
6 0.005 0
6.08 0.005 0
6.16 0.005 0
6.24 0.005 0
6.32 0.005 0
6.4 0.005 0
6.48 0.005 0
6.56 0.005 0
6.64 0.005 0
6.72 0.005 0
6.8 0.005 0
6.88 0.005 0
6.96 0.005 0
7.04 0.005 0
7.12 0.005 0
7.2 0.005 0
7.28 0.005 0
7.36 0.005 0
7.44 0.005 0
7.52 0.005 0
7.6 0.005 0
7.68 0.005 0
7.76 0.005 0
7.84 0.005 0
7.92 0.005 0
8 0.005 0
8.08 0.005 0
8.16 0.005 0
8.24 0.005 0
8.32 0.005 0
8.4 0.005 0
8.48 0.005 0
8.56 0.005 0
8.64 0.005 0
8.72 0.005 0
8.8 0.005 0
8.88 0.005 0
8.96 0.005 0
9.04 0.005 0
9.12 0.005 0
9.2 0.005 0
9.28 0.005 0
9.36 0.005 0
9.44 0.005 0
9.52 0.005 0
9.6 0.005 0
9.68 0.005 0
9.76 0.005 0
9.84 0.005 0
9.92 0.005 0
10 0.005 0
10.08 0.005 0
10.16 0.005 0
10.24 0.005 0
10.32 0.005 0
10.4 0.005 0
10.48 0.005 0
10.56 0.005 0
10.64 0.005 0
10.72 0.005 0
10.8 0.005 0
10.88 0.005 0
10.96 0.005 0
11.04 0.005 0
11.12 0.005 0
11.2 0.005 0
11.28 0.005 0
11.36 0.005 0
11.44 0.005 0
11.52 0.005 0
11.6 0.005 0
11.68 0.005 0
11.76 0.005 0
11.84 0.005 0
11.92 0.005 0
12 0.005 0
12.08 0.005 0
12.16 0.005 0
12.24 0.005 0
12.32 0.005 0
12.4 0.005 0
12.48 0.005 0
12.56 0.005 0
12.64 0.005 0
12.72 0.005 0
12.8 0.005 0
12.88 0.005 0
12.96 0.005 0
13.04 0.005 0
13.12 0.005 0
13.2 0.005 0
13.28 0.005 0
13.36 0.005 0
13.44 0.005 0
13.52 0.005 0
13.6 0.005 0
13.68 0.005 0
13.76 0.005 0
13.84 0.005 0
13.92 0.005 0
14 0.005 0
14.08 0.005 0
14.16 0.005 0
14.24 0.005 0
14.32 0.005 0
14.4 0.005 0
14.48 0.005 0
14.56 0.005 0
14.64 0.005 0
14.72 0.005 0
14.8 0.005 0
14.88 0.005 0
14.96 0.005 0
15.04 0.005 0
15.12 0.005 0
15.2 0.005 0
15.28 0.005 0
15.36 0.005 0
15.44 0.005 0
15.52 0.005 0
15.6 0.005 0
15.68 0.005 0
15.76 0.005 0
15.84 0.005 0
15.92 0.005 0
16 0.005 0
16.08 0.005 0
16.16 0.005 0
16.24 0.005 0
16.32 0.005 0
16.4 0.005 0
16.48 0.005 0
16.56 0.005 0
16.64 0.005 0
16.72 0.005 0
16.8 0.005 0
16.88 0.005 0
16.96 0.005 0
17.04 0.005 0
17.12 0.005 0
17.2 0.005 0
17.28 0.005 0
17.36 0.005 0
17.44 0.005 0
17.52 0.005 0
17.6 0.005 0
17.68 0.005 0
17.76 0.005 0
17.84 0.005 0
17.92 0.005 0
18 0.005 0
18.08 0.005 0
18.16 0.005 0
18.24 0.005 0
18.32 0.005 0
18.4 0.005 0
18.48 0.005 0
18.56 0.005 0
18.64 0.005 0
18.72 0.005 0
18.8 0.005 0
18.88 0.005 0
18.96 0.005 0
19.04 0.005 0
19.12 0.005 0
19.2 0.005 0
19.28 0.005 0
19.36 0.005 0
19.44 0.005 0
19.52 0.005 0
19.6 0.005 0
19.68 0.005 0
19.76 0.005 0
19.84 0.005 0
19.92 0.005 0
20 0.005 0
20.08 0.005 0
20.16 0.005 0
20.24 0.005 0
20.32 0.005 0
20.4 0.005 0
20.48 0.005 0
20.56 0.005 0
20.64 0.005 0
20.72 0.005 0
20.8 0.005 0
20.88 0.005 0
20.96 0.005 0
21.04 0.005 0
21.12 0.005 0
21.2 0.005 0
21.28 0.005 0
21.36 0.005 0
21.44 0.005 0
21.52 0.005 0
21.6 0.005 0
21.68 0.005 0
21.76 0.005 0
21.84 0.005 0
21.92 0.005 0
22 0.005 0
22.08 0.005 0
22.16 0.005 0
22.24 0.005 0
22.32 0.005 0
22.4 0.005 0
22.48 0.005 0
22.56 0.005 0
22.64 0.005 0
22.72 0.005 0
22.8 0.005 0
22.88 0.005 0
22.96 0.005 0
23.04 0.005 0
23.12 0.005 0
23.2 0.005 0
23.28 0.005 0
23.36 0.005 0
23.44 0.005 0
23.52 0.005 0
23.6 0.005 0
23.68 0.005 0
23.76 0.005 0
23.84 0.005 0
23.92 0.005 0
24 0.005 0
24.08 0.005 0
24.16 0.005 0
24.24 0.005 0
24.32 0.005 0
24.4 0.005 0
24.48 0.005 0
24.56 0.005 0
24.64 0.005 0
24.72 0.005 0
24.8 0.005 0
24.88 0.005 0
24.96 0.005 0
25.04 0.005 0
25.12 0.005 0
25.2 0.005 0
25.28 0.005 0
25.36 0.005 0
25.44 0.005 0
25.52 0.005 0
25.6 0.005 0
25.68 0.005 0
25.76 0.005 0
25.84 0.005 0
25.92 0.005 0
26 0.005 0
26.08 0.005 0
26.16 0.005 0
26.24 0.005 0
26.32 0.005 0
26.4 0.005 0
26.48 0.005 0
26.56 0.005 0
26.64 0.005 0
26.72 0.005 0
26.8 0.005 0
26.88 0.005 0
26.96 0.005 0
27.04 0.005 0
27.12 0.005 0
27.2 0.005 0
27.28 0.005 0
27.36 0.005 0
27.44 0.005 0
27.52 0.005 0
27.6 0.005 0
27.68 0.005 0
27.76 0.005 0
27.84 0.005 0
27.92 0.005 0
28 0.005 0
28.08 0.005 0
28.16 0.005 0
28.24 0.005 0
28.32 0.005 0
28.4 0.005 0
28.48 0.005 0
28.56 0.005 0
28.64 0.005 0
28.72 0.005 0
28.8 0.005 0
28.88 0.005 0
28.96 0.005 0
29.04 0.005 0
29.12 0.005 0
29.2 0.005 0
29.28 0.005 0
29.36 0.005 0
29.44 0.005 0
29.52 0.005 0
29.6 0.005 0
29.68 0.005 0
29.76 0.005 0
29.84 0.005 0
29.92 0.005 0
30 0.005 0
30.08 0.005 0
30.16 0.005 0
30.24 0.005 0
30.32 0.005 0
30.4 0.005 0
30.48 0.005 0
30.56 0.005 0
30.64 0.005 0
30.72 0.005 0
30.8 0.005 0
30.88 0.005 0
30.96 0.005 0
31.04 0.005 0
31.12 0.005 0
31.2 0.005 0
31.28 0.005 0
31.36 0.005 0
31.44 0.005 0
31.52 0.005 0
31.6 0.005 0
31.68 0.005 0
31.76 0.005 0
31.84 0.005 0
31.92 0.005 0
0 0.01 0
0.08 0.01 0
0.16 0.01 0
0.24 0.01 0
0.32 0.01 0
0.4 0.01 0
0.48 0.01 0
0.56 0.01 0
0.64 0.01 0
0.72 0.01 0
0.8 0.01 0
0.88 0.01 0
0.96 0.01 0
1.04 0.01 0
1.12 0.01 0
1.2 0.01 0
1.28 0.01 0
1.36 0.01 0
1.44 0.01 0
1.52 0.01 0
1.6 0.01 0
1.68 0.01 0
1.76 0.01 0
1.84 0.01 0
1.92 0.01 0
2 0.01 0
2.08 0.01 0
2.16 0.01 0
2.24 0.01 0
2.32 0.01 0
2.4 0.01 0
2.48 0.01 0
2.56 0.01 0
2.64 0.01 0
2.72 0.01 0
2.8 0.01 0
2.88 0.01 0
2.96 0.01 0
3.04 0.01 0
3.12 0.01 0
3.2 0.01 0
3.28 0.01 0
3.36 0.01 0
3.44 0.01 0
3.52 0.01 0
3.6 0.01 0
3.68 0.01 0
3.76 0.01 0
3.84 0.01 0
3.92 0.01 0
4 0.01 0
4.08 0.01 0
4.16 0.01 0
4.24 0.01 0
4.32 0.01 0
4.4 0.01 0
4.48 0.01 0
4.56 0.01 0
4.64 0.01 0
4.72 0.01 0
4.8 0.01 0
4.88 0.01 0
4.96 0.01 0
5.04 0.01 0
5.12 0.01 0
[...]
POINT_DATA 80000

SCALARS p float 1
LOOKUP_TABLE default
1
56.54464208
56.24290706
56.20174728
56.18165731
56.16723838
56.15523742
56.144494
56.13449587
56.12499028
56.11584397
56.10698325
56.09836532
56.08996381
56.08176105
56.07374401
56.06590214
56.05822623
56.05070785
56.04333906
56.03611234
56.02902049
56.0220567
56.01521447
56.00848769
56.00187058
55.99535771
55.98894401
55.98262471
55.97639536
55.9702518
55.96419013
55.95820671
55.95229815
55.94646126
55.94069304
55.93499071
55.92935163
55.92377335
55.91825353
55.91278999
55.90738068
55.90202364
55.89671705
55.89145915
55.88624832
55.88108298
55.87596167
55.87088296
55.86584554
55.86084812
55.8558895
55.85096852
55.84608408
55.84123512
55.83642065
55.83163969
55.82689133
55.82217469
55.8174889
55.81283317
55.80820671
55.80360877
55.79903863
55.79449558
55.78997897
55.78548815
55.78102248
55.77658138
55.77216425
55.76777055
55.76339972
55.75905124
55.7547246
55.75041932
55.7461349
55.7418709
55.73762686
55.73340234
55.72919692
55.72501019
55.72084176
55.71669123
55.71255822
55.70844236
55.70434331
55.7002607
55.69619421
55.69214349
55.68810823
55.68408811
55.68008282
55.67609206
55.67211554
55.66815298
55.66420409
55.6602686
55.65634625
55.65243677
55.64853991
55.64465542
55.64078306
55.63692259
55.63307377
55.62923638
55.62541019
55.62159498
55.61779055
55.61399667
55.61021315
55.60643979
55.60267637
55.59892273
55.59517865
55.59144397
55.58771849
55.58400204
55.58029444
55.57659552
55.57290512
55.56922307
55.56554921
55.56188338
55.55822542
55.55457519
55.55093254
55.54729731
55.54366936
55.54004856
55.53643476
55.53282784
55.52922765
55.52563407
55.52204697
55.51846622
55.5148917
55.5113233
55.50776088
55.50420434
55.50065357
55.49710844
55.49356886
55.49003471
55.48650588
55.48298228
55.4794638
55.47595035
55.47244182
55.46893812
55.46543916
55.46194484
55.45845507
55.45496977
55.45148884
55.44801221
55.44453978
55.44107148
55.43760723
55.43414693
55.43069053
55.42723794
55.42378909
55.4203439
55.4169023
55.41346422
55.4100296
55.40659836
55.40317044
55.39974578
55.3963243
55.39290595
55.38949066
55.38607838
55.38266904
55.37926259
55.37585897
55.37245812
55.36906
55.36566454
55.36227169
55.35888141
55.35549363
55.35210832
55.34872542
55.34534488
55.34196666
55.33859072
55.335217
55.33184546
55.32847607
55.32510877
55.32174352
55.31838029
55.31501904
55.31165972
55.30830229
55.30494673
55.30159299
55.29824103
55.29489082
55.29154233
55.28819552
55.28485036
55.28150681
55.27816485
55.27482443
55.27148554
55.26814813
55.26481219
55.26147768
55.25814456
55.25481283
55.25148244
55.24815336
55.24482559
55.24149908
55.23817381
55.23484976
55.2315269
55.22820522
55.22488468
55.22156526
55.21824695
55.21492971
55.21161354
55.20829841
55.20498429
55.20167117
55.19835904
55.19504786
55.19173763
55.18842833
55.18511994
55.18181244
55.17850582
55.17520006
55.17189515
55.16859107
55.16528781
55.16198536
55.1586837
55.15538282
55.15208271
55.14878336
55.14548475
55.14218687
55.13888972
55.13559328
55.13229755
55.1290025
55.12570814
55.12241446
55.11912143
55.11582907
55.11253735
55.10924627
55.10595581
55.10266598
55.09937676
55.09608814
55.09280012
55.08951269
55.08622583
55.08293954
55.07965381
55.07636863
55.07308399
55.06979988
55.0665163
55.06323323
55.05995067
55.0566686
55.05338702
55.05010591
55.04682527
55.04354508
55.04026534
55.03698603
55.03370714
55.03042867
55.0271506
55.02387292
55.02059562
55.01731868
55.01404211
55.01076588
55.00748999
55.00421443
55.00093918
54.99766423
54.99438957
54.99111519
54.98784108
54.98456723
54.98129362
54.97802026
54.97474712
54.97147419
54.96820147
54.96492895
54.96165662
54.95838446
54.95511246
54.95184063
54.94856895
54.9452974
54.94202599
54.9387547
54.93548353
54.93221247
54.92894151
54.92567064
54.92239986
54.91912917
54.91585855
54.91258799
54.90931751
54.90604708
54.9027767
54.89950638
54.8962361
54.89296586
54.88969566
54.88642549
54.88315535
54.87988524
54.87661516
54.87334509
54.87007505
54.86680502
54.863535
54.860265
54.85699501
54.85372503
54.85045506
54.8471851
54.84391514
54.84064518
54.83737523
54.83410529
54.83083534
54.8275654
54.82429546
54.82102552
54.81775559
54.81448565
54.81121571
54.80794577
54.80467584
54.8014059
54.79813596
54.79486602
54.79159608
54.78832614
54.7850562
54.78178625
54.77851631
54.77524637
54.77197642
54.76870647
54.76543652
54.76216657
54.75889662
54.75562667
54.75235672
54.74908676
54.74581681
54.74254685
54.73927689
54.73600693
54.73273697
54.72946701
54.72619705
54.72292708
54.71965712
54.71638715
54.71311719
54.70984722
54.70657725
54.70330728
54.7000373
54.69676733
54.69349736
54.69022738
54.6869574
54.68368743
54.68041745
54.67714747
54.67387748
54.6706075
54.66733752
54.66406753
54.66079755
54.65752756
54.65425757
54.65098758
54.64771759
54.64444759
54.64117765
0.5
56.54464208
56.54464208
56.24290706
56.20174728
56.18165731
56.16723838
56.15523742
56.144494
56.13449587
56.12499028
56.11584397
56.10698325
56.09836532
56.08996381
56.08176105
56.07374401
56.06590214
56.05822623
56.05070785
56.04333906
56.03611234
56.02902049
56.0220567
56.01521447
56.00848769
56.00187058
55.99535771
55.98894401
55.98262471
55.97639536
55.9702518
55.96419013
55.95820671
55.95229815
55.94646126
55.94069304
55.93499071
55.92935163
55.92377335
55.91825353
55.91278999
55.90738068
55.90202364
55.89671705
55.89145915
55.88624832
55.88108298
55.87596167
55.87088296
55.86584554
55.86084812
55.8558895
55.85096852
55.84608408
55.84123512
55.83642065
55.83163969
55.82689133
55.82217469
55.8174889
55.81283317
55.80820671
55.80360877
55.79903863
55.79449558
55.78997897
55.78548815
55.78102248
55.77658138
55.77216425
55.76777055
55.76339972
55.75905124
55.7547246
55.75041932
55.7461349
55.7418709
55.73762686
55.73340234
55.72919692
55.72501019
55.72084176
55.71669123
55.71255822
55.70844236
55.70434331
55.7002607
55.69619421
55.69214349
55.68810823
55.68408811
55.68008282
55.67609206
55.67211554
55.66815298
55.66420409
55.6602686
55.65634625
55.65243677
55.64853991
55.64465542
55.64078306
55.63692259
55.63307377
55.62923638
55.62541019
55.62159498
55.61779055
55.61399667
55.61021315
55.60643979
55.60267637
55.59892273
55.59517865
55.59144397
55.58771849
55.58400204
55.58029444
55.57659552
55.57290512
55.56922307
55.56554921
55.56188338
55.55822542
55.55457519
55.55093254
55.54729731
55.54366936
55.54004856
55.53643476
55.53282784
55.52922765
55.52563407
55.52204697
55.51846622
55.5148917
55.5113233
55.50776088
55.50420434
55.50065357
55.49710844
55.49356886
55.49003471
55.48650588
55.48298228
55.4794638
55.47595035
55.47244182
55.46893812
55.46543916
55.46194484
55.45845507
55.45496977
55.45148884
55.44801221
55.44453978
55.44107148
55.43760723
55.43414693
55.43069053
55.42723794
55.42378909
55.4203439
55.4169023
55.41346422
55.4100296
55.40659836
55.40317044
55.39974578
55.3963243
55.39290595
55.38949066
55.38607838
55.38266904
55.37926259
55.37585897
55.37245812
55.36906
55.36566454
55.36227169
55.35888141
55.35549363
55.35210832
55.34872542
55.34534488
55.34196666
55.33859072
55.335217
55.33184546
55.32847607
55.32510877
55.32174352
55.31838029
55.31501904
55.31165972
55.30830229
55.30494673
55.30159299
55.29824103
55.29489082
55.29154233
55.28819552
55.28485036
55.28150681
55.27816485
55.27482443
55.27148554
55.26814813
55.26481219
55.26147768
55.25814456
55.25481283
55.25148244
55.24815336
55.24482559
55.24149908
55.23817381
55.23484976
55.2315269
55.22820522
55.22488468
55.22156526
55.21824695
55.21492971
55.21161354
55.20829841
55.20498429
55.20167117
55.19835904
55.19504786
55.19173763
55.18842833
55.18511994
55.18181244
55.17850582
55.17520006
55.17189515
55.16859107
55.16528781
55.16198536
55.1586837
55.15538282
55.15208271
55.14878336
55.14548475
55.14218687
55.13888972
55.13559328
55.13229755
55.1290025
55.12570814
55.12241446
55.11912143
55.11582907
55.11253735
55.10924627
55.10595581
55.10266598
55.09937676
55.09608814
55.09280012
55.08951269
55.08622583
55.08293954
55.07965381
55.07636863
55.07308399
55.06979988
55.0665163
55.06323323
55.05995067
55.0566686
55.05338702
55.05010591
55.04682527
55.04354508
55.04026534
55.03698603
55.03370714
55.03042867
55.0271506
55.02387292
55.02059562
55.01731868
55.01404211
55.01076588
55.00748999
55.00421443
55.00093918
54.99766423
54.99438957
54.99111519
54.98784108
54.98456723
54.98129362
54.97802026
54.97474712
54.97147419
54.96820147
54.96492895
54.96165662
54.95838446
54.95511246
54.95184063
54.94856895
54.9452974
54.94202599
54.9387547
54.93548353
54.93221247
54.92894151
54.92567064
54.92239986
54.91912917
54.91585855
54.91258799
54.90931751
54.90604708
54.9027767
54.89950638
54.8962361
54.89296586
54.88969566
54.88642549
54.88315535
54.87988524
54.87661516
54.87334509
54.87007505
54.86680502
54.863535
54.860265
54.85699501
54.85372503
54.85045506
54.8471851
54.84391514
54.84064518
54.83737523
54.83410529
54.83083534
54.8275654
54.82429546
54.82102552
54.81775559
54.81448565
54.81121571
54.80794577
54.80467584
54.8014059
54.79813596
54.79486602
54.79159608
54.78832614
54.7850562
54.78178625
54.77851631
54.77524637
54.77197642
54.76870647
54.76543652
54.76216657
54.75889662
54.75562667
54.75235672
54.74908676
54.74581681
54.74254685
54.73927689
54.73600693
54.73273697
54.72946701
54.72619705
54.72292708
54.71965712
54.71638715
54.71311719
54.70984722
54.70657725
54.70330728
54.7000373
54.69676733
54.69349736
54.69022738
54.6869574
54.68368743
54.68041745
54.67714747
54.67387748
54.6706075
54.66733752
54.66406753
54.66079755
54.65752756
54.65425757
54.65098758
54.64771759
54.64444759
54.64117765
54.64117765
56.53006034
56.53006034
56.24674294
56.20300269
56.18229255
56.16763289
56.15550911
56.14469345
56.13464901
56.12511198
56.1159434
56.10706635
56.09843612
56.0900251
56.08181483
56.07379174
56.06594491
56.05826487
56.05074299
56.04337121
56.0361419
56.0290478
56.02208203
56.01523804
56.00850969
56.00189117
55.99537704
55.98896219
55.98264185
55.97641155
55.97026712
55.96420465
55.9582205
55.95231126
55.94647374
55.94070494
55.93500207
55.9293625
55.92378374
55.91826348
55.91279954
55.90738984
55.90203244
55.89672551
55.8914673
55.88625616
55.88109054
55.87596896
55.87089
55.86585234
55.86085469
55.85589585
55.85097466
55.84609003
55.84124088
55.83642623
55.83164511
55.82689658
55.82217978
55.81749385
55.81283798
55.80821138
55.80361331
55.79904304
55.79449987
55.78998314
55.78549221
55.78102643
55.77658523
55.772168
55.7677742
55.76340328
55.75905471
55.75472799
55.75042262
55.74613812
55.74187404
55.73762992
55.73340533
55.72919984
55.72501305
55.72084454
55.71669395
55.71256087
55.70844496
55.70434585
55.70026318
55.69619663
55.69214586
55.68811055
55.68409037
55.68008503
55.67609422
55.67211766
55.66815505
55.66420612
55.66027058
55.65634819
55.65243867
55.64854177
55.64465724
55.64078484
55.63692433
55.63307548
55.62923805
55.62541182
55.62159658
55.61779212
55.61399821
55.61021465
55.60644126
55.60267781
55.59892414
55.59518003
55.59144532
55.58771981
55.58400333
55.58029571
55.57659677
55.57290634
55.56922427
55.56555038
55.56188453
55.55822655
55.55457629
55.55093361
55.54729836
55.54367039
55.54004957
55.53643575
55.53282881
55.5292286
55.525635
55.52204788
55.51846711
55.51489258
55.51132415
55.50776172
55.50420517
55.50065438
55.49710923
55.49356963
55.49003547
55.48650663
55.48298301
55.47946452
55.47595105
55.47244251
55.4689388
55.46543982
55.46194549
55.45845571
55.45497039
55.45148945
55.44801281
55.44454037
55.44107205
55.43760778
55.43414748
55.43069107
55.42723847
55.4237896
55.4203444
55.4169028
55.41346471
55.41003008
55.40659883
55.4031709
55.39974622
55.39632474
55.39290638
55.38949108
55.38607879
55.38266944
55.37926299
55.37585936
55.3724585
55.36906037
55.3656649
55.36227205
55.35888176
55.35549398
55.35210866
55.34872575
55.34534521
55.34196698
55.33859103
55.3352173
55.33184576
55.32847636
55.32510905
55.3217438
55.31838057
55.3150193
55.31165998
55.30830255
55.30494698
55.30159323
55.29824127
55.29489106
55.29154256
55.28819575
55.28485058
55.28150703
55.27816506
55.27482464
55.27148574
55.26814834
55.26481239
55.26147787
55.25814475
55.25481301
55.25148262
55.24815354
55.24482576
55.24149925
55.23817398
55.23484993
55.23152707
55.22820538
55.22488483
55.22156541
55.2182471
55.21492986
55.21161368
55.20829855
55.20498443
55.20167131
55.19835917
55.19504799
55.19173776
55.18842846
55.18512006
55.18181256
55.17850594
55.17520018
55.17189526
55.16859118
55.16528792
55.16198547
55.15868381
55.15538292
55.15208281
55.14878346
55.14548484
55.14218697
55.13888981
55.13559337
55.13229763
55.12900259
55.12570822
55.12241454
55.11912151
55.11582914
55.11253742
55.10924634
55.10595588
55.10266605
55.09937683
55.09608821
55.09280019
55.08951275
55.08622589
55.08293959
55.07965386
55.07636868
55.07308404
55.06979993
55.06651635
55.06323328
55.05995072
55.05666865
55.05338706
55.05010595
55.04682531
55.04354512
55.04026537
55.03698606
55.03370717
55.0304287
55.02715063
55.02387294
55.02059564
55.01731871
55.01404214
55.01076591
55.00749002
55.00421445
55.0009392
54.99766424
54.99438958
54.9911152
54.98784109
54.98456724
54.98129364
54.97802027
54.97474713
54.9714742
54.96820148
54.96492896
54.96165663
54.95838446
54.95511247
54.95184064
54.94856895
54.94529741
54.94202599
54.93875471
54.93548354
54.93221247
54.92894151
54.92567064
54.92239987
54.91912917
54.91585855
54.912588
54.90931751
54.90604708
54.90277671
54.89950638
54.8962361
54.89296586
54.88969566
54.88642549
54.88315535
54.87988524
54.87661516
54.87334509
54.87007505
54.86680502
54.863535
54.860265
54.85699501
54.85372503
54.85045506
54.84718509
54.84391514
54.84064518
54.83737523
54.83410529
54.83083534
54.8275654
54.82429546
54.82102552
54.81775559
54.81448565
54.81121571
54.80794577
54.80467584
54.8014059
54.79813596
54.79486602
54.79159608
54.78832614
54.7850562
54.78178625
54.77851631
54.77524636
54.77197642
54.76870647
54.76543652
54.76216657
54.75889662
54.75562667
54.75235672
54.74908676
54.74581681
54.74254685
54.73927689
54.73600693
54.73273697
54.72946701
54.72619705
54.72292708
54.71965712
54.71638715
54.71311719
54.70984722
54.70657725
54.70330728
54.7000373
54.69676733
54.69349736
54.69022738
54.6869574
54.68368743
54.68041745
54.67714747
54.67387748
54.6706075
54.66733752
54.66406753
54.66079755
54.65752756
54.65425757
54.65098757
54.64771759
54.64444759
54.64117765
54.64117765
56.51407574
56.51407574
56.24993136
56.20418987
56.18290855
56.16801916
56.15577654
56.14489038
56.13480049
56.12523245
56.11604183
56.10714859
56.09850614
56.09008567
56.08186793
56.07383882
56.06598706
56.05830291
56.05077757
56.04340283
56.03617096
56.02907463
56.02210689
56.01526117
56.00853127
56.00191136
55.99539599
55.98898001
55.98265864
55.97642741
55.97028212
55.96421887
55.958234
55.9523241
55.94648596
55.94071659
55.93501319
55.92937312
55.92379391
55.91827322
55.91280888
55.9073988
55.90204105
55.89673379
55.89147526
55.88626383
55.88109793
55.87597608
55.87089688
55.86585898
55.86086111
55.85590206
55.85098067
55.84609584
55.84124651
55.83643169
55.83165039
55.82690171
55.82218475
55.81749868
55.81284266
55.80821593
55.80361773
55.79904734
55.79450406
55.78998722
55.78549617
55.78103029
55.77658898
55.77217166
55.76777777
55.76340675
55.7590581
55.75473129
55.75042584
55.74614126
55.74187711
55.73763291
55.73340825
55.72920269
55.72501583
55.72084726
55.7166966
55.71256347
55.70844749
55.70434832
55.7002656
55.696199
55.69214817
55.6881128
55.68409258
55.68008719
55.67609634
55.67211972
55.66815707
55.66420809
55.66027252
55.65635008
55.65244052
55.64854358
55.64465902
55.64078658
55.63692603
55.63307714
55.62923967
55.62541342
55.62159814
55.61779364
55.6139997
55.61021612
55.60644269
55.60267922
55.59892551
55.59518138
55.59144664
55.5877211
55.5840046
55.58029694
55.57659798
55.57290753
55.56922543
55.56555152
55.56188564
55.55822764
55.55457736
55.55093466
55.54729939
55.5436714
55.54005056
55.53643672
55.53282975
55.52922953
55.52563591
55.52204877
55.51846798
55.51489343
55.51132499
55.50776254
55.50420597
55.50065516
55.49711
55.49357039
55.4900362
55.48650735
55.48298372
55.47946522
55.47595173
55.47244318
55.46893945
55.46544046
55.46194611
55.45845632
55.45497099
55.45149004
55.44801338
55.44454093
55.44107261
55.43760833
55.43414802
55.43069159
55.42723898
55.4237901
55.42034489
55.41690328
55.41346518
55.41003054
55.40659928
55.40317134
55.39974666
55.39632516
55.39290679
55.38949149
55.38607919
55.38266984
55.37926337
55.37585973
55.37245887
55.36906073
55.36566526
55.3622724
55.3588821
55.35549431
55.35210898
55.34872607
55.34534552
55.34196729
55.33859133
55.3352176
55.33184605
55.32847664
55.32510933
55.32174407
55.31838083
55.31501957
55.31166024
55.3083028
55.30494723
55.30159347
55.29824151
55.29489129
55.29154279
55.28819597
55.2848508
55.28150724
55.27816527
55.27482485
55.27148594
55.26814853
55.26481258
55.26147806
55.25814494
55.25481319
55.2514828
55.24815372
55.24482593
55.24149942
55.23817414
55.23485009
55.23152722
55.22820553
55.22488498
55.22156556
55.21824724
55.21493
55.21161382
55.20829868
55.20498456
55.20167144
55.1983593
55.19504812
55.19173788
55.18842858
55.18512018
55.18181268
55.17850605
55.17520029
55.17189537
55.16859129
55.16528803
55.16198557
55.15868391
55.15538302
55.15208291
55.14878355
55.14548493
55.14218706
55.1388899
55.13559346
55.13229772
55.12900267
55.1257083
55.12241461
55.11912159
55.11582922
55.11253749
55.10924641
55.10595595
55.10266612
55.09937689
55.09608827
55.09280025
55.08951281
55.08622594
55.08293965
55.07965392
55.07636873
55.07308409
55.06979998
55.0665164
55.06323333
55.05995076
55.05666869
55.0533871
55.05010599
55.04682534
55.04354515
55.04026541
55.03698609
55.03370721
55.03042873
55.02715066
55.02387297
55.02059567
55.01731874
55.01404216
55.01076593
55.00749004
55.00421447
55.00093922
54.99766426
54.9943896
54.99111522
54.98784111
54.98456726
54.98129365
54.97802028
54.97474714
54.97147421
54.9682015
54.96492897
54.96165663
54.95838447
54.95511248
54.95184064
54.94856896
54.94529741
54.942026
54.93875471
54.93548354
54.93221248
54.92894151
54.92567065
54.92239987
54.91912917
54.91585855
54.912588
54.90931751
54.90604708
54.90277671
54.89950638
54.8962361
54.89296586
54.88969566
54.88642549
54.88315536
54.87988524
54.87661516
54.87334509
54.87007505
54.86680502
54.863535
54.860265
54.85699501
54.85372503
54.85045506
54.84718509
54.84391514
54.84064518
54.83737523
54.83410529
54.83083534
54.8275654
54.82429546
54.82102552
54.81775559
54.81448565
54.81121571
54.80794577
54.80467584
54.8014059
54.79813596
54.79486602
54.79159608
54.78832614
54.7850562
54.78178625
54.77851631
54.77524636
54.77197642
54.76870647
54.76543652
54.76216657
54.75889662
54.75562667
54.75235672
54.74908676
54.74581681
54.74254685
54.73927689
54.73600693
54.73273697
54.72946701
54.72619705
54.72292708
54.71965712
54.71638715
54.71311718
54.70984722
54.70657725
54.70330728
54.7000373
54.69676733
54.69349736
54.69022738
54.6869574
54.68368742
54.68041745
54.67714746
54.67387748
54.6706075
54.66733752
54.66406753
54.66079754
54.65752756
54.65425757
54.65098757
54.64771759
54.64444759
54.64117765
54.64117765
56.49816092
56.49816092
56.25281796
56.20532991
56.18351013
56.16839919
56.15604078
56.14508546
56.13495074
56.125352
56.11613949
56.10723014
56.09857551
56.09014561
56.08192042
56.07388531
56.06602864
56.0583404
56.05081161
56.04343393
56.03619953
56.02910099
56.02213131
56.01528387
56.00855245
56.00193117
55.99541456
55.98899748
55.9826751
55.97644295
55.97029682
55.9642328
55.95824722
55.95233666
55.94649792
55.94072799
55.93502407
55.92938352
55.92380386
55.91828275
55.91281801
55.90740757
55.90204947
55.89674188
55.89148305
55.88627133
55.88110516
55.87598305
55.8709036
55.86586547
55.86086738
55.85590812
55.85098653
55.84610151
55.84125201
55.83643701
55.83165555
55.82690672
55.82218961
55.81750339
55.81284724
55.80822038
55.80362205
55.79905154
55.79450814
55.78999119
55.78550003
55.78103405
55.77659265
55.77217523
55.76778124
55.76341014
55.7590614
55.75473451
55.75042898
55.74614433
55.74188009
55.73763583
55.73341109