# vtk DataFile Version 2.0
FlowField
ASCII
DATASET STRUCTURED_GRID
DIMENSIONS 400 1 200
POINTS 80000 float
0 0 0
0.08 0 0
0.16 0 0
0.24 0 0
0.32 0 0
0.4 0 0
0.48 0 0
0.56 0 0
0.64 0 0
0.72 0 0
0.8 0 0
0.88 0 0
0.96 0 0
1.04 0 0
1.12 0 0
1.2 0 0
1.28 0 0
1.36 0 0
1.44 0 0
1.52 0 0
1.6 0 0
1.68 0 0
1.76 0 0
1.84 0 0
1.92 0 0
2 0 0
2.08 0 0
2.16 0 0
2.24 0 0
2.32 0 0
2.4 0 0
2.48 0 0
2.56 0 0
2.64 0 0
2.72 0 0
2.8 0 0
2.88 0 0
2.96 0 0
3.04 0 0
3.12 0 0
3.2 0 0
3.28 0 0
3.36 0 0
3.44 0 0
3.52 0 0
3.6 0 0
3.68 0 0
3.76 0 0
3.84 0 0
3.92 0 0
4 0 0
4.08 0 0
4.16 0 0
4.24 0 0
4.32 0 0
4.4 0 0
4.48 0 0
4.56 0 0
4.64 0 0
4.72 0 0
4.8 0 0
4.88 0 0
4.96 0 0
5.04 0 0
5.12 0 0
5.2 0 0
5.28 0 0
5.36 0 0
5.44 0 0
5.52 0 0
5.6 0 0
5.68 0 0
5.76 0 0
5.84 0 0
5.92 0 0
6 0 0
6.08 0 0
6.16 0 0
6.24 0 0
6.32 0 0
6.4 0 0
6.48 0 0
6.56 0 0
6.64 0 0
6.72 0 0
6.8 0 0
6.88 0 0
6.96 0 0
7.04 0 0
7.12 0 0
7.2 0 0
7.28 0 0
7.36 0 0
7.44 0 0
7.52 0 0
7.6 0 0
7.68 0 0
7.76 0 0
7.84 0 0
7.92 0 0
8 0 0
8.08 0 0
8.16 0 0
8.24 0 0
8.32 0 0
8.4 0 0
8.48 0 0
8.56 0 0
8.64 0 0
8.72 0 0
8.8 0 0
8.88 0 0
8.96 0 0
9.04 0 0
9.12 0 0
9.2 0 0
9.28 0 0
9.36 0 0
9.44 0 0
9.52 0 0
9.6 0 0
9.68 0 0
9.76 0 0
9.84 0 0
9.92 0 0
10 0 0
10.08 0 0
10.16 0 0
10.24 0 0
10.32 0 0
10.4 0 0
10.48 0 0
10.56 0 0
10.64 0 0
10.72 0 0
10.8 0 0
10.88 0 0
10.96 0 0
11.04 0 0
11.12 0 0
11.2 0 0
11.28 0 0
11.36 0 0
11.44 0 0
11.52 0 0
11.6 0 0
11.68 0 0
11.76 0 0
11.84 0 0
11.92 0 0
12 0 0
12.08 0 0
12.16 0 0
12.24 0 0
12.32 0 0
12.4 0 0
12.48 0 0
12.56 0 0
12.64 0 0
12.72 0 0
12.8 0 0
12.88 0 0
12.96 0 0
13.04 0 0
13.12 0 0
13.2 0 0
13.28 0 0
13.36 0 0
13.44 0 0
13.52 0 0
13.6 0 0
13.68 0 0
13.76 0 0
13.84 0 0
13.92 0 0
14 0 0
14.08 0 0
14.16 0 0
14.24 0 0
14.32 0 0
14.4 0 0
14.48 0 0
14.56 0 0
14.64 0 0
14.72 0 0
14.8 0 0
14.88 0 0
14.96 0 0
15.04 0 0
15.12 0 0
15.2 0 0
15.28 0 0
15.36 0 0
15.44 0 0
15.52 0 0
15.6 0 0
15.68 0 0
15.76 0 0
15.84 0 0
15.92 0 0
16 0 0
16.08 0 0
16.16 0 0
16.24 0 0
16.32 0 0
16.4 0 0
16.48 0 0
16.56 0 0
16.64 0 0
16.72 0 0
16.8 0 0
16.88 0 0
16.96 0 0
17.04 0 0
17.12 0 0
17.2 0 0
17.28 0 0
17.36 0 0
17.44 0 0
17.52 0 0
17.6 0 0
17.68 0 0
17.76 0 0
17.84 0 0
17.92 0 0
18 0 0
18.08 0 0
18.16 0 0
18.24 0 0
18.32 0 0
18.4 0 0
18.48 0 0
18.56 0 0
18.64 0 0
18.72 0 0
18.8 0 0
18.88 0 0
18.96 0 0
19.04 0 0
19.12 0 0
19.2 0 0
19.28 0 0
19.36 0 0
19.44 0 0
19.52 0 0
19.6 0 0
19.68 0 0
19.76 0 0
19.84 0 0
19.92 0 0
20 0 0
20.08 0 0
20.16 0 0
20.24 0 0
20.32 0 0
20.4 0 0
20.48 0 0
20.56 0 0
20.64 0 0
20.72 0 0
20.8 0 0
20.88 0 0
20.96 0 0
21.04 0 0
21.12 0 0
21.2 0 0
21.28 0 0
21.36 0 0
21.44 0 0
21.52 0 0
21.6 0 0
21.68 0 0
21.76 0 0
21.84 0 0
21.92 0 0
22 0 0
22.08 0 0
22.16 0 0
22.24 0 0
22.32 0 0
22.4 0 0
22.48 0 0
22.56 0 0
22.64 0 0
22.72 0 0
22.8 0 0
22.88 0 0
22.96 0 0
23.04 0 0
23.12 0 0
23.2 0 0
23.28 0 0
23.36 0 0
23.44 0 0
23.52 0 0
23.6 0 0
23.68 0 0
23.76 0 0
23.84 0 0
23.92 0 0
24 0 0
24.08 0 0
24.16 0 0
24.24 0 0
24.32 0 0
24.4 0 0
24.48 0 0
24.56 0 0
24.64 0 0
24.72 0 0
24.8 0 0
24.88 0 0
24.96 0 0
25.04 0 0
25.12 0 0
25.2 0 0
25.28 0 0
25.36 0 0
25.44 0 0
25.52 0 0
25.6 0 0
25.68 0 0
25.76 0 0
25.84 0 0
25.92 0 0
26 0 0
26.08 0 0
26.16 0 0
26.24 0 0
26.32 0 0
26.4 0 0
26.48 0 0
26.56 0 0
26.64 0 0
26.72 0 0
26.8 0 0
26.88 0 0
26.96 0 0
27.04 0 0
27.12 0 0
27.2 0 0
27.28 0 0
27.36 0 0
27.44 0 0
27.52 0 0
27.6 0 0
27.68 0 0
27.76 0 0
27.84 0 0
27.92 0 0
28 0 0
28.08 0 0
28.16 0 0
28.24 0 0
28.32 0 0
28.4 0 0
28.48 0 0
28.56 0 0
28.64 0 0
28.72 0 0
28.8 0 0
28.88 0 0
28.96 0 0
29.04 0 0
29.12 0 0
29.2 0 0
29.28 0 0
29.36 0 0
29.44 0 0
29.52 0 0
29.6 0 0
29.68 0 0
29.76 0 0
29.84 0 0
29.92 0 0
30 0 0
30.08 0 0
30.16 0 0
30.24 0 0
30.32 0 0
30.4 0 0
30.48 0 0
30.56 0 0
30.64 0 0
30.72 0 0
30.8 0 0
30.88 0 0
30.96 0 0
31.04 0 0
31.12 0 0
31.2 0 0
31.28 0 0
31.36 0 0
31.44 0 0
31.52 0 0
31.6 0 0
31.68 0 0
31.76 0 0
31.84 0 0
31.92 0 0
0 0.005 0
0.08 0.005 0
0.16 0.005 0
0.24 0.005 0
0.32 0.005 0
0.4 0.005 0
0.48 0.005 0
0.56 0.005 0
0.64 0.005 0
0.72 0.005 0
0.8 0.005 0
0.88 0.005 0
0.96 0.005 0
1.04 0.005 0
1.12 0.005 0
1.2 0.005 0
1.28 0.005 0
1.36 0.005 0
1.44 0.005 0
1.52 0.005 0
1.6 0.005 0
1.68 0.005 0
1.76 0.005 0
1.84 0.005 0
1.92 0.005 0
2 0.005 0
2.08 0.005 0
2.16 0.005 0
2.24 0.005 0
2.32 0.005 0
2.4 0.005 0
2.48 0.005 0
2.56 0.005 0
2.64 0.005 0
2.72 0.005 0
2.8 0.005 0
2.88 0.005 0
2.96 0.005 0
3.04 0.005 0
3.12 0.005 0
3.2 0.005 0
3.28 0.005 0
3.36 0.005 0
3.44 0.005 0
3.52 0.005 0
3.6 0.005 0
3.68 0.005 0
3.76 0.005 0
3.84 0.005 0
3.92 0.005 0
4 0.005 0
4.08 0.005 0
4.16 0.005 0
4.24 0.005 0
4.32 0.005 0
4.4 0.005 0
4.48 0.005 0
4.56 0.005 0
4.64 0.005 0
4.72 0.005 0
4.8 0.005 0
4.88 0.005 0
4.96 0.005 0
5.04 0.005 0
5.12 0.005 0
5.2 0.005 0
5.28 0.005 0
5.36 0.005 0
5.44 0.005 0
5.52 0.005 0
5.6 0.005 0
5.68 0.005 0
5.76 0.005 0
5.84 0.005 0
5.92 0.005 0
6 0.005 0
6.08 0.005 0
6.16 0.005 0
6.24 0.005 0
6.32 0.005 0
6.4 0.005 0
6.48 0.005 0
6.56 0.005 0
6.64 0.005 0
6.72 0.005 0
6.8 0.005 0
6.88 0.005 0
6.96 0.005 0
7.04 0.005 0
7.12 0.005 0
7.2 0.005 0
7.28 0.005 0
7.36 0.005 0
7.44 0.005 0
7.52 0.005 0
7.6 0.005 0
7.68 0.005 0
7.76 0.005 0
7.84 0.005 0
7.92 0.005 0
8 0.005 0
8.08 0.005 0
8.16 0.005 0
8.24 0.005 0
8.32 0.005 0
8.4 0.005 0
8.48 0.005 0
8.56 0.005 0
8.64 0.005 0
8.72 0.005 0
8.8 0.005 0
8.88 0.005 0
8.96 0.005 0
9.04 0.005 0
9.12 0.005 0
9.2 0.005 0
9.28 0.005 0
9.36 0.005 0
9.44 0.005 0
9.52 0.005 0
9.6 0.005 0
9.68 0.005 0
9.76 0.005 0
9.84 0.005 0
9.92 0.005 0
10 0.005 0
10.08 0.005 0
10.16 0.005 0
10.24 0.005 0
10.32 0.005 0
10.4 0.005 0
10.48 0.005 0
10.56 0.005 0
10.64 0.005 0
10.72 0.005 0
10.8 0.005 0
10.88 0.005 0
10.96 0.005 0
11.04 0.005 0
11.12 0.005 0
11.2 0.005 0
11.28 0.005 0
11.36 0.005 0
11.44 0.005 0
11.52 0.005 0
11.6 0.005 0
11.68 0.005 0
11.76 0.005 0
11.84 0.005 0
11.92 0.005 0
12 0.005 0
12.08 0.005 0
12.16 0.005 0
12.24 0.005 0
12.32 0.005 0
12.4 0.005 0
12.48 0.005 0
12.56 0.005 0
12.64 0.005 0
12.72 0.005 0
12.8 0.005 0
12.88 0.005 0
12.96 0.005 0
13.04 0.005 0
13.12 0.005 0
13.2 0.005 0
13.28 0.005 0
13.36 0.005 0
13.44 0.005 0
13.52 0.005 0
13.6 0.005 0
13.68 0.005 0
13.76 0.005 0
13.84 0.005 0
13.92 0.005 0
14 0.005 0
14.08 0.005 0
14.16 0.005 0
14.24 0.005 0
14.32 0.005 0
14.4 0.005 0
14.48 0.005 0
14.56 0.005 0
14.64 0.005 0
14.72 0.005 0
14.8 0.005 0
14.88 0.005 0
14.96 0.005 0
15.04 0.005 0
15.12 0.005 0
15.2 0.005 0
15.28 0.005 0
15.36 0.005 0
15.44 0.005 0
15.52 0.005 0
15.6 0.005 0
15.68 0.005 0
15.76 0.005 0
15.84 0.005 0
15.92 0.005 0
16 0.005 0
16.08 0.005 0
16.16 0.005 0
16.24 0.005 0
16.32 0.005 0
16.4 0.005 0
16.48 0.005 0
16.56 0.005 0
16.64 0.005 0
16.72 0.005 0
16.8 0.005 0
16.88 0.005 0
16.96 0.005 0
17.04 0.005 0
17.12 0.005 0
17.2 0.005 0
17.28 0.005 0
17.36 0.005 0
17.44 0.005 0
17.52 0.005 0
17.6 0.005 0
17.68 0.005 0
17.76 0.005 0
17.84 0.005 0
17.92 0.005 0
18 0.005 0
18.08 0.005 0
18.16 0.005 0
18.24 0.005 0
18.32 0.005 0
18.4 0.005 0
18.48 0.005 0
18.56 0.005 0
18.64 0.005 0
18.72 0.005 0
18.8 0.005 0
18.88 0.005 0
18.96 0.005 0
19.04 0.005 0
19.12 0.005 0
19.2 0.005 0
19.28 0.005 0
19.36 0.005 0
19.44 0.005 0
19.52 0.005 0
19.6 0.005 0
19.68 0.005 0
19.76 0.005 0
19.84 0.005 0
19.92 0.005 0
20 0.005 0
20.08 0.005 0
20.16 0.005 0
20.24 0.005 0
20.32 0.005 0
20.4 0.005 0
20.48 0.005 0
20.56 0.005 0
20.64 0.005 0
20.72 0.005 0
20.8 0.005 0
20.88 0.005 0
20.96 0.005 0
21.04 0.005 0
21.12 0.005 0
21.2 0.005 0
21.28 0.005 0
21.36 0.005 0
21.44 0.005 0
21.52 0.005 0
21.6 0.005 0
21.68 0.005 0
21.76 0.005 0
21.84 0.005 0
21.92 0.005 0
22 0.005 0
22.08 0.005 0
22.16 0.005 0
22.24 0.005 0
22.32 0.005 0
22.4 0.005 0
22.48 0.005 0
22.56 0.005 0
22.64 0.005 0
22.72 0.005 0
22.8 0.005 0
22.88 0.005 0
22.96 0.005 0
23.04 0.005 0
23.12 0.005 0
23.2 0.005 0
23.28 0.005 0
23.36 0.005 0
23.44 0.005 0
23.52 0.005 0
23.6 0.005 0
23.68 0.005 0
23.76 0.005 0
23.84 0.005 0
23.92 0.005 0
24 0.005 0
24.08 0.005 0
24.16 0.005 0
24.24 0.005 0
24.32 0.005 0
24.4 0.005 0
24.48 0.005 0
24.56 0.005 0
24.64 0.005 0
24.72 0.005 0
24.8 0.005 0
24.88 0.005 0
24.96 0.005 0
25.04 0.005 0
25.12 0.005 0
25.2 0.005 0
25.28 0.005 0
25.36 0.005 0
25.44 0.005 0
25.52 0.005 0
25.6 0.005 0
25.68 0.005 0
25.76 0.005 0
25.84 0.005 0
25.92 0.005 0
26 0.005 0
26.08 0.005 0
26.16 0.005 0
26.24 0.005 0
26.32 0.005 0
26.4 0.005 0
26.48 0.005 0
26.56 0.005 0
26.64 0.005 0
26.72 0.005 0
26.8 0.005 0
26.88 0.005 0
26.96 0.005 0
27.04 0.005 0
27.12 0.005 0
27.2 0.005 0
27.28 0.005 0
27.36 0.005 0
27.44 0.005 0
27.52 0.005 0
27.6 0.005 0
27.68 0.005 0
27.76 0.005 0
27.84 0.005 0
27.92 0.005 0
28 0.005 0
28.08 0.005 0
28.16 0.005 0
28.24 0.005 0
28.32 0.005 0
28.4 0.005 0
28.48 0.005 0
28.56 0.005 0
28.64 0.005 0
28.72 0.005 0
28.8 0.005 0
28.88 0.005 0
28.96 0.005 0
29.04 0.005 0
29.12 0.005 0
29.2 0.005 0
29.28 0.005 0
29.36 0.005 0
29.44 0.005 0
29.52 0.005 0
29.6 0.005 0
29.68 0.005 0
29.76 0.005 0
29.84 0.005 0
29.92 0.005 0
30 0.005 0
30.08 0.005 0
30.16 0.005 0
30.24 0.005 0
30.32 0.005 0
30.4 0.005 0
30.48 0.005 0
30.56 0.005 0
30.64 0.005 0
30.72 0.005 0
30.8 0.005 0
30.88 0.005 0
30.96 0.005 0
31.04 0.005 0
31.12 0.005 0
31.2 0.005 0
31.28 0.005 0
31.36 0.005 0
31.44 0.005 0
31.52 0.005 0
31.6 0.005 0
31.68 0.005 0
31.76 0.005 0
31.84 0.005 0
31.92 0.005 0
0 0.01 0
0.08 0.01 0
0.16 0.01 0
0.24 0.01 0
0.32 0.01 0
0.4 0.01 0
0.48 0.01 0
0.56 0.01 0
0.64 0.01 0
0.72 0.01 0
0.8 0.01 0
0.88 0.01 0
0.96 0.01 0
1.04 0.01 0
1.12 0.01 0
1.2 0.01 0
1.28 0.01 0
1.36 0.01 0
1.44 0.01 0
1.52 0.01 0
1.6 0.01 0
1.68 0.01 0
1.76 0.01 0
1.84 0.01 0
1.92 0.01 0
2 0.01 0
2.08 0.01 0
2.16 0.01 0
2.24 0.01 0
2.32 0.01 0
2.4 0.01 0
2.48 0.01 0
2.56 0.01 0
2.64 0.01 0
2.72 0.01 0
2.8 0.01 0
2.88 0.01 0
2.96 0.01 0
3.04 0.01 0
3.12 0.01 0
3.2 0.01 0
3.28 0.01 0
3.36 0.01 0
3.44 0.01 0
3.52 0.01 0
3.6 0.01 0
3.68 0.01 0
3.76 0.01 0
3.84 0.01 0
3.92 0.01 0
4 0.01 0
4.08 0.01 0
4.16 0.01 0
4.24 0.01 0
4.32 0.01 0
4.4 0.01 0
4.48 0.01 0
4.56 0.01 0
4.64 0.01 0
4.72 0.01 0
4.8 0.01 0
4.88 0.01 0
4.96 0.01 0
5.04 0.01 0
5.12 0.01 0
[...]
POINT_DATA 80000

SCALARS v float 1
LOOKUP_TABLE default
0
0
0
0
0
0
0
0
0
0
0
0
0
0
0
0
0
0
0
0
0
0
0
0
0
0
0
0
0
0
0
0
0
0
0
0
0
0
0
0
0
0
0
0
0
0
0
0
0
0
0
0
0
0
0
0
0
0
0
0
0
0
0
0
0
0
0
0
0
0
0
0
0
0
0
0
0
0
0
0
0
0
0
0
0
0
0
0
0
0
0
0
0
0
0
0
0
0
0
0
0
0
0
0
0
0
0
0
0
0
0
0
0
0
0
0
0
0
0
0
0
0
0
0
0
0
0
0
0
0
0
0
0
0
0
0
0
0
0
0
0
0
0
0
0
0
0
0
0
0
0
0
0
0
0
0
0
0
0
0
0
0
0
0
0
0
0
0
0
0
0
0
0
0
0
0
0
0
0
0
0
0
0
0
0
0
0
0
0
0
0
0
0
0
0
0
0
0
0
0
0
0
0
0
0
0
0
0
0
0
0
0
0
0
0
0
0
0
0
0
0
0
0
0
0
0
0
0
0
0
0
0
0
0
0
0
0
0
0
0
0
0
0
0
0
0
0
0
0
0
0
0
0
0
0
0
0
0
0
0
0
0
0
0
0
0
0
0
0
0
0
0
0
0
0
0
0
0
0
0
0
0
0
0
0
0
0
0
0
0
0
0
0
0
0
0
0
0
0
0
0
0
0
0
0
0
0
0
0
0
0
0
0
0
0
0
0
0
0
0
0
0
0
0
0
0
0
0
0
0
0
0
0
0
0
0
0
0
0
0
0
0
0
0
0
0
0
0
0
0
0
0
0
0
0
0
0
0
0
0
0
0
0
0
0
0
0
0
0
0
0
0
0
0
0
0
0
0
0
0
0
0
0
0
0
0
0
0
0
0
0
0
0
0
0
0
0
0
0
0
-0.05427108997
0.05427108997
0.003962095021
0.0009983297453
0.0004922602656
0.0003026962885
0.0002073201218
0.0001516916902
0.0001162502596
9.229386493e-05
7.53807054e-05
6.302008099e-05
5.371962607e-05
4.654116799e-05
4.087331643e-05
3.630623168e-05
3.255868098e-05
2.943368839e-05
2.679067039e-05
2.452747925e-05
2.256859534e-05
2.085723227e-05
1.934998089e-05
1.801312761e-05
1.682009102e-05
1.574961506e-05
1.478447885e-05
1.391056366e-05
1.311616906e-05
1.239150492e-05
1.172830894e-05
1.11195547e-05
1.055922604e-05
1.004214037e-05
9.563808726e-06
9.120323708e-06
8.70826883e-06
8.32464453e-06
7.966807275e-06
7.632419109e-06
7.319405432e-06
7.025919709e-06
6.750313578e-06
6.491111486e-06
6.24698915e-06
6.016755075e-06
5.799334678e-06
5.593756607e-06
5.39914101e-06
5.214689133e-06
5.039674522e-06
4.873435166e-06
4.715366691e-06
4.564916438e-06
4.421578116e-06
4.284887215e-06
4.154416917e-06
4.029774436e-06
3.910597801e-06
3.796552986e-06
3.687331413e-06
3.582647547e-06
3.48223694e-06
3.385854377e-06
3.293272233e-06
3.204278955e-06
3.118677771e-06
3.036285427e-06
2.956931165e-06
2.880455637e-06
2.80671009e-06
2.735555524e-06
2.666861894e-06
2.600507507e-06
2.536378363e-06
2.474367547e-06
2.414374835e-06
2.356306059e-06
2.30007279e-06
2.245591887e-06
2.192785097e-06
2.141578806e-06
2.091903634e-06
2.043694188e-06
1.996888798e-06
1.951429238e-06
1.907260546e-06
1.864330763e-06
1.822590761e-06
1.781994077e-06
1.742496681e-06
1.704056915e-06
1.666635249e-06
1.630194225e-06
1.594698277e-06
1.560113633e-06
1.526408204e-06
1.493551478e-06
1.461514456e-06
1.430269496e-06
1.399790287e-06
1.370051752e-06
1.341029994e-06
1.312702186e-06
1.285046533e-06
1.258042231e-06
1.2316694e-06
1.205908981e-06
1.180742779e-06
1.156153341e-06
1.132123965e-06
1.108638602e-06
1.08568191e-06
1.063239106e-06
1.041296027e-06
1.019839032e-06
9.988550371e-07
9.783314275e-07
9.582560681e-07
9.386172696e-07
9.194037611e-07
9.006046952e-07
8.822095688e-07
8.642082715e-07
8.465910375e-07
8.293484045e-07
8.124712693e-07
7.959507759e-07
7.79778381e-07
7.63945824e-07
7.484450638e-07
7.332683715e-07
7.184081753e-07
7.038571966e-07
6.896083393e-07
6.756547222e-07
6.619896659e-07
6.486066807e-07
6.354994695e-07
6.226618791e-07
6.100879528e-07
5.977719013e-07
5.857080579e-07
5.738909423e-07
5.623152028e-07
5.509756238e-07
5.398671155e-07
5.289847408e-07
5.183236614e-07
5.078791865e-07
4.976467099e-07
4.876217721e-07
4.777999911e-07
4.681771049e-07
4.587489523e-07
4.495114767e-07
4.404606987e-07
4.315927259e-07
4.229038073e-07
4.143902023e-07
4.060483306e-07
3.978746206e-07
3.898656484e-07
3.820180118e-07
3.743284189e-07
3.667936364e-07
3.594105061e-07
3.521759287e-07
3.450868834e-07
3.381404233e-07
3.313336248e-07
3.246636776e-07
3.18127813e-07
3.117233005e-07
3.054474825e-07
2.992977746e-07
2.932716145e-07
2.873665212e-07
2.815800554e-07
2.759098104e-07
2.703534536e-07
2.649086978e-07
2.595733037e-07
2.543450653e-07
2.492218223e-07
2.442014841e-07
2.39281965e-07
2.344612502e-07
2.297373611e-07
2.251083595e-07
2.205723169e-07
2.161273967e-07
2.117717658e-07
2.075036302e-07
2.03321234e-07
1.992228724e-07
1.952068503e-07
1.912715265e-07
1.87415265e-07
1.836365161e-07
1.799337e-07
1.763053133e-07
1.727498487e-07
1.69265867e-07
1.658519194e-07
1.625066196e-07
1.592285731e-07
1.560164421e-07
1.528689133e-07
1.497846903e-07
1.46762499e-07
1.438011007e-07
1.408992921e-07
1.380558582e-07
1.352696327e-07
1.325394777e-07
1.298642717e-07
1.272428966e-07
1.24674298e-07
1.221574061e-07
1.19691179e-07
1.172746002e-07
1.149066941e-07
1.125864697e-07
1.103129738e-07
1.080852651e-07
1.059024321e-07
1.037635643e-07
1.016677959e-07
9.961424739e-08
9.760208227e-08
9.563045588e-08
9.369857629e-08
9.1805623e-08
8.995083153e-08
8.813341973e-08
8.635266098e-08
8.460779829e-08
8.289810856e-08
8.122290218e-08
7.958146891e-08
7.797315201e-08
7.639725539e-08
7.485315744e-08
7.334019436e-08
7.185776375e-08
7.040523077e-08
6.898202005e-08
6.758750768e-08
6.622113342e-08
6.488233762e-08
6.357055438e-08
6.228525709e-08
6.102589717e-08
5.979194526e-08
5.858291457e-08
5.739828757e-08
5.62375722e-08
5.510029827e-08
5.398598091e-08
5.289416154e-08
5.18243913e-08
5.077622301e-08
4.974921271e-08
4.874295567e-08
4.775702286e-08
4.679100499e-08
4.58444876e-08
4.491709757e-08
4.400844768e-08
4.311814026e-08
4.2245844e-08
4.139115579e-08
4.055373201e-08
3.973323465e-08
3.892932044e-08
3.814164699e-08
3.736989043e-08
3.661372815e-08
3.587285277e-08
3.514695564e-08
3.443573153e-08
3.373888417e-08
3.305610826e-08
3.238714242e-08
3.173171792e-08
3.108950795e-08
3.046031335e-08
2.984383603e-08
2.923981959e-08
2.864801635e-08
2.806815975e-08
2.750005619e-08
2.694342459e-08
2.639805634e-08
2.586371581e-08
2.53401816e-08
2.482723113e-08
2.432466125e-08
2.383225448e-08
2.33498054e-08
2.287711375e-08
2.241398693e-08
2.196022398e-08
2.151565163e-08
2.108005889e-08
2.065328089e-08
2.023513458e-08
1.982545466e-08
1.942405785e-08
1.903077875e-08
1.864545836e-08
1.826793548e-08
1.789805104e-08
1.753564323e-08
1.71805776e-08
1.683269201e-08
1.649185192e-08
1.615789954e-08
1.583070941e-08
1.551013763e-08
1.519604974e-08
1.48883144e-08
1.458683375e-08
1.42914206e-08
1.400201517e-08
1.371843151e-08
1.344063269e-08
1.316840451e-08
1.290173656e-08
1.264041733e-08
1.238444947e-08
1.213357967e-08
1.188788371e-08
1.164706164e-08
1.14112291e-08
1.118003458e-08
1.095368066e-08
1.073172516e-08
1.051447984e-08
1.030136705e-08
1.009289053e-08
9.888261126e-09
9.688193842e-09
9.491704676e-09
9.299751051e-09
9.111025015e-09
8.926882619e-09
8.745586613e-09
8.568995351e-09
8.394761107e-09
8.225489669e-09
8.057976627e-09
7.895790046e-09
7.734640356e-09
7.579368472e-09
7.4241982e-09
7.275708147e-09
7.126114809e-09
6.984336206e-09
6.839847621e-09
6.704785009e-09
6.564881474e-09
6.436632054e-09
6.300718917e-09
6.179501293e-09
6.0468328e-09
5.933053646e-09
5.802713529e-09
5.696985195e-09
5.567782256e-09
5.471053717e-09
5.341477276e-09
5.255107639e-09
5.123130918e-09
5.049056041e-09
4.911991949e-09
4.85292911e-09
4.707092605e-09
4.666764072e-09
4.507128565e-09
4.490610621e-09
4.310106194e-09
4.3240182e-09
4.112543358e-09
4.165060733e-09
3.907603719e-09
4.007344371e-09
3.680461632e-09
3.832396144e-09
3.397022828e-09
3.590136962e-09
2.977498551e-09
3.152361958e-09
2.244999203e-09
2.22300759e-09
9.189481385e-10
3.575055629e-10
4.610900623e-14
4.610900623e-14
-0.0952158619
0.0952158619
0.01297562026
0.003854618263
0.001934307931
0.001196199257
0.0008217410482
0.0006023144564
0.0004620669962
0.0003670409364
0.0002998306251
0.0002506449793
0.0002136016796
0.0001849938774
0.0001624004718
0.000144195121
0.0001292596989
0.0001168097392
0.000106284548
9.72762469e-05
8.948301756e-05
8.267777693e-05
7.668688402e-05
7.137547504e-05
6.663723591e-05
6.238718116e-05
5.855649162e-05
5.508877664e-05
5.19373325e-05
4.906310474e-05
4.643315347e-05
4.401948223e-05
4.179813268e-05
3.974847627e-05
3.785265334e-05
3.609512432e-05
3.446230692e-05
3.294228027e-05
3.152454146e-05
3.019980397e-05
2.895982943e-05
2.77972866e-05
2.670563218e-05
2.567901002e-05
2.471216502e-05
2.380036969e-05
2.2939361e-05
2.212528599e-05
2.135465478e-05
2.062429975e-05
1.993134011e-05
1.92731509e-05
1.864733598e-05
1.805170417e-05
1.74842485e-05
1.694312769e-05
1.642664989e-05
1.593325833e-05
1.546151843e-05
1.501010647e-05
1.457779947e-05
1.416346602e-05
1.376605825e-05
1.338460455e-05
1.301820296e-05
1.266601534e-05
1.232726207e-05
1.200121719e-05
1.168720411e-05
1.138459167e-05
1.109279057e-05
1.081125009e-05
1.053945519e-05
1.027692378e-05
1.002320425e-05
9.777873226e-06
9.540533573e-06
9.310812381e-06
9.088359362e-06
8.872845191e-06
8.663959993e-06
8.46141212e-06
8.264926801e-06
8.074245021e-06
7.889122511e-06
7.709328693e-06
7.534645817e-06
7.364868132e-06
7.199801028e-06
7.039260438e-06
6.88307206e-06
6.731070803e-06
6.583100166e-06
6.439011722e-06
6.298664616e-06
6.161925058e-06
6.028665987e-06
5.898766552e-06
5.772111797e-06
5.648592296e-06
5.528103843e-06
5.410547086e-06
5.29582732e-06
5.183854143e-06
5.074541269e-06
4.967806254e-06
4.863570281e-06
4.761757959e-06
4.662297131e-06
4.565118719e-06
4.470156512e-06
4.377346995e-06
4.28662928e-06
4.197944902e-06
4.111237706e-06
4.026453706e-06
3.943541012e-06
3.862449698e-06
3.783131663e-06
3.705540632e-06
3.629631946e-06
3.555362595e-06
3.482691038e-06
3.411577207e-06
3.341982382e-06
3.273869159e-06
3.207201392e-06
3.141944081e-06
3.078063358e-06
3.015526484e-06
2.954301703e-06
2.89435823e-06
2.835666279e-06
2.778196896e-06
2.721922021e-06
2.666814422e-06
2.612847619e-06
2.559995954e-06
2.508234405e-06
2.457538724e-06
2.407885288e-06
2.359251124e-06
2.311613903e-06
2.264951834e-06
2.219243767e-06
2.174469036e-06
2.130607567e-06
2.087639736e-06
2.045546467e-06
2.004309112e-06
1.963909537e-06
1.924330008e-06
1.885553223e-06
1.847562324e-06
1.810340847e-06
1.77387268e-06
1.738142153e-06
1.703133898e-06
1.668832943e-06
1.635224644e-06
1.602294702e-06
1.570029115e-06
1.53841422e-06
1.507436662e-06
1.477083363e-06
1.447341548e-06
1.418198722e-06
1.389642645e-06
1.36166137e-06
1.334243199e-06
1.30737668e-06
1.281050605e-06
1.255254016e-06
1.229976189e-06
1.205206601e-06
1.180934984e-06
1.157151287e-06
1.133845621e-06
1.111008378e-06
1.08863009e-06
1.066701493e-06
1.045213558e-06
1.024157398e-06
1.003524325e-06
9.833058319e-07
9.634935894e-07
9.440794276e-07
9.250553552e-07
9.064135251e-07
8.88146279e-07
8.702460938e-07
8.527056064e-07
8.355176064e-07
8.186750118e-07
8.021709003e-07
7.859984829e-07
7.701511238e-07
7.546223023e-07
7.394056309e-07
7.244948527e-07
7.098838403e-07
6.955665871e-07
6.815372143e-07
6.677899521e-07
6.543191395e-07
6.411192429e-07
6.281848408e-07
6.155105993e-07
6.030913254e-07
5.909219002e-07
5.789973166e-07
5.673126706e-07
5.558631598e-07
5.446440526e-07
5.336507633e-07
5.228787399e-07
5.12323552e-07
5.019808577e-07
4.91846402e-07
4.819160011e-07
4.721855681e-07
4.626510915e-07
4.533086349e-07
4.441543556e-07
4.351844754e-07
4.263952973e-07
4.177831946e-07
4.093446097e-07
4.010760716e-07
3.929741547e-07
3.850355163e-07
3.772568815e-07
3.696350412e-07
3.621668453e-07
3.548492066e-07
3.476790988e-07
3.40653564e-07
3.337696886e-07
3.270246341e-07
3.204156031e-07
3.139398627e-07
3.075947448e-07
3.013776223e-07
2.952859171e-07
2.893170911e-07
2.834686948e-07
2.777383079e-07
2.72123547e-07
2.666220942e-07
2.612316433e-07
2.559500078e-07
2.507749567e-07
2.457043617e-07
2.407361324e-07
2.358681717e-07
2.310984908e-07
2.26425116e-07
2.218460981e-07
2.173595219e-07
2.129635514e-07
2.086563537e-07
2.044361245e-07
2.003011412e-07
1.962496551e-07
1.922800063e-07
1.883905448e-07
1.845796447e-07
1.808457281e-07
1.771872393e-07
1.73602671e-07
1.700905127e-07
1.666493342e-07
1.632776746e-07
1.599741455e-07
1.567373767e-07
1.535660095e-07
1.504587484e-07
1.474142732e-07
1.444313427e-07
1.415086824e-07
1.386451154e-07
1.358394222e-07
1.330904543e-07
1.303970495e-07
1.277580993e-07
1.25172509e-07
1.226391884e-07
1.201570862e-07
1.177251625e-07
1.15342423e-07
1.13007864e-07
1.107205083e-07
1.084794128e-07
1.062836356e-07
1.041322627e-07
1.020244003e-07
9.99591718e-08
9.793570339e-08
9.595316983e-08
9.401074017e-08
9.210758126e-08
9.024293335e-08
8.841600473e-08
8.662603317e-08
8.48722698e-08
8.315397106e-08
8.147044182e-08
7.982097499e-08
7.820486598e-08
7.662146544e-08
7.50700902e-08
7.355011069e-08
7.206087374e-08
7.060178272e-08
6.917219688e-08
6.777155069e-08
6.639924475e-08
6.505469989e-08
6.373735379e-08
6.244668873e-08
6.118211695e-08
5.994316972e-08
5.872923896e-08
5.75399438e-08
5.637463317e-08
5.52330179e-08
5.411438765e-08
5.301852085e-08
5.194468702e-08
5.089276614e-08
4.986194083e-08
4.885220979e-08
4.786264035e-08
4.689342751e-08
4.594345527e-08
4.501316588e-08
4.410119048e-08
4.320828543e-08
4.233273905e-08
4.147575669e-08
4.063514672e-08
3.981270637e-08
3.900556938e-08
3.821634585e-08
3.744128218e-08
3.668402727e-08
3.593964957e-08
3.521321453e-08
3.449813454e-08
3.380144207e-08
3.311430356e-08
3.244638287e-08
3.178581369e-08
3.114580716e-08
3.051039475e-08
2.989757667e-08
2.928586685e-08
2.869969455e-08
2.811006118e-08
2.755022378e-08
2.69809459e-08
2.644739524e-08
2.589647796e-08
2.538949637e-08
2.485460749e-08
2.437502313e-08
2.38533597e-08
2.340258659e-08
2.289066437e-08
2.247100967e-08
2.196439869e-08
2.157930474e-08
2.107229771e-08
2.072679678e-08
2.021183422e-08
1.991310302e-08
1.938007485e-08
1.913815994e-08
1.857336447e-08
1.840212917e-08
1.778673751e-08
1.770496474e-08
1.701258811e-08
1.704487629e-08
1.623766939e-08
1.641420782e-08
1.543586298e-08
1.578824301e-08
1.45504001e-08
1.509579439e-08
1.345045628e-08
1.414459336e-08
1.182918719e-08
1.244288528e-08
9.003821115e-09
8.856527805e-09
3.875587559e-09
1.689797451e-09
2.118336648e-13
2.118336648e-13
-0.1252930377
0.1252930377
0.02493586976
0.008358019126
0.004277996266
0.002661518917
0.00183373551
0.001346352401
0.001033884326
0.0008217036792
0.0006713867371
0.0005612497711
0.000478232091
0.0004140850753
0.0003634105354
0.0003225758052
0.0002890793572
0.0002611636451
0.0002375709469
0.0002173854269
0.0001999288868
0.0001846908016
0.0001712806838
0.0001593952254
0.0001487953499
0.0001392899892
0.0001307244733
0.000122972117
0.0001159280437
0.0001095045941
0.0001036278665
9.823507742e-05
9.327252054e-05
8.869397113e-05
8.445942268e-05
8.053407644e-05
7.688752518e-05
7.349308756e-05
7.032726125e-05
6.736926988e-05
6.460068532e-05
6.200511109e-05
5.956791519e-05
5.727600372e-05
5.511762816e-05
5.308222066e-05
5.11602525e-05
4.934311236e-05
4.762300099e-05
4.599283994e-05
4.444619209e-05
4.297719242e-05
4.158048742e-05
4.02511819e-05
3.898479232e-05
3.777720554e-05
3.662464246e-05
3.552362574e-05
3.447095119e-05
3.346366236e-05
3.249902779e-05
3.157452076e-05
3.06878011e-05
2.983669903e-05
2.901920038e-05
2.823343359e-05
2.747765771e-05
2.675025173e-05
2.604970495e-05
2.537460804e-05
2.472364521e-05
2.409558687e-05
2.348928304e-05
2.290365738e-05
2.233770157e-05
2.179047044e-05
2.126107725e-05
2.074868951e-05
2.025252515e-05
1.977184888e-05
1.930596898e-05
1.885423428e-05
1.841603135e-05
1.799078195e-05
1.757794073e-05
1.71769929e-05
1.678745236e-05
1.640885968e-05
1.604078051e-05
1.56828038e-05
1.533454049e-05
1.499562194e-05
1.466569879e-05
1.434443963e-05
1.403152999e-05
1.372667121e-05
1.342957952e-05
1.313998515e-05
1.285763145e-05
1.258227408e-05
1.231368037e-05
1.205162853e-05
1.179590704e-05
1.154631412e-05
1.130265709e-05
1.106475183e-05
1.08324224e-05
1.060550045e-05
1.038382488e-05
1.016724141e-05
9.955602195e-06
9.748765488e-06
9.546595274e-06
9.348961023e-06
9.155737336e-06
8.966803698e-06
8.78204423e-06
8.601347432e-06
8.424605953e-06
8.251716422e-06
8.082579167e-06
7.917098106e-06
7.755180545e-06
7.596736981e-06
7.441680985e-06
7.289929044e-06
7.141400426e-06
6.996017017e-06
6.853703259e-06
6.714385963e-06
6.577994292e-06
6.444459544e-06
6.313715156e-06
6.185696554e-06
6.060341071e-06
5.937587927e-06
5.817378033e-06
5.699654069e-06
5.584360247e-06
5.471442412e-06
5.36084785e-06
5.252525304e-06
5.146424902e-06
5.04249806e-06
4.940697546e-06
4.840977275e-06
4.743292391e-06
4.647599189e-06
4.55385504e-06
4.462018383e-06
4.372048706e-06
4.283906493e-06
4.197553123e-06
4.112950989e-06
4.030063353e-06
3.9488543e-06
3.869288833e-06
3.791332719e-06
3.714952546e-06
3.640115635e-06
3.566790099e-06
3.494944726e-06
3.42454904e-06
3.355573247e-06
3.287988178e-06
3.221765362e-06
3.156876931e-06
3.093295595e-06
3.030994709e-06
2.969948185e-06
2.910130498e-06
2.851516659e-06
2.794082248e-06
2.737803316e-06
2.682656468e-06
2.628618769e-06
2.575667796e-06
2.523781573e-06
2.472938612e-06
2.423117841e-06
2.374298637e-06
2.326460839e-06
2.279584644e-06
2.233650701e-06
2.188640051e-06
2.144534119e-06
2.101314699e-06
2.058963978e-06
2.017464502e-06
1.976799176e-06
1.936951234e-06
1.897904279e-06
1.859642225e-06
1.822149335e-06
1.785410149e-06
1.749409571e-06
1.714132788e-06
1.679565269e-06
1.645692798e-06
1.612501446e-06
1.579977545e-06
1.548107737e-06
1.516878882e-06
1.48627815e-06
1.45629295e-06
1.426910933e-06
1.398120016e-06
1.369908352e-06
1.34226434e-06
1.315176588e-06
1.288633949e-06
1.262625488e-06
1.237140511e-06
1.212168518e-06
1.187699221e-06
1.163722547e-06
1.140228615e-06
1.117207726e-06
1.09465042e-06
1.072547392e-06
1.050889529e-06
1.029667888e-06
1.008873741e-06
9.884984896e-07
9.685337356e-07
9.489712427e-07
9.298029416e-07
9.11020912e-07
8.926174007e-07
8.74584808e-07
8.569156896e-07
8.396027357e-07
8.226388086e-07
8.060168951e-07
7.897301148e-07
7.737717417e-07
7.581351755e-07
7.428139488e-07
7.278017277e-07
7.130922835e-07
6.98679546e-07
6.845575563e-07
6.707204524e-07
6.571625141e-07
6.438781258e-07
6.308617877e-07
6.181081025e-07
6.056117845e-07
5.933676702e-07
5.813706647e-07
5.696158096e-07
5.580982149e-07
5.468131349e-07
5.357558565e-07
5.249218095e-07
5.143065049e-07
5.039055258e-07
4.937145673e-07
4.837293824e-07
4.73945845e-07
4.643598879e-07
4.549675213e-07
4.457648694e-07
4.367480878e-07
4.279134305e-07
4.192572412e-07
4.107759087e-07
4.024659211e-07
3.943238209e-07
3.863462353e-07
3.785298257e-07
3.708713642e-07
3.633676482e-07
3.560155706e-07
3.488120656e-07
3.417541416e-07
3.348388627e-07
3.280633536e-07
3.214247888e-07
3.149204068e-07
3.085475156e-07
3.023034375e-07
2.961856012e-07
2.901914289e-07
2.843184556e-07
2.785642209e-07
2.729263291e-07
2.674024283e-07
2.619902285e-07
2.566874632e-07
2.514919321e-07
2.464014703e-07
2.414139399e-07
2.365272858e-07
2.317394519e-07
2.270484594e-07
2.224523433e-07
2.179491865e-07
2.13537113e-07
2.092142769e-07
2.049788808e-07
2.008291593e-07
1.967633884e-07
1.927798645e-07
1.888769219e-07
1.850529346e-07
1.813063028e-07
1.776354795e-07
1.740388998e-07
1.705151264e-07
1.670625962e-07
1.636799651e-07
1.603657321e-07
1.571186e-07
1.539371241e-07
1.50820074e-07
1.477660448e-07
1.447738632e-07
1.418421715e-07
1.389698706e-07
1.361556268e-07
1.333984129e-07
1.306968908e-07
1.280501887e-07
1.254568753e-07
1.229162465e-07
1.204268209e-07
1.179880444e-07
1.155983075e-07
1.132573139e-07
1.109632677e-07
1.087161762e-07
1.065139798e-07
1.043570524e-07
1.022429723e-07
1.001726473e-07
9.814312374e-08
9.6156002e-08
9.420756698e-08
9.230038865e-08
9.042972103e-08
8.859936697e-08
8.68032334e-08
8.504679129e-08
8.33220418e-08
8.163673371e-08
7.998028907e-08
7.836351858e-08
7.677233676e-08
7.522170419e-08
7.369277329e-08
7.220610322e-08
7.073636021e-08
6.931172621e-08
6.78980867e-08
6.653383742e-08
6.517306204e-08
6.386795444e-08
6.255652589e-08
6.13097955e-08
6.004392674e-08
5.885536539e-08
5.763069024e-08
5.650088625e-08
5.531238887e-08
5.424295022e-08
5.308455586e-08
5.207847601e-08
5.094267165e-08
5.00047637e-08
4.88820063e-08
4.801960458e-08
4.68976283e-08
4.612138703e-08
4.498398575e-08
4.430916302e-08
4.313468785e-08
4.258266544e-08
4.134180203e-08
4.094211406e-08
3.959452826e-08
3.938718576e-08
3.787643639e-08
3.791377178e-08
3.615878349e-08
3.650494926e-08
3.438488752e-08
3.510659872e-08
3.243138712e-08
3.356347781e-08
3.001348561e-08
3.145708345e-08
2.646237702e-08
2.771776106e-08
2.028587077e-08
1.987910396e-08
9.054542494e-09
4.252900127e-09
5.007022946e-13
5.007022946e-13
-0.1464876054
0.1464876054
0.03831047054
0.01423404634
0.007456022676
0.004672748492