# vtk DataFile Version 2.0
FlowField
ASCII
DATASET STRUCTURED_GRID
DIMENSIONS 400 1 200
POINTS 80000 float
0 0 0
0.08 0 0
0.16 0 0
0.24 0 0
0.32 0 0
0.4 0 0
0.48 0 0
0.56 0 0
0.64 0 0
0.72 0 0
0.8 0 0
0.88 0 0
0.96 0 0
1.04 0 0
1.12 0 0
1.2 0 0
1.28 0 0
1.36 0 0
1.44 0 0
1.52 0 0
1.6 0 0
1.68 0 0
1.76 0 0
1.84 0 0
1.92 0 0
2 0 0
2.08 0 0
2.16 0 0
2.24 0 0
2.32 0 0
2.4 0 0
2.48 0 0
2.56 0 0
2.64 0 0
2.72 0 0
2.8 0 0
2.88 0 0
2.96 0 0
3.04 0 0
3.12 0 0
3.2 0 0
3.28 0 0
3.36 0 0
3.44 0 0
3.52 0 0
3.6 0 0
3.68 0 0
3.76 0 0
3.84 0 0
3.92 0 0
4 0 0
4.08 0 0
4.16 0 0
4.24 0 0
4.32 0 0
4.4 0 0
4.48 0 0
4.56 0 0
4.64 0 0
4.72 0 0
4.8 0 0
4.88 0 0
4.96 0 0
5.04 0 0
5.12 0 0
5.2 0 0
5.28 0 0
5.36 0 0
5.44 0 0
5.52 0 0
5.6 0 0
5.68 0 0
5.76 0 0
5.84 0 0
5.92 0 0
6 0 0
6.08 0 0
6.16 0 0
6.24 0 0
6.32 0 0
6.4 0 0
6.48 0 0
6.56 0 0
6.64 0 0
6.72 0 0
6.8 0 0
6.88 0 0
6.96 0 0
7.04 0 0
7.12 0 0
7.2 0 0
7.28 0 0
7.36 0 0
7.44 0 0
7.52 0 0
7.6 0 0
7.68 0 0
7.76 0 0
7.84 0 0
7.92 0 0
8 0 0
8.08 0 0
8.16 0 0
8.24 0 0
8.32 0 0
8.4 0 0
8.48 0 0
8.56 0 0
8.64 0 0
8.72 0 0
8.8 0 0
8.88 0 0
8.96 0 0
9.04 0 0
9.12 0 0
9.2 0 0
9.28 0 0
9.36 0 0
9.44 0 0
9.52 0 0
9.6 0 0
9.68 0 0
9.76 0 0
9.84 0 0
9.92 0 0
10 0 0
10.08 0 0
10.16 0 0
10.24 0 0
10.32 0 0
10.4 0 0
10.48 0 0
10.56 0 0
10.64 0 0
10.72 0 0
10.8 0 0
10.88 0 0
10.96 0 0
11.04 0 0
11.12 0 0
11.2 0 0
11.28 0 0
11.36 0 0
11.44 0 0
11.52 0 0
11.6 0 0
11.68 0 0
11.76 0 0
11.84 0 0
11.92 0 0
12 0 0
12.08 0 0
12.16 0 0
12.24 0 0
12.32 0 0
12.4 0 0
12.48 0 0
12.56 0 0
12.64 0 0
12.72 0 0
12.8 0 0
12.88 0 0
12.96 0 0
13.04 0 0
13.12 0 0
13.2 0 0
13.28 0 0
13.36 0 0
13.44 0 0
13.52 0 0
13.6 0 0
13.68 0 0
13.76 0 0
13.84 0 0
13.92 0 0
14 0 0
14.08 0 0
14.16 0 0
14.24 0 0
14.32 0 0
14.4 0 0
14.48 0 0
14.56 0 0
14.64 0 0
14.72 0 0
14.8 0 0
14.88 0 0
14.96 0 0
15.04 0 0
15.12 0 0
15.2 0 0
15.28 0 0
15.36 0 0
15.44 0 0
15.52 0 0
15.6 0 0
15.68 0 0
15.76 0 0
15.84 0 0
15.92 0 0
16 0 0
16.08 0 0
16.16 0 0
16.24 0 0
16.32 0 0
16.4 0 0
16.48 0 0
16.56 0 0
16.64 0 0
16.72 0 0
16.8 0 0
16.88 0 0
16.96 0 0
17.04 0 0
17.12 0 0
17.2 0 0
17.28 0 0
17.36 0 0
17.44 0 0
17.52 0 0
17.6 0 0
17.68 0 0
17.76 0 0
17.84 0 0
17.92 0 0
18 0 0
18.08 0 0
18.16 0 0
18.24 0 0
18.32 0 0
18.4 0 0
18.48 0 0
18.56 0 0
18.64 0 0
18.72 0 0
18.8 0 0
18.88 0 0
18.96 0 0
19.04 0 0
19.12 0 0
19.2 0 0
19.28 0 0
19.36 0 0
19.44 0 0
19.52 0 0
19.6 0 0
19.68 0 0
19.76 0 0
19.84 0 0
19.92 0 0
20 0 0
20.08 0 0
20.16 0 0
20.24 0 0
20.32 0 0
20.4 0 0
20.48 0 0
20.56 0 0
20.64 0 0
20.72 0 0
20.8 0 0
20.88 0 0
20.96 0 0
21.04 0 0
21.12 0 0
21.2 0 0
21.28 0 0
21.36 0 0
21.44 0 0
21.52 0 0
21.6 0 0
21.68 0 0
21.76 0 0
21.84 0 0
21.92 0 0
22 0 0
22.08 0 0
22.16 0 0
22.24 0 0
22.32 0 0
22.4 0 0
22.48 0 0
22.56 0 0
22.64 0 0
22.72 0 0
22.8 0 0
22.88 0 0
22.96 0 0
23.04 0 0
23.12 0 0
23.2 0 0
23.28 0 0
23.36 0 0
23.44 0 0
23.52 0 0
23.6 0 0
23.68 0 0
23.76 0 0
23.84 0 0
23.92 0 0
24 0 0
24.08 0 0
24.16 0 0
24.24 0 0
24.32 0 0
24.4 0 0
24.48 0 0
24.56 0 0
24.64 0 0
24.72 0 0
24.8 0 0
24.88 0 0
24.96 0 0
25.04 0 0
25.12 0 0
25.2 0 0
25.28 0 0
25.36 0 0
25.44 0 0
25.52 0 0
25.6 0 0
25.68 0 0
25.76 0 0
25.84 0 0
25.92 0 0
26 0 0
26.08 0 0
26.16 0 0
26.24 0 0
26.32 0 0
26.4 0 0
26.48 0 0
26.56 0 0
26.64 0 0
26.72 0 0
26.8 0 0
26.88 0 0
26.96 0 0
27.04 0 0
27.12 0 0
27.2 0 0
27.28 0 0
27.36 0 0
27.44 0 0
27.52 0 0
27.6 0 0
27.68 0 0
27.76 0 0
27.84 0 0
27.92 0 0
28 0 0
28.08 0 0
28.16 0 0
28.24 0 0
28.32 0 0
28.4 0 0
28.48 0 0
28.56 0 0
28.64 0 0
28.72 0 0
28.8 0 0
28.88 0 0
28.96 0 0
29.04 0 0
29.12 0 0
29.2 0 0
29.28 0 0
29.36 0 0
29.44 0 0
29.52 0 0
29.6 0 0
29.68 0 0
29.76 0 0
29.84 0 0
29.92 0 0
30 0 0
30.08 0 0
30.16 0 0
30.24 0 0
30.32 0 0
30.4 0 0
30.48 0 0
30.56 0 0
30.64 0 0
30.72 0 0
30.8 0 0
30.88 0 0
30.96 0 0
31.04 0 0
31.12 0 0
31.2 0 0
31.28 0 0
31.36 0 0
31.44 0 0
31.52 0 0
31.6 0 0
31.68 0 0
31.76 0 0
31.84 0 0
31.92 0 0
0 0.005 0
0.08 0.005 0
0.16 0.005 0
0.24 0.005 0
0.32 0.005 0
0.4 0.005 0
0.48 0.005 0
0.56 0.005 0
0.64 0.005 0
0.72 0.005 0
0.8 0.005 0
0.88 0.005 0
0.96 0.005 0
1.04 0.005 0
1.12 0.005 0
1.2 0.005 0
1.28 0.005 0
1.36 0.005 0
1.44 0.005 0
1.52 0.005 0
1.6 0.005 0
1.68 0.005 0
1.76 0.005 0
1.84 0.005 0
1.92 0.005 0
2 0.005 0
2.08 0.005 0
2.16 0.005 0
2.24 0.005 0
2.32 0.005 0
2.4 0.005 0
2.48 0.005 0
2.56 0.005 0
2.64 0.005 0
2.72 0.005 0
2.8 0.005 0
2.88 0.005 0
2.96 0.005 0
3.04 0.005 0
3.12 0.005 0
3.2 0.005 0
3.28 0.005 0
3.36 0.005 0
3.44 0.005 0
3.52 0.005 0
3.6 0.005 0
3.68 0.005 0
3.76 0.005 0
3.84 0.005 0
3.92 0.005 0
4 0.005 0
4.08 0.005 0
4.16 0.005 0
4.24 0.005 0
4.32 0.005 0
4.4 0.005 0
4.48 0.005 0
4.56 0.005 0
4.64 0.005 0
4.72 0.005 0
4.8 0.005 0
4.88 0.005 0
4.96 0.005 0
5.04 0.005 0
5.12 0.005 0
5.2 0.005 0
5.28 0.005 0
5.36 0.005 0
5.44 0.005 0
5.52 0.005 0
5.6 0.005 0
5.68 0.005 0
5.76 0.005 0
5.84 0.005 0
5.92 0.005 0
6 0.005 0
6.08 0.005 0
6.16 0.005 0
6.24 0.005 0
6.32 0.005 0
6.4 0.005 0
6.48 0.005 0
6.56 0.005 0
6.64 0.005 0
6.72 0.005 0
6.8 0.005 0
6.88 0.005 0
6.96 0.005 0
7.04 0.005 0
7.12 0.005 0
7.2 0.005 0
7.28 0.005 0
7.36 0.005 0
7.44 0.005 0
7.52 0.005 0
7.6 0.005 0
7.68 0.005 0
7.76 0.005 0
7.84 0.005 0
7.92 0.005 0
8 0.005 0
8.08 0.005 0
8.16 0.005 0
8.24 0.005 0
8.32 0.005 0
8.4 0.005 0
8.48 0.005 0
8.56 0.005 0
8.64 0.005 0
8.72 0.005 0
8.8 0.005 0
8.88 0.005 0
8.96 0.005 0
9.04 0.005 0
9.12 0.005 0
9.2 0.005 0
9.28 0.005 0
9.36 0.005 0
9.44 0.005 0
9.52 0.005 0
9.6 0.005 0
9.68 0.005 0
9.76 0.005 0
9.84 0.005 0
9.92 0.005 0
10 0.005 0
10.08 0.005 0
10.16 0.005 0
10.24 0.005 0
10.32 0.005 0
10.4 0.005 0
10.48 0.005 0
10.56 0.005 0
10.64 0.005 0
10.72 0.005 0
10.8 0.005 0
10.88 0.005 0
10.96 0.005 0
11.04 0.005 0
11.12 0.005 0
11.2 0.005 0
11.28 0.005 0
11.36 0.005 0
11.44 0.005 0
11.52 0.005 0
11.6 0.005 0
11.68 0.005 0
11.76 0.005 0
11.84 0.005 0
11.92 0.005 0
12 0.005 0
12.08 0.005 0
12.16 0.005 0
12.24 0.005 0
12.32 0.005 0
12.4 0.005 0
12.48 0.005 0
12.56 0.005 0
12.64 0.005 0
12.72 0.005 0
12.8 0.005 0
12.88 0.005 0
12.96 0.005 0
13.04 0.005 0
13.12 0.005 0
13.2 0.005 0
13.28 0.005 0
13.36 0.005 0
13.44 0.005 0
13.52 0.005 0
13.6 0.005 0
13.68 0.005 0
13.76 0.005 0
13.84 0.005 0
13.92 0.005 0
14 0.005 0
14.08 0.005 0
14.16 0.005 0
14.24 0.005 0
14.32 0.005 0
14.4 0.005 0
14.48 0.005 0
14.56 0.005 0
14.64 0.005 0
14.72 0.005 0
14.8 0.005 0
14.88 0.005 0
14.96 0.005 0
15.04 0.005 0
15.12 0.005 0
15.2 0.005 0
15.28 0.005 0
15.36 0.005 0
15.44 0.005 0
15.52 0.005 0
15.6 0.005 0
15.68 0.005 0
15.76 0.005 0
15.84 0.005 0
15.92 0.005 0
16 0.005 0
16.08 0.005 0
16.16 0.005 0
16.24 0.005 0
16.32 0.005 0
16.4 0.005 0
16.48 0.005 0
16.56 0.005 0
16.64 0.005 0
16.72 0.005 0
16.8 0.005 0
16.88 0.005 0
16.96 0.005 0
17.04 0.005 0
17.12 0.005 0
17.2 0.005 0
17.28 0.005 0
17.36 0.005 0
17.44 0.005 0
17.52 0.005 0
17.6 0.005 0
17.68 0.005 0
17.76 0.005 0
17.84 0.005 0
17.92 0.005 0
18 0.005 0
18.08 0.005 0
18.16 0.005 0
18.24 0.005 0
18.32 0.005 0
18.4 0.005 0
18.48 0.005 0
18.56 0.005 0
18.64 0.005 0
18.72 0.005 0
18.8 0.005 0
18.88 0.005 0
18.96 0.005 0
19.04 0.005 0
19.12 0.005 0
19.2 0.005 0
19.28 0.005 0
19.36 0.005 0
19.44 0.005 0
19.52 0.005 0
19.6 0.005 0
19.68 0.005 0
19.76 0.005 0
19.84 0.005 0
19.92 0.005 0
20 0.005 0
20.08 0.005 0
20.16 0.005 0
20.24 0.005 0
20.32 0.005 0
20.4 0.005 0
20.48 0.005 0
20.56 0.005 0
20.64 0.005 0
20.72 0.005 0
20.8 0.005 0
20.88 0.005 0
20.96 0.005 0
21.04 0.005 0
21.12 0.005 0
21.2 0.005 0
21.28 0.005 0
21.36 0.005 0
21.44 0.005 0
21.52 0.005 0
21.6 0.005 0
21.68 0.005 0
21.76 0.005 0
21.84 0.005 0
21.92 0.005 0
22 0.005 0
22.08 0.005 0
22.16 0.005 0
22.24 0.005 0
22.32 0.005 0
22.4 0.005 0
22.48 0.005 0
22.56 0.005 0
22.64 0.005 0
22.72 0.005 0
22.8 0.005 0
22.88 0.005 0
22.96 0.005 0
23.04 0.005 0
23.12 0.005 0
23.2 0.005 0
23.28 0.005 0
23.36 0.005 0
23.44 0.005 0
23.52 0.005 0
23.6 0.005 0
23.68 0.005 0
23.76 0.005 0
23.84 0.005 0
23.92 0.005 0
24 0.005 0
24.08 0.005 0
24.16 0.005 0
24.24 0.005 0
24.32 0.005 0
24.4 0.005 0
24.48 0.005 0
24.56 0.005 0
24.64 0.005 0
24.72 0.005 0
24.8 0.005 0
24.88 0.005 0
24.96 0.005 0
25.04 0.005 0
25.12 0.005 0
25.2 0.005 0
25.28 0.005 0
25.36 0.005 0
25.44 0.005 0
25.52 0.005 0
25.6 0.005 0
25.68 0.005 0
25.76 0.005 0
25.84 0.005 0
25.92 0.005 0
26 0.005 0
26.08 0.005 0
26.16 0.005 0
26.24 0.005 0
26.32 0.005 0
26.4 0.005 0
26.48 0.005 0
26.56 0.005 0
26.64 0.005 0
26.72 0.005 0
26.8 0.005 0
26.88 0.005 0
26.96 0.005 0
27.04 0.005 0
27.12 0.005 0
27.2 0.005 0
27.28 0.005 0
27.36 0.005 0
27.44 0.005 0
27.52 0.005 0
27.6 0.005 0
27.68 0.005 0
27.76 0.005 0
27.84 0.005 0
27.92 0.005 0
28 0.005 0
28.08 0.005 0
28.16 0.005 0
28.24 0.005 0
28.32 0.005 0
28.4 0.005 0
28.48 0.005 0
28.56 0.005 0
28.64 0.005 0
28.72 0.005 0
28.8 0.005 0
28.88 0.005 0
28.96 0.005 0
29.04 0.005 0
29.12 0.005 0
29.2 0.005 0
29.28 0.005 0
29.36 0.005 0
29.44 0.005 0
29.52 0.005 0
29.6 0.005 0
29.68 0.005 0
29.76 0.005 0
29.84 0.005 0
29.92 0.005 0
30 0.005 0
30.08 0.005 0
30.16 0.005 0
30.24 0.005 0
30.32 0.005 0
30.4 0.005 0
30.48 0.005 0
30.56 0.005 0
30.64 0.005 0
30.72 0.005 0
30.8 0.005 0
30.88 0.005 0
30.96 0.005 0
31.04 0.005 0
31.12 0.005 0
31.2 0.005 0
31.28 0.005 0
31.36 0.005 0
31.44 0.005 0
31.52 0.005 0
31.6 0.005 0
31.68 0.005 0
31.76 0.005 0
31.84 0.005 0
31.92 0.005 0
0 0.01 0
0.08 0.01 0
0.16 0.01 0
0.24 0.01 0
0.32 0.01 0
0.4 0.01 0
0.48 0.01 0
0.56 0.01 0
0.64 0.01 0
0.72 0.01 0
0.8 0.01 0
0.88 0.01 0
0.96 0.01 0
1.04 0.01 0
1.12 0.01 0
1.2 0.01 0
1.28 0.01 0
1.36 0.01 0
1.44 0.01 0
1.52 0.01 0
1.6 0.01 0
1.68 0.01 0
1.76 0.01 0
1.84 0.01 0
1.92 0.01 0
2 0.01 0
2.08 0.01 0
2.16 0.01 0
2.24 0.01 0
2.32 0.01 0
2.4 0.01 0
2.48 0.01 0
2.56 0.01 0
2.64 0.01 0
2.72 0.01 0
2.8 0.01 0
2.88 0.01 0
2.96 0.01 0
3.04 0.01 0
3.12 0.01 0
3.2 0.01 0
3.28 0.01 0
3.36 0.01 0
3.44 0.01 0
3.52 0.01 0
3.6 0.01 0
3.68 0.01 0
3.76 0.01 0
3.84 0.01 0
3.92 0.01 0
4 0.01 0
4.08 0.01 0
4.16 0.01 0
4.24 0.01 0
4.32 0.01 0
4.4 0.01 0
4.48 0.01 0
4.56 0.01 0
4.64 0.01 0
4.72 0.01 0
4.8 0.01 0
4.88 0.01 0
4.96 0.01 0
5.04 0.01 0
5.12 0.01 0
[...]
POINT_DATA 80000

SCALARS p float 1
LOOKUP_TABLE default
1
56.54482957
56.24309455
56.20193476
56.18184479
56.16742585
56.15542489
56.14468147
56.13468333
56.12517774
56.11603143
56.1071707
56.09855277
56.09015126
56.08194849
56.07393144
56.06608957
56.05841366
56.05089527
56.04352648
56.03629975
56.02920791
56.02224411
56.01540188
56.00867509
56.00205798
55.99554511
55.98913141
55.9828121
55.97658275
55.97043918
55.96437751
55.95839409
55.95248553
55.94664863
55.94088041
55.93517808
55.929539
55.92396071
55.91844089
55.91297735
55.90756803
55.90221099
55.8969044
55.8916465
55.88643566
55.88127033
55.87614901
55.8710703
55.86603288
55.86103546
55.85607683
55.85115585
55.84627141
55.84142245
55.83660798
55.83182702
55.82707866
55.82236201
55.81767623
55.81302049
55.80839403
55.80379609
55.79922594
55.7946829
55.79016629
55.78567546
55.78120979
55.77676869
55.77235156
55.76795786
55.76358703
55.75923855
55.75491191
55.75060663
55.74632221
55.74205821
55.73781416
55.73358964
55.72938423
55.7251975
55.72102906
55.71687853
55.71274552
55.70862967
55.70453061
55.70044801
55.69638151
55.6923308
55.68829553
55.68427541
55.68027012
55.67627937
55.67230285
55.66834029
55.6643914
55.66045591
55.65653356
55.65262408
55.64872722
55.64484274
55.64097038
55.6371099
55.63326109
55.6294237
55.62559751
55.6217823
55.61797787
55.614184
55.61040048
55.60662711
55.6028637
55.59911005
55.59536598
55.5916313
55.58790582
55.58418937
55.58048177
55.57678286
55.57309246
55.56941041
55.56573655
55.56207072
55.55841277
55.55476254
55.55111989
55.54748466
55.54385671
55.54023591
55.53662212
55.5330152
55.52941501
55.52582143
55.52223433
55.51865359
55.51507907
55.51151067
55.50794826
55.50439172
55.50084095
55.49729583
55.49375624
55.49022209
55.48669327
55.48316968
55.4796512
55.47613775
55.47262923
55.46912553
55.46562657
55.46213226
55.45864249
55.45515719
55.45167627
55.44819964
55.44472722
55.44125892
55.43779467
55.43433438
55.43087798
55.4274254
55.42397655
55.42053136
55.41708977
55.4136517
55.41021708
55.40678585
55.40335794
55.39993327
55.3965118
55.39309346
55.38967818
55.3862659
55.38285657
55.37945012
55.37604651
55.37264567
55.36924755
55.3658521
55.36245926
55.35906898
55.35568121
55.3522959
55.34891301
55.34553248
55.34215426
55.33877832
55.33540461
55.33203308
55.32866369
55.32529639
55.32193115
55.31856792
55.31520667
55.31184736
55.30848994
55.30513439
55.30178066
55.29842872
55.29507853
55.29173007
55.28838329
55.28503817
55.28169467
55.27835277
55.27501244
55.27167364
55.26833635
55.26500055
55.26166621
55.25833329
55.25500179
55.25167168
55.24834292
55.24501551
55.24168943
55.23836464
55.23504114
55.23171889
55.2283979
55.22507813
55.22175958
55.21844221
55.21512603
55.21181101
55.20849714
55.2051844
55.20187278
55.19856226
55.19525283
55.19194448
55.18863719
55.18533094
55.18202573
55.17872153
55.17541834
55.17211615
55.16881492
55.16551466
55.16221534
55.15891695
55.15561948
55.15232291
55.14902722
55.14573239
55.14243842
55.13914528
55.13585295
55.13256143
55.12927068
55.12598069
55.12269145
55.11940294
55.11611513
55.11282801
55.10954156
55.10625575
55.10297058
55.09968601
55.09640204
55.09311864
55.08983578
55.08655346
55.08327165
55.07999033
55.07670949
55.0734291
55.07014914
55.0668696
55.06359045
55.06031169
55.05703328
55.05375522
55.05047748
55.04720005
55.04392291
55.04064604
55.03736944
55.03409308
55.03081695
55.02754103
55.02426531
55.02098978
55.01771443
55.01443923
55.01116419
55.00788928
55.0046145
55.00133984
54.99806529
54.99479084
54.99151648
54.98824219
54.98496799
54.98169385
54.97841977
54.97514574
54.97187176
54.96859783
54.96532393
54.96205007
54.95877623
54.95550242
54.95222864
54.94895487
54.94568112
54.94240738
54.93913366
54.93585994
54.93258623
54.92931253
54.92603883
54.92276514
54.91949145
54.91621777
54.91294408
54.90967039
54.90639671
54.90312302
54.89984934
54.89657565
54.89330196
54.89002827
54.88675458
54.88348089
54.88020719
54.8769335
54.8736598
54.8703861
54.8671124
54.86383869
54.86056499
54.85729128
54.85401757
54.85074386
54.84747014
54.84419643
54.84092271
54.83764899
54.83437527
54.83110154
54.82782782
54.82455409
54.82128036
54.81800663
54.81473289
54.81145916
54.80818542
54.80491168
54.80163793
54.79836419
54.79509044
54.79181669
54.78854294
54.78526919
54.78199543
54.77872168
54.77544792
54.77217416
54.76890039
54.76562663
54.76235286
54.75907909
54.75580532
54.75253154
54.74925777
54.74598399
54.74271021
54.73943643
54.73616264
54.73288886
54.72961507
54.72634128
54.72306748
54.71979369
54.71651989
54.71324609
54.70997229
54.70669849
54.70342468
54.70015088
54.69687707
54.69360325
54.69032944
54.68705562
54.68378181
54.68050799
54.67723416
54.67396034
54.67068651
54.66741268
54.66413885
54.66086502
54.65759118
54.65431735
54.6510435
54.64776967
54.6444958
54.64122205
0.5
56.54482957
56.54482957
56.24309455
56.20193476
56.18184479
56.16742585
56.15542489
56.14468147
56.13468333
56.12517774
56.11603143
56.1071707
56.09855277
56.09015126
56.08194849
56.07393144
56.06608957
56.05841366
56.05089527
56.04352648
56.03629975
56.02920791
56.02224411
56.01540188
56.00867509
56.00205798
55.99554511
55.98913141
55.9828121
55.97658275
55.97043918
55.96437751
55.95839409
55.95248553
55.94664863
55.94088041
55.93517808
55.929539
55.92396071
55.91844089
55.91297735
55.90756803
55.90221099
55.8969044
55.8916465
55.88643566
55.88127033
55.87614901
55.8710703
55.86603288
55.86103546
55.85607683
55.85115585
55.84627141
55.84142245
55.83660798
55.83182702
55.82707866
55.82236201
55.81767623
55.81302049
55.80839403
55.80379609
55.79922594
55.7946829
55.79016629
55.78567546
55.78120979
55.77676869
55.77235156
55.76795786
55.76358703
55.75923855
55.75491191
55.75060663
55.74632221
55.74205821
55.73781416
55.73358964
55.72938423
55.7251975
55.72102906
55.71687853
55.71274552
55.70862967
55.70453061
55.70044801
55.69638151
55.6923308
55.68829553
55.68427541
55.68027012
55.67627937
55.67230285
55.66834029
55.6643914
55.66045591
55.65653356
55.65262408
55.64872722
55.64484274
55.64097038
55.6371099
55.63326109
55.6294237
55.62559751
55.6217823
55.61797787
55.614184
55.61040048
55.60662711
55.6028637
55.59911005
55.59536598
55.5916313
55.58790582
55.58418937
55.58048177
55.57678286
55.57309246
55.56941041
55.56573655
55.56207072
55.55841277
55.55476254
55.55111989
55.54748466
55.54385671
55.54023591
55.53662212
55.5330152
55.52941501
55.52582143
55.52223433
55.51865359
55.51507907
55.51151067
55.50794826
55.50439172
55.50084095
55.49729583
55.49375624
55.49022209
55.48669327
55.48316968
55.4796512
55.47613775
55.47262923
55.46912553
55.46562657
55.46213226
55.45864249
55.45515719
55.45167627
55.44819964
55.44472722
55.44125892
55.43779467
55.43433438
55.43087798
55.4274254
55.42397655
55.42053136
55.41708977
55.4136517
55.41021708
55.40678585
55.40335794
55.39993327
55.3965118
55.39309346
55.38967818
55.3862659
55.38285657
55.37945012
55.37604651
55.37264567
55.36924755
55.3658521
55.36245926
55.35906898
55.35568121
55.3522959
55.34891301
55.34553248
55.34215426
55.33877832
55.33540461
55.33203308
55.32866369
55.32529639
55.32193115
55.31856792
55.31520667
55.31184736
55.30848994
55.30513439
55.30178066
55.29842872
55.29507853
55.29173007
55.28838329
55.28503817
55.28169467
55.27835277
55.27501244
55.27167364
55.26833635
55.26500055
55.26166621
55.25833329
55.25500179
55.25167168
55.24834292
55.24501551
55.24168943
55.23836464
55.23504114
55.23171889
55.2283979
55.22507813
55.22175958
55.21844221
55.21512603
55.21181101
55.20849714
55.2051844
55.20187278
55.19856226
55.19525283
55.19194448
55.18863719
55.18533094
55.18202573
55.17872153
55.17541834
55.17211615
55.16881492
55.16551466
55.16221534
55.15891695
55.15561948
55.15232291
55.14902722
55.14573239
55.14243842
55.13914528
55.13585295
55.13256143
55.12927068
55.12598069
55.12269145
55.11940294
55.11611513
55.11282801
55.10954156
55.10625575
55.10297058
55.09968601
55.09640204
55.09311864
55.08983578
55.08655346
55.08327165
55.07999033
55.07670949
55.0734291
55.07014914
55.0668696
55.06359045
55.06031169
55.05703328
55.05375522
55.05047748
55.04720005
55.04392291
55.04064604
55.03736944
55.03409308
55.03081695
55.02754103
55.02426531
55.02098978
55.01771443
55.01443923
55.01116419
55.00788928
55.0046145
55.00133984
54.99806529
54.99479084
54.99151648
54.98824219
54.98496799
54.98169385
54.97841977
54.97514574
54.97187176
54.96859783
54.96532393
54.96205007
54.95877623
54.95550242
54.95222864
54.94895487
54.94568112
54.94240738
54.93913366
54.93585994
54.93258623
54.92931253
54.92603883
54.92276514
54.91949145
54.91621777
54.91294408
54.90967039
54.90639671
54.90312302
54.89984934
54.89657565
54.89330196
54.89002827
54.88675458
54.88348089
54.88020719
54.8769335
54.8736598
54.8703861
54.8671124
54.86383869
54.86056499
54.85729128
54.85401757
54.85074386
54.84747014
54.84419643
54.84092271
54.83764899
54.83437527
54.83110154
54.82782782
54.82455409
54.82128036
54.81800663
54.81473289
54.81145916
54.80818542
54.80491168
54.80163793
54.79836419
54.79509044
54.79181669
54.78854294
54.78526919
54.78199543
54.77872168
54.77544792
54.77217416
54.76890039
54.76562663
54.76235286
54.75907909
54.75580532
54.75253154
54.74925777
54.74598399
54.74271021
54.73943643
54.73616264
54.73288886
54.72961507
54.72634128
54.72306748
54.71979369
54.71651989
54.71324609
54.70997229
54.70669849
54.70342468
54.70015088
54.69687707
54.69360325
54.69032944
54.68705562
54.68378181
54.68050799
54.67723416
54.67396034
54.67068651
54.66741268
54.66413885
54.66086502
54.65759118
54.65431735
54.6510435
54.64776967
54.6444958
54.64122205
54.64122205
56.53024783
56.53024783
56.24693043
56.20319018
56.18248003
56.16782037
56.15569658
56.14488092
56.13483648
56.12529944
56.11613085
56.1072538
56.09862357
56.09021255
56.08200227
56.07397918
56.06613234
56.05845229
56.05093041
56.04355864
56.03632932
56.02923522
56.02226944
56.01542545
56.00869709
56.00207857
55.99556444
55.98914959
55.98282924
55.97659894
55.9704545
55.96439203
55.95840788
55.95249864
55.94666111
55.94089231
55.93518944
55.92954986
55.9239711
55.91845085
55.9129869
55.9075772
55.9022198
55.89691286
55.89165465
55.88644351
55.88127789
55.8761563
55.87107734
55.86603967
55.86104203
55.85608319
55.851162
55.84627736
55.84142821
55.83661356
55.83183243
55.82708391
55.8223671
55.81768117
55.8130253
55.8083987
55.80380062
55.79923035
55.79468719
55.79017046
55.78567952
55.78121375
55.77677254
55.77235531
55.76796151
55.76359059
55.75924202
55.7549153
55.75060993
55.74632543
55.74206135
55.73781723
55.73359264
55.72938715
55.72520035
55.72103185
55.71688125
55.71274818
55.70863227
55.70453315
55.70045049
55.69638394
55.69233317
55.68829785
55.68427768
55.68027234
55.67628153
55.67230497
55.66834236
55.66439342
55.66045789
55.6565355
55.65262598
55.64872908
55.64484456
55.64097216
55.63711165
55.63326279
55.62942537
55.62559914
55.6217839
55.61797944
55.61418553
55.61040198
55.60662858
55.60286514
55.59911146
55.59536736
55.59163265
55.58790714
55.58419067
55.58048304
55.5767841
55.57309368
55.56941161
55.56573772
55.56207187
55.55841389
55.55476364
55.55112096
55.54748571
55.54385775
55.54023693
55.53662311
55.53301617
55.52941596
55.52582236
55.52223525
55.51865448
55.51507995
55.51151153
55.5079491
55.50439255
55.50084176
55.49729662
55.49375702
55.49022285
55.48669402
55.48317041
55.47965192
55.47613845
55.47262991
55.4691262
55.46562723
55.4621329
55.45864312
55.45515781
55.45167688
55.44820024
55.4447278
55.44125949
55.43779523
55.43433493
55.43087852
55.42742592
55.42397706
55.42053187
55.41709027
55.41365219
55.41021756
55.40678632
55.40335839
55.39993372
55.39651224
55.39309389
55.3896786
55.38626631
55.38285697
55.37945052
55.3760469
55.37264605
55.36924792
55.36585246
55.36245962
55.35906933
55.35568155
55.35229624
55.34891334
55.3455328
55.34215458
55.33877863
55.33540491
55.33203338
55.32866398
55.32529668
55.32193143
55.3185682
55.31520694
55.31184762
55.3084902
55.30513464
55.30178091
55.29842896
55.29507877
55.2917303
55.28838352
55.28503839
55.28169489
55.27835299
55.27501265
55.27167385
55.26833655
55.26500075
55.2616664
55.25833348
55.25500198
55.25167186
55.2483431
55.24501569
55.2416896
55.23836481
55.2350413
55.23171905
55.22839806
55.22507829
55.22175973
55.21844236
55.21512617
55.21181115
55.20849727
55.20518453
55.20187291
55.19856239
55.19525295
55.1919446
55.1886373
55.18533105
55.18202584
55.17872164
55.17541845
55.17211625
55.16881502
55.16551475
55.16221543
55.15891704
55.15561956
55.15232299
55.14902729
55.14573247
55.14243849
55.13914535
55.13585302
55.13256149
55.12927074
55.12598075
55.12269151
55.11940299
55.11611518
55.11282806
55.1095416
55.1062558
55.10297062
55.09968605
55.09640208
55.09311867
55.08983582
55.08655349
55.08327168
55.07999036
55.07670952
55.07342912
55.07014916
55.06686962
55.06359047
55.06031171
55.0570333
55.05375523
55.05047749
55.04720006
55.04392292
55.04064606
55.03736945
55.03409309
55.03081696
55.02754104
55.02426532
55.02098979
55.01771443
55.01443924
55.01116419
55.00788929
55.00461451
55.00133985
54.99806529
54.99479084
54.99151648
54.98824219
54.98496799
54.98169385
54.97841977
54.97514574
54.97187176
54.96859783
54.96532393
54.96205006
54.95877623
54.95550242
54.95222864
54.94895487
54.94568112
54.94240738
54.93913365
54.93585994
54.93258623
54.92931253
54.92603883
54.92276514
54.91949145
54.91621776
54.91294408
54.90967039
54.90639671
54.90312302
54.89984933
54.89657565
54.89330196
54.89002827
54.88675458
54.88348089
54.88020719
54.8769335
54.8736598
54.8703861
54.8671124
54.86383869
54.86056499
54.85729128
54.85401757
54.85074386
54.84747014
54.84419643
54.84092271
54.83764899
54.83437527
54.83110154
54.82782782
54.82455409
54.82128036
54.81800662
54.81473289
54.81145915
54.80818542
54.80491168
54.80163793
54.79836419
54.79509044
54.79181669
54.78854294
54.78526919
54.78199543
54.77872168
54.77544792
54.77217416
54.76890039
54.76562663
54.76235286
54.75907909
54.75580532
54.75253154
54.74925777
54.74598399
54.74271021
54.73943643
54.73616264
54.73288886
54.72961507
54.72634128
54.72306748
54.71979369
54.71651989
54.71324609
54.70997229
54.70669849
54.70342468
54.70015087
54.69687706
54.69360325
54.69032944
54.68705562
54.6837818
54.68050798
54.67723416
54.67396034
54.67068651
54.66741268
54.66413885
54.66086502
54.65759118
54.65431735
54.6510435
54.64776967
54.6444958
54.64122205
54.64122205
56.51426323
56.51426323
56.25011885
56.20437736
56.18309603
56.16820664
56.15596401
56.14507785
56.13498796
56.12541991
56.11622929
56.10733605
56.09869359
56.09027312
56.08205537
56.07402626
56.06617449
56.05849034
56.05096499
56.04359025
56.03635838
56.02926204
56.0222943
56.01544858
56.00871867
56.00209877
55.99558338
55.9891674
55.98284604
55.9766148
55.97046951
55.96440625
55.95842138
55.95251147
55.94667333
55.94090396
55.93520056
55.92956049
55.92398127
55.91846059
55.91299624
55.90758616
55.90222841
55.89692114
55.89166261
55.88645118
55.88128528
55.87616343
55.87108422
55.86604632
55.86104844
55.85608939
55.851168
55.84628317
55.84143384
55.83661901
55.83183772
55.82708903
55.82237208
55.817686
55.81302998
55.80840325
55.80380505
55.79923466
55.79469137
55.79017453
55.78568348
55.7812176
55.77677629
55.77235897
55.76796508
55.76359406
55.75924541
55.7549186
55.75061315
55.74632857
55.74206441
55.73782022
55.73359555
55.72939
55.72520313
55.72103457
55.7168839
55.71275077
55.7086348
55.70453563
55.70045291
55.6963863
55.69233548
55.68830011
55.68427988
55.6802745
55.67628364
55.67230703
55.66834438
55.6643954
55.66045983
55.65653739
55.65262783
55.64873089
55.64484633
55.64097389
55.63711334
55.63326445
55.62942699
55.62560073
55.62178546
55.61798096
55.61418702
55.61040344
55.60663001
55.60286654
55.59911284
55.59536871
55.59163397
55.58790843
55.58419193
55.58048428
55.57678532
55.57309487
55.56941277
55.56573886
55.56207298
55.55841499
55.55476471
55.55112201
55.54748674
55.54385875
55.54023791
55.53662408
55.53301711
55.52941689
55.52582327
55.52223614
55.51865535
55.5150808
55.51151236
55.50794992
55.50439335
55.50084254
55.49729739
55.49375777
55.49022359
55.48669474
55.48317112
55.47965261
55.47613913
55.47263058
55.46912686
55.46562787
55.46213353
55.45864374
55.45515842
55.45167747
55.44820081
55.44472837
55.44126005
55.43779577
55.43433546
55.43087904
55.42742644
55.42397757
55.42053236
55.41709075
55.41365266
55.41021802
55.40678677
55.40335884
55.39993416
55.39651267
55.3930943
55.38967901
55.38626671
55.38285737
55.37945091
55.37604728
55.37264642
55.36924829
55.36585282
55.36245996
55.35906967
55.35568189
55.35229657
55.34891366
55.34553311
55.34215489
55.33877894
55.33540521
55.33203367
55.32866426
55.32529695
55.3219317
55.31856847
55.31520721
55.31184788
55.30849045
55.30513489
55.30178115
55.2984292
55.295079
55.29173053
55.28838374
55.28503861
55.2816951
55.27835319
55.27501285
55.27167405
55.26833675
55.26500094
55.26166659
55.25833367
55.25500216
55.25167203
55.24834328
55.24501586
55.24168976
55.23836497
55.23504146
55.23171921
55.22839821
55.22507843
55.22175987
55.2184425
55.21512631
55.21181129
55.20849741
55.20518466
55.20187303
55.19856251
55.19525307
55.19194471
55.18863741
55.18533116
55.18202594
55.17872174
55.17541855
55.17211634
55.16881511
55.16551484
55.16221552
55.15891713
55.15561965
55.15232307
55.14902737
55.14573254
55.14243856
55.13914542
55.13585309
55.13256155
55.1292708
55.12598081
55.12269157
55.11940305
55.11611523
55.11282811
55.10954165
55.10625584
55.10297066
55.09968609
55.09640212
55.09311871
55.08983585
55.08655353
55.08327171
55.07999039
55.07670954
55.07342915
55.07014919
55.06686964
55.06359049
55.06031172
55.05703332
55.05375525
55.05047751
55.04720008
55.04392293
55.04064607
55.03736946
55.0340931
55.03081696
55.02754105
55.02426533
55.02098979
55.01771444
55.01443924
55.0111642
55.00788929
55.00461451
55.00133985
54.9980653
54.99479084
54.99151648
54.9882422
54.98496799
54.98169385
54.97841977
54.97514574
54.97187176
54.96859783
54.96532393
54.96205006
54.95877623
54.95550242
54.95222863
54.94895487
54.94568112
54.94240738
54.93913365
54.93585994
54.93258623
54.92931253
54.92603883
54.92276514
54.91949145
54.91621776
54.91294408
54.90967039
54.90639671
54.90312302
54.89984933
54.89657565
54.89330196
54.89002827
54.88675458
54.88348089
54.88020719
54.87693349
54.8736598
54.8703861
54.86711239
54.86383869
54.86056498
54.85729128
54.85401757
54.85074385
54.84747014
54.84419643
54.84092271
54.83764899
54.83437526
54.83110154
54.82782781
54.82455409
54.82128036
54.81800662
54.81473289
54.81145915
54.80818541
54.80491167
54.80163793
54.79836419
54.79509044
54.79181669
54.78854294
54.78526919
54.78199543
54.77872168
54.77544792
54.77217415
54.76890039
54.76562663
54.76235286
54.75907909
54.75580532
54.75253154
54.74925777
54.74598399
54.74271021
54.73943643
54.73616264
54.73288886
54.72961507
54.72634128
54.72306748
54.71979369
54.71651989
54.71324609
54.70997229
54.70669849
54.70342468
54.70015087
54.69687706
54.69360325
54.69032944
54.68705562
54.6837818
54.68050798
54.67723416
54.67396034
54.67068651
54.66741268
54.66413885
54.66086502
54.65759118
54.65431735
54.6510435
54.64776967
54.6444958
54.64122205
54.64122205
56.49834842
56.49834842
56.25300545
56.20551739
56.18369761
56.16858666
56.15622825
56.14527293
56.1351382
56.12553946
56.11632695
56.10741759
56.09876296
56.09033305
56.08210786
56.07407275
56.06621607
56.05852783
56.05099904
56.04362135
56.03638695
56.0292884
56.02231872
56.01547128
56.00873985
56.00211857
55.99560196
55.98918487
55.98286249
55.97663034
55.97048421
55.96442018
55.9584346
55.95252404
55.94668529
55.94091537
55.93521144
55.92957089
55.92399122
55.91847011
55.91300537
55.90759492
55.90223682
55.89692923
55.8916704
55.88645867
55.8812925
55.87617039
55.87109094
55.86605281
55.86105471
55.85609545
55.85117386
55.84628884
55.84143934
55.83662434
55.83184288
55.82709404
55.82237693
55.81769071
55.81303456
55.8084077
55.80380937
55.79923886
55.79469546
55.7901785
55.78568735
55.78122137
55.77677996
55.77236254
55.76796855
55.76359745
55.75924871
55.75492182
55.75061628
55.74633163