# vtk DataFile Version 2.0
FlowField
ASCII
DATASET STRUCTURED_GRID
DIMENSIONS 400 1 200
POINTS 80000 float
0 0 0
0.08 0 0
0.16 0 0
0.24 0 0
0.32 0 0
0.4 0 0
0.48 0 0
0.56 0 0
0.64 0 0
0.72 0 0
0.8 0 0
0.88 0 0
0.96 0 0
1.04 0 0
1.12 0 0
1.2 0 0
1.28 0 0
1.36 0 0
1.44 0 0
1.52 0 0
1.6 0 0
1.68 0 0
1.76 0 0
1.84 0 0
1.92 0 0
2 0 0
2.08 0 0
2.16 0 0
2.24 0 0
2.32 0 0
2.4 0 0
2.48 0 0
2.56 0 0
2.64 0 0
2.72 0 0
2.8 0 0
2.88 0 0
2.96 0 0
3.04 0 0
3.12 0 0
3.2 0 0
3.28 0 0
3.36 0 0
3.44 0 0
3.52 0 0
3.6 0 0
3.68 0 0
3.76 0 0
3.84 0 0
3.92 0 0
4 0 0
4.08 0 0
4.16 0 0
4.24 0 0
4.32 0 0
4.4 0 0
4.48 0 0
4.56 0 0
4.64 0 0
4.72 0 0
4.8 0 0
4.88 0 0
4.96 0 0
5.04 0 0
5.12 0 0
5.2 0 0
5.28 0 0
5.36 0 0
5.44 0 0
5.52 0 0
5.6 0 0
5.68 0 0
5.76 0 0
5.84 0 0
5.92 0 0
6 0 0
6.08 0 0
6.16 0 0
6.24 0 0
6.32 0 0
6.4 0 0
6.48 0 0
6.56 0 0
6.64 0 0
6.72 0 0
6.8 0 0
6.88 0 0
6.96 0 0
7.04 0 0
7.12 0 0
7.2 0 0
7.28 0 0
7.36 0 0
7.44 0 0
7.52 0 0
7.6 0 0
7.68 0 0
7.76 0 0
7.84 0 0
7.92 0 0
8 0 0
8.08 0 0
8.16 0 0
8.24 0 0
8.32 0 0
8.4 0 0
8.48 0 0
8.56 0 0
8.64 0 0
8.72 0 0
8.8 0 0
8.88 0 0
8.96 0 0
9.04 0 0
9.12 0 0
9.2 0 0
9.28 0 0
9.36 0 0
9.44 0 0
9.52 0 0
9.6 0 0
9.68 0 0
9.76 0 0
9.84 0 0
9.92 0 0
10 0 0
10.08 0 0
10.16 0 0
10.24 0 0
10.32 0 0
10.4 0 0
10.48 0 0
10.56 0 0
10.64 0 0
10.72 0 0
10.8 0 0
10.88 0 0
10.96 0 0
11.04 0 0
11.12 0 0
11.2 0 0
11.28 0 0
11.36 0 0
11.44 0 0
11.52 0 0
11.6 0 0
11.68 0 0
11.76 0 0
11.84 0 0
11.92 0 0
12 0 0
12.08 0 0
12.16 0 0
12.24 0 0
12.32 0 0
12.4 0 0
12.48 0 0
12.56 0 0
12.64 0 0
12.72 0 0
12.8 0 0
12.88 0 0
12.96 0 0
13.04 0 0
13.12 0 0
13.2 0 0
13.28 0 0
13.36 0 0
13.44 0 0
13.52 0 0
13.6 0 0
13.68 0 0
13.76 0 0
13.84 0 0
13.92 0 0
14 0 0
14.08 0 0
14.16 0 0
14.24 0 0
14.32 0 0
14.4 0 0
14.48 0 0
14.56 0 0
14.64 0 0
14.72 0 0
14.8 0 0
14.88 0 0
14.96 0 0
15.04 0 0
15.12 0 0
15.2 0 0
15.28 0 0
15.36 0 0
15.44 0 0
15.52 0 0
15.6 0 0
15.68 0 0
15.76 0 0
15.84 0 0
15.92 0 0
16 0 0
16.08 0 0
16.16 0 0
16.24 0 0
16.32 0 0
16.4 0 0
16.48 0 0
16.56 0 0
16.64 0 0
16.72 0 0
16.8 0 0
16.88 0 0
16.96 0 0
17.04 0 0
17.12 0 0
17.2 0 0
17.28 0 0
17.36 0 0
17.44 0 0
17.52 0 0
17.6 0 0
17.68 0 0
17.76 0 0
17.84 0 0
17.92 0 0
18 0 0
18.08 0 0
18.16 0 0
18.24 0 0
18.32 0 0
18.4 0 0
18.48 0 0
18.56 0 0
18.64 0 0
18.72 0 0
18.8 0 0
18.88 0 0
18.96 0 0
19.04 0 0
19.12 0 0
19.2 0 0
19.28 0 0
19.36 0 0
19.44 0 0
19.52 0 0
19.6 0 0
19.68 0 0
19.76 0 0
19.84 0 0
19.92 0 0
20 0 0
20.08 0 0
20.16 0 0
20.24 0 0
20.32 0 0
20.4 0 0
20.48 0 0
20.56 0 0
20.64 0 0
20.72 0 0
20.8 0 0
20.88 0 0
20.96 0 0
21.04 0 0
21.12 0 0
21.2 0 0
21.28 0 0
21.36 0 0
21.44 0 0
21.52 0 0
21.6 0 0
21.68 0 0
21.76 0 0
21.84 0 0
21.92 0 0
22 0 0
22.08 0 0
22.16 0 0
22.24 0 0
22.32 0 0
22.4 0 0
22.48 0 0
22.56 0 0
22.64 0 0
22.72 0 0
22.8 0 0
22.88 0 0
22.96 0 0
23.04 0 0
23.12 0 0
23.2 0 0
23.28 0 0
23.36 0 0
23.44 0 0
23.52 0 0
23.6 0 0
23.68 0 0
23.76 0 0
23.84 0 0
23.92 0 0
24 0 0
24.08 0 0
24.16 0 0
24.24 0 0
24.32 0 0
24.4 0 0
24.48 0 0
24.56 0 0
24.64 0 0
24.72 0 0
24.8 0 0
24.88 0 0
24.96 0 0
25.04 0 0
25.12 0 0
25.2 0 0
25.28 0 0
25.36 0 0
25.44 0 0
25.52 0 0
25.6 0 0
25.68 0 0
25.76 0 0
25.84 0 0
25.92 0 0
26 0 0
26.08 0 0
26.16 0 0
26.24 0 0
26.32 0 0
26.4 0 0
26.48 0 0
26.56 0 0
26.64 0 0
26.72 0 0
26.8 0 0
26.88 0 0
26.96 0 0
27.04 0 0
27.12 0 0
27.2 0 0
27.28 0 0
27.36 0 0
27.44 0 0
27.52 0 0
27.6 0 0
27.68 0 0
27.76 0 0
27.84 0 0
27.92 0 0
28 0 0
28.08 0 0
28.16 0 0
28.24 0 0
28.32 0 0
28.4 0 0
28.48 0 0
28.56 0 0
28.64 0 0
28.72 0 0
28.8 0 0
28.88 0 0
28.96 0 0
29.04 0 0
29.12 0 0
29.2 0 0
29.28 0 0
29.36 0 0
29.44 0 0
29.52 0 0
29.6 0 0
29.68 0 0
29.76 0 0
29.84 0 0
29.92 0 0
30 0 0
30.08 0 0
30.16 0 0
30.24 0 0
30.32 0 0
30.4 0 0
30.48 0 0
30.56 0 0
30.64 0 0
30.72 0 0
30.8 0 0
30.88 0 0
30.96 0 0
31.04 0 0
31.12 0 0
31.2 0 0
31.28 0 0
31.36 0 0
31.44 0 0
31.52 0 0
31.6 0 0
31.68 0 0
31.76 0 0
31.84 0 0
31.92 0 0
0 0.005 0
0.08 0.005 0
0.16 0.005 0
0.24 0.005 0
0.32 0.005 0
0.4 0.005 0
0.48 0.005 0
0.56 0.005 0
0.64 0.005 0
0.72 0.005 0
0.8 0.005 0
0.88 0.005 0
0.96 0.005 0
1.04 0.005 0
1.12 0.005 0
1.2 0.005 0
1.28 0.005 0
1.36 0.005 0
1.44 0.005 0
1.52 0.005 0
1.6 0.005 0
1.68 0.005 0
1.76 0.005 0
1.84 0.005 0
1.92 0.005 0
2 0.005 0
2.08 0.005 0
2.16 0.005 0
2.24 0.005 0
2.32 0.005 0
2.4 0.005 0
2.48 0.005 0
2.56 0.005 0
2.64 0.005 0
2.72 0.005 0
2.8 0.005 0
2.88 0.005 0
2.96 0.005 0
3.04 0.005 0
3.12 0.005 0
3.2 0.005 0
3.28 0.005 0
3.36 0.005 0
3.44 0.005 0
3.52 0.005 0
3.6 0.005 0
3.68 0.005 0
3.76 0.005 0
3.84 0.005 0
3.92 0.005 0
4 0.005 0
4.08 0.005 0
4.16 0.005 0
4.24 0.005 0
4.32 0.005 0
4.4 0.005 0
4.48 0.005 0
4.56 0.005 0
4.64 0.005 0
4.72 0.005 0
4.8 0.005 0
4.88 0.005 0
4.96 0.005 0
5.04 0.005 0
5.12 0.005 0
5.2 0.005 0
5.28 0.005 0
5.36 0.005 0
5.44 0.005 0
5.52 0.005 0
5.6 0.005 0
5.68 0.005 0
5.76 0.005 0
5.84 0.005 0
5.92 0.005 0
6 0.005 0
6.08 0.005 0
6.16 0.005 0
6.24 0.005 0
6.32 0.005 0
6.4 0.005 0
6.48 0.005 0
6.56 0.005 0
6.64 0.005 0
6.72 0.005 0
6.8 0.005 0
6.88 0.005 0
6.96 0.005 0
7.04 0.005 0
7.12 0.005 0
7.2 0.005 0
7.28 0.005 0
7.36 0.005 0
7.44 0.005 0
7.52 0.005 0
7.6 0.005 0
7.68 0.005 0
7.76 0.005 0
7.84 0.005 0
7.92 0.005 0
8 0.005 0
8.08 0.005 0
8.16 0.005 0
8.24 0.005 0
8.32 0.005 0
8.4 0.005 0
8.48 0.005 0
8.56 0.005 0
8.64 0.005 0
8.72 0.005 0
8.8 0.005 0
8.88 0.005 0
8.96 0.005 0
9.04 0.005 0
9.12 0.005 0
9.2 0.005 0
9.28 0.005 0
9.36 0.005 0
9.44 0.005 0
9.52 0.005 0
9.6 0.005 0
9.68 0.005 0
9.76 0.005 0
9.84 0.005 0
9.92 0.005 0
10 0.005 0
10.08 0.005 0
10.16 0.005 0
10.24 0.005 0
10.32 0.005 0
10.4 0.005 0
10.48 0.005 0
10.56 0.005 0
10.64 0.005 0
10.72 0.005 0
10.8 0.005 0
10.88 0.005 0
10.96 0.005 0
11.04 0.005 0
11.12 0.005 0
11.2 0.005 0
11.28 0.005 0
11.36 0.005 0
11.44 0.005 0
11.52 0.005 0
11.6 0.005 0
11.68 0.005 0
11.76 0.005 0
11.84 0.005 0
11.92 0.005 0
12 0.005 0
12.08 0.005 0
12.16 0.005 0
12.24 0.005 0
12.32 0.005 0
12.4 0.005 0
12.48 0.005 0
12.56 0.005 0
12.64 0.005 0
12.72 0.005 0
12.8 0.005 0
12.88 0.005 0
12.96 0.005 0
13.04 0.005 0
13.12 0.005 0
13.2 0.005 0
13.28 0.005 0
13.36 0.005 0
13.44 0.005 0
13.52 0.005 0
13.6 0.005 0
13.68 0.005 0
13.76 0.005 0
13.84 0.005 0
13.92 0.005 0
14 0.005 0
14.08 0.005 0
14.16 0.005 0
14.24 0.005 0
14.32 0.005 0
14.4 0.005 0
14.48 0.005 0
14.56 0.005 0
14.64 0.005 0
14.72 0.005 0
14.8 0.005 0
14.88 0.005 0
14.96 0.005 0
15.04 0.005 0
15.12 0.005 0
15.2 0.005 0
15.28 0.005 0
15.36 0.005 0
15.44 0.005 0
15.52 0.005 0
15.6 0.005 0
15.68 0.005 0
15.76 0.005 0
15.84 0.005 0
15.92 0.005 0
16 0.005 0
16.08 0.005 0
16.16 0.005 0
16.24 0.005 0
16.32 0.005 0
16.4 0.005 0
16.48 0.005 0
16.56 0.005 0
16.64 0.005 0
16.72 0.005 0
16.8 0.005 0
16.88 0.005 0
16.96 0.005 0
17.04 0.005 0
17.12 0.005 0
17.2 0.005 0
17.28 0.005 0
17.36 0.005 0
17.44 0.005 0
17.52 0.005 0
17.6 0.005 0
17.68 0.005 0
17.76 0.005 0
17.84 0.005 0
17.92 0.005 0
18 0.005 0
18.08 0.005 0
18.16 0.005 0
18.24 0.005 0
18.32 0.005 0
18.4 0.005 0
18.48 0.005 0
18.56 0.005 0
18.64 0.005 0
18.72 0.005 0
18.8 0.005 0
18.88 0.005 0
18.96 0.005 0
19.04 0.005 0
19.12 0.005 0
19.2 0.005 0
19.28 0.005 0
19.36 0.005 0
19.44 0.005 0
19.52 0.005 0
19.6 0.005 0
19.68 0.005 0
19.76 0.005 0
19.84 0.005 0
19.92 0.005 0
20 0.005 0
20.08 0.005 0
20.16 0.005 0
20.24 0.005 0
20.32 0.005 0
20.4 0.005 0
20.48 0.005 0
20.56 0.005 0
20.64 0.005 0
20.72 0.005 0
20.8 0.005 0
20.88 0.005 0
20.96 0.005 0
21.04 0.005 0
21.12 0.005 0
21.2 0.005 0
21.28 0.005 0
21.36 0.005 0
21.44 0.005 0
21.52 0.005 0
21.6 0.005 0
21.68 0.005 0
21.76 0.005 0
21.84 0.005 0
21.92 0.005 0
22 0.005 0
22.08 0.005 0
22.16 0.005 0
22.24 0.005 0
22.32 0.005 0
22.4 0.005 0
22.48 0.005 0
22.56 0.005 0
22.64 0.005 0
22.72 0.005 0
22.8 0.005 0
22.88 0.005 0
22.96 0.005 0
23.04 0.005 0
23.12 0.005 0
23.2 0.005 0
23.28 0.005 0
23.36 0.005 0
23.44 0.005 0
23.52 0.005 0
23.6 0.005 0
23.68 0.005 0
23.76 0.005 0
23.84 0.005 0
23.92 0.005 0
24 0.005 0
24.08 0.005 0
24.16 0.005 0
24.24 0.005 0
24.32 0.005 0
24.4 0.005 0
24.48 0.005 0
24.56 0.005 0
24.64 0.005 0
24.72 0.005 0
24.8 0.005 0
24.88 0.005 0
24.96 0.005 0
25.04 0.005 0
25.12 0.005 0
25.2 0.005 0
25.28 0.005 0
25.36 0.005 0
25.44 0.005 0
25.52 0.005 0
25.6 0.005 0
25.68 0.005 0
25.76 0.005 0
25.84 0.005 0
25.92 0.005 0
26 0.005 0
26.08 0.005 0
26.16 0.005 0
26.24 0.005 0
26.32 0.005 0
26.4 0.005 0
26.48 0.005 0
26.56 0.005 0
26.64 0.005 0
26.72 0.005 0
26.8 0.005 0
26.88 0.005 0
26.96 0.005 0
27.04 0.005 0
27.12 0.005 0
27.2 0.005 0
27.28 0.005 0
27.36 0.005 0
27.44 0.005 0
27.52 0.005 0
27.6 0.005 0
27.68 0.005 0
27.76 0.005 0
27.84 0.005 0
27.92 0.005 0
28 0.005 0
28.08 0.005 0
28.16 0.005 0
28.24 0.005 0
28.32 0.005 0
28.4 0.005 0
28.48 0.005 0
28.56 0.005 0
28.64 0.005 0
28.72 0.005 0
28.8 0.005 0
28.88 0.005 0
28.96 0.005 0
29.04 0.005 0
29.12 0.005 0
29.2 0.005 0
29.28 0.005 0
29.36 0.005 0
29.44 0.005 0
29.52 0.005 0
29.6 0.005 0
29.68 0.005 0
29.76 0.005 0
29.84 0.005 0
29.92 0.005 0
30 0.005 0
30.08 0.005 0
30.16 0.005 0
30.24 0.005 0
30.32 0.005 0
30.4 0.005 0
30.48 0.005 0
30.56 0.005 0
30.64 0.005 0
30.72 0.005 0
30.8 0.005 0
30.88 0.005 0
30.96 0.005 0
31.04 0.005 0
31.12 0.005 0
31.2 0.005 0
31.28 0.005 0
31.36 0.005 0
31.44 0.005 0
31.52 0.005 0
31.6 0.005 0
31.68 0.005 0
31.76 0.005 0
31.84 0.005 0
31.92 0.005 0
0 0.01 0
0.08 0.01 0
0.16 0.01 0
0.24 0.01 0
0.32 0.01 0
0.4 0.01 0
0.48 0.01 0
0.56 0.01 0
0.64 0.01 0
0.72 0.01 0
0.8 0.01 0
0.88 0.01 0
0.96 0.01 0
1.04 0.01 0
1.12 0.01 0
1.2 0.01 0
1.28 0.01 0
1.36 0.01 0
1.44 0.01 0
1.52 0.01 0
1.6 0.01 0
1.68 0.01 0
1.76 0.01 0
1.84 0.01 0
1.92 0.01 0
2 0.01 0
2.08 0.01 0
2.16 0.01 0
2.24 0.01 0
2.32 0.01 0
2.4 0.01 0
2.48 0.01 0
2.56 0.01 0
2.64 0.01 0
2.72 0.01 0
2.8 0.01 0
2.88 0.01 0
2.96 0.01 0
3.04 0.01 0
3.12 0.01 0
3.2 0.01 0
3.28 0.01 0
3.36 0.01 0
3.44 0.01 0
3.52 0.01 0
3.6 0.01 0
3.68 0.01 0
3.76 0.01 0
3.84 0.01 0
3.92 0.01 0
4 0.01 0
4.08 0.01 0
4.16 0.01 0
4.24 0.01 0
4.32 0.01 0
4.4 0.01 0
4.48 0.01 0
4.56 0.01 0
4.64 0.01 0
4.72 0.01 0
4.8 0.01 0
4.88 0.01 0
4.96 0.01 0
5.04 0.01 0
5.12 0.01 0
[...]
POINT_DATA 80000

SCALARS v float 1
LOOKUP_TABLE default
0
0
0
0
0
0
0
0
0
0
0
0
0
0
0
0
0
0
0
0
0
0
0
0
0
0
0
0
0
0
0
0
0
0
0
0
0
0
0
0
0
0
0
0
0
0
0
0
0
0
0
0
0
0
0
0
0
0
0
0
0
0
0
0
0
0
0
0
0
0
0
0
0
0
0
0
0
0
0
0
0
0
0
0
0
0
0
0
0
0
0
0
0
0
0
0
0
0
0
0
0
0
0
0
0
0
0
0
0
0
0
0
0
0
0
0
0
0
0
0
0
0
0
0
0
0
0
0
0
0
0
0
0
0
0
0
0
0
0
0
0
0
0
0
0
0
0
0
0
0
0
0
0
0
0
0
0
0
0
0
0
0
0
0
0
0
0
0
0
0
0
0
0
0
0
0
0
0
0
0
0
0
0
0
0
0
0
0
0
0
0
0
0
0
0
0
0
0
0
0
0
0
0
0
0
0
0
0
0
0
0
0
0
0
0
0
0
0
0
0
0
0
0
0
0
0
0
0
0
0
0
0
0
0
0
0
0
0
0
0
0
0
0
0
0
0
0
0
0
0
0
0
0
0
0
0
0
0
0
0
0
0
0
0
0
0
0
0
0
0
0
0
0
0
0
0
0
0
0
0
0
0
0
0
0
0
0
0
0
0
0
0
0
0
0
0
0
0
0
0
0
0
0
0
0
0
0
0
0
0
0
0
0
0
0
0
0
0
0
0
0
0
0
0
0
0
0
0
0
0
0
0
0
0
0
0
0
0
0
0
0
0
0
0
0
0
0
0
0
0
0
0
0
0
0
0
0
0
0
0
0
0
0
0
0
0
0
0
0
0
0
0
0
0
0
0
0
0
0
0
0
0
0
0
0
0
0
0
0
0
0
0
0
0
0
0
0
0
0
0
-0.05427131986
0.05427131986
0.00396233271
0.0009985704757
0.0004925023514
0.0003029391754
0.0002075635597
0.0001519355418
0.0001164944273
9.253827806e-05
7.562534141e-05
6.326493748e-05
5.396462803e-05
4.678616055e-05
4.111823551e-05
3.655122756e-05
3.28039025e-05
2.967890663e-05
2.703532341e-05
2.477128868e-05
2.281201617e-05
2.110093392e-05
1.959372326e-05
1.825542651e-05
1.705941947e-05
1.598601292e-05
1.501958022e-05
1.41455469e-05
1.334957158e-05
1.261941877e-05
1.194721239e-05
1.132912125e-05
1.07620324e-05
1.024000214e-05
9.753902103e-06
9.294888461e-06
8.858685001e-06
8.446637211e-06
8.062114319e-06
7.704843753e-06
7.3676854e-06
7.038567259e-06
6.706313161e-06
6.366119535e-06
6.020751209e-06
5.67676084e-06
5.338668219e-06
5.005409929e-06
4.671626882e-06
4.332889136e-06
3.991229799e-06
3.657135136e-06
3.346400626e-06
3.073426312e-06
2.844605126e-06
2.655320675e-06
2.492004095e-06
2.338046872e-06
2.180602491e-06
2.015200704e-06
1.846441275e-06
1.684957933e-06
1.542375273e-06
1.42652112e-06
1.338663401e-06
1.273437751e-06
1.221007451e-06
1.170306881e-06
1.112117685e-06
1.041084992e-06
9.563350423e-07
8.608550067e-07
7.600981785e-07
6.603563041e-07
5.673467642e-07
4.852792677e-07
4.164724014e-07
3.614401898e-07
3.192852449e-07
2.882205653e-07
2.66073241e-07
2.506795407e-07
2.4013694e-07
2.329214764e-07
2.279028222e-07
2.242967212e-07
2.215897699e-07
2.194614607e-07
2.177177504e-07
2.162413711e-07
2.149586677e-07
2.13819714e-07
2.127875751e-07
2.118332374e-07
2.109335103e-07
2.100701564e-07
2.09229391e-07
2.084013618e-07
2.075794776e-07
2.067596774e-07
2.059397758e-07
2.051188034e-07
2.042965306e-07
2.034731213e-07
2.026488926e-07
2.018241752e-07
2.009992635e-07
2.001743252e-07
1.993494573e-07
1.985247419e-07
1.977001658e-07
1.968756788e-07
1.960512708e-07
1.952268715e-07
1.94402468e-07
1.935780259e-07
1.927535394e-07
1.919289845e-07
1.911043802e-07
1.902797276e-07
1.894550685e-07
1.886304054e-07
1.878057598e-07
1.8698119e-07
1.86156686e-07
1.853322998e-07
1.845080563e-07
1.836839701e-07
1.828600725e-07
1.820363865e-07
1.812129282e-07
1.803897332e-07
1.79566783e-07
1.787441447e-07
1.779217921e-07
1.770997621e-07
1.762780525e-07
1.754566835e-07
1.746356752e-07
1.738150238e-07
1.729947433e-07
1.721748441e-07
1.713553263e-07
1.70536219e-07
1.697175122e-07
1.68899225e-07
1.680813534e-07
1.672639052e-07
1.664468878e-07
1.656303141e-07
1.648141607e-07
1.639984648e-07
1.631832213e-07
1.623684247e-07
1.615540859e-07
1.607402123e-07
1.599267954e-07
1.591138551e-07
1.5830136e-07
1.574893397e-07
1.566777934e-07
1.558666992e-07
1.550560891e-07
1.542459436e-07
1.534362489e-07
1.526270354e-07
1.518182717e-07
1.510099822e-07
1.502021385e-07
1.493947606e-07
1.485878236e-07
1.477813423e-07
1.469753085e-07
1.461697094e-07
1.453645436e-07
1.445598111e-07
1.437555075e-07
1.429516244e-07
1.421481542e-07
1.41345096e-07
1.405424234e-07
1.397401649e-07
1.38938283e-07
1.381367826e-07
1.373356645e-07
1.365349091e-07
1.357345172e-07
1.349344804e-07
1.341347778e-07
1.333354098e-07
1.325363784e-07
1.317376629e-07
1.309392546e-07
1.301411564e-07
1.29343346e-07
1.285458227e-07
1.277485707e-07
1.269515771e-07
1.261548585e-07
1.253583763e-07
1.245621419e-07
1.237661393e-07
1.229703484e-07
1.221747704e-07
1.213794025e-07
1.205842184e-07
1.197892278e-07
1.189944136e-07
1.181997687e-07
1.174052801e-07
1.166109222e-07
1.158167206e-07
1.150226476e-07
1.142286933e-07
1.134348578e-07
1.12641122e-07
1.118474711e-07
1.110539294e-07
1.102604352e-07
1.094670398e-07
1.086736932e-07
1.078803932e-07
1.07087157e-07
1.062939342e-07
1.055007587e-07
1.047075866e-07
1.039144518e-07
1.031213031e-07
1.023281528e-07
1.015349962e-07
1.007418326e-07
9.994864403e-08
9.915541373e-08
9.83621473e-08
9.75688331e-08
9.677547815e-08
9.598205871e-08
9.518856634e-08
9.43950138e-08
9.360137738e-08
9.280766338e-08
9.20138554e-08
9.121995492e-08
9.042595419e-08
8.963184723e-08
8.883761941e-08
8.804328091e-08
8.724882414e-08
8.64542326e-08
8.5659508e-08
8.486464949e-08
8.406964587e-08
8.327449887e-08
8.247919038e-08
8.168374053e-08
8.088812237e-08
8.009234483e-08
7.929639527e-08
7.850028329e-08
7.770398327e-08
7.690751642e-08
7.611084508e-08
7.531399808e-08
7.451695873e-08
7.371973165e-08
7.292228728e-08
7.212466522e-08
7.132683099e-08
7.052878868e-08
6.97305254e-08
6.893206085e-08
6.813337705e-08
6.733447374e-08
6.653535608e-08
6.57360046e-08
6.493643297e-08
6.413661578e-08
6.333657327e-08
6.253630863e-08
6.173579185e-08
6.093504254e-08
6.013405161e-08
5.933281332e-08
5.853133333e-08
5.772959968e-08
5.692762506e-08
5.612538808e-08
5.532290184e-08
5.452015322e-08
5.371715625e-08
5.29138934e-08
5.211036602e-08
5.130657503e-08
5.050252597e-08
4.969820905e-08
4.889361607e-08
4.80887648e-08
4.728363167e-08
4.64782247e-08
4.56725382e-08
4.486658143e-08
4.406035309e-08
4.325383296e-08
4.244703877e-08
4.163995833e-08
4.083259085e-08
4.00249447e-08
3.921700822e-08
3.840877847e-08
3.760026712e-08
3.679145681e-08
3.598235674e-08
3.517296687e-08
3.436327386e-08
3.355329451e-08
3.274301437e-08
3.19324242e-08
3.11215444e-08
3.031035261e-08
2.949886154e-08
2.868707532e-08
2.78749709e-08
2.706256845e-08
2.624984153e-08
2.543681625e-08
2.462347126e-08
2.380983424e-08
2.299584596e-08
2.21816007e-08
2.136693188e-08
2.055211931e-08
1.973669378e-08
1.892143585e-08
1.810508827e-08
1.728959813e-08
1.647197838e-08
1.565674245e-08
1.483717685e-08
1.402303956e-08
1.320047975e-08
1.238869579e-08
1.156165855e-08
1.075392414e-08
9.920502836e-09
9.118834839e-09
8.27692545e-09
7.483432582e-09
6.630948626e-09
5.847630861e-09
4.982704763e-09
4.211250604e-09
3.332305027e-09
2.57421823e-09
1.679694919e-09
9.367588702e-10
2.436087777e-11
-7.003130431e-10
-1.63482273e-09
-2.335633791e-09
-3.299459178e-09
-3.967410091e-09
-4.971596456e-09
-5.593247026e-09
-6.653931396e-09
-7.210191445e-09
-8.349444874e-09
-8.815379845e-09
-1.006069078e-08
-1.040633269e-08
-1.179004191e-08
-1.19805852e-08
-1.353969192e-08
-1.353615108e-08
-1.531106506e-08
-1.507178904e-08
-1.710510495e-08
-1.658672993e-08
-1.892176925e-08
-1.808310969e-08
-2.075696978e-08
-1.956991752e-08
-2.259900167e-08
-2.107079012e-08
-2.441926805e-08
-2.264249912e-08
-2.615402033e-08
-2.441444633e-08
-2.766179449e-08
-2.668236441e-08
-2.862249993e-08
-3.012358567e-08
-2.825117444e-08
-3.633969092e-08
-2.421486319e-08
-4.921398225e-08
-6.473772735e-09
-7.760326268e-08
1.24321343e-07
-3.517245461e-08
-3.517245461e-08
-0.09521612153
0.09521612153
0.01297590229
0.003854911561
0.00193460651
0.001196501003
0.0008220449934
0.0006026200603
0.0004623738746
0.0003673488227
0.0003001394289
0.0002509546545
0.0002139119056
0.0001853040957
0.0001627105083
0.0001445055251
0.000129570876
0.0001171206915
0.0001065932453
9.758187103e-05
8.978729602e-05
8.298282166e-05
7.699126669e-05
7.167352715e-05
6.692368958e-05
6.266260799e-05
5.882662197e-05
5.535674869e-05
5.219638273e-05
4.929830139e-05
4.663201523e-05
4.418131079e-05
4.193156165e-05
3.985756862e-05
3.792371028e-05
3.609731143e-05
3.436344699e-05
3.272698078e-05
3.119811749e-05
2.977203596e-05
2.841889e-05
2.709277502e-05
2.575359798e-05
2.438595532e-05
2.300157276e-05
2.162425709e-05
2.026903091e-05
1.893091629e-05
1.759147068e-05
1.623842701e-05
1.488466277e-05
1.357306237e-05
1.236282245e-05
1.130418147e-05
1.041532023e-05
9.673684317e-06
9.025842405e-06
8.41039363e-06
7.782607805e-06
7.129839597e-06
6.472170067e-06
5.849828832e-06
5.304235556e-06
4.86098503e-06
4.520889076e-06
4.260976654e-06
4.043314898e-06
3.827218126e-06
3.580288003e-06
3.285211761e-06
2.941328134e-06
2.561761068e-06
2.167940187e-06
1.783519387e-06
1.429290082e-06
1.119977088e-06
8.630900076e-07
6.59468698e-07
5.048878853e-07
3.920563938e-07
3.124854036e-07
2.579141041e-07
2.211887743e-07
1.966438876e-07
1.801150886e-07
1.687340899e-07
1.606336353e-07
1.546521021e-07
1.500863731e-07
1.465099057e-07
1.436525626e-07
1.413293269e-07
1.394023578e-07
1.37763179e-07
1.363252742e-07
1.350209776e-07
1.337994433e-07
1.326245991e-07
1.314724682e-07
1.303285031e-07
1.291848724e-07
1.280381857e-07
1.268877134e-07
1.257341098e-07
1.245784963e-07
1.234220432e-07
1.222656571e-07
1.211099677e-07
1.199552691e-07
1.188016377e-07
1.176490031e-07
1.164971684e-07
1.153459198e-07
1.141950483e-07
1.130443607e-07
1.118936998e-07
1.107429715e-07
1.095921061e-07
1.084410652e-07
1.072898528e-07
1.061384936e-07
1.049870362e-07
1.038355283e-07
1.026840211e-07
1.015325798e-07
1.003812624e-07
9.923012122e-08
9.807921399e-08
9.692857673e-08
9.577826636e-08
9.462831828e-08
9.347875325e-08
9.232959436e-08
9.118090631e-08
9.00326543e-08
8.888489427e-08
8.773761571e-08
8.659086296e-08
8.544460318e-08
8.429887352e-08
8.31536599e-08
8.200899403e-08
8.086484781e-08
7.972124553e-08
7.857818886e-08
7.743567308e-08
7.629371045e-08
7.51522894e-08
7.401143431e-08
7.28711162e-08
7.173135655e-08
7.059214226e-08
6.945348883e-08
6.831539188e-08
6.717783761e-08
6.604085236e-08
6.490441493e-08
6.376851335e-08
6.26331698e-08
6.149838807e-08
6.036412773e-08
5.923044432e-08
5.809728183e-08
5.696466392e-08
5.583258545e-08
5.470103556e-08
5.357001305e-08
5.243952644e-08
5.130954453e-08
5.018007463e-08
4.905110042e-08
4.792264745e-08
4.679467803e-08
4.566719843e-08
4.454019624e-08
4.341367331e-08
4.228761037e-08
4.116201302e-08
4.003684308e-08
3.891213573e-08
3.778783082e-08
3.666396857e-08
3.554052186e-08
3.441746368e-08
3.329479523e-08
3.217252165e-08
3.105060782e-08
2.992907448e-08
2.880787785e-08
2.768702055e-08
2.656649463e-08
2.544627962e-08
2.43263766e-08
2.320677841e-08
2.208745255e-08
2.096840342e-08
1.984962058e-08
1.873109382e-08
1.76127807e-08
1.64947197e-08
1.537686299e-08
1.425921212e-08
1.314175982e-08
1.20244915e-08
1.09073792e-08
9.79042454e-09
8.673625274e-09
7.556963046e-09
6.440408384e-09
5.323986227e-09
4.207663561e-09
3.091416839e-09
1.975258156e-09
8.591515545e-10
-2.568840576e-10
-1.372888028e-09
-2.488837809e-09
-3.604765976e-09
-4.720692128e-09
-5.836614049e-09
-6.952545255e-09
-8.068482363e-09
-9.184458548e-09
-1.030047137e-08
-1.141651757e-08
-1.253263849e-08
-1.364882549e-08
-1.476507907e-08
-1.588143353e-08
-1.699788221e-08
-1.811442004e-08
-1.923108648e-08
-2.034787102e-08
-2.146478561e-08
-2.258184757e-08
-2.369905602e-08
-2.481641756e-08
-2.593394154e-08
-2.705164678e-08
-2.816953014e-08
-2.92875975e-08
-3.040586881e-08
-3.152433779e-08
-3.264301774e-08
-3.376191574e-08
-3.488102539e-08
-3.600039367e-08
-3.711997628e-08
-3.823980715e-08
-3.935989451e-08
-4.048023205e-08
-4.160082826e-08
-4.27216944e-08
-4.384282976e-08
-4.496425742e-08
-4.608593292e-08
-4.720792205e-08
-4.833020249e-08
-4.945276618e-08
-5.057565221e-08
-5.169883775e-08
-5.282233928e-08
-5.394616475e-08
-5.507029061e-08
-5.619475848e-08
-5.731956505e-08
-5.844469625e-08
-5.95701675e-08
-6.069598492e-08
-6.182214353e-08
-6.294866087e-08
-6.407553536e-08
-6.52027781e-08
-6.633036851e-08
-6.745832587e-08
-6.858666827e-08
-6.971537777e-08
-7.084445583e-08
-7.197392318e-08
-7.310376851e-08
-7.423401595e-08
-7.536464412e-08
-7.649566535e-08
-7.762709447e-08
-7.875891327e-08
-7.989113835e-08
-8.102376267e-08
-8.215681773e-08
-8.329026764e-08
-8.442413707e-08
-8.555842311e-08
-8.669313107e-08
-8.782825767e-08
-8.896381763e-08
-9.009980657e-08
-9.123622309e-08
-9.23730782e-08
-9.351037038e-08
-9.464810505e-08
-9.578627058e-08
-9.6924901e-08
-9.806395695e-08
-9.920347499e-08
-1.003434508e-07
-1.014838777e-07
-1.026247634e-07
-1.037661171e-07
-1.049079124e-07
-1.06050194e-07
-1.071929327e-07
-1.083361586e-07
-1.094798378e-07
-1.106239979e-07
-1.117686538e-07
-1.129137722e-07
-1.140593871e-07
-1.152054887e-07
-1.163520778e-07
-1.174991667e-07
-1.186467358e-07
-1.197948215e-07
-1.209434008e-07
-1.220924832e-07
-1.232420792e-07
-1.24392164e-07
-1.255428006e-07
-1.266938965e-07
-1.278456236e-07
-1.289976594e-07
-1.301505901e-07
-1.31303445e-07
-1.324578509e-07
-1.336111073e-07
-1.347676222e-07
-1.359203826e-07
-1.37080307e-07
-1.3823083e-07
-1.393965638e-07
-1.405417718e-07
-1.417172004e-07
-1.428523571e-07
-1.440431147e-07
-1.451618366e-07
-1.463750257e-07
-1.474697384e-07
-1.487132669e-07
-1.49775997e-07
-1.510577346e-07
-1.520809793e-07
-1.534079753e-07
-1.54385289e-07
-1.557634776e-07
-1.566892762e-07
-1.581244055e-07
-1.58992125e-07
-1.604926215e-07
-1.612908536e-07
-1.628722682e-07
-1.635803309e-07
-1.652693579e-07
-1.658537287e-07
-1.676915881e-07
-1.681021651e-07
-1.701489536e-07
-1.703146132e-07
-1.726526191e-07
-1.724801783e-07
-1.752123928e-07
-1.745894184e-07
-1.778370589e-07
-1.766331646e-07
-1.805348382e-07
-1.786038993e-07
-1.833109988e-07
-1.804969067e-07
-1.861691914e-07
-1.823092161e-07
-1.891095148e-07
-1.840483245e-07
-1.921172201e-07
-1.857473467e-07
-1.951493257e-07
-1.87493772e-07
-1.981014465e-07
-1.894975619e-07
-2.00740684e-07
-1.922380761e-07
-2.025506823e-07
-1.968116559e-07
-2.023627845e-07
-2.057289824e-07
-1.973122266e-07
-2.249086587e-07
-1.788697403e-07
-2.685634563e-07
-1.102147127e-07
-3.674478151e-07
3.673545238e-07
-2.093694322e-07
-2.093694322e-07
-0.1252933086
0.1252933086
0.02493617883
0.008358350918
0.004278339463
0.002661869066
0.00183409053
0.001346711106
0.00103424587
0.0008220674896
0.0006717526098
0.000561617547
0.0004786010244
0.0004144540099
0.0003637791958
0.0003229453264
0.0002894503596
0.0002615337961
0.0002379360448
0.0002177440511
0.0002002846985
0.0001850476543
0.0001716347423
0.0001597342894
0.0001491088669
0.000139579693
0.0001310018075
0.0001232417363
0.0001161736157
0.0001096939031
0.0001037352849
9.82595849e-05
9.323055274e-05
8.858973618e-05
8.425890096e-05
8.016884562e-05
7.628893796e-05
7.262866511e-05
6.920562206e-05
6.600359011e-05
6.295434438e-05
5.995912254e-05
5.693504694e-05
5.385282805e-05
5.073908146e-05
4.764323878e-05
4.459471552e-05
4.158210709e-05
3.856940701e-05
3.553758692e-05
3.252212042e-05
2.961944811e-05
2.695514695e-05
2.463017046e-05
2.267436713e-05
2.10318882e-05
1.958528066e-05
1.820519906e-05
1.680145019e-05
1.53529567e-05
1.390625903e-05
1.254707691e-05
1.135999724e-05
1.039372746e-05
9.644130459e-06
9.058208369e-06
8.553887236e-06
8.046005794e-06
7.469027446e-06
6.790348526e-06
6.01251003e-06
5.166302021e-06
4.298746263e-06
3.460203359e-06
2.693874633e-06
2.029433072e-06
1.481014489e-06
1.048711054e-06
7.221807959e-07
4.849668759e-07
3.184433788e-07
2.047663785e-07
1.28646482e-07
7.807161987e-08
4.426907941e-08
2.122772058e-08
5.049924427e-09
-6.683132607e-09
-1.543537782e-08
-2.209755545e-08
-2.723717945e-08
-3.124570787e-08
-3.441618408e-08
-3.697954129e-08
-3.911964441e-08
-4.097979618e-08
-4.266711575e-08
-4.425731686e-08
-4.580033467e-08
-4.732635486e-08
-4.885144244e-08
-5.038244129e-08
-5.192067541e-08
-5.346473752e-08
-5.501224127e-08
-5.656080804e-08
-5.810859326e-08
-5.965437713e-08
-6.11976206e-08
-6.273823199e-08
-6.427649274e-08
-6.58128217e-08
-6.734774418e-08
-6.888176701e-08
-7.04153173e-08
-7.194874031e-08
-7.348228967e-08
-7.501613326e-08
-7.655035811e-08
-7.808497086e-08
-7.961995005e-08
-8.115521127e-08
-8.269068265e-08
-8.422625659e-08
-8.576182967e-08
-8.729728101e-08
-8.883254433e-08
-9.036748401e-08
-9.190206025e-08
-9.343618227e-08
-9.496978891e-08
-9.650281837e-08
-9.803527084e-08
-9.956707124e-08
-1.010982266e-07
-1.026287081e-07
-1.041584875e-07
-1.056875698e-07
-1.072159472e-07
-1.087436387e-07
-1.102706396e-07
-1.117969221e-07
-1.133225289e-07
-1.148474321e-07
-1.163716777e-07
-1.178952267e-07
-1.194181161e-07
-1.209403489e-07
-1.224619279e-07
-1.239828564e-07
-1.255031391e-07
-1.270227867e-07
-1.285418124e-07
-1.300601914e-07
-1.315779752e-07
-1.330951405e-07
-1.346116898e-07
-1.361276417e-07
-1.3764299e-07
-1.391577586e-07
-1.406719449e-07
-1.4218554e-07
-1.4369856e-07
-1.452110234e-07
-1.467229356e-07
-1.482342709e-07
-1.497450865e-07
-1.512553682e-07
-1.527651087e-07
-1.542743313e-07
-1.557830552e-07
-1.572912754e-07
-1.587989946e-07
-1.603062496e-07
-1.618130246e-07
-1.633193445e-07
-1.648252164e-07
-1.66330642e-07
-1.678356541e-07
-1.69340237e-07
-1.708444367e-07
-1.723482406e-07
-1.738516618e-07
-1.753547168e-07
-1.768574232e-07
-1.783597844e-07
-1.798618249e-07
-1.813635456e-07
-1.828649754e-07
-1.843661105e-07
-1.858669892e-07
-1.873675872e-07
-1.888679456e-07
-1.903680666e-07
-1.918679823e-07
-1.933676759e-07
-1.948671989e-07
-1.963665339e-07
-1.978656949e-07
-1.99364719e-07
-2.00863611e-07
-2.023623829e-07
-2.038610374e-07
-2.053596052e-07
-2.068580984e-07
-2.083565064e-07
-2.098548772e-07
-2.113532014e-07
-2.128515102e-07
-2.143497956e-07
-2.158480889e-07
-2.173463949e-07
-2.188447386e-07
-2.203431066e-07
-2.218415364e-07
-2.233400306e-07
-2.248385987e-07
-2.263372744e-07
-2.278360497e-07
-2.293349372e-07
-2.308339537e-07
-2.32333109e-07
-2.338324198e-07
-2.353318957e-07
-2.368315453e-07
-2.383313885e-07
-2.39831435e-07
-2.413316831e-07
-2.428321693e-07
-2.443328696e-07
-2.458338189e-07
-2.473350317e-07
-2.48836501e-07
-2.50338257e-07
-2.518402975e-07
-2.533426225e-07
-2.548452634e-07
-2.563482329e-07
-2.578515121e-07
-2.593551276e-07
-2.608590966e-07
-2.623634281e-07
-2.638681016e-07
-2.653731548e-07
-2.668785901e-07
-2.683843964e-07
-2.698906187e-07
-2.713972236e-07
-2.729042365e-07
-2.744116801e-07
-2.759195376e-07
-2.774278217e-07
-2.789365492e-07
-2.804457041e-07
-2.819553304e-07
-2.834653956e-07
-2.849759353e-07
-2.86486925e-07
-2.879984009e-07
-2.895103633e-07
-2.910228035e-07
-2.925357296e-07
-2.940491555e-07
-2.955630866e-07
-2.970775319e-07
-2.985924885e-07
-3.001079688e-07
-3.016239635e-07
-3.031405028e-07
-3.046575778e-07
-3.061751867e-07
-3.076933491e-07
-3.092120615e-07
-3.107313217e-07
-3.122511544e-07
-3.137715594e-07
-3.152925204e-07
-3.16814069e-07
-3.183361846e-07
-3.198588951e-07
-3.213821962e-07
-3.229060911e-07
-3.244305836e-07
-3.259556663e-07
-3.274813779e-07
-3.290076881e-07
-3.305346248e-07
-3.320621747e-07
-3.335903417e-07
-3.351191453e-07
-3.366485834e-07
-3.381786568e-07
-3.397093707e-07
-3.412407199e-07
-3.427727364e-07
-3.443054022e-07
-3.458387149e-07
-3.473727023e-07
-3.489073474e-07
-3.504426663e-07
-3.519786657e-07
-3.535153257e-07
-3.550526959e-07
-3.565907306e-07
-3.581294628e-07
-3.596688967e-07
-3.612090315e-07
-3.627498712e-07
-3.642914087e-07
-3.658336676e-07
-3.673766403e-07
-3.689203397e-07
-3.704647576e-07
-3.720099182e-07
-3.735558155e-07
-3.751024543e-07
-3.766498288e-07
-3.781979632e-07
-3.797468492e-07
-3.812965019e-07
-3.828469209e-07
-3.843980985e-07
-3.859500658e-07
-3.875028167e-07
-3.890563397e-07
-3.906107155e-07
-3.921657553e-07
-3.937218414e-07
-3.952783207e-07
-3.968363615e-07
-3.983939526e-07
-3.999545097e-07
-4.01512374e-07
-4.030767789e-07
-4.04633041e-07
-4.062040443e-07
-4.077549823e-07
-4.093376451e-07
-4.108767135e-07
-4.124793919e-07
-4.139964472e-07
-4.156311621e-07
-4.171125383e-07
-4.187945193e-07
-4.20223912e-07
-4.219701802e-07
-4.233304733e-07
-4.251579408e-07
-4.264329957e-07
-4.283567821e-07
-4.295327934e-07
-4.315655992e-07
-4.326306473e-07
-4.347846687e-07
-4.357248771e-07
-4.380178761e-07
-4.388091843e-07
-4.412741015e-07
-4.418724963e-07
-4.445662715e-07
-4.449001305e-07
-4.479108887e-07
-4.478731819e-07
-4.513291821e-07
-4.507681444e-07
-4.548450514e-07
-4.535614125e-07
-4.584798453e-07
-4.562325787e-07
-4.622524e-07
-4.587620681e-07
-4.661800899e-07
-4.611338147e-07