# vtk DataFile Version 2.0
FlowField
ASCII
DATASET STRUCTURED_GRID
DIMENSIONS 400 1 200
POINTS 80000 float
0 0 0
0.08 0 0
0.16 0 0
0.24 0 0
0.32 0 0
0.4 0 0
0.48 0 0
0.56 0 0
0.64 0 0
0.72 0 0
0.8 0 0
0.88 0 0
0.96 0 0
1.04 0 0
1.12 0 0
1.2 0 0
1.28 0 0
1.36 0 0
1.44 0 0
1.52 0 0
1.6 0 0
1.68 0 0
1.76 0 0
1.84 0 0
1.92 0 0
2 0 0
2.08 0 0
2.16 0 0
2.24 0 0
2.32 0 0
2.4 0 0
2.48 0 0
2.56 0 0
2.64 0 0
2.72 0 0
2.8 0 0
2.88 0 0
2.96 0 0
3.04 0 0
3.12 0 0
3.2 0 0
3.28 0 0
3.36 0 0
3.44 0 0
3.52 0 0
3.6 0 0
3.68 0 0
3.76 0 0
3.84 0 0
3.92 0 0
4 0 0
4.08 0 0
4.16 0 0
4.24 0 0
4.32 0 0
4.4 0 0
4.48 0 0
4.56 0 0
4.64 0 0
4.72 0 0
4.8 0 0
4.88 0 0
4.96 0 0
5.04 0 0
5.12 0 0
5.2 0 0
5.28 0 0
5.36 0 0
5.44 0 0
5.52 0 0
5.6 0 0
5.68 0 0
5.76 0 0
5.84 0 0
5.92 0 0
6 0 0
6.08 0 0
6.16 0 0
6.24 0 0
6.32 0 0
6.4 0 0
6.48 0 0
6.56 0 0
6.64 0 0
6.72 0 0
6.8 0 0
6.88 0 0
6.96 0 0
7.04 0 0
7.12 0 0
7.2 0 0
7.28 0 0
7.36 0 0
7.44 0 0
7.52 0 0
7.6 0 0
7.68 0 0
7.76 0 0
7.84 0 0
7.92 0 0
8 0 0
8.08 0 0
8.16 0 0
8.24 0 0
8.32 0 0
8.4 0 0
8.48 0 0
8.56 0 0
8.64 0 0
8.72 0 0
8.8 0 0
8.88 0 0
8.96 0 0
9.04 0 0
9.12 0 0
9.2 0 0
9.28 0 0
9.36 0 0
9.44 0 0
9.52 0 0
9.6 0 0
9.68 0 0
9.76 0 0
9.84 0 0
9.92 0 0
10 0 0
10.08 0 0
10.16 0 0
10.24 0 0
10.32 0 0
10.4 0 0
10.48 0 0
10.56 0 0
10.64 0 0
10.72 0 0
10.8 0 0
10.88 0 0
10.96 0 0
11.04 0 0
11.12 0 0
11.2 0 0
11.28 0 0
11.36 0 0
11.44 0 0
11.52 0 0
11.6 0 0
11.68 0 0
11.76 0 0
11.84 0 0
11.92 0 0
12 0 0
12.08 0 0
12.16 0 0
12.24 0 0
12.32 0 0
12.4 0 0
12.48 0 0
12.56 0 0
12.64 0 0
12.72 0 0
12.8 0 0
12.88 0 0
12.96 0 0
13.04 0 0
13.12 0 0
13.2 0 0
13.28 0 0
13.36 0 0
13.44 0 0
13.52 0 0
13.6 0 0
13.68 0 0
13.76 0 0
13.84 0 0
13.92 0 0
14 0 0
14.08 0 0
14.16 0 0
14.24 0 0
14.32 0 0
14.4 0 0
14.48 0 0
14.56 0 0
14.64 0 0
14.72 0 0
14.8 0 0
14.88 0 0
14.96 0 0
15.04 0 0
15.12 0 0
15.2 0 0
15.28 0 0
15.36 0 0
15.44 0 0
15.52 0 0
15.6 0 0
15.68 0 0
15.76 0 0
15.84 0 0
15.92 0 0
16 0 0
16.08 0 0
16.16 0 0
16.24 0 0
16.32 0 0
16.4 0 0
16.48 0 0
16.56 0 0
16.64 0 0
16.72 0 0
16.8 0 0
16.88 0 0
16.96 0 0
17.04 0 0
17.12 0 0
17.2 0 0
17.28 0 0
17.36 0 0
17.44 0 0
17.52 0 0
17.6 0 0
17.68 0 0
17.76 0 0
17.84 0 0
17.92 0 0
18 0 0
18.08 0 0
18.16 0 0
18.24 0 0
18.32 0 0
18.4 0 0
18.48 0 0
18.56 0 0
18.64 0 0
18.72 0 0
18.8 0 0
18.88 0 0
18.96 0 0
19.04 0 0
19.12 0 0
19.2 0 0
19.28 0 0
19.36 0 0
19.44 0 0
19.52 0 0
19.6 0 0
19.68 0 0
19.76 0 0
19.84 0 0
19.92 0 0
20 0 0
20.08 0 0
20.16 0 0
20.24 0 0
20.32 0 0
20.4 0 0
20.48 0 0
20.56 0 0
20.64 0 0
20.72 0 0
20.8 0 0
20.88 0 0
20.96 0 0
21.04 0 0
21.12 0 0
21.2 0 0
21.28 0 0
21.36 0 0
21.44 0 0
21.52 0 0
21.6 0 0
21.68 0 0
21.76 0 0
21.84 0 0
21.92 0 0
22 0 0
22.08 0 0
22.16 0 0
22.24 0 0
22.32 0 0
22.4 0 0
22.48 0 0
22.56 0 0
22.64 0 0
22.72 0 0
22.8 0 0
22.88 0 0
22.96 0 0
23.04 0 0
23.12 0 0
23.2 0 0
23.28 0 0
23.36 0 0
23.44 0 0
23.52 0 0
23.6 0 0
23.68 0 0
23.76 0 0
23.84 0 0
23.92 0 0
24 0 0
24.08 0 0
24.16 0 0
24.24 0 0
24.32 0 0
24.4 0 0
24.48 0 0
24.56 0 0
24.64 0 0
24.72 0 0
24.8 0 0
24.88 0 0
24.96 0 0
25.04 0 0
25.12 0 0
25.2 0 0
25.28 0 0
25.36 0 0
25.44 0 0
25.52 0 0
25.6 0 0
25.68 0 0
25.76 0 0
25.84 0 0
25.92 0 0
26 0 0
26.08 0 0
26.16 0 0
26.24 0 0
26.32 0 0
26.4 0 0
26.48 0 0
26.56 0 0
26.64 0 0
26.72 0 0
26.8 0 0
26.88 0 0
26.96 0 0
27.04 0 0
27.12 0 0
27.2 0 0
27.28 0 0
27.36 0 0
27.44 0 0
27.52 0 0
27.6 0 0
27.68 0 0
27.76 0 0
27.84 0 0
27.92 0 0
28 0 0
28.08 0 0
28.16 0 0
28.24 0 0
28.32 0 0
28.4 0 0
28.48 0 0
28.56 0 0
28.64 0 0
28.72 0 0
28.8 0 0
28.88 0 0
28.96 0 0
29.04 0 0
29.12 0 0
29.2 0 0
29.28 0 0
29.36 0 0
29.44 0 0
29.52 0 0
29.6 0 0
29.68 0 0
29.76 0 0
29.84 0 0
29.92 0 0
30 0 0
30.08 0 0
30.16 0 0
30.24 0 0
30.32 0 0
30.4 0 0
30.48 0 0
30.56 0 0
30.64 0 0
30.72 0 0
30.8 0 0
30.88 0 0
30.96 0 0
31.04 0 0
31.12 0 0
31.2 0 0
31.28 0 0
31.36 0 0
31.44 0 0
31.52 0 0
31.6 0 0
31.68 0 0
31.76 0 0
31.84 0 0
31.92 0 0
0 0.005 0
0.08 0.005 0
0.16 0.005 0
0.24 0.005 0
0.32 0.005 0
0.4 0.005 0
0.48 0.005 0
0.56 0.005 0
0.64 0.005 0
0.72 0.005 0
0.8 0.005 0
0.88 0.005 0
0.96 0.005 0
1.04 0.005 0
1.12 0.005 0
1.2 0.005 0
1.28 0.005 0
1.36 0.005 0
1.44 0.005 0
1.52 0.005 0
1.6 0.005 0
1.68 0.005 0
1.76 0.005 0
1.84 0.005 0
1.92 0.005 0
2 0.005 0
2.08 0.005 0
2.16 0.005 0
2.24 0.005 0
2.32 0.005 0
2.4 0.005 0
2.48 0.005 0
2.56 0.005 0
2.64 0.005 0
2.72 0.005 0
2.8 0.005 0
2.88 0.005 0
2.96 0.005 0
3.04 0.005 0
3.12 0.005 0
3.2 0.005 0
3.28 0.005 0
3.36 0.005 0
3.44 0.005 0
3.52 0.005 0
3.6 0.005 0
3.68 0.005 0
3.76 0.005 0
3.84 0.005 0
3.92 0.005 0
4 0.005 0
4.08 0.005 0
4.16 0.005 0
4.24 0.005 0
4.32 0.005 0
4.4 0.005 0
4.48 0.005 0
4.56 0.005 0
4.64 0.005 0
4.72 0.005 0
4.8 0.005 0
4.88 0.005 0
4.96 0.005 0
5.04 0.005 0
5.12 0.005 0
5.2 0.005 0
5.28 0.005 0
5.36 0.005 0
5.44 0.005 0
5.52 0.005 0
5.6 0.005 0
5.68 0.005 0
5.76 0.005 0
5.84 0.005 0
5.92 0.005 0
6 0.005 0
6.08 0.005 0
6.16 0.005 0
6.24 0.005 0
6.32 0.005 0
6.4 0.005 0
6.48 0.005 0
6.56 0.005 0
6.64 0.005 0
6.72 0.005 0
6.8 0.005 0
6.88 0.005 0
6.96 0.005 0
7.04 0.005 0
7.12 0.005 0
7.2 0.005 0
7.28 0.005 0
7.36 0.005 0
7.44 0.005 0
7.52 0.005 0
7.6 0.005 0
7.68 0.005 0
7.76 0.005 0
7.84 0.005 0
7.92 0.005 0
8 0.005 0
8.08 0.005 0
8.16 0.005 0
8.24 0.005 0
8.32 0.005 0
8.4 0.005 0
8.48 0.005 0
8.56 0.005 0
8.64 0.005 0
8.72 0.005 0
8.8 0.005 0
8.88 0.005 0
8.96 0.005 0
9.04 0.005 0
9.12 0.005 0
9.2 0.005 0
9.28 0.005 0
9.36 0.005 0
9.44 0.005 0
9.52 0.005 0
9.6 0.005 0
9.68 0.005 0
9.76 0.005 0
9.84 0.005 0
9.92 0.005 0
10 0.005 0
10.08 0.005 0
10.16 0.005 0
10.24 0.005 0
10.32 0.005 0
10.4 0.005 0
10.48 0.005 0
10.56 0.005 0
10.64 0.005 0
10.72 0.005 0
10.8 0.005 0
10.88 0.005 0
10.96 0.005 0
11.04 0.005 0
11.12 0.005 0
11.2 0.005 0
11.28 0.005 0
11.36 0.005 0
11.44 0.005 0
11.52 0.005 0
11.6 0.005 0
11.68 0.005 0
11.76 0.005 0
11.84 0.005 0
11.92 0.005 0
12 0.005 0
12.08 0.005 0
12.16 0.005 0
12.24 0.005 0
12.32 0.005 0
12.4 0.005 0
12.48 0.005 0
12.56 0.005 0
12.64 0.005 0
12.72 0.005 0
12.8 0.005 0
12.88 0.005 0
12.96 0.005 0
13.04 0.005 0
13.12 0.005 0
13.2 0.005 0
13.28 0.005 0
13.36 0.005 0
13.44 0.005 0
13.52 0.005 0
13.6 0.005 0
13.68 0.005 0
13.76 0.005 0
13.84 0.005 0
13.92 0.005 0
14 0.005 0
14.08 0.005 0
14.16 0.005 0
14.24 0.005 0
14.32 0.005 0
14.4 0.005 0
14.48 0.005 0
14.56 0.005 0
14.64 0.005 0
14.72 0.005 0
14.8 0.005 0
14.88 0.005 0
14.96 0.005 0
15.04 0.005 0
15.12 0.005 0
15.2 0.005 0
15.28 0.005 0
15.36 0.005 0
15.44 0.005 0
15.52 0.005 0
15.6 0.005 0
15.68 0.005 0
15.76 0.005 0
15.84 0.005 0
15.92 0.005 0
16 0.005 0
16.08 0.005 0
16.16 0.005 0
16.24 0.005 0
16.32 0.005 0
16.4 0.005 0
16.48 0.005 0
16.56 0.005 0
16.64 0.005 0
16.72 0.005 0
16.8 0.005 0
16.88 0.005 0
16.96 0.005 0
17.04 0.005 0
17.12 0.005 0
17.2 0.005 0
17.28 0.005 0
17.36 0.005 0
17.44 0.005 0
17.52 0.005 0
17.6 0.005 0
17.68 0.005 0
17.76 0.005 0
17.84 0.005 0
17.92 0.005 0
18 0.005 0
18.08 0.005 0
18.16 0.005 0
18.24 0.005 0
18.32 0.005 0
18.4 0.005 0
18.48 0.005 0
18.56 0.005 0
18.64 0.005 0
18.72 0.005 0
18.8 0.005 0
18.88 0.005 0
18.96 0.005 0
19.04 0.005 0
19.12 0.005 0
19.2 0.005 0
19.28 0.005 0
19.36 0.005 0
19.44 0.005 0
19.52 0.005 0
19.6 0.005 0
19.68 0.005 0
19.76 0.005 0
19.84 0.005 0
19.92 0.005 0
20 0.005 0
20.08 0.005 0
20.16 0.005 0
20.24 0.005 0
20.32 0.005 0
20.4 0.005 0
20.48 0.005 0
20.56 0.005 0
20.64 0.005 0
20.72 0.005 0
20.8 0.005 0
20.88 0.005 0
20.96 0.005 0
21.04 0.005 0
21.12 0.005 0
21.2 0.005 0
21.28 0.005 0
21.36 0.005 0
21.44 0.005 0
21.52 0.005 0
21.6 0.005 0
21.68 0.005 0
21.76 0.005 0
21.84 0.005 0
21.92 0.005 0
22 0.005 0
22.08 0.005 0
22.16 0.005 0
22.24 0.005 0
22.32 0.005 0
22.4 0.005 0
22.48 0.005 0
22.56 0.005 0
22.64 0.005 0
22.72 0.005 0
22.8 0.005 0
22.88 0.005 0
22.96 0.005 0
23.04 0.005 0
23.12 0.005 0
23.2 0.005 0
23.28 0.005 0
23.36 0.005 0
23.44 0.005 0
23.52 0.005 0
23.6 0.005 0
23.68 0.005 0
23.76 0.005 0
23.84 0.005 0
23.92 0.005 0
24 0.005 0
24.08 0.005 0
24.16 0.005 0
24.24 0.005 0
24.32 0.005 0
24.4 0.005 0
24.48 0.005 0
24.56 0.005 0
24.64 0.005 0
24.72 0.005 0
24.8 0.005 0
24.88 0.005 0
24.96 0.005 0
25.04 0.005 0
25.12 0.005 0
25.2 0.005 0
25.28 0.005 0
25.36 0.005 0
25.44 0.005 0
25.52 0.005 0
25.6 0.005 0
25.68 0.005 0
25.76 0.005 0
25.84 0.005 0
25.92 0.005 0
26 0.005 0
26.08 0.005 0
26.16 0.005 0
26.24 0.005 0
26.32 0.005 0
26.4 0.005 0
26.48 0.005 0
26.56 0.005 0
26.64 0.005 0
26.72 0.005 0
26.8 0.005 0
26.88 0.005 0
26.96 0.005 0
27.04 0.005 0
27.12 0.005 0
27.2 0.005 0
27.28 0.005 0
27.36 0.005 0
27.44 0.005 0
27.52 0.005 0
27.6 0.005 0
27.68 0.005 0
27.76 0.005 0
27.84 0.005 0
27.92 0.005 0
28 0.005 0
28.08 0.005 0
28.16 0.005 0
28.24 0.005 0
28.32 0.005 0
28.4 0.005 0
28.48 0.005 0
28.56 0.005 0
28.64 0.005 0
28.72 0.005 0
28.8 0.005 0
28.88 0.005 0
28.96 0.005 0
29.04 0.005 0
29.12 0.005 0
29.2 0.005 0
29.28 0.005 0
29.36 0.005 0
29.44 0.005 0
29.52 0.005 0
29.6 0.005 0
29.68 0.005 0
29.76 0.005 0
29.84 0.005 0
29.92 0.005 0
30 0.005 0
30.08 0.005 0
30.16 0.005 0
30.24 0.005 0
30.32 0.005 0
30.4 0.005 0
30.48 0.005 0
30.56 0.005 0
30.64 0.005 0
30.72 0.005 0
30.8 0.005 0
30.88 0.005 0
30.96 0.005 0
31.04 0.005 0
31.12 0.005 0
31.2 0.005 0
31.28 0.005 0
31.36 0.005 0
31.44 0.005 0
31.52 0.005 0
31.6 0.005 0
31.68 0.005 0
31.76 0.005 0
31.84 0.005 0
31.92 0.005 0
0 0.01 0
0.08 0.01 0
0.16 0.01 0
0.24 0.01 0
0.32 0.01 0
0.4 0.01 0
0.48 0.01 0
0.56 0.01 0
0.64 0.01 0
0.72 0.01 0
0.8 0.01 0
0.88 0.01 0
0.96 0.01 0
1.04 0.01 0
1.12 0.01 0
1.2 0.01 0
1.28 0.01 0
1.36 0.01 0
1.44 0.01 0
1.52 0.01 0
1.6 0.01 0
1.68 0.01 0
1.76 0.01 0
1.84 0.01 0
1.92 0.01 0
2 0.01 0
2.08 0.01 0
2.16 0.01 0
2.24 0.01 0
2.32 0.01 0
2.4 0.01 0
2.48 0.01 0
2.56 0.01 0
2.64 0.01 0
2.72 0.01 0
2.8 0.01 0
2.88 0.01 0
2.96 0.01 0
3.04 0.01 0
3.12 0.01 0
3.2 0.01 0
3.28 0.01 0
3.36 0.01 0
3.44 0.01 0
3.52 0.01 0
3.6 0.01 0
3.68 0.01 0
3.76 0.01 0
3.84 0.01 0
3.92 0.01 0
4 0.01 0
4.08 0.01 0
4.16 0.01 0
4.24 0.01 0
4.32 0.01 0
4.4 0.01 0
4.48 0.01 0
4.56 0.01 0
4.64 0.01 0
4.72 0.01 0
4.8 0.01 0
4.88 0.01 0
4.96 0.01 0
5.04 0.01 0
5.12 0.01 0
[...]
POINT_DATA 80000

SCALARS v float 1
LOOKUP_TABLE default
0
0
0
0
0
0
0
0
0
0
0
0
0
0
0
0
0
0
0
0
0
0
0
0
0
0
0
0
0
0
0
0
0
0
0
0
0
0
0
0
0
0
0
0
0
0
0
0
0
0
0
0
0
0
0
0
0
0
0
0
0
0
0
0
0
0
0
0
0
0
0
0
0
0
0
0
0
0
0
0
0
0
0
0
0
0
0
0
0
0
0
0
0
0
0
0
0
0
0
0
0
0
0
0
0
0
0
0
0
0
0
0
0
0
0
0
0
0
0
0
0
0
0
0
0
0
0
0
0
0
0
0
0
0
0
0
0
0
0
0
0
0
0
0
0
0
0
0
0
0
0
0
0
0
0
0
0
0
0
0
0
0
0
0
0
0
0
0
0
0
0
0
0
0
0
0
0
0
0
0
0
0
0
0
0
0
0
0
0
0
0
0
0
0
0
0
0
0
0
0
0
0
0
0
0
0
0
0
0
0
0
0
0
0
0
0
0
0
0
0
0
0
0
0
0
0
0
0
0
0
0
0
0
0
0
0
0
0
0
0
0
0
0
0
0
0
0
0
0
0
0
0
0
0
0
0
0
0
0
0
0
0
0
0
0
0
0
0
0
0
0
0
0
0
0
0
0
0
0
0
0
0
0
0
0
0
0
0
0
0
0
0
0
0
0
0
0
0
0
0
0
0
0
0
0
0
0
0
0
0
0
0
0
0
0
0
0
0
0
0
0
0
0
0
0
0
0
0
0
0
0
0
0
0
0
0
0
0
0
0
0
0
0
0
0
0
0
0
0
0
0
0
0
0
0
0
0
0
0
0
0
0
0
0
0
0
0
0
0
0
0
0
0
0
0
0
0
0
0
0
0
0
0
0
0
0
0
0
0
0
0
0
0
0
0
0
0
0
0
0
-0.05427108997
0.05427108997
0.003962095021
0.0009983297453
0.0004922602656
0.0003026962885
0.0002073201218
0.0001516916902
0.0001162502596
9.229386493e-05
7.538070539e-05
6.302008098e-05
5.371962607e-05
4.654116799e-05
4.087331643e-05
3.630623168e-05
3.255868098e-05
2.94336884e-05
2.679067039e-05
2.452747924e-05
2.256859534e-05
2.085723226e-05
1.934998089e-05
1.801312761e-05
1.682009103e-05
1.574961505e-05
1.478447885e-05
1.391056366e-05
1.311616906e-05
1.239150493e-05
1.172830894e-05
1.11195547e-05
1.055922604e-05
1.004214037e-05
9.563808726e-06
9.120323707e-06
8.708268822e-06
8.32464453e-06
7.966807279e-06
7.632419104e-06
7.319405426e-06
7.025919716e-06
6.750313577e-06
6.491111487e-06
6.246989157e-06
6.016755073e-06
5.799334679e-06
5.593756617e-06
5.399141015e-06
5.214689144e-06
5.039674528e-06
4.873435159e-06
4.715366702e-06
4.564916445e-06
4.421578115e-06
4.284887221e-06
4.154416919e-06
4.029774433e-06
3.910597801e-06
3.796552998e-06
3.687331415e-06
3.582647555e-06
3.48223694e-06
3.385854384e-06
3.29327224e-06
3.204278964e-06
3.118677777e-06
3.036285445e-06
2.956931169e-06
2.880455644e-06
2.806710095e-06
2.735555528e-06
2.666861906e-06
2.600507507e-06
2.536378361e-06
2.474367553e-06
2.414374839e-06
2.356306067e-06
2.300072796e-06
2.245591876e-06
2.192785096e-06
2.141578808e-06
2.091903633e-06
2.04369419e-06
1.996888796e-06
1.951429243e-06
1.907260551e-06
1.864330761e-06
1.822590758e-06
1.781994069e-06
1.742496675e-06
1.704056911e-06
1.666635246e-06
1.630194224e-06
1.59469827e-06
1.560113623e-06
1.526408191e-06
1.493551477e-06
1.461514447e-06
1.430269482e-06
1.399790271e-06
1.370051749e-06
1.341029981e-06
1.312702175e-06
1.285046525e-06
1.258042225e-06
1.231669378e-06
1.205908966e-06
1.180742759e-06
1.156153323e-06
1.132123947e-06
1.108638585e-06
1.085681891e-06
1.063239081e-06
1.041296006e-06
1.019839009e-06
9.988550086e-07
9.78331401e-07
9.582560434e-07
9.386172359e-07
9.19403731e-07
9.006046636e-07
8.822095371e-07
8.642082351e-07
8.465909934e-07
8.293483645e-07
8.124712176e-07
7.959507284e-07
7.797783297e-07
7.639457699e-07
7.484450111e-07
7.332683078e-07
7.184081126e-07
7.038571352e-07
6.896082645e-07
6.756546496e-07
6.619895887e-07
6.486065988e-07
6.354993796e-07
6.226617833e-07
6.100878573e-07
5.977717938e-07
5.857079528e-07
5.738908303e-07
5.623150793e-07
5.50975484e-07
5.398669736e-07
5.289845956e-07
5.183235148e-07
5.078790158e-07
4.976465413e-07
4.876215985e-07
4.777997997e-07
4.681769134e-07
4.587487516e-07
4.495112495e-07
4.404604566e-07
4.315924841e-07
4.229035391e-07
4.143899266e-07
4.060480402e-07
3.978743265e-07
3.898653243e-07
3.820176809e-07
3.743280628e-07
3.66793267e-07
3.594101132e-07
3.521755249e-07
3.450864556e-07
3.381399694e-07
3.313331604e-07
3.246631917e-07
3.181272933e-07
3.117227576e-07
3.054469214e-07
2.992971813e-07
2.932710046e-07
2.873658871e-07
2.815793783e-07
2.75909105e-07
2.703527298e-07
2.649079436e-07
2.595725056e-07
2.543442374e-07
2.492209624e-07
2.442005817e-07
2.392810291e-07
2.34460275e-07
2.297363506e-07
2.251072917e-07
2.205712269e-07
2.161262583e-07
2.117705842e-07
2.075024004e-07
2.033199664e-07
1.992215556e-07
1.952054808e-07
1.912701084e-07
1.874138057e-07
1.836350029e-07
1.799321362e-07
1.763036971e-07
1.727481926e-07
1.692641544e-07
1.658501516e-07
1.625047877e-07
1.592266897e-07
1.560145079e-07
1.528669195e-07
1.497826349e-07
1.467603929e-07
1.437989432e-07
1.408970629e-07
1.380535704e-07
1.3526729e-07
1.325370806e-07
1.298618116e-07
1.272403866e-07
1.246717237e-07
1.221547683e-07
1.196884886e-07
1.172718564e-07
1.149038881e-07
1.125836171e-07
1.10310061e-07
1.080823017e-07
1.058994109e-07
1.037605013e-07
1.016646716e-07
9.961107413e-08
9.759886579e-08
9.562719555e-08
9.369526651e-08
9.180226872e-08
8.994743295e-08
8.812999827e-08
8.634919289e-08
8.460429574e-08
8.289457507e-08
8.121933211e-08
7.957787371e-08
7.796952461e-08
7.639360674e-08
7.48494913e-08
7.333651419e-08
7.185406258e-08
7.040152426e-08
6.897829322e-08
6.758376687e-08
6.621739987e-08
6.487860055e-08
6.356682158e-08
6.228151765e-08
6.102216765e-08
5.978823503e-08
5.857921975e-08
5.739460173e-08
5.623390236e-08
5.509664485e-08
5.398235114e-08
5.289056192e-08
5.18208209e-08
5.077268477e-08
4.974571206e-08
4.873948777e-08
4.775359895e-08
4.678762261e-08
4.584115579e-08
4.491380719e-08
4.40051989e-08
4.311494035e-08
4.22426871e-08
4.138805043e-08
4.055068593e-08
3.973024974e-08
3.892637755e-08
3.813877656e-08
3.736707403e-08
3.661098186e-08
3.587016717e-08
3.514432902e-08
3.443316898e-08
3.3736371e-08
3.305367015e-08
3.238477868e-08
3.172939981e-08
3.108727165e-08
3.04581457e-08
2.984171371e-08
2.923776835e-08
2.864602129e-08
2.806624962e-08
2.749820577e-08
2.694163808e-08
2.639634211e-08
2.586205679e-08
2.533858829e-08
2.482570352e-08
2.432319951e-08
2.383085622e-08
2.334847723e-08
2.287585165e-08
2.241278195e-08
2.195908781e-08
2.1514568e-08
2.107904364e-08
2.065232735e-08
2.023424754e-08
1.982461714e-08
1.942328495e-08
1.903007217e-08
1.864481449e-08
1.826734475e-08
1.789752012e-08
1.753517011e-08
1.71801642e-08
1.68323362e-08
1.649155128e-08
1.615765823e-08
1.583052406e-08
1.551e-08
1.519597903e-08
1.48882945e-08
1.458686956e-08
1.429149708e-08
1.400214508e-08
1.371860222e-08
1.34408663e-08
1.316868225e-08
1.290206385e-08
1.264078839e-08
1.238486928e-08
1.213404659e-08
1.188839455e-08
1.164759446e-08
1.141182253e-08
1.118063933e-08
1.095434352e-08
1.073239279e-08
1.051520935e-08
1.030210581e-08
1.009368054e-08
9.889052447e-09
9.689066428e-09
9.492537438e-09
9.300656234e-09
9.111907988e-09
8.927850503e-09
8.746497968e-09
8.569998861e-09
8.395725956e-09
8.226529603e-09
8.058954825e-09
7.896874449e-09
7.73563652e-09
7.580478433e-09
7.42521229e-09
7.276852164e-09
7.127132699e-09
6.98550617e-09
6.840868679e-09
6.705983302e-09
6.565920805e-09
6.437876031e-09
6.301752662e-09
6.180771207e-09
6.047860214e-09
5.934338879e-09
5.803703649e-09
5.698292971e-09
5.568764049e-09
5.472367545e-09
5.342414021e-09
5.256426093e-09
5.124007539e-09
5.050355278e-09
4.912806728e-09
4.854189151e-09
4.707812935e-09
4.667976234e-09
4.507734997e-09
4.491711789e-09
4.310563348e-09
4.324991425e-09
4.112833032e-09
4.165843221e-09
3.907692394e-09
4.007872683e-09
3.680302412e-09
3.832584276e-09
3.396609615e-09
3.589895134e-09
2.976819273e-09
3.151562784e-09
2.244082486e-09
2.221615901e-09
9.180176514e-10
3.557948761e-10
2.491888611e-14
2.491888611e-14
-0.0952158619
0.0952158619
0.01297562026
0.003854618263
0.001934307931
0.001196199257
0.0008217410482
0.0006023144564
0.0004620669962
0.0003670409364
0.0002998306251
0.0002506449793
0.0002136016796
0.0001849938774
0.0001624004718
0.000144195121
0.0001292596989
0.0001168097392
0.000106284548
9.727624691e-05
8.948301757e-05
8.267777692e-05
7.668688401e-05
7.137547505e-05
6.663723591e-05
6.238718116e-05
5.855649162e-05
5.508877665e-05
5.19373325e-05
4.906310475e-05
4.643315348e-05
4.401948223e-05
4.179813269e-05
3.974847629e-05
3.785265335e-05
3.609512432e-05
3.446230693e-05
3.294228028e-05
3.152454148e-05
3.019980398e-05
2.895982945e-05
2.779728661e-05
2.67056322e-05
2.567901003e-05
2.471216503e-05
2.380036969e-05
2.293936101e-05
2.2125286e-05
2.135465479e-05
2.062429977e-05
1.993134014e-05
1.927315093e-05
1.8647336e-05
1.80517042e-05
1.748424852e-05
1.69431277e-05
1.642664991e-05
1.593325834e-05
1.546151845e-05
1.501010649e-05
1.457779948e-05
1.416346604e-05
1.376605826e-05
1.338460457e-05
1.301820298e-05
1.266601537e-05
1.232726209e-05
1.200121721e-05
1.168720413e-05
1.138459168e-05
1.109279058e-05
1.08112501e-05
1.05394552e-05
1.027692378e-05
1.002320425e-05
9.77787324e-06
9.540533579e-06
9.310812392e-06
9.088359383e-06
8.872845188e-06
8.663960001e-06
8.461412127e-06
8.264926799e-06
8.074245029e-06
7.889122519e-06
7.709328697e-06
7.534645832e-06
7.364868127e-06
7.199801027e-06
7.039260434e-06
6.883072051e-06
6.731070793e-06
6.583100154e-06
6.439011717e-06
6.298664593e-06
6.161925048e-06
6.028665975e-06
5.898766533e-06
5.772111777e-06
5.648592272e-06
5.52810381e-06
5.410547055e-06
5.295827282e-06
5.183854114e-06
5.074541234e-06
4.967806216e-06
4.863570235e-06
4.761757906e-06
4.662297086e-06
4.565118663e-06
4.470156441e-06
4.377346916e-06
4.286629212e-06
4.197944832e-06
4.111237621e-06
4.026453622e-06
3.943540918e-06
3.862449597e-06
3.783131562e-06
3.705540511e-06
3.629631834e-06
3.555362471e-06
3.482690911e-06
3.411577061e-06
3.341982234e-06
3.273869006e-06
3.20720121e-06
3.141943884e-06
3.078063167e-06
3.015526283e-06
2.954301473e-06
2.894357998e-06
2.835666026e-06
2.778196633e-06
2.72192174e-06
2.66681412e-06
2.612847307e-06
2.55999561e-06
2.508234045e-06
2.457538341e-06
2.407884882e-06
2.359250706e-06
2.311613453e-06
2.264951365e-06
2.219243275e-06
2.174468519e-06
2.130607008e-06
2.087639153e-06
2.045545849e-06
2.004308468e-06
1.963908849e-06
1.924329272e-06
1.885552463e-06
1.847561521e-06
1.810339997e-06
1.773871788e-06
1.738141197e-06
1.703132904e-06
1.668831894e-06
1.635223552e-06
1.602293542e-06
1.570027906e-06
1.538412953e-06
1.507435324e-06
1.477081962e-06
1.447340072e-06
1.418197164e-06
1.389641023e-06
1.361659663e-06
1.334241415e-06
1.307374802e-06
1.281048639e-06
1.255251961e-06
1.229974029e-06
1.205204345e-06
1.180932629e-06
1.157148826e-06
1.133843056e-06
1.111005687e-06
1.088627274e-06
1.066698567e-06
1.045210506e-06
1.024154218e-06
1.003521008e-06
9.833023694e-07
9.634899935e-07
9.440756894e-07
9.250514542e-07
9.064094709e-07
8.881420618e-07
8.702417194e-07
8.52701061e-07
8.355128787e-07
8.186701098e-07
8.021658166e-07
7.859932211e-07
7.701456734e-07
7.546166485e-07
7.393997839e-07
7.244888022e-07
7.098775955e-07
6.955601356e-07
6.815305532e-07
6.677830743e-07
6.543120461e-07
6.411119366e-07
6.281773137e-07
6.155028497e-07
6.030833389e-07
5.909136889e-07
5.789888695e-07
5.67303999e-07
5.558542486e-07
5.446349226e-07
5.336413856e-07
5.228691345e-07
5.123137102e-07
5.019707903e-07
4.918360986e-07
4.81905464e-07
4.721747971e-07
4.626400859e-07
4.532974133e-07
4.441429041e-07
4.35172814e-07
4.263834287e-07
4.177711037e-07
4.093323126e-07
4.010635718e-07
3.929614708e-07
3.850226382e-07
3.772438158e-07
3.6962179e-07
3.621534245e-07
3.54835617e-07
3.476653629e-07
3.406396707e-07
3.337556539e-07
3.270104722e-07
3.204013212e-07
3.139254588e-07
3.075802487e-07
3.013630219e-07
2.952712295e-07
2.89302343e-07
2.834538842e-07
2.777234475e-07
2.721086471e-07
2.666071419e-07
2.61216704e-07
2.559350418e-07
2.507599876e-07
2.456894141e-07
2.407212063e-07
2.358532948e-07
2.310836749e-07
2.264103568e-07
2.218314018e-07
2.173449171e-07
2.129490346e-07
2.086419481e-07
2.044218395e-07
2.002869728e-07
1.962356254e-07
1.922661203e-07
1.883768164e-07
1.845660856e-07
1.808323413e-07
1.771740419e-07
1.735896564e-07
1.700776907e-07
1.666367091e-07
1.63265265e-07
1.59961954e-07
1.567254093e-07
1.535542689e-07
1.50447234e-07
1.474030043e-07
1.444203028e-07
1.414979072e-07
1.386345748e-07
1.358291403e-07
1.330804177e-07
1.303872771e-07
1.277485861e-07
1.25163249e-07
1.226301938e-07
1.201483483e-07
1.177166893e-07
1.153342126e-07
1.12999906e-07
1.107128135e-07
1.084719825e-07
1.062764707e-07
1.041253558e-07
1.02017763e-07
9.995278789e-08
9.792959097e-08
9.594730835e-08
9.400513237e-08
9.210223959e-08
9.023784288e-08
8.841116141e-08
8.662144227e-08
8.486792036e-08
8.314988849e-08
8.146658872e-08
7.981737088e-08
7.820151771e-08
7.661836151e-08
7.506722545e-08
7.354748516e-08
7.205848435e-08
7.059963607e-08
6.917027733e-08
6.776987464e-08
6.63977671e-08
6.505347947e-08
6.373633675e-08
6.244592134e-08
6.118154051e-08
5.994283201e-08
5.872909931e-08
5.754003974e-08
5.637491944e-08
5.523351328e-08
5.411505771e-08
5.301942401e-08
5.194575375e-08
5.089405081e-08
4.986336622e-08
4.885386118e-08
4.786441466e-08
4.689542157e-08
4.594554828e-08
4.501547846e-08
4.410356821e-08
4.321088124e-08
4.233539593e-08
4.147863681e-08
4.063805468e-08
3.981583684e-08
3.900870918e-08
3.821972909e-08
3.744460133e-08
3.66876161e-08
3.594314401e-08
3.521699169e-08
3.450177682e-08
3.380539592e-08
3.31180683e-08
3.245049992e-08
3.178968646e-08
3.11500639e-08
3.051434909e-08
2.990198269e-08
2.928987374e-08
2.870423153e-08
2.811412549e-08
2.755488327e-08
2.698502506e-08
2.645215707e-08
2.590056108e-08
2.539437279e-08
2.485868731e-08
2.438000176e-08
2.385739938e-08
2.34076504e-08
2.289463674e-08
2.24761343e-08
2.196827664e-08
2.15844654e-08
2.107602265e-08
2.073194556e-08
2.021534476e-08
1.991816821e-08
1.938329114e-08
1.914308351e-08
1.85762308e-08
1.840680897e-08
1.778914663e-08
1.770925034e-08
1.701443521e-08
1.704861957e-08
1.62388442e-08
1.641722567e-08
1.543624973e-08
1.579025837e-08
1.454985478e-08
1.509650165e-08
1.344889437e-08
1.414365229e-08
1.182655545e-08
1.243987718e-08
9.000246677e-09
8.851197632e-09
3.871927649e-09
1.683215303e-09
8.458597126e-14
8.458597126e-14
-0.1252930377
0.1252930377
0.02493586976
0.008358019126
0.004277996266
0.002661518917
0.00183373551
0.001346352401
0.001033884326
0.0008217036792
0.0006713867371
0.0005612497711
0.000478232091
0.0004140850753
0.0003634105354
0.0003225758052
0.0002890793572
0.0002611636451
0.0002375709469
0.0002173854269
0.0001999288868
0.0001846908016
0.0001712806838
0.0001593952254
0.0001487953499
0.0001392899892
0.0001307244734
0.000122972117
0.0001159280437
0.0001095045941
0.0001036278666
9.823507744e-05
9.327252055e-05
8.869397116e-05
8.44594227e-05
8.053407647e-05
7.688752519e-05
7.349308758e-05
7.032726129e-05
6.73692699e-05
6.460068534e-05
6.200511112e-05
5.956791521e-05
5.727600374e-05
5.511762819e-05
5.308222069e-05
5.116025252e-05
4.934311239e-05
4.762300102e-05
4.599283998e-05
4.444619213e-05
4.297719245e-05
4.158048745e-05
4.025118193e-05
3.898479235e-05
3.777720557e-05
3.662464248e-05
3.552362576e-05
3.447095123e-05
3.346366239e-05
3.249902782e-05
3.157452079e-05
3.068780113e-05
2.983669906e-05
2.901920043e-05
2.823343362e-05
2.747765773e-05
2.675025177e-05
2.604970498e-05
2.537460806e-05
2.472364524e-05
2.40955869e-05
2.348928309e-05
2.290365741e-05
2.23377016e-05
2.179047046e-05
2.126107727e-05
2.074868953e-05
2.025252517e-05
1.977184889e-05
1.9305969e-05
1.885423429e-05
1.841603135e-05
1.799078197e-05
1.757794073e-05
1.71769929e-05
1.678745236e-05
1.640885968e-05
1.60407805e-05
1.568280379e-05
1.533454047e-05
1.499562193e-05
1.466569876e-05
1.434443961e-05
1.403152995e-05
1.372667117e-05
1.342957949e-05
1.313998511e-05
1.28576314e-05
1.258227403e-05
1.231368032e-05
1.205162845e-05
1.179590697e-05
1.154631406e-05
1.1302657e-05
1.106475175e-05
1.08324223e-05
1.060550034e-05
1.038382477e-05
1.016724128e-05
9.955602056e-06
9.748765329e-06
9.546595109e-06
9.34896085e-06
9.155737146e-06
8.966803499e-06
8.782044024e-06
8.601347207e-06
8.42460573e-06
8.251716166e-06
8.082578894e-06
7.917097827e-06
7.755180235e-06
7.596736655e-06
7.44168064e-06
7.289928676e-06
7.141400031e-06
6.996016594e-06
6.853702815e-06
6.714385499e-06
6.577993794e-06
6.444459017e-06
6.313714597e-06
6.185695948e-06
6.060340447e-06
5.937587252e-06
5.81737733e-06
5.69965331e-06
5.584359451e-06
5.471441563e-06
5.360846948e-06
5.252524367e-06
5.146423897e-06
5.042497013e-06
4.940696428e-06
4.84097609e-06
4.743291148e-06
4.647597863e-06
4.553853652e-06
4.46201692e-06
4.372047159e-06
4.283904849e-06
4.197551404e-06
4.112949182e-06
4.030061437e-06
3.948852289e-06
3.869286712e-06
3.791330494e-06
3.714950194e-06
3.640113173e-06
3.566787506e-06
3.494942e-06
3.424546178e-06
3.355570237e-06
3.287985023e-06
3.221762042e-06
3.156873438e-06
3.093291941e-06
3.030990877e-06
2.969944171e-06
2.910126286e-06
2.851512244e-06
2.79407762e-06
2.737798473e-06
2.682651403e-06
2.628613472e-06
2.575662264e-06
2.523775809e-06
2.472932576e-06
2.423111541e-06
2.374292061e-06
2.326453972e-06
2.279577484e-06
2.233643233e-06
2.188632275e-06
2.144526015e-06
2.101306266e-06
2.058955205e-06
2.01745538e-06
1.976789691e-06
1.936941386e-06
1.89789405e-06
1.85963161e-06
1.82213831e-06
1.785398725e-06
1.749397734e-06
1.71412052e-06
1.679552567e-06
1.645679661e-06
1.612487851e-06
1.579963498e-06
1.548093217e-06
1.516863901e-06
1.486262679e-06
1.456276993e-06
1.426894492e-06
1.398103078e-06
1.369890914e-06
1.342246374e-06
1.315158116e-06
1.288614953e-06
1.262605983e-06
1.237120484e-06
1.212147965e-06
1.187678138e-06
1.163700945e-06
1.140206476e-06
1.117185069e-06
1.09462724e-06
1.072523689e-06
1.050865308e-06
1.029643161e-06
1.008848507e-06
9.884727459e-07
9.685075079e-07
9.489445378e-07
9.297757532e-07
9.109932592e-07
8.925892979e-07
8.745562575e-07
8.568866956e-07
8.395733416e-07
8.226090148e-07
8.059867018e-07
7.896995539e-07
7.73740831e-07
7.581039249e-07
7.427823858e-07
7.2776986e-07
7.130601412e-07
6.986471535e-07
6.845249345e-07
6.706876215e-07
6.571294983e-07
6.438449408e-07
6.308284564e-07
6.180746506e-07
6.055782473e-07
5.933340592e-07
5.813370255e-07
5.695821419e-07
5.580645694e-07
5.467795276e-07
5.357223053e-07
5.248883493e-07
5.142731518e-07
5.038723126e-07
4.936815142e-07
4.836965327e-07
4.739132027e-07
4.643274737e-07
4.54935374e-07
4.457329958e-07
4.367165245e-07
4.278821938e-07
4.192263478e-07
4.107453965e-07
4.024357996e-07
3.94294107e-07
3.863169391e-07
3.785009739e-07
3.708429568e-07
3.633397107e-07
3.559881155e-07
3.487851292e-07
3.417277013e-07
3.348129541e-07
3.280379808e-07
3.21399956e-07
3.148961392e-07
3.085237879e-07
3.022802851e-07
2.961630133e-07
2.90169421e-07
2.84297038e-07
2.785433747e-07
2.72906079e-07
2.673827576e-07
2.619711419e-07
2.566689728e-07
2.514740215e-07
2.463841527e-07
2.413972127e-07
2.365111508e-07
2.317239174e-07
2.270335116e-07
2.224379692e-07
2.179354028e-07
2.135238977e-07
2.092016459e-07
2.049668239e-07
2.00817682e-07
1.967524663e-07
1.927695172e-07
1.888671355e-07
1.850437084e-07
1.812976272e-07
1.776273569e-07
1.740313399e-07
1.705080997e-07
1.670561261e-07
1.63674028e-07
1.603603268e-07
1.571137284e-07
1.539327682e-07
1.508162566e-07
1.477627232e-07
1.447710779e-07
1.418398679e-07
1.38968102e-07
1.361543089e-07
1.33397639e-07
1.306965597e-07
1.280503655e-07
1.254574685e-07
1.229173557e-07
1.204283133e-07
1.179900288e-07
1.156006712e-07
1.132601641e-07
1.1096646e-07
1.087198468e-07
1.065179309e-07
1.043614864e-07
1.022476417e-07
1.001778175e-07
9.814847584e-08
9.616183244e-08
9.421352702e-08
9.230683198e-08
9.04362317e-08
8.860639405e-08
8.681025902e-08
8.505434265e-08
8.332949217e-08
8.164475705e-08
7.998812202e-08
7.837196097e-08
7.678049614e-08
7.523054718e-08
7.370120879e-08
7.221529948e-08
7.074504214e-08
6.932125438e-08
6.790695323e-08
6.654368852e-08
6.51820599e-08
6.387808743e-08
6.256564421e-08
6.13201918e-08
6.005309261e-08
5.886600579e-08
5.763989959e-08
5.651179001e-08
5.532157178e-08
5.425405997e-08
5.309366061e-08
5.208976608e-08
5.095161897e-08
5.001618272e-08
4.889073428e-08
4.80310935e-08
4.69060098e-08
4.613283146e-08
4.499191355e-08
4.432042665e-08
4.314198311e-08
4.259359831e-08
4.134829723e-08
4.095247754e-08
3.960001937e-08
3.93966928e-08
3.788067539e-08
3.79220641e-08
3.616153616e-08
3.65116216e-08
3.438588359e-08
3.511108881e-08
3.243035312e-08
3.356514389e-08
3.001022159e-08
3.145513561e-08
2.645672823e-08
2.771133674e-08
2.027813741e-08
1.986765168e-08
9.046531949e-09
4.238678472e-09
1.722048023e-13
1.722048023e-13
-0.1464876054
0.1464876054
0.03831047054
0.01423404634
0.007456022676
0.004672748492
0.003230546969