# vtk DataFile Version 2.0
FlowField
ASCII
DATASET STRUCTURED_GRID
DIMENSIONS 400 1 200
POINTS 80000 float
0 0 0
0.08 0 0
0.16 0 0
0.24 0 0
0.32 0 0
0.4 0 0
0.48 0 0
0.56 0 0
0.64 0 0
0.72 0 0
0.8 0 0
0.88 0 0
0.96 0 0
1.04 0 0
1.12 0 0
1.2 0 0
1.28 0 0
1.36 0 0
1.44 0 0
1.52 0 0
1.6 0 0
1.68 0 0
1.76 0 0
1.84 0 0
1.92 0 0
2 0 0
2.08 0 0
2.16 0 0
2.24 0 0
2.32 0 0
2.4 0 0
2.48 0 0
2.56 0 0
2.64 0 0
2.72 0 0
2.8 0 0
2.88 0 0
2.96 0 0
3.04 0 0
3.12 0 0
3.2 0 0
3.28 0 0
3.36 0 0
3.44 0 0
3.52 0 0
3.6 0 0
3.68 0 0
3.76 0 0
3.84 0 0
3.92 0 0
4 0 0
4.08 0 0
4.16 0 0
4.24 0 0
4.32 0 0
4.4 0 0
4.48 0 0
4.56 0 0
4.64 0 0
4.72 0 0
4.8 0 0
4.88 0 0
4.96 0 0
5.04 0 0
5.12 0 0
5.2 0 0
5.28 0 0
5.36 0 0
5.44 0 0
5.52 0 0
5.6 0 0
5.68 0 0
5.76 0 0
5.84 0 0
5.92 0 0
6 0 0
6.08 0 0
6.16 0 0
6.24 0 0
6.32 0 0
6.4 0 0
6.48 0 0
6.56 0 0
6.64 0 0
6.72 0 0
6.8 0 0
6.88 0 0
6.96 0 0
7.04 0 0
7.12 0 0
7.2 0 0
7.28 0 0
7.36 0 0
7.44 0 0
7.52 0 0
7.6 0 0
7.68 0 0
7.76 0 0
7.84 0 0
7.92 0 0
8 0 0
8.08 0 0
8.16 0 0
8.24 0 0
8.32 0 0
8.4 0 0
8.48 0 0
8.56 0 0
8.64 0 0
8.72 0 0
8.8 0 0
8.88 0 0
8.96 0 0
9.04 0 0
9.12 0 0
9.2 0 0
9.28 0 0
9.36 0 0
9.44 0 0
9.52 0 0
9.6 0 0
9.68 0 0
9.76 0 0
9.84 0 0
9.92 0 0
10 0 0
10.08 0 0
10.16 0 0
10.24 0 0
10.32 0 0
10.4 0 0
10.48 0 0
10.56 0 0
10.64 0 0
10.72 0 0
10.8 0 0
10.88 0 0
10.96 0 0
11.04 0 0
11.12 0 0
11.2 0 0
11.28 0 0
11.36 0 0
11.44 0 0
11.52 0 0
11.6 0 0
11.68 0 0
11.76 0 0
11.84 0 0
11.92 0 0
12 0 0
12.08 0 0
12.16 0 0
12.24 0 0
12.32 0 0
12.4 0 0
12.48 0 0
12.56 0 0
12.64 0 0
12.72 0 0
12.8 0 0
12.88 0 0
12.96 0 0
13.04 0 0
13.12 0 0
13.2 0 0
13.28 0 0
13.36 0 0
13.44 0 0
13.52 0 0
13.6 0 0
13.68 0 0
13.76 0 0
13.84 0 0
13.92 0 0
14 0 0
14.08 0 0
14.16 0 0
14.24 0 0
14.32 0 0
14.4 0 0
14.48 0 0
14.56 0 0
14.64 0 0
14.72 0 0
14.8 0 0
14.88 0 0
14.96 0 0
15.04 0 0
15.12 0 0
15.2 0 0
15.28 0 0
15.36 0 0
15.44 0 0
15.52 0 0
15.6 0 0
15.68 0 0
15.76 0 0
15.84 0 0
15.92 0 0
16 0 0
16.08 0 0
16.16 0 0
16.24 0 0
16.32 0 0
16.4 0 0
16.48 0 0
16.56 0 0
16.64 0 0
16.72 0 0
16.8 0 0
16.88 0 0
16.96 0 0
17.04 0 0
17.12 0 0
17.2 0 0
17.28 0 0
17.36 0 0
17.44 0 0
17.52 0 0
17.6 0 0
17.68 0 0
17.76 0 0
17.84 0 0
17.92 0 0
18 0 0
18.08 0 0
18.16 0 0
18.24 0 0
18.32 0 0
18.4 0 0
18.48 0 0
18.56 0 0
18.64 0 0
18.72 0 0
18.8 0 0
18.88 0 0
18.96 0 0
19.04 0 0
19.12 0 0
19.2 0 0
19.28 0 0
19.36 0 0
19.44 0 0
19.52 0 0
19.6 0 0
19.68 0 0
19.76 0 0
19.84 0 0
19.92 0 0
20 0 0
20.08 0 0
20.16 0 0
20.24 0 0
20.32 0 0
20.4 0 0
20.48 0 0
20.56 0 0
20.64 0 0
20.72 0 0
20.8 0 0
20.88 0 0
20.96 0 0
21.04 0 0
21.12 0 0
21.2 0 0
21.28 0 0
21.36 0 0
21.44 0 0
21.52 0 0
21.6 0 0
21.68 0 0
21.76 0 0
21.84 0 0
21.92 0 0
22 0 0
22.08 0 0
22.16 0 0
22.24 0 0
22.32 0 0
22.4 0 0
22.48 0 0
22.56 0 0
22.64 0 0
22.72 0 0
22.8 0 0
22.88 0 0
22.96 0 0
23.04 0 0
23.12 0 0
23.2 0 0
23.28 0 0
23.36 0 0
23.44 0 0
23.52 0 0
23.6 0 0
23.68 0 0
23.76 0 0
23.84 0 0
23.92 0 0
24 0 0
24.08 0 0
24.16 0 0
24.24 0 0
24.32 0 0
24.4 0 0
24.48 0 0
24.56 0 0
24.64 0 0
24.72 0 0
24.8 0 0
24.88 0 0
24.96 0 0
25.04 0 0
25.12 0 0
25.2 0 0
25.28 0 0
25.36 0 0
25.44 0 0
25.52 0 0
25.6 0 0
25.68 0 0
25.76 0 0
25.84 0 0
25.92 0 0
26 0 0
26.08 0 0
26.16 0 0
26.24 0 0
26.32 0 0
26.4 0 0
26.48 0 0
26.56 0 0
26.64 0 0
26.72 0 0
26.8 0 0
26.88 0 0
26.96 0 0
27.04 0 0
27.12 0 0
27.2 0 0
27.28 0 0
27.36 0 0
27.44 0 0
27.52 0 0
27.6 0 0
27.68 0 0
27.76 0 0
27.84 0 0
27.92 0 0
28 0 0
28.08 0 0
28.16 0 0
28.24 0 0
28.32 0 0
28.4 0 0
28.48 0 0
28.56 0 0
28.64 0 0
28.72 0 0
28.8 0 0
28.88 0 0
28.96 0 0
29.04 0 0
29.12 0 0
29.2 0 0
29.28 0 0
29.36 0 0
29.44 0 0
29.52 0 0
29.6 0 0
29.68 0 0
29.76 0 0
29.84 0 0
29.92 0 0
30 0 0
30.08 0 0
30.16 0 0
30.24 0 0
30.32 0 0
30.4 0 0
30.48 0 0
30.56 0 0
30.64 0 0
30.72 0 0
30.8 0 0
30.88 0 0
30.96 0 0
31.04 0 0
31.12 0 0
31.2 0 0
31.28 0 0
31.36 0 0
31.44 0 0
31.52 0 0
31.6 0 0
31.68 0 0
31.76 0 0
31.84 0 0
31.92 0 0
0 0.005 0
0.08 0.005 0
0.16 0.005 0
0.24 0.005 0
0.32 0.005 0
0.4 0.005 0
0.48 0.005 0
0.56 0.005 0
0.64 0.005 0
0.72 0.005 0
0.8 0.005 0
0.88 0.005 0
0.96 0.005 0
1.04 0.005 0
1.12 0.005 0
1.2 0.005 0
1.28 0.005 0
1.36 0.005 0
1.44 0.005 0
1.52 0.005 0
1.6 0.005 0
1.68 0.005 0
1.76 0.005 0
1.84 0.005 0
1.92 0.005 0
2 0.005 0
2.08 0.005 0
2.16 0.005 0
2.24 0.005 0
2.32 0.005 0
2.4 0.005 0
2.48 0.005 0
2.56 0.005 0
2.64 0.005 0
2.72 0.005 0
2.8 0.005 0
2.88 0.005 0
2.96 0.005 0
3.04 0.005 0
3.12 0.005 0
3.2 0.005 0
3.28 0.005 0
3.36 0.005 0
3.44 0.005 0
3.52 0.005 0
3.6 0.005 0
3.68 0.005 0
3.76 0.005 0
3.84 0.005 0
3.92 0.005 0
4 0.005 0
4.08 0.005 0
4.16 0.005 0
4.24 0.005 0
4.32 0.005 0
4.4 0.005 0
4.48 0.005 0
4.56 0.005 0
4.64 0.005 0
4.72 0.005 0
4.8 0.005 0
4.88 0.005 0
4.96 0.005 0
5.04 0.005 0
5.12 0.005 0
5.2 0.005 0
5.28 0.005 0
5.36 0.005 0
5.44 0.005 0
5.52 0.005 0
5.6 0.005 0
5.68 0.005 0
5.76 0.005 0
5.84 0.005 0
5.92 0.005 0
6 0.005 0
6.08 0.005 0
6.16 0.005 0
6.24 0.005 0
6.32 0.005 0
6.4 0.005 0
6.48 0.005 0
6.56 0.005 0
6.64 0.005 0
6.72 0.005 0
6.8 0.005 0
6.88 0.005 0
6.96 0.005 0
7.04 0.005 0
7.12 0.005 0
7.2 0.005 0
7.28 0.005 0
7.36 0.005 0
7.44 0.005 0
7.52 0.005 0
7.6 0.005 0
7.68 0.005 0
7.76 0.005 0
7.84 0.005 0
7.92 0.005 0
8 0.005 0
8.08 0.005 0
8.16 0.005 0
8.24 0.005 0
8.32 0.005 0
8.4 0.005 0
8.48 0.005 0
8.56 0.005 0
8.64 0.005 0
8.72 0.005 0
8.8 0.005 0
8.88 0.005 0
8.96 0.005 0
9.04 0.005 0
9.12 0.005 0
9.2 0.005 0
9.28 0.005 0
9.36 0.005 0
9.44 0.005 0
9.52 0.005 0
9.6 0.005 0
9.68 0.005 0
9.76 0.005 0
9.84 0.005 0
9.92 0.005 0
10 0.005 0
10.08 0.005 0
10.16 0.005 0
10.24 0.005 0
10.32 0.005 0
10.4 0.005 0
10.48 0.005 0
10.56 0.005 0
10.64 0.005 0
10.72 0.005 0
10.8 0.005 0
10.88 0.005 0
10.96 0.005 0
11.04 0.005 0
11.12 0.005 0
11.2 0.005 0
11.28 0.005 0
11.36 0.005 0
11.44 0.005 0
11.52 0.005 0
11.6 0.005 0
11.68 0.005 0
11.76 0.005 0
11.84 0.005 0
11.92 0.005 0
12 0.005 0
12.08 0.005 0
12.16 0.005 0
12.24 0.005 0
12.32 0.005 0
12.4 0.005 0
12.48 0.005 0
12.56 0.005 0
12.64 0.005 0
12.72 0.005 0
12.8 0.005 0
12.88 0.005 0
12.96 0.005 0
13.04 0.005 0
13.12 0.005 0
13.2 0.005 0
13.28 0.005 0
13.36 0.005 0
13.44 0.005 0
13.52 0.005 0
13.6 0.005 0
13.68 0.005 0
13.76 0.005 0
13.84 0.005 0
13.92 0.005 0
14 0.005 0
14.08 0.005 0
14.16 0.005 0
14.24 0.005 0
14.32 0.005 0
14.4 0.005 0
14.48 0.005 0
14.56 0.005 0
14.64 0.005 0
14.72 0.005 0
14.8 0.005 0
14.88 0.005 0
14.96 0.005 0
15.04 0.005 0
15.12 0.005 0
15.2 0.005 0
15.28 0.005 0
15.36 0.005 0
15.44 0.005 0
15.52 0.005 0
15.6 0.005 0
15.68 0.005 0
15.76 0.005 0
15.84 0.005 0
15.92 0.005 0
16 0.005 0
16.08 0.005 0
16.16 0.005 0
16.24 0.005 0
16.32 0.005 0
16.4 0.005 0
16.48 0.005 0
16.56 0.005 0
16.64 0.005 0
16.72 0.005 0
16.8 0.005 0
16.88 0.005 0
16.96 0.005 0
17.04 0.005 0
17.12 0.005 0
17.2 0.005 0
17.28 0.005 0
17.36 0.005 0
17.44 0.005 0
17.52 0.005 0
17.6 0.005 0
17.68 0.005 0
17.76 0.005 0
17.84 0.005 0
17.92 0.005 0
18 0.005 0
18.08 0.005 0
18.16 0.005 0
18.24 0.005 0
18.32 0.005 0
18.4 0.005 0
18.48 0.005 0
18.56 0.005 0
18.64 0.005 0
18.72 0.005 0
18.8 0.005 0
18.88 0.005 0
18.96 0.005 0
19.04 0.005 0
19.12 0.005 0
19.2 0.005 0
19.28 0.005 0
19.36 0.005 0
19.44 0.005 0
19.52 0.005 0
19.6 0.005 0
19.68 0.005 0
19.76 0.005 0
19.84 0.005 0
19.92 0.005 0
20 0.005 0
20.08 0.005 0
20.16 0.005 0
20.24 0.005 0
20.32 0.005 0
20.4 0.005 0
20.48 0.005 0
20.56 0.005 0
20.64 0.005 0
20.72 0.005 0
20.8 0.005 0
20.88 0.005 0
20.96 0.005 0
21.04 0.005 0
21.12 0.005 0
21.2 0.005 0
21.28 0.005 0
21.36 0.005 0
21.44 0.005 0
21.52 0.005 0
21.6 0.005 0
21.68 0.005 0
21.76 0.005 0
21.84 0.005 0
21.92 0.005 0
22 0.005 0
22.08 0.005 0
22.16 0.005 0
22.24 0.005 0
22.32 0.005 0
22.4 0.005 0
22.48 0.005 0
22.56 0.005 0
22.64 0.005 0
22.72 0.005 0
22.8 0.005 0
22.88 0.005 0
22.96 0.005 0
23.04 0.005 0
23.12 0.005 0
23.2 0.005 0
23.28 0.005 0
23.36 0.005 0
23.44 0.005 0
23.52 0.005 0
23.6 0.005 0
23.68 0.005 0
23.76 0.005 0
23.84 0.005 0
23.92 0.005 0
24 0.005 0
24.08 0.005 0
24.16 0.005 0
24.24 0.005 0
24.32 0.005 0
24.4 0.005 0
24.48 0.005 0
24.56 0.005 0
24.64 0.005 0
24.72 0.005 0
24.8 0.005 0
24.88 0.005 0
24.96 0.005 0
25.04 0.005 0
25.12 0.005 0
25.2 0.005 0
25.28 0.005 0
25.36 0.005 0
25.44 0.005 0
25.52 0.005 0
25.6 0.005 0
25.68 0.005 0
25.76 0.005 0
25.84 0.005 0
25.92 0.005 0
26 0.005 0
26.08 0.005 0
26.16 0.005 0
26.24 0.005 0
26.32 0.005 0
26.4 0.005 0
26.48 0.005 0
26.56 0.005 0
26.64 0.005 0
26.72 0.005 0
26.8 0.005 0
26.88 0.005 0
26.96 0.005 0
27.04 0.005 0
27.12 0.005 0
27.2 0.005 0
27.28 0.005 0
27.36 0.005 0
27.44 0.005 0
27.52 0.005 0
27.6 0.005 0
27.68 0.005 0
27.76 0.005 0
27.84 0.005 0
27.92 0.005 0
28 0.005 0
28.08 0.005 0
28.16 0.005 0
28.24 0.005 0
28.32 0.005 0
28.4 0.005 0
28.48 0.005 0
28.56 0.005 0
28.64 0.005 0
28.72 0.005 0
28.8 0.005 0
28.88 0.005 0
28.96 0.005 0
29.04 0.005 0
29.12 0.005 0
29.2 0.005 0
29.28 0.005 0
29.36 0.005 0
29.44 0.005 0
29.52 0.005 0
29.6 0.005 0
29.68 0.005 0
29.76 0.005 0
29.84 0.005 0
29.92 0.005 0
30 0.005 0
30.08 0.005 0
30.16 0.005 0
30.24 0.005 0
30.32 0.005 0
30.4 0.005 0
30.48 0.005 0
30.56 0.005 0
30.64 0.005 0
30.72 0.005 0
30.8 0.005 0
30.88 0.005 0
30.96 0.005 0
31.04 0.005 0
31.12 0.005 0
31.2 0.005 0
31.28 0.005 0
31.36 0.005 0
31.44 0.005 0
31.52 0.005 0
31.6 0.005 0
31.68 0.005 0
31.76 0.005 0
31.84 0.005 0
31.92 0.005 0
0 0.01 0
0.08 0.01 0
0.16 0.01 0
0.24 0.01 0
0.32 0.01 0
0.4 0.01 0
0.48 0.01 0
0.56 0.01 0
0.64 0.01 0
0.72 0.01 0
0.8 0.01 0
0.88 0.01 0
0.96 0.01 0
1.04 0.01 0
1.12 0.01 0
1.2 0.01 0
1.28 0.01 0
1.36 0.01 0
1.44 0.01 0
1.52 0.01 0
1.6 0.01 0
1.68 0.01 0
1.76 0.01 0
1.84 0.01 0
1.92 0.01 0
2 0.01 0
2.08 0.01 0
2.16 0.01 0
2.24 0.01 0
2.32 0.01 0
2.4 0.01 0
2.48 0.01 0
2.56 0.01 0
2.64 0.01 0
2.72 0.01 0
2.8 0.01 0
2.88 0.01 0
2.96 0.01 0
3.04 0.01 0
3.12 0.01 0
3.2 0.01 0
3.28 0.01 0
3.36 0.01 0
3.44 0.01 0
3.52 0.01 0
3.6 0.01 0
3.68 0.01 0
3.76 0.01 0
3.84 0.01 0
3.92 0.01 0
4 0.01 0
4.08 0.01 0
4.16 0.01 0
4.24 0.01 0
4.32 0.01 0
4.4 0.01 0
4.48 0.01 0
4.56 0.01 0
4.64 0.01 0
4.72 0.01 0
4.8 0.01 0
4.88 0.01 0
4.96 0.01 0
5.04 0.01 0
5.12 0.01 0
[...]
POINT_DATA 80000

SCALARS u float 1
LOOKUP_TABLE default
0
-0.1316629415
-0.06826963896
-0.05229652088
-0.04442048596
-0.03957745623
-0.03626043295
-0.03383345866
-0.03197354682
-0.03049693797
-0.02929093772
-0.02828270979
-0.02742330939
-0.02667879961
-0.02602499983
-0.02544427519
-0.02492352908
-0.02445287334
-0.02402466614
-0.02363281954
-0.02327238799
-0.02293938755
-0.02263067753
-0.0223437497
-0.02207644164
-0.02182674547
-0.02159284152
-0.02137328118
-0.02116708855
-0.02097361781
-0.02079224101
-0.02062212661
-0.02046232422
-0.02031212589
-0.02017143411
-0.02004083013
-0.0199212333
-0.01981332304
-0.01971705607
-0.01963154962
-0.01955537194
-0.01948704659
-0.01942548144
-0.01937011402
-0.01932074758
-0.01927721806
-0.01923909535
-0.01920557072
-0.0191755647
-0.01914797883
-0.01912196235
-0.01909708296
-0.01907335156
-0.01905111777
-0.01903089391
-0.01901317386
-0.01899829667
-0.01898637776
-0.01897730599
-0.01897078877
-0.01896642125
-0.01896375803
-0.0189623719
-0.01896189251
-0.01896202447
-0.01896254899
-0.01896331469
-0.01896422355
-0.01896521596
-0.01896625784
-0.0189673307
-0.01896842478
-0.01896953479
-0.0189706575
-0.01897179061
-0.01897293219
-0.01897408058
-0.01897523433
-0.01897639227
-0.01897755347
-0.01897871724
-0.01897988307
-0.01898105064
-0.01898221971
-0.01898339017
-0.01898456191
-0.01898573491
-0.01898690913
-0.01898808457
-0.01898926121
-0.01899043906
-0.01899161812
-0.0189927984
-0.01899397988
-0.01899516259
-0.01899634653
-0.0189975317
-0.01899871812
-0.0189999058
-0.01900109474
-0.01900228495
-0.01900347645
-0.01900466925
-0.01900586336
-0.01900705878
-0.01900825554
-0.01900945363
-0.01901065306
-0.01901185385
-0.019013056
-0.01901425951
-0.0190154644
-0.01901667066
-0.0190178783
-0.01901908733
-0.01902029775
-0.01902150956
-0.01902272276
-0.01902393735
-0.01902515335
-0.01902637074
-0.01902758952
-0.01902880971
-0.01903003129
-0.01903125427
-0.01903247864
-0.01903370441
-0.01903493157
-0.01903616012
-0.01903739006
-0.01903862138
-0.01903985409
-0.01904108818
-0.01904232364
-0.01904356047
-0.01904479868
-0.01904603825
-0.01904727918
-0.01904852146
-0.0190497651
-0.01905101008
-0.01905225641
-0.01905350407
-0.01905475306
-0.01905600337
-0.019057255
-0.01905850795
-0.0190597622
-0.01906101776
-0.0190622746
-0.01906353274
-0.01906479215
-0.01906605284
-0.01906731479
-0.01906857801
-0.01906984248
-0.0190711082
-0.01907237515
-0.01907364334
-0.01907491276
-0.01907618339
-0.01907745524
-0.01907872829
-0.01908000254
-0.01908127798
-0.0190825546
-0.0190838324
-0.01908511137
-0.0190863915
-0.01908767279
-0.01908895522
-0.0190902388
-0.01909152352
-0.01909280936
-0.01909409633
-0.01909538442
-0.01909667362
-0.01909796392
-0.01909925531
-0.01910054781
-0.01910184138
-0.01910313604
-0.01910443177
-0.01910572857
-0.01910702644
-0.01910832536
-0.01910962534
-0.01911092637
-0.01911222844
-0.01911353154
-0.01911483568
-0.01911614085
-0.01911744705
-0.01911875426
-0.01912006249
-0.01912137173
-0.01912268198
-0.01912399323
-0.01912530548
-0.01912661873
-0.01912793298
-0.01912924821
-0.01913056442
-0.01913188162
-0.0191331998
-0.01913451896
-0.01913583909
-0.01913716019
-0.01913848226
-0.0191398053
-0.0191411293
-0.01914245426
-0.01914378018
-0.01914510706
-0.01914643489
-0.01914776368
-0.01914909342
-0.0191504241
-0.01915175574
-0.01915308832
-0.01915442185
-0.01915575632
-0.01915709173
-0.01915842808
-0.01915976538
-0.01916110361
-0.01916244278
-0.01916378289
-0.01916512393
-0.01916646591
-0.01916780883
-0.01916915267
-0.01917049746
-0.01917184317
-0.01917318982
-0.0191745374
-0.01917588591
-0.01917723535
-0.01917858572
-0.01917993703
-0.01918128926
-0.01918264243
-0.01918399652
-0.01918535155
-0.01918670751
-0.01918806439
-0.01918942221
-0.01919078096
-0.01919214064
-0.01919350125
-0.01919486279
-0.01919622526
-0.01919758867
-0.019198953
-0.01920031827
-0.01920168447
-0.01920305161
-0.01920441967
-0.01920578867
-0.01920715861
-0.01920852948
-0.01920990128
-0.01921127402
-0.0192126477
-0.01921402231
-0.01921539786
-0.01921677435
-0.01921815178
-0.01921953014
-0.01922090944
-0.01922228969
-0.01922367088
-0.019225053
-0.01922643607
-0.01922782008
-0.01922920504
-0.01923059094
-0.01923197778
-0.01923336558
-0.01923475431
-0.019236144
-0.01923753463
-0.01923892621
-0.01924031874
-0.01924171222
-0.01924310666
-0.01924450204
-0.01924589838
-0.01924729567
-0.01924869392
-0.01925009312
-0.01925149328
-0.01925289439
-0.01925429647
-0.0192556995
-0.01925710349
-0.01925850844
-0.01925991436
-0.01926132124
-0.01926272908
-0.01926413788
-0.01926554765
-0.01926695839
-0.0192683701
-0.01926978277
-0.01927119642
-0.01927261103
-0.01927402662
-0.01927544317
-0.01927686071
-0.01927827921
-0.01927969869
-0.01928111915
-0.01928254059
-0.01928396301
-0.0192853864
-0.01928681078
-0.01928823614
-0.01928966248
-0.01929108981
-0.01929251812
-0.01929394742
-0.01929537771
-0.01929680899
-0.01929824126
-0.01929967452
-0.01930110878
-0.01930254402
-0.01930398027
-0.01930541751
-0.01930685575
-0.01930829499
-0.01930973523
-0.01931117647
-0.01931261872
-0.01931406197
-0.01931550623
-0.0193169515
-0.01931839777
-0.01931984506
-0.01932129336
-0.01932274268
-0.01932419301
-0.01932564436
-0.01932709672
-0.01932855012
-0.01933000452
-0.01933145999
-0.01933291639
-0.01933437398
-0.01933583235
-0.01933729213
-0.01933875237
-0.0193402145
-0.01934167643
-0.01934314114
-0.01934460453
-0.01934607207
-0.01934753667
-0.01934900732
-0.01935047289
-0.01935194685
-0.01935341326
-0.01935489062
-0.01935635787
-0.01935783859
-0.01935930679
-0.01936079074
-0.01936226001
-0.01936374717
-0.0193652174
-0.0193667081
-0.01936817872
-0.01936967379
-0.01937114377
-0.01937264446
-0.01937411232
-0.01937562035
-0.01937708424
-0.01937860157
-0.01938005965
-0.01938158795
-0.01938303915
-0.01938457911
-0.01938602413
-0.01938757438
-0.01938901763
-0.01939057274
-0.01939202641
-0.01939357243
-0.01939506564
-0.01939656943
-0.01939817004
-0.01939954066
-0.01940141855
-0.01940231895
-0.01940487698
-0.01940258095
-0.01940258095
-0.01940258095
1
0.1316629415
0.06826963896
0.05229652088
0.04442048596
0.03957745623
0.03626043295
0.03383345866
0.03197354682
0.03049693797
0.02929093772
0.02828270979
0.02742330939
0.02667879961
0.02602499983
0.02544427519
0.02492352908
0.02445287334
0.02402466614
0.02363281954
0.02327238799
0.02293938755
0.02263067753
0.0223437497
0.02207644164
0.02182674547
0.02159284152
0.02137328118
0.02116708855
0.02097361781
0.02079224101
0.02062212661
0.02046232422
0.02031212589
0.02017143411
0.02004083013
0.0199212333
0.01981332304
0.01971705607
0.01963154962
0.01955537194
0.01948704659
0.01942548144
0.01937011402
0.01932074758
0.01927721806
0.01923909535
0.01920557072
0.0191755647
0.01914797883
0.01912196235
0.01909708296
0.01907335156
0.01905111777
0.01903089391
0.01901317386
0.01899829667
0.01898637776
0.01897730599
0.01897078877
0.01896642125
0.01896375803
0.0189623719
0.01896189251
0.01896202447
0.01896254899
0.01896331469
0.01896422355
0.01896521596
0.01896625784
0.0189673307
0.01896842478
0.01896953479
0.0189706575
0.01897179061
0.01897293219
0.01897408058
0.01897523433
0.01897639227
0.01897755347
0.01897871724
0.01897988307
0.01898105064
0.01898221971
0.01898339017
0.01898456191
0.01898573491
0.01898690913
0.01898808457
0.01898926121
0.01899043906
0.01899161812
0.0189927984
0.01899397988
0.01899516259
0.01899634653
0.0189975317
0.01899871812
0.0189999058
0.01900109474
0.01900228495
0.01900347645
0.01900466925
0.01900586336
0.01900705878
0.01900825554
0.01900945363
0.01901065306
0.01901185385
0.019013056
0.01901425951
0.0190154644
0.01901667066
0.0190178783
0.01901908733
0.01902029775
0.01902150956
0.01902272276
0.01902393735
0.01902515335
0.01902637074
0.01902758952
0.01902880971
0.01903003129
0.01903125427
0.01903247864
0.01903370441
0.01903493157
0.01903616012
0.01903739006
0.01903862138
0.01903985409
0.01904108818
0.01904232364
0.01904356047
0.01904479868
0.01904603825
0.01904727918
0.01904852146
0.0190497651
0.01905101008
0.01905225641
0.01905350407
0.01905475306
0.01905600337
0.019057255
0.01905850795
0.0190597622
0.01906101776
0.0190622746
0.01906353274
0.01906479215
0.01906605284
0.01906731479
0.01906857801
0.01906984248
0.0190711082
0.01907237515
0.01907364334
0.01907491276
0.01907618339
0.01907745524
0.01907872829
0.01908000254
0.01908127798
0.0190825546
0.0190838324
0.01908511137
0.0190863915
0.01908767279
0.01908895522
0.0190902388
0.01909152352
0.01909280936
0.01909409633
0.01909538442
0.01909667362
0.01909796392
0.01909925531
0.01910054781
0.01910184138
0.01910313604
0.01910443177
0.01910572857
0.01910702644
0.01910832536
0.01910962534
0.01911092637
0.01911222844
0.01911353154
0.01911483568
0.01911614085
0.01911744705
0.01911875426
0.01912006249
0.01912137173
0.01912268198
0.01912399323
0.01912530548
0.01912661873
0.01912793298
0.01912924821
0.01913056442
0.01913188162
0.0191331998
0.01913451896
0.01913583909
0.01913716019
0.01913848226
0.0191398053
0.0191411293
0.01914245426
0.01914378018
0.01914510706
0.01914643489
0.01914776368
0.01914909342
0.0191504241
0.01915175574
0.01915308832
0.01915442185
0.01915575632
0.01915709173
0.01915842808
0.01915976538
0.01916110361
0.01916244278
0.01916378289
0.01916512393
0.01916646591
0.01916780883
0.01916915267
0.01917049746
0.01917184317
0.01917318982
0.0191745374
0.01917588591
0.01917723535
0.01917858572
0.01917993703
0.01918128926
0.01918264243
0.01918399652
0.01918535155
0.01918670751
0.01918806439
0.01918942221
0.01919078096
0.01919214064
0.01919350125
0.01919486279
0.01919622526
0.01919758867
0.019198953
0.01920031827
0.01920168447
0.01920305161
0.01920441967
0.01920578867
0.01920715861
0.01920852948
0.01920990128
0.01921127402
0.0192126477
0.01921402231
0.01921539786
0.01921677435
0.01921815178
0.01921953014
0.01922090944
0.01922228969
0.01922367088
0.019225053
0.01922643607
0.01922782008
0.01922920504
0.01923059094
0.01923197778
0.01923336558
0.01923475431
0.019236144
0.01923753463
0.01923892621
0.01924031874
0.01924171222
0.01924310666
0.01924450204
0.01924589838
0.01924729567
0.01924869392
0.01925009312
0.01925149328
0.01925289439
0.01925429647
0.0192556995
0.01925710349
0.01925850844
0.01925991436
0.01926132124
0.01926272908
0.01926413788
0.01926554765
0.01926695839
0.0192683701
0.01926978277
0.01927119642
0.01927261103
0.01927402662
0.01927544317
0.01927686071
0.01927827921
0.01927969869
0.01928111915
0.01928254059
0.01928396301
0.0192853864
0.01928681078
0.01928823614
0.01928966248
0.01929108981
0.01929251812
0.01929394742
0.01929537771
0.01929680899
0.01929824126
0.01929967452
0.01930110878
0.01930254402
0.01930398027
0.01930541751
0.01930685575
0.01930829499
0.01930973523
0.01931117647
0.01931261872
0.01931406197
0.01931550623
0.0193169515
0.01931839777
0.01931984506
0.01932129336
0.01932274268
0.01932419301
0.01932564436
0.01932709672
0.01932855012
0.01933000452
0.01933145999
0.01933291639
0.01933437398
0.01933583235
0.01933729213
0.01933875237
0.0193402145
0.01934167643
0.01934314114
0.01934460453
0.01934607207
0.01934753667
0.01934900732
0.01935047289
0.01935194685
0.01935341326
0.01935489062
0.01935635787
0.01935783859
0.01935930679
0.01936079074
0.01936226001
0.01936374717
0.0193652174
0.0193667081
0.01936817872
0.01936967379
0.01937114377
0.01937264446
0.01937411232
0.01937562035
0.01937708424
0.01937860157
0.01938005965
0.01938158795
0.01938303915
0.01938457911
0.01938602413
0.01938757438
0.01938901763
0.01939057274
0.01939202641
0.01939357243
0.01939506564
0.01939656943
0.01939817004
0.01939954066
0.01940141855
0.01940231895
0.01940487698
0.01940258095
0.01940258095
0.01940258095
1
0.3448845583
0.2006687717
0.1549686112
0.1318962221
0.1176004944
0.1077700443
0.1005603487
0.09502754796
0.09063186262
0.08704092819
0.08403920798
0.08148143678
0.079266633
0.07732270519
0.07559701232
0.07405041631
0.07265331385
0.07138278857
0.07022060337
0.06915200906
0.0681651659
0.06725070739
0.0664010775
0.06560974174
0.06487072203
0.06417872723
0.06352960575
0.06292051152
0.06234943146
0.06181435802
0.06131280565
0.06084216009
0.06040067213
0.05998833159
0.05960685955
0.05925864248
0.05894515853
0.05866579385
0.05841769807
0.05819668803
0.0579986191
0.05782045809
0.05766056248
0.05751816926
0.05739250817
0.0572820756
0.05718443156
0.05709656121
0.05701556469
0.05693932991
0.05686691405
0.05679853249
0.05673522401
0.05667835822
0.05662915996
0.05658837347
0.0565561146
0.05653189596
0.05651477099
0.05650353128
0.05649690006
0.0564936843
0.0564928696
0.05649365946
0.0564954717
0.0564979084
0.05650071466
0.05650373711
0.0565068888
0.0565101228
0.05651341432
0.05651674973
0.05652012049
0.0565235203
0.05652694384
0.05653038651
0.05653384435
0.05653731415
0.05654079336
0.0565442801
0.05654777303
0.05655127124
0.05655477412
0.05655828129
0.05656179253
0.05656530769
0.05656882669
0.05657234949
0.05657587605
0.05657940636
0.05658294041
0.05658647819
0.0565900197
0.05659356494
0.05659711393
0.05660066667
0.05660422319
0.05660778348
0.05661134758
0.0566149155
0.05661848727
0.05662206289
0.0566256424
0.05662922581
0.05663281314
0.05663640439
0.0566399996
0.05664359876
0.0566472019
0.05665080901
0.05665442011
0.05665803519
0.05666165428
0.05666527736
0.05666890443
0.05667253551
0.05667617058
0.05667980965
0.05668345271
0.05668709975
0.05669075078
0.05669440578
0.05669806475
0.05670172768
0.05670539456
0.05670906538
0.05671274014
0.05671641882
0.05672010141
0.05672378791
0.05672747829
0.05673117256
0.05673487068
0.05673857266
0.05674227848
0.05674598812
0.05674970157
0.05675341881
0.05675713983
0.05676086462
0.05676459315
0.05676832541
0.05677206139
0.05677580107
0.05677954442
0.05678329144
0.05678704211
0.0567907964
0.05679455431
0.0567983158
0.05680208087
0.0568058495
0.05680962166
0.05681339735
0.05681717653
0.0568209592
0.05682474534
0.05682853492
0.05683232792
0.05683612434
0.05683992415
0.05684372734
0.05684753388
0.05685134376
0.05685515696
0.05685897347
0.05686279326
0.05686661632
0.05687044264
0.05687427219
0.05687810496
0.05688194094
0.0568857801
0.05688962244
0.05689346793
0.05689731657
0.05690116833
0.05690502321
0.05690888118
0.05691274224
0.05691660637
0.05692047356
0.0569243438
0.05692821707
0.05693209335
0.05693597265
0.05693985494
0.05694374021
0.05694762846
0.05695151967
0.05695541383
0.05695931094
0.05696321097
0.05696711393
0.05697101981
0.05697492858
0.05697884026
0.05698275482
0.05698667226
0.05699059257
0.05699451574
0.05699844177
0.05700237065
0.05700630238
0.05701023694
0.05701417433
0.05701811455
0.05702205759
0.05702600344
0.0570299521
0.05703390357
0.05703785783
0.05704181489
0.05704577475
0.05704973739
0.05705370281
0.05705767102
0.057061642
0.05706561576
0.05706959229
0.05707357159
0.05707755365
0.05708153848
0.05708552608
0.05708951643
0.05709350954
0.05709750541
0.05710150404
0.05710550542
0.05710950956
0.05711351645
0.05711752609
0.05712153848
0.05712555362
0.05712957152
0.05713359216
0.05713761556
0.05714164171
0.0571456706
0.05714970225
0.05715373665
0.0571577738
0.0571618137
0.05716585636
0.05716990177
0.05717394993
0.05717800085
0.05718205452
0.05718611095
0.05719017013
0.05719423207
0.05719829678
0.05720236424
0.05720643447
0.05721050746
0.05721458321
0.05721866173
0.05722274302
0.05722682708
0.05723091391
0.05723500351
0.05723909588
0.05724319104
0.05724728896
0.05725138967
0.05725549316
0.05725959944
0.0572637085
0.05726782034
0.05727193498
0.05727605241
0.05728017263
0.05728429565
0.05728842146
0.05729255008
0.05729668149
0.05730081572
0.05730495275
0.05730909258
0.05731323523
0.0573173807
0.05732152898
0.05732568008
0.057329834
0.05733399074
0.05733815031
0.05734231271
0.05734647794
0.05735064601
0.05735481691
0.05735899065
0.05736316723
0.05736734666
0.05737152893
0.05737571406
0.05737990204
0.05738409287
0.05738828656
0.05739248311
0.05739668253
0.05740088481
0.05740508997
0.05740929799
0.0574135089
0.05741772268
0.05742193934
0.05742615889
0.05743038133
0.05743460666
0.05743883488
0.057443066
0.05744730002
0.05745153695
0.05745577678
0.05746001952
0.05746426518
0.05746851376
0.05747276525
0.05747701967
0.05748127702
0.0574855373
0.05748980052
0.05749406667
0.05749833577
0.05750260781
0.05750688281
0.05751116075
0.05751544166
0.05751972553
0.05752401236
0.05752830216
0.05753259494
0.05753689069
0.05754118943
0.05754549115
0.05754979587
0.05755410358
0.05755841429
0.057562728
0.05756704472
0.05757136446
0.05757568721
0.057580013
0.0575843418
0.05758867367
0.0575930085
0.05759734651
0.05760168734
0.05760603162
0.05761037831
0.05761472909
0.05761908139
0.05762343906
0.05762779651
0.05763216168
0.05763652364
0.05764089707
0.05764526281
0.05764964524
0.05765401413
0.05765840614
0.05766277781
0.05766717966
0.05767155407
0.05767596566
0.05768034313
0.05768476411
0.05768914499
0.05769357525
0.05769795931
0.05770239971
0.05770678544
0.05771123821
0.05771562278
0.0577200914
0.05772447075
0.0577289599
0.05773332896
0.05773784404
0.05774219774
0.05774674346
0.05775107869
0.05775565716
0.05775997565
0.05776458341
0.05776889699
0.05777351973
0.05777786137
0.05778246211
0.05778691047
0.05779140149
0.05779613945
0.05780027999
0.05780576205
0.05780865498
0.05781591976
0.05781045821
0.05781045821
0.05781045821
1
0.5187664581
0.3274034254
0.2553497468
0.2178513406
0.1944067475
0.1782153022
0.1663111365
0.1571624983
0.1498883335
0.1439438719
0.138974662
0.1347411498
0.1310764184
0.1278610916
0.1250078947
0.1224518673
0.1201438013
0.1180455597
0.1161268189
0.1143631289
0.1127349001
0.111226588
0.1098255693
0.1085209212
0.1073027649
0.1061624961
0.105093415
0.1040908517
0.1031513544
0.1022714565
0.1014470727
0.1006741588
0.09995022985
0.09927554344
0.09865286719
0.09808569475
0.09757584049
0.09712177259
0.09671857977
0.09635947403
0.09603788606
0.09574900722
0.09549009896
0.09525965152
0.09505605888
0.09487660789
0.09471727989
0.09457337265
0.09444055338
0.09431582233
0.09419800003
0.09408762054
0.09398636252
0.0938962804
0.09381909677
0.09375572875
0.09370610725
0.09366925385
0.09364352662
0.09362693316
0.09361742613
0.09361312792
0.09361246438
0.09361421369
0.09361749168
0.09362169944
0.09362645644
0.09363153547
0.09363680856
0.09364220689
0.09364769403
0.09365324968
0.09365886089
0.09366451785
0.09367021228
0.09367593695
0.09368168572
0.09368745357
0.09369323658
0.09369903186
0.09370483732
0.09371065155
0.09371647361
0.0937223029
0.09372813906
0.09373398185
0.09373983111
0.09374568677
0.09375154876
0.09375741703
0.09376329155
0.0937691723
0.09377505926
0.09378095243
0.09378685181
0.0937927574
0.09379866921
0.09380458726
0.09381051157
0.09381644216
0.09382237905
0.09382832225
0.0938342718
0.09384022771
0.09384619
0.09385215868
0.09385813377
0.09386411527
0.0938701032
0.09387609756
0.09388209835
0.09388810558
0.09389411924
0.09390013932
0.09390616584
0.09391219876
0.0939182381
0.09392428383
0.09393033594
0.09393639443
0.09394245927
0.09394853046
0.09395460798
0.0939606918
0.09396678192
0.09397287832
0.09397898096
0.09398508985
0.09399120495
0.09399732624
0.09400345371
0.09400958732
0.09401572707
0.09402187291
0.09402802484
0.09403418283
0.09404034685
0.09404651688
0.09405269289
0.09405887486
0.09406506276
0.09407125657
0.09407745625
0.09408366179
0.09408987315
0.09409609031
0.09410231324
0.09410854192
0.09411477631
0.09412101639
0.09412726214
0.09413351352
0.0941397705
0.09414603307
0.09415230119
0.09415857483
0.09416485397
0.09417113859
0.09417742865
0.09418372412
0.09419002499
0.09419633122
0.0942026428
0.09420895969
0.09421528186
0.0942216093
0.09422794199
0.09423427988
0.09424062297
0.09424697123
0.09425332463
0.09425968315
0.09426604678
0.09427241548
0.09427878924
0.09428516804
0.09429155185
0.09429794065
0.09430433443
0.09431073317
0.09431713684
0.09432354544
0.09432995893
0.09433637731
0.09434280055
0.09434922865
0.09435566157
0.09436209932
0.09436854187
0.09437498921
0.09438144133
0.09438789821
0.09439435983
0.09440082619
0.09440729728
0.09441377307
0.09442025357
0.09442673875
0.09443322861
0.09443972314
0.09444622233
0.09445272617
0.09445923465
0.09446574776
0.09447226549
0.09447878784
0.0944853148
0.09449184636
0.09449838251
0.09450492325
0.09451146858
0.09451801848