# vtk DataFile Version 2.0
FlowField
ASCII
DATASET STRUCTURED_GRID
DIMENSIONS 400 1 200
POINTS 80000 float
0 0 0
0.08 0 0
0.16 0 0
0.24 0 0
0.32 0 0
0.4 0 0
0.48 0 0
0.56 0 0
0.64 0 0
0.72 0 0
0.8 0 0
0.88 0 0
0.96 0 0
1.04 0 0
1.12 0 0
1.2 0 0
1.28 0 0
1.36 0 0
1.44 0 0
1.52 0 0
1.6 0 0
1.68 0 0
1.76 0 0
1.84 0 0
1.92 0 0
2 0 0
2.08 0 0
2.16 0 0
2.24 0 0
2.32 0 0
2.4 0 0
2.48 0 0
2.56 0 0
2.64 0 0
2.72 0 0
2.8 0 0
2.88 0 0
2.96 0 0
3.04 0 0
3.12 0 0
3.2 0 0
3.28 0 0
3.36 0 0
3.44 0 0
3.52 0 0
3.6 0 0
3.68 0 0
3.76 0 0
3.84 0 0
3.92 0 0
4 0 0
4.08 0 0
4.16 0 0
4.24 0 0
4.32 0 0
4.4 0 0
4.48 0 0
4.56 0 0
4.64 0 0
4.72 0 0
4.8 0 0
4.88 0 0
4.96 0 0
5.04 0 0
5.12 0 0
5.2 0 0
5.28 0 0
5.36 0 0
5.44 0 0
5.52 0 0
5.6 0 0
5.68 0 0
5.76 0 0
5.84 0 0
5.92 0 0
6 0 0
6.08 0 0
6.16 0 0
6.24 0 0
6.32 0 0
6.4 0 0
6.48 0 0
6.56 0 0
6.64 0 0
6.72 0 0
6.8 0 0
6.88 0 0
6.96 0 0
7.04 0 0
7.12 0 0
7.2 0 0
7.28 0 0
7.36 0 0
7.44 0 0
7.52 0 0
7.6 0 0
7.68 0 0
7.76 0 0
7.84 0 0
7.92 0 0
8 0 0
8.08 0 0
8.16 0 0
8.24 0 0
8.32 0 0
8.4 0 0
8.48 0 0
8.56 0 0
8.64 0 0
8.72 0 0
8.8 0 0
8.88 0 0
8.96 0 0
9.04 0 0
9.12 0 0
9.2 0 0
9.28 0 0
9.36 0 0
9.44 0 0
9.52 0 0
9.6 0 0
9.68 0 0
9.76 0 0
9.84 0 0
9.92 0 0
10 0 0
10.08 0 0
10.16 0 0
10.24 0 0
10.32 0 0
10.4 0 0
10.48 0 0
10.56 0 0
10.64 0 0
10.72 0 0
10.8 0 0
10.88 0 0
10.96 0 0
11.04 0 0
11.12 0 0
11.2 0 0
11.28 0 0
11.36 0 0
11.44 0 0
11.52 0 0
11.6 0 0
11.68 0 0
11.76 0 0
11.84 0 0
11.92 0 0
12 0 0
12.08 0 0
12.16 0 0
12.24 0 0
12.32 0 0
12.4 0 0
12.48 0 0
12.56 0 0
12.64 0 0
12.72 0 0
12.8 0 0
12.88 0 0
12.96 0 0
13.04 0 0
13.12 0 0
13.2 0 0
13.28 0 0
13.36 0 0
13.44 0 0
13.52 0 0
13.6 0 0
13.68 0 0
13.76 0 0
13.84 0 0
13.92 0 0
14 0 0
14.08 0 0
14.16 0 0
14.24 0 0
14.32 0 0
14.4 0 0
14.48 0 0
14.56 0 0
14.64 0 0
14.72 0 0
14.8 0 0
14.88 0 0
14.96 0 0
15.04 0 0
15.12 0 0
15.2 0 0
15.28 0 0
15.36 0 0
15.44 0 0
15.52 0 0
15.6 0 0
15.68 0 0
15.76 0 0
15.84 0 0
15.92 0 0
16 0 0
16.08 0 0
16.16 0 0
16.24 0 0
16.32 0 0
16.4 0 0
16.48 0 0
16.56 0 0
16.64 0 0
16.72 0 0
16.8 0 0
16.88 0 0
16.96 0 0
17.04 0 0
17.12 0 0
17.2 0 0
17.28 0 0
17.36 0 0
17.44 0 0
17.52 0 0
17.6 0 0
17.68 0 0
17.76 0 0
17.84 0 0
17.92 0 0
18 0 0
18.08 0 0
18.16 0 0
18.24 0 0
18.32 0 0
18.4 0 0
18.48 0 0
18.56 0 0
18.64 0 0
18.72 0 0
18.8 0 0
18.88 0 0
18.96 0 0
19.04 0 0
19.12 0 0
19.2 0 0
19.28 0 0
19.36 0 0
19.44 0 0
19.52 0 0
19.6 0 0
19.68 0 0
19.76 0 0
19.84 0 0
19.92 0 0
20 0 0
20.08 0 0
20.16 0 0
20.24 0 0
20.32 0 0
20.4 0 0
20.48 0 0
20.56 0 0
20.64 0 0
20.72 0 0
20.8 0 0
20.88 0 0
20.96 0 0
21.04 0 0
21.12 0 0
21.2 0 0
21.28 0 0
21.36 0 0
21.44 0 0
21.52 0 0
21.6 0 0
21.68 0 0
21.76 0 0
21.84 0 0
21.92 0 0
22 0 0
22.08 0 0
22.16 0 0
22.24 0 0
22.32 0 0
22.4 0 0
22.48 0 0
22.56 0 0
22.64 0 0
22.72 0 0
22.8 0 0
22.88 0 0
22.96 0 0
23.04 0 0
23.12 0 0
23.2 0 0
23.28 0 0
23.36 0 0
23.44 0 0
23.52 0 0
23.6 0 0
23.68 0 0
23.76 0 0
23.84 0 0
23.92 0 0
24 0 0
24.08 0 0
24.16 0 0
24.24 0 0
24.32 0 0
24.4 0 0
24.48 0 0
24.56 0 0
24.64 0 0
24.72 0 0
24.8 0 0
24.88 0 0
24.96 0 0
25.04 0 0
25.12 0 0
25.2 0 0
25.28 0 0
25.36 0 0
25.44 0 0
25.52 0 0
25.6 0 0
25.68 0 0
25.76 0 0
25.84 0 0
25.92 0 0
26 0 0
26.08 0 0
26.16 0 0
26.24 0 0
26.32 0 0
26.4 0 0
26.48 0 0
26.56 0 0
26.64 0 0
26.72 0 0
26.8 0 0
26.88 0 0
26.96 0 0
27.04 0 0
27.12 0 0
27.2 0 0
27.28 0 0
27.36 0 0
27.44 0 0
27.52 0 0
27.6 0 0
27.68 0 0
27.76 0 0
27.84 0 0
27.92 0 0
28 0 0
28.08 0 0
28.16 0 0
28.24 0 0
28.32 0 0
28.4 0 0
28.48 0 0
28.56 0 0
28.64 0 0
28.72 0 0
28.8 0 0
28.88 0 0
28.96 0 0
29.04 0 0
29.12 0 0
29.2 0 0
29.28 0 0
29.36 0 0
29.44 0 0
29.52 0 0
29.6 0 0
29.68 0 0
29.76 0 0
29.84 0 0
29.92 0 0
30 0 0
30.08 0 0
30.16 0 0
30.24 0 0
30.32 0 0
30.4 0 0
30.48 0 0
30.56 0 0
30.64 0 0
30.72 0 0
30.8 0 0
30.88 0 0
30.96 0 0
31.04 0 0
31.12 0 0
31.2 0 0
31.28 0 0
31.36 0 0
31.44 0 0
31.52 0 0
31.6 0 0
31.68 0 0
31.76 0 0
31.84 0 0
31.92 0 0
0 0.005 0
0.08 0.005 0
0.16 0.005 0
0.24 0.005 0
0.32 0.005 0
0.4 0.005 0
0.48 0.005 0
0.56 0.005 0
0.64 0.005 0
0.72 0.005 0
0.8 0.005 0
0.88 0.005 0
0.96 0.005 0
1.04 0.005 0
1.12 0.005 0
1.2 0.005 0
1.28 0.005 0
1.36 0.005 0
1.44 0.005 0
1.52 0.005 0
1.6 0.005 0
1.68 0.005 0
1.76 0.005 0
1.84 0.005 0
1.92 0.005 0
2 0.005 0
2.08 0.005 0
2.16 0.005 0
2.24 0.005 0
2.32 0.005 0
2.4 0.005 0
2.48 0.005 0
2.56 0.005 0
2.64 0.005 0
2.72 0.005 0
2.8 0.005 0
2.88 0.005 0
2.96 0.005 0
3.04 0.005 0
3.12 0.005 0
3.2 0.005 0
3.28 0.005 0
3.36 0.005 0
3.44 0.005 0
3.52 0.005 0
3.6 0.005 0
3.68 0.005 0
3.76 0.005 0
3.84 0.005 0
3.92 0.005 0
4 0.005 0
4.08 0.005 0
4.16 0.005 0
4.24 0.005 0
4.32 0.005 0
4.4 0.005 0
4.48 0.005 0
4.56 0.005 0
4.64 0.005 0
4.72 0.005 0
4.8 0.005 0
4.88 0.005 0
4.96 0.005 0
5.04 0.005 0
5.12 0.005 0
5.2 0.005 0
5.28 0.005 0
5.36 0.005 0
5.44 0.005 0
5.52 0.005 0
5.6 0.005 0
5.68 0.005 0
5.76 0.005 0
5.84 0.005 0
5.92 0.005 0
6 0.005 0
6.08 0.005 0
6.16 0.005 0
6.24 0.005 0
6.32 0.005 0
6.4 0.005 0
6.48 0.005 0
6.56 0.005 0
6.64 0.005 0
6.72 0.005 0
6.8 0.005 0
6.88 0.005 0
6.96 0.005 0
7.04 0.005 0
7.12 0.005 0
7.2 0.005 0
7.28 0.005 0
7.36 0.005 0
7.44 0.005 0
7.52 0.005 0
7.6 0.005 0
7.68 0.005 0
7.76 0.005 0
7.84 0.005 0
7.92 0.005 0
8 0.005 0
8.08 0.005 0
8.16 0.005 0
8.24 0.005 0
8.32 0.005 0
8.4 0.005 0
8.48 0.005 0
8.56 0.005 0
8.64 0.005 0
8.72 0.005 0
8.8 0.005 0
8.88 0.005 0
8.96 0.005 0
9.04 0.005 0
9.12 0.005 0
9.2 0.005 0
9.28 0.005 0
9.36 0.005 0
9.44 0.005 0
9.52 0.005 0
9.6 0.005 0
9.68 0.005 0
9.76 0.005 0
9.84 0.005 0
9.92 0.005 0
10 0.005 0
10.08 0.005 0
10.16 0.005 0
10.24 0.005 0
10.32 0.005 0
10.4 0.005 0
10.48 0.005 0
10.56 0.005 0
10.64 0.005 0
10.72 0.005 0
10.8 0.005 0
10.88 0.005 0
10.96 0.005 0
11.04 0.005 0
11.12 0.005 0
11.2 0.005 0
11.28 0.005 0
11.36 0.005 0
11.44 0.005 0
11.52 0.005 0
11.6 0.005 0
11.68 0.005 0
11.76 0.005 0
11.84 0.005 0
11.92 0.005 0
12 0.005 0
12.08 0.005 0
12.16 0.005 0
12.24 0.005 0
12.32 0.005 0
12.4 0.005 0
12.48 0.005 0
12.56 0.005 0
12.64 0.005 0
12.72 0.005 0
12.8 0.005 0
12.88 0.005 0
12.96 0.005 0
13.04 0.005 0
13.12 0.005 0
13.2 0.005 0
13.28 0.005 0
13.36 0.005 0
13.44 0.005 0
13.52 0.005 0
13.6 0.005 0
13.68 0.005 0
13.76 0.005 0
13.84 0.005 0
13.92 0.005 0
14 0.005 0
14.08 0.005 0
14.16 0.005 0
14.24 0.005 0
14.32 0.005 0
14.4 0.005 0
14.48 0.005 0
14.56 0.005 0
14.64 0.005 0
14.72 0.005 0
14.8 0.005 0
14.88 0.005 0
14.96 0.005 0
15.04 0.005 0
15.12 0.005 0
15.2 0.005 0
15.28 0.005 0
15.36 0.005 0
15.44 0.005 0
15.52 0.005 0
15.6 0.005 0
15.68 0.005 0
15.76 0.005 0
15.84 0.005 0
15.92 0.005 0
16 0.005 0
16.08 0.005 0
16.16 0.005 0
16.24 0.005 0
16.32 0.005 0
16.4 0.005 0
16.48 0.005 0
16.56 0.005 0
16.64 0.005 0
16.72 0.005 0
16.8 0.005 0
16.88 0.005 0
16.96 0.005 0
17.04 0.005 0
17.12 0.005 0
17.2 0.005 0
17.28 0.005 0
17.36 0.005 0
17.44 0.005 0
17.52 0.005 0
17.6 0.005 0
17.68 0.005 0
17.76 0.005 0
17.84 0.005 0
17.92 0.005 0
18 0.005 0
18.08 0.005 0
18.16 0.005 0
18.24 0.005 0
18.32 0.005 0
18.4 0.005 0
18.48 0.005 0
18.56 0.005 0
18.64 0.005 0
18.72 0.005 0
18.8 0.005 0
18.88 0.005 0
18.96 0.005 0
19.04 0.005 0
19.12 0.005 0
19.2 0.005 0
19.28 0.005 0
19.36 0.005 0
19.44 0.005 0
19.52 0.005 0
19.6 0.005 0
19.68 0.005 0
19.76 0.005 0
19.84 0.005 0
19.92 0.005 0
20 0.005 0
20.08 0.005 0
20.16 0.005 0
20.24 0.005 0
20.32 0.005 0
20.4 0.005 0
20.48 0.005 0
20.56 0.005 0
20.64 0.005 0
20.72 0.005 0
20.8 0.005 0
20.88 0.005 0
20.96 0.005 0
21.04 0.005 0
21.12 0.005 0
21.2 0.005 0
21.28 0.005 0
21.36 0.005 0
21.44 0.005 0
21.52 0.005 0
21.6 0.005 0
21.68 0.005 0
21.76 0.005 0
21.84 0.005 0
21.92 0.005 0
22 0.005 0
22.08 0.005 0
22.16 0.005 0
22.24 0.005 0
22.32 0.005 0
22.4 0.005 0
22.48 0.005 0
22.56 0.005 0
22.64 0.005 0
22.72 0.005 0
22.8 0.005 0
22.88 0.005 0
22.96 0.005 0
23.04 0.005 0
23.12 0.005 0
23.2 0.005 0
23.28 0.005 0
23.36 0.005 0
23.44 0.005 0
23.52 0.005 0
23.6 0.005 0
23.68 0.005 0
23.76 0.005 0
23.84 0.005 0
23.92 0.005 0
24 0.005 0
24.08 0.005 0
24.16 0.005 0
24.24 0.005 0
24.32 0.005 0
24.4 0.005 0
24.48 0.005 0
24.56 0.005 0
24.64 0.005 0
24.72 0.005 0
24.8 0.005 0
24.88 0.005 0
24.96 0.005 0
25.04 0.005 0
25.12 0.005 0
25.2 0.005 0
25.28 0.005 0
25.36 0.005 0
25.44 0.005 0
25.52 0.005 0
25.6 0.005 0
25.68 0.005 0
25.76 0.005 0
25.84 0.005 0
25.92 0.005 0
26 0.005 0
26.08 0.005 0
26.16 0.005 0
26.24 0.005 0
26.32 0.005 0
26.4 0.005 0
26.48 0.005 0
26.56 0.005 0
26.64 0.005 0
26.72 0.005 0
26.8 0.005 0
26.88 0.005 0
26.96 0.005 0
27.04 0.005 0
27.12 0.005 0
27.2 0.005 0
27.28 0.005 0
27.36 0.005 0
27.44 0.005 0
27.52 0.005 0
27.6 0.005 0
27.68 0.005 0
27.76 0.005 0
27.84 0.005 0
27.92 0.005 0
28 0.005 0
28.08 0.005 0
28.16 0.005 0
28.24 0.005 0
28.32 0.005 0
28.4 0.005 0
28.48 0.005 0
28.56 0.005 0
28.64 0.005 0
28.72 0.005 0
28.8 0.005 0
28.88 0.005 0
28.96 0.005 0
29.04 0.005 0
29.12 0.005 0
29.2 0.005 0
29.28 0.005 0
29.36 0.005 0
29.44 0.005 0
29.52 0.005 0
29.6 0.005 0
29.68 0.005 0
29.76 0.005 0
29.84 0.005 0
29.92 0.005 0
30 0.005 0
30.08 0.005 0
30.16 0.005 0
30.24 0.005 0
30.32 0.005 0
30.4 0.005 0
30.48 0.005 0
30.56 0.005 0
30.64 0.005 0
30.72 0.005 0
30.8 0.005 0
30.88 0.005 0
30.96 0.005 0
31.04 0.005 0
31.12 0.005 0
31.2 0.005 0
31.28 0.005 0
31.36 0.005 0
31.44 0.005 0
31.52 0.005 0
31.6 0.005 0
31.68 0.005 0
31.76 0.005 0
31.84 0.005 0
31.92 0.005 0
0 0.01 0
0.08 0.01 0
0.16 0.01 0
0.24 0.01 0
0.32 0.01 0
0.4 0.01 0
0.48 0.01 0
0.56 0.01 0
0.64 0.01 0
0.72 0.01 0
0.8 0.01 0
0.88 0.01 0
0.96 0.01 0
1.04 0.01 0
1.12 0.01 0
1.2 0.01 0
1.28 0.01 0
1.36 0.01 0
1.44 0.01 0
1.52 0.01 0
1.6 0.01 0
1.68 0.01 0
1.76 0.01 0
1.84 0.01 0
1.92 0.01 0
2 0.01 0
2.08 0.01 0
2.16 0.01 0
2.24 0.01 0
2.32 0.01 0
2.4 0.01 0
2.48 0.01 0
2.56 0.01 0
2.64 0.01 0
2.72 0.01 0
2.8 0.01 0
2.88 0.01 0
2.96 0.01 0
3.04 0.01 0
3.12 0.01 0
3.2 0.01 0
3.28 0.01 0
3.36 0.01 0
3.44 0.01 0
3.52 0.01 0
3.6 0.01 0
3.68 0.01 0
3.76 0.01 0
3.84 0.01 0
3.92 0.01 0
4 0.01 0
4.08 0.01 0
4.16 0.01 0
4.24 0.01 0
4.32 0.01 0
4.4 0.01 0
4.48 0.01 0
4.56 0.01 0
4.64 0.01 0
4.72 0.01 0
4.8 0.01 0
4.88 0.01 0
4.96 0.01 0
5.04 0.01 0
5.12 0.01 0
[...]
POINT_DATA 80000

SCALARS u float 1
LOOKUP_TABLE default
0
-0.1316625604
-0.06826904004
-0.0522957641
-0.04441959985
-0.03957645922
-0.03625933727
-0.03383227022
-0.03197226606
-0.03049556421
-0.02928947292
-0.02828115162
-0.0274216376
-0.02667697891
-0.02602300584
-0.02544210613
-0.02492116724
-0.02445022822
-0.02402157749
-0.02362913782
-0.02326804029
-0.02293432457
-0.02262472487
-0.02233651483
-0.02206739337
-0.02181539953
-0.02157884786
-0.02135627884
-0.02114642014
-0.02094815606
-0.02076050311
-0.02058259023
-0.02041364262
-0.02025296837
-0.02009994743
-0.01995402225
-0.01981468994
-0.01968149563
-0.01955402671
-0.019431908
-0.01931479752
-0.0192023828
-0.01909437778
-0.01899052
-0.01889056817
-0.01879430009
-0.01870151073
-0.01861201062
-0.01852562437
-0.01844218934
-0.01836155455
-0.01828357958
-0.01820813371
-0.01813509505
-0.0180643498
-0.0179957916
-0.01792932093
-0.01786484454
-0.01780227497
-0.01774153013
-0.01768253282
-0.01762521046
-0.01756949467
-0.017515321
-0.01746262864
-0.01741136018
-0.01736146133
-0.01731288077
-0.01726556987
-0.01721948258
-0.01717457521
-0.01713080632
-0.01708813653
-0.01704652841
-0.01700594636
-0.01696635648
-0.01692772648
-0.01689002558
-0.01685322442
-0.01681729494
-0.01678221038
-0.01674794512
-0.01671447466
-0.01668177555
-0.01664982533
-0.01661860246
-0.01658808629
-0.016558257
-0.01652909555
-0.01650058364
-0.01647270369
-0.01644543878
-0.01641877262
-0.01639268951
-0.01636717434
-0.01634221252
-0.01631778998
-0.01629389316
-0.01627050893
-0.01624762461
-0.01622522797
-0.01620330714
-0.01618185065
-0.01616084742
-0.01614028667
-0.01612015799
-0.01610045128
-0.01608115674
-0.01606226485
-0.01604376639
-0.01602565241
-0.01600791419
-0.01599054327
-0.01597353144
-0.0159568707
-0.01594055328
-0.01592457159
-0.01590891828
-0.01589358618
-0.0158785683
-0.01586385784
-0.01584944816
-0.0158353328
-0.01582150546
-0.01580796
-0.01579469042
-0.01578169087
-0.01576895565
-0.01575647919
-0.01574425605
-0.01573228092
-0.01572054861
-0.01570905407
-0.01569779235
-0.0156867586
-0.01567594812
-0.01566535627
-0.01565497855
-0.01564481055
-0.01563484794
-0.01562508652
-0.01561552216
-0.01560615081
-0.01559696854
-0.01558797148
-0.01557915585
-0.01557051796
-0.01556205418
-0.01555376098
-0.01554563489
-0.01553767252
-0.01552987055
-0.01552222572
-0.01551473486
-0.01550739485
-0.01550020264
-0.01549315524
-0.01548624972
-0.01547948323
-0.01547285295
-0.01546635614
-0.01545999011
-0.01545375222
-0.01544763989
-0.0154416506
-0.01543578185
-0.01543003124
-0.01542439638
-0.01541887494
-0.01541346464
-0.01540816325
-0.01540296858
-0.01539787848
-0.01539289085
-0.01538800363
-0.0153832148
-0.01537852239
-0.01537392446
-0.01536941912
-0.01536500449
-0.01536067876
-0.01535644015
-0.0153522869
-0.0153482173
-0.01534422968
-0.01534032237
-0.01533649378
-0.01533274231
-0.01532906643
-0.01532546461
-0.01532193536
-0.01531847723
-0.01531508879
-0.01531176863
-0.0153085154
-0.01530532773
-0.01530220433
-0.01529914388
-0.01529614513
-0.01529320685
-0.0152903278
-0.01528750681
-0.01528474271
-0.01528203435
-0.01527938061
-0.01527678039
-0.01527423263
-0.01527173626
-0.01526929024
-0.01526689358
-0.01526454527
-0.01526224434
-0.01525998984
-0.01525778084
-0.01525561642
-0.01525349568
-0.01525141774
-0.01524938175
-0.01524738686
-0.01524543224
-0.01524351707
-0.01524164058
-0.01523980197
-0.01523800049
-0.01523623539
-0.01523450593
-0.0152328114
-0.01523115109
-0.01522952431
-0.0152279304
-0.01522636868
-0.01522483851
-0.01522333926
-0.01522187029
-0.015220431
-0.0152190208
-0.01521763909
-0.01521628529
-0.01521495886
-0.01521365923
-0.01521238587
-0.01521113825
-0.01520991584
-0.01520871814
-0.01520754465
-0.01520639488
-0.01520526835
-0.0152041646
-0.01520308316
-0.01520202359
-0.01520098544
-0.01519996828
-0.01519897169
-0.01519799525
-0.01519703856
-0.01519610121
-0.01519518282
-0.015194283
-0.01519340138
-0.01519253759
-0.01519169127
-0.01519086207
-0.01519004965
-0.01518925365
-0.01518847376
-0.01518770965
-0.01518696099
-0.01518622748
-0.0151855088
-0.01518480467
-0.01518411478
-0.01518343886
-0.0151827766
-0.01518212775
-0.01518149203
-0.01518086917
-0.01518025891
-0.01517966101
-0.0151790752
-0.01517850125
-0.01517793891
-0.01517738796
-0.01517684815
-0.01517631927
-0.0151758011
-0.01517529341
-0.015174796
-0.01517430866
-0.01517383118
-0.01517336337
-0.01517290502
-0.01517245596
-0.01517201599
-0.01517158492
-0.01517116258
-0.01517074879
-0.01517034338
-0.01516994617
-0.01516955701
-0.01516917573
-0.01516880217
-0.01516843616
-0.01516807758
-0.01516772625
-0.01516738203
-0.01516704478
-0.01516671437
-0.01516639064
-0.01516607347
-0.01516576272
-0.01516545826
-0.01516515996
-0.01516486771
-0.01516458137
-0.01516430083
-0.01516402597
-0.01516375668
-0.01516349284
-0.01516323433
-0.01516298106
-0.01516273292
-0.0151624898
-0.0151622516
-0.01516201823
-0.01516178957
-0.01516156554
-0.01516134605
-0.015161131
-0.0151609203
-0.01516071386
-0.0151605116
-0.01516031343
-0.01516011927
-0.01515992904
-0.01515974267
-0.01515956006
-0.01515938115
-0.01515920587
-0.01515903414
-0.01515886589
-0.01515870105
-0.01515853956
-0.01515838135
-0.01515822636
-0.01515807453
-0.01515792579
-0.01515778009
-0.01515763738
-0.01515749759
-0.01515736068
-0.01515722659
-0.01515709528
-0.01515696669
-0.01515684077
-0.0151567175
-0.01515659681
-0.01515647868
-0.01515636305
-0.01515624989
-0.01515613916
-0.01515603084
-0.01515592487
-0.01515582123
-0.01515571989
-0.01515562082
-0.01515552397
-0.01515542935
-0.01515533688
-0.0151552466
-0.0151551584
-0.01515507235
-0.01515498832
-0.01515490642
-0.01515482646
-0.01515474862
-0.01515467262
-0.01515459876
-0.01515452663
-0.01515445668
-0.01515438832
-0.01515432221
-0.01515425752
-0.01515419523
-0.0151541341
-0.01515407561
-0.01515401796
-0.01515396336
-0.01515390917
-0.01515385868
-0.01515380813
-0.01515376239
-0.01515371619
-0.01515367678
-0.01515363707
-0.01515360765
-0.01515357973
-0.0151535673
-0.01515356079
-0.01515356079
-0.01515356079
1
0.1316625604
0.06826904004
0.0522957641
0.04441959985
0.03957645922
0.03625933727
0.03383227022
0.03197226606
0.03049556421
0.02928947292
0.02828115162
0.0274216376
0.02667697891
0.02602300584
0.02544210613
0.02492116724
0.02445022822
0.02402157749
0.02362913782
0.02326804029
0.02293432457
0.02262472487
0.02233651483
0.02206739337
0.02181539953
0.02157884786
0.02135627884
0.02114642014
0.02094815606
0.02076050311
0.02058259023
0.02041364262
0.02025296837
0.02009994743
0.01995402225
0.01981468994
0.01968149563
0.01955402671
0.019431908
0.01931479752
0.0192023828
0.01909437778
0.01899052
0.01889056817
0.01879430009
0.01870151073
0.01861201062
0.01852562437
0.01844218934
0.01836155455
0.01828357958
0.01820813371
0.01813509505
0.0180643498
0.0179957916
0.01792932093
0.01786484454
0.01780227497
0.01774153013
0.01768253282
0.01762521046
0.01756949467
0.017515321
0.01746262864
0.01741136018
0.01736146133
0.01731288077
0.01726556987
0.01721948258
0.01717457521
0.01713080632
0.01708813653
0.01704652841
0.01700594636
0.01696635648
0.01692772648
0.01689002558
0.01685322442
0.01681729494
0.01678221038
0.01674794512
0.01671447466
0.01668177555
0.01664982533
0.01661860246
0.01658808629
0.016558257
0.01652909555
0.01650058364
0.01647270369
0.01644543878
0.01641877262
0.01639268951
0.01636717434
0.01634221252
0.01631778998
0.01629389316
0.01627050893
0.01624762461
0.01622522797
0.01620330714
0.01618185065
0.01616084742
0.01614028667
0.01612015799
0.01610045128
0.01608115674
0.01606226485
0.01604376639
0.01602565241
0.01600791419
0.01599054327
0.01597353144
0.0159568707
0.01594055328
0.01592457159
0.01590891828
0.01589358618
0.0158785683
0.01586385784
0.01584944816
0.0158353328
0.01582150546
0.01580796
0.01579469042
0.01578169087
0.01576895565
0.01575647919
0.01574425605
0.01573228092
0.01572054861
0.01570905407
0.01569779235
0.0156867586
0.01567594812
0.01566535627
0.01565497855
0.01564481055
0.01563484794
0.01562508652
0.01561552216
0.01560615081
0.01559696854
0.01558797148
0.01557915585
0.01557051796
0.01556205418
0.01555376098
0.01554563489
0.01553767252
0.01552987055
0.01552222572
0.01551473486
0.01550739485
0.01550020264
0.01549315524
0.01548624972
0.01547948323
0.01547285295
0.01546635614
0.01545999011
0.01545375222
0.01544763989
0.0154416506
0.01543578185
0.01543003124
0.01542439638
0.01541887494
0.01541346464
0.01540816325
0.01540296858
0.01539787848
0.01539289085
0.01538800363
0.0153832148
0.01537852239
0.01537392446
0.01536941912
0.01536500449
0.01536067876
0.01535644015
0.0153522869
0.0153482173
0.01534422968
0.01534032237
0.01533649378
0.01533274231
0.01532906643
0.01532546461
0.01532193536
0.01531847723
0.01531508879
0.01531176863
0.0153085154
0.01530532773
0.01530220433
0.01529914388
0.01529614513
0.01529320685
0.0152903278
0.01528750681
0.01528474271
0.01528203435
0.01527938061
0.01527678039
0.01527423263
0.01527173626
0.01526929024
0.01526689358
0.01526454527
0.01526224434
0.01525998984
0.01525778084
0.01525561642
0.01525349568
0.01525141774
0.01524938175
0.01524738686
0.01524543224
0.01524351707
0.01524164058
0.01523980197
0.01523800049
0.01523623539
0.01523450593
0.0152328114
0.01523115109
0.01522952431
0.0152279304
0.01522636868
0.01522483851
0.01522333926
0.01522187029
0.015220431
0.0152190208
0.01521763909
0.01521628529
0.01521495886
0.01521365923
0.01521238587
0.01521113825
0.01520991584
0.01520871814
0.01520754465
0.01520639488
0.01520526835
0.0152041646
0.01520308316
0.01520202359
0.01520098544
0.01519996828
0.01519897169
0.01519799525
0.01519703856
0.01519610121
0.01519518282
0.015194283
0.01519340138
0.01519253759
0.01519169127
0.01519086207
0.01519004965
0.01518925365
0.01518847376
0.01518770965
0.01518696099
0.01518622748
0.0151855088
0.01518480467
0.01518411478
0.01518343886
0.0151827766
0.01518212775
0.01518149203
0.01518086917
0.01518025891
0.01517966101
0.0151790752
0.01517850125
0.01517793891
0.01517738796
0.01517684815
0.01517631927
0.0151758011
0.01517529341
0.015174796
0.01517430866
0.01517383118
0.01517336337
0.01517290502
0.01517245596
0.01517201599
0.01517158492
0.01517116258
0.01517074879
0.01517034338
0.01516994617
0.01516955701
0.01516917573
0.01516880217
0.01516843616
0.01516807758
0.01516772625
0.01516738203
0.01516704478
0.01516671437
0.01516639064
0.01516607347
0.01516576272
0.01516545826
0.01516515996
0.01516486771
0.01516458137
0.01516430083
0.01516402597
0.01516375668
0.01516349284
0.01516323433
0.01516298106
0.01516273292
0.0151624898
0.0151622516
0.01516201823
0.01516178957
0.01516156554
0.01516134605
0.015161131
0.0151609203
0.01516071386
0.0151605116
0.01516031343
0.01516011927
0.01515992904
0.01515974267
0.01515956006
0.01515938115
0.01515920587
0.01515903414
0.01515886589
0.01515870105
0.01515853956
0.01515838135
0.01515822636
0.01515807453
0.01515792579
0.01515778009
0.01515763738
0.01515749759
0.01515736068
0.01515722659
0.01515709528
0.01515696669
0.01515684077
0.0151567175
0.01515659681
0.01515647868
0.01515636305
0.01515624989
0.01515613916
0.01515603084
0.01515592487
0.01515582123
0.01515571989
0.01515562082
0.01515552397
0.01515542935
0.01515533688
0.0151552466
0.0151551584
0.01515507235
0.01515498832
0.01515490642
0.01515482646
0.01515474862
0.01515467262
0.01515459876
0.01515452663
0.01515445668
0.01515438832
0.01515432221
0.01515425752
0.01515419523
0.0151541341
0.01515407561
0.01515401796
0.01515396336
0.01515390917
0.01515385868
0.01515380813
0.01515376239
0.01515371619
0.01515367678
0.01515363707
0.01515360765
0.01515357973
0.0151535673
0.01515356079
0.01515356079
0.01515356079
1
0.3448836491
0.2006672452
0.1549666289
0.1318938663
0.1175978187
0.1077670839
0.1005571196
0.09502405182
0.09062809866
0.08703689993
0.08403490155
0.08147678868
0.07926154531
0.07731711082
0.07559088858
0.07404367228
0.07264565546
0.0713737534
0.07020977311
0.06913914235
0.06815001362
0.06723262317
0.0663788256
0.06558175127
0.06483555021
0.064135198
0.06347634658
0.06285520796
0.06226846236
0.06171318484
0.06118678599
0.06068696348
0.0602116621
0.05975904058
0.05932744377
0.05891537915
0.05852149698
0.05814457323
0.05778349506
0.05743724827
0.0571049064
0.0567856213
0.05647861492
0.0561831721
0.05589863426
0.05562439384
0.05535988936
0.05510460114
0.05485804737
0.05461978071
0.05438938526
0.05416647375
0.05395068514
0.05374168241
0.05353915056
0.05334279483
0.05315233908
0.05296752435
0.05278810749
0.05261386
0.0524445669
0.05228002576
0.05212004575
0.05196444686
0.05181305907
0.05166572172
0.05152228281
0.05138259844
0.05124653226
0.05111395497
0.05098474386
0.05085878236
0.0507359597
0.05061617048
0.05049931439
0.05038529585
0.05027402374
0.05016541116
0.0500593751
0.0499558363
0.04985471896
0.04975595059
0.04965946178
0.04956518603
0.04947305964
0.04938302147
0.04929501287
0.0492089775
0.04912486124
0.04904261203
0.0489621798
0.04888351636
0.04880657528
0.04873131181
0.04865768282
0.0485856467
0.04851516325
0.04844619369
0.04837870052
0.0483126475
0.04824799957
0.0481847228
0.04812278436
0.04806215244
0.04800279621
0.04794468579
0.0478877922
0.04783208732
0.04777754387
0.04772413534
0.04767183599
0.04762062083
0.04757046552
0.04752134645
0.0474732406
0.04742612561
0.04737997971
0.04733478168
0.0472905109
0.04724714723
0.04720467109
0.04716306337
0.04712230545
0.04708237916
0.04704326681
0.04700495111
0.04696741519
0.04693064261
0.0468946173
0.04685932356
0.0468247461
0.04679086994
0.04675768048
0.04672516342
0.04669330484
0.04666209107
0.04663150881
0.04660154501
0.04657218694
0.04654342214
0.04651523842
0.04648762388
0.04646056686
0.04643405595
0.04640808
0.04638262809
0.04635768955
0.04633325392
0.04630931098
0.0462858507
0.0462628633
0.04624033917
0.04621826892
0.04619664337
0.0461754535
0.04615469051
0.04613434575
0.04611441079
0.04609487733
0.04607573728
0.0460569827
0.0460386058
0.04602059898
0.04600295478
0.04598566588
0.04596872513
0.04595212552
0.04593586018
0.04591992239
0.04590430554
0.04588900319
0.045874009
0.04585931678
0.04584492045
0.04583081407
0.04581699181
0.04580344795
0.04579017689
0.04577717316
0.04576443137
0.04575194628
0.04573971271
0.04572772561
0.04571598002
0.04570447111
0.0456931941
0.04568214434
0.04567131726
0.04566070839
0.04565031334
0.04564012781
0.0456301476
0.04562036857
0.04561078668
0.04560139798
0.04559219857
0.04558318466
0.0455743525
0.04556569846
0.04555721894
0.04554891045
0.04554076953
0.04553279282
0.04552497702
0.04551731889
0.04550981527
0.04550246303
0.04549525914
0.04548820062
0.04548128453
0.04547450802
0.04546786827
0.04546136253
0.04545498811
0.04544874236
0.04544262269
0.04543662656
0.04543075149
0.04542499504
0.04541935482
0.04541382849
0.04540841376
0.04540310838
0.04539791015
0.0453928169
0.04538782653
0.04538293696
0.04537814617
0.04537345215
0.04536885296
0.04536434669
0.04535993147
0.04535560546
0.04535136687
0.04534721392
0.0453431449
0.04533915811
0.0453352519
0.04533142463
0.04532767472
0.04532400061
0.04532040076
0.04531687369
0.04531341792
0.04531003201
0.04530671455
0.04530346417
0.0453002795
0.04529715923
0.04529410205
0.04529110669
0.0452881719
0.04528529647
0.04528247918
0.04527971886
0.04527701438
0.04527436459
0.0452717684
0.04526922472
0.04526673249
0.04526429067
0.04526189825
0.04525955422
0.04525725762
0.04525500747
0.04525280285
0.04525064283
0.04524852651
0.045246453
0.04524442146
0.04524243102
0.04524048085
0.04523857014
0.0452366981
0.04523486394
0.0452330669
0.04523130623
0.04522958118
0.04522789105
0.04522623513
0.04522461272
0.04522302314
0.04522146574
0.04521993987
0.04521844488
0.04521698015
0.04521554506
0.04521413903
0.04521276147
0.04521141178
0.04521008943
0.04520879384
0.04520752448
0.04520628082
0.04520506234
0.04520386853
0.04520269889
0.04520155292
0.04520043017
0.04519933014
0.04519825239
0.04519719646
0.04519616191
0.04519514831
0.04519415523
0.04519318226
0.04519222899
0.04519129502
0.04519037996
0.04518948344
0.04518860506
0.04518774447
0.0451869013
0.04518607521
0.04518526584
0.04518447286
0.04518369593
0.04518293473
0.04518218894
0.04518145825
0.04518074234
0.04518004093
0.04517935371
0.0451786804
0.04517802072
0.04517737439
0.04517674114
0.0451761207
0.04517551282
0.04517491724
0.04517433371
0.045173762
0.04517320185
0.04517265305
0.04517211536
0.04517158857
0.04517107245
0.04517056679
0.04517007139
0.04516958605
0.04516911057
0.04516864477
0.04516818845
0.04516774143
0.04516730355
0.04516687462
0.04516645449
0.045166043
0.04516563998
0.04516524529
0.04516485878
0.04516448032
0.04516410977
0.04516374699
0.04516339185
0.04516304426
0.04516270406
0.04516237116
0.04516204544
0.04516172682
0.04516141516
0.04516111041
0.04516081241
0.04516052116
0.04516023646
0.04515995836
0.04515968662
0.04515942134
0.04515916224
0.0451589095
0.04515866273
0.04515842224
0.0451581875
0.04515795902
0.04515773603
0.04515751931
0.04515730777
0.04515710261
0.04515690222
0.04515670843
0.04515651891
0.04515633636
0.0451561574
0.04515598606
0.04515581741
0.04515565745
0.04515549907
0.04515535114
0.0451552035
0.04515506937
0.0451549345
0.0451548186
0.04515470247
0.04515461513
0.04515453278
0.04515449391
0.04515447239
0.04515447239
0.04515447239
1
0.5187651866
0.3274011944
0.2553467805
0.2178477671
0.1944026526
0.1782107411
0.166306134
0.1571570567
0.1498824528
0.143937555
0.1389678783
0.1347337917
0.1310683325
0.1278521714
0.1249980805
0.1224409659
0.1201313034
0.118030721
0.1161089741
0.1143418402
0.1127096318
0.111196131
0.1097878149
0.1084732851
0.1072428402
0.1060881525
0.105002019
0.1039781676
0.1030111038
0.1020959883
0.1012285388
0.1004049486
0.09962182067
0.09887611235
0.09816508911
0.09748628561
0.09683747268
0.09621662916
0.09562191769
0.09505166399
0.09450433879
0.09397854226
0.09347299035
0.09298650293
0.09251799331
0.09206645904
0.09163097381
0.09121068026
0.09080478362
0.09041254598
0.09003328131
0.08966635088
0.08931115923
0.08896715052
0.08863380527
0.08831063739
0.0879971915
0.08769304057
0.08739778367
0.08711104402
0.08683246713
0.08656171924
0.08629848573
0.08604246976
0.08579339107
0.08555098473
0.08531500018
0.08508520016
0.08486135989
0.08464326621
0.08443071682
0.08422351957
0.08402149183
0.08382445986
0.0836322583
0.0834447296
0.08326172356
0.08308309691
0.08290871284
0.08273844069
0.08257215553
0.08240973786
0.08225107326
0.08209605216
0.08194456953
0.08179652462
0.08165182075
0.08151036507
0.08137206837
0.08123684487
0.08110461205
0.08097529046
0.08084880361
0.08072507776
0.08060404181
0.08048562719
0.08036976768
0.08025639936
0.08014546044
0.08003689121
0.07993063389
0.07982663261
0.07972483324
0.07962518337
0.07952763223
0.07943213059
0.07933863069
0.07924708624
0.07915745226
0.07906968511
0.0789837424
0.07889958293
0.07881716665
0.07873645464
0.07865740902
0.07857999295
0.07850417056
0.07842990695
0.07835716811
0.07828592093
0.07821613314
0.07814777328
0.07808081069
0.07801521548
0.07795095849
0.07788801127
0.07782634607
0.07776593579
0.07770675399
0.07764877487
0.0775919732
0.07753632437
0.07748180433
0.07742838957
0.07737605714
0.07732478459
0.07727455
0.07722533192
0.07717710939
0.07712986191
0.07708356945
0.07703821239
0.07699377157
0.07695022822
0.076907564
0.07686576094
0.07682480149
0.07678466844
0.07674534498
0.07670681464
0.07666906129
0.07663206917
0.07659582281
0.07656030711
0.07652550726
0.07649140876
0.07645799742
0.07642525934
0.07639318091
0.0763617488
0.07633094997
0.07630077161
0.07627120123
0.07624222654
0.07621383554
0.07618601646
0.07615875778
0.0761320482
0.07610587666
0.07608023234
0.07605510461
0.07603048308
0.07600635756
0.07598271806
0.07595955481
0.07593685823
0.07591461892
0.0758928277
0.07587147555
0.07585055364
0.07583005332
0.0758099661
0.07579028369
0.07577099795
0.0757521009
0.07573358472
0.07571544175
0.07569766451
0.07568024562
0.07566317788
0.07564645424
0.07563006778
0.07561401172
0.0755982794
0.07558286434
0.07556776013
0.07555296054
0.07553845943
0.07552425081
0.07551032879
0.0754966876
0.0754833216
0.07547022525
0.07545739313
0.07544481992
0.07543250041
0.0754204295
0.07540860218
0.07539701356
0.07538565883
0.07537453327
0.07536363229
0.07535295135
0.07534248603