# vtk DataFile Version 2.0
FlowField
ASCII
DATASET STRUCTURED_GRID
DIMENSIONS 400 1 200
POINTS 80000 float
0 0 0
0.08 0 0
0.16 0 0
0.24 0 0
0.32 0 0
0.4 0 0
0.48 0 0
0.56 0 0
0.64 0 0
0.72 0 0
0.8 0 0
0.88 0 0
0.96 0 0
1.04 0 0
1.12 0 0
1.2 0 0
1.28 0 0
1.36 0 0
1.44 0 0
1.52 0 0
1.6 0 0
1.68 0 0
1.76 0 0
1.84 0 0
1.92 0 0
2 0 0
2.08 0 0
2.16 0 0
2.24 0 0
2.32 0 0
2.4 0 0
2.48 0 0
2.56 0 0
2.64 0 0
2.72 0 0
2.8 0 0
2.88 0 0
2.96 0 0
3.04 0 0
3.12 0 0
3.2 0 0
3.28 0 0
3.36 0 0
3.44 0 0
3.52 0 0
3.6 0 0
3.68 0 0
3.76 0 0
3.84 0 0
3.92 0 0
4 0 0
4.08 0 0
4.16 0 0
4.24 0 0
4.32 0 0
4.4 0 0
4.48 0 0
4.56 0 0
4.64 0 0
4.72 0 0
4.8 0 0
4.88 0 0
4.96 0 0
5.04 0 0
5.12 0 0
5.2 0 0
5.28 0 0
5.36 0 0
5.44 0 0
5.52 0 0
5.6 0 0
5.68 0 0
5.76 0 0
5.84 0 0
5.92 0 0
6 0 0
6.08 0 0
6.16 0 0
6.24 0 0
6.32 0 0
6.4 0 0
6.48 0 0
6.56 0 0
6.64 0 0
6.72 0 0
6.8 0 0
6.88 0 0
6.96 0 0
7.04 0 0
7.12 0 0
7.2 0 0
7.28 0 0
7.36 0 0
7.44 0 0
7.52 0 0
7.6 0 0
7.68 0 0
7.76 0 0
7.84 0 0
7.92 0 0
8 0 0
8.08 0 0
8.16 0 0
8.24 0 0
8.32 0 0
8.4 0 0
8.48 0 0
8.56 0 0
8.64 0 0
8.72 0 0
8.8 0 0
8.88 0 0
8.96 0 0
9.04 0 0
9.12 0 0
9.2 0 0
9.28 0 0
9.36 0 0
9.44 0 0
9.52 0 0
9.6 0 0
9.68 0 0
9.76 0 0
9.84 0 0
9.92 0 0
10 0 0
10.08 0 0
10.16 0 0
10.24 0 0
10.32 0 0
10.4 0 0
10.48 0 0
10.56 0 0
10.64 0 0
10.72 0 0
10.8 0 0
10.88 0 0
10.96 0 0
11.04 0 0
11.12 0 0
11.2 0 0
11.28 0 0
11.36 0 0
11.44 0 0
11.52 0 0
11.6 0 0
11.68 0 0
11.76 0 0
11.84 0 0
11.92 0 0
12 0 0
12.08 0 0
12.16 0 0
12.24 0 0
12.32 0 0
12.4 0 0
12.48 0 0
12.56 0 0
12.64 0 0
12.72 0 0
12.8 0 0
12.88 0 0
12.96 0 0
13.04 0 0
13.12 0 0
13.2 0 0
13.28 0 0
13.36 0 0
13.44 0 0
13.52 0 0
13.6 0 0
13.68 0 0
13.76 0 0
13.84 0 0
13.92 0 0
14 0 0
14.08 0 0
14.16 0 0
14.24 0 0
14.32 0 0
14.4 0 0
14.48 0 0
14.56 0 0
14.64 0 0
14.72 0 0
14.8 0 0
14.88 0 0
14.96 0 0
15.04 0 0
15.12 0 0
15.2 0 0
15.28 0 0
15.36 0 0
15.44 0 0
15.52 0 0
15.6 0 0
15.68 0 0
15.76 0 0
15.84 0 0
15.92 0 0
16 0 0
16.08 0 0
16.16 0 0
16.24 0 0
16.32 0 0
16.4 0 0
16.48 0 0
16.56 0 0
16.64 0 0
16.72 0 0
16.8 0 0
16.88 0 0
16.96 0 0
17.04 0 0
17.12 0 0
17.2 0 0
17.28 0 0
17.36 0 0
17.44 0 0
17.52 0 0
17.6 0 0
17.68 0 0
17.76 0 0
17.84 0 0
17.92 0 0
18 0 0
18.08 0 0
18.16 0 0
18.24 0 0
18.32 0 0
18.4 0 0
18.48 0 0
18.56 0 0
18.64 0 0
18.72 0 0
18.8 0 0
18.88 0 0
18.96 0 0
19.04 0 0
19.12 0 0
19.2 0 0
19.28 0 0
19.36 0 0
19.44 0 0
19.52 0 0
19.6 0 0
19.68 0 0
19.76 0 0
19.84 0 0
19.92 0 0
20 0 0
20.08 0 0
20.16 0 0
20.24 0 0
20.32 0 0
20.4 0 0
20.48 0 0
20.56 0 0
20.64 0 0
20.72 0 0
20.8 0 0
20.88 0 0
20.96 0 0
21.04 0 0
21.12 0 0
21.2 0 0
21.28 0 0
21.36 0 0
21.44 0 0
21.52 0 0
21.6 0 0
21.68 0 0
21.76 0 0
21.84 0 0
21.92 0 0
22 0 0
22.08 0 0
22.16 0 0
22.24 0 0
22.32 0 0
22.4 0 0
22.48 0 0
22.56 0 0
22.64 0 0
22.72 0 0
22.8 0 0
22.88 0 0
22.96 0 0
23.04 0 0
23.12 0 0
23.2 0 0
23.28 0 0
23.36 0 0
23.44 0 0
23.52 0 0
23.6 0 0
23.68 0 0
23.76 0 0
23.84 0 0
23.92 0 0
24 0 0
24.08 0 0
24.16 0 0
24.24 0 0
24.32 0 0
24.4 0 0
24.48 0 0
24.56 0 0
24.64 0 0
24.72 0 0
24.8 0 0
24.88 0 0
24.96 0 0
25.04 0 0
25.12 0 0
25.2 0 0
25.28 0 0
25.36 0 0
25.44 0 0
25.52 0 0
25.6 0 0
25.68 0 0
25.76 0 0
25.84 0 0
25.92 0 0
26 0 0
26.08 0 0
26.16 0 0
26.24 0 0
26.32 0 0
26.4 0 0
26.48 0 0
26.56 0 0
26.64 0 0
26.72 0 0
26.8 0 0
26.88 0 0
26.96 0 0
27.04 0 0
27.12 0 0
27.2 0 0
27.28 0 0
27.36 0 0
27.44 0 0
27.52 0 0
27.6 0 0
27.68 0 0
27.76 0 0
27.84 0 0
27.92 0 0
28 0 0
28.08 0 0
28.16 0 0
28.24 0 0
28.32 0 0
28.4 0 0
28.48 0 0
28.56 0 0
28.64 0 0
28.72 0 0
28.8 0 0
28.88 0 0
28.96 0 0
29.04 0 0
29.12 0 0
29.2 0 0
29.28 0 0
29.36 0 0
29.44 0 0
29.52 0 0
29.6 0 0
29.68 0 0
29.76 0 0
29.84 0 0
29.92 0 0
30 0 0
30.08 0 0
30.16 0 0
30.24 0 0
30.32 0 0
30.4 0 0
30.48 0 0
30.56 0 0
30.64 0 0
30.72 0 0
30.8 0 0
30.88 0 0
30.96 0 0
31.04 0 0
31.12 0 0
31.2 0 0
31.28 0 0
31.36 0 0
31.44 0 0
31.52 0 0
31.6 0 0
31.68 0 0
31.76 0 0
31.84 0 0
31.92 0 0
0 0.005 0
0.08 0.005 0
0.16 0.005 0
0.24 0.005 0
0.32 0.005 0
0.4 0.005 0
0.48 0.005 0
0.56 0.005 0
0.64 0.005 0
0.72 0.005 0
0.8 0.005 0
0.88 0.005 0
0.96 0.005 0
1.04 0.005 0
1.12 0.005 0
1.2 0.005 0
1.28 0.005 0
1.36 0.005 0
1.44 0.005 0
1.52 0.005 0
1.6 0.005 0
1.68 0.005 0
1.76 0.005 0
1.84 0.005 0
1.92 0.005 0
2 0.005 0
2.08 0.005 0
2.16 0.005 0
2.24 0.005 0
2.32 0.005 0
2.4 0.005 0
2.48 0.005 0
2.56 0.005 0
2.64 0.005 0
2.72 0.005 0
2.8 0.005 0
2.88 0.005 0
2.96 0.005 0
3.04 0.005 0
3.12 0.005 0
3.2 0.005 0
3.28 0.005 0
3.36 0.005 0
3.44 0.005 0
3.52 0.005 0
3.6 0.005 0
3.68 0.005 0
3.76 0.005 0
3.84 0.005 0
3.92 0.005 0
4 0.005 0
4.08 0.005 0
4.16 0.005 0
4.24 0.005 0
4.32 0.005 0
4.4 0.005 0
4.48 0.005 0
4.56 0.005 0
4.64 0.005 0
4.72 0.005 0
4.8 0.005 0
4.88 0.005 0
4.96 0.005 0
5.04 0.005 0
5.12 0.005 0
5.2 0.005 0
5.28 0.005 0
5.36 0.005 0
5.44 0.005 0
5.52 0.005 0
5.6 0.005 0
5.68 0.005 0
5.76 0.005 0
5.84 0.005 0
5.92 0.005 0
6 0.005 0
6.08 0.005 0
6.16 0.005 0
6.24 0.005 0
6.32 0.005 0
6.4 0.005 0
6.48 0.005 0
6.56 0.005 0
6.64 0.005 0
6.72 0.005 0
6.8 0.005 0
6.88 0.005 0
6.96 0.005 0
7.04 0.005 0
7.12 0.005 0
7.2 0.005 0
7.28 0.005 0
7.36 0.005 0
7.44 0.005 0
7.52 0.005 0
7.6 0.005 0
7.68 0.005 0
7.76 0.005 0
7.84 0.005 0
7.92 0.005 0
8 0.005 0
8.08 0.005 0
8.16 0.005 0
8.24 0.005 0
8.32 0.005 0
8.4 0.005 0
8.48 0.005 0
8.56 0.005 0
8.64 0.005 0
8.72 0.005 0
8.8 0.005 0
8.88 0.005 0
8.96 0.005 0
9.04 0.005 0
9.12 0.005 0
9.2 0.005 0
9.28 0.005 0
9.36 0.005 0
9.44 0.005 0
9.52 0.005 0
9.6 0.005 0
9.68 0.005 0
9.76 0.005 0
9.84 0.005 0
9.92 0.005 0
10 0.005 0
10.08 0.005 0
10.16 0.005 0
10.24 0.005 0
10.32 0.005 0
10.4 0.005 0
10.48 0.005 0
10.56 0.005 0
10.64 0.005 0
10.72 0.005 0
10.8 0.005 0
10.88 0.005 0
10.96 0.005 0
11.04 0.005 0
11.12 0.005 0
11.2 0.005 0
11.28 0.005 0
11.36 0.005 0
11.44 0.005 0
11.52 0.005 0
11.6 0.005 0
11.68 0.005 0
11.76 0.005 0
11.84 0.005 0
11.92 0.005 0
12 0.005 0
12.08 0.005 0
12.16 0.005 0
12.24 0.005 0
12.32 0.005 0
12.4 0.005 0
12.48 0.005 0
12.56 0.005 0
12.64 0.005 0
12.72 0.005 0
12.8 0.005 0
12.88 0.005 0
12.96 0.005 0
13.04 0.005 0
13.12 0.005 0
13.2 0.005 0
13.28 0.005 0
13.36 0.005 0
13.44 0.005 0
13.52 0.005 0
13.6 0.005 0
13.68 0.005 0
13.76 0.005 0
13.84 0.005 0
13.92 0.005 0
14 0.005 0
14.08 0.005 0
14.16 0.005 0
14.24 0.005 0
14.32 0.005 0
14.4 0.005 0
14.48 0.005 0
14.56 0.005 0
14.64 0.005 0
14.72 0.005 0
14.8 0.005 0
14.88 0.005 0
14.96 0.005 0
15.04 0.005 0
15.12 0.005 0
15.2 0.005 0
15.28 0.005 0
15.36 0.005 0
15.44 0.005 0
15.52 0.005 0
15.6 0.005 0
15.68 0.005 0
15.76 0.005 0
15.84 0.005 0
15.92 0.005 0
16 0.005 0
16.08 0.005 0
16.16 0.005 0
16.24 0.005 0
16.32 0.005 0
16.4 0.005 0
16.48 0.005 0
16.56 0.005 0
16.64 0.005 0
16.72 0.005 0
16.8 0.005 0
16.88 0.005 0
16.96 0.005 0
17.04 0.005 0
17.12 0.005 0
17.2 0.005 0
17.28 0.005 0
17.36 0.005 0
17.44 0.005 0
17.52 0.005 0
17.6 0.005 0
17.68 0.005 0
17.76 0.005 0
17.84 0.005 0
17.92 0.005 0
18 0.005 0
18.08 0.005 0
18.16 0.005 0
18.24 0.005 0
18.32 0.005 0
18.4 0.005 0
18.48 0.005 0
18.56 0.005 0
18.64 0.005 0
18.72 0.005 0
18.8 0.005 0
18.88 0.005 0
18.96 0.005 0
19.04 0.005 0
19.12 0.005 0
19.2 0.005 0
19.28 0.005 0
19.36 0.005 0
19.44 0.005 0
19.52 0.005 0
19.6 0.005 0
19.68 0.005 0
19.76 0.005 0
19.84 0.005 0
19.92 0.005 0
20 0.005 0
20.08 0.005 0
20.16 0.005 0
20.24 0.005 0
20.32 0.005 0
20.4 0.005 0
20.48 0.005 0
20.56 0.005 0
20.64 0.005 0
20.72 0.005 0
20.8 0.005 0
20.88 0.005 0
20.96 0.005 0
21.04 0.005 0
21.12 0.005 0
21.2 0.005 0
21.28 0.005 0
21.36 0.005 0
21.44 0.005 0
21.52 0.005 0
21.6 0.005 0
21.68 0.005 0
21.76 0.005 0
21.84 0.005 0
21.92 0.005 0
22 0.005 0
22.08 0.005 0
22.16 0.005 0
22.24 0.005 0
22.32 0.005 0
22.4 0.005 0
22.48 0.005 0
22.56 0.005 0
22.64 0.005 0
22.72 0.005 0
22.8 0.005 0
22.88 0.005 0
22.96 0.005 0
23.04 0.005 0
23.12 0.005 0
23.2 0.005 0
23.28 0.005 0
23.36 0.005 0
23.44 0.005 0
23.52 0.005 0
23.6 0.005 0
23.68 0.005 0
23.76 0.005 0
23.84 0.005 0
23.92 0.005 0
24 0.005 0
24.08 0.005 0
24.16 0.005 0
24.24 0.005 0
24.32 0.005 0
24.4 0.005 0
24.48 0.005 0
24.56 0.005 0
24.64 0.005 0
24.72 0.005 0
24.8 0.005 0
24.88 0.005 0
24.96 0.005 0
25.04 0.005 0
25.12 0.005 0
25.2 0.005 0
25.28 0.005 0
25.36 0.005 0
25.44 0.005 0
25.52 0.005 0
25.6 0.005 0
25.68 0.005 0
25.76 0.005 0
25.84 0.005 0
25.92 0.005 0
26 0.005 0
26.08 0.005 0
26.16 0.005 0
26.24 0.005 0
26.32 0.005 0
26.4 0.005 0
26.48 0.005 0
26.56 0.005 0
26.64 0.005 0
26.72 0.005 0
26.8 0.005 0
26.88 0.005 0
26.96 0.005 0
27.04 0.005 0
27.12 0.005 0
27.2 0.005 0
27.28 0.005 0
27.36 0.005 0
27.44 0.005 0
27.52 0.005 0
27.6 0.005 0
27.68 0.005 0
27.76 0.005 0
27.84 0.005 0
27.92 0.005 0
28 0.005 0
28.08 0.005 0
28.16 0.005 0
28.24 0.005 0
28.32 0.005 0
28.4 0.005 0
28.48 0.005 0
28.56 0.005 0
28.64 0.005 0
28.72 0.005 0
28.8 0.005 0
28.88 0.005 0
28.96 0.005 0
29.04 0.005 0
29.12 0.005 0
29.2 0.005 0
29.28 0.005 0
29.36 0.005 0
29.44 0.005 0
29.52 0.005 0
29.6 0.005 0
29.68 0.005 0
29.76 0.005 0
29.84 0.005 0
29.92 0.005 0
30 0.005 0
30.08 0.005 0
30.16 0.005 0
30.24 0.005 0
30.32 0.005 0
30.4 0.005 0
30.48 0.005 0
30.56 0.005 0
30.64 0.005 0
30.72 0.005 0
30.8 0.005 0
30.88 0.005 0
30.96 0.005 0
31.04 0.005 0
31.12 0.005 0
31.2 0.005 0
31.28 0.005 0
31.36 0.005 0
31.44 0.005 0
31.52 0.005 0
31.6 0.005 0
31.68 0.005 0
31.76 0.005 0
31.84 0.005 0
31.92 0.005 0
0 0.01 0
0.08 0.01 0
0.16 0.01 0
0.24 0.01 0
0.32 0.01 0
0.4 0.01 0
0.48 0.01 0
0.56 0.01 0
0.64 0.01 0
0.72 0.01 0
0.8 0.01 0
0.88 0.01 0
0.96 0.01 0
1.04 0.01 0
1.12 0.01 0
1.2 0.01 0
1.28 0.01 0
1.36 0.01 0
1.44 0.01 0
1.52 0.01 0
1.6 0.01 0
1.68 0.01 0
1.76 0.01 0
1.84 0.01 0
1.92 0.01 0
2 0.01 0
2.08 0.01 0
2.16 0.01 0
2.24 0.01 0
2.32 0.01 0
2.4 0.01 0
2.48 0.01 0
2.56 0.01 0
2.64 0.01 0
2.72 0.01 0
2.8 0.01 0
2.88 0.01 0
2.96 0.01 0
3.04 0.01 0
3.12 0.01 0
3.2 0.01 0
3.28 0.01 0
3.36 0.01 0
3.44 0.01 0
3.52 0.01 0
3.6 0.01 0
3.68 0.01 0
3.76 0.01 0
3.84 0.01 0
3.92 0.01 0
4 0.01 0
4.08 0.01 0
4.16 0.01 0
4.24 0.01 0
4.32 0.01 0
4.4 0.01 0
4.48 0.01 0
4.56 0.01 0
4.64 0.01 0
4.72 0.01 0
4.8 0.01 0
4.88 0.01 0
4.96 0.01 0
5.04 0.01 0
5.12 0.01 0
[...]
POINT_DATA 80000

SCALARS u float 1
LOOKUP_TABLE default
0
-0.1316625604
-0.06826904001
-0.05229576407
-0.04441959981
-0.03957645918
-0.03625933722
-0.03383227017
-0.031972266
-0.03049556416
-0.02928947286
-0.02828115156
-0.02742163753
-0.02667697884
-0.02602300577
-0.02544210606
-0.02492116715
-0.02445022813
-0.0240215774
-0.02362913773
-0.0232680402
-0.02293432448
-0.02262472478
-0.02233651473
-0.02206739327
-0.02181539943
-0.02157884776
-0.02135627874
-0.02114642003
-0.02094815594
-0.020760503
-0.02058259012
-0.0204136425
-0.02025296825
-0.0200999473
-0.01995402212
-0.01981468982
-0.0196814955
-0.01955402658
-0.01943190787
-0.01931479738
-0.01920238266
-0.01909437764
-0.01899051986
-0.01889056803
-0.01879429994
-0.01870151059
-0.01861201048
-0.01852562422
-0.01844218919
-0.01836155439
-0.01828357943
-0.01820813356
-0.01813509489
-0.01806434964
-0.01799579144
-0.01792932077
-0.01786484437
-0.01780227481
-0.01774152996
-0.01768253265
-0.01762521029
-0.01756949449
-0.01751532082
-0.01746262846
-0.01741136
-0.01736146115
-0.01731288058
-0.01726556968
-0.01721948239
-0.01717457502
-0.01713080613
-0.01708813634
-0.01704652822
-0.01700594616
-0.01696635628
-0.01692772628
-0.01689002538
-0.01685322421
-0.01681729474
-0.01678221017
-0.01674794491
-0.01671447445
-0.01668177534
-0.01664982512
-0.01661860224
-0.01658808607
-0.01655825678
-0.01652909532
-0.01650058341
-0.01647270346
-0.01644543855
-0.01641877238
-0.01639268927
-0.0163671741
-0.01634221227
-0.01631778974
-0.01629389291
-0.01627050868
-0.01624762436
-0.01622522771
-0.01620330688
-0.01618185039
-0.01616084715
-0.0161402864
-0.01612015772
-0.01610045101
-0.01608115646
-0.01606226457
-0.01604376611
-0.01602565212
-0.01600791389
-0.01599054298
-0.01597353114
-0.0159568704
-0.01594055297
-0.01592457128
-0.01590891797
-0.01589358586
-0.01587856798
-0.01586385751
-0.01584944782
-0.01583533246
-0.01582150511
-0.01580795964
-0.01579469006
-0.0157816905
-0.01576895528
-0.01575647881
-0.01574425566
-0.01573228052
-0.01572054821
-0.01570905366
-0.01569779193
-0.01568675818
-0.01567594768
-0.01566535583
-0.0156549781
-0.01564481008
-0.01563484747
-0.01562508604
-0.01561552166
-0.0156061503
-0.01559696802
-0.01558797095
-0.0155791553
-0.0155705174
-0.01556205361
-0.01555376039
-0.01554563429
-0.0155376719
-0.01552986991
-0.01552222507
-0.01551473419
-0.01550739416
-0.01550020193
-0.01549315451
-0.01548624897
-0.01547948246
-0.01547285216
-0.01546635533
-0.01545998927
-0.01545375136
-0.01544763901
-0.01544164968
-0.01543578092
-0.01543003028
-0.01542439539
-0.01541887392
-0.01541346359
-0.01540816217
-0.01540296747
-0.01539787734
-0.01539288968
-0.01538800242
-0.01538321357
-0.01537852112
-0.01537392316
-0.01536941777
-0.01536500311
-0.01536067735
-0.0153564387
-0.01535228542
-0.01534821578
-0.01534422811
-0.01534032077
-0.01533649214
-0.01533274063
-0.01532906471
-0.01532546285
-0.01532193356
-0.01531847539
-0.01531508691
-0.01531176672
-0.01530851344
-0.01530532574
-0.01530220229
-0.0152991418
-0.01529614302
-0.01529320469
-0.01529032561
-0.01528750458
-0.01528474044
-0.01528203204
-0.01527937826
-0.01527677801
-0.01527423021
-0.0152717338
-0.01526928776
-0.01526689106
-0.01526454272
-0.01526224176
-0.01525998723
-0.0152577782
-0.01525561375
-0.01525349298
-0.01525141502
-0.015249379
-0.01524738408
-0.01524542944
-0.01524351426
-0.01524163774
-0.01523979911
-0.01523799761
-0.01523623249
-0.01523450302
-0.01523280847
-0.01523114815
-0.01522952137
-0.01522792744
-0.01522636571
-0.01522483553
-0.01522333627
-0.0152218673
-0.015220428
-0.01521901779
-0.01521763607
-0.01521628228
-0.01521495584
-0.01521365621
-0.01521238285
-0.01521113522
-0.01520991282
-0.01520871511
-0.01520754162
-0.01520639186
-0.01520526533
-0.01520416158
-0.01520308015
-0.01520202058
-0.01520098243
-0.01519996527
-0.01519896869
-0.01519799225
-0.01519703556
-0.01519609821
-0.01519517983
-0.01519428001
-0.0151933984
-0.01519253461
-0.0151916883
-0.0151908591
-0.01519004668
-0.01518925069
-0.0151884708
-0.01518770669
-0.01518695804
-0.01518622454
-0.01518550587
-0.01518480174
-0.01518411186
-0.01518343594
-0.01518277369
-0.01518212485
-0.01518148913
-0.01518086628
-0.01518025603
-0.01517965814
-0.01517907234
-0.0151784984
-0.01517793607
-0.01517738512
-0.01517684533
-0.01517631646
-0.0151757983
-0.01517529062
-0.01517479322
-0.01517430589
-0.01517382843
-0.01517336063
-0.01517290229
-0.01517245324
-0.01517201328
-0.01517158222
-0.0151711599
-0.01517074612
-0.01517034072
-0.01516994352
-0.01516955437
-0.01516917309
-0.01516879954
-0.01516843354
-0.01516807495
-0.01516772363
-0.01516737941
-0.01516704217
-0.01516671174
-0.01516638801
-0.01516607083
-0.01516576006
-0.01516545559
-0.01516515727
-0.015164865
-0.01516457863
-0.01516429806
-0.01516402317
-0.01516375383
-0.01516348995
-0.0151632314
-0.01516297808
-0.01516272989
-0.01516248672
-0.01516224847
-0.01516201504
-0.01516178634
-0.01516156227
-0.01516134275
-0.01516112767
-0.01516091696
-0.01516071053
-0.01516050829
-0.01516031017
-0.01516011609
-0.01515992598
-0.01515973975
-0.01515955734
-0.01515937868
-0.0151592037
-0.01515903234
-0.01515886454
-0.01515870022
-0.01515853935
-0.01515838185
-0.01515822768
-0.01515807678
-0.0151579291
-0.01515778459
-0.01515764322
-0.01515750493
-0.01515736967
-0.01515723742
-0.01515710812
-0.01515698175
-0.01515685825
-0.01515673761
-0.01515661978
-0.01515650473
-0.01515639243
-0.01515628284
-0.01515617594
-0.0151560717
-0.01515597009
-0.01515587108
-0.01515577464
-0.01515568074
-0.01515558936
-0.01515550048
-0.01515541404
-0.01515533006
-0.01515524847
-0.01515516927
-0.01515509241
-0.0151550179
-0.01515494565
-0.01515487572
-0.01515480796
-0.01515474249
-0.0151546791
-0.01515461798
-0.01515455883
-0.01515450194
-0.01515444689
-0.01515439414
-0.01515434303
-0.01515429433
-0.01515424704
-0.01515420236
-0.01515415879
-0.01515411819
-0.01515407838
-0.01515404225
-0.0151540066
-0.01515397598
-0.01515394589
-0.01515392336
-0.01515390239
-0.01515389299
-0.01515388705
-0.01515388705
-0.01515388705
1
0.1316625604
0.06826904001
0.05229576407
0.04441959981
0.03957645918
0.03625933722
0.03383227017
0.031972266
0.03049556416
0.02928947286
0.02828115156
0.02742163753
0.02667697884
0.02602300577
0.02544210606
0.02492116715
0.02445022813
0.0240215774
0.02362913773
0.0232680402
0.02293432448
0.02262472478
0.02233651473
0.02206739327
0.02181539943
0.02157884776
0.02135627874
0.02114642003
0.02094815594
0.020760503
0.02058259012
0.0204136425
0.02025296825
0.0200999473
0.01995402212
0.01981468982
0.0196814955
0.01955402658
0.01943190787
0.01931479738
0.01920238266
0.01909437764
0.01899051986
0.01889056803
0.01879429994
0.01870151059
0.01861201048
0.01852562422
0.01844218919
0.01836155439
0.01828357943
0.01820813356
0.01813509489
0.01806434964
0.01799579144
0.01792932077
0.01786484437
0.01780227481
0.01774152996
0.01768253265
0.01762521029
0.01756949449
0.01751532082
0.01746262846
0.01741136
0.01736146115
0.01731288058
0.01726556968
0.01721948239
0.01717457502
0.01713080613
0.01708813634
0.01704652822
0.01700594616
0.01696635628
0.01692772628
0.01689002538
0.01685322421
0.01681729474
0.01678221017
0.01674794491
0.01671447445
0.01668177534
0.01664982512
0.01661860224
0.01658808607
0.01655825678
0.01652909532
0.01650058341
0.01647270346
0.01644543855
0.01641877238
0.01639268927
0.0163671741
0.01634221227
0.01631778974
0.01629389291
0.01627050868
0.01624762436
0.01622522771
0.01620330688
0.01618185039
0.01616084715
0.0161402864
0.01612015772
0.01610045101
0.01608115646
0.01606226457
0.01604376611
0.01602565212
0.01600791389
0.01599054298
0.01597353114
0.0159568704
0.01594055297
0.01592457128
0.01590891797
0.01589358586
0.01587856798
0.01586385751
0.01584944782
0.01583533246
0.01582150511
0.01580795964
0.01579469006
0.0157816905
0.01576895528
0.01575647881
0.01574425566
0.01573228052
0.01572054821
0.01570905366
0.01569779193
0.01568675818
0.01567594768
0.01566535583
0.0156549781
0.01564481008
0.01563484747
0.01562508604
0.01561552166
0.0156061503
0.01559696802
0.01558797095
0.0155791553
0.0155705174
0.01556205361
0.01555376039
0.01554563429
0.0155376719
0.01552986991
0.01552222507
0.01551473419
0.01550739416
0.01550020193
0.01549315451
0.01548624897
0.01547948246
0.01547285216
0.01546635533
0.01545998927
0.01545375136
0.01544763901
0.01544164968
0.01543578092
0.01543003028
0.01542439539
0.01541887392
0.01541346359
0.01540816217
0.01540296747
0.01539787734
0.01539288968
0.01538800242
0.01538321357
0.01537852112
0.01537392316
0.01536941777
0.01536500311
0.01536067735
0.0153564387
0.01535228542
0.01534821578
0.01534422811
0.01534032077
0.01533649214
0.01533274063
0.01532906471
0.01532546285
0.01532193356
0.01531847539
0.01531508691
0.01531176672
0.01530851344
0.01530532574
0.01530220229
0.0152991418
0.01529614302
0.01529320469
0.01529032561
0.01528750458
0.01528474044
0.01528203204
0.01527937826
0.01527677801
0.01527423021
0.0152717338
0.01526928776
0.01526689106
0.01526454272
0.01526224176
0.01525998723
0.0152577782
0.01525561375
0.01525349298
0.01525141502
0.015249379
0.01524738408
0.01524542944
0.01524351426
0.01524163774
0.01523979911
0.01523799761
0.01523623249
0.01523450302
0.01523280847
0.01523114815
0.01522952137
0.01522792744
0.01522636571
0.01522483553
0.01522333627
0.0152218673
0.015220428
0.01521901779
0.01521763607
0.01521628228
0.01521495584
0.01521365621
0.01521238285
0.01521113522
0.01520991282
0.01520871511
0.01520754162
0.01520639186
0.01520526533
0.01520416158
0.01520308015
0.01520202058
0.01520098243
0.01519996527
0.01519896869
0.01519799225
0.01519703556
0.01519609821
0.01519517983
0.01519428001
0.0151933984
0.01519253461
0.0151916883
0.0151908591
0.01519004668
0.01518925069
0.0151884708
0.01518770669
0.01518695804
0.01518622454
0.01518550587
0.01518480174
0.01518411186
0.01518343594
0.01518277369
0.01518212485
0.01518148913
0.01518086628
0.01518025603
0.01517965814
0.01517907234
0.0151784984
0.01517793607
0.01517738512
0.01517684533
0.01517631646
0.0151757983
0.01517529062
0.01517479322
0.01517430589
0.01517382843
0.01517336063
0.01517290229
0.01517245324
0.01517201328
0.01517158222
0.0151711599
0.01517074612
0.01517034072
0.01516994352
0.01516955437
0.01516917309
0.01516879954
0.01516843354
0.01516807495
0.01516772363
0.01516737941
0.01516704217
0.01516671174
0.01516638801
0.01516607083
0.01516576006
0.01516545559
0.01516515727
0.015164865
0.01516457863
0.01516429806
0.01516402317
0.01516375383
0.01516348995
0.0151632314
0.01516297808
0.01516272989
0.01516248672
0.01516224847
0.01516201504
0.01516178634
0.01516156227
0.01516134275
0.01516112767
0.01516091696
0.01516071053
0.01516050829
0.01516031017
0.01516011609
0.01515992598
0.01515973975
0.01515955734
0.01515937868
0.0151592037
0.01515903234
0.01515886454
0.01515870022
0.01515853935
0.01515838185
0.01515822768
0.01515807678
0.0151579291
0.01515778459
0.01515764322
0.01515750493
0.01515736967
0.01515723742
0.01515710812
0.01515698175
0.01515685825
0.01515673761
0.01515661978
0.01515650473
0.01515639243
0.01515628284
0.01515617594
0.0151560717
0.01515597009
0.01515587108
0.01515577464
0.01515568074
0.01515558936
0.01515550048
0.01515541404
0.01515533006
0.01515524847
0.01515516927
0.01515509241
0.0151550179
0.01515494565
0.01515487572
0.01515480796
0.01515474249
0.0151546791
0.01515461798
0.01515455883
0.01515450194
0.01515444689
0.01515439414
0.01515434303
0.01515429433
0.01515424704
0.01515420236
0.01515415879
0.01515411819
0.01515407838
0.01515404225
0.0151540066
0.01515397598
0.01515394589
0.01515392336
0.01515390239
0.01515389299
0.01515388705
0.01515388705
0.01515388705
1
0.344883649
0.2006672452
0.1549666288
0.1318938662
0.1175978186
0.1077670838
0.1005571195
0.09502405167
0.0906280985
0.08703689976
0.08403490136
0.08147678848
0.07926154511
0.0773171106
0.07559088835
0.07404367205
0.07264565522
0.07137375316
0.07020977286
0.06913914209
0.06815001336
0.06723262289
0.06637882532
0.06558175099
0.06483554991
0.0641351977
0.06347634628
0.06285520765
0.06226846204
0.06171318451
0.06118678566
0.06068696314
0.06021166176
0.05975904023
0.05932744341
0.05891537879
0.05852149661
0.05814457285
0.05778349468
0.05743724789
0.05710490601
0.0567856209
0.05647861451
0.05618317169
0.05589863385
0.05562439342
0.05535988894
0.05510460071
0.05485804693
0.05461978027
0.05438938481
0.05416647329
0.05395068468
0.05374168194
0.05353915009
0.05334279435
0.0531523386
0.05296752386
0.052788107
0.0526138595
0.0524445664
0.05228002525
0.05212004524
0.05196444634
0.05181305855
0.05166572119
0.05152228228
0.0513825979
0.05124653172
0.05111395442
0.0509847433
0.0508587818
0.05073595913
0.05061616991
0.05049931381
0.05038529526
0.05027402315
0.05016541056
0.0500593745
0.04995583569
0.04985471835
0.04975594997
0.04965946114
0.0495651854
0.049473059
0.04938302082
0.04929501221
0.04920897684
0.04912486057
0.04904261135
0.04896217912
0.04888351567
0.04880657458
0.04873131111
0.04865768211
0.04858564598
0.04851516252
0.04844619295
0.04837869977
0.04831264674
0.0482479988
0.04818472203
0.04812278359
0.04806215165
0.04800279541
0.04794468498
0.04788779138
0.04783208649
0.04777754303
0.04772413449
0.04767183513
0.04762061996
0.04757046464
0.04752134555
0.04747323969
0.04742612469
0.04737997877
0.04733478073
0.04729050993
0.04724714625
0.04720467009
0.04716306235
0.04712230442
0.04708237812
0.04704326575
0.04700495003
0.04696741409
0.04693064149
0.04689461615
0.0468593224
0.04682474491
0.04679086873
0.04675767924
0.04672516216
0.04669330354
0.04666208975
0.04663150746
0.04660154363
0.04657218553
0.04654342069
0.04651523695
0.04648762237
0.04646056531
0.04643405436
0.04640807837
0.04638262642
0.04635768784
0.04633325217
0.04630930917
0.04628584885
0.04626286139
0.04624033721
0.04621826692
0.04619664131
0.04617545138
0.04615468833
0.04613434351
0.04611440849
0.04609487497
0.04607573485
0.04605698019
0.04603860323
0.04602059633
0.04600295205
0.04598566308
0.04596872225
0.04595212256
0.04593585713
0.04591991925
0.04590430232
0.04588899987
0.04587400559
0.04585931328
0.04584491685
0.04583081037
0.04581698801
0.04580344404
0.04579017288
0.04577716904
0.04576442715
0.04575194194
0.04573970826
0.04572772105
0.04571597535
0.04570446632
0.04569318919
0.04568213932
0.04567131212
0.04566070313
0.04565030796
0.04564012231
0.04563014198
0.04562036283
0.04561078082
0.045601392
0.04559219247
0.04558317844
0.04557434617
0.04556569201
0.04555721237
0.04554890376
0.04554076273
0.04553278591
0.04552497
0.04551731176
0.04550980803
0.04550245569
0.0454952517
0.04548819308
0.04548127689
0.04547450029
0.04546786044
0.04546135462
0.04545498011
0.04544873427
0.04544261453
0.04543661832
0.04543074318
0.04542498667
0.04541934638
0.04541381999
0.0454084052
0.04540309977
0.04539790149
0.04539280819
0.04538781778
0.04538292817
0.04537813734
0.04537344328
0.04536884407
0.04536433777
0.04535992253
0.0453555965
0.04535135788
0.04534720492
0.04534313588
0.04533914908
0.04533524286
0.04533141559
0.04532766567
0.04532399156
0.04532039171
0.04531686464
0.04531340887
0.04531002296
0.04530670551
0.04530345513
0.04530027047
0.04529715021
0.04529409303
0.04529109768
0.0452881629
0.04528528747
0.04528247019
0.04527970989
0.04527700542
0.04527435564
0.04527175946
0.04526921579
0.04526672358
0.04526428177
0.04526188936
0.04525954535
0.04525724876
0.04525499863
0.04525279402
0.04525063401
0.04524851771
0.04524644423
0.0452444127
0.04524242228
0.04524047213
0.04523856145
0.04523668943
0.0452348553
0.04523305828
0.04523129763
0.04522957262
0.04522788251
0.04522622662
0.04522460424
0.04522301469
0.04522145733
0.04521993148
0.04521843652
0.04521697183
0.04521553678
0.04521413079
0.04521275325
0.04521140361
0.04521008128
0.04520878573
0.0452075164
0.04520627278
0.04520505433
0.04520386055
0.04520269093
0.045201545
0.04520042226
0.04519932226
0.04519824452
0.0451971886
0.04519615405
0.04519514045
0.04519414736
0.04519317438
0.04519222109
0.04519128709
0.04519037199
0.04518947541
0.04518859698
0.04518773631
0.04518689307
0.04518606688
0.04518525741
0.04518446432
0.04518368727
0.04518292594
0.04518218002
0.04518144919
0.04518073316
0.04518003162
0.04517934428
0.04517867087
0.04517801111
0.04517736473
0.04517673146
0.04517611105
0.04517550326
0.04517490784
0.04517432455
0.04517375317
0.04517319347
0.04517264524
0.04517210827
0.04517158236
0.04517106731
0.04517056294
0.04517006905
0.04516958547
0.04516911204
0.04516864859
0.04516819495
0.04516775098
0.04516731653
0.04516689146
0.04516647563
0.04516606891
0.04516567118
0.04516528231
0.0451649022
0.04516453071
0.04516416776
0.04516381323
0.04516346703
0.04516312905
0.0451627992
0.04516247739
0.04516216353
0.04516185754
0.04516155932
0.0451612688
0.04516098588
0.0451607105
0.04516044255
0.04516018198
0.04515992867
0.0451596826
0.0451594436
0.0451592117
0.04515898668
0.04515876862
0.04515855724
0.04515835269
0.04515815458
0.0451579632
0.04515777799
0.04515759944
0.04515742673
0.04515726067
0.04515710005
0.04515694615
0.04515679719
0.04515665519
0.04515651747
0.04515638724
0.04515626047
0.04515614219
0.04515602646
0.04515592113
0.04515581758
0.04515572812
0.04515564062
0.04515557427
0.04515551284
0.04515548382
0.0451554652
0.0451554652
0.0451554652
1
0.5187651865
0.3274011943
0.2553467804
0.217847767
0.1944026524
0.1782107409
0.1663061338
0.1571570564
0.1498824525
0.1439375547
0.138967878
0.1347337913
0.1310683321
0.1278521711
0.1249980801
0.1224409655
0.120131303
0.1180307206
0.1161089737
0.1143418398
0.1127096314
0.1111961305
0.1097878145
0.1084732847
0.1072428397
0.106088152
0.1050020185
0.1039781671
0.1030111032
0.1020959878
0.1012285383
0.100404948
0.09962182011
0.09887611178
0.09816508853
0.09748628502
0.09683747208
0.09621662855
0.09562191708
0.09505166336
0.09450433816
0.09397854161
0.09347298969
0.09298650227
0.09251799264
0.09206645836
0.09163097312
0.09121067956
0.0908047829
0.09041254526
0.09003328058
0.08966635014
0.08931115848
0.08896714977
0.08863380451
0.08831063661
0.08799719072
0.08769303978
0.08739778287
0.0871110432
0.08683246631
0.08656171841
0.08629848489
0.08604246892
0.08579339021
0.08555098387
0.0853149993
0.08508519927
0.084861359
0.08464326531
0.08443071591
0.08422351865
0.08402149089
0.08382445892
0.08363225735
0.08344472864
0.08326172259
0.08308309592
0.08290871185
0.08273843969
0.08257215452
0.08240973683
0.08225107223
0.08209605112
0.08194456848
0.08179652356
0.08165181968
0.08151036399
0.08137206728
0.08123684376
0.08110461093
0.08097528933
0.08084880247
0.0807250766
0.08060404064
0.08048562601
0.08036976649
0.08025639815
0.08014545922
0.08003688997
0.07993063265
0.07982663134
0.07972483196
0.07962518208
0.07952763092
0.07943212926
0.07933862935
0.07924708488
0.07915745088
0.07906968372
0.07898374099
0.0788995815
0.0788171652
0.07873645317
0.07865740753
0.07857999143
0.07850416902
0.07842990539
0.07835716653
0.07828591932
0.0782161315
0.07814777161
0.078080809
0.07801521376
0.07795095674
0.07788800949
0.07782634425
0.07776593394
0.07770675211
0.07764877295
0.07759197124
0.07753632237
0.07748180228
0.07742838748
0.077376055
0.07732478241
0.07727454777
0.07722532964
0.07717710706
0.07712985953
0.07708356701
0.07703820989
0.07699376901
0.0769502256
0.07690756131
0.07686575818
0.07682479866
0.07678466554
0.076745342
0.07670681158
0.07666905815
0.07663206594
0.07659581949
0.0765603037
0.07652550375
0.07649140516
0.07645799371
0.07642525553
0.07639317699
0.07636174477
0.07633094582
0.07630076735
0.07627119683
0.07624222202
0.07621383089
0.07618601168
0.07615875286
0.07613204314
0.07610587146
0.07608022699
0.07605509911
0.07603047742
0.07600635174
0.07598271208
0.07595954867
0.07593685192
0.07591461244
0.07589282104
0.07587146872
0.07585054662
0.07583004612
0.07580995872
0.07579027612
0.07577099019
0.07575209294
0.07573357657
0.07571543341
0.07569765596
0.07568023688
0.07566316895
0.07564644511
0.07563005844
0.07561400218
0.07559826967
0.0755828544
0.07556774999
0.0755529502
0.0755384489
0.07552424008
0.07551031786
0.07549667649
0.0754833103
0.07547021376
0.07545738146
0.07544480807
0.07543248838
0.07542041729
0.07540858981
0.07539700102
0.07538564612
0.07537452041
0.07536361927
0.07535293819