# vtk DataFile Version 2.0
FlowField
ASCII
DATASET STRUCTURED_GRID
DIMENSIONS 400 1 200
POINTS 80000 float
0 0 0
0.08 0 0
0.16 0 0
0.24 0 0
0.32 0 0
0.4 0 0
0.48 0 0
0.56 0 0
0.64 0 0
0.72 0 0
0.8 0 0
0.88 0 0
0.96 0 0
1.04 0 0
1.12 0 0
1.2 0 0
1.28 0 0
1.36 0 0
1.44 0 0
1.52 0 0
1.6 0 0
1.68 0 0
1.76 0 0
1.84 0 0
1.92 0 0
2 0 0
2.08 0 0
2.16 0 0
2.24 0 0
2.32 0 0
2.4 0 0
2.48 0 0
2.56 0 0
2.64 0 0
2.72 0 0
2.8 0 0
2.88 0 0
2.96 0 0
3.04 0 0
3.12 0 0
3.2 0 0
3.28 0 0
3.36 0 0
3.44 0 0
3.52 0 0
3.6 0 0
3.68 0 0
3.76 0 0
3.84 0 0
3.92 0 0
4 0 0
4.08 0 0
4.16 0 0
4.24 0 0
4.32 0 0
4.4 0 0
4.48 0 0
4.56 0 0
4.64 0 0
4.72 0 0
4.8 0 0
4.88 0 0
4.96 0 0
5.04 0 0
5.12 0 0
5.2 0 0
5.28 0 0
5.36 0 0
5.44 0 0
5.52 0 0
5.6 0 0
5.68 0 0
5.76 0 0
5.84 0 0
5.92 0 0
6 0 0
6.08 0 0
6.16 0 0
6.24 0 0
6.32 0 0
6.4 0 0
6.48 0 0
6.56 0 0
6.64 0 0
6.72 0 0
6.8 0 0
6.88 0 0
6.96 0 0
7.04 0 0
7.12 0 0
7.2 0 0
7.28 0 0
7.36 0 0
7.44 0 0
7.52 0 0
7.6 0 0
7.68 0 0
7.76 0 0
7.84 0 0
7.92 0 0
8 0 0
8.08 0 0
8.16 0 0
8.24 0 0
8.32 0 0
8.4 0 0
8.48 0 0
8.56 0 0
8.64 0 0
8.72 0 0
8.8 0 0
8.88 0 0
8.96 0 0
9.04 0 0
9.12 0 0
9.2 0 0
9.28 0 0
9.36 0 0
9.44 0 0
9.52 0 0
9.6 0 0
9.68 0 0
9.76 0 0
9.84 0 0
9.92 0 0
10 0 0
10.08 0 0
10.16 0 0
10.24 0 0
10.32 0 0
10.4 0 0
10.48 0 0
10.56 0 0
10.64 0 0
10.72 0 0
10.8 0 0
10.88 0 0
10.96 0 0
11.04 0 0
11.12 0 0
11.2 0 0
11.28 0 0
11.36 0 0
11.44 0 0
11.52 0 0
11.6 0 0
11.68 0 0
11.76 0 0
11.84 0 0
11.92 0 0
12 0 0
12.08 0 0
12.16 0 0
12.24 0 0
12.32 0 0
12.4 0 0
12.48 0 0
12.56 0 0
12.64 0 0
12.72 0 0
12.8 0 0
12.88 0 0
12.96 0 0
13.04 0 0
13.12 0 0
13.2 0 0
13.28 0 0
13.36 0 0
13.44 0 0
13.52 0 0
13.6 0 0
13.68 0 0
13.76 0 0
13.84 0 0
13.92 0 0
14 0 0
14.08 0 0
14.16 0 0
14.24 0 0
14.32 0 0
14.4 0 0
14.48 0 0
14.56 0 0
14.64 0 0
14.72 0 0
14.8 0 0
14.88 0 0
14.96 0 0
15.04 0 0
15.12 0 0
15.2 0 0
15.28 0 0
15.36 0 0
15.44 0 0
15.52 0 0
15.6 0 0
15.68 0 0
15.76 0 0
15.84 0 0
15.92 0 0
16 0 0
16.08 0 0
16.16 0 0
16.24 0 0
16.32 0 0
16.4 0 0
16.48 0 0
16.56 0 0
16.64 0 0
16.72 0 0
16.8 0 0
16.88 0 0
16.96 0 0
17.04 0 0
17.12 0 0
17.2 0 0
17.28 0 0
17.36 0 0
17.44 0 0
17.52 0 0
17.6 0 0
17.68 0 0
17.76 0 0
17.84 0 0
17.92 0 0
18 0 0
18.08 0 0
18.16 0 0
18.24 0 0
18.32 0 0
18.4 0 0
18.48 0 0
18.56 0 0
18.64 0 0
18.72 0 0
18.8 0 0
18.88 0 0
18.96 0 0
19.04 0 0
19.12 0 0
19.2 0 0
19.28 0 0
19.36 0 0
19.44 0 0
19.52 0 0
19.6 0 0
19.68 0 0
19.76 0 0
19.84 0 0
19.92 0 0
20 0 0
20.08 0 0
20.16 0 0
20.24 0 0
20.32 0 0
20.4 0 0
20.48 0 0
20.56 0 0
20.64 0 0
20.72 0 0
20.8 0 0
20.88 0 0
20.96 0 0
21.04 0 0
21.12 0 0
21.2 0 0
21.28 0 0
21.36 0 0
21.44 0 0
21.52 0 0
21.6 0 0
21.68 0 0
21.76 0 0
21.84 0 0
21.92 0 0
22 0 0
22.08 0 0
22.16 0 0
22.24 0 0
22.32 0 0
22.4 0 0
22.48 0 0
22.56 0 0
22.64 0 0
22.72 0 0
22.8 0 0
22.88 0 0
22.96 0 0
23.04 0 0
23.12 0 0
23.2 0 0
23.28 0 0
23.36 0 0
23.44 0 0
23.52 0 0
23.6 0 0
23.68 0 0
23.76 0 0
23.84 0 0
23.92 0 0
24 0 0
24.08 0 0
24.16 0 0
24.24 0 0
24.32 0 0
24.4 0 0
24.48 0 0
24.56 0 0
24.64 0 0
24.72 0 0
24.8 0 0
24.88 0 0
24.96 0 0
25.04 0 0
25.12 0 0
25.2 0 0
25.28 0 0
25.36 0 0
25.44 0 0
25.52 0 0
25.6 0 0
25.68 0 0
25.76 0 0
25.84 0 0
25.92 0 0
26 0 0
26.08 0 0
26.16 0 0
26.24 0 0
26.32 0 0
26.4 0 0
26.48 0 0
26.56 0 0
26.64 0 0
26.72 0 0
26.8 0 0
26.88 0 0
26.96 0 0
27.04 0 0
27.12 0 0
27.2 0 0
27.28 0 0
27.36 0 0
27.44 0 0
27.52 0 0
27.6 0 0
27.68 0 0
27.76 0 0
27.84 0 0
27.92 0 0
28 0 0
28.08 0 0
28.16 0 0
28.24 0 0
28.32 0 0
28.4 0 0
28.48 0 0
28.56 0 0
28.64 0 0
28.72 0 0
28.8 0 0
28.88 0 0
28.96 0 0
29.04 0 0
29.12 0 0
29.2 0 0
29.28 0 0
29.36 0 0
29.44 0 0
29.52 0 0
29.6 0 0
29.68 0 0
29.76 0 0
29.84 0 0
29.92 0 0
30 0 0
30.08 0 0
30.16 0 0
30.24 0 0
30.32 0 0
30.4 0 0
30.48 0 0
30.56 0 0
30.64 0 0
30.72 0 0
30.8 0 0
30.88 0 0
30.96 0 0
31.04 0 0
31.12 0 0
31.2 0 0
31.28 0 0
31.36 0 0
31.44 0 0
31.52 0 0
31.6 0 0
31.68 0 0
31.76 0 0
31.84 0 0
31.92 0 0
0 0.005 0
0.08 0.005 0
0.16 0.005 0
0.24 0.005 0
0.32 0.005 0
0.4 0.005 0
0.48 0.005 0
0.56 0.005 0
0.64 0.005 0
0.72 0.005 0
0.8 0.005 0
0.88 0.005 0
0.96 0.005 0
1.04 0.005 0
1.12 0.005 0
1.2 0.005 0
1.28 0.005 0
1.36 0.005 0
1.44 0.005 0
1.52 0.005 0
1.6 0.005 0
1.68 0.005 0
1.76 0.005 0
1.84 0.005 0
1.92 0.005 0
2 0.005 0
2.08 0.005 0
2.16 0.005 0
2.24 0.005 0
2.32 0.005 0
2.4 0.005 0
2.48 0.005 0
2.56 0.005 0
2.64 0.005 0
2.72 0.005 0
2.8 0.005 0
2.88 0.005 0
2.96 0.005 0
3.04 0.005 0
3.12 0.005 0
3.2 0.005 0
3.28 0.005 0
3.36 0.005 0
3.44 0.005 0
3.52 0.005 0
3.6 0.005 0
3.68 0.005 0
3.76 0.005 0
3.84 0.005 0
3.92 0.005 0
4 0.005 0
4.08 0.005 0
4.16 0.005 0
4.24 0.005 0
4.32 0.005 0
4.4 0.005 0
4.48 0.005 0
4.56 0.005 0
4.64 0.005 0
4.72 0.005 0
4.8 0.005 0
4.88 0.005 0
4.96 0.005 0
5.04 0.005 0
5.12 0.005 0
5.2 0.005 0
5.28 0.005 0
5.36 0.005 0
5.44 0.005 0
5.52 0.005 0
5.6 0.005 0
5.68 0.005 0
5.76 0.005 0
5.84 0.005 0
5.92 0.005 0
6 0.005 0
6.08 0.005 0
6.16 0.005 0
6.24 0.005 0
6.32 0.005 0
6.4 0.005 0
6.48 0.005 0
6.56 0.005 0
6.64 0.005 0
6.72 0.005 0
6.8 0.005 0
6.88 0.005 0
6.96 0.005 0
7.04 0.005 0
7.12 0.005 0
7.2 0.005 0
7.28 0.005 0
7.36 0.005 0
7.44 0.005 0
7.52 0.005 0
7.6 0.005 0
7.68 0.005 0
7.76 0.005 0
7.84 0.005 0
7.92 0.005 0
8 0.005 0
8.08 0.005 0
8.16 0.005 0
8.24 0.005 0
8.32 0.005 0
8.4 0.005 0
8.48 0.005 0
8.56 0.005 0
8.64 0.005 0
8.72 0.005 0
8.8 0.005 0
8.88 0.005 0
8.96 0.005 0
9.04 0.005 0
9.12 0.005 0
9.2 0.005 0
9.28 0.005 0
9.36 0.005 0
9.44 0.005 0
9.52 0.005 0
9.6 0.005 0
9.68 0.005 0
9.76 0.005 0
9.84 0.005 0
9.92 0.005 0
10 0.005 0
10.08 0.005 0
10.16 0.005 0
10.24 0.005 0
10.32 0.005 0
10.4 0.005 0
10.48 0.005 0
10.56 0.005 0
10.64 0.005 0
10.72 0.005 0
10.8 0.005 0
10.88 0.005 0
10.96 0.005 0
11.04 0.005 0
11.12 0.005 0
11.2 0.005 0
11.28 0.005 0
11.36 0.005 0
11.44 0.005 0
11.52 0.005 0
11.6 0.005 0
11.68 0.005 0
11.76 0.005 0
11.84 0.005 0
11.92 0.005 0
12 0.005 0
12.08 0.005 0
12.16 0.005 0
12.24 0.005 0
12.32 0.005 0
12.4 0.005 0
12.48 0.005 0
12.56 0.005 0
12.64 0.005 0
12.72 0.005 0
12.8 0.005 0
12.88 0.005 0
12.96 0.005 0
13.04 0.005 0
13.12 0.005 0
13.2 0.005 0
13.28 0.005 0
13.36 0.005 0
13.44 0.005 0
13.52 0.005 0
13.6 0.005 0
13.68 0.005 0
13.76 0.005 0
13.84 0.005 0
13.92 0.005 0
14 0.005 0
14.08 0.005 0
14.16 0.005 0
14.24 0.005 0
14.32 0.005 0
14.4 0.005 0
14.48 0.005 0
14.56 0.005 0
14.64 0.005 0
14.72 0.005 0
14.8 0.005 0
14.88 0.005 0
14.96 0.005 0
15.04 0.005 0
15.12 0.005 0
15.2 0.005 0
15.28 0.005 0
15.36 0.005 0
15.44 0.005 0
15.52 0.005 0
15.6 0.005 0
15.68 0.005 0
15.76 0.005 0
15.84 0.005 0
15.92 0.005 0
16 0.005 0
16.08 0.005 0
16.16 0.005 0
16.24 0.005 0
16.32 0.005 0
16.4 0.005 0
16.48 0.005 0
16.56 0.005 0
16.64 0.005 0
16.72 0.005 0
16.8 0.005 0
16.88 0.005 0
16.96 0.005 0
17.04 0.005 0
17.12 0.005 0
17.2 0.005 0
17.28 0.005 0
17.36 0.005 0
17.44 0.005 0
17.52 0.005 0
17.6 0.005 0
17.68 0.005 0
17.76 0.005 0
17.84 0.005 0
17.92 0.005 0
18 0.005 0
18.08 0.005 0
18.16 0.005 0
18.24 0.005 0
18.32 0.005 0
18.4 0.005 0
18.48 0.005 0
18.56 0.005 0
18.64 0.005 0
18.72 0.005 0
18.8 0.005 0
18.88 0.005 0
18.96 0.005 0
19.04 0.005 0
19.12 0.005 0
19.2 0.005 0
19.28 0.005 0
19.36 0.005 0
19.44 0.005 0
19.52 0.005 0
19.6 0.005 0
19.68 0.005 0
19.76 0.005 0
19.84 0.005 0
19.92 0.005 0
20 0.005 0
20.08 0.005 0
20.16 0.005 0
20.24 0.005 0
20.32 0.005 0
20.4 0.005 0
20.48 0.005 0
20.56 0.005 0
20.64 0.005 0
20.72 0.005 0
20.8 0.005 0
20.88 0.005 0
20.96 0.005 0
21.04 0.005 0
21.12 0.005 0
21.2 0.005 0
21.28 0.005 0
21.36 0.005 0
21.44 0.005 0
21.52 0.005 0
21.6 0.005 0
21.68 0.005 0
21.76 0.005 0
21.84 0.005 0
21.92 0.005 0
22 0.005 0
22.08 0.005 0
22.16 0.005 0
22.24 0.005 0
22.32 0.005 0
22.4 0.005 0
22.48 0.005 0
22.56 0.005 0
22.64 0.005 0
22.72 0.005 0
22.8 0.005 0
22.88 0.005 0
22.96 0.005 0
23.04 0.005 0
23.12 0.005 0
23.2 0.005 0
23.28 0.005 0
23.36 0.005 0
23.44 0.005 0
23.52 0.005 0
23.6 0.005 0
23.68 0.005 0
23.76 0.005 0
23.84 0.005 0
23.92 0.005 0
24 0.005 0
24.08 0.005 0
24.16 0.005 0
24.24 0.005 0
24.32 0.005 0
24.4 0.005 0
24.48 0.005 0
24.56 0.005 0
24.64 0.005 0
24.72 0.005 0
24.8 0.005 0
24.88 0.005 0
24.96 0.005 0
25.04 0.005 0
25.12 0.005 0
25.2 0.005 0
25.28 0.005 0
25.36 0.005 0
25.44 0.005 0
25.52 0.005 0
25.6 0.005 0
25.68 0.005 0
25.76 0.005 0
25.84 0.005 0
25.92 0.005 0
26 0.005 0
26.08 0.005 0
26.16 0.005 0
26.24 0.005 0
26.32 0.005 0
26.4 0.005 0
26.48 0.005 0
26.56 0.005 0
26.64 0.005 0
26.72 0.005 0
26.8 0.005 0
26.88 0.005 0
26.96 0.005 0
27.04 0.005 0
27.12 0.005 0
27.2 0.005 0
27.28 0.005 0
27.36 0.005 0
27.44 0.005 0
27.52 0.005 0
27.6 0.005 0
27.68 0.005 0
27.76 0.005 0
27.84 0.005 0
27.92 0.005 0
28 0.005 0
28.08 0.005 0
28.16 0.005 0
28.24 0.005 0
28.32 0.005 0
28.4 0.005 0
28.48 0.005 0
28.56 0.005 0
28.64 0.005 0
28.72 0.005 0
28.8 0.005 0
28.88 0.005 0
28.96 0.005 0
29.04 0.005 0
29.12 0.005 0
29.2 0.005 0
29.28 0.005 0
29.36 0.005 0
29.44 0.005 0
29.52 0.005 0
29.6 0.005 0
29.68 0.005 0
29.76 0.005 0
29.84 0.005 0
29.92 0.005 0
30 0.005 0
30.08 0.005 0
30.16 0.005 0
30.24 0.005 0
30.32 0.005 0
30.4 0.005 0
30.48 0.005 0
30.56 0.005 0
30.64 0.005 0
30.72 0.005 0
30.8 0.005 0
30.88 0.005 0
30.96 0.005 0
31.04 0.005 0
31.12 0.005 0
31.2 0.005 0
31.28 0.005 0
31.36 0.005 0
31.44 0.005 0
31.52 0.005 0
31.6 0.005 0
31.68 0.005 0
31.76 0.005 0
31.84 0.005 0
31.92 0.005 0
0 0.01 0
0.08 0.01 0
0.16 0.01 0
0.24 0.01 0
0.32 0.01 0
0.4 0.01 0
0.48 0.01 0
0.56 0.01 0
0.64 0.01 0
0.72 0.01 0
0.8 0.01 0
0.88 0.01 0
0.96 0.01 0
1.04 0.01 0
1.12 0.01 0
1.2 0.01 0
1.28 0.01 0
1.36 0.01 0
1.44 0.01 0
1.52 0.01 0
1.6 0.01 0
1.68 0.01 0
1.76 0.01 0
1.84 0.01 0
1.92 0.01 0
2 0.01 0
2.08 0.01 0
2.16 0.01 0
2.24 0.01 0
2.32 0.01 0
2.4 0.01 0
2.48 0.01 0
2.56 0.01 0
2.64 0.01 0
2.72 0.01 0
2.8 0.01 0
2.88 0.01 0
2.96 0.01 0
3.04 0.01 0
3.12 0.01 0
3.2 0.01 0
3.28 0.01 0
3.36 0.01 0
3.44 0.01 0
3.52 0.01 0
3.6 0.01 0
3.68 0.01 0
3.76 0.01 0
3.84 0.01 0
3.92 0.01 0
4 0.01 0
4.08 0.01 0
4.16 0.01 0
4.24 0.01 0
4.32 0.01 0
4.4 0.01 0
4.48 0.01 0
4.56 0.01 0
4.64 0.01 0
4.72 0.01 0
4.8 0.01 0
4.88 0.01 0
4.96 0.01 0
5.04 0.01 0
5.12 0.01 0
[...]
POINT_DATA 80000

SCALARS p float 1
LOOKUP_TABLE default
1
56.55525141
56.2535162
56.21235624
56.19226611
56.17784702
56.1658459
56.15510232
56.14510403
56.13559828
56.12645182
56.11759094
56.10897287
56.10057121
56.0923683
56.08435111
56.07650909
56.06883304
56.06131451
56.05394559
56.04671872
56.03962674
56.0326628
56.02582044
56.01909352
56.01247628
56.00596328
55.99954945
55.99323002
55.98700055
55.98085686
55.97479507
55.96881153
55.96290285
55.95706583
55.9512975
55.94559505
55.93995586
55.93437746
55.92885753
55.92339389
55.91798447
55.91262733
55.90732063
55.90206263
55.8968517
55.89168627
55.88656485
55.88148606
55.87644854
55.87145103
55.86649232
55.86157125
55.85668673
55.85183769
55.84702313
55.84224209
55.83749366
55.83277693
55.82809107
55.82343527
55.81880874
55.81421072
55.80964051
55.8050974
55.80058072
55.79608983
55.7916241
55.78718294
55.78276575
55.77837199
55.7740011
55.76965257
55.76532588
55.76102054
55.75673607
55.75247202
55.74822793
55.74400336
55.7397979
55.73561113
55.73144266
55.72729208
55.72315904
55.71904315
55.71494407
55.71086143
55.70679491
55.70274418
55.6987089
55.69468877
55.69068348
55.68669273
55.68271623
55.6787537
55.67480485
55.67086942
55.66694715
55.66303777
55.65914104
55.65525672
55.65138456
55.64752433
55.64367582
55.63983881
55.63601309
55.63219845
55.62839471
55.6246017
55.62081922
55.61704714
55.61328529
55.60953354
55.60579175
55.60205982
55.59833763
55.5946251
55.59092212
55.58722863
55.58354455
55.5798698
55.57620432
55.57254806
55.56890096
55.56526294
55.56163395
55.55801392
55.55440278
55.55080045
55.54720686
55.54362192
55.54004555
55.53647764
55.53291809
55.52936679
55.52582361
55.52228843
55.51876113
55.51524157
55.5117296
55.5082251
55.50472789
55.50123781
55.49775469
55.49427836
55.49080865
55.48734538
55.48388838
55.48043747
55.47699248
55.4735532
55.47011945
55.46669103
55.46326774
55.45984938
55.45643579
55.45302677
55.44962215
55.44622174
55.44282537
55.43943284
55.43604396
55.43265854
55.42927641
55.42589739
55.42252132
55.41914805
55.41577742
55.41240927
55.40904345
55.4056798
55.40231816
55.39895839
55.39560033
55.39224386
55.38888885
55.38553519
55.38218276
55.37883146
55.37548119
55.37213183
55.36878328
55.36543545
55.36208822
55.3587415
55.35539522
55.3520493
55.34870367
55.34535828
55.34201308
55.33866803
55.33532309
55.33197824
55.32863346
55.32528872
55.32194401
55.31859932
55.31525462
55.31190993
55.30856523
55.30522052
55.30187579
55.29853105
55.29518629
55.29184152
55.28849674
55.28515193
55.28180711
55.27846227
55.27511742
55.27177255
55.26842766
55.26508275
55.26173782
55.25839288
55.25504792
55.25170294
55.24835794
55.24501292
55.24166789
55.23832284
55.23497777
55.23163268
55.22828758
55.22494246
55.22159731
55.21825216
55.21490698
55.21156179
55.20821657
55.20487134
55.20152609
55.19818083
55.19483554
55.19149024
55.18814492
55.18479958
55.18145422
55.17810884
55.17476345
55.17141804
55.16807261
55.16472716
55.16138169
55.1580362
55.1546907
55.15134518
55.14799964
55.14465408
55.1413085
55.1379629
55.13461729
55.13127166
55.127926
55.12458033
55.12123464
55.11788894
55.11454321
55.11119747
55.1078517
55.10450592
55.10116012
55.0978143
55.09446846
55.09112261
55.08777673
55.08443084
55.08108493
55.07773899
55.07439304
55.07104707
55.06770109
55.06435508
55.06100905
55.05766301
55.05431694
55.05097086
55.04762476
55.04427864
55.0409325
55.03758634
55.03424016
55.03089396
55.02754775
55.02420151
55.02085526
55.01750898
55.01416269
55.01081638
55.00747005
55.0041237
55.00077733
54.99743094
54.99408453
54.9907381
54.98739165
54.98404519
54.9806987
54.9773522
54.97400567
54.97065913
54.96731256
54.96396598
54.96061938
54.95727276
54.95392611
54.95057945
54.94723277
54.94388607
54.94053935
54.93719261
54.93384585
54.93049907
54.92715227
54.92380546
54.92045862
54.91711176
54.91376488
54.91041798
54.90707107
54.90372413
54.90037717
54.89703019
54.8936832
54.89033618
54.88698914
54.88364209
54.88029501
54.87694791
54.8736008
54.87025366
54.8669065
54.86355932
54.86021213
54.85686491
54.85351767
54.85017041
54.84682314
54.84347584
54.84012852
54.83678118
54.83343382
54.83008644
54.82673904
54.82339162
54.82004418
54.81669672
54.81334924
54.81000174
54.80665422
54.80330668
54.79995912
54.79661153
54.79326393
54.7899163
54.78656866
54.78322099
54.77987331
54.7765256
54.77317787
54.76983013
54.76648236
54.76313457
54.75978676
54.75643893
54.75309108
54.74974321
54.74639531
54.7430474
54.73969947
54.73635151
54.73300353
54.72965554
54.72630752
54.72295948
54.71961142
54.71626334
54.71291524
54.70956711
54.70621897
54.70287081
54.69952262
54.69617442
54.69282619
54.68947794
54.68612967
54.68278138
54.67943307
54.67608474
54.67273638
54.66938801
54.6660396
54.6626912
54.65934272
54.6559943
54.65264573
54.64929734
54.64594861
54.64260099
0.5
56.55525141
56.55525141
56.2535162
56.21235624
56.19226611
56.17784702
56.1658459
56.15510232
56.14510403
56.13559828
56.12645182
56.11759094
56.10897287
56.10057121
56.0923683
56.08435111
56.07650909
56.06883304
56.06131451
56.05394559
56.04671872
56.03962674
56.0326628
56.02582044
56.01909352
56.01247628
56.00596328
55.99954945
55.99323002
55.98700055
55.98085686
55.97479507
55.96881153
55.96290285
55.95706583
55.9512975
55.94559505
55.93995586
55.93437746
55.92885753
55.92339389
55.91798447
55.91262733
55.90732063
55.90206263
55.8968517
55.89168627
55.88656485
55.88148606
55.87644854
55.87145103
55.86649232
55.86157125
55.85668673
55.85183769
55.84702313
55.84224209
55.83749366
55.83277693
55.82809107
55.82343527
55.81880874
55.81421072
55.80964051
55.8050974
55.80058072
55.79608983
55.7916241
55.78718294
55.78276575
55.77837199
55.7740011
55.76965257
55.76532588
55.76102054
55.75673607
55.75247202
55.74822793
55.74400336
55.7397979
55.73561113
55.73144266
55.72729208
55.72315904
55.71904315
55.71494407
55.71086143
55.70679491
55.70274418
55.6987089
55.69468877
55.69068348
55.68669273
55.68271623
55.6787537
55.67480485
55.67086942
55.66694715
55.66303777
55.65914104
55.65525672
55.65138456
55.64752433
55.64367582
55.63983881
55.63601309
55.63219845
55.62839471
55.6246017
55.62081922
55.61704714
55.61328529
55.60953354
55.60579175
55.60205982
55.59833763
55.5946251
55.59092212
55.58722863
55.58354455
55.5798698
55.57620432
55.57254806
55.56890096
55.56526294
55.56163395
55.55801392
55.55440278
55.55080045
55.54720686
55.54362192
55.54004555
55.53647764
55.53291809
55.52936679
55.52582361
55.52228843
55.51876113
55.51524157
55.5117296
55.5082251
55.50472789
55.50123781
55.49775469
55.49427836
55.49080865
55.48734538
55.48388838
55.48043747
55.47699248
55.4735532
55.47011945
55.46669103
55.46326774
55.45984938
55.45643579
55.45302677
55.44962215
55.44622174
55.44282537
55.43943284
55.43604396
55.43265854
55.42927641
55.42589739
55.42252132
55.41914805
55.41577742
55.41240927
55.40904345
55.4056798
55.40231816
55.39895839
55.39560033
55.39224386
55.38888885
55.38553519
55.38218276
55.37883146
55.37548119
55.37213183
55.36878328
55.36543545
55.36208822
55.3587415
55.35539522
55.3520493
55.34870367
55.34535828
55.34201308
55.33866803
55.33532309
55.33197824
55.32863346
55.32528872
55.32194401
55.31859932
55.31525462
55.31190993
55.30856523
55.30522052
55.30187579
55.29853105
55.29518629
55.29184152
55.28849674
55.28515193
55.28180711
55.27846227
55.27511742
55.27177255
55.26842766
55.26508275
55.26173782
55.25839288
55.25504792
55.25170294
55.24835794
55.24501292
55.24166789
55.23832284
55.23497777
55.23163268
55.22828758
55.22494246
55.22159731
55.21825216
55.21490698
55.21156179
55.20821657
55.20487134
55.20152609
55.19818083
55.19483554
55.19149024
55.18814492
55.18479958
55.18145422
55.17810884
55.17476345
55.17141804
55.16807261
55.16472716
55.16138169
55.1580362
55.1546907
55.15134518
55.14799964
55.14465408
55.1413085
55.1379629
55.13461729
55.13127166
55.127926
55.12458033
55.12123464
55.11788894
55.11454321
55.11119747
55.1078517
55.10450592
55.10116012
55.0978143
55.09446846
55.09112261
55.08777673
55.08443084
55.08108493
55.07773899
55.07439304
55.07104707
55.06770109
55.06435508
55.06100905
55.05766301
55.05431694
55.05097086
55.04762476
55.04427864
55.0409325
55.03758634
55.03424016
55.03089396
55.02754775
55.02420151
55.02085526
55.01750898
55.01416269
55.01081638
55.00747005
55.0041237
55.00077733
54.99743094
54.99408453
54.9907381
54.98739165
54.98404519
54.9806987
54.9773522
54.97400567
54.97065913
54.96731256
54.96396598
54.96061938
54.95727276
54.95392611
54.95057945
54.94723277
54.94388607
54.94053935
54.93719261
54.93384585
54.93049907
54.92715227
54.92380546
54.92045862
54.91711176
54.91376488
54.91041798
54.90707107
54.90372413
54.90037717
54.89703019
54.8936832
54.89033618
54.88698914
54.88364209
54.88029501
54.87694791
54.8736008
54.87025366
54.8669065
54.86355932
54.86021213
54.85686491
54.85351767
54.85017041
54.84682314
54.84347584
54.84012852
54.83678118
54.83343382
54.83008644
54.82673904
54.82339162
54.82004418
54.81669672
54.81334924
54.81000174
54.80665422
54.80330668
54.79995912
54.79661153
54.79326393
54.7899163
54.78656866
54.78322099
54.77987331
54.7765256
54.77317787
54.76983013
54.76648236
54.76313457
54.75978676
54.75643893
54.75309108
54.74974321
54.74639531
54.7430474
54.73969947
54.73635151
54.73300353
54.72965554
54.72630752
54.72295948
54.71961142
54.71626334
54.71291524
54.70956711
54.70621897
54.70287081
54.69952262
54.69617442
54.69282619
54.68947794
54.68612967
54.68278138
54.67943307
54.67608474
54.67273638
54.66938801
54.6660396
54.6626912
54.65934272
54.6559943
54.65264573
54.64929734
54.64594861
54.64260099
54.64260099
56.54066966
56.54066966
56.25735207
56.21361165
56.19290134
56.17824152
56.16611758
56.15530176
56.14525717
56.13571997
56.12655124
56.11767404
56.10904366
56.10063249
56.09242207
56.08439883
56.07655185
56.06887167
56.06134965
56.05397773
56.04674828
56.03965404
56.03268812
56.025844
56.01911552
56.01249686
56.0059826
55.99956762
55.99324716
55.98701673
55.98087217
55.97480958
55.96882531
55.96291595
55.95707831
55.95130939
55.94560641
55.93996672
55.93438785
55.92886748
55.92340343
55.91799363
55.91263612
55.90732909
55.90207077
55.89685954
55.89169382
55.88657214
55.88149309
55.87645533
55.87145759
55.86649866
55.86157739
55.85669267
55.85184344
55.84702871
55.8422475
55.8374989
55.83278202
55.82809601
55.82344006
55.81881339
55.81421525
55.80964491
55.80510168
55.80058489
55.79609388
55.79162805
55.78718678
55.7827695
55.77837564
55.77400466
55.76965603
55.76532926
55.76102383
55.75673929
55.75247516
55.74823099
55.74400635
55.73980082
55.73561398
55.73144543
55.7272948
55.72316169
55.71904574
55.7149466
55.71086391
55.70679733
55.70274654
55.69871121
55.69469103
55.69068569
55.68669489
55.68271834
55.67875576
55.67480687
55.6708714
55.66694908
55.66303966
55.65914289
55.65525853
55.65138633
55.64752607
55.64367752
55.63984047
55.63601471
55.63220004
55.62839627
55.62460322
55.62082072
55.6170486
55.61328672
55.60953494
55.60579312
55.60206116
55.59833894
55.59462638
55.59092337
55.58722985
55.58354574
55.57987096
55.57620546
55.57254917
55.56890203
55.56526399
55.56163497
55.55801491
55.55440374
55.55080139
55.54720776
55.5436228
55.54004639
55.53647846
55.53291888
55.52936755
55.52582435
55.52228914
55.51876181
55.51524222
55.51173023
55.5082257
55.50472846
55.50123836
55.49775522
55.49427887
55.49080913
55.48734583
55.48388881
55.48043788
55.47699286
55.47355357
55.4701198
55.46669135
55.46326804
55.45984967
55.45643605
55.45302702
55.44962238
55.44622196
55.44282557
55.43943302
55.43604413
55.4326587
55.42927655
55.42589752
55.42252144
55.41914816
55.41577751
55.41240936
55.40904353
55.40567987
55.40231822
55.39895844
55.39560037
55.3922439
55.38888888
55.38553521
55.38218278
55.37883148
55.3754812
55.37213183
55.36878329
55.36543544
55.36208821
55.3587415
55.35539522
55.35204929
55.34870366
55.34535827
55.34201306
55.33866801
55.33532308
55.33197823
55.32863345
55.32528871
55.32194399
55.3185993
55.31525461
55.31190991
55.30856521
55.3052205
55.30187577
55.29853103
55.29518628
55.29184151
55.28849672
55.28515191
55.28180709
55.27846226
55.2751174
55.27177253
55.26842764
55.26508273
55.2617378
55.25839286
55.2550479
55.25170292
55.24835792
55.24501291
55.24166787
55.23832282
55.23497775
55.23163267
55.22828756
55.22494244
55.2215973
55.21825214
55.21490696
55.21156177
55.20821656
55.20487133
55.20152608
55.19818081
55.19483552
55.19149022
55.1881449
55.18479956
55.1814542
55.17810883
55.17476343
55.17141802
55.16807259
55.16472714
55.16138167
55.15803619
55.15469068
55.15134516
55.14799962
55.14465406
55.14130848
55.13796289
55.13461727
55.13127164
55.12792599
55.12458032
55.12123463
55.11788892
55.1145432
55.11119745
55.10785169
55.10450591
55.10116011
55.09781429
55.09446845
55.09112259
55.08777672
55.08443082
55.08108491
55.07773898
55.07439303
55.07104706
55.06770107
55.06435506
55.06100904
55.05766299
55.05431693
55.05097085
55.04762474
55.04427862
55.04093248
55.03758632
55.03424015
55.03089395
55.02754773
55.0242015
55.02085524
55.01750897
55.01416268
55.01081636
55.00747003
55.00412368
55.00077731
54.99743092
54.99408451
54.99073809
54.98739164
54.98404517
54.98069869
54.97735218
54.97400566
54.97065911
54.96731255
54.96396597
54.96061936
54.95727274
54.9539261
54.95057944
54.94723276
54.94388606
54.94053934
54.9371926
54.93384584
54.93049906
54.92715226
54.92380544
54.9204586
54.91711175
54.91376487
54.91041797
54.90707105
54.90372412
54.90037716
54.89703018
54.89368318
54.89033617
54.88698913
54.88364207
54.880295
54.8769479
54.87360078
54.87025365
54.86690649
54.86355931
54.86021211
54.8568649
54.85351766
54.8501704
54.84682312
54.84347583
54.84012851
54.83678117
54.83343381
54.83008643
54.82673903
54.82339161
54.82004417
54.81669671
54.81334923
54.81000173
54.80665421
54.80330667
54.7999591
54.79661152
54.79326392
54.78991629
54.78656865
54.78322098
54.7798733
54.77652559
54.77317786
54.76983012
54.76648235
54.76313456
54.75978675
54.75643892
54.75309107
54.74974319
54.7463953
54.74304739
54.73969945
54.7363515
54.73300352
54.72965553
54.72630751
54.72295947
54.71961141
54.71626333
54.71291523
54.7095671
54.70621896
54.7028708
54.69952261
54.6961744
54.69282618
54.68947793
54.68612966
54.68278137
54.67943306
54.67608473
54.67273637
54.669388
54.66603959
54.66269118
54.65934271
54.65599428
54.65264573
54.64929733
54.64594862
54.64260098
54.64260098
56.52468506
56.52468506
56.26054049
56.21479883
56.19351734
56.17862779
56.16638501
56.15549869
56.14540865
56.13584045
56.12664968
56.11775628
56.10911368
56.10069306
56.09247517
56.08444591
56.076594
56.06890971
56.06138422
56.05400934
56.04677733
56.03968087
56.03271299
56.02586713
56.0191371
56.01251706
56.00600155
55.99958544
55.99326395
55.98703259
55.98088717
55.9748238
55.96883881
55.96292878
55.95709053
55.95132104
55.94561753
55.93997734
55.93439802
55.92887722
55.92341277
55.91800259
55.91264473
55.90733736
55.90207874
55.89686721
55.89170121
55.88657927
55.88149996
55.87646197
55.87146401
55.86650487
55.86158339
55.85669848
55.85184907
55.84703416
55.84225278
55.83750402
55.83278699
55.82810084
55.82344475
55.81881795
55.81421968
55.80964922
55.80510587
55.80058896
55.79609785
55.79163191
55.78719054
55.78277315
55.7783792
55.77400813
55.76965942
55.76533256
55.76102705
55.75674243
55.75247822
55.74823398
55.74400927
55.73980366
55.73561676
55.73144815
55.72729745
55.72316428
55.71904827
55.71494907
55.71086632
55.70679969
55.70274885
55.69871347
55.69469324
55.69068785
55.686697
55.68272041
55.67875778
55.67480885
55.67087333
55.66695097
55.66304152
55.65914471
55.6552603
55.65138806
55.64752777
55.64367918
55.6398421
55.6360163
55.6322016
55.6283978
55.62460471
55.62082218
55.61705003
55.61328812
55.6095363
55.60579446
55.60206247
55.59834022
55.59462763
55.5909246
55.58723105
55.5835469
55.5798721
55.57620657
55.57255025
55.56890308
55.56526501
55.56163596
55.55801588
55.55440468
55.55080229
55.54720864
55.54362365
55.54004722
55.53647925
55.53291965
55.52936829
55.52582506
55.52228983
55.51876247
55.51524285
55.51173084
55.50822628
55.50472902
55.50123889
55.49775573
55.49427935
55.49080959
55.48734627
55.48388923
55.48043827
55.47699324
55.47355392
55.47012013
55.46669167
55.46326834
55.45984995
55.45643631
55.45302726
55.4496226
55.44622217
55.44282576
55.4394332
55.43604429
55.43265885
55.4292767
55.42589765
55.42252156
55.41914827
55.41577761
55.41240944
55.4090436
55.40567994
55.40231828
55.39895849
55.39560042
55.39224394
55.38888892
55.38553524
55.3821828
55.3788315
55.37548121
55.37213185
55.36878329
55.36543545
55.36208822
55.3587415
55.35539521
55.35204929
55.34870366
55.34535826
55.34201306
55.33866801
55.33532307
55.33197822
55.32863344
55.3252887
55.32194399
55.31859929
55.3152546
55.3119099
55.3085652
55.30522049
55.30187576
55.29853102
55.29518627
55.2918415
55.28849671
55.28515191
55.28180709
55.27846225
55.27511739
55.27177252
55.26842763
55.26508272
55.2617378
55.25839285
55.25504789
55.25170291
55.24835791
55.2450129
55.24166786
55.23832281
55.23497774
55.23163266
55.22828755
55.22494243
55.22159729
55.21825213
55.21490696
55.21156176
55.20821655
55.20487132
55.20152607
55.1981808
55.19483552
55.19149021
55.18814489
55.18479955
55.18145419
55.17810882
55.17476342
55.17141801
55.16807258
55.16472713
55.16138166
55.15803618
55.15469068
55.15134515
55.14799961
55.14465405
55.14130848
55.13796288
55.13461726
55.13127163
55.12792598
55.12458031
55.12123462
55.11788891
55.11454319
55.11119744
55.10785168
55.1045059
55.1011601
55.09781428
55.09446844
55.09112258
55.08777671
55.08443082
55.0810849
55.07773897
55.07439302
55.07104705
55.06770106
55.06435506
55.06100903
55.05766298
55.05431692
55.05097084
55.04762474
55.04427861
55.04093247
55.03758632
55.03424014
55.03089394
55.02754772
55.02420149
55.02085523
55.01750896
55.01416267
55.01081636
55.00747002
55.00412367
55.0007773
54.99743091
54.99408451
54.99073808
54.98739163
54.98404516
54.98069868
54.97735217
54.97400565
54.9706591
54.96731254
54.96396596
54.96061936
54.95727273
54.95392609
54.95057943
54.94723275
54.94388605
54.94053933
54.93719259
54.93384583
54.93049905
54.92715225
54.92380543
54.92045859
54.91711174
54.91376486
54.91041796
54.90707104
54.90372411
54.90037715
54.89703017
54.89368318
54.89033616
54.88698912
54.88364206
54.88029499
54.87694789
54.87360077
54.87025364
54.86690648
54.8635593
54.86021211
54.85686489
54.85351765
54.85017039
54.84682312
54.84347582
54.8401285
54.83678116
54.8334338
54.83008642
54.82673902
54.8233916
54.82004416
54.8166967
54.81334922
54.81000172
54.8066542
54.80330666
54.79995909
54.79661151
54.79326391
54.78991628
54.78656864
54.78322097
54.77987329
54.77652558
54.77317785
54.76983011
54.76648234
54.76313455
54.75978674
54.75643891
54.75309106
54.74974319
54.74639529
54.74304738
54.73969945
54.73635149
54.73300351
54.72965552
54.7263075
54.72295946
54.7196114
54.71626332
54.71291522
54.7095671
54.70621895
54.70287079
54.6995226
54.6961744
54.69282617
54.68947792
54.68612965
54.68278136
54.67943305
54.67608472
54.67273636
54.66938799
54.66603958
54.66269117
54.65934271
54.65599427
54.65264572
54.64929731
54.64594862
54.64260097
54.64260097
56.50877024
56.50877024
56.26342709
56.21593887
56.19411893
56.17900782
56.16664925
56.15569377
56.14555889
56.13596
56.12674734
56.11783783
56.10918305
56.100753
56.09252766
56.0844924
56.07663558
56.0689472
56.06141827
56.05404045
56.0468059
56.03970722
56.03273741
56.02588983
56.01915827
56.01253687
56.00602013
55.99960291
55.99328041
55.98704812
55.98090187
55.97483773
55.96885203
55.96294135
55.95710249
55.95133245
55.94562841
55.93998774
55.93440797
55.92888675
55.9234219
55.91801135
55.91265315
55.90734545
55.90208652
55.8968747
55.89170843
55.88658623
55.88150669
55.87646846
55.87147028
55.86651093
55.86158926
55.85670415
55.85185456
55.84703948
55.84225795
55.83750903
55.83279185
55.82810555
55.82344933
55.81882239
55.814224
55.80965342
55.80510995
55.80059293
55.79610171
55.79163567
55.7871942
55.78277672
55.77838268
55.77401152
55.76966272
55.76533578
55.76103019
55.75674549
55.75248121
55.74823689
55.74401211