# vtk DataFile Version 2.0
FlowField
ASCII
DATASET STRUCTURED_GRID
DIMENSIONS 400 1 200
POINTS 80000 float
0 0 0
0.08 0 0
0.16 0 0
0.24 0 0
0.32 0 0
0.4 0 0
0.48 0 0
0.56 0 0
0.64 0 0
0.72 0 0
0.8 0 0
0.88 0 0
0.96 0 0
1.04 0 0
1.12 0 0
1.2 0 0
1.28 0 0
1.36 0 0
1.44 0 0
1.52 0 0
1.6 0 0
1.68 0 0
1.76 0 0
1.84 0 0
1.92 0 0
2 0 0
2.08 0 0
2.16 0 0
2.24 0 0
2.32 0 0
2.4 0 0
2.48 0 0
2.56 0 0
2.64 0 0
2.72 0 0
2.8 0 0
2.88 0 0
2.96 0 0
3.04 0 0
3.12 0 0
3.2 0 0
3.28 0 0
3.36 0 0
3.44 0 0
3.52 0 0
3.6 0 0
3.68 0 0
3.76 0 0
3.84 0 0
3.92 0 0
4 0 0
4.08 0 0
4.16 0 0
4.24 0 0
4.32 0 0
4.4 0 0
4.48 0 0
4.56 0 0
4.64 0 0
4.72 0 0
4.8 0 0
4.88 0 0
4.96 0 0
5.04 0 0
5.12 0 0
5.2 0 0
5.28 0 0
5.36 0 0
5.44 0 0
5.52 0 0
5.6 0 0
5.68 0 0
5.76 0 0
5.84 0 0
5.92 0 0
6 0 0
6.08 0 0
6.16 0 0
6.24 0 0
6.32 0 0
6.4 0 0
6.48 0 0
6.56 0 0
6.64 0 0
6.72 0 0
6.8 0 0
6.88 0 0
6.96 0 0
7.04 0 0
7.12 0 0
7.2 0 0
7.28 0 0
7.36 0 0
7.44 0 0
7.52 0 0
7.6 0 0
7.68 0 0
7.76 0 0
7.84 0 0
7.92 0 0
8 0 0
8.08 0 0
8.16 0 0
8.24 0 0
8.32 0 0
8.4 0 0
8.48 0 0
8.56 0 0
8.64 0 0
8.72 0 0
8.8 0 0
8.88 0 0
8.96 0 0
9.04 0 0
9.12 0 0
9.2 0 0
9.28 0 0
9.36 0 0
9.44 0 0
9.52 0 0
9.6 0 0
9.68 0 0
9.76 0 0
9.84 0 0
9.92 0 0
10 0 0
10.08 0 0
10.16 0 0
10.24 0 0
10.32 0 0
10.4 0 0
10.48 0 0
10.56 0 0
10.64 0 0
10.72 0 0
10.8 0 0
10.88 0 0
10.96 0 0
11.04 0 0
11.12 0 0
11.2 0 0
11.28 0 0
11.36 0 0
11.44 0 0
11.52 0 0
11.6 0 0
11.68 0 0
11.76 0 0
11.84 0 0
11.92 0 0
12 0 0
12.08 0 0
12.16 0 0
12.24 0 0
12.32 0 0
12.4 0 0
12.48 0 0
12.56 0 0
12.64 0 0
12.72 0 0
12.8 0 0
12.88 0 0
12.96 0 0
13.04 0 0
13.12 0 0
13.2 0 0
13.28 0 0
13.36 0 0
13.44 0 0
13.52 0 0
13.6 0 0
13.68 0 0
13.76 0 0
13.84 0 0
13.92 0 0
14 0 0
14.08 0 0
14.16 0 0
14.24 0 0
14.32 0 0
14.4 0 0
14.48 0 0
14.56 0 0
14.64 0 0
14.72 0 0
14.8 0 0
14.88 0 0
14.96 0 0
15.04 0 0
15.12 0 0
15.2 0 0
15.28 0 0
15.36 0 0
15.44 0 0
15.52 0 0
15.6 0 0
15.68 0 0
15.76 0 0
15.84 0 0
15.92 0 0
16 0 0
16.08 0 0
16.16 0 0
16.24 0 0
16.32 0 0
16.4 0 0
16.48 0 0
16.56 0 0
16.64 0 0
16.72 0 0
16.8 0 0
16.88 0 0
16.96 0 0
17.04 0 0
17.12 0 0
17.2 0 0
17.28 0 0
17.36 0 0
17.44 0 0
17.52 0 0
17.6 0 0
17.68 0 0
17.76 0 0
17.84 0 0
17.92 0 0
18 0 0
18.08 0 0
18.16 0 0
18.24 0 0
18.32 0 0
18.4 0 0
18.48 0 0
18.56 0 0
18.64 0 0
18.72 0 0
18.8 0 0
18.88 0 0
18.96 0 0
19.04 0 0
19.12 0 0
19.2 0 0
19.28 0 0
19.36 0 0
19.44 0 0
19.52 0 0
19.6 0 0
19.68 0 0
19.76 0 0
19.84 0 0
19.92 0 0
20 0 0
20.08 0 0
20.16 0 0
20.24 0 0
20.32 0 0
20.4 0 0
20.48 0 0
20.56 0 0
20.64 0 0
20.72 0 0
20.8 0 0
20.88 0 0
20.96 0 0
21.04 0 0
21.12 0 0
21.2 0 0
21.28 0 0
21.36 0 0
21.44 0 0
21.52 0 0
21.6 0 0
21.68 0 0
21.76 0 0
21.84 0 0
21.92 0 0
22 0 0
22.08 0 0
22.16 0 0
22.24 0 0
22.32 0 0
22.4 0 0
22.48 0 0
22.56 0 0
22.64 0 0
22.72 0 0
22.8 0 0
22.88 0 0
22.96 0 0
23.04 0 0
23.12 0 0
23.2 0 0
23.28 0 0
23.36 0 0
23.44 0 0
23.52 0 0
23.6 0 0
23.68 0 0
23.76 0 0
23.84 0 0
23.92 0 0
24 0 0
24.08 0 0
24.16 0 0
24.24 0 0
24.32 0 0
24.4 0 0
24.48 0 0
24.56 0 0
24.64 0 0
24.72 0 0
24.8 0 0
24.88 0 0
24.96 0 0
25.04 0 0
25.12 0 0
25.2 0 0
25.28 0 0
25.36 0 0
25.44 0 0
25.52 0 0
25.6 0 0
25.68 0 0
25.76 0 0
25.84 0 0
25.92 0 0
26 0 0
26.08 0 0
26.16 0 0
26.24 0 0
26.32 0 0
26.4 0 0
26.48 0 0
26.56 0 0
26.64 0 0
26.72 0 0
26.8 0 0
26.88 0 0
26.96 0 0
27.04 0 0
27.12 0 0
27.2 0 0
27.28 0 0
27.36 0 0
27.44 0 0
27.52 0 0
27.6 0 0
27.68 0 0
27.76 0 0
27.84 0 0
27.92 0 0
28 0 0
28.08 0 0
28.16 0 0
28.24 0 0
28.32 0 0
28.4 0 0
28.48 0 0
28.56 0 0
28.64 0 0
28.72 0 0
28.8 0 0
28.88 0 0
28.96 0 0
29.04 0 0
29.12 0 0
29.2 0 0
29.28 0 0
29.36 0 0
29.44 0 0
29.52 0 0
29.6 0 0
29.68 0 0
29.76 0 0
29.84 0 0
29.92 0 0
30 0 0
30.08 0 0
30.16 0 0
30.24 0 0
30.32 0 0
30.4 0 0
30.48 0 0
30.56 0 0
30.64 0 0
30.72 0 0
30.8 0 0
30.88 0 0
30.96 0 0
31.04 0 0
31.12 0 0
31.2 0 0
31.28 0 0
31.36 0 0
31.44 0 0
31.52 0 0
31.6 0 0
31.68 0 0
31.76 0 0
31.84 0 0
31.92 0 0
0 0.005 0
0.08 0.005 0
0.16 0.005 0
0.24 0.005 0
0.32 0.005 0
0.4 0.005 0
0.48 0.005 0
0.56 0.005 0
0.64 0.005 0
0.72 0.005 0
0.8 0.005 0
0.88 0.005 0
0.96 0.005 0
1.04 0.005 0
1.12 0.005 0
1.2 0.005 0
1.28 0.005 0
1.36 0.005 0
1.44 0.005 0
1.52 0.005 0
1.6 0.005 0
1.68 0.005 0
1.76 0.005 0
1.84 0.005 0
1.92 0.005 0
2 0.005 0
2.08 0.005 0
2.16 0.005 0
2.24 0.005 0
2.32 0.005 0
2.4 0.005 0
2.48 0.005 0
2.56 0.005 0
2.64 0.005 0
2.72 0.005 0
2.8 0.005 0
2.88 0.005 0
2.96 0.005 0
3.04 0.005 0
3.12 0.005 0
3.2 0.005 0
3.28 0.005 0
3.36 0.005 0
3.44 0.005 0
3.52 0.005 0
3.6 0.005 0
3.68 0.005 0
3.76 0.005 0
3.84 0.005 0
3.92 0.005 0
4 0.005 0
4.08 0.005 0
4.16 0.005 0
4.24 0.005 0
4.32 0.005 0
4.4 0.005 0
4.48 0.005 0
4.56 0.005 0
4.64 0.005 0
4.72 0.005 0
4.8 0.005 0
4.88 0.005 0
4.96 0.005 0
5.04 0.005 0
5.12 0.005 0
5.2 0.005 0
5.28 0.005 0
5.36 0.005 0
5.44 0.005 0
5.52 0.005 0
5.6 0.005 0
5.68 0.005 0
5.76 0.005 0
5.84 0.005 0
5.92 0.005 0
6 0.005 0
6.08 0.005 0
6.16 0.005 0
6.24 0.005 0
6.32 0.005 0
6.4 0.005 0
6.48 0.005 0
6.56 0.005 0
6.64 0.005 0
6.72 0.005 0
6.8 0.005 0
6.88 0.005 0
6.96 0.005 0
7.04 0.005 0
7.12 0.005 0
7.2 0.005 0
7.28 0.005 0
7.36 0.005 0
7.44 0.005 0
7.52 0.005 0
7.6 0.005 0
7.68 0.005 0
7.76 0.005 0
7.84 0.005 0
7.92 0.005 0
8 0.005 0
8.08 0.005 0
8.16 0.005 0
8.24 0.005 0
8.32 0.005 0
8.4 0.005 0
8.48 0.005 0
8.56 0.005 0
8.64 0.005 0
8.72 0.005 0
8.8 0.005 0
8.88 0.005 0
8.96 0.005 0
9.04 0.005 0
9.12 0.005 0
9.2 0.005 0
9.28 0.005 0
9.36 0.005 0
9.44 0.005 0
9.52 0.005 0
9.6 0.005 0
9.68 0.005 0
9.76 0.005 0
9.84 0.005 0
9.92 0.005 0
10 0.005 0
10.08 0.005 0
10.16 0.005 0
10.24 0.005 0
10.32 0.005 0
10.4 0.005 0
10.48 0.005 0
10.56 0.005 0
10.64 0.005 0
10.72 0.005 0
10.8 0.005 0
10.88 0.005 0
10.96 0.005 0
11.04 0.005 0
11.12 0.005 0
11.2 0.005 0
11.28 0.005 0
11.36 0.005 0
11.44 0.005 0
11.52 0.005 0
11.6 0.005 0
11.68 0.005 0
11.76 0.005 0
11.84 0.005 0
11.92 0.005 0
12 0.005 0
12.08 0.005 0
12.16 0.005 0
12.24 0.005 0
12.32 0.005 0
12.4 0.005 0
12.48 0.005 0
12.56 0.005 0
12.64 0.005 0
12.72 0.005 0
12.8 0.005 0
12.88 0.005 0
12.96 0.005 0
13.04 0.005 0
13.12 0.005 0
13.2 0.005 0
13.28 0.005 0
13.36 0.005 0
13.44 0.005 0
13.52 0.005 0
13.6 0.005 0
13.68 0.005 0
13.76 0.005 0
13.84 0.005 0
13.92 0.005 0
14 0.005 0
14.08 0.005 0
14.16 0.005 0
14.24 0.005 0
14.32 0.005 0
14.4 0.005 0
14.48 0.005 0
14.56 0.005 0
14.64 0.005 0
14.72 0.005 0
14.8 0.005 0
14.88 0.005 0
14.96 0.005 0
15.04 0.005 0
15.12 0.005 0
15.2 0.005 0
15.28 0.005 0
15.36 0.005 0
15.44 0.005 0
15.52 0.005 0
15.6 0.005 0
15.68 0.005 0
15.76 0.005 0
15.84 0.005 0
15.92 0.005 0
16 0.005 0
16.08 0.005 0
16.16 0.005 0
16.24 0.005 0
16.32 0.005 0
16.4 0.005 0
16.48 0.005 0
16.56 0.005 0
16.64 0.005 0
16.72 0.005 0
16.8 0.005 0
16.88 0.005 0
16.96 0.005 0
17.04 0.005 0
17.12 0.005 0
17.2 0.005 0
17.28 0.005 0
17.36 0.005 0
17.44 0.005 0
17.52 0.005 0
17.6 0.005 0
17.68 0.005 0
17.76 0.005 0
17.84 0.005 0
17.92 0.005 0
18 0.005 0
18.08 0.005 0
18.16 0.005 0
18.24 0.005 0
18.32 0.005 0
18.4 0.005 0
18.48 0.005 0
18.56 0.005 0
18.64 0.005 0
18.72 0.005 0
18.8 0.005 0
18.88 0.005 0
18.96 0.005 0
19.04 0.005 0
19.12 0.005 0
19.2 0.005 0
19.28 0.005 0
19.36 0.005 0
19.44 0.005 0
19.52 0.005 0
19.6 0.005 0
19.68 0.005 0
19.76 0.005 0
19.84 0.005 0
19.92 0.005 0
20 0.005 0
20.08 0.005 0
20.16 0.005 0
20.24 0.005 0
20.32 0.005 0
20.4 0.005 0
20.48 0.005 0
20.56 0.005 0
20.64 0.005 0
20.72 0.005 0
20.8 0.005 0
20.88 0.005 0
20.96 0.005 0
21.04 0.005 0
21.12 0.005 0
21.2 0.005 0
21.28 0.005 0
21.36 0.005 0
21.44 0.005 0
21.52 0.005 0
21.6 0.005 0
21.68 0.005 0
21.76 0.005 0
21.84 0.005 0
21.92 0.005 0
22 0.005 0
22.08 0.005 0
22.16 0.005 0
22.24 0.005 0
22.32 0.005 0
22.4 0.005 0
22.48 0.005 0
22.56 0.005 0
22.64 0.005 0
22.72 0.005 0
22.8 0.005 0
22.88 0.005 0
22.96 0.005 0
23.04 0.005 0
23.12 0.005 0
23.2 0.005 0
23.28 0.005 0
23.36 0.005 0
23.44 0.005 0
23.52 0.005 0
23.6 0.005 0
23.68 0.005 0
23.76 0.005 0
23.84 0.005 0
23.92 0.005 0
24 0.005 0
24.08 0.005 0
24.16 0.005 0
24.24 0.005 0
24.32 0.005 0
24.4 0.005 0
24.48 0.005 0
24.56 0.005 0
24.64 0.005 0
24.72 0.005 0
24.8 0.005 0
24.88 0.005 0
24.96 0.005 0
25.04 0.005 0
25.12 0.005 0
25.2 0.005 0
25.28 0.005 0
25.36 0.005 0
25.44 0.005 0
25.52 0.005 0
25.6 0.005 0
25.68 0.005 0
25.76 0.005 0
25.84 0.005 0
25.92 0.005 0
26 0.005 0
26.08 0.005 0
26.16 0.005 0
26.24 0.005 0
26.32 0.005 0
26.4 0.005 0
26.48 0.005 0
26.56 0.005 0
26.64 0.005 0
26.72 0.005 0
26.8 0.005 0
26.88 0.005 0
26.96 0.005 0
27.04 0.005 0
27.12 0.005 0
27.2 0.005 0
27.28 0.005 0
27.36 0.005 0
27.44 0.005 0
27.52 0.005 0
27.6 0.005 0
27.68 0.005 0
27.76 0.005 0
27.84 0.005 0
27.92 0.005 0
28 0.005 0
28.08 0.005 0
28.16 0.005 0
28.24 0.005 0
28.32 0.005 0
28.4 0.005 0
28.48 0.005 0
28.56 0.005 0
28.64 0.005 0
28.72 0.005 0
28.8 0.005 0
28.88 0.005 0
28.96 0.005 0
29.04 0.005 0
29.12 0.005 0
29.2 0.005 0
29.28 0.005 0
29.36 0.005 0
29.44 0.005 0
29.52 0.005 0
29.6 0.005 0
29.68 0.005 0
29.76 0.005 0
29.84 0.005 0
29.92 0.005 0
30 0.005 0
30.08 0.005 0
30.16 0.005 0
30.24 0.005 0
30.32 0.005 0
30.4 0.005 0
30.48 0.005 0
30.56 0.005 0
30.64 0.005 0
30.72 0.005 0
30.8 0.005 0
30.88 0.005 0
30.96 0.005 0
31.04 0.005 0
31.12 0.005 0
31.2 0.005 0
31.28 0.005 0
31.36 0.005 0
31.44 0.005 0
31.52 0.005 0
31.6 0.005 0
31.68 0.005 0
31.76 0.005 0
31.84 0.005 0
31.92 0.005 0
0 0.01 0
0.08 0.01 0
0.16 0.01 0
0.24 0.01 0
0.32 0.01 0
0.4 0.01 0
0.48 0.01 0
0.56 0.01 0
0.64 0.01 0
0.72 0.01 0
0.8 0.01 0
0.88 0.01 0
0.96 0.01 0
1.04 0.01 0
1.12 0.01 0
1.2 0.01 0
1.28 0.01 0
1.36 0.01 0
1.44 0.01 0
1.52 0.01 0
1.6 0.01 0
1.68 0.01 0
1.76 0.01 0
1.84 0.01 0
1.92 0.01 0
2 0.01 0
2.08 0.01 0
2.16 0.01 0
2.24 0.01 0
2.32 0.01 0
2.4 0.01 0
2.48 0.01 0
2.56 0.01 0
2.64 0.01 0
2.72 0.01 0
2.8 0.01 0
2.88 0.01 0
2.96 0.01 0
3.04 0.01 0
3.12 0.01 0
3.2 0.01 0
3.28 0.01 0
3.36 0.01 0
3.44 0.01 0
3.52 0.01 0
3.6 0.01 0
3.68 0.01 0
3.76 0.01 0
3.84 0.01 0
3.92 0.01 0
4 0.01 0
4.08 0.01 0
4.16 0.01 0
4.24 0.01 0
4.32 0.01 0
4.4 0.01 0
4.48 0.01 0
4.56 0.01 0
4.64 0.01 0
4.72 0.01 0
4.8 0.01 0
4.88 0.01 0
4.96 0.01 0
5.04 0.01 0
5.12 0.01 0
[...]
POINT_DATA 80000

SCALARS u float 1
LOOKUP_TABLE default
0
-0.1316625604
-0.06826904007
-0.05229576415
-0.04441959989
-0.03957645928
-0.03625933733
-0.03383227028
-0.03197226613
-0.03049556429
-0.029289473
-0.0282811517
-0.02742163769
-0.026676979
-0.02602300594
-0.02544210623
-0.02492116733
-0.02445022832
-0.02402157759
-0.02362913792
-0.0232680404
-0.02293432468
-0.02262472499
-0.02233651494
-0.02206739349
-0.02181539965
-0.02157884799
-0.02135627897
-0.02114642026
-0.02094815618
-0.02076050324
-0.02058259036
-0.02041364275
-0.0202529685
-0.02009994756
-0.01995402238
-0.01981469008
-0.01968149577
-0.01955402685
-0.01943190815
-0.01931479766
-0.01920238295
-0.01909437793
-0.01899052015
-0.01889056832
-0.01879430024
-0.01870151088
-0.01861201078
-0.01852562452
-0.0184421895
-0.01836155471
-0.01828357974
-0.01820813388
-0.01813509521
-0.01806434996
-0.01799579177
-0.0179293211
-0.01786484471
-0.01780227514
-0.0177415303
-0.01768253299
-0.01762521063
-0.01756949484
-0.01751532117
-0.01746262882
-0.01741136036
-0.01736146151
-0.01731288094
-0.01726557005
-0.01721948276
-0.0171745754
-0.01713080651
-0.01708813672
-0.0170465286
-0.01700594655
-0.01696635666
-0.01692772667
-0.01689002577
-0.01685322461
-0.01681729514
-0.01678221058
-0.01674794532
-0.01671447486
-0.01668177575
-0.01664982553
-0.01661860266
-0.0165880865
-0.0165582572
-0.01652909575
-0.01650058385
-0.0164727039
-0.01644543899
-0.01641877283
-0.01639268972
-0.01636717455
-0.01634221273
-0.0163177902
-0.01629389338
-0.01627050915
-0.01624762483
-0.01622522819
-0.01620330736
-0.01618185088
-0.01616084765
-0.0161402869
-0.01612015823
-0.01610045152
-0.01608115697
-0.01606226509
-0.01604376664
-0.01602565265
-0.01600791443
-0.01599054352
-0.0159735317
-0.01595687096
-0.01594055354
-0.01592457185
-0.01590891855
-0.01589358645
-0.01587856858
-0.01586385812
-0.01584944844
-0.01583533309
-0.01582150575
-0.01580796029
-0.01579469072
-0.01578169118
-0.01576895596
-0.01575647951
-0.01574425637
-0.01573228125
-0.01572054895
-0.01570905442
-0.0156977927
-0.01568675897
-0.01567594849
-0.01566535665
-0.01565497894
-0.01564481095
-0.01563484835
-0.01562508694
-0.01561552259
-0.01560615125
-0.01559696899
-0.01558797194
-0.01557915633
-0.01557051845
-0.01556205469
-0.0155537615
-0.01554563543
-0.01553767307
-0.01552987112
-0.01552222631
-0.01551473547
-0.01550739548
-0.01550020328
-0.0154931559
-0.01548625041
-0.01547948394
-0.01547285368
-0.0154663569
-0.01545999089
-0.01545375303
-0.01544764073
-0.01544165146
-0.01543578274
-0.01543003216
-0.01542439733
-0.01541887592
-0.01541346566
-0.0154081643
-0.01540296966
-0.0153978796
-0.015392892
-0.01538800482
-0.01538321604
-0.01537852367
-0.01537392578
-0.01536942047
-0.01536500589
-0.01536068021
-0.01535644164
-0.01535228844
-0.01534821889
-0.01534423131
-0.01534032405
-0.01533649551
-0.0153327441
-0.01532906826
-0.01532546649
-0.0153219373
-0.01531847923
-0.01531509084
-0.01531177074
-0.01530851756
-0.01530532995
-0.0153022066
-0.01529914621
-0.01529614753
-0.0152932093
-0.01529033031
-0.01528750938
-0.01528474534
-0.01528203703
-0.01527938335
-0.0152767832
-0.01527423549
-0.01527173918
-0.01526929322
-0.01526689662
-0.01526454836
-0.01526224749
-0.01525999305
-0.0152577841
-0.01525561973
-0.01525349905
-0.01525142116
-0.01524938522
-0.01524739038
-0.01524543581
-0.01524352069
-0.01524164424
-0.01523980568
-0.01523800424
-0.01523623918
-0.01523450976
-0.01523281527
-0.015231155
-0.01522952826
-0.01522793438
-0.0152263727
-0.01522484256
-0.01522334334
-0.0152218744
-0.01522043514
-0.01521902495
-0.01521764327
-0.0152162895
-0.01521496308
-0.01521366347
-0.01521239013
-0.01521114252
-0.01520992012
-0.01520872243
-0.01520754895
-0.0152063992
-0.01520527268
-0.01520416893
-0.0152030875
-0.01520202793
-0.01520098979
-0.01519997263
-0.01519897604
-0.01519799961
-0.01519704291
-0.01519610556
-0.01519518717
-0.01519428735
-0.01519340573
-0.01519254194
-0.01519169562
-0.01519086641
-0.01519005398
-0.01518925798
-0.01518847808
-0.01518771396
-0.0151869653
-0.01518623178
-0.0151855131
-0.01518480896
-0.01518411907
-0.01518344313
-0.01518278087
-0.01518213201
-0.01518149628
-0.01518087341
-0.01518026314
-0.01517966522
-0.01517907941
-0.01517850544
-0.0151779431
-0.01517739213
-0.01517685231
-0.01517632342
-0.01517580523
-0.01517529753
-0.0151748001
-0.01517431274
-0.01517383525
-0.01517336742
-0.01517290906
-0.01517245998
-0.01517201999
-0.01517158891
-0.01517116655
-0.01517075274
-0.01517034731
-0.01516995009
-0.01516956091
-0.0151691796
-0.01516880602
-0.01516844
-0.01516808139
-0.01516773004
-0.01516738581
-0.01516704855
-0.01516671811
-0.01516639436
-0.01516607717
-0.01516576641
-0.01516546193
-0.01516516362
-0.01516487136
-0.01516458501
-0.01516430445
-0.01516402958
-0.01516376028
-0.01516349643
-0.01516323792
-0.01516298465
-0.01516273651
-0.01516249339
-0.0151622552
-0.01516202183
-0.01516179318
-0.01516156917
-0.01516134969
-0.01516113466
-0.01516092399
-0.01516071758
-0.01516051535
-0.01516031721
-0.01516012309
-0.0151599329
-0.01515974657
-0.015159564
-0.01515938514
-0.01515920989
-0.0151590382
-0.01515886998
-0.01515870517
-0.0151585437
-0.01515838549
-0.01515823049
-0.01515807863
-0.01515792985
-0.01515778408
-0.01515764125
-0.01515750132
-0.01515736422
-0.0151572299
-0.0151570983
-0.01515696936
-0.01515684303
-0.01515671926
-0.01515659799
-0.01515647918
-0.01515636277
-0.01515624873
-0.01515613697
-0.01515602751
-0.01515592023
-0.01515581516
-0.01515571218
-0.01515561133
-0.01515551248
-0.0151554157
-0.0151553208
-0.01515522793
-0.01515513684
-0.01515504774
-0.0151549603
-0.01515487484
-0.0151547909
-0.01515470896
-0.01515462838
-0.01515454986
-0.01515447249
-0.0151543973
-0.015154323
-0.01515425107
-0.01515417972
-0.01515411101
-0.01515404247
-0.01515397701
-0.01515391119
-0.0151538491
-0.01515378599
-0.01515372764
-0.01515366752
-0.01515361379
-0.01515355768
-0.01515351069
-0.01515346157
-0.01515342614
-0.01515339144
-0.01515337672
-0.01515337046
-0.01515337046
-0.01515337046
1
0.1316625604
0.06826904007
0.05229576415
0.04441959989
0.03957645928
0.03625933733
0.03383227028
0.03197226613
0.03049556429
0.029289473
0.0282811517
0.02742163769
0.026676979
0.02602300594
0.02544210623
0.02492116733
0.02445022832
0.02402157759
0.02362913792
0.0232680404
0.02293432468
0.02262472499
0.02233651494
0.02206739349
0.02181539965
0.02157884799
0.02135627897
0.02114642026
0.02094815618
0.02076050324
0.02058259036
0.02041364275
0.0202529685
0.02009994756
0.01995402238
0.01981469008
0.01968149577
0.01955402685
0.01943190815
0.01931479766
0.01920238295
0.01909437793
0.01899052015
0.01889056832
0.01879430024
0.01870151088
0.01861201078
0.01852562452
0.0184421895
0.01836155471
0.01828357974
0.01820813388
0.01813509521
0.01806434996
0.01799579177
0.0179293211
0.01786484471
0.01780227514
0.0177415303
0.01768253299
0.01762521063
0.01756949484
0.01751532117
0.01746262882
0.01741136036
0.01736146151
0.01731288094
0.01726557005
0.01721948276
0.0171745754
0.01713080651
0.01708813672
0.0170465286
0.01700594655
0.01696635666
0.01692772667
0.01689002577
0.01685322461
0.01681729514
0.01678221058
0.01674794532
0.01671447486
0.01668177575
0.01664982553
0.01661860266
0.0165880865
0.0165582572
0.01652909575
0.01650058385
0.0164727039
0.01644543899
0.01641877283
0.01639268972
0.01636717455
0.01634221273
0.0163177902
0.01629389338
0.01627050915
0.01624762483
0.01622522819
0.01620330736
0.01618185088
0.01616084765
0.0161402869
0.01612015823
0.01610045152
0.01608115697
0.01606226509
0.01604376664
0.01602565265
0.01600791443
0.01599054352
0.0159735317
0.01595687096
0.01594055354
0.01592457185
0.01590891855
0.01589358645
0.01587856858
0.01586385812
0.01584944844
0.01583533309
0.01582150575
0.01580796029
0.01579469072
0.01578169118
0.01576895596
0.01575647951
0.01574425637
0.01573228125
0.01572054895
0.01570905442
0.0156977927
0.01568675897
0.01567594849
0.01566535665
0.01565497894
0.01564481095
0.01563484835
0.01562508694
0.01561552259
0.01560615125
0.01559696899
0.01558797194
0.01557915633
0.01557051845
0.01556205469
0.0155537615
0.01554563543
0.01553767307
0.01552987112
0.01552222631
0.01551473547
0.01550739548
0.01550020328
0.0154931559
0.01548625041
0.01547948394
0.01547285368
0.0154663569
0.01545999089
0.01545375303
0.01544764073
0.01544165146
0.01543578274
0.01543003216
0.01542439733
0.01541887592
0.01541346566
0.0154081643
0.01540296966
0.0153978796
0.015392892
0.01538800482
0.01538321604
0.01537852367
0.01537392578
0.01536942047
0.01536500589
0.01536068021
0.01535644164
0.01535228844
0.01534821889
0.01534423131
0.01534032405
0.01533649551
0.0153327441
0.01532906826
0.01532546649
0.0153219373
0.01531847923
0.01531509084
0.01531177074
0.01530851756
0.01530532995
0.0153022066
0.01529914621
0.01529614753
0.0152932093
0.01529033031
0.01528750938
0.01528474534
0.01528203703
0.01527938335
0.0152767832
0.01527423549
0.01527173918
0.01526929322
0.01526689662
0.01526454836
0.01526224749
0.01525999305
0.0152577841
0.01525561973
0.01525349905
0.01525142116
0.01524938522
0.01524739038
0.01524543581
0.01524352069
0.01524164424
0.01523980568
0.01523800424
0.01523623918
0.01523450976
0.01523281527
0.015231155
0.01522952826
0.01522793438
0.0152263727
0.01522484256
0.01522334334
0.0152218744
0.01522043514
0.01521902495
0.01521764327
0.0152162895
0.01521496308
0.01521366347
0.01521239013
0.01521114252
0.01520992012
0.01520872243
0.01520754895
0.0152063992
0.01520527268
0.01520416893
0.0152030875
0.01520202793
0.01520098979
0.01519997263
0.01519897604
0.01519799961
0.01519704291
0.01519610556
0.01519518717
0.01519428735
0.01519340573
0.01519254194
0.01519169562
0.01519086641
0.01519005398
0.01518925798
0.01518847808
0.01518771396
0.0151869653
0.01518623178
0.0151855131
0.01518480896
0.01518411907
0.01518344313
0.01518278087
0.01518213201
0.01518149628
0.01518087341
0.01518026314
0.01517966522
0.01517907941
0.01517850544
0.0151779431
0.01517739213
0.01517685231
0.01517632342
0.01517580523
0.01517529753
0.0151748001
0.01517431274
0.01517383525
0.01517336742
0.01517290906
0.01517245998
0.01517201999
0.01517158891
0.01517116655
0.01517075274
0.01517034731
0.01516995009
0.01516956091
0.0151691796
0.01516880602
0.01516844
0.01516808139
0.01516773004
0.01516738581
0.01516704855
0.01516671811
0.01516639436
0.01516607717
0.01516576641
0.01516546193
0.01516516362
0.01516487136
0.01516458501
0.01516430445
0.01516402958
0.01516376028
0.01516349643
0.01516323792
0.01516298465
0.01516273651
0.01516249339
0.0151622552
0.01516202183
0.01516179318
0.01516156917
0.01516134969
0.01516113466
0.01516092399
0.01516071758
0.01516051535
0.01516031721
0.01516012309
0.0151599329
0.01515974657
0.015159564
0.01515938514
0.01515920989
0.0151590382
0.01515886998
0.01515870517
0.0151585437
0.01515838549
0.01515823049
0.01515807863
0.01515792985
0.01515778408
0.01515764125
0.01515750132
0.01515736422
0.0151572299
0.0151570983
0.01515696936
0.01515684303
0.01515671926
0.01515659799
0.01515647918
0.01515636277
0.01515624873
0.01515613697
0.01515602751
0.01515592023
0.01515581516
0.01515571218
0.01515561133
0.01515551248
0.0151554157
0.0151553208
0.01515522793
0.01515513684
0.01515504774
0.0151549603
0.01515487484
0.0151547909
0.01515470896
0.01515462838
0.01515454986
0.01515447249
0.0151543973
0.015154323
0.01515425107
0.01515417972
0.01515411101
0.01515404247
0.01515397701
0.01515391119
0.0151538491
0.01515378599
0.01515372764
0.01515366752
0.01515361379
0.01515355768
0.01515351069
0.01515346157
0.01515342614
0.01515339144
0.01515337672
0.01515337046
0.01515337046
0.01515337046
1
0.3448836491
0.2006672453
0.154966629
0.1318938664
0.1175978189
0.1077670841
0.1005571198
0.09502405201
0.09062809887
0.08703690015
0.08403490178
0.08147678892
0.07926154556
0.07731711108
0.07559088885
0.07404367256
0.07264565574
0.0713737537
0.07020977342
0.06913914266
0.06815001394
0.06723262349
0.06637882593
0.06558175161
0.06483555056
0.06413519835
0.06347634694
0.06285520833
0.06226846273
0.06171318522
0.06118678638
0.06068696387
0.0602116625
0.05975904098
0.05932744417
0.05891537956
0.05852149739
0.05814457365
0.05778349549
0.0574372487
0.05710490683
0.05678562174
0.05647861536
0.05618317255
0.05589863471
0.05562439429
0.05535988982
0.0551046016
0.05485804783
0.05461978119
0.05438938573
0.05416647423
0.05395068562
0.0537416829
0.05353915105
0.05334279532
0.05315233958
0.05296752485
0.052788108
0.05261386051
0.05244456742
0.05228002628
0.05212004628
0.05196444738
0.0518130596
0.05166572226
0.05152228335
0.05138259898
0.05124653281
0.05111395552
0.05098474441
0.05085878292
0.05073596026
0.05061617105
0.05049931496
0.05038529642
0.05027402432
0.05016541173
0.05005937568
0.04995583688
0.04985471955
0.04975595118
0.04965946237
0.04956518663
0.04947306024
0.04938302208
0.04929501348
0.04920897812
0.04912486186
0.04904261265
0.04896218043
0.04888351699
0.04880657591
0.04873131245
0.04865768347
0.04858564735
0.04851516391
0.04844619435
0.04837870119
0.04831264817
0.04824800025
0.04818472349
0.04812278506
0.04806215314
0.04800279692
0.0479446865
0.04788779292
0.04783208805
0.0477775446
0.04772413608
0.04767183675
0.04762062159
0.0475704663
0.04752134723
0.04747324139
0.04742612641
0.04737998052
0.04733478251
0.04729051173
0.04724714808
0.04720467195
0.04716306424
0.04712230634
0.04708238007
0.04704326773
0.04700495205
0.04696741615
0.04693064359
0.04689461829
0.04685932458
0.04682474713
0.046790871
0.04675768155
0.04672516453
0.04669330596
0.04666209223
0.04663150999
0.04660154622
0.04657218818
0.04654342341
0.04651523973
0.04648762522
0.04646056823
0.04643405736
0.04640808145
0.04638262958
0.04635769108
0.0463332555
0.0463093126
0.04628585237
0.04626286502
0.04624034094
0.04621827076
0.04619664526
0.04617545545
0.04615469252
0.04613434783
0.04611441293
0.04609487954
0.04607573957
0.04605698506
0.04603860824
0.0460206015
0.04600295738
0.04598566857
0.04596872791
0.04595212839
0.04593586315
0.04591992545
0.04590430871
0.04588900646
0.04587401238
0.04585932027
0.04584492406
0.0458308178
0.04581699565
0.04580345191
0.04579018098
0.04577717738
0.04576443573
0.04575195077
0.04573971734
0.04572773038
0.04571598495
0.04570447618
0.04569319932
0.04568214971
0.04567132279
0.04566071408
0.04565031919
0.04564013383
0.04563015378
0.04562037492
0.0456107932
0.04560140467
0.04559220543
0.04558319169
0.04557435971
0.04556570584
0.0455572265
0.04554891818
0.04554077744
0.04553280091
0.04552498529
0.04551732734
0.04550982389
0.04550247183
0.04549526812
0.04548820976
0.04548129385
0.0454745175
0.04546787792
0.04546137235
0.04545499809
0.04544875249
0.04544263298
0.04543663701
0.04543076209
0.04542500579
0.04541936571
0.04541383952
0.04540842493
0.04540311968
0.04539792157
0.04539282845
0.0453878382
0.04538294874
0.04537815805
0.04537346414
0.04536886505
0.04536435888
0.04535994374
0.04535561782
0.0453513793
0.04534722643
0.04534315748
0.04533917075
0.04533526459
0.04533143738
0.04532768752
0.04532401346
0.04532041366
0.04531688662
0.04531343088
0.045310045
0.04530672757
0.04530347721
0.04530029256
0.0452971723
0.04529411514
0.04529111979
0.045288185
0.04528530957
0.04528249228
0.04527973197
0.04527702748
0.04527437769
0.04527178149
0.0452692378
0.04526674556
0.04526430373
0.0452619113
0.04525956725
0.04525727063
0.04525502047
0.04525281583
0.04525065579
0.04524853945
0.04524646592
0.04524443435
0.04524244389
0.0452404937
0.04523858297
0.0452367109
0.04523487671
0.04523307964
0.04523131893
0.04522959386
0.04522790369
0.04522624773
0.04522462528
0.04522303567
0.04522147823
0.04521995231
0.04521845728
0.04521699251
0.04521555738
0.0452141513
0.04521277369
0.04521142395
0.04521010155
0.04520880591
0.04520753649
0.04520629278
0.04520507424
0.04520388038
0.04520271068
0.04520156466
0.04520044185
0.04519934176
0.04519826395
0.04519720797
0.04519617336
0.0451951597
0.04519416657
0.04519319355
0.04519224022
0.04519130621
0.0451903911
0.04518949453
0.04518861611
0.04518775548
0.04518691227
0.04518608615
0.04518527675
0.04518448374
0.04518370679
0.04518294558
0.04518219978
0.04518146909
0.0451807532
0.0451800518
0.04517936461
0.04517869133
0.04517803169
0.04517738541
0.04517675222
0.04517613186
0.04517552405
0.04517492856
0.04517434513
0.04517377351
0.04517321348
0.04517266478
0.0451721272
0.0451716005
0.04517108447
0.0451705789
0.04517008356
0.04516959825
0.04516912277
0.04516865692
0.04516820051
0.04516775333
0.04516731521
0.04516688597
0.0451664654
0.04516605337
0.04516564966
0.04516525414
0.04516486661
0.04516448694
0.04516411494
0.04516375049
0.04516339339
0.04516304356
0.04516270076
0.04516236496
0.0451620359
0.04516171357
0.0451613977
0.04516108832
0.0451607851
0.04516048817
0.0451601971
0.04515991215
0.04515963275
0.04515935933
0.04515909114
0.04515882882
0.0451585714
0.0451583198
0.04515807271
0.04515783149
0.04515759432
0.04515736316
0.04515713549
0.04515691412
0.04515669556
0.04515648378
0.04515627394
0.04515607163
0.04515587013
0.04515567735
0.04515548391
0.045155301
0.04515511563
0.04515494359
0.04515476708
0.04515460839
0.04515444368
0.04515430432
0.04515415981
0.04515405351
0.04515395023
0.04515390327
0.04515388083
0.04515388083
0.04515388083
1
0.5187651867
0.3274011945
0.2553467807
0.2178477673
0.1944026528
0.1782107414
0.1663061343
0.157157057
0.1498824531
0.1439375553
0.1389678786
0.134733792
0.1310683329
0.1278521718
0.1249980809
0.1224409664
0.1201313039
0.1180307215
0.1161089746
0.1143418407
0.1127096323
0.1111961315
0.1097878155
0.1084732857
0.1072428407
0.106088153
0.1050020196
0.1039781682
0.1030111044
0.102095989
0.1012285394
0.1004049492
0.09962182131
0.098876113
0.09816508977
0.09748628628
0.09683747336
0.09621662984
0.09562191839
0.0950516647
0.0945043395
0.09397854298
0.09347299108
0.09298650367
0.09251799405
0.09206645979
0.09163097457
0.09121068103
0.09080478439
0.09041254676
0.09003328209
0.08966635167
0.08931116003
0.08896715133
0.08863380609
0.08831063821
0.08799719233
0.08769304141
0.08739778451
0.08711104486
0.08683246799
0.0865617201
0.08629848659
0.08604247063
0.08579339194
0.08555098562
0.08531500106
0.08508520105
0.08486136079
0.08464326712
0.08443071773
0.08422352049
0.08402149275
0.0838244608
0.08363225924
0.08344473055
0.08326172451
0.08308309786
0.08290871381
0.08273844166
0.08257215651
0.08240973884
0.08225107425
0.08209605316
0.08194457054
0.08179652563
0.08165182177
0.0815103661
0.08137206941
0.08123684592
0.0811046131
0.08097529152
0.08084880468
0.08072507883
0.08060404289
0.08048562828
0.08036976878
0.08025640047
0.08014546156
0.08003689234
0.07993063504
0.07982663376
0.0797248344
0.07962518455
0.07952763342
0.07943213178
0.0793386319
0.07924708746
0.0791574535
0.07906968636
0.07898374367
0.07889958421
0.07881716795
0.07873645595
0.07865741035
0.0785799943
0.07850417193
0.07842990834
0.07835716952
0.07828592236
0.07821613459
0.07814777475
0.07808081219
0.078015217
0.07795096004
0.07788801285
0.07782634767
0.07776593742
0.07770675566
0.07764877657
0.07759197494
0.07753632614
0.07748180614
0.07742839142
0.07737605903
0.07732478652
0.07727455198
0.07722533395
0.07717711147
0.07712986405
0.07708357164
0.07703821464
0.07699377388
0.07695023059
0.07690756643
0.07686576344
0.07682480406
0.07678467109
0.07674534771
0.07670681745
0.07666906419
0.07663207215
0.07659582589
0.07656031028
0.07652551053
0.07649141213
0.0764580009
0.07642526293
0.07639318462
0.07636175263
0.07633095392
0.0763007757
0.07627120544
0.07624223089
0.07621384004
0.07618602111
0.07615876258
0.07613205316
0.07610588179
0.07608023764
0.07605511009
0.07603048873
0.0760063634
0.07598272409
0.07595956104
0.07593686465
0.07591462556
0.07589283455
0.07587148261
0.07585056093
0.07583006083
0.07580997385
0.07579029168
0.07577100618
0.07575210937
0.07573359344
0.07571545074
0.07569767375
0.07568025513
0.07566318766
0.07564646429
0.07563007811
0.07561402232
0.07559829029
0.07558287551
0.07556777159
0.07555297229
0.07553847147
0.07552426314
0.07551034141
0.07549670052
0.07548333482
0.07547023877
0.07545740694
0.07544483402
0.07543251481
0.07542044419
0.07540861716
0.07539702883
0.07538567438
0.07537454911
0.0753636484
0.07535296774
0.07534250269
0.07533224892