# vtk DataFile Version 2.0
FlowField
ASCII
DATASET STRUCTURED_GRID
DIMENSIONS 400 1 200
POINTS 80000 float
0 0 0
0.08 0 0
0.16 0 0
0.24 0 0
0.32 0 0
0.4 0 0
0.48 0 0
0.56 0 0
0.64 0 0
0.72 0 0
0.8 0 0
0.88 0 0
0.96 0 0
1.04 0 0
1.12 0 0
1.2 0 0
1.28 0 0
1.36 0 0
1.44 0 0
1.52 0 0
1.6 0 0
1.68 0 0
1.76 0 0
1.84 0 0
1.92 0 0
2 0 0
2.08 0 0
2.16 0 0
2.24 0 0
2.32 0 0
2.4 0 0
2.48 0 0
2.56 0 0
2.64 0 0
2.72 0 0
2.8 0 0
2.88 0 0
2.96 0 0
3.04 0 0
3.12 0 0
3.2 0 0
3.28 0 0
3.36 0 0
3.44 0 0
3.52 0 0
3.6 0 0
3.68 0 0
3.76 0 0
3.84 0 0
3.92 0 0
4 0 0
4.08 0 0
4.16 0 0
4.24 0 0
4.32 0 0
4.4 0 0
4.48 0 0
4.56 0 0
4.64 0 0
4.72 0 0
4.8 0 0
4.88 0 0
4.96 0 0
5.04 0 0
5.12 0 0
5.2 0 0
5.28 0 0
5.36 0 0
5.44 0 0
5.52 0 0
5.6 0 0
5.68 0 0
5.76 0 0
5.84 0 0
5.92 0 0
6 0 0
6.08 0 0
6.16 0 0
6.24 0 0
6.32 0 0
6.4 0 0
6.48 0 0
6.56 0 0
6.64 0 0
6.72 0 0
6.8 0 0
6.88 0 0
6.96 0 0
7.04 0 0
7.12 0 0
7.2 0 0
7.28 0 0
7.36 0 0
7.44 0 0
7.52 0 0
7.6 0 0
7.68 0 0
7.76 0 0
7.84 0 0
7.92 0 0
8 0 0
8.08 0 0
8.16 0 0
8.24 0 0
8.32 0 0
8.4 0 0
8.48 0 0
8.56 0 0
8.64 0 0
8.72 0 0
8.8 0 0
8.88 0 0
8.96 0 0
9.04 0 0
9.12 0 0
9.2 0 0
9.28 0 0
9.36 0 0
9.44 0 0
9.52 0 0
9.6 0 0
9.68 0 0
9.76 0 0
9.84 0 0
9.92 0 0
10 0 0
10.08 0 0
10.16 0 0
10.24 0 0
10.32 0 0
10.4 0 0
10.48 0 0
10.56 0 0
10.64 0 0
10.72 0 0
10.8 0 0
10.88 0 0
10.96 0 0
11.04 0 0
11.12 0 0
11.2 0 0
11.28 0 0
11.36 0 0
11.44 0 0
11.52 0 0
11.6 0 0
11.68 0 0
11.76 0 0
11.84 0 0
11.92 0 0
12 0 0
12.08 0 0
12.16 0 0
12.24 0 0
12.32 0 0
12.4 0 0
12.48 0 0
12.56 0 0
12.64 0 0
12.72 0 0
12.8 0 0
12.88 0 0
12.96 0 0
13.04 0 0
13.12 0 0
13.2 0 0
13.28 0 0
13.36 0 0
13.44 0 0
13.52 0 0
13.6 0 0
13.68 0 0
13.76 0 0
13.84 0 0
13.92 0 0
14 0 0
14.08 0 0
14.16 0 0
14.24 0 0
14.32 0 0
14.4 0 0
14.48 0 0
14.56 0 0
14.64 0 0
14.72 0 0
14.8 0 0
14.88 0 0
14.96 0 0
15.04 0 0
15.12 0 0
15.2 0 0
15.28 0 0
15.36 0 0
15.44 0 0
15.52 0 0
15.6 0 0
15.68 0 0
15.76 0 0
15.84 0 0
15.92 0 0
16 0 0
16.08 0 0
16.16 0 0
16.24 0 0
16.32 0 0
16.4 0 0
16.48 0 0
16.56 0 0
16.64 0 0
16.72 0 0
16.8 0 0
16.88 0 0
16.96 0 0
17.04 0 0
17.12 0 0
17.2 0 0
17.28 0 0
17.36 0 0
17.44 0 0
17.52 0 0
17.6 0 0
17.68 0 0
17.76 0 0
17.84 0 0
17.92 0 0
18 0 0
18.08 0 0
18.16 0 0
18.24 0 0
18.32 0 0
18.4 0 0
18.48 0 0
18.56 0 0
18.64 0 0
18.72 0 0
18.8 0 0
18.88 0 0
18.96 0 0
19.04 0 0
19.12 0 0
19.2 0 0
19.28 0 0
19.36 0 0
19.44 0 0
19.52 0 0
19.6 0 0
19.68 0 0
19.76 0 0
19.84 0 0
19.92 0 0
20 0 0
20.08 0 0
20.16 0 0
20.24 0 0
20.32 0 0
20.4 0 0
20.48 0 0
20.56 0 0
20.64 0 0
20.72 0 0
20.8 0 0
20.88 0 0
20.96 0 0
21.04 0 0
21.12 0 0
21.2 0 0
21.28 0 0
21.36 0 0
21.44 0 0
21.52 0 0
21.6 0 0
21.68 0 0
21.76 0 0
21.84 0 0
21.92 0 0
22 0 0
22.08 0 0
22.16 0 0
22.24 0 0
22.32 0 0
22.4 0 0
22.48 0 0
22.56 0 0
22.64 0 0
22.72 0 0
22.8 0 0
22.88 0 0
22.96 0 0
23.04 0 0
23.12 0 0
23.2 0 0
23.28 0 0
23.36 0 0
23.44 0 0
23.52 0 0
23.6 0 0
23.68 0 0
23.76 0 0
23.84 0 0
23.92 0 0
24 0 0
24.08 0 0
24.16 0 0
24.24 0 0
24.32 0 0
24.4 0 0
24.48 0 0
24.56 0 0
24.64 0 0
24.72 0 0
24.8 0 0
24.88 0 0
24.96 0 0
25.04 0 0
25.12 0 0
25.2 0 0
25.28 0 0
25.36 0 0
25.44 0 0
25.52 0 0
25.6 0 0
25.68 0 0
25.76 0 0
25.84 0 0
25.92 0 0
26 0 0
26.08 0 0
26.16 0 0
26.24 0 0
26.32 0 0
26.4 0 0
26.48 0 0
26.56 0 0
26.64 0 0
26.72 0 0
26.8 0 0
26.88 0 0
26.96 0 0
27.04 0 0
27.12 0 0
27.2 0 0
27.28 0 0
27.36 0 0
27.44 0 0
27.52 0 0
27.6 0 0
27.68 0 0
27.76 0 0
27.84 0 0
27.92 0 0
28 0 0
28.08 0 0
28.16 0 0
28.24 0 0
28.32 0 0
28.4 0 0
28.48 0 0
28.56 0 0
28.64 0 0
28.72 0 0
28.8 0 0
28.88 0 0
28.96 0 0
29.04 0 0
29.12 0 0
29.2 0 0
29.28 0 0
29.36 0 0
29.44 0 0
29.52 0 0
29.6 0 0
29.68 0 0
29.76 0 0
29.84 0 0
29.92 0 0
30 0 0
30.08 0 0
30.16 0 0
30.24 0 0
30.32 0 0
30.4 0 0
30.48 0 0
30.56 0 0
30.64 0 0
30.72 0 0
30.8 0 0
30.88 0 0
30.96 0 0
31.04 0 0
31.12 0 0
31.2 0 0
31.28 0 0
31.36 0 0
31.44 0 0
31.52 0 0
31.6 0 0
31.68 0 0
31.76 0 0
31.84 0 0
31.92 0 0
0 0.005 0
0.08 0.005 0
0.16 0.005 0
0.24 0.005 0
0.32 0.005 0
0.4 0.005 0
0.48 0.005 0
0.56 0.005 0
0.64 0.005 0
0.72 0.005 0
0.8 0.005 0
0.88 0.005 0
0.96 0.005 0
1.04 0.005 0
1.12 0.005 0
1.2 0.005 0
1.28 0.005 0
1.36 0.005 0
1.44 0.005 0
1.52 0.005 0
1.6 0.005 0
1.68 0.005 0
1.76 0.005 0
1.84 0.005 0
1.92 0.005 0
2 0.005 0
2.08 0.005 0
2.16 0.005 0
2.24 0.005 0
2.32 0.005 0
2.4 0.005 0
2.48 0.005 0
2.56 0.005 0
2.64 0.005 0
2.72 0.005 0
2.8 0.005 0
2.88 0.005 0
2.96 0.005 0
3.04 0.005 0
3.12 0.005 0
3.2 0.005 0
3.28 0.005 0
3.36 0.005 0
3.44 0.005 0
3.52 0.005 0
3.6 0.005 0
3.68 0.005 0
3.76 0.005 0
3.84 0.005 0
3.92 0.005 0
4 0.005 0
4.08 0.005 0
4.16 0.005 0
4.24 0.005 0
4.32 0.005 0
4.4 0.005 0
4.48 0.005 0
4.56 0.005 0
4.64 0.005 0
4.72 0.005 0
4.8 0.005 0
4.88 0.005 0
4.96 0.005 0
5.04 0.005 0
5.12 0.005 0
5.2 0.005 0
5.28 0.005 0
5.36 0.005 0
5.44 0.005 0
5.52 0.005 0
5.6 0.005 0
5.68 0.005 0
5.76 0.005 0
5.84 0.005 0
5.92 0.005 0
6 0.005 0
6.08 0.005 0
6.16 0.005 0
6.24 0.005 0
6.32 0.005 0
6.4 0.005 0
6.48 0.005 0
6.56 0.005 0
6.64 0.005 0
6.72 0.005 0
6.8 0.005 0
6.88 0.005 0
6.96 0.005 0
7.04 0.005 0
7.12 0.005 0
7.2 0.005 0
7.28 0.005 0
7.36 0.005 0
7.44 0.005 0
7.52 0.005 0
7.6 0.005 0
7.68 0.005 0
7.76 0.005 0
7.84 0.005 0
7.92 0.005 0
8 0.005 0
8.08 0.005 0
8.16 0.005 0
8.24 0.005 0
8.32 0.005 0
8.4 0.005 0
8.48 0.005 0
8.56 0.005 0
8.64 0.005 0
8.72 0.005 0
8.8 0.005 0
8.88 0.005 0
8.96 0.005 0
9.04 0.005 0
9.12 0.005 0
9.2 0.005 0
9.28 0.005 0
9.36 0.005 0
9.44 0.005 0
9.52 0.005 0
9.6 0.005 0
9.68 0.005 0
9.76 0.005 0
9.84 0.005 0
9.92 0.005 0
10 0.005 0
10.08 0.005 0
10.16 0.005 0
10.24 0.005 0
10.32 0.005 0
10.4 0.005 0
10.48 0.005 0
10.56 0.005 0
10.64 0.005 0
10.72 0.005 0
10.8 0.005 0
10.88 0.005 0
10.96 0.005 0
11.04 0.005 0
11.12 0.005 0
11.2 0.005 0
11.28 0.005 0
11.36 0.005 0
11.44 0.005 0
11.52 0.005 0
11.6 0.005 0
11.68 0.005 0
11.76 0.005 0
11.84 0.005 0
11.92 0.005 0
12 0.005 0
12.08 0.005 0
12.16 0.005 0
12.24 0.005 0
12.32 0.005 0
12.4 0.005 0
12.48 0.005 0
12.56 0.005 0
12.64 0.005 0
12.72 0.005 0
12.8 0.005 0
12.88 0.005 0
12.96 0.005 0
13.04 0.005 0
13.12 0.005 0
13.2 0.005 0
13.28 0.005 0
13.36 0.005 0
13.44 0.005 0
13.52 0.005 0
13.6 0.005 0
13.68 0.005 0
13.76 0.005 0
13.84 0.005 0
13.92 0.005 0
14 0.005 0
14.08 0.005 0
14.16 0.005 0
14.24 0.005 0
14.32 0.005 0
14.4 0.005 0
14.48 0.005 0
14.56 0.005 0
14.64 0.005 0
14.72 0.005 0
14.8 0.005 0
14.88 0.005 0
14.96 0.005 0
15.04 0.005 0
15.12 0.005 0
15.2 0.005 0
15.28 0.005 0
15.36 0.005 0
15.44 0.005 0
15.52 0.005 0
15.6 0.005 0
15.68 0.005 0
15.76 0.005 0
15.84 0.005 0
15.92 0.005 0
16 0.005 0
16.08 0.005 0
16.16 0.005 0
16.24 0.005 0
16.32 0.005 0
16.4 0.005 0
16.48 0.005 0
16.56 0.005 0
16.64 0.005 0
16.72 0.005 0
16.8 0.005 0
16.88 0.005 0
16.96 0.005 0
17.04 0.005 0
17.12 0.005 0
17.2 0.005 0
17.28 0.005 0
17.36 0.005 0
17.44 0.005 0
17.52 0.005 0
17.6 0.005 0
17.68 0.005 0
17.76 0.005 0
17.84 0.005 0
17.92 0.005 0
18 0.005 0
18.08 0.005 0
18.16 0.005 0
18.24 0.005 0
18.32 0.005 0
18.4 0.005 0
18.48 0.005 0
18.56 0.005 0
18.64 0.005 0
18.72 0.005 0
18.8 0.005 0
18.88 0.005 0
18.96 0.005 0
19.04 0.005 0
19.12 0.005 0
19.2 0.005 0
19.28 0.005 0
19.36 0.005 0
19.44 0.005 0
19.52 0.005 0
19.6 0.005 0
19.68 0.005 0
19.76 0.005 0
19.84 0.005 0
19.92 0.005 0
20 0.005 0
20.08 0.005 0
20.16 0.005 0
20.24 0.005 0
20.32 0.005 0
20.4 0.005 0
20.48 0.005 0
20.56 0.005 0
20.64 0.005 0
20.72 0.005 0
20.8 0.005 0
20.88 0.005 0
20.96 0.005 0
21.04 0.005 0
21.12 0.005 0
21.2 0.005 0
21.28 0.005 0
21.36 0.005 0
21.44 0.005 0
21.52 0.005 0
21.6 0.005 0
21.68 0.005 0
21.76 0.005 0
21.84 0.005 0
21.92 0.005 0
22 0.005 0
22.08 0.005 0
22.16 0.005 0
22.24 0.005 0
22.32 0.005 0
22.4 0.005 0
22.48 0.005 0
22.56 0.005 0
22.64 0.005 0
22.72 0.005 0
22.8 0.005 0
22.88 0.005 0
22.96 0.005 0
23.04 0.005 0
23.12 0.005 0
23.2 0.005 0
23.28 0.005 0
23.36 0.005 0
23.44 0.005 0
23.52 0.005 0
23.6 0.005 0
23.68 0.005 0
23.76 0.005 0
23.84 0.005 0
23.92 0.005 0
24 0.005 0
24.08 0.005 0
24.16 0.005 0
24.24 0.005 0
24.32 0.005 0
24.4 0.005 0
24.48 0.005 0
24.56 0.005 0
24.64 0.005 0
24.72 0.005 0
24.8 0.005 0
24.88 0.005 0
24.96 0.005 0
25.04 0.005 0
25.12 0.005 0
25.2 0.005 0
25.28 0.005 0
25.36 0.005 0
25.44 0.005 0
25.52 0.005 0
25.6 0.005 0
25.68 0.005 0
25.76 0.005 0
25.84 0.005 0
25.92 0.005 0
26 0.005 0
26.08 0.005 0
26.16 0.005 0
26.24 0.005 0
26.32 0.005 0
26.4 0.005 0
26.48 0.005 0
26.56 0.005 0
26.64 0.005 0
26.72 0.005 0
26.8 0.005 0
26.88 0.005 0
26.96 0.005 0
27.04 0.005 0
27.12 0.005 0
27.2 0.005 0
27.28 0.005 0
27.36 0.005 0
27.44 0.005 0
27.52 0.005 0
27.6 0.005 0
27.68 0.005 0
27.76 0.005 0
27.84 0.005 0
27.92 0.005 0
28 0.005 0
28.08 0.005 0
28.16 0.005 0
28.24 0.005 0
28.32 0.005 0
28.4 0.005 0
28.48 0.005 0
28.56 0.005 0
28.64 0.005 0
28.72 0.005 0
28.8 0.005 0
28.88 0.005 0
28.96 0.005 0
29.04 0.005 0
29.12 0.005 0
29.2 0.005 0
29.28 0.005 0
29.36 0.005 0
29.44 0.005 0
29.52 0.005 0
29.6 0.005 0
29.68 0.005 0
29.76 0.005 0
29.84 0.005 0
29.92 0.005 0
30 0.005 0
30.08 0.005 0
30.16 0.005 0
30.24 0.005 0
30.32 0.005 0
30.4 0.005 0
30.48 0.005 0
30.56 0.005 0
30.64 0.005 0
30.72 0.005 0
30.8 0.005 0
30.88 0.005 0
30.96 0.005 0
31.04 0.005 0
31.12 0.005 0
31.2 0.005 0
31.28 0.005 0
31.36 0.005 0
31.44 0.005 0
31.52 0.005 0
31.6 0.005 0
31.68 0.005 0
31.76 0.005 0
31.84 0.005 0
31.92 0.005 0
0 0.01 0
0.08 0.01 0
0.16 0.01 0
0.24 0.01 0
0.32 0.01 0
0.4 0.01 0
0.48 0.01 0
0.56 0.01 0
0.64 0.01 0
0.72 0.01 0
0.8 0.01 0
0.88 0.01 0
0.96 0.01 0
1.04 0.01 0
1.12 0.01 0
1.2 0.01 0
1.28 0.01 0
1.36 0.01 0
1.44 0.01 0
1.52 0.01 0
1.6 0.01 0
1.68 0.01 0
1.76 0.01 0
1.84 0.01 0
1.92 0.01 0
2 0.01 0
2.08 0.01 0
2.16 0.01 0
2.24 0.01 0
2.32 0.01 0
2.4 0.01 0
2.48 0.01 0
2.56 0.01 0
2.64 0.01 0
2.72 0.01 0
2.8 0.01 0
2.88 0.01 0
2.96 0.01 0
3.04 0.01 0
3.12 0.01 0
3.2 0.01 0
3.28 0.01 0
3.36 0.01 0
3.44 0.01 0
3.52 0.01 0
3.6 0.01 0
3.68 0.01 0
3.76 0.01 0
3.84 0.01 0
3.92 0.01 0
4 0.01 0
4.08 0.01 0
4.16 0.01 0
4.24 0.01 0
4.32 0.01 0
4.4 0.01 0
4.48 0.01 0
4.56 0.01 0
4.64 0.01 0
4.72 0.01 0
4.8 0.01 0
4.88 0.01 0
4.96 0.01 0
5.04 0.01 0
5.12 0.01 0
[...]
POINT_DATA 80000

SCALARS u float 1
LOOKUP_TABLE default
0
-0.1316625604
-0.06826904008
-0.05229576416
-0.04441959991
-0.03957645929
-0.03625933734
-0.0338322703
-0.03197226614
-0.03049556431
-0.02928947302
-0.02828115172
-0.02742163771
-0.02667697902
-0.02602300596
-0.02544210625
-0.02492116735
-0.02445022834
-0.02402157761
-0.02362913794
-0.02326804042
-0.0229343247
-0.02262472501
-0.02233651497
-0.02206739351
-0.02181539967
-0.02157884801
-0.02135627899
-0.02114642029
-0.02094815621
-0.02076050326
-0.02058259039
-0.02041364277
-0.02025296853
-0.02009994759
-0.01995402241
-0.01981469011
-0.01968149579
-0.01955402688
-0.01943190817
-0.01931479768
-0.01920238297
-0.01909437795
-0.01899052017
-0.01889056834
-0.01879430026
-0.01870151091
-0.0186120108
-0.01852562454
-0.01844218952
-0.01836155473
-0.01828357976
-0.0182081339
-0.01813509523
-0.01806434998
-0.01799579179
-0.01792932112
-0.01786484473
-0.01780227516
-0.01774153031
-0.01768253301
-0.01762521065
-0.01756949486
-0.01751532119
-0.01746262883
-0.01741136037
-0.01736146153
-0.01731288096
-0.01726557006
-0.01721948277
-0.01717457541
-0.01713080652
-0.01708813673
-0.01704652861
-0.01700594656
-0.01696635668
-0.01692772668
-0.01689002578
-0.01685322462
-0.01681729515
-0.01678221058
-0.01674794532
-0.01671447487
-0.01668177576
-0.01664982554
-0.01661860267
-0.0165880865
-0.01655825721
-0.01652909576
-0.01650058385
-0.0164727039
-0.01644543899
-0.01641877283
-0.01639268972
-0.01636717455
-0.01634221273
-0.0163177902
-0.01629389338
-0.01627050915
-0.01624762483
-0.01622522819
-0.01620330736
-0.01618185088
-0.01616084765
-0.0161402869
-0.01612015823
-0.01610045152
-0.01608115697
-0.01606226509
-0.01604376664
-0.01602565265
-0.01600791443
-0.01599054352
-0.0159735317
-0.01595687096
-0.01594055354
-0.01592457186
-0.01590891855
-0.01589358646
-0.01587856858
-0.01586385812
-0.01584944845
-0.01583533309
-0.01582150576
-0.01580796031
-0.01579469073
-0.01578169119
-0.01576895598
-0.01575647953
-0.01574425639
-0.01573228127
-0.01572054898
-0.01570905445
-0.01569779273
-0.015686759
-0.01567594852
-0.01566535669
-0.01565497898
-0.01564481099
-0.0156348484
-0.015625087
-0.01561552265
-0.01560615132
-0.01559696906
-0.01558797202
-0.01557915641
-0.01557051854
-0.01556205478
-0.01555376161
-0.01554563554
-0.01553767319
-0.01552987125
-0.01552222645
-0.01551473561
-0.01550739563
-0.01550020345
-0.01549315608
-0.0154862506
-0.01547948414
-0.0154728539
-0.01546635713
-0.01545999113
-0.01545375328
-0.015447641
-0.01544165175
-0.01543578305
-0.01543003248
-0.01542439767
-0.01541887628
-0.01541346604
-0.0154081647
-0.01540297009
-0.01539788005
-0.01539289248
-0.01538800532
-0.01538321656
-0.01537852422
-0.01537392635
-0.01536942108
-0.01536500652
-0.01536068087
-0.01535644234
-0.01535228917
-0.01534821965
-0.01534423211
-0.01534032489
-0.01533649638
-0.01533274501
-0.01532906922
-0.01532546749
-0.01532193834
-0.0153184803
-0.01531509196
-0.01531177191
-0.01530851878
-0.01530533122
-0.01530220792
-0.01529914758
-0.01529614894
-0.01529321076
-0.01529033183
-0.01528751096
-0.01528474697
-0.01528203872
-0.0152793851
-0.015276785
-0.01527423736
-0.0152717411
-0.01526929521
-0.01526689866
-0.01526455047
-0.01526224967
-0.01525999529
-0.01525778641
-0.0152556221
-0.01525350148
-0.01525142366
-0.01524938779
-0.01524739301
-0.01524543851
-0.01524352346
-0.01524164708
-0.01523980858
-0.01523800721
-0.01523624222
-0.01523451286
-0.01523281844
-0.01523115823
-0.01522953156
-0.01522793775
-0.01522637613
-0.01522484605
-0.01522334689
-0.01522187801
-0.01522043881
-0.01521902869
-0.01521764706
-0.01521629335
-0.01521496699
-0.01521366744
-0.01521239415
-0.01521114659
-0.01520992425
-0.01520872661
-0.01520755318
-0.01520640347
-0.015205277
-0.01520417329
-0.01520309191
-0.01520203238
-0.01520099427
-0.01519997716
-0.0151989806
-0.0151980042
-0.01519704754
-0.01519611022
-0.01519519186
-0.01519429207
-0.01519341047
-0.01519254671
-0.01519170041
-0.01519087123
-0.01519005881
-0.01518926283
-0.01518848295
-0.01518771885
-0.0151869702
-0.0151862367
-0.01518551803
-0.0151848139
-0.01518412401
-0.01518344809
-0.01518278583
-0.01518213698
-0.01518150125
-0.01518087838
-0.01518026812
-0.01517967021
-0.01517908439
-0.01517851043
-0.01517794808
-0.01517739711
-0.01517685729
-0.01517632839
-0.0151758102
-0.0151753025
-0.01517480507
-0.0151743177
-0.0151738402
-0.01517337236
-0.015172914
-0.01517246491
-0.01517202491
-0.01517159381
-0.01517117144
-0.01517075762
-0.01517035218
-0.01516995494
-0.01516956575
-0.01516918443
-0.01516881083
-0.0151684448
-0.01516808617
-0.01516773481
-0.01516739055
-0.01516705327
-0.01516672282
-0.01516639905
-0.01516608184
-0.01516577105
-0.01516546656
-0.01516516823
-0.01516487594
-0.01516458957
-0.01516430899
-0.0151640341
-0.01516376478
-0.0151635009
-0.01516324237
-0.01516298908
-0.01516274091
-0.01516249777
-0.01516225955
-0.01516202616
-0.01516179749
-0.01516157346
-0.01516135396
-0.0151611389
-0.0151609282
-0.01516072177
-0.01516051952
-0.01516032136
-0.01516012722
-0.01515993701
-0.01515975065
-0.01515956807
-0.01515938918
-0.01515921392
-0.01515904221
-0.01515887397
-0.01515870914
-0.01515854765
-0.01515838944
-0.01515823442
-0.01515808255
-0.01515793375
-0.01515778797
-0.01515764513
-0.0151575052
-0.01515736809
-0.01515723377
-0.01515710216
-0.01515697322
-0.01515684689
-0.01515672313
-0.01515660185
-0.01515648306
-0.01515636665
-0.01515625263
-0.01515614087
-0.01515603143
-0.01515592415
-0.01515581911
-0.01515571612
-0.0151556153
-0.01515551643
-0.01515541968
-0.01515532474
-0.0151552319
-0.01515514074
-0.01515505165
-0.01515496411
-0.01515487865
-0.01515479456
-0.01515471259
-0.0151546318
-0.0151545532
-0.01515447555
-0.01515440024
-0.01515432557
-0.01515425346
-0.0151541816
-0.01515411264
-0.01515404346
-0.01515397766
-0.01515391102
-0.0151538485
-0.01515378438
-0.01515372551
-0.01515366419
-0.01515360985
-0.01515355241
-0.01515350478
-0.01515345435
-0.01515341844
-0.01515338288
-0.01515336819
-0.01515336248
-0.01515336248
-0.01515336248
1
0.1316625604
0.06826904008
0.05229576416
0.04441959991
0.03957645929
0.03625933734
0.0338322703
0.03197226614
0.03049556431
0.02928947302
0.02828115172
0.02742163771
0.02667697902
0.02602300596
0.02544210625
0.02492116735
0.02445022834
0.02402157761
0.02362913794
0.02326804042
0.0229343247
0.02262472501
0.02233651497
0.02206739351
0.02181539967
0.02157884801
0.02135627899
0.02114642029
0.02094815621
0.02076050326
0.02058259039
0.02041364277
0.02025296853
0.02009994759
0.01995402241
0.01981469011
0.01968149579
0.01955402688
0.01943190817
0.01931479768
0.01920238297
0.01909437795
0.01899052017
0.01889056834
0.01879430026
0.01870151091
0.0186120108
0.01852562454
0.01844218952
0.01836155473
0.01828357976
0.0182081339
0.01813509523
0.01806434998
0.01799579179
0.01792932112
0.01786484473
0.01780227516
0.01774153031
0.01768253301
0.01762521065
0.01756949486
0.01751532119
0.01746262883
0.01741136037
0.01736146153
0.01731288096
0.01726557006
0.01721948277
0.01717457541
0.01713080652
0.01708813673
0.01704652861
0.01700594656
0.01696635668
0.01692772668
0.01689002578
0.01685322462
0.01681729515
0.01678221058
0.01674794532
0.01671447487
0.01668177576
0.01664982554
0.01661860267
0.0165880865
0.01655825721
0.01652909576
0.01650058385
0.0164727039
0.01644543899
0.01641877283
0.01639268972
0.01636717455
0.01634221273
0.0163177902
0.01629389338
0.01627050915
0.01624762483
0.01622522819
0.01620330736
0.01618185088
0.01616084765
0.0161402869
0.01612015823
0.01610045152
0.01608115697
0.01606226509
0.01604376664
0.01602565265
0.01600791443
0.01599054352
0.0159735317
0.01595687096
0.01594055354
0.01592457186
0.01590891855
0.01589358646
0.01587856858
0.01586385812
0.01584944845
0.01583533309
0.01582150576
0.01580796031
0.01579469073
0.01578169119
0.01576895598
0.01575647953
0.01574425639
0.01573228127
0.01572054898
0.01570905445
0.01569779273
0.015686759
0.01567594852
0.01566535669
0.01565497898
0.01564481099
0.0156348484
0.015625087
0.01561552265
0.01560615132
0.01559696906
0.01558797202
0.01557915641
0.01557051854
0.01556205478
0.01555376161
0.01554563554
0.01553767319
0.01552987125
0.01552222645
0.01551473561
0.01550739563
0.01550020345
0.01549315608
0.0154862506
0.01547948414
0.0154728539
0.01546635713
0.01545999113
0.01545375328
0.015447641
0.01544165175
0.01543578305
0.01543003248
0.01542439767
0.01541887628
0.01541346604
0.0154081647
0.01540297009
0.01539788005
0.01539289248
0.01538800532
0.01538321656
0.01537852422
0.01537392635
0.01536942108
0.01536500652
0.01536068087
0.01535644234
0.01535228917
0.01534821965
0.01534423211
0.01534032489
0.01533649638
0.01533274501
0.01532906922
0.01532546749
0.01532193834
0.0153184803
0.01531509196
0.01531177191
0.01530851878
0.01530533122
0.01530220792
0.01529914758
0.01529614894
0.01529321076
0.01529033183
0.01528751096
0.01528474697
0.01528203872
0.0152793851
0.015276785
0.01527423736
0.0152717411
0.01526929521
0.01526689866
0.01526455047
0.01526224967
0.01525999529
0.01525778641
0.0152556221
0.01525350148
0.01525142366
0.01524938779
0.01524739301
0.01524543851
0.01524352346
0.01524164708
0.01523980858
0.01523800721
0.01523624222
0.01523451286
0.01523281844
0.01523115823
0.01522953156
0.01522793775
0.01522637613
0.01522484605
0.01522334689
0.01522187801
0.01522043881
0.01521902869
0.01521764706
0.01521629335
0.01521496699
0.01521366744
0.01521239415
0.01521114659
0.01520992425
0.01520872661
0.01520755318
0.01520640347
0.015205277
0.01520417329
0.01520309191
0.01520203238
0.01520099427
0.01519997716
0.0151989806
0.0151980042
0.01519704754
0.01519611022
0.01519519186
0.01519429207
0.01519341047
0.01519254671
0.01519170041
0.01519087123
0.01519005881
0.01518926283
0.01518848295
0.01518771885
0.0151869702
0.0151862367
0.01518551803
0.0151848139
0.01518412401
0.01518344809
0.01518278583
0.01518213698
0.01518150125
0.01518087838
0.01518026812
0.01517967021
0.01517908439
0.01517851043
0.01517794808
0.01517739711
0.01517685729
0.01517632839
0.0151758102
0.0151753025
0.01517480507
0.0151743177
0.0151738402
0.01517337236
0.015172914
0.01517246491
0.01517202491
0.01517159381
0.01517117144
0.01517075762
0.01517035218
0.01516995494
0.01516956575
0.01516918443
0.01516881083
0.0151684448
0.01516808617
0.01516773481
0.01516739055
0.01516705327
0.01516672282
0.01516639905
0.01516608184
0.01516577105
0.01516546656
0.01516516823
0.01516487594
0.01516458957
0.01516430899
0.0151640341
0.01516376478
0.0151635009
0.01516324237
0.01516298908
0.01516274091
0.01516249777
0.01516225955
0.01516202616
0.01516179749
0.01516157346
0.01516135396
0.0151611389
0.0151609282
0.01516072177
0.01516051952
0.01516032136
0.01516012722
0.01515993701
0.01515975065
0.01515956807
0.01515938918
0.01515921392
0.01515904221
0.01515887397
0.01515870914
0.01515854765
0.01515838944
0.01515823442
0.01515808255
0.01515793375
0.01515778797
0.01515764513
0.0151575052
0.01515736809
0.01515723377
0.01515710216
0.01515697322
0.01515684689
0.01515672313
0.01515660185
0.01515648306
0.01515636665
0.01515625263
0.01515614087
0.01515603143
0.01515592415
0.01515581911
0.01515571612
0.0151556153
0.01515551643
0.01515541968
0.01515532474
0.0151552319
0.01515514074
0.01515505165
0.01515496411
0.01515487865
0.01515479456
0.01515471259
0.0151546318
0.0151545532
0.01515447555
0.01515440024
0.01515432557
0.01515425346
0.0151541816
0.01515411264
0.01515404346
0.01515397766
0.01515391102
0.0151538485
0.01515378438
0.01515372551
0.01515366419
0.01515360985
0.01515355241
0.01515350478
0.01515345435
0.01515341844
0.01515338288
0.01515336819
0.01515336248
0.01515336248
0.01515336248
1
0.3448836491
0.2006672453
0.1549666291
0.1318938664
0.1175978189
0.1077670841
0.1005571198
0.09502405206
0.09062809892
0.0870369002
0.08403490183
0.08147678897
0.07926154562
0.07731711113
0.0755908889
0.07404367262
0.07264565581
0.07137375376
0.07020977348
0.06913914272
0.06815001401
0.06723262356
0.066378826
0.06558175168
0.06483555063
0.06413519842
0.06347634701
0.0628552084
0.0622684628
0.06171318529
0.06118678645
0.06068696394
0.06021166257
0.05975904105
0.05932744424
0.05891537963
0.05852149746
0.05814457372
0.05778349556
0.05743724877
0.0571049069
0.05678562181
0.05647861543
0.05618317261
0.05589863478
0.05562439436
0.05535988989
0.05510460167
0.0548580479
0.05461978125
0.0543893858
0.05416647429
0.05395068569
0.05374168296
0.05353915111
0.05334279538
0.05315233964
0.05296752491
0.05278810806
0.05261386057
0.05244456747
0.05228002633
0.05212004633
0.05196444744
0.05181305965
0.0516657223
0.0515222834
0.05138259903
0.05124653285
0.05111395556
0.05098474445
0.05085878296
0.0507359603
0.05061617108
0.05049931499
0.05038529645
0.05027402435
0.05016541177
0.05005937571
0.04995583692
0.04985471958
0.04975595121
0.0496594624
0.04956518666
0.04947306027
0.0493830221
0.04929501351
0.04920897814
0.04912486188
0.04904261267
0.04896218045
0.04888351701
0.04880657593
0.04873131247
0.04865768349
0.04858564736
0.04851516392
0.04844619436
0.0483787012
0.04831264818
0.04824800026
0.0481847235
0.04812278507
0.04806215315
0.04800279693
0.04794468652
0.04788779293
0.04783208806
0.04777754462
0.0477241361
0.04767183676
0.0476206216
0.04757046631
0.04752134724
0.04747324141
0.04742612643
0.04737998054
0.04733478253
0.04729051176
0.04724714811
0.04720467198
0.04716306428
0.04712230638
0.04708238012
0.04704326779
0.0470049521
0.04696741621
0.04693064365
0.04689461836
0.04685932466
0.04682474722
0.04679087109
0.04675768166
0.04672516464
0.04669330609
0.04666209236
0.04663151013
0.04660154638
0.04657218835
0.04654342359
0.04651523993
0.04648762543
0.04646056846
0.04643405761
0.04640808171
0.04638262987
0.04635769139
0.04633325583
0.04630931295
0.04628585275
0.04626286542
0.04624034137
0.04621827121
0.04619664575
0.04617545597
0.04615469307
0.04613434842
0.04611441355
0.04609488021
0.04607574027
0.0460569858
0.04603860903
0.04602060234
0.04600295827
0.04598566951
0.0459687289
0.04595212944
0.04593586425
0.04591992662
0.04590430994
0.04588900775
0.04587401374
0.04585932171
0.04584492557
0.04583081938
0.04581699732
0.04580345366
0.04579018282
0.04577717931
0.04576443775
0.04575195289
0.04573971955
0.0457277327
0.04571598737
0.04570447871
0.04569320197
0.04568215248
0.04567132567
0.04566071708
0.04565032232
0.04564013709
0.04563015717
0.04562037845
0.04561079687
0.04560140848
0.0455922094
0.04558319581
0.04557436398
0.04556571027
0.04555723109
0.04554892294
0.04554078237
0.04553280601
0.04552499056
0.04551733278
0.04550982951
0.04550247763
0.0454952741
0.04548821594
0.04548130021
0.04547452405
0.04546788466
0.04546137929
0.04545500522
0.04544875983
0.04544264051
0.04543664474
0.04543077002
0.04542501392
0.04541937404
0.04541384806
0.04540843366
0.04540312861
0.04539793071
0.04539283778
0.04538784773
0.04538295847
0.04537816798
0.04537347426
0.04536887536
0.04536436938
0.04535995444
0.0453556287
0.04535139036
0.04534723767
0.04534316889
0.04533918234
0.04533527636
0.04533144931
0.04532769962
0.04532402571
0.04532042606
0.04531689918
0.04531344358
0.04531005785
0.04530674055
0.04530349032
0.04530030581
0.04529718567
0.04529412862
0.04529113339
0.04528819871
0.04528532338
0.0452825062
0.04527974598
0.04527704158
0.04527439187
0.04527179575
0.04526925214
0.04526675997
0.0452643182
0.04526192583
0.04525958185
0.04525728528
0.04525503516
0.04525283056
0.04525067056
0.04524855426
0.04524648077
0.04524444923
0.04524245879
0.04524050862
0.04523859791
0.04523672586
0.04523489168
0.04523309462
0.04523133392
0.04522960885
0.04522791868
0.04522626272
0.04522464027
0.04522305065
0.0452214932
0.04521996727
0.04521847223
0.04521700744
0.04521557229
0.04521416619
0.04521278855
0.0452114388
0.04521011636
0.04520882069
0.04520755125
0.0452063075
0.04520508893
0.04520389502
0.04520272529
0.04520157923
0.04520045637
0.04519935624
0.04519827838
0.04519722235
0.04519618769
0.04519517398
0.04519418079
0.04519320771
0.04519225433
0.04519132026
0.04519040509
0.04518950845
0.04518862997
0.04518776928
0.04518692601
0.04518609981
0.04518529035
0.04518449727
0.04518372026
0.04518295898
0.04518221311
0.04518148235
0.04518076638
0.04518006492
0.04517937765
0.04517870431
0.0451780446
0.04517739825
0.04517676499
0.04517614456
0.04517553669
0.04517494113
0.04517435763
0.04517378596
0.04517322585
0.0451726771
0.04517213945
0.0451716127
0.04517109661
0.04517059098
0.04517009559
0.04516961023
0.0451691347
0.04516866881
0.04516821235
0.04516776514
0.04516732698
0.04516689771
0.04516647711
0.04516606506
0.04516566133
0.0451652658
0.04516487826
0.0451644986
0.04516412659
0.04516376217
0.04516340506
0.04516305526
0.04516271247
0.04516237671
0.04516204765
0.04516172538
0.04516140948
0.04516110017
0.04516079691
0.04516050004
0.0451602089
0.04515992399
0.04515964446
0.04515937105
0.04515910265
0.0451588403
0.04515858255
0.04515833085
0.04515808329
0.04515784187
0.04515760403
0.04515737254
0.04515714396
0.04515692211
0.04515670233
0.04515648986
0.04515627842
0.0451560752
0.04515587165
0.04515567767
0.04515548168
0.04515529725
0.04515510875
0.04515493486
0.04515475465
0.04515459382
0.04515442496
0.04515428337
0.04515413474
0.04515402663
0.04515392053
0.04515387325
0.04515385197
0.04515385197
0.04515385197
1
0.5187651867
0.3274011946
0.2553467807
0.2178477674
0.1944026528
0.1782107415
0.1663061343
0.1571570571
0.1498824532
0.1439375554
0.1389678787
0.1347337921
0.131068333
0.1278521719
0.124998081
0.1224409665
0.120131304
0.1180307216
0.1161089747
0.1143418408
0.1127096324
0.1111961316
0.1097878156
0.1084732858
0.1072428408
0.1060881531
0.1050020197
0.1039781683
0.1030111045
0.1020959891
0.1012285396
0.1004049493
0.09962182143
0.09887611312
0.09816508989
0.0974862864
0.09683747348
0.09621662996
0.09562191851
0.09505166481
0.09450433962
0.09397854309
0.09347299119
0.09298650378
0.09251799417
0.0920664599
0.09163097468
0.09121068114
0.0908047845
0.09041254687
0.0900332822
0.08966635178
0.08931116014
0.08896715144
0.08863380619
0.08831063831
0.08799719243
0.08769304151
0.08739778461
0.08711104496
0.08683246808
0.0865617202
0.08629848669
0.08604247073
0.08579339203
0.0855509857
0.08531500115
0.08508520114
0.08486136088
0.0846432672
0.08443071781
0.08422352057
0.08402149283
0.08382446087
0.08363225932
0.08344473062
0.08326172458
0.08308309793
0.08290871387
0.08273844173
0.08257215657
0.0824097389
0.08225107431
0.08209605322
0.08194457059
0.08179652569
0.08165182182
0.08151036615
0.08137206946
0.08123684596
0.08110461314
0.08097529156
0.08084880472
0.08072507887
0.08060404293
0.08048562832
0.08036976882
0.08025640051
0.0801454616
0.08003689237
0.07993063507
0.07982663379
0.07972483443
0.07962518458
0.07952763345
0.07943213182
0.07933863194
0.0792470875
0.07915745353
0.0790696864
0.07898374371
0.07889958425
0.07881716799
0.078736456
0.0786574104
0.07857999435
0.07850417199
0.0784299084
0.07835716959
0.07828592243
0.07821613466
0.07814777483
0.07808081228
0.0780152171
0.07795096014
0.07788801296
0.07782634779
0.07776593756
0.07770675581
0.07764877673
0.07759197511
0.07753632633
0.07748180633
0.07742839163
0.07737605926
0.07732478677
0.07727455224
0.07722533423
0.07717711178
0.07712986438
0.07708357199
0.07703821502
0.07699377428
0.07695023103
0.0769075669
0.07686576394
0.0768248046
0.07678467166
0.07674534832
0.0767068181
0.07666906488
0.07663207289
0.07659582667
0.07656031112
0.07652551142
0.07649141308
0.0764580019
0.076425264
0.07639318575
0.07636175383
0.07633095519
0.07630077704
0.07627120687
0.0762422324
0.07621384163
0.07618602279
0.07615876435
0.07613205503
0.07610588376
0.07608023971
0.07605511227
0.07603049103
0.07600636581
0.07598272663
0.07595956371
0.07593686746
0.0759146285
0.07589283764
0.07587148585
0.07585056432
0.07583006438
0.07580997757
0.07579029557
0.07577101024
0.07575211362
0.07573359788
0.07571545537
0.07569767858
0.07568026016
0.07566319291
0.07564646976
0.07563008379
0.07561402824
0.07559829644
0.0755828819
0.07556777823
0.07555297918
0.07553847862
0.07552427055
0.07551034909
0.07549670847
0.07548334305
0.07547024728
0.07545741574
0.07544484312
0.0754325242
0.07542045389
0.07540862717
0.07539703914
0.07538568501
0.07537456005
0.07536365967
0.07535297933