# vtk DataFile Version 2.0
FlowField
ASCII
DATASET STRUCTURED_GRID
DIMENSIONS 400 1 200
POINTS 80000 float
0 0 0
0.08 0 0
0.16 0 0
0.24 0 0
0.32 0 0
0.4 0 0
0.48 0 0
0.56 0 0
0.64 0 0
0.72 0 0
0.8 0 0
0.88 0 0
0.96 0 0
1.04 0 0
1.12 0 0
1.2 0 0
1.28 0 0
1.36 0 0
1.44 0 0
1.52 0 0
1.6 0 0
1.68 0 0
1.76 0 0
1.84 0 0
1.92 0 0
2 0 0
2.08 0 0
2.16 0 0
2.24 0 0
2.32 0 0
2.4 0 0
2.48 0 0
2.56 0 0
2.64 0 0
2.72 0 0
2.8 0 0
2.88 0 0
2.96 0 0
3.04 0 0
3.12 0 0
3.2 0 0
3.28 0 0
3.36 0 0
3.44 0 0
3.52 0 0
3.6 0 0
3.68 0 0
3.76 0 0
3.84 0 0
3.92 0 0
4 0 0
4.08 0 0
4.16 0 0
4.24 0 0
4.32 0 0
4.4 0 0
4.48 0 0
4.56 0 0
4.64 0 0
4.72 0 0
4.8 0 0
4.88 0 0
4.96 0 0
5.04 0 0
5.12 0 0
5.2 0 0
5.28 0 0
5.36 0 0
5.44 0 0
5.52 0 0
5.6 0 0
5.68 0 0
5.76 0 0
5.84 0 0
5.92 0 0
6 0 0
6.08 0 0
6.16 0 0
6.24 0 0
6.32 0 0
6.4 0 0
6.48 0 0
6.56 0 0
6.64 0 0
6.72 0 0
6.8 0 0
6.88 0 0
6.96 0 0
7.04 0 0
7.12 0 0
7.2 0 0
7.28 0 0
7.36 0 0
7.44 0 0
7.52 0 0
7.6 0 0
7.68 0 0
7.76 0 0
7.84 0 0
7.92 0 0
8 0 0
8.08 0 0
8.16 0 0
8.24 0 0
8.32 0 0
8.4 0 0
8.48 0 0
8.56 0 0
8.64 0 0
8.72 0 0
8.8 0 0
8.88 0 0
8.96 0 0
9.04 0 0
9.12 0 0
9.2 0 0
9.28 0 0
9.36 0 0
9.44 0 0
9.52 0 0
9.6 0 0
9.68 0 0
9.76 0 0
9.84 0 0
9.92 0 0
10 0 0
10.08 0 0
10.16 0 0
10.24 0 0
10.32 0 0
10.4 0 0
10.48 0 0
10.56 0 0
10.64 0 0
10.72 0 0
10.8 0 0
10.88 0 0
10.96 0 0
11.04 0 0
11.12 0 0
11.2 0 0
11.28 0 0
11.36 0 0
11.44 0 0
11.52 0 0
11.6 0 0
11.68 0 0
11.76 0 0
11.84 0 0
11.92 0 0
12 0 0
12.08 0 0
12.16 0 0
12.24 0 0
12.32 0 0
12.4 0 0
12.48 0 0
12.56 0 0
12.64 0 0
12.72 0 0
12.8 0 0
12.88 0 0
12.96 0 0
13.04 0 0
13.12 0 0
13.2 0 0
13.28 0 0
13.36 0 0
13.44 0 0
13.52 0 0
13.6 0 0
13.68 0 0
13.76 0 0
13.84 0 0
13.92 0 0
14 0 0
14.08 0 0
14.16 0 0
14.24 0 0
14.32 0 0
14.4 0 0
14.48 0 0
14.56 0 0
14.64 0 0
14.72 0 0
14.8 0 0
14.88 0 0
14.96 0 0
15.04 0 0
15.12 0 0
15.2 0 0
15.28 0 0
15.36 0 0
15.44 0 0
15.52 0 0
15.6 0 0
15.68 0 0
15.76 0 0
15.84 0 0
15.92 0 0
16 0 0
16.08 0 0
16.16 0 0
16.24 0 0
16.32 0 0
16.4 0 0
16.48 0 0
16.56 0 0
16.64 0 0
16.72 0 0
16.8 0 0
16.88 0 0
16.96 0 0
17.04 0 0
17.12 0 0
17.2 0 0
17.28 0 0
17.36 0 0
17.44 0 0
17.52 0 0
17.6 0 0
17.68 0 0
17.76 0 0
17.84 0 0
17.92 0 0
18 0 0
18.08 0 0
18.16 0 0
18.24 0 0
18.32 0 0
18.4 0 0
18.48 0 0
18.56 0 0
18.64 0 0
18.72 0 0
18.8 0 0
18.88 0 0
18.96 0 0
19.04 0 0
19.12 0 0
19.2 0 0
19.28 0 0
19.36 0 0
19.44 0 0
19.52 0 0
19.6 0 0
19.68 0 0
19.76 0 0
19.84 0 0
19.92 0 0
20 0 0
20.08 0 0
20.16 0 0
20.24 0 0
20.32 0 0
20.4 0 0
20.48 0 0
20.56 0 0
20.64 0 0
20.72 0 0
20.8 0 0
20.88 0 0
20.96 0 0
21.04 0 0
21.12 0 0
21.2 0 0
21.28 0 0
21.36 0 0
21.44 0 0
21.52 0 0
21.6 0 0
21.68 0 0
21.76 0 0
21.84 0 0
21.92 0 0
22 0 0
22.08 0 0
22.16 0 0
22.24 0 0
22.32 0 0
22.4 0 0
22.48 0 0
22.56 0 0
22.64 0 0
22.72 0 0
22.8 0 0
22.88 0 0
22.96 0 0
23.04 0 0
23.12 0 0
23.2 0 0
23.28 0 0
23.36 0 0
23.44 0 0
23.52 0 0
23.6 0 0
23.68 0 0
23.76 0 0
23.84 0 0
23.92 0 0
24 0 0
24.08 0 0
24.16 0 0
24.24 0 0
24.32 0 0
24.4 0 0
24.48 0 0
24.56 0 0
24.64 0 0
24.72 0 0
24.8 0 0
24.88 0 0
24.96 0 0
25.04 0 0
25.12 0 0
25.2 0 0
25.28 0 0
25.36 0 0
25.44 0 0
25.52 0 0
25.6 0 0
25.68 0 0
25.76 0 0
25.84 0 0
25.92 0 0
26 0 0
26.08 0 0
26.16 0 0
26.24 0 0
26.32 0 0
26.4 0 0
26.48 0 0
26.56 0 0
26.64 0 0
26.72 0 0
26.8 0 0
26.88 0 0
26.96 0 0
27.04 0 0
27.12 0 0
27.2 0 0
27.28 0 0
27.36 0 0
27.44 0 0
27.52 0 0
27.6 0 0
27.68 0 0
27.76 0 0
27.84 0 0
27.92 0 0
28 0 0
28.08 0 0
28.16 0 0
28.24 0 0
28.32 0 0
28.4 0 0
28.48 0 0
28.56 0 0
28.64 0 0
28.72 0 0
28.8 0 0
28.88 0 0
28.96 0 0
29.04 0 0
29.12 0 0
29.2 0 0
29.28 0 0
29.36 0 0
29.44 0 0
29.52 0 0
29.6 0 0
29.68 0 0
29.76 0 0
29.84 0 0
29.92 0 0
30 0 0
30.08 0 0
30.16 0 0
30.24 0 0
30.32 0 0
30.4 0 0
30.48 0 0
30.56 0 0
30.64 0 0
30.72 0 0
30.8 0 0
30.88 0 0
30.96 0 0
31.04 0 0
31.12 0 0
31.2 0 0
31.28 0 0
31.36 0 0
31.44 0 0
31.52 0 0
31.6 0 0
31.68 0 0
31.76 0 0
31.84 0 0
31.92 0 0
0 0.005 0
0.08 0.005 0
0.16 0.005 0
0.24 0.005 0
0.32 0.005 0
0.4 0.005 0
0.48 0.005 0
0.56 0.005 0
0.64 0.005 0
0.72 0.005 0
0.8 0.005 0
0.88 0.005 0
0.96 0.005 0
1.04 0.005 0
1.12 0.005 0
1.2 0.005 0
1.28 0.005 0
1.36 0.005 0
1.44 0.005 0
1.52 0.005 0
1.6 0.005 0
1.68 0.005 0
1.76 0.005 0
1.84 0.005 0
1.92 0.005 0
2 0.005 0
2.08 0.005 0
2.16 0.005 0
2.24 0.005 0
2.32 0.005 0
2.4 0.005 0
2.48 0.005 0
2.56 0.005 0
2.64 0.005 0
2.72 0.005 0
2.8 0.005 0
2.88 0.005 0
2.96 0.005 0
3.04 0.005 0
3.12 0.005 0
3.2 0.005 0
3.28 0.005 0
3.36 0.005 0
3.44 0.005 0
3.52 0.005 0
3.6 0.005 0
3.68 0.005 0
3.76 0.005 0
3.84 0.005 0
3.92 0.005 0
4 0.005 0
4.08 0.005 0
4.16 0.005 0
4.24 0.005 0
4.32 0.005 0
4.4 0.005 0
4.48 0.005 0
4.56 0.005 0
4.64 0.005 0
4.72 0.005 0
4.8 0.005 0
4.88 0.005 0
4.96 0.005 0
5.04 0.005 0
5.12 0.005 0
5.2 0.005 0
5.28 0.005 0
5.36 0.005 0
5.44 0.005 0
5.52 0.005 0
5.6 0.005 0
5.68 0.005 0
5.76 0.005 0
5.84 0.005 0
5.92 0.005 0
6 0.005 0
6.08 0.005 0
6.16 0.005 0
6.24 0.005 0
6.32 0.005 0
6.4 0.005 0
6.48 0.005 0
6.56 0.005 0
6.64 0.005 0
6.72 0.005 0
6.8 0.005 0
6.88 0.005 0
6.96 0.005 0
7.04 0.005 0
7.12 0.005 0
7.2 0.005 0
7.28 0.005 0
7.36 0.005 0
7.44 0.005 0
7.52 0.005 0
7.6 0.005 0
7.68 0.005 0
7.76 0.005 0
7.84 0.005 0
7.92 0.005 0
8 0.005 0
8.08 0.005 0
8.16 0.005 0
8.24 0.005 0
8.32 0.005 0
8.4 0.005 0
8.48 0.005 0
8.56 0.005 0
8.64 0.005 0
8.72 0.005 0
8.8 0.005 0
8.88 0.005 0
8.96 0.005 0
9.04 0.005 0
9.12 0.005 0
9.2 0.005 0
9.28 0.005 0
9.36 0.005 0
9.44 0.005 0
9.52 0.005 0
9.6 0.005 0
9.68 0.005 0
9.76 0.005 0
9.84 0.005 0
9.92 0.005 0
10 0.005 0
10.08 0.005 0
10.16 0.005 0
10.24 0.005 0
10.32 0.005 0
10.4 0.005 0
10.48 0.005 0
10.56 0.005 0
10.64 0.005 0
10.72 0.005 0
10.8 0.005 0
10.88 0.005 0
10.96 0.005 0
11.04 0.005 0
11.12 0.005 0
11.2 0.005 0
11.28 0.005 0
11.36 0.005 0
11.44 0.005 0
11.52 0.005 0
11.6 0.005 0
11.68 0.005 0
11.76 0.005 0
11.84 0.005 0
11.92 0.005 0
12 0.005 0
12.08 0.005 0
12.16 0.005 0
12.24 0.005 0
12.32 0.005 0
12.4 0.005 0
12.48 0.005 0
12.56 0.005 0
12.64 0.005 0
12.72 0.005 0
12.8 0.005 0
12.88 0.005 0
12.96 0.005 0
13.04 0.005 0
13.12 0.005 0
13.2 0.005 0
13.28 0.005 0
13.36 0.005 0
13.44 0.005 0
13.52 0.005 0
13.6 0.005 0
13.68 0.005 0
13.76 0.005 0
13.84 0.005 0
13.92 0.005 0
14 0.005 0
14.08 0.005 0
14.16 0.005 0
14.24 0.005 0
14.32 0.005 0
14.4 0.005 0
14.48 0.005 0
14.56 0.005 0
14.64 0.005 0
14.72 0.005 0
14.8 0.005 0
14.88 0.005 0
14.96 0.005 0
15.04 0.005 0
15.12 0.005 0
15.2 0.005 0
15.28 0.005 0
15.36 0.005 0
15.44 0.005 0
15.52 0.005 0
15.6 0.005 0
15.68 0.005 0
15.76 0.005 0
15.84 0.005 0
15.92 0.005 0
16 0.005 0
16.08 0.005 0
16.16 0.005 0
16.24 0.005 0
16.32 0.005 0
16.4 0.005 0
16.48 0.005 0
16.56 0.005 0
16.64 0.005 0
16.72 0.005 0
16.8 0.005 0
16.88 0.005 0
16.96 0.005 0
17.04 0.005 0
17.12 0.005 0
17.2 0.005 0
17.28 0.005 0
17.36 0.005 0
17.44 0.005 0
17.52 0.005 0
17.6 0.005 0
17.68 0.005 0
17.76 0.005 0
17.84 0.005 0
17.92 0.005 0
18 0.005 0
18.08 0.005 0
18.16 0.005 0
18.24 0.005 0
18.32 0.005 0
18.4 0.005 0
18.48 0.005 0
18.56 0.005 0
18.64 0.005 0
18.72 0.005 0
18.8 0.005 0
18.88 0.005 0
18.96 0.005 0
19.04 0.005 0
19.12 0.005 0
19.2 0.005 0
19.28 0.005 0
19.36 0.005 0
19.44 0.005 0
19.52 0.005 0
19.6 0.005 0
19.68 0.005 0
19.76 0.005 0
19.84 0.005 0
19.92 0.005 0
20 0.005 0
20.08 0.005 0
20.16 0.005 0
20.24 0.005 0
20.32 0.005 0
20.4 0.005 0
20.48 0.005 0
20.56 0.005 0
20.64 0.005 0
20.72 0.005 0
20.8 0.005 0
20.88 0.005 0
20.96 0.005 0
21.04 0.005 0
21.12 0.005 0
21.2 0.005 0
21.28 0.005 0
21.36 0.005 0
21.44 0.005 0
21.52 0.005 0
21.6 0.005 0
21.68 0.005 0
21.76 0.005 0
21.84 0.005 0
21.92 0.005 0
22 0.005 0
22.08 0.005 0
22.16 0.005 0
22.24 0.005 0
22.32 0.005 0
22.4 0.005 0
22.48 0.005 0
22.56 0.005 0
22.64 0.005 0
22.72 0.005 0
22.8 0.005 0
22.88 0.005 0
22.96 0.005 0
23.04 0.005 0
23.12 0.005 0
23.2 0.005 0
23.28 0.005 0
23.36 0.005 0
23.44 0.005 0
23.52 0.005 0
23.6 0.005 0
23.68 0.005 0
23.76 0.005 0
23.84 0.005 0
23.92 0.005 0
24 0.005 0
24.08 0.005 0
24.16 0.005 0
24.24 0.005 0
24.32 0.005 0
24.4 0.005 0
24.48 0.005 0
24.56 0.005 0
24.64 0.005 0
24.72 0.005 0
24.8 0.005 0
24.88 0.005 0
24.96 0.005 0
25.04 0.005 0
25.12 0.005 0
25.2 0.005 0
25.28 0.005 0
25.36 0.005 0
25.44 0.005 0
25.52 0.005 0
25.6 0.005 0
25.68 0.005 0
25.76 0.005 0
25.84 0.005 0
25.92 0.005 0
26 0.005 0
26.08 0.005 0
26.16 0.005 0
26.24 0.005 0
26.32 0.005 0
26.4 0.005 0
26.48 0.005 0
26.56 0.005 0
26.64 0.005 0
26.72 0.005 0
26.8 0.005 0
26.88 0.005 0
26.96 0.005 0
27.04 0.005 0
27.12 0.005 0
27.2 0.005 0
27.28 0.005 0
27.36 0.005 0
27.44 0.005 0
27.52 0.005 0
27.6 0.005 0
27.68 0.005 0
27.76 0.005 0
27.84 0.005 0
27.92 0.005 0
28 0.005 0
28.08 0.005 0
28.16 0.005 0
28.24 0.005 0
28.32 0.005 0
28.4 0.005 0
28.48 0.005 0
28.56 0.005 0
28.64 0.005 0
28.72 0.005 0
28.8 0.005 0
28.88 0.005 0
28.96 0.005 0
29.04 0.005 0
29.12 0.005 0
29.2 0.005 0
29.28 0.005 0
29.36 0.005 0
29.44 0.005 0
29.52 0.005 0
29.6 0.005 0
29.68 0.005 0
29.76 0.005 0
29.84 0.005 0
29.92 0.005 0
30 0.005 0
30.08 0.005 0
30.16 0.005 0
30.24 0.005 0
30.32 0.005 0
30.4 0.005 0
30.48 0.005 0
30.56 0.005 0
30.64 0.005 0
30.72 0.005 0
30.8 0.005 0
30.88 0.005 0
30.96 0.005 0
31.04 0.005 0
31.12 0.005 0
31.2 0.005 0
31.28 0.005 0
31.36 0.005 0
31.44 0.005 0
31.52 0.005 0
31.6 0.005 0
31.68 0.005 0
31.76 0.005 0
31.84 0.005 0
31.92 0.005 0
0 0.01 0
0.08 0.01 0
0.16 0.01 0
0.24 0.01 0
0.32 0.01 0
0.4 0.01 0
0.48 0.01 0
0.56 0.01 0
0.64 0.01 0
0.72 0.01 0
0.8 0.01 0
0.88 0.01 0
0.96 0.01 0
1.04 0.01 0
1.12 0.01 0
1.2 0.01 0
1.28 0.01 0
1.36 0.01 0
1.44 0.01 0
1.52 0.01 0
1.6 0.01 0
1.68 0.01 0
1.76 0.01 0
1.84 0.01 0
1.92 0.01 0
2 0.01 0
2.08 0.01 0
2.16 0.01 0
2.24 0.01 0
2.32 0.01 0
2.4 0.01 0
2.48 0.01 0
2.56 0.01 0
2.64 0.01 0
2.72 0.01 0
2.8 0.01 0
2.88 0.01 0
2.96 0.01 0
3.04 0.01 0
3.12 0.01 0
3.2 0.01 0
3.28 0.01 0
3.36 0.01 0
3.44 0.01 0
3.52 0.01 0
3.6 0.01 0
3.68 0.01 0
3.76 0.01 0
3.84 0.01 0
3.92 0.01 0
4 0.01 0
4.08 0.01 0
4.16 0.01 0
4.24 0.01 0
4.32 0.01 0
4.4 0.01 0
4.48 0.01 0
4.56 0.01 0
4.64 0.01 0
4.72 0.01 0
4.8 0.01 0
4.88 0.01 0
4.96 0.01 0
5.04 0.01 0
5.12 0.01 0
[...]
POINT_DATA 80000

SCALARS p float 1
LOOKUP_TABLE default
1
56.54467783
56.24294281
56.20178303
56.18169306
56.16727414
56.15527318
56.14452976
56.13453163
56.12502604
56.11587974
56.10701901
56.09840109
56.08999958
56.08179682
56.07377978
56.06593791
56.05826201
56.05074363
56.04337484
56.03614812
56.02905627
56.02209248
56.01525025
56.00852347
56.00190636
55.9953935
55.9889798
55.9826605
55.97643115
55.97028759
55.96422592
55.9582425
55.95233394
55.94649705
55.94072883
55.9350265
55.92938742
55.92380914
55.91828932
55.91282578
55.90741647
55.90205943
55.89675284
55.89149494
55.88628411
55.88111877
55.87599746
55.87091875
55.86588133
55.86088391
55.85592529
55.85100431
55.84611987
55.84127091
55.83645644
55.83167548
55.82692712
55.82221047
55.81752469
55.81286896
55.8082425
55.80364456
55.79907441
55.79453137
55.79001475
55.78552393
55.78105826
55.77661715
55.77220003
55.76780632
55.76343549
55.75908701
55.75476037
55.75045509
55.74617067
55.74190667
55.73766262
55.7334381
55.72923268
55.72504595
55.72087752
55.71672698
55.71259397
55.70847811
55.70437906
55.70029645
55.69622995
55.69217923
55.68814397
55.68412384
55.68011855
55.67612779
55.67215127
55.6681887
55.66423981
55.66030432
55.65638197
55.65247249
55.64857563
55.64469114
55.64081877
55.63695829
55.63310947
55.62927208
55.62544589
55.62163068
55.61782624
55.61403236
55.61024884
55.60647547
55.60271205
55.5989584
55.59521432
55.59147963
55.58775415
55.58403769
55.58033009
55.57663117
55.57294077
55.56925872
55.56558485
55.56191902
55.55826106
55.55461082
55.55096816
55.54733293
55.54370498
55.54008417
55.53647037
55.53286344
55.52926325
55.52566966
55.52208256
55.51850181
55.51492729
55.51135887
55.50779646
55.50423991
55.50068913
55.497144
55.49360441
55.49007026
55.48654143
55.48301783
55.47949934
55.47598589
55.47247735
55.46897365
55.46547468
55.46198036
55.45849059
55.45500528
55.45152435
55.44804771
55.44457528
55.44110697
55.43764271
55.43418241
55.430726
55.42727341
55.42382455
55.42037935
55.41693775
55.41349967
55.41006504
55.4066338
55.40320587
55.3997812
55.39635972
55.39294136
55.38952606
55.38611378
55.38270443
55.37929798
55.37589435
55.3724935
55.36909537
55.3656999
55.36230705
55.35891675
55.35552897
55.35214365
55.34876075
55.3453802
55.34200198
55.33862602
55.3352523
55.33188075
55.32851135
55.32514404
55.32177879
55.31841555
55.31505429
55.31169496
55.30833753
55.30498196
55.30162821
55.29827624
55.29492603
55.29157753
55.28823071
55.28488554
55.28154199
55.27820001
55.27485959
55.27152069
55.26818328
55.26484733
55.26151281
55.25817969
55.25484794
55.25151754
55.24818847
55.24486068
55.24153417
55.23820889
55.23488484
55.23156197
55.22824028
55.22491973
55.2216003
55.21828198
55.21496473
55.21164854
55.20833338
55.20501924
55.2017061
55.19839392
55.19508271
55.19177243
55.18846306
55.18515459
55.18184701
55.17854029
55.17523441
55.17192936
55.16862512
55.16532168
55.16201902
55.15871712
55.15541597
55.15211556
55.14881586
55.14551687
55.14221856
55.13892094
55.13562397
55.13232766
55.12903198
55.12573693
55.12244248
55.11914864
55.11585538
55.11256269
55.10927057
55.105979
55.10268797
55.09939747
55.09610749
55.09281802
55.08952905
55.08624056
55.08295256
55.07966502
55.07637794
55.07309131
55.06980513
55.06651937
55.06323404
55.05994913
55.05666462
55.0533805
55.05009678
55.04681344
55.04353048
55.04024788
55.03696565
55.03368376
55.03040222
55.02712102
55.02384015
55.02055961
55.01727938
55.01399947
55.01071986
55.00744055
55.00416153
55.0008828
54.99760436
54.99432618
54.99104828
54.98777065
54.98449327
54.98121615
54.97793928
54.97466265
54.97138626
54.9681101
54.96483418
54.96155848
54.958283
54.95500773
54.95173268
54.94845783
54.94518319
54.94190875
54.9386345
54.93536044
54.93208657
54.92881289
54.92553938
54.92226605
54.91899289
54.9157199
54.91244708
54.90917442
54.90590191
54.90262957
54.89935737
54.89608533
54.89281343
54.88954168
54.88627006
54.88299859
54.87972725
54.87645604
54.87318496
54.86991401
54.86664318
54.86337247
54.86010189
54.85683142
54.85356106
54.85029082
54.84702069
54.84375066
54.84048075
54.83721093
54.83394122
54.8306716
54.82740208
54.82413266
54.82086333
54.8175941
54.81432495
54.81105589
54.80778692
54.80451803
54.80124922
54.7979805
54.79471185
54.79144328
54.78817479
54.78490637
54.78163803
54.77836975
54.77510155
54.77183342
54.76856535
54.76529735
54.76202942
54.75876154
54.75549373
54.75222599
54.7489583
54.74569067
54.74242309
54.73915558
54.73588812
54.73262071
54.72935336
54.72608605
54.7228188
54.7195516
54.71628445
54.71301735
54.7097503
54.70648329
54.70321633
54.69994941
54.69668254
54.69341571
54.69014892
54.68688218
54.68361547
54.68034881
54.67708218
54.6738156
54.67054905
54.66728254
54.66401605
54.66074961
54.65748318
54.65421678
54.65095039
54.647684
54.64441758
54.64115112
0.5
56.54467783
56.54467783
56.24294281
56.20178303
56.18169306
56.16727414
56.15527318
56.14452976
56.13453163
56.12502604
56.11587974
56.10701901
56.09840109
56.08999958
56.08179682
56.07377978
56.06593791
56.05826201
56.05074363
56.04337484
56.03614812
56.02905627
56.02209248
56.01525025
56.00852347
56.00190636
55.9953935
55.9889798
55.9826605
55.97643115
55.97028759
55.96422592
55.9582425
55.95233394
55.94649705
55.94072883
55.9350265
55.92938742
55.92380914
55.91828932
55.91282578
55.90741647
55.90205943
55.89675284
55.89149494
55.88628411
55.88111877
55.87599746
55.87091875
55.86588133
55.86088391
55.85592529
55.85100431
55.84611987
55.84127091
55.83645644
55.83167548
55.82692712
55.82221047
55.81752469
55.81286896
55.8082425
55.80364456
55.79907441
55.79453137
55.79001475
55.78552393
55.78105826
55.77661715
55.77220003
55.76780632
55.76343549
55.75908701
55.75476037
55.75045509
55.74617067
55.74190667
55.73766262
55.7334381
55.72923268
55.72504595
55.72087752
55.71672698
55.71259397
55.70847811
55.70437906
55.70029645
55.69622995
55.69217923
55.68814397
55.68412384
55.68011855
55.67612779
55.67215127
55.6681887
55.66423981
55.66030432
55.65638197
55.65247249
55.64857563
55.64469114
55.64081877
55.63695829
55.63310947
55.62927208
55.62544589
55.62163068
55.61782624
55.61403236
55.61024884
55.60647547
55.60271205
55.5989584
55.59521432
55.59147963
55.58775415
55.58403769
55.58033009
55.57663117
55.57294077
55.56925872
55.56558485
55.56191902
55.55826106
55.55461082
55.55096816
55.54733293
55.54370498
55.54008417
55.53647037
55.53286344
55.52926325
55.52566966
55.52208256
55.51850181
55.51492729
55.51135887
55.50779646
55.50423991
55.50068913
55.497144
55.49360441
55.49007026
55.48654143
55.48301783
55.47949934
55.47598589
55.47247735
55.46897365
55.46547468
55.46198036
55.45849059
55.45500528
55.45152435
55.44804771
55.44457528
55.44110697
55.43764271
55.43418241
55.430726
55.42727341
55.42382455
55.42037935
55.41693775
55.41349967
55.41006504
55.4066338
55.40320587
55.3997812
55.39635972
55.39294136
55.38952606
55.38611378
55.38270443
55.37929798
55.37589435
55.3724935
55.36909537
55.3656999
55.36230705
55.35891675
55.35552897
55.35214365
55.34876075
55.3453802
55.34200198
55.33862602
55.3352523
55.33188075
55.32851135
55.32514404
55.32177879
55.31841555
55.31505429
55.31169496
55.30833753
55.30498196
55.30162821
55.29827624
55.29492603
55.29157753
55.28823071
55.28488554
55.28154199
55.27820001
55.27485959
55.27152069
55.26818328
55.26484733
55.26151281
55.25817969
55.25484794
55.25151754
55.24818847
55.24486068
55.24153417
55.23820889
55.23488484
55.23156197
55.22824028
55.22491973
55.2216003
55.21828198
55.21496473
55.21164854
55.20833338
55.20501924
55.2017061
55.19839392
55.19508271
55.19177243
55.18846306
55.18515459
55.18184701
55.17854029
55.17523441
55.17192936
55.16862512
55.16532168
55.16201902
55.15871712
55.15541597
55.15211556
55.14881586
55.14551687
55.14221856
55.13892094
55.13562397
55.13232766
55.12903198
55.12573693
55.12244248
55.11914864
55.11585538
55.11256269
55.10927057
55.105979
55.10268797
55.09939747
55.09610749
55.09281802
55.08952905
55.08624056
55.08295256
55.07966502
55.07637794
55.07309131
55.06980513
55.06651937
55.06323404
55.05994913
55.05666462
55.0533805
55.05009678
55.04681344
55.04353048
55.04024788
55.03696565
55.03368376
55.03040222
55.02712102
55.02384015
55.02055961
55.01727938
55.01399947
55.01071986
55.00744055
55.00416153
55.0008828
54.99760436
54.99432618
54.99104828
54.98777065
54.98449327
54.98121615
54.97793928
54.97466265
54.97138626
54.9681101
54.96483418
54.96155848
54.958283
54.95500773
54.95173268
54.94845783
54.94518319
54.94190875
54.9386345
54.93536044
54.93208657
54.92881289
54.92553938
54.92226605
54.91899289
54.9157199
54.91244708
54.90917442
54.90590191
54.90262957
54.89935737
54.89608533
54.89281343
54.88954168
54.88627006
54.88299859
54.87972725
54.87645604
54.87318496
54.86991401
54.86664318
54.86337247
54.86010189
54.85683142
54.85356106
54.85029082
54.84702069
54.84375066
54.84048075
54.83721093
54.83394122
54.8306716
54.82740208
54.82413266
54.82086333
54.8175941
54.81432495
54.81105589
54.80778692
54.80451803
54.80124922
54.7979805
54.79471185
54.79144328
54.78817479
54.78490637
54.78163803
54.77836975
54.77510155
54.77183342
54.76856535
54.76529735
54.76202942
54.75876154
54.75549373
54.75222599
54.7489583
54.74569067
54.74242309
54.73915558
54.73588812
54.73262071
54.72935336
54.72608605
54.7228188
54.7195516
54.71628445
54.71301735
54.7097503
54.70648329
54.70321633
54.69994941
54.69668254
54.69341571
54.69014892
54.68688218
54.68361547
54.68034881
54.67708218
54.6738156
54.67054905
54.66728254
54.66401605
54.66074961
54.65748318
54.65421678
54.65095039
54.647684
54.64441758
54.64115112
54.64115112
56.53009609
56.53009609
56.24677869
56.20303845
56.1823283
56.16766865
56.15554487
56.14472921
56.13468478
56.12514774
56.11597916
56.10710212
56.09847189
56.09006087
56.0818506
56.07382751
56.06598068
56.05830064
56.05077877
56.04340699
56.03617768
56.02908359
56.02211781
56.01527382
56.00854547
56.00192695
55.99541282
55.98899798
55.98267764
55.97644734
55.97030291
55.96424044
55.95825629
55.95234705
55.94650953
55.94074073
55.93503786
55.92939829
55.92381953
55.91829928
55.91283533
55.90742563
55.90206824
55.8967613
55.89150309
55.88629195
55.88112633
55.87600475
55.87092579
55.86588813
55.86089048
55.85593164
55.85101045
55.84612582
55.84127667
55.83646202
55.83168089
55.82693237
55.82221557
55.81752964
55.81287376
55.80824716
55.80364909
55.79907882
55.79453565
55.79001892
55.78552799
55.78106221
55.776621
55.77220378
55.76780998
55.76343905
55.75909048
55.75476376
55.75045839
55.74617389
55.74190981
55.73766569
55.73344109
55.7292356
55.72504881
55.7208803
55.7167297
55.71259663
55.70848071
55.7043816
55.70029893
55.69623238
55.6921816
55.68814628
55.68412611
55.68012077
55.67612996
55.67215339
55.66819078
55.66424184
55.66030631
55.65638391
55.65247439
55.64857748
55.64469295
55.64082055
55.63696004
55.63311118
55.62927375
55.62544752
55.62163228
55.6178278
55.61403389
55.61025034
55.60647694
55.60271349
55.59895981
55.5952157
55.59148098
55.58775547
55.58403899
55.58033136
55.57663242
55.57294199
55.56925991
55.56558602
55.56192016
55.55826218
55.55461192
55.55096924
55.54733398
55.54370601
55.54008518
55.53647136
55.53286441
55.5292642
55.5256706
55.52208347
55.5185027
55.51492816
55.51135973
55.5077973
55.50424074
55.50068994
55.4971448
55.49360519
55.49007102
55.48654217
55.48301856
55.47950006
55.47598659
55.47247804
55.46897432
55.46547534
55.461981
55.45849122
55.4550059
55.45152495
55.4480483
55.44457586
55.44110754
55.43764327
55.43418296
55.43072654
55.42727393
55.42382506
55.42037986
55.41693825
55.41350016
55.41006552
55.40663426
55.40320633
55.39978165
55.39636015
55.39294179
55.38952649
55.38611419
55.38270484
55.37929837
55.37589474
55.37249388
55.36909574
55.36570026
55.3623074
55.3589171
55.35552932
55.35214399
55.34876108
55.34538053
55.34200229
55.33862633
55.3352526
55.33188105
55.32851164
55.32514433
55.32177907
55.31841583
55.31505456
55.31169522
55.30833779
55.30498221
55.30162845
55.29827649
55.29492627
55.29157776
55.28823094
55.28488576
55.28154221
55.27820023
55.2748598
55.2715209
55.26818348
55.26484752
55.261513
55.25817988
55.25484813
55.25151773
55.24818865
55.24486086
55.24153434
55.23820906
55.234885
55.23156213
55.22824044
55.22491988
55.22160045
55.21828213
55.21496487
55.21164868
55.20833352
55.20501938
55.20170623
55.19839406
55.19508284
55.19177255
55.18846318
55.18515472
55.18184713
55.1785404
55.17523452
55.17192947
55.16862523
55.16532179
55.16201913
55.15871723
55.15541607
55.15211566
55.14881596
55.14551696
55.14221866
55.13892103
55.13562406
55.13232775
55.12903207
55.12573701
55.12244256
55.11914872
55.11585546
55.11256277
55.10927065
55.10597908
55.10268805
55.09939755
55.09610756
55.09281809
55.08952912
55.08624063
55.08295262
55.07966508
55.076378
55.07309138
55.06980519
55.06651943
55.0632341
55.05994918
55.05666467
55.05338056
55.05009684
55.0468135
55.04353053
55.04024793
55.03696569
55.03368381
55.03040227
55.02712107
55.0238402
55.02055965
55.01727942
55.01399951
55.0107199
55.00744059
55.00416157
55.00088284
54.99760439
54.99432622
54.99104832
54.98777068
54.98449331
54.98121618
54.97793931
54.97466268
54.97138629
54.96811013
54.96483421
54.96155851
54.95828302
54.95500776
54.95173271
54.94845786
54.94518322
54.94190877
54.93863453
54.93536047
54.9320866
54.92881291
54.9255394
54.92226607
54.91899291
54.91571992
54.9124471
54.90917444
54.90590194
54.90262959
54.89935739
54.89608535
54.89281345
54.8895417
54.88627008
54.88299861
54.87972727
54.87645606
54.87318498
54.86991402
54.8666432
54.86337249
54.8601019
54.85683143
54.85356108
54.85029084
54.8470207
54.84375068
54.84048076
54.83721094
54.83394123
54.83067161
54.8274021
54.82413267
54.82086335
54.81759411
54.81432496
54.8110559
54.80778693
54.80451804
54.80124923
54.79798051
54.79471186
54.79144329
54.7881748
54.78490638
54.78163804
54.77836976
54.77510156
54.77183343
54.76856536
54.76529736
54.76202942
54.75876155
54.75549374
54.75222599
54.7489583
54.74569067
54.7424231
54.73915558
54.73588812
54.73262072
54.72935336
54.72608606
54.72281881
54.71955161
54.71628446
54.71301736
54.7097503
54.7064833
54.70321633
54.69994942
54.69668254
54.69341571
54.69014893
54.68688218
54.68361548
54.68034881
54.67708219
54.6738156
54.67054905
54.66728254
54.66401606
54.66074961
54.65748318
54.65421679
54.65095039
54.647684
54.64441758
54.64115112
54.64115112
56.51411149
56.51411149
56.24996711
56.20422563
56.18294431
56.16805492
56.1558123
56.14492615
56.13483626
56.12526822
56.1160776
56.10718436
56.09854191
56.09012144
56.0819037
56.0738746
56.06602283
56.05833869
56.05081334
56.04343861
56.03620674
56.02911041
56.02214267
56.01529695
56.00856705
56.00194715
55.99543177
55.9890158
55.98269443
55.9764632
55.97031791
55.96425466
55.95826979
55.95235989
55.94652175
55.94075238
55.93504898
55.92940891
55.9238297
55.91830902
55.91284467
55.9074346
55.90207685
55.89676958
55.89151105
55.88629962
55.88113373
55.87601188
55.87093267
55.86589477
55.8608969
55.85593785
55.85101646
55.84613163
55.8412823
55.83646747
55.83168618
55.8269375
55.82222054
55.81753446
55.81287845
55.80825172
55.80365352
55.79908312
55.79453984
55.790023
55.78553195
55.78106607
55.77662476
55.77220744
55.76781354
55.76344253
55.75909387
55.75476706
55.75046161
55.74617703
55.74191287
55.73766868
55.73344401
55.72923845
55.72505159
55.72088302
55.71673235
55.71259922
55.70848324
55.70438407
55.70030135
55.69623474
55.69218391
55.68814854
55.68412832
55.68012292
55.67613207
55.67215545
55.6681928
55.66424382
55.66030824
55.6563858
55.65247624
55.6485793
55.64469473
55.64082229
55.63696173
55.63311284
55.62927537
55.62544911
55.62163384
55.61782933
55.61403539
55.6102518
55.60647837
55.60271489
55.59896118
55.59521705
55.5914823
55.58775676
55.58404025
55.5803326
55.57663363
55.57294318
55.56926107
55.56558716
55.56192128
55.55826327
55.55461299
55.55097028
55.54733501
55.54370702
55.54008617
55.53647233
55.53286536
55.52926513
55.5256715
55.52208436
55.51850357
55.51492902
55.51136057
55.50779812
55.50424154
55.50069073
55.49714557
55.49360594
55.49007176
55.4865429
55.48301927
55.47950075
55.47598727
55.47247871
55.46897498
55.46547598
55.46198163
55.45849183
55.4550065
55.45152555
55.44804888
55.44457643
55.4411081
55.43764381
55.43418349
55.43072706
55.42727445
55.42382557
55.42038035
55.41693873
55.41350063
55.41006598
55.40663472
55.40320677
55.39978208
55.39636058
55.39294221
55.3895269
55.38611459
55.38270523
55.37929876
55.37589512
55.37249425
55.3690961
55.36570062
55.36230775
55.35891745
55.35552965
55.35214432
55.3487614
55.34538084
55.3420026
55.33862664
55.3352529
55.33188134
55.32851192
55.32514461
55.32177934
55.31841609
55.31505482
55.31169548
55.30833804
55.30498246
55.3016287
55.29827672
55.2949265
55.29157799
55.28823116
55.28488598
55.28154242
55.27820044
55.27486001
55.2715211
55.26818368
55.26484772
55.26151319
55.25818006
55.25484831
55.25151791
55.24818882
55.24486103
55.24153451
55.23820922
55.23488516
55.23156229
55.22824059
55.22492003
55.2216006
55.21828227
55.21496502
55.21164882
55.20833366
55.20501951
55.20170636
55.19839418
55.19508296
55.19177267
55.18846331
55.18515483
55.18184724
55.17854052
55.17523463
55.17192958
55.16862534
55.16532189
55.16201923
55.15871733
55.15541617
55.15211575
55.14881605
55.14551706
55.14221875
55.13892112
55.13562415
55.13232783
55.12903215
55.12573709
55.12244264
55.1191488
55.11585553
55.11256285
55.10927072
55.10597915
55.10268812
55.09939761
55.09610763
55.09281816
55.08952918
55.08624069
55.08295269
55.07966515
55.07637806
55.07309143
55.06980525
55.06651949
55.06323415
55.05994924
55.05666472
55.05338061
55.05009689
55.04681355
55.04353058
55.04024798
55.03696574
55.03368385
55.03040231
55.02712111
55.02384024
55.02055969
55.01727946
55.01399955
55.01071994
55.00744063
55.00416161
55.00088288
54.99760443
54.99432626
54.99104835
54.98777072
54.98449334
54.98121622
54.97793934
54.97466271
54.97138632
54.96811016
54.96483424
54.96155854
54.95828305
54.95500779
54.95173273
54.94845789
54.94518324
54.9419088
54.93863455
54.93536049
54.93208662
54.92881293
54.92553943
54.9222661
54.91899294
54.91571995
54.91244712
54.90917446
54.90590196
54.90262961
54.89935741
54.89608537
54.89281347
54.88954172
54.8862701
54.88299862
54.87972728
54.87645607
54.87318499
54.86991404
54.86664321
54.86337251
54.86010192
54.85683145
54.85356109
54.85029085
54.84702072
54.84375069
54.84048077
54.83721096
54.83394124
54.83067163
54.82740211
54.82413269
54.82086336
54.81759412
54.81432497
54.81105591
54.80778694
54.80451805
54.80124924
54.79798052
54.79471187
54.7914433
54.78817481
54.78490639
54.78163805
54.77836977
54.77510157
54.77183344
54.76856537
54.76529737
54.76202943
54.75876156
54.75549375
54.752226
54.74895831
54.74569068
54.74242311
54.73915559
54.73588813
54.73262072
54.72935337
54.72608607
54.72281882
54.71955162
54.71628447
54.71301736
54.70975031
54.7064833
54.70321634
54.69994942
54.69668255
54.69341572
54.69014893
54.68688219
54.68361548
54.68034882
54.67708219
54.67381561
54.67054906
54.66728255
54.66401606
54.66074962
54.65748319
54.65421679
54.65095039
54.647684
54.64441758
54.64115112
54.64115112
56.49819667
56.49819667
56.25285371
56.20536566
56.18354589
56.16843495
56.15607654
56.14512122
56.13498651
56.12538777
56.11617526
56.10726591
56.09861128
56.09018138
56.08195619
56.07392109
56.06606441
56.05837618
56.05084739
56.04346971
56.03623531
56.02913677
56.02216709
56.01531965
56.00858823
56.00196696
55.99545035
55.98903326
55.98271089
55.97647874
55.97033261
55.96426859
55.95828301
55.95237245
55.94653371
55.94076379
55.93505987
55.92941931
55.92383965
55.91831854
55.9128538
55.90744336
55.90208526
55.89677767
55.89151884
55.88630712
55.88114095
55.87601884
55.87093939
55.86590126
55.86090317
55.85594391
55.85102232
55.8461373
55.8412878
55.8364728
55.83169134
55.8269425
55.8222254
55.81753918
55.81288303
55.80825616
55.80365784
55.79908732
55.79454392
55.79002697
55.78553581
55.78106983
55.77662842
55.77221101
55.76781702
55.76344591
55.75909717
55.75477028
55.75046475
55.74618009
55.74191586
55.73767159