# vtk DataFile Version 2.0
FlowField
ASCII
DATASET STRUCTURED_GRID
DIMENSIONS 400 1 200
POINTS 80000 float
0 0 0
0.08 0 0
0.16 0 0
0.24 0 0
0.32 0 0
0.4 0 0
0.48 0 0
0.56 0 0
0.64 0 0
0.72 0 0
0.8 0 0
0.88 0 0
0.96 0 0
1.04 0 0
1.12 0 0
1.2 0 0
1.28 0 0
1.36 0 0
1.44 0 0
1.52 0 0
1.6 0 0
1.68 0 0
1.76 0 0
1.84 0 0
1.92 0 0
2 0 0
2.08 0 0
2.16 0 0
2.24 0 0
2.32 0 0
2.4 0 0
2.48 0 0
2.56 0 0
2.64 0 0
2.72 0 0
2.8 0 0
2.88 0 0
2.96 0 0
3.04 0 0
3.12 0 0
3.2 0 0
3.28 0 0
3.36 0 0
3.44 0 0
3.52 0 0
3.6 0 0
3.68 0 0
3.76 0 0
3.84 0 0
3.92 0 0
4 0 0
4.08 0 0
4.16 0 0
4.24 0 0
4.32 0 0
4.4 0 0
4.48 0 0
4.56 0 0
4.64 0 0
4.72 0 0
4.8 0 0
4.88 0 0
4.96 0 0
5.04 0 0
5.12 0 0
5.2 0 0
5.28 0 0
5.36 0 0
5.44 0 0
5.52 0 0
5.6 0 0
5.68 0 0
5.76 0 0
5.84 0 0
5.92 0 0
6 0 0
6.08 0 0
6.16 0 0
6.24 0 0
6.32 0 0
6.4 0 0
6.48 0 0
6.56 0 0
6.64 0 0
6.72 0 0
6.8 0 0
6.88 0 0
6.96 0 0
7.04 0 0
7.12 0 0
7.2 0 0
7.28 0 0
7.36 0 0
7.44 0 0
7.52 0 0
7.6 0 0
7.68 0 0
7.76 0 0
7.84 0 0
7.92 0 0
8 0 0
8.08 0 0
8.16 0 0
8.24 0 0
8.32 0 0
8.4 0 0
8.48 0 0
8.56 0 0
8.64 0 0
8.72 0 0
8.8 0 0
8.88 0 0
8.96 0 0
9.04 0 0
9.12 0 0
9.2 0 0
9.28 0 0
9.36 0 0
9.44 0 0
9.52 0 0
9.6 0 0
9.68 0 0
9.76 0 0
9.84 0 0
9.92 0 0
10 0 0
10.08 0 0
10.16 0 0
10.24 0 0
10.32 0 0
10.4 0 0
10.48 0 0
10.56 0 0
10.64 0 0
10.72 0 0
10.8 0 0
10.88 0 0
10.96 0 0
11.04 0 0
11.12 0 0
11.2 0 0
11.28 0 0
11.36 0 0
11.44 0 0
11.52 0 0
11.6 0 0
11.68 0 0
11.76 0 0
11.84 0 0
11.92 0 0
12 0 0
12.08 0 0
12.16 0 0
12.24 0 0
12.32 0 0
12.4 0 0
12.48 0 0
12.56 0 0
12.64 0 0
12.72 0 0
12.8 0 0
12.88 0 0
12.96 0 0
13.04 0 0
13.12 0 0
13.2 0 0
13.28 0 0
13.36 0 0
13.44 0 0
13.52 0 0
13.6 0 0
13.68 0 0
13.76 0 0
13.84 0 0
13.92 0 0
14 0 0
14.08 0 0
14.16 0 0
14.24 0 0
14.32 0 0
14.4 0 0
14.48 0 0
14.56 0 0
14.64 0 0
14.72 0 0
14.8 0 0
14.88 0 0
14.96 0 0
15.04 0 0
15.12 0 0
15.2 0 0
15.28 0 0
15.36 0 0
15.44 0 0
15.52 0 0
15.6 0 0
15.68 0 0
15.76 0 0
15.84 0 0
15.92 0 0
16 0 0
16.08 0 0
16.16 0 0
16.24 0 0
16.32 0 0
16.4 0 0
16.48 0 0
16.56 0 0
16.64 0 0
16.72 0 0
16.8 0 0
16.88 0 0
16.96 0 0
17.04 0 0
17.12 0 0
17.2 0 0
17.28 0 0
17.36 0 0
17.44 0 0
17.52 0 0
17.6 0 0
17.68 0 0
17.76 0 0
17.84 0 0
17.92 0 0
18 0 0
18.08 0 0
18.16 0 0
18.24 0 0
18.32 0 0
18.4 0 0
18.48 0 0
18.56 0 0
18.64 0 0
18.72 0 0
18.8 0 0
18.88 0 0
18.96 0 0
19.04 0 0
19.12 0 0
19.2 0 0
19.28 0 0
19.36 0 0
19.44 0 0
19.52 0 0
19.6 0 0
19.68 0 0
19.76 0 0
19.84 0 0
19.92 0 0
20 0 0
20.08 0 0
20.16 0 0
20.24 0 0
20.32 0 0
20.4 0 0
20.48 0 0
20.56 0 0
20.64 0 0
20.72 0 0
20.8 0 0
20.88 0 0
20.96 0 0
21.04 0 0
21.12 0 0
21.2 0 0
21.28 0 0
21.36 0 0
21.44 0 0
21.52 0 0
21.6 0 0
21.68 0 0
21.76 0 0
21.84 0 0
21.92 0 0
22 0 0
22.08 0 0
22.16 0 0
22.24 0 0
22.32 0 0
22.4 0 0
22.48 0 0
22.56 0 0
22.64 0 0
22.72 0 0
22.8 0 0
22.88 0 0
22.96 0 0
23.04 0 0
23.12 0 0
23.2 0 0
23.28 0 0
23.36 0 0
23.44 0 0
23.52 0 0
23.6 0 0
23.68 0 0
23.76 0 0
23.84 0 0
23.92 0 0
24 0 0
24.08 0 0
24.16 0 0
24.24 0 0
24.32 0 0
24.4 0 0
24.48 0 0
24.56 0 0
24.64 0 0
24.72 0 0
24.8 0 0
24.88 0 0
24.96 0 0
25.04 0 0
25.12 0 0
25.2 0 0
25.28 0 0
25.36 0 0
25.44 0 0
25.52 0 0
25.6 0 0
25.68 0 0
25.76 0 0
25.84 0 0
25.92 0 0
26 0 0
26.08 0 0
26.16 0 0
26.24 0 0
26.32 0 0
26.4 0 0
26.48 0 0
26.56 0 0
26.64 0 0
26.72 0 0
26.8 0 0
26.88 0 0
26.96 0 0
27.04 0 0
27.12 0 0
27.2 0 0
27.28 0 0
27.36 0 0
27.44 0 0
27.52 0 0
27.6 0 0
27.68 0 0
27.76 0 0
27.84 0 0
27.92 0 0
28 0 0
28.08 0 0
28.16 0 0
28.24 0 0
28.32 0 0
28.4 0 0
28.48 0 0
28.56 0 0
28.64 0 0
28.72 0 0
28.8 0 0
28.88 0 0
28.96 0 0
29.04 0 0
29.12 0 0
29.2 0 0
29.28 0 0
29.36 0 0
29.44 0 0
29.52 0 0
29.6 0 0
29.68 0 0
29.76 0 0
29.84 0 0
29.92 0 0
30 0 0
30.08 0 0
30.16 0 0
30.24 0 0
30.32 0 0
30.4 0 0
30.48 0 0
30.56 0 0
30.64 0 0
30.72 0 0
30.8 0 0
30.88 0 0
30.96 0 0
31.04 0 0
31.12 0 0
31.2 0 0
31.28 0 0
31.36 0 0
31.44 0 0
31.52 0 0
31.6 0 0
31.68 0 0
31.76 0 0
31.84 0 0
31.92 0 0
0 0.005 0
0.08 0.005 0
0.16 0.005 0
0.24 0.005 0
0.32 0.005 0
0.4 0.005 0
0.48 0.005 0
0.56 0.005 0
0.64 0.005 0
0.72 0.005 0
0.8 0.005 0
0.88 0.005 0
0.96 0.005 0
1.04 0.005 0
1.12 0.005 0
1.2 0.005 0
1.28 0.005 0
1.36 0.005 0
1.44 0.005 0
1.52 0.005 0
1.6 0.005 0
1.68 0.005 0
1.76 0.005 0
1.84 0.005 0
1.92 0.005 0
2 0.005 0
2.08 0.005 0
2.16 0.005 0
2.24 0.005 0
2.32 0.005 0
2.4 0.005 0
2.48 0.005 0
2.56 0.005 0
2.64 0.005 0
2.72 0.005 0
2.8 0.005 0
2.88 0.005 0
2.96 0.005 0
3.04 0.005 0
3.12 0.005 0
3.2 0.005 0
3.28 0.005 0
3.36 0.005 0
3.44 0.005 0
3.52 0.005 0
3.6 0.005 0
3.68 0.005 0
3.76 0.005 0
3.84 0.005 0
3.92 0.005 0
4 0.005 0
4.08 0.005 0
4.16 0.005 0
4.24 0.005 0
4.32 0.005 0
4.4 0.005 0
4.48 0.005 0
4.56 0.005 0
4.64 0.005 0
4.72 0.005 0
4.8 0.005 0
4.88 0.005 0
4.96 0.005 0
5.04 0.005 0
5.12 0.005 0
5.2 0.005 0
5.28 0.005 0
5.36 0.005 0
5.44 0.005 0
5.52 0.005 0
5.6 0.005 0
5.68 0.005 0
5.76 0.005 0
5.84 0.005 0
5.92 0.005 0
6 0.005 0
6.08 0.005 0
6.16 0.005 0
6.24 0.005 0
6.32 0.005 0
6.4 0.005 0
6.48 0.005 0
6.56 0.005 0
6.64 0.005 0
6.72 0.005 0
6.8 0.005 0
6.88 0.005 0
6.96 0.005 0
7.04 0.005 0
7.12 0.005 0
7.2 0.005 0
7.28 0.005 0
7.36 0.005 0
7.44 0.005 0
7.52 0.005 0
7.6 0.005 0
7.68 0.005 0
7.76 0.005 0
7.84 0.005 0
7.92 0.005 0
8 0.005 0
8.08 0.005 0
8.16 0.005 0
8.24 0.005 0
8.32 0.005 0
8.4 0.005 0
8.48 0.005 0
8.56 0.005 0
8.64 0.005 0
8.72 0.005 0
8.8 0.005 0
8.88 0.005 0
8.96 0.005 0
9.04 0.005 0
9.12 0.005 0
9.2 0.005 0
9.28 0.005 0
9.36 0.005 0
9.44 0.005 0
9.52 0.005 0
9.6 0.005 0
9.68 0.005 0
9.76 0.005 0
9.84 0.005 0
9.92 0.005 0
10 0.005 0
10.08 0.005 0
10.16 0.005 0
10.24 0.005 0
10.32 0.005 0
10.4 0.005 0
10.48 0.005 0
10.56 0.005 0
10.64 0.005 0
10.72 0.005 0
10.8 0.005 0
10.88 0.005 0
10.96 0.005 0
11.04 0.005 0
11.12 0.005 0
11.2 0.005 0
11.28 0.005 0
11.36 0.005 0
11.44 0.005 0
11.52 0.005 0
11.6 0.005 0
11.68 0.005 0
11.76 0.005 0
11.84 0.005 0
11.92 0.005 0
12 0.005 0
12.08 0.005 0
12.16 0.005 0
12.24 0.005 0
12.32 0.005 0
12.4 0.005 0
12.48 0.005 0
12.56 0.005 0
12.64 0.005 0
12.72 0.005 0
12.8 0.005 0
12.88 0.005 0
12.96 0.005 0
13.04 0.005 0
13.12 0.005 0
13.2 0.005 0
13.28 0.005 0
13.36 0.005 0
13.44 0.005 0
13.52 0.005 0
13.6 0.005 0
13.68 0.005 0
13.76 0.005 0
13.84 0.005 0
13.92 0.005 0
14 0.005 0
14.08 0.005 0
14.16 0.005 0
14.24 0.005 0
14.32 0.005 0
14.4 0.005 0
14.48 0.005 0
14.56 0.005 0
14.64 0.005 0
14.72 0.005 0
14.8 0.005 0
14.88 0.005 0
14.96 0.005 0
15.04 0.005 0
15.12 0.005 0
15.2 0.005 0
15.28 0.005 0
15.36 0.005 0
15.44 0.005 0
15.52 0.005 0
15.6 0.005 0
15.68 0.005 0
15.76 0.005 0
15.84 0.005 0
15.92 0.005 0
16 0.005 0
16.08 0.005 0
16.16 0.005 0
16.24 0.005 0
16.32 0.005 0
16.4 0.005 0
16.48 0.005 0
16.56 0.005 0
16.64 0.005 0
16.72 0.005 0
16.8 0.005 0
16.88 0.005 0
16.96 0.005 0
17.04 0.005 0
17.12 0.005 0
17.2 0.005 0
17.28 0.005 0
17.36 0.005 0
17.44 0.005 0
17.52 0.005 0
17.6 0.005 0
17.68 0.005 0
17.76 0.005 0
17.84 0.005 0
17.92 0.005 0
18 0.005 0
18.08 0.005 0
18.16 0.005 0
18.24 0.005 0
18.32 0.005 0
18.4 0.005 0
18.48 0.005 0
18.56 0.005 0
18.64 0.005 0
18.72 0.005 0
18.8 0.005 0
18.88 0.005 0
18.96 0.005 0
19.04 0.005 0
19.12 0.005 0
19.2 0.005 0
19.28 0.005 0
19.36 0.005 0
19.44 0.005 0
19.52 0.005 0
19.6 0.005 0
19.68 0.005 0
19.76 0.005 0
19.84 0.005 0
19.92 0.005 0
20 0.005 0
20.08 0.005 0
20.16 0.005 0
20.24 0.005 0
20.32 0.005 0
20.4 0.005 0
20.48 0.005 0
20.56 0.005 0
20.64 0.005 0
20.72 0.005 0
20.8 0.005 0
20.88 0.005 0
20.96 0.005 0
21.04 0.005 0
21.12 0.005 0
21.2 0.005 0
21.28 0.005 0
21.36 0.005 0
21.44 0.005 0
21.52 0.005 0
21.6 0.005 0
21.68 0.005 0
21.76 0.005 0
21.84 0.005 0
21.92 0.005 0
22 0.005 0
22.08 0.005 0
22.16 0.005 0
22.24 0.005 0
22.32 0.005 0
22.4 0.005 0
22.48 0.005 0
22.56 0.005 0
22.64 0.005 0
22.72 0.005 0
22.8 0.005 0
22.88 0.005 0
22.96 0.005 0
23.04 0.005 0
23.12 0.005 0
23.2 0.005 0
23.28 0.005 0
23.36 0.005 0
23.44 0.005 0
23.52 0.005 0
23.6 0.005 0
23.68 0.005 0
23.76 0.005 0
23.84 0.005 0
23.92 0.005 0
24 0.005 0
24.08 0.005 0
24.16 0.005 0
24.24 0.005 0
24.32 0.005 0
24.4 0.005 0
24.48 0.005 0
24.56 0.005 0
24.64 0.005 0
24.72 0.005 0
24.8 0.005 0
24.88 0.005 0
24.96 0.005 0
25.04 0.005 0
25.12 0.005 0
25.2 0.005 0
25.28 0.005 0
25.36 0.005 0
25.44 0.005 0
25.52 0.005 0
25.6 0.005 0
25.68 0.005 0
25.76 0.005 0
25.84 0.005 0
25.92 0.005 0
26 0.005 0
26.08 0.005 0
26.16 0.005 0
26.24 0.005 0
26.32 0.005 0
26.4 0.005 0
26.48 0.005 0
26.56 0.005 0
26.64 0.005 0
26.72 0.005 0
26.8 0.005 0
26.88 0.005 0
26.96 0.005 0
27.04 0.005 0
27.12 0.005 0
27.2 0.005 0
27.28 0.005 0
27.36 0.005 0
27.44 0.005 0
27.52 0.005 0
27.6 0.005 0
27.68 0.005 0
27.76 0.005 0
27.84 0.005 0
27.92 0.005 0
28 0.005 0
28.08 0.005 0
28.16 0.005 0
28.24 0.005 0
28.32 0.005 0
28.4 0.005 0
28.48 0.005 0
28.56 0.005 0
28.64 0.005 0
28.72 0.005 0
28.8 0.005 0
28.88 0.005 0
28.96 0.005 0
29.04 0.005 0
29.12 0.005 0
29.2 0.005 0
29.28 0.005 0
29.36 0.005 0
29.44 0.005 0
29.52 0.005 0
29.6 0.005 0
29.68 0.005 0
29.76 0.005 0
29.84 0.005 0
29.92 0.005 0
30 0.005 0
30.08 0.005 0
30.16 0.005 0
30.24 0.005 0
30.32 0.005 0
30.4 0.005 0
30.48 0.005 0
30.56 0.005 0
30.64 0.005 0
30.72 0.005 0
30.8 0.005 0
30.88 0.005 0
30.96 0.005 0
31.04 0.005 0
31.12 0.005 0
31.2 0.005 0
31.28 0.005 0
31.36 0.005 0
31.44 0.005 0
31.52 0.005 0
31.6 0.005 0
31.68 0.005 0
31.76 0.005 0
31.84 0.005 0
31.92 0.005 0
0 0.01 0
0.08 0.01 0
0.16 0.01 0
0.24 0.01 0
0.32 0.01 0
0.4 0.01 0
0.48 0.01 0
0.56 0.01 0
0.64 0.01 0
0.72 0.01 0
0.8 0.01 0
0.88 0.01 0
0.96 0.01 0
1.04 0.01 0
1.12 0.01 0
1.2 0.01 0
1.28 0.01 0
1.36 0.01 0
1.44 0.01 0
1.52 0.01 0
1.6 0.01 0
1.68 0.01 0
1.76 0.01 0
1.84 0.01 0
1.92 0.01 0
2 0.01 0
2.08 0.01 0
2.16 0.01 0
2.24 0.01 0
2.32 0.01 0
2.4 0.01 0
2.48 0.01 0
2.56 0.01 0
2.64 0.01 0
2.72 0.01 0
2.8 0.01 0
2.88 0.01 0
2.96 0.01 0
3.04 0.01 0
3.12 0.01 0
3.2 0.01 0
3.28 0.01 0
3.36 0.01 0
3.44 0.01 0
3.52 0.01 0
3.6 0.01 0
3.68 0.01 0
3.76 0.01 0
3.84 0.01 0
3.92 0.01 0
4 0.01 0
4.08 0.01 0
4.16 0.01 0
4.24 0.01 0
4.32 0.01 0
4.4 0.01 0
4.48 0.01 0
4.56 0.01 0
4.64 0.01 0
4.72 0.01 0
4.8 0.01 0
4.88 0.01 0
4.96 0.01 0
5.04 0.01 0
5.12 0.01 0
[...]
POINT_DATA 80000

SCALARS p float 1
LOOKUP_TABLE default
1
56.69697572
56.39523776
56.35407538
56.33398291
56.31956157
56.30755825
56.29681253
56.28681215
56.27730435
56.26815588
56.25929304
56.25067304
56.24226952
56.23406481
56.22604586
56.21820212
56.21052441
56.20300433
56.19563398
56.18840576
56.18131247
56.17434732
56.16750401
56.16077653
56.15415907
56.14764609
56.14123249
56.13491381
56.12868608
56.12254553
56.11648833
56.11051074
56.10460954
56.09878231
56.09302731
56.08734297
56.08172746
56.07617869
56.07069493
56.06527553
56.05992118
56.0546336
56.04941458
56.04426528
56.03918599
56.0341766
56.02923717
56.0243682
56.01957007
56.01484215
56.01018174
56.00558393
56.00104221
55.99654988
55.99210146
55.98769353
55.98332472
55.97899472
55.97470309
55.97044818
55.96622678
55.96203444
55.95786642
55.95371878
55.94958919
55.94547726
55.9413843
55.93731268
55.93326496
55.92924315
55.92524812
55.92127941
55.91733527
55.91341299
55.90950922
55.90562046
55.90174337
55.89787497
55.89401282
55.890155
55.88630009
55.88244709
55.8785953
55.87474427
55.87089369
55.86704339
55.86319322
55.8593431
55.85549298
55.85164281
55.84779255
55.8439422
55.84009173
55.83624113
55.83239039
55.82853952
55.82468851
55.82083735
55.81698606
55.81313462
55.80928304
55.80543132
55.80157946
55.79772746
55.79387531
55.79002302
55.7861706
55.78231802
55.77846531
55.77461245
55.77075945
55.7669063
55.76305301
55.75919958
55.755346
55.75149228
55.74763841
55.7437844
55.73993024
55.73607593
55.73222148
55.72836688
55.72451214
55.72065725
55.71680222
55.71294704
55.70909171
55.70523623
55.70138061
55.69752484
55.69366892
55.68981286
55.68595665
55.68210029
55.67824378
55.67438713
55.67053032
55.66667337
55.66281627
55.65895902
55.65510162
55.65124408
55.64738638
55.64352854
55.63967055
55.63581241
55.63195412
55.62809568
55.62423709
55.62037836
55.61651947
55.61266044
55.60880125
55.60494192
55.60108243
55.5972228
55.59336302
55.58950309
55.58564301
55.58178278
55.5779224
55.57406187
55.57020119
55.56634036
55.56247938
55.55861825
55.55475698
55.55089555
55.54703397
55.54317224
55.53931036
55.53544834
55.53158616
55.52772383
55.52386136
55.51999873
55.51613595
55.51227302
55.50840995
55.50454672
55.50068334
55.49681981
55.49295613
55.4890923
55.48522832
55.48136419
55.47749991
55.47363548
55.4697709
55.46590617
55.46204128
55.45817625
55.45431107
55.45044573
55.44658024
55.4427146
55.43884882
55.43498288
55.43111678
55.42725054
55.42338415
55.4195176
55.4156509
55.41178405
55.40791705
55.4040499
55.40018259
55.39631514
55.39244753
55.38857976
55.38471185
55.38084378
55.37697556
55.37310719
55.36923866
55.36536999
55.36150115
55.35763217
55.35376303
55.34989374
55.34602429
55.34215469
55.33828494
55.33441503
55.33054497
55.32667475
55.32280438
55.31893386
55.31506318
55.31119234
55.30732135
55.30345021
55.2995789
55.29570745
55.29183583
55.28796407
55.28409214
55.28022006
55.27634782
55.27247543
55.26860287
55.26473017
55.2608573
55.25698428
55.2531111
55.24923776
55.24536426
55.24149061
55.23761679
55.23374282
55.22986869
55.2259944
55.22211995
55.21824535
55.21437058
55.21049565
55.20662057
55.20274532
55.19886991
55.19499434
55.19111861
55.18724273
55.18336667
55.17949046
55.17561409
55.17173755
55.16786086
55.163984
55.16010698
55.15622979
55.15235244
55.14847493
55.14459726
55.14071942
55.13684142
55.13296326
55.12908493
55.12520644
55.12132778
55.11744896
55.11356997
55.10969082
55.1058115
55.10193202
55.09805237
55.09417255
55.09029257
55.08641242
55.08253211
55.07865163
55.07477098
55.07089016
55.06700917
55.06312802
55.0592467
55.05536521
55.05148356
55.04760173
55.04371973
55.03983757
55.03595524
55.03207273
55.02819006
55.02430721
55.0204242
55.01654102
55.01265766
55.00877413
55.00489043
55.00100656
54.99712252
54.99323831
54.98935392
54.98546937
54.98158463
54.97769973
54.97381465
54.9699294
54.96604398
54.96215838
54.95827261
54.95438666
54.95050054
54.94661424
54.94272777
54.93884113
54.9349543
54.93106731
54.92718013
54.92329278
54.91940526
54.91551755
54.91162967
54.90774162
54.90385338
54.89996497
54.89607638
54.89218761
54.88829867
54.88440954
54.88052024
54.87663075
54.87274109
54.86885125
54.86496123
54.86107103
54.85718064
54.85329008
54.84939934
54.84550841
54.84161731
54.83772602
54.83383455
54.8299429
54.82605107
54.82215906
54.81826686
54.81437448
54.81048192
54.80658917
54.80269624
54.79880312
54.79490983
54.79101634
54.78712268
54.78322882
54.77933479
54.77544056
54.77154616
54.76765156
54.76375679
54.75986181
54.75596667
54.75207132
54.74817581
54.74428008
54.7403842
54.7364881
54.73259184
54.72869536
54.72479873
54.72090187
54.71700487
54.71310762
54.70921025
54.70531262
54.70141486
54.69751687
54.6936187
54.68972034
54.68582172
54.68192305
54.67802386
54.67412498
54.67022496
54.66632642
54.66242485
54.65853336
0.5
56.69697572
56.69697572
56.39523776
56.35407538
56.33398291
56.31956157
56.30755825
56.29681253
56.28681215
56.27730435
56.26815588
56.25929304
56.25067304
56.24226952
56.23406481
56.22604586
56.21820212
56.21052441
56.20300433
56.19563398
56.18840576
56.18131247
56.17434732
56.16750401
56.16077653
56.15415907
56.14764609
56.14123249
56.13491381
56.12868608
56.12254553
56.11648833
56.11051074
56.10460954
56.09878231
56.09302731
56.08734297
56.08172746
56.07617869
56.07069493
56.06527553
56.05992118
56.0546336
56.04941458
56.04426528
56.03918599
56.0341766
56.02923717
56.0243682
56.01957007
56.01484215
56.01018174
56.00558393
56.00104221
55.99654988
55.99210146
55.98769353
55.98332472
55.97899472
55.97470309
55.97044818
55.96622678
55.96203444
55.95786642
55.95371878
55.94958919
55.94547726
55.9413843
55.93731268
55.93326496
55.92924315
55.92524812
55.92127941
55.91733527
55.91341299
55.90950922
55.90562046
55.90174337
55.89787497
55.89401282
55.890155
55.88630009
55.88244709
55.8785953
55.87474427
55.87089369
55.86704339
55.86319322
55.8593431
55.85549298
55.85164281
55.84779255
55.8439422
55.84009173
55.83624113
55.83239039
55.82853952
55.82468851
55.82083735
55.81698606
55.81313462
55.80928304
55.80543132
55.80157946
55.79772746
55.79387531
55.79002302
55.7861706
55.78231802
55.77846531
55.77461245
55.77075945
55.7669063
55.76305301
55.75919958
55.755346
55.75149228
55.74763841
55.7437844
55.73993024
55.73607593
55.73222148
55.72836688
55.72451214
55.72065725
55.71680222
55.71294704
55.70909171
55.70523623
55.70138061
55.69752484
55.69366892
55.68981286
55.68595665
55.68210029
55.67824378
55.67438713
55.67053032
55.66667337
55.66281627
55.65895902
55.65510162
55.65124408
55.64738638
55.64352854
55.63967055
55.63581241
55.63195412
55.62809568
55.62423709
55.62037836
55.61651947
55.61266044
55.60880125
55.60494192
55.60108243
55.5972228
55.59336302
55.58950309
55.58564301
55.58178278
55.5779224
55.57406187
55.57020119
55.56634036
55.56247938
55.55861825
55.55475698
55.55089555
55.54703397
55.54317224
55.53931036
55.53544834
55.53158616
55.52772383
55.52386136
55.51999873
55.51613595
55.51227302
55.50840995
55.50454672
55.50068334
55.49681981
55.49295613
55.4890923
55.48522832
55.48136419
55.47749991
55.47363548
55.4697709
55.46590617
55.46204128
55.45817625
55.45431107
55.45044573
55.44658024
55.4427146
55.43884882
55.43498288
55.43111678
55.42725054
55.42338415
55.4195176
55.4156509
55.41178405
55.40791705
55.4040499
55.40018259
55.39631514
55.39244753
55.38857976
55.38471185
55.38084378
55.37697556
55.37310719
55.36923866
55.36536999
55.36150115
55.35763217
55.35376303
55.34989374
55.34602429
55.34215469
55.33828494
55.33441503
55.33054497
55.32667475
55.32280438
55.31893386
55.31506318
55.31119234
55.30732135
55.30345021
55.2995789
55.29570745
55.29183583
55.28796407
55.28409214
55.28022006
55.27634782
55.27247543
55.26860287
55.26473017
55.2608573
55.25698428
55.2531111
55.24923776
55.24536426
55.24149061
55.23761679
55.23374282
55.22986869
55.2259944
55.22211995
55.21824535
55.21437058
55.21049565
55.20662057
55.20274532
55.19886991
55.19499434
55.19111861
55.18724273
55.18336667
55.17949046
55.17561409
55.17173755
55.16786086
55.163984
55.16010698
55.15622979
55.15235244
55.14847493
55.14459726
55.14071942
55.13684142
55.13296326
55.12908493
55.12520644
55.12132778
55.11744896
55.11356997
55.10969082
55.1058115
55.10193202
55.09805237
55.09417255
55.09029257
55.08641242
55.08253211
55.07865163
55.07477098
55.07089016
55.06700917
55.06312802
55.0592467
55.05536521
55.05148356
55.04760173
55.04371973
55.03983757
55.03595524
55.03207273
55.02819006
55.02430721
55.0204242
55.01654102
55.01265766
55.00877413
55.00489043
55.00100656
54.99712252
54.99323831
54.98935392
54.98546937
54.98158463
54.97769973
54.97381465
54.9699294
54.96604398
54.96215838
54.95827261
54.95438666
54.95050054
54.94661424
54.94272777
54.93884113
54.9349543
54.93106731
54.92718013
54.92329278
54.91940526
54.91551755
54.91162967
54.90774162
54.90385338
54.89996497
54.89607638
54.89218761
54.88829867
54.88440954
54.88052024
54.87663075
54.87274109
54.86885125
54.86496123
54.86107103
54.85718064
54.85329008
54.84939934
54.84550841
54.84161731
54.83772602
54.83383455
54.8299429
54.82605107
54.82215906
54.81826686
54.81437448
54.81048192
54.80658917
54.80269624
54.79880312
54.79490983
54.79101634
54.78712268
54.78322882
54.77933479
54.77544056
54.77154616
54.76765156
54.76375679
54.75986181
54.75596667
54.75207132
54.74817581
54.74428008
54.7403842
54.7364881
54.73259184
54.72869536
54.72479873
54.72090187
54.71700487
54.71310762
54.70921025
54.70531262
54.70141486
54.69751687
54.6936187
54.68972034
54.68582172
54.68192305
54.67802386
54.67412498
54.67022496
54.66632642
54.66242485
54.65853336
54.65853336
56.68239381
56.68239381
56.39907351
56.35533067
56.33461803
56.31995596
56.30782983
56.29701186
56.28696517
56.27742593
56.26825519
56.25937602
56.25074372
56.24233069
56.23411847
56.22609347
56.21824477
56.21056292
56.20303935
56.19566601
56.18843521
56.18133966
56.17437253
56.16752745
56.1607984
56.15417953
56.14766528
56.14125053
56.13493081
56.12870212
56.12256069
56.11650268
56.11052435
56.10462246
56.09879459
56.09303898
56.08735407
56.08173802
56.07618874
56.07070451
56.06528465
56.05992986
56.05464182
56.04942235
56.04427258
56.03919283
56.03418298
56.02924311
56.02437368
56.01957511
56.01484673
56.0101859
56.0055877
56.00104564
55.99655303
55.99210436
55.98769622
55.9833272
55.97899699
55.97470514
55.97045003
55.96622842
55.96203591
55.95786775
55.95372001
55.94959033
55.94547833
55.94138529
55.93731358
55.93326576
55.92924383
55.92524867
55.92127983
55.91733557
55.91341318
55.90950931
55.90562048
55.90174332
55.89787488
55.89401269
55.89015485
55.88629993
55.88244692
55.87859512
55.87474408
55.87089351
55.8670432
55.86319303
55.85934291
55.85549279
55.85164262
55.84779236
55.84394201
55.84009154
55.83624094
55.8323902
55.82853933
55.82468832
55.82083716
55.81698587
55.81313443
55.80928285
55.80543113
55.80157927
55.79772727
55.79387512
55.79002284
55.78617041
55.78231784
55.77846512
55.77461227
55.77075926
55.76690612
55.76305283
55.7591994
55.75534582
55.75149209
55.74763823
55.74378421
55.73993005
55.73607575
55.7322213
55.7283667
55.72451196
55.72065707
55.71680204
55.71294686
55.70909153
55.70523605
55.70138043
55.69752466
55.69366875
55.68981268
55.68595647
55.68210011
55.6782436
55.67438695
55.67053015
55.66667319
55.66281609
55.65895885
55.65510145
55.6512439
55.64738621
55.64352837
55.63967038
55.63581224
55.63195395
55.62809551
55.62423692
55.62037818
55.6165193
55.61266026
55.60880108
55.60494175
55.60108226
55.59722263
55.59336285
55.58950292
55.58564284
55.58178261
55.57792223
55.5740617
55.57020102
55.56634019
55.56247921
55.55861809
55.55475681
55.55089538
55.5470338
55.54317208
55.5393102
55.53544817
55.531586
55.52772367
55.52386119
55.51999856
55.51613579
55.51227286
55.50840978
55.50454656
55.50068318
55.49681965
55.49295597
55.48909214
55.48522816
55.48136403
55.47749975
55.47363532
55.46977074
55.46590601
55.46204113
55.45817609
55.45431091
55.45044557
55.44658009
55.44271445
55.43884866
55.43498272
55.43111663
55.42725038
55.42338399
55.41951744
55.41565075
55.4117839
55.4079169
55.40404974
55.40018244
55.39631498
55.39244737
55.38857961
55.3847117
55.38084363
55.37697541
55.37310704
55.36923851
55.36536984
55.361501
55.35763202
55.35376288
55.34989359
55.34602414
55.34215455
55.33828479
55.33441488
55.33054482
55.32667461
55.32280424
55.31893371
55.31506303
55.3111922
55.30732121
55.30345006
55.29957876
55.2957073
55.29183569
55.28796392
55.284092
55.28021991
55.27634768
55.27247528
55.26860273
55.26473002
55.26085716
55.25698413
55.25311095
55.24923762
55.24536412
55.24149047
55.23761665
55.23374268
55.22986855
55.22599426
55.22211981
55.21824521
55.21437044
55.21049551
55.20662043
55.20274518
55.19886977
55.19499421
55.19111848
55.18724259
55.18336654
55.17949033
55.17561395
55.17173742
55.16786072
55.16398386
55.16010684
55.15622966
55.15235231
55.1484748
55.14459713
55.14071929
55.13684129
55.13296313
55.1290848
55.12520631
55.12132765
55.11744883
55.11356984
55.10969069
55.10581137
55.10193189
55.09805224
55.09417242
55.09029244
55.08641229
55.08253198
55.0786515
55.07477085
55.07089003
55.06700905
55.0631279
55.05924658
55.05536509
55.05148343
55.0476016
55.04371961
55.03983745
55.03595511
55.03207261
55.02818993
55.02430709
55.02042408
55.01654089
55.01265754
55.00877401
55.00489031
55.00100644
54.9971224
54.99323819
54.9893538
54.98546925
54.98158451
54.97769961
54.97381453
54.96992928
54.96604386
54.96215826
54.95827249
54.95438654
54.95050042
54.94661413
54.94272766
54.93884101
54.93495419
54.93106719
54.92718002
54.92329267
54.91940514
54.91551744
54.91162956
54.9077415
54.90385327
54.89996486
54.89607627
54.8921875
54.88829855
54.88440943
54.88052012
54.87663064
54.87274098
54.86885114
54.86496112
54.86107092
54.85718053
54.85328997
54.84939923
54.84550831
54.8416172
54.83772591
54.83383445
54.8299428
54.82605096
54.82215895
54.81826675
54.81437437
54.81048181
54.80658906
54.80269613
54.79880302
54.79490972
54.79101624
54.78712257
54.78322872
54.77933469
54.77544046
54.77154606
54.76765146
54.76375669
54.75986171
54.75596657
54.75207122
54.74817571
54.74427998
54.7403841
54.736488
54.73259174
54.72869526
54.72479863
54.72090177
54.71700477
54.71310753
54.70921015
54.70531253
54.70141476
54.69751677
54.6936186
54.68972025
54.68582163
54.68192295
54.67802377
54.67412487
54.6702249
54.66632628
54.66242493
54.65853327
54.65853327
56.66640917
56.66640917
56.40226192
56.35651784
56.33523403
56.32034222
56.30809725
56.29720879
56.28711665
56.2775464
56.26835362
56.25945826
56.25081374
56.24239126
56.23417157
56.22614055
56.21828692
56.21060096
56.20307393
56.19569762
56.18846426
56.18136648
56.17439738
56.16755057
56.16081997
56.15419971
56.14768421
56.14126833
56.13494757
56.12871795
56.12257565
56.11651684
56.11053778
56.10463521
56.09880671
56.0930505
56.08736502
56.08174843
56.07619865
56.07071395
56.06529363
56.05993839
56.0546499
56.04942996
56.04427973
56.03919952
56.03418922
56.02924889
56.02437902
56.01957999
56.01485118
56.01018994
56.00559137
56.001049
55.99655612
55.99210723
55.98769888
55.98332966
55.97899924
55.97470718
55.97045187
55.96623008
55.96203741
55.95786913
55.95372129
55.94959153
55.94547945
55.94138633
55.93731452
55.93326658
55.92924453
55.92524925
55.92128029
55.91733592
55.91341342
55.90950948
55.90562058
55.90174337
55.89787489
55.89401268
55.89015482
55.88629989
55.88244687
55.87859507
55.87474402
55.87089345
55.86704314
55.86319296
55.85934285
55.85549272
55.85164255
55.8477923
55.84394194
55.84009147
55.83624087
55.83239013
55.82853926
55.82468825
55.8208371
55.8169858
55.81313436
55.80928278
55.80543106
55.8015792
55.7977272
55.79387506
55.79002277
55.78617034
55.78231777
55.77846506
55.7746122
55.7707592
55.76690605
55.76305276
55.75919933
55.75534575
55.75149203
55.74763816
55.74378414
55.73992999
55.73607568
55.73222123
55.72836664
55.72451189
55.72065701
55.71680197
55.71294679
55.70909146
55.70523599
55.70138036
55.69752459
55.69366868
55.68981261
55.6859564
55.68210004
55.67824354
55.67438688
55.67053008
55.66667313
55.66281603
55.65895878
55.65510138
55.65124383
55.64738614
55.6435283
55.63967031
55.63581217
55.63195388
55.62809544
55.62423685
55.62037812
55.61651923
55.61266019
55.60880101
55.60494168
55.60108219
55.59722256
55.59336278
55.58950285
55.58564277
55.58178254
55.57792216
55.57406163
55.57020095
55.56634012
55.56247914
55.55861802
55.55475674
55.55089531
55.54703373
55.54317201
55.53931013
55.5354481
55.53158593
55.5277236
55.52386112
55.51999849
55.51613572
55.51227279
55.50840971
55.50454648
55.50068311
55.49681958
55.4929559
55.48909207
55.48522809
55.48136396
55.47749968
55.47363525
55.46977067
55.46590594
55.46204105
55.45817602
55.45431084
55.4504455
55.44658001
55.44271438
55.43884859
55.43498265
55.43111656
55.42725031
55.42338392
55.41951737
55.41565068
55.41178383
55.40791683
55.40404967
55.40018237
55.39631491
55.3924473
55.38857954
55.38471163
55.38084356
55.37697534
55.37310697
55.36923844
55.36536976
55.36150093
55.35763195
55.35376281
55.34989352
55.34602407
55.34215447
55.33828472
55.33441481
55.33054475
55.32667453
55.32280416
55.31893364
55.31506296
55.31119212
55.30732113
55.30344999
55.29957869
55.29570723
55.29183562
55.28796385
55.28409192
55.28021984
55.2763476
55.27247521
55.26860266
55.26472995
55.26085708
55.25698406
55.25311088
55.24923754
55.24536405
55.24149039
55.23761658
55.23374261
55.22986848
55.22599419
55.22211974
55.21824513
55.21437037
55.21049544
55.20662035
55.20274511
55.1988697
55.19499413
55.1911184
55.18724252
55.18336646
55.17949025
55.17561388
55.17173735
55.16786065
55.16398379
55.16010677
55.15622958
55.15235224
55.14847473
55.14459705
55.14071922
55.13684122
55.13296305
55.12908472
55.12520623
55.12132758
55.11744875
55.11356977
55.10969061
55.1058113
55.10193181
55.09805216
55.09417235
55.09029237
55.08641222
55.0825319
55.07865142
55.07477077
55.07088996
55.06700897
55.06312782
55.0592465
55.05536501
55.05148335
55.04760153
55.04371953
55.03983737
55.03595504
55.03207253
55.02818986
55.02430702
55.020424
55.01654082
55.01265746
55.00877393
55.00489024
55.00100637
54.99712233
54.99323811
54.98935373
54.98546917
54.98158444
54.97769953
54.97381446
54.96992921
54.96604378
54.96215819
54.95827241
54.95438647
54.95050035
54.94661405
54.94272758
54.93884093
54.93495411
54.93106711
54.92717994
54.92329259
54.91940507
54.91551736
54.91162948
54.90774143
54.90385319
54.89996478
54.89607619
54.89218742
54.88829848
54.88440935
54.88052005
54.87663056
54.8727409
54.86885106
54.86496104
54.86107084
54.85718046
54.85328989
54.84939915
54.84550823
54.84161712
54.83772584
54.83383437
54.82994272
54.82605089
54.82215887
54.81826667
54.81437429
54.81048173
54.80658898
54.80269605
54.79880294
54.79490964
54.79101616
54.78712249
54.78322864
54.77933461
54.77544038
54.77154598
54.76765138
54.76375661
54.75986163
54.75596649
54.75207114
54.74817563
54.74427991
54.74038402
54.73648792
54.73259166
54.72869518
54.72479855
54.72090169
54.71700469
54.71310745
54.70921007
54.70531245
54.70141468
54.69751669
54.69361852
54.68972016
54.68582155
54.68192286
54.6780237
54.67412477
54.67022484
54.66632617
54.66242499
54.65853319
54.65853319
56.65049431
56.65049431
56.40514851
56.35765786
56.3358356
56.32072224
56.30836148
56.29740386
56.28726689
56.27766594
56.26845127
56.25953981
56.25088311
56.2424512
56.23422405
56.22618704
56.21832849
56.21063845
56.20310797
56.19572872
56.18849282
56.18139283
56.1744218
56.16757326
56.16084113
56.1542195
56.14770277
56.14128577
56.134964
56.12873344
56.12259029
56.1165307
56.11055092
56.10464769
56.09881855
56.09306175
56.08737571
56.08175859
56.07620832
56.07072315
56.06530237
56.05994667
56.05465771
56.0494373
56.04428661
56.03920594
56.03419519
56.02925441
56.02438408
56.01958461
56.01485537
56.01019374
56.00559483
56.00105217
55.99655905
55.99210995
55.9877014
55.98333197
55.97900134
55.97470909
55.97045358
55.96623163
55.96203883
55.95787044
55.9537225
55.94959266
55.94548049
55.94138728
55.93731536
55.93326731
55.92924513
55.92524973
55.92128065
55.91733618
55.9134136
55.90950958