# vtk DataFile Version 2.0
FlowField
ASCII
DATASET STRUCTURED_GRID
DIMENSIONS 400 1 200
POINTS 80000 float
0 0 0
0.08 0 0
0.16 0 0
0.24 0 0
0.32 0 0
0.4 0 0
0.48 0 0
0.56 0 0
0.64 0 0
0.72 0 0
0.8 0 0
0.88 0 0
0.96 0 0
1.04 0 0
1.12 0 0
1.2 0 0
1.28 0 0
1.36 0 0
1.44 0 0
1.52 0 0
1.6 0 0
1.68 0 0
1.76 0 0
1.84 0 0
1.92 0 0
2 0 0
2.08 0 0
2.16 0 0
2.24 0 0
2.32 0 0
2.4 0 0
2.48 0 0
2.56 0 0
2.64 0 0
2.72 0 0
2.8 0 0
2.88 0 0
2.96 0 0
3.04 0 0
3.12 0 0
3.2 0 0
3.28 0 0
3.36 0 0
3.44 0 0
3.52 0 0
3.6 0 0
3.68 0 0
3.76 0 0
3.84 0 0
3.92 0 0
4 0 0
4.08 0 0
4.16 0 0
4.24 0 0
4.32 0 0
4.4 0 0
4.48 0 0
4.56 0 0
4.64 0 0
4.72 0 0
4.8 0 0
4.88 0 0
4.96 0 0
5.04 0 0
5.12 0 0
5.2 0 0
5.28 0 0
5.36 0 0
5.44 0 0
5.52 0 0
5.6 0 0
5.68 0 0
5.76 0 0
5.84 0 0
5.92 0 0
6 0 0
6.08 0 0
6.16 0 0
6.24 0 0
6.32 0 0
6.4 0 0
6.48 0 0
6.56 0 0
6.64 0 0
6.72 0 0
6.8 0 0
6.88 0 0
6.96 0 0
7.04 0 0
7.12 0 0
7.2 0 0
7.28 0 0
7.36 0 0
7.44 0 0
7.52 0 0
7.6 0 0
7.68 0 0
7.76 0 0
7.84 0 0
7.92 0 0
8 0 0
8.08 0 0
8.16 0 0
8.24 0 0
8.32 0 0
8.4 0 0
8.48 0 0
8.56 0 0
8.64 0 0
8.72 0 0
8.8 0 0
8.88 0 0
8.96 0 0
9.04 0 0
9.12 0 0
9.2 0 0
9.28 0 0
9.36 0 0
9.44 0 0
9.52 0 0
9.6 0 0
9.68 0 0
9.76 0 0
9.84 0 0
9.92 0 0
10 0 0
10.08 0 0
10.16 0 0
10.24 0 0
10.32 0 0
10.4 0 0
10.48 0 0
10.56 0 0
10.64 0 0
10.72 0 0
10.8 0 0
10.88 0 0
10.96 0 0
11.04 0 0
11.12 0 0
11.2 0 0
11.28 0 0
11.36 0 0
11.44 0 0
11.52 0 0
11.6 0 0
11.68 0 0
11.76 0 0
11.84 0 0
11.92 0 0
12 0 0
12.08 0 0
12.16 0 0
12.24 0 0
12.32 0 0
12.4 0 0
12.48 0 0
12.56 0 0
12.64 0 0
12.72 0 0
12.8 0 0
12.88 0 0
12.96 0 0
13.04 0 0
13.12 0 0
13.2 0 0
13.28 0 0
13.36 0 0
13.44 0 0
13.52 0 0
13.6 0 0
13.68 0 0
13.76 0 0
13.84 0 0
13.92 0 0
14 0 0
14.08 0 0
14.16 0 0
14.24 0 0
14.32 0 0
14.4 0 0
14.48 0 0
14.56 0 0
14.64 0 0
14.72 0 0
14.8 0 0
14.88 0 0
14.96 0 0
15.04 0 0
15.12 0 0
15.2 0 0
15.28 0 0
15.36 0 0
15.44 0 0
15.52 0 0
15.6 0 0
15.68 0 0
15.76 0 0
15.84 0 0
15.92 0 0
16 0 0
16.08 0 0
16.16 0 0
16.24 0 0
16.32 0 0
16.4 0 0
16.48 0 0
16.56 0 0
16.64 0 0
16.72 0 0
16.8 0 0
16.88 0 0
16.96 0 0
17.04 0 0
17.12 0 0
17.2 0 0
17.28 0 0
17.36 0 0
17.44 0 0
17.52 0 0
17.6 0 0
17.68 0 0
17.76 0 0
17.84 0 0
17.92 0 0
18 0 0
18.08 0 0
18.16 0 0
18.24 0 0
18.32 0 0
18.4 0 0
18.48 0 0
18.56 0 0
18.64 0 0
18.72 0 0
18.8 0 0
18.88 0 0
18.96 0 0
19.04 0 0
19.12 0 0
19.2 0 0
19.28 0 0
19.36 0 0
19.44 0 0
19.52 0 0
19.6 0 0
19.68 0 0
19.76 0 0
19.84 0 0
19.92 0 0
20 0 0
20.08 0 0
20.16 0 0
20.24 0 0
20.32 0 0
20.4 0 0
20.48 0 0
20.56 0 0
20.64 0 0
20.72 0 0
20.8 0 0
20.88 0 0
20.96 0 0
21.04 0 0
21.12 0 0
21.2 0 0
21.28 0 0
21.36 0 0
21.44 0 0
21.52 0 0
21.6 0 0
21.68 0 0
21.76 0 0
21.84 0 0
21.92 0 0
22 0 0
22.08 0 0
22.16 0 0
22.24 0 0
22.32 0 0
22.4 0 0
22.48 0 0
22.56 0 0
22.64 0 0
22.72 0 0
22.8 0 0
22.88 0 0
22.96 0 0
23.04 0 0
23.12 0 0
23.2 0 0
23.28 0 0
23.36 0 0
23.44 0 0
23.52 0 0
23.6 0 0
23.68 0 0
23.76 0 0
23.84 0 0
23.92 0 0
24 0 0
24.08 0 0
24.16 0 0
24.24 0 0
24.32 0 0
24.4 0 0
24.48 0 0
24.56 0 0
24.64 0 0
24.72 0 0
24.8 0 0
24.88 0 0
24.96 0 0
25.04 0 0
25.12 0 0
25.2 0 0
25.28 0 0
25.36 0 0
25.44 0 0
25.52 0 0
25.6 0 0
25.68 0 0
25.76 0 0
25.84 0 0
25.92 0 0
26 0 0
26.08 0 0
26.16 0 0
26.24 0 0
26.32 0 0
26.4 0 0
26.48 0 0
26.56 0 0
26.64 0 0
26.72 0 0
26.8 0 0
26.88 0 0
26.96 0 0
27.04 0 0
27.12 0 0
27.2 0 0
27.28 0 0
27.36 0 0
27.44 0 0
27.52 0 0
27.6 0 0
27.68 0 0
27.76 0 0
27.84 0 0
27.92 0 0
28 0 0
28.08 0 0
28.16 0 0
28.24 0 0
28.32 0 0
28.4 0 0
28.48 0 0
28.56 0 0
28.64 0 0
28.72 0 0
28.8 0 0
28.88 0 0
28.96 0 0
29.04 0 0
29.12 0 0
29.2 0 0
29.28 0 0
29.36 0 0
29.44 0 0
29.52 0 0
29.6 0 0
29.68 0 0
29.76 0 0
29.84 0 0
29.92 0 0
30 0 0
30.08 0 0
30.16 0 0
30.24 0 0
30.32 0 0
30.4 0 0
30.48 0 0
30.56 0 0
30.64 0 0
30.72 0 0
30.8 0 0
30.88 0 0
30.96 0 0
31.04 0 0
31.12 0 0
31.2 0 0
31.28 0 0
31.36 0 0
31.44 0 0
31.52 0 0
31.6 0 0
31.68 0 0
31.76 0 0
31.84 0 0
31.92 0 0
0 0.005 0
0.08 0.005 0
0.16 0.005 0
0.24 0.005 0
0.32 0.005 0
0.4 0.005 0
0.48 0.005 0
0.56 0.005 0
0.64 0.005 0
0.72 0.005 0
0.8 0.005 0
0.88 0.005 0
0.96 0.005 0
1.04 0.005 0
1.12 0.005 0
1.2 0.005 0
1.28 0.005 0
1.36 0.005 0
1.44 0.005 0
1.52 0.005 0
1.6 0.005 0
1.68 0.005 0
1.76 0.005 0
1.84 0.005 0
1.92 0.005 0
2 0.005 0
2.08 0.005 0
2.16 0.005 0
2.24 0.005 0
2.32 0.005 0
2.4 0.005 0
2.48 0.005 0
2.56 0.005 0
2.64 0.005 0
2.72 0.005 0
2.8 0.005 0
2.88 0.005 0
2.96 0.005 0
3.04 0.005 0
3.12 0.005 0
3.2 0.005 0
3.28 0.005 0
3.36 0.005 0
3.44 0.005 0
3.52 0.005 0
3.6 0.005 0
3.68 0.005 0
3.76 0.005 0
3.84 0.005 0
3.92 0.005 0
4 0.005 0
4.08 0.005 0
4.16 0.005 0
4.24 0.005 0
4.32 0.005 0
4.4 0.005 0
4.48 0.005 0
4.56 0.005 0
4.64 0.005 0
4.72 0.005 0
4.8 0.005 0
4.88 0.005 0
4.96 0.005 0
5.04 0.005 0
5.12 0.005 0
5.2 0.005 0
5.28 0.005 0
5.36 0.005 0
5.44 0.005 0
5.52 0.005 0
5.6 0.005 0
5.68 0.005 0
5.76 0.005 0
5.84 0.005 0
5.92 0.005 0
6 0.005 0
6.08 0.005 0
6.16 0.005 0
6.24 0.005 0
6.32 0.005 0
6.4 0.005 0
6.48 0.005 0
6.56 0.005 0
6.64 0.005 0
6.72 0.005 0
6.8 0.005 0
6.88 0.005 0
6.96 0.005 0
7.04 0.005 0
7.12 0.005 0
7.2 0.005 0
7.28 0.005 0
7.36 0.005 0
7.44 0.005 0
7.52 0.005 0
7.6 0.005 0
7.68 0.005 0
7.76 0.005 0
7.84 0.005 0
7.92 0.005 0
8 0.005 0
8.08 0.005 0
8.16 0.005 0
8.24 0.005 0
8.32 0.005 0
8.4 0.005 0
8.48 0.005 0
8.56 0.005 0
8.64 0.005 0
8.72 0.005 0
8.8 0.005 0
8.88 0.005 0
8.96 0.005 0
9.04 0.005 0
9.12 0.005 0
9.2 0.005 0
9.28 0.005 0
9.36 0.005 0
9.44 0.005 0
9.52 0.005 0
9.6 0.005 0
9.68 0.005 0
9.76 0.005 0
9.84 0.005 0
9.92 0.005 0
10 0.005 0
10.08 0.005 0
10.16 0.005 0
10.24 0.005 0
10.32 0.005 0
10.4 0.005 0
10.48 0.005 0
10.56 0.005 0
10.64 0.005 0
10.72 0.005 0
10.8 0.005 0
10.88 0.005 0
10.96 0.005 0
11.04 0.005 0
11.12 0.005 0
11.2 0.005 0
11.28 0.005 0
11.36 0.005 0
11.44 0.005 0
11.52 0.005 0
11.6 0.005 0
11.68 0.005 0
11.76 0.005 0
11.84 0.005 0
11.92 0.005 0
12 0.005 0
12.08 0.005 0
12.16 0.005 0
12.24 0.005 0
12.32 0.005 0
12.4 0.005 0
12.48 0.005 0
12.56 0.005 0
12.64 0.005 0
12.72 0.005 0
12.8 0.005 0
12.88 0.005 0
12.96 0.005 0
13.04 0.005 0
13.12 0.005 0
13.2 0.005 0
13.28 0.005 0
13.36 0.005 0
13.44 0.005 0
13.52 0.005 0
13.6 0.005 0
13.68 0.005 0
13.76 0.005 0
13.84 0.005 0
13.92 0.005 0
14 0.005 0
14.08 0.005 0
14.16 0.005 0
14.24 0.005 0
14.32 0.005 0
14.4 0.005 0
14.48 0.005 0
14.56 0.005 0
14.64 0.005 0
14.72 0.005 0
14.8 0.005 0
14.88 0.005 0
14.96 0.005 0
15.04 0.005 0
15.12 0.005 0
15.2 0.005 0
15.28 0.005 0
15.36 0.005 0
15.44 0.005 0
15.52 0.005 0
15.6 0.005 0
15.68 0.005 0
15.76 0.005 0
15.84 0.005 0
15.92 0.005 0
16 0.005 0
16.08 0.005 0
16.16 0.005 0
16.24 0.005 0
16.32 0.005 0
16.4 0.005 0
16.48 0.005 0
16.56 0.005 0
16.64 0.005 0
16.72 0.005 0
16.8 0.005 0
16.88 0.005 0
16.96 0.005 0
17.04 0.005 0
17.12 0.005 0
17.2 0.005 0
17.28 0.005 0
17.36 0.005 0
17.44 0.005 0
17.52 0.005 0
17.6 0.005 0
17.68 0.005 0
17.76 0.005 0
17.84 0.005 0
17.92 0.005 0
18 0.005 0
18.08 0.005 0
18.16 0.005 0
18.24 0.005 0
18.32 0.005 0
18.4 0.005 0
18.48 0.005 0
18.56 0.005 0
18.64 0.005 0
18.72 0.005 0
18.8 0.005 0
18.88 0.005 0
18.96 0.005 0
19.04 0.005 0
19.12 0.005 0
19.2 0.005 0
19.28 0.005 0
19.36 0.005 0
19.44 0.005 0
19.52 0.005 0
19.6 0.005 0
19.68 0.005 0
19.76 0.005 0
19.84 0.005 0
19.92 0.005 0
20 0.005 0
20.08 0.005 0
20.16 0.005 0
20.24 0.005 0
20.32 0.005 0
20.4 0.005 0
20.48 0.005 0
20.56 0.005 0
20.64 0.005 0
20.72 0.005 0
20.8 0.005 0
20.88 0.005 0
20.96 0.005 0
21.04 0.005 0
21.12 0.005 0
21.2 0.005 0
21.28 0.005 0
21.36 0.005 0
21.44 0.005 0
21.52 0.005 0
21.6 0.005 0
21.68 0.005 0
21.76 0.005 0
21.84 0.005 0
21.92 0.005 0
22 0.005 0
22.08 0.005 0
22.16 0.005 0
22.24 0.005 0
22.32 0.005 0
22.4 0.005 0
22.48 0.005 0
22.56 0.005 0
22.64 0.005 0
22.72 0.005 0
22.8 0.005 0
22.88 0.005 0
22.96 0.005 0
23.04 0.005 0
23.12 0.005 0
23.2 0.005 0
23.28 0.005 0
23.36 0.005 0
23.44 0.005 0
23.52 0.005 0
23.6 0.005 0
23.68 0.005 0
23.76 0.005 0
23.84 0.005 0
23.92 0.005 0
24 0.005 0
24.08 0.005 0
24.16 0.005 0
24.24 0.005 0
24.32 0.005 0
24.4 0.005 0
24.48 0.005 0
24.56 0.005 0
24.64 0.005 0
24.72 0.005 0
24.8 0.005 0
24.88 0.005 0
24.96 0.005 0
25.04 0.005 0
25.12 0.005 0
25.2 0.005 0
25.28 0.005 0
25.36 0.005 0
25.44 0.005 0
25.52 0.005 0
25.6 0.005 0
25.68 0.005 0
25.76 0.005 0
25.84 0.005 0
25.92 0.005 0
26 0.005 0
26.08 0.005 0
26.16 0.005 0
26.24 0.005 0
26.32 0.005 0
26.4 0.005 0
26.48 0.005 0
26.56 0.005 0
26.64 0.005 0
26.72 0.005 0
26.8 0.005 0
26.88 0.005 0
26.96 0.005 0
27.04 0.005 0
27.12 0.005 0
27.2 0.005 0
27.28 0.005 0
27.36 0.005 0
27.44 0.005 0
27.52 0.005 0
27.6 0.005 0
27.68 0.005 0
27.76 0.005 0
27.84 0.005 0
27.92 0.005 0
28 0.005 0
28.08 0.005 0
28.16 0.005 0
28.24 0.005 0
28.32 0.005 0
28.4 0.005 0
28.48 0.005 0
28.56 0.005 0
28.64 0.005 0
28.72 0.005 0
28.8 0.005 0
28.88 0.005 0
28.96 0.005 0
29.04 0.005 0
29.12 0.005 0
29.2 0.005 0
29.28 0.005 0
29.36 0.005 0
29.44 0.005 0
29.52 0.005 0
29.6 0.005 0
29.68 0.005 0
29.76 0.005 0
29.84 0.005 0
29.92 0.005 0
30 0.005 0
30.08 0.005 0
30.16 0.005 0
30.24 0.005 0
30.32 0.005 0
30.4 0.005 0
30.48 0.005 0
30.56 0.005 0
30.64 0.005 0
30.72 0.005 0
30.8 0.005 0
30.88 0.005 0
30.96 0.005 0
31.04 0.005 0
31.12 0.005 0
31.2 0.005 0
31.28 0.005 0
31.36 0.005 0
31.44 0.005 0
31.52 0.005 0
31.6 0.005 0
31.68 0.005 0
31.76 0.005 0
31.84 0.005 0
31.92 0.005 0
0 0.01 0
0.08 0.01 0
0.16 0.01 0
0.24 0.01 0
0.32 0.01 0
0.4 0.01 0
0.48 0.01 0
0.56 0.01 0
0.64 0.01 0
0.72 0.01 0
0.8 0.01 0
0.88 0.01 0
0.96 0.01 0
1.04 0.01 0
1.12 0.01 0
1.2 0.01 0
1.28 0.01 0
1.36 0.01 0
1.44 0.01 0
1.52 0.01 0
1.6 0.01 0
1.68 0.01 0
1.76 0.01 0
1.84 0.01 0
1.92 0.01 0
2 0.01 0
2.08 0.01 0
2.16 0.01 0
2.24 0.01 0
2.32 0.01 0
2.4 0.01 0
2.48 0.01 0
2.56 0.01 0
2.64 0.01 0
2.72 0.01 0
2.8 0.01 0
2.88 0.01 0
2.96 0.01 0
3.04 0.01 0
3.12 0.01 0
3.2 0.01 0
3.28 0.01 0
3.36 0.01 0
3.44 0.01 0
3.52 0.01 0
3.6 0.01 0
3.68 0.01 0
3.76 0.01 0
3.84 0.01 0
3.92 0.01 0
4 0.01 0
4.08 0.01 0
4.16 0.01 0
4.24 0.01 0
4.32 0.01 0
4.4 0.01 0
4.48 0.01 0
4.56 0.01 0
4.64 0.01 0
4.72 0.01 0
4.8 0.01 0
4.88 0.01 0
4.96 0.01 0
5.04 0.01 0
5.12 0.01 0
[...]
POINT_DATA 80000

SCALARS p float 1
LOOKUP_TABLE default
1
56.54467196
56.24293695
56.20177717
56.1816872
56.16726827
56.15526732
56.1445239
56.13452577
56.12502018
56.11587388
56.10701315
56.09839523
56.08999372
56.08179096
56.07377392
56.06593205
56.05825615
56.05073776
56.04336898
56.03614226
56.02905041
56.02208662
56.01524439
56.00851761
56.0019005
55.99538764
55.98897394
55.98265464
55.97642529
55.97028173
55.96422006
55.95823664
55.95232808
55.94649119
55.94072297
55.93502064
55.92938156
55.92380328
55.91828346
55.91281992
55.90741061
55.90205357
55.89674698
55.89148909
55.88627825
55.88111292
55.8759916
55.8709129
55.86587547
55.86087805
55.85591943
55.85099845
55.84611401
55.84126506
55.83645058
55.83166962
55.82692126
55.82220462
55.81751883
55.8128631
55.80823664
55.8036387
55.79906855
55.79452551
55.7900089
55.78551807
55.7810524
55.7766113
55.77219417
55.76780047
55.76342964
55.75908116
55.75475452
55.75044923
55.74616481
55.74190081
55.73765676
55.73343224
55.72922682
55.7250401
55.72087166
55.71672112
55.71258811
55.70847226
55.7043732
55.70029059
55.6962241
55.69217338
55.68813811
55.68411799
55.68011269
55.67612193
55.67214541
55.66818285
55.66423395
55.66029846
55.65637611
55.65246663
55.64856977
55.64468528
55.64081291
55.63695244
55.63310361
55.62926622
55.62544003
55.62162482
55.61782038
55.6140265
55.61024298
55.60646961
55.60270619
55.59895254
55.59520846
55.59147377
55.58774829
55.58403183
55.58032423
55.57662531
55.57293491
55.56925286
55.56557899
55.56191316
55.5582552
55.55460496
55.5509623
55.54732707
55.54369912
55.54007831
55.53646451
55.53285758
55.52925739
55.5256638
55.5220767
55.51849594
55.51492142
55.51135301
55.50779059
55.50423405
55.50068327
55.49713814
55.49359855
55.49006439
55.48653557
55.48301196
55.47949348
55.47598002
55.47247149
55.46896779
55.46546882
55.46197449
55.45848472
55.45499941
55.45151848
55.44804184
55.44456941
55.4411011
55.43763684
55.43417655
55.43072014
55.42726754
55.42381868
55.42037349
55.41693188
55.4134938
55.41005917
55.40662793
55.4032
55.39977533
55.39635385
55.39293549
55.3895202
55.38610791
55.38269856
55.37929211
55.37588848
55.37248763
55.36908949
55.36569403
55.36230117
55.35891088
55.3555231
55.35213778
55.34875487
55.34537433
55.3419961
55.33862015
55.33524642
55.33187488
55.32850547
55.32513817
55.32177291
55.31840968
55.31504841
55.31168908
55.30833165
55.30497608
55.30162233
55.29827036
55.29492015
55.29157165
55.28822483
55.28487966
55.2815361
55.27819413
55.27485371
55.27151481
55.2681774
55.26484144
55.26150692
55.2581738
55.25484206
55.25151166
55.24818258
55.2448548
55.24152828
55.23820301
55.23487895
55.23155608
55.22823439
55.22491384
55.22159441
55.21827609
55.21495884
55.21164265
55.20832749
55.20501335
55.2017002
55.19838803
55.19507681
55.19176653
55.18845717
55.1851487
55.18184111
55.17853439
55.17522851
55.17192346
55.16861923
55.16531579
55.16201312
55.15871123
55.15541008
55.15210966
55.14880996
55.14551097
55.14221266
55.13891504
55.13561807
55.13232176
55.12902608
55.12573102
55.12243658
55.11914273
55.11584947
55.11255679
55.10926467
55.1059731
55.10268207
55.09939157
55.09610159
55.09281211
55.08952314
55.08623466
55.08294665
55.07965911
55.07637203
55.0730854
55.06979922
55.06651346
55.06322813
55.05994321
55.0566587
55.05337459
55.05009087
55.04680753
55.04352456
55.04024197
55.03695973
55.03367784
55.0303963
55.0271151
55.02383423
55.02055369
55.01727346
55.01399354
55.01071393
55.00743462
55.00415561
55.00087688
54.99759843
54.99432026
54.99104236
54.98776472
54.98448734
54.98121022
54.97793335
54.97465672
54.97138033
54.96810417
54.96482824
54.96155254
54.95827706
54.9550018
54.95172674
54.9484519
54.94517726
54.94190281
54.93862856
54.9353545
54.93208063
54.92880695
54.92553344
54.92226011
54.91898695
54.91571396
54.91244114
54.90916847
54.90589597
54.90262362
54.89935143
54.89607938
54.89280748
54.88953573
54.88626411
54.88299264
54.87972129
54.87645009
54.873179
54.86990805
54.86663722
54.86336652
54.86009593
54.85682546
54.8535551
54.85028486
54.84701473
54.8437447
54.84047478
54.83720497
54.83393526
54.83066564
54.82739613
54.82412671
54.82085738
54.81758815
54.814319
54.81104995
54.80778098
54.8045121
54.8012433
54.79797459
54.79470595
54.7914374
54.78816892
54.78490052
54.7816322
54.77836395
54.77509577
54.77182766
54.76855963
54.76529166
54.76202376
54.75875593
54.75548816
54.75222046
54.74895282
54.74568524
54.74241773
54.73915028
54.73588288
54.73261555
54.72934827
54.72608105
54.72281389
54.71954678
54.71627973
54.71301273
54.70974578
54.70647888
54.70321204
54.69994524
54.6966785
54.6934118
54.69014515
54.68687855
54.68361199
54.68034548
54.67707901
54.67381259
54.6705462
54.66727986
54.66401355
54.66074728
54.65748104
54.65421483
54.65094863
54.64768245
54.64441625
54.64115003
0.5
56.54467196
56.54467196
56.24293695
56.20177717
56.1816872
56.16726827
56.15526732
56.1445239
56.13452577
56.12502018
56.11587388
56.10701315
56.09839523
56.08999372
56.08179096
56.07377392
56.06593205
56.05825615
56.05073776
56.04336898
56.03614226
56.02905041
56.02208662
56.01524439
56.00851761
56.0019005
55.99538764
55.98897394
55.98265464
55.97642529
55.97028173
55.96422006
55.95823664
55.95232808
55.94649119
55.94072297
55.93502064
55.92938156
55.92380328
55.91828346
55.91281992
55.90741061
55.90205357
55.89674698
55.89148909
55.88627825
55.88111292
55.8759916
55.8709129
55.86587547
55.86087805
55.85591943
55.85099845
55.84611401
55.84126506
55.83645058
55.83166962
55.82692126
55.82220462
55.81751883
55.8128631
55.80823664
55.8036387
55.79906855
55.79452551
55.7900089
55.78551807
55.7810524
55.7766113
55.77219417
55.76780047
55.76342964
55.75908116
55.75475452
55.75044923
55.74616481
55.74190081
55.73765676
55.73343224
55.72922682
55.7250401
55.72087166
55.71672112
55.71258811
55.70847226
55.7043732
55.70029059
55.6962241
55.69217338
55.68813811
55.68411799
55.68011269
55.67612193
55.67214541
55.66818285
55.66423395
55.66029846
55.65637611
55.65246663
55.64856977
55.64468528
55.64081291
55.63695244
55.63310361
55.62926622
55.62544003
55.62162482
55.61782038
55.6140265
55.61024298
55.60646961
55.60270619
55.59895254
55.59520846
55.59147377
55.58774829
55.58403183
55.58032423
55.57662531
55.57293491
55.56925286
55.56557899
55.56191316
55.5582552
55.55460496
55.5509623
55.54732707
55.54369912
55.54007831
55.53646451
55.53285758
55.52925739
55.5256638
55.5220767
55.51849594
55.51492142
55.51135301
55.50779059
55.50423405
55.50068327
55.49713814
55.49359855
55.49006439
55.48653557
55.48301196
55.47949348
55.47598002
55.47247149
55.46896779
55.46546882
55.46197449
55.45848472
55.45499941
55.45151848
55.44804184
55.44456941
55.4411011
55.43763684
55.43417655
55.43072014
55.42726754
55.42381868
55.42037349
55.41693188
55.4134938
55.41005917
55.40662793
55.4032
55.39977533
55.39635385
55.39293549
55.3895202
55.38610791
55.38269856
55.37929211
55.37588848
55.37248763
55.36908949
55.36569403
55.36230117
55.35891088
55.3555231
55.35213778
55.34875487
55.34537433
55.3419961
55.33862015
55.33524642
55.33187488
55.32850547
55.32513817
55.32177291
55.31840968
55.31504841
55.31168908
55.30833165
55.30497608
55.30162233
55.29827036
55.29492015
55.29157165
55.28822483
55.28487966
55.2815361
55.27819413
55.27485371
55.27151481
55.2681774
55.26484144
55.26150692
55.2581738
55.25484206
55.25151166
55.24818258
55.2448548
55.24152828
55.23820301
55.23487895
55.23155608
55.22823439
55.22491384
55.22159441
55.21827609
55.21495884
55.21164265
55.20832749
55.20501335
55.2017002
55.19838803
55.19507681
55.19176653
55.18845717
55.1851487
55.18184111
55.17853439
55.17522851
55.17192346
55.16861923
55.16531579
55.16201312
55.15871123
55.15541008
55.15210966
55.14880996
55.14551097
55.14221266
55.13891504
55.13561807
55.13232176
55.12902608
55.12573102
55.12243658
55.11914273
55.11584947
55.11255679
55.10926467
55.1059731
55.10268207
55.09939157
55.09610159
55.09281211
55.08952314
55.08623466
55.08294665
55.07965911
55.07637203
55.0730854
55.06979922
55.06651346
55.06322813
55.05994321
55.0566587
55.05337459
55.05009087
55.04680753
55.04352456
55.04024197
55.03695973
55.03367784
55.0303963
55.0271151
55.02383423
55.02055369
55.01727346
55.01399354
55.01071393
55.00743462
55.00415561
55.00087688
54.99759843
54.99432026
54.99104236
54.98776472
54.98448734
54.98121022
54.97793335
54.97465672
54.97138033
54.96810417
54.96482824
54.96155254
54.95827706
54.9550018
54.95172674
54.9484519
54.94517726
54.94190281
54.93862856
54.9353545
54.93208063
54.92880695
54.92553344
54.92226011
54.91898695
54.91571396
54.91244114
54.90916847
54.90589597
54.90262362
54.89935143
54.89607938
54.89280748
54.88953573
54.88626411
54.88299264
54.87972129
54.87645009
54.873179
54.86990805
54.86663722
54.86336652
54.86009593
54.85682546
54.8535551
54.85028486
54.84701473
54.8437447
54.84047478
54.83720497
54.83393526
54.83066564
54.82739613
54.82412671
54.82085738
54.81758815
54.814319
54.81104995
54.80778098
54.8045121
54.8012433
54.79797459
54.79470595
54.7914374
54.78816892
54.78490052
54.7816322
54.77836395
54.77509577
54.77182766
54.76855963
54.76529166
54.76202376
54.75875593
54.75548816
54.75222046
54.74895282
54.74568524
54.74241773
54.73915028
54.73588288
54.73261555
54.72934827
54.72608105
54.72281389
54.71954678
54.71627973
54.71301273
54.70974578
54.70647888
54.70321204
54.69994524
54.6966785
54.6934118
54.69014515
54.68687855
54.68361199
54.68034548
54.67707901
54.67381259
54.6705462
54.66727986
54.66401355
54.66074728
54.65748104
54.65421483
54.65094863
54.64768245
54.64441625
54.64115003
54.64115003
56.53009022
56.53009022
56.24677283
56.20303258
56.18232244
56.16766279
56.15553901
56.14472335
56.13467891
56.12514188
56.1159733
56.10709625
56.09846603
56.09005501
56.08184474
56.07382165
56.06597482
56.05829478
56.05077291
56.04340113
56.03617182
56.02907772
56.02211195
56.01526796
56.00853961
56.00192109
55.99540696
55.98899212
55.98267178
55.97644148
55.97029705
55.96423458
55.95825043
55.95234119
55.94650367
55.94073488
55.935032
55.92939243
55.92381367
55.91829342
55.91282947
55.90741977
55.90206238
55.89675544
55.89149723
55.8862861
55.88112048
55.87599889
55.87091993
55.86588227
55.86088462
55.85592578
55.8510046
55.84611996
55.84127082
55.83645616
55.83167504
55.82692651
55.82220971
55.81752378
55.8128679
55.80824131
55.80364323
55.79907296
55.7945298
55.79001307
55.78552213
55.78105635
55.77661515
55.77219792
55.76780412
55.7634332
55.75908463
55.7547579
55.75045253
55.74616803
55.74190395
55.73765983
55.73343523
55.72922974
55.72504295
55.72087444
55.71672384
55.71259077
55.70847485
55.70437574
55.70029307
55.69622652
55.69217575
55.68814043
55.68412025
55.68011491
55.6761241
55.67214753
55.66818492
55.66423598
55.66030045
55.65637805
55.65246853
55.64857163
55.6446871
55.64081469
55.63695418
55.63310532
55.62926789
55.62544166
55.62162642
55.61782195
55.61402804
55.61024448
55.60647108
55.60270763
55.59895395
55.59520984
55.59147513
55.58774961
55.58403313
55.5803255
55.57662656
55.57293613
55.56925405
55.56558016
55.5619143
55.55825632
55.55460606
55.55096338
55.54732812
55.54370015
55.54007932
55.5364655
55.53285855
55.52925834
55.52566473
55.52207761
55.51849684
55.5149223
55.51135387
55.50779144
55.50423488
55.50068408
55.49713893
55.49359933
55.49006515
55.48653631
55.48301269
55.4794942
55.47598072
55.47247218
55.46896846
55.46546948
55.46197514
55.45848535
55.45500003
55.45151909
55.44804244
55.44456999
55.44110167
55.4376374
55.43417709
55.43072067
55.42726807
55.4238192
55.42037399
55.41693238
55.41349429
55.41005965
55.4066284
55.40320046
55.39977578
55.39635428
55.39293592
55.38952062
55.38610832
55.38269897
55.3792925
55.37588887
55.37248801
55.36908987
55.36569439
55.36230153
55.35891123
55.35552344
55.35213812
55.3487552
55.34537465
55.34199642
55.33862046
55.33524673
55.33187518
55.32850577
55.32513845
55.32177319
55.31840995
55.31504868
55.31168935
55.30833191
55.30497633
55.30162258
55.29827061
55.29492039
55.29157188
55.28822506
55.28487988
55.28153632
55.27819435
55.27485392
55.27151501
55.2681776
55.26484164
55.26150712
55.25817399
55.25484224
55.25151184
55.24818276
55.24485497
55.24152845
55.23820317
55.23487911
55.23155625
55.22823455
55.22491399
55.22159457
55.21827624
55.21495899
55.21164279
55.20832763
55.20501349
55.20170034
55.19838816
55.19507694
55.19176666
55.18845729
55.18514882
55.18184123
55.17853451
55.17522863
55.17192358
55.16861934
55.16531589
55.16201323
55.15871133
55.15541018
55.15210976
55.14881006
55.14551106
55.14221276
55.13891513
55.13561816
55.13232185
55.12902616
55.12573111
55.12243666
55.11914281
55.11584955
55.11255687
55.10926474
55.10597317
55.10268214
55.09939164
55.09610166
55.09281218
55.08952321
55.08623472
55.08294671
55.07965917
55.07637209
55.07308546
55.06979928
55.06651352
55.06322819
55.05994327
55.05665876
55.05337464
55.05009092
55.04680758
55.04352461
55.04024202
55.03695978
55.03367789
55.03039635
55.02711515
55.02383428
55.02055373
55.0172735
55.01399359
55.01071398
55.00743466
55.00415565
55.00087692
54.99759847
54.9943203
54.99104239
54.98776476
54.98448738
54.98121025
54.97793338
54.97465675
54.97138036
54.9681042
54.96482828
54.96155257
54.95827709
54.95500183
54.95172677
54.94845193
54.94517728
54.94190284
54.93862859
54.93535453
54.93208066
54.92880697
54.92553346
54.92226013
54.91898697
54.91571398
54.91244116
54.90916849
54.90589599
54.90262364
54.89935145
54.8960794
54.8928075
54.88953575
54.88626413
54.88299266
54.87972131
54.8764501
54.87317902
54.86990807
54.86663724
54.86336653
54.86009595
54.85682547
54.85355512
54.85028488
54.84701474
54.84374472
54.8404748
54.83720498
54.83393527
54.83066566
54.82739614
54.82412672
54.82085739
54.81758816
54.81431902
54.81104996
54.80778099
54.80451211
54.80124332
54.7979746
54.79470597
54.79143741
54.78816893
54.78490053
54.78163221
54.77836396
54.77509578
54.77182767
54.76855964
54.76529167
54.76202377
54.75875594
54.75548817
54.75222047
54.74895283
54.74568525
54.74241774
54.73915028
54.73588289
54.73261556
54.72934828
54.72608106
54.7228139
54.71954679
54.71627973
54.71301273
54.70974578
54.70647889
54.70321204
54.69994525
54.6966785
54.69341181
54.69014516
54.68687855
54.683612
54.68034549
54.67707902
54.67381259
54.67054621
54.66727986
54.66401356
54.66074729
54.65748104
54.65421483
54.65094863
54.64768245
54.64441625
54.64115003
54.64115003
56.51410563
56.51410563
56.24996125
56.20421976
56.18293844
56.16804906
56.15580644
56.14492028
56.13483039
56.12526236
56.11607174
56.1071785
56.09853605
56.09011558
56.08189784
56.07386873
56.06601697
56.05833282
56.05080748
56.04343275
56.03620088
56.02910455
56.02213681
56.01529109
56.00856119
56.00194129
55.99542591
55.98900994
55.98268857
55.97645734
55.97031205
55.9642488
55.95826393
55.95235403
55.94651589
55.94074653
55.93504312
55.92940306
55.92382384
55.91830316
55.91283881
55.90742874
55.90207099
55.89676372
55.8915052
55.88629377
55.88112787
55.87600602
55.87092681
55.86588891
55.86089104
55.85593199
55.8510106
55.84612577
55.84127644
55.83646162
55.83168032
55.82693164
55.82221468
55.81752861
55.81287259
55.80824586
55.80364766
55.79907727
55.79453398
55.79001714
55.78552609
55.78106021
55.7766189
55.77220158
55.76780768
55.76343667
55.75908801
55.7547612
55.75045575
55.74617117
55.74190701
55.73766282
55.73343815
55.72923259
55.72504573
55.72087716
55.7167265
55.71259336
55.70847739
55.70437821
55.70029549
55.69622888
55.69217805
55.68814269
55.68412246
55.68011707
55.67612621
55.6721496
55.66818694
55.66423796
55.66030238
55.65637994
55.65247038
55.64857344
55.64468887
55.64081643
55.63695588
55.63310698
55.62926951
55.62544325
55.62162798
55.61782347
55.61402953
55.61024594
55.60647251
55.60270903
55.59895532
55.59521119
55.59147644
55.5877509
55.58403439
55.58032674
55.57662777
55.57293732
55.56925521
55.5655813
55.56191542
55.55825741
55.55460713
55.55096442
55.54732915
55.54370116
55.54008031
55.53646647
55.5328595
55.52925927
55.52566564
55.5220785
55.51849771
55.51492315
55.51135471
55.50779225
55.50423568
55.50068487
55.4971397
55.49360008
55.49006589
55.48653704
55.4830134
55.47949489
55.4759814
55.47247284
55.46896911
55.46547012
55.46197577
55.45848597
55.45500064
55.45151968
55.44804302
55.44457056
55.44110223
55.43763795
55.43417763
55.4307212
55.42726858
55.4238197
55.42037448
55.41693286
55.41349476
55.41006011
55.40662885
55.4032009
55.39977621
55.39635471
55.39293634
55.38952103
55.38610872
55.38269936
55.37929289
55.37588925
55.37248838
55.36909023
55.36569475
55.36230188
55.35891157
55.35552378
55.35213844
55.34875552
55.34537497
55.34199673
55.33862076
55.33524702
55.33187547
55.32850605
55.32513873
55.32177347
55.31841022
55.31504894
55.3116896
55.30833216
55.30497658
55.30162282
55.29827084
55.29492062
55.29157211
55.28822528
55.2848801
55.28153654
55.27819456
55.27485412
55.27151521
55.26817779
55.26484183
55.2615073
55.25817418
55.25484243
55.25151202
55.24818293
55.24485514
55.24152862
55.23820334
55.23487927
55.2315564
55.2282347
55.22491415
55.22159471
55.21827638
55.21495913
55.21164293
55.20832777
55.20501362
55.20170047
55.19838829
55.19507707
55.19176678
55.18845741
55.18514894
55.18184135
55.17853462
55.17522874
55.17192369
55.16861944
55.165316
55.16201333
55.15871143
55.15541027
55.15210985
55.14881015
55.14551116
55.14221285
55.13891522
55.13561825
55.13232193
55.12902625
55.12573119
55.12243674
55.11914289
55.11584963
55.11255694
55.10926482
55.10597324
55.10268221
55.09939171
55.09610172
55.09281225
55.08952327
55.08623479
55.08294678
55.07965924
55.07637215
55.07308552
55.06979933
55.06651358
55.06322824
55.05994332
55.05665881
55.0533747
55.05009097
55.04680763
55.04352466
55.04024206
55.03695982
55.03367794
55.03039639
55.02711519
55.02383432
55.02055377
55.01727354
55.01399363
55.01071402
55.0074347
55.00415569
55.00087695
54.9975985
54.99432033
54.99104243
54.98776479
54.98448741
54.98121029
54.97793341
54.97465678
54.97138039
54.96810423
54.96482831
54.9615526
54.95827712
54.95500185
54.9517268
54.94845195
54.94517731
54.94190286
54.93862861
54.93535456
54.93208068
54.928807
54.92553349
54.92226016
54.918987
54.915714
54.91244118
54.90916852
54.90589601
54.90262366
54.89935147
54.89607942
54.89280752
54.88953577
54.88626415
54.88299267
54.87972133
54.87645012
54.87317904
54.86990809
54.86663726
54.86336655
54.86009596
54.85682549
54.85355513
54.85028489
54.84701476
54.84374473
54.84047481
54.837205
54.83393528
54.83066567
54.82739615
54.82412673
54.82085741
54.81758817
54.81431903
54.81104997
54.80778101
54.80451212
54.80124333
54.79797461
54.79470598
54.79143742
54.78816894
54.78490054
54.78163222
54.77836397
54.77509579
54.77182768
54.76855964
54.76529168
54.76202378
54.75875594
54.75548818
54.75222047
54.74895284
54.74568526
54.74241775
54.73915029
54.7358829
54.73261556
54.72934829
54.72608107
54.7228139
54.71954679
54.71627974
54.71301274
54.70974579
54.70647889
54.70321205
54.69994525
54.69667851
54.69341181
54.69014516
54.68687856
54.683612
54.68034549
54.67707902
54.6738126
54.67054621
54.66727987
54.66401356
54.66074729
54.65748105
54.65421484
54.65094864
54.64768245
54.64441625
54.64115003
54.64115003
56.49819081
56.49819081
56.25284785
56.2053598
56.18354003
56.16842908
56.15607068
56.14511536
56.13498064
56.1253819
56.1161694
56.10726005
56.09860542
56.09017552
56.08195033
56.07391522
56.06605855
56.05837031
56.05084153
56.04346385
56.03622945
56.02913091
56.02216123
56.01531379
56.00858237
56.0019611
55.99544449
55.9890274
55.98270503
55.97647288
55.97032675
55.96426273
55.95827715
55.95236659
55.94652785
55.94075793
55.93505401
55.92941345
55.92383379
55.91831268
55.91284794
55.9074375
55.9020794
55.89677181
55.89151298
55.88630126
55.88113509
55.87601298
55.87093353
55.8658954
55.86089731
55.85593805
55.85101646
55.84613144
55.84128194
55.83646694
55.83168548
55.82693664
55.82221954
55.81753332
55.81287717
55.80825031
55.80365198
55.79908146
55.79453807
55.79002111
55.78552996
55.78106398
55.77662257
55.77220515
55.76781116
55.76344006
55.75909131
55.75476442
55.75045889
55.74617424
55.74191
55.73766573
55.733441