# vtk DataFile Version 2.0
FlowField
ASCII
DATASET STRUCTURED_GRID
DIMENSIONS 400 1 200
POINTS 80000 float
0 0 0
0.08 0 0
0.16 0 0
0.24 0 0
0.32 0 0
0.4 0 0
0.48 0 0
0.56 0 0
0.64 0 0
0.72 0 0
0.8 0 0
0.88 0 0
0.96 0 0
1.04 0 0
1.12 0 0
1.2 0 0
1.28 0 0
1.36 0 0
1.44 0 0
1.52 0 0
1.6 0 0
1.68 0 0
1.76 0 0
1.84 0 0
1.92 0 0
2 0 0
2.08 0 0
2.16 0 0
2.24 0 0
2.32 0 0
2.4 0 0
2.48 0 0
2.56 0 0
2.64 0 0
2.72 0 0
2.8 0 0
2.88 0 0
2.96 0 0
3.04 0 0
3.12 0 0
3.2 0 0
3.28 0 0
3.36 0 0
3.44 0 0
3.52 0 0
3.6 0 0
3.68 0 0
3.76 0 0
3.84 0 0
3.92 0 0
4 0 0
4.08 0 0
4.16 0 0
4.24 0 0
4.32 0 0
4.4 0 0
4.48 0 0
4.56 0 0
4.64 0 0
4.72 0 0
4.8 0 0
4.88 0 0
4.96 0 0
5.04 0 0
5.12 0 0
5.2 0 0
5.28 0 0
5.36 0 0
5.44 0 0
5.52 0 0
5.6 0 0
5.68 0 0
5.76 0 0
5.84 0 0
5.92 0 0
6 0 0
6.08 0 0
6.16 0 0
6.24 0 0
6.32 0 0
6.4 0 0
6.48 0 0
6.56 0 0
6.64 0 0
6.72 0 0
6.8 0 0
6.88 0 0
6.96 0 0
7.04 0 0
7.12 0 0
7.2 0 0
7.28 0 0
7.36 0 0
7.44 0 0
7.52 0 0
7.6 0 0
7.68 0 0
7.76 0 0
7.84 0 0
7.92 0 0
8 0 0
8.08 0 0
8.16 0 0
8.24 0 0
8.32 0 0
8.4 0 0
8.48 0 0
8.56 0 0
8.64 0 0
8.72 0 0
8.8 0 0
8.88 0 0
8.96 0 0
9.04 0 0
9.12 0 0
9.2 0 0
9.28 0 0
9.36 0 0
9.44 0 0
9.52 0 0
9.6 0 0
9.68 0 0
9.76 0 0
9.84 0 0
9.92 0 0
10 0 0
10.08 0 0
10.16 0 0
10.24 0 0
10.32 0 0
10.4 0 0
10.48 0 0
10.56 0 0
10.64 0 0
10.72 0 0
10.8 0 0
10.88 0 0
10.96 0 0
11.04 0 0
11.12 0 0
11.2 0 0
11.28 0 0
11.36 0 0
11.44 0 0
11.52 0 0
11.6 0 0
11.68 0 0
11.76 0 0
11.84 0 0
11.92 0 0
12 0 0
12.08 0 0
12.16 0 0
12.24 0 0
12.32 0 0
12.4 0 0
12.48 0 0
12.56 0 0
12.64 0 0
12.72 0 0
12.8 0 0
12.88 0 0
12.96 0 0
13.04 0 0
13.12 0 0
13.2 0 0
13.28 0 0
13.36 0 0
13.44 0 0
13.52 0 0
13.6 0 0
13.68 0 0
13.76 0 0
13.84 0 0
13.92 0 0
14 0 0
14.08 0 0
14.16 0 0
14.24 0 0
14.32 0 0
14.4 0 0
14.48 0 0
14.56 0 0
14.64 0 0
14.72 0 0
14.8 0 0
14.88 0 0
14.96 0 0
15.04 0 0
15.12 0 0
15.2 0 0
15.28 0 0
15.36 0 0
15.44 0 0
15.52 0 0
15.6 0 0
15.68 0 0
15.76 0 0
15.84 0 0
15.92 0 0
16 0 0
16.08 0 0
16.16 0 0
16.24 0 0
16.32 0 0
16.4 0 0
16.48 0 0
16.56 0 0
16.64 0 0
16.72 0 0
16.8 0 0
16.88 0 0
16.96 0 0
17.04 0 0
17.12 0 0
17.2 0 0
17.28 0 0
17.36 0 0
17.44 0 0
17.52 0 0
17.6 0 0
17.68 0 0
17.76 0 0
17.84 0 0
17.92 0 0
18 0 0
18.08 0 0
18.16 0 0
18.24 0 0
18.32 0 0
18.4 0 0
18.48 0 0
18.56 0 0
18.64 0 0
18.72 0 0
18.8 0 0
18.88 0 0
18.96 0 0
19.04 0 0
19.12 0 0
19.2 0 0
19.28 0 0
19.36 0 0
19.44 0 0
19.52 0 0
19.6 0 0
19.68 0 0
19.76 0 0
19.84 0 0
19.92 0 0
20 0 0
20.08 0 0
20.16 0 0
20.24 0 0
20.32 0 0
20.4 0 0
20.48 0 0
20.56 0 0
20.64 0 0
20.72 0 0
20.8 0 0
20.88 0 0
20.96 0 0
21.04 0 0
21.12 0 0
21.2 0 0
21.28 0 0
21.36 0 0
21.44 0 0
21.52 0 0
21.6 0 0
21.68 0 0
21.76 0 0
21.84 0 0
21.92 0 0
22 0 0
22.08 0 0
22.16 0 0
22.24 0 0
22.32 0 0
22.4 0 0
22.48 0 0
22.56 0 0
22.64 0 0
22.72 0 0
22.8 0 0
22.88 0 0
22.96 0 0
23.04 0 0
23.12 0 0
23.2 0 0
23.28 0 0
23.36 0 0
23.44 0 0
23.52 0 0
23.6 0 0
23.68 0 0
23.76 0 0
23.84 0 0
23.92 0 0
24 0 0
24.08 0 0
24.16 0 0
24.24 0 0
24.32 0 0
24.4 0 0
24.48 0 0
24.56 0 0
24.64 0 0
24.72 0 0
24.8 0 0
24.88 0 0
24.96 0 0
25.04 0 0
25.12 0 0
25.2 0 0
25.28 0 0
25.36 0 0
25.44 0 0
25.52 0 0
25.6 0 0
25.68 0 0
25.76 0 0
25.84 0 0
25.92 0 0
26 0 0
26.08 0 0
26.16 0 0
26.24 0 0
26.32 0 0
26.4 0 0
26.48 0 0
26.56 0 0
26.64 0 0
26.72 0 0
26.8 0 0
26.88 0 0
26.96 0 0
27.04 0 0
27.12 0 0
27.2 0 0
27.28 0 0
27.36 0 0
27.44 0 0
27.52 0 0
27.6 0 0
27.68 0 0
27.76 0 0
27.84 0 0
27.92 0 0
28 0 0
28.08 0 0
28.16 0 0
28.24 0 0
28.32 0 0
28.4 0 0
28.48 0 0
28.56 0 0
28.64 0 0
28.72 0 0
28.8 0 0
28.88 0 0
28.96 0 0
29.04 0 0
29.12 0 0
29.2 0 0
29.28 0 0
29.36 0 0
29.44 0 0
29.52 0 0
29.6 0 0
29.68 0 0
29.76 0 0
29.84 0 0
29.92 0 0
30 0 0
30.08 0 0
30.16 0 0
30.24 0 0
30.32 0 0
30.4 0 0
30.48 0 0
30.56 0 0
30.64 0 0
30.72 0 0
30.8 0 0
30.88 0 0
30.96 0 0
31.04 0 0
31.12 0 0
31.2 0 0
31.28 0 0
31.36 0 0
31.44 0 0
31.52 0 0
31.6 0 0
31.68 0 0
31.76 0 0
31.84 0 0
31.92 0 0
0 0.005 0
0.08 0.005 0
0.16 0.005 0
0.24 0.005 0
0.32 0.005 0
0.4 0.005 0
0.48 0.005 0
0.56 0.005 0
0.64 0.005 0
0.72 0.005 0
0.8 0.005 0
0.88 0.005 0
0.96 0.005 0
1.04 0.005 0
1.12 0.005 0
1.2 0.005 0
1.28 0.005 0
1.36 0.005 0
1.44 0.005 0
1.52 0.005 0
1.6 0.005 0
1.68 0.005 0
1.76 0.005 0
1.84 0.005 0
1.92 0.005 0
2 0.005 0
2.08 0.005 0
2.16 0.005 0
2.24 0.005 0
2.32 0.005 0
2.4 0.005 0
2.48 0.005 0
2.56 0.005 0
2.64 0.005 0
2.72 0.005 0
2.8 0.005 0
2.88 0.005 0
2.96 0.005 0
3.04 0.005 0
3.12 0.005 0
3.2 0.005 0
3.28 0.005 0
3.36 0.005 0
3.44 0.005 0
3.52 0.005 0
3.6 0.005 0
3.68 0.005 0
3.76 0.005 0
3.84 0.005 0
3.92 0.005 0
4 0.005 0
4.08 0.005 0
4.16 0.005 0
4.24 0.005 0
4.32 0.005 0
4.4 0.005 0
4.48 0.005 0
4.56 0.005 0
4.64 0.005 0
4.72 0.005 0
4.8 0.005 0
4.88 0.005 0
4.96 0.005 0
5.04 0.005 0
5.12 0.005 0
5.2 0.005 0
5.28 0.005 0
5.36 0.005 0
5.44 0.005 0
5.52 0.005 0
5.6 0.005 0
5.68 0.005 0
5.76 0.005 0
5.84 0.005 0
5.92 0.005 0
6 0.005 0
6.08 0.005 0
6.16 0.005 0
6.24 0.005 0
6.32 0.005 0
6.4 0.005 0
6.48 0.005 0
6.56 0.005 0
6.64 0.005 0
6.72 0.005 0
6.8 0.005 0
6.88 0.005 0
6.96 0.005 0
7.04 0.005 0
7.12 0.005 0
7.2 0.005 0
7.28 0.005 0
7.36 0.005 0
7.44 0.005 0
7.52 0.005 0
7.6 0.005 0
7.68 0.005 0
7.76 0.005 0
7.84 0.005 0
7.92 0.005 0
8 0.005 0
8.08 0.005 0
8.16 0.005 0
8.24 0.005 0
8.32 0.005 0
8.4 0.005 0
8.48 0.005 0
8.56 0.005 0
8.64 0.005 0
8.72 0.005 0
8.8 0.005 0
8.88 0.005 0
8.96 0.005 0
9.04 0.005 0
9.12 0.005 0
9.2 0.005 0
9.28 0.005 0
9.36 0.005 0
9.44 0.005 0
9.52 0.005 0
9.6 0.005 0
9.68 0.005 0
9.76 0.005 0
9.84 0.005 0
9.92 0.005 0
10 0.005 0
10.08 0.005 0
10.16 0.005 0
10.24 0.005 0
10.32 0.005 0
10.4 0.005 0
10.48 0.005 0
10.56 0.005 0
10.64 0.005 0
10.72 0.005 0
10.8 0.005 0
10.88 0.005 0
10.96 0.005 0
11.04 0.005 0
11.12 0.005 0
11.2 0.005 0
11.28 0.005 0
11.36 0.005 0
11.44 0.005 0
11.52 0.005 0
11.6 0.005 0
11.68 0.005 0
11.76 0.005 0
11.84 0.005 0
11.92 0.005 0
12 0.005 0
12.08 0.005 0
12.16 0.005 0
12.24 0.005 0
12.32 0.005 0
12.4 0.005 0
12.48 0.005 0
12.56 0.005 0
12.64 0.005 0
12.72 0.005 0
12.8 0.005 0
12.88 0.005 0
12.96 0.005 0
13.04 0.005 0
13.12 0.005 0
13.2 0.005 0
13.28 0.005 0
13.36 0.005 0
13.44 0.005 0
13.52 0.005 0
13.6 0.005 0
13.68 0.005 0
13.76 0.005 0
13.84 0.005 0
13.92 0.005 0
14 0.005 0
14.08 0.005 0
14.16 0.005 0
14.24 0.005 0
14.32 0.005 0
14.4 0.005 0
14.48 0.005 0
14.56 0.005 0
14.64 0.005 0
14.72 0.005 0
14.8 0.005 0
14.88 0.005 0
14.96 0.005 0
15.04 0.005 0
15.12 0.005 0
15.2 0.005 0
15.28 0.005 0
15.36 0.005 0
15.44 0.005 0
15.52 0.005 0
15.6 0.005 0
15.68 0.005 0
15.76 0.005 0
15.84 0.005 0
15.92 0.005 0
16 0.005 0
16.08 0.005 0
16.16 0.005 0
16.24 0.005 0
16.32 0.005 0
16.4 0.005 0
16.48 0.005 0
16.56 0.005 0
16.64 0.005 0
16.72 0.005 0
16.8 0.005 0
16.88 0.005 0
16.96 0.005 0
17.04 0.005 0
17.12 0.005 0
17.2 0.005 0
17.28 0.005 0
17.36 0.005 0
17.44 0.005 0
17.52 0.005 0
17.6 0.005 0
17.68 0.005 0
17.76 0.005 0
17.84 0.005 0
17.92 0.005 0
18 0.005 0
18.08 0.005 0
18.16 0.005 0
18.24 0.005 0
18.32 0.005 0
18.4 0.005 0
18.48 0.005 0
18.56 0.005 0
18.64 0.005 0
18.72 0.005 0
18.8 0.005 0
18.88 0.005 0
18.96 0.005 0
19.04 0.005 0
19.12 0.005 0
19.2 0.005 0
19.28 0.005 0
19.36 0.005 0
19.44 0.005 0
19.52 0.005 0
19.6 0.005 0
19.68 0.005 0
19.76 0.005 0
19.84 0.005 0
19.92 0.005 0
20 0.005 0
20.08 0.005 0
20.16 0.005 0
20.24 0.005 0
20.32 0.005 0
20.4 0.005 0
20.48 0.005 0
20.56 0.005 0
20.64 0.005 0
20.72 0.005 0
20.8 0.005 0
20.88 0.005 0
20.96 0.005 0
21.04 0.005 0
21.12 0.005 0
21.2 0.005 0
21.28 0.005 0
21.36 0.005 0
21.44 0.005 0
21.52 0.005 0
21.6 0.005 0
21.68 0.005 0
21.76 0.005 0
21.84 0.005 0
21.92 0.005 0
22 0.005 0
22.08 0.005 0
22.16 0.005 0
22.24 0.005 0
22.32 0.005 0
22.4 0.005 0
22.48 0.005 0
22.56 0.005 0
22.64 0.005 0
22.72 0.005 0
22.8 0.005 0
22.88 0.005 0
22.96 0.005 0
23.04 0.005 0
23.12 0.005 0
23.2 0.005 0
23.28 0.005 0
23.36 0.005 0
23.44 0.005 0
23.52 0.005 0
23.6 0.005 0
23.68 0.005 0
23.76 0.005 0
23.84 0.005 0
23.92 0.005 0
24 0.005 0
24.08 0.005 0
24.16 0.005 0
24.24 0.005 0
24.32 0.005 0
24.4 0.005 0
24.48 0.005 0
24.56 0.005 0
24.64 0.005 0
24.72 0.005 0
24.8 0.005 0
24.88 0.005 0
24.96 0.005 0
25.04 0.005 0
25.12 0.005 0
25.2 0.005 0
25.28 0.005 0
25.36 0.005 0
25.44 0.005 0
25.52 0.005 0
25.6 0.005 0
25.68 0.005 0
25.76 0.005 0
25.84 0.005 0
25.92 0.005 0
26 0.005 0
26.08 0.005 0
26.16 0.005 0
26.24 0.005 0
26.32 0.005 0
26.4 0.005 0
26.48 0.005 0
26.56 0.005 0
26.64 0.005 0
26.72 0.005 0
26.8 0.005 0
26.88 0.005 0
26.96 0.005 0
27.04 0.005 0
27.12 0.005 0
27.2 0.005 0
27.28 0.005 0
27.36 0.005 0
27.44 0.005 0
27.52 0.005 0
27.6 0.005 0
27.68 0.005 0
27.76 0.005 0
27.84 0.005 0
27.92 0.005 0
28 0.005 0
28.08 0.005 0
28.16 0.005 0
28.24 0.005 0
28.32 0.005 0
28.4 0.005 0
28.48 0.005 0
28.56 0.005 0
28.64 0.005 0
28.72 0.005 0
28.8 0.005 0
28.88 0.005 0
28.96 0.005 0
29.04 0.005 0
29.12 0.005 0
29.2 0.005 0
29.28 0.005 0
29.36 0.005 0
29.44 0.005 0
29.52 0.005 0
29.6 0.005 0
29.68 0.005 0
29.76 0.005 0
29.84 0.005 0
29.92 0.005 0
30 0.005 0
30.08 0.005 0
30.16 0.005 0
30.24 0.005 0
30.32 0.005 0
30.4 0.005 0
30.48 0.005 0
30.56 0.005 0
30.64 0.005 0
30.72 0.005 0
30.8 0.005 0
30.88 0.005 0
30.96 0.005 0
31.04 0.005 0
31.12 0.005 0
31.2 0.005 0
31.28 0.005 0
31.36 0.005 0
31.44 0.005 0
31.52 0.005 0
31.6 0.005 0
31.68 0.005 0
31.76 0.005 0
31.84 0.005 0
31.92 0.005 0
0 0.01 0
0.08 0.01 0
0.16 0.01 0
0.24 0.01 0
0.32 0.01 0
0.4 0.01 0
0.48 0.01 0
0.56 0.01 0
0.64 0.01 0
0.72 0.01 0
0.8 0.01 0
0.88 0.01 0
0.96 0.01 0
1.04 0.01 0
1.12 0.01 0
1.2 0.01 0
1.28 0.01 0
1.36 0.01 0
1.44 0.01 0
1.52 0.01 0
1.6 0.01 0
1.68 0.01 0
1.76 0.01 0
1.84 0.01 0
1.92 0.01 0
2 0.01 0
2.08 0.01 0
2.16 0.01 0
2.24 0.01 0
2.32 0.01 0
2.4 0.01 0
2.48 0.01 0
2.56 0.01 0
2.64 0.01 0
2.72 0.01 0
2.8 0.01 0
2.88 0.01 0
2.96 0.01 0
3.04 0.01 0
3.12 0.01 0
3.2 0.01 0
3.28 0.01 0
3.36 0.01 0
3.44 0.01 0
3.52 0.01 0
3.6 0.01 0
3.68 0.01 0
3.76 0.01 0
3.84 0.01 0
3.92 0.01 0
4 0.01 0
4.08 0.01 0
4.16 0.01 0
4.24 0.01 0
4.32 0.01 0
4.4 0.01 0
4.48 0.01 0
4.56 0.01 0
4.64 0.01 0
4.72 0.01 0
4.8 0.01 0
4.88 0.01 0
4.96 0.01 0
5.04 0.01 0
5.12 0.01 0
[...]
POINT_DATA 80000

SCALARS v float 1
LOOKUP_TABLE default
0
0
0
0
0
0
0
0
0
0
0
0
0
0
0
0
0
0
0
0
0
0
0
0
0
0
0
0
0
0
0
0
0
0
0
0
0
0
0
0
0
0
0
0
0
0
0
0
0
0
0
0
0
0
0
0
0
0
0
0
0
0
0
0
0
0
0
0
0
0
0
0
0
0
0
0
0
0
0
0
0
0
0
0
0
0
0
0
0
0
0
0
0
0
0
0
0
0
0
0
0
0
0
0
0
0
0
0
0
0
0
0
0
0
0
0
0
0
0
0
0
0
0
0
0
0
0
0
0
0
0
0
0
0
0
0
0
0
0
0
0
0
0
0
0
0
0
0
0
0
0
0
0
0
0
0
0
0
0
0
0
0
0
0
0
0
0
0
0
0
0
0
0
0
0
0
0
0
0
0
0
0
0
0
0
0
0
0
0
0
0
0
0
0
0
0
0
0
0
0
0
0
0
0
0
0
0
0
0
0
0
0
0
0
0
0
0
0
0
0
0
0
0
0
0
0
0
0
0
0
0
0
0
0
0
0
0
0
0
0
0
0
0
0
0
0
0
0
0
0
0
0
0
0
0
0
0
0
0
0
0
0
0
0
0
0
0
0
0
0
0
0
0
0
0
0
0
0
0
0
0
0
0
0
0
0
0
0
0
0
0
0
0
0
0
0
0
0
0
0
0
0
0
0
0
0
0
0
0
0
0
0
0
0
0
0
0
0
0
0
0
0
0
0
0
0
0
0
0
0
0
0
0
0
0
0
0
0
0
0
0
0
0
0
0
0
0
0
0
0
0
0
0
0
0
0
0
0
0
0
0
0
0
0
0
0
0
0
0
0
0
0
0
0
0
0
0
0
0
0
0
0
0
0
0
0
0
0
0
0
0
0
0
0
0
0
0
0
0
0
-0.05427108995
0.05427108995
0.003962094993
0.0009983297179
0.000492260238
0.0003026962609
0.0002073200941
0.0001516916624
0.0001162502319
9.229383715e-05
7.538067759e-05
6.302005316e-05
5.371959824e-05
4.654114015e-05
4.087328858e-05
3.630620383e-05
3.255865313e-05
2.943366054e-05
2.679064254e-05
2.452745138e-05
2.256856749e-05
2.08572044e-05
1.934995304e-05
1.801309975e-05
1.682006316e-05
1.574958721e-05
1.478445101e-05
1.391053582e-05
1.311614122e-05
1.239147709e-05
1.172828111e-05
1.111952686e-05
1.055919821e-05
1.004211254e-05
9.563780911e-06
9.1202959e-06
8.708241022e-06
8.324616727e-06
7.966779483e-06
7.632391318e-06
7.319377645e-06
7.02589194e-06
6.750285815e-06
6.491083728e-06
6.246961407e-06
6.016727336e-06
5.799306932e-06
5.593728892e-06
5.399113298e-06
5.214661432e-06
5.039646821e-06
4.873407483e-06
4.71533902e-06
4.564888779e-06
4.421550466e-06
4.284859582e-06
4.154389293e-06
4.029746821e-06
3.910570204e-06
3.79652541e-06
3.687303849e-06
3.58261999e-06
3.482209405e-06
3.385826863e-06
3.293244734e-06
3.204251477e-06
3.118650319e-06
3.036257996e-06
2.956903748e-06
2.880428246e-06
2.806682728e-06
2.735528178e-06
2.666834577e-06
2.600480222e-06
2.536351094e-06
2.47434032e-06
2.414347636e-06
2.356278902e-06
2.300045668e-06
2.24556479e-06
2.192758052e-06
2.141551812e-06
2.091876665e-06
2.043667269e-06
1.996861928e-06
1.951402422e-06
1.907233789e-06
1.864304053e-06
1.822564119e-06
1.781967498e-06
1.742470174e-06
1.704030474e-06
1.666608885e-06
1.63016794e-06
1.59467208e-06
1.560087517e-06
1.526382179e-06
1.493525565e-06
1.461488626e-06
1.430243779e-06
1.399764679e-06
1.370026273e-06
1.341004648e-06
1.312676959e-06
1.285021448e-06
1.258017294e-06
1.23164461e-06
1.205884364e-06
1.18071831e-06
1.156129064e-06
1.132099864e-06
1.108614708e-06
1.085658213e-06
1.06321562e-06
1.041272752e-06
1.019815996e-06
9.988322419e-07
9.783088771e-07
9.582337788e-07
9.3859524e-07
9.193820279e-07
9.005832429e-07
8.821884241e-07
8.641874442e-07
8.465705302e-07
8.293282353e-07
8.124514345e-07
7.959312993e-07
7.797592773e-07
7.639270999e-07
7.484267427e-07
7.332504298e-07
7.183906567e-07
7.038400916e-07
6.895916662e-07
6.756384912e-07
6.619738812e-07
6.485913582e-07
6.354845987e-07
6.226474782e-07
6.100740337e-07
5.97758458e-07
5.856951118e-07
5.738785012e-07
5.623032579e-07
5.509641735e-07
5.398561567e-07
5.289742801e-07
5.183137074e-07
5.07869728e-07
4.976377596e-07
4.876133151e-07
4.777920163e-07
4.681696077e-07
4.587419314e-07
4.495049164e-07
4.404545667e-07
4.315870403e-07
4.228985404e-07
4.143853469e-07
4.060438541e-07
3.9787052e-07
3.898618957e-07
3.820145853e-07
3.743252898e-07
3.667907924e-07
3.594079071e-07
3.521735534e-07
3.45084717e-07
3.381384141e-07
3.313317574e-07
3.246619188e-07
3.18126117e-07
3.11721648e-07
3.054458348e-07
2.992960989e-07
2.932698755e-07
2.873646946e-07
2.815780847e-07
2.759076709e-07
2.703511261e-07
2.649061383e-07
2.5957047e-07
2.543419328e-07
2.492183657e-07
2.441976607e-07
2.392777603e-07
2.344566184e-07
2.29732291e-07
2.251028133e-07
2.205662866e-07
2.161208635e-07
2.117646978e-07
2.074960232e-07
2.033130679e-07
1.992141351e-07
1.951975305e-07
1.912616174e-07
1.87404781e-07
1.836254274e-07
1.799220256e-07
1.762930535e-07
1.727370079e-07
1.692524322e-07
1.658379166e-07
1.62492052e-07
1.592134564e-07
1.560008004e-07
1.528527475e-07
1.497680201e-07
1.467453349e-07
1.437834691e-07
1.408812037e-07
1.380373323e-07
1.352506983e-07
1.325201424e-07
1.298445495e-07
1.272228233e-07
1.246538712e-07
1.221366307e-07
1.196700909e-07
1.172532166e-07
1.148850037e-07
1.125644833e-07
1.10290697e-07
1.0806271e-07
1.058796019e-07
1.03740446e-07
1.016443947e-07
9.959056193e-08
9.75781058e-08
9.560618795e-08
9.367400795e-08
9.17807642e-08
8.992566603e-08
8.810795976e-08
8.632689953e-08
8.458176217e-08
8.287181334e-08
8.119636206e-08
7.955474095e-08
7.794624173e-08
7.637025083e-08
7.482610178e-08
7.331318946e-08
7.183087623e-08
7.037857903e-08
6.895568399e-08
6.756162003e-08
6.619582776e-08
6.485773256e-08
6.3546784e-08
6.22624238e-08
6.100411961e-08
5.977134702e-08
5.856354604e-08
5.738018511e-08
5.622075979e-08
5.508472288e-08
5.3971535e-08
5.288068201e-08
5.181163403e-08
5.076384064e-08
4.973677328e-08
4.872988095e-08
4.774262656e-08
4.677446243e-08
4.582483211e-08
4.489318702e-08
4.397896028e-08
4.30816017e-08
4.22005483e-08
4.133523906e-08
4.048511768e-08
3.964961717e-08
3.882819504e-08
3.802028161e-08
3.722536962e-08
3.644289597e-08
3.567235434e-08
3.491322747e-08
3.416501189e-08
3.342722883e-08
3.269941388e-08
3.198111993e-08
3.127192561e-08
3.05714078e-08
2.987920305e-08
2.919495688e-08
2.851833016e-08
2.784901149e-08
2.718672528e-08
2.653123121e-08
2.588228787e-08
2.523970956e-08
2.460332047e-08
2.397300332e-08
2.334863795e-08
2.273013053e-08
2.21174529e-08
2.151054135e-08
2.090943454e-08
2.031413839e-08
1.972472054e-08
1.914122982e-08
1.856380359e-08
1.799253761e-08
1.742758956e-08
1.686910396e-08
1.631727558e-08
1.577230181e-08
1.523438393e-08
1.470375909e-08
1.418065483e-08
1.366529581e-08
1.315793829e-08
1.265882634e-08
1.216821018e-08
1.168634371e-08
1.12134789e-08
1.074984254e-08
1.029566648e-08
9.851157912e-09
9.416548109e-09
8.992021197e-09
8.577761481e-09
8.173947284e-09
7.780705059e-09
7.398204881e-09
7.026534943e-09
6.665813717e-09
6.316092903e-09
5.9774562e-09
5.649910346e-09
5.333511948e-09
5.028231982e-09
4.734097305e-09
4.451016501e-09
4.178979344e-09
3.917846345e-09
3.667595867e-09
3.428017547e-09
3.199089173e-09
2.980536121e-09
2.772329571e-09
2.574125161e-09
2.385927714e-09
2.207256787e-09
2.038188959e-09
1.878144715e-09
1.727230937e-09
1.584747105e-09
1.450930045e-09
1.324929204e-09
1.207100104e-09
1.096429817e-09
9.934101889e-10
8.968482839e-10
8.074557099e-10
7.237434218e-10
6.467546105e-10
5.746844845e-10
5.089214436e-10
4.472665619e-10
3.916093466e-10
3.391898451e-10
2.925211207e-10
2.481956928e-10
2.094724592e-10
1.721273124e-10
1.403679368e-10
1.08985229e-10
8.330129644e-11
5.690939327e-11
3.653661095e-11
1.427526162e-11
-1.538433166e-12
-2.047515564e-11
-3.238678455e-11
-4.866057075e-11
-5.731984241e-11
-7.142733055e-11
-7.753706461e-11
-8.968968612e-11
-9.414617194e-11
-1.040906507e-10
-1.083659754e-10
-1.149239605e-10
-1.217829294e-10
-1.219291366e-10
-1.371181337e-10
-1.235185448e-10
-1.599412084e-10
-1.137768483e-10
-2.028379523e-10
-6.368198837e-11
-2.91390708e-10
3.262298869e-10
-1.716888945e-10
-1.716888945e-10
-0.09521586187
0.09521586187
0.01297562022
0.003854618229
0.001934307897
0.001196199223
0.000821741014
0.000602314422
0.0004620669617
0.0003670409018
0.0002998305904
0.0002506449445
0.0002136016448
0.0001849938426
0.000162400437
0.0001441950862
0.0001292596641
0.0001168097043
0.0001062845132
9.727621206e-05
8.948298272e-05
8.267774207e-05
7.668684918e-05
7.137544022e-05
6.663720108e-05
6.238714635e-05
5.855645682e-05
5.508874185e-05
5.193729773e-05
4.906306998e-05
4.643311873e-05
4.40194475e-05
4.179809799e-05
3.974844159e-05
3.785261868e-05
3.609508968e-05
3.44622723e-05
3.294224567e-05
3.15245069e-05
3.019976942e-05
2.895979492e-05
2.779725211e-05
2.670559773e-05
2.56789756e-05
2.471213064e-05
2.380033534e-05
2.293932668e-05
2.21252517e-05
2.135462053e-05
2.062426554e-05
1.993130595e-05
1.927311679e-05
1.864730189e-05
1.805167014e-05
1.748421451e-05
1.694309375e-05
1.6426616e-05
1.593322449e-05
1.546148465e-05
1.501007276e-05
1.457776581e-05
1.416343243e-05
1.376602472e-05
1.338457109e-05
1.301816957e-05
1.266598203e-05
1.232722883e-05
1.200118404e-05
1.168717104e-05
1.13845587e-05
1.109275769e-05
1.081121731e-05
1.053942252e-05
1.027689121e-05
1.002317178e-05
9.777840892e-06
9.54050136e-06
9.310780313e-06
9.088327448e-06
8.872813404e-06
8.663928379e-06
8.461380668e-06
8.264895512e-06
8.074213928e-06
7.889091606e-06
7.709298005e-06
7.534615342e-06
7.364837877e-06
7.199771007e-06
7.039230677e-06
6.883042561e-06
6.731041594e-06
6.583071253e-06
6.438983125e-06
6.29863634e-06
6.161897135e-06
6.028638435e-06
5.89873939e-06
5.772085029e-06
5.648565964e-06
5.528077957e-06
5.410521678e-06
5.295802409e-06
5.183829762e-06
5.074517438e-06
4.967783008e-06
4.863547639e-06
4.761735959e-06
4.662275808e-06
4.565098091e-06
4.47013661e-06
4.377327872e-06
4.286610957e-06
4.197927411e-06
4.111221086e-06
4.02643801e-06
3.94352628e-06
3.862435949e-06
3.783118953e-06
3.705528998e-06
3.629621431e-06
3.555353234e-06
3.482682887e-06
3.411570302e-06
3.341976774e-06
3.273864891e-06
3.207198495e-06
3.141942599e-06
3.078063351e-06
3.015527981e-06
2.954304753e-06
2.894362882e-06
2.835672555e-06
2.778204854e-06
2.721931693e-06
2.666825842e-06
2.612860829e-06
2.560010976e-06
2.508251284e-06
2.457557482e-06
2.407905958e-06
2.359273731e-06
2.311638455e-06
2.264978367e-06
2.219272283e-06
2.174499561e-06
2.130640066e-06
2.087674245e-06
2.045582986e-06
2.004347621e-06
1.963950018e-06
1.924372437e-06
1.885597588e-06
1.847608606e-06
1.810389003e-06
1.773922678e-06
1.738193919e-06
1.703187411e-06
1.668888134e-06
1.635281454e-06
1.602353058e-06
1.570088941e-06
1.538475427e-06
1.507499161e-06
1.477147075e-06
1.447406361e-06
1.418264534e-06
1.389709349e-06
1.361728863e-06
1.334311343e-06
1.307445363e-06
1.281119697e-06
1.255323389e-06
1.230045693e-06
1.205276143e-06
1.181004391e-06
1.157220435e-06
1.133914368e-06
1.111076574e-06
1.088697615e-06
1.066768203e-06
1.04527932e-06
1.02422208e-06
1.003587808e-06
9.833679772e-07
9.635542839e-07
9.441385444e-07
9.251127852e-07
9.06469179e-07
8.882000575e-07
8.702979008e-07
8.527553638e-07
8.355652445e-07
8.187204627e-07
8.022140993e-07
7.860394046e-07
7.701897207e-07
7.546585529e-07
7.394394992e-07
7.24526348e-07
7.09912961e-07
6.955933347e-07
6.815616213e-07
6.678120216e-07
6.543389325e-07
6.411367873e-07
6.282001749e-07
6.155237941e-07
6.031024312e-07
5.909309785e-07
5.790044372e-07
5.673179078e-07
5.558665877e-07
5.446457422e-07
5.33650781e-07
5.22877158e-07
5.123204436e-07
5.019762917e-07
4.918404315e-07
4.819086781e-07
4.721769592e-07
4.626412314e-07
4.532975712e-07
4.441421028e-07
4.351710755e-07
4.263807459e-07
4.177675127e-07
4.093277892e-07
4.010581101e-07
3.929550348e-07
3.850152412e-07
3.772354294e-07
3.696123968e-07
3.62143004e-07
3.548241655e-07
3.476528743e-07
3.406261799e-07
3.3374121e-07
3.26995135e-07
3.203851818e-07
3.139086697e-07
3.075629503e-07
3.01345437e-07
2.952535966e-07
2.892849542e-07
2.834370754e-07
2.777075802e-07
2.72094116e-07
2.665944023e-07
2.612061675e-07
2.559271771e-07
2.50755236e-07
2.456881638e-07
2.407238146e-07
2.35860032e-07
2.310947105e-07
2.264257159e-07
2.218509437e-07
2.173682845e-07
2.129756216e-07
2.086708214e-07
2.044517781e-07
2.00316338e-07
1.96262359e-07
1.922876738e-07
1.883900972e-07
1.845674673e-07
1.808175457e-07
1.77138145e-07
1.735270196e-07
1.699819703e-07
1.665007267e-07
1.630810971e-07
1.597208366e-07
1.564177347e-07
1.531695935e-07
1.499742397e-07
1.468295265e-07
1.437333572e-07
1.406836573e-07
1.37678425e-07
1.347156891e-07
1.317935695e-07
1.289102269e-07
1.260639497e-07
1.23253038e-07
1.204759436e-07
1.177311891e-07
1.150173904e-07
1.123332683e-07
1.096776602e-07
1.070495037e-07
1.044478349e-07
1.018718191e-07
9.93207438e-08
9.679398592e-08
9.429105407e-08
9.181155634e-08
8.935524091e-08
8.692190226e-08
8.451151242e-08
8.212413191e-08
7.975991259e-08
7.741909293e-08
7.510206071e-08
7.280923314e-08
7.054113815e-08
6.829837503e-08
6.608164207e-08
6.389168417e-08
6.172932831e-08
5.95954352e-08
5.749092083e-08
5.541671243e-08
5.337379577e-08
5.136312932e-08
4.93857547e-08
4.744263726e-08
4.553480773e-08
4.366320625e-08
4.182882994e-08
4.003251167e-08
3.827519958e-08
3.655764678e-08
3.488068022e-08
3.324496009e-08
3.165121234e-08
3.009993769e-08
2.859175924e-08
2.712699182e-08
2.57061217e-08
2.43292802e-08
2.299684891e-08
2.170875644e-08
2.046529025e-08
1.926622032e-08
1.811167423e-08
1.700120181e-08
1.593484237e-08
1.491189666e-08
1.393234204e-08
1.299523114e-08
1.210052991e-08
1.124703116e-08
1.043473171e-08
9.662076802e-09
8.929150033e-09
8.234035239e-09
7.576924813e-09
6.955527834e-09
6.370269347e-09
5.818414607e-09
5.30074644e-09
4.814022054e-09
4.359467584e-09
3.933204854e-09
3.537071269e-09
3.166383068e-09
2.823848772e-09
2.503779843e-09
2.210002474e-09
1.935655342e-09
1.685950035e-09
1.452513091e-09
1.24237115e-09
1.045152802e-09
8.7017411e-10
7.046212937e-10
5.606441807e-10
4.224105771e-10
3.05583021e-10
1.906117017e-10
9.745709314e-11
1.998448858e-12
-7.061901835e-11
-1.499832537e-10
-2.049161067e-10
-2.712963641e-10
-3.111865772e-10
-3.671978847e-10
-3.94555158e-10
-4.421749901e-10
-4.596589638e-10
-4.997566561e-10
-5.108045018e-10
-5.425106312e-10
-5.526207412e-10
-5.717247812e-10
-5.911646248e-10
-5.86526411e-10
-6.366226075e-10
-5.812875347e-10
-7.097107831e-10
-5.344983878e-10
-8.566963788e-10
-3.395746184e-10
-1.166262604e-09
1.091099567e-09
-7.228629585e-10
-7.228629585e-10
-0.1252930377
0.1252930377
0.02493586973
0.008358019089
0.004277996227
0.002661518878
0.00183373547
0.001346352361
0.001033884286
0.0008217036388
0.0006713866966
0.0005612497305
0.0004782320503
0.0004140850345
0.0003634104946
0.0003225757644
0.0002890793163
0.0002611636042
0.000237570906
0.000217385386
0.0001999288459
0.0001846907607
0.0001712806429
0.0001593951845
0.000148795309
0.0001392899484
0.0001307244325
0.0001229720762
0.000115928003
0.0001095045534
0.0001036278259
9.82350368e-05
9.327247996e-05
8.869393059e-05
8.44593822e-05
8.053403601e-05
7.688748479e-05
7.349304723e-05
7.032722099e-05
6.736922967e-05
6.460064517e-05
6.200507102e-05
5.956787518e-05
5.727596378e-05
5.511758831e-05
5.308218087e-05
5.116021278e-05
4.934307273e-05
4.762296145e-05
4.599280048e-05
4.444615272e-05
4.297715315e-05
4.158044823e-05
4.025114283e-05
3.898475335e-05
3.777716669e-05
3.662460372e-05
3.552358711e-05
3.44709127e-05
3.346362401e-05
3.249898957e-05
3.157448267e-05
3.068776316e-05
2.983666124e-05
2.901916278e-05
2.823339613e-05
2.747762042e-05
2.675021464e-05
2.604966805e-05
2.537457135e-05
2.472360873e-05
2.409555062e-05
2.348924703e-05
2.29036216e-05
2.233766605e-05
2.179043519e-05
2.126104229e-05
2.074865485e-05
2.025249081e-05
1.977181487e-05
1.930593533e-05
1.885420099e-05
1.841599845e-05
1.799074947e-05
1.757790868e-05
1.717696132e-05
1.678742124e-05
1.640882908e-05
1.604075043e-05
1.568277431e-05
1.533451159e-05
1.499559368e-05
1.46656712e-05
1.434441274e-05
1.403150384e-05
1.372664584e-05
1.342955498e-05
1.313996149e-05
1.28576087e-05
1.258225229e-05
1.231365959e-05
1.20516088e-05
1.179588844e-05
1.154629672e-05
1.130264091e-05
1.106473696e-05
1.083240889e-05
1.060548837e-05
1.038381431e-05
1.016723241e-05
9.955594848e-06
9.748759853e-06
9.546591447e-06
9.34895908e-06
9.155737362e-06
8.966805778e-06
8.78204846e-06
8.601353896e-06
8.42461474e-06
8.251727613e-06
8.082592871e-06
7.917114423e-06
7.755199568e-06
7.596758806e-06
7.441705705e-06
7.289956762e-06
7.141431241e-06
6.996051039e-06
6.853740569e-06
6.714426678e-06
6.578038486e-06
6.444507328e-06
6.31376662e-06
6.185751774e-06
6.060400162e-06
5.937650953e-06
5.817445079e-06
5.699725198e-06
5.584435557e-06
5.471521948e-06
5.36093168e-06
5.25261348e-06
5.146517472e-06
5.042595068e-06
4.940799008e-06
4.841083219e-06
4.743402836e-06
4.647714137e-06
4.553974482e-06
4.462142305e-06
4.37217708e-06
4.284039255e-06
4.197690249e-06
4.113092411e-06
4.030208983e-06
3.949004062e-06
3.869442617e-06
3.791490405e-06
3.715113994e-06
3.640280722e-06
3.566958653e-06
3.495116579e-06
3.424724016e-06
3.35575113e-06
3.288168767e-06
3.221948435e-06
3.157062241e-06
3.093482908e-06
3.031183773e-06
2.97013874e-06
2.910322237e-06
2.851709315e-06
2.794275527e-06
2.737996922e-06
2.682850086e-06
2.628812112e-06
2.575860537e-06
2.523973416e-06
2.473129225e-06
2.423306927e-06
2.374485892e-06
2.326645945e-06
2.279767319e-06
2.233830651e-06
2.188816978e-06
2.144707775e-06
2.101484814e-06
2.059130304e-06
2.017626811e-06
1.976957248e-06
1.937104888e-06
1.89805331e-06
1.859786479e-06
1.822288662e-06
1.785544437e-06
1.749538706e-06
1.714256681e-06
1.679683876e-06
1.645806071e-06
1.612609383e-06
1.58008013e-06
1.548204993e-06
1.516970853e-06
1.486364896e-06
1.45637455e-06
1.426987496e-06
1.398191622e-06
1.369975148e-06
1.342326445e-06
1.315234145e-06
1.288687114e-06
1.262674417e-06
1.237185376e-06
1.212209471e-06
1.187736425e-06
1.16375616e-06
1.140258791e-06
1.117234622e-06
1.094674173e-06
1.072568118e-06
1.050907332e-06
1.029682899e-06
1.008886034e-06
9.885081149e-07
9.6854076e-07
9.489756857e-07
9.298048153e-07
9.110202253e-07
8.926141418e-07
8.745789521e-07
8.569072246e-07
8.395916268e-07
8.226250347e-07
8.060004346e-07
7.897109844e-07
7.737499816e-07
7.581108571e-07
7.427871917e-07
7.277727046e-07
7.13061258e-07
6.986468338e-07
6.84523547e-07
6.706856334e-07
6.571274583e-07
6.438434997e-07
6.308283156e-07
6.180766231e-07
6.055831929e-07
5.933428783e-07
5.813506455e-07
5.696015257e-07
5.580905652e-07
5.468129196e-07
5.357637763e-07
5.249383275e-07
5.143318341e-07
5.039395447e-07
4.937567166e-07
4.837786408e-07
4.740005616e-07
4.644177163e-07
4.550253529e-07
4.458186503e-07
4.367928037e-07
4.279429732e-07
4.192642467e-07
4.107517384e-07
4.024005006e-07
3.942055991e-07
3.861620161e-07
3.782647905e-07
3.70508918e-07
3.628894376e-07
3.554013705e-07
3.480397551e-07
3.407997394e-07
3.336764526e-07
3.266651253e-07
3.197610934e-07
3.129597688e-07
3.062566871e-07
2.996475135e-07
2.931280738e-07
2.866943324e-07
2.803424648e-07
2.740687961e-07
2.678698889e-07
2.617425166e-07
2.556836539e-07
2.496905262e-07
2.437605903e-07
2.378915111e-07
2.32081259e-07
2.263280362e-07
2.206303145e-07
2.149868031e-07
2.093964336e-07
2.038584457e-07
1.983722963e-07
1.929376884e-07
1.875545626e-07
1.822231234e-07
1.769437851e-07
1.717171884e-07
1.665441706e-07
1.614257658e-07
1.563632131e-07
1.513578966e-07
1.464114249e-07
1.415254828e-07
1.367019583e-07
1.319428043e-07
1.272500791e-07
1.226258913e-07
1.180724297e-07
1.135918811e-07
1.091865337e-07
1.048585746e-07
1.006102715e-07
9.644372387e-08
9.236111288e-08
8.836434529e-08
8.445541578e-08
8.063604137e-08
7.690802912e-08
7.327279302e-08
6.97319485e-08
6.628655403e-08
6.293793692e-08
5.968677375e-08
5.653410725e-08
5.348017754e-08
5.05257671e-08
4.767073502e-08
4.491560323e-08
4.225980458e-08
3.970362532e-08
3.724597507e-08
3.488688691e-08
3.262476786e-08
3.04594847e-08
2.838893049e-08
2.641293378e-08
2.452879675e-08
2.2736378e-08
2.103230797e-08
1.94165677e-08
1.788498892e-08
1.643785226e-08
1.507010937e-08
1.378255905e-08
1.256925392e-08
1.143169564e-08
1.036284911e-08
9.365208499e-09
8.430308052e-09
7.562015071e-09
6.750147631e-09
6.000379999e-09
5.300455098e-09
4.65842828e-09
4.05948463e-09
3.514745866e-09
3.006098737e-09
2.548523422e-09
2.119757293e-09
1.73958319e-09
1.380560266e-09
1.06854835e-09
7.696286212e-10
5.172430044e-10
2.694596533e-10
6.89809096e-11
-1.359207549e-10
-2.914426499e-10
-4.610297917e-10
-5.779227978e-10
-7.19009627e-10
-8.03081264e-10
-9.214660589e-10
-9.782273979e-10
-1.078239004e-09
-1.113455072e-09
-1.197149373e-09
-1.218215611e-09
-1.283869572e-09
-1.302515347e-09
-1.341334752e-09
-1.379443102e-09
-1.367931985e-09
-1.470768066e-09
-1.352052246e-09
-1.620599195e-09
-1.248778522e-09
-1.926701183e-09
-8.337441065e-10
-2.568575997e-09
2.15225905e-09
-1.638340028e-09
-1.638340028e-09
-0.1464876053
0.1464876053