# vtk DataFile Version 2.0
FlowField
ASCII
DATASET STRUCTURED_GRID
DIMENSIONS 400 1 200
POINTS 80000 float
0 0 0
0.08 0 0
0.16 0 0
0.24 0 0
0.32 0 0
0.4 0 0
0.48 0 0
0.56 0 0
0.64 0 0
0.72 0 0
0.8 0 0
0.88 0 0
0.96 0 0
1.04 0 0
1.12 0 0
1.2 0 0
1.28 0 0
1.36 0 0
1.44 0 0
1.52 0 0
1.6 0 0
1.68 0 0
1.76 0 0
1.84 0 0
1.92 0 0
2 0 0
2.08 0 0
2.16 0 0
2.24 0 0
2.32 0 0
2.4 0 0
2.48 0 0
2.56 0 0
2.64 0 0
2.72 0 0
2.8 0 0
2.88 0 0
2.96 0 0
3.04 0 0
3.12 0 0
3.2 0 0
3.28 0 0
3.36 0 0
3.44 0 0
3.52 0 0
3.6 0 0
3.68 0 0
3.76 0 0
3.84 0 0
3.92 0 0
4 0 0
4.08 0 0
4.16 0 0
4.24 0 0
4.32 0 0
4.4 0 0
4.48 0 0
4.56 0 0
4.64 0 0
4.72 0 0
4.8 0 0
4.88 0 0
4.96 0 0
5.04 0 0
5.12 0 0
5.2 0 0
5.28 0 0
5.36 0 0
5.44 0 0
5.52 0 0
5.6 0 0
5.68 0 0
5.76 0 0
5.84 0 0
5.92 0 0
6 0 0
6.08 0 0
6.16 0 0
6.24 0 0
6.32 0 0
6.4 0 0
6.48 0 0
6.56 0 0
6.64 0 0
6.72 0 0
6.8 0 0
6.88 0 0
6.96 0 0
7.04 0 0
7.12 0 0
7.2 0 0
7.28 0 0
7.36 0 0
7.44 0 0
7.52 0 0
7.6 0 0
7.68 0 0
7.76 0 0
7.84 0 0
7.92 0 0
8 0 0
8.08 0 0
8.16 0 0
8.24 0 0
8.32 0 0
8.4 0 0
8.48 0 0
8.56 0 0
8.64 0 0
8.72 0 0
8.8 0 0
8.88 0 0
8.96 0 0
9.04 0 0
9.12 0 0
9.2 0 0
9.28 0 0
9.36 0 0
9.44 0 0
9.52 0 0
9.6 0 0
9.68 0 0
9.76 0 0
9.84 0 0
9.92 0 0
10 0 0
10.08 0 0
10.16 0 0
10.24 0 0
10.32 0 0
10.4 0 0
10.48 0 0
10.56 0 0
10.64 0 0
10.72 0 0
10.8 0 0
10.88 0 0
10.96 0 0
11.04 0 0
11.12 0 0
11.2 0 0
11.28 0 0
11.36 0 0
11.44 0 0
11.52 0 0
11.6 0 0
11.68 0 0
11.76 0 0
11.84 0 0
11.92 0 0
12 0 0
12.08 0 0
12.16 0 0
12.24 0 0
12.32 0 0
12.4 0 0
12.48 0 0
12.56 0 0
12.64 0 0
12.72 0 0
12.8 0 0
12.88 0 0
12.96 0 0
13.04 0 0
13.12 0 0
13.2 0 0
13.28 0 0
13.36 0 0
13.44 0 0
13.52 0 0
13.6 0 0
13.68 0 0
13.76 0 0
13.84 0 0
13.92 0 0
14 0 0
14.08 0 0
14.16 0 0
14.24 0 0
14.32 0 0
14.4 0 0
14.48 0 0
14.56 0 0
14.64 0 0
14.72 0 0
14.8 0 0
14.88 0 0
14.96 0 0
15.04 0 0
15.12 0 0
15.2 0 0
15.28 0 0
15.36 0 0
15.44 0 0
15.52 0 0
15.6 0 0
15.68 0 0
15.76 0 0
15.84 0 0
15.92 0 0
16 0 0
16.08 0 0
16.16 0 0
16.24 0 0
16.32 0 0
16.4 0 0
16.48 0 0
16.56 0 0
16.64 0 0
16.72 0 0
16.8 0 0
16.88 0 0
16.96 0 0
17.04 0 0
17.12 0 0
17.2 0 0
17.28 0 0
17.36 0 0
17.44 0 0
17.52 0 0
17.6 0 0
17.68 0 0
17.76 0 0
17.84 0 0
17.92 0 0
18 0 0
18.08 0 0
18.16 0 0
18.24 0 0
18.32 0 0
18.4 0 0
18.48 0 0
18.56 0 0
18.64 0 0
18.72 0 0
18.8 0 0
18.88 0 0
18.96 0 0
19.04 0 0
19.12 0 0
19.2 0 0
19.28 0 0
19.36 0 0
19.44 0 0
19.52 0 0
19.6 0 0
19.68 0 0
19.76 0 0
19.84 0 0
19.92 0 0
20 0 0
20.08 0 0
20.16 0 0
20.24 0 0
20.32 0 0
20.4 0 0
20.48 0 0
20.56 0 0
20.64 0 0
20.72 0 0
20.8 0 0
20.88 0 0
20.96 0 0
21.04 0 0
21.12 0 0
21.2 0 0
21.28 0 0
21.36 0 0
21.44 0 0
21.52 0 0
21.6 0 0
21.68 0 0
21.76 0 0
21.84 0 0
21.92 0 0
22 0 0
22.08 0 0
22.16 0 0
22.24 0 0
22.32 0 0
22.4 0 0
22.48 0 0
22.56 0 0
22.64 0 0
22.72 0 0
22.8 0 0
22.88 0 0
22.96 0 0
23.04 0 0
23.12 0 0
23.2 0 0
23.28 0 0
23.36 0 0
23.44 0 0
23.52 0 0
23.6 0 0
23.68 0 0
23.76 0 0
23.84 0 0
23.92 0 0
24 0 0
24.08 0 0
24.16 0 0
24.24 0 0
24.32 0 0
24.4 0 0
24.48 0 0
24.56 0 0
24.64 0 0
24.72 0 0
24.8 0 0
24.88 0 0
24.96 0 0
25.04 0 0
25.12 0 0
25.2 0 0
25.28 0 0
25.36 0 0
25.44 0 0
25.52 0 0
25.6 0 0
25.68 0 0
25.76 0 0
25.84 0 0
25.92 0 0
26 0 0
26.08 0 0
26.16 0 0
26.24 0 0
26.32 0 0
26.4 0 0
26.48 0 0
26.56 0 0
26.64 0 0
26.72 0 0
26.8 0 0
26.88 0 0
26.96 0 0
27.04 0 0
27.12 0 0
27.2 0 0
27.28 0 0
27.36 0 0
27.44 0 0
27.52 0 0
27.6 0 0
27.68 0 0
27.76 0 0
27.84 0 0
27.92 0 0
28 0 0
28.08 0 0
28.16 0 0
28.24 0 0
28.32 0 0
28.4 0 0
28.48 0 0
28.56 0 0
28.64 0 0
28.72 0 0
28.8 0 0
28.88 0 0
28.96 0 0
29.04 0 0
29.12 0 0
29.2 0 0
29.28 0 0
29.36 0 0
29.44 0 0
29.52 0 0
29.6 0 0
29.68 0 0
29.76 0 0
29.84 0 0
29.92 0 0
30 0 0
30.08 0 0
30.16 0 0
30.24 0 0
30.32 0 0
30.4 0 0
30.48 0 0
30.56 0 0
30.64 0 0
30.72 0 0
30.8 0 0
30.88 0 0
30.96 0 0
31.04 0 0
31.12 0 0
31.2 0 0
31.28 0 0
31.36 0 0
31.44 0 0
31.52 0 0
31.6 0 0
31.68 0 0
31.76 0 0
31.84 0 0
31.92 0 0
0 0.005 0
0.08 0.005 0
0.16 0.005 0
0.24 0.005 0
0.32 0.005 0
0.4 0.005 0
0.48 0.005 0
0.56 0.005 0
0.64 0.005 0
0.72 0.005 0
0.8 0.005 0
0.88 0.005 0
0.96 0.005 0
1.04 0.005 0
1.12 0.005 0
1.2 0.005 0
1.28 0.005 0
1.36 0.005 0
1.44 0.005 0
1.52 0.005 0
1.6 0.005 0
1.68 0.005 0
1.76 0.005 0
1.84 0.005 0
1.92 0.005 0
2 0.005 0
2.08 0.005 0
2.16 0.005 0
2.24 0.005 0
2.32 0.005 0
2.4 0.005 0
2.48 0.005 0
2.56 0.005 0
2.64 0.005 0
2.72 0.005 0
2.8 0.005 0
2.88 0.005 0
2.96 0.005 0
3.04 0.005 0
3.12 0.005 0
3.2 0.005 0
3.28 0.005 0
3.36 0.005 0
3.44 0.005 0
3.52 0.005 0
3.6 0.005 0
3.68 0.005 0
3.76 0.005 0
3.84 0.005 0
3.92 0.005 0
4 0.005 0
4.08 0.005 0
4.16 0.005 0
4.24 0.005 0
4.32 0.005 0
4.4 0.005 0
4.48 0.005 0
4.56 0.005 0
4.64 0.005 0
4.72 0.005 0
4.8 0.005 0
4.88 0.005 0
4.96 0.005 0
5.04 0.005 0
5.12 0.005 0
5.2 0.005 0
5.28 0.005 0
5.36 0.005 0
5.44 0.005 0
5.52 0.005 0
5.6 0.005 0
5.68 0.005 0
5.76 0.005 0
5.84 0.005 0
5.92 0.005 0
6 0.005 0
6.08 0.005 0
6.16 0.005 0
6.24 0.005 0
6.32 0.005 0
6.4 0.005 0
6.48 0.005 0
6.56 0.005 0
6.64 0.005 0
6.72 0.005 0
6.8 0.005 0
6.88 0.005 0
6.96 0.005 0
7.04 0.005 0
7.12 0.005 0
7.2 0.005 0
7.28 0.005 0
7.36 0.005 0
7.44 0.005 0
7.52 0.005 0
7.6 0.005 0
7.68 0.005 0
7.76 0.005 0
7.84 0.005 0
7.92 0.005 0
8 0.005 0
8.08 0.005 0
8.16 0.005 0
8.24 0.005 0
8.32 0.005 0
8.4 0.005 0
8.48 0.005 0
8.56 0.005 0
8.64 0.005 0
8.72 0.005 0
8.8 0.005 0
8.88 0.005 0
8.96 0.005 0
9.04 0.005 0
9.12 0.005 0
9.2 0.005 0
9.28 0.005 0
9.36 0.005 0
9.44 0.005 0
9.52 0.005 0
9.6 0.005 0
9.68 0.005 0
9.76 0.005 0
9.84 0.005 0
9.92 0.005 0
10 0.005 0
10.08 0.005 0
10.16 0.005 0
10.24 0.005 0
10.32 0.005 0
10.4 0.005 0
10.48 0.005 0
10.56 0.005 0
10.64 0.005 0
10.72 0.005 0
10.8 0.005 0
10.88 0.005 0
10.96 0.005 0
11.04 0.005 0
11.12 0.005 0
11.2 0.005 0
11.28 0.005 0
11.36 0.005 0
11.44 0.005 0
11.52 0.005 0
11.6 0.005 0
11.68 0.005 0
11.76 0.005 0
11.84 0.005 0
11.92 0.005 0
12 0.005 0
12.08 0.005 0
12.16 0.005 0
12.24 0.005 0
12.32 0.005 0
12.4 0.005 0
12.48 0.005 0
12.56 0.005 0
12.64 0.005 0
12.72 0.005 0
12.8 0.005 0
12.88 0.005 0
12.96 0.005 0
13.04 0.005 0
13.12 0.005 0
13.2 0.005 0
13.28 0.005 0
13.36 0.005 0
13.44 0.005 0
13.52 0.005 0
13.6 0.005 0
13.68 0.005 0
13.76 0.005 0
13.84 0.005 0
13.92 0.005 0
14 0.005 0
14.08 0.005 0
14.16 0.005 0
14.24 0.005 0
14.32 0.005 0
14.4 0.005 0
14.48 0.005 0
14.56 0.005 0
14.64 0.005 0
14.72 0.005 0
14.8 0.005 0
14.88 0.005 0
14.96 0.005 0
15.04 0.005 0
15.12 0.005 0
15.2 0.005 0
15.28 0.005 0
15.36 0.005 0
15.44 0.005 0
15.52 0.005 0
15.6 0.005 0
15.68 0.005 0
15.76 0.005 0
15.84 0.005 0
15.92 0.005 0
16 0.005 0
16.08 0.005 0
16.16 0.005 0
16.24 0.005 0
16.32 0.005 0
16.4 0.005 0
16.48 0.005 0
16.56 0.005 0
16.64 0.005 0
16.72 0.005 0
16.8 0.005 0
16.88 0.005 0
16.96 0.005 0
17.04 0.005 0
17.12 0.005 0
17.2 0.005 0
17.28 0.005 0
17.36 0.005 0
17.44 0.005 0
17.52 0.005 0
17.6 0.005 0
17.68 0.005 0
17.76 0.005 0
17.84 0.005 0
17.92 0.005 0
18 0.005 0
18.08 0.005 0
18.16 0.005 0
18.24 0.005 0
18.32 0.005 0
18.4 0.005 0
18.48 0.005 0
18.56 0.005 0
18.64 0.005 0
18.72 0.005 0
18.8 0.005 0
18.88 0.005 0
18.96 0.005 0
19.04 0.005 0
19.12 0.005 0
19.2 0.005 0
19.28 0.005 0
19.36 0.005 0
19.44 0.005 0
19.52 0.005 0
19.6 0.005 0
19.68 0.005 0
19.76 0.005 0
19.84 0.005 0
19.92 0.005 0
20 0.005 0
20.08 0.005 0
20.16 0.005 0
20.24 0.005 0
20.32 0.005 0
20.4 0.005 0
20.48 0.005 0
20.56 0.005 0
20.64 0.005 0
20.72 0.005 0
20.8 0.005 0
20.88 0.005 0
20.96 0.005 0
21.04 0.005 0
21.12 0.005 0
21.2 0.005 0
21.28 0.005 0
21.36 0.005 0
21.44 0.005 0
21.52 0.005 0
21.6 0.005 0
21.68 0.005 0
21.76 0.005 0
21.84 0.005 0
21.92 0.005 0
22 0.005 0
22.08 0.005 0
22.16 0.005 0
22.24 0.005 0
22.32 0.005 0
22.4 0.005 0
22.48 0.005 0
22.56 0.005 0
22.64 0.005 0
22.72 0.005 0
22.8 0.005 0
22.88 0.005 0
22.96 0.005 0
23.04 0.005 0
23.12 0.005 0
23.2 0.005 0
23.28 0.005 0
23.36 0.005 0
23.44 0.005 0
23.52 0.005 0
23.6 0.005 0
23.68 0.005 0
23.76 0.005 0
23.84 0.005 0
23.92 0.005 0
24 0.005 0
24.08 0.005 0
24.16 0.005 0
24.24 0.005 0
24.32 0.005 0
24.4 0.005 0
24.48 0.005 0
24.56 0.005 0
24.64 0.005 0
24.72 0.005 0
24.8 0.005 0
24.88 0.005 0
24.96 0.005 0
25.04 0.005 0
25.12 0.005 0
25.2 0.005 0
25.28 0.005 0
25.36 0.005 0
25.44 0.005 0
25.52 0.005 0
25.6 0.005 0
25.68 0.005 0
25.76 0.005 0
25.84 0.005 0
25.92 0.005 0
26 0.005 0
26.08 0.005 0
26.16 0.005 0
26.24 0.005 0
26.32 0.005 0
26.4 0.005 0
26.48 0.005 0
26.56 0.005 0
26.64 0.005 0
26.72 0.005 0
26.8 0.005 0
26.88 0.005 0
26.96 0.005 0
27.04 0.005 0
27.12 0.005 0
27.2 0.005 0
27.28 0.005 0
27.36 0.005 0
27.44 0.005 0
27.52 0.005 0
27.6 0.005 0
27.68 0.005 0
27.76 0.005 0
27.84 0.005 0
27.92 0.005 0
28 0.005 0
28.08 0.005 0
28.16 0.005 0
28.24 0.005 0
28.32 0.005 0
28.4 0.005 0
28.48 0.005 0
28.56 0.005 0
28.64 0.005 0
28.72 0.005 0
28.8 0.005 0
28.88 0.005 0
28.96 0.005 0
29.04 0.005 0
29.12 0.005 0
29.2 0.005 0
29.28 0.005 0
29.36 0.005 0
29.44 0.005 0
29.52 0.005 0
29.6 0.005 0
29.68 0.005 0
29.76 0.005 0
29.84 0.005 0
29.92 0.005 0
30 0.005 0
30.08 0.005 0
30.16 0.005 0
30.24 0.005 0
30.32 0.005 0
30.4 0.005 0
30.48 0.005 0
30.56 0.005 0
30.64 0.005 0
30.72 0.005 0
30.8 0.005 0
30.88 0.005 0
30.96 0.005 0
31.04 0.005 0
31.12 0.005 0
31.2 0.005 0
31.28 0.005 0
31.36 0.005 0
31.44 0.005 0
31.52 0.005 0
31.6 0.005 0
31.68 0.005 0
31.76 0.005 0
31.84 0.005 0
31.92 0.005 0
0 0.01 0
0.08 0.01 0
0.16 0.01 0
0.24 0.01 0
0.32 0.01 0
0.4 0.01 0
0.48 0.01 0
0.56 0.01 0
0.64 0.01 0
0.72 0.01 0
0.8 0.01 0
0.88 0.01 0
0.96 0.01 0
1.04 0.01 0
1.12 0.01 0
1.2 0.01 0
1.28 0.01 0
1.36 0.01 0
1.44 0.01 0
1.52 0.01 0
1.6 0.01 0
1.68 0.01 0
1.76 0.01 0
1.84 0.01 0
1.92 0.01 0
2 0.01 0
2.08 0.01 0
2.16 0.01 0
2.24 0.01 0
2.32 0.01 0
2.4 0.01 0
2.48 0.01 0
2.56 0.01 0
2.64 0.01 0
2.72 0.01 0
2.8 0.01 0
2.88 0.01 0
2.96 0.01 0
3.04 0.01 0
3.12 0.01 0
3.2 0.01 0
3.28 0.01 0
3.36 0.01 0
3.44 0.01 0
3.52 0.01 0
3.6 0.01 0
3.68 0.01 0
3.76 0.01 0
3.84 0.01 0
3.92 0.01 0
4 0.01 0
4.08 0.01 0
4.16 0.01 0
4.24 0.01 0
4.32 0.01 0
4.4 0.01 0
4.48 0.01 0
4.56 0.01 0
4.64 0.01 0
4.72 0.01 0
4.8 0.01 0
4.88 0.01 0
4.96 0.01 0
5.04 0.01 0
5.12 0.01 0
[...]
POINT_DATA 80000

SCALARS u float 1
LOOKUP_TABLE default
0
-0.1316625623
-0.06826904306
-0.05229576789
-0.04441960425
-0.03957646418
-0.03625934271
-0.0338322761
-0.03197227236
-0.03049557089
-0.02928947996
-0.028281159
-0.0274216453
-0.02667698691
-0.02602301413
-0.02544211469
-0.02492117606
-0.02445023729
-0.0240215868
-0.02362914736
-0.02326805005
-0.02293433454
-0.02262473505
-0.0223365252
-0.02206740393
-0.02181541027
-0.02157885878
-0.02135628993
-0.02114643138
-0.02094816745
-0.02076051466
-0.02058260192
-0.02041365444
-0.02025298032
-0.02009995951
-0.01995403445
-0.01981470226
-0.01968150806
-0.01955403924
-0.01943192063
-0.01931481024
-0.01920239561
-0.01909439068
-0.01899053297
-0.01889058121
-0.0187943132
-0.0187015239
-0.01861202385
-0.01852563765
-0.01844220267
-0.01836156791
-0.01828359298
-0.01820814714
-0.0181351085
-0.01806436326
-0.01799580507
-0.0179293344
-0.017864858
-0.01780228843
-0.01774154356
-0.01768254622
-0.01762522382
-0.01756950798
-0.01751533426
-0.01746264183
-0.01741137329
-0.01736147436
-0.0173128937
-0.01726558269
-0.01721949528
-0.01717458778
-0.01713081874
-0.01708814879
-0.01704654049
-0.01700595825
-0.01696636816
-0.01692773793
-0.01689003679
-0.01685323537
-0.01681730561
-0.01678222075
-0.01674795517
-0.01671448436
-0.01668178489
-0.01664983427
-0.01661861099
-0.01658809438
-0.01655826461
-0.01652910266
-0.01650059023
-0.01647270973
-0.01644544423
-0.01641877744
-0.01639269369
-0.01636717783
-0.01634221529
-0.016317792
-0.01629389439
-0.01627050933
-0.01624762416
-0.01622522661
-0.01620330485
-0.01618184739
-0.01616084314
-0.01614028135
-0.01612015158
-0.01610044374
-0.01608114803
-0.01606225495
-0.01604375525
-0.01602563999
-0.01600790047
-0.01599052821
-0.01597351501
-0.01595685287
-0.01594053401
-0.01592455087
-0.01590889607
-0.01589356247
-0.01587854306
-0.01586383105
-0.0158494198
-0.01583530287
-0.01582147395
-0.0158079269
-0.01579465573
-0.01578165459
-0.01576891779
-0.01575643975
-0.01574421504
-0.01573223836
-0.01572050452
-0.01570900847
-0.01569774526
-0.01568671006
-0.01567589815
-0.01566530492
-0.01565492585
-0.01564475654
-0.01563479268
-0.01562503004
-0.01561546452
-0.01560609206
-0.01559690873
-0.01558791067
-0.01557909409
-0.01557045531
-0.0155619907
-0.01555369672
-0.01554556991
-0.01553760687
-0.01552980428
-0.01552215889
-0.01551466751
-0.01550732703
-0.01550013438
-0.01549308658
-0.0154861807
-0.01547941386
-0.01547278326
-0.01546628612
-0.01545991975
-0.0154536815
-0.01544756877
-0.01544157901
-0.01543570974
-0.01542995849
-0.01542432287
-0.01541880053
-0.01541338917
-0.01540808654
-0.01540289043
-0.01539779868
-0.0153928092
-0.01538791994
-0.0153831289
-0.01537843414
-0.01537383379
-0.01536932603
-0.0153649091
-0.01536058131
-0.01535634103
-0.0153521867
-0.01534811685
-0.01534413004
-0.01534022494
-0.01533640028
-0.01533265484
-0.0153289875
-0.01532539718
-0.0153218829
-0.01531844372
-0.01531507878
-0.01531178727
-0.01530856844
-0.0153054216
-0.01530234609
-0.01529934131
-0.01529640671
-0.01529354175
-0.01529074595
-0.01528801885
-0.01528536
-0.01528276898
-0.01528024535
-0.01527778873
-0.01527539871
-0.01527307489
-0.01527081687
-0.01526862422
-0.01526649651
-0.01526443328
-0.01526243406
-0.01526049835
-0.01525862563
-0.01525681533
-0.01525506688
-0.01525337964
-0.01525175293
-0.01525018605
-0.01524867823
-0.01524722869
-0.01524583658
-0.01524450104
-0.01524322116
-0.01524199596
-0.01524082444
-0.01523970555
-0.01523863818
-0.01523762122
-0.01523665351
-0.01523573388
-0.01523486111
-0.01523403398
-0.01523325122
-0.01523251153
-0.0152318136
-0.01523115609
-0.01523053766
-0.01522995696
-0.01522941266
-0.01522890341
-0.01522842788
-0.0152279847
-0.01522757252
-0.01522718997
-0.01522683571
-0.0152265084
-0.01522620674
-0.01522592943
-0.01522567522
-0.01522544289
-0.0152252312
-0.01522503896
-0.015224865
-0.01522470816
-0.01522456732
-0.01522444141
-0.01522432939
-0.01522423028
-0.01522414314
-0.01522406705
-0.01522400116
-0.01522394463
-0.01522389666
-0.01522385649
-0.0152238234
-0.01522379671
-0.0152237758
-0.01522376009
-0.01522374905
-0.01522374217
-0.01522373901
-0.01522373914
-0.01522374216
-0.0152237477
-0.01522375544
-0.01522376507
-0.01522377631
-0.01522378894
-0.01522380273
-0.01522381751
-0.01522383312
-0.01522384942
-0.0152238663
-0.01522388365
-0.01522390139
-0.01522391944
-0.01522393773
-0.01522395622
-0.01522397486
-0.01522399361
-0.01522401246
-0.01522403139
-0.01522405037
-0.0152240694
-0.01522408846
-0.01522410757
-0.0152241267
-0.01522414585
-0.01522416502
-0.0152241842
-0.0152242034
-0.01522422262
-0.01522424184
-0.01522426108
-0.01522428033
-0.01522429959
-0.01522431887
-0.01522433815
-0.01522435745
-0.01522437676
-0.01522439608
-0.01522441541
-0.01522443475
-0.01522445411
-0.01522447348
-0.01522449285
-0.01522451224
-0.01522453164
-0.01522455105
-0.01522457047
-0.01522458991
-0.01522460935
-0.01522462881
-0.01522464828
-0.01522466775
-0.01522468725
-0.01522470675
-0.01522472626
-0.01522474578
-0.01522476532
-0.01522478486
-0.01522480442
-0.01522482399
-0.01522484357
-0.01522486316
-0.01522488277
-0.01522490238
-0.01522492201
-0.01522494164
-0.01522496129
-0.01522498095
-0.01522500062
-0.0152250203
-0.01522504
-0.0152250597
-0.01522507942
-0.01522509914
-0.01522511888
-0.01522513863
-0.0152251584
-0.01522517816
-0.01522519795
-0.01522521773
-0.01522523755
-0.01522525735
-0.0152252772
-0.01522529702
-0.01522531689
-0.01522533673
-0.01522535662
-0.01522537648
-0.0152253964
-0.01522541627
-0.01522543623
-0.0152254561
-0.01522547609
-0.01522549598
-0.015225516
-0.01522553589
-0.01522555595
-0.01522557584
-0.01522559594
-0.01522561583
-0.01522563597
-0.01522565585
-0.01522567603
-0.01522569589
-0.01522571612
-0.01522573597
-0.01522575624
-0.01522577608
-0.01522579636
-0.01522581623
-0.01522583648
-0.01522585644
-0.01522587657
-0.01522589682
-0.01522591663
-0.01522593757
-0.01522595661
-0.01522597921
-0.0152259963
-0.01522602283
-0.01522603337
-0.01522606885
-0.0152260343
-0.0152260343
-0.0152260343
1
0.1316625623
0.06826904306
0.05229576789
0.04441960425
0.03957646418
0.03625934271
0.0338322761
0.03197227236
0.03049557089
0.02928947996
0.028281159
0.0274216453
0.02667698691
0.02602301413
0.02544211469
0.02492117606
0.02445023729
0.0240215868
0.02362914736
0.02326805005
0.02293433454
0.02262473505
0.0223365252
0.02206740393
0.02181541027
0.02157885878
0.02135628993
0.02114643138
0.02094816745
0.02076051466
0.02058260192
0.02041365444
0.02025298032
0.02009995951
0.01995403445
0.01981470226
0.01968150806
0.01955403924
0.01943192063
0.01931481024
0.01920239561
0.01909439068
0.01899053297
0.01889058121
0.0187943132
0.0187015239
0.01861202385
0.01852563765
0.01844220267
0.01836156791
0.01828359298
0.01820814714
0.0181351085
0.01806436326
0.01799580507
0.0179293344
0.017864858
0.01780228843
0.01774154356
0.01768254622
0.01762522382
0.01756950798
0.01751533426
0.01746264183
0.01741137329
0.01736147436
0.0173128937
0.01726558269
0.01721949528
0.01717458778
0.01713081874
0.01708814879
0.01704654049
0.01700595825
0.01696636816
0.01692773793
0.01689003679
0.01685323537
0.01681730561
0.01678222075
0.01674795517
0.01671448436
0.01668178489
0.01664983427
0.01661861099
0.01658809438
0.01655826461
0.01652910266
0.01650059023
0.01647270973
0.01644544423
0.01641877744
0.01639269369
0.01636717783
0.01634221529
0.016317792
0.01629389439
0.01627050933
0.01624762416
0.01622522661
0.01620330485
0.01618184739
0.01616084314
0.01614028135
0.01612015158
0.01610044374
0.01608114803
0.01606225495
0.01604375525
0.01602563999
0.01600790047
0.01599052821
0.01597351501
0.01595685287
0.01594053401
0.01592455087
0.01590889607
0.01589356247
0.01587854306
0.01586383105
0.0158494198
0.01583530287
0.01582147395
0.0158079269
0.01579465573
0.01578165459
0.01576891779
0.01575643975
0.01574421504
0.01573223836
0.01572050452
0.01570900847
0.01569774526
0.01568671006
0.01567589815
0.01566530492
0.01565492585
0.01564475654
0.01563479268
0.01562503004
0.01561546452
0.01560609206
0.01559690873
0.01558791067
0.01557909409
0.01557045531
0.0155619907
0.01555369672
0.01554556991
0.01553760687
0.01552980428
0.01552215889
0.01551466751
0.01550732703
0.01550013438
0.01549308658
0.0154861807
0.01547941386
0.01547278326
0.01546628612
0.01545991975
0.0154536815
0.01544756877
0.01544157901
0.01543570974
0.01542995849
0.01542432287
0.01541880053
0.01541338917
0.01540808654
0.01540289043
0.01539779868
0.0153928092
0.01538791994
0.0153831289
0.01537843414
0.01537383379
0.01536932603
0.0153649091
0.01536058131
0.01535634103
0.0153521867
0.01534811685
0.01534413004
0.01534022494
0.01533640028
0.01533265484
0.0153289875
0.01532539718
0.0153218829
0.01531844372
0.01531507878
0.01531178727
0.01530856844
0.0153054216
0.01530234609
0.01529934131
0.01529640671
0.01529354175
0.01529074595
0.01528801885
0.01528536
0.01528276898
0.01528024535
0.01527778873
0.01527539871
0.01527307489
0.01527081687
0.01526862422
0.01526649651
0.01526443328
0.01526243406
0.01526049835
0.01525862563
0.01525681533
0.01525506688
0.01525337964
0.01525175293
0.01525018605
0.01524867823
0.01524722869
0.01524583658
0.01524450104
0.01524322116
0.01524199596
0.01524082444
0.01523970555
0.01523863818
0.01523762122
0.01523665351
0.01523573388
0.01523486111
0.01523403398
0.01523325122
0.01523251153
0.0152318136
0.01523115609
0.01523053766
0.01522995696
0.01522941266
0.01522890341
0.01522842788
0.0152279847
0.01522757252
0.01522718997
0.01522683571
0.0152265084
0.01522620674
0.01522592943
0.01522567522
0.01522544289
0.0152252312
0.01522503896
0.015224865
0.01522470816
0.01522456732
0.01522444141
0.01522432939
0.01522423028
0.01522414314
0.01522406705
0.01522400116
0.01522394463
0.01522389666
0.01522385649
0.0152238234
0.01522379671
0.0152237758
0.01522376009
0.01522374905
0.01522374217
0.01522373901
0.01522373914
0.01522374216
0.0152237477
0.01522375544
0.01522376507
0.01522377631
0.01522378894
0.01522380273
0.01522381751
0.01522383312
0.01522384942
0.0152238663
0.01522388365
0.01522390139
0.01522391944
0.01522393773
0.01522395622
0.01522397486
0.01522399361
0.01522401246
0.01522403139
0.01522405037
0.0152240694
0.01522408846
0.01522410757
0.0152241267
0.01522414585
0.01522416502
0.0152241842
0.0152242034
0.01522422262
0.01522424184
0.01522426108
0.01522428033
0.01522429959
0.01522431887
0.01522433815
0.01522435745
0.01522437676
0.01522439608
0.01522441541
0.01522443475
0.01522445411
0.01522447348
0.01522449285
0.01522451224
0.01522453164
0.01522455105
0.01522457047
0.01522458991
0.01522460935
0.01522462881
0.01522464828
0.01522466775
0.01522468725
0.01522470675
0.01522472626
0.01522474578
0.01522476532
0.01522478486
0.01522480442
0.01522482399
0.01522484357
0.01522486316
0.01522488277
0.01522490238
0.01522492201
0.01522494164
0.01522496129
0.01522498095
0.01522500062
0.0152250203
0.01522504
0.0152250597
0.01522507942
0.01522509914
0.01522511888
0.01522513863
0.0152251584
0.01522517816
0.01522519795
0.01522521773
0.01522523755
0.01522525735
0.0152252772
0.01522529702
0.01522531689
0.01522533673
0.01522535662
0.01522537648
0.0152253964
0.01522541627
0.01522543623
0.0152254561
0.01522547609
0.01522549598
0.015225516
0.01522553589
0.01522555595
0.01522557584
0.01522559594
0.01522561583
0.01522563597
0.01522565585
0.01522567603
0.01522569589
0.01522571612
0.01522573597
0.01522575624
0.01522577608
0.01522579636
0.01522581623
0.01522583648
0.01522585644
0.01522587657
0.01522589682
0.01522591663
0.01522593757
0.01522595661
0.01522597921
0.0152259963
0.01522602283
0.01522603337
0.01522606885
0.0152260343
0.0152260343
0.0152260343
1
0.3448836537
0.200667253
0.154966639
0.1318938782
0.1175978323
0.1077670989
0.100557136
0.09502406945
0.09062811744
0.0870369198
0.08403492244
0.08147681054
0.0792615681
0.07731713448
0.07559091307
0.07404369757
0.07264568152
0.0713737802
0.07020980061
0.06913917052
0.06815004245
0.06723265262
0.06637885566
0.06558178191
0.06483558141
0.06413522973
0.06347637884
0.06285524072
0.06226849559
0.06171321854
0.06118682014
0.06068699805
0.06021169709
0.05975907596
0.05932747953
0.05891541528
0.05852153345
0.05814461003
0.05778353218
0.05743728569
0.0571049441
0.05678565927
0.05647865314
0.05618321056
0.05589867294
0.05562443272
0.05535992844
0.05510464039
0.05485808677
0.05461982026
0.05438942492
0.05416651351
0.05395072499
0.05374172232
0.05353919052
0.05334283481
0.05315237906
0.05296756431
0.05278814741
0.05261389985
0.05244460666
0.05228006539
0.05212008524
0.05196448617
0.05181309818
0.05166576059
0.05152232141
0.05138263673
0.05124657021
0.05111399254
0.050984781
0.05085881905
0.05073599588
0.0506162061
0.05049934941
0.05038533021
0.0502740574
0.05016544405
0.05005940718
0.04995586749
0.04985474921
0.04975597983
0.04965948993
0.04956521303
0.04947308541
0.04938304594
0.04929503595
0.04920899911
0.04912488129
0.04904263043
0.04896219647
0.04888353119
0.04880658818
0.04873132268
0.04865769156
0.04858565319
0.0485151674
0.04844619539
0.04837869965
0.04831264396
0.04824799324
0.04818471357
0.04812277212
0.04806213707
0.04800277759
0.04794466381
0.04788776675
0.04783205829
0.04777751114
0.04772409881
0.04767179557
0.0476205764
0.04757041699
0.04752129372
0.0474731836
0.04742606425
0.04737991391
0.04733471138
0.04729043603
0.04724706775
0.04720458694
0.04716297452
0.04712221187
0.04708228085
0.04704316374
0.04700484329
0.04696730264
0.04693052534
0.04689449535
0.04685919698
0.04682461494
0.04679073428
0.04675754038
0.04672501899
0.04669315616
0.04666193827
0.04663135199
0.04660138431
0.04657202249
0.04654325409
0.04651506692
0.04648744908
0.04646038892
0.04643387504
0.04640789628
0.04638244174
0.04635750073
0.0463330628
0.04630911772
0.04628565548
0.04626266626
0.04624014047
0.04621806871
0.04619644177
0.04617525064
0.04615448649
0.04613414066
0.04611420469
0.04609467027
0.04607552926
0.04605677368
0.04603839573
0.04602038774
0.04600274219
0.04598545174
0.04596850916
0.04595190739
0.0459356395
0.04591969873
0.04590407843
0.04588877214
0.04587377353
0.04585907642
0.0458446748
0.04583056282
0.04581673482
0.04580318529
0.04578990893
0.04577690061
0.0457641554
0.04575166856
0.04573943556
0.04572745208
0.04571571402
0.04570421747
0.04569295874
0.04568193435
0.04567114102
0.04566057568
0.04565023544
0.04564011763
0.04563021975
0.04562053948
0.04561107464
0.04560182321
0.04559278333
0.04558395324
0.0455753313
0.04556691601
0.04555870591
0.04555069964
0.04554289588
0.04553529336
0.04552789083
0.04552068707
0.04551368086
0.045506871
0.04550025622
0.04549383524
0.04548760673
0.04548156927
0.04547572139
0.04547006156
0.04546458814
0.04545929943
0.04545419359
0.04544926869
0.04544452266
0.04543995328
0.04543555824
0.04543133512
0.04542728137
0.04542339432
0.04541967118
0.04541610902
0.04541270477
0.04540945523
0.04540635712
0.04540340702
0.04540060148
0.04539793694
0.04539540979
0.04539301631
0.04539075271
0.0453886151
0.04538659956
0.04538470211
0.04538291875
0.04538124549
0.04537967835
0.04537821333
0.04537684644
0.04537557366
0.04537439096
0.04537329433
0.04537227978
0.04537134339
0.04537048128
0.0453696897
0.04536896494
0.04536830336
0.04536770139
0.04536715552
0.04536666229
0.04536621833
0.04536582039
0.04536546533
0.04536515014
0.04536487196
0.04536462804
0.04536441576
0.04536423259
0.04536407613
0.04536394404
0.04536383415
0.04536374438
0.04536367278
0.04536361756
0.04536357705
0.04536354974
0.04536353419
0.0453635291
0.04536353326
0.04536354553
0.04536356488
0.04536359035
0.04536362109
0.04536365634
0.04536369543
0.04536373775
0.04536378282
0.04536383018
0.04536387945
0.04536393031
0.04536398248
0.0453640357
0.04536408977
0.04536414451
0.04536419978
0.04536425546
0.04536431147
0.04536436772
0.04536442418
0.04536448081
0.04536453756
0.04536459443
0.04536465138
0.04536470841
0.04536476551
0.04536482266
0.04536487985
0.04536493709
0.04536499436
0.04536505167
0.04536510902
0.0453651664
0.04536522381
0.04536528126
0.04536533875
0.04536539627
0.04536545383
0.04536551142
0.04536556904
0.0453656267
0.04536568439
0.04536574211
0.04536579987
0.04536585766
0.04536591548
0.04536597334
0.04536603123
0.04536608916
0.04536614712
0.04536620511
0.04536626313
0.04536632119
0.04536637929
0.04536643741
0.04536649557
0.04536655376
0.04536661199
0.04536667025
0.04536672854
0.04536678687
0.04536684523
0.04536690362
0.04536696205
0.04536702051
0.04536707901
0.04536713753
0.0453671961
0.04536725468
0.04536731332
0.04536737197
0.04536743068
0.04536748939
0.04536754817
0.04536760695
0.04536766579
0.04536772463
0.04536778355
0.04536784245
0.04536790144
0.0453679604
0.04536801946
0.04536807848
0.04536813762
0.0453681967
0.04536825591
0.04536831504
0.04536837433
0.04536843351
0.04536849289
0.0453685521
0.04536861157
0.04536867082
0.04536873039
0.04536878966
0.04536884933
0.04536890862
0.04536896839
0.04536902768
0.04536908757
0.04536914686
0.04536920686
0.04536926612
0.04536932625
0.04536938548
0.04536944573
0.04536950493
0.04536956527
0.04536962446
0.04536968485
0.04536974411
0.04536980442
0.04536986395
0.04536992395
0.04536998423
0.04537004339
0.04537010554
0.04537016268
0.04537022931
0.04537028127
0.04537035852
0.04537039301
0.04537049367
0.04537040903
0.04537040903
0.04537040903
1
0.5187651931
0.3274012059
0.2553467957
0.2178477854
0.1944026735
0.1782107646
0.1663061597
0.1571570844
0.1498824824
0.1439375864
0.1389679115
0.1347338265
0.1310683689
0.1278522093
0.1249981197
0.1224410065
0.1201313453
0.1180307642
0.1161090184
0.1143418857
0.1127096784
0.1111961786
0.1097878636
0.1084733348
0.1072428908
0.106088204
0.1050020714
0.1039782209
0.1030111579
0.1020960432
0.1012285945
0.100405005
0.09962187777
0.09887617014
0.09816514755
0.09748634468
0.09683753235
0.09621668941
0.09562197849
0.09505172532
0.09450440062
0.09397860455
0.09347305309
0.0929865661
0.09251805687
0.09206652297
0.09163103808
0.09121074485
0.09080484848
0.0904126111
0.09003334666
0.08966641643
0.08931122494
0.08896721637
0.08863387122
0.0883107034
0.08799725754
0.08769310661
0.08739784966
0.08711110992
0.08683253291
0.08656178485
0.08629855112
0.08604253489
0.08579345588
0.08555104917
0.08531506419
0.0850852637
0.08486142289
0.0846433286
0.08443077854
0.08422358055
0.08402155199
0.08382451913
0.0836323166
0.08344478684
0.08326177965
0.08308315176
0.08290876636
0.08273849277
0.08257220607
0.08240978673
0.08225112037
0.08209609738
0.08194461273
0.08179656568
0.08165185953
0.08151040143
0.08137210217
0.08123687596
0.08110464027
0.08097531566
0.08084882562
0.08072509642
0.08060405695
0.08048563863
0.08036977525
0.08025640287
0.08014545971
0.08003688605
0.07993062412
0.07982661803
0.07972481366
0.07962515861
0.0795276021
0.07943209488
0.07933858924
0.07924703884
0.07915739874
0.07906962529
0.07898367611
0.07889950999
0.07881708692
0.07873636795
0.07865731523
0.07857989192
0.07850406217
0.07842979109
0.07835704467
0.07828578982
0.07821599429
0.07814762662
0.07808065619
0.0780150531
0.07795078822
0.07788783312
0.07782616005
0.07776574195
0.0777065524
0.07764856558
0.07759175633
0.07753610002
0.07748157263
0.07742815067
0.07737581121
0.07732453182
0.07727429058
0.07722506607
0.07717683734
0.0771295839
0.07708328572
0.07703792321
0.0769934772
0.07694992894
0.07690726009
0.07686545268
0.07682448916
0.07678435233
0.07674502535
0.07670649177
0.07666873545
0.0766317406
0.07659549176
0.07655997379
0.07652517187
0.07649107148
0.07645765839
0.07642491866
0.07639283865
0.07636140498
0.07633060452
0.07630042444
0.07627085215
0.07624187529
0.07621348179
0.07618565977
0.07615839765
0.07613168405
0.07610550785
0.07607985819
0.07605472444
0.07603009622
0.07600596343
0.07598231624
0.07595914507
0.07593644066
0.07591419403
0.07589239652
0.07587103977
0.07585011573
0.07582961671
0.07580953534
0.07578986459
0.07577059781
0.07575172866
0.07573325116
0.07571515966
0.07569744887
0.07568011379
0.0756631498
0.07564655254
0.07563031798
0.07561444236
0.07559892216
0.07558375412
0.07556893519
0.07555446253
0.07554033349
0.07552654558
0.07551309643
0.0754999838
0.07548720551
0.07547475944
0.07546264354
0.07545085574
0.07543939403
0.07542825633
0.07541744055
0.07540694449
0.07539676588
0.07538690233
0.07537735134
0.07536811028