# vtk DataFile Version 2.0
FlowField
ASCII
DATASET STRUCTURED_GRID
DIMENSIONS 400 1 200
POINTS 80000 float
0 0 0
0.08 0 0
0.16 0 0
0.24 0 0
0.32 0 0
0.4 0 0
0.48 0 0
0.56 0 0
0.64 0 0
0.72 0 0
0.8 0 0
0.88 0 0
0.96 0 0
1.04 0 0
1.12 0 0
1.2 0 0
1.28 0 0
1.36 0 0
1.44 0 0
1.52 0 0
1.6 0 0
1.68 0 0
1.76 0 0
1.84 0 0
1.92 0 0
2 0 0
2.08 0 0
2.16 0 0
2.24 0 0
2.32 0 0
2.4 0 0
2.48 0 0
2.56 0 0
2.64 0 0
2.72 0 0
2.8 0 0
2.88 0 0
2.96 0 0
3.04 0 0
3.12 0 0
3.2 0 0
3.28 0 0
3.36 0 0
3.44 0 0
3.52 0 0
3.6 0 0
3.68 0 0
3.76 0 0
3.84 0 0
3.92 0 0
4 0 0
4.08 0 0
4.16 0 0
4.24 0 0
4.32 0 0
4.4 0 0
4.48 0 0
4.56 0 0
4.64 0 0
4.72 0 0
4.8 0 0
4.88 0 0
4.96 0 0
5.04 0 0
5.12 0 0
5.2 0 0
5.28 0 0
5.36 0 0
5.44 0 0
5.52 0 0
5.6 0 0
5.68 0 0
5.76 0 0
5.84 0 0
5.92 0 0
6 0 0
6.08 0 0
6.16 0 0
6.24 0 0
6.32 0 0
6.4 0 0
6.48 0 0
6.56 0 0
6.64 0 0
6.72 0 0
6.8 0 0
6.88 0 0
6.96 0 0
7.04 0 0
7.12 0 0
7.2 0 0
7.28 0 0
7.36 0 0
7.44 0 0
7.52 0 0
7.6 0 0
7.68 0 0
7.76 0 0
7.84 0 0
7.92 0 0
8 0 0
8.08 0 0
8.16 0 0
8.24 0 0
8.32 0 0
8.4 0 0
8.48 0 0
8.56 0 0
8.64 0 0
8.72 0 0
8.8 0 0
8.88 0 0
8.96 0 0
9.04 0 0
9.12 0 0
9.2 0 0
9.28 0 0
9.36 0 0
9.44 0 0
9.52 0 0
9.6 0 0
9.68 0 0
9.76 0 0
9.84 0 0
9.92 0 0
10 0 0
10.08 0 0
10.16 0 0
10.24 0 0
10.32 0 0
10.4 0 0
10.48 0 0
10.56 0 0
10.64 0 0
10.72 0 0
10.8 0 0
10.88 0 0
10.96 0 0
11.04 0 0
11.12 0 0
11.2 0 0
11.28 0 0
11.36 0 0
11.44 0 0
11.52 0 0
11.6 0 0
11.68 0 0
11.76 0 0
11.84 0 0
11.92 0 0
12 0 0
12.08 0 0
12.16 0 0
12.24 0 0
12.32 0 0
12.4 0 0
12.48 0 0
12.56 0 0
12.64 0 0
12.72 0 0
12.8 0 0
12.88 0 0
12.96 0 0
13.04 0 0
13.12 0 0
13.2 0 0
13.28 0 0
13.36 0 0
13.44 0 0
13.52 0 0
13.6 0 0
13.68 0 0
13.76 0 0
13.84 0 0
13.92 0 0
14 0 0
14.08 0 0
14.16 0 0
14.24 0 0
14.32 0 0
14.4 0 0
14.48 0 0
14.56 0 0
14.64 0 0
14.72 0 0
14.8 0 0
14.88 0 0
14.96 0 0
15.04 0 0
15.12 0 0
15.2 0 0
15.28 0 0
15.36 0 0
15.44 0 0
15.52 0 0
15.6 0 0
15.68 0 0
15.76 0 0
15.84 0 0
15.92 0 0
16 0 0
16.08 0 0
16.16 0 0
16.24 0 0
16.32 0 0
16.4 0 0
16.48 0 0
16.56 0 0
16.64 0 0
16.72 0 0
16.8 0 0
16.88 0 0
16.96 0 0
17.04 0 0
17.12 0 0
17.2 0 0
17.28 0 0
17.36 0 0
17.44 0 0
17.52 0 0
17.6 0 0
17.68 0 0
17.76 0 0
17.84 0 0
17.92 0 0
18 0 0
18.08 0 0
18.16 0 0
18.24 0 0
18.32 0 0
18.4 0 0
18.48 0 0
18.56 0 0
18.64 0 0
18.72 0 0
18.8 0 0
18.88 0 0
18.96 0 0
19.04 0 0
19.12 0 0
19.2 0 0
19.28 0 0
19.36 0 0
19.44 0 0
19.52 0 0
19.6 0 0
19.68 0 0
19.76 0 0
19.84 0 0
19.92 0 0
20 0 0
20.08 0 0
20.16 0 0
20.24 0 0
20.32 0 0
20.4 0 0
20.48 0 0
20.56 0 0
20.64 0 0
20.72 0 0
20.8 0 0
20.88 0 0
20.96 0 0
21.04 0 0
21.12 0 0
21.2 0 0
21.28 0 0
21.36 0 0
21.44 0 0
21.52 0 0
21.6 0 0
21.68 0 0
21.76 0 0
21.84 0 0
21.92 0 0
22 0 0
22.08 0 0
22.16 0 0
22.24 0 0
22.32 0 0
22.4 0 0
22.48 0 0
22.56 0 0
22.64 0 0
22.72 0 0
22.8 0 0
22.88 0 0
22.96 0 0
23.04 0 0
23.12 0 0
23.2 0 0
23.28 0 0
23.36 0 0
23.44 0 0
23.52 0 0
23.6 0 0
23.68 0 0
23.76 0 0
23.84 0 0
23.92 0 0
24 0 0
24.08 0 0
24.16 0 0
24.24 0 0
24.32 0 0
24.4 0 0
24.48 0 0
24.56 0 0
24.64 0 0
24.72 0 0
24.8 0 0
24.88 0 0
24.96 0 0
25.04 0 0
25.12 0 0
25.2 0 0
25.28 0 0
25.36 0 0
25.44 0 0
25.52 0 0
25.6 0 0
25.68 0 0
25.76 0 0
25.84 0 0
25.92 0 0
26 0 0
26.08 0 0
26.16 0 0
26.24 0 0
26.32 0 0
26.4 0 0
26.48 0 0
26.56 0 0
26.64 0 0
26.72 0 0
26.8 0 0
26.88 0 0
26.96 0 0
27.04 0 0
27.12 0 0
27.2 0 0
27.28 0 0
27.36 0 0
27.44 0 0
27.52 0 0
27.6 0 0
27.68 0 0
27.76 0 0
27.84 0 0
27.92 0 0
28 0 0
28.08 0 0
28.16 0 0
28.24 0 0
28.32 0 0
28.4 0 0
28.48 0 0
28.56 0 0
28.64 0 0
28.72 0 0
28.8 0 0
28.88 0 0
28.96 0 0
29.04 0 0
29.12 0 0
29.2 0 0
29.28 0 0
29.36 0 0
29.44 0 0
29.52 0 0
29.6 0 0
29.68 0 0
29.76 0 0
29.84 0 0
29.92 0 0
30 0 0
30.08 0 0
30.16 0 0
30.24 0 0
30.32 0 0
30.4 0 0
30.48 0 0
30.56 0 0
30.64 0 0
30.72 0 0
30.8 0 0
30.88 0 0
30.96 0 0
31.04 0 0
31.12 0 0
31.2 0 0
31.28 0 0
31.36 0 0
31.44 0 0
31.52 0 0
31.6 0 0
31.68 0 0
31.76 0 0
31.84 0 0
31.92 0 0
0 0.005 0
0.08 0.005 0
0.16 0.005 0
0.24 0.005 0
0.32 0.005 0
0.4 0.005 0
0.48 0.005 0
0.56 0.005 0
0.64 0.005 0
0.72 0.005 0
0.8 0.005 0
0.88 0.005 0
0.96 0.005 0
1.04 0.005 0
1.12 0.005 0
1.2 0.005 0
1.28 0.005 0
1.36 0.005 0
1.44 0.005 0
1.52 0.005 0
1.6 0.005 0
1.68 0.005 0
1.76 0.005 0
1.84 0.005 0
1.92 0.005 0
2 0.005 0
2.08 0.005 0
2.16 0.005 0
2.24 0.005 0
2.32 0.005 0
2.4 0.005 0
2.48 0.005 0
2.56 0.005 0
2.64 0.005 0
2.72 0.005 0
2.8 0.005 0
2.88 0.005 0
2.96 0.005 0
3.04 0.005 0
3.12 0.005 0
3.2 0.005 0
3.28 0.005 0
3.36 0.005 0
3.44 0.005 0
3.52 0.005 0
3.6 0.005 0
3.68 0.005 0
3.76 0.005 0
3.84 0.005 0
3.92 0.005 0
4 0.005 0
4.08 0.005 0
4.16 0.005 0
4.24 0.005 0
4.32 0.005 0
4.4 0.005 0
4.48 0.005 0
4.56 0.005 0
4.64 0.005 0
4.72 0.005 0
4.8 0.005 0
4.88 0.005 0
4.96 0.005 0
5.04 0.005 0
5.12 0.005 0
5.2 0.005 0
5.28 0.005 0
5.36 0.005 0
5.44 0.005 0
5.52 0.005 0
5.6 0.005 0
5.68 0.005 0
5.76 0.005 0
5.84 0.005 0
5.92 0.005 0
6 0.005 0
6.08 0.005 0
6.16 0.005 0
6.24 0.005 0
6.32 0.005 0
6.4 0.005 0
6.48 0.005 0
6.56 0.005 0
6.64 0.005 0
6.72 0.005 0
6.8 0.005 0
6.88 0.005 0
6.96 0.005 0
7.04 0.005 0
7.12 0.005 0
7.2 0.005 0
7.28 0.005 0
7.36 0.005 0
7.44 0.005 0
7.52 0.005 0
7.6 0.005 0
7.68 0.005 0
7.76 0.005 0
7.84 0.005 0
7.92 0.005 0
8 0.005 0
8.08 0.005 0
8.16 0.005 0
8.24 0.005 0
8.32 0.005 0
8.4 0.005 0
8.48 0.005 0
8.56 0.005 0
8.64 0.005 0
8.72 0.005 0
8.8 0.005 0
8.88 0.005 0
8.96 0.005 0
9.04 0.005 0
9.12 0.005 0
9.2 0.005 0
9.28 0.005 0
9.36 0.005 0
9.44 0.005 0
9.52 0.005 0
9.6 0.005 0
9.68 0.005 0
9.76 0.005 0
9.84 0.005 0
9.92 0.005 0
10 0.005 0
10.08 0.005 0
10.16 0.005 0
10.24 0.005 0
10.32 0.005 0
10.4 0.005 0
10.48 0.005 0
10.56 0.005 0
10.64 0.005 0
10.72 0.005 0
10.8 0.005 0
10.88 0.005 0
10.96 0.005 0
11.04 0.005 0
11.12 0.005 0
11.2 0.005 0
11.28 0.005 0
11.36 0.005 0
11.44 0.005 0
11.52 0.005 0
11.6 0.005 0
11.68 0.005 0
11.76 0.005 0
11.84 0.005 0
11.92 0.005 0
12 0.005 0
12.08 0.005 0
12.16 0.005 0
12.24 0.005 0
12.32 0.005 0
12.4 0.005 0
12.48 0.005 0
12.56 0.005 0
12.64 0.005 0
12.72 0.005 0
12.8 0.005 0
12.88 0.005 0
12.96 0.005 0
13.04 0.005 0
13.12 0.005 0
13.2 0.005 0
13.28 0.005 0
13.36 0.005 0
13.44 0.005 0
13.52 0.005 0
13.6 0.005 0
13.68 0.005 0
13.76 0.005 0
13.84 0.005 0
13.92 0.005 0
14 0.005 0
14.08 0.005 0
14.16 0.005 0
14.24 0.005 0
14.32 0.005 0
14.4 0.005 0
14.48 0.005 0
14.56 0.005 0
14.64 0.005 0
14.72 0.005 0
14.8 0.005 0
14.88 0.005 0
14.96 0.005 0
15.04 0.005 0
15.12 0.005 0
15.2 0.005 0
15.28 0.005 0
15.36 0.005 0
15.44 0.005 0
15.52 0.005 0
15.6 0.005 0
15.68 0.005 0
15.76 0.005 0
15.84 0.005 0
15.92 0.005 0
16 0.005 0
16.08 0.005 0
16.16 0.005 0
16.24 0.005 0
16.32 0.005 0
16.4 0.005 0
16.48 0.005 0
16.56 0.005 0
16.64 0.005 0
16.72 0.005 0
16.8 0.005 0
16.88 0.005 0
16.96 0.005 0
17.04 0.005 0
17.12 0.005 0
17.2 0.005 0
17.28 0.005 0
17.36 0.005 0
17.44 0.005 0
17.52 0.005 0
17.6 0.005 0
17.68 0.005 0
17.76 0.005 0
17.84 0.005 0
17.92 0.005 0
18 0.005 0
18.08 0.005 0
18.16 0.005 0
18.24 0.005 0
18.32 0.005 0
18.4 0.005 0
18.48 0.005 0
18.56 0.005 0
18.64 0.005 0
18.72 0.005 0
18.8 0.005 0
18.88 0.005 0
18.96 0.005 0
19.04 0.005 0
19.12 0.005 0
19.2 0.005 0
19.28 0.005 0
19.36 0.005 0
19.44 0.005 0
19.52 0.005 0
19.6 0.005 0
19.68 0.005 0
19.76 0.005 0
19.84 0.005 0
19.92 0.005 0
20 0.005 0
20.08 0.005 0
20.16 0.005 0
20.24 0.005 0
20.32 0.005 0
20.4 0.005 0
20.48 0.005 0
20.56 0.005 0
20.64 0.005 0
20.72 0.005 0
20.8 0.005 0
20.88 0.005 0
20.96 0.005 0
21.04 0.005 0
21.12 0.005 0
21.2 0.005 0
21.28 0.005 0
21.36 0.005 0
21.44 0.005 0
21.52 0.005 0
21.6 0.005 0
21.68 0.005 0
21.76 0.005 0
21.84 0.005 0
21.92 0.005 0
22 0.005 0
22.08 0.005 0
22.16 0.005 0
22.24 0.005 0
22.32 0.005 0
22.4 0.005 0
22.48 0.005 0
22.56 0.005 0
22.64 0.005 0
22.72 0.005 0
22.8 0.005 0
22.88 0.005 0
22.96 0.005 0
23.04 0.005 0
23.12 0.005 0
23.2 0.005 0
23.28 0.005 0
23.36 0.005 0
23.44 0.005 0
23.52 0.005 0
23.6 0.005 0
23.68 0.005 0
23.76 0.005 0
23.84 0.005 0
23.92 0.005 0
24 0.005 0
24.08 0.005 0
24.16 0.005 0
24.24 0.005 0
24.32 0.005 0
24.4 0.005 0
24.48 0.005 0
24.56 0.005 0
24.64 0.005 0
24.72 0.005 0
24.8 0.005 0
24.88 0.005 0
24.96 0.005 0
25.04 0.005 0
25.12 0.005 0
25.2 0.005 0
25.28 0.005 0
25.36 0.005 0
25.44 0.005 0
25.52 0.005 0
25.6 0.005 0
25.68 0.005 0
25.76 0.005 0
25.84 0.005 0
25.92 0.005 0
26 0.005 0
26.08 0.005 0
26.16 0.005 0
26.24 0.005 0
26.32 0.005 0
26.4 0.005 0
26.48 0.005 0
26.56 0.005 0
26.64 0.005 0
26.72 0.005 0
26.8 0.005 0
26.88 0.005 0
26.96 0.005 0
27.04 0.005 0
27.12 0.005 0
27.2 0.005 0
27.28 0.005 0
27.36 0.005 0
27.44 0.005 0
27.52 0.005 0
27.6 0.005 0
27.68 0.005 0
27.76 0.005 0
27.84 0.005 0
27.92 0.005 0
28 0.005 0
28.08 0.005 0
28.16 0.005 0
28.24 0.005 0
28.32 0.005 0
28.4 0.005 0
28.48 0.005 0
28.56 0.005 0
28.64 0.005 0
28.72 0.005 0
28.8 0.005 0
28.88 0.005 0
28.96 0.005 0
29.04 0.005 0
29.12 0.005 0
29.2 0.005 0
29.28 0.005 0
29.36 0.005 0
29.44 0.005 0
29.52 0.005 0
29.6 0.005 0
29.68 0.005 0
29.76 0.005 0
29.84 0.005 0
29.92 0.005 0
30 0.005 0
30.08 0.005 0
30.16 0.005 0
30.24 0.005 0
30.32 0.005 0
30.4 0.005 0
30.48 0.005 0
30.56 0.005 0
30.64 0.005 0
30.72 0.005 0
30.8 0.005 0
30.88 0.005 0
30.96 0.005 0
31.04 0.005 0
31.12 0.005 0
31.2 0.005 0
31.28 0.005 0
31.36 0.005 0
31.44 0.005 0
31.52 0.005 0
31.6 0.005 0
31.68 0.005 0
31.76 0.005 0
31.84 0.005 0
31.92 0.005 0
0 0.01 0
0.08 0.01 0
0.16 0.01 0
0.24 0.01 0
0.32 0.01 0
0.4 0.01 0
0.48 0.01 0
0.56 0.01 0
0.64 0.01 0
0.72 0.01 0
0.8 0.01 0
0.88 0.01 0
0.96 0.01 0
1.04 0.01 0
1.12 0.01 0
1.2 0.01 0
1.28 0.01 0
1.36 0.01 0
1.44 0.01 0
1.52 0.01 0
1.6 0.01 0
1.68 0.01 0
1.76 0.01 0
1.84 0.01 0
1.92 0.01 0
2 0.01 0
2.08 0.01 0
2.16 0.01 0
2.24 0.01 0
2.32 0.01 0
2.4 0.01 0
2.48 0.01 0
2.56 0.01 0
2.64 0.01 0
2.72 0.01 0
2.8 0.01 0
2.88 0.01 0
2.96 0.01 0
3.04 0.01 0
3.12 0.01 0
3.2 0.01 0
3.28 0.01 0
3.36 0.01 0
3.44 0.01 0
3.52 0.01 0
3.6 0.01 0
3.68 0.01 0
3.76 0.01 0
3.84 0.01 0
3.92 0.01 0
4 0.01 0
4.08 0.01 0
4.16 0.01 0
4.24 0.01 0
4.32 0.01 0
4.4 0.01 0
4.48 0.01 0
4.56 0.01 0
4.64 0.01 0
4.72 0.01 0
4.8 0.01 0
4.88 0.01 0
4.96 0.01 0
5.04 0.01 0
5.12 0.01 0
[...]
POINT_DATA 80000

SCALARS p float 1
LOOKUP_TABLE default
1
56.54461215
56.24287713
56.20171735
56.18162738
56.16720846
56.1552075
56.14446408
56.13446596
56.12496036
56.11581406
56.10695334
56.09833542
56.08993391
56.08173115
56.07371411
56.06587224
56.05819633
56.05067795
56.04330917
56.03608245
56.0289906
56.02202681
56.01518459
56.0084578
56.00184069
55.99532783
55.98891413
55.98259483
55.97636549
55.97022192
55.96416026
55.95817684
55.95226828
55.94643138
55.94066317
55.93496084
55.92932177
55.92374348
55.91822366
55.91276013
55.90735081
55.90199378
55.89668718
55.89142929
55.88621846
55.88105312
55.87593181
55.87085311
55.86581568
55.86081827
55.85585964
55.85093866
55.84605422
55.84120527
55.8363908
55.83160984
55.82686148
55.82214483
55.81745905
55.81280332
55.80817686
55.80357892
55.79900878
55.79446573
55.78994912
55.7854583
55.78099263
55.77655153
55.7721344
55.7677407
55.76336987
55.75902139
55.75469475
55.75038947
55.74610505
55.74184105
55.737597
55.73337248
55.72916707
55.72498034
55.7208119
55.71666137
55.71252836
55.70841251
55.70431345
55.70023084
55.69616435
55.69211363
55.68807837
55.68405824
55.68005295
55.67606219
55.67208567
55.66812311
55.66417422
55.66023873
55.65631638
55.6524069
55.64851004
55.64462555
55.64075318
55.63689271
55.63304389
55.6292065
55.62538031
55.6215651
55.61776066
55.61396678
55.61018326
55.60640989
55.60264648
55.59889283
55.59514875
55.59141407
55.58768858
55.58397213
55.58026453
55.57656561
55.57287521
55.56919316
55.5655193
55.56185346
55.5581955
55.55454527
55.55090261
55.54726738
55.54363943
55.54001863
55.53640483
55.5327979
55.52919771
55.52560413
55.52201702
55.51843627
55.51486175
55.51129334
55.50773093
55.50417439
55.50062361
55.49707848
55.49353889
55.49000474
55.48647591
55.48295231
55.47943383
55.47592037
55.47241184
55.46890814
55.46540917
55.46191485
55.45842508
55.45493978
55.45145885
55.44798221
55.44450978
55.44104147
55.43757721
55.43411692
55.43066051
55.42720792
55.42375906
55.42031387
55.41687227
55.41343419
55.40999956
55.40656832
55.4031404
55.39971573
55.39629424
55.39287589
55.3894606
55.38604831
55.38263897
55.37923251
55.37582889
55.37242804
55.36902991
55.36563444
55.36224159
55.3588513
55.35546352
55.3520782
55.3486953
55.34531476
55.34193653
55.33856058
55.33518686
55.33181532
55.32844591
55.32507861
55.32171336
55.31835012
55.31498886
55.31162953
55.30827211
55.30491654
55.30156279
55.29821082
55.29486061
55.29151212
55.2881653
55.28482013
55.28147658
55.27813461
55.27479419
55.27145529
55.26811788
55.26478193
55.26144741
55.2581143
55.25478255
55.25145216
55.24812308
55.2447953
55.24146879
55.23814352
55.23481946
55.2314966
55.22817491
55.22485436
55.22153494
55.21821661
55.21489937
55.21158318
55.20826803
55.20495389
55.20164075
55.19832858
55.19501736
55.19170708
55.18839772
55.18508926
55.18178167
55.17847495
55.17516908
55.17186403
55.1685598
55.16525636
55.1619537
55.15865181
55.15535066
55.15205025
55.14875055
55.14545156
55.14215326
55.13885564
55.13555868
55.13226236
55.12896669
55.12567163
55.12237719
55.11908335
55.11579009
55.11249741
55.10920529
55.10591372
55.1026227
55.0993322
55.09604222
55.09275275
55.08946378
55.0861753
55.0828873
55.07959976
55.07631268
55.07302606
55.06973987
55.06645412
55.06316879
55.05988388
55.05659937
55.05331526
55.05003155
55.04674821
55.04346526
55.04018267
55.03690044
55.03361857
55.03033704
55.02705586
55.02377501
55.02049449
55.01721429
55.0139344
55.01065483
55.00737556
55.0040966
55.00081792
54.99753954
54.99426144
54.99098362
54.98770608
54.9844288
54.98115179
54.97787505
54.97459856
54.97132232
54.96804633
54.96477059
54.9614951
54.95821984
54.95494481
54.95167002
54.94839545
54.94512111
54.94184699
54.93857309
54.93529941
54.93202593
54.92875267
54.92547961
54.92220675
54.91893409
54.91566163
54.91238936
54.90911728
54.90584539
54.90257368
54.89930215
54.8960308
54.89275962
54.88948862
54.88621778
54.88294711
54.8796766
54.87640624
54.87313605
54.869866
54.8665961
54.86332634
54.86005673
54.85678725
54.8535179
54.85024869
54.8469796
54.84371064
54.84044179
54.83717306
54.83390444
54.83063593
54.82736753
54.82409923
54.82083102
54.81756291
54.81429489
54.81102696
54.80775911
54.80449134
54.80122365
54.79795603
54.79468849
54.79142101
54.78815359
54.78488624
54.78161894
54.7783517
54.77508451
54.77181737
54.76855028
54.76528323
54.76201622
54.75874925
54.75548232
54.75221542
54.74894856
54.74568172
54.74241492
54.73914813
54.73588138
54.73261464
54.72934793
54.72608124
54.72281456
54.7195479
54.71628126
54.71301462
54.709748
54.7064814
54.7032148
54.69994821
54.69668163
54.69341506
54.6901485
54.68688194
54.68361538
54.68034883
54.67708229
54.67381575
54.67054921
54.66728268
54.66401615
54.66074962
54.65748309
54.65421656
54.65095004
54.64768351
54.64441699
54.64115048
0.5
56.54461215
56.54461215
56.24287713
56.20171735
56.18162738
56.16720846
56.1552075
56.14446408
56.13446596
56.12496036
56.11581406
56.10695334
56.09833542
56.08993391
56.08173115
56.07371411
56.06587224
56.05819633
56.05067795
56.04330917
56.03608245
56.0289906
56.02202681
56.01518459
56.0084578
56.00184069
55.99532783
55.98891413
55.98259483
55.97636549
55.97022192
55.96416026
55.95817684
55.95226828
55.94643138
55.94066317
55.93496084
55.92932177
55.92374348
55.91822366
55.91276013
55.90735081
55.90199378
55.89668718
55.89142929
55.88621846
55.88105312
55.87593181
55.87085311
55.86581568
55.86081827
55.85585964
55.85093866
55.84605422
55.84120527
55.8363908
55.83160984
55.82686148
55.82214483
55.81745905
55.81280332
55.80817686
55.80357892
55.79900878
55.79446573
55.78994912
55.7854583
55.78099263
55.77655153
55.7721344
55.7677407
55.76336987
55.75902139
55.75469475
55.75038947
55.74610505
55.74184105
55.737597
55.73337248
55.72916707
55.72498034
55.7208119
55.71666137
55.71252836
55.70841251
55.70431345
55.70023084
55.69616435
55.69211363
55.68807837
55.68405824
55.68005295
55.67606219
55.67208567
55.66812311
55.66417422
55.66023873
55.65631638
55.6524069
55.64851004
55.64462555
55.64075318
55.63689271
55.63304389
55.6292065
55.62538031
55.6215651
55.61776066
55.61396678
55.61018326
55.60640989
55.60264648
55.59889283
55.59514875
55.59141407
55.58768858
55.58397213
55.58026453
55.57656561
55.57287521
55.56919316
55.5655193
55.56185346
55.5581955
55.55454527
55.55090261
55.54726738
55.54363943
55.54001863
55.53640483
55.5327979
55.52919771
55.52560413
55.52201702
55.51843627
55.51486175
55.51129334
55.50773093
55.50417439
55.50062361
55.49707848
55.49353889
55.49000474
55.48647591
55.48295231
55.47943383
55.47592037
55.47241184
55.46890814
55.46540917
55.46191485
55.45842508
55.45493978
55.45145885
55.44798221
55.44450978
55.44104147
55.43757721
55.43411692
55.43066051
55.42720792
55.42375906
55.42031387
55.41687227
55.41343419
55.40999956
55.40656832
55.4031404
55.39971573
55.39629424
55.39287589
55.3894606
55.38604831
55.38263897
55.37923251
55.37582889
55.37242804
55.36902991
55.36563444
55.36224159
55.3588513
55.35546352
55.3520782
55.3486953
55.34531476
55.34193653
55.33856058
55.33518686
55.33181532
55.32844591
55.32507861
55.32171336
55.31835012
55.31498886
55.31162953
55.30827211
55.30491654
55.30156279
55.29821082
55.29486061
55.29151212
55.2881653
55.28482013
55.28147658
55.27813461
55.27479419
55.27145529
55.26811788
55.26478193
55.26144741
55.2581143
55.25478255
55.25145216
55.24812308
55.2447953
55.24146879
55.23814352
55.23481946
55.2314966
55.22817491
55.22485436
55.22153494
55.21821661
55.21489937
55.21158318
55.20826803
55.20495389
55.20164075
55.19832858
55.19501736
55.19170708
55.18839772
55.18508926
55.18178167
55.17847495
55.17516908
55.17186403
55.1685598
55.16525636
55.1619537
55.15865181
55.15535066
55.15205025
55.14875055
55.14545156
55.14215326
55.13885564
55.13555868
55.13226236
55.12896669
55.12567163
55.12237719
55.11908335
55.11579009
55.11249741
55.10920529
55.10591372
55.1026227
55.0993322
55.09604222
55.09275275
55.08946378
55.0861753
55.0828873
55.07959976
55.07631268
55.07302606
55.06973987
55.06645412
55.06316879
55.05988388
55.05659937
55.05331526
55.05003155
55.04674821
55.04346526
55.04018267
55.03690044
55.03361857
55.03033704
55.02705586
55.02377501
55.02049449
55.01721429
55.0139344
55.01065483
55.00737556
55.0040966
55.00081792
54.99753954
54.99426144
54.99098362
54.98770608
54.9844288
54.98115179
54.97787505
54.97459856
54.97132232
54.96804633
54.96477059
54.9614951
54.95821984
54.95494481
54.95167002
54.94839545
54.94512111
54.94184699
54.93857309
54.93529941
54.93202593
54.92875267
54.92547961
54.92220675
54.91893409
54.91566163
54.91238936
54.90911728
54.90584539
54.90257368
54.89930215
54.8960308
54.89275962
54.88948862
54.88621778
54.88294711
54.8796766
54.87640624
54.87313605
54.869866
54.8665961
54.86332634
54.86005673
54.85678725
54.8535179
54.85024869
54.8469796
54.84371064
54.84044179
54.83717306
54.83390444
54.83063593
54.82736753
54.82409923
54.82083102
54.81756291
54.81429489
54.81102696
54.80775911
54.80449134
54.80122365
54.79795603
54.79468849
54.79142101
54.78815359
54.78488624
54.78161894
54.7783517
54.77508451
54.77181737
54.76855028
54.76528323
54.76201622
54.75874925
54.75548232
54.75221542
54.74894856
54.74568172
54.74241492
54.73914813
54.73588138
54.73261464
54.72934793
54.72608124
54.72281456
54.7195479
54.71628126
54.71301462
54.709748
54.7064814
54.7032148
54.69994821
54.69668163
54.69341506
54.6901485
54.68688194
54.68361538
54.68034883
54.67708229
54.67381575
54.67054921
54.66728268
54.66401615
54.66074962
54.65748309
54.65421656
54.65095004
54.64768351
54.64441699
54.64115048
54.64115048
56.5300304
56.5300304
56.24671301
56.20297277
56.18226262
56.16760297
56.15547919
56.14466353
56.1346191
56.12508206
56.11591349
56.10703644
56.09840621
56.0899952
56.08178493
56.07376184
56.06591501
56.05823497
56.05071309
56.04334132
56.03611201
56.02901792
56.02205214
56.01520815
56.0084798
56.00186129
55.99534716
55.98893231
55.98261197
55.97638167
55.97023724
55.96417478
55.95819063
55.95228139
55.94644387
55.94067507
55.9349722
55.92933263
55.92375387
55.91823362
55.91276968
55.90735998
55.90200258
55.89669565
55.89143744
55.8862263
55.88106068
55.8759391
55.87086014
55.86582248
55.86082483
55.855866
55.85094481
55.84606017
55.84121103
55.83639638
55.83161525
55.82686673
55.82214993
55.817464
55.81280812
55.80818153
55.80358346
55.79901319
55.79447002
55.78995329
55.78546236
55.78099658
55.77655538
55.77213815
55.76774435
55.76337343
55.75902486
55.75469814
55.75039277
55.74610827
55.74184419
55.73760007
55.73337548
55.72916999
55.72498319
55.72081469
55.71666409
55.71253102
55.7084151
55.70431599
55.70023332
55.69616677
55.692116
55.68808068
55.68406051
55.68005517
55.67606436
55.67208779
55.66812518
55.66417625
55.66024071
55.65631832
55.6524088
55.6485119
55.64462737
55.64075497
55.63689445
55.6330456
55.62920817
55.62538194
55.6215667
55.61776223
55.61396832
55.61018476
55.60641136
55.60264792
55.59889424
55.59515013
55.59141542
55.58768991
55.58397343
55.5802658
55.57656686
55.57287643
55.56919435
55.56552046
55.56185461
55.55819663
55.55454637
55.55090369
55.54726843
55.54364046
55.54001964
55.53640582
55.53279887
55.52919866
55.52560506
55.52201794
55.51843717
55.51486263
55.5112942
55.50773177
55.50417521
55.50062442
55.49707927
55.49353967
55.4900055
55.48647666
55.48295304
55.47943454
55.47592107
55.47241253
55.46890881
55.46540983
55.4619155
55.45842571
55.4549404
55.45145945
55.4479828
55.44451036
55.44104205
55.43757777
55.43411747
55.43066105
55.42720845
55.42375958
55.42031438
55.41687276
55.41343467
55.41000004
55.40656879
55.40314085
55.39971617
55.39629468
55.39287632
55.38946102
55.38604872
55.38263937
55.37923291
55.37582928
55.37242842
55.36903028
55.36563481
55.36224195
55.35885165
55.35546387
55.35207854
55.34869563
55.34531508
55.34193685
55.33856089
55.33518716
55.33181561
55.32844621
55.32507889
55.32171364
55.3183504
55.31498913
55.3116298
55.30827236
55.30491679
55.30156304
55.29821107
55.29486085
55.29151235
55.28816553
55.28482036
55.2814768
55.27813482
55.2747944
55.2714555
55.26811808
55.26478213
55.26144761
55.25811449
55.25478274
55.25145234
55.24812326
55.24479548
55.24146896
55.23814368
55.23481963
55.23149676
55.22817507
55.22485452
55.22153509
55.21821676
55.21489951
55.21158332
55.20826817
55.20495403
55.20164088
55.19832871
55.19501749
55.19170721
55.18839784
55.18508938
55.18178179
55.17847507
55.17516919
55.17186415
55.16855991
55.16525647
55.16195381
55.15865191
55.15535076
55.15205034
55.14875065
55.14545166
55.14215335
55.13885573
55.13555876
55.13226245
55.12896677
55.12567172
55.12237728
55.11908343
55.11579017
55.11249749
55.10920537
55.1059138
55.10262277
55.09933227
55.09604229
55.09275282
55.08946385
55.08617537
55.08288736
55.07959982
55.07631275
55.07302612
55.06973993
55.06645418
55.06316885
55.05988393
55.05659943
55.05331532
55.0500316
55.04674827
55.04346531
55.04018272
55.03690049
55.03361861
55.03033709
55.0270559
55.02377505
55.02049453
55.01721433
55.01393445
55.01065487
55.0073756
55.00409664
55.00081796
54.99753958
54.99426148
54.99098366
54.98770611
54.98442884
54.98115183
54.97787508
54.97459859
54.97132235
54.96804637
54.96477063
54.96149513
54.95821987
54.95494484
54.95167005
54.94839548
54.94512114
54.94184702
54.93857312
54.93529943
54.93202596
54.92875269
54.92547963
54.92220677
54.91893411
54.91566165
54.91238938
54.9091173
54.90584541
54.9025737
54.89930217
54.89603082
54.89275964
54.88948864
54.8862178
54.88294712
54.87967661
54.87640626
54.87313606
54.86986601
54.86659611
54.86332635
54.86005674
54.85678726
54.85351791
54.8502487
54.84697961
54.84371064
54.8404418
54.83717307
54.83390445
54.83063594
54.82736754
54.82409923
54.82083103
54.81756292
54.8142949
54.81102696
54.80775911
54.80449135
54.80122365
54.79795604
54.79468849
54.79142101
54.78815359
54.78488624
54.78161894
54.7783517
54.77508451
54.77181737
54.76855028
54.76528323
54.76201622
54.75874925
54.75548232
54.75221542
54.74894856
54.74568172
54.74241492
54.73914814
54.73588138
54.73261465
54.72934793
54.72608124
54.72281456
54.7195479
54.71628126
54.71301462
54.70974801
54.7064814
54.7032148
54.69994821
54.69668163
54.69341506
54.6901485
54.68688194
54.68361538
54.68034883
54.67708229
54.67381575
54.67054921
54.66728268
54.66401615
54.66074962
54.65748309
54.65421656
54.65095004
54.64768351
54.64441699
54.64115048
54.64115048
56.51404581
56.51404581
56.24990143
56.20415995
56.18287863
56.16798924
56.15574662
56.14486047
56.13477058
56.12520254
56.11601192
56.10711869
56.09847624
56.09005577
56.08183803
56.07380892
56.06595716
56.05827301
56.05074767
56.04337294
56.03614107
56.02904474
56.022077
56.01523128
56.00850138
56.00188148
55.9953661
55.98895013
55.98262877
55.97639753
55.97025225
55.964189
55.95820413
55.95229423
55.94645609
55.94068672
55.93498333
55.92934326
55.92376404
55.91824336
55.91277901
55.90736894
55.90201119
55.89670393
55.8914454
55.88623397
55.88106807
55.87594623
55.87086702
55.86582912
55.86083125
55.8558722
55.85095081
55.84606598
55.84121666
55.83640183
55.83162054
55.82687186
55.8221549
55.81746883
55.81281281
55.80818608
55.80358788
55.79901749
55.79447421
55.78995737
55.78546632
55.78100044
55.77655913
55.77214181
55.76774791
55.7633769
55.75902825
55.75470144
55.75039599
55.74611141
55.74184725
55.73760306
55.73337839
55.72917284
55.72498597
55.7208174
55.71666674
55.71253361
55.70841763
55.70431846
55.70023574
55.69616913
55.69211831
55.68808294
55.68406272
55.68005733
55.67606647
55.67208986
55.6681272
55.66417822
55.66024265
55.65632021
55.65241065
55.64851371
55.64462914
55.6407567
55.63689615
55.63304726
55.62920979
55.62538353
55.62156826
55.61776375
55.61396981
55.61018623
55.6064128
55.60264932
55.59889561
55.59515148
55.59141673
55.5876912
55.58397469
55.58026704
55.57656807
55.57287762
55.56919552
55.5655216
55.56185572
55.55819772
55.55454744
55.55090474
55.54726946
55.54364147
55.54002062
55.53640679
55.53279982
55.52919959
55.52560597
55.52201883
55.51843804
55.51486348
55.51129504
55.50773259
55.50417601
55.5006252
55.49708004
55.49354042
55.49000624
55.48647738
55.48295375
55.47943524
55.47592176
55.4724132
55.46890947
55.46541047
55.46191613
55.45842633
55.454941
55.45146004
55.44798338
55.44451093
55.4410426
55.43757832
55.434118
55.43066157
55.42720896
55.42376008
55.42031487
55.41687325
55.41343515
55.4100005
55.40656924
55.4031413
55.39971661
55.39629511
55.39287674
55.38946143
55.38604912
55.38263977
55.3792333
55.37582966
55.37242879
55.36903064
55.36563516
55.3622423
55.35885199
55.3554642
55.35207887
55.34869595
55.34531539
55.34193716
55.33856119
55.33518746
55.3318159
55.32844649
55.32507917
55.32171391
55.31835066
55.31498939
55.31163005
55.30827262
55.30491703
55.30156328
55.2982113
55.29486108
55.29151258
55.28816575
55.28482057
55.28147701
55.27813503
55.2747946
55.2714557
55.26811828
55.26478232
55.26144779
55.25811467
55.25478292
55.25145252
55.24812344
55.24479565
55.24146913
55.23814385
55.23481979
55.23149692
55.22817522
55.22485467
55.22153524
55.21821691
55.21489966
55.21158346
55.2082683
55.20495416
55.20164101
55.19832884
55.19501762
55.19170733
55.18839797
55.1850895
55.18178191
55.17847518
55.17516931
55.17186425
55.16856002
55.16525657
55.16195391
55.15865201
55.15535086
55.15205044
55.14875074
55.14545175
55.14215344
55.13885582
55.13555885
55.13226254
55.12896686
55.1256718
55.12237736
55.11908351
55.11579025
55.11249756
55.10920544
55.10591387
55.10262284
55.09933234
55.09604236
55.09275289
55.08946391
55.08617543
55.08288742
55.07959988
55.07631281
55.07302618
55.06973999
55.06645424
55.0631689
55.05988399
55.05659948
55.05331537
55.05003165
55.04674832
55.04346536
55.04018277
55.03690054
55.03361866
55.03033713
55.02705595
55.0237751
55.02049457
55.01721437
55.01393449
55.01065491
55.00737564
55.00409667
55.000818
54.99753961
54.99426151
54.99098369
54.98770615
54.98442887
54.98115186
54.97787511
54.97459862
54.97132238
54.9680464
54.96477065
54.96149515
54.95821989
54.95494487
54.95167007
54.94839551
54.94512116
54.94184704
54.93857314
54.93529945
54.93202598
54.92875271
54.92547965
54.92220679
54.91893413
54.91566167
54.9123894
54.90911732
54.90584542
54.90257371
54.89930219
54.89603083
54.89275966
54.88948865
54.88621781
54.88294714
54.87967663
54.87640627
54.87313607
54.86986602
54.86659612
54.86332636
54.86005675
54.85678727
54.85351792
54.85024871
54.84697962
54.84371065
54.84044181
54.83717308
54.83390446
54.83063595
54.82736754
54.82409924
54.82083103
54.81756292
54.8142949
54.81102697
54.80775912
54.80449135
54.80122366
54.79795604
54.79468849
54.79142101
54.7881536
54.78488624
54.78161894
54.7783517
54.77508451
54.77181737
54.76855028
54.76528323
54.76201622
54.75874925
54.75548232
54.75221543
54.74894856
54.74568173
54.74241492
54.73914814
54.73588138
54.73261465
54.72934793
54.72608124
54.72281456
54.7195479
54.71628126
54.71301462
54.70974801
54.7064814
54.7032148
54.69994821
54.69668163
54.69341506
54.6901485
54.68688194
54.68361538
54.68034883
54.67708229
54.67381575
54.67054921
54.66728268
54.66401615
54.66074962
54.65748309
54.65421656
54.65095004
54.64768351
54.64441699
54.64115048
54.64115048
56.49813099
56.49813099
56.25278803
56.20529998
56.18348021
56.16836927
56.15601086
56.14505554
56.13492083
56.12532209
56.11610958
56.10720023
56.0985456
56.09011571
56.08189052
56.07385541
56.06599874
56.0583105
56.05078172
56.04340404
56.03616964
56.0290711
56.02210142
56.01525399
56.00852256
56.00190129
55.99538468
55.9889676
55.98264522
55.97641307
55.97026694
55.96420292
55.95821735
55.95230679
55.94646805
55.94069813
55.93499421
55.92935365
55.92377399
55.91825289
55.91278815
55.90737771
55.90201961
55.89671202
55.89145319
55.88624147
55.8810753
55.87595319
55.87087374
55.86583561
55.86083752
55.85587826
55.85095668
55.84607166
55.84122215
55.83640716
55.8316257
55.82687686
55.82215976
55.81747354
55.81281739
55.80819053
55.8035922
55.79902169
55.79447829
55.78996134
55.78547018
55.7810042
55.7765628
55.77214538
55.76775139
55.76338029
55.75903155
55.75470466
55.75039912
55.74611447
55.74185024
55.73760597
55.73338124
55.72917561