# vtk DataFile Version 2.0
FlowField
ASCII
DATASET STRUCTURED_GRID
DIMENSIONS 400 1 200
POINTS 80000 float
0 0 0
0.08 0 0
0.16 0 0
0.24 0 0
0.32 0 0
0.4 0 0
0.48 0 0
0.56 0 0
0.64 0 0
0.72 0 0
0.8 0 0
0.88 0 0
0.96 0 0
1.04 0 0
1.12 0 0
1.2 0 0
1.28 0 0
1.36 0 0
1.44 0 0
1.52 0 0
1.6 0 0
1.68 0 0
1.76 0 0
1.84 0 0
1.92 0 0
2 0 0
2.08 0 0
2.16 0 0
2.24 0 0
2.32 0 0
2.4 0 0
2.48 0 0
2.56 0 0
2.64 0 0
2.72 0 0
2.8 0 0
2.88 0 0
2.96 0 0
3.04 0 0
3.12 0 0
3.2 0 0
3.28 0 0
3.36 0 0
3.44 0 0
3.52 0 0
3.6 0 0
3.68 0 0
3.76 0 0
3.84 0 0
3.92 0 0
4 0 0
4.08 0 0
4.16 0 0
4.24 0 0
4.32 0 0
4.4 0 0
4.48 0 0
4.56 0 0
4.64 0 0
4.72 0 0
4.8 0 0
4.88 0 0
4.96 0 0
5.04 0 0
5.12 0 0
5.2 0 0
5.28 0 0
5.36 0 0
5.44 0 0
5.52 0 0
5.6 0 0
5.68 0 0
5.76 0 0
5.84 0 0
5.92 0 0
6 0 0
6.08 0 0
6.16 0 0
6.24 0 0
6.32 0 0
6.4 0 0
6.48 0 0
6.56 0 0
6.64 0 0
6.72 0 0
6.8 0 0
6.88 0 0
6.96 0 0
7.04 0 0
7.12 0 0
7.2 0 0
7.28 0 0
7.36 0 0
7.44 0 0
7.52 0 0
7.6 0 0
7.68 0 0
7.76 0 0
7.84 0 0
7.92 0 0
8 0 0
8.08 0 0
8.16 0 0
8.24 0 0
8.32 0 0
8.4 0 0
8.48 0 0
8.56 0 0
8.64 0 0
8.72 0 0
8.8 0 0
8.88 0 0
8.96 0 0
9.04 0 0
9.12 0 0
9.2 0 0
9.28 0 0
9.36 0 0
9.44 0 0
9.52 0 0
9.6 0 0
9.68 0 0
9.76 0 0
9.84 0 0
9.92 0 0
10 0 0
10.08 0 0
10.16 0 0
10.24 0 0
10.32 0 0
10.4 0 0
10.48 0 0
10.56 0 0
10.64 0 0
10.72 0 0
10.8 0 0
10.88 0 0
10.96 0 0
11.04 0 0
11.12 0 0
11.2 0 0
11.28 0 0
11.36 0 0
11.44 0 0
11.52 0 0
11.6 0 0
11.68 0 0
11.76 0 0
11.84 0 0
11.92 0 0
12 0 0
12.08 0 0
12.16 0 0
12.24 0 0
12.32 0 0
12.4 0 0
12.48 0 0
12.56 0 0
12.64 0 0
12.72 0 0
12.8 0 0
12.88 0 0
12.96 0 0
13.04 0 0
13.12 0 0
13.2 0 0
13.28 0 0
13.36 0 0
13.44 0 0
13.52 0 0
13.6 0 0
13.68 0 0
13.76 0 0
13.84 0 0
13.92 0 0
14 0 0
14.08 0 0
14.16 0 0
14.24 0 0
14.32 0 0
14.4 0 0
14.48 0 0
14.56 0 0
14.64 0 0
14.72 0 0
14.8 0 0
14.88 0 0
14.96 0 0
15.04 0 0
15.12 0 0
15.2 0 0
15.28 0 0
15.36 0 0
15.44 0 0
15.52 0 0
15.6 0 0
15.68 0 0
15.76 0 0
15.84 0 0
15.92 0 0
16 0 0
16.08 0 0
16.16 0 0
16.24 0 0
16.32 0 0
16.4 0 0
16.48 0 0
16.56 0 0
16.64 0 0
16.72 0 0
16.8 0 0
16.88 0 0
16.96 0 0
17.04 0 0
17.12 0 0
17.2 0 0
17.28 0 0
17.36 0 0
17.44 0 0
17.52 0 0
17.6 0 0
17.68 0 0
17.76 0 0
17.84 0 0
17.92 0 0
18 0 0
18.08 0 0
18.16 0 0
18.24 0 0
18.32 0 0
18.4 0 0
18.48 0 0
18.56 0 0
18.64 0 0
18.72 0 0
18.8 0 0
18.88 0 0
18.96 0 0
19.04 0 0
19.12 0 0
19.2 0 0
19.28 0 0
19.36 0 0
19.44 0 0
19.52 0 0
19.6 0 0
19.68 0 0
19.76 0 0
19.84 0 0
19.92 0 0
20 0 0
20.08 0 0
20.16 0 0
20.24 0 0
20.32 0 0
20.4 0 0
20.48 0 0
20.56 0 0
20.64 0 0
20.72 0 0
20.8 0 0
20.88 0 0
20.96 0 0
21.04 0 0
21.12 0 0
21.2 0 0
21.28 0 0
21.36 0 0
21.44 0 0
21.52 0 0
21.6 0 0
21.68 0 0
21.76 0 0
21.84 0 0
21.92 0 0
22 0 0
22.08 0 0
22.16 0 0
22.24 0 0
22.32 0 0
22.4 0 0
22.48 0 0
22.56 0 0
22.64 0 0
22.72 0 0
22.8 0 0
22.88 0 0
22.96 0 0
23.04 0 0
23.12 0 0
23.2 0 0
23.28 0 0
23.36 0 0
23.44 0 0
23.52 0 0
23.6 0 0
23.68 0 0
23.76 0 0
23.84 0 0
23.92 0 0
24 0 0
24.08 0 0
24.16 0 0
24.24 0 0
24.32 0 0
24.4 0 0
24.48 0 0
24.56 0 0
24.64 0 0
24.72 0 0
24.8 0 0
24.88 0 0
24.96 0 0
25.04 0 0
25.12 0 0
25.2 0 0
25.28 0 0
25.36 0 0
25.44 0 0
25.52 0 0
25.6 0 0
25.68 0 0
25.76 0 0
25.84 0 0
25.92 0 0
26 0 0
26.08 0 0
26.16 0 0
26.24 0 0
26.32 0 0
26.4 0 0
26.48 0 0
26.56 0 0
26.64 0 0
26.72 0 0
26.8 0 0
26.88 0 0
26.96 0 0
27.04 0 0
27.12 0 0
27.2 0 0
27.28 0 0
27.36 0 0
27.44 0 0
27.52 0 0
27.6 0 0
27.68 0 0
27.76 0 0
27.84 0 0
27.92 0 0
28 0 0
28.08 0 0
28.16 0 0
28.24 0 0
28.32 0 0
28.4 0 0
28.48 0 0
28.56 0 0
28.64 0 0
28.72 0 0
28.8 0 0
28.88 0 0
28.96 0 0
29.04 0 0
29.12 0 0
29.2 0 0
29.28 0 0
29.36 0 0
29.44 0 0
29.52 0 0
29.6 0 0
29.68 0 0
29.76 0 0
29.84 0 0
29.92 0 0
30 0 0
30.08 0 0
30.16 0 0
30.24 0 0
30.32 0 0
30.4 0 0
30.48 0 0
30.56 0 0
30.64 0 0
30.72 0 0
30.8 0 0
30.88 0 0
30.96 0 0
31.04 0 0
31.12 0 0
31.2 0 0
31.28 0 0
31.36 0 0
31.44 0 0
31.52 0 0
31.6 0 0
31.68 0 0
31.76 0 0
31.84 0 0
31.92 0 0
0 0.005 0
0.08 0.005 0
0.16 0.005 0
0.24 0.005 0
0.32 0.005 0
0.4 0.005 0
0.48 0.005 0
0.56 0.005 0
0.64 0.005 0
0.72 0.005 0
0.8 0.005 0
0.88 0.005 0
0.96 0.005 0
1.04 0.005 0
1.12 0.005 0
1.2 0.005 0
1.28 0.005 0
1.36 0.005 0
1.44 0.005 0
1.52 0.005 0
1.6 0.005 0
1.68 0.005 0
1.76 0.005 0
1.84 0.005 0
1.92 0.005 0
2 0.005 0
2.08 0.005 0
2.16 0.005 0
2.24 0.005 0
2.32 0.005 0
2.4 0.005 0
2.48 0.005 0
2.56 0.005 0
2.64 0.005 0
2.72 0.005 0
2.8 0.005 0
2.88 0.005 0
2.96 0.005 0
3.04 0.005 0
3.12 0.005 0
3.2 0.005 0
3.28 0.005 0
3.36 0.005 0
3.44 0.005 0
3.52 0.005 0
3.6 0.005 0
3.68 0.005 0
3.76 0.005 0
3.84 0.005 0
3.92 0.005 0
4 0.005 0
4.08 0.005 0
4.16 0.005 0
4.24 0.005 0
4.32 0.005 0
4.4 0.005 0
4.48 0.005 0
4.56 0.005 0
4.64 0.005 0
4.72 0.005 0
4.8 0.005 0
4.88 0.005 0
4.96 0.005 0
5.04 0.005 0
5.12 0.005 0
5.2 0.005 0
5.28 0.005 0
5.36 0.005 0
5.44 0.005 0
5.52 0.005 0
5.6 0.005 0
5.68 0.005 0
5.76 0.005 0
5.84 0.005 0
5.92 0.005 0
6 0.005 0
6.08 0.005 0
6.16 0.005 0
6.24 0.005 0
6.32 0.005 0
6.4 0.005 0
6.48 0.005 0
6.56 0.005 0
6.64 0.005 0
6.72 0.005 0
6.8 0.005 0
6.88 0.005 0
6.96 0.005 0
7.04 0.005 0
7.12 0.005 0
7.2 0.005 0
7.28 0.005 0
7.36 0.005 0
7.44 0.005 0
7.52 0.005 0
7.6 0.005 0
7.68 0.005 0
7.76 0.005 0
7.84 0.005 0
7.92 0.005 0
8 0.005 0
8.08 0.005 0
8.16 0.005 0
8.24 0.005 0
8.32 0.005 0
8.4 0.005 0
8.48 0.005 0
8.56 0.005 0
8.64 0.005 0
8.72 0.005 0
8.8 0.005 0
8.88 0.005 0
8.96 0.005 0
9.04 0.005 0
9.12 0.005 0
9.2 0.005 0
9.28 0.005 0
9.36 0.005 0
9.44 0.005 0
9.52 0.005 0
9.6 0.005 0
9.68 0.005 0
9.76 0.005 0
9.84 0.005 0
9.92 0.005 0
10 0.005 0
10.08 0.005 0
10.16 0.005 0
10.24 0.005 0
10.32 0.005 0
10.4 0.005 0
10.48 0.005 0
10.56 0.005 0
10.64 0.005 0
10.72 0.005 0
10.8 0.005 0
10.88 0.005 0
10.96 0.005 0
11.04 0.005 0
11.12 0.005 0
11.2 0.005 0
11.28 0.005 0
11.36 0.005 0
11.44 0.005 0
11.52 0.005 0
11.6 0.005 0
11.68 0.005 0
11.76 0.005 0
11.84 0.005 0
11.92 0.005 0
12 0.005 0
12.08 0.005 0
12.16 0.005 0
12.24 0.005 0
12.32 0.005 0
12.4 0.005 0
12.48 0.005 0
12.56 0.005 0
12.64 0.005 0
12.72 0.005 0
12.8 0.005 0
12.88 0.005 0
12.96 0.005 0
13.04 0.005 0
13.12 0.005 0
13.2 0.005 0
13.28 0.005 0
13.36 0.005 0
13.44 0.005 0
13.52 0.005 0
13.6 0.005 0
13.68 0.005 0
13.76 0.005 0
13.84 0.005 0
13.92 0.005 0
14 0.005 0
14.08 0.005 0
14.16 0.005 0
14.24 0.005 0
14.32 0.005 0
14.4 0.005 0
14.48 0.005 0
14.56 0.005 0
14.64 0.005 0
14.72 0.005 0
14.8 0.005 0
14.88 0.005 0
14.96 0.005 0
15.04 0.005 0
15.12 0.005 0
15.2 0.005 0
15.28 0.005 0
15.36 0.005 0
15.44 0.005 0
15.52 0.005 0
15.6 0.005 0
15.68 0.005 0
15.76 0.005 0
15.84 0.005 0
15.92 0.005 0
16 0.005 0
16.08 0.005 0
16.16 0.005 0
16.24 0.005 0
16.32 0.005 0
16.4 0.005 0
16.48 0.005 0
16.56 0.005 0
16.64 0.005 0
16.72 0.005 0
16.8 0.005 0
16.88 0.005 0
16.96 0.005 0
17.04 0.005 0
17.12 0.005 0
17.2 0.005 0
17.28 0.005 0
17.36 0.005 0
17.44 0.005 0
17.52 0.005 0
17.6 0.005 0
17.68 0.005 0
17.76 0.005 0
17.84 0.005 0
17.92 0.005 0
18 0.005 0
18.08 0.005 0
18.16 0.005 0
18.24 0.005 0
18.32 0.005 0
18.4 0.005 0
18.48 0.005 0
18.56 0.005 0
18.64 0.005 0
18.72 0.005 0
18.8 0.005 0
18.88 0.005 0
18.96 0.005 0
19.04 0.005 0
19.12 0.005 0
19.2 0.005 0
19.28 0.005 0
19.36 0.005 0
19.44 0.005 0
19.52 0.005 0
19.6 0.005 0
19.68 0.005 0
19.76 0.005 0
19.84 0.005 0
19.92 0.005 0
20 0.005 0
20.08 0.005 0
20.16 0.005 0
20.24 0.005 0
20.32 0.005 0
20.4 0.005 0
20.48 0.005 0
20.56 0.005 0
20.64 0.005 0
20.72 0.005 0
20.8 0.005 0
20.88 0.005 0
20.96 0.005 0
21.04 0.005 0
21.12 0.005 0
21.2 0.005 0
21.28 0.005 0
21.36 0.005 0
21.44 0.005 0
21.52 0.005 0
21.6 0.005 0
21.68 0.005 0
21.76 0.005 0
21.84 0.005 0
21.92 0.005 0
22 0.005 0
22.08 0.005 0
22.16 0.005 0
22.24 0.005 0
22.32 0.005 0
22.4 0.005 0
22.48 0.005 0
22.56 0.005 0
22.64 0.005 0
22.72 0.005 0
22.8 0.005 0
22.88 0.005 0
22.96 0.005 0
23.04 0.005 0
23.12 0.005 0
23.2 0.005 0
23.28 0.005 0
23.36 0.005 0
23.44 0.005 0
23.52 0.005 0
23.6 0.005 0
23.68 0.005 0
23.76 0.005 0
23.84 0.005 0
23.92 0.005 0
24 0.005 0
24.08 0.005 0
24.16 0.005 0
24.24 0.005 0
24.32 0.005 0
24.4 0.005 0
24.48 0.005 0
24.56 0.005 0
24.64 0.005 0
24.72 0.005 0
24.8 0.005 0
24.88 0.005 0
24.96 0.005 0
25.04 0.005 0
25.12 0.005 0
25.2 0.005 0
25.28 0.005 0
25.36 0.005 0
25.44 0.005 0
25.52 0.005 0
25.6 0.005 0
25.68 0.005 0
25.76 0.005 0
25.84 0.005 0
25.92 0.005 0
26 0.005 0
26.08 0.005 0
26.16 0.005 0
26.24 0.005 0
26.32 0.005 0
26.4 0.005 0
26.48 0.005 0
26.56 0.005 0
26.64 0.005 0
26.72 0.005 0
26.8 0.005 0
26.88 0.005 0
26.96 0.005 0
27.04 0.005 0
27.12 0.005 0
27.2 0.005 0
27.28 0.005 0
27.36 0.005 0
27.44 0.005 0
27.52 0.005 0
27.6 0.005 0
27.68 0.005 0
27.76 0.005 0
27.84 0.005 0
27.92 0.005 0
28 0.005 0
28.08 0.005 0
28.16 0.005 0
28.24 0.005 0
28.32 0.005 0
28.4 0.005 0
28.48 0.005 0
28.56 0.005 0
28.64 0.005 0
28.72 0.005 0
28.8 0.005 0
28.88 0.005 0
28.96 0.005 0
29.04 0.005 0
29.12 0.005 0
29.2 0.005 0
29.28 0.005 0
29.36 0.005 0
29.44 0.005 0
29.52 0.005 0
29.6 0.005 0
29.68 0.005 0
29.76 0.005 0
29.84 0.005 0
29.92 0.005 0
30 0.005 0
30.08 0.005 0
30.16 0.005 0
30.24 0.005 0
30.32 0.005 0
30.4 0.005 0
30.48 0.005 0
30.56 0.005 0
30.64 0.005 0
30.72 0.005 0
30.8 0.005 0
30.88 0.005 0
30.96 0.005 0
31.04 0.005 0
31.12 0.005 0
31.2 0.005 0
31.28 0.005 0
31.36 0.005 0
31.44 0.005 0
31.52 0.005 0
31.6 0.005 0
31.68 0.005 0
31.76 0.005 0
31.84 0.005 0
31.92 0.005 0
0 0.01 0
0.08 0.01 0
0.16 0.01 0
0.24 0.01 0
0.32 0.01 0
0.4 0.01 0
0.48 0.01 0
0.56 0.01 0
0.64 0.01 0
0.72 0.01 0
0.8 0.01 0
0.88 0.01 0
0.96 0.01 0
1.04 0.01 0
1.12 0.01 0
1.2 0.01 0
1.28 0.01 0
1.36 0.01 0
1.44 0.01 0
1.52 0.01 0
1.6 0.01 0
1.68 0.01 0
1.76 0.01 0
1.84 0.01 0
1.92 0.01 0
2 0.01 0
2.08 0.01 0
2.16 0.01 0
2.24 0.01 0
2.32 0.01 0
2.4 0.01 0
2.48 0.01 0
2.56 0.01 0
2.64 0.01 0
2.72 0.01 0
2.8 0.01 0
2.88 0.01 0
2.96 0.01 0
3.04 0.01 0
3.12 0.01 0
3.2 0.01 0
3.28 0.01 0
3.36 0.01 0
3.44 0.01 0
3.52 0.01 0
3.6 0.01 0
3.68 0.01 0
3.76 0.01 0
3.84 0.01 0
3.92 0.01 0
4 0.01 0
4.08 0.01 0
4.16 0.01 0
4.24 0.01 0
4.32 0.01 0
4.4 0.01 0
4.48 0.01 0
4.56 0.01 0
4.64 0.01 0
4.72 0.01 0
4.8 0.01 0
4.88 0.01 0
4.96 0.01 0
5.04 0.01 0
5.12 0.01 0
[...]
POINT_DATA 80000

SCALARS u float 1
LOOKUP_TABLE default
0
-0.1316625699
-0.06826905492
-0.05229578278
-0.04441962163
-0.03957648372
-0.03625936419
-0.03383229936
-0.03197229726
-0.03049559733
-0.02928950784
-0.02828118824
-0.02742167583
-0.02667701867
-0.02602304706
-0.02544214874
-0.02492121118
-0.02445027344
-0.02402162394
-0.02362918544
-0.02326808905
-0.02293437442
-0.02262477578
-0.02233656675
-0.02206744627
-0.02181545337
-0.02157890261
-0.02135633447
-0.0211464766
-0.02094821333
-0.02076056117
-0.02058264905
-0.02041370215
-0.02025302859
-0.02010000831
-0.01995408377
-0.01981475207
-0.01968155833
-0.01955408995
-0.01943197176
-0.01931486176
-0.01920244749
-0.01909444289
-0.01899058549
-0.01889063402
-0.01879436626
-0.01870157718
-0.01861207732
-0.01852569127
-0.01844225641
-0.01836162174
-0.01828364686
-0.01820820102
-0.01813516235
-0.01806441704
-0.01799585873
-0.01792938789
-0.01786491128
-0.01780234143
-0.01774159624
-0.01768259853
-0.01762527569
-0.01756955936
-0.01751538507
-0.01746269202
-0.01741142279
-0.01736152309
-0.01731294159
-0.01726562967
-0.01721954127
-0.0171746327
-0.01713086252
-0.01708819133
-0.01704658171
-0.01700599806
-0.01696640648
-0.01692777467
-0.01689007186
-0.01685326867
-0.01681733707
-0.01678225027
-0.01674798267
-0.01671450975
-0.01668180809
-0.01664985521
-0.01661862958
-0.01658811055
-0.01655827831
-0.01652911381
-0.01650059878
-0.01647271563
-0.01644544745
-0.01641877795
-0.01639269144
-0.01636717283
-0.01634220753
-0.0163177815
-0.01629388116
-0.0162704934
-0.01624760558
-0.01622520543
-0.01620328113
-0.01618182123
-0.01616081463
-0.01614025059
-0.01612011871
-0.01610040888
-0.01608111132
-0.01606221654
-0.01604371531
-0.01602559869
-0.01600785798
-0.01599048473
-0.01597347071
-0.01595680792
-0.01594048857
-0.01592450509
-0.01590885012
-0.01589351644
-0.01587849704
-0.01586378506
-0.0158493738
-0.01583525675
-0.01582142755
-0.01580788001
-0.01579460807
-0.01578160587
-0.01576886769
-0.01575638798
-0.01574416142
-0.01573218292
-0.01572044762
-0.01570895089
-0.01569768836
-0.0156866559
-0.01567584969
-0.0156652662
-0.01565490222
-0.01564475487
-0.01563482156
-0.01562509998
-0.01561558806
-0.01560628401
-0.01559718624
-0.01558829347
-0.01557960459
-0.0155711187
-0.01556283503
-0.01555475287
-0.01554687159
-0.0155391906
-0.01553170935
-0.01552442737
-0.01551734419
-0.01551045931
-0.01550377212
-0.01549728189
-0.01549098775
-0.01548488871
-0.01547898373
-0.01547327167
-0.01546775133
-0.01546242133
-0.01545728011
-0.01545232581
-0.01544755636
-0.01544296952
-0.01543856293
-0.01543433419
-0.01543028083
-0.01542640028
-0.01542268976
-0.0154191462
-0.0154157663
-0.01541254652
-0.01540948322
-0.01540657275
-0.01540381152
-0.01540119596
-0.01539872245
-0.01539638721
-0.01539418623
-0.01539211525
-0.01539016987
-0.01538834563
-0.01538663817
-0.01538504324
-0.01538355676
-0.0153821747
-0.01538089299
-0.01537970745
-0.01537861374
-0.01537760738
-0.01537668389
-0.01537583887
-0.01537506808
-0.01537436754
-0.01537373343
-0.01537316208
-0.01537264985
-0.01537219308
-0.01537178805
-0.01537143104
-0.01537111835
-0.01537084645
-0.015370612
-0.0153704119
-0.01537024331
-0.0153701036
-0.01536999028
-0.01536990096
-0.01536983328
-0.01536978494
-0.01536975367
-0.0153697373
-0.01536973376
-0.0153697412
-0.01536975794
-0.01536978252
-0.01536981365
-0.01536985027
-0.01536989144
-0.01536993634
-0.01536998429
-0.01537003466
-0.01537008692
-0.01537014065
-0.01537019546
-0.01537025107
-0.01537030725
-0.01537036384
-0.01537042073
-0.01537047784
-0.01537053513
-0.01537059255
-0.0153706501
-0.01537070774
-0.01537076547
-0.01537082327
-0.01537088112
-0.01537093902
-0.01537099695
-0.01537105491
-0.0153711129
-0.01537117092
-0.01537122896
-0.01537128703
-0.01537134514
-0.01537140327
-0.01537146144
-0.01537151965
-0.01537157789
-0.01537163616
-0.01537169446
-0.01537175279
-0.01537181116
-0.01537186955
-0.01537192798
-0.01537198643
-0.01537204492
-0.01537210343
-0.01537216198
-0.01537222056
-0.01537227917
-0.01537233781
-0.01537239648
-0.01537245518
-0.01537251391
-0.01537257268
-0.01537263147
-0.0153726903
-0.01537274916
-0.01537280805
-0.01537286696
-0.01537292591
-0.01537298489
-0.01537304391
-0.01537310295
-0.01537316202
-0.01537322112
-0.01537328026
-0.01537333942
-0.01537339862
-0.01537345784
-0.0153735171
-0.01537357639
-0.01537363571
-0.01537369506
-0.01537375444
-0.01537381385
-0.01537387329
-0.01537393276
-0.01537399226
-0.0153740518
-0.01537411136
-0.01537417096
-0.01537423058
-0.01537429024
-0.01537434993
-0.01537440964
-0.01537446939
-0.01537452917
-0.01537458898
-0.01537464882
-0.0153747087
-0.0153747686
-0.01537482853
-0.0153748885
-0.01537494849
-0.01537500852
-0.01537506858
-0.01537512866
-0.01537518878
-0.01537524893
-0.01537530911
-0.01537536932
-0.01537542957
-0.01537548984
-0.01537555014
-0.01537561048
-0.01537567084
-0.01537573124
-0.01537579167
-0.01537585213
-0.01537591262
-0.01537597314
-0.01537603369
-0.01537609427
-0.01537615489
-0.01537621553
-0.01537627621
-0.01537633692
-0.01537639765
-0.01537645842
-0.01537651922
-0.01537658006
-0.01537664092
-0.01537670181
-0.01537676273
-0.0153768237
-0.01537688468
-0.0153769457
-0.01537700674
-0.01537706783
-0.01537712894
-0.01537719009
-0.01537725125
-0.01537731247
-0.0153773737
-0.01537743498
-0.01537749626
-0.01537755762
-0.01537761895
-0.01537768038
-0.01537774177
-0.01537780326
-0.0153778647
-0.01537792627
-0.01537798777
-0.01537804941
-0.01537811095
-0.01537817267
-0.01537823425
-0.01537829606
-0.01537835768
-0.01537841958
-0.01537848122
-0.01537854322
-0.01537860488
-0.01537866698
-0.01537872865
-0.01537879087
-0.01537885254
-0.01537891487
-0.01537897653
-0.01537903899
-0.01537910062
-0.01537916322
-0.01537922481
-0.01537928755
-0.0153793491
-0.01537941196
-0.0153794735
-0.01537953643
-0.01537959805
-0.01537966092
-0.01537972287
-0.01537978539
-0.01537984821
-0.01537990978
-0.01537997473
-0.01538003398
-0.015380104
-0.01538015718
-0.01538023917
-0.015380272
-0.01538038107
-0.01538027514
-0.01538027514
-0.01538027514
1
0.1316625699
0.06826905492
0.05229578278
0.04441962163
0.03957648372
0.03625936419
0.03383229936
0.03197229726
0.03049559733
0.02928950784
0.02828118824
0.02742167583
0.02667701867
0.02602304706
0.02544214874
0.02492121118
0.02445027344
0.02402162394
0.02362918544
0.02326808905
0.02293437442
0.02262477578
0.02233656675
0.02206744627
0.02181545337
0.02157890261
0.02135633447
0.0211464766
0.02094821333
0.02076056117
0.02058264905
0.02041370215
0.02025302859
0.02010000831
0.01995408377
0.01981475207
0.01968155833
0.01955408995
0.01943197176
0.01931486176
0.01920244749
0.01909444289
0.01899058549
0.01889063402
0.01879436626
0.01870157718
0.01861207732
0.01852569127
0.01844225641
0.01836162174
0.01828364686
0.01820820102
0.01813516235
0.01806441704
0.01799585873
0.01792938789
0.01786491128
0.01780234143
0.01774159624
0.01768259853
0.01762527569
0.01756955936
0.01751538507
0.01746269202
0.01741142279
0.01736152309
0.01731294159
0.01726562967
0.01721954127
0.0171746327
0.01713086252
0.01708819133
0.01704658171
0.01700599806
0.01696640648
0.01692777467
0.01689007186
0.01685326867
0.01681733707
0.01678225027
0.01674798267
0.01671450975
0.01668180809
0.01664985521
0.01661862958
0.01658811055
0.01655827831
0.01652911381
0.01650059878
0.01647271563
0.01644544745
0.01641877795
0.01639269144
0.01636717283
0.01634220753
0.0163177815
0.01629388116
0.0162704934
0.01624760558
0.01622520543
0.01620328113
0.01618182123
0.01616081463
0.01614025059
0.01612011871
0.01610040888
0.01608111132
0.01606221654
0.01604371531
0.01602559869
0.01600785798
0.01599048473
0.01597347071
0.01595680792
0.01594048857
0.01592450509
0.01590885012
0.01589351644
0.01587849704
0.01586378506
0.0158493738
0.01583525675
0.01582142755
0.01580788001
0.01579460807
0.01578160587
0.01576886769
0.01575638798
0.01574416142
0.01573218292
0.01572044762
0.01570895089
0.01569768836
0.0156866559
0.01567584969
0.0156652662
0.01565490222
0.01564475487
0.01563482156
0.01562509998
0.01561558806
0.01560628401
0.01559718624
0.01558829347
0.01557960459
0.0155711187
0.01556283503
0.01555475287
0.01554687159
0.0155391906
0.01553170935
0.01552442737
0.01551734419
0.01551045931
0.01550377212
0.01549728189
0.01549098775
0.01548488871
0.01547898373
0.01547327167
0.01546775133
0.01546242133
0.01545728011
0.01545232581
0.01544755636
0.01544296952
0.01543856293
0.01543433419
0.01543028083
0.01542640028
0.01542268976
0.0154191462
0.0154157663
0.01541254652
0.01540948322
0.01540657275
0.01540381152
0.01540119596
0.01539872245
0.01539638721
0.01539418623
0.01539211525
0.01539016987
0.01538834563
0.01538663817
0.01538504324
0.01538355676
0.0153821747
0.01538089299
0.01537970745
0.01537861374
0.01537760738
0.01537668389
0.01537583887
0.01537506808
0.01537436754
0.01537373343
0.01537316208
0.01537264985
0.01537219308
0.01537178805
0.01537143104
0.01537111835
0.01537084645
0.015370612
0.0153704119
0.01537024331
0.0153701036
0.01536999028
0.01536990096
0.01536983328
0.01536978494
0.01536975367
0.0153697373
0.01536973376
0.0153697412
0.01536975794
0.01536978252
0.01536981365
0.01536985027
0.01536989144
0.01536993634
0.01536998429
0.01537003466
0.01537008692
0.01537014065
0.01537019546
0.01537025107
0.01537030725
0.01537036384
0.01537042073
0.01537047784
0.01537053513
0.01537059255
0.0153706501
0.01537070774
0.01537076547
0.01537082327
0.01537088112
0.01537093902
0.01537099695
0.01537105491
0.0153711129
0.01537117092
0.01537122896
0.01537128703
0.01537134514
0.01537140327
0.01537146144
0.01537151965
0.01537157789
0.01537163616
0.01537169446
0.01537175279
0.01537181116
0.01537186955
0.01537192798
0.01537198643
0.01537204492
0.01537210343
0.01537216198
0.01537222056
0.01537227917
0.01537233781
0.01537239648
0.01537245518
0.01537251391
0.01537257268
0.01537263147
0.0153726903
0.01537274916
0.01537280805
0.01537286696
0.01537292591
0.01537298489
0.01537304391
0.01537310295
0.01537316202
0.01537322112
0.01537328026
0.01537333942
0.01537339862
0.01537345784
0.0153735171
0.01537357639
0.01537363571
0.01537369506
0.01537375444
0.01537381385
0.01537387329
0.01537393276
0.01537399226
0.0153740518
0.01537411136
0.01537417096
0.01537423058
0.01537429024
0.01537434993
0.01537440964
0.01537446939
0.01537452917
0.01537458898
0.01537464882
0.0153747087
0.0153747686
0.01537482853
0.0153748885
0.01537494849
0.01537500852
0.01537506858
0.01537512866
0.01537518878
0.01537524893
0.01537530911
0.01537536932
0.01537542957
0.01537548984
0.01537555014
0.01537561048
0.01537567084
0.01537573124
0.01537579167
0.01537585213
0.01537591262
0.01537597314
0.01537603369
0.01537609427
0.01537615489
0.01537621553
0.01537627621
0.01537633692
0.01537639765
0.01537645842
0.01537651922
0.01537658006
0.01537664092
0.01537670181
0.01537676273
0.0153768237
0.01537688468
0.0153769457
0.01537700674
0.01537706783
0.01537712894
0.01537719009
0.01537725125
0.01537731247
0.0153773737
0.01537743498
0.01537749626
0.01537755762
0.01537761895
0.01537768038
0.01537774177
0.01537780326
0.0153778647
0.01537792627
0.01537798777
0.01537804941
0.01537811095
0.01537817267
0.01537823425
0.01537829606
0.01537835768
0.01537841958
0.01537848122
0.01537854322
0.01537860488
0.01537866698
0.01537872865
0.01537879087
0.01537885254
0.01537891487
0.01537897653
0.01537903899
0.01537910062
0.01537916322
0.01537922481
0.01537928755
0.0153793491
0.01537941196
0.0153794735
0.01537953643
0.01537959805
0.01537966092
0.01537972287
0.01537978539
0.01537984821
0.01537990978
0.01537997473
0.01538003398
0.015380104
0.01538015718
0.01538023917
0.015380272
0.01538038107
0.01538027514
0.01538027514
0.01538027514
1
0.3448836721
0.2006672836
0.1549666786
0.1318939252
0.1175978858
0.1077671583
0.1005572007
0.09502413905
0.09062819167
0.08703699838
0.08403500513
0.08147689713
0.0792616584
0.07731722833
0.07559101031
0.07404379807
0.07264578513
0.07137388682
0.07020991012
0.06913928282
0.06815015744
0.0672327702
0.06637897573
0.06558190441
0.06483570623
0.06413535682
0.0634765081
0.06285537207
0.06226862898
0.06171335388
0.06118695736
0.06068713708
0.06021183785
0.05975921839
0.05932762355
0.05891556082
0.05852168045
0.0581447584
0.05778368186
0.0574374366
0.05710509616
0.05678581239
0.05647880725
0.05618336558
0.05589882877
0.05562458928
0.05536008562
0.0551047981
0.0548582449
0.05461997871
0.05438958358
0.05416667226
0.0539508837
0.05374188087
0.05353934877
0.05334299263
0.0531525363
0.05296772081
0.05278830301
0.05261405438
0.05244475995
0.05228021726
0.0521202355
0.05196463462
0.05181324461
0.05166590479
0.05152246316
0.05138277582
0.05124670639
0.05111412557
0.05098491064
0.05085894504
0.05073611797
0.05061632404
0.05049946292
0.05038543904
0.05027416127
0.0501655427
0.05005950033
0.04995595489
0.0498548306
0.04975605494
0.04965955853
0.04956527488
0.04947314028
0.04938309361
0.04929507622
0.0492090318
0.04912490623
0.04904264749
0.04896220552
0.04888353214
0.04880658095
0.04873130724
0.0486576679
0.04858562134
0.04851512743
0.04844614739
0.04837864377
0.04831258035
0.04824792212
0.0481846352
0.04812268679
0.04806204513
0.04800267942
0.04794455981
0.04788765734
0.04783194396
0.04777739239
0.04772397619
0.04767166965
0.04762044776
0.04757028619
0.04752116132
0.04747305014
0.04742593026
0.0473797799
0.0473345778
0.0472903032
0.04724693587
0.04720445608
0.04716284459
0.04712208268
0.04708215212
0.04704303516
0.04700471451
0.04696717341
0.0469303957
0.04689436582
0.04685906894
0.04682449091
0.04679061834
0.04675743856
0.0467249397
0.04669311073
0.04666194158
0.04663142308
0.046601547
0.04657230597
0.04654369342
0.04651570351
0.04648833113
0.04646157189
0.04643542207
0.04640987861
0.04638493888
0.04636060064
0.04633686183
0.04631372054
0.04629117499
0.04626922353
0.04624786464
0.04622709675
0.04620691817
0.04618732689
0.0461683205
0.04614989619
0.04613205082
0.04611478104
0.04609808323
0.04608195349
0.0460663874
0.04605137992
0.04603692526
0.046023017
0.04600964822
0.04599681171
0.0459845001
0.04597270579
0.04596142079
0.04595063648
0.04594034351
0.04593053177
0.04592119061
0.04591230913
0.04590387642
0.04589588168
0.04588831415
0.04588116282
0.04587441623
0.04586806225
0.04586208816
0.04585648086
0.04585122718
0.04584631421
0.04584172943
0.04583746067
0.0458334959
0.04582982294
0.04582642927
0.04582330197
0.04582042784
0.0458177937
0.04581538669
0.04581319446
0.0458112053
0.04580940801
0.04580779172
0.04580634567
0.045805059
0.04580392081
0.04580292018
0.0458020464
0.04580128921
0.04580063898
0.0458000868
0.04579962444
0.04579924424
0.04579893895
0.04579870158
0.04579852527
0.04579840333
0.04579832921
0.04579829671
0.0457983
0.04579833379
0.04579839339
0.04579847469
0.04579857415
0.04579868873
0.04579881582
0.04579895317
0.04579909881
0.04579925105
0.04579940844
0.04579956975
0.04579973398
0.04579990035
0.04580006825
0.04580023726
0.04580040708
0.04580057751
0.04580074841
0.04580091971
0.04580109133
0.04580126324
0.04580143537
0.0458016077
0.04580178017
0.04580195277
0.04580212547
0.04580229826
0.04580247113
0.04580264409
0.04580281712
0.04580299025
0.04580316347
0.04580333678
0.0458035102
0.04580368371
0.04580385732
0.04580403103
0.04580420484
0.04580437873
0.04580455272
0.0458047268
0.04580490096
0.04580507522
0.04580524957
0.045805424
0.04580559853
0.04580577316
0.04580594787
0.04580612267
0.04580629757
0.04580647256
0.04580664764
0.04580682282
0.04580699808
0.04580717344
0.04580734889
0.04580752443
0.04580770006
0.04580787578
0.04580805159
0.0458082275
0.04580840349
0.04580857958
0.04580875576
0.04580893202
0.04580910838
0.04580928483
0.04580946138
0.04580963801
0.04580981473
0.04580999155
0.04581016845
0.04581034545
0.04581052254
0.04581069972
0.04581087699
0.04581105435
0.0458112318
0.04581140935
0.04581158698
0.04581176471
0.04581194253
0.04581212043
0.04581229843
0.04581247652
0.04581265471
0.04581283298
0.04581301134
0.0458131898
0.04581336834
0.04581354698
0.04581372571
0.04581390453
0.04581408344
0.04581426245
0.04581444154
0.04581462073
0.0458148
0.04581497937
0.04581515883
0.04581533838
0.04581551803
0.04581569776
0.04581587759
0.04581605751
0.04581623752
0.04581641762
0.04581659782
0.0458167781
0.04581695848
0.04581713895
0.04581731951
0.04581750016
0.04581768091
0.04581786174
0.04581804268
0.04581822369
0.04581840481
0.04581858601
0.04581876732
0.0458189487
0.04581913019
0.04581931175
0.04581949343
0.04581967518
0.04581985705
0.04582003897
0.04582022103
0.04582040314
0.04582058539
0.04582076767
0.04582095012
0.04582113257
0.04582131522
0.04582149785
0.04582168069
0.04582186349
0.04582204653
0.04582222949
0.04582241275
0.04582259587
0.04582277934
0.04582296261
0.0458231463
0.04582332971
0.04582351364
0.04582369718
0.04582388135
0.045824065
0.04582424943
0.04582443317
0.04582461788
0.04582480169
0.0458249867
0.04582517055
0.04582535588
0.04582553973
0.04582572541
0.04582590923
0.04582609529
0.04582627903
0.04582646548
0.04582664913
0.04582683597
0.04582701952
0.04582720671
0.04582739025
0.04582757763
0.04582776141
0.04582794865
0.0458281333
0.04582831964
0.04582850666
0.0458286905
0.0458288833
0.04582906097
0.04582926749
0.04582942909
0.04582966786
0.04582977516
0.04583008469
0.04582982537
0.04582982537
0.04582982537
1
0.5187652189
0.3274012509
0.2553468554
0.2178478573
0.1944027562
0.1782108569
0.1663062609
0.1571571939
0.1498825996
0.1439377108
0.1389680427
0.1347339643
0.1310685129
0.1278523592
0.1249982754
0.1224411676
0.1201315117
0.1180309355
0.1161091947
0.1143420666
0.1127098638
0.1111963685
0.1097880577
0.1084735329
0.1072430929
0.1060884099
0.105002281
0.1039784341
0.1030113745
0.1020962632
0.1012288176
0.1004052312
0.09962210696
0.09887640217
0.09816538231
0.09748658205
0.09683777222
0.09621693164
0.09562222297
0.09505197192
0.09450464921
0.09397885501
0.09347330527
0.09298681985
0.09251831206
0.09206677944
0.09163129568
0.09121100341
0.09080510784
0.09041287108
0.09003360706
0.08966667706
0.08931148561
0.08896747685
0.08863413129
0.08831096283
0.0879975161
0.08769336402
0.08739810567
0.08711136424
0.08683278525
0.08656203491
0.08629879858
0.08604277942
0.08579369715
0.08555128682
0.08531529786
0.08508549299
0.08486164743
0.084643548
0.08443099237
0.0842237884
0.08402175343
0.08382471373
0.08363250392
0.08344496643
0.08326195107
0.08308331456
0.08290892009
0.082738637
0.08257234035
0.08240991066
0.08225123351
0.08209619935
0.08194470315
0.08179664418
0.08165192577
0.08151045512
0.08137214302
0.08123690374
0.08110465479
0.08097531675
0.08084881317
0.08072507036
0.08060401727
0.08048558539
0.08036970856
0.0802563229
0.08014536669
0.08003678027
0.07993050593
0.07982648787
0.07972467205
0.07962500613
0.07952743937
0.07943192261
0.07933840815
0.07924684975
0.07915720253
0.0790694229
0.07898346852
0.0788992982
0.07881687191
0.07873615071
0.07865709674
0.07857967315
0.07850384407
0.0784295745
0.0783568303
0.0782855782
0.07821578574
0.07814742135
0.07808045426
0.07801485456
0.07795059312
0.07788764166
0.07782597276
0.07776556001
0.07770637808
0.0776484028
0.07759161118
0.07753598147
0.07748149317
0.0774281271
0.07737586551
0.07732469218
0.07727459241
0.07722555301
0.0771775622
0.07713060945
0.07708468547
0.07703978212
0.07699589241
0.07695301045
0.0769111313
0.07687025076
0.07683036513
0.07679147104
0.0767535653
0.07671664495
0.07668070718
0.0766457493
0.07661176854
0.07657876185
0.07654672562
0.07651565557
0.07648554679
0.07645639384
0.07642819085
0.07640093154
0.07637460903
0.07634921563
0.07632474256
0.07630117988
0.07627851664
0.07625674112
0.07623584117
0.07621580426
0.0761966175
0.07617826726
0.07616073892
0.07614401664
0.07612808345
0.07611292159
0.07609851292
0.0760848393
0.07607188275
0.07605962523
0.07604804828
0.07603713267
0.07602685816
0.07601720362
0.0760081474
0.07599966782
0.07599174365
0.07598435424
0.07597747946
0.07597109933
0.07596519362
0.07595974154
0.07595472175
0.07595011258
0.07594589243
0.07594204031
0.07593853605
0.0759353605
0.07593249527
0.07592992246
0.07592762432
0.07592558303
0.07592378069
0.07592219949
0.07592082204
0.07591963172
0.07591861298
0.07591775137
0.07591703356
0.07591644709
0.07591598015
0.07591562133
0.07591535948
0.07591518373