# vtk DataFile Version 2.0
FlowField
ASCII
DATASET STRUCTURED_GRID
DIMENSIONS 400 1 200
POINTS 80000 float
0 0 0
0.08 0 0
0.16 0 0
0.24 0 0
0.32 0 0
0.4 0 0
0.48 0 0
0.56 0 0
0.64 0 0
0.72 0 0
0.8 0 0
0.88 0 0
0.96 0 0
1.04 0 0
1.12 0 0
1.2 0 0
1.28 0 0
1.36 0 0
1.44 0 0
1.52 0 0
1.6 0 0
1.68 0 0
1.76 0 0
1.84 0 0
1.92 0 0
2 0 0
2.08 0 0
2.16 0 0
2.24 0 0
2.32 0 0
2.4 0 0
2.48 0 0
2.56 0 0
2.64 0 0
2.72 0 0
2.8 0 0
2.88 0 0
2.96 0 0
3.04 0 0
3.12 0 0
3.2 0 0
3.28 0 0
3.36 0 0
3.44 0 0
3.52 0 0
3.6 0 0
3.68 0 0
3.76 0 0
3.84 0 0
3.92 0 0
4 0 0
4.08 0 0
4.16 0 0
4.24 0 0
4.32 0 0
4.4 0 0
4.48 0 0
4.56 0 0
4.64 0 0
4.72 0 0
4.8 0 0
4.88 0 0
4.96 0 0
5.04 0 0
5.12 0 0
5.2 0 0
5.28 0 0
5.36 0 0
5.44 0 0
5.52 0 0
5.6 0 0
5.68 0 0
5.76 0 0
5.84 0 0
5.92 0 0
6 0 0
6.08 0 0
6.16 0 0
6.24 0 0
6.32 0 0
6.4 0 0
6.48 0 0
6.56 0 0
6.64 0 0
6.72 0 0
6.8 0 0
6.88 0 0
6.96 0 0
7.04 0 0
7.12 0 0
7.2 0 0
7.28 0 0
7.36 0 0
7.44 0 0
7.52 0 0
7.6 0 0
7.68 0 0
7.76 0 0
7.84 0 0
7.92 0 0
8 0 0
8.08 0 0
8.16 0 0
8.24 0 0
8.32 0 0
8.4 0 0
8.48 0 0
8.56 0 0
8.64 0 0
8.72 0 0
8.8 0 0
8.88 0 0
8.96 0 0
9.04 0 0
9.12 0 0
9.2 0 0
9.28 0 0
9.36 0 0
9.44 0 0
9.52 0 0
9.6 0 0
9.68 0 0
9.76 0 0
9.84 0 0
9.92 0 0
10 0 0
10.08 0 0
10.16 0 0
10.24 0 0
10.32 0 0
10.4 0 0
10.48 0 0
10.56 0 0
10.64 0 0
10.72 0 0
10.8 0 0
10.88 0 0
10.96 0 0
11.04 0 0
11.12 0 0
11.2 0 0
11.28 0 0
11.36 0 0
11.44 0 0
11.52 0 0
11.6 0 0
11.68 0 0
11.76 0 0
11.84 0 0
11.92 0 0
12 0 0
12.08 0 0
12.16 0 0
12.24 0 0
12.32 0 0
12.4 0 0
12.48 0 0
12.56 0 0
12.64 0 0
12.72 0 0
12.8 0 0
12.88 0 0
12.96 0 0
13.04 0 0
13.12 0 0
13.2 0 0
13.28 0 0
13.36 0 0
13.44 0 0
13.52 0 0
13.6 0 0
13.68 0 0
13.76 0 0
13.84 0 0
13.92 0 0
14 0 0
14.08 0 0
14.16 0 0
14.24 0 0
14.32 0 0
14.4 0 0
14.48 0 0
14.56 0 0
14.64 0 0
14.72 0 0
14.8 0 0
14.88 0 0
14.96 0 0
15.04 0 0
15.12 0 0
15.2 0 0
15.28 0 0
15.36 0 0
15.44 0 0
15.52 0 0
15.6 0 0
15.68 0 0
15.76 0 0
15.84 0 0
15.92 0 0
16 0 0
16.08 0 0
16.16 0 0
16.24 0 0
16.32 0 0
16.4 0 0
16.48 0 0
16.56 0 0
16.64 0 0
16.72 0 0
16.8 0 0
16.88 0 0
16.96 0 0
17.04 0 0
17.12 0 0
17.2 0 0
17.28 0 0
17.36 0 0
17.44 0 0
17.52 0 0
17.6 0 0
17.68 0 0
17.76 0 0
17.84 0 0
17.92 0 0
18 0 0
18.08 0 0
18.16 0 0
18.24 0 0
18.32 0 0
18.4 0 0
18.48 0 0
18.56 0 0
18.64 0 0
18.72 0 0
18.8 0 0
18.88 0 0
18.96 0 0
19.04 0 0
19.12 0 0
19.2 0 0
19.28 0 0
19.36 0 0
19.44 0 0
19.52 0 0
19.6 0 0
19.68 0 0
19.76 0 0
19.84 0 0
19.92 0 0
20 0 0
20.08 0 0
20.16 0 0
20.24 0 0
20.32 0 0
20.4 0 0
20.48 0 0
20.56 0 0
20.64 0 0
20.72 0 0
20.8 0 0
20.88 0 0
20.96 0 0
21.04 0 0
21.12 0 0
21.2 0 0
21.28 0 0
21.36 0 0
21.44 0 0
21.52 0 0
21.6 0 0
21.68 0 0
21.76 0 0
21.84 0 0
21.92 0 0
22 0 0
22.08 0 0
22.16 0 0
22.24 0 0
22.32 0 0
22.4 0 0
22.48 0 0
22.56 0 0
22.64 0 0
22.72 0 0
22.8 0 0
22.88 0 0
22.96 0 0
23.04 0 0
23.12 0 0
23.2 0 0
23.28 0 0
23.36 0 0
23.44 0 0
23.52 0 0
23.6 0 0
23.68 0 0
23.76 0 0
23.84 0 0
23.92 0 0
24 0 0
24.08 0 0
24.16 0 0
24.24 0 0
24.32 0 0
24.4 0 0
24.48 0 0
24.56 0 0
24.64 0 0
24.72 0 0
24.8 0 0
24.88 0 0
24.96 0 0
25.04 0 0
25.12 0 0
25.2 0 0
25.28 0 0
25.36 0 0
25.44 0 0
25.52 0 0
25.6 0 0
25.68 0 0
25.76 0 0
25.84 0 0
25.92 0 0
26 0 0
26.08 0 0
26.16 0 0
26.24 0 0
26.32 0 0
26.4 0 0
26.48 0 0
26.56 0 0
26.64 0 0
26.72 0 0
26.8 0 0
26.88 0 0
26.96 0 0
27.04 0 0
27.12 0 0
27.2 0 0
27.28 0 0
27.36 0 0
27.44 0 0
27.52 0 0
27.6 0 0
27.68 0 0
27.76 0 0
27.84 0 0
27.92 0 0
28 0 0
28.08 0 0
28.16 0 0
28.24 0 0
28.32 0 0
28.4 0 0
28.48 0 0
28.56 0 0
28.64 0 0
28.72 0 0
28.8 0 0
28.88 0 0
28.96 0 0
29.04 0 0
29.12 0 0
29.2 0 0
29.28 0 0
29.36 0 0
29.44 0 0
29.52 0 0
29.6 0 0
29.68 0 0
29.76 0 0
29.84 0 0
29.92 0 0
30 0 0
30.08 0 0
30.16 0 0
30.24 0 0
30.32 0 0
30.4 0 0
30.48 0 0
30.56 0 0
30.64 0 0
30.72 0 0
30.8 0 0
30.88 0 0
30.96 0 0
31.04 0 0
31.12 0 0
31.2 0 0
31.28 0 0
31.36 0 0
31.44 0 0
31.52 0 0
31.6 0 0
31.68 0 0
31.76 0 0
31.84 0 0
31.92 0 0
0 0.005 0
0.08 0.005 0
0.16 0.005 0
0.24 0.005 0
0.32 0.005 0
0.4 0.005 0
0.48 0.005 0
0.56 0.005 0
0.64 0.005 0
0.72 0.005 0
0.8 0.005 0
0.88 0.005 0
0.96 0.005 0
1.04 0.005 0
1.12 0.005 0
1.2 0.005 0
1.28 0.005 0
1.36 0.005 0
1.44 0.005 0
1.52 0.005 0
1.6 0.005 0
1.68 0.005 0
1.76 0.005 0
1.84 0.005 0
1.92 0.005 0
2 0.005 0
2.08 0.005 0
2.16 0.005 0
2.24 0.005 0
2.32 0.005 0
2.4 0.005 0
2.48 0.005 0
2.56 0.005 0
2.64 0.005 0
2.72 0.005 0
2.8 0.005 0
2.88 0.005 0
2.96 0.005 0
3.04 0.005 0
3.12 0.005 0
3.2 0.005 0
3.28 0.005 0
3.36 0.005 0
3.44 0.005 0
3.52 0.005 0
3.6 0.005 0
3.68 0.005 0
3.76 0.005 0
3.84 0.005 0
3.92 0.005 0
4 0.005 0
4.08 0.005 0
4.16 0.005 0
4.24 0.005 0
4.32 0.005 0
4.4 0.005 0
4.48 0.005 0
4.56 0.005 0
4.64 0.005 0
4.72 0.005 0
4.8 0.005 0
4.88 0.005 0
4.96 0.005 0
5.04 0.005 0
5.12 0.005 0
5.2 0.005 0
5.28 0.005 0
5.36 0.005 0
5.44 0.005 0
5.52 0.005 0
5.6 0.005 0
5.68 0.005 0
5.76 0.005 0
5.84 0.005 0
5.92 0.005 0
6 0.005 0
6.08 0.005 0
6.16 0.005 0
6.24 0.005 0
6.32 0.005 0
6.4 0.005 0
6.48 0.005 0
6.56 0.005 0
6.64 0.005 0
6.72 0.005 0
6.8 0.005 0
6.88 0.005 0
6.96 0.005 0
7.04 0.005 0
7.12 0.005 0
7.2 0.005 0
7.28 0.005 0
7.36 0.005 0
7.44 0.005 0
7.52 0.005 0
7.6 0.005 0
7.68 0.005 0
7.76 0.005 0
7.84 0.005 0
7.92 0.005 0
8 0.005 0
8.08 0.005 0
8.16 0.005 0
8.24 0.005 0
8.32 0.005 0
8.4 0.005 0
8.48 0.005 0
8.56 0.005 0
8.64 0.005 0
8.72 0.005 0
8.8 0.005 0
8.88 0.005 0
8.96 0.005 0
9.04 0.005 0
9.12 0.005 0
9.2 0.005 0
9.28 0.005 0
9.36 0.005 0
9.44 0.005 0
9.52 0.005 0
9.6 0.005 0
9.68 0.005 0
9.76 0.005 0
9.84 0.005 0
9.92 0.005 0
10 0.005 0
10.08 0.005 0
10.16 0.005 0
10.24 0.005 0
10.32 0.005 0
10.4 0.005 0
10.48 0.005 0
10.56 0.005 0
10.64 0.005 0
10.72 0.005 0
10.8 0.005 0
10.88 0.005 0
10.96 0.005 0
11.04 0.005 0
11.12 0.005 0
11.2 0.005 0
11.28 0.005 0
11.36 0.005 0
11.44 0.005 0
11.52 0.005 0
11.6 0.005 0
11.68 0.005 0
11.76 0.005 0
11.84 0.005 0
11.92 0.005 0
12 0.005 0
12.08 0.005 0
12.16 0.005 0
12.24 0.005 0
12.32 0.005 0
12.4 0.005 0
12.48 0.005 0
12.56 0.005 0
12.64 0.005 0
12.72 0.005 0
12.8 0.005 0
12.88 0.005 0
12.96 0.005 0
13.04 0.005 0
13.12 0.005 0
13.2 0.005 0
13.28 0.005 0
13.36 0.005 0
13.44 0.005 0
13.52 0.005 0
13.6 0.005 0
13.68 0.005 0
13.76 0.005 0
13.84 0.005 0
13.92 0.005 0
14 0.005 0
14.08 0.005 0
14.16 0.005 0
14.24 0.005 0
14.32 0.005 0
14.4 0.005 0
14.48 0.005 0
14.56 0.005 0
14.64 0.005 0
14.72 0.005 0
14.8 0.005 0
14.88 0.005 0
14.96 0.005 0
15.04 0.005 0
15.12 0.005 0
15.2 0.005 0
15.28 0.005 0
15.36 0.005 0
15.44 0.005 0
15.52 0.005 0
15.6 0.005 0
15.68 0.005 0
15.76 0.005 0
15.84 0.005 0
15.92 0.005 0
16 0.005 0
16.08 0.005 0
16.16 0.005 0
16.24 0.005 0
16.32 0.005 0
16.4 0.005 0
16.48 0.005 0
16.56 0.005 0
16.64 0.005 0
16.72 0.005 0
16.8 0.005 0
16.88 0.005 0
16.96 0.005 0
17.04 0.005 0
17.12 0.005 0
17.2 0.005 0
17.28 0.005 0
17.36 0.005 0
17.44 0.005 0
17.52 0.005 0
17.6 0.005 0
17.68 0.005 0
17.76 0.005 0
17.84 0.005 0
17.92 0.005 0
18 0.005 0
18.08 0.005 0
18.16 0.005 0
18.24 0.005 0
18.32 0.005 0
18.4 0.005 0
18.48 0.005 0
18.56 0.005 0
18.64 0.005 0
18.72 0.005 0
18.8 0.005 0
18.88 0.005 0
18.96 0.005 0
19.04 0.005 0
19.12 0.005 0
19.2 0.005 0
19.28 0.005 0
19.36 0.005 0
19.44 0.005 0
19.52 0.005 0
19.6 0.005 0
19.68 0.005 0
19.76 0.005 0
19.84 0.005 0
19.92 0.005 0
20 0.005 0
20.08 0.005 0
20.16 0.005 0
20.24 0.005 0
20.32 0.005 0
20.4 0.005 0
20.48 0.005 0
20.56 0.005 0
20.64 0.005 0
20.72 0.005 0
20.8 0.005 0
20.88 0.005 0
20.96 0.005 0
21.04 0.005 0
21.12 0.005 0
21.2 0.005 0
21.28 0.005 0
21.36 0.005 0
21.44 0.005 0
21.52 0.005 0
21.6 0.005 0
21.68 0.005 0
21.76 0.005 0
21.84 0.005 0
21.92 0.005 0
22 0.005 0
22.08 0.005 0
22.16 0.005 0
22.24 0.005 0
22.32 0.005 0
22.4 0.005 0
22.48 0.005 0
22.56 0.005 0
22.64 0.005 0
22.72 0.005 0
22.8 0.005 0
22.88 0.005 0
22.96 0.005 0
23.04 0.005 0
23.12 0.005 0
23.2 0.005 0
23.28 0.005 0
23.36 0.005 0
23.44 0.005 0
23.52 0.005 0
23.6 0.005 0
23.68 0.005 0
23.76 0.005 0
23.84 0.005 0
23.92 0.005 0
24 0.005 0
24.08 0.005 0
24.16 0.005 0
24.24 0.005 0
24.32 0.005 0
24.4 0.005 0
24.48 0.005 0
24.56 0.005 0
24.64 0.005 0
24.72 0.005 0
24.8 0.005 0
24.88 0.005 0
24.96 0.005 0
25.04 0.005 0
25.12 0.005 0
25.2 0.005 0
25.28 0.005 0
25.36 0.005 0
25.44 0.005 0
25.52 0.005 0
25.6 0.005 0
25.68 0.005 0
25.76 0.005 0
25.84 0.005 0
25.92 0.005 0
26 0.005 0
26.08 0.005 0
26.16 0.005 0
26.24 0.005 0
26.32 0.005 0
26.4 0.005 0
26.48 0.005 0
26.56 0.005 0
26.64 0.005 0
26.72 0.005 0
26.8 0.005 0
26.88 0.005 0
26.96 0.005 0
27.04 0.005 0
27.12 0.005 0
27.2 0.005 0
27.28 0.005 0
27.36 0.005 0
27.44 0.005 0
27.52 0.005 0
27.6 0.005 0
27.68 0.005 0
27.76 0.005 0
27.84 0.005 0
27.92 0.005 0
28 0.005 0
28.08 0.005 0
28.16 0.005 0
28.24 0.005 0
28.32 0.005 0
28.4 0.005 0
28.48 0.005 0
28.56 0.005 0
28.64 0.005 0
28.72 0.005 0
28.8 0.005 0
28.88 0.005 0
28.96 0.005 0
29.04 0.005 0
29.12 0.005 0
29.2 0.005 0
29.28 0.005 0
29.36 0.005 0
29.44 0.005 0
29.52 0.005 0
29.6 0.005 0
29.68 0.005 0
29.76 0.005 0
29.84 0.005 0
29.92 0.005 0
30 0.005 0
30.08 0.005 0
30.16 0.005 0
30.24 0.005 0
30.32 0.005 0
30.4 0.005 0
30.48 0.005 0
30.56 0.005 0
30.64 0.005 0
30.72 0.005 0
30.8 0.005 0
30.88 0.005 0
30.96 0.005 0
31.04 0.005 0
31.12 0.005 0
31.2 0.005 0
31.28 0.005 0
31.36 0.005 0
31.44 0.005 0
31.52 0.005 0
31.6 0.005 0
31.68 0.005 0
31.76 0.005 0
31.84 0.005 0
31.92 0.005 0
0 0.01 0
0.08 0.01 0
0.16 0.01 0
0.24 0.01 0
0.32 0.01 0
0.4 0.01 0
0.48 0.01 0
0.56 0.01 0
0.64 0.01 0
0.72 0.01 0
0.8 0.01 0
0.88 0.01 0
0.96 0.01 0
1.04 0.01 0
1.12 0.01 0
1.2 0.01 0
1.28 0.01 0
1.36 0.01 0
1.44 0.01 0
1.52 0.01 0
1.6 0.01 0
1.68 0.01 0
1.76 0.01 0
1.84 0.01 0
1.92 0.01 0
2 0.01 0
2.08 0.01 0
2.16 0.01 0
2.24 0.01 0
2.32 0.01 0
2.4 0.01 0
2.48 0.01 0
2.56 0.01 0
2.64 0.01 0
2.72 0.01 0
2.8 0.01 0
2.88 0.01 0
2.96 0.01 0
3.04 0.01 0
3.12 0.01 0
3.2 0.01 0
3.28 0.01 0
3.36 0.01 0
3.44 0.01 0
3.52 0.01 0
3.6 0.01 0
3.68 0.01 0
3.76 0.01 0
3.84 0.01 0
3.92 0.01 0
4 0.01 0
4.08 0.01 0
4.16 0.01 0
4.24 0.01 0
4.32 0.01 0
4.4 0.01 0
4.48 0.01 0
4.56 0.01 0
4.64 0.01 0
4.72 0.01 0
4.8 0.01 0
4.88 0.01 0
4.96 0.01 0
5.04 0.01 0
5.12 0.01 0
[...]
POINT_DATA 80000

SCALARS u float 1
LOOKUP_TABLE default
0
-0.1316625804
-0.06826907122
-0.05229580324
-0.0444196455
-0.03957651056
-0.0362593937
-0.03383233131
-0.03197233146
-0.03049563365
-0.02928954614
-0.02828122841
-0.02742171777
-0.02667706229
-0.02602309229
-0.02544219551
-0.02492125941
-0.02445032307
-0.02402167492
-0.02362923772
-0.02326814257
-0.02293442914
-0.02262483164
-0.02233662371
-0.02206750429
-0.0218155124
-0.02157896262
-0.02135639541
-0.02114653843
-0.02094827602
-0.02076062466
-0.0205827133
-0.02041376713
-0.02025309425
-0.02010007461
-0.01995415066
-0.0198148195
-0.01968162626
-0.01955415834
-0.01943204054
-0.01931493088
-0.01920251691
-0.01909451254
-0.01899065531
-0.01889070395
-0.01879443622
-0.01870164712
-0.01861214716
-0.01852576094
-0.01844232583
-0.01836169083
-0.01828371553
-0.01820826919
-0.01813522992
-0.01806448391
-0.01799592482
-0.01792945309
-0.01786497548
-0.01780240453
-0.01774165812
-0.01768265909
-0.01762533482
-0.01756961694
-0.01751544099
-0.01746274616
-0.01741147503
-0.01736157332
-0.0173129897
-0.01726567555
-0.01721958482
-0.01717467382
-0.0171309011
-0.01708822729
-0.01704661497
-0.01700602856
-0.01696643417
-0.0169277995
-0.01689009379
-0.01685328767
-0.01681735313
-0.01678226342
-0.01674799295
-0.01671451723
-0.01668181283
-0.01664985729
-0.0166186291
-0.01658810765
-0.01655827315
-0.01652910662
-0.01650058977
-0.01647270502
-0.01644543545
-0.01641876479
-0.01639267742
-0.01636715825
-0.01634219275
-0.01631776685
-0.01629386694
-0.01627047986
-0.01624759295
-0.01622519395
-0.01620327104
-0.01618181275
-0.01616080797
-0.01614024591
-0.01612011619
-0.01610040892
-0.01608111473
-0.01606222479
-0.01604373083
-0.01602562511
-0.01600790046
-0.01599055042
-0.01597356926
-0.01595695212
-0.01594069493
-0.01592479435
-0.01590924765
-0.01589405263
-0.0158792076
-0.01586471136
-0.01585056322
-0.01583676296
-0.0158233106
-0.01581020623
-0.01579744983
-0.01578504117
-0.01577297988
-0.01576126556
-0.01574989778
-0.01573887611
-0.01572819984
-0.01571786783
-0.01570787828
-0.01569822882
-0.01568891663
-0.01567993876
-0.01567129225
-0.01566297421
-0.01565498155
-0.01564731064
-0.01563995711
-0.01563291574
-0.0156261807
-0.01561974592
-0.01561360548
-0.01560775378
-0.01560218549
-0.01559689514
-0.01559187678
-0.01558712363
-0.01558262811
-0.01557838209
-0.01557437741
-0.01557060627
-0.0155670615
-0.01556373647
-0.01556062475
-0.01555771969
-0.01555501404
-0.01555249982
-0.01555016852
-0.01554801147
-0.01554602027
-0.01554418714
-0.01554250499
-0.01554096728
-0.01553956769
-0.01553829973
-0.01553715647
-0.01553613047
-0.01553521396
-0.01553439908
-0.01553367831
-0.0155330447
-0.01553249205
-0.01553201484
-0.01553160807
-0.01553126696
-0.01553098672
-0.01553076232
-0.01553058851
-0.01553045979
-0.01553037061
-0.0155303156
-0.01553028966
-0.01553028821
-0.01553030721
-0.01553034317
-0.01553039314
-0.01553045462
-0.01553052545
-0.01553060383
-0.01553068816
-0.0155307771
-0.01553086952
-0.01553096446
-0.01553106119
-0.01553115914
-0.01553125789
-0.01553135718
-0.01553145683
-0.01553155674
-0.01553165686
-0.01553175715
-0.01553185761
-0.01553195822
-0.01553205896
-0.01553215981
-0.01553226076
-0.01553236178
-0.01553246285
-0.01553256397
-0.01553266514
-0.01553276635
-0.0155328676
-0.01553296889
-0.01553307023
-0.01553317162
-0.01553327306
-0.01553337456
-0.01553347612
-0.01553357772
-0.01553367939
-0.01553378111
-0.01553388288
-0.0155339847
-0.01553408657
-0.0155341885
-0.01553429047
-0.0155343925
-0.01553449458
-0.01553459671
-0.01553469889
-0.01553480112
-0.01553490341
-0.01553500574
-0.01553510813
-0.01553521057
-0.01553531306
-0.01553541561
-0.0155355182
-0.01553562084
-0.01553572354
-0.01553582629
-0.01553592909
-0.01553603194
-0.01553613484
-0.01553623779
-0.0155363408
-0.01553644385
-0.01553654696
-0.01553665012
-0.01553675333
-0.01553685659
-0.0155369599
-0.01553706326
-0.01553716668
-0.01553727014
-0.01553737366
-0.01553747723
-0.01553758084
-0.01553768451
-0.01553778823
-0.01553789201
-0.01553799583
-0.0155380997
-0.01553820363
-0.0155383076
-0.01553841163
-0.01553851571
-0.01553861984
-0.01553872402
-0.01553882825
-0.01553893254
-0.01553903687
-0.01553914126
-0.01553924569
-0.01553935018
-0.01553945472
-0.01553955931
-0.01553966395
-0.01553976865
-0.01553987339
-0.01553997819
-0.01554008303
-0.01554018793
-0.01554029288
-0.01554039788
-0.01554050293
-0.01554060804
-0.01554071319
-0.0155408184
-0.01554092366
-0.01554102897
-0.01554113433
-0.01554123974
-0.0155413452
-0.01554145072
-0.01554155628
-0.0155416619
-0.01554176757
-0.01554187329
-0.01554197907
-0.01554208489
-0.01554219077
-0.01554229669
-0.01554240267
-0.0155425087
-0.01554261479
-0.01554272092
-0.01554282711
-0.01554293335
-0.01554303964
-0.01554314598
-0.01554325237
-0.01554335882
-0.01554346532
-0.01554357187
-0.01554367847
-0.01554378512
-0.01554389183
-0.01554399858
-0.0155441054
-0.01554421226
-0.01554431917
-0.01554442614
-0.01554453316
-0.01554464022
-0.01554474735
-0.01554485452
-0.01554496175
-0.01554506903
-0.01554517637
-0.01554528375
-0.01554539119
-0.01554549867
-0.01554560622
-0.01554571381
-0.01554582146
-0.01554592915
-0.01554603692
-0.01554614471
-0.01554625258
-0.01554636047
-0.01554646846
-0.01554657645
-0.01554668454
-0.01554679264
-0.01554690084
-0.01554700903
-0.01554711736
-0.01554722564
-0.01554733408
-0.01554744246
-0.01554755102
-0.01554765948
-0.01554776817
-0.01554787672
-0.01554798553
-0.01554809416
-0.01554820311
-0.01554831181
-0.0155484209
-0.01554852966
-0.01554863891
-0.01554874771
-0.01554885713
-0.01554896596
-0.01554907557
-0.01554918441
-0.01554929421
-0.01554940304
-0.01554951306
-0.01554962186
-0.01554973212
-0.01554984086
-0.01554995136
-0.01555006003
-0.01555017079
-0.01555027939
-0.01555039037
-0.01555049896
-0.01555061006
-0.01555071881
-0.01555082981
-0.01555093915
-0.01555104955
-0.01555116043
-0.01555126918
-0.01555138382
-0.01555148845
-0.01555161202
-0.01555170589
-0.01555185047
-0.01555190829
-0.0155521003
-0.0155519137
-0.0155519137
-0.0155519137
1
0.1316625804
0.06826907122
0.05229580324
0.0444196455
0.03957651056
0.0362593937
0.03383233131
0.03197233146
0.03049563365
0.02928954614
0.02828122841
0.02742171777
0.02667706229
0.02602309229
0.02544219551
0.02492125941
0.02445032307
0.02402167492
0.02362923772
0.02326814257
0.02293442914
0.02262483164
0.02233662371
0.02206750429
0.0218155124
0.02157896262
0.02135639541
0.02114653843
0.02094827602
0.02076062466
0.0205827133
0.02041376713
0.02025309425
0.02010007461
0.01995415066
0.0198148195
0.01968162626
0.01955415834
0.01943204054
0.01931493088
0.01920251691
0.01909451254
0.01899065531
0.01889070395
0.01879443622
0.01870164712
0.01861214716
0.01852576094
0.01844232583
0.01836169083
0.01828371553
0.01820826919
0.01813522992
0.01806448391
0.01799592482
0.01792945309
0.01786497548
0.01780240453
0.01774165812
0.01768265909
0.01762533482
0.01756961694
0.01751544099
0.01746274616
0.01741147503
0.01736157332
0.0173129897
0.01726567555
0.01721958482
0.01717467382
0.0171309011
0.01708822729
0.01704661497
0.01700602856
0.01696643417
0.0169277995
0.01689009379
0.01685328767
0.01681735313
0.01678226342
0.01674799295
0.01671451723
0.01668181283
0.01664985729
0.0166186291
0.01658810765
0.01655827315
0.01652910662
0.01650058977
0.01647270502
0.01644543545
0.01641876479
0.01639267742
0.01636715825
0.01634219275
0.01631776685
0.01629386694
0.01627047986
0.01624759295
0.01622519395
0.01620327104
0.01618181275
0.01616080797
0.01614024591
0.01612011619
0.01610040892
0.01608111473
0.01606222479
0.01604373083
0.01602562511
0.01600790046
0.01599055042
0.01597356926
0.01595695212
0.01594069493
0.01592479435
0.01590924765
0.01589405263
0.0158792076
0.01586471136
0.01585056322
0.01583676296
0.0158233106
0.01581020623
0.01579744983
0.01578504117
0.01577297988
0.01576126556
0.01574989778
0.01573887611
0.01572819984
0.01571786783
0.01570787828
0.01569822882
0.01568891663
0.01567993876
0.01567129225
0.01566297421
0.01565498155
0.01564731064
0.01563995711
0.01563291574
0.0156261807
0.01561974592
0.01561360548
0.01560775378
0.01560218549
0.01559689514
0.01559187678
0.01558712363
0.01558262811
0.01557838209
0.01557437741
0.01557060627
0.0155670615
0.01556373647
0.01556062475
0.01555771969
0.01555501404
0.01555249982
0.01555016852
0.01554801147
0.01554602027
0.01554418714
0.01554250499
0.01554096728
0.01553956769
0.01553829973
0.01553715647
0.01553613047
0.01553521396
0.01553439908
0.01553367831
0.0155330447
0.01553249205
0.01553201484
0.01553160807
0.01553126696
0.01553098672
0.01553076232
0.01553058851
0.01553045979
0.01553037061
0.0155303156
0.01553028966
0.01553028821
0.01553030721
0.01553034317
0.01553039314
0.01553045462
0.01553052545
0.01553060383
0.01553068816
0.0155307771
0.01553086952
0.01553096446
0.01553106119
0.01553115914
0.01553125789
0.01553135718
0.01553145683
0.01553155674
0.01553165686
0.01553175715
0.01553185761
0.01553195822
0.01553205896
0.01553215981
0.01553226076
0.01553236178
0.01553246285
0.01553256397
0.01553266514
0.01553276635
0.0155328676
0.01553296889
0.01553307023
0.01553317162
0.01553327306
0.01553337456
0.01553347612
0.01553357772
0.01553367939
0.01553378111
0.01553388288
0.0155339847
0.01553408657
0.0155341885
0.01553429047
0.0155343925
0.01553449458
0.01553459671
0.01553469889
0.01553480112
0.01553490341
0.01553500574
0.01553510813
0.01553521057
0.01553531306
0.01553541561
0.0155355182
0.01553562084
0.01553572354
0.01553582629
0.01553592909
0.01553603194
0.01553613484
0.01553623779
0.0155363408
0.01553644385
0.01553654696
0.01553665012
0.01553675333
0.01553685659
0.0155369599
0.01553706326
0.01553716668
0.01553727014
0.01553737366
0.01553747723
0.01553758084
0.01553768451
0.01553778823
0.01553789201
0.01553799583
0.0155380997
0.01553820363
0.0155383076
0.01553841163
0.01553851571
0.01553861984
0.01553872402
0.01553882825
0.01553893254
0.01553903687
0.01553914126
0.01553924569
0.01553935018
0.01553945472
0.01553955931
0.01553966395
0.01553976865
0.01553987339
0.01553997819
0.01554008303
0.01554018793
0.01554029288
0.01554039788
0.01554050293
0.01554060804
0.01554071319
0.0155408184
0.01554092366
0.01554102897
0.01554113433
0.01554123974
0.0155413452
0.01554145072
0.01554155628
0.0155416619
0.01554176757
0.01554187329
0.01554197907
0.01554208489
0.01554219077
0.01554229669
0.01554240267
0.0155425087
0.01554261479
0.01554272092
0.01554282711
0.01554293335
0.01554303964
0.01554314598
0.01554325237
0.01554335882
0.01554346532
0.01554357187
0.01554367847
0.01554378512
0.01554389183
0.01554399858
0.0155441054
0.01554421226
0.01554431917
0.01554442614
0.01554453316
0.01554464022
0.01554474735
0.01554485452
0.01554496175
0.01554506903
0.01554517637
0.01554528375
0.01554539119
0.01554549867
0.01554560622
0.01554571381
0.01554582146
0.01554592915
0.01554603692
0.01554614471
0.01554625258
0.01554636047
0.01554646846
0.01554657645
0.01554668454
0.01554679264
0.01554690084
0.01554700903
0.01554711736
0.01554722564
0.01554733408
0.01554744246
0.01554755102
0.01554765948
0.01554776817
0.01554787672
0.01554798553
0.01554809416
0.01554820311
0.01554831181
0.0155484209
0.01554852966
0.01554863891
0.01554874771
0.01554885713
0.01554896596
0.01554907557
0.01554918441
0.01554929421
0.01554940304
0.01554951306
0.01554962186
0.01554973212
0.01554984086
0.01554995136
0.01555006003
0.01555017079
0.01555027939
0.01555039037
0.01555049896
0.01555061006
0.01555071881
0.01555082981
0.01555093915
0.01555104955
0.01555116043
0.01555126918
0.01555138382
0.01555148845
0.01555161202
0.01555170589
0.01555185047
0.01555190829
0.0155521003
0.0155519137
0.0155519137
0.0155519137
1
0.3448836973
0.2006673257
0.154966733
0.1318939898
0.1175979593
0.1077672397
0.1005572895
0.09502423465
0.09062829363
0.08703710631
0.0840351187
0.08147701606
0.07926178243
0.07731735721
0.07559114384
0.07404393605
0.07264592738
0.07137403316
0.0702100604
0.06913943689
0.06815031514
0.06723293141
0.06637914032
0.06558207223
0.06483587717
0.06413553074
0.06347668488
0.0628555516
0.06226881113
0.06171353852
0.06118714437
0.06068732635
0.06021202923
0.05975941177
0.05932781878
0.05891575777
0.05852187896
0.05814495835
0.05778388308
0.05743763893
0.05710529944
0.05678601645
0.05647901191
0.05618357064
0.05589903405
0.05562479456
0.05536029069
0.05510500274
0.05485844888
0.05462018177
0.05438978547
0.05416687272
0.05395108246
0.05374207764
0.05353954325
0.05334318452
0.05315272529
0.05296790656
0.05278848521
0.05261423269
0.05244493403
0.05228038677
0.05212040009
0.05196479393
0.0518133983
0.05166605252
0.0515226046
0.05138291065
0.05124683429
0.05111424624
0.05098502379
0.05085905039
0.0507362153
0.05061641317
0.05049954369
0.0503855113
0.05027422491
0.05016559765
0.05005954659
0.04995599255
0.04985485979
0.04975607588
0.04965957144
0.04956528002
0.049473138
0.04938308437
0.04929506061
0.04920901049
0.04912487995
0.04904261698
0.04896217154
0.04888349556
0.04880654277
0.04873126863
0.04865763012
0.04858558567
0.04851509508
0.04844611954
0.04837862164
0.04831256528
0.0482479156
0.04818463886
0.04812270233
0.04806207444
0.04800272486
0.04794462475
0.04788774688
0.04783206567
0.04777755717
0.04772419911
0.04767197105
0.04762085456
0.04757083355
0.04752189433
0.04747402554
0.04742721788
0.04738146378
0.04733675719
0.0472930935
0.04725046952
0.04720888348
0.04716833469
0.04712882311
0.04709034875
0.0470529112
0.0470165095
0.04698114224
0.04694680785
0.04691350468
0.04688123075
0.04684998325
0.04681975794
0.04679054879
0.04676234813
0.04673514716
0.04670893669
0.04668370753
0.04665945037
0.04663615516
0.04661381023
0.04659240172
0.04657191354
0.04655232805
0.04653362711
0.04651579304
0.04649880897
0.04648265851
0.04646732473
0.0464527891
0.04643903086
0.04642602717
0.04641375396
0.04640218723
0.04639130417
0.04638108362
0.04637150573
0.04636255099
0.04635419908
0.04634642796
0.04633921374
0.04633253125
0.04632635516
0.04632066108
0.04631542638
0.04631063029
0.0463062534
0.04630227669
0.04629868054
0.04629544416
0.04629254545
0.04628996156
0.04628766972
0.04628564822
0.04628387711
0.04628233846
0.04628101621
0.04627989558
0.04627896233
0.04627820207
0.04627759987
0.04627714014
0.04627680686
0.04627658405
0.04627645629
0.04627640923
0.04627642997
0.04627650719
0.04627663119
0.04627679373
0.04627698783
0.04627720754
0.04627744778
0.04627770416
0.04627797296
0.04627825107
0.04627853592
0.04627882551
0.04627911831
0.04627941326
0.04627970963
0.04628000697
0.04628030503
0.04628060367
0.04628090282
0.04628120244
0.04628150246
0.04628180286
0.04628210356
0.04628240452
0.04628270569
0.04628300702
0.0462833085
0.0462836101
0.04628391182
0.04628421367
0.04628451565
0.04628481778
0.04628512006
0.04628542249
0.04628572509
0.04628602786
0.04628633078
0.04628663387
0.04628693711
0.04628724051
0.04628754407
0.04628784778
0.04628815164
0.04628845565
0.04628875982
0.04628906413
0.0462893686
0.04628967322
0.04628997799
0.04629028292
0.04629058799
0.04629089323
0.04629119861
0.04629150415
0.04629180984
0.04629211568
0.04629242167
0.04629272782
0.04629303412
0.04629334057
0.04629364717
0.04629395393
0.04629426084
0.04629456789
0.0462948751
0.04629518247
0.04629548998
0.04629579764
0.04629610546
0.04629641343
0.04629672155
0.04629702982
0.04629733824
0.04629764681
0.04629795554
0.04629826442
0.04629857344
0.04629888262
0.04629919196
0.04629950144
0.04629981107
0.04630012086
0.04630043079
0.04630074088
0.04630105112
0.04630136151
0.04630167206
0.04630198275
0.0463022936
0.04630260459
0.04630291574
0.04630322704
0.0463035385
0.0463038501
0.04630416186
0.04630447376
0.04630478582
0.04630509803
0.0463054104
0.04630572291
0.04630603558
0.0463063484
0.04630666137
0.04630697449
0.04630728777
0.04630760119
0.04630791477
0.04630822851
0.04630854239
0.04630885643
0.04630917062
0.04630948496
0.04630979945
0.0463101141
0.0463104289
0.04631074385
0.04631105895
0.04631137421
0.04631168962
0.04631200519
0.0463123209
0.04631263677
0.0463129528
0.04631326897
0.0463135853
0.04631390178
0.04631421842
0.04631453521
0.04631485215
0.04631516925
0.0463154865
0.04631580391
0.04631612146
0.04631643918
0.04631675704
0.04631707506
0.04631739323
0.04631771157
0.04631803005
0.04631834869
0.04631866748
0.04631898643
0.04631930552
0.04631962479
0.04631994419
0.04632026376
0.04632058348
0.04632090336
0.04632122338
0.04632154358
0.04632186391
0.04632218443
0.04632250506
0.04632282589
0.04632314683
0.04632346798
0.04632378922
0.04632411069
0.04632443224
0.04632475403
0.04632507588
0.046325398
0.04632572014
0.0463260426
0.04632636502
0.04632668782
0.04632701053
0.04632733367
0.04632765666
0.04632798016
0.04632830341
0.04632862727
0.04632895078
0.04632927502
0.04632959876
0.0463299234
0.04633024735
0.04633057242
0.04633089655
0.04633122207
0.04633154635
0.04633187235
0.04633219674
0.04633252326
0.0463328477
0.0463331748
0.04633349923
0.04633382695
0.04633415131
0.04633447969
0.04633480393
0.04633513301
0.04633545707
0.04633578686
0.04633611076
0.04633644117
0.04633676505
0.04633709585
0.04633742016
0.04633775073
0.04633807662
0.04633840566
0.04633873574
0.04633906039
0.04633940069
0.04633971445
0.04634007891
0.04634036413
0.04634078518
0.0463409742
0.04634151909
0.04634106249
0.04634106249
0.04634106249
1
0.5187652543
0.3274013127
0.2553469374
0.2178479561
0.1944028697
0.1782109837
0.1663063998
0.1571573442
0.1498827605
0.1439378817
0.138968223
0.1347341535
0.1310687106
0.1278525651
0.1249984891
0.1224413888
0.12013174
0.1180311708
0.1161094365
0.1143423148
0.1127101182
0.1111966287
0.1097883237
0.1084738044
0.1072433696
0.1060886917
0.1050025676
0.1039787253
0.1030116702
0.1020965632
0.1012291216
0.1004055391
0.09962241845
0.09887671707
0.0981657004
0.0974869031
0.09683809599
0.0962172579
0.09562255146
0.09505230237
0.09450498135
0.09397918855
0.09347363992
0.09298715529
0.09251864797
0.09206711547
0.09163163148
0.0912113386
0.09080544204
0.09041320387
0.09003393803
0.08966700576
0.08931181158
0.08896779962
0.08863445037
0.08831127772
0.08799782625
0.08769366891
0.08739840475
0.08711165695
0.08683307103
0.08656231318
0.08629906876
0.08604304093
0.08579394939
0.08555152924
0.0853155299
0.08508571413
0.08486185714
0.08464374575
0.08443117768
0.08422396083
0.08402191262
0.08382485936
0.08363263572
0.08344508418
0.08326205458
0.08308340372
0.08290899493
0.08273869767
0.08257238713
0.08240994388
0.08225125358
0.08209620676
0.08194469853
0.08179662837
0.08165189982
0.08151042021
0.08137210046
0.08123685486
0.08110460103
0.08097525975
0.08084875483
0.08072501287
0.08060396302
0.08048553683
0.08036966817
0.08025629321
0.08014535041
0.08003678047
0.07993052612
0.07982653192
0.07972474429
0.07962511155
0.07952758423
0.07943211537
0.07933866067
0.07924717863
0.07915763052
0.07906998042
0.07898419549
0.07890024636
0.07881810742
0.07873775702
0.07865917722
0.07858235337
0.07850727361
0.07843392851
0.07836231095
0.07829241607
0.07822424113
0.07815778503
0.0780930475
0.07803002819
0.07796872604
0.07790913905
0.07785126451
0.07779509938
0.07774064031
0.07768788324
0.0776368226
0.07758745038
0.07753975576
0.07749372536
0.07744934411
0.0774065963
0.07736546609
0.07732593724
0.07728799206
0.07725161019
0.07721676773
0.07718343743
0.07715158978
0.07712119466
0.07709222268
0.0770646456
0.07703843562
0.07701356386
0.07698999879
0.07696770542
0.0769466457
0.07692677996
0.0769080689
0.07689047514
0.07687396381
0.07685850187
0.07684405657
0.07683059364
0.07681807619
0.07680646457
0.07679571743
0.07678579342
0.07677665291
0.07676825903
0.07676057775
0.07675357693
0.07674722484
0.07674148875
0.07673633407
0.07673172438
0.07672762231
0.07672399092
0.07672079511
0.07671800268
0.07671558459
0.07671351461
0.07671176837
0.07671032226
0.0767091524
0.07670823409
0.07670754174
0.07670704927
0.07670673089
0.07670656192
0.07670651952
0.07670658327
0.07670673532
0.0767069604
0.07670724552
0.0767075797
0.0767079536
0.07670835921
0.07670878968
0.07670923921
0.07670970294
0.07671017693
0.07671065809
0.07671114413
0.07671163342
0.07671212487
0.07671261783
0.07671311191
0.07671360691
0.07671410272
0.07671459926
0.07671509646
0.07671559424
0.0767160925
0.07671659117
0.07671709017