# vtk DataFile Version 2.0
FlowField
ASCII
DATASET STRUCTURED_GRID
DIMENSIONS 400 1 200
POINTS 80000 float
0 0 0
0.08 0 0
0.16 0 0
0.24 0 0
0.32 0 0
0.4 0 0
0.48 0 0
0.56 0 0
0.64 0 0
0.72 0 0
0.8 0 0
0.88 0 0
0.96 0 0
1.04 0 0
1.12 0 0
1.2 0 0
1.28 0 0
1.36 0 0
1.44 0 0
1.52 0 0
1.6 0 0
1.68 0 0
1.76 0 0
1.84 0 0
1.92 0 0
2 0 0
2.08 0 0
2.16 0 0
2.24 0 0
2.32 0 0
2.4 0 0
2.48 0 0
2.56 0 0
2.64 0 0
2.72 0 0
2.8 0 0
2.88 0 0
2.96 0 0
3.04 0 0
3.12 0 0
3.2 0 0
3.28 0 0
3.36 0 0
3.44 0 0
3.52 0 0
3.6 0 0
3.68 0 0
3.76 0 0
3.84 0 0
3.92 0 0
4 0 0
4.08 0 0
4.16 0 0
4.24 0 0
4.32 0 0
4.4 0 0
4.48 0 0
4.56 0 0
4.64 0 0
4.72 0 0
4.8 0 0
4.88 0 0
4.96 0 0
5.04 0 0
5.12 0 0
5.2 0 0
5.28 0 0
5.36 0 0
5.44 0 0
5.52 0 0
5.6 0 0
5.68 0 0
5.76 0 0
5.84 0 0
5.92 0 0
6 0 0
6.08 0 0
6.16 0 0
6.24 0 0
6.32 0 0
6.4 0 0
6.48 0 0
6.56 0 0
6.64 0 0
6.72 0 0
6.8 0 0
6.88 0 0
6.96 0 0
7.04 0 0
7.12 0 0
7.2 0 0
7.28 0 0
7.36 0 0
7.44 0 0
7.52 0 0
7.6 0 0
7.68 0 0
7.76 0 0
7.84 0 0
7.92 0 0
8 0 0
8.08 0 0
8.16 0 0
8.24 0 0
8.32 0 0
8.4 0 0
8.48 0 0
8.56 0 0
8.64 0 0
8.72 0 0
8.8 0 0
8.88 0 0
8.96 0 0
9.04 0 0
9.12 0 0
9.2 0 0
9.28 0 0
9.36 0 0
9.44 0 0
9.52 0 0
9.6 0 0
9.68 0 0
9.76 0 0
9.84 0 0
9.92 0 0
10 0 0
10.08 0 0
10.16 0 0
10.24 0 0
10.32 0 0
10.4 0 0
10.48 0 0
10.56 0 0
10.64 0 0
10.72 0 0
10.8 0 0
10.88 0 0
10.96 0 0
11.04 0 0
11.12 0 0
11.2 0 0
11.28 0 0
11.36 0 0
11.44 0 0
11.52 0 0
11.6 0 0
11.68 0 0
11.76 0 0
11.84 0 0
11.92 0 0
12 0 0
12.08 0 0
12.16 0 0
12.24 0 0
12.32 0 0
12.4 0 0
12.48 0 0
12.56 0 0
12.64 0 0
12.72 0 0
12.8 0 0
12.88 0 0
12.96 0 0
13.04 0 0
13.12 0 0
13.2 0 0
13.28 0 0
13.36 0 0
13.44 0 0
13.52 0 0
13.6 0 0
13.68 0 0
13.76 0 0
13.84 0 0
13.92 0 0
14 0 0
14.08 0 0
14.16 0 0
14.24 0 0
14.32 0 0
14.4 0 0
14.48 0 0
14.56 0 0
14.64 0 0
14.72 0 0
14.8 0 0
14.88 0 0
14.96 0 0
15.04 0 0
15.12 0 0
15.2 0 0
15.28 0 0
15.36 0 0
15.44 0 0
15.52 0 0
15.6 0 0
15.68 0 0
15.76 0 0
15.84 0 0
15.92 0 0
16 0 0
16.08 0 0
16.16 0 0
16.24 0 0
16.32 0 0
16.4 0 0
16.48 0 0
16.56 0 0
16.64 0 0
16.72 0 0
16.8 0 0
16.88 0 0
16.96 0 0
17.04 0 0
17.12 0 0
17.2 0 0
17.28 0 0
17.36 0 0
17.44 0 0
17.52 0 0
17.6 0 0
17.68 0 0
17.76 0 0
17.84 0 0
17.92 0 0
18 0 0
18.08 0 0
18.16 0 0
18.24 0 0
18.32 0 0
18.4 0 0
18.48 0 0
18.56 0 0
18.64 0 0
18.72 0 0
18.8 0 0
18.88 0 0
18.96 0 0
19.04 0 0
19.12 0 0
19.2 0 0
19.28 0 0
19.36 0 0
19.44 0 0
19.52 0 0
19.6 0 0
19.68 0 0
19.76 0 0
19.84 0 0
19.92 0 0
20 0 0
20.08 0 0
20.16 0 0
20.24 0 0
20.32 0 0
20.4 0 0
20.48 0 0
20.56 0 0
20.64 0 0
20.72 0 0
20.8 0 0
20.88 0 0
20.96 0 0
21.04 0 0
21.12 0 0
21.2 0 0
21.28 0 0
21.36 0 0
21.44 0 0
21.52 0 0
21.6 0 0
21.68 0 0
21.76 0 0
21.84 0 0
21.92 0 0
22 0 0
22.08 0 0
22.16 0 0
22.24 0 0
22.32 0 0
22.4 0 0
22.48 0 0
22.56 0 0
22.64 0 0
22.72 0 0
22.8 0 0
22.88 0 0
22.96 0 0
23.04 0 0
23.12 0 0
23.2 0 0
23.28 0 0
23.36 0 0
23.44 0 0
23.52 0 0
23.6 0 0
23.68 0 0
23.76 0 0
23.84 0 0
23.92 0 0
24 0 0
24.08 0 0
24.16 0 0
24.24 0 0
24.32 0 0
24.4 0 0
24.48 0 0
24.56 0 0
24.64 0 0
24.72 0 0
24.8 0 0
24.88 0 0
24.96 0 0
25.04 0 0
25.12 0 0
25.2 0 0
25.28 0 0
25.36 0 0
25.44 0 0
25.52 0 0
25.6 0 0
25.68 0 0
25.76 0 0
25.84 0 0
25.92 0 0
26 0 0
26.08 0 0
26.16 0 0
26.24 0 0
26.32 0 0
26.4 0 0
26.48 0 0
26.56 0 0
26.64 0 0
26.72 0 0
26.8 0 0
26.88 0 0
26.96 0 0
27.04 0 0
27.12 0 0
27.2 0 0
27.28 0 0
27.36 0 0
27.44 0 0
27.52 0 0
27.6 0 0
27.68 0 0
27.76 0 0
27.84 0 0
27.92 0 0
28 0 0
28.08 0 0
28.16 0 0
28.24 0 0
28.32 0 0
28.4 0 0
28.48 0 0
28.56 0 0
28.64 0 0
28.72 0 0
28.8 0 0
28.88 0 0
28.96 0 0
29.04 0 0
29.12 0 0
29.2 0 0
29.28 0 0
29.36 0 0
29.44 0 0
29.52 0 0
29.6 0 0
29.68 0 0
29.76 0 0
29.84 0 0
29.92 0 0
30 0 0
30.08 0 0
30.16 0 0
30.24 0 0
30.32 0 0
30.4 0 0
30.48 0 0
30.56 0 0
30.64 0 0
30.72 0 0
30.8 0 0
30.88 0 0
30.96 0 0
31.04 0 0
31.12 0 0
31.2 0 0
31.28 0 0
31.36 0 0
31.44 0 0
31.52 0 0
31.6 0 0
31.68 0 0
31.76 0 0
31.84 0 0
31.92 0 0
0 0.005 0
0.08 0.005 0
0.16 0.005 0
0.24 0.005 0
0.32 0.005 0
0.4 0.005 0
0.48 0.005 0
0.56 0.005 0
0.64 0.005 0
0.72 0.005 0
0.8 0.005 0
0.88 0.005 0
0.96 0.005 0
1.04 0.005 0
1.12 0.005 0
1.2 0.005 0
1.28 0.005 0
1.36 0.005 0
1.44 0.005 0
1.52 0.005 0
1.6 0.005 0
1.68 0.005 0
1.76 0.005 0
1.84 0.005 0
1.92 0.005 0
2 0.005 0
2.08 0.005 0
2.16 0.005 0
2.24 0.005 0
2.32 0.005 0
2.4 0.005 0
2.48 0.005 0
2.56 0.005 0
2.64 0.005 0
2.72 0.005 0
2.8 0.005 0
2.88 0.005 0
2.96 0.005 0
3.04 0.005 0
3.12 0.005 0
3.2 0.005 0
3.28 0.005 0
3.36 0.005 0
3.44 0.005 0
3.52 0.005 0
3.6 0.005 0
3.68 0.005 0
3.76 0.005 0
3.84 0.005 0
3.92 0.005 0
4 0.005 0
4.08 0.005 0
4.16 0.005 0
4.24 0.005 0
4.32 0.005 0
4.4 0.005 0
4.48 0.005 0
4.56 0.005 0
4.64 0.005 0
4.72 0.005 0
4.8 0.005 0
4.88 0.005 0
4.96 0.005 0
5.04 0.005 0
5.12 0.005 0
5.2 0.005 0
5.28 0.005 0
5.36 0.005 0
5.44 0.005 0
5.52 0.005 0
5.6 0.005 0
5.68 0.005 0
5.76 0.005 0
5.84 0.005 0
5.92 0.005 0
6 0.005 0
6.08 0.005 0
6.16 0.005 0
6.24 0.005 0
6.32 0.005 0
6.4 0.005 0
6.48 0.005 0
6.56 0.005 0
6.64 0.005 0
6.72 0.005 0
6.8 0.005 0
6.88 0.005 0
6.96 0.005 0
7.04 0.005 0
7.12 0.005 0
7.2 0.005 0
7.28 0.005 0
7.36 0.005 0
7.44 0.005 0
7.52 0.005 0
7.6 0.005 0
7.68 0.005 0
7.76 0.005 0
7.84 0.005 0
7.92 0.005 0
8 0.005 0
8.08 0.005 0
8.16 0.005 0
8.24 0.005 0
8.32 0.005 0
8.4 0.005 0
8.48 0.005 0
8.56 0.005 0
8.64 0.005 0
8.72 0.005 0
8.8 0.005 0
8.88 0.005 0
8.96 0.005 0
9.04 0.005 0
9.12 0.005 0
9.2 0.005 0
9.28 0.005 0
9.36 0.005 0
9.44 0.005 0
9.52 0.005 0
9.6 0.005 0
9.68 0.005 0
9.76 0.005 0
9.84 0.005 0
9.92 0.005 0
10 0.005 0
10.08 0.005 0
10.16 0.005 0
10.24 0.005 0
10.32 0.005 0
10.4 0.005 0
10.48 0.005 0
10.56 0.005 0
10.64 0.005 0
10.72 0.005 0
10.8 0.005 0
10.88 0.005 0
10.96 0.005 0
11.04 0.005 0
11.12 0.005 0
11.2 0.005 0
11.28 0.005 0
11.36 0.005 0
11.44 0.005 0
11.52 0.005 0
11.6 0.005 0
11.68 0.005 0
11.76 0.005 0
11.84 0.005 0
11.92 0.005 0
12 0.005 0
12.08 0.005 0
12.16 0.005 0
12.24 0.005 0
12.32 0.005 0
12.4 0.005 0
12.48 0.005 0
12.56 0.005 0
12.64 0.005 0
12.72 0.005 0
12.8 0.005 0
12.88 0.005 0
12.96 0.005 0
13.04 0.005 0
13.12 0.005 0
13.2 0.005 0
13.28 0.005 0
13.36 0.005 0
13.44 0.005 0
13.52 0.005 0
13.6 0.005 0
13.68 0.005 0
13.76 0.005 0
13.84 0.005 0
13.92 0.005 0
14 0.005 0
14.08 0.005 0
14.16 0.005 0
14.24 0.005 0
14.32 0.005 0
14.4 0.005 0
14.48 0.005 0
14.56 0.005 0
14.64 0.005 0
14.72 0.005 0
14.8 0.005 0
14.88 0.005 0
14.96 0.005 0
15.04 0.005 0
15.12 0.005 0
15.2 0.005 0
15.28 0.005 0
15.36 0.005 0
15.44 0.005 0
15.52 0.005 0
15.6 0.005 0
15.68 0.005 0
15.76 0.005 0
15.84 0.005 0
15.92 0.005 0
16 0.005 0
16.08 0.005 0
16.16 0.005 0
16.24 0.005 0
16.32 0.005 0
16.4 0.005 0
16.48 0.005 0
16.56 0.005 0
16.64 0.005 0
16.72 0.005 0
16.8 0.005 0
16.88 0.005 0
16.96 0.005 0
17.04 0.005 0
17.12 0.005 0
17.2 0.005 0
17.28 0.005 0
17.36 0.005 0
17.44 0.005 0
17.52 0.005 0
17.6 0.005 0
17.68 0.005 0
17.76 0.005 0
17.84 0.005 0
17.92 0.005 0
18 0.005 0
18.08 0.005 0
18.16 0.005 0
18.24 0.005 0
18.32 0.005 0
18.4 0.005 0
18.48 0.005 0
18.56 0.005 0
18.64 0.005 0
18.72 0.005 0
18.8 0.005 0
18.88 0.005 0
18.96 0.005 0
19.04 0.005 0
19.12 0.005 0
19.2 0.005 0
19.28 0.005 0
19.36 0.005 0
19.44 0.005 0
19.52 0.005 0
19.6 0.005 0
19.68 0.005 0
19.76 0.005 0
19.84 0.005 0
19.92 0.005 0
20 0.005 0
20.08 0.005 0
20.16 0.005 0
20.24 0.005 0
20.32 0.005 0
20.4 0.005 0
20.48 0.005 0
20.56 0.005 0
20.64 0.005 0
20.72 0.005 0
20.8 0.005 0
20.88 0.005 0
20.96 0.005 0
21.04 0.005 0
21.12 0.005 0
21.2 0.005 0
21.28 0.005 0
21.36 0.005 0
21.44 0.005 0
21.52 0.005 0
21.6 0.005 0
21.68 0.005 0
21.76 0.005 0
21.84 0.005 0
21.92 0.005 0
22 0.005 0
22.08 0.005 0
22.16 0.005 0
22.24 0.005 0
22.32 0.005 0
22.4 0.005 0
22.48 0.005 0
22.56 0.005 0
22.64 0.005 0
22.72 0.005 0
22.8 0.005 0
22.88 0.005 0
22.96 0.005 0
23.04 0.005 0
23.12 0.005 0
23.2 0.005 0
23.28 0.005 0
23.36 0.005 0
23.44 0.005 0
23.52 0.005 0
23.6 0.005 0
23.68 0.005 0
23.76 0.005 0
23.84 0.005 0
23.92 0.005 0
24 0.005 0
24.08 0.005 0
24.16 0.005 0
24.24 0.005 0
24.32 0.005 0
24.4 0.005 0
24.48 0.005 0
24.56 0.005 0
24.64 0.005 0
24.72 0.005 0
24.8 0.005 0
24.88 0.005 0
24.96 0.005 0
25.04 0.005 0
25.12 0.005 0
25.2 0.005 0
25.28 0.005 0
25.36 0.005 0
25.44 0.005 0
25.52 0.005 0
25.6 0.005 0
25.68 0.005 0
25.76 0.005 0
25.84 0.005 0
25.92 0.005 0
26 0.005 0
26.08 0.005 0
26.16 0.005 0
26.24 0.005 0
26.32 0.005 0
26.4 0.005 0
26.48 0.005 0
26.56 0.005 0
26.64 0.005 0
26.72 0.005 0
26.8 0.005 0
26.88 0.005 0
26.96 0.005 0
27.04 0.005 0
27.12 0.005 0
27.2 0.005 0
27.28 0.005 0
27.36 0.005 0
27.44 0.005 0
27.52 0.005 0
27.6 0.005 0
27.68 0.005 0
27.76 0.005 0
27.84 0.005 0
27.92 0.005 0
28 0.005 0
28.08 0.005 0
28.16 0.005 0
28.24 0.005 0
28.32 0.005 0
28.4 0.005 0
28.48 0.005 0
28.56 0.005 0
28.64 0.005 0
28.72 0.005 0
28.8 0.005 0
28.88 0.005 0
28.96 0.005 0
29.04 0.005 0
29.12 0.005 0
29.2 0.005 0
29.28 0.005 0
29.36 0.005 0
29.44 0.005 0
29.52 0.005 0
29.6 0.005 0
29.68 0.005 0
29.76 0.005 0
29.84 0.005 0
29.92 0.005 0
30 0.005 0
30.08 0.005 0
30.16 0.005 0
30.24 0.005 0
30.32 0.005 0
30.4 0.005 0
30.48 0.005 0
30.56 0.005 0
30.64 0.005 0
30.72 0.005 0
30.8 0.005 0
30.88 0.005 0
30.96 0.005 0
31.04 0.005 0
31.12 0.005 0
31.2 0.005 0
31.28 0.005 0
31.36 0.005 0
31.44 0.005 0
31.52 0.005 0
31.6 0.005 0
31.68 0.005 0
31.76 0.005 0
31.84 0.005 0
31.92 0.005 0
0 0.01 0
0.08 0.01 0
0.16 0.01 0
0.24 0.01 0
0.32 0.01 0
0.4 0.01 0
0.48 0.01 0
0.56 0.01 0
0.64 0.01 0
0.72 0.01 0
0.8 0.01 0
0.88 0.01 0
0.96 0.01 0
1.04 0.01 0
1.12 0.01 0
1.2 0.01 0
1.28 0.01 0
1.36 0.01 0
1.44 0.01 0
1.52 0.01 0
1.6 0.01 0
1.68 0.01 0
1.76 0.01 0
1.84 0.01 0
1.92 0.01 0
2 0.01 0
2.08 0.01 0
2.16 0.01 0
2.24 0.01 0
2.32 0.01 0
2.4 0.01 0
2.48 0.01 0
2.56 0.01 0
2.64 0.01 0
2.72 0.01 0
2.8 0.01 0
2.88 0.01 0
2.96 0.01 0
3.04 0.01 0
3.12 0.01 0
3.2 0.01 0
3.28 0.01 0
3.36 0.01 0
3.44 0.01 0
3.52 0.01 0
3.6 0.01 0
3.68 0.01 0
3.76 0.01 0
3.84 0.01 0
3.92 0.01 0
4 0.01 0
4.08 0.01 0
4.16 0.01 0
4.24 0.01 0
4.32 0.01 0
4.4 0.01 0
4.48 0.01 0
4.56 0.01 0
4.64 0.01 0
4.72 0.01 0
4.8 0.01 0
4.88 0.01 0
4.96 0.01 0
5.04 0.01 0
5.12 0.01 0
[...]
POINT_DATA 80000

SCALARS p float 1
LOOKUP_TABLE default
1
56.54464066
56.24290564
56.20174586
56.18165589
56.16723697
56.15523601
56.1444926
56.13449447
56.12498888
56.11584257
56.10698185
56.09836393
56.08996242
56.08175966
56.07374262
56.06590075
56.05822485
56.05070647
56.04333768
56.03611096
56.02901911
56.02205532
56.0152131
56.00848631
56.0018692
55.99535634
55.98894264
55.98262335
55.976394
55.97025043
55.96418877
55.95820535
55.95229679
55.94645989
55.94069168
55.93498935
55.92935027
55.92377199
55.91825217
55.91278864
55.90737932
55.90202229
55.89671569
55.8914578
55.88624697
55.88108163
55.87596031
55.87088161
55.86584419
55.86084677
55.85588815
55.85096717
55.84608273
55.84123378
55.8364193
55.83163835
55.82688999
55.82217334
55.81748756
55.81283182
55.80820536
55.80360742
55.79903728
55.79449423
55.78997762
55.7854868
55.78102113
55.77658003
55.7721629
55.7677692
55.76339837
55.75904989
55.75472325
55.75041796
55.74613355
55.74186954
55.7376255
55.73340098
55.72919556
55.72500883
55.7208404
55.71668986
55.71255685
55.708441
55.70434194
55.70025934
55.69619284
55.69214212
55.68810685
55.68408673
55.68008144
55.67609068
55.67211416
55.66815159
55.6642027
55.66026721
55.65634486
55.65243538
55.64853852
55.64465403
55.64078167
55.63692119
55.63307237
55.62923498
55.62540878
55.62159358
55.61778914
55.61399526
55.61021174
55.60643837
55.60267495
55.5989213
55.59517723
55.59144254
55.58771706
55.5840006
55.580293
55.57659408
55.57290368
55.56922163
55.56554776
55.56188193
55.55822397
55.55457373
55.55093107
55.54729584
55.54366789
55.54004709
55.53643329
55.53282636
55.52922617
55.52563258
55.52204548
55.51846473
55.51489021
55.5113218
55.50775938
55.50420284
55.50065206
55.49710693
55.49356734
55.49003319
55.48650436
55.48298076
55.47946227
55.47594882
55.47244029
55.46893658
55.46543762
55.46194329
55.45845352
55.45496821
55.45148728
55.44801065
55.44453821
55.44106991
55.43760565
55.43414535
55.43068895
55.42723635
55.42378749
55.4203423
55.4169007
55.41346262
55.41002799
55.40659674
55.40316882
55.39974415
55.39632266
55.39290431
55.38948902
55.38607673
55.38266739
55.37926093
55.3758573
55.37245645
55.36905832
55.36566286
55.36227
55.35887971
55.35549193
55.35210661
55.3487237
55.34534316
55.34196494
55.33858899
55.33521526
55.33184372
55.32847431
55.32510701
55.32174175
55.31837852
55.31501725
55.31165793
55.3083005
55.30494493
55.30159118
55.29823921
55.294889
55.2915405
55.28819368
55.28484851
55.28150496
55.27816299
55.27482257
55.27148366
55.26814625
55.2648103
55.26147578
55.25814266
55.25481092
55.25148052
55.24815145
55.24482366
55.24149715
55.23817188
55.23484782
55.23152496
55.22820326
55.22488271
55.22156329
55.21824496
55.21492772
55.21161153
55.20829637
55.20498223
55.20166909
55.19835692
55.1950457
55.19173542
55.18842606
55.18511759
55.18181001
55.17850329
55.17519741
55.17189236
55.16858813
55.16528468
55.16198202
55.15868013
55.15537898
55.15207856
55.14877887
55.14547988
55.14218157
55.13888395
55.13558698
55.13229067
55.12899499
55.12569994
55.1224055
55.11911165
55.11581839
55.11252571
55.10923359
55.10594202
55.10265099
55.09936049
55.09607051
55.09278104
55.08949207
55.08620359
55.08291558
55.07962805
55.07634097
55.07305434
55.06976816
55.0664824
55.06319707
55.05991216
55.05662765
55.05334354
55.05005982
55.04677648
55.04349351
55.04021092
55.03692868
55.0336468
55.03036526
55.02708406
55.02380319
55.02052265
55.01724242
55.01396251
55.0106829
55.00740359
55.00412457
55.00084584
54.9975674
54.99428923
54.99101133
54.98773369
54.98445631
54.98117919
54.97790232
54.97462569
54.9713493
54.96807315
54.96479723
54.96152153
54.95824605
54.95497079
54.95169575
54.94842091
54.94514628
54.94187184
54.93859761
54.93532356
54.93204971
54.92877604
54.92550256
54.92222926
54.91895613
54.91568317
54.91241039
54.90913777
54.90586532
54.90259302
54.89932089
54.89604891
54.89277709
54.88950542
54.8862339
54.88296252
54.87969129
54.8764202
54.87314925
54.86987843
54.86660776
54.86333721
54.8600668
54.85679652
54.85352636
54.85025633
54.84698642
54.84371664
54.84044697
54.83717743
54.833908
54.83063868
54.82736948
54.82410039
54.8208314
54.81756253
54.81429376
54.81102509
54.80775652
54.80448806
54.80121969
54.79795141
54.79468323
54.79141515
54.78814715
54.78487924
54.78161142
54.77834368
54.77507602
54.77180845
54.76854095
54.76527353
54.76200618
54.7587389
54.7554717
54.75220456
54.74893749
54.74567048
54.74240353
54.73913664
54.73586981
54.73260304
54.72933632
54.72606965
54.72280303
54.71953646
54.71626994
54.71300346
54.70973702
54.70647062
54.70320426
54.69993794
54.69667165
54.69340539
54.69013917
54.68687297
54.68360681
54.68034067
54.67707456
54.67380847
54.6705424
54.66727636
54.66401033
54.66074432
54.65747833
54.65421235
54.65094638
54.64768042
54.64441446
54.64114851
0.5
56.54464066
56.54464066
56.24290564
56.20174586
56.18165589
56.16723697
56.15523601
56.1444926
56.13449447
56.12498888
56.11584257
56.10698185
56.09836393
56.08996242
56.08175966
56.07374262
56.06590075
56.05822485
56.05070647
56.04333768
56.03611096
56.02901911
56.02205532
56.0152131
56.00848631
56.0018692
55.99535634
55.98894264
55.98262335
55.976394
55.97025043
55.96418877
55.95820535
55.95229679
55.94645989
55.94069168
55.93498935
55.92935027
55.92377199
55.91825217
55.91278864
55.90737932
55.90202229
55.89671569
55.8914578
55.88624697
55.88108163
55.87596031
55.87088161
55.86584419
55.86084677
55.85588815
55.85096717
55.84608273
55.84123378
55.8364193
55.83163835
55.82688999
55.82217334
55.81748756
55.81283182
55.80820536
55.80360742
55.79903728
55.79449423
55.78997762
55.7854868
55.78102113
55.77658003
55.7721629
55.7677692
55.76339837
55.75904989
55.75472325
55.75041796
55.74613355
55.74186954
55.7376255
55.73340098
55.72919556
55.72500883
55.7208404
55.71668986
55.71255685
55.708441
55.70434194
55.70025934
55.69619284
55.69214212
55.68810685
55.68408673
55.68008144
55.67609068
55.67211416
55.66815159
55.6642027
55.66026721
55.65634486
55.65243538
55.64853852
55.64465403
55.64078167
55.63692119
55.63307237
55.62923498
55.62540878
55.62159358
55.61778914
55.61399526
55.61021174
55.60643837
55.60267495
55.5989213
55.59517723
55.59144254
55.58771706
55.5840006
55.580293
55.57659408
55.57290368
55.56922163
55.56554776
55.56188193
55.55822397
55.55457373
55.55093107
55.54729584
55.54366789
55.54004709
55.53643329
55.53282636
55.52922617
55.52563258
55.52204548
55.51846473
55.51489021
55.5113218
55.50775938
55.50420284
55.50065206
55.49710693
55.49356734
55.49003319
55.48650436
55.48298076
55.47946227
55.47594882
55.47244029
55.46893658
55.46543762
55.46194329
55.45845352
55.45496821
55.45148728
55.44801065
55.44453821
55.44106991
55.43760565
55.43414535
55.43068895
55.42723635
55.42378749
55.4203423
55.4169007
55.41346262
55.41002799
55.40659674
55.40316882
55.39974415
55.39632266
55.39290431
55.38948902
55.38607673
55.38266739
55.37926093
55.3758573
55.37245645
55.36905832
55.36566286
55.36227
55.35887971
55.35549193
55.35210661
55.3487237
55.34534316
55.34196494
55.33858899
55.33521526
55.33184372
55.32847431
55.32510701
55.32174175
55.31837852
55.31501725
55.31165793
55.3083005
55.30494493
55.30159118
55.29823921
55.294889
55.2915405
55.28819368
55.28484851
55.28150496
55.27816299
55.27482257
55.27148366
55.26814625
55.2648103
55.26147578
55.25814266
55.25481092
55.25148052
55.24815145
55.24482366
55.24149715
55.23817188
55.23484782
55.23152496
55.22820326
55.22488271
55.22156329
55.21824496
55.21492772
55.21161153
55.20829637
55.20498223
55.20166909
55.19835692
55.1950457
55.19173542
55.18842606
55.18511759
55.18181001
55.17850329
55.17519741
55.17189236
55.16858813
55.16528468
55.16198202
55.15868013
55.15537898
55.15207856
55.14877887
55.14547988
55.14218157
55.13888395
55.13558698
55.13229067
55.12899499
55.12569994
55.1224055
55.11911165
55.11581839
55.11252571
55.10923359
55.10594202
55.10265099
55.09936049
55.09607051
55.09278104
55.08949207
55.08620359
55.08291558
55.07962805
55.07634097
55.07305434
55.06976816
55.0664824
55.06319707
55.05991216
55.05662765
55.05334354
55.05005982
55.04677648
55.04349351
55.04021092
55.03692868
55.0336468
55.03036526
55.02708406
55.02380319
55.02052265
55.01724242
55.01396251
55.0106829
55.00740359
55.00412457
55.00084584
54.9975674
54.99428923
54.99101133
54.98773369
54.98445631
54.98117919
54.97790232
54.97462569
54.9713493
54.96807315
54.96479723
54.96152153
54.95824605
54.95497079
54.95169575
54.94842091
54.94514628
54.94187184
54.93859761
54.93532356
54.93204971
54.92877604
54.92550256
54.92222926
54.91895613
54.91568317
54.91241039
54.90913777
54.90586532
54.90259302
54.89932089
54.89604891
54.89277709
54.88950542
54.8862339
54.88296252
54.87969129
54.8764202
54.87314925
54.86987843
54.86660776
54.86333721
54.8600668
54.85679652
54.85352636
54.85025633
54.84698642
54.84371664
54.84044697
54.83717743
54.833908
54.83063868
54.82736948
54.82410039
54.8208314
54.81756253
54.81429376
54.81102509
54.80775652
54.80448806
54.80121969
54.79795141
54.79468323
54.79141515
54.78814715
54.78487924
54.78161142
54.77834368
54.77507602
54.77180845
54.76854095
54.76527353
54.76200618
54.7587389
54.7554717
54.75220456
54.74893749
54.74567048
54.74240353
54.73913664
54.73586981
54.73260304
54.72933632
54.72606965
54.72280303
54.71953646
54.71626994
54.71300346
54.70973702
54.70647062
54.70320426
54.69993794
54.69667165
54.69340539
54.69013917
54.68687297
54.68360681
54.68034067
54.67707456
54.67380847
54.6705424
54.66727636
54.66401033
54.66074432
54.65747833
54.65421235
54.65094638
54.64768042
54.64441446
54.64114851
54.64114851
56.53005891
56.53005891
56.24674152
56.20300128
56.18229114
56.16763148
56.15550771
56.14469204
56.13464761
56.12511058
56.115942
56.10706495
56.09843473
56.09002371
56.08181344
56.07379035
56.06594352
56.05826348
56.05074161
56.04336983
56.03614052
56.02904643
56.02208065
56.01523666
56.00850831
56.0018898
55.99537567
55.98896082
55.98264048
55.97641018
55.97026575
55.96420329
55.95821914
55.9523099
55.94647238
55.94070358
55.93500071
55.92936114
55.92378238
55.91826213
55.91279818
55.90738849
55.90203109
55.89672416
55.89146595
55.88625481
55.88108919
55.87596761
55.87088865
55.86585099
55.86085334
55.8558945
55.85097331
55.84608868
55.84123954
55.83642488
55.83164376
55.82689523
55.82217843
55.8174925
55.81283663
55.80821003
55.80361196
55.79904169
55.79449852
55.78998179
55.78549086
55.78102508
55.77658388
55.77216665
55.76777285
55.76340193
55.75905336
55.75472663
55.75042126
55.74613677
55.74187268
55.73762856
55.73340397
55.72919848
55.72501169
55.72084318
55.71669258
55.71255951
55.70844359
55.70434448
55.70026182
55.69619526
55.69214449
55.68810917
55.684089
55.68008365
55.67609285
55.67211628
55.66815367
55.66420473
55.6602692
55.6563468
55.65243728
55.64854038
55.64465585
55.64078345
55.63692293
55.63307408
55.62923665
55.62541042
55.62159518
55.61779071
55.61399679
55.61021324
55.60643984
55.60267639
55.59892271
55.59517861
55.59144389
55.58771838
55.5840019
55.58029427
55.57659533
55.5729049
55.56922282
55.56554893
55.56188307
55.55822509
55.55457483
55.55093215
55.5472969
55.54366893
55.5400481
55.53643428
55.53282733
55.52922712
55.52563352
55.52204639
55.51846562
55.51489108
55.51132266
55.50776022
55.50420366
55.50065287
55.49710772
55.49356812
55.49003395
55.4865051
55.48298148
55.47946299
55.47594952
55.47244097
55.46893726
55.46543827
55.46194394
55.45845415
55.45496883
55.45148789
55.44801124
55.4445388
55.44107048
55.43760621
55.4341459
55.43068948
55.42723688
55.42378801
55.4203428
55.41690119
55.4134631
55.41002846
55.40659721
55.40316928
55.3997446
55.3963231
55.39290474
55.38948944
55.38607714
55.38266779
55.37926133
55.37585769
55.37245683
55.36905869
55.36566322
55.36227036
55.35888006
55.35549227
55.35210695
55.34872403
55.34534349
55.34196525
55.3385893
55.33521556
55.33184401
55.3284746
55.32510729
55.32174203
55.31837879
55.31501752
55.31165819
55.30830076
55.30494518
55.30159142
55.29823945
55.29488924
55.29154073
55.28819391
55.28484874
55.28150518
55.2781632
55.27482278
55.27148387
55.26814646
55.2648105
55.26147598
55.25814286
55.25481111
55.25148071
55.24815163
55.24482384
55.24149732
55.23817204
55.23484798
55.23152512
55.22820342
55.22488287
55.22156344
55.21824511
55.21492786
55.21161167
55.20829651
55.20498237
55.20166922
55.19835705
55.19504583
55.19173555
55.18842618
55.18511771
55.18181013
55.1785034
55.17519752
55.17189247
55.16858823
55.16528479
55.16198213
55.15868023
55.15537908
55.15207866
55.14877896
55.14547997
55.14218167
55.13888404
55.13558707
55.13229076
55.12899508
55.12570002
55.12240558
55.11911173
55.11581847
55.11252579
55.10923366
55.10594209
55.10265106
55.09936056
55.09607058
55.09278111
55.08949214
55.08620365
55.08291565
55.07962811
55.07634103
55.0730544
55.06976821
55.06648246
55.06319713
55.05991221
55.0566277
55.05334359
55.05005987
55.04677653
55.04349357
55.04021097
55.03692873
55.03364685
55.03036531
55.0270841
55.02380323
55.02052269
55.01724246
55.01396255
55.01068294
55.00740363
55.00412461
55.00084588
54.99756744
54.99428926
54.99101136
54.98773373
54.98445635
54.98117923
54.97790235
54.97462573
54.97134934
54.96807318
54.96479726
54.96152156
54.95824608
54.95497082
54.95169578
54.94842094
54.9451463
54.94187187
54.93859763
54.93532359
54.93204974
54.92877607
54.92550258
54.92222928
54.91895615
54.91568319
54.91241041
54.90913779
54.90586534
54.90259304
54.89932091
54.89604893
54.89277711
54.88950544
54.88623392
54.88296254
54.87969131
54.87642021
54.87314926
54.86987845
54.86660777
54.86333723
54.86006681
54.85679653
54.85352637
54.85025634
54.84698644
54.84371665
54.84044699
54.83717744
54.83390801
54.83063869
54.82736949
54.8241004
54.82083141
54.81756254
54.81429377
54.8110251
54.80775653
54.80448807
54.8012197
54.79795142
54.79468324
54.79141516
54.78814716
54.78487925
54.78161143
54.77834369
54.77507603
54.77180845
54.76854096
54.76527353
54.76200618
54.75873891
54.7554717
54.75220456
54.74893749
54.74567048
54.74240353
54.73913665
54.73586982
54.73260304
54.72933632
54.72606965
54.72280304
54.71953647
54.71626994
54.71300346
54.70973702
54.70647062
54.70320426
54.69993794
54.69667165
54.69340539
54.69013917
54.68687298
54.68360681
54.68034067
54.67707456
54.67380847
54.6705424
54.66727636
54.66401033
54.66074432
54.65747833
54.65421235
54.65094638
54.64768042
54.64441446
54.64114851
54.64114851
56.51407432
56.51407432
56.24992994
56.20418846
56.18290714
56.16801775
56.15577513
56.14488898
56.13479909
56.12523105
56.11604043
56.1071472
56.09850475
56.09008428
56.08186654
56.07383743
56.06598567
56.05830152
56.05077618
56.04340145
56.03616958
56.02907325
56.02210551
56.01525979
56.0085299
56.00190999
55.99539462
55.98897864
55.98265728
55.97642604
55.97028076
55.96421751
55.95823264
55.95232274
55.9464846
55.94071523
55.93501183
55.92937177
55.92379255
55.91827187
55.91280752
55.90739745
55.9020397
55.89673243
55.89147391
55.88626248
55.88109658
55.87597473
55.87089553
55.86585763
55.86085976
55.85590071
55.85097932
55.84609449
55.84124516
55.83643034
55.83164904
55.82690036
55.82218341
55.81749733
55.81284132
55.80821458
55.80361638
55.79904599
55.79450271
55.78998587
55.78549482
55.78102894
55.77658763
55.77217031
55.76777641
55.7634054
55.75905674
55.75472994
55.75042448
55.74613991
55.74187575
55.73763155
55.73340689
55.72920133
55.72501447
55.7208459
55.71669524
55.7125621
55.70844613
55.70434695
55.70026423
55.69619763
55.6921468
55.68811143
55.6840912
55.68008581
55.67609496
55.67211834
55.66815569
55.66420671
55.66027113
55.65634869
55.65243913
55.64854219
55.64465762
55.64078518
55.63692463
55.63307574
55.62923827
55.62541201
55.62159673
55.61779223
55.61399829
55.6102147
55.60644127
55.6026778
55.59892409
55.59517995
55.59144521
55.58771967
55.58400316
55.58029551
55.57659654
55.57290608
55.56922398
55.56555007
55.56188419
55.55822618
55.5545759
55.5509332
55.54729792
55.54366993
55.54004909
55.53643525
55.53282828
55.52922805
55.52563442
55.52204728
55.51846649
55.51489194
55.51132349
55.50776104
55.50420447
55.50065365
55.49710849
55.49356887
55.49003469
55.48650583
55.48298219
55.47946369
55.4759502
55.47244164
55.46893791
55.46543892
55.46194457
55.45845477
55.45496944
55.45148848
55.44801182
55.44453936
55.44107104
55.43760675
55.43414643
55.43069001
55.42723739
55.42378851
55.4203433
55.41690167
55.41346357
55.41002893
55.40659766
55.40316972
55.39974503
55.39632353
55.39290516
55.38948985
55.38607754
55.38266818
55.37926171
55.37585807
55.3724572
55.36905906
55.36566358
55.36227071
55.3588804
55.35549261
55.35210728
55.34872436
55.3453438
55.34196556
55.3385896
55.33521586
55.3318443
55.32847489
55.32510757
55.32174231
55.31837906
55.31501779
55.31165845
55.30830101
55.30494542
55.30159166
55.29823969
55.29488947
55.29154096
55.28819413
55.28484896
55.28150539
55.27816341
55.27482298
55.27148407
55.26814665
55.26481069
55.26147617
55.25814304
55.25481129
55.25148088
55.2481518
55.24482401
55.24149749
55.23817221
55.23484814
55.23152528
55.22820357
55.22488302
55.22156359
55.21824526
55.21492801
55.21161181
55.20829665
55.2049825
55.20166935
55.19835718
55.19504596
55.19173567
55.1884263
55.18511783
55.18181024
55.17850352
55.17519763
55.17189258
55.16858834
55.1652849
55.16198223
55.15868033
55.15537918
55.15207876
55.14877906
55.14548006
55.14218176
55.13888413
55.13558716
55.13229084
55.12899516
55.1257001
55.12240566
55.11911181
55.11581855
55.11252586
55.10923374
55.10594217
55.10265114
55.09936063
55.09607065
55.09278118
55.0894922
55.08620372
55.08291571
55.07962817
55.07634109
55.07305446
55.06976827
55.06648252
55.06319718
55.05991227
55.05662775
55.05334364
55.05005992
55.04677658
55.04349361
55.04021102
55.03692878
55.03364689
55.03036535
55.02708415
55.02380328
55.02052273
55.0172425
55.01396259
55.01068298
55.00740367
55.00412465
55.00084592
54.99756747
54.9942893
54.9910114
54.98773376
54.98445638
54.98117926
54.97790239
54.97462576
54.97134937
54.96807321
54.96479729
54.96152159
54.95824611
54.95497085
54.9516958
54.94842096
54.94514633
54.9418719
54.93859766
54.93532361
54.93204976
54.92877609
54.92550261
54.9222293
54.91895617
54.91568322
54.91241043
54.90913781
54.90586536
54.90259307
54.89932093
54.89604895
54.89277713
54.88950546
54.88623393
54.88296256
54.87969132
54.87642023
54.87314928
54.86987847
54.86660779
54.86333724
54.86006683
54.85679655
54.85352639
54.85025636
54.84698645
54.84371667
54.840447
54.83717745
54.83390802
54.83063871
54.8273695
54.82410041
54.82083143
54.81756255
54.81429378
54.81102511
54.80775654
54.80448807
54.8012197
54.79795143
54.79468325
54.79141516
54.78814717
54.78487926
54.78161143
54.77834369
54.77507604
54.77180846
54.76854096
54.76527354
54.76200619
54.75873891
54.75547171
54.75220457
54.7489375
54.74567049
54.74240354
54.73913665
54.73586982
54.73260305
54.72933633
54.72606966
54.72280304
54.71953647
54.71626994
54.71300346
54.70973702
54.70647062
54.70320426
54.69993794
54.69667165
54.6934054
54.69013917
54.68687298
54.68360681
54.68034067
54.67707456
54.67380847
54.6705424
54.66727636
54.66401033
54.66074432
54.65747833
54.65421235
54.65094638
54.64768042
54.64441446
54.64114851
54.64114851
56.4981595
56.4981595
56.25281654
56.20532849
56.18350872
56.16839778
56.15603937
56.14508405
56.13494934
56.1253506
56.11613809
56.10722875
56.09857412
56.09014422
56.08191903
56.07388392
56.06602725
56.05833901
56.05081023
56.04343255
56.03619815
56.02909961
56.02212993
56.0152825
56.00855107
56.0019298
55.99541319
55.98899611
55.98267373
55.97644158
55.97029545
55.96423143
55.95824586
55.9523353
55.94649656
55.94072664
55.93502272
55.92938216
55.9238025
55.9182814
55.91281666
55.90740621
55.90204812
55.89674053
55.89148169
55.88626998
55.8811038
55.8759817
55.87090225
55.86586412
55.86086603
55.85590677
55.85098518
55.84610016
55.84125066
55.83643566
55.8316542
55.82690537
55.82218826
55.81750204
55.81284589
55.80821903
55.8036207
55.79905019
55.79450679
55.78998984
55.78549868
55.7810327
55.7765913
55.77217388
55.76777989
55.76340879
55.75906005
55.75473315
55.75042762
55.74614297
55.74187873
55.73763447