# vtk DataFile Version 2.0
FlowField
ASCII
DATASET STRUCTURED_GRID
DIMENSIONS 400 1 200
POINTS 80000 float
0 0 0
0.08 0 0
0.16 0 0
0.24 0 0
0.32 0 0
0.4 0 0
0.48 0 0
0.56 0 0
0.64 0 0
0.72 0 0
0.8 0 0
0.88 0 0
0.96 0 0
1.04 0 0
1.12 0 0
1.2 0 0
1.28 0 0
1.36 0 0
1.44 0 0
1.52 0 0
1.6 0 0
1.68 0 0
1.76 0 0
1.84 0 0
1.92 0 0
2 0 0
2.08 0 0
2.16 0 0
2.24 0 0
2.32 0 0
2.4 0 0
2.48 0 0
2.56 0 0
2.64 0 0
2.72 0 0
2.8 0 0
2.88 0 0
2.96 0 0
3.04 0 0
3.12 0 0
3.2 0 0
3.28 0 0
3.36 0 0
3.44 0 0
3.52 0 0
3.6 0 0
3.68 0 0
3.76 0 0
3.84 0 0
3.92 0 0
4 0 0
4.08 0 0
4.16 0 0
4.24 0 0
4.32 0 0
4.4 0 0
4.48 0 0
4.56 0 0
4.64 0 0
4.72 0 0
4.8 0 0
4.88 0 0
4.96 0 0
5.04 0 0
5.12 0 0
5.2 0 0
5.28 0 0
5.36 0 0
5.44 0 0
5.52 0 0
5.6 0 0
5.68 0 0
5.76 0 0
5.84 0 0
5.92 0 0
6 0 0
6.08 0 0
6.16 0 0
6.24 0 0
6.32 0 0
6.4 0 0
6.48 0 0
6.56 0 0
6.64 0 0
6.72 0 0
6.8 0 0
6.88 0 0
6.96 0 0
7.04 0 0
7.12 0 0
7.2 0 0
7.28 0 0
7.36 0 0
7.44 0 0
7.52 0 0
7.6 0 0
7.68 0 0
7.76 0 0
7.84 0 0
7.92 0 0
8 0 0
8.08 0 0
8.16 0 0
8.24 0 0
8.32 0 0
8.4 0 0
8.48 0 0
8.56 0 0
8.64 0 0
8.72 0 0
8.8 0 0
8.88 0 0
8.96 0 0
9.04 0 0
9.12 0 0
9.2 0 0
9.28 0 0
9.36 0 0
9.44 0 0
9.52 0 0
9.6 0 0
9.68 0 0
9.76 0 0
9.84 0 0
9.92 0 0
10 0 0
10.08 0 0
10.16 0 0
10.24 0 0
10.32 0 0
10.4 0 0
10.48 0 0
10.56 0 0
10.64 0 0
10.72 0 0
10.8 0 0
10.88 0 0
10.96 0 0
11.04 0 0
11.12 0 0
11.2 0 0
11.28 0 0
11.36 0 0
11.44 0 0
11.52 0 0
11.6 0 0
11.68 0 0
11.76 0 0
11.84 0 0
11.92 0 0
12 0 0
12.08 0 0
12.16 0 0
12.24 0 0
12.32 0 0
12.4 0 0
12.48 0 0
12.56 0 0
12.64 0 0
12.72 0 0
12.8 0 0
12.88 0 0
12.96 0 0
13.04 0 0
13.12 0 0
13.2 0 0
13.28 0 0
13.36 0 0
13.44 0 0
13.52 0 0
13.6 0 0
13.68 0 0
13.76 0 0
13.84 0 0
13.92 0 0
14 0 0
14.08 0 0
14.16 0 0
14.24 0 0
14.32 0 0
14.4 0 0
14.48 0 0
14.56 0 0
14.64 0 0
14.72 0 0
14.8 0 0
14.88 0 0
14.96 0 0
15.04 0 0
15.12 0 0
15.2 0 0
15.28 0 0
15.36 0 0
15.44 0 0
15.52 0 0
15.6 0 0
15.68 0 0
15.76 0 0
15.84 0 0
15.92 0 0
16 0 0
16.08 0 0
16.16 0 0
16.24 0 0
16.32 0 0
16.4 0 0
16.48 0 0
16.56 0 0
16.64 0 0
16.72 0 0
16.8 0 0
16.88 0 0
16.96 0 0
17.04 0 0
17.12 0 0
17.2 0 0
17.28 0 0
17.36 0 0
17.44 0 0
17.52 0 0
17.6 0 0
17.68 0 0
17.76 0 0
17.84 0 0
17.92 0 0
18 0 0
18.08 0 0
18.16 0 0
18.24 0 0
18.32 0 0
18.4 0 0
18.48 0 0
18.56 0 0
18.64 0 0
18.72 0 0
18.8 0 0
18.88 0 0
18.96 0 0
19.04 0 0
19.12 0 0
19.2 0 0
19.28 0 0
19.36 0 0
19.44 0 0
19.52 0 0
19.6 0 0
19.68 0 0
19.76 0 0
19.84 0 0
19.92 0 0
20 0 0
20.08 0 0
20.16 0 0
20.24 0 0
20.32 0 0
20.4 0 0
20.48 0 0
20.56 0 0
20.64 0 0
20.72 0 0
20.8 0 0
20.88 0 0
20.96 0 0
21.04 0 0
21.12 0 0
21.2 0 0
21.28 0 0
21.36 0 0
21.44 0 0
21.52 0 0
21.6 0 0
21.68 0 0
21.76 0 0
21.84 0 0
21.92 0 0
22 0 0
22.08 0 0
22.16 0 0
22.24 0 0
22.32 0 0
22.4 0 0
22.48 0 0
22.56 0 0
22.64 0 0
22.72 0 0
22.8 0 0
22.88 0 0
22.96 0 0
23.04 0 0
23.12 0 0
23.2 0 0
23.28 0 0
23.36 0 0
23.44 0 0
23.52 0 0
23.6 0 0
23.68 0 0
23.76 0 0
23.84 0 0
23.92 0 0
24 0 0
24.08 0 0
24.16 0 0
24.24 0 0
24.32 0 0
24.4 0 0
24.48 0 0
24.56 0 0
24.64 0 0
24.72 0 0
24.8 0 0
24.88 0 0
24.96 0 0
25.04 0 0
25.12 0 0
25.2 0 0
25.28 0 0
25.36 0 0
25.44 0 0
25.52 0 0
25.6 0 0
25.68 0 0
25.76 0 0
25.84 0 0
25.92 0 0
26 0 0
26.08 0 0
26.16 0 0
26.24 0 0
26.32 0 0
26.4 0 0
26.48 0 0
26.56 0 0
26.64 0 0
26.72 0 0
26.8 0 0
26.88 0 0
26.96 0 0
27.04 0 0
27.12 0 0
27.2 0 0
27.28 0 0
27.36 0 0
27.44 0 0
27.52 0 0
27.6 0 0
27.68 0 0
27.76 0 0
27.84 0 0
27.92 0 0
28 0 0
28.08 0 0
28.16 0 0
28.24 0 0
28.32 0 0
28.4 0 0
28.48 0 0
28.56 0 0
28.64 0 0
28.72 0 0
28.8 0 0
28.88 0 0
28.96 0 0
29.04 0 0
29.12 0 0
29.2 0 0
29.28 0 0
29.36 0 0
29.44 0 0
29.52 0 0
29.6 0 0
29.68 0 0
29.76 0 0
29.84 0 0
29.92 0 0
30 0 0
30.08 0 0
30.16 0 0
30.24 0 0
30.32 0 0
30.4 0 0
30.48 0 0
30.56 0 0
30.64 0 0
30.72 0 0
30.8 0 0
30.88 0 0
30.96 0 0
31.04 0 0
31.12 0 0
31.2 0 0
31.28 0 0
31.36 0 0
31.44 0 0
31.52 0 0
31.6 0 0
31.68 0 0
31.76 0 0
31.84 0 0
31.92 0 0
0 0.005 0
0.08 0.005 0
0.16 0.005 0
0.24 0.005 0
0.32 0.005 0
0.4 0.005 0
0.48 0.005 0
0.56 0.005 0
0.64 0.005 0
0.72 0.005 0
0.8 0.005 0
0.88 0.005 0
0.96 0.005 0
1.04 0.005 0
1.12 0.005 0
1.2 0.005 0
1.28 0.005 0
1.36 0.005 0
1.44 0.005 0
1.52 0.005 0
1.6 0.005 0
1.68 0.005 0
1.76 0.005 0
1.84 0.005 0
1.92 0.005 0
2 0.005 0
2.08 0.005 0
2.16 0.005 0
2.24 0.005 0
2.32 0.005 0
2.4 0.005 0
2.48 0.005 0
2.56 0.005 0
2.64 0.005 0
2.72 0.005 0
2.8 0.005 0
2.88 0.005 0
2.96 0.005 0
3.04 0.005 0
3.12 0.005 0
3.2 0.005 0
3.28 0.005 0
3.36 0.005 0
3.44 0.005 0
3.52 0.005 0
3.6 0.005 0
3.68 0.005 0
3.76 0.005 0
3.84 0.005 0
3.92 0.005 0
4 0.005 0
4.08 0.005 0
4.16 0.005 0
4.24 0.005 0
4.32 0.005 0
4.4 0.005 0
4.48 0.005 0
4.56 0.005 0
4.64 0.005 0
4.72 0.005 0
4.8 0.005 0
4.88 0.005 0
4.96 0.005 0
5.04 0.005 0
5.12 0.005 0
5.2 0.005 0
5.28 0.005 0
5.36 0.005 0
5.44 0.005 0
5.52 0.005 0
5.6 0.005 0
5.68 0.005 0
5.76 0.005 0
5.84 0.005 0
5.92 0.005 0
6 0.005 0
6.08 0.005 0
6.16 0.005 0
6.24 0.005 0
6.32 0.005 0
6.4 0.005 0
6.48 0.005 0
6.56 0.005 0
6.64 0.005 0
6.72 0.005 0
6.8 0.005 0
6.88 0.005 0
6.96 0.005 0
7.04 0.005 0
7.12 0.005 0
7.2 0.005 0
7.28 0.005 0
7.36 0.005 0
7.44 0.005 0
7.52 0.005 0
7.6 0.005 0
7.68 0.005 0
7.76 0.005 0
7.84 0.005 0
7.92 0.005 0
8 0.005 0
8.08 0.005 0
8.16 0.005 0
8.24 0.005 0
8.32 0.005 0
8.4 0.005 0
8.48 0.005 0
8.56 0.005 0
8.64 0.005 0
8.72 0.005 0
8.8 0.005 0
8.88 0.005 0
8.96 0.005 0
9.04 0.005 0
9.12 0.005 0
9.2 0.005 0
9.28 0.005 0
9.36 0.005 0
9.44 0.005 0
9.52 0.005 0
9.6 0.005 0
9.68 0.005 0
9.76 0.005 0
9.84 0.005 0
9.92 0.005 0
10 0.005 0
10.08 0.005 0
10.16 0.005 0
10.24 0.005 0
10.32 0.005 0
10.4 0.005 0
10.48 0.005 0
10.56 0.005 0
10.64 0.005 0
10.72 0.005 0
10.8 0.005 0
10.88 0.005 0
10.96 0.005 0
11.04 0.005 0
11.12 0.005 0
11.2 0.005 0
11.28 0.005 0
11.36 0.005 0
11.44 0.005 0
11.52 0.005 0
11.6 0.005 0
11.68 0.005 0
11.76 0.005 0
11.84 0.005 0
11.92 0.005 0
12 0.005 0
12.08 0.005 0
12.16 0.005 0
12.24 0.005 0
12.32 0.005 0
12.4 0.005 0
12.48 0.005 0
12.56 0.005 0
12.64 0.005 0
12.72 0.005 0
12.8 0.005 0
12.88 0.005 0
12.96 0.005 0
13.04 0.005 0
13.12 0.005 0
13.2 0.005 0
13.28 0.005 0
13.36 0.005 0
13.44 0.005 0
13.52 0.005 0
13.6 0.005 0
13.68 0.005 0
13.76 0.005 0
13.84 0.005 0
13.92 0.005 0
14 0.005 0
14.08 0.005 0
14.16 0.005 0
14.24 0.005 0
14.32 0.005 0
14.4 0.005 0
14.48 0.005 0
14.56 0.005 0
14.64 0.005 0
14.72 0.005 0
14.8 0.005 0
14.88 0.005 0
14.96 0.005 0
15.04 0.005 0
15.12 0.005 0
15.2 0.005 0
15.28 0.005 0
15.36 0.005 0
15.44 0.005 0
15.52 0.005 0
15.6 0.005 0
15.68 0.005 0
15.76 0.005 0
15.84 0.005 0
15.92 0.005 0
16 0.005 0
16.08 0.005 0
16.16 0.005 0
16.24 0.005 0
16.32 0.005 0
16.4 0.005 0
16.48 0.005 0
16.56 0.005 0
16.64 0.005 0
16.72 0.005 0
16.8 0.005 0
16.88 0.005 0
16.96 0.005 0
17.04 0.005 0
17.12 0.005 0
17.2 0.005 0
17.28 0.005 0
17.36 0.005 0
17.44 0.005 0
17.52 0.005 0
17.6 0.005 0
17.68 0.005 0
17.76 0.005 0
17.84 0.005 0
17.92 0.005 0
18 0.005 0
18.08 0.005 0
18.16 0.005 0
18.24 0.005 0
18.32 0.005 0
18.4 0.005 0
18.48 0.005 0
18.56 0.005 0
18.64 0.005 0
18.72 0.005 0
18.8 0.005 0
18.88 0.005 0
18.96 0.005 0
19.04 0.005 0
19.12 0.005 0
19.2 0.005 0
19.28 0.005 0
19.36 0.005 0
19.44 0.005 0
19.52 0.005 0
19.6 0.005 0
19.68 0.005 0
19.76 0.005 0
19.84 0.005 0
19.92 0.005 0
20 0.005 0
20.08 0.005 0
20.16 0.005 0
20.24 0.005 0
20.32 0.005 0
20.4 0.005 0
20.48 0.005 0
20.56 0.005 0
20.64 0.005 0
20.72 0.005 0
20.8 0.005 0
20.88 0.005 0
20.96 0.005 0
21.04 0.005 0
21.12 0.005 0
21.2 0.005 0
21.28 0.005 0
21.36 0.005 0
21.44 0.005 0
21.52 0.005 0
21.6 0.005 0
21.68 0.005 0
21.76 0.005 0
21.84 0.005 0
21.92 0.005 0
22 0.005 0
22.08 0.005 0
22.16 0.005 0
22.24 0.005 0
22.32 0.005 0
22.4 0.005 0
22.48 0.005 0
22.56 0.005 0
22.64 0.005 0
22.72 0.005 0
22.8 0.005 0
22.88 0.005 0
22.96 0.005 0
23.04 0.005 0
23.12 0.005 0
23.2 0.005 0
23.28 0.005 0
23.36 0.005 0
23.44 0.005 0
23.52 0.005 0
23.6 0.005 0
23.68 0.005 0
23.76 0.005 0
23.84 0.005 0
23.92 0.005 0
24 0.005 0
24.08 0.005 0
24.16 0.005 0
24.24 0.005 0
24.32 0.005 0
24.4 0.005 0
24.48 0.005 0
24.56 0.005 0
24.64 0.005 0
24.72 0.005 0
24.8 0.005 0
24.88 0.005 0
24.96 0.005 0
25.04 0.005 0
25.12 0.005 0
25.2 0.005 0
25.28 0.005 0
25.36 0.005 0
25.44 0.005 0
25.52 0.005 0
25.6 0.005 0
25.68 0.005 0
25.76 0.005 0
25.84 0.005 0
25.92 0.005 0
26 0.005 0
26.08 0.005 0
26.16 0.005 0
26.24 0.005 0
26.32 0.005 0
26.4 0.005 0
26.48 0.005 0
26.56 0.005 0
26.64 0.005 0
26.72 0.005 0
26.8 0.005 0
26.88 0.005 0
26.96 0.005 0
27.04 0.005 0
27.12 0.005 0
27.2 0.005 0
27.28 0.005 0
27.36 0.005 0
27.44 0.005 0
27.52 0.005 0
27.6 0.005 0
27.68 0.005 0
27.76 0.005 0
27.84 0.005 0
27.92 0.005 0
28 0.005 0
28.08 0.005 0
28.16 0.005 0
28.24 0.005 0
28.32 0.005 0
28.4 0.005 0
28.48 0.005 0
28.56 0.005 0
28.64 0.005 0
28.72 0.005 0
28.8 0.005 0
28.88 0.005 0
28.96 0.005 0
29.04 0.005 0
29.12 0.005 0
29.2 0.005 0
29.28 0.005 0
29.36 0.005 0
29.44 0.005 0
29.52 0.005 0
29.6 0.005 0
29.68 0.005 0
29.76 0.005 0
29.84 0.005 0
29.92 0.005 0
30 0.005 0
30.08 0.005 0
30.16 0.005 0
30.24 0.005 0
30.32 0.005 0
30.4 0.005 0
30.48 0.005 0
30.56 0.005 0
30.64 0.005 0
30.72 0.005 0
30.8 0.005 0
30.88 0.005 0
30.96 0.005 0
31.04 0.005 0
31.12 0.005 0
31.2 0.005 0
31.28 0.005 0
31.36 0.005 0
31.44 0.005 0
31.52 0.005 0
31.6 0.005 0
31.68 0.005 0
31.76 0.005 0
31.84 0.005 0
31.92 0.005 0
0 0.01 0
0.08 0.01 0
0.16 0.01 0
0.24 0.01 0
0.32 0.01 0
0.4 0.01 0
0.48 0.01 0
0.56 0.01 0
0.64 0.01 0
0.72 0.01 0
0.8 0.01 0
0.88 0.01 0
0.96 0.01 0
1.04 0.01 0
1.12 0.01 0
1.2 0.01 0
1.28 0.01 0
1.36 0.01 0
1.44 0.01 0
1.52 0.01 0
1.6 0.01 0
1.68 0.01 0
1.76 0.01 0
1.84 0.01 0
1.92 0.01 0
2 0.01 0
2.08 0.01 0
2.16 0.01 0
2.24 0.01 0
2.32 0.01 0
2.4 0.01 0
2.48 0.01 0
2.56 0.01 0
2.64 0.01 0
2.72 0.01 0
2.8 0.01 0
2.88 0.01 0
2.96 0.01 0
3.04 0.01 0
3.12 0.01 0
3.2 0.01 0
3.28 0.01 0
3.36 0.01 0
3.44 0.01 0
3.52 0.01 0
3.6 0.01 0
3.68 0.01 0
3.76 0.01 0
3.84 0.01 0
3.92 0.01 0
4 0.01 0
4.08 0.01 0
4.16 0.01 0
4.24 0.01 0
4.32 0.01 0
4.4 0.01 0
4.48 0.01 0
4.56 0.01 0
4.64 0.01 0
4.72 0.01 0
4.8 0.01 0
4.88 0.01 0
4.96 0.01 0
5.04 0.01 0
5.12 0.01 0
[...]
POINT_DATA 80000

SCALARS p float 1
LOOKUP_TABLE default
1
56.56026599
56.2585307
56.21737066
56.19728046
56.18286129
56.1708601
56.16011645
56.1501181
56.14061228
56.13146575
56.1226048
56.11398666
56.10558493
56.09738195
56.0893647
56.08152262
56.0738465
56.06632791
56.05895892
56.05173199
56.04463995
56.03767595
56.03083353
56.02410655
56.01748925
56.01097619
56.00456231
55.99824282
55.99201329
55.98586954
55.9798077
55.9738241
55.96791537
55.9620783
55.95630992
55.95060742
55.94496818
55.93938973
55.93386975
55.92840606
55.92299659
55.9176394
55.91233266
55.90707462
55.90186364
55.89669816
55.89157671
55.88649787
55.88146031
55.87646276
55.87150401
55.8665829
55.86169834
55.85684926
55.85203467
55.84725359
55.84250512
55.83778836
55.83310247
55.82844663
55.82382006
55.81922202
55.81465177
55.81010863
55.80559192
55.801101
55.79663524
55.79219405
55.78777684
55.78338305
55.77901214
55.77466359
55.77033688
55.76603152
55.76174704
55.75748298
55.75323888
55.74901432
55.74480887
55.74062211
55.73645367
55.73230314
55.72817015
55.72405433
55.71995534
55.71587283
55.71180647
55.70775593
55.7037209
55.69970107
55.69569615
55.69170585
55.6877299
55.68376805
55.67982004
55.67588562
55.67196459
55.66805672
55.66416184
55.66027976
55.65641032
55.65255339
55.64870883
55.64487655
55.64105642
55.63724839
55.63345237
55.62966831
55.62589614
55.6221358
55.61838724
55.61465038
55.61092518
55.60721155
55.60350942
55.59981871
55.59613932
55.59247112
55.588814
55.58516781
55.58153241
55.57790765
55.57429339
55.57068944
55.56709564
55.56351177
55.55993762
55.55637298
55.55281762
55.54927133
55.54573389
55.54220509
55.53868468
55.53517243
55.53166808
55.52817137
55.52468201
55.52119977
55.51772438
55.51425562
55.51079324
55.50733702
55.5038867
55.50044203
55.49700274
55.49356857
55.49013928
55.48671462
55.48329437
55.47987833
55.47646628
55.47305802
55.46965334
55.46625202
55.46285382
55.45945854
55.45606597
55.4526759
55.44928817
55.4459026
55.44251906
55.4391374
55.43575745
55.43237907
55.42900209
55.42562636
55.4222517
55.41887797
55.41550501
55.41213269
55.4087609
55.40538954
55.40201851
55.39864776
55.39527722
55.39190684
55.38853658
55.38516641
55.38179629
55.37842621
55.37505614
55.37168608
55.36831601
55.36494593
55.36157583
55.35820572
55.35483558
55.35146542
55.34809524
55.34472504
55.34135481
55.33798457
55.3346143
55.33124401
55.3278737
55.32450336
55.321133
55.31776261
55.31439221
55.31102178
55.30765132
55.30428084
55.30091034
55.29753982
55.29416927
55.2907987
55.2874281
55.28405748
55.28068684
55.27731617
55.27394548
55.27057477
55.26720403
55.26383327
55.26046249
55.25709168
55.25372085
55.25034999
55.24697911
55.24360821
55.24023728
55.23686633
55.23349535
55.23012435
55.22675333
55.22338228
55.22001121
55.21664011
55.21326899
55.20989785
55.20652668
55.20315549
55.19978427
55.19641303
55.19304176
55.18967048
55.18629916
55.18292782
55.17955646
55.17618507
55.17281366
55.16944223
55.16607077
55.16269928
55.15932777
55.15595624
55.15258468
55.1492131
55.14584149
55.14246986
55.1390982
55.13572652
55.13235481
55.12898308
55.12561133
55.12223955
55.11886774
55.11549591
55.11212406
55.10875218
55.10538027
55.10200834
55.09863639
55.09526441
55.0918924
55.08852037
55.08514832
55.08177624
55.07840413
55.075032
55.07165984
55.06828766
55.06491546
55.06154322
55.05817097
55.05479868
55.05142638
55.04805404
55.04468169
55.0413093
55.03793689
55.03456446
55.031192
55.02781951
55.024447
55.02107446
55.0177019
55.01432931
55.0109567
55.00758406
55.00421139
55.0008387
54.99746599
54.99409324
54.99072047
54.98734768
54.98397486
54.98060201
54.97722914
54.97385624
54.97048332
54.96711037
54.96373739
54.96036439
54.95699136
54.95361831
54.95024523
54.94687212
54.94349899
54.94012583
54.93675264
54.93337943
54.93000619
54.92663293
54.92325964
54.91988632
54.91651298
54.91313961
54.90976621
54.90639279
54.90301934
54.89964586
54.89627236
54.89289883
54.88952528
54.88615169
54.88277809
54.87940445
54.87603079
54.8726571
54.86928338
54.86590964
54.86253587
54.85916207
54.85578825
54.8524144
54.84904052
54.84566662
54.84229269
54.83891873
54.83554474
54.83217073
54.82879669
54.82542263
54.82204853
54.81867441
54.81530026
54.81192609
54.80855188
54.80517765
54.8018034
54.79842911
54.7950548
54.79168046
54.7883061
54.7849317
54.78155728
54.77818283
54.77480835
54.77143385
54.76805932
54.76468476
54.76131017
54.75793556
54.75456092
54.75118625
54.74781155
54.74443682
54.74106207
54.73768729
54.73431248
54.73093764
54.72756278
54.72418789
54.72081297
54.71743802
54.71406304
54.71068804
54.70731301
54.70393794
54.70056286
54.69718774
54.6938126
54.69043742
54.68706223
54.683687
54.68031174
54.67693646
54.67356114
54.6701858
54.66681042
54.66343504
54.66005957
54.65668416
54.65330856
54.6499332
54.64655738
54.64318305
0.5
56.56026599
56.56026599
56.2585307
56.21737066
56.19728046
56.18286129
56.1708601
56.16011645
56.1501181
56.14061228
56.13146575
56.1226048
56.11398666
56.10558493
56.09738195
56.0893647
56.08152262
56.0738465
56.06632791
56.05895892
56.05173199
56.04463995
56.03767595
56.03083353
56.02410655
56.01748925
56.01097619
56.00456231
55.99824282
55.99201329
55.98586954
55.9798077
55.9738241
55.96791537
55.9620783
55.95630992
55.95060742
55.94496818
55.93938973
55.93386975
55.92840606
55.92299659
55.9176394
55.91233266
55.90707462
55.90186364
55.89669816
55.89157671
55.88649787
55.88146031
55.87646276
55.87150401
55.8665829
55.86169834
55.85684926
55.85203467
55.84725359
55.84250512
55.83778836
55.83310247
55.82844663
55.82382006
55.81922202
55.81465177
55.81010863
55.80559192
55.801101
55.79663524
55.79219405
55.78777684
55.78338305
55.77901214
55.77466359
55.77033688
55.76603152
55.76174704
55.75748298
55.75323888
55.74901432
55.74480887
55.74062211
55.73645367
55.73230314
55.72817015
55.72405433
55.71995534
55.71587283
55.71180647
55.70775593
55.7037209
55.69970107
55.69569615
55.69170585
55.6877299
55.68376805
55.67982004
55.67588562
55.67196459
55.66805672
55.66416184
55.66027976
55.65641032
55.65255339
55.64870883
55.64487655
55.64105642
55.63724839
55.63345237
55.62966831
55.62589614
55.6221358
55.61838724
55.61465038
55.61092518
55.60721155
55.60350942
55.59981871
55.59613932
55.59247112
55.588814
55.58516781
55.58153241
55.57790765
55.57429339
55.57068944
55.56709564
55.56351177
55.55993762
55.55637298
55.55281762
55.54927133
55.54573389
55.54220509
55.53868468
55.53517243
55.53166808
55.52817137
55.52468201
55.52119977
55.51772438
55.51425562
55.51079324
55.50733702
55.5038867
55.50044203
55.49700274
55.49356857
55.49013928
55.48671462
55.48329437
55.47987833
55.47646628
55.47305802
55.46965334
55.46625202
55.46285382
55.45945854
55.45606597
55.4526759
55.44928817
55.4459026
55.44251906
55.4391374
55.43575745
55.43237907
55.42900209
55.42562636
55.4222517
55.41887797
55.41550501
55.41213269
55.4087609
55.40538954
55.40201851
55.39864776
55.39527722
55.39190684
55.38853658
55.38516641
55.38179629
55.37842621
55.37505614
55.37168608
55.36831601
55.36494593
55.36157583
55.35820572
55.35483558
55.35146542
55.34809524
55.34472504
55.34135481
55.33798457
55.3346143
55.33124401
55.3278737
55.32450336
55.321133
55.31776261
55.31439221
55.31102178
55.30765132
55.30428084
55.30091034
55.29753982
55.29416927
55.2907987
55.2874281
55.28405748
55.28068684
55.27731617
55.27394548
55.27057477
55.26720403
55.26383327
55.26046249
55.25709168
55.25372085
55.25034999
55.24697911
55.24360821
55.24023728
55.23686633
55.23349535
55.23012435
55.22675333
55.22338228
55.22001121
55.21664011
55.21326899
55.20989785
55.20652668
55.20315549
55.19978427
55.19641303
55.19304176
55.18967048
55.18629916
55.18292782
55.17955646
55.17618507
55.17281366
55.16944223
55.16607077
55.16269928
55.15932777
55.15595624
55.15258468
55.1492131
55.14584149
55.14246986
55.1390982
55.13572652
55.13235481
55.12898308
55.12561133
55.12223955
55.11886774
55.11549591
55.11212406
55.10875218
55.10538027
55.10200834
55.09863639
55.09526441
55.0918924
55.08852037
55.08514832
55.08177624
55.07840413
55.075032
55.07165984
55.06828766
55.06491546
55.06154322
55.05817097
55.05479868
55.05142638
55.04805404
55.04468169
55.0413093
55.03793689
55.03456446
55.031192
55.02781951
55.024447
55.02107446
55.0177019
55.01432931
55.0109567
55.00758406
55.00421139
55.0008387
54.99746599
54.99409324
54.99072047
54.98734768
54.98397486
54.98060201
54.97722914
54.97385624
54.97048332
54.96711037
54.96373739
54.96036439
54.95699136
54.95361831
54.95024523
54.94687212
54.94349899
54.94012583
54.93675264
54.93337943
54.93000619
54.92663293
54.92325964
54.91988632
54.91651298
54.91313961
54.90976621
54.90639279
54.90301934
54.89964586
54.89627236
54.89289883
54.88952528
54.88615169
54.88277809
54.87940445
54.87603079
54.8726571
54.86928338
54.86590964
54.86253587
54.85916207
54.85578825
54.8524144
54.84904052
54.84566662
54.84229269
54.83891873
54.83554474
54.83217073
54.82879669
54.82542263
54.82204853
54.81867441
54.81530026
54.81192609
54.80855188
54.80517765
54.8018034
54.79842911
54.7950548
54.79168046
54.7883061
54.7849317
54.78155728
54.77818283
54.77480835
54.77143385
54.76805932
54.76468476
54.76131017
54.75793556
54.75456092
54.75118625
54.74781155
54.74443682
54.74106207
54.73768729
54.73431248
54.73093764
54.72756278
54.72418789
54.72081297
54.71743802
54.71406304
54.71068804
54.70731301
54.70393794
54.70056286
54.69718774
54.6938126
54.69043742
54.68706223
54.683687
54.68031174
54.67693646
54.67356114
54.6701858
54.66681042
54.66343504
54.66005957
54.65668416
54.65330856
54.6499332
54.64655738
54.64318305
54.64318305
56.54568424
56.54568424
56.26236656
56.21862607
56.19791569
56.18325579
56.17113178
56.16031589
56.15027123
56.14073396
56.13156516
56.12268789
56.11405745
56.10564621
56.09743572
56.08941242
56.08156538
56.07388513
56.06636304
56.05899106
56.05176155
56.04466725
56.03770127
56.03085709
56.02412854
56.01750983
56.01099551
56.00458047
55.99825995
55.99202947
55.98588485
55.97982221
55.97383788
55.96792847
55.96209077
55.95632181
55.95061877
55.94497903
55.93940011
55.9338797
55.9284156
55.92300574
55.9176482
55.91234111
55.90708275
55.90187147
55.89670571
55.89158399
55.88650489
55.8814671
55.87646932
55.87151035
55.86658904
55.86170427
55.85685501
55.85204024
55.847259
55.84251036
55.83779344
55.8331074
55.82845142
55.82382472
55.81922654
55.81465617
55.81011291
55.80559608
55.80110505
55.79663919
55.79219789
55.78778058
55.78338669
55.77901569
55.77466705
55.77034025
55.76603481
55.76175025
55.75748611
55.75324194
55.7490173
55.74481178
55.74062496
55.73645644
55.73230585
55.72817279
55.72405692
55.71995787
55.7158753
55.71180889
55.70775829
55.70372321
55.69970332
55.69569835
55.691708
55.68773201
55.68377011
55.67982205
55.67588759
55.67196652
55.66805861
55.66416368
55.66028156
55.65641208
55.65255511
55.64871052
55.64487819
55.64105803
55.63724996
55.6334539
55.6296698
55.62589759
55.62213722
55.61838861
55.61465172
55.61092648
55.60721281
55.60351064
55.5998199
55.59614046
55.59247223
55.58881506
55.58516884
55.5815334
55.57790861
55.57429431
55.57069033
55.56709648
55.56351258
55.5599384
55.55637372
55.55281833
55.54927201
55.54573454
55.5422057
55.53868526
55.53517298
55.5316686
55.52817186
55.52468248
55.52120021
55.51772479
55.514256
55.5107936
55.50733735
55.50388701
55.50044232
55.49700301
55.49356882
55.49013951
55.48671483
55.48329457
55.4798785
55.47646644
55.47305817
55.46965347
55.46625213
55.46285392
55.45945863
55.45606604
55.45267597
55.44928822
55.44590265
55.4425191
55.43913743
55.43575747
55.43237908
55.4290021
55.42562636
55.4222517
55.41887796
55.415505
55.41213268
55.40876089
55.40538952
55.4020185
55.39864774
55.3952772
55.39190682
55.38853656
55.38516639
55.38179627
55.37842619
55.37505612
55.37168606
55.36831599
55.36494591
55.36157581
55.35820569
55.35483555
55.35146539
55.34809522
55.34472501
55.34135479
55.33798454
55.33461428
55.33124399
55.32787367
55.32450334
55.32113298
55.31776259
55.31439218
55.31102175
55.3076513
55.30428082
55.30091032
55.29753979
55.29416925
55.29079867
55.28742808
55.28405746
55.28068682
55.27731615
55.27394546
55.27057475
55.26720401
55.26383325
55.26046246
55.25709166
55.25372082
55.25034997
55.24697909
55.24360818
55.24023726
55.2368663
55.23349533
55.23012433
55.2267533
55.22338226
55.22001119
55.21664009
55.21326897
55.20989783
55.20652666
55.20315547
55.19978425
55.19641301
55.19304174
55.18967045
55.18629914
55.1829278
55.17955644
55.17618505
55.17281364
55.16944221
55.16607075
55.16269926
55.15932775
55.15595622
55.15258466
55.14921308
55.14584147
55.14246984
55.13909818
55.1357265
55.13235479
55.12898306
55.12561131
55.12223953
55.11886772
55.11549589
55.11212404
55.10875216
55.10538025
55.10200832
55.09863637
55.09526439
55.09189238
55.08852035
55.0851483
55.08177622
55.07840411
55.07503198
55.07165982
55.06828764
55.06491544
55.0615432
55.05817095
55.05479867
55.05142636
55.04805402
55.04468167
55.04130928
55.03793687
55.03456444
55.03119198
55.02781949
55.02444698
55.02107444
55.01770188
55.01432929
55.01095668
55.00758404
55.00421137
55.00083868
54.99746597
54.99409322
54.99072046
54.98734766
54.98397484
54.98060199
54.97722912
54.97385622
54.9704833
54.96711035
54.96373737
54.96036437
54.95699134
54.95361829
54.95024521
54.9468721
54.94349897
54.94012581
54.93675263
54.93337941
54.93000618
54.92663291
54.92325962
54.9198863
54.91651296
54.91313959
54.90976619
54.90639277
54.90301932
54.89964585
54.89627234
54.89289882
54.88952526
54.88615168
54.88277807
54.87940443
54.87603077
54.87265708
54.86928337
54.86590962
54.86253585
54.85916206
54.85578823
54.85241438
54.84904051
54.8456666
54.84229267
54.83891871
54.83554473
54.83217071
54.82879668
54.82542261
54.82204852
54.81867439
54.81530025
54.81192607
54.80855187
54.80517764
54.80180338
54.7984291
54.79505479
54.79168045
54.78830608
54.78493169
54.78155726
54.77818282
54.77480834
54.77143383
54.7680593
54.76468474
54.76131016
54.75793554
54.7545609
54.75118623
54.74781153
54.74443681
54.74106205
54.73768727
54.73431247
54.73093763
54.72756276
54.72418787
54.72081295
54.717438
54.71406303
54.71068802
54.70731299
54.70393793
54.70056284
54.69718773
54.69381258
54.69043741
54.68706221
54.68368698
54.68031173
54.67693644
54.67356113
54.67018579
54.66681041
54.66343502
54.66005955
54.65668414
54.65330855
54.64993318
54.64655739
54.64318304
54.64318304
56.52969964
56.52969964
56.26555499
56.21981325
56.19853169
56.18364206
56.17139921
56.16051282
56.15042271
56.14085444
56.1316636
56.12277014
56.11412747
56.10570678
56.09748882
56.0894595
56.08160753
56.07392317
56.06639762
56.05902267
56.0517906
56.04469407
56.03772613
56.03088021
56.02415012
56.01753002
56.01101446
56.00459829
55.99827674
55.99204532
55.98589986
55.97983643
55.97385138
55.9679413
55.96210299
55.95633346
55.95062989
55.94498966
55.93941028
55.93388944
55.92842494
55.92301471
55.91765681
55.91234939
55.90709072
55.90187914
55.8967131
55.89159112
55.88651177
55.88147374
55.87647574
55.87151656
55.86659504
55.86171009
55.85686064
55.85204569
55.84726428
55.84251548
55.83779842
55.83311223
55.82845611
55.82382927
55.81923097
55.81466047
55.81011709
55.80560015
55.80110901
55.79664304
55.79220165
55.78778424
55.78339026
55.77901916
55.77467043
55.77034355
55.76603803
55.76175339
55.75748917
55.75324493
55.74902022
55.74481463
55.74062774
55.73645916
55.7323085
55.72817538
55.72405945
55.71996034
55.71587772
55.71181125
55.7077606
55.70372546
55.69970553
55.69570051
55.69171011
55.68773407
55.68377213
55.67982402
55.67588952
55.6719684
55.66806046
55.66416549
55.66028332
55.65641381
55.6525568
55.64871217
55.6448798
55.6410596
55.63725149
55.6334554
55.62967126
55.62589901
55.6221386
55.61838996
55.61465303
55.61092774
55.60721404
55.60351183
55.59982105
55.59614158
55.5924733
55.5888161
55.58516984
55.58153437
55.57790954
55.5742952
55.57069118
55.56709731
55.56351337
55.55993915
55.55637444
55.55281902
55.54927266
55.54573516
55.54220629
55.53868582
55.53517351
55.53166911
55.52817233
55.52468293
55.52120063
55.51772519
55.51425638
55.51079395
55.50733768
55.50388732
55.5004426
55.49700327
55.49356907
55.49013974
55.48671504
55.48329476
55.47987868
55.4764666
55.47305831
55.4696536
55.46625225
55.46285403
55.45945873
55.45606613
55.45267604
55.44928829
55.44590271
55.44251915
55.43913747
55.4357575
55.43237911
55.42900212
55.42562637
55.42225171
55.41887797
55.415505
55.41213268
55.40876088
55.40538952
55.40201849
55.39864774
55.39527719
55.39190681
55.38853655
55.38516638
55.38179626
55.37842618
55.37505611
55.37168605
55.36831598
55.3649459
55.3615758
55.35820568
55.35483554
55.35146538
55.3480952
55.344725
55.34135478
55.33798453
55.33461427
55.33124398
55.32787366
55.32450332
55.32113296
55.31776258
55.31439217
55.31102174
55.30765129
55.30428081
55.30091031
55.29753978
55.29416923
55.29079866
55.28742807
55.28405745
55.28068681
55.27731614
55.27394545
55.27057474
55.267204
55.26383324
55.26046245
55.25709164
55.25372081
55.25034996
55.24697908
55.24360817
55.24023724
55.23686629
55.23349532
55.23012432
55.22675329
55.22338225
55.22001117
55.21664008
55.21326896
55.20989781
55.20652665
55.20315545
55.19978424
55.196413
55.19304173
55.18967044
55.18629913
55.18292779
55.17955643
55.17618504
55.17281363
55.16944219
55.16607073
55.16269925
55.15932774
55.15595621
55.15258465
55.14921307
55.14584146
55.14246983
55.13909817
55.13572649
55.13235478
55.12898305
55.1256113
55.12223952
55.11886771
55.11549588
55.11212402
55.10875214
55.10538024
55.10200831
55.09863635
55.09526437
55.09189237
55.08852034
55.08514828
55.0817762
55.0784041
55.07503197
55.07165981
55.06828763
55.06491542
55.06154319
55.05817094
55.05479865
55.05142635
55.04805401
55.04468166
55.04130927
55.03793686
55.03456443
55.03119197
55.02781948
55.02444697
55.02107443
55.01770187
55.01432928
55.01095667
55.00758403
55.00421136
55.00083867
54.99746596
54.99409321
54.99072044
54.98734765
54.98397483
54.98060198
54.97722911
54.97385621
54.97048329
54.96711034
54.96373736
54.96036436
54.95699133
54.95361828
54.9502452
54.94687209
54.94349896
54.9401258
54.93675261
54.9333794
54.93000616
54.9266329
54.92325961
54.91988629
54.91651295
54.91313958
54.90976618
54.90639276
54.90301931
54.89964584
54.89627233
54.8928988
54.88952525
54.88615167
54.88277806
54.87940442
54.87603076
54.87265707
54.86928335
54.86590961
54.86253584
54.85916204
54.85578822
54.85241437
54.84904049
54.84566659
54.84229266
54.8389187
54.83554472
54.8321707
54.82879666
54.8254226
54.8220485
54.81867438
54.81530023
54.81192606
54.80855186
54.80517763
54.80180337
54.79842909
54.79505477
54.79168043
54.78830607
54.78493167
54.78155725
54.7781828
54.77480833
54.77143382
54.76805929
54.76468473
54.76131015
54.75793553
54.75456089
54.75118622
54.74781152
54.7444368
54.74106204
54.73768726
54.73431245
54.73093762
54.72756275
54.72418786
54.72081294
54.71743799
54.71406302
54.71068801
54.70731298
54.70393792
54.70056283
54.69718771
54.69381257
54.6904374
54.6870622
54.68368697
54.68031171
54.67693643
54.67356111
54.67018578
54.66681039
54.66343501
54.66005954
54.65668412
54.65330854
54.64993316
54.6465574
54.64318303
54.64318303
56.51378481
56.51378481
56.26844158
56.22095328
56.19913327
56.18402209
56.17166345
56.1607079
56.15057295
56.14097399
56.13176126
56.12285169
56.11419683
56.10576672
56.09754131
56.08950599
56.0816491
56.07396066
56.06643166
56.05905378
56.05181917
56.04472043
56.03775055
56.03090292
56.0241713
56.01754983
56.01103303
56.00461576
55.9982932
55.99206086
55.98591455
55.97985035
55.9738646
55.96795387
55.96211495
55.95634486
55.95064077
55.94500006
55.93942023
55.93389897
55.92843407
55.92302347
55.91766522
55.91235748
55.9070985
55.90188664
55.89672033
55.89159808
55.88651849
55.88148023
55.87648201
55.87152262
55.8666009
55.86171576
55.85686613
55.85205102
55.84726944
55.84252049
55.83780327
55.83311694
55.82846069
55.82383372
55.81923529
55.81466467
55.81012118
55.80560413
55.80111288
55.79664681
55.79220531
55.78778781
55.78339374
55.77902255
55.77467373
55.77034677
55.76604117
55.76175645
55.75749216
55.75324784
55.74902306
55.7448174