# vtk DataFile Version 2.0
FlowField
ASCII
DATASET STRUCTURED_GRID
DIMENSIONS 400 1 200
POINTS 80000 float
0 0 0
0.08 0 0
0.16 0 0
0.24 0 0
0.32 0 0
0.4 0 0
0.48 0 0
0.56 0 0
0.64 0 0
0.72 0 0
0.8 0 0
0.88 0 0
0.96 0 0
1.04 0 0
1.12 0 0
1.2 0 0
1.28 0 0
1.36 0 0
1.44 0 0
1.52 0 0
1.6 0 0
1.68 0 0
1.76 0 0
1.84 0 0
1.92 0 0
2 0 0
2.08 0 0
2.16 0 0
2.24 0 0
2.32 0 0
2.4 0 0
2.48 0 0
2.56 0 0
2.64 0 0
2.72 0 0
2.8 0 0
2.88 0 0
2.96 0 0
3.04 0 0
3.12 0 0
3.2 0 0
3.28 0 0
3.36 0 0
3.44 0 0
3.52 0 0
3.6 0 0
3.68 0 0
3.76 0 0
3.84 0 0
3.92 0 0
4 0 0
4.08 0 0
4.16 0 0
4.24 0 0
4.32 0 0
4.4 0 0
4.48 0 0
4.56 0 0
4.64 0 0
4.72 0 0
4.8 0 0
4.88 0 0
4.96 0 0
5.04 0 0
5.12 0 0
5.2 0 0
5.28 0 0
5.36 0 0
5.44 0 0
5.52 0 0
5.6 0 0
5.68 0 0
5.76 0 0
5.84 0 0
5.92 0 0
6 0 0
6.08 0 0
6.16 0 0
6.24 0 0
6.32 0 0
6.4 0 0
6.48 0 0
6.56 0 0
6.64 0 0
6.72 0 0
6.8 0 0
6.88 0 0
6.96 0 0
7.04 0 0
7.12 0 0
7.2 0 0
7.28 0 0
7.36 0 0
7.44 0 0
7.52 0 0
7.6 0 0
7.68 0 0
7.76 0 0
7.84 0 0
7.92 0 0
8 0 0
8.08 0 0
8.16 0 0
8.24 0 0
8.32 0 0
8.4 0 0
8.48 0 0
8.56 0 0
8.64 0 0
8.72 0 0
8.8 0 0
8.88 0 0
8.96 0 0
9.04 0 0
9.12 0 0
9.2 0 0
9.28 0 0
9.36 0 0
9.44 0 0
9.52 0 0
9.6 0 0
9.68 0 0
9.76 0 0
9.84 0 0
9.92 0 0
10 0 0
10.08 0 0
10.16 0 0
10.24 0 0
10.32 0 0
10.4 0 0
10.48 0 0
10.56 0 0
10.64 0 0
10.72 0 0
10.8 0 0
10.88 0 0
10.96 0 0
11.04 0 0
11.12 0 0
11.2 0 0
11.28 0 0
11.36 0 0
11.44 0 0
11.52 0 0
11.6 0 0
11.68 0 0
11.76 0 0
11.84 0 0
11.92 0 0
12 0 0
12.08 0 0
12.16 0 0
12.24 0 0
12.32 0 0
12.4 0 0
12.48 0 0
12.56 0 0
12.64 0 0
12.72 0 0
12.8 0 0
12.88 0 0
12.96 0 0
13.04 0 0
13.12 0 0
13.2 0 0
13.28 0 0
13.36 0 0
13.44 0 0
13.52 0 0
13.6 0 0
13.68 0 0
13.76 0 0
13.84 0 0
13.92 0 0
14 0 0
14.08 0 0
14.16 0 0
14.24 0 0
14.32 0 0
14.4 0 0
14.48 0 0
14.56 0 0
14.64 0 0
14.72 0 0
14.8 0 0
14.88 0 0
14.96 0 0
15.04 0 0
15.12 0 0
15.2 0 0
15.28 0 0
15.36 0 0
15.44 0 0
15.52 0 0
15.6 0 0
15.68 0 0
15.76 0 0
15.84 0 0
15.92 0 0
16 0 0
16.08 0 0
16.16 0 0
16.24 0 0
16.32 0 0
16.4 0 0
16.48 0 0
16.56 0 0
16.64 0 0
16.72 0 0
16.8 0 0
16.88 0 0
16.96 0 0
17.04 0 0
17.12 0 0
17.2 0 0
17.28 0 0
17.36 0 0
17.44 0 0
17.52 0 0
17.6 0 0
17.68 0 0
17.76 0 0
17.84 0 0
17.92 0 0
18 0 0
18.08 0 0
18.16 0 0
18.24 0 0
18.32 0 0
18.4 0 0
18.48 0 0
18.56 0 0
18.64 0 0
18.72 0 0
18.8 0 0
18.88 0 0
18.96 0 0
19.04 0 0
19.12 0 0
19.2 0 0
19.28 0 0
19.36 0 0
19.44 0 0
19.52 0 0
19.6 0 0
19.68 0 0
19.76 0 0
19.84 0 0
19.92 0 0
20 0 0
20.08 0 0
20.16 0 0
20.24 0 0
20.32 0 0
20.4 0 0
20.48 0 0
20.56 0 0
20.64 0 0
20.72 0 0
20.8 0 0
20.88 0 0
20.96 0 0
21.04 0 0
21.12 0 0
21.2 0 0
21.28 0 0
21.36 0 0
21.44 0 0
21.52 0 0
21.6 0 0
21.68 0 0
21.76 0 0
21.84 0 0
21.92 0 0
22 0 0
22.08 0 0
22.16 0 0
22.24 0 0
22.32 0 0
22.4 0 0
22.48 0 0
22.56 0 0
22.64 0 0
22.72 0 0
22.8 0 0
22.88 0 0
22.96 0 0
23.04 0 0
23.12 0 0
23.2 0 0
23.28 0 0
23.36 0 0
23.44 0 0
23.52 0 0
23.6 0 0
23.68 0 0
23.76 0 0
23.84 0 0
23.92 0 0
24 0 0
24.08 0 0
24.16 0 0
24.24 0 0
24.32 0 0
24.4 0 0
24.48 0 0
24.56 0 0
24.64 0 0
24.72 0 0
24.8 0 0
24.88 0 0
24.96 0 0
25.04 0 0
25.12 0 0
25.2 0 0
25.28 0 0
25.36 0 0
25.44 0 0
25.52 0 0
25.6 0 0
25.68 0 0
25.76 0 0
25.84 0 0
25.92 0 0
26 0 0
26.08 0 0
26.16 0 0
26.24 0 0
26.32 0 0
26.4 0 0
26.48 0 0
26.56 0 0
26.64 0 0
26.72 0 0
26.8 0 0
26.88 0 0
26.96 0 0
27.04 0 0
27.12 0 0
27.2 0 0
27.28 0 0
27.36 0 0
27.44 0 0
27.52 0 0
27.6 0 0
27.68 0 0
27.76 0 0
27.84 0 0
27.92 0 0
28 0 0
28.08 0 0
28.16 0 0
28.24 0 0
28.32 0 0
28.4 0 0
28.48 0 0
28.56 0 0
28.64 0 0
28.72 0 0
28.8 0 0
28.88 0 0
28.96 0 0
29.04 0 0
29.12 0 0
29.2 0 0
29.28 0 0
29.36 0 0
29.44 0 0
29.52 0 0
29.6 0 0
29.68 0 0
29.76 0 0
29.84 0 0
29.92 0 0
30 0 0
30.08 0 0
30.16 0 0
30.24 0 0
30.32 0 0
30.4 0 0
30.48 0 0
30.56 0 0
30.64 0 0
30.72 0 0
30.8 0 0
30.88 0 0
30.96 0 0
31.04 0 0
31.12 0 0
31.2 0 0
31.28 0 0
31.36 0 0
31.44 0 0
31.52 0 0
31.6 0 0
31.68 0 0
31.76 0 0
31.84 0 0
31.92 0 0
0 0.005 0
0.08 0.005 0
0.16 0.005 0
0.24 0.005 0
0.32 0.005 0
0.4 0.005 0
0.48 0.005 0
0.56 0.005 0
0.64 0.005 0
0.72 0.005 0
0.8 0.005 0
0.88 0.005 0
0.96 0.005 0
1.04 0.005 0
1.12 0.005 0
1.2 0.005 0
1.28 0.005 0
1.36 0.005 0
1.44 0.005 0
1.52 0.005 0
1.6 0.005 0
1.68 0.005 0
1.76 0.005 0
1.84 0.005 0
1.92 0.005 0
2 0.005 0
2.08 0.005 0
2.16 0.005 0
2.24 0.005 0
2.32 0.005 0
2.4 0.005 0
2.48 0.005 0
2.56 0.005 0
2.64 0.005 0
2.72 0.005 0
2.8 0.005 0
2.88 0.005 0
2.96 0.005 0
3.04 0.005 0
3.12 0.005 0
3.2 0.005 0
3.28 0.005 0
3.36 0.005 0
3.44 0.005 0
3.52 0.005 0
3.6 0.005 0
3.68 0.005 0
3.76 0.005 0
3.84 0.005 0
3.92 0.005 0
4 0.005 0
4.08 0.005 0
4.16 0.005 0
4.24 0.005 0
4.32 0.005 0
4.4 0.005 0
4.48 0.005 0
4.56 0.005 0
4.64 0.005 0
4.72 0.005 0
4.8 0.005 0
4.88 0.005 0
4.96 0.005 0
5.04 0.005 0
5.12 0.005 0
5.2 0.005 0
5.28 0.005 0
5.36 0.005 0
5.44 0.005 0
5.52 0.005 0
5.6 0.005 0
5.68 0.005 0
5.76 0.005 0
5.84 0.005 0
5.92 0.005 0
6 0.005 0
6.08 0.005 0
6.16 0.005 0
6.24 0.005 0
6.32 0.005 0
6.4 0.005 0
6.48 0.005 0
6.56 0.005 0
6.64 0.005 0
6.72 0.005 0
6.8 0.005 0
6.88 0.005 0
6.96 0.005 0
7.04 0.005 0
7.12 0.005 0
7.2 0.005 0
7.28 0.005 0
7.36 0.005 0
7.44 0.005 0
7.52 0.005 0
7.6 0.005 0
7.68 0.005 0
7.76 0.005 0
7.84 0.005 0
7.92 0.005 0
8 0.005 0
8.08 0.005 0
8.16 0.005 0
8.24 0.005 0
8.32 0.005 0
8.4 0.005 0
8.48 0.005 0
8.56 0.005 0
8.64 0.005 0
8.72 0.005 0
8.8 0.005 0
8.88 0.005 0
8.96 0.005 0
9.04 0.005 0
9.12 0.005 0
9.2 0.005 0
9.28 0.005 0
9.36 0.005 0
9.44 0.005 0
9.52 0.005 0
9.6 0.005 0
9.68 0.005 0
9.76 0.005 0
9.84 0.005 0
9.92 0.005 0
10 0.005 0
10.08 0.005 0
10.16 0.005 0
10.24 0.005 0
10.32 0.005 0
10.4 0.005 0
10.48 0.005 0
10.56 0.005 0
10.64 0.005 0
10.72 0.005 0
10.8 0.005 0
10.88 0.005 0
10.96 0.005 0
11.04 0.005 0
11.12 0.005 0
11.2 0.005 0
11.28 0.005 0
11.36 0.005 0
11.44 0.005 0
11.52 0.005 0
11.6 0.005 0
11.68 0.005 0
11.76 0.005 0
11.84 0.005 0
11.92 0.005 0
12 0.005 0
12.08 0.005 0
12.16 0.005 0
12.24 0.005 0
12.32 0.005 0
12.4 0.005 0
12.48 0.005 0
12.56 0.005 0
12.64 0.005 0
12.72 0.005 0
12.8 0.005 0
12.88 0.005 0
12.96 0.005 0
13.04 0.005 0
13.12 0.005 0
13.2 0.005 0
13.28 0.005 0
13.36 0.005 0
13.44 0.005 0
13.52 0.005 0
13.6 0.005 0
13.68 0.005 0
13.76 0.005 0
13.84 0.005 0
13.92 0.005 0
14 0.005 0
14.08 0.005 0
14.16 0.005 0
14.24 0.005 0
14.32 0.005 0
14.4 0.005 0
14.48 0.005 0
14.56 0.005 0
14.64 0.005 0
14.72 0.005 0
14.8 0.005 0
14.88 0.005 0
14.96 0.005 0
15.04 0.005 0
15.12 0.005 0
15.2 0.005 0
15.28 0.005 0
15.36 0.005 0
15.44 0.005 0
15.52 0.005 0
15.6 0.005 0
15.68 0.005 0
15.76 0.005 0
15.84 0.005 0
15.92 0.005 0
16 0.005 0
16.08 0.005 0
16.16 0.005 0
16.24 0.005 0
16.32 0.005 0
16.4 0.005 0
16.48 0.005 0
16.56 0.005 0
16.64 0.005 0
16.72 0.005 0
16.8 0.005 0
16.88 0.005 0
16.96 0.005 0
17.04 0.005 0
17.12 0.005 0
17.2 0.005 0
17.28 0.005 0
17.36 0.005 0
17.44 0.005 0
17.52 0.005 0
17.6 0.005 0
17.68 0.005 0
17.76 0.005 0
17.84 0.005 0
17.92 0.005 0
18 0.005 0
18.08 0.005 0
18.16 0.005 0
18.24 0.005 0
18.32 0.005 0
18.4 0.005 0
18.48 0.005 0
18.56 0.005 0
18.64 0.005 0
18.72 0.005 0
18.8 0.005 0
18.88 0.005 0
18.96 0.005 0
19.04 0.005 0
19.12 0.005 0
19.2 0.005 0
19.28 0.005 0
19.36 0.005 0
19.44 0.005 0
19.52 0.005 0
19.6 0.005 0
19.68 0.005 0
19.76 0.005 0
19.84 0.005 0
19.92 0.005 0
20 0.005 0
20.08 0.005 0
20.16 0.005 0
20.24 0.005 0
20.32 0.005 0
20.4 0.005 0
20.48 0.005 0
20.56 0.005 0
20.64 0.005 0
20.72 0.005 0
20.8 0.005 0
20.88 0.005 0
20.96 0.005 0
21.04 0.005 0
21.12 0.005 0
21.2 0.005 0
21.28 0.005 0
21.36 0.005 0
21.44 0.005 0
21.52 0.005 0
21.6 0.005 0
21.68 0.005 0
21.76 0.005 0
21.84 0.005 0
21.92 0.005 0
22 0.005 0
22.08 0.005 0
22.16 0.005 0
22.24 0.005 0
22.32 0.005 0
22.4 0.005 0
22.48 0.005 0
22.56 0.005 0
22.64 0.005 0
22.72 0.005 0
22.8 0.005 0
22.88 0.005 0
22.96 0.005 0
23.04 0.005 0
23.12 0.005 0
23.2 0.005 0
23.28 0.005 0
23.36 0.005 0
23.44 0.005 0
23.52 0.005 0
23.6 0.005 0
23.68 0.005 0
23.76 0.005 0
23.84 0.005 0
23.92 0.005 0
24 0.005 0
24.08 0.005 0
24.16 0.005 0
24.24 0.005 0
24.32 0.005 0
24.4 0.005 0
24.48 0.005 0
24.56 0.005 0
24.64 0.005 0
24.72 0.005 0
24.8 0.005 0
24.88 0.005 0
24.96 0.005 0
25.04 0.005 0
25.12 0.005 0
25.2 0.005 0
25.28 0.005 0
25.36 0.005 0
25.44 0.005 0
25.52 0.005 0
25.6 0.005 0
25.68 0.005 0
25.76 0.005 0
25.84 0.005 0
25.92 0.005 0
26 0.005 0
26.08 0.005 0
26.16 0.005 0
26.24 0.005 0
26.32 0.005 0
26.4 0.005 0
26.48 0.005 0
26.56 0.005 0
26.64 0.005 0
26.72 0.005 0
26.8 0.005 0
26.88 0.005 0
26.96 0.005 0
27.04 0.005 0
27.12 0.005 0
27.2 0.005 0
27.28 0.005 0
27.36 0.005 0
27.44 0.005 0
27.52 0.005 0
27.6 0.005 0
27.68 0.005 0
27.76 0.005 0
27.84 0.005 0
27.92 0.005 0
28 0.005 0
28.08 0.005 0
28.16 0.005 0
28.24 0.005 0
28.32 0.005 0
28.4 0.005 0
28.48 0.005 0
28.56 0.005 0
28.64 0.005 0
28.72 0.005 0
28.8 0.005 0
28.88 0.005 0
28.96 0.005 0
29.04 0.005 0
29.12 0.005 0
29.2 0.005 0
29.28 0.005 0
29.36 0.005 0
29.44 0.005 0
29.52 0.005 0
29.6 0.005 0
29.68 0.005 0
29.76 0.005 0
29.84 0.005 0
29.92 0.005 0
30 0.005 0
30.08 0.005 0
30.16 0.005 0
30.24 0.005 0
30.32 0.005 0
30.4 0.005 0
30.48 0.005 0
30.56 0.005 0
30.64 0.005 0
30.72 0.005 0
30.8 0.005 0
30.88 0.005 0
30.96 0.005 0
31.04 0.005 0
31.12 0.005 0
31.2 0.005 0
31.28 0.005 0
31.36 0.005 0
31.44 0.005 0
31.52 0.005 0
31.6 0.005 0
31.68 0.005 0
31.76 0.005 0
31.84 0.005 0
31.92 0.005 0
0 0.01 0
0.08 0.01 0
0.16 0.01 0
0.24 0.01 0
0.32 0.01 0
0.4 0.01 0
0.48 0.01 0
0.56 0.01 0
0.64 0.01 0
0.72 0.01 0
0.8 0.01 0
0.88 0.01 0
0.96 0.01 0
1.04 0.01 0
1.12 0.01 0
1.2 0.01 0
1.28 0.01 0
1.36 0.01 0
1.44 0.01 0
1.52 0.01 0
1.6 0.01 0
1.68 0.01 0
1.76 0.01 0
1.84 0.01 0
1.92 0.01 0
2 0.01 0
2.08 0.01 0
2.16 0.01 0
2.24 0.01 0
2.32 0.01 0
2.4 0.01 0
2.48 0.01 0
2.56 0.01 0
2.64 0.01 0
2.72 0.01 0
2.8 0.01 0
2.88 0.01 0
2.96 0.01 0
3.04 0.01 0
3.12 0.01 0
3.2 0.01 0
3.28 0.01 0
3.36 0.01 0
3.44 0.01 0
3.52 0.01 0
3.6 0.01 0
3.68 0.01 0
3.76 0.01 0
3.84 0.01 0
3.92 0.01 0
4 0.01 0
4.08 0.01 0
4.16 0.01 0
4.24 0.01 0
4.32 0.01 0
4.4 0.01 0
4.48 0.01 0
4.56 0.01 0
4.64 0.01 0
4.72 0.01 0
4.8 0.01 0
4.88 0.01 0
4.96 0.01 0
5.04 0.01 0
5.12 0.01 0
[...]
POINT_DATA 80000

SCALARS v float 1
LOOKUP_TABLE default
0
0
0
0
0
0
0
0
0
0
0
0
0
0
0
0
0
0
0
0
0
0
0
0
0
0
0
0
0
0
0
0
0
0
0
0
0
0
0
0
0
0
0
0
0
0
0
0
0
0
0
0
0
0
0
0
0
0
0
0
0
0
0
0
0
0
0
0
0
0
0
0
0
0
0
0
0
0
0
0
0
0
0
0
0
0
0
0
0
0
0
0
0
0
0
0
0
0
0
0
0
0
0
0
0
0
0
0
0
0
0
0
0
0
0
0
0
0
0
0
0
0
0
0
0
0
0
0
0
0
0
0
0
0
0
0
0
0
0
0
0
0
0
0
0
0
0
0
0
0
0
0
0
0
0
0
0
0
0
0
0
0
0
0
0
0
0
0
0
0
0
0
0
0
0
0
0
0
0
0
0
0
0
0
0
0
0
0
0
0
0
0
0
0
0
0
0
0
0
0
0
0
0
0
0
0
0
0
0
0
0
0
0
0
0
0
0
0
0
0
0
0
0
0
0
0
0
0
0
0
0
0
0
0
0
0
0
0
0
0
0
0
0
0
0
0
0
0
0
0
0
0
0
0
0
0
0
0
0
0
0
0
0
0
0
0
0
0
0
0
0
0
0
0
0
0
0
0
0
0
0
0
0
0
0
0
0
0
0
0
0
0
0
0
0
0
0
0
0
0
0
0
0
0
0
0
0
0
0
0
0
0
0
0
0
0
0
0
0
0
0
0
0
0
0
0
0
0
0
0
0
0
0
0
0
0
0
0
0
0
0
0
0
0
0
0
0
0
0
0
0
0
0
0
0
0
0
0
0
0
0
0
0
0
0
0
0
0
0
0
0
0
0
0
0
0
0
0
0
0
0
0
0
0
0
0
0
0
0
0
0
0
0
0
0
0
0
0
0
0
-0.05427108997
0.05427108997
0.003962095021
0.0009983297453
0.0004922602656
0.0003026962885
0.0002073201218
0.0001516916902
0.0001162502596
9.229386492e-05
7.53807054e-05
6.302008099e-05
5.371962607e-05
4.654116797e-05
4.087331643e-05
3.630623167e-05
3.255868098e-05
2.943368839e-05
2.679067039e-05
2.452747923e-05
2.256859534e-05
2.085723227e-05
1.934998091e-05
1.80131276e-05
1.682009102e-05
1.574961506e-05
1.478447885e-05
1.391056366e-05
1.311616907e-05
1.239150493e-05
1.172830894e-05
1.111955471e-05
1.055922604e-05
1.004214037e-05
9.563808734e-06
9.120323714e-06
8.70826883e-06
8.324644524e-06
7.966807276e-06
7.632419111e-06
7.31940543e-06
7.02591971e-06
6.750313572e-06
6.491111488e-06
6.246989153e-06
6.016755077e-06
5.799334676e-06
5.593756615e-06
5.39914101e-06
5.214689135e-06
5.039674523e-06
4.873435158e-06
4.715366701e-06
4.564916441e-06
4.421578119e-06
4.284887218e-06
4.15441692e-06
4.029774433e-06
3.910597796e-06
3.796552995e-06
3.687331419e-06
3.582647552e-06
3.48223694e-06
3.385854386e-06
3.293272237e-06
3.204278959e-06
3.118677768e-06
3.036285436e-06
2.95693116e-06
2.880455641e-06
2.8067101e-06
2.735555526e-06
2.666861895e-06
2.600507509e-06
2.536378356e-06
2.474367557e-06
2.414374837e-06
2.356306059e-06
2.300072799e-06
2.245591875e-06
2.192785104e-06
2.141578808e-06
2.09190364e-06
2.043694193e-06
1.996888804e-06
1.951429243e-06
1.907260546e-06
1.864330764e-06
1.822590769e-06
1.781994085e-06
1.742496679e-06
1.704056909e-06
1.66663525e-06
1.630194224e-06
1.594698268e-06
1.560113623e-06
1.526408196e-06
1.493551478e-06
1.46151445e-06
1.430269485e-06
1.399790276e-06
1.37005175e-06
1.341029986e-06
1.312702167e-06
1.285046524e-06
1.258042225e-06
1.231669383e-06
1.205908967e-06
1.180742768e-06
1.156153318e-06
1.132123942e-06
1.108638586e-06
1.085681898e-06
1.063239085e-06
1.041295999e-06
1.019839007e-06
9.988550077e-07
9.783314049e-07
9.582560414e-07
9.386172455e-07
9.194037354e-07
9.006046614e-07
8.822095371e-07
8.642082293e-07
8.465909928e-07
8.293483706e-07
8.124712161e-07
7.959507207e-07
7.797783317e-07
7.639457614e-07
7.484450179e-07
7.332683058e-07
7.184081131e-07
7.038571243e-07
6.896082715e-07
6.756546482e-07
6.619895864e-07
6.486066014e-07
6.354993713e-07
6.226617798e-07
6.100878496e-07
5.977717915e-07
5.857079433e-07
5.738908282e-07
5.62315073e-07
5.509754796e-07
5.398669746e-07
5.289845934e-07
5.18323504e-07
5.078790218e-07
4.976465402e-07
4.876215925e-07
4.777998036e-07
4.681769097e-07
4.587487396e-07
4.495112508e-07
4.404604531e-07
4.315924814e-07
4.229035445e-07
4.143899326e-07
4.060480324e-07
3.978743187e-07
3.898653292e-07
3.820176689e-07
3.743280616e-07
3.667932602e-07
3.594101059e-07
3.521755166e-07
3.450864589e-07
3.381399668e-07
3.313331439e-07
3.246631834e-07
3.181272886e-07
3.117227502e-07
3.054469123e-07
2.992971661e-07
2.932709936e-07
2.873658698e-07
2.815793633e-07
2.75909093e-07
2.703527166e-07
2.649079289e-07
2.59572498e-07
2.543442216e-07
2.492209514e-07
2.442005665e-07
2.392810225e-07
2.344602642e-07
2.297363349e-07
2.251072869e-07
2.205712078e-07
2.161262437e-07
2.117705762e-07
2.075023843e-07
2.033199479e-07
1.992215317e-07
1.952054607e-07
1.912700852e-07
1.874137897e-07
1.836349868e-07
1.799321069e-07
1.763036732e-07
1.727481595e-07
1.692641264e-07
1.658501155e-07
1.6250475e-07
1.592266516e-07
1.560144694e-07
1.528668908e-07
1.497825951e-07
1.467603515e-07
1.437988956e-07
1.408970092e-07
1.380535233e-07
1.352672425e-07
1.325370347e-07
1.298617546e-07
1.272403279e-07
1.246716676e-07
1.221547075e-07
1.196884281e-07
1.172718007e-07
1.149038242e-07
1.125835441e-07
1.103099908e-07
1.080822262e-07
1.058993325e-07
1.037604168e-07
1.016645877e-07
9.961098647e-08
9.75987782e-08
9.562709827e-08
9.36951702e-08
9.180217828e-08
8.994733703e-08
8.812988375e-08
8.634908166e-08
8.460417483e-08
8.289445659e-08
8.121921216e-08
7.957774945e-08
7.796939543e-08
7.639347952e-08
7.484935126e-08
7.333637841e-08
7.185391759e-08
7.040136634e-08
6.897813267e-08
6.758361736e-08
6.621723549e-08
6.48784284e-08
6.356665351e-08
6.228134105e-08
6.102198533e-08
5.978804696e-08
5.857901748e-08
5.73943978e-08
5.623370051e-08
5.509643941e-08
5.398214148e-08
5.289035013e-08
5.18205993e-08
5.077245481e-08
4.974548863e-08
4.873925528e-08
4.775335745e-08
4.678736653e-08
4.584089307e-08
4.491354931e-08
4.400493659e-08
4.311467869e-08
4.224241384e-08
4.138777702e-08
4.055040706e-08
3.972996216e-08
3.892609209e-08
3.813848154e-08
3.736677726e-08
3.661067157e-08
3.586985942e-08
3.514401802e-08
3.443284635e-08
3.373605862e-08
3.305335922e-08
3.238445572e-08
3.172907822e-08
3.108695337e-08
3.045780401e-08
2.984137947e-08
2.923742732e-08
2.864568477e-08
2.806591026e-08
2.749785989e-08
2.694130039e-08
2.63959885e-08
2.58617278e-08
2.533824826e-08
2.482535767e-08
2.432285993e-08
2.383051352e-08
2.334812154e-08
2.287549659e-08
2.241243272e-08
2.195874177e-08
2.151422105e-08
2.10786926e-08
2.065198128e-08
2.023390243e-08
1.982427658e-08
1.942294744e-08
1.902973158e-08
1.864447897e-08
1.826700626e-08
1.789719129e-08
1.753484581e-08
1.717984169e-08
1.683201853e-08
1.649123911e-08
1.615734593e-08
1.583021832e-08
1.550969611e-08
1.519568249e-08
1.488799996e-08
1.458656724e-08
1.429121021e-08
1.400186797e-08
1.371832981e-08
1.344058842e-08
1.31684109e-08
1.290181482e-08
1.264053007e-08
1.238462504e-08
1.213379459e-08
1.188815315e-08
1.164736771e-08
1.141158688e-08
1.118042047e-08
1.095412954e-08
1.073218494e-08
1.051500778e-08
1.030190751e-08
1.009349033e-08
9.888864651e-09
9.688873974e-09
9.492372436e-09
9.300494859e-09
9.111751572e-09
8.927687076e-09
8.746355856e-09
8.569859124e-09
8.39558149e-09
8.226396122e-09
8.058836226e-09
7.896746474e-09
7.735525174e-09
7.580385524e-09
7.42511735e-09
7.276769298e-09
7.12703724e-09
6.985426598e-09
6.840796463e-09
6.705914411e-09
6.565852531e-09
6.437815693e-09
6.301693755e-09
6.180716313e-09
6.047811733e-09
5.934293006e-09
5.803677919e-09
5.698253e-09
5.568727348e-09
5.472345633e-09
5.342392159e-09
5.256406812e-09
5.124004414e-09
5.050351826e-09
4.912793514e-09
4.854188672e-09
4.707813778e-09
4.667984813e-09
4.507744304e-09
4.491729056e-09
4.310586432e-09
4.325004229e-09
4.112851284e-09
4.165858736e-09
3.907715993e-09
4.007885094e-09
3.680336216e-09
3.832601378e-09
3.396626759e-09
3.58990681e-09
2.976841606e-09
3.151576626e-09
2.244089529e-09
2.221615335e-09
9.180050973e-10
3.55798507e-10
1.468535642e-14
1.468535642e-14
-0.0952158619
0.0952158619
0.01297562026
0.003854618263
0.001934307931
0.001196199257
0.0008217410482
0.0006023144564
0.0004620669962
0.0003670409364
0.0002998306251
0.0002506449793
0.0002136016796
0.0001849938774
0.0001624004718
0.000144195121
0.0001292596989
0.0001168097392
0.000106284548
9.72762469e-05
8.948301757e-05
8.267777693e-05
7.668688403e-05
7.137547505e-05
6.663723591e-05
6.238718117e-05
5.855649162e-05
5.508877664e-05
5.193733251e-05
4.906310474e-05
4.643315347e-05
4.401948224e-05
4.17981327e-05
3.974847628e-05
3.785265335e-05
3.609512432e-05
3.446230693e-05
3.294228028e-05
3.152454147e-05
3.019980398e-05
2.895982945e-05
2.779728661e-05
2.67056322e-05
2.567901003e-05
2.471216504e-05
2.38003697e-05
2.293936101e-05
2.212528601e-05
2.135465479e-05
2.062429977e-05
1.993134012e-05
1.927315093e-05
1.864733599e-05
1.805170419e-05
1.748424852e-05
1.69431277e-05
1.64266499e-05
1.593325834e-05
1.546151845e-05
1.50101065e-05
1.457779948e-05
1.416346603e-05
1.376605827e-05
1.338460457e-05
1.301820296e-05
1.266601535e-05
1.232726208e-05
1.200121719e-05
1.168720412e-05
1.138459168e-05
1.109279058e-05
1.08112501e-05
1.05394552e-05
1.027692379e-05
1.002320425e-05
9.777873233e-06
9.540533584e-06
9.310812386e-06
9.088359379e-06
8.872845194e-06
8.663959999e-06
8.46141213e-06
8.2649268e-06
8.074245034e-06
7.889122521e-06
7.709328704e-06
7.534645832e-06
7.364868122e-06
7.199801036e-06
7.039260436e-06
6.88307205e-06
6.731070795e-06
6.583100158e-06
6.439011705e-06
6.2986646e-06
6.161925049e-06
6.028665971e-06
5.898766534e-06
5.77211178e-06
5.648592275e-06
5.52810382e-06
5.410547051e-06
5.295827282e-06
5.183854115e-06
5.074541237e-06
4.967806212e-06
4.863570237e-06
4.76175791e-06
4.662297087e-06
4.565118667e-06
4.470156443e-06
4.377346923e-06
4.286629215e-06
4.197944824e-06
4.111237623e-06
4.026453616e-06
3.943540919e-06
3.862449596e-06
3.783131565e-06
3.705540523e-06
3.62963183e-06
3.555362466e-06
3.482690908e-06
3.411577064e-06
3.34198223e-06
3.273869015e-06
3.207201214e-06
3.141943893e-06
3.078063159e-06
3.015526269e-06
2.954301475e-06
2.894358006e-06
2.835666031e-06
2.778196632e-06
2.721921745e-06
2.666814125e-06
2.612847306e-06
2.559995609e-06
2.508234041e-06
2.457538342e-06
2.407884871e-06
2.359250699e-06
2.311613446e-06
2.264951366e-06
2.21924326e-06
2.174468508e-06
2.130607005e-06
2.087639153e-06
2.045545841e-06
2.004308454e-06
1.963908847e-06
1.924329266e-06
1.885552452e-06
1.847561509e-06
1.810339983e-06
1.773871784e-06
1.738141192e-06
1.703132898e-06
1.668831882e-06
1.635223535e-06
1.602293532e-06
1.570027884e-06
1.538412933e-06
1.507435298e-06
1.477081934e-06
1.447340056e-06
1.418197147e-06
1.389640996e-06
1.361659654e-06
1.334241393e-06
1.307374783e-06
1.281048623e-06
1.255251934e-06
1.229974007e-06
1.205204324e-06
1.180932601e-06
1.157148788e-06
1.133843028e-06
1.111005651e-06
1.088627232e-06
1.066698527e-06
1.045210453e-06
1.024154162e-06
1.003520954e-06
9.833023274e-07
9.634899468e-07
9.440756222e-07
9.250513963e-07
9.064094104e-07
8.881419949e-07
8.702416608e-07
8.52700996e-07
8.355128143e-07
8.186700343e-07
8.021657365e-07
7.859931334e-07
7.701455767e-07
7.546165574e-07
7.393996932e-07
7.244887125e-07
7.098774895e-07
6.95560026e-07
6.815304446e-07
6.677829563e-07
6.543119142e-07
6.411118002e-07
6.281771688e-07
6.155027077e-07
6.03083195e-07
5.909135321e-07
5.789887116e-07
5.673038243e-07
5.558540729e-07
5.446347375e-07
5.336411951e-07
5.228689288e-07
5.123135036e-07
5.019705742e-07
4.918358725e-07
4.819052198e-07
4.721745578e-07
4.626398408e-07
4.53297156e-07
4.441426358e-07
4.351725365e-07
4.263831214e-07
4.177707914e-07
4.093319989e-07
4.010632418e-07
3.929611171e-07
3.850222752e-07
3.77243455e-07
3.696214143e-07
3.621530315e-07
3.548352082e-07
3.476649313e-07
3.406392296e-07
3.337552026e-07
3.270100008e-07
3.204008399e-07
3.139249721e-07
3.075797338e-07
3.013624923e-07
2.952706801e-07
2.893017773e-07
2.834533059e-07
2.777228462e-07
2.721080242e-07
2.666065242e-07
2.612160411e-07
2.559343695e-07
2.507593116e-07
2.456887106e-07
2.407204754e-07
2.358525491e-07
2.310829018e-07
2.264095685e-07
2.218305945e-07
2.173440996e-07
2.129482044e-07
2.086410788e-07
2.04420959e-07
2.002860697e-07
1.962347104e-07
1.922651813e-07
1.88375861e-07
1.845651051e-07
1.808313424e-07
1.771730195e-07
1.735886153e-07
1.700766433e-07
1.66635638e-07
1.632641741e-07
1.599608327e-07
1.567242741e-07
1.535531187e-07
1.504460643e-07
1.474018105e-07
1.444190981e-07
1.414966873e-07
1.38633351e-07
1.358278917e-07
1.330791674e-07
1.303860075e-07
1.277472938e-07
1.251619563e-07
1.226288746e-07
1.201470192e-07
1.177153504e-07
1.153328655e-07
1.129985631e-07
1.10711467e-07
1.084706122e-07
1.062750975e-07
1.041239734e-07
1.020163714e-07
9.995140327e-08
9.792820067e-08
9.59459178e-08
9.400373823e-08
9.210083928e-08
9.023644744e-08
8.840976751e-08
8.662005139e-08
8.486653281e-08
8.314850143e-08
8.146521652e-08
7.98159988e-08
7.820014444e-08
7.661700076e-08
7.506586115e-08
7.354614326e-08
7.205714726e-08
7.059830758e-08
6.916896556e-08
6.776858495e-08
6.639649457e-08
6.50522113e-08
6.373509246e-08
6.244468784e-08
6.118031776e-08
5.99416377e-08
5.872791632e-08
5.753886758e-08
5.637376914e-08
5.52323937e-08
5.41139531e-08
5.301834066e-08
5.19446811e-08
5.089300943e-08
4.98623462e-08
4.885285385e-08
4.786343208e-08
4.6894464e-08
4.594462168e-08
4.50145656e-08
4.410268976e-08
4.321002829e-08
4.233455809e-08
4.147782354e-08
4.063726931e-08
3.981508024e-08
3.90079646e-08
3.821900497e-08
3.744392004e-08
3.668695598e-08
3.594249449e-08
3.521637032e-08
3.450117359e-08
3.380481571e-08
3.311753597e-08
3.244996977e-08
3.17891872e-08
3.114959175e-08
3.051389151e-08
2.990155417e-08
2.9289461e-08
2.870383727e-08
2.811375649e-08
2.755455215e-08
2.698471564e-08
2.645185891e-08
2.590028267e-08
2.539412004e-08
2.485845556e-08
2.437978957e-08
2.385720732e-08
2.340747267e-08
2.289449151e-08
2.247600301e-08
2.196815515e-08
2.158438288e-08
2.107593963e-08
2.073188441e-08
2.021529937e-08
1.991814634e-08
1.938329282e-08
1.914308143e-08
1.857624959e-08
1.840683479e-08
1.778919323e-08
1.770931217e-08
1.701450012e-08
1.704869408e-08
1.62389252e-08
1.641730432e-08
1.54363341e-08
1.57903478e-08
1.454995495e-08
1.509661233e-08
1.344897653e-08
1.414374554e-08
1.182662064e-08
1.243995056e-08
9.000278255e-09
8.851240365e-09
3.871917522e-09
1.683237858e-09
6.296084505e-14
6.296084505e-14
-0.1252930377
0.1252930377
0.02493586976
0.008358019126
0.004277996266
0.002661518917
0.00183373551
0.001346352401
0.001033884326
0.0008217036792
0.0006713867371
0.0005612497711
0.000478232091
0.0004140850753
0.0003634105354
0.0003225758052
0.0002890793572
0.0002611636451
0.0002375709469
0.0002173854269
0.0001999288868
0.0001846908016
0.0001712806838
0.0001593952254
0.0001487953499
0.0001392899892
0.0001307244734
0.000122972117
0.0001159280437
0.0001095045941
0.0001036278666
9.823507744e-05
9.327252055e-05
8.869397115e-05
8.44594227e-05
8.053407647e-05
7.688752518e-05
7.349308758e-05
7.032726128e-05
6.736926989e-05
6.460068534e-05
6.200511112e-05
5.956791522e-05
5.727600374e-05
5.511762819e-05
5.308222069e-05
5.116025252e-05
4.934311238e-05
4.762300102e-05
4.599283997e-05
4.444619212e-05
4.297719245e-05
4.158048745e-05
4.025118193e-05
3.898479235e-05
3.777720558e-05
3.66246425e-05
3.552362576e-05
3.447095123e-05
3.346366239e-05
3.249902782e-05
3.157452079e-05
3.068780114e-05
2.983669906e-05
2.901920042e-05
2.823343362e-05
2.747765773e-05
2.675025176e-05
2.604970497e-05
2.537460807e-05
2.472364524e-05
2.40955869e-05
2.348928308e-05
2.29036574e-05
2.23377016e-05
2.179047047e-05
2.126107727e-05
2.074868953e-05
2.025252517e-05
1.977184889e-05
1.9305969e-05
1.885423429e-05
1.841603136e-05
1.799078197e-05
1.757794073e-05
1.717699291e-05
1.678745235e-05
1.640885968e-05
1.604078049e-05
1.56828038e-05
1.533454047e-05
1.499562193e-05
1.466569877e-05
1.434443961e-05
1.403152996e-05
1.372667117e-05
1.342957948e-05
1.313998511e-05
1.28576314e-05
1.258227403e-05
1.231368032e-05
1.205162845e-05
1.179590697e-05
1.154631406e-05
1.1302657e-05
1.106475175e-05
1.08324223e-05
1.060550035e-05
1.038382476e-05
1.016724129e-05
9.955602057e-06
9.74876533e-06
9.546595122e-06
9.348960858e-06
9.155737154e-06
8.966803506e-06
8.78204402e-06
8.601347205e-06
8.424605724e-06
8.251716175e-06
8.082578901e-06
7.917097826e-06
7.755180241e-06
7.596736656e-06
7.441680638e-06
7.289928681e-06
7.141400032e-06
6.996016605e-06
6.853702815e-06
6.714385493e-06
6.577993786e-06
6.444459006e-06
6.313714588e-06
6.185695947e-06
6.060340437e-06
5.937587244e-06
5.817377327e-06
5.699653298e-06
5.584359438e-06
5.471441559e-06
5.360846937e-06
5.252524344e-06
5.146423879e-06
5.042496994e-06
4.940696406e-06
4.840976078e-06
4.743291131e-06
4.647597858e-06
4.553853629e-06
4.462016904e-06
4.372047146e-06
4.283904837e-06
4.197551396e-06
4.112949154e-06
4.030061413e-06
3.948852265e-06
3.869286697e-06
3.791330467e-06
3.714950162e-06
3.640113141e-06
3.566787468e-06
3.494941953e-06
3.424546133e-06
3.355570196e-06
3.287984984e-06
3.221762004e-06
3.156873397e-06
3.093291887e-06
3.030990832e-06
2.969944116e-06
2.910126238e-06
2.851512197e-06
2.794077568e-06
2.737798417e-06
2.682651325e-06
2.628613404e-06
2.575662186e-06
2.52377571e-06
2.472932486e-06
2.423111448e-06
2.374291968e-06
2.326453872e-06
2.27957738e-06
2.233643128e-06
2.188632163e-06
2.144525903e-06
2.101306155e-06
2.058955086e-06
2.017455246e-06
1.976789543e-06
1.936941242e-06
1.897893891e-06
1.859631447e-06
1.822138138e-06
1.785398549e-06
1.749397544e-06
1.714120326e-06
1.679552369e-06
1.645679442e-06
1.612487639e-06
1.579963269e-06
1.548092977e-06
1.516863641e-06
1.48626241e-06
1.456276712e-06
1.426894185e-06
1.39810277e-06
1.369890585e-06
1.342246048e-06
1.315157759e-06
1.28861459e-06
1.262605597e-06
1.237120081e-06
1.212147541e-06
1.187677711e-06
1.163700478e-06
1.140206e-06
1.117184579e-06
1.094626731e-06
1.072523162e-06
1.050864763e-06
1.029642596e-06
1.008847916e-06
9.884721403e-07
9.685068711e-07
9.489438664e-07
9.297750586e-07
9.109925387e-07
8.925885488e-07
8.745554801e-07
8.568859076e-07
8.395725213e-07
8.226081589e-07
8.059858186e-07
7.896986361e-07
7.737398873e-07
7.581029471e-07
7.427813662e-07
7.277688114e-07
7.130590652e-07
6.986460369e-07
6.845237757e-07
6.706864341e-07
6.57128264e-07
6.43843676e-07
6.308271523e-07
6.180733097e-07
6.055768697e-07
5.933326403e-07
5.813355533e-07
5.69580637e-07
5.580630243e-07
5.467779305e-07
5.357206717e-07
5.248866785e-07
5.142714319e-07
5.038705518e-07
4.936797027e-07
4.836946761e-07
4.739113023e-07
4.64325536e-07
4.549333887e-07
4.457309763e-07
4.367144508e-07
4.278800817e-07
4.192241947e-07
4.107431877e-07
4.024335511e-07
3.942918203e-07
3.863146072e-07
3.784985907e-07
3.708405416e-07
3.633372498e-07
3.559856121e-07
3.487825839e-07
3.417251225e-07
3.348103362e-07
3.280353137e-07
3.213972614e-07
3.148933916e-07
3.085210183e-07
3.022774778e-07
2.961601847e-07
2.901665633e-07
2.842941352e-07
2.785404629e-07
2.729031263e-07
2.673797878e-07
2.619681494e-07
2.566659533e-07
2.514709897e-07
2.463810939e-07
2.413941465e-07
2.365080588e-07
2.317208001e-07
2.270303838e-07
2.224348402e-07
2.179322593e-07
2.13520765e-07
2.091985048e-07
2.049636747e-07
2.008145387e-07
1.967493283e-07
1.927663765e-07
1.888640004e-07
1.850405946e-07
1.812945124e-07
1.776242685e-07
1.740282539e-07
1.705050436e-07
1.670530762e-07
1.636710085e-07
1.603573213e-07
1.571107544e-07
1.539298194e-07
1.508133443e-07
1.477598405e-07
1.447682228e-07
1.418370505e-07
1.389653207e-07
1.361515742e-07
1.333949324e-07
1.30693885e-07
1.280477349e-07
1.254548952e-07
1.229148204e-07
1.204258249e-07
1.179875929e-07
1.155982661e-07
1.132578248e-07
1.109641557e-07
1.087175972e-07
1.065157335e-07
1.043593374e-07
1.0224555e-07
1.001757746e-07
9.814649168e-08
9.615989255e-08
9.421164523e-08
9.230500925e-08
9.043445622e-08
8.860467186e-08
8.680858418e-08
8.505273537e-08
8.332794098e-08
8.164325792e-08
7.998667166e-08
7.837057379e-08
7.677915559e-08
7.522925985e-08
7.369999033e-08
7.221411977e-08
7.074391754e-08
6.93201786e-08
6.790593418e-08
6.65427182e-08
6.518115462e-08
6.387722577e-08
6.256483366e-08
6.131942968e-08
6.005238713e-08
5.886534544e-08
5.763928609e-08
5.651120798e-08
5.532105558e-08
5.425360429e-08
5.30932312e-08
5.208938631e-08
5.095127905e-08
5.001589409e-08
4.889048331e-08
4.803088256e-08
4.690584217e-08
4.613269799e-08
4.499180426e-08
4.432036938e-08
4.314195994e-08
4.259360077e-08
4.134833916e-08
4.095255333e-08
3.960012225e-08
3.939681021e-08
3.788081653e-08
3.792223309e-08
3.61617123e-08
3.651181788e-08
3.438608527e-08
3.511130687e-08
3.243055987e-08
3.356536539e-08
3.001041268e-08
3.14553393e-08
2.645688826e-08
2.771149872e-08
2.027822358e-08
1.986775067e-08
9.046519916e-09
4.238735085e-09
1.403268072e-13
1.403268072e-13
-0.1464876054
0.1464876054
0.03831047054
0.01423404634
0.007456022676
0.004672748492