# vtk DataFile Version 2.0
FlowField
ASCII
DATASET STRUCTURED_GRID
DIMENSIONS 400 1 200
POINTS 80000 float
0 0 0
0.08 0 0
0.16 0 0
0.24 0 0
0.32 0 0
0.4 0 0
0.48 0 0
0.56 0 0
0.64 0 0
0.72 0 0
0.8 0 0
0.88 0 0
0.96 0 0
1.04 0 0
1.12 0 0
1.2 0 0
1.28 0 0
1.36 0 0
1.44 0 0
1.52 0 0
1.6 0 0
1.68 0 0
1.76 0 0
1.84 0 0
1.92 0 0
2 0 0
2.08 0 0
2.16 0 0
2.24 0 0
2.32 0 0
2.4 0 0
2.48 0 0
2.56 0 0
2.64 0 0
2.72 0 0
2.8 0 0
2.88 0 0
2.96 0 0
3.04 0 0
3.12 0 0
3.2 0 0
3.28 0 0
3.36 0 0
3.44 0 0
3.52 0 0
3.6 0 0
3.68 0 0
3.76 0 0
3.84 0 0
3.92 0 0
4 0 0
4.08 0 0
4.16 0 0
4.24 0 0
4.32 0 0
4.4 0 0
4.48 0 0
4.56 0 0
4.64 0 0
4.72 0 0
4.8 0 0
4.88 0 0
4.96 0 0
5.04 0 0
5.12 0 0
5.2 0 0
5.28 0 0
5.36 0 0
5.44 0 0
5.52 0 0
5.6 0 0
5.68 0 0
5.76 0 0
5.84 0 0
5.92 0 0
6 0 0
6.08 0 0
6.16 0 0
6.24 0 0
6.32 0 0
6.4 0 0
6.48 0 0
6.56 0 0
6.64 0 0
6.72 0 0
6.8 0 0
6.88 0 0
6.96 0 0
7.04 0 0
7.12 0 0
7.2 0 0
7.28 0 0
7.36 0 0
7.44 0 0
7.52 0 0
7.6 0 0
7.68 0 0
7.76 0 0
7.84 0 0
7.92 0 0
8 0 0
8.08 0 0
8.16 0 0
8.24 0 0
8.32 0 0
8.4 0 0
8.48 0 0
8.56 0 0
8.64 0 0
8.72 0 0
8.8 0 0
8.88 0 0
8.96 0 0
9.04 0 0
9.12 0 0
9.2 0 0
9.28 0 0
9.36 0 0
9.44 0 0
9.52 0 0
9.6 0 0
9.68 0 0
9.76 0 0
9.84 0 0
9.92 0 0
10 0 0
10.08 0 0
10.16 0 0
10.24 0 0
10.32 0 0
10.4 0 0
10.48 0 0
10.56 0 0
10.64 0 0
10.72 0 0
10.8 0 0
10.88 0 0
10.96 0 0
11.04 0 0
11.12 0 0
11.2 0 0
11.28 0 0
11.36 0 0
11.44 0 0
11.52 0 0
11.6 0 0
11.68 0 0
11.76 0 0
11.84 0 0
11.92 0 0
12 0 0
12.08 0 0
12.16 0 0
12.24 0 0
12.32 0 0
12.4 0 0
12.48 0 0
12.56 0 0
12.64 0 0
12.72 0 0
12.8 0 0
12.88 0 0
12.96 0 0
13.04 0 0
13.12 0 0
13.2 0 0
13.28 0 0
13.36 0 0
13.44 0 0
13.52 0 0
13.6 0 0
13.68 0 0
13.76 0 0
13.84 0 0
13.92 0 0
14 0 0
14.08 0 0
14.16 0 0
14.24 0 0
14.32 0 0
14.4 0 0
14.48 0 0
14.56 0 0
14.64 0 0
14.72 0 0
14.8 0 0
14.88 0 0
14.96 0 0
15.04 0 0
15.12 0 0
15.2 0 0
15.28 0 0
15.36 0 0
15.44 0 0
15.52 0 0
15.6 0 0
15.68 0 0
15.76 0 0
15.84 0 0
15.92 0 0
16 0 0
16.08 0 0
16.16 0 0
16.24 0 0
16.32 0 0
16.4 0 0
16.48 0 0
16.56 0 0
16.64 0 0
16.72 0 0
16.8 0 0
16.88 0 0
16.96 0 0
17.04 0 0
17.12 0 0
17.2 0 0
17.28 0 0
17.36 0 0
17.44 0 0
17.52 0 0
17.6 0 0
17.68 0 0
17.76 0 0
17.84 0 0
17.92 0 0
18 0 0
18.08 0 0
18.16 0 0
18.24 0 0
18.32 0 0
18.4 0 0
18.48 0 0
18.56 0 0
18.64 0 0
18.72 0 0
18.8 0 0
18.88 0 0
18.96 0 0
19.04 0 0
19.12 0 0
19.2 0 0
19.28 0 0
19.36 0 0
19.44 0 0
19.52 0 0
19.6 0 0
19.68 0 0
19.76 0 0
19.84 0 0
19.92 0 0
20 0 0
20.08 0 0
20.16 0 0
20.24 0 0
20.32 0 0
20.4 0 0
20.48 0 0
20.56 0 0
20.64 0 0
20.72 0 0
20.8 0 0
20.88 0 0
20.96 0 0
21.04 0 0
21.12 0 0
21.2 0 0
21.28 0 0
21.36 0 0
21.44 0 0
21.52 0 0
21.6 0 0
21.68 0 0
21.76 0 0
21.84 0 0
21.92 0 0
22 0 0
22.08 0 0
22.16 0 0
22.24 0 0
22.32 0 0
22.4 0 0
22.48 0 0
22.56 0 0
22.64 0 0
22.72 0 0
22.8 0 0
22.88 0 0
22.96 0 0
23.04 0 0
23.12 0 0
23.2 0 0
23.28 0 0
23.36 0 0
23.44 0 0
23.52 0 0
23.6 0 0
23.68 0 0
23.76 0 0
23.84 0 0
23.92 0 0
24 0 0
24.08 0 0
24.16 0 0
24.24 0 0
24.32 0 0
24.4 0 0
24.48 0 0
24.56 0 0
24.64 0 0
24.72 0 0
24.8 0 0
24.88 0 0
24.96 0 0
25.04 0 0
25.12 0 0
25.2 0 0
25.28 0 0
25.36 0 0
25.44 0 0
25.52 0 0
25.6 0 0
25.68 0 0
25.76 0 0
25.84 0 0
25.92 0 0
26 0 0
26.08 0 0
26.16 0 0
26.24 0 0
26.32 0 0
26.4 0 0
26.48 0 0
26.56 0 0
26.64 0 0
26.72 0 0
26.8 0 0
26.88 0 0
26.96 0 0
27.04 0 0
27.12 0 0
27.2 0 0
27.28 0 0
27.36 0 0
27.44 0 0
27.52 0 0
27.6 0 0
27.68 0 0
27.76 0 0
27.84 0 0
27.92 0 0
28 0 0
28.08 0 0
28.16 0 0
28.24 0 0
28.32 0 0
28.4 0 0
28.48 0 0
28.56 0 0
28.64 0 0
28.72 0 0
28.8 0 0
28.88 0 0
28.96 0 0
29.04 0 0
29.12 0 0
29.2 0 0
29.28 0 0
29.36 0 0
29.44 0 0
29.52 0 0
29.6 0 0
29.68 0 0
29.76 0 0
29.84 0 0
29.92 0 0
30 0 0
30.08 0 0
30.16 0 0
30.24 0 0
30.32 0 0
30.4 0 0
30.48 0 0
30.56 0 0
30.64 0 0
30.72 0 0
30.8 0 0
30.88 0 0
30.96 0 0
31.04 0 0
31.12 0 0
31.2 0 0
31.28 0 0
31.36 0 0
31.44 0 0
31.52 0 0
31.6 0 0
31.68 0 0
31.76 0 0
31.84 0 0
31.92 0 0
0 0.005 0
0.08 0.005 0
0.16 0.005 0
0.24 0.005 0
0.32 0.005 0
0.4 0.005 0
0.48 0.005 0
0.56 0.005 0
0.64 0.005 0
0.72 0.005 0
0.8 0.005 0
0.88 0.005 0
0.96 0.005 0
1.04 0.005 0
1.12 0.005 0
1.2 0.005 0
1.28 0.005 0
1.36 0.005 0
1.44 0.005 0
1.52 0.005 0
1.6 0.005 0
1.68 0.005 0
1.76 0.005 0
1.84 0.005 0
1.92 0.005 0
2 0.005 0
2.08 0.005 0
2.16 0.005 0
2.24 0.005 0
2.32 0.005 0
2.4 0.005 0
2.48 0.005 0
2.56 0.005 0
2.64 0.005 0
2.72 0.005 0
2.8 0.005 0
2.88 0.005 0
2.96 0.005 0
3.04 0.005 0
3.12 0.005 0
3.2 0.005 0
3.28 0.005 0
3.36 0.005 0
3.44 0.005 0
3.52 0.005 0
3.6 0.005 0
3.68 0.005 0
3.76 0.005 0
3.84 0.005 0
3.92 0.005 0
4 0.005 0
4.08 0.005 0
4.16 0.005 0
4.24 0.005 0
4.32 0.005 0
4.4 0.005 0
4.48 0.005 0
4.56 0.005 0
4.64 0.005 0
4.72 0.005 0
4.8 0.005 0
4.88 0.005 0
4.96 0.005 0
5.04 0.005 0
5.12 0.005 0
5.2 0.005 0
5.28 0.005 0
5.36 0.005 0
5.44 0.005 0
5.52 0.005 0
5.6 0.005 0
5.68 0.005 0
5.76 0.005 0
5.84 0.005 0
5.92 0.005 0
6 0.005 0
6.08 0.005 0
6.16 0.005 0
6.24 0.005 0
6.32 0.005 0
6.4 0.005 0
6.48 0.005 0
6.56 0.005 0
6.64 0.005 0
6.72 0.005 0
6.8 0.005 0
6.88 0.005 0
6.96 0.005 0
7.04 0.005 0
7.12 0.005 0
7.2 0.005 0
7.28 0.005 0
7.36 0.005 0
7.44 0.005 0
7.52 0.005 0
7.6 0.005 0
7.68 0.005 0
7.76 0.005 0
7.84 0.005 0
7.92 0.005 0
8 0.005 0
8.08 0.005 0
8.16 0.005 0
8.24 0.005 0
8.32 0.005 0
8.4 0.005 0
8.48 0.005 0
8.56 0.005 0
8.64 0.005 0
8.72 0.005 0
8.8 0.005 0
8.88 0.005 0
8.96 0.005 0
9.04 0.005 0
9.12 0.005 0
9.2 0.005 0
9.28 0.005 0
9.36 0.005 0
9.44 0.005 0
9.52 0.005 0
9.6 0.005 0
9.68 0.005 0
9.76 0.005 0
9.84 0.005 0
9.92 0.005 0
10 0.005 0
10.08 0.005 0
10.16 0.005 0
10.24 0.005 0
10.32 0.005 0
10.4 0.005 0
10.48 0.005 0
10.56 0.005 0
10.64 0.005 0
10.72 0.005 0
10.8 0.005 0
10.88 0.005 0
10.96 0.005 0
11.04 0.005 0
11.12 0.005 0
11.2 0.005 0
11.28 0.005 0
11.36 0.005 0
11.44 0.005 0
11.52 0.005 0
11.6 0.005 0
11.68 0.005 0
11.76 0.005 0
11.84 0.005 0
11.92 0.005 0
12 0.005 0
12.08 0.005 0
12.16 0.005 0
12.24 0.005 0
12.32 0.005 0
12.4 0.005 0
12.48 0.005 0
12.56 0.005 0
12.64 0.005 0
12.72 0.005 0
12.8 0.005 0
12.88 0.005 0
12.96 0.005 0
13.04 0.005 0
13.12 0.005 0
13.2 0.005 0
13.28 0.005 0
13.36 0.005 0
13.44 0.005 0
13.52 0.005 0
13.6 0.005 0
13.68 0.005 0
13.76 0.005 0
13.84 0.005 0
13.92 0.005 0
14 0.005 0
14.08 0.005 0
14.16 0.005 0
14.24 0.005 0
14.32 0.005 0
14.4 0.005 0
14.48 0.005 0
14.56 0.005 0
14.64 0.005 0
14.72 0.005 0
14.8 0.005 0
14.88 0.005 0
14.96 0.005 0
15.04 0.005 0
15.12 0.005 0
15.2 0.005 0
15.28 0.005 0
15.36 0.005 0
15.44 0.005 0
15.52 0.005 0
15.6 0.005 0
15.68 0.005 0
15.76 0.005 0
15.84 0.005 0
15.92 0.005 0
16 0.005 0
16.08 0.005 0
16.16 0.005 0
16.24 0.005 0
16.32 0.005 0
16.4 0.005 0
16.48 0.005 0
16.56 0.005 0
16.64 0.005 0
16.72 0.005 0
16.8 0.005 0
16.88 0.005 0
16.96 0.005 0
17.04 0.005 0
17.12 0.005 0
17.2 0.005 0
17.28 0.005 0
17.36 0.005 0
17.44 0.005 0
17.52 0.005 0
17.6 0.005 0
17.68 0.005 0
17.76 0.005 0
17.84 0.005 0
17.92 0.005 0
18 0.005 0
18.08 0.005 0
18.16 0.005 0
18.24 0.005 0
18.32 0.005 0
18.4 0.005 0
18.48 0.005 0
18.56 0.005 0
18.64 0.005 0
18.72 0.005 0
18.8 0.005 0
18.88 0.005 0
18.96 0.005 0
19.04 0.005 0
19.12 0.005 0
19.2 0.005 0
19.28 0.005 0
19.36 0.005 0
19.44 0.005 0
19.52 0.005 0
19.6 0.005 0
19.68 0.005 0
19.76 0.005 0
19.84 0.005 0
19.92 0.005 0
20 0.005 0
20.08 0.005 0
20.16 0.005 0
20.24 0.005 0
20.32 0.005 0
20.4 0.005 0
20.48 0.005 0
20.56 0.005 0
20.64 0.005 0
20.72 0.005 0
20.8 0.005 0
20.88 0.005 0
20.96 0.005 0
21.04 0.005 0
21.12 0.005 0
21.2 0.005 0
21.28 0.005 0
21.36 0.005 0
21.44 0.005 0
21.52 0.005 0
21.6 0.005 0
21.68 0.005 0
21.76 0.005 0
21.84 0.005 0
21.92 0.005 0
22 0.005 0
22.08 0.005 0
22.16 0.005 0
22.24 0.005 0
22.32 0.005 0
22.4 0.005 0
22.48 0.005 0
22.56 0.005 0
22.64 0.005 0
22.72 0.005 0
22.8 0.005 0
22.88 0.005 0
22.96 0.005 0
23.04 0.005 0
23.12 0.005 0
23.2 0.005 0
23.28 0.005 0
23.36 0.005 0
23.44 0.005 0
23.52 0.005 0
23.6 0.005 0
23.68 0.005 0
23.76 0.005 0
23.84 0.005 0
23.92 0.005 0
24 0.005 0
24.08 0.005 0
24.16 0.005 0
24.24 0.005 0
24.32 0.005 0
24.4 0.005 0
24.48 0.005 0
24.56 0.005 0
24.64 0.005 0
24.72 0.005 0
24.8 0.005 0
24.88 0.005 0
24.96 0.005 0
25.04 0.005 0
25.12 0.005 0
25.2 0.005 0
25.28 0.005 0
25.36 0.005 0
25.44 0.005 0
25.52 0.005 0
25.6 0.005 0
25.68 0.005 0
25.76 0.005 0
25.84 0.005 0
25.92 0.005 0
26 0.005 0
26.08 0.005 0
26.16 0.005 0
26.24 0.005 0
26.32 0.005 0
26.4 0.005 0
26.48 0.005 0
26.56 0.005 0
26.64 0.005 0
26.72 0.005 0
26.8 0.005 0
26.88 0.005 0
26.96 0.005 0
27.04 0.005 0
27.12 0.005 0
27.2 0.005 0
27.28 0.005 0
27.36 0.005 0
27.44 0.005 0
27.52 0.005 0
27.6 0.005 0
27.68 0.005 0
27.76 0.005 0
27.84 0.005 0
27.92 0.005 0
28 0.005 0
28.08 0.005 0
28.16 0.005 0
28.24 0.005 0
28.32 0.005 0
28.4 0.005 0
28.48 0.005 0
28.56 0.005 0
28.64 0.005 0
28.72 0.005 0
28.8 0.005 0
28.88 0.005 0
28.96 0.005 0
29.04 0.005 0
29.12 0.005 0
29.2 0.005 0
29.28 0.005 0
29.36 0.005 0
29.44 0.005 0
29.52 0.005 0
29.6 0.005 0
29.68 0.005 0
29.76 0.005 0
29.84 0.005 0
29.92 0.005 0
30 0.005 0
30.08 0.005 0
30.16 0.005 0
30.24 0.005 0
30.32 0.005 0
30.4 0.005 0
30.48 0.005 0
30.56 0.005 0
30.64 0.005 0
30.72 0.005 0
30.8 0.005 0
30.88 0.005 0
30.96 0.005 0
31.04 0.005 0
31.12 0.005 0
31.2 0.005 0
31.28 0.005 0
31.36 0.005 0
31.44 0.005 0
31.52 0.005 0
31.6 0.005 0
31.68 0.005 0
31.76 0.005 0
31.84 0.005 0
31.92 0.005 0
0 0.01 0
0.08 0.01 0
0.16 0.01 0
0.24 0.01 0
0.32 0.01 0
0.4 0.01 0
0.48 0.01 0
0.56 0.01 0
0.64 0.01 0
0.72 0.01 0
0.8 0.01 0
0.88 0.01 0
0.96 0.01 0
1.04 0.01 0
1.12 0.01 0
1.2 0.01 0
1.28 0.01 0
1.36 0.01 0
1.44 0.01 0
1.52 0.01 0
1.6 0.01 0
1.68 0.01 0
1.76 0.01 0
1.84 0.01 0
1.92 0.01 0
2 0.01 0
2.08 0.01 0
2.16 0.01 0
2.24 0.01 0
2.32 0.01 0
2.4 0.01 0
2.48 0.01 0
2.56 0.01 0
2.64 0.01 0
2.72 0.01 0
2.8 0.01 0
2.88 0.01 0
2.96 0.01 0
3.04 0.01 0
3.12 0.01 0
3.2 0.01 0
3.28 0.01 0
3.36 0.01 0
3.44 0.01 0
3.52 0.01 0
3.6 0.01 0
3.68 0.01 0
3.76 0.01 0
3.84 0.01 0
3.92 0.01 0
4 0.01 0
4.08 0.01 0
4.16 0.01 0
4.24 0.01 0
4.32 0.01 0
4.4 0.01 0
4.48 0.01 0
4.56 0.01 0
4.64 0.01 0
4.72 0.01 0
4.8 0.01 0
4.88 0.01 0
4.96 0.01 0
5.04 0.01 0
5.12 0.01 0
[...]
POINT_DATA 80000

SCALARS u float 1
LOOKUP_TABLE default
0
-0.1316626468
-0.06826917442
-0.0522959327
-0.04441979649
-0.03957668022
-0.0362595801
-0.03383253298
-0.03197254724
-0.03049586254
-0.0292897873
-0.02828148109
-0.02742198131
-0.02667733608
-0.02602337576
-0.02544248813
-0.0249215607
-0.02445063256
-0.02402199215
-0.02362956225
-0.02326847395
-0.02293476696
-0.02262517548
-0.02233697313
-0.02206785883
-0.02181587161
-0.02157932607
-0.02135676268
-0.02114690907
-0.02094864945
-0.02076100033
-0.02058309071
-0.02041414589
-0.02025347394
-0.02010045462
-0.01995453021
-0.01981519789
-0.01968200307
-0.01955453339
-0.01943241359
-0.01931530127
-0.01920288369
-0.01909487496
-0.01899101328
-0.01889105801
-0.01879478693
-0.01870199441
-0.0186124904
-0.01852609975
-0.01844266104
-0.01836202474
-0.01828405108
-0.01820860882
-0.01813557511
-0.01806483607
-0.01799628699
-0.01792983124
-0.01786537829
-0.01780284186
-0.01774213957
-0.01768319405
-0.01762593452
-0.01757029719
-0.01751622393
-0.01746365985
-0.01741255158
-0.01736284778
-0.01731450179
-0.01726747506
-0.01722173903
-0.01717727438
-0.0171340683
-0.01709211167
-0.01705139822
-0.01701192621
-0.01697370107
-0.01693673664
-0.01690105269
-0.01686666904
-0.01683359841
-0.01680184141
-0.01677138612
-0.01674221232
-0.01671429797
-0.01668762419
-0.01666217597
-0.01663793823
-0.01661488952
-0.01659299714
-0.01657221674
-0.01655249726
-0.01653378914
-0.01651605198
-0.01649925821
-0.01648339077
-0.0164684362
-0.01645437615
-0.01644118133
-0.01642881064
-0.01641721563
-0.01640634844
-0.01639616966
-0.01638665286
-0.01637778394
-0.01636955578
-0.01636196029
-0.01635498098
-0.01634858882
-0.01634274263
-0.01633739384
-0.01633249378
-0.01632800104
-0.01632388677
-0.01632013651
-0.01631674819
-0.01631372742
-0.01631108132
-0.01630881269
-0.01630691578
-0.0163053743
-0.01630416179
-0.01630324381
-0.01630258113
-0.01630213316
-0.01630186094
-0.01630172933
-0.01630170812
-0.01630177243
-0.01630190238
-0.0163020824
-0.0163023004
-0.01630254705
-0.01630281505
-0.01630309871
-0.01630339357
-0.01630369618
-0.01630400392
-0.01630431484
-0.01630462762
-0.01630494135
-0.01630525552
-0.01630556985
-0.01630588423
-0.01630619865
-0.01630651317
-0.01630682782
-0.01630714267
-0.01630745774
-0.01630777304
-0.01630808858
-0.01630840434
-0.0163087203
-0.01630903647
-0.0163093528
-0.01630966931
-0.01630998597
-0.01631030279
-0.01631061975
-0.01631093686
-0.01631125413
-0.01631157154
-0.01631188911
-0.01631220683
-0.01631252471
-0.01631284274
-0.01631316093
-0.01631347928
-0.01631379779
-0.01631411645
-0.01631443527
-0.01631475425
-0.01631507339
-0.01631539269
-0.01631571214
-0.01631603175
-0.01631635152
-0.01631667145
-0.01631699153
-0.01631731177
-0.01631763217
-0.01631795272
-0.01631827343
-0.01631859429
-0.01631891532
-0.01631923649
-0.01631955783
-0.01631987932
-0.01632020096
-0.01632052276
-0.01632084472
-0.01632116683
-0.0163214891
-0.01632181152
-0.0163221341
-0.01632245684
-0.01632277973
-0.01632310277
-0.01632342597
-0.01632374932
-0.01632407283
-0.0163243965
-0.01632472032
-0.01632504429
-0.01632536842
-0.0163256927
-0.01632601714
-0.01632634174
-0.01632666649
-0.01632699139
-0.01632731645
-0.01632764167
-0.01632796704
-0.01632829256
-0.01632861824
-0.01632894407
-0.01632927006
-0.01632959621
-0.01632992251
-0.01633024896
-0.01633057557
-0.01633090234
-0.01633122926
-0.01633155633
-0.01633188356
-0.01633221095
-0.01633253849
-0.01633286619
-0.01633319404
-0.01633352205
-0.01633385021
-0.01633417853
-0.016334507
-0.01633483563
-0.01633516442
-0.01633549336
-0.01633582245
-0.01633615171
-0.01633648111
-0.01633681068
-0.0163371404
-0.01633747027
-0.01633780031
-0.01633813049
-0.01633846084
-0.01633879134
-0.01633912199
-0.01633945281
-0.01633978378
-0.0163401149
-0.01634044618
-0.01634077762
-0.01634110922
-0.01634144097
-0.01634177288
-0.01634210494
-0.01634243717
-0.01634276955
-0.01634310208
-0.01634343478
-0.01634376763
-0.01634410063
-0.0163444338
-0.01634476712
-0.0163451006
-0.01634543424
-0.01634576803
-0.01634610198
-0.0163464361
-0.01634677036
-0.01634710479
-0.01634743937
-0.01634777412
-0.01634810902
-0.01634844407
-0.01634877929
-0.01634911466
-0.0163494502
-0.01634978589
-0.01635012174
-0.01635045775
-0.01635079392
-0.01635113024
-0.01635146673
-0.01635180338
-0.01635214018
-0.01635247714
-0.01635281427
-0.01635315155
-0.01635348899
-0.01635382659
-0.01635416435
-0.01635450227
-0.01635484035
-0.01635517859
-0.01635551699
-0.01635585555
-0.01635619428
-0.01635653316
-0.0163568722
-0.0163572114
-0.01635755077
-0.01635789029
-0.01635822997
-0.01635856982
-0.01635890983
-0.01635925
-0.01635959033
-0.01635993082
-0.01636027147
-0.01636061228
-0.01636095326
-0.0163612944
-0.0163616357
-0.01636197716
-0.01636231879
-0.01636266057
-0.01636300252
-0.01636334463
-0.01636368691
-0.01636402935
-0.01636437195
-0.01636471471
-0.01636505764
-0.01636540073
-0.01636574398
-0.0163660874
-0.01636643098
-0.01636677473
-0.01636711863
-0.01636746271
-0.01636780694
-0.01636815135
-0.01636849591
-0.01636884065
-0.01636918554
-0.01636953061
-0.01636987582
-0.01637022124
-0.01637056677
-0.01637091252
-0.01637125838
-0.01637160447
-0.01637195065
-0.01637229708
-0.01637264358
-0.01637299036
-0.01637333718
-0.01637368432
-0.01637403145
-0.01637437894
-0.01637472638
-0.01637507423
-0.01637542197
-0.01637577021
-0.01637611823
-0.01637646685
-0.01637681516
-0.01637716418
-0.01637751275
-0.0163778622
-0.016378211
-0.01637856089
-0.01637890991
-0.01637926028
-0.01637960947
-0.01637996036
-0.01638030968
-0.01638066114
-0.01638101054
-0.01638136261
-0.01638171203
-0.01638206478
-0.01638241414
-0.01638276765
-0.01638311686
-0.0163834712
-0.01638382019
-0.01638417542
-0.01638452413
-0.01638488028
-0.01638522872
-0.01638558572
-0.01638593406
-0.01638629163
-0.01638664043
-0.01638699788
-0.01638734848
-0.01638770423
-0.01638805978
-0.01638841036
-0.01638877802
-0.01638911538
-0.01638951169
-0.0163898141
-0.01639027779
-0.01639046339
-0.01639107963
-0.01639048156
-0.01639048156
-0.01639048156
1
0.1316626468
0.06826917442
0.0522959327
0.04441979649
0.03957668022
0.0362595801
0.03383253298
0.03197254724
0.03049586254
0.0292897873
0.02828148109
0.02742198131
0.02667733608
0.02602337576
0.02544248813
0.0249215607
0.02445063256
0.02402199215
0.02362956225
0.02326847395
0.02293476696
0.02262517548
0.02233697313
0.02206785883
0.02181587161
0.02157932607
0.02135676268
0.02114690907
0.02094864945
0.02076100033
0.02058309071
0.02041414589
0.02025347394
0.02010045462
0.01995453021
0.01981519789
0.01968200307
0.01955453339
0.01943241359
0.01931530127
0.01920288369
0.01909487496
0.01899101328
0.01889105801
0.01879478693
0.01870199441
0.0186124904
0.01852609975
0.01844266104
0.01836202474
0.01828405108
0.01820860882
0.01813557511
0.01806483607
0.01799628699
0.01792983124
0.01786537829
0.01780284186
0.01774213957
0.01768319405
0.01762593452
0.01757029719
0.01751622393
0.01746365985
0.01741255158
0.01736284778
0.01731450179
0.01726747506
0.01722173903
0.01717727438
0.0171340683
0.01709211167
0.01705139822
0.01701192621
0.01697370107
0.01693673664
0.01690105269
0.01686666904
0.01683359841
0.01680184141
0.01677138612
0.01674221232
0.01671429797
0.01668762419
0.01666217597
0.01663793823
0.01661488952
0.01659299714
0.01657221674
0.01655249726
0.01653378914
0.01651605198
0.01649925821
0.01648339077
0.0164684362
0.01645437615
0.01644118133
0.01642881064
0.01641721563
0.01640634844
0.01639616966
0.01638665286
0.01637778394
0.01636955578
0.01636196029
0.01635498098
0.01634858882
0.01634274263
0.01633739384
0.01633249378
0.01632800104
0.01632388677
0.01632013651
0.01631674819
0.01631372742
0.01631108132
0.01630881269
0.01630691578
0.0163053743
0.01630416179
0.01630324381
0.01630258113
0.01630213316
0.01630186094
0.01630172933
0.01630170812
0.01630177243
0.01630190238
0.0163020824
0.0163023004
0.01630254705
0.01630281505
0.01630309871
0.01630339357
0.01630369618
0.01630400392
0.01630431484
0.01630462762
0.01630494135
0.01630525552
0.01630556985
0.01630588423
0.01630619865
0.01630651317
0.01630682782
0.01630714267
0.01630745774
0.01630777304
0.01630808858
0.01630840434
0.0163087203
0.01630903647
0.0163093528
0.01630966931
0.01630998597
0.01631030279
0.01631061975
0.01631093686
0.01631125413
0.01631157154
0.01631188911
0.01631220683
0.01631252471
0.01631284274
0.01631316093
0.01631347928
0.01631379779
0.01631411645
0.01631443527
0.01631475425
0.01631507339
0.01631539269
0.01631571214
0.01631603175
0.01631635152
0.01631667145
0.01631699153
0.01631731177
0.01631763217
0.01631795272
0.01631827343
0.01631859429
0.01631891532
0.01631923649
0.01631955783
0.01631987932
0.01632020096
0.01632052276
0.01632084472
0.01632116683
0.0163214891
0.01632181152
0.0163221341
0.01632245684
0.01632277973
0.01632310277
0.01632342597
0.01632374932
0.01632407283
0.0163243965
0.01632472032
0.01632504429
0.01632536842
0.0163256927
0.01632601714
0.01632634174
0.01632666649
0.01632699139
0.01632731645
0.01632764167
0.01632796704
0.01632829256
0.01632861824
0.01632894407
0.01632927006
0.01632959621
0.01632992251
0.01633024896
0.01633057557
0.01633090234
0.01633122926
0.01633155633
0.01633188356
0.01633221095
0.01633253849
0.01633286619
0.01633319404
0.01633352205
0.01633385021
0.01633417853
0.016334507
0.01633483563
0.01633516442
0.01633549336
0.01633582245
0.01633615171
0.01633648111
0.01633681068
0.0163371404
0.01633747027
0.01633780031
0.01633813049
0.01633846084
0.01633879134
0.01633912199
0.01633945281
0.01633978378
0.0163401149
0.01634044618
0.01634077762
0.01634110922
0.01634144097
0.01634177288
0.01634210494
0.01634243717
0.01634276955
0.01634310208
0.01634343478
0.01634376763
0.01634410063
0.0163444338
0.01634476712
0.0163451006
0.01634543424
0.01634576803
0.01634610198
0.0163464361
0.01634677036
0.01634710479
0.01634743937
0.01634777412
0.01634810902
0.01634844407
0.01634877929
0.01634911466
0.0163494502
0.01634978589
0.01635012174
0.01635045775
0.01635079392
0.01635113024
0.01635146673
0.01635180338
0.01635214018
0.01635247714
0.01635281427
0.01635315155
0.01635348899
0.01635382659
0.01635416435
0.01635450227
0.01635484035
0.01635517859
0.01635551699
0.01635585555
0.01635619428
0.01635653316
0.0163568722
0.0163572114
0.01635755077
0.01635789029
0.01635822997
0.01635856982
0.01635890983
0.01635925
0.01635959033
0.01635993082
0.01636027147
0.01636061228
0.01636095326
0.0163612944
0.0163616357
0.01636197716
0.01636231879
0.01636266057
0.01636300252
0.01636334463
0.01636368691
0.01636402935
0.01636437195
0.01636471471
0.01636505764
0.01636540073
0.01636574398
0.0163660874
0.01636643098
0.01636677473
0.01636711863
0.01636746271
0.01636780694
0.01636815135
0.01636849591
0.01636884065
0.01636918554
0.01636953061
0.01636987582
0.01637022124
0.01637056677
0.01637091252
0.01637125838
0.01637160447
0.01637195065
0.01637229708
0.01637264358
0.01637299036
0.01637333718
0.01637368432
0.01637403145
0.01637437894
0.01637472638
0.01637507423
0.01637542197
0.01637577021
0.01637611823
0.01637646685
0.01637681516
0.01637716418
0.01637751275
0.0163778622
0.016378211
0.01637856089
0.01637890991
0.01637926028
0.01637960947
0.01637996036
0.01638030968
0.01638066114
0.01638101054
0.01638136261
0.01638171203
0.01638206478
0.01638241414
0.01638276765
0.01638311686
0.0163834712
0.01638382019
0.01638417542
0.01638452413
0.01638488028
0.01638522872
0.01638558572
0.01638593406
0.01638629163
0.01638664043
0.01638699788
0.01638734848
0.01638770423
0.01638805978
0.01638841036
0.01638877802
0.01638911538
0.01638951169
0.0163898141
0.01639027779
0.01639046339
0.01639107963
0.01639048156
0.01639048156
0.01639048156
1
0.3448838568
0.2006675918
0.1549670771
0.1318943983
0.1175984238
0.1077677546
0.1005578503
0.09502483793
0.09062893647
0.0870377862
0.08403583344
0.08147776367
0.07926256111
0.07731816529
0.07559197978
0.07404479837
0.07264681471
0.07137494415
0.07021099372
0.06914039125
0.06815128929
0.06723392409
0.06638015023
0.06558309802
0.06483691749
0.06413658434
0.0634777505
0.06285662782
0.0622698963
0.06171463099
0.06118824272
0.06068842938
0.06021313562
0.05976051966
0.05932892597
0.0589168623
0.05852297968
0.05814605467
0.05778497409
0.05743872268
0.05710637338
0.05678707879
0.05648006274
0.05618461158
0.05590006658
0.05562581862
0.05536130509
0.05510600751
0.0548594477
0.05462118223
0.05439079678
0.05416790282
0.05395213745
0.05374316467
0.05354067517
0.05334438285
0.05315401925
0.05296932908
0.05279006977
0.05261601472
0.05244695697
0.05228270968
0.05212310182
0.05196797184
0.05181716396
0.05167053056
0.05152793993
0.05138928494
0.05125448705
0.05112349337
0.05099626886
0.05087278933
0.05075304002
0.05063702029
0.05052474985
0.05041626986
0.05031163422
0.05021089248
0.05011407102
0.05002116142
0.04993212159
0.04984688862
0.04976539592
0.04968758508
0.04961340565
0.04954280342
0.049475704
0.04941200191
0.04935156236
0.04929423656
0.04923988408
0.04918839194
0.04913968144
0.04909369952
0.04905039878
0.04900971545
0.04897155549
0.04893579492
0.04890229408
0.04887091936
0.04884156307
0.04881415305
0.04878864839
0.04876502313
0.04874324475
0.04872325551
0.0487049635
0.04868824629
0.04867296535
0.04865898623
0.04864619771
0.04863452433
0.04862392906
0.04861440622
0.04860596742
0.04859862474
0.04859237548
0.04858719184
0.04858301697
0.04857976721
0.04857733883
0.04857561728
0.04857448652
0.04857383691
0.04857357061
0.04857360438
0.04857387003
0.0485743133
0.04857489181
0.04857557271
0.0485763306
0.04857714568
0.0485780025
0.048578889
0.04857979589
0.04858071614
0.04858164465
0.04858257789
0.04858351356
0.04858445033
0.04858538751
0.04858632487
0.04858726243
0.04858820029
0.04858913861
0.04859007751
0.04859101706
0.04859195731
0.04859289823
0.0485938398
0.04859478197
0.04859572471
0.04859666796
0.04859761169
0.04859855589
0.04859950055
0.04860044564
0.04860139118
0.04860233717
0.04860328361
0.0486042305
0.04860517785
0.04860612566
0.04860707393
0.04860802268
0.04860897189
0.04860992157
0.04861087171
0.04861182233
0.04861277341
0.04861372496
0.04861467698
0.04861562946
0.04861658241
0.04861753583
0.04861848971
0.04861944406
0.04862039887
0.04862135414
0.04862230988
0.04862326608
0.04862422274
0.04862517987
0.04862613746
0.04862709551
0.04862805402
0.04862901299
0.04862997242
0.04863093232
0.04863189267
0.04863285349
0.04863381476
0.04863477649
0.04863573868
0.04863670134
0.04863766445
0.04863862802
0.04863959205
0.04864055654
0.04864152148
0.04864248689
0.04864345275
0.04864441908
0.04864538586
0.0486463531
0.0486473208
0.04864828896
0.04864925757
0.04865022665
0.04865119618
0.04865216617
0.04865313663
0.04865410753
0.0486550789
0.04865605073
0.04865702302
0.04865799576
0.04865896897
0.04865994263
0.04866091675
0.04866189133
0.04866286638
0.04866384188
0.04866481784
0.04866579425
0.04866677113
0.04866774847
0.04866872627
0.04866970453
0.04867068325
0.04867166243
0.04867264207
0.04867362217
0.04867460273
0.04867558375
0.04867656523
0.04867754718
0.04867852958
0.04867951245
0.04868049578
0.04868147957
0.04868246382
0.04868344853
0.04868443371
0.04868541935
0.04868640545
0.04868739201
0.04868837904
0.04868936652
0.04869035448
0.04869134289
0.04869233177
0.04869332112
0.04869431092
0.04869530119
0.04869629193
0.04869728313
0.0486982748
0.04869926693
0.04870025952
0.04870125258
0.04870224611
0.0487032401
0.04870423456
0.04870522949
0.04870622488
0.04870722074
0.04870821706
0.04870921385
0.04871021111
0.04871120884
0.04871220704
0.0487132057
0.04871420483
0.04871520443
0.0487162045
0.04871720504
0.04871820605
0.04871920753
0.04872020948
0.0487212119
0.04872221479
0.04872321815
0.04872422198
0.04872522628
0.04872623105
0.0487272363
0.04872824201
0.0487292482
0.04873025487
0.048731262
0.04873226961
0.04873327769
0.04873428625
0.04873529528
0.04873630478
0.04873731476
0.04873832521
0.04873933614
0.04874034755
0.04874135943
0.04874237178
0.04874338462
0.04874439793
0.04874541172
0.04874642598
0.04874744072
0.04874845594
0.04874947164
0.04875048782
0.04875150448
0.04875252162
0.04875353923
0.04875455733
0.04875557591
0.04875659497
0.04875761451
0.04875863453
0.04875965504
0.04876067602
0.04876169749
0.04876271944
0.04876374188
0.04876476479
0.04876578821
0.04876681209
0.04876783648
0.04876886132
0.04876988668
0.04877091249
0.04877193884
0.04877296562
0.04877399294
0.04877502069
0.048776049
0.04877707771
0.04877810702
0.0487791367
0.048780167
0.04878119764
0.04878222895
0.04878326054
0.04878429286
0.04878532541
0.04878635876
0.04878739224
0.04878842663
0.04878946104
0.04879049649
0.04879153182
0.04879256834
0.04879360457
0.04879464219
0.04879567929
0.04879671805
0.04879775598
0.04879879592
0.04879983463
0.04880087581
0.04880191525
0.04880295773
0.04880399782
0.04880504168
0.04880608234
0.04880712769
0.04880816878
0.04880921574
0.04881025713
0.04881130586
0.04881234737
0.04881339804
0.04881443945
0.04881549227
0.04881653337
0.04881758853
0.04881862909
0.04881968678
0.04882072663
0.04882178691
0.04882282608
0.04882388878
0.04882492772
0.04882599212
0.04882703231
0.04882809655
0.04882914166
0.04883020154
0.04883126006
0.04883230636
0.04883339771
0.04883440904
0.04883557796
0.0488364966
0.04883784683
0.04883845396
0.04884020236
0.04883874298
0.04883874298
0.04883874298
1
0.5187654786
0.3274017042
0.2553474563
0.2178485811
0.1944035876
0.1782117851
0.1663072778
0.1571582928
0.1498837752
0.1439389583
0.1389693579
0.1347353435
0.1310699527
0.1278538565
0.1249998273
0.1224427714
0.1201331648
0.1180326354
0.116110939
0.1143438529
0.1127116898
0.1111982318
0.1097899561
0.1084754639
0.107245054
0.1060903989
0.1050042956
0.1039804716
0.1030134321
0.102098338
0.1012309072
0.1004073333
0.09962421896
0.09887852085
0.0981675039
0.09748870329
0.09683989104
0.09621904672
0.09562433238
0.09505407221
0.09450673624
0.09398092606
0.09347536053
0.09298886169
0.09252034249
0.09206879824
0.09163330144
0.09121299723
0.09080709675
0.09041486809
0.09003562759
0.08966873491
0.08931359273
0.08896964834
0.08863639245
0.08831335329
0.08800008788
0.08769617581
0.08740121899
0.08711484675
0.086836721
0.0865665359
0.08630401083
0.08604888097
0.08580089271
0.08555980843
0.08532541879
0.08509755535
0.08487609556
0.08466095708
0.08445208566
0.08424944507
0.08405301568
0.08386280154
0.08367883856
0.08350119366
0.08332994912
0.08316517517
0.08300690204
0.08285510432
0.08270970517
0.08257059732
0.08243766885
0.08231081934
0.08218995745
0.08207498199
0.08196575785
0.08186210203
0.08176378945
0.08167057845
0.08158224493
0.08149860939
0.08141954418
0.08134495745
0.08127476166
0.08120884102
0.08114703306
0.08108913224
0.08103491382
0.08098416733
0.08093672508
0.08089247399
0.08085134606
0.08081329188
0.08077824769
0.08074610863
0.08071671776
0.08068987435
0.0806653577
0.08064295831
0.08062250607
0.08060388723
0.08058704612
0.0805719722
0.08055867729
0.08054716969
0.08053743159
0.08052940469
0.08052298568
0.08051803114
0.08051436898
0.08051181302
0.08051017751
0.08050928882
0.08050899332
0.08050916112
0.08050968631
0.08051048485
0.08051149123
0.08051265472
0.08051393604
0.08051530467
0.08051673677
0.08051821382
0.08051972156
0.08052124931
0.08052278934
0.08052433634
0.08052588692
0.08052743911
0.08052899195
0.08053054511
0.08053209865
0.08053365276
0.08053520765
0.08053676353
0.08053832048
0.08053987856
0.08054143774
0.08054299797
0.08054455918
0.08054612129
0.08054768425
0.08054924801
0.08055081253
0.08055237779
0.08055394379
0.08055551052
0.08055707799
0.08055864621
0.08056021517
0.0805617849
0.08056335539
0.08056492664
0.08056649866
0.08056807146
0.08056964503
0.08057121936
0.08057279448
0.08057437036
0.08057594701
0.08057752443
0.08057910262
0.08058068158
0.0805822613
0.08058384179
0.08058542305
0.08058700507
0.08058858786
0.08059017141
0.08059175572
0.0805933408
0.08059492663
0.08059651323
0.08059810059
0.0805996887
0.08060127758
0.08060286722
0.08060445761
0.08060604876
0.08060764067
0.08060923334
0.08061082677
0.08061242095
0.08061401588
0.08061561158
0.08061720803
0.08061880523
0.08062040319
0.08062200191
0.08062360138
0.08062520161
0.0806268026
0.08062840433
0.08063000683
0.08063161008
0.08063321408
0.08063481884
0.08063642436
0.08063803063