# vtk DataFile Version 2.0
FlowField
ASCII
DATASET STRUCTURED_GRID
DIMENSIONS 400 1 200
POINTS 80000 float
0 0 0
0.08 0 0
0.16 0 0
0.24 0 0
0.32 0 0
0.4 0 0
0.48 0 0
0.56 0 0
0.64 0 0
0.72 0 0
0.8 0 0
0.88 0 0
0.96 0 0
1.04 0 0
1.12 0 0
1.2 0 0
1.28 0 0
1.36 0 0
1.44 0 0
1.52 0 0
1.6 0 0
1.68 0 0
1.76 0 0
1.84 0 0
1.92 0 0
2 0 0
2.08 0 0
2.16 0 0
2.24 0 0
2.32 0 0
2.4 0 0
2.48 0 0
2.56 0 0
2.64 0 0
2.72 0 0
2.8 0 0
2.88 0 0
2.96 0 0
3.04 0 0
3.12 0 0
3.2 0 0
3.28 0 0
3.36 0 0
3.44 0 0
3.52 0 0
3.6 0 0
3.68 0 0
3.76 0 0
3.84 0 0
3.92 0 0
4 0 0
4.08 0 0
4.16 0 0
4.24 0 0
4.32 0 0
4.4 0 0
4.48 0 0
4.56 0 0
4.64 0 0
4.72 0 0
4.8 0 0
4.88 0 0
4.96 0 0
5.04 0 0
5.12 0 0
5.2 0 0
5.28 0 0
5.36 0 0
5.44 0 0
5.52 0 0
5.6 0 0
5.68 0 0
5.76 0 0
5.84 0 0
5.92 0 0
6 0 0
6.08 0 0
6.16 0 0
6.24 0 0
6.32 0 0
6.4 0 0
6.48 0 0
6.56 0 0
6.64 0 0
6.72 0 0
6.8 0 0
6.88 0 0
6.96 0 0
7.04 0 0
7.12 0 0
7.2 0 0
7.28 0 0
7.36 0 0
7.44 0 0
7.52 0 0
7.6 0 0
7.68 0 0
7.76 0 0
7.84 0 0
7.92 0 0
8 0 0
8.08 0 0
8.16 0 0
8.24 0 0
8.32 0 0
8.4 0 0
8.48 0 0
8.56 0 0
8.64 0 0
8.72 0 0
8.8 0 0
8.88 0 0
8.96 0 0
9.04 0 0
9.12 0 0
9.2 0 0
9.28 0 0
9.36 0 0
9.44 0 0
9.52 0 0
9.6 0 0
9.68 0 0
9.76 0 0
9.84 0 0
9.92 0 0
10 0 0
10.08 0 0
10.16 0 0
10.24 0 0
10.32 0 0
10.4 0 0
10.48 0 0
10.56 0 0
10.64 0 0
10.72 0 0
10.8 0 0
10.88 0 0
10.96 0 0
11.04 0 0
11.12 0 0
11.2 0 0
11.28 0 0
11.36 0 0
11.44 0 0
11.52 0 0
11.6 0 0
11.68 0 0
11.76 0 0
11.84 0 0
11.92 0 0
12 0 0
12.08 0 0
12.16 0 0
12.24 0 0
12.32 0 0
12.4 0 0
12.48 0 0
12.56 0 0
12.64 0 0
12.72 0 0
12.8 0 0
12.88 0 0
12.96 0 0
13.04 0 0
13.12 0 0
13.2 0 0
13.28 0 0
13.36 0 0
13.44 0 0
13.52 0 0
13.6 0 0
13.68 0 0
13.76 0 0
13.84 0 0
13.92 0 0
14 0 0
14.08 0 0
14.16 0 0
14.24 0 0
14.32 0 0
14.4 0 0
14.48 0 0
14.56 0 0
14.64 0 0
14.72 0 0
14.8 0 0
14.88 0 0
14.96 0 0
15.04 0 0
15.12 0 0
15.2 0 0
15.28 0 0
15.36 0 0
15.44 0 0
15.52 0 0
15.6 0 0
15.68 0 0
15.76 0 0
15.84 0 0
15.92 0 0
16 0 0
16.08 0 0
16.16 0 0
16.24 0 0
16.32 0 0
16.4 0 0
16.48 0 0
16.56 0 0
16.64 0 0
16.72 0 0
16.8 0 0
16.88 0 0
16.96 0 0
17.04 0 0
17.12 0 0
17.2 0 0
17.28 0 0
17.36 0 0
17.44 0 0
17.52 0 0
17.6 0 0
17.68 0 0
17.76 0 0
17.84 0 0
17.92 0 0
18 0 0
18.08 0 0
18.16 0 0
18.24 0 0
18.32 0 0
18.4 0 0
18.48 0 0
18.56 0 0
18.64 0 0
18.72 0 0
18.8 0 0
18.88 0 0
18.96 0 0
19.04 0 0
19.12 0 0
19.2 0 0
19.28 0 0
19.36 0 0
19.44 0 0
19.52 0 0
19.6 0 0
19.68 0 0
19.76 0 0
19.84 0 0
19.92 0 0
20 0 0
20.08 0 0
20.16 0 0
20.24 0 0
20.32 0 0
20.4 0 0
20.48 0 0
20.56 0 0
20.64 0 0
20.72 0 0
20.8 0 0
20.88 0 0
20.96 0 0
21.04 0 0
21.12 0 0
21.2 0 0
21.28 0 0
21.36 0 0
21.44 0 0
21.52 0 0
21.6 0 0
21.68 0 0
21.76 0 0
21.84 0 0
21.92 0 0
22 0 0
22.08 0 0
22.16 0 0
22.24 0 0
22.32 0 0
22.4 0 0
22.48 0 0
22.56 0 0
22.64 0 0
22.72 0 0
22.8 0 0
22.88 0 0
22.96 0 0
23.04 0 0
23.12 0 0
23.2 0 0
23.28 0 0
23.36 0 0
23.44 0 0
23.52 0 0
23.6 0 0
23.68 0 0
23.76 0 0
23.84 0 0
23.92 0 0
24 0 0
24.08 0 0
24.16 0 0
24.24 0 0
24.32 0 0
24.4 0 0
24.48 0 0
24.56 0 0
24.64 0 0
24.72 0 0
24.8 0 0
24.88 0 0
24.96 0 0
25.04 0 0
25.12 0 0
25.2 0 0
25.28 0 0
25.36 0 0
25.44 0 0
25.52 0 0
25.6 0 0
25.68 0 0
25.76 0 0
25.84 0 0
25.92 0 0
26 0 0
26.08 0 0
26.16 0 0
26.24 0 0
26.32 0 0
26.4 0 0
26.48 0 0
26.56 0 0
26.64 0 0
26.72 0 0
26.8 0 0
26.88 0 0
26.96 0 0
27.04 0 0
27.12 0 0
27.2 0 0
27.28 0 0
27.36 0 0
27.44 0 0
27.52 0 0
27.6 0 0
27.68 0 0
27.76 0 0
27.84 0 0
27.92 0 0
28 0 0
28.08 0 0
28.16 0 0
28.24 0 0
28.32 0 0
28.4 0 0
28.48 0 0
28.56 0 0
28.64 0 0
28.72 0 0
28.8 0 0
28.88 0 0
28.96 0 0
29.04 0 0
29.12 0 0
29.2 0 0
29.28 0 0
29.36 0 0
29.44 0 0
29.52 0 0
29.6 0 0
29.68 0 0
29.76 0 0
29.84 0 0
29.92 0 0
30 0 0
30.08 0 0
30.16 0 0
30.24 0 0
30.32 0 0
30.4 0 0
30.48 0 0
30.56 0 0
30.64 0 0
30.72 0 0
30.8 0 0
30.88 0 0
30.96 0 0
31.04 0 0
31.12 0 0
31.2 0 0
31.28 0 0
31.36 0 0
31.44 0 0
31.52 0 0
31.6 0 0
31.68 0 0
31.76 0 0
31.84 0 0
31.92 0 0
0 0.005 0
0.08 0.005 0
0.16 0.005 0
0.24 0.005 0
0.32 0.005 0
0.4 0.005 0
0.48 0.005 0
0.56 0.005 0
0.64 0.005 0
0.72 0.005 0
0.8 0.005 0
0.88 0.005 0
0.96 0.005 0
1.04 0.005 0
1.12 0.005 0
1.2 0.005 0
1.28 0.005 0
1.36 0.005 0
1.44 0.005 0
1.52 0.005 0
1.6 0.005 0
1.68 0.005 0
1.76 0.005 0
1.84 0.005 0
1.92 0.005 0
2 0.005 0
2.08 0.005 0
2.16 0.005 0
2.24 0.005 0
2.32 0.005 0
2.4 0.005 0
2.48 0.005 0
2.56 0.005 0
2.64 0.005 0
2.72 0.005 0
2.8 0.005 0
2.88 0.005 0
2.96 0.005 0
3.04 0.005 0
3.12 0.005 0
3.2 0.005 0
3.28 0.005 0
3.36 0.005 0
3.44 0.005 0
3.52 0.005 0
3.6 0.005 0
3.68 0.005 0
3.76 0.005 0
3.84 0.005 0
3.92 0.005 0
4 0.005 0
4.08 0.005 0
4.16 0.005 0
4.24 0.005 0
4.32 0.005 0
4.4 0.005 0
4.48 0.005 0
4.56 0.005 0
4.64 0.005 0
4.72 0.005 0
4.8 0.005 0
4.88 0.005 0
4.96 0.005 0
5.04 0.005 0
5.12 0.005 0
5.2 0.005 0
5.28 0.005 0
5.36 0.005 0
5.44 0.005 0
5.52 0.005 0
5.6 0.005 0
5.68 0.005 0
5.76 0.005 0
5.84 0.005 0
5.92 0.005 0
6 0.005 0
6.08 0.005 0
6.16 0.005 0
6.24 0.005 0
6.32 0.005 0
6.4 0.005 0
6.48 0.005 0
6.56 0.005 0
6.64 0.005 0
6.72 0.005 0
6.8 0.005 0
6.88 0.005 0
6.96 0.005 0
7.04 0.005 0
7.12 0.005 0
7.2 0.005 0
7.28 0.005 0
7.36 0.005 0
7.44 0.005 0
7.52 0.005 0
7.6 0.005 0
7.68 0.005 0
7.76 0.005 0
7.84 0.005 0
7.92 0.005 0
8 0.005 0
8.08 0.005 0
8.16 0.005 0
8.24 0.005 0
8.32 0.005 0
8.4 0.005 0
8.48 0.005 0
8.56 0.005 0
8.64 0.005 0
8.72 0.005 0
8.8 0.005 0
8.88 0.005 0
8.96 0.005 0
9.04 0.005 0
9.12 0.005 0
9.2 0.005 0
9.28 0.005 0
9.36 0.005 0
9.44 0.005 0
9.52 0.005 0
9.6 0.005 0
9.68 0.005 0
9.76 0.005 0
9.84 0.005 0
9.92 0.005 0
10 0.005 0
10.08 0.005 0
10.16 0.005 0
10.24 0.005 0
10.32 0.005 0
10.4 0.005 0
10.48 0.005 0
10.56 0.005 0
10.64 0.005 0
10.72 0.005 0
10.8 0.005 0
10.88 0.005 0
10.96 0.005 0
11.04 0.005 0
11.12 0.005 0
11.2 0.005 0
11.28 0.005 0
11.36 0.005 0
11.44 0.005 0
11.52 0.005 0
11.6 0.005 0
11.68 0.005 0
11.76 0.005 0
11.84 0.005 0
11.92 0.005 0
12 0.005 0
12.08 0.005 0
12.16 0.005 0
12.24 0.005 0
12.32 0.005 0
12.4 0.005 0
12.48 0.005 0
12.56 0.005 0
12.64 0.005 0
12.72 0.005 0
12.8 0.005 0
12.88 0.005 0
12.96 0.005 0
13.04 0.005 0
13.12 0.005 0
13.2 0.005 0
13.28 0.005 0
13.36 0.005 0
13.44 0.005 0
13.52 0.005 0
13.6 0.005 0
13.68 0.005 0
13.76 0.005 0
13.84 0.005 0
13.92 0.005 0
14 0.005 0
14.08 0.005 0
14.16 0.005 0
14.24 0.005 0
14.32 0.005 0
14.4 0.005 0
14.48 0.005 0
14.56 0.005 0
14.64 0.005 0
14.72 0.005 0
14.8 0.005 0
14.88 0.005 0
14.96 0.005 0
15.04 0.005 0
15.12 0.005 0
15.2 0.005 0
15.28 0.005 0
15.36 0.005 0
15.44 0.005 0
15.52 0.005 0
15.6 0.005 0
15.68 0.005 0
15.76 0.005 0
15.84 0.005 0
15.92 0.005 0
16 0.005 0
16.08 0.005 0
16.16 0.005 0
16.24 0.005 0
16.32 0.005 0
16.4 0.005 0
16.48 0.005 0
16.56 0.005 0
16.64 0.005 0
16.72 0.005 0
16.8 0.005 0
16.88 0.005 0
16.96 0.005 0
17.04 0.005 0
17.12 0.005 0
17.2 0.005 0
17.28 0.005 0
17.36 0.005 0
17.44 0.005 0
17.52 0.005 0
17.6 0.005 0
17.68 0.005 0
17.76 0.005 0
17.84 0.005 0
17.92 0.005 0
18 0.005 0
18.08 0.005 0
18.16 0.005 0
18.24 0.005 0
18.32 0.005 0
18.4 0.005 0
18.48 0.005 0
18.56 0.005 0
18.64 0.005 0
18.72 0.005 0
18.8 0.005 0
18.88 0.005 0
18.96 0.005 0
19.04 0.005 0
19.12 0.005 0
19.2 0.005 0
19.28 0.005 0
19.36 0.005 0
19.44 0.005 0
19.52 0.005 0
19.6 0.005 0
19.68 0.005 0
19.76 0.005 0
19.84 0.005 0
19.92 0.005 0
20 0.005 0
20.08 0.005 0
20.16 0.005 0
20.24 0.005 0
20.32 0.005 0
20.4 0.005 0
20.48 0.005 0
20.56 0.005 0
20.64 0.005 0
20.72 0.005 0
20.8 0.005 0
20.88 0.005 0
20.96 0.005 0
21.04 0.005 0
21.12 0.005 0
21.2 0.005 0
21.28 0.005 0
21.36 0.005 0
21.44 0.005 0
21.52 0.005 0
21.6 0.005 0
21.68 0.005 0
21.76 0.005 0
21.84 0.005 0
21.92 0.005 0
22 0.005 0
22.08 0.005 0
22.16 0.005 0
22.24 0.005 0
22.32 0.005 0
22.4 0.005 0
22.48 0.005 0
22.56 0.005 0
22.64 0.005 0
22.72 0.005 0
22.8 0.005 0
22.88 0.005 0
22.96 0.005 0
23.04 0.005 0
23.12 0.005 0
23.2 0.005 0
23.28 0.005 0
23.36 0.005 0
23.44 0.005 0
23.52 0.005 0
23.6 0.005 0
23.68 0.005 0
23.76 0.005 0
23.84 0.005 0
23.92 0.005 0
24 0.005 0
24.08 0.005 0
24.16 0.005 0
24.24 0.005 0
24.32 0.005 0
24.4 0.005 0
24.48 0.005 0
24.56 0.005 0
24.64 0.005 0
24.72 0.005 0
24.8 0.005 0
24.88 0.005 0
24.96 0.005 0
25.04 0.005 0
25.12 0.005 0
25.2 0.005 0
25.28 0.005 0
25.36 0.005 0
25.44 0.005 0
25.52 0.005 0
25.6 0.005 0
25.68 0.005 0
25.76 0.005 0
25.84 0.005 0
25.92 0.005 0
26 0.005 0
26.08 0.005 0
26.16 0.005 0
26.24 0.005 0
26.32 0.005 0
26.4 0.005 0
26.48 0.005 0
26.56 0.005 0
26.64 0.005 0
26.72 0.005 0
26.8 0.005 0
26.88 0.005 0
26.96 0.005 0
27.04 0.005 0
27.12 0.005 0
27.2 0.005 0
27.28 0.005 0
27.36 0.005 0
27.44 0.005 0
27.52 0.005 0
27.6 0.005 0
27.68 0.005 0
27.76 0.005 0
27.84 0.005 0
27.92 0.005 0
28 0.005 0
28.08 0.005 0
28.16 0.005 0
28.24 0.005 0
28.32 0.005 0
28.4 0.005 0
28.48 0.005 0
28.56 0.005 0
28.64 0.005 0
28.72 0.005 0
28.8 0.005 0
28.88 0.005 0
28.96 0.005 0
29.04 0.005 0
29.12 0.005 0
29.2 0.005 0
29.28 0.005 0
29.36 0.005 0
29.44 0.005 0
29.52 0.005 0
29.6 0.005 0
29.68 0.005 0
29.76 0.005 0
29.84 0.005 0
29.92 0.005 0
30 0.005 0
30.08 0.005 0
30.16 0.005 0
30.24 0.005 0
30.32 0.005 0
30.4 0.005 0
30.48 0.005 0
30.56 0.005 0
30.64 0.005 0
30.72 0.005 0
30.8 0.005 0
30.88 0.005 0
30.96 0.005 0
31.04 0.005 0
31.12 0.005 0
31.2 0.005 0
31.28 0.005 0
31.36 0.005 0
31.44 0.005 0
31.52 0.005 0
31.6 0.005 0
31.68 0.005 0
31.76 0.005 0
31.84 0.005 0
31.92 0.005 0
0 0.01 0
0.08 0.01 0
0.16 0.01 0
0.24 0.01 0
0.32 0.01 0
0.4 0.01 0
0.48 0.01 0
0.56 0.01 0
0.64 0.01 0
0.72 0.01 0
0.8 0.01 0
0.88 0.01 0
0.96 0.01 0
1.04 0.01 0
1.12 0.01 0
1.2 0.01 0
1.28 0.01 0
1.36 0.01 0
1.44 0.01 0
1.52 0.01 0
1.6 0.01 0
1.68 0.01 0
1.76 0.01 0
1.84 0.01 0
1.92 0.01 0
2 0.01 0
2.08 0.01 0
2.16 0.01 0
2.24 0.01 0
2.32 0.01 0
2.4 0.01 0
2.48 0.01 0
2.56 0.01 0
2.64 0.01 0
2.72 0.01 0
2.8 0.01 0
2.88 0.01 0
2.96 0.01 0
3.04 0.01 0
3.12 0.01 0
3.2 0.01 0
3.28 0.01 0
3.36 0.01 0
3.44 0.01 0
3.52 0.01 0
3.6 0.01 0
3.68 0.01 0
3.76 0.01 0
3.84 0.01 0
3.92 0.01 0
4 0.01 0
4.08 0.01 0
4.16 0.01 0
4.24 0.01 0
4.32 0.01 0
4.4 0.01 0
4.48 0.01 0
4.56 0.01 0
4.64 0.01 0
4.72 0.01 0
4.8 0.01 0
4.88 0.01 0
4.96 0.01 0
5.04 0.01 0
5.12 0.01 0
[...]
POINT_DATA 80000

SCALARS u float 1
LOOKUP_TABLE default
0
-0.1316625604
-0.06826904008
-0.05229576416
-0.04441959991
-0.03957645929
-0.03625933734
-0.0338322703
-0.03197226614
-0.0304955643
-0.02928947302
-0.02828115172
-0.02742163771
-0.02667697902
-0.02602300596
-0.02544210625
-0.02492116735
-0.02445022834
-0.02402157761
-0.02362913794
-0.02326804042
-0.0229343247
-0.02262472501
-0.02233651497
-0.02206739351
-0.02181539967
-0.02157884801
-0.02135627899
-0.02114642028
-0.02094815621
-0.02076050326
-0.02058259039
-0.02041364277
-0.02025296853
-0.02009994759
-0.01995402241
-0.01981469011
-0.01968149579
-0.01955402688
-0.01943190817
-0.01931479768
-0.01920238297
-0.01909437795
-0.01899052017
-0.01889056834
-0.01879430026
-0.01870151091
-0.0186120108
-0.01852562454
-0.01844218952
-0.01836155472
-0.01828357976
-0.01820813389
-0.01813509523
-0.01806434998
-0.01799579179
-0.01792932112
-0.01786484472
-0.01780227516
-0.01774153031
-0.01768253301
-0.01762521065
-0.01756949486
-0.01751532119
-0.01746262883
-0.01741136037
-0.01736146152
-0.01731288096
-0.01726557006
-0.01721948277
-0.01717457541
-0.01713080652
-0.01708813673
-0.01704652861
-0.01700594655
-0.01696635667
-0.01692772668
-0.01689002578
-0.01685322461
-0.01681729514
-0.01678221058
-0.01674794532
-0.01671447486
-0.01668177576
-0.01664982554
-0.01661860267
-0.0165880865
-0.01655825721
-0.01652909576
-0.01650058385
-0.0164727039
-0.01644543899
-0.01641877283
-0.01639268972
-0.01636717455
-0.01634221273
-0.0163177902
-0.01629389338
-0.01627050914
-0.01624762483
-0.01622522819
-0.01620330736
-0.01618185088
-0.01616084765
-0.0161402869
-0.01612015823
-0.01610045152
-0.01608115697
-0.01606226509
-0.01604376664
-0.01602565265
-0.01600791444
-0.01599054352
-0.0159735317
-0.01595687096
-0.01594055354
-0.01592457186
-0.01590891856
-0.01589358646
-0.01587856858
-0.01586385812
-0.01584944845
-0.0158353331
-0.01582150577
-0.01580796031
-0.01579469074
-0.0157816912
-0.01576895599
-0.01575647953
-0.0157442564
-0.01573228128
-0.01572054899
-0.01570905446
-0.01569779274
-0.01568675901
-0.01567594854
-0.0156653567
-0.015654979
-0.01564481101
-0.01563484842
-0.01562508701
-0.01561552266
-0.01560615134
-0.01559696908
-0.01558797204
-0.01557915644
-0.01557051856
-0.01556205481
-0.01555376163
-0.01554563557
-0.01553767323
-0.01552987128
-0.01552222648
-0.01551473565
-0.01550739567
-0.01550020349
-0.01549315613
-0.01548625065
-0.01547948419
-0.01547285395
-0.01546635718
-0.01545999119
-0.01545375335
-0.01544764107
-0.01544165182
-0.01543578312
-0.01543003256
-0.01542439775
-0.01541887637
-0.01541346613
-0.0154081648
-0.01540297019
-0.01539788015
-0.01539289259
-0.01538800544
-0.01538321668
-0.01537852435
-0.01537392649
-0.01536942122
-0.01536500668
-0.01536068104
-0.01535644251
-0.01535228935
-0.01534821984
-0.01534423231
-0.0153403251
-0.0153364966
-0.01533274524
-0.01532906946
-0.01532546774
-0.0153219386
-0.01531848058
-0.01531509225
-0.01531177221
-0.01530851909
-0.01530533155
-0.01530220826
-0.01529914794
-0.01529614932
-0.01529321116
-0.01529033225
-0.01528751139
-0.01528474742
-0.01528203919
-0.01527938559
-0.01527678551
-0.01527423789
-0.01527174166
-0.01526929579
-0.01526689926
-0.0152645511
-0.01526225032
-0.01525999596
-0.01525778711
-0.01525562283
-0.01525350224
-0.01525142445
-0.01524938861
-0.01524739386
-0.01524543938
-0.01524352437
-0.01524164802
-0.01523980956
-0.01523800822
-0.01523624326
-0.01523451395
-0.01523281956
-0.01523115939
-0.01522953276
-0.01522793898
-0.0152263774
-0.01522484737
-0.01522334824
-0.01522187941
-0.01522044025
-0.01521903017
-0.01521764859
-0.01521629492
-0.01521496861
-0.0152136691
-0.01521239586
-0.01521114835
-0.01520992605
-0.01520872846
-0.01520755508
-0.01520640542
-0.015205279
-0.01520417535
-0.01520309401
-0.01520203453
-0.01520099648
-0.01519997941
-0.01519898291
-0.01519800656
-0.01519704995
-0.01519611269
-0.01519519438
-0.01519429464
-0.01519341309
-0.01519254938
-0.01519170313
-0.01519087401
-0.01519006165
-0.01518926572
-0.01518848589
-0.01518772184
-0.01518697324
-0.01518623978
-0.01518552117
-0.01518481709
-0.01518412725
-0.01518345137
-0.01518278917
-0.01518214036
-0.01518150468
-0.01518088187
-0.01518027165
-0.01517967378
-0.01517908801
-0.01517851409
-0.01517795179
-0.01517740086
-0.01517686109
-0.01517633223
-0.01517581408
-0.01517530642
-0.01517480903
-0.0151743217
-0.01517384424
-0.01517337644
-0.01517291811
-0.01517246906
-0.01517202909
-0.01517159803
-0.01517117569
-0.01517076191
-0.01517035649
-0.01516995929
-0.01516957012
-0.01516918883
-0.01516881526
-0.01516844926
-0.01516809066
-0.01516773932
-0.01516739509
-0.01516705783
-0.0151667274
-0.01516640366
-0.01516608647
-0.0151657757
-0.01516547123
-0.01516517291
-0.01516488064
-0.01516459429
-0.01516431373
-0.01516403885
-0.01516376954
-0.01516350568
-0.01516324716
-0.01516299388
-0.01516274572
-0.01516250259
-0.01516226439
-0.015162031
-0.01516180234
-0.01516157831
-0.01516135882
-0.01516114377
-0.01516093307
-0.01516072664
-0.0151605244
-0.01516032624
-0.0151601321
-0.01515994189
-0.01515975553
-0.01515957295
-0.01515939406
-0.0151592188
-0.01515904708
-0.01515887884
-0.01515871401
-0.01515855251
-0.01515839429
-0.01515823927
-0.01515808739
-0.01515793858
-0.0151577928
-0.01515764995
-0.01515751001
-0.01515737289
-0.01515723856
-0.01515710694
-0.015156978
-0.01515685165
-0.01515672788
-0.0151566066
-0.0151564878
-0.01515637137
-0.01515625734
-0.01515614557
-0.01515603612
-0.01515592882
-0.01515582377
-0.01515572076
-0.01515561994
-0.01515552104
-0.01515542428
-0.01515532933
-0.01515523647
-0.0151551453
-0.0151550562
-0.01515496864
-0.01515488317
-0.01515479906
-0.01515471708
-0.01515463627
-0.01515455767
-0.01515448
-0.01515440468
-0.01515432999
-0.01515425786
-0.015154186
-0.01515411703
-0.01515404783
-0.01515398202
-0.01515391537
-0.01515385284
-0.01515378872
-0.01515372983
-0.01515366851
-0.01515361417
-0.01515355673
-0.0151535091
-0.01515345867
-0.01515342277
-0.01515338722
-0.01515337253
-0.01515336684
-0.01515336684
-0.01515336684
1
0.1316625604
0.06826904008
0.05229576416
0.04441959991
0.03957645929
0.03625933734
0.0338322703
0.03197226614
0.0304955643
0.02928947302
0.02828115172
0.02742163771
0.02667697902
0.02602300596
0.02544210625
0.02492116735
0.02445022834
0.02402157761
0.02362913794
0.02326804042
0.0229343247
0.02262472501
0.02233651497
0.02206739351
0.02181539967
0.02157884801
0.02135627899
0.02114642028
0.02094815621
0.02076050326
0.02058259039
0.02041364277
0.02025296853
0.02009994759
0.01995402241
0.01981469011
0.01968149579
0.01955402688
0.01943190817
0.01931479768
0.01920238297
0.01909437795
0.01899052017
0.01889056834
0.01879430026
0.01870151091
0.0186120108
0.01852562454
0.01844218952
0.01836155472
0.01828357976
0.01820813389
0.01813509523
0.01806434998
0.01799579179
0.01792932112
0.01786484472
0.01780227516
0.01774153031
0.01768253301
0.01762521065
0.01756949486
0.01751532119
0.01746262883
0.01741136037
0.01736146152
0.01731288096
0.01726557006
0.01721948277
0.01717457541
0.01713080652
0.01708813673
0.01704652861
0.01700594655
0.01696635667
0.01692772668
0.01689002578
0.01685322461
0.01681729514
0.01678221058
0.01674794532
0.01671447486
0.01668177576
0.01664982554
0.01661860267
0.0165880865
0.01655825721
0.01652909576
0.01650058385
0.0164727039
0.01644543899
0.01641877283
0.01639268972
0.01636717455
0.01634221273
0.0163177902
0.01629389338
0.01627050914
0.01624762483
0.01622522819
0.01620330736
0.01618185088
0.01616084765
0.0161402869
0.01612015823
0.01610045152
0.01608115697
0.01606226509
0.01604376664
0.01602565265
0.01600791444
0.01599054352
0.0159735317
0.01595687096
0.01594055354
0.01592457186
0.01590891856
0.01589358646
0.01587856858
0.01586385812
0.01584944845
0.0158353331
0.01582150577
0.01580796031
0.01579469074
0.0157816912
0.01576895599
0.01575647953
0.0157442564
0.01573228128
0.01572054899
0.01570905446
0.01569779274
0.01568675901
0.01567594854
0.0156653567
0.015654979
0.01564481101
0.01563484842
0.01562508701
0.01561552266
0.01560615134
0.01559696908
0.01558797204
0.01557915644
0.01557051856
0.01556205481
0.01555376163
0.01554563557
0.01553767323
0.01552987128
0.01552222648
0.01551473565
0.01550739567
0.01550020349
0.01549315613
0.01548625065
0.01547948419
0.01547285395
0.01546635718
0.01545999119
0.01545375335
0.01544764107
0.01544165182
0.01543578312
0.01543003256
0.01542439775
0.01541887637
0.01541346613
0.0154081648
0.01540297019
0.01539788015
0.01539289259
0.01538800544
0.01538321668
0.01537852435
0.01537392649
0.01536942122
0.01536500668
0.01536068104
0.01535644251
0.01535228935
0.01534821984
0.01534423231
0.0153403251
0.0153364966
0.01533274524
0.01532906946
0.01532546774
0.0153219386
0.01531848058
0.01531509225
0.01531177221
0.01530851909
0.01530533155
0.01530220826
0.01529914794
0.01529614932
0.01529321116
0.01529033225
0.01528751139
0.01528474742
0.01528203919
0.01527938559
0.01527678551
0.01527423789
0.01527174166
0.01526929579
0.01526689926
0.0152645511
0.01526225032
0.01525999596
0.01525778711
0.01525562283
0.01525350224
0.01525142445
0.01524938861
0.01524739386
0.01524543938
0.01524352437
0.01524164802
0.01523980956
0.01523800822
0.01523624326
0.01523451395
0.01523281956
0.01523115939
0.01522953276
0.01522793898
0.0152263774
0.01522484737
0.01522334824
0.01522187941
0.01522044025
0.01521903017
0.01521764859
0.01521629492
0.01521496861
0.0152136691
0.01521239586
0.01521114835
0.01520992605
0.01520872846
0.01520755508
0.01520640542
0.015205279
0.01520417535
0.01520309401
0.01520203453
0.01520099648
0.01519997941
0.01519898291
0.01519800656
0.01519704995
0.01519611269
0.01519519438
0.01519429464
0.01519341309
0.01519254938
0.01519170313
0.01519087401
0.01519006165
0.01518926572
0.01518848589
0.01518772184
0.01518697324
0.01518623978
0.01518552117
0.01518481709
0.01518412725
0.01518345137
0.01518278917
0.01518214036
0.01518150468
0.01518088187
0.01518027165
0.01517967378
0.01517908801
0.01517851409
0.01517795179
0.01517740086
0.01517686109
0.01517633223
0.01517581408
0.01517530642
0.01517480903
0.0151743217
0.01517384424
0.01517337644
0.01517291811
0.01517246906
0.01517202909
0.01517159803
0.01517117569
0.01517076191
0.01517035649
0.01516995929
0.01516957012
0.01516918883
0.01516881526
0.01516844926
0.01516809066
0.01516773932
0.01516739509
0.01516705783
0.0151667274
0.01516640366
0.01516608647
0.0151657757
0.01516547123
0.01516517291
0.01516488064
0.01516459429
0.01516431373
0.01516403885
0.01516376954
0.01516350568
0.01516324716
0.01516299388
0.01516274572
0.01516250259
0.01516226439
0.015162031
0.01516180234
0.01516157831
0.01516135882
0.01516114377
0.01516093307
0.01516072664
0.0151605244
0.01516032624
0.0151601321
0.01515994189
0.01515975553
0.01515957295
0.01515939406
0.0151592188
0.01515904708
0.01515887884
0.01515871401
0.01515855251
0.01515839429
0.01515823927
0.01515808739
0.01515793858
0.0151577928
0.01515764995
0.01515751001
0.01515737289
0.01515723856
0.01515710694
0.015156978
0.01515685165
0.01515672788
0.0151566066
0.0151564878
0.01515637137
0.01515625734
0.01515614557
0.01515603612
0.01515592882
0.01515582377
0.01515572076
0.01515561994
0.01515552104
0.01515542428
0.01515532933
0.01515523647
0.0151551453
0.0151550562
0.01515496864
0.01515488317
0.01515479906
0.01515471708
0.01515463627
0.01515455767
0.01515448
0.01515440468
0.01515432999
0.01515425786
0.015154186
0.01515411703
0.01515404783
0.01515398202
0.01515391537
0.01515385284
0.01515378872
0.01515372983
0.01515366851
0.01515361417
0.01515355673
0.0151535091
0.01515345867
0.01515342277
0.01515338722
0.01515337253
0.01515336684
0.01515336684
0.01515336684
1
0.3448836491
0.2006672453
0.1549666291
0.1318938664
0.1175978189
0.1077670841
0.1005571198
0.09502405206
0.09062809891
0.0870369002
0.08403490183
0.08147678897
0.07926154562
0.07731711113
0.0755908889
0.07404367262
0.0726456558
0.07137375376
0.07020977348
0.06913914272
0.06815001401
0.06723262356
0.066378826
0.06558175168
0.06483555062
0.06413519842
0.06347634701
0.0628552084
0.0622684628
0.06171318529
0.06118678645
0.06068696394
0.06021166257
0.05975904105
0.05932744424
0.05891537963
0.05852149746
0.05814457371
0.05778349556
0.05743724877
0.0571049069
0.0567856218
0.05647861543
0.05618317261
0.05589863478
0.05562439436
0.05535988989
0.05510460167
0.0548580479
0.05461978125
0.0543893858
0.05416647429
0.05395068568
0.05374168296
0.05353915111
0.05334279538
0.05315233964
0.05296752491
0.05278810805
0.05261386056
0.05244456747
0.05228002633
0.05212004632
0.05196444743
0.05181305965
0.0516657223
0.05152228339
0.05138259902
0.05124653285
0.05111395556
0.05098474445
0.05085878295
0.05073596029
0.05061617108
0.05049931499
0.05038529645
0.05027402435
0.05016541176
0.05005937571
0.04995583691
0.04985471958
0.04975595121
0.04965946239
0.04956518665
0.04947306026
0.0493830221
0.0492950135
0.04920897814
0.04912486187
0.04904261267
0.04896218045
0.04888351701
0.04880657593
0.04873131247
0.04865768348
0.04858564736
0.04851516392
0.04844619436
0.0483787012
0.04831264818
0.04824800026
0.0481847235
0.04812278507
0.04806215315
0.04800279693
0.04794468651
0.04788779293
0.04783208806
0.04777754462
0.0477241361
0.04767183676
0.04762062161
0.04757046631
0.04752134725
0.04747324141
0.04742612644
0.04737998055
0.04733478254
0.04729051177
0.04724714812
0.04720467199
0.04716306429
0.04712230639
0.04708238013
0.0470432678
0.04700495212
0.04696741623
0.04693064367
0.04689461838
0.04685932468
0.04682474725
0.04679087112
0.04675768169
0.04672516467
0.04669330612
0.0466620924
0.04663151017
0.04660154642
0.04657218839
0.04654342364
0.04651523998
0.04648762549
0.04646056852
0.04643405767
0.04640808178
0.04638262994
0.04635769147
0.04633325591
0.04630931304
0.04628585284
0.04626286552
0.04624034148
0.04621827133
0.04619664587
0.0461754561
0.04615469321
0.04613434856
0.04611441371
0.04609488037
0.04607574044
0.04605698598
0.04603860922
0.04602060254
0.04600295848
0.04598566973
0.04596872914
0.04595212969
0.04593586452
0.04591992689
0.04590431023
0.04588900806
0.04587401407
0.04585932205
0.04584492593
0.04583081976
0.04581699772
0.04580345408
0.04579018326
0.04577717977
0.04576443824
0.0457519534
0.04573972009
0.04572773326
0.04571598796
0.04570447933
0.04569320262
0.04568215316
0.04567132639
0.04566071783
0.04565032311
0.04564013791
0.04563015804
0.04562037935
0.04561079782
0.04560140948
0.04559221043
0.04558319689
0.04557436512
0.04556571146
0.04555723233
0.04554892423
0.04554078371
0.04553280741
0.04552499202
0.04551733431
0.0455098311
0.04550247929
0.04549527583
0.04548821773
0.04548130208
0.045474526
0.04546788669
0.04546138139
0.04545500741
0.04544876209
0.04544264287
0.04543664718
0.04543077256
0.04542501655
0.04541937677
0.04541385088
0.04540843659
0.04540313164
0.04539793384
0.04539284103
0.04538785108
0.04538296194
0.04537817156
0.04537347796
0.04536887918
0.04536437332
0.0453599585
0.04535563289
0.04535139468
0.04534724212
0.04534317348
0.04533918706
0.04533528121
0.04533145431
0.04532770475
0.04532403099
0.04532043148
0.04531690474
0.04531344929
0.0453100637
0.04530674656
0.04530349648
0.04530031211
0.04529719213
0.04529413524
0.04529114016
0.04528820564
0.04528533046
0.04528251343
0.04527975337
0.04527704913
0.04527439957
0.04527180361
0.04526926016
0.04526676814
0.04526432654
0.04526193432
0.04525959049
0.04525729408
0.04525504412
0.04525283967
0.04525067983
0.04524856368
0.04524649034
0.04524445895
0.04524246865
0.04524051863
0.04523860806
0.04523673616
0.04523490212
0.0452331052
0.04523134464
0.04522961971
0.04522792968
0.04522627385
0.04522465153
0.04522306204
0.04522150472
0.04521997891
0.04521848398
0.04521701931
0.04521558429
0.0452141783
0.04521280078
0.04521145113
0.0452101288
0.04520883324
0.0452075639
0.04520632025
0.04520510177
0.04520390796
0.04520273832
0.04520159235
0.04520046958
0.04519936953
0.04519829176
0.0451972358
0.04519620122
0.04519518758
0.04519419447
0.04519322146
0.04519226814
0.04519133413
0.04519041902
0.04518952244
0.04518864402
0.04518778338
0.04518694016
0.04518611401
0.04518530459
0.04518451156
0.04518373459
0.04518297334
0.04518222751
0.04518149678
0.04518078084
0.04518007941
0.04517939217
0.04517871885
0.04517805916
0.04517741283
0.04517677959
0.04517615917
0.04517555131
0.04517495576
0.04517437227
0.04517380059
0.04517324049
0.04517269173
0.04517215409
0.04517162733
0.04517111124
0.0451706056
0.04517011019
0.04516962483
0.04516914928
0.04516868338
0.04516822689
0.04516777967
0.04516734149
0.04516691219
0.04516649158
0.0451660795
0.04516567574
0.04516528019
0.04516489261
0.04516451293
0.04516414088
0.04516377643
0.04516341929
0.04516306946
0.04516272662
0.04516239084
0.04516206173
0.04516173943
0.04516142349
0.04516111414
0.04516081084
0.04516051393
0.04516022275
0.0451599378
0.04515965823
0.04515938477
0.04515911633
0.04515885394
0.04515859615
0.04515834441
0.0451580968
0.04515785534
0.04515761746
0.04515738593
0.04515715731
0.04515693541
0.04515671559
0.04515650309
0.04515629161
0.04515608834
0.04515588476
0.04515569075
0.04515549472
0.04515531027
0.04515512175
0.04515494783
0.04515476761
0.04515460677
0.04515443791
0.04515429631
0.0451541477
0.0451540396
0.04515393353
0.04515388626
0.04515386502
0.04515386502
0.04515386502
1
0.5187651867
0.3274011946
0.2553467807
0.2178477674
0.1944026528
0.1782107415
0.1663061343
0.1571570571
0.1498824532
0.1439375554
0.1389678787
0.1347337921
0.131068333
0.1278521719
0.124998081
0.1224409665
0.120131304
0.1180307216
0.1161089747
0.1143418408
0.1127096324
0.1111961316
0.1097878156
0.1084732858
0.1072428408
0.1060881531
0.1050020197
0.1039781683
0.1030111045
0.1020959891
0.1012285396
0.1004049493
0.09962182143
0.09887611312
0.09816508989
0.09748628639
0.09683747348
0.09621662996
0.09562191851
0.09505166481
0.09450433962
0.09397854309
0.09347299119
0.09298650378
0.09251799417
0.0920664599
0.09163097468
0.09121068114
0.0908047845
0.09041254686
0.0900332822
0.08966635178
0.08931116013
0.08896715143
0.08863380619
0.0883106383
0.08799719243
0.0876930415
0.08739778461
0.08711104495
0.08683246808
0.08656172019
0.08629848668
0.08604247072
0.08579339203
0.0855509857
0.08531500114
0.08508520113
0.08486136087
0.08464326719
0.08443071781
0.08422352056
0.08402149282
0.08382446086
0.08363225931
0.08344473061
0.08326172458
0.08308309792
0.08290871386
0.08273844172
0.08257215656
0.08240973889
0.0822510743
0.08209605321
0.08194457058
0.08179652568
0.08165182181
0.08151036614
0.08137206945
0.08123684595
0.08110461313
0.08097529156
0.08084880471
0.08072507886
0.08060404293
0.08048562831
0.08036976881
0.0802564005
0.08014546159
0.08003689237
0.07993063506
0.07982663379
0.07972483443
0.07962518458
0.07952763345
0.07943213182
0.07933863194
0.0792470875
0.07915745353
0.0790696864
0.07898374371
0.07889958425
0.078817168
0.07873645601
0.07865741041
0.07857999436
0.078504172
0.07842990841
0.0783571696
0.07828592245
0.07821613468
0.07814777485
0.0780808123
0.07801521712
0.07795096017
0.07788801299
0.07782634782
0.07776593759
0.07770675584
0.07764877676
0.07759197515
0.07753632637
0.07748180638
0.07742839168
0.07737605931
0.07732478683
0.07727455231
0.0772253343
0.07717711185
0.07712986446
0.07708357208
0.07703821511
0.07699377438
0.07695023113
0.07690756701
0.07686576407
0.07682480473
0.0767846718
0.07674534847
0.07670681825
0.07666906505
0.07663207306
0.07659582686
0.07656031132
0.07652551163
0.0764914133
0.07645800214
0.07642526425
0.07639318601
0.07636175411
0.07633095549
0.07630077735
0.0762712072
0.07624223275
0.076213842
0.07618602318
0.07615876476
0.07613205546
0.07610588422
0.0760802402
0.07605511278
0.07603049157
0.07600636638
0.07598272723
0.07595956433
0.07593686812
0.0759146292
0.07589283837
0.07587148662
0.07585056512
0.07583006523
0.07580997846
0.0757902965
0.07577101123
0.07575211465
0.07573359896
0.0757154565
0.07569767977
0.07568026141
0.07566319422
0.07564647113
0.07563008523
0.07561402974
0.07559829802
0.07558288355
0.07556777995
0.07555298098
0.0755384805
0.07552427252
0.07551035115
0.07549671062
0.07548334529
0.07547024962
0.07545741818
0.07544484566
0.07543252685
0.07542045665
0.07540863004
0.07539704213
0.07538568812
0.07537456329
0.07536366303