# vtk DataFile Version 2.0
FlowField
ASCII
DATASET STRUCTURED_GRID
DIMENSIONS 400 1 200
POINTS 80000 float
0 0 0
0.08 0 0
0.16 0 0
0.24 0 0
0.32 0 0
0.4 0 0
0.48 0 0
0.56 0 0
0.64 0 0
0.72 0 0
0.8 0 0
0.88 0 0
0.96 0 0
1.04 0 0
1.12 0 0
1.2 0 0
1.28 0 0
1.36 0 0
1.44 0 0
1.52 0 0
1.6 0 0
1.68 0 0
1.76 0 0
1.84 0 0
1.92 0 0
2 0 0
2.08 0 0
2.16 0 0
2.24 0 0
2.32 0 0
2.4 0 0
2.48 0 0
2.56 0 0
2.64 0 0
2.72 0 0
2.8 0 0
2.88 0 0
2.96 0 0
3.04 0 0
3.12 0 0
3.2 0 0
3.28 0 0
3.36 0 0
3.44 0 0
3.52 0 0
3.6 0 0
3.68 0 0
3.76 0 0
3.84 0 0
3.92 0 0
4 0 0
4.08 0 0
4.16 0 0
4.24 0 0
4.32 0 0
4.4 0 0
4.48 0 0
4.56 0 0
4.64 0 0
4.72 0 0
4.8 0 0
4.88 0 0
4.96 0 0
5.04 0 0
5.12 0 0
5.2 0 0
5.28 0 0
5.36 0 0
5.44 0 0
5.52 0 0
5.6 0 0
5.68 0 0
5.76 0 0
5.84 0 0
5.92 0 0
6 0 0
6.08 0 0
6.16 0 0
6.24 0 0
6.32 0 0
6.4 0 0
6.48 0 0
6.56 0 0
6.64 0 0
6.72 0 0
6.8 0 0
6.88 0 0
6.96 0 0
7.04 0 0
7.12 0 0
7.2 0 0
7.28 0 0
7.36 0 0
7.44 0 0
7.52 0 0
7.6 0 0
7.68 0 0
7.76 0 0
7.84 0 0
7.92 0 0
8 0 0
8.08 0 0
8.16 0 0
8.24 0 0
8.32 0 0
8.4 0 0
8.48 0 0
8.56 0 0
8.64 0 0
8.72 0 0
8.8 0 0
8.88 0 0
8.96 0 0
9.04 0 0
9.12 0 0
9.2 0 0
9.28 0 0
9.36 0 0
9.44 0 0
9.52 0 0
9.6 0 0
9.68 0 0
9.76 0 0
9.84 0 0
9.92 0 0
10 0 0
10.08 0 0
10.16 0 0
10.24 0 0
10.32 0 0
10.4 0 0
10.48 0 0
10.56 0 0
10.64 0 0
10.72 0 0
10.8 0 0
10.88 0 0
10.96 0 0
11.04 0 0
11.12 0 0
11.2 0 0
11.28 0 0
11.36 0 0
11.44 0 0
11.52 0 0
11.6 0 0
11.68 0 0
11.76 0 0
11.84 0 0
11.92 0 0
12 0 0
12.08 0 0
12.16 0 0
12.24 0 0
12.32 0 0
12.4 0 0
12.48 0 0
12.56 0 0
12.64 0 0
12.72 0 0
12.8 0 0
12.88 0 0
12.96 0 0
13.04 0 0
13.12 0 0
13.2 0 0
13.28 0 0
13.36 0 0
13.44 0 0
13.52 0 0
13.6 0 0
13.68 0 0
13.76 0 0
13.84 0 0
13.92 0 0
14 0 0
14.08 0 0
14.16 0 0
14.24 0 0
14.32 0 0
14.4 0 0
14.48 0 0
14.56 0 0
14.64 0 0
14.72 0 0
14.8 0 0
14.88 0 0
14.96 0 0
15.04 0 0
15.12 0 0
15.2 0 0
15.28 0 0
15.36 0 0
15.44 0 0
15.52 0 0
15.6 0 0
15.68 0 0
15.76 0 0
15.84 0 0
15.92 0 0
16 0 0
16.08 0 0
16.16 0 0
16.24 0 0
16.32 0 0
16.4 0 0
16.48 0 0
16.56 0 0
16.64 0 0
16.72 0 0
16.8 0 0
16.88 0 0
16.96 0 0
17.04 0 0
17.12 0 0
17.2 0 0
17.28 0 0
17.36 0 0
17.44 0 0
17.52 0 0
17.6 0 0
17.68 0 0
17.76 0 0
17.84 0 0
17.92 0 0
18 0 0
18.08 0 0
18.16 0 0
18.24 0 0
18.32 0 0
18.4 0 0
18.48 0 0
18.56 0 0
18.64 0 0
18.72 0 0
18.8 0 0
18.88 0 0
18.96 0 0
19.04 0 0
19.12 0 0
19.2 0 0
19.28 0 0
19.36 0 0
19.44 0 0
19.52 0 0
19.6 0 0
19.68 0 0
19.76 0 0
19.84 0 0
19.92 0 0
20 0 0
20.08 0 0
20.16 0 0
20.24 0 0
20.32 0 0
20.4 0 0
20.48 0 0
20.56 0 0
20.64 0 0
20.72 0 0
20.8 0 0
20.88 0 0
20.96 0 0
21.04 0 0
21.12 0 0
21.2 0 0
21.28 0 0
21.36 0 0
21.44 0 0
21.52 0 0
21.6 0 0
21.68 0 0
21.76 0 0
21.84 0 0
21.92 0 0
22 0 0
22.08 0 0
22.16 0 0
22.24 0 0
22.32 0 0
22.4 0 0
22.48 0 0
22.56 0 0
22.64 0 0
22.72 0 0
22.8 0 0
22.88 0 0
22.96 0 0
23.04 0 0
23.12 0 0
23.2 0 0
23.28 0 0
23.36 0 0
23.44 0 0
23.52 0 0
23.6 0 0
23.68 0 0
23.76 0 0
23.84 0 0
23.92 0 0
24 0 0
24.08 0 0
24.16 0 0
24.24 0 0
24.32 0 0
24.4 0 0
24.48 0 0
24.56 0 0
24.64 0 0
24.72 0 0
24.8 0 0
24.88 0 0
24.96 0 0
25.04 0 0
25.12 0 0
25.2 0 0
25.28 0 0
25.36 0 0
25.44 0 0
25.52 0 0
25.6 0 0
25.68 0 0
25.76 0 0
25.84 0 0
25.92 0 0
26 0 0
26.08 0 0
26.16 0 0
26.24 0 0
26.32 0 0
26.4 0 0
26.48 0 0
26.56 0 0
26.64 0 0
26.72 0 0
26.8 0 0
26.88 0 0
26.96 0 0
27.04 0 0
27.12 0 0
27.2 0 0
27.28 0 0
27.36 0 0
27.44 0 0
27.52 0 0
27.6 0 0
27.68 0 0
27.76 0 0
27.84 0 0
27.92 0 0
28 0 0
28.08 0 0
28.16 0 0
28.24 0 0
28.32 0 0
28.4 0 0
28.48 0 0
28.56 0 0
28.64 0 0
28.72 0 0
28.8 0 0
28.88 0 0
28.96 0 0
29.04 0 0
29.12 0 0
29.2 0 0
29.28 0 0
29.36 0 0
29.44 0 0
29.52 0 0
29.6 0 0
29.68 0 0
29.76 0 0
29.84 0 0
29.92 0 0
30 0 0
30.08 0 0
30.16 0 0
30.24 0 0
30.32 0 0
30.4 0 0
30.48 0 0
30.56 0 0
30.64 0 0
30.72 0 0
30.8 0 0
30.88 0 0
30.96 0 0
31.04 0 0
31.12 0 0
31.2 0 0
31.28 0 0
31.36 0 0
31.44 0 0
31.52 0 0
31.6 0 0
31.68 0 0
31.76 0 0
31.84 0 0
31.92 0 0
0 0.005 0
0.08 0.005 0
0.16 0.005 0
0.24 0.005 0
0.32 0.005 0
0.4 0.005 0
0.48 0.005 0
0.56 0.005 0
0.64 0.005 0
0.72 0.005 0
0.8 0.005 0
0.88 0.005 0
0.96 0.005 0
1.04 0.005 0
1.12 0.005 0
1.2 0.005 0
1.28 0.005 0
1.36 0.005 0
1.44 0.005 0
1.52 0.005 0
1.6 0.005 0
1.68 0.005 0
1.76 0.005 0
1.84 0.005 0
1.92 0.005 0
2 0.005 0
2.08 0.005 0
2.16 0.005 0
2.24 0.005 0
2.32 0.005 0
2.4 0.005 0
2.48 0.005 0
2.56 0.005 0
2.64 0.005 0
2.72 0.005 0
2.8 0.005 0
2.88 0.005 0
2.96 0.005 0
3.04 0.005 0
3.12 0.005 0
3.2 0.005 0
3.28 0.005 0
3.36 0.005 0
3.44 0.005 0
3.52 0.005 0
3.6 0.005 0
3.68 0.005 0
3.76 0.005 0
3.84 0.005 0
3.92 0.005 0
4 0.005 0
4.08 0.005 0
4.16 0.005 0
4.24 0.005 0
4.32 0.005 0
4.4 0.005 0
4.48 0.005 0
4.56 0.005 0
4.64 0.005 0
4.72 0.005 0
4.8 0.005 0
4.88 0.005 0
4.96 0.005 0
5.04 0.005 0
5.12 0.005 0
5.2 0.005 0
5.28 0.005 0
5.36 0.005 0
5.44 0.005 0
5.52 0.005 0
5.6 0.005 0
5.68 0.005 0
5.76 0.005 0
5.84 0.005 0
5.92 0.005 0
6 0.005 0
6.08 0.005 0
6.16 0.005 0
6.24 0.005 0
6.32 0.005 0
6.4 0.005 0
6.48 0.005 0
6.56 0.005 0
6.64 0.005 0
6.72 0.005 0
6.8 0.005 0
6.88 0.005 0
6.96 0.005 0
7.04 0.005 0
7.12 0.005 0
7.2 0.005 0
7.28 0.005 0
7.36 0.005 0
7.44 0.005 0
7.52 0.005 0
7.6 0.005 0
7.68 0.005 0
7.76 0.005 0
7.84 0.005 0
7.92 0.005 0
8 0.005 0
8.08 0.005 0
8.16 0.005 0
8.24 0.005 0
8.32 0.005 0
8.4 0.005 0
8.48 0.005 0
8.56 0.005 0
8.64 0.005 0
8.72 0.005 0
8.8 0.005 0
8.88 0.005 0
8.96 0.005 0
9.04 0.005 0
9.12 0.005 0
9.2 0.005 0
9.28 0.005 0
9.36 0.005 0
9.44 0.005 0
9.52 0.005 0
9.6 0.005 0
9.68 0.005 0
9.76 0.005 0
9.84 0.005 0
9.92 0.005 0
10 0.005 0
10.08 0.005 0
10.16 0.005 0
10.24 0.005 0
10.32 0.005 0
10.4 0.005 0
10.48 0.005 0
10.56 0.005 0
10.64 0.005 0
10.72 0.005 0
10.8 0.005 0
10.88 0.005 0
10.96 0.005 0
11.04 0.005 0
11.12 0.005 0
11.2 0.005 0
11.28 0.005 0
11.36 0.005 0
11.44 0.005 0
11.52 0.005 0
11.6 0.005 0
11.68 0.005 0
11.76 0.005 0
11.84 0.005 0
11.92 0.005 0
12 0.005 0
12.08 0.005 0
12.16 0.005 0
12.24 0.005 0
12.32 0.005 0
12.4 0.005 0
12.48 0.005 0
12.56 0.005 0
12.64 0.005 0
12.72 0.005 0
12.8 0.005 0
12.88 0.005 0
12.96 0.005 0
13.04 0.005 0
13.12 0.005 0
13.2 0.005 0
13.28 0.005 0
13.36 0.005 0
13.44 0.005 0
13.52 0.005 0
13.6 0.005 0
13.68 0.005 0
13.76 0.005 0
13.84 0.005 0
13.92 0.005 0
14 0.005 0
14.08 0.005 0
14.16 0.005 0
14.24 0.005 0
14.32 0.005 0
14.4 0.005 0
14.48 0.005 0
14.56 0.005 0
14.64 0.005 0
14.72 0.005 0
14.8 0.005 0
14.88 0.005 0
14.96 0.005 0
15.04 0.005 0
15.12 0.005 0
15.2 0.005 0
15.28 0.005 0
15.36 0.005 0
15.44 0.005 0
15.52 0.005 0
15.6 0.005 0
15.68 0.005 0
15.76 0.005 0
15.84 0.005 0
15.92 0.005 0
16 0.005 0
16.08 0.005 0
16.16 0.005 0
16.24 0.005 0
16.32 0.005 0
16.4 0.005 0
16.48 0.005 0
16.56 0.005 0
16.64 0.005 0
16.72 0.005 0
16.8 0.005 0
16.88 0.005 0
16.96 0.005 0
17.04 0.005 0
17.12 0.005 0
17.2 0.005 0
17.28 0.005 0
17.36 0.005 0
17.44 0.005 0
17.52 0.005 0
17.6 0.005 0
17.68 0.005 0
17.76 0.005 0
17.84 0.005 0
17.92 0.005 0
18 0.005 0
18.08 0.005 0
18.16 0.005 0
18.24 0.005 0
18.32 0.005 0
18.4 0.005 0
18.48 0.005 0
18.56 0.005 0
18.64 0.005 0
18.72 0.005 0
18.8 0.005 0
18.88 0.005 0
18.96 0.005 0
19.04 0.005 0
19.12 0.005 0
19.2 0.005 0
19.28 0.005 0
19.36 0.005 0
19.44 0.005 0
19.52 0.005 0
19.6 0.005 0
19.68 0.005 0
19.76 0.005 0
19.84 0.005 0
19.92 0.005 0
20 0.005 0
20.08 0.005 0
20.16 0.005 0
20.24 0.005 0
20.32 0.005 0
20.4 0.005 0
20.48 0.005 0
20.56 0.005 0
20.64 0.005 0
20.72 0.005 0
20.8 0.005 0
20.88 0.005 0
20.96 0.005 0
21.04 0.005 0
21.12 0.005 0
21.2 0.005 0
21.28 0.005 0
21.36 0.005 0
21.44 0.005 0
21.52 0.005 0
21.6 0.005 0
21.68 0.005 0
21.76 0.005 0
21.84 0.005 0
21.92 0.005 0
22 0.005 0
22.08 0.005 0
22.16 0.005 0
22.24 0.005 0
22.32 0.005 0
22.4 0.005 0
22.48 0.005 0
22.56 0.005 0
22.64 0.005 0
22.72 0.005 0
22.8 0.005 0
22.88 0.005 0
22.96 0.005 0
23.04 0.005 0
23.12 0.005 0
23.2 0.005 0
23.28 0.005 0
23.36 0.005 0
23.44 0.005 0
23.52 0.005 0
23.6 0.005 0
23.68 0.005 0
23.76 0.005 0
23.84 0.005 0
23.92 0.005 0
24 0.005 0
24.08 0.005 0
24.16 0.005 0
24.24 0.005 0
24.32 0.005 0
24.4 0.005 0
24.48 0.005 0
24.56 0.005 0
24.64 0.005 0
24.72 0.005 0
24.8 0.005 0
24.88 0.005 0
24.96 0.005 0
25.04 0.005 0
25.12 0.005 0
25.2 0.005 0
25.28 0.005 0
25.36 0.005 0
25.44 0.005 0
25.52 0.005 0
25.6 0.005 0
25.68 0.005 0
25.76 0.005 0
25.84 0.005 0
25.92 0.005 0
26 0.005 0
26.08 0.005 0
26.16 0.005 0
26.24 0.005 0
26.32 0.005 0
26.4 0.005 0
26.48 0.005 0
26.56 0.005 0
26.64 0.005 0
26.72 0.005 0
26.8 0.005 0
26.88 0.005 0
26.96 0.005 0
27.04 0.005 0
27.12 0.005 0
27.2 0.005 0
27.28 0.005 0
27.36 0.005 0
27.44 0.005 0
27.52 0.005 0
27.6 0.005 0
27.68 0.005 0
27.76 0.005 0
27.84 0.005 0
27.92 0.005 0
28 0.005 0
28.08 0.005 0
28.16 0.005 0
28.24 0.005 0
28.32 0.005 0
28.4 0.005 0
28.48 0.005 0
28.56 0.005 0
28.64 0.005 0
28.72 0.005 0
28.8 0.005 0
28.88 0.005 0
28.96 0.005 0
29.04 0.005 0
29.12 0.005 0
29.2 0.005 0
29.28 0.005 0
29.36 0.005 0
29.44 0.005 0
29.52 0.005 0
29.6 0.005 0
29.68 0.005 0
29.76 0.005 0
29.84 0.005 0
29.92 0.005 0
30 0.005 0
30.08 0.005 0
30.16 0.005 0
30.24 0.005 0
30.32 0.005 0
30.4 0.005 0
30.48 0.005 0
30.56 0.005 0
30.64 0.005 0
30.72 0.005 0
30.8 0.005 0
30.88 0.005 0
30.96 0.005 0
31.04 0.005 0
31.12 0.005 0
31.2 0.005 0
31.28 0.005 0
31.36 0.005 0
31.44 0.005 0
31.52 0.005 0
31.6 0.005 0
31.68 0.005 0
31.76 0.005 0
31.84 0.005 0
31.92 0.005 0
0 0.01 0
0.08 0.01 0
0.16 0.01 0
0.24 0.01 0
0.32 0.01 0
0.4 0.01 0
0.48 0.01 0
0.56 0.01 0
0.64 0.01 0
0.72 0.01 0
0.8 0.01 0
0.88 0.01 0
0.96 0.01 0
1.04 0.01 0
1.12 0.01 0
1.2 0.01 0
1.28 0.01 0
1.36 0.01 0
1.44 0.01 0
1.52 0.01 0
1.6 0.01 0
1.68 0.01 0
1.76 0.01 0
1.84 0.01 0
1.92 0.01 0
2 0.01 0
2.08 0.01 0
2.16 0.01 0
2.24 0.01 0
2.32 0.01 0
2.4 0.01 0
2.48 0.01 0
2.56 0.01 0
2.64 0.01 0
2.72 0.01 0
2.8 0.01 0
2.88 0.01 0
2.96 0.01 0
3.04 0.01 0
3.12 0.01 0
3.2 0.01 0
3.28 0.01 0
3.36 0.01 0
3.44 0.01 0
3.52 0.01 0
3.6 0.01 0
3.68 0.01 0
3.76 0.01 0
3.84 0.01 0
3.92 0.01 0
4 0.01 0
4.08 0.01 0
4.16 0.01 0
4.24 0.01 0
4.32 0.01 0
4.4 0.01 0
4.48 0.01 0
4.56 0.01 0
4.64 0.01 0
4.72 0.01 0
4.8 0.01 0
4.88 0.01 0
4.96 0.01 0
5.04 0.01 0
5.12 0.01 0
[...]
POINT_DATA 80000

SCALARS u float 1
LOOKUP_TABLE default
0
-0.1316625604
-0.06826904008
-0.05229576416
-0.04441959991
-0.03957645929
-0.03625933734
-0.0338322703
-0.03197226614
-0.0304955643
-0.02928947302
-0.02828115172
-0.02742163771
-0.02667697902
-0.02602300596
-0.02544210625
-0.02492116735
-0.02445022834
-0.02402157761
-0.02362913794
-0.02326804042
-0.0229343247
-0.02262472501
-0.02233651497
-0.02206739351
-0.02181539967
-0.02157884801
-0.02135627899
-0.02114642028
-0.02094815621
-0.02076050326
-0.02058259039
-0.02041364277
-0.02025296853
-0.02009994759
-0.01995402241
-0.01981469011
-0.01968149579
-0.01955402688
-0.01943190817
-0.01931479768
-0.01920238297
-0.01909437795
-0.01899052017
-0.01889056834
-0.01879430026
-0.01870151091
-0.0186120108
-0.01852562454
-0.01844218952
-0.01836155472
-0.01828357976
-0.01820813389
-0.01813509523
-0.01806434998
-0.01799579179
-0.01792932112
-0.01786484472
-0.01780227516
-0.01774153031
-0.01768253301
-0.01762521065
-0.01756949486
-0.01751532119
-0.01746262883
-0.01741136037
-0.01736146152
-0.01731288096
-0.01726557006
-0.01721948277
-0.01717457541
-0.01713080652
-0.01708813673
-0.01704652861
-0.01700594655
-0.01696635667
-0.01692772668
-0.01689002578
-0.01685322461
-0.01681729514
-0.01678221058
-0.01674794532
-0.01671447486
-0.01668177576
-0.01664982554
-0.01661860267
-0.0165880865
-0.01655825721
-0.01652909576
-0.01650058385
-0.0164727039
-0.01644543899
-0.01641877283
-0.01639268972
-0.01636717455
-0.01634221273
-0.0163177902
-0.01629389338
-0.01627050915
-0.01624762483
-0.01622522819
-0.01620330736
-0.01618185088
-0.01616084765
-0.0161402869
-0.01612015823
-0.01610045152
-0.01608115697
-0.01606226509
-0.01604376664
-0.01602565265
-0.01600791444
-0.01599054353
-0.0159735317
-0.01595687096
-0.01594055354
-0.01592457186
-0.01590891856
-0.01589358646
-0.01587856858
-0.01586385813
-0.01584944845
-0.0158353331
-0.01582150577
-0.01580796031
-0.01579469074
-0.0157816912
-0.01576895599
-0.01575647953
-0.0157442564
-0.01573228128
-0.01572054899
-0.01570905446
-0.01569779274
-0.01568675901
-0.01567594854
-0.0156653567
-0.015654979
-0.01564481101
-0.01563484842
-0.01562508701
-0.01561552266
-0.01560615134
-0.01559696908
-0.01558797204
-0.01557915643
-0.01557051856
-0.01556205481
-0.01555376163
-0.01554563557
-0.01553767322
-0.01552987128
-0.01552222648
-0.01551473565
-0.01550739567
-0.01550020349
-0.01549315612
-0.01548625064
-0.01547948418
-0.01547285394
-0.01546635717
-0.01545999118
-0.01545375334
-0.01544764105
-0.0154416518
-0.01543578311
-0.01543003255
-0.01542439774
-0.01541887636
-0.01541346612
-0.01540816478
-0.01540297017
-0.01539788014
-0.01539289257
-0.01538800542
-0.01538321666
-0.01537852433
-0.01537392647
-0.0153694212
-0.01536500665
-0.01536068101
-0.01535644248
-0.01535228932
-0.01534821981
-0.01534423227
-0.01534032506
-0.01533649656
-0.0153327452
-0.01532906941
-0.01532546769
-0.01532193855
-0.01531848053
-0.0153150922
-0.01531177216
-0.01530851904
-0.01530533149
-0.0153022082
-0.01529914787
-0.01529614925
-0.01529321109
-0.01529033217
-0.01528751131
-0.01528474733
-0.0152820391
-0.0152793855
-0.01527678542
-0.01527423779
-0.01527174155
-0.01526929568
-0.01526689915
-0.01526455098
-0.01526225019
-0.01525999583
-0.01525778697
-0.01525562269
-0.01525350209
-0.0152514243
-0.01524938844
-0.01524739369
-0.01524543921
-0.01524352419
-0.01524164783
-0.01523980936
-0.01523800802
-0.01523624305
-0.01523451372
-0.01523281933
-0.01523115915
-0.01522953251
-0.01522793872
-0.01522637713
-0.01522484709
-0.01522334795
-0.01522187911
-0.01522043994
-0.01521902985
-0.01521764825
-0.01521629457
-0.01521496825
-0.01521366873
-0.01521239547
-0.01521114795
-0.01520992564
-0.01520872803
-0.01520755464
-0.01520640496
-0.01520527852
-0.01520417486
-0.0152030935
-0.01520203401
-0.01520099594
-0.01519997885
-0.01519898234
-0.01519800597
-0.01519704934
-0.01519611206
-0.01519519373
-0.01519429397
-0.01519341241
-0.01519254867
-0.01519170241
-0.01519087326
-0.01519006088
-0.01518926493
-0.01518848508
-0.01518772101
-0.01518697239
-0.01518623891
-0.01518552028
-0.01518481617
-0.01518412632
-0.01518345042
-0.01518278819
-0.01518213936
-0.01518150366
-0.01518088082
-0.01518027058
-0.01517967269
-0.0151790869
-0.01517851296
-0.01517795063
-0.01517739968
-0.01517685988
-0.015176331
-0.01517581283
-0.01517530514
-0.01517480773
-0.01517432038
-0.0151738429
-0.01517337507
-0.01517291672
-0.01517246764
-0.01517202766
-0.01517159657
-0.01517117422
-0.01517076041
-0.01517035497
-0.01516995775
-0.01516956856
-0.01516918725
-0.01516881366
-0.01516844763
-0.01516808902
-0.01516773766
-0.01516739341
-0.01516705613
-0.01516672568
-0.01516640192
-0.01516608471
-0.01516577393
-0.01516546944
-0.01516517111
-0.01516487882
-0.01516459245
-0.01516431188
-0.01516403698
-0.01516376766
-0.01516350378
-0.01516324525
-0.01516299195
-0.01516274378
-0.01516250064
-0.01516226242
-0.01516202902
-0.01516180035
-0.01516157631
-0.01516135681
-0.01516114175
-0.01516093104
-0.0151607246
-0.01516052235
-0.01516032418
-0.01516013003
-0.01515993981
-0.01515975345
-0.01515957086
-0.01515939196
-0.01515921669
-0.01515904497
-0.01515887672
-0.01515871189
-0.01515855039
-0.01515839216
-0.01515823713
-0.01515808525
-0.01515793644
-0.01515779065
-0.0151576478
-0.01515750786
-0.01515737074
-0.01515723641
-0.01515710478
-0.01515697584
-0.01515684949
-0.01515672572
-0.01515660444
-0.01515648564
-0.01515636921
-0.01515625518
-0.01515614341
-0.01515603396
-0.01515592667
-0.01515582161
-0.01515571861
-0.01515561779
-0.0151555189
-0.01515542213
-0.01515532719
-0.01515523433
-0.01515514316
-0.01515505407
-0.01515496651
-0.01515488104
-0.01515479694
-0.01515471496
-0.01515463416
-0.01515455556
-0.0151544779
-0.01515440258
-0.01515432789
-0.01515425577
-0.01515418391
-0.01515411495
-0.01515404575
-0.01515397995
-0.0151539133
-0.01515385078
-0.01515378666
-0.01515372777
-0.01515366646
-0.01515361211
-0.01515355467
-0.01515350705
-0.01515345662
-0.01515342071
-0.01515338517
-0.01515337048
-0.01515336478
-0.01515336478
-0.01515336478
1
0.1316625604
0.06826904008
0.05229576416
0.04441959991
0.03957645929
0.03625933734
0.0338322703
0.03197226614
0.0304955643
0.02928947302
0.02828115172
0.02742163771
0.02667697902
0.02602300596
0.02544210625
0.02492116735
0.02445022834
0.02402157761
0.02362913794
0.02326804042
0.0229343247
0.02262472501
0.02233651497
0.02206739351
0.02181539967
0.02157884801
0.02135627899
0.02114642028
0.02094815621
0.02076050326
0.02058259039
0.02041364277
0.02025296853
0.02009994759
0.01995402241
0.01981469011
0.01968149579
0.01955402688
0.01943190817
0.01931479768
0.01920238297
0.01909437795
0.01899052017
0.01889056834
0.01879430026
0.01870151091
0.0186120108
0.01852562454
0.01844218952
0.01836155472
0.01828357976
0.01820813389
0.01813509523
0.01806434998
0.01799579179
0.01792932112
0.01786484472
0.01780227516
0.01774153031
0.01768253301
0.01762521065
0.01756949486
0.01751532119
0.01746262883
0.01741136037
0.01736146152
0.01731288096
0.01726557006
0.01721948277
0.01717457541
0.01713080652
0.01708813673
0.01704652861
0.01700594655
0.01696635667
0.01692772668
0.01689002578
0.01685322461
0.01681729514
0.01678221058
0.01674794532
0.01671447486
0.01668177576
0.01664982554
0.01661860267
0.0165880865
0.01655825721
0.01652909576
0.01650058385
0.0164727039
0.01644543899
0.01641877283
0.01639268972
0.01636717455
0.01634221273
0.0163177902
0.01629389338
0.01627050915
0.01624762483
0.01622522819
0.01620330736
0.01618185088
0.01616084765
0.0161402869
0.01612015823
0.01610045152
0.01608115697
0.01606226509
0.01604376664
0.01602565265
0.01600791444
0.01599054353
0.0159735317
0.01595687096
0.01594055354
0.01592457186
0.01590891856
0.01589358646
0.01587856858
0.01586385813
0.01584944845
0.0158353331
0.01582150577
0.01580796031
0.01579469074
0.0157816912
0.01576895599
0.01575647953
0.0157442564
0.01573228128
0.01572054899
0.01570905446
0.01569779274
0.01568675901
0.01567594854
0.0156653567
0.015654979
0.01564481101
0.01563484842
0.01562508701
0.01561552266
0.01560615134
0.01559696908
0.01558797204
0.01557915643
0.01557051856
0.01556205481
0.01555376163
0.01554563557
0.01553767322
0.01552987128
0.01552222648
0.01551473565
0.01550739567
0.01550020349
0.01549315612
0.01548625064
0.01547948418
0.01547285394
0.01546635717
0.01545999118
0.01545375334
0.01544764105
0.0154416518
0.01543578311
0.01543003255
0.01542439774
0.01541887636
0.01541346612
0.01540816478
0.01540297017
0.01539788014
0.01539289257
0.01538800542
0.01538321666
0.01537852433
0.01537392647
0.0153694212
0.01536500665
0.01536068101
0.01535644248
0.01535228932
0.01534821981
0.01534423227
0.01534032506
0.01533649656
0.0153327452
0.01532906941
0.01532546769
0.01532193855
0.01531848053
0.0153150922
0.01531177216
0.01530851904
0.01530533149
0.0153022082
0.01529914787
0.01529614925
0.01529321109
0.01529033217
0.01528751131
0.01528474733
0.0152820391
0.0152793855
0.01527678542
0.01527423779
0.01527174155
0.01526929568
0.01526689915
0.01526455098
0.01526225019
0.01525999583
0.01525778697
0.01525562269
0.01525350209
0.0152514243
0.01524938844
0.01524739369
0.01524543921
0.01524352419
0.01524164783
0.01523980936
0.01523800802
0.01523624305
0.01523451372
0.01523281933
0.01523115915
0.01522953251
0.01522793872
0.01522637713
0.01522484709
0.01522334795
0.01522187911
0.01522043994
0.01521902985
0.01521764825
0.01521629457
0.01521496825
0.01521366873
0.01521239547
0.01521114795
0.01520992564
0.01520872803
0.01520755464
0.01520640496
0.01520527852
0.01520417486
0.0152030935
0.01520203401
0.01520099594
0.01519997885
0.01519898234
0.01519800597
0.01519704934
0.01519611206
0.01519519373
0.01519429397
0.01519341241
0.01519254867
0.01519170241
0.01519087326
0.01519006088
0.01518926493
0.01518848508
0.01518772101
0.01518697239
0.01518623891
0.01518552028
0.01518481617
0.01518412632
0.01518345042
0.01518278819
0.01518213936
0.01518150366
0.01518088082
0.01518027058
0.01517967269
0.0151790869
0.01517851296
0.01517795063
0.01517739968
0.01517685988
0.015176331
0.01517581283
0.01517530514
0.01517480773
0.01517432038
0.0151738429
0.01517337507
0.01517291672
0.01517246764
0.01517202766
0.01517159657
0.01517117422
0.01517076041
0.01517035497
0.01516995775
0.01516956856
0.01516918725
0.01516881366
0.01516844763
0.01516808902
0.01516773766
0.01516739341
0.01516705613
0.01516672568
0.01516640192
0.01516608471
0.01516577393
0.01516546944
0.01516517111
0.01516487882
0.01516459245
0.01516431188
0.01516403698
0.01516376766
0.01516350378
0.01516324525
0.01516299195
0.01516274378
0.01516250064
0.01516226242
0.01516202902
0.01516180035
0.01516157631
0.01516135681
0.01516114175
0.01516093104
0.0151607246
0.01516052235
0.01516032418
0.01516013003
0.01515993981
0.01515975345
0.01515957086
0.01515939196
0.01515921669
0.01515904497
0.01515887672
0.01515871189
0.01515855039
0.01515839216
0.01515823713
0.01515808525
0.01515793644
0.01515779065
0.0151576478
0.01515750786
0.01515737074
0.01515723641
0.01515710478
0.01515697584
0.01515684949
0.01515672572
0.01515660444
0.01515648564
0.01515636921
0.01515625518
0.01515614341
0.01515603396
0.01515592667
0.01515582161
0.01515571861
0.01515561779
0.0151555189
0.01515542213
0.01515532719
0.01515523433
0.01515514316
0.01515505407
0.01515496651
0.01515488104
0.01515479694
0.01515471496
0.01515463416
0.01515455556
0.0151544779
0.01515440258
0.01515432789
0.01515425577
0.01515418391
0.01515411495
0.01515404575
0.01515397995
0.0151539133
0.01515385078
0.01515378666
0.01515372777
0.01515366646
0.01515361211
0.01515355467
0.01515350705
0.01515345662
0.01515342071
0.01515338517
0.01515337048
0.01515336478
0.01515336478
0.01515336478
1
0.3448836491
0.2006672453
0.1549666291
0.1318938664
0.1175978189
0.1077670841
0.1005571198
0.09502405206
0.09062809891
0.0870369002
0.08403490183
0.08147678897
0.07926154562
0.07731711113
0.0755908889
0.07404367262
0.0726456558
0.07137375376
0.07020977348
0.06913914272
0.06815001401
0.06723262356
0.066378826
0.06558175168
0.06483555062
0.06413519842
0.06347634701
0.0628552084
0.0622684628
0.06171318529
0.06118678645
0.06068696394
0.06021166257
0.05975904105
0.05932744424
0.05891537963
0.05852149746
0.05814457371
0.05778349556
0.05743724877
0.0571049069
0.0567856218
0.05647861543
0.05618317261
0.05589863478
0.05562439436
0.05535988989
0.05510460167
0.0548580479
0.05461978125
0.0543893858
0.05416647429
0.05395068568
0.05374168296
0.05353915111
0.05334279538
0.05315233964
0.05296752491
0.05278810805
0.05261386056
0.05244456747
0.05228002633
0.05212004632
0.05196444743
0.05181305965
0.0516657223
0.05152228339
0.05138259903
0.05124653285
0.05111395556
0.05098474445
0.05085878295
0.05073596029
0.05061617108
0.05049931499
0.05038529645
0.05027402435
0.05016541176
0.05005937571
0.04995583691
0.04985471958
0.04975595121
0.04965946239
0.04956518666
0.04947306026
0.0493830221
0.0492950135
0.04920897814
0.04912486188
0.04904261267
0.04896218045
0.04888351701
0.04880657593
0.04873131247
0.04865768349
0.04858564736
0.04851516392
0.04844619436
0.0483787012
0.04831264818
0.04824800026
0.0481847235
0.04812278507
0.04806215315
0.04800279693
0.04794468652
0.04788779293
0.04783208806
0.04777754462
0.0477241361
0.04767183677
0.04762062161
0.04757046632
0.04752134725
0.04747324142
0.04742612644
0.04737998055
0.04733478254
0.04729051177
0.04724714812
0.047204672
0.04716306429
0.04712230639
0.04708238013
0.0470432678
0.04700495212
0.04696741623
0.04693064367
0.04689461838
0.04685932468
0.04682474725
0.04679087112
0.04675768169
0.04672516467
0.04669330612
0.04666209239
0.04663151017
0.04660154641
0.04657218839
0.04654342364
0.04651523997
0.04648762548
0.04646056852
0.04643405766
0.04640808177
0.04638262993
0.04635769146
0.0463332559
0.04630931303
0.04628585283
0.04626286551
0.04624034146
0.04621827131
0.04619664585
0.04617545608
0.04615469319
0.04613434854
0.04611441368
0.04609488034
0.04607574041
0.04605698595
0.04603860919
0.04602060251
0.04600295844
0.04598566969
0.0459687291
0.04595212965
0.04593586447
0.04591992685
0.04590431018
0.04588900801
0.04587401401
0.04585932199
0.04584492587
0.0458308197
0.04581699765
0.04580345401
0.04579018319
0.04577717969
0.04576443816
0.04575195331
0.04573972
0.04572773317
0.04571598786
0.04570447922
0.0456932025
0.04568215304
0.04567132626
0.0456607177
0.04565032297
0.04564013777
0.04563015788
0.04562037919
0.04561079765
0.0456014093
0.04559221025
0.04558319669
0.04557436491
0.04556571124
0.0455572321
0.04554892399
0.04554078346
0.04553280715
0.04552499175
0.04551733403
0.0455098308
0.04550247898
0.0454952755
0.04548821739
0.04548130172
0.04547452563
0.0454678863
0.04546138098
0.04545500698
0.04544876165
0.04544264241
0.0454366467
0.04543077205
0.04542501602
0.04541937622
0.04541385031
0.04540843599
0.04540313102
0.0453979332
0.04539284036
0.04538785039
0.04538296121
0.04537817081
0.04537347718
0.04536887837
0.04536437248
0.04535995762
0.04535563198
0.04535139374
0.04534724114
0.04534317246
0.04533918601
0.04533528012
0.04533145318
0.04532770358
0.04532402978
0.04532043023
0.04531690344
0.04531344795
0.04531006232
0.04530674513
0.045303495
0.04530031059
0.04529719056
0.04529413361
0.04529113848
0.04528820391
0.04528532868
0.0452825116
0.04527975148
0.04527704718
0.04527439757
0.04527180155
0.04526925804
0.04526676597
0.0452643243
0.04526193202
0.04525958813
0.04525729166
0.04525504163
0.04525283713
0.04525067722
0.045248561
0.0452464876
0.04524445614
0.04524246578
0.04524051569
0.04523860506
0.04523673308
0.04523489898
0.04523310199
0.04523134136
0.04522961636
0.04522792626
0.04522627037
0.04522464798
0.04522305842
0.04522150103
0.04521997515
0.04521848016
0.04521701542
0.04521558032
0.04521417427
0.04521279668
0.04521144697
0.04521012457
0.04520882894
0.04520755953
0.04520631582
0.04520509728
0.04520390341
0.0452027337
0.04520158767
0.04520046483
0.04519936473
0.0451982869
0.04519723088
0.04519619624
0.04519518254
0.04519418937
0.0451932163
0.04519226294
0.04519132887
0.04519041371
0.04518951708
0.0451886386
0.04518777791
0.04518693465
0.04518610845
0.04518529899
0.04518450591
0.04518372889
0.04518296761
0.04518222173
0.04518149096
0.04518077499
0.04518007351
0.04517938624
0.04517871289
0.04517805316
0.0451774068
0.04517677352
0.04517615307
0.04517554519
0.04517494961
0.04517436609
0.04517379439
0.04517323427
0.04517268549
0.04517214782
0.04517162104
0.04517110492
0.04517059927
0.04517010385
0.04516961846
0.0451691429
0.04516867698
0.04516822049
0.04516777325
0.04516733506
0.04516690576
0.04516648513
0.04516607304
0.04516566928
0.04516527372
0.04516488614
0.04516450645
0.0451641344
0.04516376995
0.04516341281
0.04516306298
0.04516272014
0.04516238436
0.04516205526
0.04516173296
0.04516141703
0.04516110768
0.04516080439
0.04516050748
0.04516021631
0.04515993136
0.0451596518
0.04515937836
0.04515910992
0.04515884754
0.04515858976
0.04515833804
0.04515809044
0.04515784899
0.04515761112
0.04515737961
0.045157151
0.04515692912
0.04515670931
0.04515649682
0.04515628535
0.0451560821
0.04515587854
0.04515568453
0.04515548852
0.04515530407
0.04515511556
0.04515494166
0.04515476144
0.04515460061
0.04515443176
0.04515429016
0.04515414155
0.04515403345
0.04515392737
0.0451538801
0.04515385885
0.04515385885
0.04515385885
1
0.5187651867
0.3274011946
0.2553467807
0.2178477674
0.1944026528
0.1782107415
0.1663061343
0.1571570571
0.1498824532
0.1439375554
0.1389678787
0.1347337921
0.131068333
0.1278521719
0.124998081
0.1224409665
0.120131304
0.1180307216
0.1161089747
0.1143418408
0.1127096324
0.1111961316
0.1097878156
0.1084732858
0.1072428408
0.1060881531
0.1050020197
0.1039781683
0.1030111045
0.1020959891
0.1012285396
0.1004049493
0.09962182143
0.09887611312
0.09816508989
0.09748628639
0.09683747348
0.09621662996
0.09562191851
0.09505166481
0.09450433962
0.09397854309
0.09347299119
0.09298650378
0.09251799417
0.0920664599
0.09163097468
0.09121068114
0.0908047845
0.09041254686
0.0900332822
0.08966635178
0.08931116013
0.08896715143
0.08863380619
0.0883106383
0.08799719243
0.0876930415
0.08739778461
0.08711104495
0.08683246808
0.08656172019
0.08629848668
0.08604247072
0.08579339203
0.0855509857
0.08531500115
0.08508520113
0.08486136087
0.0846432672
0.08443071781
0.08422352056
0.08402149282
0.08382446087
0.08363225931
0.08344473061
0.08326172458
0.08308309792
0.08290871387
0.08273844172
0.08257215657
0.08240973889
0.0822510743
0.08209605321
0.08194457058
0.08179652568
0.08165182182
0.08151036614
0.08137206945
0.08123684596
0.08110461314
0.08097529156
0.08084880471
0.08072507887
0.08060404293
0.08048562831
0.08036976882
0.0802564005
0.08014546159
0.08003689237
0.07993063507
0.07982663379
0.07972483443
0.07962518458
0.07952763345
0.07943213182
0.07933863194
0.0792470875
0.07915745354
0.07906968641
0.07898374371
0.07889958426
0.078817168
0.07873645601
0.07865741041
0.07857999436
0.078504172
0.07842990841
0.0783571696
0.07828592245
0.07821613468
0.07814777485
0.0780808123
0.07801521712
0.07795096017
0.07788801299
0.07782634782
0.07776593759
0.07770675584
0.07764877676
0.07759197515
0.07753632637
0.07748180638
0.07742839168
0.07737605931
0.07732478683
0.0772745523
0.0772253343
0.07717711184
0.07712986445
0.07708357207
0.0770382151
0.07699377437
0.07695023112
0.076907567
0.07686576405
0.07682480471
0.07678467178
0.07674534845
0.07670681823
0.07666906502
0.07663207304
0.07659582683
0.07656031129
0.0765255116
0.07649141327
0.0764580021
0.07642526421
0.07639318597
0.07636175407
0.07633095544
0.07630077731
0.07627120714
0.07624223269
0.07621384194
0.07618602311
0.0761587647
0.07613205539
0.07610588414
0.07608024012
0.0760551127
0.07603049148
0.07600636628
0.07598272713
0.07595956423
0.07593686801
0.07591462908
0.07589283824
0.07587148649
0.07585056499
0.07583006508
0.07580997831
0.07579029634
0.07577101106
0.07575211447
0.07573359877
0.07571545631
0.07569767956
0.07568026119
0.07566319399
0.07564647089
0.07563008498
0.07561402947
0.07559829774
0.07558288325
0.07556777964
0.07555298065
0.07553848016
0.07552427216
0.07551035077
0.07549671023
0.07548334488
0.07547024919
0.07545741773
0.07544484519
0.07543252636
0.07542045613
0.0754086295
0.07539704157
0.07538568753
0.07537456267
0.07536366239