# vtk DataFile Version 2.0
FlowField
ASCII
DATASET STRUCTURED_GRID
DIMENSIONS 400 1 200
POINTS 80000 float
0 0 0
0.08 0 0
0.16 0 0
0.24 0 0
0.32 0 0
0.4 0 0
0.48 0 0
0.56 0 0
0.64 0 0
0.72 0 0
0.8 0 0
0.88 0 0
0.96 0 0
1.04 0 0
1.12 0 0
1.2 0 0
1.28 0 0
1.36 0 0
1.44 0 0
1.52 0 0
1.6 0 0
1.68 0 0
1.76 0 0
1.84 0 0
1.92 0 0
2 0 0
2.08 0 0
2.16 0 0
2.24 0 0
2.32 0 0
2.4 0 0
2.48 0 0
2.56 0 0
2.64 0 0
2.72 0 0
2.8 0 0
2.88 0 0
2.96 0 0
3.04 0 0
3.12 0 0
3.2 0 0
3.28 0 0
3.36 0 0
3.44 0 0
3.52 0 0
3.6 0 0
3.68 0 0
3.76 0 0
3.84 0 0
3.92 0 0
4 0 0
4.08 0 0
4.16 0 0
4.24 0 0
4.32 0 0
4.4 0 0
4.48 0 0
4.56 0 0
4.64 0 0
4.72 0 0
4.8 0 0
4.88 0 0
4.96 0 0
5.04 0 0
5.12 0 0
5.2 0 0
5.28 0 0
5.36 0 0
5.44 0 0
5.52 0 0
5.6 0 0
5.68 0 0
5.76 0 0
5.84 0 0
5.92 0 0
6 0 0
6.08 0 0
6.16 0 0
6.24 0 0
6.32 0 0
6.4 0 0
6.48 0 0
6.56 0 0
6.64 0 0
6.72 0 0
6.8 0 0
6.88 0 0
6.96 0 0
7.04 0 0
7.12 0 0
7.2 0 0
7.28 0 0
7.36 0 0
7.44 0 0
7.52 0 0
7.6 0 0
7.68 0 0
7.76 0 0
7.84 0 0
7.92 0 0
8 0 0
8.08 0 0
8.16 0 0
8.24 0 0
8.32 0 0
8.4 0 0
8.48 0 0
8.56 0 0
8.64 0 0
8.72 0 0
8.8 0 0
8.88 0 0
8.96 0 0
9.04 0 0
9.12 0 0
9.2 0 0
9.28 0 0
9.36 0 0
9.44 0 0
9.52 0 0
9.6 0 0
9.68 0 0
9.76 0 0
9.84 0 0
9.92 0 0
10 0 0
10.08 0 0
10.16 0 0
10.24 0 0
10.32 0 0
10.4 0 0
10.48 0 0
10.56 0 0
10.64 0 0
10.72 0 0
10.8 0 0
10.88 0 0
10.96 0 0
11.04 0 0
11.12 0 0
11.2 0 0
11.28 0 0
11.36 0 0
11.44 0 0
11.52 0 0
11.6 0 0
11.68 0 0
11.76 0 0
11.84 0 0
11.92 0 0
12 0 0
12.08 0 0
12.16 0 0
12.24 0 0
12.32 0 0
12.4 0 0
12.48 0 0
12.56 0 0
12.64 0 0
12.72 0 0
12.8 0 0
12.88 0 0
12.96 0 0
13.04 0 0
13.12 0 0
13.2 0 0
13.28 0 0
13.36 0 0
13.44 0 0
13.52 0 0
13.6 0 0
13.68 0 0
13.76 0 0
13.84 0 0
13.92 0 0
14 0 0
14.08 0 0
14.16 0 0
14.24 0 0
14.32 0 0
14.4 0 0
14.48 0 0
14.56 0 0
14.64 0 0
14.72 0 0
14.8 0 0
14.88 0 0
14.96 0 0
15.04 0 0
15.12 0 0
15.2 0 0
15.28 0 0
15.36 0 0
15.44 0 0
15.52 0 0
15.6 0 0
15.68 0 0
15.76 0 0
15.84 0 0
15.92 0 0
16 0 0
16.08 0 0
16.16 0 0
16.24 0 0
16.32 0 0
16.4 0 0
16.48 0 0
16.56 0 0
16.64 0 0
16.72 0 0
16.8 0 0
16.88 0 0
16.96 0 0
17.04 0 0
17.12 0 0
17.2 0 0
17.28 0 0
17.36 0 0
17.44 0 0
17.52 0 0
17.6 0 0
17.68 0 0
17.76 0 0
17.84 0 0
17.92 0 0
18 0 0
18.08 0 0
18.16 0 0
18.24 0 0
18.32 0 0
18.4 0 0
18.48 0 0
18.56 0 0
18.64 0 0
18.72 0 0
18.8 0 0
18.88 0 0
18.96 0 0
19.04 0 0
19.12 0 0
19.2 0 0
19.28 0 0
19.36 0 0
19.44 0 0
19.52 0 0
19.6 0 0
19.68 0 0
19.76 0 0
19.84 0 0
19.92 0 0
20 0 0
20.08 0 0
20.16 0 0
20.24 0 0
20.32 0 0
20.4 0 0
20.48 0 0
20.56 0 0
20.64 0 0
20.72 0 0
20.8 0 0
20.88 0 0
20.96 0 0
21.04 0 0
21.12 0 0
21.2 0 0
21.28 0 0
21.36 0 0
21.44 0 0
21.52 0 0
21.6 0 0
21.68 0 0
21.76 0 0
21.84 0 0
21.92 0 0
22 0 0
22.08 0 0
22.16 0 0
22.24 0 0
22.32 0 0
22.4 0 0
22.48 0 0
22.56 0 0
22.64 0 0
22.72 0 0
22.8 0 0
22.88 0 0
22.96 0 0
23.04 0 0
23.12 0 0
23.2 0 0
23.28 0 0
23.36 0 0
23.44 0 0
23.52 0 0
23.6 0 0
23.68 0 0
23.76 0 0
23.84 0 0
23.92 0 0
24 0 0
24.08 0 0
24.16 0 0
24.24 0 0
24.32 0 0
24.4 0 0
24.48 0 0
24.56 0 0
24.64 0 0
24.72 0 0
24.8 0 0
24.88 0 0
24.96 0 0
25.04 0 0
25.12 0 0
25.2 0 0
25.28 0 0
25.36 0 0
25.44 0 0
25.52 0 0
25.6 0 0
25.68 0 0
25.76 0 0
25.84 0 0
25.92 0 0
26 0 0
26.08 0 0
26.16 0 0
26.24 0 0
26.32 0 0
26.4 0 0
26.48 0 0
26.56 0 0
26.64 0 0
26.72 0 0
26.8 0 0
26.88 0 0
26.96 0 0
27.04 0 0
27.12 0 0
27.2 0 0
27.28 0 0
27.36 0 0
27.44 0 0
27.52 0 0
27.6 0 0
27.68 0 0
27.76 0 0
27.84 0 0
27.92 0 0
28 0 0
28.08 0 0
28.16 0 0
28.24 0 0
28.32 0 0
28.4 0 0
28.48 0 0
28.56 0 0
28.64 0 0
28.72 0 0
28.8 0 0
28.88 0 0
28.96 0 0
29.04 0 0
29.12 0 0
29.2 0 0
29.28 0 0
29.36 0 0
29.44 0 0
29.52 0 0
29.6 0 0
29.68 0 0
29.76 0 0
29.84 0 0
29.92 0 0
30 0 0
30.08 0 0
30.16 0 0
30.24 0 0
30.32 0 0
30.4 0 0
30.48 0 0
30.56 0 0
30.64 0 0
30.72 0 0
30.8 0 0
30.88 0 0
30.96 0 0
31.04 0 0
31.12 0 0
31.2 0 0
31.28 0 0
31.36 0 0
31.44 0 0
31.52 0 0
31.6 0 0
31.68 0 0
31.76 0 0
31.84 0 0
31.92 0 0
0 0.005 0
0.08 0.005 0
0.16 0.005 0
0.24 0.005 0
0.32 0.005 0
0.4 0.005 0
0.48 0.005 0
0.56 0.005 0
0.64 0.005 0
0.72 0.005 0
0.8 0.005 0
0.88 0.005 0
0.96 0.005 0
1.04 0.005 0
1.12 0.005 0
1.2 0.005 0
1.28 0.005 0
1.36 0.005 0
1.44 0.005 0
1.52 0.005 0
1.6 0.005 0
1.68 0.005 0
1.76 0.005 0
1.84 0.005 0
1.92 0.005 0
2 0.005 0
2.08 0.005 0
2.16 0.005 0
2.24 0.005 0
2.32 0.005 0
2.4 0.005 0
2.48 0.005 0
2.56 0.005 0
2.64 0.005 0
2.72 0.005 0
2.8 0.005 0
2.88 0.005 0
2.96 0.005 0
3.04 0.005 0
3.12 0.005 0
3.2 0.005 0
3.28 0.005 0
3.36 0.005 0
3.44 0.005 0
3.52 0.005 0
3.6 0.005 0
3.68 0.005 0
3.76 0.005 0
3.84 0.005 0
3.92 0.005 0
4 0.005 0
4.08 0.005 0
4.16 0.005 0
4.24 0.005 0
4.32 0.005 0
4.4 0.005 0
4.48 0.005 0
4.56 0.005 0
4.64 0.005 0
4.72 0.005 0
4.8 0.005 0
4.88 0.005 0
4.96 0.005 0
5.04 0.005 0
5.12 0.005 0
5.2 0.005 0
5.28 0.005 0
5.36 0.005 0
5.44 0.005 0
5.52 0.005 0
5.6 0.005 0
5.68 0.005 0
5.76 0.005 0
5.84 0.005 0
5.92 0.005 0
6 0.005 0
6.08 0.005 0
6.16 0.005 0
6.24 0.005 0
6.32 0.005 0
6.4 0.005 0
6.48 0.005 0
6.56 0.005 0
6.64 0.005 0
6.72 0.005 0
6.8 0.005 0
6.88 0.005 0
6.96 0.005 0
7.04 0.005 0
7.12 0.005 0
7.2 0.005 0
7.28 0.005 0
7.36 0.005 0
7.44 0.005 0
7.52 0.005 0
7.6 0.005 0
7.68 0.005 0
7.76 0.005 0
7.84 0.005 0
7.92 0.005 0
8 0.005 0
8.08 0.005 0
8.16 0.005 0
8.24 0.005 0
8.32 0.005 0
8.4 0.005 0
8.48 0.005 0
8.56 0.005 0
8.64 0.005 0
8.72 0.005 0
8.8 0.005 0
8.88 0.005 0
8.96 0.005 0
9.04 0.005 0
9.12 0.005 0
9.2 0.005 0
9.28 0.005 0
9.36 0.005 0
9.44 0.005 0
9.52 0.005 0
9.6 0.005 0
9.68 0.005 0
9.76 0.005 0
9.84 0.005 0
9.92 0.005 0
10 0.005 0
10.08 0.005 0
10.16 0.005 0
10.24 0.005 0
10.32 0.005 0
10.4 0.005 0
10.48 0.005 0
10.56 0.005 0
10.64 0.005 0
10.72 0.005 0
10.8 0.005 0
10.88 0.005 0
10.96 0.005 0
11.04 0.005 0
11.12 0.005 0
11.2 0.005 0
11.28 0.005 0
11.36 0.005 0
11.44 0.005 0
11.52 0.005 0
11.6 0.005 0
11.68 0.005 0
11.76 0.005 0
11.84 0.005 0
11.92 0.005 0
12 0.005 0
12.08 0.005 0
12.16 0.005 0
12.24 0.005 0
12.32 0.005 0
12.4 0.005 0
12.48 0.005 0
12.56 0.005 0
12.64 0.005 0
12.72 0.005 0
12.8 0.005 0
12.88 0.005 0
12.96 0.005 0
13.04 0.005 0
13.12 0.005 0
13.2 0.005 0
13.28 0.005 0
13.36 0.005 0
13.44 0.005 0
13.52 0.005 0
13.6 0.005 0
13.68 0.005 0
13.76 0.005 0
13.84 0.005 0
13.92 0.005 0
14 0.005 0
14.08 0.005 0
14.16 0.005 0
14.24 0.005 0
14.32 0.005 0
14.4 0.005 0
14.48 0.005 0
14.56 0.005 0
14.64 0.005 0
14.72 0.005 0
14.8 0.005 0
14.88 0.005 0
14.96 0.005 0
15.04 0.005 0
15.12 0.005 0
15.2 0.005 0
15.28 0.005 0
15.36 0.005 0
15.44 0.005 0
15.52 0.005 0
15.6 0.005 0
15.68 0.005 0
15.76 0.005 0
15.84 0.005 0
15.92 0.005 0
16 0.005 0
16.08 0.005 0
16.16 0.005 0
16.24 0.005 0
16.32 0.005 0
16.4 0.005 0
16.48 0.005 0
16.56 0.005 0
16.64 0.005 0
16.72 0.005 0
16.8 0.005 0
16.88 0.005 0
16.96 0.005 0
17.04 0.005 0
17.12 0.005 0
17.2 0.005 0
17.28 0.005 0
17.36 0.005 0
17.44 0.005 0
17.52 0.005 0
17.6 0.005 0
17.68 0.005 0
17.76 0.005 0
17.84 0.005 0
17.92 0.005 0
18 0.005 0
18.08 0.005 0
18.16 0.005 0
18.24 0.005 0
18.32 0.005 0
18.4 0.005 0
18.48 0.005 0
18.56 0.005 0
18.64 0.005 0
18.72 0.005 0
18.8 0.005 0
18.88 0.005 0
18.96 0.005 0
19.04 0.005 0
19.12 0.005 0
19.2 0.005 0
19.28 0.005 0
19.36 0.005 0
19.44 0.005 0
19.52 0.005 0
19.6 0.005 0
19.68 0.005 0
19.76 0.005 0
19.84 0.005 0
19.92 0.005 0
20 0.005 0
20.08 0.005 0
20.16 0.005 0
20.24 0.005 0
20.32 0.005 0
20.4 0.005 0
20.48 0.005 0
20.56 0.005 0
20.64 0.005 0
20.72 0.005 0
20.8 0.005 0
20.88 0.005 0
20.96 0.005 0
21.04 0.005 0
21.12 0.005 0
21.2 0.005 0
21.28 0.005 0
21.36 0.005 0
21.44 0.005 0
21.52 0.005 0
21.6 0.005 0
21.68 0.005 0
21.76 0.005 0
21.84 0.005 0
21.92 0.005 0
22 0.005 0
22.08 0.005 0
22.16 0.005 0
22.24 0.005 0
22.32 0.005 0
22.4 0.005 0
22.48 0.005 0
22.56 0.005 0
22.64 0.005 0
22.72 0.005 0
22.8 0.005 0
22.88 0.005 0
22.96 0.005 0
23.04 0.005 0
23.12 0.005 0
23.2 0.005 0
23.28 0.005 0
23.36 0.005 0
23.44 0.005 0
23.52 0.005 0
23.6 0.005 0
23.68 0.005 0
23.76 0.005 0
23.84 0.005 0
23.92 0.005 0
24 0.005 0
24.08 0.005 0
24.16 0.005 0
24.24 0.005 0
24.32 0.005 0
24.4 0.005 0
24.48 0.005 0
24.56 0.005 0
24.64 0.005 0
24.72 0.005 0
24.8 0.005 0
24.88 0.005 0
24.96 0.005 0
25.04 0.005 0
25.12 0.005 0
25.2 0.005 0
25.28 0.005 0
25.36 0.005 0
25.44 0.005 0
25.52 0.005 0
25.6 0.005 0
25.68 0.005 0
25.76 0.005 0
25.84 0.005 0
25.92 0.005 0
26 0.005 0
26.08 0.005 0
26.16 0.005 0
26.24 0.005 0
26.32 0.005 0
26.4 0.005 0
26.48 0.005 0
26.56 0.005 0
26.64 0.005 0
26.72 0.005 0
26.8 0.005 0
26.88 0.005 0
26.96 0.005 0
27.04 0.005 0
27.12 0.005 0
27.2 0.005 0
27.28 0.005 0
27.36 0.005 0
27.44 0.005 0
27.52 0.005 0
27.6 0.005 0
27.68 0.005 0
27.76 0.005 0
27.84 0.005 0
27.92 0.005 0
28 0.005 0
28.08 0.005 0
28.16 0.005 0
28.24 0.005 0
28.32 0.005 0
28.4 0.005 0
28.48 0.005 0
28.56 0.005 0
28.64 0.005 0
28.72 0.005 0
28.8 0.005 0
28.88 0.005 0
28.96 0.005 0
29.04 0.005 0
29.12 0.005 0
29.2 0.005 0
29.28 0.005 0
29.36 0.005 0
29.44 0.005 0
29.52 0.005 0
29.6 0.005 0
29.68 0.005 0
29.76 0.005 0
29.84 0.005 0
29.92 0.005 0
30 0.005 0
30.08 0.005 0
30.16 0.005 0
30.24 0.005 0
30.32 0.005 0
30.4 0.005 0
30.48 0.005 0
30.56 0.005 0
30.64 0.005 0
30.72 0.005 0
30.8 0.005 0
30.88 0.005 0
30.96 0.005 0
31.04 0.005 0
31.12 0.005 0
31.2 0.005 0
31.28 0.005 0
31.36 0.005 0
31.44 0.005 0
31.52 0.005 0
31.6 0.005 0
31.68 0.005 0
31.76 0.005 0
31.84 0.005 0
31.92 0.005 0
0 0.01 0
0.08 0.01 0
0.16 0.01 0
0.24 0.01 0
0.32 0.01 0
0.4 0.01 0
0.48 0.01 0
0.56 0.01 0
0.64 0.01 0
0.72 0.01 0
0.8 0.01 0
0.88 0.01 0
0.96 0.01 0
1.04 0.01 0
1.12 0.01 0
1.2 0.01 0
1.28 0.01 0
1.36 0.01 0
1.44 0.01 0
1.52 0.01 0
1.6 0.01 0
1.68 0.01 0
1.76 0.01 0
1.84 0.01 0
1.92 0.01 0
2 0.01 0
2.08 0.01 0
2.16 0.01 0
2.24 0.01 0
2.32 0.01 0
2.4 0.01 0
2.48 0.01 0
2.56 0.01 0
2.64 0.01 0
2.72 0.01 0
2.8 0.01 0
2.88 0.01 0
2.96 0.01 0
3.04 0.01 0
3.12 0.01 0
3.2 0.01 0
3.28 0.01 0
3.36 0.01 0
3.44 0.01 0
3.52 0.01 0
3.6 0.01 0
3.68 0.01 0
3.76 0.01 0
3.84 0.01 0
3.92 0.01 0
4 0.01 0
4.08 0.01 0
4.16 0.01 0
4.24 0.01 0
4.32 0.01 0
4.4 0.01 0
4.48 0.01 0
4.56 0.01 0
4.64 0.01 0
4.72 0.01 0
4.8 0.01 0
4.88 0.01 0
4.96 0.01 0
5.04 0.01 0
5.12 0.01 0
[...]
POINT_DATA 80000

SCALARS p float 1
LOOKUP_TABLE default
1
56.54503063
56.2432956
56.20213581
56.18204583
56.1676269
56.15562593
56.1448825
56.13488437
56.12537876
56.11623245
56.10737172
56.09875379
56.09035227
56.0821495
56.07413245
56.06629057
56.05861466
56.05109627
56.04372748
56.03650074
56.02940889
56.02244509
56.01560286
56.00887607
56.00225895
55.99574608
55.98933237
55.98301307
55.97678371
55.97064014
55.96457847
55.95859505
55.95268648
55.94684958
55.94108136
55.93537902
55.92973994
55.92416165
55.91864182
55.91317828
55.90776896
55.90241192
55.89710532
55.89184743
55.88663659
55.88147125
55.87634993
55.87127122
55.86623379
55.86123637
55.85627774
55.85135676
55.84647232
55.84162336
55.83680888
55.83202792
55.82727956
55.82256291
55.81787712
55.81322139
55.80859493
55.80399698
55.79942684
55.79488379
55.79036718
55.78587635
55.78141068
55.77696957
55.77255245
55.76815874
55.76378791
55.75943943
55.75511279
55.75080751
55.74652309
55.74225909
55.73801504
55.73379052
55.7295851
55.72539838
55.72122994
55.71707941
55.7129464
55.70883054
55.70473149
55.70064888
55.69658239
55.69253167
55.68849641
55.68447629
55.680471
55.67648024
55.67250372
55.66854116
55.66459227
55.66065679
55.65673443
55.65282496
55.6489281
55.64504361
55.64117125
55.63731078
55.63346197
55.62962457
55.62579839
55.62198318
55.61817875
55.61438488
55.61060136
55.60682799
55.60306458
55.59931094
55.59556687
55.59183218
55.58810671
55.58439026
55.58068266
55.57698375
55.57329335
55.5696113
55.56593745
55.56227162
55.55861367
55.55496344
55.55132078
55.54768556
55.54405761
55.54043682
55.53682302
55.5332161
55.52961592
55.52602234
55.52243524
55.5188545
55.51527999
55.51171158
55.50814917
55.50459264
55.50104187
55.49749675
55.49395717
55.49042302
55.4868942
55.48337061
55.47985214
55.47633869
55.47283017
55.46932647
55.46582752
55.4623332
55.45884344
55.45535815
55.45187723
55.4484006
55.44492818
55.44145989
55.43799564
55.43453536
55.43107897
55.42762638
55.42417754
55.42073236
55.41729077
55.41385271
55.41041809
55.40698686
55.40355895
55.4001343
55.39671283
55.39329449
55.38987921
55.38646694
55.38305761
55.37965117
55.37624756
55.37284673
55.36944861
55.36605316
55.36266032
55.35927005
55.35588228
55.35249698
55.3491141
55.34573358
55.34235538
55.33897946
55.33560577
55.33223428
55.32886493
55.32549769
55.32213252
55.31876938
55.31540824
55.31204906
55.30869181
55.30533645
55.30198295
55.29863127
55.2952814
55.2919333
55.28858695
55.28524231
55.28189937
55.27855809
55.27521845
55.27188044
55.26854402
55.26520919
55.2618759
55.25854416
55.25521393
55.25188519
55.24855794
55.24523214
55.24190778
55.23858485
55.23526332
55.23194318
55.22862441
55.22530699
55.2219909
55.21867612
55.21536264
55.21205044
55.2087395
55.20542979
55.20212131
55.19881402
55.19550791
55.19220296
55.18889914
55.18559644
55.18229483
55.17899429
55.17569479
55.17239631
55.16909884
55.16580233
55.16250678
55.15921215
55.15591841
55.15262556
55.14933354
55.14604235
55.14275196
55.13946233
55.13617345
55.13288529
55.12959781
55.12631101
55.12302484
55.11973928
55.11645431
55.11316991
55.10988604
55.10660268
55.10331982
55.10003741
55.09675545
55.09347391
55.09019276
55.08691199
55.08363157
55.08035147
55.07707169
55.0737922
55.07051299
55.06723403
55.0639553
55.06067679
55.05739849
55.05412038
55.05084243
55.04756465
55.04428701
55.04100951
55.03773213
55.03445486
55.03117768
55.0279006
55.0246236
55.02134667
55.01806981
55.014793
55.01151624
55.00823953
55.00496285
55.00168621
54.9984096
54.99513301
54.99185644
54.9885799
54.98530336
54.98202684
54.97875033
54.97547382
54.97219732
54.96892083
54.96564434
54.96236785
54.95909136
54.95581487
54.95253839
54.9492619
54.94598541
54.94270892
54.93943242
54.93615593
54.93287943
54.92960293
54.92632643
54.92304993
54.91977342
54.91649691
54.9132204
54.90994389
54.90666737
54.90339085
54.90011433
54.89683781
54.89356128
54.89028475
54.88700822
54.88373168
54.88045515
54.87717861
54.87390206
54.87062552
54.86734897
54.86407242
54.86079586
54.85751931
54.85424275
54.85096618
54.84768962
54.84441305
54.84113648
54.83785991
54.83458333
54.83130676
54.82803017
54.82475359
54.821477
54.81820041
54.81492382
54.81164723
54.80837063
54.80509403
54.80181743
54.79854082
54.79526421
54.7919876
54.78871099
54.78543437
54.78215775
54.77888113
54.7756045
54.77232788
54.76905125
54.76577461
54.76249798
54.75922134
54.75594469
54.75266805
54.7493914
54.74611475
54.7428381
54.73956144
54.73628478
54.73300812
54.72973146
54.72645479
54.72317812
54.71990145
54.71662477
54.7133481
54.71007141
54.70679473
54.70351804
54.70024135
54.69696466
54.69368797
54.69041127
54.68713457
54.68385786
54.68058116
54.67730445
54.67402774
54.67075102
54.6674743
54.66419758
54.66092086
54.65764413
54.6543674
54.65109066
54.64781394
54.64453717
54.64126056
0.5
56.54503063
56.54503063
56.2432956
56.20213581
56.18204583
56.1676269
56.15562593
56.1448825
56.13488437
56.12537876
56.11623245
56.10737172
56.09875379
56.09035227
56.0821495
56.07413245
56.06629057
56.05861466
56.05109627
56.04372748
56.03650074
56.02940889
56.02244509
56.01560286
56.00887607
56.00225895
55.99574608
55.98933237
55.98301307
55.97678371
55.97064014
55.96457847
55.95859505
55.95268648
55.94684958
55.94108136
55.93537902
55.92973994
55.92416165
55.91864182
55.91317828
55.90776896
55.90241192
55.89710532
55.89184743
55.88663659
55.88147125
55.87634993
55.87127122
55.86623379
55.86123637
55.85627774
55.85135676
55.84647232
55.84162336
55.83680888
55.83202792
55.82727956
55.82256291
55.81787712
55.81322139
55.80859493
55.80399698
55.79942684
55.79488379
55.79036718
55.78587635
55.78141068
55.77696957
55.77255245
55.76815874
55.76378791
55.75943943
55.75511279
55.75080751
55.74652309
55.74225909
55.73801504
55.73379052
55.7295851
55.72539838
55.72122994
55.71707941
55.7129464
55.70883054
55.70473149
55.70064888
55.69658239
55.69253167
55.68849641
55.68447629
55.680471
55.67648024
55.67250372
55.66854116
55.66459227
55.66065679
55.65673443
55.65282496
55.6489281
55.64504361
55.64117125
55.63731078
55.63346197
55.62962457
55.62579839
55.62198318
55.61817875
55.61438488
55.61060136
55.60682799
55.60306458
55.59931094
55.59556687
55.59183218
55.58810671
55.58439026
55.58068266
55.57698375
55.57329335
55.5696113
55.56593745
55.56227162
55.55861367
55.55496344
55.55132078
55.54768556
55.54405761
55.54043682
55.53682302
55.5332161
55.52961592
55.52602234
55.52243524
55.5188545
55.51527999
55.51171158
55.50814917
55.50459264
55.50104187
55.49749675
55.49395717
55.49042302
55.4868942
55.48337061
55.47985214
55.47633869
55.47283017
55.46932647
55.46582752
55.4623332
55.45884344
55.45535815
55.45187723
55.4484006
55.44492818
55.44145989
55.43799564
55.43453536
55.43107897
55.42762638
55.42417754
55.42073236
55.41729077
55.41385271
55.41041809
55.40698686
55.40355895
55.4001343
55.39671283
55.39329449
55.38987921
55.38646694
55.38305761
55.37965117
55.37624756
55.37284673
55.36944861
55.36605316
55.36266032
55.35927005
55.35588228
55.35249698
55.3491141
55.34573358
55.34235538
55.33897946
55.33560577
55.33223428
55.32886493
55.32549769
55.32213252
55.31876938
55.31540824
55.31204906
55.30869181
55.30533645
55.30198295
55.29863127
55.2952814
55.2919333
55.28858695
55.28524231
55.28189937
55.27855809
55.27521845
55.27188044
55.26854402
55.26520919
55.2618759
55.25854416
55.25521393
55.25188519
55.24855794
55.24523214
55.24190778
55.23858485
55.23526332
55.23194318
55.22862441
55.22530699
55.2219909
55.21867612
55.21536264
55.21205044
55.2087395
55.20542979
55.20212131
55.19881402
55.19550791
55.19220296
55.18889914
55.18559644
55.18229483
55.17899429
55.17569479
55.17239631
55.16909884
55.16580233
55.16250678
55.15921215
55.15591841
55.15262556
55.14933354
55.14604235
55.14275196
55.13946233
55.13617345
55.13288529
55.12959781
55.12631101
55.12302484
55.11973928
55.11645431
55.11316991
55.10988604
55.10660268
55.10331982
55.10003741
55.09675545
55.09347391
55.09019276
55.08691199
55.08363157
55.08035147
55.07707169
55.0737922
55.07051299
55.06723403
55.0639553
55.06067679
55.05739849
55.05412038
55.05084243
55.04756465
55.04428701
55.04100951
55.03773213
55.03445486
55.03117768
55.0279006
55.0246236
55.02134667
55.01806981
55.014793
55.01151624
55.00823953
55.00496285
55.00168621
54.9984096
54.99513301
54.99185644
54.9885799
54.98530336
54.98202684
54.97875033
54.97547382
54.97219732
54.96892083
54.96564434
54.96236785
54.95909136
54.95581487
54.95253839
54.9492619
54.94598541
54.94270892
54.93943242
54.93615593
54.93287943
54.92960293
54.92632643
54.92304993
54.91977342
54.91649691
54.9132204
54.90994389
54.90666737
54.90339085
54.90011433
54.89683781
54.89356128
54.89028475
54.88700822
54.88373168
54.88045515
54.87717861
54.87390206
54.87062552
54.86734897
54.86407242
54.86079586
54.85751931
54.85424275
54.85096618
54.84768962
54.84441305
54.84113648
54.83785991
54.83458333
54.83130676
54.82803017
54.82475359
54.821477
54.81820041
54.81492382
54.81164723
54.80837063
54.80509403
54.80181743
54.79854082
54.79526421
54.7919876
54.78871099
54.78543437
54.78215775
54.77888113
54.7756045
54.77232788
54.76905125
54.76577461
54.76249798
54.75922134
54.75594469
54.75266805
54.7493914
54.74611475
54.7428381
54.73956144
54.73628478
54.73300812
54.72973146
54.72645479
54.72317812
54.71990145
54.71662477
54.7133481
54.71007141
54.70679473
54.70351804
54.70024135
54.69696466
54.69368797
54.69041127
54.68713457
54.68385786
54.68058116
54.67730445
54.67402774
54.67075102
54.6674743
54.66419758
54.66092086
54.65764413
54.6543674
54.65109066
54.64781394
54.64453717
54.64126056
54.64126056
56.53044889
56.53044889
56.24713148
56.20339123
56.18268107
56.16802141
56.15589762
56.14508195
56.13503751
56.12550046
56.11633187
56.10745482
56.09882459
56.09041356
56.08220328
56.07418018
56.06633334
56.05865329
56.05113141
56.04375963
56.03653031
56.02943621
56.02247042
56.01562643
56.00889807
56.00227955
55.99576541
55.98935055
55.98303021
55.9767999
55.97065546
55.96459299
55.95860884
55.95269959
55.94686206
55.94109326
55.93539038
55.9297508
55.92417204
55.91865178
55.91318783
55.90777813
55.90242073
55.89711379
55.89185557
55.88664443
55.88147881
55.87635722
55.87127826
55.86624059
55.86124294
55.8562841
55.8513629
55.84647826
55.84162912
55.83681446
55.83203333
55.82728481
55.822568
55.81788207
55.81322619
55.80859959
55.80400152
55.79943124
55.79488808
55.79037135
55.78588041
55.78141463
55.77697342
55.7725562
55.76816239
55.76379147
55.7594429
55.75511618
55.75081081
55.74652631
55.74226223
55.73801811
55.73379351
55.72958802
55.72540123
55.72123273
55.71708213
55.71294905
55.70883314
55.70473403
55.70065136
55.69658481
55.69253404
55.68849873
55.68447855
55.68047321
55.67648241
55.67250584
55.66854323
55.6645943
55.66065877
55.65673638
55.65282686
55.64892996
55.64504543
55.64117303
55.63731252
55.63346367
55.62962624
55.62580002
55.62198478
55.61818032
55.61438641
55.61060286
55.60682946
55.60306602
55.59931235
55.59556825
55.59183354
55.58810803
55.58439155
55.58068393
55.57698499
55.57329457
55.5696125
55.56593862
55.56227276
55.55861479
55.55496454
55.55132186
55.54768661
55.54405865
55.54043783
55.53682401
55.53321707
55.52961687
55.52602327
55.52243615
55.51885539
55.51528086
55.51171244
55.50815001
55.50459346
55.50104268
55.49749754
55.49395794
55.49042378
55.48689495
55.48337134
55.47985285
55.47633939
55.47283085
55.46932715
55.46582818
55.46233385
55.45884408
55.45535877
55.45187784
55.4484012
55.44492877
55.44146046
55.4379962
55.43453591
55.4310795
55.42762691
55.42417806
55.42073287
55.41729127
55.41385319
55.41041857
55.40698733
55.40355941
55.40013474
55.39671327
55.39329492
55.38987963
55.38646735
55.38305802
55.37965157
55.37624795
55.37284711
55.36944898
55.36605352
55.36266068
55.3592704
55.35588263
55.35249732
55.34911443
55.3457339
55.3423557
55.33897977
55.33560608
55.33223457
55.32886522
55.32549797
55.3221328
55.31876966
55.31540851
55.31204933
55.30869207
55.3053367
55.30198319
55.29863152
55.29528164
55.29193354
55.28858718
55.28524253
55.28189958
55.2785583
55.27521866
55.27188064
55.26854422
55.26520938
55.26187609
55.25854434
55.25521411
55.25188537
55.24855811
55.24523231
55.24190795
55.23858501
55.23526348
55.23194333
55.22862455
55.22530713
55.22199104
55.21867626
55.21536277
55.21205057
55.20873962
55.20542991
55.20212142
55.19881413
55.19550802
55.19220306
55.18889924
55.18559654
55.18229492
55.17899437
55.17569487
55.17239639
55.16909891
55.16580241
55.16250685
55.15921221
55.15591848
55.15262562
55.1493336
55.14604241
55.14275201
55.13946238
55.1361735
55.13288533
55.12959786
55.12631105
55.12302487
55.11973932
55.11645435
55.11316994
55.10988607
55.10660271
55.10331984
55.10003744
55.09675547
55.09347393
55.09019278
55.086912
55.08363158
55.08035149
55.07707171
55.07379222
55.070513
55.06723403
55.06395531
55.0606768
55.0573985
55.05412038
55.05084244
55.04756465
55.04428702
55.04100951
55.03773213
55.03445486
55.03117768
55.0279006
55.0246236
55.02134667
55.01806981
55.014793
55.01151624
55.00823953
55.00496285
55.00168621
54.9984096
54.99513301
54.99185644
54.98857989
54.98530336
54.98202684
54.97875033
54.97547382
54.97219732
54.96892083
54.96564434
54.96236785
54.95909136
54.95581487
54.95253838
54.9492619
54.94598541
54.94270892
54.93943242
54.93615593
54.93287943
54.92960293
54.92632643
54.92304993
54.91977342
54.91649691
54.9132204
54.90994389
54.90666737
54.90339085
54.90011433
54.89683781
54.89356128
54.89028475
54.88700822
54.88373168
54.88045514
54.8771786
54.87390206
54.87062551
54.86734897
54.86407241
54.86079586
54.8575193
54.85424275
54.85096618
54.84768962
54.84441305
54.84113648
54.83785991
54.83458333
54.83130675
54.82803017
54.82475359
54.821477
54.81820041
54.81492382
54.81164723
54.80837063
54.80509403
54.80181743
54.79854082
54.79526421
54.7919876
54.78871099
54.78543437
54.78215775
54.77888113
54.7756045
54.77232787
54.76905124
54.76577461
54.76249797
54.75922133
54.75594469
54.75266805
54.7493914
54.74611475
54.7428381
54.73956144
54.73628478
54.73300812
54.72973146
54.72645479
54.72317812
54.71990145
54.71662477
54.71334809
54.71007141
54.70679473
54.70351804
54.70024135
54.69696466
54.69368796
54.69041127
54.68713457
54.68385786
54.68058116
54.67730445
54.67402773
54.67075102
54.6674743
54.66419758
54.66092086
54.65764413
54.6543674
54.65109066
54.64781394
54.64453717
54.64126056
54.64126056
56.51446429
56.51446429
56.2503199
56.20457841
56.18329708
56.16840768
56.15616505
56.14527889
56.13518899
56.12562094
56.11643031
56.10753707
56.09889461
56.09047413
56.08225638
56.07422726
56.06637549
56.05869134
56.05116599
56.04379124
56.03655937
56.02946303
56.02249528
56.01564956
56.00891965
56.00229974
55.99578435
55.98936837
55.983047
55.97681576
55.97067047
55.96460721
55.95862234
55.95271242
55.94687428
55.94110491
55.9354015
55.92976143
55.92418221
55.91866152
55.91319717
55.90778709
55.90242934
55.89712206
55.89186354
55.8866521
55.8814862
55.87636434
55.87128513
55.86624723
55.86124936
55.8562903
55.85136891
55.84648407
55.84163475
55.83681992
55.83203862
55.82728993
55.82257298
55.8178869
55.81323088
55.80860415
55.80400594
55.79943555
55.79489226
55.79037542
55.78588437
55.78141849
55.77697718
55.77255986
55.76816596
55.76379494
55.75944629
55.75511948
55.75081403
55.74652945
55.74226529
55.7380211
55.73379643
55.72959087
55.72540401
55.72123544
55.71708478
55.71295165
55.70883567
55.7047365
55.70065378
55.69658718
55.69253635
55.68850098
55.68448076
55.68047537
55.67648452
55.67250791
55.66854525
55.66459628
55.6606607
55.65673827
55.65282871
55.64893177
55.6450472
55.64117477
55.63731422
55.63346533
55.62962787
55.62580161
55.62198634
55.61818184
55.6143879
55.61060432
55.6068309
55.60306743
55.59931372
55.59556959
55.59183485
55.58810932
55.58439282
55.58068517
55.57698621
55.57329576
55.56961366
55.56593975
55.56227388
55.55861588
55.55496561
55.55132291
55.54768764
55.54405965
55.54043881
55.53682498
55.53321802
55.52961779
55.52602418
55.52243704
55.51885626
55.51528172
55.51171328
55.50815083
55.50459427
55.50104346
55.49749831
55.4939587
55.49042452
55.48689567
55.48337205
55.47985355
55.47634007
55.47283152
55.4693278
55.46582882
55.46233448
55.45884469
55.45535937
55.45187843
55.44840178
55.44492933
55.44146102
55.43799675
55.43453644
55.43108003
55.42762742
55.42417856
55.42073336
55.41729175
55.41385366
55.41041903
55.40698778
55.40355986
55.40013518
55.39671369
55.39329534
55.38988004
55.38646775
55.38305841
55.37965195
55.37624833
55.37284748
55.36944934
55.36605388
55.36266103
55.35927074
55.35588296
55.35249765
55.34911475
55.34573422
55.34235601
55.33898007
55.33560637
55.33223486
55.3288655
55.32549825
55.32213307
55.31876992
55.31540877
55.31204958
55.30869232
55.30533694
55.30198343
55.29863175
55.29528187
55.29193376
55.2885874
55.28524275
55.2818998
55.27855851
55.27521886
55.27188084
55.26854442
55.26520957
55.26187628
55.25854452
55.25521428
55.25188554
55.24855827
55.24523247
55.24190811
55.23858516
55.23526363
55.23194348
55.2286247
55.22530727
55.22199117
55.21867639
55.2153629
55.21205069
55.20873974
55.20543003
55.20212153
55.19881424
55.19550812
55.19220316
55.18889934
55.18559663
55.18229501
55.17899446
55.17569496
55.17239647
55.16909899
55.16580248
55.16250692
55.15921228
55.15591854
55.15262568
55.14933366
55.14604246
55.14275206
55.13946243
55.13617354
55.13288538
55.1295979
55.12631108
55.12302491
55.11973935
55.11645438
55.11316997
55.10988609
55.10660274
55.10331986
55.10003746
55.09675549
55.09347395
55.0901928
55.08691202
55.0836316
55.0803515
55.07707172
55.07379223
55.07051301
55.06723404
55.06395532
55.06067681
55.0573985
55.05412039
55.05084244
55.04756466
55.04428702
55.04100952
55.03773213
55.03445486
55.03117769
55.0279006
55.0246236
55.02134667
55.01806981
55.014793
55.01151624
55.00823953
55.00496285
55.00168621
54.9984096
54.99513301
54.99185644
54.98857989
54.98530336
54.98202684
54.97875032
54.97547382
54.97219732
54.96892083
54.96564433
54.96236785
54.95909136
54.95581487
54.95253838
54.94926189
54.94598541
54.94270891
54.93943242
54.93615593
54.93287943
54.92960293
54.92632643
54.92304993
54.91977342
54.91649691
54.9132204
54.90994389
54.90666737
54.90339085
54.90011433
54.8968378
54.89356128
54.89028475
54.88700822
54.88373168
54.88045514
54.8771786
54.87390206
54.87062551
54.86734896
54.86407241
54.86079586
54.8575193
54.85424274
54.85096618
54.84768962
54.84441305
54.84113648
54.83785991
54.83458333
54.83130675
54.82803017
54.82475359
54.821477
54.81820041
54.81492382
54.81164723
54.80837063
54.80509403
54.80181742
54.79854082
54.79526421
54.7919876
54.78871099
54.78543437
54.78215775
54.77888113
54.7756045
54.77232787
54.76905124
54.76577461
54.76249797
54.75922133
54.75594469
54.75266805
54.7493914
54.74611475
54.7428381
54.73956144
54.73628478
54.73300812
54.72973146
54.72645479
54.72317812
54.71990145
54.71662477
54.71334809
54.71007141
54.70679473
54.70351804
54.70024135
54.69696466
54.69368796
54.69041127
54.68713456
54.68385786
54.68058115
54.67730444
54.67402773
54.67075102
54.6674743
54.66419758
54.66092086
54.65764413
54.6543674
54.65109066
54.64781394
54.64453718
54.64126056
54.64126056
56.49854947
56.49854947
56.2532065
56.20571844
56.18389866
56.16878771
56.15642929
56.14547396
56.13533924
56.12574049
56.11652797
56.10761861
56.09896397
56.09053407
56.08230887
56.07427375
56.06641707
56.05872883
56.05120003
56.04382235
56.03658794
56.02948939
56.0225197
56.01567226
56.00894083
56.00231955
55.99580293
55.98938584
55.98306346
55.9768313
55.97068516
55.96462114
55.95863555
55.95272499
55.94688624
55.94111631
55.93541239
55.92977183
55.92419216
55.91867105
55.9132063
55.90779585
55.90243775
55.89713016
55.89187132
55.8866596
55.88149342
55.87637131
55.87129186
55.86625372
55.86125563
55.85629636
55.85137477
55.84648975
55.84164024
55.83682524
55.83204378
55.82729494
55.82257783
55.81789161
55.81323546
55.80860859
55.80401026
55.79943975
55.79489635
55.79037939
55.78588824
55.78142225
55.77698084
55.77256342
55.76816944
55.76379833
55.75944959
55.7551227
55.75081716
55.74653251
55.74226828
55.73802401